/*--------------------------------*- C++ -*----------------------------------*\
  =========                 |
  \\      /  F ield         | OpenFOAM: The Open Source CFD Toolbox
   \\    /   O peration     | Website:  https://openfoam.org
    \\  /    A nd           | Version:  6
     \\/     M anipulation  |
\*---------------------------------------------------------------------------*/
FoamFile
{
    version     2.0;
    format      ascii;
    class       volScalarField;
    location    "72";
    object      p;
}
// * * * * * * * * * * * * * * * * * * * * * * * * * * * * * * * * * * * * * //

dimensions      [0 2 -2 0 0 0 0];

internalField   nonuniform List<scalar> 
918
(
0.541838
1.24162
0.00613036
0.541754
-0.0114508
1.20939
-0.496787
0.639351
0.522991
-0.122326
-0.0796425
0.525376
1.06623
0.83435
-1.16068
-0.0208119
0.636942
-0.414181
0.52104
-0.0765401
0.662015
0.529664
0.532129
0.522914
0.584698
0.787955
0.943454
-0.00365062
0.0104976
0.00528015
-0.0128371
-0.0331408
-0.0294498
1.09252
1.14445
1.16763
0.489467
0.323536
-0.391805
-0.446031
-0.424601
-0.514571
0.63828
0.638665
-0.220214
0.640558
0.641952
0.508672
0.522386
0.523223
0.524343
0.523251
0.52453
0.387752
-0.128709
-0.154878
-0.108365
-0.107783
0.0297494
-0.0823402
-0.0842821
-0.0780393
-0.0760968
0.438394
0.520113
0.516645
0.529906
0.538235
1.18179
1.15558
1.18167
1.09197
1.1097
1.04329
1.01631
0.855141
0.878426
0.81861
0.805384
-1.61644
-2.56183
-0.584374
-0.308668
-0.0104965
-0.0220147
-0.0205295
0.632764
0.634893
0.635284
0.638237
1.0478
-0.385714
-0.457063
0.521574
0.520096
0.529192
0.530096
0.525059
0.52506
-0.0723685
-0.0706852
-0.065165
-0.0749713
-0.0746915
0.650015
0.649349
0.52235
0.519792
0.546339
0.570245
0.55868
0.255437
0.59469
0.612543
0.65134
0.798461
0.784951
0.79794
0.918706
0.887169
0.974917
0.996605
0.0138874
-0.00130448
-0.0226709
-0.0213286
-0.0214781
0.485199
0.478752
0.506899
0.493095
0.496143
0.228813
0.0786185
0.405725
0.429363
-0.315436
-0.365332
-0.453499
-0.451066
-0.558789
0.609167
0.639339
0.639166
-0.231948
-0.159421
-0.287095
-0.101702
-0.158904
0.499608
0.505871
0.50194
0.517341
0.511505
0.513931
0.526459
0.52364
0.525235
0.44543
0.579729
0.307167
0.279161
-0.275437
-0.172131
-0.256376
-0.100075
-0.0994665
0.0405369
0.0700345
0.0166809
0.00392371
-0.093514
-0.087523
-0.0912992
-0.0721246
-0.071937
0.429805
0.416714
0.449669
0.457214
0.506171
0.507651
0.51219
0.510189
0.967098
0.990133
0.996156
0.972253
-3.53786
-6.1674
0.0344919
0.193121
-0.00923532
-0.0105956
6.17922e-05
-0.00985699
-0.000580191
-0.00268338
-0.0290989
-0.0292208
-0.0232903
-0.0241957
0.630403
0.632186
1.01731
1.04339
0.988848
0.961365
0.510921
0.512802
0.517426
0.514307
-0.0712753
-0.0704429
-0.0713779
0.642733
0.64686
0.644486
0.214046
0.124988
0.307149
0.338448
0.626826
0.616634
0.625981
0.710657
0.750954
1.01383
1.0377
1.02195
1.03488
1.08573
1.10867
1.07356
0.463714
0.474671
0.468923
0.50979
0.507584
0.508535
0.505229
0.506058
0.504784
-0.0327124
-0.404192
0.47917
0.480419
0.472017
0.475264
0.696069
0.779848
0.636021
0.638088
0.638615
-0.0499831
-0.0971775
0.237633
0.208559
0.36867
0.403412
0.385164
0.942738
0.903234
0.951018
0.926366
0.890921
0.914174
-0.340453
-2.10154
-1.09779
0.592663
0.396011
0.487656
-0.0126014
-0.0287448
-0.0253798
1.0323
1.07166
0.652014
0.842448
0.794089
0.775364
0.802055
0.861924
0.79612
0.829025
0.859126
0.834795
0.558855
0.489328
0.507126
0.855344
0.911232
0.0872974
0.00814806
-0.0148882
0.0944105
0.166448
0.133832
1.04816
0.964643
1.02746
0.520033
0.520985
-0.0177328
-0.0409483
0.525108
0.524819
-0.0216336
-0.0116851
0.503397
-0.928336
0.0887642
0.51464
0.504252
0.521105
-0.102154
0.320526
-0.0833154
0.0108182
-0.0226932
0.517261
0.450778
0.408262
-0.00631866
-0.0299735
-0.0693152
-0.210771
0.517771
0.516129
0.520492
0.521307
0.522086
-0.0264672
-0.0264012
-0.0181281
-0.0634437
-0.0586401
-0.0684654
0.484334
0.504751
-0.18886
0.520786
0.522891
0.522587
0.516801
0.521734
0.520368
-0.0220411
-0.0260218
-0.0274975
0.193871
0.335054
0.686981
0.762078
0.635926
0.469178
0.177021
0.623494
0.675598
0.600666
0.731896
0.635411
0.637541
0.155699
0.0117946
0.159962
0.0930548
0.511475
0.510923
0.501774
0.498637
0.515935
0.513612
0.51881
0.516048
0.519222
0.520369
-0.0570136
-0.0884463
-0.104256
-0.146286
0.284946
0.547596
0.215964
0.244065
0.148986
-0.073771
-0.0774609
-0.0795057
-0.0858022
-0.0405899
-0.0414748
0.00450738
0.0135833
-0.00321466
-0.0290415
-0.0478785
-0.0418327
-0.0494064
0.510168
0.509513
0.514352
0.522857
0.460439
0.464157
0.430348
0.449178
0.435281
0.374971
0.404929
0.382012
-0.0174731
-0.00735803
-0.00962804
-0.0303597
-0.0293091
-0.0508235
-0.0436056
-0.0415368
-0.0380162
-0.043149
-0.0640467
-0.0685862
-0.173916
-0.293497
0.963132
0.902866
0.14022
0.507663
0.513334
0.510499
0.515243
0.51844
0.519068
0.516633
0.51312
0.504811
0.506254
0.502956
0.504086
-0.127242
-0.236935
-0.0678556
-0.144046
0.151506
0.617149
0.342353
0.287153
0.27249
0.499894
0.700209
0.609768
0.665867
0.643299
-0.388071
0.0127283
-0.321465
0.224957
0.219408
0.712298
0.754289
0.772504
0.729495
0.68559
-0.0208627
0.551339
-0.0714833
-0.0200815
0.171396
0.0535966
0.632867
0.621713
0.629539
0.632947
0.639646
0.629564
0.615452
0.609611
0.630035
0.633929
0.494581
0.222217
0.178826
0.132985
0.623177
0.516868
0.566316
0.485844
0.507182
0.50955
0.508521
0.48914
0.496515
0.492164
0.499422
0.503152
0.510428
0.510626
0.50644
0.508369
-0.0813565
-0.0897459
-0.0724362
-0.125018
-0.131436
-0.174114
-0.0870349
0.0929984
0.0412146
0.231678
0.35211
0.0720297
-0.051971
-0.0347881
0.0176525
0.187098
0.18049
0.0463998
0.156244
0.113229
0.106914
0.195528
0.217156
-0.0529094
-0.058751
-0.0591992
-0.0634709
-0.0143738
0.1011
0.0766711
-0.028521
-0.0361757
-0.0712639
-0.0683889
-0.00706661
-0.0433867
-0.0350865
-0.0124434
-0.0580145
-0.032532
-0.022535
-0.0281588
-0.030544
-0.0295861
0.503761
0.505864
0.505825
0.514601
0.526616
0.541414
0.5079
0.481723
0.472721
0.47583
0.448798
0.458044
0.453311
0.469153
0.490635
0.499676
0.497375
0.500126
0.482019
0.483733
0.469037
0.473677
0.442751
0.424007
0.413797
-0.0548578
-0.022252
-0.0356964
-0.0482331
-0.0230785
-0.0324423
-0.0305906
-0.0118084
-0.0312037
-0.026619
-0.0361527
-0.0411823
-0.0420892
-0.0755648
0.00642974
-0.176358
-0.225615
-0.278564
0.885143
1.02425
0.812908
0.577947
0.590012
0.833908
0.943285
0.537515
0.75687
0.761954
0.576772
0.867005
0.511607
0.511197
0.509062
0.508233
0.509228
-0.015341
0.0886098
0.0996107
0.15929
0.275778
0.381424
0.312679
0.199804
0.332612
0.356781
0.615318
0.620539
0.578194
0.600457
0.604333
0.409472
0.490342
0.527704
0.485906
0.557772
0.592666
0.539665
0.58226
0.501776
0.452447
0.443785
0.398916
0.433327
0.414325
0.388782
0.503074
0.479923
0.490618
0.480625
0.502878
0.52783
0.529033
0.551195
0.568515
0.481718
0.427405
0.444291
0.473311
0.429217
0.446623
0.468739
0.187061
0.0898569
0.252407
-0.0747577
0.0107821
0.0502837
0.00751284
-0.0344004
0.272291
-0.364956
-0.31172
-0.988163
0.496844
0.842117
0.57953
0.591022
0.639887
0.628512
0.639031
0.644996
0.645948
0.610183
0.619003
0.623999
0.591509
0.612852
0.610362
0.617593
0.499607
0.399573
0.401925
0.333742
0.193926
0.235526
0.42744
0.359033
0.283962
0.276246
0.451756
0.316747
0.396238
0.446365
0.369358
0.305221
0.531557
0.578955
0.572231
0.543991
0.424932
0.457803
0.459879
0.509928
0.553082
0.578222
0.49796
0.504294
0.5052
0.502455
0.500821
0.503966
0.504261
0.506567
0.506716
0.509316
0.5088
-0.0786578
-0.0629809
-0.0786085
-0.0872088
-0.0196502
-0.0314606
-0.00403941
-0.0363531
-0.0363893
-0.0336776
-0.0483854
-0.0642554
-0.0619888
-0.0515287
0.0583382
0.0705259
0.0838987
0.0419992
0.273835
0.385901
0.477182
0.359629
0.202296
0.210416
0.271966
0.0155993
0.00796624
-0.00630735
0.0613054
0.0493928
-0.0630514
-0.0672126
-0.0621385
-0.0506942
-0.0444268
-0.0628362
-0.0639752
-0.0530505
-0.0599113
-0.0641246
-0.0674449
0.483387
0.476287
0.479901
0.47228
0.470461
0.487421
0.49207
0.493108
0.498733
0.501371
0.490769
0.496874
0.501057
-0.0315387
-0.0482669
-0.0485573
-0.0479134
-0.0464391
-0.0442499
-0.0478494
0.127051
0.0329452
0.0689468
-0.00133225
-0.128377
-0.0686842
0.501591
0.496137
0.484566
0.721742
0.557242
0.476335
0.575769
0.696346
0.275262
0.475074
0.309766
0.889531
0.795581
0.941464
0.555231
0.254579
0.423474
0.432226
0.274422
0.398021
0.339657
0.215675
0.250996
0.285708
0.369001
0.255628
0.234801
-0.00772582
0.173705
0.283573
0.265638
0.392702
0.449555
0.264247
0.180015
0.126404
0.595926
0.612058
0.620653
0.592474
0.613841
0.569357
0.56124
0.579266
0.589191
0.580482
-0.622572
-0.210831
-1.41082
-0.824798
-0.373232
0.524651
0.5256
0.749094
0.652239
0.6654
0.647175
0.592055
0.564571
0.606863
0.619785
0.322935
0.407557
0.395127
0.370598
0.316171
0.258821
0.531095
0.539766
0.563683
0.589913
0.564554
0.592546
0.496731
0.496586
0.495231
0.49148
0.489977
0.49328
0.0145197
-0.0106482
0.0207252
0.00960892
-0.00733719
-0.00726691
-0.0370845
-0.0485861
-0.0488441
-0.0461049
-0.0360866
-0.034519
0.172958
0.111166
0.0224782
0.0639754
-0.0031448
-0.0854324
-0.0878757
0.00343799
0.103694
0.0851897
0.390683
0.660001
0.484683
0.651191
0.448994
0.547863
0.466865
0.44024
0.468024
0.372065
0.46231
0.0546462
-0.147398
-0.202442
0.820505
0.781171
0.561763
0.319063
0.200414
0.492151
0.513758
0.473912
0.499778
0.550586
0.532979
0.0254264
0.112528
0.199605
0.504952
0.280876
0.299388
0.289247
0.45591
0.424705
)
;

boundaryField
{
    wall-4
    {
        type            zeroGradient;
    }
    velocity-inlet-5
    {
        type            zeroGradient;
    }
    velocity-inlet-6
    {
        type            zeroGradient;
    }
    pressure-outlet-7
    {
        type            fixedValue;
        value           uniform 0;
    }
    wall-8
    {
        type            zeroGradient;
    }
    frontAndBackPlanes
    {
        type            empty;
    }
}


// ************************************************************************* //
