/*--------------------------------*- C++ -*----------------------------------*\
  =========                 |
  \\      /  F ield         | OpenFOAM: The Open Source CFD Toolbox
   \\    /   O peration     | Website:  https://openfoam.org
    \\  /    A nd           | Version:  6
     \\/     M anipulation  |
\*---------------------------------------------------------------------------*/
FoamFile
{
    version     2.0;
    format      ascii;
    class       surfaceScalarField;
    location    "72";
    object      phi;
}
// * * * * * * * * * * * * * * * * * * * * * * * * * * * * * * * * * * * * * //

dimensions      [0 3 -1 0 0 0 0];

internalField   nonuniform List<scalar> 
1300
(
3.75095
5.62643
-3.33275
3.75095
-7.76359
5.62643
-4.2727
4.2727
-0.388557
0.388557
1.87649
1.87446
-2.42847
2.42847
-1.78561
1.78561
-2.5271
2.5271
-5.24808
5.24808
-5.06982
5.06982
4.70016
-4.70016
-6.33751
6.33751
-0.962616
0.962616
-3.57516
3.57516
3.17247
-3.17247
-1.89399
1.89399
0.0512202
-0.0512202
-0.554082
4.30504
3.19687
3.19687
-1.9801
1.9801
-4.87469
4.87469
6.22255
-6.22255
5.24872
-5.24872
-1.91596
-2.49622
1.80068
-11.4929
-5.96291
-5.96291
-8.44099
8.44099
-2.81456
2.81187
2.94722
-2.94722
-1.72597
1.72597
-4.28908
0.0163798
-4.28908
4.24335
0.0293497
4.24335
-0.493128
0.10457
-0.493128
3.94822
-3.94822
0.298292
0.0902651
0.298292
3.06729
-3.06729
-1.87686
3.75335
1.8741
-1.8721
6.17713
-1.87886
3.75332
-6.07815
6.07815
-2.67504
0.246575
-2.67504
2.19668
0.23179
2.19668
-6.88913
6.88913
-1.81426
0.0286422
-1.81426
1.78717
-0.00155639
1.78717
2.8882
-2.8882
-2.63014
0.103045
-2.63014
2.38323
0.143863
2.38323
0.353368
5.27306
-5.9798
8.79167
-5.27306
0.024984
5.21028
0.0377999
5.21028
-5.10527
0.0354458
-5.10527
5.01269
0.0571272
5.01269
4.78934
-0.0891797
4.78934
-4.81943
0.11927
-4.81943
-3.36104
-4.07469
-6.49762
0.160112
-6.49762
-1.02704
0.0644217
-1.02704
0.8566
0.106016
0.8566
-3.72113
3.72113
-3.93212
0.356962
-3.93212
3.12744
0.0450269
3.12744
1.86812
1.88283
5.61907
-5.61907
2.44661
-1.83325
-0.0607384
-1.83325
-1.9689
-3.27982
1.9689
-0.0749143
-0.165906
0.217127
-0.165906
3.15712
0.0397535
3.15712
2.23777
0.145463
-2.23777
0.257675
3.30088
-3.30088
1.3214
0.658694
1.3214
-5.55834
5.55834
4.96157
0.0511267
-4.96157
0.0868762
6.15715
0.0654039
6.15715
-6.20778
-0.0147732
-6.20778
2.48684
-4.98306
-2.65208
6.1504
0.187107
-6.1504
0.187492
2.91879
0.028431
2.91879
-2.91928
2.91928
-2.98421
0.0369863
-2.98421
-2.14834
0.422375
-2.14834
1.41172
0.314245
1.41172
-4.20415
-0.0849338
-4.20415
-4.08986
0.157741
4.08986
0.153486
1.11785
-1.11785
-0.604316
0.111188
-0.604316
-4.05251
-0.151631
4.05251
-0.10429
-3.8886
-0.0596212
-3.8886
-3.0219
0.0376905
3.0219
0.0453871
3.11211
0.0450123
-3.11211
0.0448181
-1.87099
3.75382
-1.87996
3.75406
-5.69509
-0.38306
-5.69509
6.36194
-0.28379
6.36194
3.10102
0.474143
-3.10102
0.425975
2.01554
0.181134
2.01554
-6.8627
-0.0264283
-6.8627
6.89513
-0.00599784
6.89513
1.88921
0.12633
-1.88921
0.074957
1.80273
-0.0155577
1.80273
2.91588
-0.0276829
2.91588
-2.88189
-0.00630809
-2.88189
2.79069
-2.79069
2.71632
0.0743728
-2.71632
0.0861767
-11.124
11.1092
-0.036316
-11.0877
5.17396
5.17396
4.24318
0.54616
4.24318
-5.01489
0.195457
-5.01489
2.66564
-5.31772
3.1019
-6.46294
4.67532
-16.1683
4.29507
-8.36976
6.74605
-6.74605
6.62881
0.117237
-6.62881
0.131196
-1.13423
0.107187
-1.13423
-3.12526
-0.595874
-3.12526
4.36662
-0.64549
4.36662
-3.02768
3.02768
-3.07639
0.0487193
3.07639
0.0510452
1.80902
-0.00628888
-1.80902
-0.024232
0.210971
0.0873215
-0.210971
0.0450641
3.52292
-0.222035
3.52292
-3.09663
-0.204255
-3.09663
-1.22947
0.0952412
1.22947
0.0919342
-5.80768
0.249345
-5.80768
-11.1817
0.0940267
-11.1439
-6.11375
-6.11375
2.32724
11.1189
-2.89717
0.0152759
2.89717
0.021627
2.97521
0.0524687
-2.97521
0.0559237
-2.85808
0.0673916
2.85808
0.0612001
-2.51607
0.367733
-2.51607
-1.02649
1.02649
-1.17455
0.148058
1.17455
0.237167
1.4179
-0.300051
1.4179
0.738477
0.118123
-0.738477
0.134162
-3.83427
-0.0543374
-3.83427
6.59846
-0.236522
6.59846
-2.96753
-0.129091
2.96753
-0.0516542
-0.0349481
11.1442
-5.13901
0.0337465
5.13901
-11.2096
11.2433
-3.22139
0.70532
3.22139
1.02179
5.28375
0.274591
-5.28375
0.268859
6.83597
0.0591563
-6.83597
0.0899221
-2.63414
-0.491115
-2.63414
-5.09953
-0.595559
5.09953
-0.732905
-11.482
-0.203346
11.6853
-11.4249
6.01103
0.146118
-6.01103
11.3894
-0.995702
-0.122145
0.995702
0.0307925
1.75712
-0.339225
1.75712
3.7397
-0.216788
-3.7397
-0.0945609
-6.75383
-0.108873
6.75383
-0.155372
-2.1857
-0.44844
2.1857
-0.42858
-4.26738
4.30714
1.90975
-2.33383
-2.64922
-5.61365
1.85525
1.89857
4.30186
-10.1607
-6.00759
-9.97317
7.21438
-6.94552
-9.32733
9.23815
7.92963
-7.98925
-5.77746
5.8285
6.48465
-6.43926
1.87943
1.87391
8.06348
-7.81691
-15.6786
15.2956
7.58536
-7.55672
15.8263
-15.8527
-17.8687
17.9279
-5.69743
5.80047
-6.74266
6.73635
-6.97963
6.92797
-2.79858
-3.66436
13.1294
-12.9693
8.58808
-8.64881
-8.67283
9.0298
3.38461
0.922529
3.42962
-1.8818
3.76123
-1.87152
3.78127
2.75194
-5.55053
2.56578
-5.215
4.37206
4.21601
-4.29715
-1.3165
-5.92863
5.95706
-5.80876
5.86996
9.17389
-9.15751
-1.88498
3.75889
-1.86908
3.76765
-3.42303
-2.35443
3.37801
0.923856
8.07466
5.05477
-8.26176
-1.71141
-8.02509
7.8083
-8.21687
8.01262
-0.436847
5.8386
-5.40176
4.43784
-1.65255
7.49115
5.56183
5.75729
5.86062
-5.58603
1.0849
-6.48666
-6.39978
-2.28213
2.39331
2.17485
-2.08458
6.1415
1.78813
6.03721
-5.80498
-2.18427
-5.85932
3.81985
2.00866
3.86857
4.08211
2.40254
4.1198
3.02963
-3.03671
0.00708222
-3.05926
6.08889
0.722181
-5.41369
-4.48983
4.99036
3.07313
5.22215
-5.59313
-2.22377
-5.16716
-9.58421
-6.09443
-10.1798
10.0888
5.20673
9.80506
-11.959
11.8037
4.86134
2.72403
4.85978
-4.96709
-2.58963
-4.89213
11.684
-2.65294
-9.03111
-10.3317
-7.53706
10.3377
5.48864
10.9755
6.95242
11.0654
4.42799
7.25605
-9.91663
2.37957
-3.86352
-1.83391
-3.77734
3.65801
2.14246
3.80188
-4.21882
-2.52384
-4.20354
-4.29502
-2.68461
4.3227
2.41365
-4.41704
-3.79983
4.54613
2.38184
4.0555
-10.0631
4.31426
-7.97861
-9.20681
-3.76251
-9.07561
3.5495
2.60098
-6.15048
-2.00102
8.53252
-4.31651
7.21602
-5.19666
-3.45215
-5.22089
-6.96213
-1.71071
-6.80439
-8.92679
8.43568
-9.2033
8.55781
12.5181
-5.63751
-6.88057
-3.967
-2.47226
3.92218
-0.492562
-3.71004
3.71712
0.0511934
3.83246
4.75499
4.26243
-3.88195
-1.92681
-3.82603
3.82106
2.0489
3.88846
6.84555
2.32834
6.8749
-6.60935
-2.54816
-6.69429
9.10294
-8.68057
2.79631
-2.70107
5.37539
2.63723
-5.15336
-2.87174
6.23879
-3.2146
-3.0242
-12.346
10.7968
1.54921
-4.85488
-0.417039
-0.468259
-5.57006
-3.75727
5.45079
0.306499
11.1033
7.34605
-5.51453
5.76388
6.17081
6.22193
-0.17785
5.89109
-5.18577
5.2708
-2.71645
-2.55435
5.47456
-5.62619
-1.21973
-5.54555
4.32582
0.411018
1.50772
-1.2906
-1.78347
-0.498655
-1.64931
1.20573
0.969115
1.29305
0.949739
1.44358
-2.92189
0.536435
2.38545
-1.97215
-1.54815
-3.80667
-1.15458
4.96125
5.72996
2.07835
-5.6354
-0.223921
2.56574
-2.45973
-0.825078
-2.98159
2.23468
-3.05976
-3.4696
-1.9417
5.4113
-3.36859
-0.45744
3.31612
0.55245
-3.82814
-2.10049
3.79115
0.328651
-3.12896
6.19032
-3.06135
-5.05578
2.52896
3.55993
4.53761
-4.78997
2.44918
2.34079
-1.23004
4.25882
0.963325
4.43995
-7.06872
4.84495
5.73602
3.29377
-6.21017
1.04301
-6.02572
8.54007
-7.39895
-1.14112
4.08129
4.45877
7.02782
5.49026
-5.71347
12.7413
-1.15568
-6.24327
7.1814
-3.88763
4.86478
-8.75241
-10.355
4.11178
-9.20579
11.0704
-1.86462
-3.6052
-8.35384
12.811
-1.2147
-11.5963
8.59036
-4.34588
-4.39702
8.7429
-6.99882
6.98665
-1.99442
-4.99223
-10.1497
-5.70302
10.2586
1.5451
-9.94488
12.3245
-2.68883
4.16206
0.697719
4.1465
3.36318
-5.4818
2.11862
3.63564
-5.63006
2.05744
-7.53924
-6.7551
12.0974
-5.34226
-10.5176
-9.54522
-0.972388
2.55082
9.77364
-9.50324
7.43822
2.06502
3.29801
0.590444
-3.37238
-0.404958
0.237055
4.51151
-4.74857
4.03893
4.1844
3.21971
1.2918
3.84935
2.10771
-3.87097
-0.332568
-4.16856
1.48395
-1.75491
-3.69358
5.17754
-4.06131
0.367732
-2.74614
-3.49314
6.23928
-4.58005
3.0362
3.15411
5.0851
-4.91411
1.42098
-2.39049
-2.52362
2.64034
-4.39525
2.00041
3.17712
4.38226
0.582428
5.90722
6.19014
-8.5082
0.529589
11.2449
-9.5335
2.47748
8.5879
-9.9157
0.370479
-8.70513
0.977989
-5.2945
-5.17249
5.21874
-6.92945
-3.53367
6.24879
0.626109
-6.40228
-0.402105
-6.06753
-2.85926
-6.51597
-3.04003
-6.16328
-8.75349
-1.67653
-7.07696
6.75915
-6.71235
-3.46742
7.44525
1.11256
-7.4808
7.35866
-7.53911
7.19988
0.0949319
3.62219
4.35736
1.8851
-2.39215
4.27725
-5.07146
7.3998
-8.74135
3.66988
4.23493
-6.78309
-4.50642
5.05984
4.0431
5.37408
8.92178
-10.3739
1.45211
-10.6495
11.9893
-1.33977
-16.4291
5.77958
-7.50731
2.4154
0.380908
2.52259
0.547307
2.49674
-3.04405
-2.15376
-2.06183
-2.44148
-3.49686
5.93833
1.06548
-3.47244
2.40696
-3.57422
4.6397
-0.0689223
-3.40352
5.18724
-2.69049
5.56814
-3.64314
1.92501
3.5483
5.84499
-2.29669
4.42143
-1.7842
1.94717
-4.24386
-1.54969
-2.95551
5.09797
-3.28377
3.6515
-0.349402
4.0009
-4.04792
0.833318
-0.828205
3.35619
3.61387
4.33128
-3.03948
2.93678
-4.72098
-1.30708
-4.13855
-0.961426
-0.183273
-3.78443
3.9677
6.00428
-6.18756
-5.28184
9.52452
-4.24267
7.70359
-5.43928
-2.2643
-4.29196
-4.38861
3.92422
1.96687
9.67046
0.179748
-5.61903
-5.00602
-3.98424
3.0904
2.1804
-1.74143
3.29065
2.20969
-0.701969
0.392616
0.900438
1.76416
-1.37155
0.345095
1.41907
-0.945502
1.70377
0.861975
-1.82189
0.172583
-1.29955
3.53423
1.0859
-2.05502
0.683473
0.890697
-3.60715
5.0846
-2.72886
-2.35575
5.9753
1.14482
-3.87367
4.40073
-3.98972
2.44342
-3.598
-1.43025
-5.41997
-3.63184
-2.4876
4.89456
-3.45073
5.52907
1.42496
-5.30515
6.73011
-3.63106
1.68936
-3.06093
3.9229
-1.00864
-2.05229
2.87946
2.53185
-3.13374
0.152143
-0.25428
2.42037
-2.67465
-0.639385
-2.61154
-4.57604
4.90469
-2.10375
4.55293
2.1735
-1.91764
6.47057
1.80765
-3.72529
-3.24812
-3.70556
-1.3845
3.15311
-0.588062
-4.30407
-5.58029
4.17774
0.262213
-7.05861
7.92737
-0.868758
-3.98549
-0.859464
4.94076
-6.09918
0.469124
-4.04174
3.88563
4.84896
5.11117
-11.3608
-0.235452
-6.15411
1.10854
-7.26266
5.56732
-3.52669
7.63847
-10.3272
6.85973
-9.21459
6.49735
-0.765307
6.25263
-4.13401
2.77848
-8.4815
-6.9364
5.56357
-2.83955
6.26129
-3.21453
9.47582
-5.90335
5.35715
4.11866
-1.05402
-4.16687
-5.33049
4.27648
0.0266601
4.17316
4.98707
-2.87936
4.65451
2.26459
-4.65508
-2.13066
-6.48817
1.83309
-3.33405
-1.92231
3.75539
3.16279
3.75324
1.23177
-3.34828
7.24088
-8.21327
-1.89862
-3.27388
5.30443
-1.02796
3.44222
-6.71609
-1.85228
4.74714
-0.7269
-4.02024
0.890363
-4.42403
1.67195
-6.09598
5.25751
-5.65961
2.25453
-9.76184
-5.22627
-5.19548
-2.27929
-5.25982
-7.57837
5.29908
-1.79879
5.55987
-8.51667
7.78977
-3.47261
8.77169
-5.46236
-1.05361
5.89094
1.30894
10.0806
0.161574
-4.66799
-1.94044
3.73554
-1.7951
1.14996
-3.62285
0.112682
2.48929
3.48601
-6.81512
0.0320253
-4.63596
-3.91034
7.95345
5.61417
11.6185
1.24456
9.14006
-1.18661
10.3846
4.18747
4.42464
-3.00773
4.45984
0.95997
4.62985
-0.892053
2.81706
1.63054
1.69496
0.764771
2.29747
1.31639
3.13079
0.086739
-1.97509
4.63394
-8.61818
-0.985089
-8.07202
1.16613
5.42876
-4.26263
2.87591
-0.695507
1.08081
-0.174285
-1.20452
1.3788
-2.72863
-1.90649
-0.487419
-1.65627
2.33974
1.87796
-1.85232
-0.876313
0.331642
-3.96348
3.26636
-3.11421
-0.582364
6.14775
-2.89088
0.216225
-1.20152
-2.39531
-2.89397
2.72138
6.17428
0.296293
3.11292
5.20098
3.10049
0.221128
3.81827
-5.68289
-3.72097
-5.91835
-0.351027
4.58973
1.75516
8.01847
5.87383
4.84587
-1.87022
-10.0835
6.50693
-2.04709
5.16716
-1.14691
-4.94906
5.07312
2.32668
-5.69923
0.0396203
-4.90944
-6.95653
-0.481127
8.2709
-9.59951
8.5459
5.68664
1.39033
-4.43836
-0.757121
4.2903
0.134341
10.519
-0.910851
-7.05737
7.96822
-4.51791
3.53282
0.676726
2.61392
2.05553
1.36002
-5.69734
-9.95997
-2.06513
-1.54202
-4.42088
0.540369
-2.41833
6.07193
-2.53911
3.80762
5.42911
6.50992
-2.04771
-4.13984
6.29038
-2.48276
4.02716
)
;

boundaryField
{
    wall-4
    {
        type            calculated;
        value           uniform 0;
    }
    velocity-inlet-5
    {
        type            calculated;
        value           uniform -3.75095;
    }
    velocity-inlet-6
    {
        type            calculated;
        value           uniform -5.62643;
    }
    pressure-outlet-7
    {
        type            calculated;
        value           nonuniform List<scalar> 8(3.33275 7.76359 4.41218 9.69226 7.43573 5.13892 5.76754 8.97038);
    }
    wall-8
    {
        type            calculated;
        value           uniform 0;
    }
    frontAndBackPlanes
    {
        type            empty;
        value           nonuniform 0();
    }
}


// ************************************************************************* //
