/*--------------------------------*- C++ -*----------------------------------*\
  =========                 |
  \\      /  F ield         | OpenFOAM: The Open Source CFD Toolbox
   \\    /   O peration     | Website:  https://openfoam.org
    \\  /    A nd           | Version:  6
     \\/     M anipulation  |
\*---------------------------------------------------------------------------*/
FoamFile
{
    version     2.0;
    format      ascii;
    class       volVectorField;
    location    "72";
    object      U;
}
// * * * * * * * * * * * * * * * * * * * * * * * * * * * * * * * * * * * * * //

dimensions      [0 1 -1 0 0 0 0];

internalField   nonuniform List<vector> 
918
(
(0.985049 -0.000715063 0)
(0.00536124 2.96623 0)
(-0.00262235 0.880283 0)
(0.979575 0.00196179 0)
(-0.0138101 2.06579 3.27317e-20)
(-0.00710367 2.94857 -2.59229e-18)
(0.818257 1.12051 4.38837e-19)
(0.117448 0.0721614 -1.42518e-20)
(0.999922 -0.0002444 0)
(0.0904609 0.662603 0)
(0.00869662 0.38644 0)
(0.735148 -0.00523391 0)
(0.01018 2.93165 0)
(0.00346805 2.79451 0)
(-0.00218678 3.18003 8.19084e-19)
(-0.0138345 1.92762 2.0119e-20)
(0.295383 0.0395258 9.93828e-19)
(0.232807 1.10827 3.49001e-19)
(0.964346 0.00674352 0)
(-0.000568772 0.394578 0)
(0.0208242 0.0346418 -6.64581e-19)
(1.00183 -0.00455978 0)
(0.999851 -0.00892658 0)
(0.975168 -0.0060519 0)
(0.592419 0.0167572 0)
(0.0209556 2.64446 0)
(-0.0123065 2.9119 9.49686e-19)
(-0.00573293 0.933269 0)
(-0.0312826 1.16922 0)
(-0.00381509 0.902988 0)
(-0.0225605 2.59214 0)
(-0.00478424 2.11631 -2.61443e-20)
(-0.00992549 1.90046 0)
(-0.0221147 2.98761 -9.34941e-23)
(-0.0164833 3.00549 2.01401e-18)
(0.00230061 3.00058 0)
(0.871946 -0.00975735 0)
(0.375565 0.914947 1.69868e-19)
(0.817108 1.13893 -5.44643e-19)
(0.949623 1.00495 5.57805e-19)
(0.679943 1.22173 -1.00522e-19)
(0.693373 1.18256 5.74126e-19)
(0.147378 0.130009 1.39027e-20)
(0.146936 0.07602 0)
(1.16493 0.531911 0)
(0.119797 0.109341 6.29544e-20)
(0.0944121 0.0591232 -6.53296e-20)
(0.920555 -0.00704799 0)
(1.00027 5.80004e-05 0)
(0.999908 0.000320745 0)
(1.0037 -0.00728057 0)
(1.00088 -0.000947241 0)
(1.00011 -5.83577e-06 0)
(0.0918784 1.84626 -7.35007e-19)
(0.0314929 0.854433 0)
(0.126896 0.751925 0)
(0.0179462 0.797009 0)
(0.0534117 0.580156 0)
(0.00423397 2.03094 0)
(-0.00809146 0.715027 0)
(0.00514505 0.403466 0)
(-0.00736034 0.712516 0)
(0.0154921 0.385229 0)
(0.843614 -0.0156295 0)
(0.838465 0.0320328 0)
(0.760877 -0.00259102 0)
(0.799312 0.0360651 0)
(0.701484 0.00970261 0)
(0.013913 3.00023 9.6228e-19)
(0.01112 3.00602 0)
(0.0061986 3.00384 0)
(0.011892 2.99716 1.09269e-23)
(0.00822176 2.95878 -1.43018e-18)
(0.0122383 2.98299 0)
(0.00907694 2.90475 0)
(0.0209215 2.93185 2.22473e-24)
(0.00412614 2.82398 0)
(0.025239 2.91889 0)
(-0.0011386 2.74464 0)
(0.305879 3.57513 0)
(-0.122254 3.65799 0)
(0.149426 3.27071 -7.62304e-19)
(0.0035174 3.00787 0)
(-0.0299637 1.98992 0)
(-0.00729945 2.1796 -1.98429e-20)
(-0.009602 1.93985 2.00069e-20)
(0.349676 0.138829 -3.45197e-19)
(0.31692 0.0101494 -3.356e-19)
(0.303774 0.154943 -1.03185e-18)
(0.259422 0.0587586 -6.70675e-19)
(0.263187 1.02216 0)
(0.331858 1.23931 -3.60823e-19)
(0.413172 1.15043 5.95517e-19)
(0.987726 0.00815517 0)
(0.943245 0.00578522 0)
(1.00028 0.000671925 0)
(1.00254 0.00906638 0)
(1.00311 0.0089904 -2.66741e-18)
(0.992136 0.00942059 2.01562e-18)
(-0.0206409 0.735543 0)
(0.0022888 0.402424 0)
(-0.0514659 1.01851 0)
(-0.0310318 0.78982 0)
(-0.00988048 0.395662 0)
(-0.0432324 0.106566 2.06244e-19)
(0.0501444 0.0594752 0)
(0.993625 -0.00769293 0)
(0.95405 -0.00648429 0)
(0.744023 0.0250851 0)
(0.671136 0.0297311 0)
(0.66177 0.0217767 0)
(0.979956 -0.00273416 0)
(0.587297 0.0614643 0)
(0.450099 -0.0185218 1.51586e-18)
(-0.0410422 2.85995 7.49282e-19)
(0.0337961 2.91404 0)
(0.0426522 2.89259 0)
(0.00316435 2.70185 0)
(-0.00878918 2.98663 9.08591e-19)
(-0.0141836 2.89474 0)
(-0.0109267 2.9919 -2.798e-18)
(-0.0116406 2.92972 9.52051e-19)
(-0.0446999 1.34515 0)
(-0.0152981 1.37348 0)
(-0.00788996 2.14124 7.49063e-22)
(-0.00779176 2.10026 0)
(-0.0173158 1.91143 0)
(0.938889 -0.00519903 0)
(0.857301 -0.0111502 0)
(0.863345 0.004586 0)
(0.949677 -0.00613868 0)
(0.883683 -0.00809136 0)
(0.499093 1.11491 -2.15377e-19)
(0.546368 1.18472 0)
(0.337506 0.849613 3.26705e-20)
(0.281943 0.714114 0)
(0.917965 1.03494 -1.57254e-19)
(1.04063 0.845365 3.16162e-19)
(0.391542 1.31773 0)
(0.542561 1.27312 0)
(0.596387 1.20015 0)
(0.103791 0.181567 -3.02271e-19)
(0.17268 0.144862 0)
(0.169827 0.0907021 1.8634e-19)
(1.00382 0.899404 0)
(1.07979 0.747752 0)
(1.10933 0.682987 -2.52179e-19)
(1.14605 0.594169 0)
(1.20203 0.39134 4.71718e-20)
(0.95751 -0.00709683 0)
(0.96273 -0.00810879 0)
(0.900921 -0.00737109 0)
(0.98393 -0.00812311 0)
(0.974429 -0.00803154 0)
(0.936547 -0.00656973 0)
(1.0002 0.00250523 0)
(1.00077 0.00123958 0)
(1 0.000761463 0)
(0.0441567 2.0885 4.09499e-19)
(0.14508 1.78939 0)
(0.0188922 2.20375 6.19769e-19)
(0.0521984 1.89542 -5.17127e-19)
(0.166971 1.08422 -2.8637e-19)
(0.049663 0.938914 0)
(0.121309 0.938653 0)
(0.0062273 0.759184 0)
(0.0270568 0.506957 0)
(-0.00340791 2.25825 -4.11503e-22)
(0.0192602 2.03632 0)
(-0.00497248 2.259 -8.97839e-21)
(0.00278859 2.04284 5.18234e-21)
(-0.0040984 0.733085 0)
(-0.00879691 0.717858 0)
(0.00969382 0.444911 0)
(-0.0176958 0.713313 0)
(0.00662665 0.38932 0)
(0.9395 0.0138523 0)
(0.856394 -0.0115728 0)
(0.928663 0.00487695 0)
(0.846245 -0.0127782 0)
(0.811052 -0.00210422 0)
(0.898403 0.0221641 0)
(0.87366 0.0258791 0)
(0.785088 -0.00269696 0)
(0.0102919 3.06783 -8.95586e-21)
(0.0149414 3.05898 0)
(0.0124531 2.97024 0)
(0.0076683 2.87668 0)
(0.895513 3.96905 0)
(1.18958 3.36519 9.35406e-19)
(0.0811127 3.09027 0)
(-0.0173349 2.91774 0)
(-0.0158744 1.39982 0)
(-0.035396 1.6968 0)
(-0.0241322 1.53214 0)
(-0.0330974 2.55247 -1.42542e-20)
(-0.0178114 2.24705 0)
(-0.0224728 2.39208 0)
(-0.0008061 1.9688 2.08077e-22)
(-0.00516503 2.25337 -2.54035e-20)
(-0.00625423 2.21726 -2.05361e-20)
(-0.00589495 1.9532 0)
(0.389812 0.118652 5.29734e-19)
(0.354884 0.00115323 -5.19618e-19)
(0.231563 1.59039 0)
(0.28826 0.766798 -3.26812e-19)
(0.180929 1.68741 -1.07394e-18)
(0.245544 1.22663 1.075e-18)
(0.90168 0.00586563 0)
(0.967043 0.0106786 0)
(0.974897 0.00985558 0)
(0.922989 0.00587007 0)
(-0.0184488 0.723069 0)
(-0.0206289 0.727579 0)
(0.000726875 0.394276 0)
(0.0942107 0.0989604 5.79479e-19)
(0.0787958 0.0804545 -6.84897e-19)
(0.0569853 0.051495 0)
(1.10726 0.0905116 2.46095e-20)
(1.09094 0.0426191 0)
(1.01889 0.0437275 0)
(0.913918 -0.00149984 0)
(0.439658 0.0963663 0)
(0.500296 0.0760285 -2.42424e-18)
(0.396133 0.000569326 9.07915e-19)
(0.0107659 2.97728 7.9338e-19)
(-0.0324207 2.86153 4.68246e-20)
(0.00862545 3.05308 -1.891e-20)
(0.0158012 3.04344 7.09325e-19)
(-0.0118107 2.99995 3.13292e-20)
(-0.0123396 2.95227 -1.26502e-22)
(-0.0150472 3.01327 -5.85491e-19)
(0.0143623 3.02662 4.11403e-19)
(0.00762747 3.03476 -6.67787e-19)
(0.934742 0.00214514 0)
(0.939525 -0.00111017 0)
(0.84817 -0.0111774 0)
(0.956303 0.0118588 0)
(0.942295 0.013511 0)
(0.881673 0.00527658 0)
(0.915274 0.0189912 0)
(0.924942 0.0156981 0)
(0.837712 0.000684983 0)
(0.671779 1.41318 1.02277e-20)
(0.689737 1.52359 0)
(0.118743 0.29223 6.87841e-20)
(0.213231 0.654139 5.43781e-19)
(0.240342 0.693338 -3.18997e-19)
(0.214908 0.496201 6.33373e-19)
(0.340358 0.832483 1.59838e-18)
(0.135316 0.237005 3.82959e-19)
(0.258363 0.170041 7.11305e-19)
(0.212387 0.164157 1.83534e-19)
(0.218662 0.0812507 3.49375e-19)
(1.1934 0.446695 8.95237e-20)
(1.21858 0.245926 8.68463e-20)
(0.00866162 2.24655 2.40216e-19)
(0.0395029 1.95777 0)
(0.972999 0.0330642 0)
(0.946855 0.0192617 0)
(0.871234 -0.0151779 0)
(0.0125532 3.07397 0)
(0.0167086 2.944 1.25285e-18)
(0.0139304 2.95665 0)
(0.00588622 2.84991 -1.24312e-18)
(0.00952477 3.0904 3.05912e-19)
(0.0113195 3.08383 0)
(0.709496 1.81956 -1.69215e-19)
(1.23394 2.6242 5.72403e-19)
(0.69417 1.99755 -1.39e-18)
(0.0220936 2.97574 -6.91275e-19)
(0.0403829 2.99781 0)
(-0.0384823 2.87806 0)
(-0.00607799 2.23805 -1.26729e-20)
(-0.0047524 2.25842 4.89801e-20)
(-0.000325155 2.00431 -6.95866e-21)
(0.268141 1.40284 1.03726e-18)
(0.287244 0.570011 -7.1187e-19)
(0.0723443 2.00488 7.51389e-19)
(0.121335 1.87849 -9.05218e-19)
(0.206222 1.5394 1.0375e-19)
(0.00627358 3.11932 -1.80401e-18)
(0.0178939 3.11932 1.94432e-18)
(-0.00503493 2.98031 8.51083e-19)
(-0.000411478 2.97503 -8.18288e-19)
(-0.0178091 2.87809 -8.66848e-19)
(0.0126912 3.09905 -2.27233e-18)
(0.00516768 3.10766 2.23999e-18)
(0.267385 0.699149 0)
(0.218614 0.659862 -1.15931e-18)
(0.0744181 0.212593 5.10056e-19)
(0.346798 0.952521 1.13303e-18)
(0.199753 0.281431 -1.74517e-18)
(1.19779 0.176076 5.03572e-20)
(1.21531 0.305248 0)
(1.19326 0.12128 6.60238e-21)
(-0.000974217 2.26618 -1.19734e-21)
(0.00381429 2.2509 0)
(0.031594 1.99374 0)
(0.312907 1.31861 -3.72056e-19)
(0.354069 1.17863 -8.06741e-19)
(0.233205 0.392603 1.44346e-18)
(1.00644 -0.00968211 0)
(1.00774 -0.00778384 4.90319e-19)
(-0.0392885 1.32751 0)
(-0.0476543 1.33201 0)
(1.00244 0.00327237 1.34127e-21)
(1.0032 0.0078136 1.00653e-18)
(-0.0242357 2.53879 1.80609e-20)
(-0.0274054 2.58133 0)
(0.0407563 3.17261 4.9178e-19)
(0.373995 3.54076 0)
(1.1582 0.692847 -5.3132e-20)
(1.0118 0.0106478 -2.83822e-21)
(1.02086 -0.00900433 0)
(1.00158 0.000283151 1.5739e-22)
(0.118809 1.3745 0)
(0.140414 2.58621 0)
(0.0203184 1.32639 0)
(-0.000440433 2.6339 -3.14024e-21)
(-0.0217537 2.58198 -9.10181e-21)
(0.996583 0.0310602 2.20539e-21)
(1.06302 0.00588622 0)
(1.10018 0.0285648 0)
(-0.0337419 1.74408 0)
(-0.0192584 2.58217 0)
(-0.0134826 1.31891 0)
(0.308983 1.48965 -1.68554e-19)
(1.01152 -0.00905626 0)
(1.00971 -0.0129852 0)
(1.00227 0.000938127 6.28009e-19)
(1.00548 -0.00491156 -7.40248e-19)
(1.00113 -0.00086221 0)
(-0.0220823 1.46584 0)
(-0.0107315 1.38722 0)
(-0.0170299 1.42742 0)
(-0.016226 1.30584 0)
(-0.0285202 1.29586 0)
(-0.0218487 1.27532 0)
(1.03566 -0.00430186 0)
(1.01881 0.0151946 -9.59157e-22)
(0.811667 1.31103 2.75305e-19)
(1.00244 0.000385635 -6.27543e-19)
(1.00338 0.00444966 7.49034e-19)
(1.00126 0.00209463 0)
(1.01109 0.00963137 6.25175e-19)
(1.00685 0.00745277 -7.60785e-19)
(1.00714 0.0111205 0)
(-0.0242879 2.60976 0)
(-0.0275385 2.58924 -3.03665e-20)
(-0.0244325 2.60319 2.13726e-20)
(1.24199 0.273172 5.35316e-19)
(1.16368 0.089223 0)
(0.0442226 3.09149 -9.7491e-19)
(0.0517946 2.87398 -6.90397e-20)
(0.103709 3.20192 1.30484e-18)
(0.122117 3.21372 -2.80389e-19)
(0.141801 3.25722 0)
(0.0225954 3.1377 2.68433e-19)
(0.0611799 3.16223 9.71244e-19)
(0.061741 3.17885 -5.0206e-19)
(0.0267353 3.12971 0)
(0.564454 0.291409 0)
(0.509904 0.307298 0)
(1.14029 0.724222 1.21068e-19)
(1.10538 0.860425 -1.06218e-19)
(1.19788 0.610149 0)
(1.22483 0.544475 0)
(1.0157 0.0120242 -1.16147e-18)
(1.01468 0.0127542 1.46041e-18)
(1.02575 -0.00872828 0)
(1.02408 -0.0102949 0)
(1.00678 0.00321606 0)
(1.01089 0.00421046 0)
(1.00422 0.00221276 0)
(1.00937 0.00635065 0)
(1.00685 0.00504173 0)
(1.00439 0.00526433 0)
(0.108482 1.3744 0)
(0.0960879 1.33405 0)
(0.141653 1.42011 0)
(0.147955 1.40362 0)
(0.146074 2.61053 0)
(0.185434 2.6796 -4.12647e-19)
(0.10868 2.67143 0)
(0.082275 2.66926 1.66444e-19)
(0.0270367 2.67588 -1.59998e-19)
(0.0138468 1.3261 0)
(0.0199579 1.25653 0)
(0.0248826 1.33886 0)
(0.0389352 1.27735 0)
(-0.00139279 1.99612 3.60141e-20)
(-0.0214933 2.61021 -3.8038e-20)
(-0.00671996 2.67617 -2.85566e-20)
(-0.0189421 2.68872 0)
(-0.0236156 2.61632 2.91711e-20)
(-0.0221807 2.61176 3.74122e-20)
(0.00567789 1.99285 -2.75934e-20)
(-0.00996824 2.40165 5.10311e-20)
(-0.0148265 2.426 3.23718e-20)
(1.0107 0.040548 1.18171e-18)
(1.00424 0.0195518 -1.46766e-18)
(1.00402 0.0459369 -1.20366e-18)
(0.975039 0.0379874 1.51428e-18)
(1.06467 0.00921263 0)
(1.0499 -0.00644286 0)
(1.09268 0.0377206 0)
(1.07581 0.0150056 0)
(1.07458 0.000587271 0)
(1.14146 0.079653 0)
(1.11574 0.0462802 0)
(1.11896 0.0375104 0)
(-0.029633 2.43377 3.42834e-21)
(-0.0202633 2.02229 0)
(-0.0206207 2.22087 0)
(-0.0213087 2.60296 -1.85934e-20)
(-0.0180228 2.61377 5.87072e-22)
(-0.00175941 1.58707 -5.41706e-20)
(-0.0110215 1.50954 5.53371e-20)
(-0.0215813 1.40032 0)
(-0.0255978 1.40617 0)
(-0.0323926 1.39737 0)
(-0.0100617 1.32063 0)
(0.000524731 1.24444 0)
(0.385496 1.51401 2.78923e-19)
(0.434197 1.51805 1.50048e-19)
(0.592523 2.46613 -2.50462e-19)
(0.3808 2.55445 7.31635e-19)
(0.350331 2.052 7.07156e-20)
(1.0207 -0.00800479 0)
(1.01579 -0.00935962 0)
(1.01485 -0.0132152 0)
(1.00772 -0.000560088 0)
(1.00485 -0.000678193 0)
(1.008 -0.00447519 0)
(1.00954 -0.00344051 0)
(1.01465 -0.00428544 0)
(1.01954 0.0162604 1.14037e-18)
(1.01716 0.0147439 -1.44211e-18)
(1.01994 0.0186413 -1.14985e-18)
(1.01738 0.0167737 1.44055e-18)
(0.768088 1.35792 0)
(0.706877 1.39329 2.38371e-19)
(0.875363 1.23888 9.59396e-20)
(0.91265 1.19827 -1.2733e-19)
(1.16477 2.6124 2.91703e-19)
(0.749547 0.133697 5.89144e-19)
(1.17192 0.107905 0)
(1.21443 0.201847 -4.34394e-19)
(1.1955 0.154218 -1.80921e-20)
(1.01285 0.167957 0)
(0.0770282 3.01822 3.5516e-19)
(0.0827941 2.90282 -1.14908e-18)
(0.0247024 2.359 7.27328e-19)
(0.148588 -0.251579 -3.30687e-19)
(0.342215 3.4447 -2.45537e-19)
(0.193237 3.3396 0)
(0.223721 3.39608 3.19841e-19)
(0.222068 3.07629 -1.22536e-18)
(0.254639 3.19492 0)
(0.00582457 3.12283 5.05536e-20)
(0.0164527 3.13141 -5.82305e-19)
(0.0153538 3.12718 8.57037e-19)
(0.0328395 3.14035 0)
(0.0310256 3.14967 0)
(1.2579 2.57628 0)
(0.535752 0.788762 -5.29422e-19)
(1.0255 1.03387 -9.11874e-21)
(0.991111 1.08682 0)
(0.859951 0.969721 -1.09073e-19)
(1.08383 0.909446 2.65863e-20)
(0.329855 0.305908 -8.18378e-19)
(0.649264 0.322848 -2.21842e-20)
(0.533904 0.218963 3.94513e-19)
(0.542629 0.322598 2.85509e-20)
(0.425904 0.273599 -1.14243e-18)
(0.60624 0.32282 0)
(0.694034 0.428449 6.59083e-19)
(0.696987 0.434761 0)
(0.5771 0.329357 0)
(0.486457 0.253935 0)
(0.799942 0.654654 3.97094e-19)
(1.25335 0.306996 -4.35409e-19)
(1.24631 0.438848 0)
(1.24654 0.394479 0)
(0.685415 0.188159 6.02479e-19)
(0.848351 0.558445 -3.72752e-19)
(0.76912 0.521979 6.66736e-19)
(0.966033 0.453465 -6.74004e-19)
(1.01835 0.0146751 7.729e-19)
(1.01705 0.0136393 -7.79968e-19)
(1.01596 0.0141435 0)
(1.03706 -0.00452202 0)
(1.03046 -0.00769594 -7.32076e-19)
(1.02867 -0.0105771 7.24478e-19)
(1.02474 0.0110168 0)
(1.02269 0.0151306 0)
(1.0127 0.00471571 0)
(1.01456 0.00910257 0)
(1.01639 0.00423902 0)
(1.01555 0.00292653 0)
(0.0777442 1.36221 0)
(0.0813184 1.30525 0)
(0.153712 1.42339 5.81495e-20)
(0.276748 1.48586 8.20852e-20)
(0.176109 1.45752 1.85834e-19)
(0.212539 1.45557 -2.99773e-19)
(0.161165 1.43385 0)
(0.141692 1.58411 -9.16394e-20)
(0.138345 1.58107 0)
(0.353057 2.00421 -1.02945e-19)
(0.316576 2.34467 6.17003e-19)
(0.195063 1.467 7.98502e-20)
(0.275463 1.39937 2.28883e-20)
(0.204836 1.39921 -1.86559e-20)
(0.289338 1.33777 -9.29571e-20)
(0.25488 1.57772 0)
(0.265927 1.6239 1.00758e-19)
(0.0222675 2.25352 -1.31509e-20)
(0.0376357 2.66898 0)
(0.0631294 2.40372 9.08565e-20)
(0.0581826 2.42865 0)
(0.0671515 2.68726 -1.84779e-19)
(0.0417865 2.70327 0)
(0.0233188 1.45815 5.89761e-20)
(0.0325882 1.51585 0)
(0.0303242 1.41779 0)
(0.0187409 1.42772 -6.74575e-20)
(0.00277504 2.66116 1.53e-21)
(0.0270368 2.69191 1.83451e-19)
(0.0105777 2.73301 9.54547e-22)
(0.00142405 1.8468 -2.11331e-20)
(-0.00520704 1.70002 -1.62254e-20)
(0.00865593 1.30802 0)
(0.0169176 1.22442 0)
(0.0400463 1.59577 -1.0465e-20)
(0.0413603 1.47509 -5.40461e-20)
(0.0272238 1.55385 5.70197e-20)
(0.0509326 1.61996 0)
(-0.0303644 2.27141 1.17711e-19)
(-0.0337018 2.55044 -4.9827e-20)
(-0.019783 2.44998 8.34556e-21)
(-0.00589299 1.8625 2.56067e-20)
(-0.0273485 2.50483 1.15568e-20)
(-0.0226793 2.44639 -2.67714e-20)
(1.018 0.0220776 -7.80864e-19)
(1.01429 0.0285907 7.84817e-19)
(1.01207 0.0174324 0)
(1.01142 0.0706004 1.07253e-18)
(0.990681 0.0607605 -1.23036e-18)
(0.950311 0.0552913 1.37755e-18)
(1.01339 0.116544 -1.46141e-19)
(1.04399 -0.00466101 0)
(1.0522 -0.000403764 7.01773e-19)
(1.04029 -0.00818492 -7.01416e-19)
(1.0724 0.0437196 -4.1622e-20)
(1.06501 0.028945 3.59432e-19)
(1.0641 0.0656926 0)
(1.05428 0.0549092 -1.2941e-19)
(1.03258 0.0444074 0)
(1.0257 0.0398595 0)
(1.02761 0.0137452 0)
(1.02401 0.0162411 0)
(1.04022 0.033578 2.66004e-19)
(1.03969 0.0287995 -5.8871e-19)
(1.05332 0.0389093 -2.81548e-19)
(1.04816 0.0387839 -3.10504e-19)
(1.07781 0.0703769 5.94316e-19)
(1.10185 0.0563916 0)
(1.10864 0.0952938 0)
(-0.0281521 2.27793 7.00561e-20)
(-0.0302934 2.02818 3.55221e-21)
(-0.0254574 2.03801 0)
(-0.0299479 2.44649 -6.97483e-20)
(-0.0276019 2.40508 -6.83775e-21)
(-0.0342445 2.47391 8.95821e-21)
(-0.0212885 2.62405 -3.1831e-20)
(-0.0261604 2.56644 1.6696e-21)
(-0.0246609 2.51979 -1.08029e-20)
(-0.0170118 2.61737 2.09943e-20)
(-0.0210456 2.6195 -2.41794e-20)
(-0.0108496 1.50705 -4.58659e-22)
(-0.00531265 1.63484 -5.34348e-20)
(0.376723 1.44943 -1.1812e-19)
(0.371613 1.38046 2.34733e-20)
(0.64861 1.44126 -2.30642e-19)
(0.524709 1.51108 -1.45917e-19)
(0.578433 1.46974 0)
(0.606329 2.42421 2.19729e-19)
(0.66697 2.43315 3.41519e-19)
(0.414269 2.51699 9.47547e-20)
(0.399026 2.54324 -6.14426e-19)
(0.503083 2.4816 5.71846e-19)
(0.553559 2.47679 0)
(0.484656 2.52697 -5.61149e-19)
(0.253686 2.60318 1.12926e-18)
(0.364025 2.56103 -7.32649e-20)
(0.286238 2.66117 -1.59815e-18)
(0.970872 2.39105 7.2485e-19)
(0.848849 2.39175 0)
(1.01144 0.00138968 2.54706e-20)
(1.01538 -0.00517505 -2.08045e-20)
(1.01776 -0.00391868 -3.80334e-19)
(1.01562 -0.00103955 3.79011e-19)
(1.01312 0.00184577 0)
(0.637066 1.30323 0)
(0.679728 1.18836 0)
(0.794465 1.11907 0)
(0.667388 1.14583 0)
(1.19562 2.62786 5.13312e-20)
(1.08852 2.38002 0)
(0.818122 2.16825 3.65179e-21)
(0.821697 2.43218 0)
(0.916446 2.52254 -4.42152e-19)
(0.947998 2.47194 2.95186e-19)
(0.780889 0.166032 0)
(0.727032 0.145123 1.59636e-19)
(0.906884 0.162521 9.32081e-19)
(0.819527 0.145649 -3.47354e-19)
(0.753652 0.0913986 -1.07961e-18)
(1.08853 0.246127 -8.54139e-19)
(0.986308 0.316767 -1.00766e-20)
(0.931215 0.352583 8.21725e-19)
(1.01493 0.260191 7.01794e-19)
(0.933014 0.207425 -1.22971e-18)
(0.890288 0.220752 1.53738e-19)
(0.92969 0.317442 -3.22319e-19)
(0.905718 0.223781 0)
(1.00087 0.208667 6.02391e-19)
(1.05617 0.217999 0)
(1.05292 0.228401 0)
(1.12572 0.124813 2.71891e-19)
(1.06598 0.19514 -1.07517e-20)
(1.08032 0.248228 -1.55446e-19)
(1.11368 0.211655 0)
(1.02344 0.0487226 6.01153e-19)
(1.03705 0.0628863 7.49767e-19)
(1.03291 0.0466616 -5.96741e-19)
(1.04163 0.0691934 -5.02613e-19)
(1.01467 0.0749985 -7.60296e-19)
(0.985115 0.171514 0)
(0.988439 0.108874 0)
(0.962389 0.0736248 -4.90277e-19)
(0.896578 0.100787 1.96005e-19)
(1.03871 0.116735 6.95403e-19)
(1.07601 0.13651 -7.95623e-19)
(1.07051 0.181579 7.15052e-19)
(1.03547 0.15809 0)
(1.08618 0.12288 0)
(1.05725 0.112832 -3.26331e-19)
(1.04249 0.108757 -5.65304e-19)
(0.587858 1.08438 1.22011e-19)
(0.612122 1.40095 -2.51073e-20)
(1.14509 2.71831 -2.52123e-19)
(1.19778 3.10274 4.11062e-21)
(1.25352 2.72837 -1.38152e-19)
(1.29323 2.69913 2.55936e-20)
(1.26874 2.32272 -3.80457e-20)
(1.18545 3.00824 -7.91575e-20)
(1.20494 2.96527 2.31696e-19)
(1.17953 3.25621 -1.19758e-19)
(1.39708 2.97071 1.49625e-19)
(1.40853 2.90659 0)
(0.574096 0.815152 -4.84677e-20)
(0.208164 1.21102 4.76434e-19)
(0.520313 0.34317 5.27754e-19)
(0.406406 0.107138 5.99143e-19)
(0.477705 0.300477 6.47006e-19)
(0.548656 0.415532 -1.05428e-18)
(0.55635 0.400773 8.67964e-19)
(0.471027 0.300363 -3.25341e-19)
(0.337819 0.241816 7.36284e-19)
(0.72092 0.254822 -3.47528e-19)
(0.671689 0.28561 0)
(0.603126 0.195968 7.65985e-21)
(0.739801 0.507965 3.59813e-19)
(0.709707 0.480011 -1.304e-18)
(0.634532 0.433976 1.45103e-20)
(0.621809 0.41315 0)
(0.720206 0.715897 3.76213e-19)
(0.836729 0.799041 4.16205e-19)
(0.774252 0.849042 -4.84916e-19)
(0.904539 0.820936 -1.54358e-19)
(0.939321 0.864292 -3.62607e-20)
(0.946853 0.871648 3.71919e-20)
(0.883164 0.678422 -6.75737e-19)
(0.955539 0.725024 1.43505e-19)
(1.00978 0.728537 0)
(1.0085 0.704296 -1.83954e-19)
(1.03136 0.340976 2.13323e-19)
(1.15862 0.341044 2.60955e-19)
(1.07481 0.28374 3.49251e-19)
(0.999704 0.388196 -4.26149e-19)
(1.05721 0.488666 0)
(1.13894 0.429041 0)
(0.902284 0.427118 -3.90195e-22)
(0.847319 0.322878 0)
(0.892631 0.312845 3.92429e-19)
(0.9141 0.351304 3.0726e-21)
(0.987667 0.497822 1.88318e-18)
(0.920382 0.556224 4.85362e-19)
(0.943007 0.515141 -5.12383e-19)
(0.861111 0.492365 5.46503e-19)
(0.826933 0.467684 3.47496e-19)
(0.802939 0.445126 -3.40682e-19)
(1.02818 -0.000375728 6.28653e-19)
(1.02043 0.000584647 0)
(1.01908 0.00140136 4.10227e-19)
(1.02266 -0.000694675 -9.28694e-19)
(1.02255 0.00459871 4.52414e-19)
(1.02002 0.0116497 -9.46912e-19)
(1.02074 0.0114592 0)
(1.01967 0.0122181 -1.97138e-19)
(1.01656 0.00780921 4.94136e-19)
(1.01668 0.0109222 -2.4795e-19)
(1.01726 0.0106251 1.81409e-19)
(0.037086 1.33618 0)
(0.0383065 1.39499 0)
(0.0558615 1.34052 0)
(0.0595451 1.27811 0)
(0.088046 1.40218 -6.45603e-20)
(0.0928884 1.37532 1.21974e-20)
(0.0816635 1.57557 3.5738e-21)
(0.102353 1.40942 -4.27193e-20)
(0.0441439 1.48764 4.98315e-20)
(0.0492802 1.48292 -3.93017e-20)
(0.0757439 1.39766 -2.63158e-20)
(0.0636942 1.40078 7.42085e-20)
(0.0573744 1.38088 1.22343e-20)
(0.0461724 1.39881 8.18883e-21)
(0.102649 2.37365 -9.89691e-20)
(0.094057 2.41989 0)
(0.142253 2.00965 9.48002e-20)
(0.129896 1.70219 3.15366e-20)
(0.223636 1.99975 -8.83929e-20)
(0.198552 2.42978 0)
(0.263981 2.36505 -6.18934e-19)
(0.307314 2.36042 4.45504e-19)
(0.250236 1.97997 -2.04492e-19)
(0.13968 2.15152 1.51944e-19)
(0.108909 2.26814 0)
(0.0148184 1.85521 -2.8395e-20)
(-0.00499175 2.37567 -9.39471e-21)
(0.00382932 2.13298 0)
(0.00535218 2.43828 -1.69414e-20)
(0.0218361 2.27474 2.51697e-20)
(0.00915443 1.43432 -1.18121e-20)
(0.00597663 1.41354 1.9549e-19)
(0.00462869 1.42224 -6.38617e-20)
(0.0175069 1.43144 -5.52416e-20)
(0.0204533 1.46136 0)
(0.00301025 1.40378 0)
(-0.00402002 1.30558 -7.16601e-20)
(-0.00121621 1.39053 2.05e-20)
(0.0035743 1.39097 0)
(0.00393987 1.29676 -5.45161e-20)
(0.0115364 1.21541 1.09521e-19)
(1.04245 0.0150918 0)
(1.04898 0.0105714 -6.56209e-20)
(1.0391 0.0246337 -4.74138e-19)
(1.0495 0.0234653 0)
(1.05465 0.0226536 0)
(1.03627 0.0131042 -6.76287e-21)
(1.03005 0.0135542 7.64794e-19)
(1.03193 0.0174892 9.26519e-19)
(1.02566 0.0211337 0)
(1.02213 0.021703 0)
(1.03547 0.026058 4.73444e-19)
(1.02553 0.0282353 0)
(1.02355 0.0281512 0)
(-0.0199899 2.03066 0)
(-0.00982543 1.66279 -2.35718e-21)
(-0.00820536 1.76786 -3.23874e-20)
(-0.00543513 1.39761 0)
(-0.00934775 1.56579 -3.03566e-20)
(-0.0155647 1.47494 1.84907e-20)
(-0.0106469 1.41076 0)
(0.403761 1.62551 0)
(0.365621 1.31837 -3.83446e-20)
(0.275554 1.34548 0)
(0.435061 1.31666 -2.53017e-20)
(0.472879 1.4764 0)
(0.457374 1.41727 3.51976e-20)
(1.04062 2.67164 -1.54152e-20)
(0.985298 2.41014 -9.10596e-19)
(0.947972 2.21077 1.02319e-18)
(0.865486 2.38386 2.45071e-19)
(0.852874 2.48828 0)
(0.921881 2.48294 0)
(0.954659 2.38411 0)
(0.930667 2.37488 -9.47868e-19)
(0.69171 2.45231 -3.84451e-19)
(0.800556 2.43622 -9.9126e-20)
(0.807848 2.41417 7.47041e-20)
(0.704436 2.40434 0)
(0.809635 2.39809 0)
(0.770298 2.41457 -3.70335e-19)
(0.765776 2.4669 0)
(0.630752 1.06704 0)
(0.515627 0.858684 -5.63797e-19)
(0.522011 0.930747 -3.27318e-20)
(0.50187 1.07083 0)
(0.488894 0.97904 8.63241e-19)
(0.802433 0.88655 -1.34751e-19)
(0.805859 1.02146 0)
(0.786807 1.00426 1.8582e-19)
(0.675706 1.02092 0)
(0.667617 0.924374 0)
(1.16349 2.75501 -2.23866e-19)
(1.13865 2.81317 -9.27447e-20)
(0.923063 2.3354 8.05929e-20)
(0.899784 2.31646 -7.77313e-20)
(1.13319 2.73298 0)
(1.08522 2.70079 9.3372e-20)
(1.10128 2.49643 -3.00867e-19)
(1.00311 2.25625 -2.83912e-20)
(0.497303 1.32987 0)
(0.517181 1.07747 -1.07477e-19)
(0.594419 1.18225 0)
(0.849883 0.230024 0)
(0.755947 0.176419 0)
(0.66065 0.14148 0)
(0.855846 0.230004 -6.18671e-19)
(0.744483 0.224998 3.63284e-19)
(0.916522 0.0891955 -4.05289e-19)
(0.925632 0.136223 0)
(0.899704 0.147547 1.75402e-19)
(0.837211 0.108703 7.01877e-19)
(0.797538 0.0770447 -4.39134e-19)
(1.0964 3.34757 -6.67084e-19)
(1.16435 3.27098 0)
(1.11448 3.43241 -1.56053e-18)
(0.656178 3.57838 1.29855e-18)
(1.02496 3.07634 1.14027e-19)
(0.533099 0.780595 5.73888e-19)
(0.512376 0.748691 0)
(0.349774 0.357702 -1.4491e-19)
(0.488514 0.627971 8.61496e-19)
(0.552332 0.344274 -1.89783e-19)
(0.519858 0.453209 2.25877e-19)
(0.690361 0.524131 4.64136e-19)
(0.737138 0.56054 0)
(0.666388 0.563295 0)
(0.650916 0.530535 0)
(1.01739 0.613268 9.17541e-20)
(0.972253 0.595576 -4.70318e-19)
(0.982357 0.607779 3.60416e-19)
(1.04633 0.550201 -3.47553e-19)
(1.09125 0.519786 0)
(1.09351 0.602212 -9.18378e-20)
(0.887215 0.42223 -7.75198e-19)
(0.875594 0.408968 -9.96706e-19)
(0.798841 0.408177 6.11023e-19)
(0.813978 0.377926 -6.32513e-19)
(0.856366 0.335438 -4.97687e-19)
(0.8005 0.338612 6.0956e-19)
(1.02657 0.00671589 -4.73496e-19)
(1.02619 0.00683596 9.53991e-19)
(1.02996 0.000965358 6.09301e-19)
(1.03417 0.00158852 -7.31564e-19)
(1.03399 0.0119951 0)
(1.02969 0.0120679 -1.19752e-18)
(0.0818197 1.64753 1.0767e-20)
(0.067734 1.60752 0)
(0.108827 1.70409 3.38986e-20)
(0.113754 1.67946 -2.86058e-20)
(0.0703276 1.57213 -6.49053e-21)
(0.0664333 1.57419 0)
(0.00719477 1.70104 0)
(-0.00877593 1.51586 1.60875e-20)
(-0.00735623 1.45659 -1.44632e-20)
(-0.012323 1.56338 2.93503e-21)
(-0.00139815 1.8946 2.40458e-20)
(-0.0139798 1.94904 -9.34964e-21)
(0.493683 1.36087 -2.71329e-19)
(0.49619 1.35583 2.96575e-19)
(0.449379 1.30909 -1.82671e-20)
(0.428344 1.29145 8.14693e-21)
(0.628751 1.31112 0)
(0.555902 1.4047 1.1011e-19)
(0.557003 1.4079 -1.07227e-19)
(0.484897 1.29674 1.76214e-20)
(0.5261 1.25025 0)
(0.590588 1.21616 0)
(0.665315 2.41588 5.66014e-19)
(0.660927 2.44583 1.28944e-18)
(0.716106 2.46101 -8.86712e-19)
(0.613954 2.43321 -2.0211e-19)
(0.557721 2.52651 2.77057e-19)
(0.498201 2.49311 -7.1469e-19)
(0.993158 2.38888 -5.76508e-19)
(1.02523 2.40649 0)
(0.952055 2.19447 -6.30618e-19)
(1.05607 2.68189 0)
(1.055 2.66307 0)
(0.601409 2.28875 2.05985e-21)
(1.11886 3.06894 7.03533e-20)
(0.996353 2.9662 -1.18261e-19)
(0.321186 0.794308 0)
(0.319626 0.673758 -3.05783e-19)
(0.526261 0.609319 -3.10936e-19)
(0.363803 2.13086 0)
(0.403107 2.744 -8.02704e-20)
(0.412669 2.47827 0)
(0.728862 0.682809 -8.01542e-19)
(0.795947 0.691225 1.11642e-18)
(0.800704 0.658122 -1.05871e-18)
(0.701838 0.640518 -1.01509e-19)
(0.760594 0.599247 -4.18644e-19)
(0.97075 2.75225 -5.32842e-20)
(1.01411 2.75889 -2.16436e-19)
(0.551945 2.20532 4.46495e-19)
(0.604395 1.73382 -3.52818e-19)
(0.703493 1.85247 -5.01959e-19)
(0.977264 2.39263 -1.38144e-19)
(0.977343 2.34567 3.71139e-19)
(0.64629 1.76236 3.38513e-20)
(0.45269 1.2958 1.77847e-19)
)
;

boundaryField
{
    wall-4
    {
        type            noSlip;
    }
    velocity-inlet-5
    {
        type            fixedValue;
        value           uniform (1 0 0);
    }
    velocity-inlet-6
    {
        type            fixedValue;
        value           uniform (0 3 0);
    }
    pressure-outlet-7
    {
        type            zeroGradient;
    }
    wall-8
    {
        type            noSlip;
    }
    frontAndBackPlanes
    {
        type            empty;
    }
}


// ************************************************************************* //
