/*--------------------------------*- C++ -*----------------------------------*\
  =========                 |
  \\      /  F ield         | OpenFOAM: The Open Source CFD Toolbox
   \\    /   O peration     | Website:  https://openfoam.org
    \\  /    A nd           | Version:  6
     \\/     M anipulation  |
\*---------------------------------------------------------------------------*/
FoamFile
{
    version     2.0;
    format      ascii;
    class       volScalarField;
    location    "57";
    object      p;
}
// * * * * * * * * * * * * * * * * * * * * * * * * * * * * * * * * * * * * * //

dimensions      [0 2 -2 0 0 0 0];

internalField   nonuniform List<scalar> 
918
(
0.536016
1.24842
0.00598321
0.535927
-0.0114437
1.21614
-0.49657
0.655255
0.517158
-0.124101
-0.0671084
0.517751
1.07337
0.839489
-1.16806
-0.0192716
0.632322
-0.419511
0.515171
-0.0716067
0.67798
0.523841
0.526307
0.517095
0.580353
0.793943
0.950994
-0.00366183
0.00998499
0.00508541
-0.0131221
-0.0337841
-0.0292217
1.09924
1.1512
1.1744
0.483736
0.317565
-0.392121
-0.44407
-0.426434
-0.51583
0.651445
0.649626
-0.215236
0.657934
0.661564
0.502883
0.516552
0.517387
0.518519
0.517415
0.518699
0.387732
-0.132593
-0.159254
-0.107578
-0.106059
0.0348079
-0.0700421
-0.0727509
-0.0631647
-0.0629917
0.432921
0.512821
0.50962
0.522601
0.532809
1.1886
1.16228
1.18836
1.09907
1.11661
1.05025
1.02317
0.861283
0.885103
0.823133
0.808797
-1.62707
-2.57694
-0.589042
-0.310963
-0.0103279
-0.019842
-0.0175876
0.62747
0.629627
0.631555
0.635228
1.04003
-0.390931
-0.461472
0.515689
0.514207
0.523366
0.524269
0.519226
0.519231
-0.0658346
-0.0622459
-0.0631436
-0.070423
-0.0725031
0.670263
0.669837
0.516532
0.513979
0.541567
0.563896
0.552513
0.251764
0.590262
0.601178
0.656768
0.80202
0.790237
0.802363
0.926725
0.89451
0.982211
1.00393
0.0133963
-0.00114946
-0.021498
-0.0203179
-0.0205995
0.479478
0.473052
0.500795
0.487357
0.490397
0.222168
0.071154
0.400284
0.42431
-0.313971
-0.361521
-0.458163
-0.454161
-0.560717
0.600994
0.646933
0.64376
-0.229155
-0.15519
-0.282204
-0.0979724
-0.154604
0.493853
0.500091
0.496174
0.511532
0.505706
0.508128
0.52063
0.517805
0.519404
0.445616
0.579321
0.307004
0.279751
-0.283359
-0.17655
-0.262955
-0.0949871
-0.0902457
0.0459967
0.0745103
0.0222123
0.00976319
-0.0818177
-0.0746526
-0.0779356
-0.0626176
-0.0617247
0.424392
0.411395
0.444125
0.45163
0.499903
0.501374
0.505869
0.503819
0.974161
0.997447
1.00325
0.979367
-3.55776
-6.19625
0.0351561
0.195258
-0.00883059
-0.00976308
0.000590227
-0.00956994
-5.97479e-05
-0.0025898
-0.0241021
-0.0245238
-0.0193079
-0.01959
0.625258
0.626873
1.00837
1.03487
0.982247
0.955692
0.505013
0.506909
0.51154
0.50842
-0.0618798
-0.061441
-0.0626759
0.663177
0.668325
0.666694
0.210869
0.122611
0.302815
0.333843
0.620711
0.60428
0.617106
0.717353
0.756276
1.02065
1.04485
1.02874
1.04154
1.09244
1.11537
1.08072
0.458082
0.468984
0.463269
0.503865
0.501571
0.502571
0.498818
0.499864
0.498425
-0.0407592
-0.413821
0.476718
0.4777
0.467012
0.47163
0.687013
0.770067
0.634273
0.639615
0.638897
-0.0479686
-0.0950808
0.238453
0.210082
0.363777
0.39818
0.38011
0.949816
0.909856
0.958042
0.933424
0.897562
0.922351
-0.350515
-2.11716
-1.11068
0.59782
0.400295
0.492486
-0.00656011
-0.0233031
-0.0196459
1.02865
1.06873
0.650895
0.839162
0.792265
0.779196
0.805314
0.869374
0.800839
0.835964
0.867402
0.84233
0.552593
0.486236
0.502654
0.845959
0.902227
0.0858577
0.00850661
-0.0149793
0.098541
0.168205
0.136762
1.04363
0.956573
1.02095
0.514219
0.515164
-0.0174899
-0.0409955
0.519276
0.51899
-0.0202002
-0.010077
0.509098
-0.937541
0.0894757
0.50876
0.49847
0.515272
-0.103573
0.321596
-0.0701124
0.0188523
-0.0163327
0.511684
0.445164
0.402927
-0.00355765
-0.0276239
-0.0637146
-0.217886
0.511958
0.510318
0.514655
0.515476
0.516248
-0.0243242
-0.0249789
-0.0170412
-0.0581667
-0.0553774
-0.0630622
0.478607
0.498758
-0.192219
0.514943
0.517044
0.516747
0.510912
0.515873
0.514486
-0.0195683
-0.0241774
-0.0259368
0.191604
0.330249
0.692932
0.768521
0.641865
0.474447
0.178753
0.629138
0.681493
0.606649
0.737159
0.642322
0.652673
0.15631
0.0142807
0.160466
0.0931162
0.505617
0.505025
0.496009
0.492883
0.510081
0.507755
0.512957
0.510161
0.513335
0.514499
-0.0590181
-0.085834
-0.104259
-0.147118
0.288142
0.548401
0.215463
0.242923
0.14897
-0.0622736
-0.0605707
-0.0683904
-0.0726507
-0.0287486
-0.0332193
0.0129886
0.0199772
0.0031505
-0.0236653
-0.0352638
-0.0324974
-0.0393476
0.504879
0.504295
0.509681
0.518226
0.454748
0.458474
0.42484
0.443547
0.429772
0.369786
0.399614
0.376867
-0.0146695
-0.00369204
-0.0072869
-0.0270257
-0.0258323
-0.0474766
-0.0405521
-0.037704
-0.0343269
-0.0393209
-0.0586124
-0.0608101
-0.181493
-0.300436
0.969771
0.901116
0.12961
0.501869
0.507524
0.504699
0.509394
0.512598
0.513238
0.510816
0.507307
0.498839
0.500226
0.497142
0.49822
-0.13246
-0.240593
-0.0705347
-0.144534
0.144786
0.61181
0.337821
0.28356
0.268671
0.493732
0.700036
0.615206
0.675462
0.663086
-0.394317
0.0114374
-0.32552
0.2218
0.213121
0.719431
0.760762
0.777147
0.734984
0.691417
-0.0301538
0.545321
-0.0703898
-0.0207728
0.168703
0.0551249
0.6511
0.624725
0.629809
0.646717
0.657623
0.638418
0.622515
0.616648
0.64197
0.645724
0.493146
0.220249
0.178364
0.132109
0.618985
0.517892
0.569552
0.486839
0.501221
0.503651
0.502582
0.483399
0.490766
0.48643
0.493606
0.497265
0.50459
0.504797
0.500678
0.502566
-0.0775577
-0.0838083
-0.0658479
-0.131614
-0.135021
-0.181925
-0.0850724
0.0770986
0.025088
0.222782
0.340236
0.0619817
-0.0555667
-0.036708
0.010868
0.177458
0.172292
0.04839
0.156309
0.113546
0.108096
0.193836
0.216765
-0.0460557
-0.0507212
-0.0516988
-0.0566434
-0.00505462
0.0996692
0.0813097
-0.0209189
-0.0288624
-0.0576782
-0.0593572
-0.0182081
-0.0395916
-0.033725
-0.00888208
-0.0548796
-0.0289943
-0.0182904
-0.0209619
-0.0237507
-0.0225952
0.498251
0.500462
0.500396
0.506954
0.520728
0.534222
0.50116
0.476002
0.466999
0.470114
0.443098
0.452362
0.447513
0.463303
0.484936
0.494233
0.491605
0.494365
0.476254
0.478048
0.46336
0.46794
0.436999
0.41849
0.408357
-0.0515622
-0.0179694
-0.0315932
-0.045217
-0.0194815
-0.0294094
-0.0252657
-0.00698144
-0.0253836
-0.0221647
-0.0318794
-0.0372239
-0.0381383
-0.0841665
-0.00172892
-0.180391
-0.232005
-0.283392
0.881444
1.01661
0.805372
0.569481
0.584247
0.83251
0.928382
0.534739
0.753716
0.758105
0.57064
0.858143
0.505766
0.505382
0.503268
0.502453
0.503415
-0.0218812
0.0818524
0.0955308
0.153094
0.269589
0.375774
0.30514
0.191753
0.324988
0.349445
0.609272
0.615674
0.571786
0.594052
0.591232
0.405428
0.485733
0.524799
0.480233
0.554104
0.587268
0.533705
0.576959
0.496801
0.447319
0.438692
0.394324
0.428635
0.409863
0.384272
0.496903
0.473843
0.484644
0.474201
0.4952
0.522736
0.521212
0.539264
0.559298
0.475783
0.422547
0.43954
0.467666
0.423913
0.440829
0.462661
0.178226
0.0817669
0.245199
-0.0840913
0.00342527
0.0417134
-0.000455268
-0.0432573
0.263918
-0.376168
-0.322005
-1.001
0.487755
0.849274
0.604552
0.616872
0.657048
0.642071
0.651722
0.659913
0.664676
0.608424
0.617788
0.622427
0.594821
0.61968
0.619924
0.627423
0.497282
0.400092
0.399313
0.334235
0.194618
0.234741
0.427074
0.358885
0.28396
0.276316
0.447686
0.314512
0.392527
0.44534
0.370492
0.305079
0.532846
0.578161
0.569246
0.543275
0.428316
0.461308
0.465341
0.513866
0.556227
0.58223
0.492202
0.498524
0.49945
0.496705
0.494995
0.498126
0.498392
0.500673
0.50093
0.503499
0.50293
-0.0667611
-0.0551916
-0.0712331
-0.0755138
-0.0274825
-0.0352941
-0.00782519
-0.0271681
-0.0315581
-0.0283887
-0.0483014
-0.0610588
-0.0573383
-0.046146
0.0608681
0.0708134
0.0860575
0.042466
0.260433
0.381161
0.46378
0.341753
0.194455
0.210413
0.274529
0.000555781
0.00971914
-0.00619731
0.054195
0.0379023
-0.051586
-0.055706
-0.0544294
-0.0441518
-0.0367913
-0.05704
-0.0549821
-0.045231
-0.0529373
-0.0564693
-0.0583998
0.477673
0.470554
0.474202
0.466549
0.464713
0.481737
0.48625
0.487468
0.493044
0.495776
0.485164
0.491264
0.495436
-0.0260413
-0.0429437
-0.0439232
-0.0400643
-0.0394164
-0.0388211
-0.0425841
0.118871
0.0237329
0.0598865
-0.0104179
-0.136169
-0.0774283
0.494142
0.490449
0.48106
0.713148
0.549811
0.468709
0.568026
0.68748
0.26653
0.467813
0.301819
0.881143
0.786832
0.932632
0.548056
0.24664
0.412431
0.422537
0.264537
0.388062
0.334984
0.211094
0.246562
0.27932
0.362096
0.249413
0.228603
-0.0132492
0.167209
0.277548
0.259841
0.387265
0.444678
0.255946
0.172395
0.11943
0.590689
0.607118
0.615212
0.586719
0.607524
0.569247
0.556518
0.569806
0.578524
0.581224
-0.636522
-0.22481
-1.42543
-0.836666
-0.385551
0.515523
0.512128
0.742338
0.648678
0.672971
0.656775
0.596618
0.564279
0.610274
0.626767
0.324247
0.41052
0.396706
0.373197
0.318809
0.26118
0.532812
0.541526
0.564845
0.590755
0.56583
0.592891
0.490905
0.490755
0.489456
0.485727
0.484247
0.487477
0.0245815
-0.00216447
0.0302875
0.0168315
-0.00785199
-0.0105888
-0.0291692
-0.040322
-0.0394606
-0.0369624
-0.028555
-0.0269701
0.164086
0.103415
0.0138982
0.0561395
-0.0091892
-0.093333
-0.0933411
-0.00493909
0.0961796
0.0785542
0.382185
0.653127
0.477697
0.644002
0.439912
0.540005
0.463202
0.436029
0.464882
0.366299
0.455859
0.0361497
-0.163838
-0.219876
0.812927
0.771573
0.55429
0.307723
0.191537
0.48657
0.514426
0.475066
0.500076
0.552531
0.532209
0.0109138
0.102072
0.181492
0.488537
0.272355
0.289421
0.280898
0.444046
0.415607
)
;

boundaryField
{
    wall-4
    {
        type            zeroGradient;
    }
    velocity-inlet-5
    {
        type            zeroGradient;
    }
    velocity-inlet-6
    {
        type            zeroGradient;
    }
    pressure-outlet-7
    {
        type            fixedValue;
        value           uniform 0;
    }
    wall-8
    {
        type            zeroGradient;
    }
    frontAndBackPlanes
    {
        type            empty;
    }
}


// ************************************************************************* //
