/*--------------------------------*- C++ -*----------------------------------*\
  =========                 |
  \\      /  F ield         | OpenFOAM: The Open Source CFD Toolbox
   \\    /   O peration     | Website:  https://openfoam.org
    \\  /    A nd           | Version:  6
     \\/     M anipulation  |
\*---------------------------------------------------------------------------*/
FoamFile
{
    version     2.0;
    format      ascii;
    class       surfaceScalarField;
    location    "57";
    object      phi;
}
// * * * * * * * * * * * * * * * * * * * * * * * * * * * * * * * * * * * * * //

dimensions      [0 3 -1 0 0 0 0];

internalField   nonuniform List<scalar> 
1300
(
3.75095
5.62643
-3.34692
3.75095
-7.76294
5.62643
-4.24586
4.24586
-0.550324
0.550324
1.87647
1.87448
-2.49913
2.49913
-1.92243
1.92243
-2.53531
2.53531
-5.24804
5.24804
-5.06937
5.06937
4.70514
-4.70514
-6.31299
6.31299
-0.987526
0.987526
-3.55737
3.55737
3.17264
-3.17264
-1.9722
1.9722
-0.0482923
0.0482923
-0.554089
4.30504
3.19686
3.19686
-1.9839
1.9839
-4.87407
4.87407
6.22215
-6.22215
5.27585
-5.27585
-1.92893
-2.48177
1.81472
-11.5237
-5.94822
-5.94822
-8.44103
8.44103
-2.8146
2.81183
2.94677
-2.94677
-1.73053
1.73053
-4.25867
0.0128076
-4.25867
4.21382
0.0320466
4.21382
-0.624591
0.0742671
-0.624591
3.9126
-3.9126
0.452969
0.097355
0.452969
3.06716
-3.06716
-1.87686
3.75334
1.87409
-1.87208
6.17713
-1.87887
3.75335
-6.06969
6.06969
-2.71465
0.215522
-2.71465
2.3015
0.197621
2.3015
-6.87318
6.87318
-1.98074
0.0583023
-1.98074
1.93161
-0.00917743
1.93161
2.886
-2.886
-2.63598
0.100664
-2.63598
2.39317
0.142139
2.39317
0.353465
5.27296
-5.9799
8.79173
-5.27296
0.0249238
5.21043
0.0376141
5.21043
-5.10513
0.0357571
-5.10513
5.01356
0.055804
5.01356
4.79645
-0.0913133
4.79645
-4.8226
0.117468
-4.8226
-3.36374
-4.06364
-6.47131
0.158326
-6.47131
-1.04769
0.060161
-1.04769
0.892144
0.0953819
0.892144
-3.70036
3.70036
-3.9056
0.348228
-3.9056
3.12762
0.0450197
3.12762
1.86813
1.88283
5.61908
-5.61908
2.44643
-1.93349
-0.0387105
-1.93349
-2.02576
-3.25008
2.02576
-0.0535692
-0.270946
0.222654
-0.270946
3.15708
0.0397829
3.15708
2.21938
0.17379
-2.21938
0.235484
3.29176
-3.29176
1.31054
0.67336
1.31054
-5.5599
5.5599
4.96133
0.0522307
-4.96133
0.0872632
6.15671
0.0654383
6.15671
-6.20766
-0.0144956
-6.20766
2.49148
-4.97325
-2.63505
6.13
0.182984
-6.13
0.181783
2.91809
0.0286709
2.91809
-2.91996
2.91996
-2.98389
0.0371211
-2.98389
-2.15348
0.422947
-2.15348
1.41575
0.314782
1.41575
-4.17088
-0.0877915
-4.17088
-4.05968
0.154081
4.05968
0.154142
1.10962
-1.10962
-0.698245
0.0736543
-0.698245
-4.01722
-0.153658
4.01722
-0.10462
-3.85795
-0.0546497
-3.85795
-3.02167
0.037779
3.02167
0.0454967
3.11204
0.0450429
-3.11204
0.0448765
-1.87099
3.75381
-1.87997
3.75406
-5.68616
-0.383525
-5.68616
6.35546
-0.285775
6.35546
3.10181
0.455559
-3.10181
0.387161
2.15602
0.14548
2.15602
-6.8492
-0.023976
-6.8492
6.87501
-0.00183204
6.87501
2.05307
0.102951
-2.05307
0.0723362
1.93234
-0.000730342
1.93234
2.91289
-0.0268955
2.91289
-2.88041
-0.00558298
-2.88041
2.79391
-2.79391
2.72101
0.0728954
-2.72101
0.0850334
-11.124
11.1095
-0.0363658
-11.0876
5.17406
5.17406
4.25137
0.545084
4.25137
-5.01652
0.193913
-5.01652
2.66487
-5.29992
3.09005
-6.4538
4.67155
-16.1953
4.30343
-8.36707
6.72144
-6.72144
6.6028
0.118641
-6.6028
0.131491
-1.14439
0.0967066
-1.14439
-3.11636
-0.583994
-3.11636
4.35663
-0.656268
4.35663
-3.0279
3.0279
-3.07659
0.0486954
3.07659
0.0510331
1.92248
0.00986602
-1.92248
-0.0110087
0.354057
0.0989112
-0.354057
0.0831115
3.50942
-0.217663
3.50942
-3.09068
-0.201082
-3.09068
-1.22965
0.0852524
1.22965
0.080895
-5.80749
0.247588
-5.80749
-11.1815
0.0938343
-11.1439
-6.11382
-6.11382
2.32721
11.1189
-2.89616
0.0157507
2.89616
0.0219295
2.97548
0.0524126
-2.97548
0.0555274
-2.85998
0.0660702
2.85998
0.0599807
-2.522
0.368516
-2.522
-1.02913
1.02913
-1.17895
0.149822
1.17895
0.236798
1.40446
-0.294844
1.40446
0.795444
0.0966996
-0.795444
0.0971993
-3.81026
-0.0476909
-3.81026
6.59094
-0.235474
6.59094
-2.96302
-0.127659
2.96302
-0.0501239
-0.0350219
11.1445
-5.13904
0.033913
5.13904
-11.21
11.2439
-3.22877
0.706775
3.22877
1.0226
5.28521
0.274694
-5.28521
0.26869
6.81366
0.0613468
-6.81366
0.0922206
-2.613
-0.503364
-2.613
-5.0882
-0.597957
5.0882
-0.731578
-11.4818
-0.202829
11.6847
-11.426
6.01032
0.146394
-6.01032
11.3903
-0.993766
-0.115852
0.993766
0.035365
1.74155
-0.337085
1.74155
3.72101
-0.211592
-3.72101
-0.0892505
-6.74538
-0.103828
6.74538
-0.154441
-2.16878
-0.444218
2.16878
-0.427234
-4.26734
4.30712
1.90978
-2.34588
-2.62737
-5.59596
1.85517
1.89865
4.3016
-10.172
-6.02323
-9.99023
7.21376
-6.94507
-9.33894
9.24763
7.88346
-7.93811
-5.77772
5.82875
6.4844
-6.43891
1.87933
1.87401
8.00869
-7.79317
-15.7143
15.3307
7.5868
-7.5285
15.8574
-15.8814
-17.9006
17.9619
-5.69428
5.79494
-6.74041
6.73483
-6.97546
6.92533
-2.80184
-3.65195
13.1483
-12.99
8.56659
-8.6053
-8.64114
8.98937
3.38457
0.922552
3.42961
-1.88186
3.76119
-1.87149
3.78127
2.73675
-5.53859
2.56317
-5.19054
4.35261
4.21397
-4.29905
-1.29692
-5.92786
5.95653
-5.81016
5.87014
9.13793
-9.12512
-1.88498
3.75899
-1.86908
3.76772
-3.42326
-2.35446
3.37824
0.923358
8.08884
5.05949
-8.27182
-1.71841
-8.00115
7.78956
-8.20754
8.00646
-0.436337
5.83771
-5.40138
4.43773
-1.65401
7.49173
5.55974
5.75365
5.86081
-5.58612
1.08425
-6.48563
-6.39836
-2.39076
2.46441
2.28257
-2.18522
6.10351
1.77995
5.99889
-5.78102
-2.15708
-5.82872
3.82005
2.0087
3.86875
4.08173
2.40267
4.11951
3.02986
-3.0365
0.00664027
-3.05912
6.08898
0.722492
-5.41357
-4.49022
4.99066
3.01803
5.18828
-5.55242
-2.24074
-5.16526
-9.6001
-6.11416
-10.1981
10.1097
5.22105
9.82391
-11.9881
11.8337
4.87758
2.70922
4.8684
-4.95943
-2.56907
-4.8871
11.6759
-2.63068
-9.0452
-10.3499
-7.55069
10.3517
5.50572
10.9941
6.96781
11.0863
4.43173
7.24414
-9.93745
2.38676
-3.86227
-1.83201
-3.77724
3.65017
2.14477
3.79231
-4.21816
-2.52225
-4.20241
-4.29375
-2.6817
4.32065
2.41418
-4.41369
-3.79385
4.54135
2.38398
4.05037
-10.0736
4.31669
-7.96864
-9.22112
-3.76889
-9.08962
3.52961
2.5969
-6.12651
-2.00898
8.49644
-4.28247
7.19952
-5.19468
-3.41062
-5.20569
-6.92717
-1.71397
-6.77309
-8.95327
8.44991
-9.22258
8.56631
12.577
-5.67115
-6.90584
-3.96693
-2.47198
3.92205
-0.49244
-3.71009
3.71673
0.051099
3.83237
4.75493
4.26249
-3.88237
-1.92779
-3.82684
3.82208
2.04806
3.88815
6.81882
2.31911
6.85087
-6.57979
-2.54533
-6.66758
9.11484
-8.6919
2.81408
-2.72883
5.36188
2.64458
-5.14422
-2.85694
6.24084
-3.20106
-3.03978
-12.3495
10.8165
1.53305
-4.85779
-0.420059
-0.371767
-5.57545
-3.76349
5.45798
0.295676
11.1121
7.34865
-5.5158
5.76339
6.16886
6.22109
-0.177271
5.90067
-5.19389
5.28081
-2.65928
-2.62152
5.44566
-5.59932
-1.22192
-5.51513
4.29321
0.399569
1.58878
-1.36612
-1.84485
-0.545907
-1.74765
1.29969
0.982882
1.3986
0.921754
1.54266
-2.9182
0.568292
2.34991
-1.99645
-1.61693
-3.76224
-1.13835
4.90059
5.70172
2.08784
-5.61247
-0.216248
2.61456
-2.51918
-0.804008
-2.95823
2.2004
-3.00441
-3.48938
-1.89789
5.38727
-3.36889
-0.457949
3.31648
0.552265
-3.82783
-2.10003
3.79071
0.328797
-3.12827
6.1901
-3.06183
-5.05606
2.52891
3.56007
4.53761
-4.79026
2.44897
2.3413
-1.2302
4.26915
0.919139
4.41463
-6.98531
4.74457
5.71674
3.27263
-6.1723
1.00704
-5.97827
8.562
-7.40492
-1.15708
4.13011
4.43188
7.06625
5.51074
-5.73705
12.8033
-1.16587
-6.23904
7.14414
-3.87152
4.85812
-8.72963
-10.3689
4.12981
-9.2283
11.0656
-1.83728
-3.61366
-8.37444
12.842
-1.214
-11.628
8.60992
-4.27696
-4.32066
8.59762
-6.90763
6.88973
-1.98345
-4.90628
-10.1655
-5.71592
10.2693
1.56434
-9.89507
12.2818
-2.65093
4.15786
0.710541
4.15713
3.31877
-5.44997
2.1312
3.58886
-5.57231
2.06815
-7.51812
-6.76564
12.1043
-5.33863
-10.5345
-9.56345
-0.971079
2.55068
9.73114
-9.51849
7.4481
2.0704
3.29901
0.589137
-3.37191
-0.405328
0.242741
4.51375
-4.75649
4.03505
4.20884
3.22901
1.28474
3.8487
2.10783
-3.87063
-0.331785
-4.16703
1.48533
-1.75285
-3.69209
5.17742
-4.06199
0.369902
-2.74748
-3.49422
6.24171
-4.57949
3.03643
3.15367
5.08449
-4.91394
1.41972
-2.39113
-2.52281
2.64227
-4.39512
1.99681
3.18061
4.38079
0.586941
5.90682
6.19745
-8.50373
0.535083
11.2569
-9.53853
2.48479
8.60155
-9.93289
0.369437
-8.72019
0.977404
-5.25987
-5.14911
5.19771
-6.91167
-3.53193
6.22091
0.629962
-6.37505
-0.398042
-6.08362
-2.86966
-6.52783
-3.04209
-6.18049
-8.77914
-1.68542
-7.09372
6.76449
-6.72884
-3.46921
7.46042
1.10589
-7.48524
7.36939
-7.54914
7.21205
0.0946589
3.62207
4.35714
1.88517
-2.39187
4.27704
-5.0628
7.3819
-8.72564
3.66284
4.21138
-6.75671
-4.51425
5.06588
4.04897
5.38066
8.94305
-10.4034
1.46035
-10.6792
12.0248
-1.34566
-16.4684
5.78921
-7.52532
2.45454
0.359541
2.55124
0.566936
2.49771
-3.06464
-2.16189
-2.081
-2.42995
-3.49601
5.92597
1.08106
-3.45165
2.37059
-3.57752
4.65858
-0.0408675
-3.41078
5.20184
-2.70413
5.56138
-3.61839
1.94299
3.53671
5.84073
-2.30402
4.42256
-1.77798
1.93039
-4.23441
-1.56563
-2.95615
5.10092
-3.28555
3.65546
-0.344428
3.99988
-4.05661
0.855555
-0.827599
3.38124
3.61672
4.33114
-3.0464
2.94305
-4.72103
-1.29136
-4.13409
-0.953481
-0.194099
-3.8021
3.99619
6.02439
-6.21849
-5.28958
9.53795
-4.24838
7.71229
-5.44668
-2.26561
-4.2989
-4.39299
3.93039
1.97028
9.68257
0.179468
-5.62615
-5.01442
-3.99183
3.11777
2.16304
-1.79337
3.32643
2.16514
-0.576361
0.426671
0.97193
1.77652
-1.34985
0.311083
1.46543
-1.05504
1.7786
0.835961
-1.8753
0.127645
-1.2714
3.47179
1.07851
-2.06139
0.711547
0.912577
-3.57186
5.03029
-2.68951
-2.34078
5.94287
1.14991
-3.83942
4.36522
-3.96565
2.42509
-3.56344
-1.41433
-5.37999
-3.60004
-2.50481
4.87539
-3.42116
5.509
1.38601
-5.29276
6.67877
-3.62086
1.72297
-3.07294
3.90891
-1.03773
-2.03522
2.89443
2.49283
-3.10719
0.148959
-0.212759
2.4089
-2.62166
-0.595508
-2.59195
-4.57555
4.90435
-2.10417
4.55313
2.17288
-1.91717
6.4703
1.80815
-3.72532
-3.24791
-3.70586
-1.38402
3.15359
-0.596984
-4.29011
-5.50326
4.18716
0.227463
-7.00595
7.86083
-0.854876
-3.98792
-0.756641
4.88676
-6.05256
0.480248
-3.98441
3.87642
4.79555
5.02302
-11.3986
-0.229376
-6.17753
1.12101
-7.29854
5.5529
-3.54947
7.67928
-10.3597
6.89051
-9.25383
6.5222
-0.776345
6.24674
-4.11554
2.79846
-8.51437
-6.95004
5.4983
-2.78908
6.20885
-3.15761
9.36646
-5.80854
5.28623
4.08023
-1.0252
-4.1805
-5.27273
4.24753
0.0134984
4.17063
4.98619
-2.87836
4.65441
2.26297
-4.6541
-2.13216
-6.4881
1.834
-3.33443
-1.92154
3.75555
3.16294
3.75208
1.23274
-3.34675
7.23125
-8.20233
-1.89262
-3.25649
5.25757
-1.01004
3.41291
-6.6694
-1.84696
4.77876
-0.727208
-4.05156
0.892387
-4.42431
1.67056
-6.09488
5.24111
-5.63915
2.25314
-9.77846
-5.2321
-5.19673
-2.28062
-5.26852
-7.59524
5.31462
-1.80603
5.56336
-8.54381
7.8166
-3.48101
8.79563
-5.47268
-1.05516
5.89991
1.31214
10.1078
0.14936
-4.66361
-1.93353
3.76228
-1.82875
1.18425
-3.65274
0.10954
2.4839
3.45896
-6.77712
0.0204052
-4.64321
-3.91404
7.96301
5.62391
11.6483
1.24491
9.15198
-1.18897
10.3969
4.19169
4.42849
-3.03076
4.49111
0.965433
4.62827
-0.883053
2.82604
1.66819
1.72835
0.790824
2.30372
1.31301
3.15927
0.0946277
-1.98637
4.64008
-8.63191
-0.986069
-8.08682
1.1608
5.42942
-4.26862
2.91357
-0.750536
1.08482
-0.109775
-1.32907
1.43884
-2.7313
-1.90543
-0.439995
-1.61355
2.3251
1.85824
-1.88511
-0.846194
0.327281
-3.92732
3.23616
-3.0872
-0.594367
6.0844
-2.87718
0.255519
-1.15421
-2.33643
-2.88234
2.7547
6.17457
0.295726
3.11274
5.20007
3.10005
0.221687
3.84248
-5.67975
-3.67565
-5.90913
-0.356232
4.53052
1.73567
7.99547
5.8159
4.80586
-1.86354
-10.0659
6.547
-2.05589
5.20134
-1.14978
-4.94509
5.05598
2.32592
-5.68594
0.0467897
-4.8983
-6.9542
-0.481733
8.29834
-9.62604
8.57088
5.70122
1.3925
-4.44218
-0.754557
4.29236
0.136131
10.533
-0.90955
-7.09477
8.00432
-4.51987
3.5338
0.693741
2.63268
2.13259
1.38205
-5.71272
-9.98133
-2.02882
-1.54304
-4.3696
0.530995
-2.38924
6.08251
-2.54871
3.8169
5.4556
6.54043
-2.05418
-4.16431
6.30256
-2.48565
4.05477
)
;

boundaryField
{
    wall-4
    {
        type            calculated;
        value           uniform 0;
    }
    velocity-inlet-5
    {
        type            calculated;
        value           uniform -3.75095;
    }
    velocity-inlet-6
    {
        type            calculated;
        value           uniform -5.62643;
    }
    pressure-outlet-7
    {
        type            calculated;
        value           nonuniform List<scalar> 8(3.34692 7.76294 4.4107 9.70898 7.42738 5.12653 5.75492 8.97498);
    }
    wall-8
    {
        type            calculated;
        value           uniform 0;
    }
    frontAndBackPlanes
    {
        type            empty;
        value           nonuniform 0();
    }
}


// ************************************************************************* //
