/*--------------------------------*- C++ -*----------------------------------*\
  =========                 |
  \\      /  F ield         | OpenFOAM: The Open Source CFD Toolbox
   \\    /   O peration     | Website:  https://openfoam.org
    \\  /    A nd           | Version:  6
     \\/     M anipulation  |
\*---------------------------------------------------------------------------*/
FoamFile
{
    version     2.0;
    format      ascii;
    class       volScalarField;
    location    "24";
    object      p;
}
// * * * * * * * * * * * * * * * * * * * * * * * * * * * * * * * * * * * * * //

dimensions      [0 2 -2 0 0 0 0];

internalField   nonuniform List<scalar> 
918
(
0.202753
0.959767
0.0107019
0.20253
-0.00549797
0.927796
-0.833827
0.379512
0.183739
-0.446558
-0.372305
0.17677
0.78479
0.552325
-1.51755
-0.0858267
0.338754
-0.715145
0.181516
-0.01284
0.433182
0.190599
0.193042
0.183768
0.239457
0.515104
0.661252
0.00794854
0.0020579
0.000815887
-0.0037947
-0.0251781
-0.0329628
0.810951
0.862869
0.885987
0.151555
-0.0197126
-0.714825
-0.773245
-0.743832
-0.872978
0.370089
0.372726
-0.510297
0.378878
0.389979
0.169808
0.183052
0.183891
0.185293
0.18399
0.18536
0.102188
-0.455071
-0.490805
-0.435204
-0.433785
-0.208046
-0.405728
-0.422162
-0.350255
-0.30352
0.105539
0.173695
0.170677
0.180926
0.189817
0.899938
0.873629
0.899626
0.81058
0.828039
0.761741
0.734616
0.574022
0.597068
0.53575
0.52487
-1.99055
-2.95946
-0.926563
-0.637342
-0.000756185
-0.104238
-0.127307
0.32514
0.324954
0.337296
0.348664
0.696778
-0.711936
-0.828544
0.181911
0.180434
0.189959
0.190875
0.185802
0.185841
-0.0283777
-0.0550328
-0.0108584
-0.00379414
-0.0112973
0.419207
0.414874
0.183223
0.180727
0.200542
0.223561
0.212535
-0.0587797
0.249389
0.266796
0.363879
0.519739
0.508141
0.51994
0.636437
0.604162
0.69333
0.714963
0.00239382
0.00309381
-0.0733351
-0.0406403
-0.0533276
0.147932
0.142311
0.166661
0.155185
0.158021
-0.114989
-0.267778
0.0612573
0.0830966
-0.628252
-0.67526
-0.787986
-0.775223
-0.850628
0.209606
0.36628
0.36644
-0.529665
-0.447641
-0.582005
-0.388527
-0.448256
0.161383
0.167045
0.16354
0.178351
0.172621
0.17502
0.18716
0.184279
0.185859
0.157368
0.283547
0.0282953
0.0167938
-0.583809
-0.50166
-0.574956
-0.421645
-0.42969
-0.21859
-0.201185
-0.224231
-0.2505
-0.431835
-0.432618
-0.430502
-0.262389
-0.204614
0.0974537
0.0865783
0.115563
0.122013
0.164445
0.165917
0.168621
0.167363
0.685466
0.708209
0.714563
0.690861
-3.96002
-6.63782
-0.278051
-0.111423
-0.000404585
0.00311604
0.00174306
0.00849586
0.00224514
-0.00145983
-0.279786
-0.255969
-0.165761
-0.202236
0.315811
0.316631
0.657268
0.682539
0.650134
0.631195
0.171163
0.173266
0.177827
0.17481
-0.155213
-0.0834092
-0.115538
0.388664
0.403112
0.400681
-0.0974059
-0.182103
-0.0123011
0.0165493
0.305874
0.277775
0.298755
0.424596
0.464592
0.731867
0.756371
0.740124
0.753205
0.804184
0.827073
0.792182
0.127652
0.138652
0.133018
0.169997
0.167508
0.168648
0.163789
0.165462
0.163378
-0.382219
-0.761592
0.138601
0.150241
0.119611
0.12593
0.289262
0.373012
0.346665
0.358935
0.359753
-0.337519
-0.390585
-0.0437669
-0.082108
0.0437344
0.0752705
0.0591239
0.660801
0.621811
0.669401
0.644796
0.60973
0.632722
-0.699654
-2.49501
-1.47292
0.304016
0.100606
0.194841
-0.262956
-0.288031
-0.291471
0.68347
0.720585
0.349123
0.521257
0.477193
0.493358
0.521849
0.577904
0.509623
0.54381
0.576908
0.555341
0.178699
0.138426
0.148044
0.454978
0.515949
-0.216782
-0.288342
-0.315505
-0.17709
-0.151544
-0.162436
0.688849
0.578243
0.648754
0.181043
0.181959
-0.000169845
-0.00197392
0.185808
0.185557
0.0011129
-0.0171621
0.214021
-1.29606
-0.204661
0.175023
0.165205
0.18172
-0.42992
0.0328108
-0.41418
-0.302658
-0.307949
0.1719
0.11628
0.0793077
0.00719779
-0.0601883
-0.040387
-0.523407
0.178749
0.177222
0.181196
0.182029
0.182771
0.000806885
-0.00320005
0.000167322
-0.0240048
-0.00820946
-0.00494888
0.146903
0.164535
-0.507583
0.181336
0.18344
0.183184
0.177154
0.182174
0.18075
-0.0430609
-0.0283724
-0.0584637
-0.11298
0.0121296
0.408762
0.492127
0.351149
0.177192
-0.13094
0.337517
0.394655
0.314146
0.452036
0.353284
0.3614
-0.14691
-0.283272
-0.140373
-0.199221
0.172343
0.171503
0.162967
0.160276
0.176631
0.174493
0.179343
0.176411
0.179412
0.1807
-0.377874
-0.418614
-0.422279
-0.471625
-0.00353966
0.250891
-0.0706983
-0.0419079
-0.164417
-0.422422
-0.365457
-0.450986
-0.446592
-0.540064
-0.331806
-0.327536
-0.287475
-0.251053
-0.35488
-0.543132
-0.411525
-0.421092
0.166269
0.166883
0.171685
0.178461
0.125041
0.127976
0.0975783
0.114892
0.101141
0.0486793
0.0777063
0.0555484
0.00171838
0.00946233
0.00381196
-0.063308
-0.140893
-0.0219916
-0.00732733
-0.00047537
-0.0133182
-0.0150604
-0.0631146
-0.084092
-0.489767
-0.619081
0.635482
0.562998
-0.219265
0.168574
0.17448
0.171579
0.17603
0.179267
0.179901
0.177535
0.174206
0.164798
0.166136
0.162467
0.162951
-0.454708
-0.557175
-0.387175
-0.459295
-0.195505
0.29179
0.0212409
-0.0302292
-0.044069
0.169277
0.371986
0.32346
0.412916
0.41599
-0.739166
-0.311546
-0.66
-0.110872
-0.128487
0.428585
0.473642
0.493618
0.448659
0.402119
-0.376684
0.186598
-0.377363
-0.336965
-0.153574
-0.250541
0.385674
0.334981
0.342731
0.35228
0.371219
0.344369
0.321355
0.31976
0.346934
0.354934
0.162268
-0.0814855
-0.117957
-0.166971
0.316777
0.195007
0.247818
0.174921
0.167471
0.170145
0.168927
0.151709
0.158399
0.154782
0.159875
0.163243
0.171729
0.171903
0.16769
0.169806
-0.410912
-0.404466
-0.376182
-0.449764
-0.454443
-0.488795
-0.414564
-0.229008
-0.262635
-0.0965327
0.0304198
-0.280813
-0.402915
-0.376969
-0.338109
-0.182228
-0.143112
-0.240152
-0.154051
-0.125949
-0.154995
-0.0680042
-0.0670999
-0.541821
-0.532153
-0.463863
-0.497546
-0.328393
-0.239062
-0.20925
-0.437032
-0.573719
-0.33668
-0.265759
-0.388532
-0.4289
-0.461444
-0.363496
-0.0531282
-0.0628051
-0.116602
-0.304437
-0.233534
-0.269599
0.162819
0.164745
0.164759
0.176092
0.185399
0.20084
0.169583
0.144481
0.136505
0.139521
0.113908
0.122915
0.118236
0.132554
0.153573
0.159078
0.157842
0.159892
0.14517
0.145803
0.133391
0.137353
0.111598
0.0955362
0.0864647
-0.0296276
-0.0114914
-0.0235537
-0.0433579
-0.00411719
-0.0178233
-0.249772
-0.141429
-0.189503
-0.159334
-0.274502
-0.0164071
-0.0267171
-0.398398
-0.336565
-0.512988
-0.55972
-0.610739
0.540649
0.662167
0.462308
0.258951
0.259084
0.490757
0.584306
0.233137
0.406977
0.442444
0.192191
0.469719
0.172698
0.172245
0.170019
0.169303
0.17058
-0.36135
-0.264137
-0.233624
-0.19168
-0.0742689
0.0335513
-0.0636417
-0.168164
-0.0296315
-0.00411557
0.285909
0.300099
0.243117
0.269679
0.265158
0.0918193
0.169907
0.206779
0.163358
0.22358
0.255467
0.206267
0.24657
0.174721
0.132825
0.127113
0.0756451
0.110073
0.0903616
0.0640769
0.16377
0.143333
0.153162
0.145184
0.164197
0.191524
0.19044
0.210739
0.224804
0.147418
0.103287
0.118344
0.142717
0.103523
0.117502
0.13603
-0.185841
-0.280235
-0.114616
-0.434142
-0.340964
-0.304881
-0.344546
-0.398839
-0.0940294
-0.736744
-0.675561
-1.36752
0.125276
0.539873
0.351299
0.368079
0.370294
0.348628
0.356736
0.377873
0.386095
0.307293
0.324992
0.327451
0.277496
0.312741
0.320972
0.328134
0.153321
0.0694668
0.0659386
0.00803253
-0.119483
-0.0857234
0.0891823
0.0282567
-0.0374452
-0.0420938
0.135325
0.00993506
0.0821296
0.132646
0.0727238
0.00619775
0.222048
0.278473
0.265409
0.231206
0.150778
0.165993
0.193563
0.234446
0.256606
0.287808
0.15902
0.16525
0.166273
0.163529
0.161914
0.164628
0.164501
0.166936
0.167791
0.170327
0.169409
-0.446025
-0.445991
-0.395697
-0.425321
-0.332557
-0.339323
-0.295614
-0.329085
-0.374003
-0.363277
-0.367244
-0.392628
-0.396698
-0.392789
-0.195808
-0.19358
-0.225133
-0.253926
-0.0873879
0.0691298
0.126494
0.00677626
-0.125013
-0.112488
-0.0319124
-0.371071
-0.381257
-0.439604
-0.326862
-0.306766
-0.466313
-0.398753
-0.400907
-0.531913
-0.512019
-0.306954
-0.125325
-0.149766
-0.213097
-0.206527
-0.150829
0.146245
0.139986
0.142137
0.13602
0.13498
0.148912
0.15316
0.154473
0.15889
0.160863
0.152576
0.156728
0.160308
-0.147979
-0.0475311
-0.0841781
-0.125987
-0.0772432
-0.0458474
-0.0700188
-0.220784
-0.312544
-0.278741
-0.347097
-0.467293
-0.402352
0.124707
0.116638
0.124372
0.33453
0.189105
0.0974318
0.183038
0.292827
-0.0804142
0.121061
-0.0478161
0.518685
0.412021
0.556158
0.202984
-0.111561
0.0427476
0.0571524
-0.105763
0.0152432
-0.000824991
-0.122129
-0.0843312
-0.0693384
0.0111989
-0.101948
-0.129642
-0.375281
-0.203529
-0.0726848
-0.0940667
0.0417596
0.0992934
-0.112396
-0.190781
-0.237395
0.274024
0.294224
0.308627
0.280258
0.303043
0.227569
0.220124
0.238563
0.246804
0.239
-1.0111
-0.602187
-1.80455
-1.20734
-0.757867
0.15744
0.136515
0.393855
0.29906
0.370284
0.352178
0.29166
0.255063
0.277284
0.310766
0.00466088
0.108912
0.07263
0.0920987
0.0287928
-0.0446613
0.246823
0.24601
0.27244
0.297737
0.268834
0.297492
0.157979
0.157641
0.156169
0.153312
0.152042
0.154451
-0.275313
-0.323737
-0.256246
-0.266926
-0.290908
-0.315424
-0.250916
-0.250726
-0.179946
-0.168666
-0.160402
-0.222385
-0.196143
-0.248579
-0.327895
-0.284694
-0.354069
-0.429293
-0.433982
-0.346465
-0.254159
-0.270572
0.0396743
0.314662
0.145395
0.306453
0.0951727
0.197984
0.116223
0.098063
0.13344
0.0102928
0.09368
-0.3679
-0.556393
-0.6198
0.458324
0.411419
0.202953
-0.0627134
-0.165486
0.143858
0.179899
0.140681
0.177189
0.227041
0.219124
-0.366297
-0.252736
-0.214316
0.101042
-0.0940729
-0.0694272
-0.0807303
0.071723
0.0446508
)
;

boundaryField
{
    wall-4
    {
        type            zeroGradient;
    }
    velocity-inlet-5
    {
        type            zeroGradient;
    }
    velocity-inlet-6
    {
        type            zeroGradient;
    }
    pressure-outlet-7
    {
        type            fixedValue;
        value           uniform 0;
    }
    wall-8
    {
        type            zeroGradient;
    }
    frontAndBackPlanes
    {
        type            empty;
    }
}


// ************************************************************************* //
