/*--------------------------------*- C++ -*----------------------------------*\
  =========                 |
  \\      /  F ield         | OpenFOAM: The Open Source CFD Toolbox
   \\    /   O peration     | Website:  https://openfoam.org
    \\  /    A nd           | Version:  6
     \\/     M anipulation  |
\*---------------------------------------------------------------------------*/
FoamFile
{
    version     2.0;
    format      ascii;
    class       surfaceScalarField;
    location    "24";
    object      phi;
}
// * * * * * * * * * * * * * * * * * * * * * * * * * * * * * * * * * * * * * //

dimensions      [0 3 -1 0 0 0 0];

internalField   nonuniform List<scalar> 
1300
(
3.75095
5.62643
-5.80581
3.75095
-5.73135
5.62643
-4.41096
4.41096
-1.17518
1.17518
1.87659
1.87436
-2.69167
2.69167
-2.45546
2.45546
-2.59768
2.59768
-5.24791
5.24791
-5.06956
5.06956
4.73312
-4.73312
-4.5281
4.5281
-1.58037
1.58037
-3.75113
3.75113
3.17408
-3.17408
-4.12663
4.12663
-0.386159
0.386159
-0.553655
4.30461
3.1973
3.1973
-2.23745
2.23745
-4.86884
4.86884
6.22271
-6.22271
8.76056
-8.76056
-2.95475
-3.44055
1.36974
-8.48507
-4.36161
-4.36161
-8.44106
8.44106
-2.81463
2.8118
2.94247
-2.94247
-1.72019
1.72019
-4.39455
-0.0164149
-4.39455
4.3779
0.033062
4.3779
-1.30859
0.133416
-1.30859
3.94372
-3.94372
1.00883
0.166344
1.00883
3.06625
-3.06625
-1.87693
3.75353
1.87402
-1.87165
6.17626
-1.87931
3.75366
-5.87687
5.87687
-2.94872
0.25705
-2.94872
2.4564
0.235266
2.4564
-6.12213
6.12213
-2.2127
-0.242755
-2.2127
2.79967
-0.344211
2.79967
2.8651
-2.8651
-2.67112
0.0734338
-2.67112
2.51303
0.0846588
2.51303
0.353586
5.27284
-5.98002
8.79182
-5.27284
0.024932
5.21034
0.0375759
5.21034
-5.1051
0.0355358
-5.1051
5.01118
0.0583859
5.01118
4.8315
-0.0983763
4.8315
-4.84374
0.110618
-4.84374
-3.2222
-3.72385
-4.51732
-0.0107793
-4.51732
-1.59644
0.0160648
-1.59644
1.5533
0.0270711
1.5533
-3.52732
3.52732
-4.17582
0.424685
-4.17582
3.12906
0.0450136
3.12906
1.86812
1.88283
5.61908
-5.61908
2.445
-3.87696
-0.249666
-3.87696
-4.36802
-4.39254
4.36802
-0.241392
-0.646625
0.260466
-0.646625
3.1569
0.0403964
3.1569
2.41545
0.0975787
-2.41545
0.177994
3.30663
-3.30663
1.59142
0.646038
1.59142
-5.56123
5.56123
4.95896
0.0522129
-4.95896
0.0901235
6.15798
0.0647298
6.15798
-6.20781
-0.0149015
-6.20781
3.17206
-6.61261
-3.56872
4.44377
0.0843257
-4.44377
0.0821672
2.91411
0.0283602
2.91411
-2.92761
2.92761
-2.98098
0.038513
-2.98098
-2.15828
0.438089
-2.15828
1.38722
0.332968
1.38722
-4.26417
-0.130372
-4.26417
-4.32893
0.153114
4.32893
0.0489666
0.94487
-0.94487
-1.43627
0.12768
-1.43627
-4.07083
-0.193344
4.07083
-0.127111
-3.87992
-0.0637971
-3.87992
-3.02056
0.03958
3.02056
0.0456876
3.11156
0.0453449
-3.11156
0.0453067
-1.87083
3.75366
-1.88012
3.75414
-5.52274
-0.354127
-5.52274
6.2125
-0.335633
6.2125
3.36496
0.38617
-3.36496
0.416243
2.3198
0.136609
2.3198
-6.40094
0.278811
-6.40094
5.60737
0.514755
5.60737
2.20714
0.112656
-2.20714
-0.00556156
3.13542
-0.335755
3.13542
2.88809
-0.0229923
2.88809
-2.86476
-0.000336213
-2.86476
2.81335
-2.81335
2.74786
0.0654955
-2.74786
0.0767371
-11.1238
11.1089
-0.0362551
-11.0876
5.17408
5.17408
4.28563
0.545867
4.28563
-5.02792
0.184182
-5.02792
3.12483
-6.69355
3.66473
-6.88693
3.67203
-12.1571
3.31713
-7.04099
4.76912
-4.76912
4.55439
0.214731
-4.55439
0.0370656
-1.59764
0.00119866
-1.59764
-2.91798
-0.609336
-2.91798
4.18911
-0.661797
4.18911
-3.03121
3.03121
-3.07874
0.0475294
3.07874
0.0503259
3.54436
-0.408933
-3.54436
-0.332605
0.825119
0.183712
-0.825119
0.178494
3.53535
-0.22872
3.53535
-3.09626
-0.210372
-3.09626
-1.60221
0.00457489
1.60221
-0.010796
-5.80898
0.247757
-5.80898
-11.1813
0.0937007
-11.1437
-6.11411
-6.11411
2.32695
11.1188
-2.88879
0.0240244
2.88879
0.0253216
2.98023
0.0509728
-2.98023
0.0526218
-2.87131
0.0579604
2.87131
0.0563003
-2.53853
0.380248
-2.53853
-0.972408
0.972408
-1.14971
0.177301
1.14971
0.237512
1.2047
-0.259829
1.2047
1.52864
0.0246616
-1.52864
0.092369
-3.82869
-0.0512354
-3.82869
6.45641
-0.243902
6.45641
-2.95694
-0.139325
2.95694
-0.0688454
-0.0349576
11.1439
-5.13912
0.0340258
5.13912
-11.2086
11.2426
-3.25532
0.716798
3.25532
1.0303
5.2899
0.271328
-5.2899
0.261981
5.16717
0.440208
-5.16717
0.398049
-2.41285
-0.505125
-2.41285
-4.92801
-0.594732
4.92801
-0.738897
-11.4823
-0.20322
11.6856
-11.424
6.0122
0.145774
-6.0122
11.3884
-0.88716
-0.0577107
0.88716
0.0852482
1.53539
-0.330687
1.53539
3.74662
-0.211269
-3.74662
-0.0820619
-6.53459
0.13365
6.53459
-0.0781853
-1.95683
-0.456021
1.95683
-0.421448
-4.26611
4.3065
1.91015
-2.98041
-3.63221
-7.37295
1.85349
1.90017
4.29849
-7.65054
-4.50656
-7.56837
7.21672
-6.95474
-9.39664
9.29826
7.5522
-7.61599
-5.77855
5.82887
6.48329
-6.4376
1.87871
1.87481
8.05379
-7.79674
-15.6598
15.3056
5.77759
-6.02034
16.3095
-16.0307
-17.6493
18.0895
-5.75818
5.83161
-6.65109
6.65075
-6.85262
6.78378
-2.77997
-4.10696
10.5517
-10.5625
10.1154
-10.365
-8.51383
8.93851
3.38573
0.920779
3.43107
-1.88183
3.76055
-1.87183
3.78198
3.72236
-6.50232
2.97119
-6.6034
5.66063
4.45474
-5.41924
-1.95371
-5.91813
5.94649
-5.81395
5.87025
8.93887
-8.95529
-1.88526
3.76008
-1.86887
3.76905
-3.42236
-2.35619
3.37734
0.921149
6.27572
4.27597
-6.36005
-1.20832
-7.74343
7.53216
-8.02776
7.81739
-0.445098
5.83734
-5.39224
4.42374
-1.64754
7.48488
5.56918
5.75336
5.86064
-5.58932
1.0941
-6.48634
-6.39621
-2.57833
2.70601
2.56475
-2.3984
5.9152
1.63699
5.78809
-5.57758
-2.03841
-5.62882
3.82078
2.0081
3.86831
4.07906
2.40424
4.11864
3.03003
-3.03576
0.0057307
-3.05832
6.08835
0.724319
-5.41452
-4.49337
4.91889
3.1349
5.15416
-5.55166
-2.24508
-5.13541
-9.54963
-6.11013
-10.1444
10.1587
5.14691
9.82309
-11.9229
11.8447
4.0551
1.72249
3.71089
-3.83789
-2.18246
-3.84345
13.2144
-3.2799
-9.93448
-10.6349
-7.01436
10.1201
6.18936
10.3518
7.73765
10.7499
4.48298
8.7314
-10.6723
3.65798
-3.87187
-1.88631
-3.79513
3.72909
2.10253
3.81375
-4.1855
-2.46559
-4.16147
-4.22045
-2.63217
4.24345
2.4073
-4.31321
-3.71455
4.45254
2.33124
3.55732
-8.06389
3.48366
-7.59063
-7.77422
-2.78825
-7.73716
4.80004
1.76512
-6.56516
-1.70229
10.2594
-5.80465
8.30568
-5.58778
-4.77726
-5.92038
-6.88576
-1.62806
-6.73265
-8.92279
8.41767
-9.21617
8.55438
12.7825
-5.75198
-7.0305
-3.96698
-2.47062
3.92168
-0.490608
-3.71182
3.71755
0.0487295
3.83071
4.75149
4.26088
-3.88059
-1.93335
-3.82797
3.82746
2.04279
3.88542
6.7498
2.18908
6.78286
-6.41273
-2.54256
-6.5431
9.16522
-8.72713
2.95349
-2.94892
5.21198
2.60541
-4.98325
-2.76017
6.11241
-3.04193
-3.07048
-12.3649
10.897
1.46782
-4.87997
-0.456231
-0.0700719
-5.6036
-3.79304
5.49298
0.260383
11.1574
7.36437
-5.51534
5.7631
6.17022
6.22243
-0.173781
5.94132
-5.22452
5.35609
-2.48922
-2.86687
5.28838
-5.48172
-1.25472
-5.28671
4.03199
0.30637
1.83108
-1.57062
-2.06086
-0.517464
-1.96849
1.52371
1.04104
1.70742
0.984279
1.72173
-2.90702
0.543258
2.36376
-1.92274
-1.85514
-3.61449
-1.04075
4.65524
5.48519
2.04697
-5.40313
-0.225688
2.77462
-2.74755
-0.807223
-2.80726
2.10654
-2.91376
-3.44063
-1.91607
5.3567
-3.36831
-0.459665
3.31734
0.55097
-3.82515
-2.09298
3.78664
0.331995
-3.12655
6.1933
-3.06675
-5.0599
2.52997
3.55838
4.53807
-4.79059
2.44602
2.34457
-1.23221
3.93165
1.22251
4.06826
-6.93792
4.69284
5.74114
3.19737
-6.12731
0.9919
-5.94602
8.47752
-7.26871
-1.20881
4.08514
4.39237
7.18253
5.59995
-5.74229
12.9248
-1.01303
-6.25567
6.95905
-3.76169
4.79376
-8.55545
-10.3937
4.13804
-9.16184
11.1946
-2.03279
-3.59692
-8.32594
12.7588
-1.25325
-11.5055
8.56984
-4.44128
-4.19302
8.63429
-7.72118
6.37547
-1.43098
-4.94449
-10.2948
-5.73593
10.1611
1.68357
-10.2983
13.9563
-1.56693
3.81269
-0.101797
3.47693
3.32366
-6.11587
2.79221
4.39751
-5.82849
1.53471
-7.65058
-6.33013
10.8217
-4.49162
-9.11838
-9.36532
0.24694
1.60259
12.3537
-9.34023
6.13788
3.20235
3.30713
0.57829
-3.37262
-0.422506
0.314056
4.51764
-4.8317
4.1278
4.22538
3.35729
1.16035
3.83199
2.1145
-3.85731
-0.304162
-4.11914
1.48697
-1.71183
-3.66212
5.14909
-4.07726
0.415141
-2.72317
-3.55021
6.27338
-4.60948
3.04684
3.14646
5.08963
-4.93479
1.38458
-2.43627
-2.49852
2.69268
-4.40452
1.96379
3.1853
4.29503
0.580484
5.90542
4.91633
-7.67054
0.079911
9.1923
-7.98398
3.03826
7.7116
-9.17614
-0.189177
-7.92633
0.200683
-6.00533
-6.36447
5.13345
-6.76151
-3.422
6.24073
0.542125
-6.2897
-0.442948
-6.01914
-2.90365
-6.47516
-3.07518
-6.141
-8.81746
-1.66733
-7.15013
6.75033
-6.67192
-3.47244
7.41082
1.14356
-7.41871
7.361
-7.48992
7.15924
0.0950104
3.62254
4.35589
1.88527
-2.39033
4.2756
-5.02652
7.21559
-8.46796
3.44145
3.9668
-6.50936
-4.50116
5.06757
4.09765
5.40054
9.01231
-10.6242
1.61193
-10.8973
12.183
-1.28571
-16.7037
5.80648
-7.69143
2.69561
0.257881
2.69681
0.682866
2.40506
-3.08792
-2.26605
-2.27685
-2.28145
-3.37032
5.65177
1.12474
-3.2899
2.16515
-3.48735
4.61209
0.0274736
-3.31737
5.20858
-2.80352
5.46646
-3.45988
2.00658
3.30889
5.59882
-2.28992
4.31867
-1.71326
1.81182
-4.10174
-1.5585
-3.00676
5.10928
-3.26663
3.68177
-0.277582
3.95935
-4.01566
0.973732
-0.658373
3.56701
3.745
4.24998
-3.08962
2.92224
-4.6355
-1.1795
-4.05502
-0.869723
-0.255834
-3.81817
4.07401
6.11498
-6.37081
-5.34903
9.62116
-4.27212
7.75459
-5.48714
-2.26745
-4.327
-4.40013
3.94676
1.99457
9.74916
0.171487
-5.65862
-5.05304
-4.02273
3.23661
2.11948
-2.01007
3.4779
2.08015
-0.249065
0.551888
1.15553
1.89044
-1.33856
0.236589
1.65386
-1.33403
2.01776
0.756858
-2.04243
0.0739325
-1.32895
3.43549
1.03481
-2.07585
0.737288
0.973721
-3.46294
4.6945
-2.46924
-2.22525
5.66822
1.15214
-3.62138
4.13458
-3.82821
2.34139
-3.38214
-1.27999
-5.1082
-3.4712
-2.44465
4.6098
-3.20712
5.25409
1.16917
-5.0284
6.19757
-3.55076
1.63469
-3.03324
3.79009
-1.06133
-1.9719
2.81316
2.54354
-2.95791
0.150648
-0.144749
2.31075
-2.4555
-0.603013
-2.52575
-4.57457
4.90657
-2.10526
4.55128
2.17033
-1.91405
6.46533
1.81137
-3.72541
-3.24854
-3.7082
-1.38084
3.15723
-0.223098
-3.62035
-5.16759
3.50769
0.560564
-7.08641
7.6783
-0.591891
-3.95152
-0.741322
4.82646
-5.79214
-0.0363547
-4.25743
3.42087
4.64338
5.20394
-11.3247
-0.180778
-6.17783
1.2372
-7.41503
5.62958
-3.65352
7.79156
-10.4149
6.94242
-9.2713
6.58275
-0.832284
6.91852
-4.12631
3.01597
-8.7519
-7.06833
4.88333
-3.16084
4.78153
-3.90651
8.68805
-5.47345
5.93171
2.75634
-1.9608
-3.95958
-5.04014
3.07933
0.891576
4.36851
4.96021
-2.84571
4.65605
2.21406
-4.65032
-2.19046
-6.51292
1.86259
-3.36646
-1.90547
3.76806
3.18416
3.76245
1.26954
-3.33995
8.44597
-8.19903
-3.95436
-2.41012
5.79995
-2.72062
4.98264
-7.39276
-1.02269
4.82723
-0.779045
-4.04818
0.924754
-4.34675
1.63188
-5.97864
5.12963
-5.57258
2.2111
-9.90253
-5.20761
-5.12236
-2.25032
-5.23961
-7.66805
5.41773
-1.86156
5.49944
-8.69678
7.91774
-3.48619
8.90392
-5.42133
-1.05384
5.84277
1.31646
10.2204
0.0580189
-4.55918
-1.86828
3.85865
-1.99037
1.36833
-3.76016
0.098492
2.40356
3.26466
-6.43556
-0.0738065
-4.63298
-3.91232
8.00997
5.70883
11.8238
1.19956
9.23313
-1.22316
10.4327
4.17738
4.41489
-3.00176
4.61369
1.07225
4.5137
-0.843266
2.84984
1.85355
1.86961
0.877941
2.30165
1.44336
3.27538
0.187454
-2.08939
4.67526
-8.69799
-0.983363
-8.15213
1.14614
5.42661
-4.28048
3.09194
-0.972467
1.10158
0.0625751
-1.74032
1.67775
-2.80429
-1.98939
-0.335533
-1.6155
2.35279
1.81999
-2.01725
-0.787038
0.264662
-3.73587
3.11748
-2.96683
-0.423289
5.77428
-2.69806
0.24256
-1.06337
-2.28319
-2.80066
2.72672
6.17298
0.292344
3.10624
5.19891
3.10593
0.260221
3.79486
-5.82766
-3.85572
-6.00843
-0.378858
4.44761
3.74051
8.61321
6.49685
3.77623
-3.61653
-11.8156
6.52837
-1.91468
5.24266
-1.19448
-4.78416
5.01995
2.19564
-5.56208
-0.0105009
-4.79466
-6.70934
-0.506684
8.42442
-9.7137
8.65986
5.75621
1.39392
-4.4185
-0.703861
4.2412
0.17369
10.6064
-0.898385
-7.26707
8.16546
-4.52823
3.54486
0.778757
2.69914
2.45651
1.48404
-5.78303
-10.0635
-1.89544
-1.5675
-4.1207
0.534543
-2.35454
6.13312
-2.58826
3.86567
5.5772
6.67878
-2.11078
-4.26003
6.3829
-2.51724
4.16154
)
;

boundaryField
{
    wall-4
    {
        type            calculated;
        value           uniform 0;
    }
    velocity-inlet-5
    {
        type            calculated;
        value           uniform -3.75095;
    }
    velocity-inlet-6
    {
        type            calculated;
        value           uniform -5.62643;
    }
    pressure-outlet-7
    {
        type            calculated;
        value           nonuniform List<scalar> 8(5.80581 5.73135 6.3953 7.11533 6.94606 6.74078 6.78956 6.98916);
    }
    wall-8
    {
        type            calculated;
        value           uniform 0;
    }
    frontAndBackPlanes
    {
        type            empty;
        value           nonuniform 0();
    }
}


// ************************************************************************* //
