/*--------------------------------*- C++ -*----------------------------------*\
  =========                 |
  \\      /  F ield         | OpenFOAM: The Open Source CFD Toolbox
   \\    /   O peration     | Website:  https://openfoam.org
    \\  /    A nd           | Version:  6
     \\/     M anipulation  |
\*---------------------------------------------------------------------------*/
FoamFile
{
    version     2.0;
    format      ascii;
    class       volVectorField;
    location    "24";
    object      U;
}
// * * * * * * * * * * * * * * * * * * * * * * * * * * * * * * * * * * * * * //

dimensions      [0 1 -1 0 0 0 0];

internalField   nonuniform List<vector> 
918
(
(0.984992 -0.000753825 0)
(0.00531413 2.96626 0)
(-0.0202793 1.53375 0)
(0.979583 0.00192432 0)
(-0.000640756 1.52217 2.22983e-20)
(-0.0070639 2.94854 -1.97388e-18)
(0.837121 1.16069 7.29173e-19)
(0.407287 0.155333 -8.35389e-21)
(0.999922 -0.00024557 0)
(0.0698698 0.758332 0)
(-0.044554 0.696579 0)
(0.743902 -0.0104183 0)
(0.0102064 2.9315 0)
(0.00296254 2.79442 0)
(-3.5542e-05 3.20124 1.14168e-18)
(0.0187548 1.37609 8.92232e-20)
(0.493615 0.0520393 5.25362e-19)
(0.223357 1.1613 6.47688e-19)
(0.964758 0.006767 0)
(-0.0124089 1.1752 0)
(0.137654 0.228117 -4.28997e-19)
(1.00205 -0.00446624 0)
(0.999926 -0.00888334 0)
(0.975264 -0.00615677 0)
(0.652011 -0.0403723 0)
(0.0236964 2.64146 0)
(-0.0125279 2.91219 6.78749e-19)
(-0.0298278 1.55084 0)
(-0.0432385 1.70491 0)
(-0.028271 1.5441 0)
(-0.010082 1.9036 0)
(0.0122722 1.55092 -1.76306e-20)
(0.0068489 1.39828 0)
(-0.0222163 2.98759 -6.93981e-23)
(-0.0165269 3.00551 1.53428e-18)
(0.00230246 3.00063 0)
(0.870842 -0.00790072 0)
(0.369117 0.916086 -5.31711e-20)
(0.838232 1.17323 -1.07564e-18)
(0.978026 1.02111 9.85511e-19)
(0.700387 1.25916 -1.68003e-19)
(0.705768 1.24438 9.48822e-19)
(0.446402 0.256731 8.15043e-21)
(0.438684 0.141694 0)
(1.16781 0.522735 0)
(0.402676 0.26672 3.77753e-20)
(0.366469 0.167848 -3.92035e-20)
(0.920357 -0.00624807 0)
(1.00029 7.24706e-05 0)
(0.99991 0.000305552 0)
(1.00354 -0.0074417 0)
(1.00093 -0.00110469 0)
(1.00012 -6.28713e-05 0)
(0.112082 1.78668 -1.88815e-19)
(0.0434178 0.916575 0)
(0.142375 0.866621 0)
(0.0364381 0.858211 0)
(0.051584 0.689857 0)
(-0.0812742 1.80237 0)
(-0.0378143 0.774085 0)
(-0.00227055 0.614934 0)
(-0.0505501 0.861415 0)
(-0.0468736 0.808808 0)
(0.837857 -0.00973995 0)
(0.85798 0.0213821 0)
(0.772666 0.000221764 0)
(0.841489 0.0261531 0)
(0.721472 -0.0155116 0)
(0.013992 3.00017 7.24092e-19)
(0.0112443 3.0058 0)
(0.00638413 3.00395 0)
(0.0119055 2.99701 8.09647e-24)
(0.00834338 2.9587 -1.07618e-18)
(0.012205 2.98294 0)
(0.0089153 2.90475 0)
(0.0210302 2.93152 1.48889e-24)
(0.00405507 2.82402 0)
(0.0257901 2.91864 0)
(-0.000905996 2.74354 0)
(0.313091 3.60499 0)
(-0.123252 3.68868 0)
(0.154627 3.29257 -1.06261e-18)
(0.00785186 3.0218 0)
(-0.0633508 1.85303 0)
(0.0504877 1.5431 -8.8028e-20)
(0.0198458 1.3324 1.3373e-19)
(0.568947 0.139028 -1.80409e-19)
(0.506634 0.0174394 -1.71494e-19)
(0.538866 0.163161 -5.43827e-19)
(0.490884 0.0785686 -3.65546e-19)
(0.261384 0.937123 0)
(0.301679 1.31205 -6.59201e-19)
(0.432571 1.26353 1.08546e-18)
(0.988176 0.00809795 0)
(0.943888 0.00596307 0)
(1.00029 0.000682696 0)
(1.00254 0.00909769 0)
(1.00313 0.00894409 -9.43789e-19)
(0.99213 0.00953555 7.13343e-19)
(-0.0382244 1.31547 0)
(-0.0363726 1.12394 0)
(-0.0433025 1.55019 0)
(-0.0310617 1.40588 0)
(-0.00912118 1.25131 0)
(0.182642 0.238688 1.32571e-19)
(0.226647 0.214575 0)
(0.99368 -0.0075162 0)
(0.953974 -0.00638774 0)
(0.806142 0.0300664 0)
(0.765107 0.0402634 0)
(0.690347 -0.0263687 0)
(0.983225 0.00113558 0)
(0.711574 0.0517799 0)
(0.552519 -0.0341574 6.72059e-19)
(-0.0405329 2.86207 4.01669e-19)
(0.0343942 2.91324 0)
(0.0433077 2.89104 0)
(0.00325117 2.7003 0)
(-0.00847091 2.98674 6.33212e-19)
(-0.0143222 2.89505 0)
(-0.0108778 2.99184 -1.98309e-18)
(-0.0117199 2.92984 6.80027e-19)
(-0.0582087 1.78205 0)
(-0.0552176 1.79548 0)
(0.0298771 1.54426 1.97206e-21)
(0.0184733 1.53029 0)
(0.00208538 1.38741 0)
(0.93717 -0.00396345 0)
(0.855853 -0.00801514 0)
(0.866313 0.00878958 0)
(0.94836 -0.00567329 0)
(0.882276 -0.00796239 0)
(0.495093 1.11869 5.42345e-20)
(0.544592 1.19294 0)
(0.32651 0.843861 1.80254e-21)
(0.270751 0.710567 0)
(0.937496 1.05823 -2.88409e-19)
(1.0542 0.853895 5.84093e-19)
(0.462787 1.36963 0)
(0.545811 1.33628 0)
(0.572027 1.25395 0)
(0.0887573 0.142852 -1.15514e-19)
(0.473913 0.24396 0)
(0.458188 0.145359 1.05602e-19)
(1.01567 0.909179 0)
(1.08335 0.748352 0)
(1.11328 0.68264 -5.11143e-19)
(1.14675 0.590087 0)
(1.202 0.383855 4.79773e-20)
(0.956758 -0.00706363 0)
(0.962683 -0.00775711 0)
(0.900141 -0.00685082 0)
(0.983835 -0.00788224 0)
(0.97424 -0.00781391 0)
(0.936389 -0.00614876 0)
(1.00016 0.00247769 0)
(1.0009 0.00135662 0)
(0.999958 0.000787739 0)
(0.0481175 2.03056 1.28277e-19)
(0.156719 1.71639 0)
(0.0259661 2.14059 8.45122e-20)
(0.0472267 1.86456 -8.79902e-21)
(0.141897 1.15226 -5.37146e-19)
(0.0757689 1.01402 0)
(0.125153 1.01588 0)
(0.0143351 0.798635 0)
(-0.00178432 0.64807 0)
(-0.0565458 2.0639 3.39427e-21)
(-0.0327644 1.91197 0)
(-0.0792835 1.92751 2.06663e-19)
(-0.0864532 1.63346 -4.29345e-19)
(0.0132562 0.76701 0)
(0.00621498 0.75083 0)
(-0.00229143 0.608074 0)
(-0.0567988 0.969685 0)
(-0.044378 0.905841 0)
(0.929039 0.0137353 0)
(0.850836 -0.00516637 0)
(0.921017 0.00488106 0)
(0.842329 -0.00957607 0)
(0.818573 0.00400969 0)
(0.905733 0.0167475 0)
(0.884752 0.0196305 0)
(0.794338 0.00104255 0)
(0.0105393 3.06733 -6.36138e-21)
(0.0147862 3.05962 0)
(0.0124631 2.97044 0)
(0.00754114 2.87659 0)
(0.904822 4.00679 0)
(1.20136 3.39807 1.02946e-18)
(0.0845754 3.10258 0)
(-0.0142453 2.92477 0)
(-0.0797532 1.78425 0)
(-0.0858822 1.83607 0)
(-0.0674692 1.80922 0)
(-0.0329165 1.89696 3.65061e-21)
(-0.0750073 1.87355 0)
(-0.0469716 1.86614 0)
(0.0118434 1.39045 -1.41323e-20)
(0.0589953 1.57889 -2.33862e-19)
(0.0634983 1.5407 -1.36687e-19)
(0.0151674 1.32008 0)
(0.579388 0.108451 2.66323e-19)
(0.506657 -0.000657889 -2.6014e-19)
(0.231303 1.53946 0)
(0.28014 0.666857 -2.13893e-19)
(0.175834 1.63715 -7.06797e-19)
(0.249287 1.14794 7.06521e-19)
(0.903344 0.00748678 0)
(0.967593 0.0103852 0)
(0.975526 0.00975369 0)
(0.92383 0.00677033 0)
(-0.0618987 1.09026 0)
(-0.0493534 1.21412 0)
(-0.0494962 1.02589 0)
(0.348199 0.268862 3.43854e-19)
(0.291015 0.254383 -4.18216e-19)
(0.305626 0.195201 0)
(1.10994 0.0901431 -7.75342e-21)
(1.09579 0.0426782 0)
(1.01919 0.0444199 0)
(0.917905 0.00769151 0)
(0.597954 0.0848931 0)
(0.646637 0.0609549 -1.08986e-18)
(0.518485 -0.0138663 4.23249e-19)
(0.0114357 2.9775 4.82749e-19)
(-0.0329248 2.86277 4.65456e-20)
(0.00829954 3.05297 -1.36795e-20)
(0.0155701 3.04352 5.20317e-19)
(-0.0118627 3.00003 2.2662e-20)
(-0.0122346 2.95241 -9.20666e-23)
(-0.0150298 3.01333 -4.3497e-19)
(0.0140897 3.02681 3.05282e-19)
(0.0074792 3.03457 -4.88866e-19)
(0.930274 0.00204266 0)
(0.936579 -0.000575791 0)
(0.846833 -0.00720286 0)
(0.957352 0.0109472 0)
(0.943914 0.0121564 0)
(0.883867 0.00748224 0)
(0.920325 0.0143099 0)
(0.927999 0.0139097 0)
(0.843046 0.00574971 0)
(0.673268 1.42563 3.12745e-19)
(0.693588 1.53862 0)
(0.167562 0.345891 1.96788e-20)
(0.163226 0.559987 1.58498e-19)
(0.234655 0.664337 -8.9356e-20)
(0.199615 0.552965 1.61023e-19)
(0.299845 0.727667 6.78017e-19)
(0.110818 0.187449 2.11824e-19)
(0.528945 0.195587 3.94213e-19)
(0.508488 0.231345 9.85486e-20)
(0.479764 0.118032 1.99476e-19)
(1.19254 0.440603 3.32936e-19)
(1.21964 0.239833 3.49076e-19)
(0.00179542 2.14964 -1.23247e-20)
(0.0233869 1.94437 0)
(0.967078 0.033851 0)
(0.936662 0.0206826 0)
(0.871338 -0.0047823 0)
(0.0120256 3.07462 0)
(0.0169137 2.94386 8.67323e-19)
(0.0140944 2.95681 0)
(0.00584154 2.85 -8.60612e-19)
(0.00940824 3.09001 2.07583e-19)
(0.0117937 3.08373 0)
(0.715802 1.83899 -2.54421e-19)
(1.24587 2.65118 8.46813e-19)
(0.701355 2.01906 -1.67121e-18)
(0.0232496 2.97745 -3.70805e-19)
(0.042738 3.0032 0)
(-0.0373119 2.88197 0)
(-0.0528896 1.77109 -1.87636e-20)
(0.0182949 1.64873 5.04457e-19)
(-0.0214358 1.49889 -1.0914e-20)
(0.26062 1.33395 6.89899e-19)
(0.242252 0.452674 -4.75181e-19)
(0.0690549 1.95134 4.29819e-19)
(0.120856 1.82563 -5.52515e-19)
(0.22104 1.47489 9.27873e-20)
(0.00468658 3.11997 -1.22896e-18)
(0.018947 3.1192 1.32082e-18)
(-0.00476172 2.98085 5.64482e-19)
(-2.85963e-05 2.9753 -5.15143e-19)
(-0.0178973 2.87871 -5.74937e-19)
(0.0125643 3.09983 -1.52104e-18)
(0.00540657 3.10691 1.48595e-18)
(0.202455 0.598744 0)
(0.171275 0.579925 -3.23645e-19)
(0.0667206 0.191919 1.46821e-19)
(0.319409 0.830693 6.36235e-19)
(0.175666 0.227079 -9.70017e-19)
(1.19976 0.173947 -7.60772e-20)
(1.21672 0.299717 0)
(1.19688 0.120265 1.39906e-19)
(-0.0634911 2.12819 2.66335e-21)
(-0.0378301 2.17684 0)
(-0.0227996 1.96664 0)
(0.307924 1.24963 -2.42306e-19)
(0.330551 1.05687 -5.15349e-19)
(0.197569 0.32811 8.86309e-19)
(1.00638 -0.0101186 0)
(1.00781 -0.00770445 1.71769e-19)
(-0.0704602 1.74555 0)
(-0.0751046 1.74596 0)
(1.00247 0.00346195 1.46445e-21)
(1.00327 0.00803047 3.5473e-19)
(-0.0324184 1.9188 -4.69394e-21)
(-0.0216772 1.93465 0)
(0.0454655 3.1768 1.96981e-19)
(0.384039 3.56432 0)
(1.09453 0.683259 7.60078e-20)
(1.01243 0.0111861 -2.56598e-21)
(1.02099 -0.00935146 0)
(1.00167 0.000132153 7.46229e-23)
(0.115371 1.37362 0)
(0.123 2.5841 0)
(-0.0976525 1.02608 0)
(-0.0812745 2.67856 -2.82029e-19)
(-0.234112 2.57537 -1.97858e-19)
(1.0088 0.0231649 2.84691e-21)
(1.05086 0.000159886 0)
(1.07885 0.0270251 0)
(-0.0999524 1.83364 0)
(-0.0466536 2.08019 0)
(-0.165797 1.56491 0)
(0.266931 1.47035 -4.46889e-19)
(1.01142 -0.00918913 0)
(1.0096 -0.0136514 0)
(1.00225 0.000539486 2.17886e-19)
(1.00579 -0.00499504 -2.5951e-19)
(1.00125 -0.000927808 0)
(-0.129587 1.79504 0)
(-0.0954021 1.74272 0)
(-0.10034 1.77948 0)
(-0.145042 1.58119 0)
(-0.0968493 1.67017 0)
(-0.102746 1.64925 0)
(1.03439 -0.00688313 0)
(1.01928 0.0132541 -1.20827e-21)
(0.763955 1.30304 5.4779e-19)
(1.00261 0.000269674 -2.20084e-19)
(1.00353 0.0049044 2.63847e-19)
(1.00119 0.00198464 0)
(1.0115 0.00972441 2.13558e-19)
(1.00714 0.00766759 -2.67025e-19)
(1.00751 0.0117707 0)
(-0.0390449 2.06731 0)
(-0.034485 1.99124 -4.44502e-20)
(-0.0236232 2.00325 3.70435e-20)
(1.20054 0.270612 -1.52193e-19)
(1.13426 0.0925536 0)
(0.05016 3.08977 -5.73428e-19)
(0.0523552 2.86846 -4.3086e-20)
(0.109483 3.20237 7.36576e-19)
(0.12695 3.2156 -8.22558e-20)
(0.151101 3.26726 0)
(0.0244111 3.13825 1.43401e-19)
(0.0652984 3.16249 5.68273e-19)
(0.0657116 3.18064 -2.71266e-19)
(0.0283195 3.12885 0)
(0.655191 0.336913 0)
(0.594094 0.380496 0)
(1.08249 0.711101 -2.78961e-19)
(1.0448 0.852172 4.20823e-19)
(1.13954 0.599267 0)
(1.16746 0.538824 0)
(1.01584 0.0120183 -3.91779e-19)
(1.01477 0.0126447 4.8997e-19)
(1.02531 -0.00953014 0)
(1.02355 -0.0108779 0)
(1.00678 0.00259798 0)
(1.01067 0.00378139 0)
(1.00446 0.00182138 0)
(1.00987 0.00616788 0)
(1.00734 0.00501235 0)
(1.00479 0.00530896 0)
(0.109327 1.37229 0)
(0.0980041 1.31083 0)
(0.118538 1.40461 0)
(0.136785 1.40546 0)
(0.14055 2.60609 0)
(0.186544 2.66515 -1.83642e-19)
(0.116016 2.65856 0)
(0.071796 2.66273 -4.38147e-20)
(0.0317821 2.6651 2.42001e-19)
(-0.103695 1.03028 0)
(-0.133648 1.02169 0)
(0.013451 1.05158 0)
(0.00390449 0.978403 0)
(-0.00394694 2.25521 4.57755e-19)
(-0.227329 2.63266 -3.43427e-19)
(-0.150915 2.71115 -4.03703e-19)
(-0.185693 2.67867 0)
(-0.222389 2.57014 4.73211e-19)
(-0.203377 2.50391 3.52353e-19)
(-0.0258873 2.29098 -3.41344e-19)
(-0.234822 2.58787 4.84631e-19)
(-0.184 2.57756 5.13903e-19)
(1.01641 0.0310225 3.85887e-19)
(1.00832 0.0189852 -4.81297e-19)
(1.01013 0.0343457 -4.04083e-19)
(0.993116 0.0236021 5.18269e-19)
(1.05186 0.0024519 0)
(1.04102 -0.0115275 0)
(1.07351 0.0343648 0)
(1.05814 0.00831394 0)
(1.05517 -0.00191174 0)
(1.11587 0.0769662 0)
(1.09061 0.0463354 0)
(1.09309 0.0419066 0)
(-0.0781401 1.91641 1.8805e-22)
(-0.123502 1.88073 0)
(-0.0890486 1.88427 0)
(-0.0770762 2.16623 -4.0155e-20)
(-0.0673348 2.19112 3.70021e-21)
(-0.225752 1.8367 -1.72516e-20)
(-0.157253 1.79789 1.7488e-20)
(-0.2013 1.66686 0)
(-0.160419 1.71254 0)
(-0.13397 1.72763 0)
(-0.202895 1.49547 0)
(-0.137462 1.39588 0)
(0.370024 1.4942 8.52621e-19)
(0.393687 1.51008 3.4334e-19)
(0.60454 2.45373 -1.59004e-19)
(0.398024 2.55304 4.12866e-19)
(0.360637 2.09034 -5.33858e-20)
(1.02057 -0.00866452 0)
(1.01549 -0.00971772 0)
(1.01458 -0.0134666 0)
(1.00785 -0.00112887 0)
(1.00461 -0.00109428 0)
(1.00756 -0.00503778 0)
(1.00968 -0.00324301 0)
(1.01446 -0.00437211 0)
(1.02007 0.0148663 3.73873e-19)
(1.01706 0.0139545 -4.74078e-19)
(1.021 0.0164876 -3.7514e-19)
(1.01708 0.0141772 4.67756e-19)
(0.7307 1.34434 0)
(0.658559 1.38906 6.16871e-19)
(0.839915 1.21331 3.69182e-19)
(0.864163 1.20132 -4.89836e-19)
(1.16127 2.63099 -5.67422e-19)
(0.820315 0.10837 2.71004e-19)
(1.13962 0.102458 0)
(1.17715 0.188688 1.23936e-19)
(1.15878 0.161763 5.69799e-21)
(0.997465 0.132395 0)
(0.0945837 3.03007 -8.97149e-20)
(0.0943591 2.90581 -6.50094e-19)
(0.0433441 2.36112 4.28877e-19)
(0.144201 0.0113262 -2.04587e-19)
(0.350794 3.4652 -4.86546e-19)
(0.200089 3.35264 0)
(0.230851 3.4155 6.3378e-19)
(0.235495 3.08852 -2.04545e-19)
(0.269811 3.20909 0)
(0.00651569 3.1226 3.03144e-20)
(0.0168692 3.13145 -3.69507e-19)
(0.0157295 3.12717 5.4385e-19)
(0.0348357 3.14028 0)
(0.0332335 3.15021 0)
(1.26389 2.59978 0)
(0.520687 0.833353 -2.20946e-19)
(0.973045 1.03789 -2.12703e-19)
(0.954661 1.06206 0)
(0.804965 0.945272 6.1256e-20)
(1.03251 0.889805 2.97398e-20)
(0.432218 0.415374 -5.02378e-19)
(0.705143 0.341192 -2.51779e-20)
(0.687394 0.278399 2.09748e-19)
(0.608181 0.400958 1.62124e-20)
(0.539369 0.381805 -6.66379e-19)
(0.669643 0.354568 0)
(0.692084 0.429668 3.38868e-19)
(0.690619 0.430702 0)
(0.64197 0.387482 0)
(0.617556 0.337727 0)
(0.752505 0.619971 1.02029e-19)
(1.20367 0.292012 1.18901e-19)
(1.18934 0.431164 0)
(1.20045 0.391618 0)
(0.774273 0.20731 3.1093e-19)
(0.811658 0.548616 -1.67581e-19)
(0.740286 0.509129 2.72277e-19)
(0.909205 0.417511 -2.39924e-19)
(1.01864 0.0140915 2.54804e-19)
(1.01737 0.0134042 -2.62986e-19)
(1.01589 0.0141136 0)
(1.03519 -0.00625071 0)
(1.02981 -0.00888407 -2.3466e-19)
(1.02785 -0.0118897 2.32321e-19)
(1.02532 0.00936107 0)
(1.02414 0.0137855 0)
(1.01197 0.00401751 0)
(1.01431 0.00874141 0)
(1.01566 0.00317968 0)
(1.01473 0.00253162 0)
(0.0857917 1.32902 0)
(0.088263 1.18558 0)
(0.128454 1.38973 3.807e-19)
(0.257193 1.46733 2.54089e-19)
(0.169546 1.44432 5.49669e-19)
(0.187581 1.44764 -8.89118e-19)
(0.169171 1.39689 0)
(0.114553 1.59719 2.79212e-19)
(0.0847012 1.57136 0)
(0.353506 2.05635 7.77316e-20)
(0.348215 2.36317 2.14889e-19)
(0.143924 1.46917 -2.43994e-19)
(0.269422 1.36048 2.00303e-19)
(0.190441 1.37192 -1.60894e-19)
(0.293424 1.29863 3.40816e-19)
(0.270021 1.60124 0)
(0.256634 1.62526 -2.1861e-19)
(0.0474794 2.2969 1.18028e-19)
(0.0390658 2.66804 0)
(0.0569278 2.3881 -1.72284e-19)
(0.0424555 2.40866 0)
(0.072929 2.66415 4.68505e-20)
(0.0492702 2.69247 0)
(-0.000812161 1.47018 5.43947e-19)
(0.131829 1.63253 0)
(0.130132 1.35541 0)
(0.0119739 1.28486 -6.13138e-19)
(-0.0748368 2.69739 -4.37287e-20)
(0.0332939 2.69892 -3.44803e-19)
(-0.0435071 2.72701 -2.1209e-21)
(-0.362116 2.19689 -2.70734e-19)
(-0.180453 2.07648 -2.06746e-19)
(-0.145377 1.09197 0)
(-0.108226 1.10145 0)
(0.146507 1.7394 -5.83535e-19)
(0.184141 1.50592 -6.03269e-19)
(0.151707 1.68098 7.56565e-19)
(0.139965 1.7367 0)
(-0.209608 2.04401 1.53971e-19)
(-0.162902 2.17017 -6.93016e-20)
(-0.203683 2.23315 2.64789e-20)
(-0.373733 2.09171 3.27501e-19)
(-0.255791 2.39826 7.69005e-20)
(-0.269659 2.44813 -3.64349e-19)
(1.01985 0.018514 -2.53286e-19)
(1.01683 0.0245674 2.57348e-19)
(1.01236 0.0150067 0)
(1.01158 0.0519488 3.68976e-19)
(0.997439 0.0378786 -4.36914e-19)
(0.96595 0.0341821 5.0974e-19)
(1.01029 0.0906573 -4.71347e-20)
(1.04055 -0.00674178 0)
(1.04413 -0.0061511 2.04652e-19)
(1.03619 -0.0117858 -2.04973e-19)
(1.06225 0.0390809 -1.08609e-20)
(1.05441 0.0211057 9.81283e-20)
(1.05964 0.0572012 0)
(1.05495 0.0447795 -3.77253e-20)
(1.03732 0.0335585 0)
(1.0328 0.0277657 0)
(1.02837 0.0123885 0)
(1.02584 0.0139876 0)
(1.04705 0.0258133 7.84079e-20)
(1.04297 0.0165519 -1.80107e-19)
(1.05228 0.0244015 -7.70325e-20)
(1.05022 0.0259191 -9.1822e-20)
(1.06843 0.0629745 1.52724e-19)
(1.08175 0.0533013 0)
(1.08481 0.0945461 0)
(-0.20263 2.02195 4.8971e-20)
(-0.152023 1.89918 1.274e-21)
(-0.168592 1.92971 0)
(-0.115796 2.02285 -4.89755e-20)
(-0.0796211 1.94304 -1.43372e-21)
(-0.0986106 1.98054 7.39973e-21)
(-0.179634 2.47706 -3.35994e-19)
(-0.195209 2.31399 1.33451e-20)
(-0.246835 2.38025 -7.61352e-20)
(-0.119403 2.3326 1.53643e-19)
(-0.131443 2.35347 -1.75373e-19)
(-0.296551 1.75304 -4.0826e-21)
(-0.260481 1.85309 -3.93592e-20)
(0.386365 1.39901 -4.19234e-19)
(0.373934 1.34679 -4.23754e-19)
(0.620585 1.43437 -5.95945e-19)
(0.500802 1.50269 -3.30948e-19)
(0.534615 1.47543 0)
(0.605703 2.42739 1.16866e-19)
(0.67279 2.40813 2.19057e-19)
(0.420887 2.52078 8.25334e-20)
(0.400172 2.5572 -1.55586e-19)
(0.507188 2.50861 2.35446e-19)
(0.55655 2.46833 0)
(0.496188 2.51993 -3.34604e-19)
(0.255172 2.59078 5.53212e-19)
(0.366848 2.56184 -6.08617e-20)
(0.286717 2.6473 -8.70695e-19)
(0.941185 2.38895 2.04984e-19)
(0.835327 2.38114 0)
(1.01079 0.000734801 8.59154e-21)
(1.01474 -0.00539828 -7.01885e-21)
(1.01809 -0.00419102 -1.26903e-19)
(1.01525 -0.00104893 1.26502e-19)
(1.01246 0.00139474 0)
(0.609287 1.28652 0)
(0.635169 1.15949 0)
(0.741128 1.07959 0)
(0.622075 1.12585 0)
(1.1925 2.64999 4.60156e-20)
(1.08035 2.38833 0)
(0.828485 2.24843 -2.27248e-21)
(0.823695 2.48488 0)
(0.913876 2.56996 2.53266e-20)
(0.945537 2.52137 -1.69681e-20)
(0.840933 0.137669 0)
(0.806932 0.141836 7.86979e-20)
(0.925302 0.13054 3.9132e-19)
(0.860961 0.101405 -1.62808e-19)
(0.843404 0.0679893 -4.73107e-19)
(1.04512 0.218106 -1.87753e-19)
(0.947605 0.265916 -7.99198e-21)
(0.917606 0.305298 3.30099e-19)
(0.985362 0.210961 2.45359e-19)
(0.930808 0.167663 -4.8435e-19)
(0.898188 0.177965 6.49828e-20)
(0.911844 0.28937 -1.15765e-19)
(0.89585 0.192797 0)
(0.977968 0.160364 2.2799e-19)
(1.02309 0.178369 0)
(1.01715 0.188169 0)
(1.09334 0.113295 5.84131e-20)
(1.03649 0.16385 -1.01539e-20)
(1.03908 0.226867 -3.93008e-20)
(1.08839 0.199226 0)
(1.02576 0.033948 1.91477e-19)
(1.04403 0.0523751 2.23372e-19)
(1.03938 0.0344578 -1.88013e-19)
(1.04285 0.0577855 -1.51173e-19)
(1.02203 0.0598844 -2.59744e-19)
(0.972788 0.134752 0)
(0.989106 0.0814879 0)
(0.966928 0.0470174 -1.84541e-19)
(0.928768 0.0668928 7.83277e-20)
(1.03236 0.0944115 2.10722e-19)
(1.05405 0.119562 -1.91421e-19)
(1.05104 0.15215 1.82526e-19)
(1.02474 0.124131 0)
(1.06599 0.104869 0)
(1.0481 0.095538 -8.15766e-20)
(1.04086 0.0899345 -1.66703e-19)
(0.587497 1.11499 -1.26058e-19)
(0.629472 1.47248 2.23994e-19)
(1.14853 2.75352 9.50067e-20)
(1.19983 3.12784 -7.00535e-20)
(1.25359 2.7529 5.72254e-19)
(1.29801 2.72408 -2.95946e-19)
(1.27197 2.34145 -3.5411e-20)
(1.18791 3.03493 2.21567e-19)
(1.20494 2.99247 -2.39697e-19)
(1.18133 3.28215 -2.49542e-19)
(1.40422 2.99867 3.06887e-19)
(1.4168 2.93887 0)
(0.544177 0.856278 -9.83747e-21)
(0.253447 1.23871 2.84506e-19)
(0.49108 0.506777 3.21929e-19)
(0.358697 0.280107 3.77327e-19)
(0.554741 0.405772 3.7363e-19)
(0.559673 0.488023 -5.77567e-19)
(0.561121 0.4889 4.77435e-19)
(0.520044 0.442957 -1.94636e-19)
(0.471061 0.371871 4.47089e-19)
(0.787938 0.244664 -1.72754e-19)
(0.747257 0.283488 0)
(0.732578 0.223086 1.16774e-20)
(0.720966 0.515994 1.78432e-19)
(0.678419 0.482681 -6.5834e-19)
(0.636644 0.476655 2.26589e-20)
(0.634845 0.455454 0)
(0.678437 0.723339 1.24733e-19)
(0.772171 0.771234 6.49205e-20)
(0.701504 0.818184 -8.15926e-20)
(0.836347 0.787783 -7.93089e-21)
(0.882243 0.838368 1.72922e-20)
(0.889987 0.845041 -1.77327e-20)
(0.833414 0.655541 -1.74166e-19)
(0.89975 0.70903 7.37915e-21)
(0.951379 0.71167 0)
(0.949634 0.688706 8.01609e-21)
(0.980134 0.298877 5.63425e-20)
(1.11323 0.305305 -3.31922e-20)
(1.02347 0.259182 7.65154e-20)
(0.945971 0.343962 -1.26903e-19)
(0.98923 0.445684 0)
(1.07463 0.402839 0)
(0.866334 0.387883 1.33363e-20)
(0.838688 0.291528 0)
(0.854482 0.279858 1.8423e-19)
(0.881328 0.30425 9.6498e-21)
(0.908028 0.435574 6.55233e-19)
(0.846192 0.514038 1.56141e-19)
(0.861519 0.458126 -2.28295e-19)
(0.796543 0.450531 2.42326e-19)
(0.788548 0.445957 1.6701e-19)
(0.759369 0.41885 -1.6391e-19)
(1.02756 -0.00041405 2.00979e-19)
(1.01999 0.000194096 0)
(1.01846 0.00114924 1.34354e-19)
(1.02283 -0.000844173 -3.01748e-19)
(1.0218 0.00414426 1.47121e-19)
(1.02024 0.0107605 -3.09078e-19)
(1.02113 0.0105693 0)
(1.02055 0.0116154 -6.52963e-20)
(1.01589 0.0076538 1.63804e-19)
(1.01662 0.0104343 -8.28164e-20)
(1.01767 0.00964001 6.06075e-20)
(0.0504572 1.10493 0)
(0.1679 1.24655 0)
(0.0933196 1.17819 0)
(0.0508508 1.05533 0)
(0.127775 1.38826 -7.28584e-19)
(0.121397 1.36796 2.17359e-19)
(0.0910612 1.49753 1.70276e-19)
(0.0899088 1.40383 -2.13782e-19)
(0.17493 1.52202 5.34524e-19)
(0.174357 1.49962 -4.1255e-19)
(0.156159 1.37709 -3.66273e-20)
(0.183713 1.37208 5.14523e-19)
(0.173122 1.30309 7.67875e-20)
(0.194333 1.30253 7.17244e-20)
(0.0855 2.35314 1.9682e-19)
(0.0930873 2.42498 0)
(0.12676 2.04327 -6.44421e-20)
(0.0844929 1.72754 -1.21505e-19)
(0.20725 2.05398 3.95351e-20)
(0.209933 2.45333 0)
(0.251493 2.40509 -1.1164e-19)
(0.295184 2.40677 7.98105e-20)
(0.245218 2.00826 1.32162e-19)
(0.132627 2.18954 -2.87312e-20)
(0.102138 2.30976 0)
(0.104451 1.9947 5.59431e-19)
(-0.0341109 2.53308 6.47592e-19)
(0.0295908 2.34583 0)
(0.0207321 2.50657 -2.51529e-20)
(0.000490741 2.35033 -2.58662e-19)
(-0.168851 1.27867 -8.00295e-20)
(-0.207185 1.27645 1.21382e-18)
(-0.252835 1.34345 -2.847e-19)
(-0.230881 1.41494 -4.74214e-19)
(-0.0631839 1.44063 0)
(-0.276566 1.29656 0)
(-0.219144 1.33829 -1.56653e-19)
(-0.30504 1.36166 4.89821e-20)
(-0.278591 1.30339 0)
(-0.193971 1.19578 -1.46082e-19)
(-0.145771 1.24152 2.60609e-19)
(1.04008 0.00610181 0)
(1.0432 0.00242193 -1.91504e-20)
(1.04384 0.0142316 -1.42785e-19)
(1.04981 0.0108802 0)
(1.04705 0.00847543 0)
(1.03703 0.00485565 -6.34606e-21)
(1.03153 0.00743389 2.37523e-19)
(1.03341 0.0104957 2.85908e-19)
(1.0274 0.017397 0)
(1.02538 0.0176828 0)
(1.0384 0.0179326 1.4383e-19)
(1.03037 0.0251474 0)
(1.02755 0.0226422 0)
(-0.373398 2.06668 0)
(-0.307836 1.87814 -1.85573e-20)
(-0.329059 2.01613 -3.973e-20)
(-0.309996 1.48408 0)
(-0.384001 1.81534 -7.81513e-20)
(-0.320123 1.7119 1.36223e-20)
(-0.307351 1.56328 0)
(0.404728 1.67579 0)
(0.358689 1.28454 7.07605e-19)
(0.28603 1.33611 0)
(0.422173 1.28702 -9.17555e-19)
(0.462797 1.45292 0)
(0.442151 1.38449 4.20034e-19)
(1.02979 2.70603 -3.79972e-21)
(0.960675 2.41484 -2.58826e-19)
(0.90676 2.17958 2.66617e-19)
(0.848934 2.37529 1.07967e-19)
(0.846636 2.52107 0)
(0.911585 2.52172 0)
(0.925345 2.38278 0)
(0.904451 2.36242 -4.0377e-19)
(0.697819 2.50223 8.73515e-21)
(0.803194 2.48919 -1.10267e-20)
(0.808595 2.46519 8.43946e-21)
(0.693449 2.39097 0)
(0.797565 2.38135 0)
(0.762618 2.3942 -2.18927e-19)
(0.770717 2.49908 0)
(0.579743 1.05982 0)
(0.509494 0.91121 -3.52927e-20)
(0.511166 0.968731 -3.57452e-22)
(0.491806 1.09693 0)
(0.480922 1.01877 6.1589e-20)
(0.738085 0.8554 1.39996e-20)
(0.752311 0.99752 0)
(0.728261 0.973021 -6.90946e-20)
(0.618865 1.01115 0)
(0.609978 0.932011 0)
(1.16066 2.78552 7.31261e-20)
(1.13702 2.84544 1.39754e-19)
(0.928291 2.38483 -3.22924e-19)
(0.902642 2.35836 4.78994e-20)
(1.12741 2.76143 0)
(1.07752 2.7314 -5.75231e-20)
(1.09266 2.51279 -5.05811e-20)
(0.98893 2.25159 -2.78457e-20)
(0.491731 1.3779 0)
(0.502244 1.08656 1.10987e-19)
(0.551059 1.15388 0)
(0.872675 0.203448 0)
(0.822244 0.170643 0)
(0.767318 0.171795 0)
(0.864049 0.211242 -2.8838e-19)
(0.808221 0.213442 1.80852e-19)
(0.937544 0.0563967 -1.60752e-19)
(0.950817 0.104541 0)
(0.920981 0.107958 7.27788e-20)
(0.886467 0.0751026 2.97789e-19)
(0.871377 0.0538816 -1.82445e-19)
(1.10747 3.37789 -9.53567e-19)
(1.16865 3.29989 0)
(1.12912 3.46252 -2.04018e-18)
(0.666461 3.6078 1.72795e-18)
(1.04047 3.09998 4.35999e-19)
(0.518982 0.85468 1.91994e-19)
(0.508527 0.826388 0)
(0.39963 0.540247 -7.86394e-20)
(0.469163 0.690851 3.5941e-19)
(0.52164 0.512375 -1.05436e-19)
(0.518446 0.531586 1.22413e-19)
(0.673402 0.538239 2.36678e-19)
(0.699755 0.567859 0)
(0.644374 0.615222 0)
(0.605393 0.55944 0)
(0.954029 0.596011 -5.82462e-20)
(0.901869 0.552235 -1.49206e-19)
(0.928156 0.590139 3.93938e-20)
(0.965801 0.500927 -1.05856e-19)
(1.01292 0.475811 0)
(1.02623 0.580046 4.46434e-21)
(0.822257 0.398957 -3.70019e-19)
(0.818825 0.387621 -4.41499e-19)
(0.786778 0.392402 2.89753e-19)
(0.781575 0.350153 -3.33217e-19)
(0.83097 0.304213 -2.43368e-19)
(0.795307 0.303835 2.99313e-19)
(1.02584 0.00548759 -1.5047e-19)
(1.02575 0.00530551 3.0443e-19)
(1.03077 -0.000567496 1.89657e-19)
(1.03281 0.000966824 -2.30199e-19)
(1.03252 0.00552432 0)
(1.02997 0.00481341 -3.71933e-19)
(0.108252 1.71137 -7.32613e-20)
(0.115357 1.64355 0)
(0.103262 1.72818 -5.56022e-19)
(0.0997171 1.70387 5.08182e-19)
(0.10023 1.5357 -3.10268e-19)
(0.150732 1.54789 0)
(-0.460843 2.06422 0)
(-0.417244 1.71536 7.16169e-20)
(-0.449597 1.66552 -6.48402e-20)
(-0.386232 1.83316 -2.56158e-20)
(-0.3783 2.09362 9.18313e-20)
(-0.412551 2.11627 -6.62339e-20)
(0.480369 1.39082 4.31225e-19)
(0.482634 1.38663 -4.61549e-19)
(0.426494 1.28392 4.70603e-19)
(0.415774 1.30215 -2.66163e-20)
(0.59876 1.29457 0)
(0.535124 1.37819 5.50278e-19)
(0.536959 1.38977 -5.34029e-19)
(0.45243 1.2597 -4.46495e-19)
(0.488568 1.22671 0)
(0.552789 1.19241 0)
(0.675073 2.46538 -1.28736e-20)
(0.670091 2.47708 5.42862e-19)
(0.725576 2.4896 -3.71917e-19)
(0.633944 2.46448 -1.1254e-19)
(0.559066 2.57257 8.32958e-20)
(0.499481 2.52669 -2.56405e-19)
(0.971545 2.38759 -1.4509e-19)
(1.01557 2.41456 0)
(0.919037 2.16445 -1.87527e-19)
(1.04618 2.71129 0)
(1.04575 2.69643 0)
(0.63129 2.33514 3.7456e-19)
(1.12699 3.09386 4.56182e-19)
(1.01554 3.00223 -5.44978e-19)
(0.34696 0.912846 0)
(0.380256 0.837886 -1.34249e-19)
(0.556917 0.757571 -5.61781e-20)
(0.402967 2.18759 0)
(0.418765 2.75629 -3.0632e-19)
(0.431618 2.50052 0)
(0.683851 0.675239 -2.61906e-19)
(0.736179 0.666186 3.5891e-19)
(0.747856 0.638511 -3.57996e-19)
(0.676343 0.648003 -3.93826e-20)
(0.721137 0.602697 -1.64118e-19)
(0.98593 2.78486 -3.45584e-19)
(1.01778 2.78173 2.51924e-19)
(0.589556 2.27556 -1.82342e-19)
(0.626737 1.77163 7.7096e-20)
(0.717116 1.89829 4.54769e-20)
(0.984677 2.42668 -8.72391e-20)
(0.982458 2.38929 -1.05046e-19)
(0.677571 1.82947 -1.08216e-21)
(0.472852 1.34281 -6.12544e-20)
)
;

boundaryField
{
    wall-4
    {
        type            noSlip;
    }
    velocity-inlet-5
    {
        type            fixedValue;
        value           uniform (1 0 0);
    }
    velocity-inlet-6
    {
        type            fixedValue;
        value           uniform (0 3 0);
    }
    pressure-outlet-7
    {
        type            zeroGradient;
    }
    wall-8
    {
        type            noSlip;
    }
    frontAndBackPlanes
    {
        type            empty;
    }
}


// ************************************************************************* //
