/*--------------------------------*- C++ -*----------------------------------*\
  =========                 |
  \\      /  F ield         | OpenFOAM: The Open Source CFD Toolbox
   \\    /   O peration     | Website:  https://openfoam.org
    \\  /    A nd           | Version:  6
     \\/     M anipulation  |
\*---------------------------------------------------------------------------*/
FoamFile
{
    version     2.0;
    format      ascii;
    class       volScalarField;
    location    "44";
    object      p;
}
// * * * * * * * * * * * * * * * * * * * * * * * * * * * * * * * * * * * * * //

dimensions      [0 2 -2 0 0 0 0];

internalField   nonuniform List<scalar> 
918
(
0.542937
1.27575
0.00537998
0.542841
-0.0104805
1.24349
-0.481401
0.688395
0.524056
-0.102873
-0.0383828
0.522296
1.10078
0.867972
-1.16183
-0.00917885
0.647461
-0.406704
0.522004
-0.035148
0.725569
0.530758
0.533228
0.524021
0.581459
0.823638
0.978095
0.00874348
0.00492074
0.00334665
-0.0111698
-0.0307361
-0.0230287
1.12661
1.17854
1.20172
0.490914
0.326473
-0.372195
-0.42333
-0.406959
-0.506504
0.68301
0.682292
-0.188056
0.690194
0.697258
0.509861
0.523444
0.524278
0.525434
0.524312
0.525602
0.409175
-0.107367
-0.13707
-0.0859991
-0.0829287
0.0582381
-0.0408495
-0.0436702
-0.0367691
-0.0402562
0.44067
0.518211
0.515248
0.527183
0.536793
1.21592
1.18962
1.21567
1.12642
1.14392
1.07768
1.05056
0.889041
0.912187
0.850963
0.8371
-1.62658
-2.58397
-0.578214
-0.296028
-0.011309
-0.00497897
0.000782753
0.639638
0.63962
0.648896
0.656086
1.04571
-0.377517
-0.447243
0.522497
0.52102
0.530278
0.531183
0.52613
0.526143
-0.038714
-0.0408262
-0.0230059
-0.0333758
-0.0304261
0.716558
0.713838
0.523465
0.520919
0.545672
0.567305
0.556461
0.262888
0.58742
0.602638
0.683642
0.831366
0.818956
0.831209
0.953747
0.9211
1.00991
1.03156
0.0142638
0.00124875
-0.0120368
-0.015165
-0.0134032
0.486698
0.480333
0.50747
0.494498
0.497496
0.230574
0.0784685
0.409275
0.433155
-0.293165
-0.335021
-0.43886
-0.436953
-0.542512
0.598641
0.678344
0.674582
-0.2033
-0.128473
-0.254808
-0.0732144
-0.128649
0.500914
0.507083
0.503203
0.518478
0.51267
0.515086
0.527536
0.524696
0.526303
0.469232
0.601512
0.327437
0.300132
-0.262127
-0.154347
-0.245208
-0.068996
-0.0605239
0.0698297
0.0973018
0.0454929
0.0318726
-0.0533681
-0.0475703
-0.0519676
-0.0405876
-0.0415385
0.432242
0.419455
0.451765
0.459143
0.50626
0.507622
0.51186
0.509909
1.00186
1.02475
1.03071
1.00692
-3.57277
-6.2267
0.0554255
0.217789
-0.00645576
-0.00896719
0.000495823
-0.00623649
0.00132751
-0.00126261
-0.00579047
-0.00511695
-0.00101001
0.0019449
0.633655
0.634267
1.00398
1.03604
0.994316
0.971486
0.511808
0.513727
0.518361
0.515253
-0.0416243
-0.0421085
-0.0451129
0.699221
0.708567
0.705962
0.222887
0.135837
0.312661
0.343162
0.627698
0.610891
0.62476
0.744104
0.782828
1.04797
1.0723
1.05619
1.06895
1.11982
1.14274
1.10806
0.465524
0.476308
0.470671
0.510631
0.508271
0.509314
0.505312
0.506499
0.504999
-0.0343982
-0.410211
0.485001
0.487412
0.474842
0.481139
0.68437
0.767414
0.656964
0.667435
0.664755
-0.0256381
-0.0731459
0.257832
0.22879
0.372588
0.406529
0.388858
0.976971
0.937087
0.985351
0.960646
0.925207
0.949947
-0.347713
-2.12447
-1.11301
0.624467
0.425394
0.517828
0.0161825
-0.00118461
0.00387203
1.03849
1.078
0.670621
0.855575
0.8089
0.806253
0.833088
0.895303
0.827776
0.862725
0.893568
0.870024
0.552053
0.492217
0.505258
0.845328
0.902774
0.100568
0.025872
0.00215173
0.120162
0.187385
0.156965
1.05075
0.959409
1.0247
0.521158
0.522084
0.00231242
-0.00854545
0.526179
0.525901
-0.0127657
-0.00458664
0.536527
-0.934621
0.109513
0.515579
0.505447
0.522161
-0.0672126
0.342943
-0.0387863
0.045135
0.00682462
0.517704
0.452764
0.410947
0.00875893
-0.0172593
-0.0351241
-0.202095
0.5189
0.517262
0.521539
0.522377
0.523138
-0.00923642
-0.00565702
-0.00572813
-0.0323813
-0.0266481
-0.0337726
0.485798
0.505211
-0.174955
0.521818
0.52392
0.52363
0.517733
0.522729
0.521308
-0.00980836
-0.0152657
-0.0177039
0.20507
0.338703
0.722367
0.79912
0.670691
0.501534
0.201216
0.656701
0.710246
0.634412
0.765411
0.671585
0.679791
0.17433
0.0371435
0.179297
0.111435
0.512482
0.511835
0.502998
0.499943
0.516957
0.514651
0.519818
0.517012
0.520146
0.521328
-0.0243103
-0.0632391
-0.0783922
-0.132812
0.309007
0.568588
0.237733
0.263329
0.167395
-0.0324285
-0.0341361
-0.0381657
-0.0438449
0.00120863
-0.00925449
0.0389801
0.0453842
0.0238765
-0.00308467
-0.00788311
-0.00878943
-0.0136433
0.51112
0.510473
0.516107
0.524526
0.462218
0.465854
0.432608
0.451125
0.437482
0.377911
0.407839
0.385144
-0.00153539
0.0106467
0.00418933
-0.0141698
-0.0115176
-0.026398
-0.0199816
-0.020579
-0.0138733
-0.0186385
-0.0320839
-0.0406991
-0.165097
-0.281949
0.962107
0.896192
0.140175
0.508836
0.514469
0.511657
0.516273
0.519478
0.520142
0.51775
0.514261
0.505392
0.506845
0.503629
0.504622
-0.116877
-0.222794
-0.0553117
-0.127644
0.152497
0.616465
0.346911
0.294542
0.279465
0.500735
0.719939
0.644486
0.711938
0.709901
-0.386206
0.0293503
-0.313107
0.236767
0.221459
0.74678
0.788678
0.806412
0.763144
0.719196
-0.0260308
0.552448
-0.0478103
-0.00163465
0.188485
0.0772877
0.694141
0.651215
0.656081
0.671637
0.688222
0.665856
0.646416
0.64221
0.668984
0.674482
0.503502
0.233881
0.193424
0.146422
0.63606
0.532085
0.585991
0.50636
0.50793
0.510456
0.509332
0.490539
0.497845
0.493577
0.500409
0.503956
0.511521
0.511715
0.50768
0.509562
-0.0557768
-0.05891
-0.0721378
-0.114897
-0.11943
-0.159879
-0.0849758
0.11627
0.0608181
0.252305
0.394929
0.0850649
-0.0426651
-0.0291111
0.0269975
0.188531
0.192754
0.0576236
0.175163
0.12998
0.122448
0.214089
0.237605
-0.0228743
-0.0221782
-0.0236219
-0.0301492
0.0206962
0.118586
0.103535
-0.000134021
-0.00703381
-0.0368626
-0.0383502
0.00508666
-0.0101423
-0.00402222
0.00981621
-0.0381772
-0.013864
-0.00318771
5.45061e-05
-0.00464605
-0.00265345
0.504652
0.506807
0.506696
0.514692
0.529453
0.544609
0.507122
0.483218
0.474275
0.47737
0.450747
0.459883
0.45502
0.470485
0.492067
0.500911
0.498438
0.501097
0.483455
0.485115
0.470709
0.475158
0.444984
0.426846
0.41714
-0.0349632
-0.00207039
-0.0131394
-0.0326385
-0.00589374
-0.0177906
-0.00844427
0.00807344
-0.00827845
-0.00684276
-0.0162966
-0.0201761
-0.0180656
-0.0670574
0.0143624
-0.168549
-0.218249
-0.269095
0.889507
1.02497
0.813473
0.613522
0.615234
0.83302
0.927401
0.56648
0.732654
0.774774
0.569881
0.858959
0.512704
0.512348
0.510244
0.509436
0.510399
-0.0111379
0.0889811
0.108237
0.161905
0.276802
0.383888
0.305999
0.194525
0.329383
0.35325
0.614208
0.622799
0.577771
0.599056
0.598483
0.415165
0.496124
0.537859
0.487669
0.561668
0.594596
0.542152
0.584662
0.504736
0.454659
0.446007
0.403297
0.43689
0.41864
0.393162
0.504089
0.481043
0.491909
0.481586
0.502801
0.523852
0.526765
0.551197
0.565532
0.482897
0.431757
0.448155
0.475632
0.433139
0.449197
0.470284
0.177299
0.081764
0.24833
-0.0805146
0.00984155
0.0466448
0.00554465
-0.040266
0.266815
-0.375904
-0.319888
-1.00359
0.493043
0.876629
0.655993
0.670613
0.687292
0.669566
0.680063
0.69442
0.69961
0.627621
0.639553
0.643104
0.612066
0.641074
0.643115
0.650443
0.506253
0.411281
0.411906
0.346805
0.21323
0.25259
0.436682
0.368873
0.296271
0.28998
0.460103
0.328046
0.404463
0.460878
0.389421
0.320989
0.551817
0.599409
0.589073
0.561152
0.457328
0.487894
0.502118
0.548074
0.580853
0.6078
0.499202
0.505462
0.50641
0.503669
0.501875
0.50495
0.505149
0.507442
0.507858
0.510402
0.509758
-0.0368112
-0.025924
-0.0434715
-0.0457655
0.034073
0.00645733
0.00130926
-0.0354076
-0.00509632
-0.00648963
-0.023052
-0.0397658
-0.0313171
-0.017862
0.0745208
0.0936042
0.104968
0.0710655
0.251356
0.43274
0.502156
0.37184
0.212497
0.232666
0.314838
0.0212854
0.0368049
0.0222185
0.0723633
0.0501657
-0.0292459
-0.0342112
-0.0289084
-0.0229585
-0.0148131
-0.0304435
-0.0373013
-0.0279374
-0.0335461
-0.0382657
-0.0407354
0.484899
0.477798
0.481215
0.473791
0.472015
0.488623
0.493036
0.494361
0.499807
0.502334
0.492087
0.497946
0.501979
-0.00986916
-0.0247082
-0.0277042
-0.0221032
-0.0216698
-0.0214628
-0.0216824
0.126292
0.0337868
0.0681945
0.000400486
-0.123301
-0.0632726
0.494957
0.490689
0.485851
0.715492
0.555704
0.471743
0.567628
0.685842
0.272027
0.476316
0.307762
0.888504
0.790759
0.936634
0.557967
0.25132
0.414769
0.429013
0.263302
0.388643
0.350856
0.225759
0.265185
0.289735
0.374761
0.254512
0.23282
-0.00894468
0.168826
0.282657
0.264167
0.394791
0.452696
0.257431
0.172096
0.120907
0.598784
0.616677
0.627104
0.599966
0.621919
0.565242
0.554638
0.572603
0.581493
0.575572
-0.641393
-0.229854
-1.43156
-0.838169
-0.386983
0.519538
0.510462
0.750609
0.656994
0.700964
0.682129
0.614825
0.578469
0.620475
0.643491
0.340151
0.433208
0.412037
0.397641
0.341391
0.280932
0.561933
0.565006
0.589435
0.613295
0.587658
0.6138
0.497817
0.497625
0.496455
0.492809
0.491381
0.494406
0.0292816
0.00534003
0.0481444
0.0469141
0.028365
0.028444
-0.0071708
-0.0165802
-0.0213523
-0.019474
-0.0112146
-0.00769422
0.168516
0.110323
0.0232768
0.0648735
-0.00181367
-0.0820023
-0.0841446
0.00393568
0.101532
0.0827948
0.393707
0.664536
0.490912
0.661387
0.454262
0.560014
0.469712
0.444347
0.473907
0.370654
0.45867
0.0246258
-0.173179
-0.230801
0.817319
0.77365
0.560845
0.308286
0.196053
0.495562
0.523489
0.489217
0.513306
0.561979
0.542046
0.0059526
0.104014
0.171236
0.481911
0.273486
0.290924
0.282673
0.442944
0.417112
)
;

boundaryField
{
    wall-4
    {
        type            zeroGradient;
    }
    velocity-inlet-5
    {
        type            zeroGradient;
    }
    velocity-inlet-6
    {
        type            zeroGradient;
    }
    pressure-outlet-7
    {
        type            fixedValue;
        value           uniform 0;
    }
    wall-8
    {
        type            zeroGradient;
    }
    frontAndBackPlanes
    {
        type            empty;
    }
}


// ************************************************************************* //
