/*--------------------------------*- C++ -*----------------------------------*\
  =========                 |
  \\      /  F ield         | OpenFOAM: The Open Source CFD Toolbox
   \\    /   O peration     | Website:  https://openfoam.org
    \\  /    A nd           | Version:  6
     \\/     M anipulation  |
\*---------------------------------------------------------------------------*/
FoamFile
{
    version     2.0;
    format      ascii;
    class       surfaceScalarField;
    location    "44";
    object      phi;
}
// * * * * * * * * * * * * * * * * * * * * * * * * * * * * * * * * * * * * * //

dimensions      [0 3 -1 0 0 0 0];

internalField   nonuniform List<scalar> 
1300
(
3.75095
5.62643
-3.21569
3.75095
-7.69004
5.62643
-4.26284
4.26284
-0.771855
0.771855
1.87647
1.87449
-2.62271
2.62271
-2.05873
2.05873
-2.54587
2.54587
-5.24796
5.24796
-5.06893
5.06893
4.7146
-4.7146
-6.26546
6.26546
-1.10686
1.10686
-3.67705
3.67705
3.17296
-3.17296
-2.09346
2.09346
-0.18792
0.18792
-0.554101
4.30505
3.19685
3.19685
-1.98228
1.98228
-4.87358
4.87358
6.22209
-6.22209
5.17648
-5.17648
-1.96079
-2.36439
1.80174
-11.5593
-5.8883
-5.8883
-8.44103
8.44103
-2.8146
2.81183
2.94561
-2.94561
-1.7342
1.7342
-4.2454
-0.017438
-4.2454
4.2479
0.0149366
4.2479
-0.862062
0.0902069
-0.862062
3.83643
-3.83643
0.650019
0.121835
0.650019
3.06695
-3.06695
-1.87687
3.75334
1.87408
-1.87206
6.17711
-1.87889
3.75338
-6.05138
6.05138
-2.83308
0.210365
-2.83308
2.43153
0.191178
2.43153
-6.85638
6.85638
-2.12581
0.0670853
-2.12581
2.02596
0.0327659
2.02596
2.88105
-2.88105
-2.64245
0.096581
-2.64245
2.4156
0.130269
2.4156
0.353511
5.27292
-5.97994
8.79177
-5.27292
0.0249617
5.21035
0.0376084
5.21035
-5.10534
0.0364136
-5.10534
5.01348
0.0554475
5.01348
4.80897
-0.0943701
4.80897
-4.82931
0.114717
-4.82931
-3.40077
-4.10111
-6.43336
0.167906
-6.43336
-1.12407
0.0172075
-1.12407
1.05338
0.0534778
1.05338
-3.68245
3.68245
-3.9949
0.317852
-3.9949
3.12787
0.0450917
3.12787
1.86812
1.88283
5.61908
-5.61908
2.44611
-2.00584
-0.0876158
-2.00584
-2.16258
-3.0139
2.16258
-0.0691226
-0.408337
0.220418
-0.408337
3.15701
0.039844
3.15701
2.25766
0.157938
-2.25766
0.275377
3.27379
-3.27379
1.31237
0.669914
1.31237
-5.5598
5.5598
4.96139
0.0520841
-4.96139
0.0878102
6.15722
0.0648704
6.15722
-6.20753
-0.0145619
-6.20753
2.61197
-4.97636
-2.55344
6.07483
0.190627
-6.07483
0.186532
2.91634
0.0292706
2.91634
-2.92039
2.92039
-2.98318
0.0375656
-2.98318
-2.16029
0.426088
-2.16029
1.41552
0.31868
1.41552
-4.11789
-0.127513
-4.11789
-4.13026
0.135357
4.13026
0.117641
1.07664
-1.07664
-0.930068
0.0680059
-0.930068
-3.93873
-0.179155
3.93873
-0.102296
-3.79516
-0.0412693
-3.79516
-3.02123
0.03805
3.02123
0.0457239
3.11192
0.0450895
-3.11192
0.0449645
-1.87097
3.7538
-1.87999
3.75407
-5.66868
-0.382704
-5.66868
6.34492
-0.293536
6.34492
3.22654
0.450509
-3.22654
0.393463
2.2928
0.13873
2.2928
-6.83193
-0.0244587
-6.83193
6.85788
-0.00149978
6.85788
2.19264
0.100162
-2.19264
0.0668319
2.00179
0.0241737
2.00179
2.90545
-0.0243957
2.90545
-2.87695
-0.00409715
-2.87695
2.79622
-2.79622
2.7247
0.0715209
-2.7247
0.0822546
-11.1241
11.1095
-0.0362654
-11.0878
5.17408
5.17408
4.26512
0.543847
4.26512
-5.02009
0.190772
-5.02009
2.74029
-5.29374
3.09269
-6.49346
4.70124
-16.2606
4.32333
-8.42444
6.69705
-6.69705
6.57429
0.12276
-6.57429
0.140922
-1.18348
0.0594134
-1.18348
-3.06747
-0.614985
-3.06747
4.3269
-0.644447
4.3269
-3.02824
3.02824
-3.07683
0.0485947
3.07683
0.0510364
1.97084
0.0309444
-1.97084
-0.0349989
0.519539
0.13048
-0.519539
0.111202
3.48539
-0.211597
3.48539
-3.07789
-0.195898
-3.07789
-1.25133
0.0678498
1.25133
0.0610362
-5.80744
0.247645
-5.80744
-11.1814
0.0935759
-11.1438
-6.11396
-6.11396
2.32708
11.1188
-2.89367
0.0167206
2.89367
0.022671
2.97587
0.0523716
-2.97587
0.055483
-2.8607
0.0644753
2.8607
0.0596877
-2.53155
0.371256
-2.53155
-1.01937
1.01937
-1.17612
0.156756
1.17612
0.239401
1.36495
-0.288311
1.36495
0.995329
0.0580537
-0.995329
0.0652614
-3.76349
-0.0316723
-3.76349
6.58056
-0.235636
6.58056
-2.95391
-0.123983
2.95391
-0.0484647
-0.0349233
11.1445
-5.13916
0.0338199
5.13916
-11.2093
11.2432
-3.24105
0.709506
3.24105
1.02407
5.28669
0.273107
-5.28669
0.266602
6.79385
0.0640337
-6.79385
0.0968035
-2.58216
-0.485306
-2.58216
-5.06805
-0.600629
5.06805
-0.741151
-11.4817
-0.203055
11.6848
-11.4263
6.01049
0.146728
-6.01049
11.3899
-0.971613
-0.105025
0.971613
0.047753
1.70261
-0.337655
1.70261
3.69034
-0.204947
-3.69034
-0.0731562
-6.72693
-0.105
6.72693
-0.146368
-2.13257
-0.449593
2.13257
-0.429965
-4.26724
4.30709
1.90987
-2.43597
-2.54039
-5.44986
1.85496
1.89884
4.30107
-10.2087
-6.05186
-10.0222
7.21316
-6.94655
-9.35952
9.26515
7.77928
-7.82055
-5.77811
5.82914
6.48397
-6.43825
1.87925
1.87409
7.99253
-7.78216
-15.7063
15.3236
7.54776
-7.48068
15.8573
-15.8818
-17.9205
17.9846
-5.70286
5.79944
-6.73351
6.72941
-6.96619
6.91772
-2.85536
-3.6381
13.2015
-13.0336
8.46151
-8.54913
-8.63389
8.95174
3.38452
0.922571
3.42961
-1.88195
3.7612
-1.87143
3.7813
2.689
-5.54435
2.60474
-5.14513
4.27188
4.18963
-4.20275
-1.24711
-5.92611
5.95538
-5.81299
5.87268
9.02402
-9.04146
-1.88503
3.75912
-1.86904
3.76788
-3.42348
-2.35463
3.37839
0.922682
8.11341
5.08806
-8.30404
-1.71815
-7.95709
7.75214
-8.18957
7.99367
-0.437315
5.83621
-5.39889
4.43627
-1.65401
7.49021
5.55915
5.74992
5.86016
-5.58705
1.0864
-6.48529
-6.39748
-2.47384
2.54185
2.43779
-2.31596
6.01332
1.76596
5.91102
-5.73311
-2.08744
-5.76478
3.82041
2.00873
3.86901
4.08103
2.40294
4.11908
3.03006
-3.03612
0.00606058
-3.05894
6.08899
0.723005
-5.41356
-4.49088
5.01218
2.98034
5.20336
-5.57873
-2.20343
-5.18527
-9.59325
-6.11301
-10.1939
10.109
5.21455
9.81547
-11.9891
11.8428
4.83209
2.71567
4.86485
-4.95779
-2.52288
-4.89096
11.6722
-2.6373
-9.03495
-10.3548
-7.56577
10.3563
5.50108
11.0114
6.9732
11.1082
4.44364
7.22861
-9.94472
2.37894
-3.86442
-1.83844
-3.78216
3.6623
2.13714
3.79256
-4.21599
-2.51752
-4.19927
-4.29113
-2.67506
4.31552
2.41389
-4.40708
-3.78248
4.53107
2.38666
4.07649
-10.1283
4.34795
-7.98605
-9.25395
-3.77961
-9.11303
3.49709
2.61831
-6.1154
-2.04727
8.43951
-4.24988
7.1924
-5.18175
-3.36737
-5.21675
-6.90398
-1.72991
-6.76863
-8.94732
8.46201
-9.23695
8.59251
12.6388
-5.67402
-6.9648
-3.96678
-2.47147
3.92182
-0.492211
-3.71035
3.71641
0.050847
3.83215
4.75472
4.2625
-3.88351
-1.92948
-3.82802
3.82514
2.04753
3.88962
6.77259
2.25143
6.78753
-6.47493
-2.56653
-6.60244
9.13673
-8.71064
2.86591
-2.79806
5.33756
2.65611
-5.12596
-2.83112
6.22912
-3.17794
-3.05118
-12.3571
10.8483
1.50876
-4.86688
-0.430611
-0.242692
-5.58534
-3.77417
5.47063
0.279292
11.1276
7.35345
-5.51539
5.76304
6.16941
6.22149
-0.175989
5.91748
-5.20797
5.3442
-2.58404
-2.76017
5.35639
-5.53554
-1.24606
-5.44661
4.20056
0.375479
1.7046
-1.48418
-1.90903
-0.564813
-1.84377
1.43915
0.998644
1.56963
0.907272
1.63457
-2.94459
0.591177
2.35341
-2.03732
-1.72478
-3.67867
-1.13715
4.81582
5.64431
2.10783
-5.57115
-0.193631
2.64576
-2.59228
-0.741606
-2.93706
2.17992
-2.92153
-3.54074
-1.86833
5.40907
-3.36939
-0.458636
3.31702
0.551989
-3.8273
-2.09882
3.78973
0.329347
-3.1274
6.19001
-3.06261
-5.05688
2.52901
3.55999
4.53774
-4.79081
2.44865
2.34216
-1.23083
4.28774
0.91562
4.42647
-7.00916
4.80573
5.71718
3.23456
-6.16769
0.982424
-6.02673
8.41172
-7.26079
-1.15093
3.92901
4.48271
7.08719
5.55163
-5.70207
12.7893
-1.05177
-6.20902
7.0785
-3.84395
4.78032
-8.62426
-10.3319
4.12293
-9.23309
11.0337
-1.8006
-3.61697
-8.37217
12.8501
-1.20766
-11.6424
8.60781
-4.2324
-4.28848
8.52088
-6.8697
6.81136
-1.95977
-4.85159
-10.1576
-5.7242
10.2626
1.58016
-9.88523
12.2642
-2.65663
4.15125
0.713601
4.17543
3.28803
-5.43332
2.14529
3.58167
-5.54144
2.06322
-7.49654
-6.78256
12.1262
-5.34362
-10.5622
-9.5884
-0.973771
2.55679
9.70738
-9.52999
7.47049
2.0595
3.30215
0.587472
-3.37367
-0.408493
0.244131
4.51782
-4.76195
4.0367
4.19463
3.25398
1.26383
3.84701
2.10837
-3.86968
-0.329589
-4.16158
1.48652
-1.74769
-3.68604
5.17255
-4.06342
0.377381
-2.74287
-3.49788
6.24075
-4.58131
3.0376
3.15241
5.08513
-4.91329
1.41541
-2.39422
-2.51907
2.64801
-4.3957
1.9866
3.18595
4.37326
0.590781
5.91697
6.20921
-8.53528
0.549228
11.2973
-9.57912
2.48705
8.62113
-9.95753
0.369132
-8.74389
0.976255
-5.22613
-5.13915
5.13236
-6.86226
-3.4919
6.21539
0.572141
-6.33303
-0.435597
-6.07057
-2.87674
-6.52017
-3.07545
-6.16151
-8.77752
-1.68552
-7.092
6.77649
-6.6915
-3.50238
7.43265
1.15986
-7.48445
7.37942
-7.54921
7.21155
0.0943127
3.6221
4.35682
1.88535
-2.39128
4.27663
-5.06928
7.32071
-8.66551
3.59623
4.12891
-6.69544
-4.5366
5.07312
4.06361
5.3918
8.97787
-10.4728
1.49489
-10.7465
12.0814
-1.33493
-16.5494
5.80289
-7.57149
2.54113
0.324784
2.60054
0.603171
2.47895
-3.08212
-2.19489
-2.13385
-2.3956
-3.49317
5.88877
1.11163
-3.41793
2.3063
-3.57426
4.68589
0.00625326
-3.42419
5.20281
-2.72386
5.52759
-3.568
1.95959
3.50526
5.81979
-2.31453
4.42123
-1.76512
1.90307
-4.2176
-1.5901
-2.95938
5.09652
-3.28138
3.65876
-0.334568
3.99333
-4.08249
0.904553
-0.828507
3.36613
3.6415
4.32044
-3.05661
2.94833
-4.71345
-1.26926
-4.12267
-0.936719
-0.217352
-3.84332
4.06067
6.06279
-6.28014
-5.30748
9.56659
-4.25911
7.72939
-5.46047
-2.26892
-4.3112
-4.39944
3.93995
1.97753
9.70692
0.178628
-5.63909
-5.02934
-4.00528
3.19449
2.14971
-1.87924
3.388
2.12194
-0.417335
0.481825
1.0878
1.84625
-1.36442
0.285177
1.56107
-1.19901
1.86554
0.780218
-1.9236
0.0798326
-1.26165
3.44157
1.09177
-2.09041
0.725986
0.962348
-3.54638
4.92391
-2.64977
-2.27414
5.88626
1.14878
-3.79855
4.29784
-3.92236
2.40566
-3.54281
-1.39289
-5.31525
-3.54929
-2.53192
4.83822
-3.35684
5.46468
1.29748
-5.27104
6.56853
-3.60818
1.73984
-3.06276
3.84298
-1.07771
-1.98505
2.94589
2.46318
-3.08489
0.147824
-0.138999
2.38755
-2.52655
-0.53398
-2.5713
-4.57494
4.90429
-2.10463
4.55328
2.172
-1.91637
6.46965
1.80907
-3.72545
-3.24781
-3.70644
-1.38328
3.15446
-0.586325
-4.30464
-5.43792
4.20447
0.221997
-6.83557
7.77852
-0.942953
-3.85522
-0.950502
4.87951
-6.01204
0.470596
-3.94882
3.8297
4.74532
4.96732
-11.4203
-0.222092
-6.20575
1.09996
-7.30571
5.58267
-3.59524
7.71816
-10.3539
6.8515
-9.19402
6.56723
-0.738486
6.23574
-4.09045
2.7992
-8.5234
-6.94324
5.46646
-2.75079
6.18006
-3.11347
9.29353
-5.77009
5.22712
4.0664
-1.01757
-4.19918
-5.23431
4.21674
-0.00719023
4.16824
4.98385
-2.87548
4.65426
2.25896
-4.65317
-2.13674
-6.48945
1.83627
-3.33703
-1.91965
3.75593
3.16548
3.75295
1.23686
-3.34446
7.23388
-8.20765
-1.89027
-3.24888
5.20457
-0.987827
3.38893
-6.63781
-1.8372
4.81205
-0.754071
-4.05798
0.86197
-4.35387
1.6776
-6.03148
5.18466
-5.62026
2.24698
-9.81846
-5.23747
-5.18972
-2.27885
-5.27036
-7.62364
5.34479
-1.82075
5.55867
-8.59412
7.84005
-3.48728
8.83207
-5.46611
-1.05406
5.89608
1.31547
10.1475
0.117057
-4.65366
-1.93221
3.839
-1.90679
1.26228
-3.72626
0.112738
2.47285
3.41341
-6.67341
-0.0220291
-4.67569
-3.91851
7.98211
5.64808
11.7109
1.23811
9.18015
-1.19804
10.4183
4.19376
4.43316
-3.0454
4.54029
1.01527
4.6115
-0.85925
2.81884
1.74129
1.7585
0.833789
2.29395
1.34756
3.1985
0.116381
-2.01747
4.65129
-8.65657
-0.9878
-8.11273
1.15242
5.42867
-4.27625
3.00333
-0.853619
1.09654
-0.0209389
-1.52549
1.54643
-2.78111
-1.94282
-0.381751
-1.62824
2.35422
1.81333
-1.97247
-0.808633
0.323406
-3.8727
3.2194
-3.07158
-0.608394
5.96013
-2.81901
0.292461
-1.07916
-2.27884
-2.84365
2.76382
6.17472
0.294936
3.11211
5.19922
3.10041
0.224928
3.90306
-5.70366
-3.59348
-5.92576
-0.343081
4.53643
1.71524
7.99214
5.78165
4.79382
-1.84399
-10.0516
6.54468
-2.00439
5.20974
-1.15177
-4.87971
5.05383
2.26688
-5.62597
0.00571264
-4.874
-6.87838
-0.490945
8.331
-9.6566
8.60254
5.7258
1.3662
-4.44515
-0.744568
4.28839
0.144769
10.563
-0.904203
-7.15802
8.06222
-4.52447
3.53667
0.727651
2.66035
2.27408
1.42046
-5.73756
-10.0138
-1.96627
-1.58012
-4.2404
0.575418
-2.38875
6.10199
-2.56532
3.83307
5.4969
6.59344
-2.0673
-4.21285
6.32641
-2.49333
4.10011
)
;

boundaryField
{
    wall-4
    {
        type            calculated;
        value           uniform 0;
    }
    velocity-inlet-5
    {
        type            calculated;
        value           uniform -3.75095;
    }
    velocity-inlet-6
    {
        type            calculated;
        value           uniform -5.62643;
    }
    pressure-outlet-7
    {
        type            calculated;
        value           nonuniform List<scalar> 8(3.21569 7.69004 4.32518 9.7576 7.50188 5.16541 5.83299 9.02456);
    }
    wall-8
    {
        type            calculated;
        value           uniform 0;
    }
    frontAndBackPlanes
    {
        type            empty;
        value           nonuniform 0();
    }
}


// ************************************************************************* //
