/*--------------------------------*- C++ -*----------------------------------*\
  =========                 |
  \\      /  F ield         | OpenFOAM: The Open Source CFD Toolbox
   \\    /   O peration     | Website:  https://openfoam.org
    \\  /    A nd           | Version:  6
     \\/     M anipulation  |
\*---------------------------------------------------------------------------*/
FoamFile
{
    version     2.0;
    format      ascii;
    class       volScalarField;
    location    "16";
    object      p;
}
// * * * * * * * * * * * * * * * * * * * * * * * * * * * * * * * * * * * * * //

dimensions      [0 2 -2 0 0 0 0];

internalField   nonuniform List<scalar> 
918
(
0.209394
0.971542
0.00751175
0.209082
0.000201455
0.93985
-0.830357
0.396504
0.190072
-0.294752
0.0138094
0.182283
0.796451
0.563731
-1.50931
0.0099725
0.350186
-0.733881
0.187673
0.00573466
0.459923
0.197233
0.19965
0.190257
0.247854
0.530724
0.674409
0.00203853
-0.00281422
-0.0026965
0.00346632
-0.00188187
0.00212247
0.822993
0.874933
0.898016
0.160726
-0.00542086
-0.708946
-0.769611
-0.746621
-0.894265
0.383791
0.387425
-0.501982
0.397877
0.412072
0.176474
0.18932
0.19015
0.192047
0.190444
0.192002
0.189171
-0.35181
-0.423498
-0.210762
-0.154964
0.0597039
0.0125813
0.00613141
0.0263258
0.0242537
0.118068
0.179091
0.177696
0.189002
0.198074
0.911717
0.88544
0.911381
0.82239
0.839893
0.773371
0.746283
0.585286
0.608901
0.54743
0.534428
-1.98034
-2.94529
-0.918944
-0.630385
0.00106288
0.0156564
0.021126
0.337998
0.340929
0.347839
0.360998
0.783248
-0.726142
-0.853689
0.187837
0.186624
0.196275
0.197411
0.192316
0.192476
0.0122397
0.0190161
-0.00154335
0.00298341
0.00300702
0.444578
0.444192
0.18989
0.187359
0.206943
0.230969
0.220412
-0.0451039
0.259118
0.275679
0.371933
0.529247
0.521202
0.531801
0.650273
0.617469
0.705255
0.726732
0.00927617
0.00253064
0.00787371
0.00537568
0.00729913
0.155725
0.148925
0.171284
0.162578
0.164813
-0.0963612
-0.24628
0.07053
0.086974
-0.619232
-0.666802
-0.788883
-0.795572
-0.873555
0.179068
0.375283
0.377256
-0.511819
-0.436806
-0.57247
-0.376063
-0.442395
0.168247
0.174872
0.17124
0.184609
0.178286
0.180532
0.193436
0.190531
0.192177
0.255722
0.352751
0.119249
0.127106
-0.609053
-0.492865
-0.570051
-0.0930624
-0.0662425
0.0655258
0.0714765
0.0495836
0.0460453
-0.0317562
0.00272982
-0.0190592
0.0236376
0.0229855
0.111021
0.100113
0.127092
0.132831
0.170924
0.171259
0.173353
0.172663
0.696917
0.719819
0.726241
0.702649
-3.94064
-6.6055
-0.272613
-0.105265
0.00203901
0.00256401
0.000995116
0.00239831
0.00295131
0.00117641
0.0264826
0.0247796
0.0238482
0.0261002
0.32523
0.328939
0.719657
0.731097
0.71818
0.67557
0.177177
0.179
0.18401
0.180199
0.0223837
0.0207332
0.0223967
0.411181
0.428837
0.424446
-0.0824672
-0.171448
0.00321066
0.0324558
0.314899
0.293143
0.313979
0.4354
0.47511
0.743035
0.767785
0.751634
0.76496
0.816212
0.839231
0.804041
0.137084
0.144898
0.140598
0.175996
0.173156
0.173988
0.170715
0.170196
0.167419
-0.360296
-0.736649
0.126212
0.131585
0.116553
0.116739
0.269887
0.367891
0.352612
0.365219
0.363226
-0.330141
-0.380756
0.11047
0.107922
0.058755
0.0873752
0.0730755
0.673252
0.633843
0.681625
0.657317
0.621902
0.646397
-0.672673
-2.46663
-1.44297
0.310819
0.105758
0.201276
0.0435483
0.0275659
0.0358818
0.721032
0.759444
0.43347
0.584823
0.544461
0.500966
0.528598
0.591949
0.520935
0.55717
0.59145
0.566597
0.139605
0.126306
0.120825
0.451301
0.512347
-0.206524
-0.270482
-0.307174
0.0759585
0.0926044
0.0953341
0.712975
0.580417
0.663371
0.18835
0.188777
0.0120468
0.0218542
0.191965
0.191817
0.00557649
0.00605584
0.216312
-1.29077
-0.184838
0.181779
0.172542
0.187914
-0.34879
0.209986
0.0119331
0.0808145
0.0490079
0.180466
0.128696
0.0915091
0.00672758
0.0158886
0.0115982
-0.551246
0.186133
0.184219
0.187449
0.188561
0.189441
0.00811817
0.0101076
0.00713263
0.0108652
0.0100395
0.00753228
0.15571
0.169304
-0.495461
0.18754
0.189641
0.189419
0.183508
0.18827
0.186483
0.0131071
0.00829483
0.00829457
-0.101128
0.0254802
0.418566
0.509077
0.354022
0.177964
-0.128556
0.344073
0.403316
0.31892
0.462574
0.358716
0.374301
-0.125583
-0.273011
-0.131973
-0.190832
0.179275
0.177853
0.169538
0.166884
0.18291
0.180793
0.185546
0.18308
0.185805
0.186914
-0.283631
-0.199191
-0.39981
-0.46623
0.141176
0.346419
0.0978165
0.084683
0.108719
0.0171646
0.0226775
0.00802105
0.00715326
0.0350802
0.048565
0.0712902
0.0521497
0.0492144
0.0304794
0.0318263
0.0415818
0.0416606
0.175263
0.171902
0.179187
0.186457
0.135744
0.138191
0.110641
0.125614
0.116202
0.0627285
0.0908154
0.0710351
0.00689017
0.00737388
0.00505328
0.019308
0.0236796
0.012266
0.0097319
0.0135177
0.0103951
0.00928846
0.0149317
0.018529
-0.520312
-0.589684
0.616657
0.5598
-0.234941
0.175492
0.180348
0.177237
0.182449
0.185347
0.185966
0.183999
0.180784
0.169956
0.172954
0.167496
0.168718
-0.436051
-0.555651
-0.383896
-0.450605
-0.177177
0.298629
0.0338473
-0.0175705
-0.0293151
0.183146
0.354401
0.324712
0.43533
0.438176
-0.732578
-0.309485
-0.653667
-0.114199
-0.12669
0.439615
0.484267
0.502954
0.458671
0.410846
-0.353222
0.183975
-0.359519
-0.323731
-0.146345
-0.242123
0.402421
0.339349
0.347312
0.363845
0.389321
0.354947
0.337629
0.329908
0.359067
0.367019
0.171511
-0.0652792
-0.0977759
-0.142809
0.324852
0.207748
0.261601
0.172717
0.174114
0.17647
0.175635
0.160098
0.164918
0.161371
0.167188
0.170022
0.178012
0.178375
0.174455
0.176298
-0.123738
-0.0801007
-0.376279
-0.523124
-0.507822
-0.548749
-0.472819
-0.560935
-0.442135
-0.320821
-0.020068
-0.628532
-0.526438
-0.567576
-0.511227
-0.458648
-0.450323
0.0487111
0.122818
0.0609151
0.0960179
0.120071
0.122116
0.0202866
0.0189982
-0.00723438
0.0105762
0.0695654
0.0708594
0.0793435
0.034059
0.0297292
0.02038
0.0202593
-0.0118162
-0.0177766
-0.00569237
-0.0100603
0.0193432
0.0210298
0.0250371
0.0322833
0.0323064
0.0372948
0.167568
0.169047
0.168637
0.182396
0.191306
0.205485
0.179057
0.154125
0.146414
0.147325
0.124822
0.131583
0.129876
0.140875
0.159122
0.166418
0.164113
0.165831
0.153092
0.1544
0.140054
0.144267
0.12527
0.110317
0.100274
0.0155348
0.00964868
0.0122001
0.0127585
0.00910699
0.0103673
0.0356502
0.0294549
0.0335288
0.0273801
0.0285579
0.0165177
0.015871
-0.45488
-0.394302
-0.528211
-0.53903
-0.621287
0.562738
0.704533
0.488964
0.283742
0.286701
0.474851
0.617387
0.303521
0.389677
0.498488
0.138914
0.465863
0.179768
0.17964
0.177655
0.176587
0.177423
-0.35262
-0.256769
-0.234838
-0.185219
-0.060935
0.0439298
-0.0652959
-0.132251
-0.00668403
0.0237616
0.296044
0.310659
0.250516
0.277664
0.278845
0.102315
0.179971
0.224627
0.174721
0.232757
0.263506
0.219097
0.255721
0.186878
0.145
0.139279
0.0872881
0.121558
0.101692
0.0761581
0.169643
0.150906
0.159507
0.152179
0.170318
0.201245
0.196856
0.214651
0.233014
0.158488
0.114791
0.12958
0.154533
0.114678
0.127968
0.144588
-0.167855
-0.273834
-0.116026
-0.418433
-0.326644
-0.287673
-0.327219
-0.391778
-0.0909352
-0.721872
-0.654825
-1.34435
0.125238
0.527646
0.362575
0.375437
0.385763
0.362715
0.368992
0.393682
0.404611
0.313715
0.32986
0.332208
0.293281
0.325936
0.333662
0.338628
0.153677
0.0829639
0.0611675
0.0228578
-0.112408
-0.0751688
0.100104
0.0392056
-0.0267896
-0.0216231
0.139158
0.0233875
0.0908661
0.132957
0.0815337
0.020988
0.222953
0.284774
0.27097
0.242692
0.161655
0.178973
0.200958
0.238218
0.262189
0.291035
0.167442
0.171803
0.173066
0.171099
0.167303
0.170691
0.170679
0.172376
0.173863
0.176139
0.175091
-0.00518182
-0.0166678
-0.0556671
-0.0236287
-0.270859
-0.309164
-0.359596
-0.333505
-0.0258439
-0.056901
-0.188532
-0.105351
-0.0600377
-0.0371264
-0.0502814
-0.0746742
-0.20726
-0.249988
-0.249119
-0.0260966
0.112112
-0.00894614
-0.346554
-0.248497
-0.120902
0.0135986
0.0538875
0.0455373
0.0416486
0.0370455
0.0234967
0.0208677
0.0189394
0.0215405
0.0207334
0.0196964
0.0205486
0.0204519
0.0211934
0.0205555
0.0207967
0.154402
0.148014
0.149388
0.144097
0.143863
0.155428
0.159659
0.161014
0.16532
0.167362
0.159471
0.163613
0.166368
0.0242549
0.0194926
0.0219735
0.0201289
0.0197948
0.0178141
0.0173752
-0.122036
-0.290844
-0.212305
-0.349197
-0.449471
-0.415565
0.153659
0.0828402
0.112487
0.326256
0.194236
0.072382
0.133338
0.265073
0.0352428
0.160083
0.0232327
0.555043
0.408898
0.561294
0.204665
-0.103152
0.0400459
0.0583124
-0.0969478
0.00438175
-0.00505536
-0.121922
-0.0825807
-0.0644367
0.0104835
-0.0965677
-0.130738
-0.383556
-0.21754
-0.0671183
-0.0907806
0.0479632
0.0994583
-0.108278
-0.187746
-0.230683
0.281979
0.304639
0.318354
0.2858
0.310637
0.239584
0.22975
0.246206
0.259037
0.251354
-0.991999
-0.583443
-1.79288
-1.20997
-0.758819
0.158997
0.140122
0.3826
0.294401
0.369497
0.354712
0.304245
0.271132
0.282527
0.317443
0.0226161
0.128758
0.0905341
0.113222
0.040709
-0.0378995
0.250987
0.249013
0.275615
0.301762
0.275298
0.303361
0.163104
0.163347
0.165944
0.163698
0.160385
0.162112
-0.050837
-0.0478027
-0.143694
-0.19706
-0.21953
-0.173623
0.0306564
0.0252129
0.0219952
0.0232065
0.0287384
0.0305842
-0.165754
-0.200711
-0.304751
-0.214406
-0.343924
-0.399681
-0.425558
-0.325488
-0.238555
-0.250867
0.100283
0.339906
0.171541
0.329458
0.124247
0.205794
0.11574
0.0973189
0.124194
0.0232444
0.117456
-0.349778
-0.5426
-0.610172
0.443215
0.400114
0.202728
-0.0592006
-0.166258
0.135878
0.188587
0.156563
0.188768
0.235851
0.230894
-0.352867
-0.239732
-0.196534
0.116113
-0.110679
-0.063677
-0.084258
0.0757067
0.0229876
)
;

boundaryField
{
    wall-4
    {
        type            zeroGradient;
    }
    velocity-inlet-5
    {
        type            zeroGradient;
    }
    velocity-inlet-6
    {
        type            zeroGradient;
    }
    pressure-outlet-7
    {
        type            fixedValue;
        value           uniform 0;
    }
    wall-8
    {
        type            zeroGradient;
    }
    frontAndBackPlanes
    {
        type            empty;
    }
}


// ************************************************************************* //
