/*--------------------------------*- C++ -*----------------------------------*\
  =========                 |
  \\      /  F ield         | OpenFOAM: The Open Source CFD Toolbox
   \\    /   O peration     | Website:  https://openfoam.org
    \\  /    A nd           | Version:  6
     \\/     M anipulation  |
\*---------------------------------------------------------------------------*/
FoamFile
{
    version     2.0;
    format      ascii;
    class       surfaceScalarField;
    location    "16";
    object      phi;
}
// * * * * * * * * * * * * * * * * * * * * * * * * * * * * * * * * * * * * * //

dimensions      [0 3 -1 0 0 0 0];

internalField   nonuniform List<scalar> 
1300
(
3.75095
5.62643
-6.13542
3.75095
-5.94684
5.62643
-4.44277
4.44277
-1.38539
1.38539
1.87702
1.87394
-3.25633
3.25633
-4.48547
4.48547
-2.7458
2.7458
-5.24788
5.24788
-5.06857
5.06857
4.73294
-4.73294
-4.85078
4.85078
-1.83203
1.83203
-3.59157
3.59157
3.17588
-3.17588
-4.87626
4.87626
-0.504851
0.504851
-0.553781
4.30473
3.19717
3.19717
-2.46647
2.46647
-4.86334
4.86334
6.22193
-6.22193
9.30961
-9.30961
-3.1742
-3.40804
1.32915
-8.15779
-4.61769
-4.61769
-8.44109
8.44109
-2.81466
2.81177
2.93789
-2.93789
-1.67349
1.67349
-4.46713
0.0243536
-4.46713
4.35737
0.0854018
4.35737
-1.49941
0.114019
-1.49941
4.03474
-4.03474
1.21231
0.173081
1.21231
3.0678
-3.0678
-1.87663
3.75365
1.87432
-1.87143
6.17616
-1.87953
3.75346
-5.19623
5.19623
-3.06205
-0.194272
-3.06205
3.61641
-0.360085
3.61641
-5.30711
5.30711
-4.40462
-0.0808509
-4.40462
4.55762
-0.0721565
4.55762
2.97204
-2.97204
-2.7788
0.0330009
-2.7788
2.69032
0.0554759
2.69032
0.353612
5.27282
-5.98004
8.79182
-5.27282
0.0249326
5.21021
0.0376719
5.21021
-5.10461
0.0360397
-5.10461
5.01154
0.0570269
5.01154
4.82968
-0.0967465
4.82968
-4.84468
0.111745
-4.84468
-3.32818
-3.41834
-4.95981
0.10903
-4.95981
-1.859
0.0269648
-1.859
1.75708
0.0749564
1.75708
-3.58843
3.58843
-3.99558
0.404008
-3.99558
3.13248
0.0434001
3.13248
1.86748
1.88347
5.61843
-5.61843
2.44255
-4.79794
-0.0783284
-4.79794
-4.96124
-4.34838
4.96124
-0.0849727
-0.809237
0.304386
-0.809237
3.15684
0.0403316
3.15684
2.62159
0.0687308
-2.62159
0.155121
3.42182
-3.42182
1.80686
0.65961
1.80686
-5.5648
5.5648
4.95668
0.0548625
-4.95668
0.0933433
6.15676
0.0651711
6.15676
-6.20785
-0.0140812
-6.20785
3.36308
-6.77111
-3.41563
4.73753
0.11325
-4.73753
0.119844
2.91631
0.0215748
2.91631
-2.94055
2.94055
-2.98601
0.0481257
-2.98601
-2.12641
0.452927
-2.12641
1.32478
0.348705
1.32478
-4.36141
-0.105712
-4.36141
-4.30069
0.305107
4.30069
0.0566855
0.82545
-0.82545
-1.60001
0.100598
-1.60001
-4.15932
-0.202096
4.15932
-0.12458
-3.95837
-0.0763708
-3.95837
-3.0272
0.0411855
3.0272
0.0406018
3.11073
0.0461061
-3.11073
0.0429346
-1.8708
3.75428
-1.88015
3.75447
-4.96865
-0.227578
-4.96865
5.23464
-0.0384156
5.23464
3.23423
0.357338
-3.23423
0.172178
4.00212
-0.385711
4.00212
-5.35251
0.045397
-5.35251
5.22388
0.0832285
5.22388
4.24658
-0.244455
-4.24658
-0.158039
4.63223
-0.0746125
4.63223
3.03312
-0.0610814
3.03312
-2.9314
-0.0406337
-2.9314
2.8253
-2.8253
2.8031
0.0222065
-2.8031
0.0242968
-11.1241
11.1101
-0.0364906
-11.0877
5.17372
5.17372
4.27596
0.55372
4.27596
-5.02984
0.185155
-5.02984
3.32119
-6.73682
3.41058
-6.73876
3.40913
-11.5669
3.3541
-6.77243
5.10537
-5.10537
5.04571
0.05966
-5.04571
0.0858964
-1.83912
-0.0198795
-1.83912
-2.92173
-0.666704
-2.92173
4.09564
-0.507209
4.09564
-3.03943
3.03943
-3.08357
0.0441366
3.08357
0.048914
4.71505
-0.0828184
-4.71505
-0.0828821
1.02371
0.188595
-1.02371
0.214477
3.63221
-0.210388
3.63221
-3.24049
-0.181334
-3.24049
-1.81617
-0.0229456
1.81617
-0.00931248
-5.8102
0.245402
-5.8102
-11.1813
0.0936587
-11.1436
-6.11419
-6.11419
2.32689
11.1187
-2.91139
-0.0200099
2.91139
0.00491729
2.99398
0.0454479
-2.99398
0.0534316
-2.87331
0.0480087
2.87331
0.0672398
-2.51643
0.390014
-2.51643
-0.897649
0.897649
-1.07153
0.173884
1.07153
0.253247
1.11077
-0.285321
1.11077
1.69804
0.0590413
-1.69804
0.0980309
-3.89369
-0.0646744
-3.89369
5.29581
-0.0611633
5.29581
-3.10766
-0.132829
3.10766
-0.074542
-0.0352207
11.1453
-5.1385
0.0338914
5.1385
-11.2105
11.2443
-3.23869
0.722261
3.23869
1.03728
5.29318
0.271614
-5.29318
0.263346
5.16
0.0638785
-5.16
0.054639
-2.41798
-0.503749
-2.41798
-4.62828
-0.340371
4.62828
-0.532635
-11.4823
-0.20163
11.684
-11.4253
6.01183
0.144932
-6.01183
11.3893
-0.778528
-0.0469218
0.778528
0.119121
1.45599
-0.345216
1.45599
3.80428
-0.172063
-3.80428
-0.0894182
-5.35875
0.00624317
5.35875
-0.0629464
-1.91467
-0.503314
1.91467
-0.458679
-4.26452
4.30485
1.91164
-3.3358
-3.43531
-7.68418
1.85441
1.89987
4.29696
-7.1472
-4.41972
-7.02735
7.22427
-6.96092
-9.40104
9.30429
7.45505
-7.53142
-5.77219
5.8211
6.47491
-6.43431
1.87779
1.87586
6.81359
-7.00786
-15.1245
14.8969
9.77012
-9.85097
11.6627
-11.6173
-12.8702
12.934
-5.75273
5.78573
-6.63735
6.59672
-6.80452
6.72998
-3.28509
-3.45367
9.2355
-9.12647
11.7322
-11.8105
-7.78581
8.18982
3.38546
0.919395
3.43156
-1.88245
3.76023
-1.87102
3.78266
3.41715
-6.70224
3.31967
-6.75498
6.09395
5.63825
-6.00898
-1.6752
-5.83283
5.8544
-5.81689
5.88413
8.98794
-8.96359
-1.88424
3.7601
-1.87023
3.7701
-3.41946
-2.35273
3.37606
0.920902
5.64797
3.58754
-5.76122
-1.26614
-7.62618
7.45412
-7.94202
7.76069
-0.451894
5.84017
-5.38827
4.41144
-1.64046
7.48062
5.58381
5.76897
5.86286
-5.59125
1.09806
-6.48633
-6.39299
-2.6547
2.7553
2.71521
-2.54213
5.86907
1.58598
5.74449
-5.52898
-2.00244
-5.59365
3.81663
2.00447
3.86077
4.059
2.41591
4.10018
3.03044
-3.03876
0.00831938
-3.05961
6.09005
0.721342
-5.41234
-4.49144
5.05577
1.75783
4.69568
-4.54807
-2.4598
-4.37589
-9.64287
-5.48162
-9.98324
8.93906
5.95785
8.90065
-9.37193
9.30899
6.66024
3.10989
6.58808
-6.15222
-3.69875
-6.31026
10.6158
-2.04112
-8.57466
-7.42221
-5.44796
7.33898
4.32369
7.75859
5.17546
7.81323
3.40044
7.21534
-7.72413
2.27617
-3.85801
-1.89472
-3.83372
3.74597
2.03977
3.80144
-4.13054
-2.50682
-4.15055
-4.19815
-2.60637
4.25923
2.33748
-4.31591
-3.62611
4.44874
2.28124
3.12394
-7.54367
3.64849
-7.10216
-6.44624
-2.68023
-6.36035
4.18331
2.60691
-6.79022
-2.51894
10.9491
-5.31087
9.27391
-7.26501
-4.54551
-7.34789
-6.75651
-1.0293
-6.4514
-8.89456
8.39081
-9.25386
8.74665
13.3494
-6.6378
-6.71164
-3.97013
-2.46418
3.92719
-0.49563
-3.71297
3.72128
0.0472682
3.82992
4.74932
4.25369
-3.87187
-1.94501
-3.81844
3.84715
2.03698
3.89516
6.73675
2.25119
6.82215
-6.42676
-2.53683
-6.53247
9.14312
-8.69019
2.93902
-2.96197
5.16297
2.59772
-4.95258
-2.6736
6.0376
-3.04239
-2.99521
-12.3702
10.8953
1.47495
-4.88958
-0.478137
0.0267138
-5.60735
-3.79369
5.4956
0.273367
11.1686
7.37493
-5.51723
5.76263
6.16675
6.22161
-0.17138
5.92704
-5.20478
5.25466
-2.31912
-2.93554
5.27643
-5.47853
-1.25604
-5.26345
4.00742
0.265965
1.90897
-1.60458
-2.09333
-0.56137
-1.9953
1.64286
1.07235
1.83145
0.933002
1.8223
-2.98548
0.605808
2.37967
-2.05248
-1.93632
-3.48936
-0.937899
4.42726
5.42571
2.02841
-5.33629
-0.25736
2.76006
-2.6851
-0.771097
-2.71826
2.04139
-2.81249
-3.46417
-1.82758
5.29175
-3.35581
-0.462634
3.31036
0.550406
-3.78179
-2.05104
3.73366
0.366518
-3.13906
6.24495
-3.10589
-5.08407
2.53526
3.55479
4.53974
-4.79772
2.42984
2.36788
-1.24293
4.86575
-0.170074
4.48004
-5.78255
3.32276
4.86802
3.3218
-5.22536
0.849473
-4.93308
10.4628
-8.09983
-2.36297
6.74131
3.7215
7.69745
5.65198
-5.89471
13.5922
-1.17199
-6.92784
6.10507
-2.78327
5.86224
-8.64552
-11.5142
4.58639
-9.73136
9.73128
7.98023e-05
-2.40595
-6.96598
12.1373
-1.8735
-10.2638
7.02714
-5.86148
-4.81071
10.6722
-7.9026
8.50947
-3.34478
-5.16468
-7.56107
-4.05621
7.55482
1.75416
-9.78737
12.0635
-2.57203
5.86587
0.722209
5.79126
4.78758
-5.93301
1.14543
3.11502
-6.45981
4.32523
-10.2582
-4.99924
9.71752
-4.71828
-7.67946
-6.91372
-0.765744
1.9502
10.1133
-7.12566
5.40118
1.72448
3.34608
0.549085
-3.36828
-0.465435
0.364411
4.45079
-4.8152
4.16585
4.23458
3.35924
1.09155
3.78233
2.07207
-3.78725
-0.363296
-4.05655
1.45019
-1.71907
-3.57853
5.02872
-4.00463
0.426098
-2.67584
-3.5078
6.18364
-4.57056
3.07986
3.16509
5.11684
-4.88671
1.37891
-2.40333
-2.48338
2.62572
-4.34479
1.9207
3.10802
4.20193
0.57582
4.96263
4.75489
-7.56954
0.467382
8.34242
-7.07628
1.777
6.03623
-7.17818
0.264457
-6.09589
1.07848
-6.38934
-5.71174
5.63491
-6.66422
-3.0106
6.13464
0.687516
-6.19132
-0.26008
-5.90593
-2.98863
-6.40924
-3.14988
-6.10398
-9.04459
-1.62013
-7.42446
6.77068
-6.82211
-3.16113
7.35475
1.3919
-7.32663
7.2797
-7.37443
7.02922
0.096085
3.6252
4.34977
1.8856
-2.38227
4.26786
-4.99795
7.24914
-8.40157
3.40363
3.99755
-6.53439
-4.40402
5.01697
4.12615
5.36568
8.9906
-10.7792
1.78864
-10.9582
12.1057
-1.14758
-16.7265
5.76835
-7.73593
2.68586
0.25316
2.66599
0.673723
2.39489
-3.06861
-2.28825
-2.29756
-2.2486
-3.28782
5.53641
1.10388
-3.29292
2.18904
-3.42632
4.5302
-0.0275211
-3.2654
5.16928
-2.77439
5.42244
-3.45384
1.96859
3.2632
5.514
-2.25079
4.22504
-1.62732
1.73637
-3.98717
-1.55144
-2.99057
5.03034
-3.19307
3.61917
-0.215133
3.8343
-4.00654
0.964156
-0.647304
3.58728
3.7424
4.11964
-3.02809
2.86274
-4.49006
-1.12443
-3.91424
-0.806214
-0.275495
-3.78525
4.06075
6.14468
-6.42018
-5.38573
9.65902
-4.27329
7.75887
-5.49693
-2.26194
-4.31129
-4.3789
3.92127
2.00577
9.76464
0.159953
-5.65688
-5.04483
-4.00755
3.21246
2.0422
-2.05897
3.53392
2.03226
-0.123285
0.609592
1.22186
1.89072
-1.28113
0.168248
1.72247
-1.43634
2.00746
0.752591
-2.06651
0.0712036
-1.36521
3.4066
1.01446
-2.08681
0.805679
1.086
-3.40513
4.62414
-2.3305
-2.29365
5.71015
1.19587
-3.52636
4.06759
-3.80162
2.30311
-3.24101
-1.22325
-5.02487
-3.43889
-2.40239
4.59143
-3.13403
5.16243
1.12726
-4.90507
6.03234
-3.51874
1.69116
-2.98791
3.7405
-1.01146
-1.97644
2.75414
2.53761
-2.83066
0.112401
-0.076527
2.3037
-2.38022
-0.50879
-2.56127
-4.52485
4.89136
-2.15893
4.58877
2.10893
-1.91132
6.50009
1.82488
-3.7362
-3.2592
-3.72183
-1.36831
3.17142
-1.39737
-4.91288
-6.56206
5.15734
-0.677292
-6.92205
9.544
-2.62196
-5.16422
1.84146
4.89984
-8.09504
1.63523
-3.76981
5.77419
5.60412
4.92683
-11.6777
1.41389
-5.71984
2.84489
-8.56473
6.56638
-3.92664
8.51303
-11.0574
7.89629
-9.66552
6.15006
-2.41467
5.63108
-4.48565
2.94359
-6.99979
-5.24563
6.93171
-3.82182
7.65391
-4.27834
11.9323
-6.85037
7.03434
4.89791
-1.47661
-5.87128
-6.8715
5.39489
0.162841
5.9541
4.94657
-2.8745
4.58328
2.26833
-4.67166
-2.07646
-6.52511
1.85345
-3.36002
-1.91032
3.76377
3.20652
3.7556
1.28039
-3.29017
6.83402
-7.59976
-2.11573
-3.59601
6.8006
-1.40571
4.13426
-7.73026
-2.25509
4.72627
-0.530616
-4.19566
1.91153
-4.92213
1.36188
-6.28401
5.30234
-5.56242
2.18533
-9.92125
-5.1413
-5.02218
-2.23321
-5.14122
-7.62151
5.3883
-1.85316
5.42654
-8.6323
8.10169
-3.47344
8.86174
-5.29405
-1.11519
5.75273
1.27649
10.1382
0.148403
-4.55242
-1.84321
3.83302
-1.98981
1.36925
-3.63685
0.196165
2.4814
3.22875
-6.48881
-0.0455713
-4.59799
-3.88416
8.0103
5.77487
11.9196
1.14032
9.26006
-1.24976
10.4004
4.11592
4.36916
-2.97556
4.7642
1.08519
4.48881
-0.818204
2.7868
1.84778
1.87475
0.810354
2.29481
1.44759
3.25897
0.190361
-2.1072
4.68288
-8.69043
-0.973996
-8.13671
1.16758
5.43655
-4.26897
3.03307
-0.990866
1.04326
0.219621
-1.82404
1.60442
-2.71591
-1.94733
-0.224854
-1.52382
2.3295
1.88278
-2.10465
-0.611269
0.2585
-3.69739
2.98251
-2.87011
-0.3325
5.69983
-2.71202
0.331799
-1.02086
-2.22947
-2.79084
2.71963
6.23681
0.263279
3.13092
5.15464
3.1036
0.229102
6.90526
-6.90518
-3.35298
-5.4913
1.07509
5.97493
2.20146
7.91188
7.09938
5.69366
-2.0366
-9.63636
6.57633
-1.81214
5.42876
-1.2331
-5.05091
4.96112
2.28802
-5.64864
0.086218
-4.96469
-6.77683
-0.411753
8.51344
-9.72648
8.61129
5.62266
1.80181
-4.34223
-0.679943
4.16835
0.200815
10.6012
-0.876461
-7.25343
8.12989
-4.56009
3.5861
0.850016
2.6839
2.45444
1.46357
-5.78986
-10.0588
-1.76758
-1.63754
-4.06123
0.366029
-2.24881
6.16545
-2.57935
3.90351
5.55054
6.5938
-2.17255
-4.24763
6.44584
-2.54234
4.05146
)
;

boundaryField
{
    wall-4
    {
        type            calculated;
        value           uniform 0;
    }
    velocity-inlet-5
    {
        type            calculated;
        value           uniform -3.75095;
    }
    velocity-inlet-6
    {
        type            calculated;
        value           uniform -5.62643;
    }
    pressure-outlet-7
    {
        type            calculated;
        value           nonuniform List<scalar> 8(6.13542 5.94684 6.58223 6.82864 6.74652 6.7787 6.73177 6.76323);
    }
    wall-8
    {
        type            calculated;
        value           uniform 0;
    }
    frontAndBackPlanes
    {
        type            empty;
        value           nonuniform 0();
    }
}


// ************************************************************************* //
