/*--------------------------------*- C++ -*----------------------------------*\
  =========                 |
  \\      /  F ield         | OpenFOAM: The Open Source CFD Toolbox
   \\    /   O peration     | Website:  https://openfoam.org
    \\  /    A nd           | Version:  6
     \\/     M anipulation  |
\*---------------------------------------------------------------------------*/
FoamFile
{
    version     2.0;
    format      ascii;
    class       volVectorField;
    location    "16";
    object      U;
}
// * * * * * * * * * * * * * * * * * * * * * * * * * * * * * * * * * * * * * //

dimensions      [0 1 -1 0 0 0 0];

internalField   nonuniform List<vector> 
918
(
(0.985086 -0.000667162 0)
(0.00530174 2.96627 0)
(-0.00673896 1.62567 0)
(0.979682 0.00184127 0)
(-0.00149576 1.58401 1.11381e-21)
(-0.00704252 2.94854 -2.00037e-18)
(0.852027 1.15934 7.31232e-19)
(0.478493 0.207055 -8.66733e-21)
(0.999909 -0.000329847 0)
(0.0204877 0.946578 0)
(-0.00149006 1.28543 0)
(0.803546 -0.0081974 0)
(0.0101537 2.93147 0)
(0.00287549 2.79407 0)
(-0.000541623 3.20171 1.13434e-18)
(-0.0062505 1.49703 -1.19424e-20)
(0.584474 0.0827671 5.40823e-19)
(0.188296 1.1239 6.69681e-19)
(0.965367 0.00726595 0)
(-0.00404352 1.42784 0)
(0.179834 0.269346 -4.5309e-19)
(1.00153 -0.00451491 0)
(0.999893 -0.00890247 0)
(0.975164 -0.00654744 0)
(0.727375 -0.0161836 0)
(0.0243165 2.63805 0)
(-0.0127262 2.91187 6.89986e-19)
(-0.0159155 1.65226 0)
(-0.0160014 1.75856 0)
(-0.0151448 1.64843 0)
(-0.00311666 1.81946 0)
(-0.00177482 1.60251 -8.8136e-22)
(-0.00411993 1.50266 0)
(-0.0222446 2.98757 -7.04285e-23)
(-0.0165502 3.00552 1.55523e-18)
(0.00229845 3.00066 0)
(0.871092 -0.00590192 0)
(0.351504 0.896574 -4.20468e-20)
(0.85936 1.17671 -1.06876e-18)
(0.98774 1.05018 9.75298e-19)
(0.720025 1.25518 -1.69937e-19)
(0.742457 1.22224 9.73876e-19)
(0.510056 0.287473 8.45668e-21)
(0.507158 0.181569 0)
(1.19311 0.538647 0)
(0.472094 0.313881 3.97122e-20)
(0.425046 0.210385 -4.12113e-20)
(0.921059 -0.00518137 0)
(1.00032 -0.00012445 0)
(0.999904 0.000295674 0)
(1.00356 -0.0074383 0)
(1.0009 -0.00124508 0)
(1.00009 -0.000153769 0)
(0.089191 1.60719 -3.68623e-19)
(0.00100191 1.02465 0)
(0.0714027 0.86926 0)
(-0.0332234 1.1189 0)
(-0.0115631 1.04264 0)
(-0.00858138 1.58374 0)
(-0.00716397 1.45844 0)
(-0.00349059 1.27685 0)
(-0.0132616 1.49101 0)
(-0.00942622 1.29999 0)
(0.880741 0.000423333 0)
(0.888323 0.011495 0)
(0.815687 -0.00100956 0)
(0.881151 0.0163459 0)
(0.784598 -0.00771526 0)
(0.014003 3.00016 7.34088e-19)
(0.0112777 3.00566 0)
(0.00646053 3.004 0)
(0.0119453 2.99695 8.2134e-24)
(0.00834192 2.95871 -1.09104e-18)
(0.0123048 2.98297 0)
(0.00895704 2.90466 0)
(0.0216797 2.93083 1.51733e-24)
(0.0038439 2.82373 0)
(0.0272372 2.91829 0)
(-0.00184617 2.74385 0)
(0.311945 3.60387 0)
(-0.123272 3.68735 0)
(0.153517 3.29248 -1.05578e-18)
(0.006928 3.0221 0)
(-0.0122302 1.79868 0)
(-0.00604133 1.63741 1.17809e-20)
(-0.00629901 1.51491 -2.04945e-20)
(0.640193 0.152516 -1.86186e-19)
(0.601917 0.0487989 -1.79479e-19)
(0.609608 0.186801 -5.61107e-19)
(0.551071 0.117475 -3.75275e-19)
(0.293665 0.978934 0)
(0.270528 1.23879 -6.56736e-19)
(0.350638 1.22687 1.0808e-18)
(0.988737 0.00917368 0)
(0.945132 0.00858725 0)
(1.00027 0.000802372 0)
(1.00244 0.00920688 0)
(1.00307 0.00945796 -9.76705e-19)
(0.992003 0.00925179 7.386e-19)
(-0.0163469 1.55498 0)
(-0.010628 1.40909 0)
(-0.0208588 1.65736 0)
(-0.0177086 1.59337 0)
(-0.00222292 1.45908 0)
(0.245531 0.285955 1.40258e-19)
(0.288175 0.261549 0)
(0.99367 -0.00716893 0)
(0.953349 -0.00647695 0)
(0.855353 0.0198776 0)
(0.820763 0.0372274 0)
(0.762671 -0.0108794 0)
(1.02274 -0.00519457 0)
(0.774612 0.0490249 0)
(0.649891 -0.0158613 7.01345e-19)
(-0.039236 2.86446 4.10328e-19)
(0.0351073 2.91307 0)
(0.04475 2.88958 0)
(0.00295568 2.69883 0)
(-0.00876412 2.98598 6.4623e-19)
(-0.0147341 2.89484 0)
(-0.0111167 2.99181 -2.01897e-18)
(-0.0116997 2.92982 6.91529e-19)
(-0.0125378 1.81209 0)
(-0.0101928 1.80743 0)
(-0.00289033 1.63347 -2.4155e-22)
(-0.0035929 1.60385 0)
(-0.00487027 1.4979 0)
(0.932358 -0.00315463 0)
(0.861704 -0.0057237 0)
(0.871374 0.0111635 0)
(0.945441 -0.00286545 0)
(0.888691 -0.00505999 0)
(0.478051 1.09982 4.12878e-20)
(0.529655 1.17951 0)
(0.306607 0.816085 2.86715e-21)
(0.253002 0.684339 0)
(0.965341 1.06794 -2.8575e-19)
(1.0782 0.875347 5.76328e-19)
(0.477799 1.30918 0)
(0.579463 1.32595 0)
(0.605216 1.22804 0)
(0.116733 0.0948869 -1.0381e-19)
(0.537538 0.254748 0)
(0.518424 0.15731 1.08139e-19)
(1.03949 0.921846 0)
(1.11074 0.761066 0)
(1.14249 0.694946 -5.02404e-19)
(1.17048 0.602371 0)
(1.22702 0.391595 4.85952e-20)
(0.95563 -0.00442651 0)
(0.961677 -0.00509497 0)
(0.902913 -0.00403966 0)
(0.983808 -0.00742497 0)
(0.975475 -0.00649431 0)
(0.93658 -0.0052335 0)
(1.00036 0.0027643 0)
(1.00088 0.00122484 0)
(1.00004 0.000738796 0)
(0.0549731 1.81746 2.22417e-19)
(0.0972515 1.53492 0)
(0.0380506 1.81577 2.69799e-19)
(0.0399804 1.59915 -2.28238e-19)
(0.107149 1.12928 -5.54645e-19)
(0.0592293 1.03134 0)
(0.168273 0.947562 0)
(-0.0331834 1.24875 0)
(-0.0022315 1.15624 0)
(-0.00456747 1.72792 -9.67455e-22)
(-0.00297381 1.61209 0)
(-0.00892674 1.70668 -4.16468e-20)
(-0.0100385 1.56578 8.04771e-20)
(-0.0200568 1.35127 0)
(-0.0149102 1.41709 0)
(-0.00739121 1.22363 0)
(-0.0159768 1.51474 0)
(-0.0115791 1.33052 0)
(0.958924 0.0166409 0)
(0.903102 0.00539226 0)
(0.939872 0.0108055 0)
(0.869551 0.00127611 0)
(0.821911 -0.00283072 0)
(0.911427 0.00333549 0)
(0.90182 0.0057729 0)
(0.818208 -0.00568029 0)
(0.0104854 3.06732 -6.46965e-21)
(0.0144992 3.05954 0)
(0.0125598 2.97033 0)
(0.00771169 2.87635 0)
(0.900777 4.00365 0)
(1.19591 3.39338 1.02332e-18)
(0.0841312 3.10388 0)
(-0.014816 2.92538 0)
(-0.0135738 1.79499 0)
(-0.0136889 1.79544 0)
(-0.0132082 1.79482 0)
(-0.0064548 1.80787 3.49532e-21)
(-0.01085 1.80547 0)
(-0.00836781 1.80312 0)
(-0.0011562 1.52745 1.2228e-21)
(-0.00082052 1.66562 2.22964e-20)
(-0.00413941 1.65341 2.09513e-20)
(-0.00320163 1.51864 0)
(0.663114 0.108076 2.74907e-19)
(0.602666 0.0165192 -2.68783e-19)
(0.194453 1.50536 0)
(0.344924 0.732998 -2.29114e-19)
(0.0943191 1.58949 -7.76785e-19)
(0.217923 1.19628 7.74262e-19)
(0.907897 0.0104377 0)
(0.968297 0.0113381 0)
(0.975676 0.0117473 0)
(0.926657 0.00912567 0)
(-0.0191461 1.52822 0)
(-0.0193493 1.53843 0)
(-0.0119411 1.36897 0)
(0.431321 0.32161 3.62362e-19)
(0.367167 0.295858 -4.41681e-19)
(0.384494 0.238824 0)
(1.14019 0.0865401 -6.21266e-21)
(1.1283 0.0415966 0)
(1.05588 0.0365606 0)
(0.967998 0.00886356 0)
(0.668014 0.0751537 0)
(0.70184 0.0428529 -1.14174e-18)
(0.603486 -0.011234 4.45515e-19)
(0.0117946 2.97824 4.93969e-19)
(-0.0324034 2.8635 4.68287e-20)
(0.00871829 3.05319 -1.38905e-20)
(0.0151391 3.04373 5.30326e-19)
(-0.0119053 3.00008 2.30135e-20)
(-0.0122002 2.95242 -9.35278e-23)
(-0.0150167 3.01339 -4.41489e-19)
(0.0138005 3.02706 3.08511e-19)
(0.00739507 3.03429 -4.94615e-19)
(0.936902 0.00783515 0)
(0.935355 0.00228189 0)
(0.858623 -0.00116902 0)
(0.957761 0.0130728 0)
(0.946699 0.0128148 0)
(0.890537 0.00912704 0)
(0.920916 0.00771592 0)
(0.932168 0.0153981 0)
(0.843287 0.00624006 0)
(0.660846 1.41398 2.96106e-19)
(0.683779 1.52868 0)
(0.189145 0.359064 1.79389e-20)
(0.147024 0.500565 1.43403e-19)
(0.214333 0.626961 -8.24874e-20)
(0.184017 0.520214 1.52865e-19)
(0.302542 0.663254 6.32995e-19)
(0.129623 0.145577 2.15973e-19)
(0.581622 0.216407 4.02956e-19)
(0.562333 0.240785 9.92425e-20)
(0.541366 0.144084 2.00217e-19)
(1.21677 0.448881 3.27126e-19)
(1.23689 0.246812 3.40107e-19)
(0.0315374 1.78164 1.10536e-19)
(0.0325489 1.60286 0)
(1.00534 0.0305083 0)
(0.973726 0.0206381 0)
(0.92712 0.00108444 0)
(0.0120405 3.07491 0)
(0.017287 2.94371 8.84086e-19)
(0.0141927 2.95667 0)
(0.00584268 2.84931 -8.77552e-19)
(0.00866831 3.09085 2.12213e-19)
(0.0118032 3.08212 0)
(0.705032 1.82949 -2.47917e-19)
(1.2394 2.64527 8.25673e-19)
(0.691495 2.01067 -1.65095e-18)
(0.0236005 2.97972 -3.78831e-19)
(0.0427837 3.00548 0)
(-0.0369028 2.88347 0)
(-0.00378589 1.67019 -4.24985e-21)
(-0.00111098 1.66908 -5.14635e-20)
(-0.00111279 1.53891 -6.93371e-21)
(0.239045 1.3131 7.20261e-19)
(0.325821 0.46926 -5.01519e-19)
(0.0553846 1.76513 5.10012e-19)
(0.0891166 1.70489 -6.2992e-19)
(0.151247 1.40453 8.26056e-20)
(0.00700975 3.12025 -1.11697e-18)
(0.0134749 3.12104 1.22777e-18)
(-0.00474593 2.98011 5.78653e-19)
(-0.000946089 2.97564 -5.26854e-19)
(-0.0178792 2.87828 -5.89376e-19)
(0.0129949 3.09909 -1.55537e-18)
(0.00462516 3.1053 1.57239e-18)
(0.183012 0.550273 0)
(0.115379 0.472851 -2.87109e-19)
(0.125453 0.145583 1.26926e-19)
(0.308259 0.776606 6.31263e-19)
(0.203536 0.194701 -9.63517e-19)
(1.22547 0.168747 -7.16207e-20)
(1.23277 0.304435 0)
(1.22003 0.110588 1.36148e-19)
(0.00175566 1.75804 -1.0763e-21)
(0.0238822 1.77838 0)
(0.0145573 1.6078 0)
(0.29943 1.1917 -2.54115e-19)
(0.349858 1.02115 -5.26444e-19)
(0.237136 0.314677 8.97914e-19)
(1.00661 -0.0107735 0)
(1.0076 -0.00747997 1.79477e-19)
(-0.0126743 1.80151 0)
(-0.0212463 1.81072 0)
(1.00244 0.00351612 1.49774e-21)
(1.00323 0.00755068 3.67515e-19)
(-0.0067808 1.81148 -4.59614e-21)
(-0.00533236 1.81012 0)
(0.0448272 3.18066 1.9846e-19)
(0.384635 3.56585 0)
(1.07373 0.683401 6.695e-20)
(1.01091 0.0106704 -2.21027e-21)
(1.01968 -0.0120995 0)
(1.00168 6.27322e-05 4.86455e-23)
(-0.158752 1.20544 0)
(-0.103306 2.47846 0)
(-0.0641894 1.72249 0)
(-0.0569061 1.93416 6.52768e-20)
(-0.0404006 1.86553 3.71559e-20)
(1.0034 0.00969058 2.0753e-21)
(1.04537 0.0164557 0)
(1.07774 0.0277276 0)
(-0.0144099 1.79688 0)
(-0.0119807 1.82308 0)
(-0.0265469 1.7959 0)
(0.30546 1.33013 -4.72348e-19)
(1.00954 -0.00921523 0)
(1.00966 -0.0140342 0)
(1.00227 0.000154532 2.25474e-19)
(1.00592 -0.00566383 -2.6857e-19)
(1.00104 -0.00110654 0)
(-0.0165998 1.79464 0)
(-0.014343 1.79526 0)
(-0.0140824 1.79603 0)
(-0.0244554 1.79761 0)
(-0.0205089 1.79434 0)
(-0.02402 1.79743 0)
(1.02056 -0.0080331 0)
(1.02064 0.0136579 -1.27162e-21)
(0.764459 1.30032 5.40944e-19)
(1.00307 0.000303616 -2.25605e-19)
(1.00419 0.00440249 2.73939e-19)
(1.00129 0.001942 0)
(1.01132 0.0099424 2.1587e-19)
(1.00721 0.00871755 -2.759e-19)
(1.00845 0.0109283 0)
(-0.0110203 1.82326 0)
(-0.00837479 1.81821 1.05536e-20)
(-0.00924656 1.81626 -7.29947e-21)
(1.18814 0.260464 -1.2322e-19)
(1.12359 0.0867415 0)
(0.0536906 3.0904 -5.86893e-19)
(0.0535621 2.86659 -4.44004e-20)
(0.11267 3.20389 7.41575e-19)
(0.129159 3.21658 -8.30037e-20)
(0.150953 3.27058 0)
(0.0242222 3.13904 1.4574e-19)
(0.0671415 3.16278 5.8172e-19)
(0.066927 3.18247 -2.7611e-19)
(0.0293126 3.12806 0)
(0.687642 0.335884 0)
(0.641893 0.399048 0)
(1.06859 0.70871 -2.56762e-19)
(1.03129 0.862811 3.98283e-19)
(1.12934 0.601637 0)
(1.16257 0.550588 0)
(1.01469 0.0103415 -4.07255e-19)
(1.01335 0.0101573 5.08492e-19)
(1.02297 -0.0123514 0)
(1.0191 -0.0178173 0)
(1.00749 0.00241773 0)
(1.01019 0.00284922 0)
(1.00401 0.00283098 0)
(1.00912 0.00743691 0)
(1.00733 0.0050972 0)
(1.00453 0.00515941 0)
(-0.158582 1.25325 0)
(-0.175586 1.26224 0)
(-0.0730031 1.17738 0)
(0.0427416 1.20958 0)
(-0.068441 2.57887 0)
(0.0374273 2.59776 -2.46155e-19)
(-0.128285 2.47164 0)
(-0.109078 2.36551 7.0583e-20)
(-0.0546072 2.08963 -1.09298e-19)
(-0.0525125 1.73316 0)
(-0.0344729 1.75138 0)
(-0.082837 1.69171 0)
(-0.0727827 1.64073 0)
(-0.127324 1.86466 -2.79764e-20)
(-0.0527195 1.88452 4.34004e-20)
(-0.054028 1.92899 5.67875e-20)
(-0.0451455 1.90845 0)
(-0.0376848 1.86413 -8.46167e-20)
(-0.0198604 1.8505 -4.1719e-20)
(-0.116172 1.85144 2.2506e-20)
(-0.0758698 1.85936 -5.78736e-20)
(-0.0814969 1.89161 -7.51061e-20)
(1.01219 0.0193292 3.99808e-19)
(1.01297 0.0102314 -4.88661e-19)
(1.00545 0.0190444 -4.22874e-19)
(0.994039 0.0140779 5.38031e-19)
(1.04363 0.0205467 0)
(1.03675 0.00534801 0)
(1.06131 0.039783 0)
(1.05236 0.02469 0)
(1.05765 0.0138964 0)
(1.10487 0.0757206 0)
(1.08294 0.0534986 0)
(1.09721 0.0426757 0)
(-0.010372 1.81343 -1.31463e-21)
(-0.0155996 1.80305 0)
(-0.0115636 1.80705 0)
(-0.011164 1.8269 1.24333e-20)
(-0.0094272 1.82856 -5.65856e-22)
(-0.0200444 1.79772 1.2827e-20)
(-0.0201196 1.79691 -1.29471e-20)
(-0.0243341 1.79777 0)
(-0.0211251 1.79819 0)
(-0.0202019 1.79793 0)
(-0.0266011 1.79574 0)
(-0.0253997 1.7884 0)
(0.436275 1.42 8.93969e-19)
(0.394947 1.44591 3.20514e-19)
(0.613447 2.45306 -1.6902e-19)
(0.408131 2.57343 4.17871e-19)
(0.534475 2.11529 -1.08994e-19)
(1.01974 -0.00757261 0)
(1.0158 -0.00941202 0)
(1.01832 -0.0130085 0)
(1.00802 -0.000793136 0)
(1.00461 -0.00120908 0)
(1.00735 -0.00445369 0)
(1.01083 -0.00521759 0)
(1.01308 -0.00498856 0)
(1.02059 0.0127619 3.85173e-19)
(1.01189 0.0116681 -5.0138e-19)
(1.02393 0.012745 -3.9427e-19)
(1.02143 0.0132836 4.94413e-19)
(0.738939 1.32276 0)
(0.659099 1.37646 6.24523e-19)
(0.853659 1.21236 3.63604e-19)
(0.856176 1.20993 -4.8206e-19)
(1.14317 2.62691 -5.2932e-19)
(0.833761 0.122959 2.71545e-19)
(1.128 0.0936566 0)
(1.16562 0.176203 1.01999e-19)
(1.15317 0.160215 4.57013e-21)
(0.975094 0.127179 0)
(0.102991 3.03561 -9.8832e-20)
(0.100021 2.90584 -6.65623e-19)
(0.0503748 2.35455 4.45472e-19)
(0.158674 0.0720572 -2.08604e-19)
(0.35022 3.46395 -4.82022e-19)
(0.200766 3.35322 0)
(0.229713 3.41738 6.27891e-19)
(0.238385 3.09122 -1.77686e-19)
(0.273894 3.21037 0)
(0.00808384 3.12205 3.10891e-20)
(0.0191058 3.13101 -3.77018e-19)
(0.0176947 3.12686 5.5493e-19)
(0.0362534 3.1397 0)
(0.034252 3.15099 0)
(1.25413 2.59173 0)
(0.495048 0.836388 -2.17626e-19)
(0.953322 1.04151 -2.03674e-19)
(0.946777 1.06239 0)
(0.801765 0.952094 5.8997e-20)
(1.02418 0.905269 2.73545e-20)
(0.43399 0.460632 -5.2181e-19)
(0.713275 0.3322 -2.54952e-20)
(0.704851 0.295951 2.12027e-19)
(0.641677 0.419672 1.6858e-20)
(0.583181 0.417808 -6.9743e-19)
(0.693752 0.346449 0)
(0.702339 0.426636 3.65157e-19)
(0.701166 0.425082 0)
(0.682345 0.388094 0)
(0.667808 0.343594 0)
(0.716197 0.614339 1.11283e-19)
(1.19021 0.284185 9.23288e-20)
(1.17245 0.418744 0)
(1.17585 0.392341 0)
(0.764696 0.225836 3.18658e-19)
(0.765766 0.517958 -1.7722e-19)
(0.710236 0.485241 2.87741e-19)
(0.902636 0.405941 -2.5045e-19)
(1.01686 0.00915577 2.6963e-19)
(1.01757 0.00991323 -2.74368e-19)
(1.01115 0.00820748 0)
(1.02087 -0.0118248 0)
(1.0216 -0.0143735 -2.4304e-19)
(1.01456 -0.0216444 2.40327e-19)
(1.03327 0.00615154 0)
(1.02808 0.014027 0)
(1.01288 0.00499781 0)
(1.01406 0.0079499 0)
(1.01727 0.00120989 0)
(1.01457 0.000333915 0)
(-0.187598 1.36906 0)
(-0.176988 1.40409 0)
(-0.0633289 1.09785 3.80498e-19)
(0.303375 1.30525 2.92481e-19)
(0.14834 1.18276 6.3576e-19)
(0.211899 1.23945 -1.01735e-18)
(0.144556 1.19661 0)
(-0.0946389 1.94748 6.49476e-19)
(-0.236241 1.83455 0)
(0.528939 2.24145 1.62413e-19)
(0.409903 2.46646 2.08871e-19)
(0.135623 1.6632 -5.71148e-19)
(0.378063 1.1938 2.87795e-19)
(0.20539 1.17455 -2.26346e-19)
(0.491265 1.24141 5.98595e-19)
(0.398759 1.76027 0)
(0.484931 1.7769 -4.65671e-19)
(-0.237603 2.0585 2.6169e-21)
(-0.0796503 2.16242 0)
(-0.249665 2.23079 4.58333e-21)
(-0.2273 2.1503 0)
(-0.10114 2.32655 -7.98746e-20)
(-0.0661137 2.20081 0)
(-0.127506 1.77163 -1.58885e-20)
(-0.171445 1.81215 0)
(-0.157578 1.70196 0)
(-0.132517 1.72479 1.79255e-20)
(-0.066713 1.96878 -1.5694e-20)
(-0.0526509 2.06178 1.21886e-19)
(-0.0478436 2.01093 8.50762e-22)
(-0.0686308 1.82314 2.4965e-20)
(-0.087051 1.81602 1.15902e-20)
(-0.0289298 1.7672 0)
(-0.0236036 1.77366 0)
(-0.2424 1.89881 -5.52241e-21)
(-0.221273 1.72623 -1.8357e-20)
(-0.201284 1.82046 1.96075e-20)
(-0.318789 1.88857 0)
(-0.0178548 1.81774 -4.71859e-20)
(-0.0178037 1.8259 2.25685e-20)
(-0.01775 1.82668 -6.9207e-21)
(-0.0550224 1.81715 -2.99345e-20)
(-0.029094 1.8443 -1.12394e-20)
(-0.0382921 1.85264 5.99023e-20)
(1.02475 0.0110236 -2.61981e-19)
(1.02228 0.0124666 2.649e-19)
(1.0201 0.00709637 0)
(1.00063 0.0430226 3.736e-19)
(0.995315 0.0316366 -4.48161e-19)
(0.971187 0.0267235 5.17553e-19)
(0.991795 0.0819133 -4.9794e-20)
(1.02336 -0.00619977 0)
(1.03013 0.00723131 2.1871e-19)
(1.02336 -0.00385396 -2.1449e-19)
(1.04346 0.0385847 -1.16883e-20)
(1.04608 0.0278718 1.0333e-19)
(1.03746 0.0561272 0)
(1.03003 0.0451423 -3.98682e-20)
(1.02498 0.0268762 0)
(1.02189 0.0241787 0)
(1.03635 0.0093862 0)
(1.03166 0.0105946 0)
(1.03192 0.0268 8.25508e-20)
(1.03372 0.0206102 -1.88269e-19)
(1.03558 0.0306293 -8.07818e-20)
(1.03604 0.0307022 -9.49957e-20)
(1.03273 0.0582907 1.68932e-19)
(1.06084 0.0556746 0)
(1.05045 0.0892897 0)
(-0.018141 1.81832 -1.79256e-20)
(-0.0163011 1.8072 -1.55361e-21)
(-0.0184122 1.8072 0)
(-0.0132406 1.81957 1.91142e-20)
(-0.0113799 1.81523 2.75702e-21)
(-0.0113315 1.81866 -2.8403e-21)
(-0.0149202 1.84654 3.53966e-20)
(-0.0171412 1.83344 -2.50894e-21)
(-0.019951 1.83617 1.25172e-20)
(-0.00817022 1.83422 -1.87262e-20)
(-0.00873438 1.83669 2.31552e-20)
(-0.0243275 1.79841 4.01966e-22)
(-0.0228549 1.80147 2.14145e-20)
(0.528843 1.32841 -4.42082e-19)
(0.529666 1.36769 -4.74039e-19)
(0.638026 1.4226 -6.04323e-19)
(0.513101 1.46502 -3.18444e-19)
(0.524296 1.46213 0)
(0.640842 2.38447 1.29972e-19)
(0.692222 2.37196 2.2577e-19)
(0.433164 2.5441 9.38056e-20)
(0.405971 2.62925 -1.33105e-19)
(0.552538 2.57079 2.52072e-19)
(0.54345 2.47491 0)
(0.557634 2.47526 -3.51228e-19)
(0.129283 2.63396 6.69385e-19)
(0.296653 2.62768 -2.55971e-20)
(0.215279 2.63108 -9.67017e-19)
(0.936097 2.36388 1.47229e-19)
(0.831491 2.33823 0)
(1.01145 0.000243342 8.90814e-21)
(1.01382 -0.00425411 -7.53525e-21)
(1.01434 -0.00432452 -1.32784e-19)
(1.01348 -0.00413748 1.33394e-19)
(1.01304 -0.000703973 0)
(0.64239 1.27712 0)
(0.637458 1.15327 0)
(0.748165 1.0764 0)
(0.629273 1.10932 0)
(1.17915 2.64768 3.95603e-20)
(1.05379 2.37145 0)
(0.817242 2.30329 -2.41098e-21)
(0.808439 2.48659 0)
(0.893398 2.58027 -6.66517e-21)
(0.920442 2.5395 4.48461e-21)
(0.83144 0.126603 0)
(0.805406 0.144563 8.12362e-20)
(0.912991 0.129798 4.05262e-19)
(0.863707 0.110227 -1.63226e-19)
(0.855982 0.0794127 -4.93599e-19)
(1.02348 0.211814 -2.09335e-19)
(0.944847 0.26735 -1.04189e-20)
(0.88742 0.294169 3.55291e-19)
(0.977979 0.211861 2.61897e-19)
(0.925967 0.167682 -5.05838e-19)
(0.890456 0.179126 6.73396e-20)
(0.908781 0.276283 -1.23397e-19)
(0.884869 0.194393 0)
(0.974215 0.174642 2.39017e-19)
(1.00335 0.169448 0)
(1.00676 0.187202 0)
(1.07844 0.100363 6.62456e-20)
(1.01261 0.148269 -1.01326e-20)
(1.01093 0.219125 -4.35749e-20)
(1.04739 0.181966 0)
(1.01541 0.0238386 1.99896e-19)
(1.02431 0.0424922 2.35292e-19)
(1.02211 0.0282011 -1.98421e-19)
(1.01638 0.0458617 -1.58602e-19)
(1.00325 0.0467364 -2.64375e-19)
(0.978023 0.130656 0)
(0.982357 0.0778425 0)
(0.971352 0.0470427 -1.87591e-19)
(0.931655 0.06046 7.94362e-20)
(1.00019 0.081755 2.24959e-19)
(1.02243 0.1012 -2.1259e-19)
(1.01731 0.134936 2.01164e-19)
(0.998384 0.121978 0)
(1.0338 0.0955901 0)
(1.02026 0.0788238 -9.15091e-20)
(1.01916 0.0770788 -1.78309e-19)
(0.590054 1.09745 -1.18429e-19)
(0.629177 1.50061 2.2479e-19)
(1.14463 2.77248 9.51114e-20)
(1.19547 3.1346 -6.71052e-20)
(1.24234 2.75373 5.41252e-19)
(1.28867 2.72062 -2.80124e-19)
(1.25681 2.32683 -3.32453e-20)
(1.18309 3.04233 2.17071e-19)
(1.19772 3.00105 -2.35459e-19)
(1.17421 3.2851 -2.4325e-19)
(1.39773 2.99557 3.01755e-19)
(1.41013 2.93188 0)
(0.51916 0.850468 -9.87532e-21)
(0.250947 1.25951 2.75367e-19)
(0.47838 0.546685 3.36495e-19)
(0.335878 0.321517 3.90844e-19)
(0.575561 0.438724 3.88396e-19)
(0.540525 0.509381 -6.18191e-19)
(0.542184 0.517381 5.12434e-19)
(0.521056 0.482019 -2.03235e-19)
(0.501139 0.422667 4.69152e-19)
(0.771689 0.259523 -1.78098e-19)
(0.739595 0.288433 0)
(0.739145 0.249132 1.15583e-20)
(0.692615 0.521004 1.868e-19)
(0.663691 0.495867 -6.89041e-19)
(0.626778 0.500509 2.32685e-20)
(0.64404 0.479964 0)
(0.654827 0.74177 1.29033e-19)
(0.73604 0.772308 6.79743e-20)
(0.695892 0.84266 -8.70064e-20)
(0.808068 0.78865 -1.36972e-20)
(0.873096 0.83897 1.58043e-20)
(0.874142 0.843475 -1.62252e-20)
(0.795226 0.63757 -1.897e-19)
(0.878989 0.703615 1.27478e-20)
(0.941491 0.706963 0)
(0.927592 0.675136 -3.39892e-21)
(0.97405 0.315454 5.47223e-20)
(1.08518 0.299331 -1.89221e-20)
(1.00567 0.260051 8.51504e-20)
(0.946097 0.344597 -1.28963e-19)
(0.978115 0.428155 0)
(1.05202 0.400968 0)
(0.883723 0.347232 9.25337e-21)
(0.825619 0.28404 0)
(0.833191 0.276438 1.88291e-19)
(0.883461 0.294085 2.4761e-22)
(0.894739 0.413739 6.8956e-19)
(0.826918 0.489875 1.74368e-19)
(0.846553 0.434262 -2.33892e-19)
(0.801476 0.422159 2.48404e-19)
(0.788696 0.409194 1.6975e-19)
(0.785822 0.398149 -1.6656e-19)
(1.02145 -0.0111508 2.12318e-19)
(1.02033 -0.00948085 0)
(1.01872 -0.00790552 1.42089e-19)
(1.02162 -0.00952378 -3.16634e-19)
(1.02796 -0.00256864 1.53301e-19)
(1.02668 0.00762737 -3.2453e-19)
(1.02601 0.0114268 0)
(1.02415 0.0136035 -6.78589e-20)
(1.01901 0.00274244 1.68972e-19)
(1.01705 0.0100059 -8.55783e-20)
(1.02125 0.00900956 6.31579e-20)
(-0.11604 1.6081 0)
(-0.179162 1.67401 0)
(-0.162095 1.49796 0)
(-0.113109 1.53695 0)
(-0.33282 1.58123 -5.38953e-19)
(-0.29069 1.40254 1.79282e-19)
(-0.310772 1.85018 1.507e-19)
(-0.367801 1.61152 -2.22743e-19)
(-0.273226 1.72777 5.54919e-20)
(-0.289339 1.71613 -4.29561e-20)
(-0.307452 1.55392 9.39604e-20)
(-0.286964 1.5606 1.96838e-19)
(-0.230648 1.5827 1.63123e-20)
(-0.233229 1.63777 5.84127e-21)
(-0.26153 2.27249 -1.10658e-21)
(-0.25788 2.38555 0)
(-0.311357 2.2879 -1.10187e-19)
(-0.349571 1.96225 -1.1339e-19)
(0.229475 2.20494 1.10949e-19)
(0.15866 2.6131 0)
(0.182727 2.54229 -9.76459e-20)
(0.287154 2.54329 6.75144e-20)
(0.0242823 2.27972 3.26318e-19)
(-0.162168 2.31227 -2.12577e-19)
(-0.141468 2.5795 0)
(-0.19694 1.92478 -2.06644e-20)
(-0.135518 1.92731 -1.08194e-19)
(-0.154032 1.89493 0)
(-0.14585 2.01935 -2.73607e-21)
(-0.216776 2.02469 1.97729e-20)
(-0.0766925 1.77087 4.06484e-21)
(-0.0492307 1.77892 -6.08934e-20)
(-0.0471392 1.78907 1.74757e-20)
(-0.0789027 1.78654 2.04484e-20)
(-0.111389 1.78264 0)
(-0.038993 1.78997 0)
(-0.0261985 1.78813 2.33446e-20)
(-0.0294358 1.79515 -7.31374e-21)
(-0.0320762 1.79391 0)
(-0.02546 1.78136 1.71751e-20)
(-0.0237595 1.78156 -3.4493e-20)
(1.03041 0.0161101 0)
(1.03765 0.018294 -2.04693e-20)
(1.03905 0.0218828 -1.49127e-19)
(1.03894 0.0231882 0)
(1.03807 0.0241808 0)
(1.03998 0.0117654 -6.02891e-21)
(1.03814 0.0101235 2.51496e-19)
(1.03612 0.0129464 3.01988e-19)
(1.03189 0.0120468 0)
(1.02668 0.0107493 0)
(1.03283 0.0193726 1.5211e-19)
(1.02543 0.0142269 0)
(1.02639 0.0124567 0)
(-0.0235795 1.81951 0)
(-0.0240981 1.80243 2.07558e-21)
(-0.0228803 1.81249 1.14509e-20)
(-0.0287345 1.7976 0)
(-0.0254762 1.80446 1.437e-20)
(-0.0264772 1.80081 -7.12657e-21)
(-0.0283724 1.7971 0)
(0.444486 1.61647 0)
(0.513972 1.35492 7.08424e-19)
(0.457579 1.35222 0)
(0.513715 1.36126 -8.92877e-19)
(0.514338 1.4084 0)
(0.540731 1.38813 4.18851e-19)
(1.02025 2.70204 -3.23239e-21)
(0.952186 2.38817 -1.84496e-19)
(0.875522 2.12656 2.47499e-19)
(0.843875 2.33238 1.02249e-19)
(0.838812 2.50657 0)
(0.89359 2.52117 0)
(0.925406 2.35287 0)
(0.896329 2.32322 -3.74419e-19)
(0.700946 2.47498 -8.32112e-20)
(0.808283 2.48091 -2.33175e-20)
(0.798167 2.45873 1.84468e-20)
(0.699772 2.34603 0)
(0.791505 2.33665 0)
(0.762467 2.34637 -2.22322e-19)
(0.769268 2.47741 0)
(0.593485 1.0476 0)
(0.499907 0.90032 -2.46656e-20)
(0.507437 0.950428 -1.57492e-22)
(0.50699 1.06539 0)
(0.500701 0.998892 4.29415e-20)
(0.726268 0.879137 1.4876e-20)
(0.75998 1.00568 0)
(0.732607 0.980931 -6.74518e-20)
(0.631473 0.998315 0)
(0.594698 0.931593 0)
(1.14779 2.79987 6.52986e-20)
(1.12557 2.86285 1.42019e-19)
(0.923135 2.41417 -3.25002e-19)
(0.900112 2.38222 4.9294e-20)
(1.11084 2.77075 0)
(1.05671 2.74054 -5.912e-20)
(1.07484 2.50245 -5.28107e-20)
(0.954813 2.22194 -2.45405e-20)
(0.480099 1.41996 0)
(0.491509 1.07783 1.04246e-19)
(0.529965 1.1464 0)
(0.855332 0.208555 0)
(0.808129 0.157619 0)
(0.773772 0.179919 0)
(0.841582 0.223592 -2.95478e-19)
(0.787921 0.225637 1.85705e-19)
(0.932748 0.0580149 -1.58681e-19)
(0.938267 0.105183 0)
(0.928036 0.113303 7.59959e-20)
(0.883604 0.07845 3.13371e-19)
(0.88371 0.0570083 -1.92324e-19)
(1.10061 3.37685 -9.41673e-19)
(1.16196 3.30232 0)
(1.12415 3.46115 -2.03749e-18)
(0.663336 3.60863 1.72138e-18)
(1.04036 3.12534 4.36148e-19)
(0.502683 0.841967 1.92777e-19)
(0.490219 0.816522 0)
(0.382911 0.564429 -7.76181e-20)
(0.403803 0.693435 3.53626e-19)
(0.497167 0.545998 -1.07855e-19)
(0.494271 0.562335 1.20823e-19)
(0.637052 0.557779 2.47596e-19)
(0.652162 0.57645 0)
(0.592685 0.633747 0)
(0.56386 0.57512 0)
(0.925334 0.581847 -5.06112e-20)
(0.854791 0.522029 -1.67098e-19)
(0.890371 0.572241 5.74151e-20)
(0.926903 0.479281 -1.19746e-19)
(0.992777 0.457966 0)
(1.02003 0.572478 2.56951e-22)
(0.830829 0.369676 -3.74458e-19)
(0.825584 0.36155 -4.44532e-19)
(0.808947 0.366785 2.9358e-19)
(0.787683 0.342021 -3.36299e-19)
(0.824113 0.295745 -2.49672e-19)
(0.793704 0.295801 3.05918e-19)
(1.03436 -0.00204635 -1.60511e-19)
(1.03516 -0.000603629 3.27944e-19)
(1.02402 -0.00715736 1.97133e-19)
(1.02612 -0.00612082 -2.35983e-19)
(1.03274 0.0119318 0)
(1.03591 0.00869649 -3.96012e-19)
(-0.352623 1.94663 2.45444e-20)
(-0.336802 1.87096 0)
(-0.38151 1.95366 -3.22152e-19)
(-0.369705 1.94299 3.3497e-19)
(-0.344528 1.8487 -2.61279e-19)
(-0.372667 1.86746 0)
(-0.048089 1.81735 0)
(-0.0372696 1.801 -7.79873e-21)
(-0.0306951 1.80182 7.06749e-21)
(-0.0292211 1.80582 2.71887e-21)
(-0.030821 1.81892 -1.51645e-20)
(-0.0367207 1.82065 9.01399e-21)
(0.469288 1.43143 3.55285e-19)
(0.448714 1.41855 -3.80755e-19)
(0.480567 1.34436 4.28248e-19)
(0.467706 1.36719 -2.06066e-20)
(0.636548 1.29039 0)
(0.553677 1.40042 5.3367e-19)
(0.586698 1.38067 -5.2625e-19)
(0.488529 1.31198 -4.05643e-19)
(0.492517 1.26751 0)
(0.52902 1.19954 0)
(0.71459 2.45668 1.2072e-19)
(0.716059 2.4546 5.75855e-19)
(0.75061 2.45921 -3.78589e-19)
(0.689788 2.44851 -1.21666e-19)
(0.645179 2.59484 9.20903e-20)
(0.548571 2.57586 -2.79513e-19)
(0.960844 2.35925 -1.37929e-19)
(0.996792 2.39475 0)
(0.883879 2.12362 -1.6951e-19)
(1.02796 2.7228 0)
(1.01881 2.70091 0)
(0.625541 2.33175 3.64823e-19)
(1.1296 3.11632 4.42999e-19)
(1.0168 3.01384 -5.31159e-19)
(0.33672 0.933036 0)
(0.365404 0.849535 -1.32119e-19)
(0.542736 0.757297 -6.01463e-20)
(0.391843 2.18421 0)
(0.41875 2.76774 -3.07494e-19)
(0.426877 2.50481 0)
(0.645008 0.690838 -2.73535e-19)
(0.695565 0.672257 3.89509e-19)
(0.698613 0.642594 -3.87747e-19)
(0.61481 0.666722 -4.10453e-20)
(0.678216 0.620925 -1.73751e-19)
(0.984635 2.79616 -3.35526e-19)
(1.02127 2.79905 2.38655e-19)
(0.581096 2.268 -1.57852e-19)
(0.62267 1.76227 5.97051e-20)
(0.705695 1.91769 7.27413e-20)
(0.979213 2.44006 -8.15055e-20)
(0.97946 2.41948 -1.06751e-19)
(0.666136 1.83154 -6.13865e-22)
(0.457822 1.34646 -7.44448e-20)
)
;

boundaryField
{
    wall-4
    {
        type            noSlip;
    }
    velocity-inlet-5
    {
        type            fixedValue;
        value           uniform (1 0 0);
    }
    velocity-inlet-6
    {
        type            fixedValue;
        value           uniform (0 3 0);
    }
    pressure-outlet-7
    {
        type            zeroGradient;
    }
    wall-8
    {
        type            noSlip;
    }
    frontAndBackPlanes
    {
        type            empty;
    }
}


// ************************************************************************* //
