/*--------------------------------*- C++ -*----------------------------------*\
  =========                 |
  \\      /  F ield         | OpenFOAM: The Open Source CFD Toolbox
   \\    /   O peration     | Website:  https://openfoam.org
    \\  /    A nd           | Version:  6
     \\/     M anipulation  |
\*---------------------------------------------------------------------------*/
FoamFile
{
    version     2.0;
    format      ascii;
    class       volScalarField;
    location    "49";
    object      p;
}
// * * * * * * * * * * * * * * * * * * * * * * * * * * * * * * * * * * * * * //

dimensions      [0 2 -2 0 0 0 0];

internalField   nonuniform List<scalar> 
918
(
0.528449
1.25246
0.00510705
0.528354
-0.010504
1.22027
-0.49817
0.663793
0.509579
-0.1154
-0.0490878
0.50843
1.07725
0.843552
-1.17614
-0.0127248
0.628159
-0.419261
0.507568
-0.0641097
0.692539
0.516271
0.51874
0.509532
0.567714
0.798258
0.954756
-0.00110686
0.00862918
0.00411495
-0.0114577
-0.0314576
-0.0271616
1.10339
1.15534
1.17851
0.476309
0.310409
-0.39379
-0.444451
-0.427659
-0.523655
0.659001
0.657236
-0.212077
0.666337
0.670839
0.495355
0.50897
0.509807
0.510948
0.509834
0.511121
0.396894
-0.119599
-0.149334
-0.0981563
-0.094949
0.0485091
-0.053623
-0.0575392
-0.0468506
-0.0471168
0.425839
0.504203
0.501217
0.5133
0.522792
1.19264
1.16636
1.19244
1.103
1.12063
1.05421
1.02716
0.865236
0.889244
0.827636
0.813165
-1.63896
-2.59341
-0.594383
-0.313794
-0.0101684
-0.0110298
-0.00779181
0.621906
0.623048
0.628638
0.634165
1.033
-0.392209
-0.461777
0.50807
0.506581
0.515792
0.516696
0.51165
0.511658
-0.0561391
-0.0541251
-0.0505737
-0.0592594
-0.0525426
0.683852
0.681571
0.508974
0.506424
0.531871
0.553215
0.54287
0.246321
0.574853
0.589932
0.661267
0.805863
0.794541
0.806509
0.930311
0.898777
0.985883
1.0076
0.0141852
-0.000709541
-0.0163595
-0.0184284
-0.016958
0.472073
0.465679
0.493109
0.479912
0.482934
0.214651
0.0628398
0.393245
0.417235
-0.31434
-0.358882
-0.456093
-0.455483
-0.556136
0.585629
0.653011
0.649253
-0.226586
-0.153407
-0.278884
-0.0962081
-0.152301
0.48637
0.492571
0.488674
0.503982
0.498168
0.500585
0.513051
0.510225
0.511823
0.456758
0.585333
0.313845
0.28787
-0.277496
-0.167901
-0.258097
-0.0836746
-0.0772
0.0591547
0.0864909
0.0358573
0.0228854
-0.0675429
-0.060335
-0.0640504
-0.0472826
-0.051608
0.417382
0.404476
0.436961
0.444404
0.492048
0.493444
0.497682
0.495714
0.977916
1.00119
1.00707
0.983104
-3.57936
-6.22777
0.0355022
0.196721
-0.00861604
-0.0102117
-0.000354315
-0.00748183
0.000689022
-0.00183351
-0.0131795
-0.0143085
-0.010954
-0.0108914
0.618165
0.619283
0.998881
1.02384
0.974953
0.954372
0.497388
0.499294
0.503919
0.500809
-0.0496143
-0.051912
-0.0494767
0.671251
0.678009
0.676167
0.205897
0.118232
0.296698
0.327536
0.613271
0.597148
0.610837
0.721686
0.761414
1.02471
1.04874
1.03278
1.0457
1.09659
1.11952
1.08462
0.450794
0.461633
0.455953
0.496223
0.493892
0.494912
0.491053
0.492147
0.490687
-0.049675
-0.424578
0.469297
0.471477
0.459327
0.465291
0.671164
0.753922
0.634959
0.643916
0.642327
-0.0481791
-0.0954814
0.24693
0.218731
0.357217
0.39138
0.373465
0.953729
0.913785
0.961852
0.937129
0.90143
0.925615
-0.361894
-2.13463
-1.12523
0.602144
0.403543
0.496158
0.00605293
-0.0115219
-0.00719964
1.01699
1.05785
0.654368
0.84493
0.798331
0.784716
0.809169
0.874063
0.806642
0.840901
0.871329
0.845087
0.5389
0.477353
0.491414
0.830649
0.887281
0.0822209
0.00613944
-0.0174832
0.109813
0.177893
0.146857
1.03307
0.94297
1.00847
0.506662
0.507597
-0.00939493
-0.0270738
0.511695
0.511412
-0.0166109
-0.00727128
0.513876
-0.94803
0.0886351
0.501144
0.490942
0.50769
-0.0820172
0.327748
-0.0540186
0.0325558
-0.00322789
0.503642
0.437947
0.396019
0.00112684
-0.0203401
-0.0544415
-0.220002
0.504403
0.502768
0.507069
0.507898
0.508662
-0.0183517
-0.0178452
-0.0126478
-0.0509058
-0.0454587
-0.0571299
0.471182
0.490991
-0.195775
0.50736
0.509448
0.509163
0.503288
0.508277
0.50687
-0.0147093
-0.0203436
-0.0217423
0.187221
0.323402
0.697993
0.773658
0.647429
0.479154
0.180492
0.633483
0.686037
0.611232
0.741525
0.64661
0.658476
0.154522
0.0134197
0.157959
0.0906762
0.498032
0.497406
0.48849
0.485397
0.502489
0.500179
0.505365
0.502542
0.505717
0.506887
-0.0398012
-0.0756551
-0.0900306
-0.145276
0.297163
0.552201
0.222465
0.249391
0.159027
-0.0457082
-0.0439038
-0.0530672
-0.0579849
-0.00831427
-0.0193052
0.0272952
0.0338527
0.0158631
-0.0115745
-0.0180446
-0.0184606
-0.0240217
0.496938
0.49625
0.502087
0.510566
0.44744
0.451132
0.417639
0.436352
0.422621
0.362655
0.392877
0.369966
-0.00965244
0.00173415
-0.0032465
-0.0188111
-0.0174981
-0.0400565
-0.0327336
-0.0303384
-0.0270571
-0.0313578
-0.048139
-0.0500346
-0.184016
-0.301138
0.95468
0.884036
0.121738
0.494333
0.499977
0.49716
0.501807
0.50501
0.505664
0.503255
0.499759
0.491119
0.492512
0.489384
0.490405
-0.135493
-0.243197
-0.0760623
-0.14724
0.136957
0.603056
0.331451
0.277827
0.263034
0.485798
0.701616
0.621042
0.684132
0.677977
-0.401358
0.0104286
-0.329771
0.219333
0.207175
0.723391
0.764611
0.780636
0.739032
0.695593
-0.0407161
0.536636
-0.0693493
-0.0214273
0.167656
0.054207
0.663416
0.627327
0.633167
0.65048
0.662823
0.642579
0.624265
0.619654
0.646737
0.651725
0.48713
0.216146
0.174896
0.128488
0.616356
0.51339
0.565734
0.486716
0.493557
0.496032
0.494933
0.475958
0.48329
0.478991
0.486003
0.489612
0.497035
0.497238
0.493165
0.495029
-0.0686859
-0.0728421
-0.0724169
-0.131856
-0.132215
-0.176121
-0.0917857
0.0944658
0.043269
0.228711
0.351466
0.0686971
-0.0567573
-0.0401685
0.011262
0.170376
0.170556
0.0503852
0.165539
0.119576
0.112576
0.200934
0.22562
-0.0324593
-0.0327496
-0.0362577
-0.04244
0.00971734
0.110079
0.0932549
-0.00747503
-0.0153707
-0.0410824
-0.0431983
-0.00830669
-0.0222268
-0.0159669
-0.00154687
-0.048241
-0.0214354
-0.009616
-0.00721791
-0.0113922
-0.00967547
0.490376
0.4925
0.492439
0.500592
0.515233
0.530196
0.493011
0.468592
0.459631
0.462731
0.435816
0.44513
0.44019
0.455904
0.477689
0.486665
0.484017
0.486735
0.468879
0.470602
0.456074
0.460617
0.430043
0.411804
0.401585
-0.0460686
-0.0119655
-0.0253305
-0.0407711
-0.0143115
-0.0250496
-0.0143189
0.00207509
-0.0145904
-0.0132131
-0.0215843
-0.0300587
-0.0306949
-0.0860082
-0.00292256
-0.186508
-0.236229
-0.288622
0.870044
1.00631
0.787421
0.564251
0.577698
0.821227
0.918603
0.536147
0.739969
0.760605
0.556791
0.843682
0.498205
0.497838
0.495735
0.494927
0.495875
-0.0270661
0.0731871
0.0889785
0.145232
0.261412
0.36815
0.292521
0.179027
0.313323
0.337801
0.600459
0.607555
0.562664
0.584826
0.584137
0.399187
0.480281
0.520957
0.471692
0.545964
0.579238
0.526229
0.568726
0.489193
0.439168
0.430905
0.387961
0.421085
0.402939
0.377528
0.489927
0.466601
0.477613
0.467132
0.488637
0.510464
0.512893
0.536822
0.551131
0.468113
0.416054
0.432481
0.460338
0.417355
0.43417
0.455648
0.165255
0.0697141
0.234267
-0.0939981
-0.00519457
0.0319294
-0.00946426
-0.0538975
0.252944
-0.388215
-0.33365
-1.01536
0.47994
0.854949
0.623194
0.637074
0.661744
0.64571
0.655581
0.666745
0.671541
0.606859
0.61911
0.622486
0.592155
0.619854
0.622277
0.629715
0.489845
0.394144
0.391611
0.328169
0.191458
0.231521
0.420727
0.352213
0.278765
0.273122
0.443556
0.309992
0.387399
0.442914
0.36845
0.301467
0.53222
0.578849
0.569409
0.541832
0.433279
0.463704
0.474012
0.5208
0.558145
0.585526
0.484688
0.490989
0.49193
0.48918
0.487413
0.49053
0.490767
0.493047
0.49339
0.495937
0.495328
-0.0513496
-0.0398942
-0.0576106
-0.0610144
0.00746912
-0.0110652
-0.00146013
-0.0321625
-0.0169147
-0.0180852
-0.0391501
-0.0524559
-0.0444085
-0.0311207
0.0691247
0.0863457
0.0986673
0.0604704
0.242928
0.40121
0.469975
0.342176
0.20723
0.23517
0.310452
0.00904729
0.0263479
0.0117359
0.0631555
0.041144
-0.0368978
-0.0409978
-0.041994
-0.0316606
-0.0237085
-0.045965
-0.0460746
-0.0354876
-0.0432601
-0.0442923
-0.0478083
0.470271
0.463203
0.466795
0.459235
0.457401
0.474211
0.478596
0.479941
0.485434
0.488019
0.477676
0.483687
0.487671
-0.0155668
-0.0346397
-0.0351776
-0.028857
-0.031609
-0.0316512
-0.0340019
0.109626
0.0173322
0.0515705
-0.0161962
-0.14095
-0.0816751
0.481029
0.477537
0.471441
0.700007
0.539034
0.456646
0.554026
0.672253
0.255743
0.458492
0.291195
0.869534
0.774051
0.919371
0.539431
0.237585
0.400811
0.414072
0.251776
0.375213
0.329194
0.206676
0.244923
0.272983
0.356839
0.239976
0.218644
-0.0227792
0.155725
0.268119
0.2499
0.379289
0.437084
0.243732
0.159221
0.107262
0.581232
0.599624
0.609684
0.582683
0.60435
0.552597
0.54255
0.559302
0.568466
0.563578
-0.651785
-0.24001
-1.44137
-0.849441
-0.397969
0.508764
0.49974
0.734441
0.640852
0.677214
0.659456
0.597325
0.562452
0.605113
0.625389
0.321417
0.410846
0.393437
0.375359
0.31834
0.258657
0.536729
0.542818
0.566939
0.591516
0.56753
0.593843
0.483329
0.483157
0.481954
0.478273
0.476795
0.479894
0.0261082
0.000935713
0.0389599
0.0321581
0.0110408
0.00963924
-0.0146826
-0.0266446
-0.0264262
-0.0258123
-0.0157824
-0.0129132
0.153198
0.0933787
0.00667904
0.0473179
-0.0170494
-0.0993497
-0.10022
-0.0129648
0.0850245
0.0672832
0.37326
0.644433
0.470607
0.635314
0.431096
0.531368
0.454671
0.428692
0.458203
0.356168
0.444376
0.0170726
-0.181799
-0.238779
0.804725
0.761599
0.548896
0.297421
0.183544
0.481554
0.510316
0.47234
0.496927
0.548498
0.52825
-0.00418017
0.0911413
0.163379
0.472837
0.260174
0.277784
0.26894
0.430745
0.403276
)
;

boundaryField
{
    wall-4
    {
        type            zeroGradient;
    }
    velocity-inlet-5
    {
        type            zeroGradient;
    }
    velocity-inlet-6
    {
        type            zeroGradient;
    }
    pressure-outlet-7
    {
        type            fixedValue;
        value           uniform 0;
    }
    wall-8
    {
        type            zeroGradient;
    }
    frontAndBackPlanes
    {
        type            empty;
    }
}


// ************************************************************************* //
