/*--------------------------------*- C++ -*----------------------------------*\
  =========                 |
  \\      /  F ield         | OpenFOAM: The Open Source CFD Toolbox
   \\    /   O peration     | Website:  https://openfoam.org
    \\  /    A nd           | Version:  6
     \\/     M anipulation  |
\*---------------------------------------------------------------------------*/
FoamFile
{
    version     2.0;
    format      ascii;
    class       surfaceScalarField;
    location    "49";
    object      phi;
}
// * * * * * * * * * * * * * * * * * * * * * * * * * * * * * * * * * * * * * //

dimensions      [0 3 -1 0 0 0 0];

internalField   nonuniform List<scalar> 
1300
(
3.75095
5.62643
-3.30429
3.75095
-7.75283
5.62643
-4.22603
4.22603
-0.682959
0.682959
1.87646
1.87449
-2.58118
2.58118
-2.01793
2.01793
-2.54199
2.54199
-5.24804
5.24804
-5.0692
5.0692
4.71096
-4.71096
-6.31187
6.31187
-1.0417
1.0417
-3.63639
3.63639
3.17278
-3.17278
-1.98909
1.98909
-0.122502
0.122502
-0.554103
4.30506
3.19685
3.19685
-1.96611
1.96611
-4.87461
4.87461
6.22238
-6.22238
5.25012
-5.25012
-1.94583
-2.44404
1.80995
-11.5538
-5.94288
-5.94288
-8.44101
8.44101
-2.81458
2.81185
2.94614
-2.94614
-1.73445
1.73445
-4.22403
-0.00200144
-4.22403
4.20279
0.0232404
4.20279
-0.759559
0.0765996
-0.759559
3.87573
-3.87573
0.564165
0.118794
0.564165
3.06705
-3.06705
-1.87688
3.75334
1.87408
-1.87207
6.17713
-1.87888
3.75337
-6.06069
6.06069
-2.8018
0.220624
-2.8018
2.37906
0.202113
2.37906
-6.85824
6.85824
-2.06383
0.0459002
-2.06383
2.01304
0.0048981
2.01304
2.88341
-2.88341
-2.63975
0.0977684
-2.63975
2.40785
0.134139
2.40785
0.353433
5.273
-5.97986
8.79171
-5.273
0.0249542
5.21035
0.0376957
5.21035
-5.10508
0.0358789
-5.10508
5.01309
0.056118
5.01309
4.80423
-0.0932698
4.80423
-4.82632
0.115358
-4.82632
-3.38091
-4.07335
-6.47246
0.160589
-6.47246
-1.07991
0.0382109
-1.07991
0.970965
0.070733
0.970965
-3.68858
3.68858
-3.95302
0.316627
-3.95302
3.12777
0.0450097
3.12777
1.86812
1.88283
5.61908
-5.61908
2.4463
-1.95581
-0.0332878
-1.95581
-2.0608
-3.18932
2.0608
-0.0717086
-0.337479
0.214977
-0.337479
3.15704
0.0398103
3.15704
2.24588
0.161965
-2.24588
0.279774
3.282
-3.282
1.30197
0.664143
1.30197
-5.55964
5.55964
4.96127
0.0518116
-4.96127
0.0866665
6.15676
0.0656201
6.15676
-6.20779
-0.0145889
-6.20779
2.51123
-4.95527
-2.60638
6.1264
0.185469
-6.1264
0.183527
2.91715
0.0289943
2.91715
-2.92034
2.92034
-2.98351
0.0373662
-2.98351
-2.15887
0.424422
-2.15887
1.41761
0.316839
1.41761
-4.12522
-0.0988094
-4.12522
-4.08402
0.131008
4.08402
0.118766
1.09074
-1.09074
-0.824009
0.0644497
-0.824009
-3.9728
-0.152425
3.9728
-0.0970631
-3.82649
-0.0492414
-3.82649
-3.02143
0.0379242
3.02143
0.0456173
3.11197
0.0450707
-3.11197
0.0449212
-1.87099
3.75382
-1.87997
3.75404
-5.67804
-0.382647
-5.67804
6.34839
-0.287703
6.34839
3.19113
0.445263
-3.19113
0.389326
2.23161
0.147449
2.23161
-6.83306
-0.0251781
-6.83306
6.86252
-0.00427589
6.86252
2.1338
0.0978142
-2.1338
0.0699657
1.98953
0.0235045
1.98953
2.909
-0.0255948
2.909
-2.87862
-0.00478393
-2.87862
2.79496
-2.79496
2.72278
0.0721763
-2.72278
0.0830305
-11.1239
11.1093
-0.0363399
-11.0876
5.17401
5.17401
4.25993
0.544305
4.25993
-5.0177
0.191379
-5.0177
2.66842
-5.2748
3.08123
-6.46213
4.68509
-16.2389
4.31594
-8.38929
6.71603
-6.71603
6.60101
0.115022
-6.60101
0.128546
-1.15712
0.0772128
-1.15712
-3.09576
-0.59283
-3.09576
4.3373
-0.64871
4.3373
-3.02809
3.02809
-3.07675
0.0486626
3.07675
0.0510197
1.96359
0.0259443
-1.96359
0.00778156
0.437854
0.126311
-0.437854
0.100374
3.49617
-0.214172
3.49617
-3.08393
-0.198069
-3.08393
-1.23276
0.0756401
1.23276
0.0692038
-5.80816
0.248519
-5.80816
-11.1816
0.0940141
-11.1439
-6.11378
-6.11378
2.32723
11.1189
-2.89485
0.0162232
2.89485
0.0222975
2.97572
0.0523635
-2.97572
0.0553846
-2.8605
0.0655404
2.8605
0.0598379
-2.5286
0.369728
-2.5286
-1.0255
1.0255
-1.17969
0.154187
1.17969
0.237921
1.38069
-0.28995
1.38069
0.901753
0.0692115
-0.901754
0.0777449
-3.78641
-0.0400761
-3.78641
6.58262
-0.234235
6.58262
-2.95786
-0.126068
2.95786
-0.0488567
-0.034982
11.1443
-5.13902
0.0339421
5.13902
-11.2099
11.2439
-3.23664
0.708038
3.23664
1.02329
5.28497
0.274677
-5.28497
0.267268
6.80441
0.0581013
-6.80441
0.0883862
-2.59114
-0.504613
-2.59114
-5.07661
-0.601425
5.07661
-0.739318
-11.4824
-0.202026
11.6845
-11.4263
6.01019
0.146575
-6.01019
11.3904
-0.981989
-0.108748
0.981989
0.043515
1.7177
-0.337017
1.7177
3.70367
-0.207504
-3.70367
-0.0827416
-6.73147
-0.101596
6.73147
-0.148844
-2.14651
-0.444635
2.14651
-0.428805
-4.26729
4.3071
1.90984
-2.36245
-2.59283
-5.55177
1.85505
1.89876
4.30135
-10.1965
-6.04239
-10.0129
7.21238
-6.94511
-9.35101
9.25774
7.83699
-7.88623
-5.77797
5.82899
6.48417
-6.43855
1.87928
1.87406
7.99478
-7.77415
-15.7122
15.3295
7.56413
-7.51823
15.8442
-15.8694
-17.8947
17.9528
-5.69909
5.79686
-6.73763
6.73284
-6.96983
6.92097
-2.82615
-3.63599
13.1712
-13.0106
8.57164
-8.60493
-8.6398
8.95643
3.38453
0.922567
3.4296
-1.88193
3.76121
-1.87144
3.78128
2.70891
-5.53506
2.56589
-5.15872
4.35123
4.22041
-4.27952
-1.27225
-5.92691
5.95591
-5.81163
5.87146
9.0632
-9.0652
-1.88496
3.75902
-1.86908
3.76785
-3.42339
-2.35458
3.37838
0.922974
8.10495
5.06624
-8.29042
-1.72251
-7.97808
7.77057
-8.19716
7.99909
-0.436069
5.83711
-5.40104
4.43854
-1.65389
7.491
5.55849
5.74987
5.86042
-5.58574
1.08469
-6.48573
-6.39906
-2.43775
2.5022
2.36599
-2.2472
6.05709
1.7799
5.96003
-5.75803
-2.12821
-5.7981
3.82023
2.00876
3.8689
4.0813
2.40286
4.11923
3.02995
-3.03625
0.00630564
-3.05901
6.08895
0.722766
-5.41359
-4.49061
5.00293
2.99185
5.20504
-5.56543
-2.20873
-5.1761
-9.58624
-6.12593
-10.1877
10.1081
5.22142
9.8204
-11.983
11.8341
4.85412
2.71001
4.85902
-4.9659
-2.55233
-4.89593
11.668
-2.62572
-9.04226
-10.3415
-7.55319
10.3458
5.49842
10.9953
6.95752
11.0837
4.43275
7.23523
-9.93117
2.37798
-3.86362
-1.83547
-3.78059
3.65668
2.14018
3.79082
-4.21719
-2.52043
-4.20097
-4.29229
-2.67754
4.31789
2.41496
-4.40905
-3.78811
4.53512
2.38585
4.05883
-10.1012
4.33045
-7.96644
-9.22949
-3.78111
-9.10095
3.49785
2.61179
-6.10964
-2.03721
8.46818
-4.24776
7.19593
-5.20528
-3.39965
-5.1975
-6.90048
-1.73932
-6.76948
-8.96122
8.4566
-9.24476
8.59605
12.6199
-5.67758
-6.94234
-3.96684
-2.47171
3.92192
-0.492318
-3.71022
3.71653
0.0509849
3.83227
4.75483
4.26252
-3.88291
-1.92872
-3.82752
3.82374
2.04772
3.88928
6.78502
2.27818
6.80826
-6.51849
-2.54671
-6.6173
9.12925
-8.70483
2.83997
-2.76433
5.34959
2.64949
-5.13542
-2.84265
6.23654
-3.18956
-3.04699
-12.3543
10.8361
1.51816
-4.8633
-0.424758
-0.302256
-5.58131
-3.76971
5.46595
0.283918
11.12
7.35034
-5.51515
5.76367
6.16933
6.22114
-0.177925
5.91133
-5.2033
5.31562
-2.64028
-2.67534
5.40304
-5.55546
-1.21426
-5.47297
4.25871
0.404563
1.65344
-1.43846
-1.88091
-0.556839
-1.80316
1.37005
0.995947
1.49636
0.910859
1.59134
-2.91526
0.579259
2.33601
-2.00441
-1.66794
-3.7289
-1.13792
4.86681
5.67307
2.09751
-5.59033
-0.207778
2.63465
-2.56392
-0.784534
-2.94437
2.17992
-2.96445
-3.50637
-1.88185
5.38822
-3.36915
-0.458369
3.31679
0.552105
-3.82749
-2.09942
3.79013
0.329101
-3.12779
6.19013
-3.06233
-5.05651
2.52893
3.56002
4.53768
-4.79054
2.44871
2.34183
-1.23051
4.282
0.923042
4.42945
-6.98374
4.77502
5.71313
3.2433
-6.15839
0.98229
-6.00145
8.45315
-7.29754
-1.15561
4.00637
4.44679
7.06322
5.5567
-5.71091
12.7741
-1.09206
-6.20549
7.09351
-3.85021
4.80614
-8.65635
-10.3628
4.15736
-9.24527
11.0479
-1.80267
-3.60987
-8.37312
12.8551
-1.21305
-11.6421
8.60735
-4.2617
-4.29912
8.56082
-6.88741
6.85146
-1.97969
-4.87177
-10.1546
-5.71481
10.2562
1.57794
-9.88739
12.2654
-2.65216
4.138
0.72102
4.1615
3.30795
-5.43914
2.13119
3.57947
-5.55916
2.07358
-7.51272
-6.7644
12.1121
-5.34775
-10.5455
-9.55841
-0.987101
2.55592
9.70945
-9.51344
7.46063
2.05281
3.30083
0.588449
-3.37301
-0.40758
0.240565
4.51617
-4.75674
4.03138
4.19335
3.24119
1.27498
3.84783
2.10808
-3.87013
-0.330842
-4.16455
1.48701
-1.74959
-3.68895
5.17596
-4.0626
0.373648
-2.74401
-3.49633
6.24034
-4.57947
3.03697
3.15316
5.08469
-4.91402
1.41769
-2.39276
-2.52125
2.64491
-4.39451
1.99132
3.18464
4.37718
0.589069
5.89992
6.21222
-8.51171
0.545268
11.2785
-9.55595
2.47547
8.60823
-9.93611
0.377698
-8.72325
0.985208
-5.23297
-5.12443
5.14631
-6.88562
-3.51004
6.21916
0.589097
-6.33793
-0.43155
-6.0835
-2.87772
-6.52813
-3.06383
-6.18092
-8.77474
-1.68285
-7.09189
6.77375
-6.70557
-3.4821
7.44489
1.15116
-7.48727
7.37852
-7.55337
7.21636
0.0944698
3.62206
4.35699
1.88528
-2.39155
4.27682
-5.07247
7.35065
-8.70795
3.63548
4.17226
-6.71897
-4.53569
5.0718
4.05745
5.38864
8.96635
-10.4456
1.47924
-10.7216
12.0612
-1.33956
-16.5201
5.79849
-7.55375
2.50422
0.335744
2.58144
0.586706
2.49378
-3.08048
-2.17762
-2.10842
-2.41277
-3.49569
5.90846
1.10061
-3.43587
2.33526
-3.574
4.67461
-0.017359
-3.41851
5.20932
-2.71554
5.54506
-3.59136
1.9537
3.521
5.83128
-2.31028
4.421
-1.77151
1.91734
-4.22762
-1.57835
-2.95719
5.09737
-3.28315
3.6568
-0.340633
3.99743
-4.08004
0.890486
-0.83885
3.3545
3.63427
4.32805
-3.05308
2.94656
-4.71806
-1.28107
-4.12899
-0.944354
-0.208868
-3.8387
4.04757
6.04991
-6.25878
-5.2995
9.55498
-4.25548
7.72327
-5.4544
-2.26887
-4.30695
-4.39788
3.93722
1.97412
9.69739
0.17963
-5.63403
-5.02367
-4.00038
3.15341
2.16221
-1.842
3.36017
2.14426
-0.490824
0.458629
1.03773
1.81077
-1.35214
0.300357
1.51041
-1.1381
1.83135
0.803297
-1.90056
0.0973989
-1.25841
3.43833
1.0776
-2.07354
0.721407
0.920083
-3.56037
5.00169
-2.6935
-2.30819
5.92177
1.13164
-3.82514
4.34133
-3.93677
2.40982
-3.54773
-1.41532
-5.35209
-3.57219
-2.51482
4.85009
-3.39364
5.49114
1.34372
-5.28337
6.62708
-3.61819
1.73634
-3.06585
3.86915
-1.05642
-2.00944
2.91893
2.46929
-3.09612
0.151755
-0.177191
2.39727
-2.57446
-0.567185
-2.57159
-4.57512
4.90422
-2.10456
4.55328
2.17226
-1.91673
6.47001
1.80868
-3.72541
-3.24783
-3.7062
-1.38359
3.1541
-0.593747
-4.30218
-5.46552
4.20437
0.225081
-6.89002
7.80297
-0.912955
-3.89817
-0.876843
4.88321
-6.03602
0.476858
-3.96244
3.84053
4.76358
4.98866
-11.4217
-0.220396
-6.20028
1.11874
-7.31901
5.56552
-3.54245
7.69981
-10.3828
6.90074
-9.23168
6.5442
-0.774812
6.23599
-4.10479
2.80627
-8.52108
-6.94314
5.48254
-2.77252
6.20356
-3.13613
9.33969
-5.7883
5.26175
4.07795
-1.00932
-4.18818
-5.26101
4.25169
0.000733091
4.16223
4.9849
-2.87682
4.65406
2.26088
-4.65364
-2.13362
-6.48882
1.83517
-3.33566
-1.92051
3.75568
3.16418
3.75263
1.23443
-3.34505
7.20862
-8.19572
-1.86088
-3.26356
5.24493
-0.993235
3.38769
-6.65125
-1.84528
4.80291
-0.74232
-4.06059
0.874671
-4.38471
1.68423
-6.06894
5.20139
-5.63294
2.24945
-9.80321
-5.23781
-5.1943
-2.2807
-5.27267
-7.61439
5.33369
-1.8159
5.56262
-8.57584
7.83352
-3.48533
8.81901
-5.47304
-1.05509
5.90184
1.31451
10.1335
0.135767
-4.67146
-1.94346
3.81684
-1.87338
1.20995
-3.70293
0.113912
2.46758
3.45419
-6.72629
0.00732166
-4.66414
-3.91736
7.97481
5.63762
11.6875
1.24195
9.16887
-1.19407
10.4108
4.19458
4.4325
-3.04825
4.52749
0.999314
4.6348
-0.869851
2.82356
1.71158
1.7498
0.81412
2.29673
1.33754
3.18722
0.106736
-2.00168
4.64641
-8.64678
-0.987623
-8.10248
1.15526
5.42752
-4.27225
2.969
-0.806792
1.09562
-0.0700075
-1.43223
1.50224
-2.74534
-1.92306
-0.412646
-1.60269
2.3241
1.83564
-1.91145
-0.833896
0.324023
-3.89621
3.22371
-3.07195
-0.602664
6.02442
-2.84887
0.274411
-1.11253
-2.29718
-2.85402
2.75662
6.17484
0.295176
3.1125
5.1994
3.09998
0.223156
3.88839
-5.69105
-3.62433
-5.91145
-0.345928
4.53729
1.72598
7.98347
5.80393
4.81069
-1.84055
-10.0363
6.55852
-2.03103
5.21896
-1.15837
-4.91058
5.05629
2.29436
-5.64538
0.0124421
-4.89813
-6.92916
-0.487215
8.32074
-9.64631
8.59122
5.7135
1.37839
-4.44575
-0.748542
4.29157
0.140929
10.5517
-0.905671
-7.1337
8.03937
-4.52185
3.53422
0.711314
2.64885
2.21356
1.40676
-5.72694
-9.99919
-2.01785
-1.54252
-4.32604
0.540772
-2.37641
6.09401
-2.55979
3.82514
5.47959
6.57521
-2.06115
-4.19763
6.31663
-2.49149
4.08372
)
;

boundaryField
{
    wall-4
    {
        type            calculated;
        value           uniform 0;
    }
    velocity-inlet-5
    {
        type            calculated;
        value           uniform -3.75095;
    }
    velocity-inlet-6
    {
        type            calculated;
        value           uniform -5.62643;
    }
    pressure-outlet-7
    {
        type            calculated;
        value           nonuniform List<scalar> 8(3.30429 7.75283 4.38987 9.74381 7.45425 5.11761 5.74965 9.00103);
    }
    wall-8
    {
        type            calculated;
        value           uniform 0;
    }
    frontAndBackPlanes
    {
        type            empty;
        value           nonuniform 0();
    }
}


// ************************************************************************* //
