/*--------------------------------*- C++ -*----------------------------------*\
  =========                 |
  \\      /  F ield         | OpenFOAM: The Open Source CFD Toolbox
   \\    /   O peration     | Website:  https://openfoam.org
    \\  /    A nd           | Version:  6
     \\/     M anipulation  |
\*---------------------------------------------------------------------------*/
FoamFile
{
    version     2.0;
    format      ascii;
    class       volVectorField;
    location    "49";
    object      U;
}
// * * * * * * * * * * * * * * * * * * * * * * * * * * * * * * * * * * * * * //

dimensions      [0 1 -1 0 0 0 0];

internalField   nonuniform List<vector> 
918
(
(0.985048 -0.000711095 0)
(0.00535029 2.96624 0)
(-0.000533511 0.873086 0)
(0.979573 0.00195997 0)
(-0.0130836 2.06273 3.07467e-20)
(-0.00709295 2.94856 -2.6162e-18)
(0.800811 1.11426 4.38636e-19)
(0.235054 0.0953445 -1.47595e-20)
(0.999921 -0.000242804 0)
(0.0850209 0.717092 0)
(0.0143019 0.488438 0)
(0.734321 -0.0174855 0)
(0.0101841 2.93163 0)
(0.00387771 2.79423 0)
(-0.000925481 3.18672 8.3069e-19)
(-0.0128242 1.91812 1.11671e-20)
(0.30369 0.0223144 9.80941e-19)
(0.231083 1.12715 3.52554e-19)
(0.964425 0.00673058 0)
(-0.0199834 0.449033 0)
(0.0472051 0.13684 -6.96266e-19)
(1.00183 -0.00456429 0)
(0.999851 -0.00893177 0)
(0.975158 -0.00605534 0)
(0.593658 -0.0352638 0)
(0.0220364 2.64467 0)
(-0.0122853 2.91189 9.60043e-19)
(-0.0025971 0.933968 0)
(-0.0199473 1.166 0)
(-0.00132478 0.905786 0)
(-0.0209579 2.60582 0)
(-0.00443242 2.11421 -2.45555e-20)
(-0.00916987 1.89106 0)
(-0.0221385 2.9876 -9.44241e-23)
(-0.016496 3.0055 2.03289e-18)
(0.00230105 3.00059 0)
(0.871551 -0.00967041 0)
(0.377406 0.91964 1.60879e-19)
(0.800924 1.12738 -5.50037e-19)
(0.938478 0.984754 5.57078e-19)
(0.666262 1.21074 -1.01082e-19)
(0.678511 1.18235 5.79895e-19)
(0.255953 0.176941 1.43992e-20)
(0.241177 0.0778782 0)
(1.14349 0.523555 0)
(0.224634 0.167526 6.56584e-20)
(0.204135 0.0963251 -6.81359e-20)
(0.920466 -0.00702046 0)
(1.00026 7.42202e-05 0)
(0.999909 0.000319152 0)
(1.0037 -0.0072845 0)
(1.0009 -0.000945886 0)
(1.00011 -1.10306e-05 0)
(0.0936506 1.83788 -7.52803e-19)
(0.0358553 0.891741 0)
(0.132486 0.790786 0)
(0.0177946 0.845471 0)
(0.0430829 0.646986 0)
(0.00497122 2.01821 0)
(-0.00587095 0.75599 0)
(0.00860595 0.515931 0)
(-0.00390243 0.749213 0)
(0.00906674 0.48737 0)
(0.841902 -0.0157586 0)
(0.839476 0.0338339 0)
(0.766181 -0.00763349 0)
(0.809426 0.0448627 0)
(0.70202 -0.0174208 0)
(0.0139367 3.00021 9.71492e-19)
(0.0111558 3.00594 0)
(0.00625795 3.00388 0)
(0.0118891 2.99711 1.10382e-23)
(0.00824886 2.95876 -1.44388e-18)
(0.0122213 2.98298 0)
(0.0090566 2.90482 0)
(0.021244 2.93172 2.24973e-24)
(0.00409471 2.82373 0)
(0.0257671 2.91866 0)
(-0.0011471 2.7449 0)
(0.308986 3.58555 0)
(-0.12246 3.66876 0)
(0.151835 3.27769 -7.73123e-19)
(0.00530765 3.01172 0)
(-0.025831 1.9949 0)
(-0.00679925 2.17558 -1.10139e-20)
(-0.00810363 1.92817 8.55384e-21)
(0.392417 0.141263 -3.3983e-19)
(0.317602 -0.00119166 -3.29336e-19)
(0.357996 0.157775 -1.0202e-18)
(0.284052 0.0324645 -6.68328e-19)
(0.261019 1.00462 0)
(0.32758 1.25358 -3.6562e-19)
(0.403664 1.15823 6.02236e-19)
(0.987824 0.00812147 0)
(0.94337 0.00579034 0)
(1.00028 0.000672409 0)
(1.00254 0.00906878 0)
(1.00312 0.00896706 -2.59926e-18)
(0.992134 0.00945283 1.96416e-18)
(-0.0124477 0.75834 0)
(-0.0120045 0.449255 0)
(-0.0425613 1.01145 0)
(-0.0400415 0.807162 0)
(-0.0125439 0.440734 0)
(0.0510144 0.150256 2.1535e-19)
(0.108138 0.120987 0)
(0.993615 -0.00769867 0)
(0.95402 -0.00647583 0)
(0.751007 0.0499441 0)
(0.685531 0.0549053 0)
(0.659809 -0.0214054 0)
(0.974352 -0.00397901 0)
(0.613731 0.058692 0)
(0.450376 -0.0307881 1.46402e-18)
(-0.0410348 2.86103 7.60653e-19)
(0.0335842 2.91432 0)
(0.0423648 2.89218 0)
(0.00380112 2.70159 0)
(-0.00890447 2.98639 9.19736e-19)
(-0.0142864 2.89473 0)
(-0.0110063 2.9919 -2.82991e-18)
(-0.01161 2.92969 9.62777e-19)
(-0.0294613 1.33732 0)
(-0.00344765 1.3668 0)
(-0.00679695 2.13841 5.68604e-22)
(-0.00693439 2.09828 0)
(-0.0167759 1.90219 0)
(0.938564 -0.00532859 0)
(0.856696 -0.0110423 0)
(0.863586 0.00541914 0)
(0.949431 -0.00624315 0)
(0.883424 -0.00804737 0)
(0.501678 1.1203 -2.04586e-19)
(0.548999 1.19059 0)
(0.338832 0.853604 3.15127e-20)
(0.282571 0.718322 0)
(0.900307 1.02188 -1.56765e-19)
(1.01942 0.82868 3.10776e-19)
(0.385358 1.31848 0)
(0.528235 1.27038 0)
(0.580735 1.19901 0)
(0.0986241 0.177694 -2.91096e-19)
(0.27548 0.175146 0)
(0.241087 0.0767755 1.88679e-19)
(0.983677 0.884102 0)
(1.05978 0.73323 0)
(1.089 0.667397 -2.45127e-19)
(1.12668 0.581672 0)
(1.1818 0.388549 4.50703e-20)
(0.957345 -0.00717066 0)
(0.962642 -0.00815474 0)
(0.90076 -0.00734519 0)
(0.983906 -0.00813542 0)
(0.974382 -0.00805797 0)
(0.936492 -0.00654954 0)
(1.0002 0.00249982 0)
(1.00076 0.00124517 0)
(1 0.000766388 0)
(0.0432124 2.08444 4.19737e-19)
(0.144993 1.78153 0)
(0.0176025 2.20189 6.34867e-19)
(0.0528053 1.88727 -5.32806e-19)
(0.16836 1.10784 -2.89229e-19)
(0.0513334 0.971829 0)
(0.122144 0.966712 0)
(0.0079218 0.811089 0)
(0.021008 0.587286 0)
(-0.00321301 2.25115 -6.80213e-22)
(0.0187882 2.02433 0)
(-0.00431341 2.25131 -2.55875e-20)
(0.00423459 2.02986 3.80962e-20)
(0.00156199 0.776521 0)
(-0.00031868 0.766135 0)
(0.00934139 0.544823 0)
(0.0005218 0.746958 0)
(0.00154371 0.481975 0)
(0.938106 0.0134348 0)
(0.854098 -0.0118466 0)
(0.927676 0.00456264 0)
(0.845073 -0.0128598 0)
(0.812204 -0.00195456 0)
(0.898603 0.0229419 0)
(0.873079 0.0281285 0)
(0.788431 -0.00512673 0)
(0.0101983 3.06783 -9.05641e-21)
(0.0150728 3.05888 0)
(0.0124236 2.97026 0)
(0.00766858 2.87667 0)
(0.899648 3.98282 0)
(1.19475 3.37757 9.44912e-19)
(0.0824677 3.09339 0)
(-0.0163753 2.91939 0)
(-0.0119305 1.38999 0)
(-0.0293381 1.69867 0)
(-0.0185731 1.52798 0)
(-0.0313054 2.56302 -1.09165e-20)
(-0.0147548 2.25313 0)
(-0.0202579 2.40022 0)
(0.00146432 1.95632 1.21939e-21)
(-0.0045156 2.24905 -1.19408e-20)
(-0.0052028 2.21445 -8.86141e-21)
(-0.00362452 1.94176 0)
(0.421769 0.118076 5.19227e-19)
(0.345232 -0.0087056 -5.09357e-19)
(0.230711 1.58735 0)
(0.286217 0.751237 -3.20581e-19)
(0.178365 1.68305 -1.06252e-18)
(0.243158 1.21185 1.06319e-18)
(0.901823 0.00605993 0)
(0.967169 0.0105438 0)
(0.975024 0.00977915 0)
(0.923114 0.00593004 0)
(-0.0134475 0.750647 0)
(-0.00901465 0.755995 0)
(0.000858724 0.45371 0)
(0.187542 0.164014 6.03085e-19)
(0.149218 0.150053 -7.15077e-19)
(0.152401 0.105886 0)
(1.09941 0.0879382 2.37167e-20)
(1.08324 0.0407696 0)
(1.01408 0.0427414 0)
(0.909801 -0.00245515 0)
(0.457331 0.0949298 0)
(0.518974 0.0722089 -2.34622e-18)
(0.38358 -0.0118487 8.83183e-19)
(0.010925 2.97747 8.04684e-19)
(-0.0323903 2.86192 4.6556e-20)
(0.00858029 3.05319 -1.91112e-20)
(0.0156709 3.04341 7.17024e-19)
(-0.0118146 2.99996 3.16664e-20)
(-0.0123556 2.95226 -1.27832e-22)
(-0.0150368 3.01331 -5.91314e-19)
(0.0142592 3.02672 4.15423e-19)
(0.00758932 3.0347 -6.74857e-19)
(0.93408 0.00189042 0)
(0.939069 -0.00129892 0)
(0.847337 -0.0111304 0)
(0.956513 0.0115798 0)
(0.942716 0.0129895 0)
(0.881834 0.00571304 0)
(0.916231 0.0181933 0)
(0.925655 0.0149564 0)
(0.838195 0.0018011 0)
(0.675018 1.42004 2.4862e-20)
(0.693202 1.53091 0)
(0.121869 0.305758 6.72342e-20)
(0.203699 0.64327 5.32981e-19)
(0.237592 0.692026 -3.1224e-19)
(0.219838 0.51406 6.18306e-19)
(0.331566 0.8142 1.54241e-18)
(0.128342 0.229124 3.71743e-19)
(0.33322 0.174572 7.1043e-19)
(0.302491 0.184357 1.83973e-19)
(0.256828 0.057193 3.5273e-19)
(1.17613 0.43746 8.59643e-20)
(1.20477 0.24228 8.53645e-20)
(0.00665609 2.24316 2.48585e-19)
(0.0397079 1.95024 0)
(0.969771 0.0324692 0)
(0.944663 0.0188339 0)
(0.868028 -0.0155307 0)
(0.0126227 3.0743 0)
(0.0168456 2.94416 1.2676e-18)
(0.0139172 2.95676 0)
(0.00586164 2.84975 -1.25767e-18)
(0.00932936 3.09119 3.09852e-19)
(0.011378 3.08321 0)
(0.713965 1.82835 -1.74831e-19)
(1.23927 2.63482 5.90603e-19)
(0.698768 2.00678 -1.41268e-18)
(0.0222572 2.97612 -7.01684e-19)
(0.0408836 2.99854 0)
(-0.0386808 2.87889 0)
(-0.00557327 2.23082 -1.29485e-20)
(-0.00458183 2.2526 1.90036e-20)
(0.00177529 1.99119 -7.57803e-21)
(0.266882 1.3907 1.02311e-18)
(0.275559 0.542497 -7.02255e-19)
(0.0709723 2.00113 7.53669e-19)
(0.121831 1.87007 -9.09307e-19)
(0.207686 1.5299 1.03838e-19)
(0.00828912 3.11928 -1.72774e-18)
(0.0147387 3.12056 1.91113e-18)
(-0.00517629 2.98 8.63636e-19)
(-0.000914818 2.9749 -8.29633e-19)
(-0.0180693 2.87758 -8.79645e-19)
(0.0124826 3.09881 -2.30226e-18)
(0.0044379 3.10682 2.34872e-18)
(0.255911 0.685775 0)
(0.207854 0.649636 -1.12862e-18)
(0.0704217 0.212247 4.96177e-19)
(0.341948 0.931871 1.10281e-18)
(0.193364 0.271804 -1.69794e-18)
(1.18704 0.1728 4.80547e-20)
(1.20153 0.299799 0)
(1.18266 0.119521 7.75545e-21)
(-0.00217327 2.26024 -1.41869e-21)
(0.0012213 2.24714 0)
(0.0305395 1.98452 0)
(0.31165 1.31092 -3.6607e-19)
(0.351588 1.15858 -7.92409e-19)
(0.22452 0.380829 1.41309e-18)
(1.00643 -0.00970316 0)
(1.00774 -0.00780034 4.77777e-19)
(-0.0266243 1.31776 0)
(-0.0356175 1.31928 0)
(1.00245 0.00329172 1.36473e-21)
(1.00322 0.00785022 9.80819e-19)
(-0.0221279 2.5484 1.38243e-20)
(-0.0263377 2.59122 0)
(0.0413597 3.17271 5.02135e-19)
(0.377545 3.54866 0)
(1.1467 0.683966 -5.28848e-20)
(1.01191 0.0107473 -2.80094e-21)
(1.0208 -0.00909049 0)
(1.00159 0.000249504 1.55152e-22)
(0.108659 1.36371 0)
(0.142196 2.59277 0)
(0.0233551 1.31466 0)
(-0.00263019 2.63624 1.74047e-20)
(-0.0213855 2.58558 5.62218e-21)
(0.9981 0.0272542 2.70651e-21)
(1.06242 0.00539566 0)
(1.09855 0.0275833 0)
(-0.0282202 1.73958 0)
(-0.0183138 2.58992 0)
(-0.00489356 1.31369 0)
(0.294715 1.48286 -1.77018e-19)
(1.01149 -0.00908364 0)
(1.0097 -0.0130024 0)
(1.0023 0.000947347 6.12554e-19)
(1.00548 -0.00493628 -7.2122e-19)
(1.00114 -0.000873541 0)
(-0.0124507 1.4578 0)
(-0.0100107 1.36891 0)
(-0.0104231 1.41516 0)
(-0.00891634 1.30184 0)
(-0.0194388 1.28647 0)
(-0.00866233 1.27056 0)
(1.03545 -0.00449335 0)
(1.0192 0.0150136 -8.96848e-22)
(0.800304 1.30129 2.78369e-19)
(1.00235 0.000370426 -6.10899e-19)
(1.0034 0.00449113 7.29835e-19)
(1.00128 0.00210287 0)
(1.01125 0.00966255 6.08806e-19)
(1.00692 0.00751083 -7.41273e-19)
(1.00723 0.0111853 0)
(-0.0236766 2.61891 0)
(-0.0266954 2.59896 -2.37757e-20)
(-0.0239292 2.61257 1.68223e-20)
(1.23671 0.269186 5.18341e-19)
(1.16119 0.0876365 0)
(0.0444083 3.09109 -9.90868e-19)
(0.0509054 2.87243 -7.01737e-20)
(0.103936 3.20118 1.32844e-18)
(0.122799 3.21333 -2.86911e-19)
(0.144591 3.25951 0)
(0.0223337 3.13769 2.73003e-19)
(0.0612114 3.16182 9.87055e-19)
(0.0617727 3.17859 -5.10429e-19)
(0.0267082 3.12931 0)
(0.613335 0.286635 0)
(0.553792 0.326338 0)
(1.12706 0.715217 1.21159e-19)
(1.09382 0.848959 -1.07374e-19)
(1.186 0.60287 0)
(1.21588 0.537461 0)
(1.0158 0.0120427 -1.13091e-18)
(1.01474 0.0128072 1.4218e-18)
(1.0256 -0.00879838 0)
(1.02392 -0.0103645 0)
(1.00665 0.00297048 0)
(1.01089 0.00417901 0)
(1.00435 0.0021804 0)
(1.00951 0.00644061 0)
(1.00695 0.00506871 0)
(1.00449 0.00530114 0)
(0.0965237 1.36111 0)
(0.079314 1.34046 0)
(0.134312 1.40881 0)
(0.133777 1.40941 0)
(0.15164 2.61575 0)
(0.191646 2.68114 -4.13623e-19)
(0.107025 2.67668 0)
(0.0810467 2.67682 1.70544e-19)
(0.0279377 2.67983 -1.7215e-19)
(0.0130662 1.32207 0)
(0.0185412 1.25287 0)
(0.0169916 1.33571 0)
(0.0333063 1.28158 0)
(-0.000861503 1.99138 1.13579e-20)
(-0.0212044 2.61349 -1.71881e-20)
(-0.00923444 2.67829 -1.11998e-21)
(-0.0199438 2.69098 0)
(-0.0226608 2.62057 -7.67167e-21)
(-0.0211239 2.61601 1.63371e-20)
(0.00718795 1.98993 -6.73098e-21)
(-0.00853721 2.40625 2.30609e-20)
(-0.0139739 2.4285 1.26983e-21)
(1.00963 0.0387034 1.14717e-18)
(1.00545 0.0176294 -1.42861e-18)
(1.00271 0.0445673 -1.17412e-18)
(0.975595 0.0315051 1.47882e-18)
(1.06403 0.00869485 0)
(1.04944 -0.00663125 0)
(1.09145 0.0361736 0)
(1.07486 0.0142341 0)
(1.07357 0.000177759 0)
(1.13982 0.0772022 0)
(1.11376 0.04436 0)
(1.11625 0.0367724 0)
(-0.0267198 2.44139 2.02205e-21)
(-0.0166232 2.02006 0)
(-0.0174722 2.22432 0)
(-0.0201554 2.61052 -1.19051e-20)
(-0.0171244 2.62063 3.15559e-22)
(0.00285271 1.57328 -4.1754e-20)
(-0.00335444 1.49894 4.26037e-20)
(-0.0147303 1.389 0)
(-0.0184668 1.39445 0)
(-0.0212701 1.38804 0)
(-0.00176143 1.31504 0)
(0.0104 1.24745 0)
(0.375789 1.50465 2.96769e-19)
(0.423624 1.50958 1.55556e-19)
(0.605053 2.46583 -2.44343e-19)
(0.390033 2.56503 7.10426e-19)
(0.351623 2.06624 6.7294e-20)
(1.02061 -0.00807211 0)
(1.01574 -0.00940094 0)
(1.01482 -0.0132409 0)
(1.00764 -0.000630813 0)
(1.00491 -0.000654085 0)
(1.00798 -0.00453235 0)
(1.00953 -0.0035146 0)
(1.0146 -0.00437799 0)
(1.01996 0.0160107 1.10938e-18)
(1.01749 0.0147493 -1.40306e-18)
(1.02038 0.0182298 -1.11872e-18)
(1.01807 0.0167558 1.39691e-18)
(0.75586 1.34731 0)
(0.693888 1.38342 2.47692e-19)
(0.86381 1.22772 1.00553e-19)
(0.900631 1.18659 -1.33447e-19)
(1.16695 2.61994 2.54822e-19)
(0.77095 0.12179 5.7465e-19)
(1.1689 0.104548 0)
(1.20976 0.196767 -4.20002e-19)
(1.19033 0.153381 -1.74321e-20)
(1.01408 0.161153 0)
(0.0817874 3.02163 3.46931e-19)
(0.0852989 2.90463 -1.17511e-18)
(0.0311532 2.36454 7.45428e-19)
(0.134164 -0.146594 -3.55224e-19)
(0.345506 3.45154 -2.52869e-19)
(0.195576 3.34341 0)
(0.226373 3.40193 3.29392e-19)
(0.226497 3.08013 -1.21914e-18)
(0.259739 3.19988 0)
(0.00636595 3.12259 5.13391e-20)
(0.017632 3.13115 -5.89178e-19)
(0.0161264 3.12702 8.67167e-19)
(0.0329792 3.13992 0)
(0.0308312 3.1497 0)
(1.26227 2.58589 0)
(0.5321 0.807432 -5.18273e-19)
(1.0129 1.01962 -8.16308e-21)
(0.977127 1.07226 0)
(0.846841 0.95948 -1.06529e-19)
(1.06967 0.896631 2.64101e-20)
(0.389858 0.34923 -8.72112e-19)
(0.681116 0.30991 -2.31938e-20)
(0.613465 0.223822 3.9767e-19)
(0.578724 0.351786 2.9431e-20)
(0.487005 0.318756 -1.18307e-18)
(0.641506 0.31679 0)
(0.698935 0.413177 6.66826e-19)
(0.699316 0.417799 0)
(0.615227 0.340947 0)
(0.555838 0.269416 0)
(0.785226 0.645591 3.913e-19)
(1.2457 0.299979 -4.24162e-19)
(1.23618 0.43273 0)
(1.23937 0.388563 0)
(0.722149 0.181864 5.98376e-19)
(0.836371 0.544933 -3.73055e-19)
(0.754716 0.505995 6.63516e-19)
(0.955042 0.43379 -6.8336e-19)
(1.01866 0.0145624 7.52025e-19)
(1.01723 0.0135995 -7.60403e-19)
(1.01609 0.0142009 0)
(1.03679 -0.00469886 0)
(1.03026 -0.00779016 -7.12848e-19)
(1.02843 -0.0106848 7.0548e-19)
(1.02477 0.0106532 0)
(1.02284 0.0146871 0)
(1.01265 0.00456783 0)
(1.01456 0.00910128 0)
(1.0162 0.00407021 0)
(1.01545 0.00282694 0)
(0.06532 1.35738 0)
(0.0638641 1.31829 0)
(0.140946 1.40702 5.58649e-20)
(0.267825 1.47707 8.45566e-20)
(0.162241 1.44984 1.86225e-19)
(0.193843 1.45435 -3.0284e-19)
(0.146506 1.41439 0)
(0.130965 1.58143 -9.06596e-20)
(0.131174 1.57474 0)
(0.34625 2.02482 -9.79539e-20)
(0.327764 2.34507 5.91505e-19)
(0.188209 1.45445 7.90339e-20)
(0.265679 1.38099 2.5574e-20)
(0.195429 1.38079 -2.08567e-20)
(0.280219 1.31934 -8.26726e-20)
(0.254355 1.57912 0)
(0.256415 1.62895 9.27767e-20)
(0.0247367 2.27204 -1.66112e-20)
(0.0351541 2.67485 0)
(0.0654858 2.41508 1.00006e-19)
(0.0602571 2.43511 0)
(0.0675149 2.69419 -1.89306e-19)
(0.0417549 2.70856 0)
(0.0232516 1.42867 3.80818e-20)
(0.0340512 1.48763 0)
(0.0303086 1.39208 0)
(0.0191533 1.39359 -4.42688e-20)
(-0.000428165 2.66319 -7.84093e-22)
(0.0226998 2.69743 1.97014e-19)
(0.00675821 2.73258 1.13096e-21)
(0.000193444 1.8371 -5.49025e-21)
(-0.00474478 1.68861 -6.35199e-21)
(0.0128901 1.30113 0)
(0.0156357 1.23009 0)
(0.0354706 1.583 -7.69297e-21)
(0.0352384 1.4584 -2.63555e-20)
(0.0317266 1.52923 2.90477e-20)
(0.0411976 1.61042 0)
(-0.0282388 2.27522 9.12367e-20)
(-0.0305991 2.55813 -3.88642e-20)
(-0.0170356 2.45586 4.77728e-21)
(-0.00438858 1.85477 6.65748e-21)
(-0.0254206 2.50894 4.31676e-21)
(-0.0219628 2.44868 1.05471e-21)
(1.01824 0.0213784 -7.57569e-19)
(1.01432 0.0274872 7.62561e-19)
(1.01312 0.0165403 0)
(1.01202 0.06926 1.0443e-18)
(0.990939 0.0559615 -1.20494e-18)
(0.951798 0.0529802 1.34899e-18)
(1.01333 0.114585 -1.42068e-19)
(1.04361 -0.00487683 0)
(1.05173 -0.000736877 6.82114e-19)
(1.03998 -0.00828065 -6.81865e-19)
(1.07143 0.0424046 -4.04331e-20)
(1.06442 0.0276991 3.49251e-19)
(1.06449 0.0638804 0)
(1.05412 0.0528564 -1.25825e-19)
(1.03226 0.043713 0)
(1.02547 0.0389416 0)
(1.02767 0.0134241 0)
(1.02402 0.0159451 0)
(1.04058 0.0328937 2.58708e-19)
(1.03947 0.0280925 -5.72875e-19)
(1.05262 0.0374952 -2.73616e-19)
(1.04818 0.0374558 -3.02089e-19)
(1.07703 0.0681126 5.77579e-19)
(1.10064 0.0540792 0)
(1.1074 0.0925449 0)
(-0.0248824 2.28273 5.89906e-20)
(-0.0255071 2.02718 2.05638e-21)
(-0.0212698 2.03622 0)
(-0.0284177 2.4532 -5.87386e-20)
(-0.0251056 2.41126 -3.99383e-21)
(-0.0321508 2.48251 6.96178e-21)
(-0.0202016 2.62924 -1.35458e-20)
(-0.0236402 2.57255 5.16967e-22)
(-0.0218924 2.52455 -5.06192e-21)
(-0.0159749 2.62381 1.20975e-20)
(-0.0200562 2.6253 -1.34247e-20)
(-0.00532999 1.4864 -2.04522e-22)
(0.000478542 1.62241 -3.87871e-20)
(0.364048 1.44008 -1.27628e-19)
(0.363653 1.36814 8.97381e-21)
(0.63716 1.4312 -2.39909e-19)
(0.513027 1.50177 -1.51152e-19)
(0.566015 1.46257 0)
(0.604758 2.43831 2.07073e-19)
(0.667916 2.43658 3.35142e-19)
(0.418677 2.52744 9.13039e-20)
(0.400669 2.54979 -6.09517e-19)
(0.500674 2.48958 5.60812e-19)
(0.560733 2.48043 0)
(0.488269 2.53667 -5.45317e-19)
(0.259568 2.59931 1.12932e-18)
(0.370895 2.5724 -6.31837e-20)
(0.285567 2.66128 -1.58702e-18)
(0.967107 2.39693 6.98529e-19)
(0.848563 2.39765 0)
(1.01145 0.0013205 2.48197e-20)
(1.01532 -0.00527539 -2.0262e-20)
(1.01768 -0.00406195 -3.70416e-19)
(1.01552 -0.00114838 3.69043e-19)
(1.01306 0.00175186 0)
(0.625991 1.2984 0)
(0.668777 1.18887 0)
(0.783789 1.11096 0)
(0.656203 1.14476 0)
(1.19754 2.63592 5.07673e-20)
(1.09025 2.38631 0)
(0.823925 2.1884 3.35455e-21)
(0.825025 2.44871 0)
(0.918923 2.53708 -4.17123e-19)
(0.950813 2.48651 2.78611e-19)
(0.796322 0.156304 0)
(0.754813 0.137903 1.56445e-19)
(0.91936 0.155228 9.08401e-19)
(0.826263 0.134928 -3.41916e-19)
(0.778628 0.0853852 -1.04625e-18)
(1.08565 0.238258 -8.31384e-19)
(0.9843 0.304109 -7.99912e-21)
(0.930115 0.338924 8.1402e-19)
(1.01974 0.249726 6.83812e-19)
(0.935498 0.197604 -1.20105e-18)
(0.895232 0.209965 1.50852e-19)
(0.934954 0.301766 -3.13779e-19)
(0.909991 0.213836 0)
(1.00094 0.199879 5.87765e-19)
(1.05583 0.214912 0)
(1.0508 0.22179 0)
(1.12287 0.12134 2.6434e-19)
(1.06524 0.188269 -1.05598e-20)
(1.07873 0.24035 -1.50805e-19)
(1.11371 0.206237 0)
(1.02336 0.0479966 5.86667e-19)
(1.03858 0.0620819 7.28687e-19)
(1.03274 0.0457953 -5.81916e-19)
(1.04235 0.0678554 -4.88646e-19)
(1.01493 0.0736454 -7.39497e-19)
(0.989375 0.165554 0)
(0.991743 0.106655 0)
(0.96124 0.06725 -4.79077e-19)
(0.908163 0.096786 1.89728e-19)
(1.03969 0.114222 6.75782e-19)
(1.07483 0.133209 -7.74357e-19)
(1.06892 0.175012 6.95797e-19)
(1.03602 0.152321 0)
(1.08497 0.119216 0)
(1.05745 0.109076 -3.17073e-19)
(1.04416 0.105732 -5.49491e-19)
(0.590797 1.10616 1.0776e-19)
(0.621942 1.4266 -1.33358e-20)
(1.14739 2.72849 -2.34118e-19)
(1.20001 3.11091 -5.54565e-23)
(1.2561 2.73696 -1.06991e-19)
(1.297 2.70854 9.53407e-21)
(1.27308 2.33168 -3.7397e-20)
(1.1879 3.01676 -6.30872e-20)
(1.20689 2.97367 2.06913e-19)
(1.18205 3.26494 -1.27663e-19)
(1.40099 2.98085 1.58389e-19)
(1.41286 2.91885 0)
(0.56347 0.83025 -4.674e-20)
(0.227124 1.21805 4.80338e-19)
(0.504558 0.412603 5.57195e-19)
(0.385111 0.174472 6.39067e-19)
(0.520223 0.346949 6.68258e-19)
(0.550354 0.44602 -1.07995e-18)
(0.553709 0.440023 8.85902e-19)
(0.49833 0.364109 -3.3875e-19)
(0.411733 0.29898 7.66244e-19)
(0.743404 0.242295 -3.43511e-19)
(0.704796 0.271061 0)
(0.660806 0.193492 8.33832e-21)
(0.737092 0.500634 3.6259e-19)
(0.698394 0.473451 -1.31844e-18)
(0.633886 0.450014 1.9244e-20)
(0.630704 0.426463 0)
(0.708894 0.717136 3.71062e-19)
(0.825309 0.793232 4.07242e-19)
(0.760497 0.846875 -4.74821e-19)
(0.89473 0.813223 -1.51646e-19)
(0.926321 0.853417 -3.57303e-20)
(0.93417 0.860741 3.66397e-20)
(0.875285 0.670666 -6.65535e-19)
(0.945865 0.717438 1.40987e-19)
(0.99702 0.720974 0)
(0.99407 0.696763 -1.82742e-19)
(1.0286 0.327971 2.12101e-19)
(1.15443 0.328226 2.54769e-19)
(1.0701 0.276373 3.40442e-19)
(0.991162 0.372073 -4.20699e-19)
(1.04572 0.476048 0)
(1.13055 0.418915 0)
(0.896392 0.414075 2.93117e-21)
(0.843738 0.299813 0)
(0.885952 0.288957 3.88179e-19)
(0.909005 0.335189 7.29649e-21)
(0.96971 0.479272 1.9132e-18)
(0.901825 0.540446 4.91247e-19)
(0.921282 0.490088 -5.27567e-19)
(0.841623 0.469868 5.60994e-19)
(0.815269 0.445909 3.51392e-19)
(0.791178 0.412779 -3.44501e-19)
(1.02805 -0.000416524 6.11957e-19)
(1.02032 0.000380218 0)
(1.01897 0.0012286 3.99309e-19)
(1.02252 -0.000944852 -9.03906e-19)
(1.02251 0.00439832 4.40358e-19)
(1.0201 0.011404 -9.21546e-19)
(1.02088 0.0111646 0)
(1.01982 0.0119104 -1.91977e-19)
(1.01649 0.00766339 4.81102e-19)
(1.01672 0.010783 -2.41504e-19)
(1.01734 0.0104326 1.76737e-19)
(0.0273962 1.32688 0)
(0.030325 1.3611 0)
(0.0437325 1.33519 0)
(0.0465435 1.29211 0)
(0.0753704 1.37402 -1.99346e-20)
(0.0881255 1.34733 -9.75009e-21)
(0.0605709 1.55073 -3.83322e-21)
(0.0971434 1.38098 -4.77226e-20)
(0.040389 1.46803 2.42188e-20)
(0.0436972 1.46509 -1.94574e-20)
(0.0673763 1.37411 -3.32024e-20)
(0.0579069 1.37828 6.11282e-20)
(0.0479695 1.35443 9.34177e-21)
(0.0402735 1.37693 4.43283e-21)
(0.104119 2.38495 -1.0993e-19)
(0.0939347 2.42862 0)
(0.146727 2.03249 1.03659e-19)
(0.116525 1.70332 3.99968e-20)
(0.223919 2.0227 -8.42167e-20)
(0.196697 2.44469 0)
(0.223696 2.40075 -6.37785e-19)
(0.322626 2.37793 4.38157e-19)
(0.247074 1.99887 -2.30661e-19)
(0.1336 2.1591 1.55858e-19)
(0.112637 2.26562 0)
(0.0197039 1.86691 -1.95202e-20)
(-0.00616115 2.39182 -4.39957e-20)
(0.00262877 2.14163 0)
(0.00401332 2.45418 -1.50895e-20)
(0.0266575 2.29874 1.96425e-20)
(0.0123496 1.40781 -7.0607e-21)
(0.0142034 1.39456 1.23465e-19)
(0.0143744 1.40035 -3.91822e-20)
(0.0172679 1.40057 -3.58822e-20)
(0.0228523 1.43185 0)
(0.0125398 1.38435 0)
(0.00412688 1.30086 -5.07666e-20)
(0.00957278 1.37243 1.41206e-20)
(0.0127122 1.37357 0)
(0.00897947 1.29354 -3.81135e-20)
(0.0173713 1.2248 7.73344e-20)
(1.04221 0.0144746 0)
(1.04851 0.0100102 -6.38124e-20)
(1.03891 0.0235405 -4.61496e-19)
(1.04918 0.0225597 0)
(1.05434 0.0218578 0)
(1.03619 0.0124743 -6.74057e-21)
(1.03027 0.0127948 7.41355e-19)
(1.03186 0.0169185 9.0127e-19)
(1.02564 0.0207011 0)
(1.0221 0.0212809 0)
(1.03541 0.025446 4.60496e-19)
(1.02537 0.0275386 0)
(1.0236 0.0275802 0)
(-0.0178658 2.02666 0)
(-0.00244253 1.65033 -1.61076e-21)
(-0.00603761 1.75829 -2.71437e-20)
(-0.000349717 1.38109 0)
(-0.002171 1.54861 -1.89681e-20)
(-0.0100705 1.45855 1.34181e-20)
(-0.00810516 1.39318 0)
(0.406643 1.65285 0)
(0.359367 1.30749 -8.03739e-21)
(0.278575 1.34618 0)
(0.427183 1.31344 -6.33386e-20)
(0.462515 1.46686 0)
(0.447774 1.41003 5.11253e-20)
(1.04058 2.68299 -1.4911e-20)
(0.982292 2.417 -8.7784e-19)
(0.942657 2.21082 9.95557e-19)
(0.864306 2.39019 2.36029e-19)
(0.854838 2.50014 0)
(0.922274 2.49662 0)
(0.950914 2.39031 0)
(0.927503 2.37932 -9.15266e-19)
(0.694508 2.46897 -3.63996e-19)
(0.803003 2.45247 -9.47111e-20)
(0.810881 2.43066 7.14015e-20)
(0.705168 2.40967 0)
(0.809694 2.40309 0)
(0.771187 2.41908 -3.6115e-19)
(0.768619 2.47889 0)
(0.619391 1.07363 0)
(0.520342 0.883163 -5.31307e-19)
(0.524055 0.949534 -3.07357e-20)
(0.506959 1.09098 0)
(0.493186 1.0017 8.14771e-19)
(0.791058 0.882491 -1.3097e-19)
(0.794663 1.01409 0)
(0.773092 0.993176 1.81889e-19)
(0.661874 1.02278 0)
(0.658934 0.934249 0)
(1.16515 2.76363 -2.1118e-19)
(1.14037 2.822 -8.26941e-20)
(0.926739 2.34921 6.20405e-20)
(0.903096 2.32943 -7.19491e-20)
(1.13448 2.74167 0)
(1.08645 2.71007 8.64756e-20)
(1.10242 2.50403 -2.91495e-19)
(1.00334 2.26019 -2.8638e-20)
(0.503087 1.35192 0)
(0.522391 1.09417 -9.4982e-20)
(0.588777 1.18538 0)
(0.859255 0.221792 0)
(0.775689 0.173324 0)
(0.706269 0.140543 0)
(0.859596 0.220738 -5.9643e-19)
(0.763886 0.215926 3.58293e-19)
(0.921078 0.0809703 -3.92607e-19)
(0.94034 0.133404 0)
(0.915625 0.145257 1.69298e-19)
(0.850518 0.102237 6.79266e-19)
(0.807127 0.0689938 -4.25725e-19)
(1.10136 3.35794 -6.88774e-19)
(1.16743 3.28069 0)
(1.12039 3.44311 -1.59426e-18)
(0.660411 3.58844 1.32927e-18)
(1.03161 3.08424 1.32402e-19)
(0.528824 0.809902 5.58001e-19)
(0.513659 0.781796 0)
(0.370782 0.438607 -1.45006e-19)
(0.473613 0.650345 8.43685e-19)
(0.531148 0.414352 -1.96526e-19)
(0.514189 0.479111 2.27867e-19)
(0.682718 0.528961 4.71829e-19)
(0.724692 0.561954 0)
(0.650594 0.584615 0)
(0.623652 0.539779 0)
(1.00142 0.60473 9.07837e-20)
(0.956053 0.583696 -4.75336e-19)
(0.96757 0.598516 3.58972e-19)
(1.03099 0.534686 -3.53225e-19)
(1.07633 0.506248 0)
(1.07999 0.593436 -9.15856e-20)
(0.871396 0.404974 -7.82043e-19)
(0.863815 0.39592 -9.99641e-19)
(0.804018 0.386961 6.16363e-19)
(0.809019 0.348415 -6.38859e-19)
(0.849138 0.310111 -4.99863e-19)
(0.803028 0.311069 6.14235e-19)
(1.02657 0.0064237 -4.6076e-19)
(1.0262 0.00655127 9.2866e-19)
(1.02981 0.000701307 5.92951e-19)
(1.03397 0.00139487 -7.12104e-19)
(1.0337 0.0113045 0)
(1.02982 0.0115118 -1.15968e-18)
(0.08658 1.65587 1.11211e-20)
(0.0505288 1.59544 0)
(0.0939215 1.70364 7.52269e-20)
(0.106802 1.67891 -6.85036e-20)
(0.0507337 1.54602 7.15303e-21)
(0.036902 1.5392 0)
(0.00621459 1.68649 0)
(-0.00403155 1.49405 8.77027e-21)
(-0.00233358 1.4362 -7.87301e-21)
(-0.00570277 1.54596 4.60098e-21)
(-0.00056351 1.88638 1.21816e-20)
(-0.01169 1.9405 -3.49341e-21)
(0.495242 1.37681 -2.35222e-19)
(0.497424 1.37402 2.57482e-19)
(0.443898 1.30458 4.1909e-21)
(0.42939 1.30136 6.47141e-21)
(0.617672 1.30554 0)
(0.545362 1.3979 1.26848e-19)
(0.546326 1.40063 -1.23537e-19)
(0.475716 1.28921 -4.04064e-21)
(0.519971 1.2483 0)
(0.585161 1.21755 0)
(0.669001 2.43206 5.36273e-19)
(0.662216 2.45828 1.25743e-18)
(0.71981 2.47355 -8.64753e-19)
(0.620814 2.44557 -1.98048e-19)
(0.555952 2.542 2.6758e-19)
(0.496151 2.50484 -6.94019e-19)
(0.991411 2.39436 -5.60635e-19)
(1.02538 2.41246 0)
(0.949239 2.19536 -6.17886e-19)
(1.05684 2.69086 0)
(1.05614 2.67327 0)
(0.612925 2.30569 3.50953e-20)
(1.12316 3.07738 1.01429e-19)
(1.00422 2.97796 -1.55662e-19)
(0.332401 0.841241 0)
(0.343263 0.739871 -2.97994e-19)
(0.538959 0.669082 -3.00832e-19)
(0.378132 2.15105 0)
(0.408635 2.74784 -9.31554e-20)
(0.419944 2.48588 0)
(0.714958 0.674671 -7.93537e-19)
(0.773763 0.67904 1.11093e-18)
(0.788049 0.648003 -1.0528e-18)
(0.688525 0.642527 -1.0105e-19)
(0.750496 0.60129 -4.15285e-19)
(0.97768 2.76337 -7.68293e-20)
(1.01662 2.76684 -1.89219e-19)
(0.56532 2.22953 3.9164e-19)
(0.615147 1.75094 -3.16746e-19)
(0.712698 1.86921 -4.71251e-19)
(0.982524 2.40414 -1.35276e-19)
(0.981236 2.35878 3.43879e-19)
(0.658849 1.78658 3.17072e-20)
(0.465698 1.31719 1.65065e-19)
)
;

boundaryField
{
    wall-4
    {
        type            noSlip;
    }
    velocity-inlet-5
    {
        type            fixedValue;
        value           uniform (1 0 0);
    }
    velocity-inlet-6
    {
        type            fixedValue;
        value           uniform (0 3 0);
    }
    pressure-outlet-7
    {
        type            zeroGradient;
    }
    wall-8
    {
        type            noSlip;
    }
    frontAndBackPlanes
    {
        type            empty;
    }
}


// ************************************************************************* //
