/*--------------------------------*- C++ -*----------------------------------*\
  =========                 |
  \\      /  F ield         | OpenFOAM: The Open Source CFD Toolbox
   \\    /   O peration     | Website:  https://openfoam.org
    \\  /    A nd           | Version:  6
     \\/     M anipulation  |
\*---------------------------------------------------------------------------*/
FoamFile
{
    version     2.0;
    format      ascii;
    class       volScalarField;
    location    "3.5";
    object      Ma;
}
// * * * * * * * * * * * * * * * * * * * * * * * * * * * * * * * * * * * * * //

dimensions      [0 0 0 0 0 0 0];

internalField   nonuniform List<scalar> 
26250
(
3.04658
3.077
3.10412
3.12672
3.14769
3.16453
3.18058
3.19009
3.1897
3.17409
3.1285
2.98784
2.68838
1.95032
0.946908
0.43772
0.495219
0.579028
0.630896
0.619656
0.608926
0.57472
0.493582
0.348337
0.234494
3.04657
3.07701
3.10411
3.12673
3.14768
3.16454
3.18058
3.19013
3.18975
3.17429
3.12896
2.98901
2.69069
1.95502
0.955509
0.454361
0.509267
0.590885
0.643228
0.644436
0.625844
0.588129
0.512974
0.377124
0.269292
3.04655
3.07704
3.10408
3.12675
3.14766
3.16457
3.18057
3.19026
3.18991
3.1747
3.12999
2.99091
2.69526
1.96006
0.96
0.442799
0.500326
0.584727
0.636746
0.638145
0.616761
0.574541
0.500292
0.365914
0.256667
3.04633
3.07725
3.10384
3.127
3.14741
3.16482
3.18046
3.19084
3.19043
3.17576
3.13484
2.99472
2.70471
1.97464
0.974599
0.472839
0.523842
0.600043
0.648274
0.64126
0.621711
0.57973
0.502777
0.366171
0.254792
3.04563
3.07796
3.10309
3.12778
3.14659
3.16571
3.17935
3.19148
3.18794
3.18207
3.13028
3.02107
2.6821
2.01278
1.01801
0.502682
0.547309
0.618436
0.66397
0.661225
0.640493
0.598146
0.519141
0.380309
0.266715
3.0462
3.07739
3.1037
3.12712
3.14727
3.16495
3.18028
3.19079
3.19073
3.17807
3.14322
3.00498
2.72914
2.0111
1.02435
0.522515
0.560968
0.62816
0.675145
0.67427
0.653912
0.612975
0.53558
0.397793
0.285372
3.04574
3.07786
3.1032
3.12766
3.14669
3.16562
3.17949
3.19176
3.18972
3.18397
3.13528
3.03325
2.70663
2.07007
1.08571
0.568398
0.589647
0.649627
0.693399
0.693656
0.672814
0.632825
0.558161
0.423645
0.31634
3.04635
3.07731
3.10383
3.12699
3.14742
3.16482
3.18049
3.19105
3.19101
3.17983
3.14544
3.01849
2.7612
2.06556
1.10734
0.595348
0.605528
0.660649
0.70725
0.709768
0.691444
0.655445
0.587467
0.461627
0.368676
3.0475
3.07607
3.10511
3.12571
3.14874
3.16346
3.18169
3.18903
3.19185
3.18107
3.14649
3.02761
2.78031
2.1082
1.17474
0.64574
0.638361
0.685036
0.72788
0.730806
0.71529
0.685117
0.628483
0.520351
0.458395
3.04835
3.07519
3.10601
3.12477
3.14967
3.16257
3.18281
3.18861
3.19454
3.18375
3.15378
3.03929
2.80671
2.14724
1.22095
0.696602
0.67622
0.715777
0.753471
0.75744
0.745882
0.724601
0.687275
0.617644
0.627783
2.96753
2.95206
2.9411
2.9352
2.9297
2.92707
2.92327
2.91932
2.90367
2.87773
2.79874
2.62824
2.2524
1.44474
0.346227
0.259995
0.0477232
0.261024
0.303658
0.242826
0.232354
0.175066
0.0687483
0.043332
0.0964215
2.96753
2.95206
2.94111
2.9352
2.9297
2.92707
2.92327
2.91934
2.90374
2.87787
2.79912
2.62901
2.25397
1.44959
0.355225
0.224689
0.0638212
0.274194
0.322034
0.288464
0.251511
0.188923
0.0994565
0.073171
0.133965
2.96753
2.95206
2.94111
2.9352
2.9297
2.92707
2.92328
2.91939
2.9039
2.87823
2.79993
2.63107
2.25769
1.45589
0.358557
0.255878
0.0775059
0.280387
0.327248
0.296418
0.259416
0.20584
0.136518
0.1168
0.141001
2.96752
2.95207
2.94109
2.9352
2.9297
2.92707
2.92331
2.91948
2.90418
2.87883
2.80115
2.63448
2.26317
1.4672
0.376484
0.217557
0.106376
0.294855
0.331574
0.285071
0.266952
0.227735
0.180696
0.165017
0.162756
2.96757
2.95199
2.94115
2.93512
2.92976
2.927
2.92345
2.91975
2.90546
2.87912
2.80892
2.62985
2.27904
1.4776
0.377007
0.205162
0.131026
0.311837
0.348349
0.317759
0.293673
0.262327
0.229376
0.214899
0.197775
2.96753
2.95205
2.9411
2.93518
2.92971
2.92706
2.92339
2.91972
2.90505
2.88068
2.80533
2.64599
2.28378
1.51347
0.429091
0.188827
0.159815
0.332731
0.368782
0.345198
0.325565
0.302993
0.280979
0.268076
0.245004
2.96758
2.95198
2.94116
2.93511
2.92977
2.92701
2.92349
2.91993
2.90628
2.88143
2.81401
2.64375
2.30685
1.54061
0.452478
0.167077
0.192544
0.355964
0.39274
0.377086
0.362035
0.348867
0.337172
0.327712
0.30748
2.96754
2.95205
2.94112
2.93518
2.92973
2.92707
2.92345
2.91997
2.90606
2.88334
2.8118
2.66124
2.31947
1.58386
0.524594
0.157349
0.226913
0.381596
0.419138
0.410029
0.402914
0.399144
0.39909
0.396952
0.390385
2.96763
2.952
2.94119
2.93516
2.92977
2.92707
2.92349
2.92008
2.9067
2.88501
2.81589
2.67062
2.34104
1.62157
0.586879
0.163813
0.266684
0.41019
0.446957
0.444444
0.446933
0.453644
0.467442
0.481614
0.505985
2.96773
2.95194
2.94125
2.93512
2.92982
2.92706
2.92356
2.92033
2.90773
2.887
2.82167
2.68102
2.364
1.6663
0.649045
0.192745
0.311201
0.441633
0.47678
0.480364
0.491201
0.510625
0.545228
0.586819
0.693303
2.98569
2.97025
2.95102
2.93552
2.91916
2.90732
2.89389
2.88305
2.86183
2.82787
2.73677
2.54371
2.14355
1.27456
0.116079
0.563953
0.0737585
0.186261
0.235885
0.178209
0.0959223
0.076997
0.0957116
0.0695576
0.0638909
2.98566
2.97029
2.95099
2.93555
2.91913
2.90735
2.89387
2.8831
2.86181
2.82814
2.73662
2.54559
2.14395
1.27415
0.121054
0.556099
0.0756398
0.199437
0.239621
0.169036
0.133318
0.115769
0.133907
0.115599
0.0999129
2.9857
2.97025
2.95102
2.93552
2.91916
2.90732
2.8939
2.88311
2.86203
2.82828
2.73784
2.54588
2.14812
1.28225
0.13184
0.541709
0.0869257
0.217231
0.247243
0.183465
0.1665
0.155987
0.177138
0.169346
0.147009
2.98566
2.97029
2.95099
2.93555
2.91912
2.90736
2.89388
2.88319
2.86219
2.82892
2.73866
2.54989
2.1529
1.29007
0.146296
0.52382
0.106653
0.240093
0.26306
0.212841
0.203299
0.19964
0.22319
0.223353
0.1984
2.98562
2.97033
2.95095
2.93559
2.91909
2.90739
2.89387
2.88331
2.86247
2.82983
2.74012
2.55552
2.16099
1.30559
0.174546
0.493487
0.131292
0.266392
0.284744
0.248526
0.236922
0.245926
0.27134
0.278181
0.252912
2.98564
2.97031
2.95097
2.93557
2.9191
2.90739
2.8939
2.88341
2.863
2.83074
2.74319
2.56078
2.1746
1.3337
0.21045
0.458631
0.157999
0.294582
0.312019
0.287711
0.274224
0.294808
0.322432
0.336142
0.314139
2.9856
2.97034
2.95093
2.93561
2.91907
2.90743
2.89389
2.88357
2.86358
2.83216
2.74652
2.5698
2.19154
1.36969
0.25628
0.418837
0.187196
0.324308
0.343289
0.329923
0.318709
0.347376
0.378002
0.400789
0.386881
2.98558
2.97037
2.95091
2.93563
2.91906
2.90745
2.89391
2.88374
2.86432
2.83374
2.7507
2.57983
2.21179
1.41546
0.313784
0.372872
0.218929
0.355249
0.377121
0.37365
0.369398
0.400937
0.439124
0.473426
0.475836
2.98552
2.97043
2.95086
2.9357
2.919
2.90753
2.89388
2.88396
2.86509
2.8357
2.75497
2.59304
2.23382
1.47071
0.38298
0.31866
0.253141
0.387394
0.412297
0.417527
0.423696
0.458786
0.506507
0.557779
0.592886
2.98565
2.97031
2.95098
2.93558
2.91912
2.90743
2.89402
2.88425
2.86622
2.8376
2.76069
2.60088
2.26002
1.52995
0.452805
0.265798
0.290117
0.41886
0.446793
0.460081
0.476358
0.518403
0.581014
0.656742
0.779729
2.96752
2.95208
2.94109
2.9352
2.92969
2.92708
2.92328
2.91938
2.90378
2.87796
2.79901
2.62855
2.25176
1.43947
0.344032
0.236602
0.0498021
0.267417
0.323188
0.304068
0.269159
0.210164
0.123201
0.0573753
0.119214
2.96756
2.952
2.94115
2.93512
2.92976
2.927
2.92341
2.91959
2.90486
2.87753
2.8053
2.62014
2.25961
1.43039
0.31585
0.298556
0.053773
0.261332
0.301124
0.231745
0.224946
0.17645
0.0965497
0.0806943
0.120452
2.96752
2.95207
2.9411
2.9352
2.9297
2.92707
2.92331
2.91944
2.90401
2.87846
2.79998
2.63137
2.25602
1.44526
0.353018
0.234079
0.0826895
0.276679
0.310462
0.256032
0.238402
0.188272
0.125243
0.125436
0.136517
2.96755
2.95201
2.94114
2.93513
2.92975
2.927
2.92343
2.91967
2.90507
2.87833
2.80683
2.62474
2.26877
1.45077
0.348561
0.225984
0.10316
0.292573
0.329809
0.294455
0.262517
0.216851
0.169737
0.170765
0.166171
2.96755
2.95201
2.94114
2.93513
2.92975
2.92701
2.92344
2.91972
2.90527
2.87907
2.80828
2.62915
2.27746
1.46963
0.370092
0.224219
0.128898
0.308135
0.343879
0.311934
0.289259
0.25434
0.21981
0.218157
0.202792
2.96757
2.952
2.94115
2.93512
2.92976
2.92701
2.92346
2.91981
2.90572
2.88008
2.8108
2.63541
2.29018
1.50141
0.406394
0.191809
0.159602
0.329621
0.365676
0.343671
0.322149
0.297981
0.273982
0.269761
0.249771
2.96753
2.95206
2.94111
2.93518
2.92972
2.92706
2.92342
2.91984
2.90552
2.88177
2.80814
2.65349
2.29956
1.55359
0.475028
0.170545
0.192775
0.354649
0.390498
0.374502
0.359352
0.345746
0.33232
0.328329
0.311361
2.96753
2.95206
2.94111
2.93519
2.92972
2.92708
2.92343
2.91997
2.90598
2.88329
2.81195
2.66008
2.32087
1.58448
0.529654
0.154638
0.229877
0.382419
0.41835
0.408263
0.401009
0.397184
0.395826
0.397215
0.393262
2.96755
2.95205
2.94114
2.93517
2.92974
2.92707
2.92348
2.9201
2.90668
2.88496
2.81573
2.67063
2.34068
1.62198
0.588409
0.162556
0.267961
0.411617
0.447245
0.443635
0.44556
0.452285
0.465187
0.481445
0.507895
2.96773
2.95195
2.94126
2.93512
2.92982
2.92706
2.92356
2.92033
2.90771
2.88694
2.82154
2.68079
2.36364
1.66642
0.649743
0.192902
0.31242
0.443171
0.477715
0.480373
0.49059
0.509733
0.543598
0.58606
0.694609
3.04636
3.07724
3.10387
3.12696
3.14745
3.16478
3.18048
3.19085
3.19033
3.17504
3.13313
2.98932
2.69392
1.9511
0.936016
0.444354
0.502019
0.586721
0.640756
0.64295
0.626229
0.585408
0.507879
0.370957
0.26317
3.04554
3.07808
3.10299
3.12789
3.14647
3.16582
3.17919
3.19141
3.18706
3.18076
3.12653
3.01243
2.65777
1.963
0.972077
0.44186
0.501579
0.5885
0.636906
0.625629
0.613533
0.576026
0.493089
0.350112
0.241956
3.04635
3.07724
3.10386
3.12696
3.14743
3.16478
3.1804
3.19051
3.19027
3.1759
3.13823
2.99344
2.70589
1.96059
0.939104
0.450223
0.507806
0.588936
0.638028
0.626812
0.6137
0.576496
0.492393
0.346666
0.235866
3.04554
3.07807
3.10298
3.12788
3.14647
3.1658
3.1792
3.19126
3.18689
3.17976
3.12692
3.00995
2.66744
1.995
0.996502
0.486326
0.535649
0.611127
0.656622
0.653698
0.633649
0.593725
0.512081
0.368038
0.252929
3.04558
3.07803
3.10302
3.12783
3.14652
3.16574
3.17929
3.19115
3.18714
3.17868
3.12837
3.01247
2.67772
2.03115
0.997128
0.486895
0.537528
0.61263
0.657849
0.654922
0.636538
0.597692
0.519588
0.379416
0.265561
3.04565
3.07796
3.1031
3.12776
3.14659
3.1657
3.17936
3.19146
3.18829
3.18145
3.13135
3.02192
2.69053
2.04777
1.03785
0.526725
0.564666
0.630623
0.67412
0.673284
0.652187
0.612394
0.535539
0.397255
0.285212
3.04627
3.07735
3.10374
3.1271
3.14731
3.16492
3.18037
3.19107
3.19093
3.17795
3.14103
3.00958
2.74133
2.03633
1.06524
0.553534
0.578686
0.640882
0.687359
0.688574
0.667326
0.63011
0.556173
0.423306
0.317014
3.04626
3.07734
3.10377
3.12707
3.14736
3.16491
3.1804
3.19123
3.19103
3.17907
3.14153
3.01793
2.7592
2.07073
1.12053
0.601534
0.606784
0.660118
0.70609
0.707455
0.687217
0.652992
0.585109
0.46149
0.370016
3.04641
3.07718
3.10401
3.1269
3.14742
3.16475
3.18072
3.19058
3.19107
3.18105
3.14601
3.02771
2.78014
2.10839
1.17458
0.646842
0.639185
0.686009
0.72869
0.730675
0.713394
0.68433
0.627361
0.520751
0.459941
3.04834
3.07521
3.106
3.12478
3.14965
3.16256
3.18269
3.18877
3.19436
3.18363
3.15323
3.0389
2.80696
2.14642
1.22051
0.696426
0.676646
0.716691
0.754524
0.758123
0.745531
0.725032
0.687528
0.617714
0.628826
3.04514
3.07848
3.10255
3.12834
3.14602
3.16637
3.17894
3.19338
3.19329
3.18918
3.15056
3.06599
2.79193
2.26118
1.32608
0.769408
0.726757
0.756512
0.786697
0.791395
0.784614
0.775402
0.766951
0.76473
0.82397
3.04804
3.07546
3.10567
3.12508
3.1493
3.16295
3.1824
3.18994
3.19741
3.18827
3.1626
3.06197
2.84863
2.26873
1.35394
0.825499
0.775343
0.796601
0.821025
0.830023
0.830152
0.832508
0.843626
0.875173
0.956677
3.04517
3.07843
3.10258
3.12831
3.14602
3.1664
3.17901
3.1941
3.19628
3.19342
3.16142
3.09069
2.8521
2.40241
1.49489
0.888526
0.818638
0.830828
0.848728
0.86234
0.869972
0.881608
0.904223
0.949205
1.03405
3.04765
3.0759
3.10523
3.12559
3.14879
3.16356
3.1819
3.19133
3.19993
3.19308
3.17027
3.09042
2.90541
2.42909
1.5743
0.980529
0.86931
0.866137
0.878375
0.894017
0.907857
0.925609
0.954844
1.00243
1.08136
3.04736
3.07618
3.10491
3.12592
3.14843
3.16396
3.18155
3.1922
3.20154
3.19598
3.17788
3.11013
2.96264
2.54962
1.77437
1.08734
0.915751
0.901605
0.90943
0.926194
0.944923
0.966801
0.998078
1.04578
1.11631
3.04598
3.07759
3.10343
3.12743
3.14688
3.16558
3.17999
3.19422
3.20159
3.20088
3.18434
3.14053
3.00317
2.72246
2.04579
1.26217
0.996014
0.965077
0.964139
0.977056
0.99442
1.01387
1.04216
1.08442
1.14598
3.04636
3.07719
3.10384
3.127
3.1473
3.16515
3.18045
3.19408
3.20329
3.20299
3.19179
3.15741
3.05427
2.83311
2.24631
1.43408
1.05921
1.01324
1.0158
1.02991
1.04836
1.06631
1.09067
1.1269
1.17855
3.04621
3.07733
3.10369
3.12714
3.14716
3.16528
3.18033
3.19422
3.20318
3.20358
3.19705
3.16851
3.08973
2.8896
2.41694
1.6033
1.11178
1.03728
1.04049
1.05923
1.08292
1.10512
1.1301
1.16283
1.2074
3.04513
3.07847
3.10251
3.12838
3.14592
3.16657
3.17911
3.19558
3.20264
3.20795
3.202
3.17987
3.1171
2.94759
2.56952
1.78114
1.21064
1.07517
1.0672
1.08123
1.10509
1.13361
1.16142
1.19404
1.23431
3.04677
3.07677
3.10431
3.1265
3.14787
3.16452
3.18128
3.19349
3.20612
3.21105
3.21004
3.19275
3.14831
3.01825
2.74208
2.11614
1.39226
1.15247
1.11934
1.11995
1.13659
1.16231
1.18913
1.22016
1.25753
3.04561
3.07798
3.10307
3.1278
3.14657
3.16588
3.17996
3.19494
3.20512
3.2142
3.21059
3.20361
3.16704
3.07873
2.85988
2.33985
1.6112
1.24184
1.17268
1.16467
1.17394
1.19432
1.22055
1.24849
1.28131
3.04743
3.07613
3.105
3.12582
3.14858
3.16382
3.18202
3.19288
3.20739
3.21287
3.21607
3.20982
3.18686
3.11977
2.95405
2.56653
1.82513
1.32115
1.20443
1.19228
1.19995
1.22026
1.24829
1.27616
1.30616
3.04597
3.07762
3.10344
3.12744
3.14692
3.16555
3.18027
3.19479
3.20565
3.21597
3.2188
3.21644
3.19952
3.14891
3.03151
2.72498
2.13595
1.49735
1.27186
1.23853
1.23709
1.25153
1.27532
1.30219
1.33046
3.04614
3.07744
3.10361
3.12726
3.14709
3.16539
3.18042
3.1947
3.20586
3.21665
3.22216
3.22165
3.21075
3.18002
3.09297
2.91193
2.40566
1.69829
1.35399
1.28103
1.27345
1.2801
1.3001
1.32705
1.35507
3.04652
3.07704
3.10401
3.12681
3.14752
3.16491
3.18086
3.19423
3.20634
3.21648
3.2238
3.22372
3.2187
3.19767
3.13856
3.00037
2.64012
1.975
1.45867
1.31467
1.2968
1.3014
1.31889
1.34604
1.37477
3.0457
3.07788
3.10314
3.12771
3.14664
3.16583
3.17994
3.19523
3.20544
3.21744
3.22372
3.22738
3.22396
3.20955
3.1745
3.07015
2.85385
2.29561
1.64916
1.38365
1.33661
1.33259
1.34152
1.36338
1.3929
3.04584
3.07777
3.10323
3.12757
3.14686
3.16561
3.18006
3.1952
3.20556
3.21723
3.22519
3.23098
3.22881
3.22012
3.19771
3.12627
2.97675
2.59753
1.92987
1.49115
1.37657
1.36045
1.36412
1.38048
1.40714
3.04612
3.07746
3.10361
3.12724
3.1471
3.16537
3.18046
3.19462
3.20616
3.21697
3.22556
3.23256
3.23312
3.22909
3.21488
3.16795
3.0646
2.81198
2.25931
1.67676
1.44953
1.40644
1.39884
1.4051
1.42433
3.04607
3.07752
3.10354
3.12732
3.14703
3.16544
3.18038
3.19474
3.20602
3.21721
3.2255
3.2338
3.23711
3.23637
3.22658
3.19835
3.12774
2.96353
2.54523
1.90525
1.54283
1.44566
1.43029
1.43269
1.44633
3.04644
3.07713
3.10394
3.12691
3.14744
3.16501
3.18081
3.1943
3.20644
3.21681
3.22596
3.2338
3.23917
3.2389
3.23406
3.21542
3.17356
3.05976
2.80209
2.237
1.69258
1.49696
1.46082
1.45776
1.46466
3.04592
3.07766
3.10338
3.12747
3.14687
3.16559
3.18023
3.19489
3.20587
3.21739
3.22546
3.2344
3.23929
3.24194
3.23949
3.22864
3.20429
3.12692
2.9746
2.56011
1.96843
1.60212
1.49964
1.48337
1.48497
3.04596
3.07762
3.10343
3.12743
3.14692
3.16554
3.18029
3.19481
3.20596
3.21728
3.22564
3.23431
3.24035
3.24536
3.24389
3.2393
3.22327
3.17858
3.06958
2.83663
2.3008
1.78207
1.56967
1.52352
1.51431
3.04621
3.07737
3.10369
3.12716
3.14719
3.16526
3.18057
3.19454
3.20623
3.21701
3.2259
3.23414
3.2407
3.24626
3.24767
3.24581
3.237
3.20944
3.14496
2.99436
2.60892
2.02513
1.67408
1.5632
1.54393
3.04627
3.07731
3.10375
3.1271
3.14726
3.1652
3.18063
3.19448
3.20628
3.21698
3.22592
3.23417
3.24078
3.2469
3.25012
3.2498
3.24482
3.22801
3.19153
3.0953
2.87417
2.37774
1.85133
1.62626
1.57667
3.04603
3.07755
3.1035
3.12737
3.14698
3.16548
3.18036
3.19474
3.20601
3.21729
3.2256
3.2345
3.24056
3.24729
3.25083
3.25214
3.25
3.24094
3.22037
3.15892
3.02797
2.70989
2.15041
1.74959
1.61935
3.04609
3.07748
3.10357
3.12729
3.14707
3.16539
3.18044
3.19468
3.20609
3.21717
3.22575
3.23433
3.24073
3.24726
3.25166
3.25477
3.25376
3.24913
3.23837
3.19901
3.1278
2.92836
2.52872
1.96167
1.70622
3.04626
3.07731
3.10375
3.1271
3.14726
3.16519
3.18064
3.19447
3.2063
3.21695
3.22597
3.23412
3.24096
3.2471
3.25216
3.25608
3.25692
3.2552
3.2488
3.22735
3.18163
3.06724
2.79651
2.27568
1.83221
3.04637
3.07721
3.10386
3.12699
3.14737
3.16508
3.18075
3.19435
3.20641
3.21684
3.22608
3.23402
3.24105
3.24706
3.25227
3.25659
3.259
3.25844
3.25528
3.24179
3.21911
3.13739
3.00382
2.59773
2.10457
3.04615
3.07743
3.10363
3.12723
3.14713
3.16533
3.1805
3.19462
3.20615
3.21711
3.22581
3.23429
3.24078
3.24735
3.25205
3.25708
3.2598
3.26104
3.25972
3.25341
3.24093
3.19795
3.11478
2.9103
2.46517
3.04615
3.07743
3.10362
3.12723
3.14712
3.16533
3.1805
3.19461
3.20616
3.2171
3.22582
3.23428
3.2408
3.24731
3.25214
3.25706
3.26047
3.26315
3.26251
3.2599
3.25274
3.22866
3.18075
3.05849
2.76673
3.04631
3.07726
3.1038
3.12704
3.14731
3.16514
3.18069
3.19441
3.20636
3.21689
3.22603
3.23407
3.24101
3.2471
3.25234
3.25691
3.26077
3.26381
3.26489
3.26391
3.26013
3.24698
3.22084
3.1476
2.99695
3.0464
3.07717
3.1039
3.12695
3.14741
3.16504
3.18079
3.19431
3.20646
3.21679
3.22612
3.23397
3.2411
3.24702
3.25242
3.25687
3.26087
3.26415
3.26642
3.2663
3.2647
3.25741
3.24473
3.19972
3.11972
3.04619
3.07738
3.10367
3.12718
3.14718
3.16528
3.18055
3.19456
3.20621
3.21704
3.22587
3.23423
3.24085
3.24727
3.25218
3.25711
3.26069
3.26441
3.26672
3.26814
3.26747
3.26418
3.25732
3.23281
3.18681
3.04633
3.07724
3.10382
3.12703
3.14733
3.16512
3.18071
3.19439
3.20638
3.21687
3.22604
3.23405
3.24102
3.24709
3.25236
3.25693
3.26088
3.26427
3.26715
3.26915
3.26929
3.26795
3.26425
3.25047
3.2256
3.04633
3.07724
3.10382
3.12703
3.14733
3.16512
3.18071
3.19439
3.20638
3.21687
3.22604
3.23405
3.24102
3.24709
3.25236
3.25692
3.26088
3.26429
3.2672
3.26957
3.2707
3.27022
3.26811
3.25983
3.2451
3.04638
3.0772
3.10387
3.12698
3.14738
3.16507
3.18076
3.19435
3.20641
3.21685
3.22607
3.23403
3.24104
3.24707
3.25236
3.25691
3.26087
3.26431
3.2672
3.26973
3.27131
3.27121
3.26973
3.26329
3.25197
3.04625
3.07731
3.10376
3.12708
3.1473
3.16514
3.18071
3.19437
3.20642
3.21682
3.22612
3.23397
3.24112
3.24701
3.25244
3.25687
3.26094
3.26427
3.26728
3.26973
3.27154
3.27148
3.27031
3.26433
3.25333
3.04621
3.07736
3.10369
3.12715
3.14719
3.16526
3.18057
3.19454
3.20623
3.21703
3.22589
3.23423
3.24086
3.24728
3.25217
3.25714
3.26066
3.26456
3.26696
3.27008
3.2712
3.27218
3.27088
3.2669
3.25297
3.04623
3.07734
3.10371
3.12714
3.14721
3.16524
3.18059
3.19452
3.20625
3.217
3.22591
3.23418
3.2409
3.24723
3.25223
3.25706
3.26076
3.26443
3.26712
3.26987
3.27143
3.2717
3.27064
3.26569
3.25306
3.04623
3.07734
3.10371
3.12714
3.14722
3.16524
3.18059
3.19451
3.20626
3.217
3.22592
3.23417
3.24091
3.24721
3.25225
3.25703
3.2608
3.26438
3.2672
3.26977
3.27154
3.27153
3.27049
3.2653
3.25277
2.96808
2.95148
2.94166
2.9346
2.9303
2.92648
2.9242
2.91986
2.91179
2.88392
2.83274
2.69738
2.36964
1.73799
0.669666
0.234596
0.352938
0.468103
0.504501
0.515759
0.535814
0.570217
0.628844
0.711925
0.885019
2.96826
2.9514
2.94177
2.93457
2.93037
2.92648
2.92429
2.92016
2.91276
2.88862
2.83704
2.71711
2.39338
1.80721
0.759607
0.2995
0.394682
0.482891
0.527099
0.548356
0.57992
0.629089
0.703312
0.809298
0.979503
2.96797
2.95159
2.94155
2.93471
2.9302
2.92661
2.92431
2.92085
2.91391
2.88999
2.84538
2.7281
2.4335
1.87155
0.851645
0.383466
0.429766
0.491925
0.544497
0.577755
0.619598
0.679141
0.761078
0.868373
1.01144
2.96764
2.95199
2.94119
2.93514
2.9298
2.92706
2.92396
2.92153
2.91498
2.89628
2.85216
2.75492
2.47541
1.96294
1.00731
0.485743
0.459786
0.508054
0.561389
0.602998
0.653671
0.717099
0.799587
0.900861
1.02518
2.96786
2.95177
2.94139
2.93495
2.92997
2.92695
2.92398
2.92166
2.91423
2.90075
2.86059
2.76499
2.55334
2.01955
1.15096
0.592907
0.490826
0.526879
0.578198
0.625065
0.680239
0.746715
0.826929
0.919839
1.03101
2.96804
2.95154
2.94159
2.9347
2.9302
2.92666
2.9244
2.92166
2.91727
2.90112
2.87243
2.79105
2.59446
2.19613
1.33103
0.715826
0.527056
0.553446
0.600952
0.649251
0.703147
0.767261
0.846955
0.932913
1.03255
2.9683
2.9513
2.94182
2.93448
2.93042
2.92648
2.92463
2.9217
2.91834
2.90482
2.88229
2.81425
2.66042
2.33269
1.59815
0.864086
0.596189
0.603872
0.637909
0.682927
0.729953
0.787317
0.860478
0.942896
1.03251
2.96788
2.95171
2.94142
2.93487
2.93
2.92689
2.92419
2.92231
2.91838
2.91105
2.88768
2.83847
2.71895
2.43189
1.83133
1.00445
0.663466
0.656774
0.681361
0.719941
0.760991
0.809637
0.873417
0.948892
1.03174
2.96777
2.95178
2.94134
2.93492
2.92995
2.92694
2.92419
2.92258
2.91955
2.91382
2.89503
2.85512
2.76049
2.50882
2.03177
1.16266
0.740807
0.698751
0.720668
0.751412
0.789636
0.833888
0.888508
0.955355
1.03068
2.96822
2.9514
2.94175
2.93458
2.93034
2.92661
2.9246
2.9224
2.9206
2.91585
2.89911
2.87102
2.78861
2.59639
2.20513
1.3817
0.863484
0.737229
0.75152
0.776414
0.813622
0.855379
0.903814
0.962895
1.03014
2.96805
2.95154
2.94161
2.93468
2.93024
2.92667
2.92457
2.92239
2.92078
2.91601
2.90727
2.8791
2.82208
2.67735
2.34402
1.66528
1.00921
0.797461
0.788895
0.807253
0.83962
0.878223
0.922152
0.973543
1.03278
2.96814
2.95152
2.94166
2.93469
2.93027
2.9267
2.92459
2.92249
2.92105
2.91769
2.91127
2.88987
2.84929
2.73819
2.50049
1.94113
1.20114
0.876514
0.833179
0.842686
0.86662
0.901704
0.940797
0.98617
1.03868
2.96776
2.95183
2.94132
2.93498
2.92994
2.92699
2.92427
2.92285
2.92093
2.91932
2.91294
2.90108
2.86759
2.78593
2.60989
2.16055
1.40275
0.967962
0.87536
0.877589
0.895516
0.926217
0.961227
1.00073
1.04684
2.96774
2.95185
2.9413
2.935
2.92992
2.92701
2.92426
2.92288
2.92114
2.91982
2.9164
2.90484
2.88303
2.8237
2.67675
2.37651
1.70396
1.12135
0.933148
0.915506
0.925744
0.950393
0.982424
1.01786
1.05798
2.96807
2.95155
2.9416
2.93471
2.9302
2.92674
2.92452
2.92265
2.92142
2.91994
2.91779
2.90907
2.8948
2.84906
2.7562
2.5361
2.04114
1.33501
1.01856
0.962626
0.963305
0.979546
1.00666
1.03673
1.07134
2.96814
2.95145
2.94169
2.93459
2.93031
2.92661
2.92464
2.92252
2.92156
2.91993
2.91845
2.91246
2.90267
2.86875
2.8056
2.64557
2.2614
1.5892
1.12048
1.00416
0.996784
1.00667
1.03017
1.05957
1.09033
2.96807
2.95152
2.94161
2.93467
2.93025
2.92667
2.92457
2.92261
2.92151
2.92009
2.91898
2.91513
2.90826
2.88455
2.84227
2.72252
2.47432
1.90341
1.29423
1.07546
1.0371
1.0384
1.05348
1.07891
1.10825
2.9679
2.9517
2.94146
2.93484
2.93007
2.92686
2.9244
2.92277
2.92135
2.9204
2.91924
2.91762
2.91102
2.89965
2.8658
2.78952
2.62147
2.19763
1.52098
1.16069
1.08092
1.07302
1.0798
1.09938
1.12644
2.96791
2.95168
2.94147
2.93483
2.93009
2.92684
2.92443
2.92275
2.9214
2.92038
2.91951
2.91836
2.91513
2.90403
2.88568
2.83025
2.70902
2.44461
1.84871
1.319
1.1381
1.10998
1.11076
1.12466
1.14711
2.96786
2.95175
2.94141
2.9349
2.93002
2.92692
2.92436
2.92283
2.92132
2.92049
2.91946
2.91874
2.91679
2.90941
2.89782
2.85953
2.78529
2.60932
2.183
1.55306
1.22498
1.15111
1.14268
1.1479
1.16573
2.96797
2.95161
2.94153
2.93476
2.93015
2.92678
2.92449
2.92269
2.92145
2.92036
2.91961
2.91874
2.91757
2.91298
2.90545
2.87947
2.83281
2.70786
2.42791
1.85924
1.3621
1.20318
1.17646
1.17534
1.1874
2.96804
2.95155
2.94159
2.9347
2.93021
2.92672
2.92455
2.92263
2.92152
2.9203
2.91969
2.91875
2.91803
2.91546
2.91063
2.8944
2.86567
2.78147
2.61623
2.19919
1.60253
1.29276
1.21582
1.20531
1.20918
2.96804
2.95157
2.94158
2.93472
2.9302
2.92674
2.92453
2.92265
2.9215
2.92032
2.91968
2.91883
2.91832
2.91689
2.9139
2.90309
2.88559
2.83129
2.72195
2.46777
1.91943
1.44881
1.27549
1.24065
1.23695
2.96792
2.95168
2.94147
2.93484
2.93008
2.92685
2.92442
2.92277
2.92138
2.92044
2.91956
2.91898
2.91835
2.91771
2.91588
2.90922
2.8986
2.86466
2.79625
2.63864
2.25592
1.6806
1.36868
1.28221
1.26754
2.96789
2.9517
2.94145
2.93485
2.93006
2.92686
2.9244
2.92277
2.92137
2.92045
2.91955
2.91899
2.91836
2.91789
2.91687
2.9129
2.90642
2.88447
2.84535
2.73835
2.51087
2.00269
1.52929
1.34381
1.30371
2.96796
2.95163
2.94152
2.93478
2.93013
2.9268
2.92447
2.92271
2.92143
2.92039
2.91962
2.91894
2.91843
2.91796
2.91739
2.91578
2.91024
2.9006
2.8726
2.8107
2.67162
2.33144
1.77132
1.44653
1.34565
2.96802
2.95158
2.94157
2.93474
2.93018
2.92676
2.92451
2.92267
2.92148
2.92035
2.91966
2.9189
2.91849
2.9179
2.91759
2.91656
2.91423
2.90659
2.89299
2.85384
2.77207
2.57835
2.17693
1.6365
1.41482
2.9679
2.9517
2.94145
2.93485
2.93007
2.92687
2.9244
2.92279
2.92136
2.92046
2.91955
2.91901
2.91837
2.91805
2.9175
2.91708
2.91541
2.91213
2.90186
2.88181
2.82996
2.71156
2.45276
1.92754
1.54236
2.9679
2.9517
2.94145
2.93485
2.93007
2.92686
2.9244
2.92278
2.92137
2.92046
2.91955
2.91901
2.91838
2.91805
2.91755
2.91728
2.91644
2.91461
2.90817
2.89757
2.86497
2.80028
2.64812
2.2927
1.76273
2.96801
2.95159
2.94156
2.93474
2.93017
2.92676
2.92451
2.92268
2.92147
2.92036
2.91966
2.91891
2.91849
2.91794
2.91768
2.91721
2.91687
2.91553
2.91304
2.9043
2.88978
2.8464
2.7559
2.55505
2.10174
2.96801
2.9516
2.94155
2.93475
2.93016
2.92677
2.9245
2.92269
2.92146
2.92037
2.91965
2.91892
2.91848
2.91796
2.91768
2.91727
2.91706
2.91645
2.91501
2.90991
2.90176
2.87639
2.82434
2.70422
2.40666
2.96792
2.95168
2.94147
2.93484
2.93008
2.92686
2.92442
2.92277
2.92138
2.92045
2.91956
2.919
2.91839
2.91804
2.91759
2.91737
2.91699
2.91675
2.9158
2.91388
2.90764
2.89631
2.8644
2.79704
2.64092
2.96795
2.95165
2.9415
2.9348
2.93012
2.92682
2.92445
2.92273
2.92142
2.92041
2.9196
2.91896
2.91843
2.918
2.91763
2.91733
2.91707
2.91681
2.91643
2.91499
2.91247
2.90387
2.88937
2.84661
2.75917
2.968
2.9516
2.94155
2.93476
2.93016
2.92678
2.92449
2.92269
2.92146
2.92037
2.91964
2.91892
2.91847
2.91796
2.91768
2.91729
2.91712
2.9168
2.9166
2.91589
2.9145
2.90942
2.90156
2.87638
2.82711
2.96798
2.95162
2.94153
2.93478
2.93014
2.9268
2.92448
2.92271
2.92144
2.92039
2.91963
2.91894
2.91845
2.91798
2.91766
2.91731
2.9171
2.91684
2.91669
2.91639
2.91555
2.91266
2.90794
2.89263
2.86574
2.96794
2.95166
2.94149
2.93482
2.9301
2.92683
2.92444
2.92275
2.9214
2.92043
2.91959
2.91898
2.91842
2.91801
2.91762
2.91735
2.91706
2.91688
2.91666
2.91649
2.91597
2.91404
2.91087
2.90008
2.88118
2.96793
2.95166
2.94148
2.93482
2.9301
2.92684
2.92443
2.92275
2.9214
2.92043
2.91958
2.91898
2.91841
2.91802
2.91761
2.91736
2.91705
2.9169
2.91664
2.91651
2.91604
2.91503
2.91165
2.9047
2.88629
2.96797
2.95163
2.94152
2.93478
2.93013
2.9268
2.92446
2.92272
2.92143
2.9204
2.91961
2.91895
2.91844
2.91799
2.91764
2.91733
2.91708
2.91686
2.91668
2.91649
2.91622
2.91492
2.91256
2.9054
2.88809
2.96794
2.95166
2.94149
2.93481
2.9301
2.92683
2.92444
2.92275
2.9214
2.92043
2.91958
2.91898
2.91841
2.91802
2.91761
2.91736
2.91706
2.91689
2.91665
2.91652
2.91612
2.91527
2.91215
2.90606
2.88901
2.96794
2.95166
2.94149
2.93482
2.9301
2.92683
2.92444
2.92275
2.9214
2.92043
2.91958
2.91898
2.91841
2.91802
2.91762
2.91736
2.91706
2.91689
2.91665
2.91653
2.91614
2.9153
2.91221
2.90618
2.88911
2.98635
2.96961
2.95166
2.93487
2.91984
2.90668
2.89497
2.88361
2.8691
2.83445
2.77163
2.61787
2.2593
1.58079
0.480456
0.242211
0.32878
0.445863
0.47813
0.500128
0.528331
0.580111
0.660304
0.76716
0.963972
2.98639
2.96957
2.9517
2.93483
2.91988
2.90665
2.89504
2.88377
2.86981
2.83687
2.77845
2.63225
2.2952
1.64661
0.564013
0.247534
0.364678
0.466258
0.503698
0.534734
0.57591
0.639418
0.732252
0.856108
1.04668
2.98592
2.97004
2.95123
2.93531
2.91938
2.90721
2.89444
2.88494
2.87029
2.84601
2.7812
2.64769
2.36095
1.69883
0.701281
0.285177
0.395885
0.47822
0.525073
0.566044
0.620394
0.691844
0.787864
0.908967
1.06334
2.98696
2.969
2.95226
2.93431
2.92039
2.90625
2.89548
2.88416
2.87226
2.84935
2.7915
2.66941
2.41044
1.7872
0.818691
0.356482
0.414247
0.482272
0.542709
0.593333
0.656208
0.7325
0.825351
0.936687
1.0678
2.98584
2.97011
2.95118
2.93535
2.9194
2.90716
2.89473
2.8848
2.87267
2.85062
2.80394
2.70411
2.43379
1.93929
0.949941
0.445553
0.416277
0.485528
0.558001
0.616946
0.684798
0.761732
0.851236
0.951212
1.06564
2.98674
2.96922
2.95206
2.93448
2.92025
2.90633
2.89557
2.88414
2.87345
2.85115
2.8146
2.71616
2.49715
2.05316
1.1108
0.553345
0.422771
0.487386
0.570461
0.634945
0.704809
0.782845
0.86869
0.96069
1.06154
2.98692
2.96904
2.95222
2.93431
2.92041
2.90618
2.89576
2.8842
2.87465
2.8557
2.82519
2.74258
2.56402
2.19249
1.35708
0.679055
0.456729
0.507531
0.587992
0.652549
0.720749
0.796799
0.881113
0.966205
1.0578
2.98698
2.96898
2.95228
2.93425
2.92047
2.90613
2.89586
2.88431
2.87582
2.86028
2.83511
2.76832
2.62675
2.32619
1.65193
0.816616
0.515767
0.554325
0.613776
0.671943
0.73572
0.807304
0.888202
0.970626
1.05364
2.98653
2.96942
2.95185
2.93468
2.92004
2.90654
2.89549
2.88487
2.87627
2.86411
2.84323
2.788
2.67373
2.42493
1.83871
0.955656
0.589018
0.599831
0.639562
0.693347
0.750285
0.815698
0.891717
0.970899
1.05001
2.98652
2.96944
2.95182
2.93473
2.91998
2.90665
2.89534
2.88522
2.87608
2.86572
2.84453
2.80714
2.71099
2.48685
2.04227
1.13419
0.69742
0.623996
0.659636
0.709758
0.764392
0.823602
0.893467
0.968574
1.04413
2.98628
2.96968
2.95159
2.93496
2.91977
2.90687
2.89515
2.88547
2.87614
2.86737
2.851
2.82048
2.74781
2.56942
2.22255
1.43449
0.828538
0.655593
0.683401
0.724925
0.776547
0.83124
0.894442
0.965167
1.03706
2.98659
2.96937
2.95191
2.93466
2.92007
2.90657
2.8955
2.88514
2.87683
2.86791
2.8567
2.82815
2.77861
2.64754
2.37344
1.75736
0.981463
0.720622
0.719126
0.746622
0.792871
0.842245
0.897764
0.961165
1.02964
2.9859
2.97006
2.95123
2.93531
2.91944
2.90718
2.8949
2.88577
2.87642
2.86907
2.85924
2.83955
2.79895
2.70793
2.47414
2.01508
1.17239
0.799258
0.748466
0.769941
0.808186
0.85479
0.903954
0.960117
1.02191
2.98746
2.96849
2.95276
2.93379
2.92092
2.90574
2.89632
2.88443
2.87779
2.86839
2.86183
2.84748
2.8144
2.74258
2.58639
2.19776
1.45114
0.927964
0.787685
0.797329
0.825
0.867563
0.912373
0.961638
1.01658
2.98621
2.96975
2.95153
2.93501
2.91971
2.90691
2.89516
2.88557
2.87675
2.86959
2.86196
2.85204
2.82591