/*--------------------------------*- C++ -*----------------------------------*\
  =========                 |
  \\      /  F ield         | OpenFOAM: The Open Source CFD Toolbox
   \\    /   O peration     | Website:  https://openfoam.org
    \\  /    A nd           | Version:  6
     \\/     M anipulation  |
\*---------------------------------------------------------------------------*/
FoamFile
{
    version     2.0;
    format      ascii;
    class       volScalarField;
    location    "3.5";
    object      p;
}
// * * * * * * * * * * * * * * * * * * * * * * * * * * * * * * * * * * * * * //

dimensions      [1 -1 -2 0 0 0 0];

internalField   nonuniform List<scalar> 
26250
(
0.957647
0.911022
0.875221
0.843942
0.820492
0.796972
0.782961
0.763559
0.763657
0.773111
0.782136
0.904867
1.02676
1.87903
3.50757
8.22288
7.97711
7.333
6.80366
6.75068
6.7705
6.8666
7.11996
7.65346
8.40792
0.957646
0.91102
0.875223
0.843936
0.820499
0.796964
0.782973
0.763532
0.763624
0.772957
0.781928
0.903992
1.0251
1.87328
3.49097
8.18006
7.95362
7.33054
6.7861
6.72569
6.7674
6.8899
7.15632
7.66596
8.43727
0.957638
0.911022
0.875224
0.84393
0.820516
0.796937
0.783011
0.763437
0.763513
0.77259
0.781407
0.9024
1.02199
1.86526
3.46795
8.14388
7.90558
7.28139
6.75294
6.70143
6.75277
6.89133
7.1765
7.66664
8.43887
0.957589
0.911081
0.875188
0.843979
0.82049
0.796945
0.783025
0.763125
0.763094
0.771295
0.779711
0.898167
1.01491
1.84969
3.43186
8.03385
7.82798
7.2531
6.73821
6.69452
6.73584
6.86915
7.1597
7.65798
8.43501
0.95749
0.911223
0.875073
0.844152
0.820269
0.797318
0.782441
0.764415
0.762354
0.765139
0.801509
0.836017
1.12985
1.62015
3.50175
7.8641
7.72002
7.19076
6.69884
6.6524
6.6947
6.82733
7.12104
7.63146
8.42692
0.957535
0.911154
0.875127
0.844077
0.820389
0.797091
0.782874
0.763348
0.763369
0.768963
0.776463
0.888795
0.997613
1.80472
3.31221
7.7395
7.59143
7.12791
6.63411
6.58381
6.62855
6.76368
7.05996
7.57505
8.40035
0.957498
0.911229
0.875059
0.844186
0.820203
0.797424
0.782218
0.764625
0.761152
0.763825
0.797736
0.829555
1.10845
1.56758
3.34549
7.49517
7.42318
7.02667
6.5542
6.49952
6.54496
6.67826
6.96867
7.47533
8.33112
0.95761
0.911082
0.875182
0.843983
0.820468
0.796954
0.782988
0.763021
0.763068
0.767983
0.775117
0.880211
0.977893
1.73897
3.10137
7.28732
7.23372
6.94002
6.4625
6.39865
6.44073
6.56369
6.83287
7.30825
8.17505
0.957778
0.910863
0.875285
0.84386
0.820512
0.796957
0.782933
0.763526
0.763668
0.767628
0.774037
0.874196
0.967936
1.68384
2.96808
6.99268
7.03829
6.80507
6.35697
6.28357
6.31761
6.41864
6.64232
7.04015
7.84331
0.957817
0.910831
0.875256
0.843956
0.820314
0.797282
0.782278
0.764328
0.761147
0.764942
0.770982
0.864797
0.947909
1.64378
2.83349
6.64976
6.85088
6.65386
6.25489
6.15941
6.17877
6.24169
6.3831
6.62156
7.13542
1.03457
1.06943
1.0934
1.1098
1.1229
1.1322
1.14048
1.14814
1.16115
1.20058
1.2572
1.49594
1.89513
3.41687
7.47024
17.397
15.6531
13.9646
13.4576
13.6394
13.6273
13.7764
14.1582
14.6579
15.1009
1.03457
1.06943
1.0934
1.10979
1.1229
1.13219
1.14049
1.14813
1.1611
1.20044
1.25682
1.49502
1.89251
3.40963
7.44652
17.2812
15.6143
13.9139
13.3875
13.4728
13.6206
13.8092
14.1567
14.6083
15.0686
1.03456
1.06943
1.0934
1.10979
1.12291
1.13218
1.1405
1.14809
1.16098
1.20001
1.25611
1.49234
1.88753
3.39308
7.40129
17.2481
15.4891
13.7978
13.2982
13.3917
13.5733
13.7626
14.0922
14.4863
14.969
1.03454
1.06945
1.09339
1.10981
1.1229
1.13218
1.1405
1.148
1.16073
1.19926
1.25499
1.48774
1.87981
3.36634
7.32854
16.9988
15.3359
13.6642
13.2252
13.3929
13.4659
13.6286
13.9407
14.292
14.7904
1.03449
1.0695
1.09334
1.10988
1.12283
1.13228
1.14037
1.14787
1.15967
1.19944
1.24521
1.49125
1.84835
3.33549
7.25595
16.7006
15.1307
13.4903
13.0737
13.2093
13.3117
13.4495
13.7285
14.0394
14.5493
1.03451
1.06949
1.09336
1.10985
1.12287
1.13221
1.14048
1.14777
1.16012
1.19712
1.25153
1.47331
1.85221
3.27226
7.05974
16.4251
14.8891
13.2776
12.8794
13.0067
13.1159
13.2284
13.4644
13.7229
14.2318
1.03449
1.06952
1.09332
1.10991
1.12279
1.13232
1.14028
1.14782
1.15911
1.19686
1.24057
1.47486
1.80824
3.22414
6.88403
15.9691
14.5982
13.0371
12.6482
12.751
12.8767
12.9563
13.1343
13.322
13.8023
1.03455
1.06945
1.09339
1.10981
1.12289
1.13216
1.14046
1.14762
1.15937
1.19442
1.24457
1.45716
1.79397
3.15761
6.5809
15.5308
14.2732
12.7718
12.3885
12.4746
12.5849
12.624
12.7264
12.8131
13.2115
1.03462
1.06938
1.09343
1.10975
1.12291
1.13214
1.14043
1.14762
1.15897
1.19285
1.24013
1.44754
1.75688
3.09567
6.27894
14.9508
13.9008
12.474
12.1033
12.1693
12.2385
12.2248
12.2193
12.1509
12.356
1.03462
1.06938
1.09343
1.10975
1.12291
1.13215
1.14036
1.14753
1.15823
1.19057
1.23434
1.43484
1.72035
3.01496
5.98248
14.2771
13.4646
12.1489
11.8023
11.8419
11.8464
11.7724
11.6077
11.2583
11.0336
1.00893
1.03178
1.05929
1.0875
1.1132
1.13836
1.15842
1.18247
1.20199
1.2533
1.32728
1.61466
2.0955
3.88465
8.81923
20.3138
17.9153
15.9741
15.4575
15.6146
15.7619
15.8871
16.2408
16.63
16.9421
1.00893
1.03178
1.05929
1.0875
1.11321
1.13835
1.15844
1.18241
1.20202
1.2528
1.32804
1.6119
2.09721
3.87897
8.80828
20.2225
17.8474
15.9157
15.436
15.6177
15.7595
15.8449
16.1784
16.5344
16.8529
1.00892
1.03178
1.05929
1.0875
1.11321
1.13836
1.15842
1.18244
1.20183
1.25284
1.32616
1.61167
2.08832
3.86376
8.7503
20.0953
17.711
15.7841
15.3585
15.5914
15.7066
15.7322
16.0211
16.3143
16.6375
1.00892
1.03178
1.05929
1.0875
1.11321
1.13834
1.15844
1.18236
1.20174
1.25191
1.32599
1.60604
2.08336
3.83745
8.6739
19.9261
17.5176
15.5969
15.2192
15.49
15.5807
15.5552
15.7868
16.0082
16.3263
1.00891
1.03179
1.05929
1.08751
1.11322
1.13833
1.15845
1.18226
1.20157
1.25066
1.32522
1.59835
2.07363
3.79652
8.54505
19.604
17.2658
15.3715
15.0347
15.3351
15.3996
15.3313
15.4917
15.6334
15.9379
1.00892
1.03178
1.05929
1.0875
1.11322
1.13833
1.15842
1.18224
1.20116
1.24974
1.32185
1.59157
2.05169
3.73524
8.34421
19.2211
16.9778
15.1085
14.8
15.1051
15.1687
15.0594
15.1364
15.1851
15.4571
1.00893
1.03177
1.0593
1.08749
1.11322
1.13833
1.1584
1.18217
1.2008
1.248
1.31913
1.57975
2.02823
3.65469
8.08747
18.7726
16.6492
14.8111
14.5209
14.8088
14.8745
14.7247
14.705
14.6392
14.846
1.00895
1.03175
1.05932
1.08747
1.11322
1.13832
1.15836
1.18211
1.20031
1.24614
1.31531
1.56687
1.99822
3.56045
7.77327
18.2249
16.2724
14.4798
14.2013
14.4493
14.5047
14.3238
14.1951
13.9795
14.0658
1.00897
1.03172
1.05934
1.08744
1.11324
1.1383
1.15835
1.182
1.19986
1.24354
1.3124
1.54981
1.96897
3.45348
7.43504
17.5779
15.8434
14.1169
13.848
14.0471
14.0665
13.8424
13.5824
13.1624
13.0123
1.00897
1.0317
1.05939
1.08735
1.11337
1.1381
1.15852
1.1817
1.19875
1.24213
1.30386
1.54133
1.91626
3.36452
7.08383
16.8106
15.3459
13.7306
13.4739
13.6192
13.5839
13.2918
12.8568
12.1556
11.539
1.03453
1.06945
1.09337
1.10981
1.12289
1.1322
1.14048
1.1481
1.161
1.20027
1.25667
1.49492
1.89476
3.4177
7.48531
17.3466
15.6596
13.943
13.3817
13.4499
13.6121
13.822
14.2102
14.6966
15.1877
1.03448
1.06951
1.09332
1.10989
1.1228
1.1323
1.14036
1.14798
1.16009
1.2012
1.2484
1.5028
1.87574
3.41972
7.52427
17.3962
15.5751
13.8937
13.4155
13.6014
13.5991
13.7485
14.1432
14.6314
15.113
1.0345
1.06948
1.09334
1.10986
1.12285
1.13223
1.14047
1.14803
1.16084
1.19969
1.25587
1.49106
1.88901
3.39696
7.43381
17.1878
15.4862
13.8084
13.3622
13.5381
13.552
13.685
14.0406
14.485
14.9562
1.03446
1.06954
1.0933
1.10992
1.12279
1.13232
1.14036
1.14791
1.15993
1.20034
1.24714
1.49747
1.86345
3.38096
7.40321
16.9729
15.3239
13.6627
13.2255
13.3399
13.4519
13.5992
13.9009
14.2762
14.7572
1.03445
1.06955
1.09329
1.10994
1.12277
1.13234
1.14034
1.14788
1.15979
1.19953
1.24593
1.49234
1.85168
3.34366
7.28967
16.7565
15.1092
13.4758
13.0751
13.2272
13.313
13.4459
13.7035
14.0153
14.5075
1.03447
1.06953
1.09331
1.10992
1.12279
1.13232
1.14032
1.14786
1.15949
1.19837
1.2436
1.48466
1.83353
3.28893
7.11412
16.3811
14.8762
13.2724
12.878
12.995
13.1249
13.2332
13.4456
13.695
14.1845
1.03454
1.06944
1.09339
1.10979
1.12292
1.13213
1.14052
1.14766
1.15978
1.19591
1.2491
1.46498
1.83026
3.2085
6.84384
16.0243
14.6104
13.0442
12.6522
12.7545
12.8869
12.9616
13.1175
13.2921
13.7535
1.03456
1.06942
1.09342
1.10976
1.12295
1.13209
1.14051
1.14761
1.15938
1.19462
1.24388
1.45945
1.789
3.1647
6.56578
15.5035
14.2848
12.7835
12.3953
12.4815
12.5935
12.6281
12.7104
12.7802
13.1635
1.03458
1.0694
1.09341
1.10976
1.12291
1.13213
1.14044
1.14759
1.15895
1.19284
1.24034
1.4476
1.75768
3.09629
6.27764
14.9515
13.9101
12.4817
12.1098
12.176
12.2462
12.2309
12.2067
12.1153
12.3125
1.0346
1.06937
1.09343
1.10974
1.12292
1.13214
1.14039
1.14752
1.15824
1.19064
1.23449
1.43517
1.7211
3.01587
5.98413
14.278
13.4682
12.1511
11.8067
11.8471
11.8528
11.7768
11.5998
11.2287
10.9963
0.957581
0.91108
0.875181
0.843977
0.820487
0.796942
0.783032
0.763114
0.763099
0.77174
0.780502
0.901964
1.02269
1.87594
3.51859
8.21126
7.97074
7.32049
6.766
6.7023
6.74964
6.88595
7.17739
7.69597
8.47349
0.957479
0.911234
0.875057
0.844159
0.820251
0.797336
0.782424
0.764522
0.762683
0.765774
0.804143
0.840868
1.14883
1.6761
3.63832
8.19394
7.95321
7.26852
6.77028
6.72931
6.75498
6.86545
7.14204
7.69479
8.45725
0.957544
0.911129
0.87513
0.844059
0.820395
0.797087
0.782884
0.763452
0.76348
0.770627
0.778928
0.897642
1.01402
1.86149
3.49512
8.14285
7.90427
7.27118
6.76627
6.72255
6.74882
6.85737
7.12991
7.68568
8.44194
0.957445
0.911274
0.875019
0.844217
0.820203
0.797397
0.782406
0.764525
0.762998
0.766122
0.804907
0.841663
1.14484
1.6486
3.57457
7.99087
7.81439
7.22473
6.73331
6.68502
6.7243
6.84632
7.1223
7.66522
8.44053
0.957429
0.9113
0.874997
0.844257
0.820157
0.797454
0.782351
0.764513
0.76313
0.766295
0.804536
0.840294
1.137
1.62035
3.52326
7.87151
7.70544
7.1475
6.68268
6.64555
6.68623
6.81355
7.09527
7.62461
8.42595
0.957462
0.911258
0.875029
0.844215
0.820185
0.797437
0.782284
0.764604
0.762124
0.765025
0.801594
0.835532
1.12439
1.59788
3.44437
7.7003
7.57736
7.09055
6.62214
6.57846
6.62361
6.75513
7.03996
7.56004
8.38712
0.957574
0.911093
0.875181
0.843979
0.820497
0.796924
0.783047
0.763025
0.762908
0.769564
0.777078
0.887042
0.992036
1.77496
3.21123
7.53533
7.42806
7.03546
6.54689
6.49185
6.53744
6.66757
6.94724
7.45516
8.30512
0.957608
0.911054
0.875226
0.843908
0.82057
0.796809
0.783151
0.762855
0.762849
0.769151
0.776523
0.881882
0.981986
1.72947
3.09311
7.28248
7.23789
6.95115
6.46177
6.39427
6.43525
6.55388
6.81121
7.2848
8.14104
0.957652
0.911011
0.875217
0.843926
0.820494
0.796915
0.783022
0.763066
0.762953
0.768043
0.775192
0.874478
0.967999
1.68493
2.96745
6.99347
7.04733
6.81432
6.36061
6.28336
6.31556
6.41148
6.62283
7.01515
7.80803
0.957788
0.910834
0.875249
0.843955
0.820326
0.79729
0.782331
0.764254
0.761032
0.765191
0.771383
0.865202
0.948199
1.64465
2.8345
6.65205
6.85521
6.65775
6.25756
6.16004
6.17771
6.23617
6.36827
6.59933
7.10468
0.957456
0.911349
0.874909
0.844405
0.81987
0.797865
0.781509
0.765118
0.758437
0.760192
0.78663
0.80976
1.04417
1.37493
2.8401
6.201
6.6278
6.47891
6.15468
6.02887
6.02454
6.02912
6.02315
5.93389
5.37453
0.95767
0.91104
0.875059
0.844284
0.819905
0.797911
0.781361
0.765313
0.757746
0.761049
0.766266
0.847297
0.921675
1.50998
2.54177
5.81075
6.37654
6.27613
6.04236
5.90035
5.854
5.80265
5.69504
5.44517
4.81757
0.957388
0.911452
0.874771
0.844618
0.819578
0.798293
0.78084
0.765807
0.755808
0.757074
0.778348
0.79651
0.997551
1.25404
2.51155
5.35608
6.10744
6.06297
5.9241
5.77365
5.68969
5.59163
5.43288
5.15356
4.60793
0.957597
0.911172
0.874869
0.844539
0.819524
0.79844
0.780533
0.7662
0.754845
0.757315
0.761373
0.827689
0.888187
1.35048
2.15696
4.78813
5.90088
5.88922
5.81339
5.65815
5.53981
5.40578
5.2154
4.92687
4.47354
0.957538
0.911271
0.874738
0.844734
0.819239
0.798861
0.779885
0.766974
0.752721
0.754994
0.758107
0.813303
0.863597
1.24419
1.88599
4.07598
5.75797
5.79711
5.7303
5.57475
5.4107
5.24917
5.04336
4.75993
4.36789
0.957343
0.911546
0.874556
0.844978
0.819018
0.79913
0.779551
0.767213
0.751666
0.751945
0.762196
0.771684
0.887218
1.01324
1.72616
3.17848
5.61644
5.76931
5.69608
5.51618
5.30435
5.11902
4.90871
4.63726
4.28819
0.957337
0.911542
0.874532
0.845035
0.818927
0.799293
0.779276
0.767534
0.750503
0.750455
0.757181
0.764219
0.852557
0.933987
1.52849
2.50089
5.25235
5.68872
5.62297
5.45199
5.20697
5.00551
4.79638
4.54172
4.22778
0.957308
0.911571
0.874522
0.845046
0.818934
0.799285
0.779297
0.767484
0.750538
0.750451
0.753648
0.760331
0.827447
0.898162
1.36302
2.15849
4.62977
5.4933
5.46752
5.3567
5.12379
4.90859
4.70041
4.46233
4.17923
0.957242
0.911646
0.874543
0.844962
0.819137
0.798915
0.779897
0.766455
0.751851
0.746976
0.749179
0.754309
0.806822
0.867129
1.22421
1.86151
3.88125
5.25094
5.30301
5.23946
5.07582
4.83798
4.62476
4.3988
4.14037
0.957455
0.911317
0.874819
0.844576
0.819593
0.79826
0.780791
0.76504
0.753454
0.742014
0.742506
0.753826
0.763702
0.873577
0.995638
1.6398
2.92841
4.98413
5.22359
5.17565
5.04
4.79666
4.57495
4.35344
4.11189
0.957412
0.911375
0.874826
0.844511
0.819721
0.798022
0.781139
0.764483
0.754036
0.740401
0.740699
0.742992
0.770638
0.798358
0.987136
1.29007
2.33006
4.41817
5.08373
5.06925
4.98336
4.78855
4.54552
4.3209
4.09116
0.957588
0.911136
0.874957
0.844374
0.819797
0.797973
0.781127
0.764539
0.75382
0.740291
0.738873
0.7414
0.746402
0.801975
0.85911
1.22197
1.82918
3.7148
4.87568
4.95431
4.90485
4.76944
4.51945
4.29356
4.07382
0.957421
0.911388
0.874771
0.844622
0.819523
0.798345
0.780604
0.765276
0.752606
0.741661
0.734437
0.735468
0.747477
0.761001
0.862373
0.996067
1.5946
2.77291
4.57393
4.86694
4.83525
4.73146
4.51563
4.28378
4.06614
0.957399
0.911425
0.874716
0.844721
0.819383
0.798568
0.780276
0.765754
0.751828
0.742488
0.73155
0.731773
0.738887
0.745462
0.818528
0.88604
1.34398
2.0493
3.99008
4.71553
4.7145
4.66345
4.52137
4.28571
4.06665
0.957421
0.911388
0.874725
0.844721
0.819365
0.798617
0.780195
0.765895
0.751579
0.742753
0.730478
0.730464
0.733156
0.737787
0.786963
0.833008
1.14964
1.64348
3.18597
4.46758
4.63527
4.60317
4.50509
4.29641
4.07138
0.957336
0.911496
0.874682
0.844754
0.819394
0.798534
0.780373
0.765579
0.752088
0.741867
0.731607
0.727327
0.728773
0.73277
0.761519
0.801667
0.985391
1.31335
2.27225
4.09363
4.538
4.52799
4.46805
4.31982
4.08608
0.957353
0.911463
0.874723
0.844681
0.819507
0.798355
0.780642
0.76517
0.752676
0.740939
0.732574
0.72404
0.724497
0.726772
0.745127
0.77071
0.892612
1.10599
1.81255
3.33207
4.33052
4.44436
4.4123
4.31416
4.11233
0.957393
0.911406
0.874755
0.844646
0.819517
0.798353
0.780627
0.765197
0.752639
0.740931
0.732493
0.72328
0.720939
0.722307
0.733285
0.747056
0.833797
0.94756
1.44724
2.39874
3.97515
4.34729
4.33909
4.2867
4.15309
0.957398
0.911407
0.874743
0.844665
0.819472
0.798426
0.780499
0.765404
0.752306
0.741436
0.73161
0.724256
0.717203
0.717526
0.724333
0.730402
0.791557
0.844741
1.21491
1.73925
3.28298
4.14898
4.2585
4.23143
4.14705
0.957431
0.911364
0.874763
0.844651
0.819468
0.798449
0.780447
0.765494
0.752155
0.741662
0.731222
0.724667
0.715751
0.715739
0.718943
0.723414
0.758664
0.800978
1.01448
1.36888
2.39921
3.81165
4.16661
4.16225
4.12264
0.957376
0.911439
0.874727
0.844692
0.819452
0.798452
0.780469
0.765434
0.752265
0.741456
0.731549
0.724055
0.716469
0.71339
0.714482
0.71762
0.737453
0.767047
0.891571
1.11039
1.78436
3.13305
3.97049
4.10188
4.08105
0.957378
0.911432
0.874738
0.844676
0.81948
0.798408
0.780539
0.765321
0.752442
0.741169
0.73199
0.723285
0.717373
0.710251
0.71046
0.711572
0.724408
0.736505
0.826193
0.927186
1.3977
2.26059
3.60937
4.00117
4.0142
0.95741
0.911387
0.874761
0.844646
0.819499
0.798392
0.780551
0.765322
0.75243
0.741214
0.731891
0.723465
0.716918
0.710602
0.707509
0.708172
0.714697
0.721435
0.776596
0.826597
1.14921
1.60719
2.91243
3.78731
3.95534
0.957418
0.91138
0.874761
0.844647
0.819489
0.798408
0.780521
0.765373
0.752348
0.741346
0.731682
0.723781
0.716373
0.71118
0.705381
0.705502
0.70893
0.713044
0.743526
0.780066
0.954841
1.23825
2.02058
3.40888
3.84009
0.957391
0.911419
0.87474
0.844674
0.819469
0.798428
0.7805
0.76539
0.752325
0.741366
0.731655
0.7238
0.716341
0.711101
0.705114
0.703874
0.704897
0.707528
0.724177
0.746554
0.850142
1.01255
1.55774
2.63846
3.58277
0.957398
0.91141
0.874748
0.844665
0.819479
0.798415
0.780517
0.765363
0.752367
0.741296
0.731767
0.723614
0.716632
0.710568
0.705712
0.701507
0.701782
0.703154
0.711986
0.724899
0.784124
0.87226
1.1986
1.77506
3.10428
0.957422
0.911377
0.874766
0.844642
0.819495
0.798397
0.780535
0.765345
0.75239
0.741269
0.731806
0.723562
0.716698
0.71046
0.705715
0.700912
0.699173
0.69975
0.704593
0.710513
0.748209
0.790517
1.00669
1.34153
2.3108
0.957435
0.911361
0.874773
0.844632
0.819499
0.798394
0.780534
0.765351
0.752377
0.741296
0.731759
0.723642
0.716563
0.710673
0.705315
0.70134
0.697418
0.697589
0.69992
0.703648
0.723203
0.753924
0.8656
1.06495
1.62194
0.95741
0.911396
0.874755
0.844655
0.819484
0.798409
0.78052
0.765362
0.752364
0.741306
0.731745
0.723654
0.716546
0.710685
0.705286
0.701263
0.697071
0.695734
0.696375
0.698287
0.708588
0.723533
0.790076
0.882077
1.23368
0.957409
0.911397
0.874756
0.844655
0.819486
0.798406
0.780524
0.765354
0.752375
0.741286
0.731776
0.723601
0.71663
0.710543
0.705508
0.700849
0.697527
0.693874
0.69399
0.694679
0.700485
0.707623
0.747638
0.792046
1.02202
0.957431
0.911368
0.874772
0.844635
0.819499
0.798394
0.780534
0.765347
0.752383
0.741282
0.73178
0.723602
0.716624
0.710562
0.705462
0.700925
0.697293
0.693935
0.692078
0.692396
0.695209
0.699167
0.719923
0.750724
0.864125
0.957442
0.911354
0.874779
0.844627
0.819503
0.798389
0.780536
0.765347
0.75238
0.741289
0.731767
0.723627
0.716582
0.71063
0.705351
0.701098
0.696984
0.694272
0.690822
0.69082
0.69194
0.693807
0.704742
0.720522
0.784987
0.957421
0.911384
0.874763
0.844646
0.81949
0.798401
0.780526
0.765353
0.752374
0.741291
0.731766
0.723622
0.716594
0.710605
0.705397
0.701012
0.697128
0.693971
0.691135
0.689357
0.689631
0.690575
0.696275
0.70421
0.742003
0.957434
0.911367
0.874774
0.844634
0.819499
0.798392
0.780533
0.765346
0.75238
0.741283
0.731776
0.723608
0.716615
0.710573
0.705446
0.700936
0.697241
0.693776
0.691324
0.688539
0.688161
0.688588
0.691466
0.695804
0.715956
0.957437
0.911362
0.874775
0.844631
0.8195
0.798391
0.780534
0.765347
0.752381
0.741286
0.731774
0.723614
0.716606
0.710589
0.705419
0.70098
0.697164
0.693896
0.691082
0.688774
0.686957
0.68711
0.688698
0.691038
0.70343
0.957441
0.911356
0.874778
0.844628
0.819502
0.79839
0.780535
0.765348
0.752379
0.74129
0.731767
0.723625
0.71659
0.710614
0.705383
0.701033
0.697085
0.694007
0.690908
0.688958
0.686413
0.686443
0.6875
0.689084
0.699119
0.957425
0.911376
0.874769
0.844639
0.819496
0.798396
0.780531
0.76535
0.752375
0.741292
0.731762
0.723629
0.716582
0.710624
0.705368
0.701053
0.697057
0.694043
0.690856
0.689012
0.686261
0.686256
0.687061
0.688473
0.698233
0.957417
0.911387
0.874762
0.844649
0.81949
0.798404
0.780525
0.765357
0.75237
0.741297
0.731758
0.723632
0.71658
0.710623
0.705371
0.701045
0.697072
0.694015
0.690904
0.688921
0.686407
0.685887
0.686403
0.687049
0.698213
0.957418
0.911384
0.874762
0.844648
0.81949
0.798404
0.780525
0.765357
0.75237
0.741297
0.731759
0.723632
0.71658
0.710623
0.70537
0.701048
0.697064
0.694032
0.690872
0.688982
0.686294
0.686193
0.68671
0.687806
0.698298
0.957419
0.911383
0.874762
0.844647
0.81949
0.798404
0.780526
0.765357
0.752371
0.741298
0.73176
0.723633
0.71658
0.710625
0.705366
0.701054
0.697053
0.694049
0.690844
0.689022
0.686241
0.686246
0.686848
0.688033
0.698625
1.03446
1.06952
1.09338
1.10978
1.12301
1.13191
1.14089
1.14626
1.15963
1.18009
1.25464
1.35293
1.82948
2.7091
5.87662
13.4791
12.9372
11.8192
11.4984
11.4961
11.4446
11.2587
10.8743
10.0798
8.19949
1.03451
1.06946
1.09343
1.10971
1.1231
1.13178
1.14105
1.14587
1.15893
1.17556
1.25004
1.32858
1.79704
2.56597
5.52279
12.6387
12.3585
11.5621
11.2209
11.1602
11.0251
10.7132
10.1407
9.14735
7.20105
1.03441
1.06959
1.09329
1.1099
1.12289
1.132
1.14074
1.14562
1.1574
1.17488
1.24066
1.31975
1.74439
2.44299
5.1774
11.6918
11.7837
11.3682
10.9691
10.8311
10.62
10.2039
9.55123
8.57278
7.06668
1.03446
1.06955
1.09327
1.10993
1.12279
1.13213
1.14053
1.14565
1.15663
1.1695
1.23176
1.29317
1.68688
2.28515
4.69857
10.6142
11.4314
11.1592
10.7396
10.5268
10.2531
9.79194
9.13373
8.24366
7.06263
1.03442
1.06961
1.09319
1.11005
1.12258
1.13251
1.13984
1.14704
1.15377
1.17513
1.20069
1.33429
1.48643
2.36301
4.0109
9.35976
11.2038
10.9971
10.5493
10.2579
9.94005
9.47305
8.84205
8.04417
7.06297
1.0343
1.06973
1.09312
1.11014
1.12257
1.13246
1.14003
1.14614
1.15404
1.16675
1.21018
1.26284
1.53977
1.95035
3.66221
7.78195
11.0784
10.8923
10.4041
10.019
9.67058
9.21443
8.62606
7.90877
7.06427
1.03425
1.06979
1.09306
1.11022
1.12248
1.1326
1.1398
1.14635
1.15296
1.16405
1.19873
1.24493
1.45937
1.78305
3.09137
6.12926
10.9043
10.7641
10.2833
9.80408
9.43051
8.99347
8.45198
7.80553
7.06573
1.03426
1.06978
1.09304
1.11027
1.12237
1.1328
1.13943
1.14695
1.15134
1.16383
1.18064
1.2497
1.33715
1.75144
2.51564
4.98817
10.3314
10.4621
10.1458
9.60262
9.21398
8.79978
8.30138
7.71803
7.0633
1.03426
1.06977
1.09305
1.11024
1.12241
1.13274
1.13946
1.14675
1.15067
1.16098
1.17421
1.23233
1.292
1.64996
2.19222
4.29495
9.11319
10.0541
9.87113
9.43542
9.03416
8.63416
8.17518
7.64478
7.05775
1.03433
1.06968
1.09316
1.11009
1.12258
1.13249
1.13971
1.14635
1.15059
1.15864
1.17133
1.21448
1.26865
1.54178
1.94419
3.61801
7.41644
9.71734
9.63427
9.32567
8.89126
8.49532
8.06551
7.58021
7.04825
1.03437
1.06962
1.09323
1.10997
1.12274
1.13222
1.14011
1.14567
1.15162
1.15651
1.17054
1.19057
1.27088
1.37955
1.87349
2.81189
5.72294
9.38855
9.44757
9.24145
8.79757
8.38788
7.97506
7.52647
7.03891
1.03444
1.06955
1.09329
1.10988
1.12282
1.13211
1.14022
1.14549
1.15158
1.15559
1.1662
1.18252
1.23951
1.32578
1.66613
2.31515
4.33764
8.60973
9.25166
9.10415
8.72846
8.29935
7.89642
7.47653
7.0286
1.0344
1.0696
1.09323
1.10998
1.1227
1.13229
1.13996
1.14582
1.15093
1.15563
1.16147
1.17991
1.20177
1.31467
1.43974
2.14976
3.40329
7.21021
8.95076
8.89862
8.66831
8.2257
7.83047
7.43402
7.01793
1.03435
1.06967
1.09316
1.11008
1.1226
1.13243
1.13982
1.14592
1.15084
1.15486
1.16085
1.16986
1.20254
1.23987
1.44315
1.71752
2.89819
5.41084
8.52444
8.7196
8.56866
8.20009
7.78565
7.40065
7.01044
1.03433
1.06968
1.09315
1.1101
1.12258
1.13246
1.13978
1.146
1.15066
1.15499
1.15939
1.16684
1.18903
1.22085
1.35244
1.53522
2.33259
3.8422
7.65132
8.5369
8.44646
8.17326
7.75851
7.3777
7.0032
1.0343
1.06972
1.09314
1.1101
1.1226
1.13242
1.13986
1.14589
1.15077
1.15483
1.15904
1.16458
1.18021
1.20404
1.29581
1.41701
1.99546
3.02042
6.10654
8.21012
8.24632
8.1084
7.76437
7.37205
7.00484
1.03432
1.06969
1.09317
1.11006
1.12266
1.13234
1.13996
1.14576
1.15091
1.15461
1.15883
1.16289
1.17382
1.19129
1.25151
1.34679
1.70379
2.38861
4.39142
7.58562
8.09569
8.00808
7.75505
7.37728
7.0104
1.03437
1.06963
1.0932
1.11002
1.12266
1.13234
1.13993
1.14581
1.1508
1.15473
1.15829
1.16195
1.16773
1.18539
1.20803
1.3157
1.43697
2.09397
3.18219
6.33914
7.83701
7.83381
7.71564
7.40797
7.02573
1.03436
1.06964
1.09319
1.11003
1.12265
1.13236
1.1399
1.14584
1.15078
1.15467
1.15836
1.16087
1.16634
1.17488
1.20286
1.24045
1.4103
1.65011
2.62802
4.6078
7.28799
7.71053
7.63637
7.41113
7.05339
1.03436
1.06964
1.09319
1.11004
1.12264
1.13237
1.13988
1.14587
1.15073
1.15472
1.15822
1.16094
1.16464
1.17081
1.18896
1.21587
1.32235
1.46243
2.10305
3.22799
6.19066
7.46664
7.48426
7.38333
7.11732
1.03433
1.06968
1.09317
1.11007
1.12263
1.13239
1.13987
1.14587
1.15072
1.15472
1.15818
1.16095
1.16405
1.16836
1.18026
1.19893
1.26606
1.36396
1.76404
2.49009
4.5847
6.94215
7.3601
7.30997
7.1353
1.03434
1.06967
1.09318
1.11005
1.12264
1.13237
1.1399
1.14584
1.15077
1.15467
1.15822
1.16088
1.16382
1.16674
1.17431
1.18689
1.22714
1.29521
1.52364
1.96339
3.22857
5.85541
7.10437
7.18583
7.10538
1.03435
1.06965
1.09319
1.11004
1.12265
1.13236
1.13991
1.14584
1.15076
1.15468
1.1582
1.16085
1.16368
1.16576
1.17083
1.17908
1.20531
1.24483
1.39674
1.63698
2.50443
4.26972
6.54782
7.05582
7.02706
1.03436
1.06964
1.09319
1.11004
1.12264
1.13237
1.13989
1.14586
1.15073
1.15474
1.15812
1.16093
1.16348
1.16544
1.16871
1.17413
1.19054
1.21414
1.31092
1.43462
1.99157
2.94742
5.42148
6.76688
6.91479
1.03435
1.06966
1.09318
1.11006
1.12263
1.13238
1.13987
1.14588
1.1507
1.15476
1.15809
1.16096
1.16341
1.16544
1.16777
1.17145
1.18153
1.19757
1.25314
1.33916
1.65752
2.24169
3.85098
6.12775
6.75413
1.03435
1.06966
1.09318
1.11005
1.12264
1.13238
1.13988
1.14587
1.15071
1.15474
1.1581
1.16095
1.16337
1.16548
1.16722
1.17007
1.17465
1.18921
1.20811
1.29528
1.39518
1.89508
2.68073
4.87658
6.39833
1.03436
1.06965
1.09319
1.11004
1.12264
1.13237
1.13989
1.14586
1.15073
1.15473
1.15812
1.16093
1.16341
1.16539
1.16737
1.16891
1.17275
1.17884
1.19844
1.22752
1.33769
1.51325
2.09974
3.23121
5.65301
1.03437
1.06963
1.0932
1.11003
1.12265
1.13237
1.13989
1.14587
1.15072
1.15475
1.1581
1.16096
1.16335
1.16547
1.1672
1.16896
1.1709
1.17596
1.1841
1.21148
1.25151
1.4097
1.6594
2.50529
4.22022
1.03436
1.06965
1.09319
1.11004
1.12264
1.13238
1.13988
1.14587
1.15071
1.15476
1.15808
1.16098
1.16333
1.16549
1.16714
1.1689
1.1702
1.17333
1.17843
1.19423
1.21759
1.30849
1.43159
1.93878
2.80331
1.03435
1.06966
1.09318
1.11005
1.12264
1.13238
1.13988
1.14587
1.15071
1.15474
1.1581
1.16095
1.16337
1.16542
1.16723
1.1687
1.17025
1.17183
1.17585
1.18246
1.20392
1.23476
1.36
1.53726
2.20331
1.03436
1.06965
1.09319
1.11004
1.12264
1.13237
1.13989
1.14586
1.15072
1.15474
1.15811
1.16094
1.16338
1.16541
1.16723
1.16867
1.17015
1.17119
1.17369
1.17771
1.1902
1.20749
1.28198
1.36818
1.7889
1.03437
1.06964
1.0932
1.11003
1.12265
1.13237
1.13989
1.14586
1.15072
1.15474
1.1581
1.16095
1.16336
1.16544
1.16718
1.16874
1.17
1.17128
1.1725
1.17559
1.18054
1.19673
1.21968
1.31187
1.442
1.03436
1.06965
1.09319
1.11005
1.12264
1.13237
1.13988
1.14587
1.15072
1.15474
1.1581
1.16095
1.16336
1.16543
1.1672
1.1687
1.17004
1.17112
1.17232
1.17384
1.17779
1.18428
1.20537
1.23659
1.35702
1.03436
1.06965
1.09319
1.11004
1.12264
1.13237
1.13989
1.14586
1.15072
1.15474
1.15811
1.16094
1.16338
1.16542
1.16722
1.16868
1.17006
1.17108
1.17224
1.1732
1.17554
1.17946
1.1915
1.20913
1.27971
1.03437
1.06964
1.09319
1.11004
1.12265
1.13237
1.13989
1.14586
1.15072
1.15474
1.1581
1.16095
1.16337
1.16543
1.1672
1.1687
1.17002
1.17111
1.17213
1.17292
1.17436
1.17688
1.1839
1.1956
1.23298
1.03437
1.06964
1.09319
1.11004
1.12265
1.13237
1.13989
1.14586
1.15072
1.15474
1.1581
1.16095
1.16336
1.16544
1.16718
1.16873
1.16999
1.17115
1.17208
1.17292
1.17395
1.17571
1.18065
1.1886
1.21578
1.03437
1.06964
1.09319
1.11004
1.12265
1.13237
1.13988
1.14587
1.15072
1.15474
1.1581
1.16096
1.16335
1.16545
1.16717
1.16875
1.16997
1.17118
1.17203
1.17302
1.17369
1.17552
1.17803
1.1884
1.19943
1.03436
1.06965
1.09319
1.11005
1.12264
1.13238
1.13988
1.14587
1.15071
1.15475
1.15809
1.16097
1.16334
1.16546
1.16716
1.16875
1.16996
1.17118
1.17203
1.17297
1.17374
1.17494
1.17883
1.18324
1.20842
1.03436
1.06965
1.09319
1.11004
1.12264
1.13237
1.13988
1.14587
1.15071
1.15475
1.15809
1.16097
1.16335
1.16546
1.16716
1.16876
1.16995
1.1712
1.172
1.17303
1.17365
1.17528
1.1776
1.187
1.19687
1.03437
1.06964
1.09319
1.11004
1.12264
1.13237
1.13988
1.14587
1.15071
1.15475
1.15809
1.16096
1.16335
1.16546
1.16716
1.16875
1.16996
1.17119
1.17201
1.17303
1.17363
1.17525
1.17754
1.18689
1.19666
1.00893
1.0317
1.05948
1.08715
1.11382
1.1373
1.15987
1.17904
1.20193
1.23208
1.32641
1.45403
2.02222
3.09499
6.88911
15.9018
14.7413
13.3426
13.0963
13.1753
13.0807
12.6808
12.0183
10.8849
8.51028
1.00891
1.0317
1.05949
1.08713
1.11386
1.13723
1.15994
1.17883
1.20147
1.23011
1.31816
1.43947
1.96724
2.96461
6.48244
14.9319
14.1274
13.0075
12.7467
12.743
12.5716
12.0447
11.1647
9.80441
7.38706
1.00888
1.03177
1.05936
1.08735
1.11347
1.13789
1.15874
1.18072
1.19663
1.2327
1.28425
1.48451
1.75756
3.01857
5.81514
13.9004
13.5422
12.7697
12.4473
12.3423
12.0668
11.4403
10.4839
9.16904
7.32271
1.0088
1.0319
1.05923
1.08747
1.11334
1.13798
1.15866
1.18054
1.19629
1.22929
1.27505
1.45738
1.69347
2.84471
5.27058
12.7145
13.0548
12.6163
12.1699
11.9644
11.6119
10.9464
10.0218
8.84507
7.36412
1.00887
1.03176
1.05939
1.08724
1.1137
1.13737
1.15968
1.17855
1.19974
1.21983
1.28858
1.36324
1.76543
2.39923
4.90004
11.2812
12.8103
12.4461
11.9048
11.6081
11.2223
10.5789
9.71988
8.67995
7.45816
1.00881
1.03182
1.05939
1.0872
1.11385
1.13711
1.16006
1.17797
1.19985
1.21995
1.27633
1.35419
1.68307
2.23246
4.32102
9.59693
12.7269
12.3364
11.6645
11.2866
10.888
10.288
9.50569
8.58405
7.54389
1.00876
1.03187
1.05935
1.08723
1.11383
1.13713
1.16002
1.17788
1.19925
1.21682
1.26369
1.33017
1.59451
2.0312
3.65168
7.68962
12.6718
12.2375
11.454
11.0034
10.5971
10.0433
9.33632
8.51325
7.60378
1.00874
1.0319
1.05931
1.0873
1.11374
1.13725
1.15985
1.17792
1.19855
1.21356
1.2519
1.30631
1.51446
1.84294
3.06894
5.97102
12.3452
12.0052
11.2799
10.7535
10.3382
9.82971
9.19212
8.45374
7.64784
1.00877
1.03187
1.0593
1.08733
1.11365
1.1374
1.15958
1.17818
1.19759
1.21167
1.24293
1.28711
1.46076
1.68283
2.76645
4.94645
11.2505
11.4843
11.1132
10.5376
10.1063
9.63751
9.06384
8.402
7.68015
1.00878
1.03187
1.05928
1.0874
1.11348
1.13772
1.15897
1.17922
1.1954
1.21458
1.23353
1.2916
1.36525
1.70513
2.24902
4.33014
9.26775
11.1164
10.8796
10.3644
9.91171
9.46933
8.9491
8.35166
7.70237
1.00884
1.0318
1.05934
1.08731
1.11355
1.13763
1.15906
1.17907
1.19537
1.21363
1.22922
1.27587
1.33047
1.59275
1.98533
3.51926
7.19134
10.9296
10.7372
10.2591
9.76674
9.32499
8.84512
8.30447
7.71628
1.00886
1.03178
1.05937
1.08725
1.11365
1.13746
1.15932
1.17857
1.19605
1.21144
1.2289
1.25521
1.32866
1.4474
1.87573
2.72691
5.31831
10.4346
10.4913
10.1989
9.66647
9.20512
8.75315
8.25775
7.72197
1.00888
1.03174
1.0594
1.08723
1.11367
1.13743
1.15936
1.17846
1.19611
1.21068
1.22756
1.24489
1.30648
1.37459
1.72574
2.28857
4.34005
9.07941
10.2223
10.0384
9.59528
9.10507
8.66695
8.21097
7.72158
1.00876
1.03193
1.05924
1.08741
1.1135
1.13761
1.15916
1.17874
1.19557
1.21136