/*--------------------------------*- C++ -*----------------------------------*\
  =========                 |
  \\      /  F ield         | OpenFOAM: The Open Source CFD Toolbox
   \\    /   O peration     | Website:  https://openfoam.org
    \\  /    A nd           | Version:  6
     \\/     M anipulation  |
\*---------------------------------------------------------------------------*/
FoamFile
{
    version     2.0;
    format      ascii;
    class       surfaceScalarField;
    location    "3.5";
    object      phi;
}
// * * * * * * * * * * * * * * * * * * * * * * * * * * * * * * * * * * * * * //

dimensions      [1 0 -1 0 0 0 0];

internalField   nonuniform List<scalar> 
72625
(
0.00162356
1.14139e-10
5.87413e-05
0.00157665
9.66833e-10
4.69153e-05
0.00153806
2.64343e-10
3.85912e-05
0.00150613
1.39327e-09
3.19293e-05
0.00147905
-2.07096e-10
2.70773e-05
0.00145656
1.31801e-09
2.24889e-05
0.0014368
-4.28305e-10
1.97553e-05
0.00142086
3.86871e-09
1.59368e-05
0.00140578
1.20503e-08
1.50701e-05
0.00139166
4.42946e-08
1.40694e-05
0.00138323
8.61715e-08
8.34429e-06
0.00136628
2.82858e-07
1.65991e-05
0.00138512
6.50282e-07
-1.94608e-05
0.00133634
2.47354e-06
4.61745e-05
0.00156118
8.03486e-06
-0.000233089
0.00178965
4.68286e-05
-0.000275808
0.00168782
5.10193e-05
5.04004e-05
0.00148879
4.7307e-05
0.000151511
0.00138187
5.99802e-05
4.68119e-05
0.0013619
7.40908e-05
-5.4214e-05
0.00127891
6.97607e-05
1.31246e-05
0.00117564
5.3982e-05
4.9179e-05
0.0010183
3.59389e-05
0.000121293
0.000673049
3.77445e-05
0.000307378
4.54305e-06
0.000668439
0.00162356
1.61001e-09
5.87406e-05
0.00157665
2.64639e-09
4.69157e-05
0.00153806
4.10723e-12
3.85909e-05
0.00150613
2.65859e-09
3.19294e-05
0.00147905
-3.11173e-09
2.70778e-05
0.00145656
4.33472e-09
2.2488e-05
0.00143681
-5.23547e-09
1.97573e-05
0.00142086
1.47269e-08
1.5931e-05
0.00140576
4.36594e-08
1.50721e-05
0.00139163
1.28189e-07
1.40375e-05
0.00138306
2.57986e-07
8.3953e-06
0.00136622
6.52874e-07
1.64181e-05
0.0013847
1.45694e-06
-1.92676e-05
0.00133736
4.27167e-06
4.54118e-05
0.00155999
1.34221e-05
-0.000228237
0.00180628
6.05837e-05
-0.000260557
0.00173136
9.54901e-05
3.00875e-05
0.00152091
0.00011691
0.000140718
0.0014304
0.000113421
3.70048e-05
0.00138461
0.000118785
1.05262e-06
0.00134074
0.000124449
-1.08735e-05
0.00127086
0.000119138
4.64866e-06
0.00111125
0.000104999
9.04689e-05
0.000760217
0.000108847
0.000279849
0.000109918
0.000654872
0.00162356
9.2432e-09
5.87386e-05
0.00157665
-1.88047e-09
4.6917e-05
0.00153805
3.72404e-09
3.85904e-05
0.00150613
-3.48542e-09
3.19293e-05
0.00147905
-1.92994e-09
2.70798e-05
0.00145657
3.76368e-09
2.24844e-05
0.00143681
-1.4866e-08
1.9763e-05
0.00142083
7.2218e-08
1.59193e-05
0.00140574
7.26595e-08
1.50616e-05
0.00139152
3.22959e-07
1.40171e-05
0.00138269
7.40107e-07
8.33959e-06
0.00136616
7.09355e-07
1.64314e-05
0.00138254
4.57231e-06
-1.94727e-05
0.00133739
4.01132e-06
4.52692e-05
0.00154985
3.0782e-05
-0.000230043
0.00176593
0.000133886
-0.000289928
0.00166765
0.00016255
3.08388e-05
0.00148852
0.000161562
0.000134387
0.00140603
0.000161185
3.469e-05
0.00134909
0.000166213
9.46215e-06
0.00131269
0.000179261
-1.8454e-05
0.00124724
0.000194493
-9.9653e-06
0.00107454
0.000199352
7.82535e-05
0.000715685
0.000198653
0.000268964
0.000204947
0.000620684
0.00162357
1.85069e-08
5.87231e-05
0.00157665
-1.7542e-08
4.69336e-05
0.00153807
1.78127e-08
3.8577e-05
0.00150615
-2.63568e-08
3.19434e-05
0.00147904
3.27669e-08
2.70682e-05
0.00145663
-6.23872e-08
2.2491e-05
0.00143675
9.32899e-08
1.97616e-05
0.00142113
-2.26252e-07
1.58703e-05
0.00140617
9.04264e-08
1.49915e-05
0.00139148
1.17398e-06
1.37955e-05
0.00138787
-4.06384e-06
8.18754e-06
0.00135842
1.45764e-05
1.57811e-05
0.00141249
-2.91025e-05
-2.02996e-05
0.00131727
5.58616e-05
4.31701e-05
0.00156614
5.35054e-06
-0.000223679
0.00178284
0.000183311
-0.00026667
0.00171163
0.000220417
1.29629e-05
0.0015122
0.000231323
0.000129593
0.00141655
0.000229623
2.71922e-05
0.00136509
0.000248344
-3.06831e-05
0.00129919
0.000257899
-1.2769e-05
0.00122593
0.000271027
-3.32407e-06
0.00106133
0.000288972
7.49158e-05
0.000693421
0.000301946
0.000264553
0.000304352
0.0005941
0.00162365
-8.47261e-09
5.86858e-05
0.00157664
1.49787e-08
4.69769e-05
0.00153814
-1.15799e-08
3.85372e-05
0.00150611
1.59553e-08
3.19916e-05
0.00147916
-2.64746e-08
2.7009e-05
0.00145647
4.60687e-08
2.25788e-05
0.00143703
-8.94336e-08
1.96274e-05
0.00142037
2.08537e-07
1.61824e-05
0.00140615
-2.03757e-07
1.49081e-05
0.00139537
-6.64723e-07
1.2397e-05
0.00137065
5.38587e-06
1.52775e-05
0.00140083
-1.14814e-05
-3.9296e-06
0.00130461
4.17973e-05
2.4705e-05
0.0014599
-3.90372e-05
-6.02751e-05
0.00145709
8.77395e-05
-7.95757e-05
0.00175665
0.000178715
-0.000295586
0.00170918
0.000261523
5.99473e-06
0.00154164
0.000273779
0.000125048
0.00145562
0.000287367
2.82843e-05
0.00140116
0.000311099
-8.29066e-06
0.00133601
0.00033525
-1.22171e-05
0.00124966
0.000356737
5.93663e-07
0.00107962
0.000383473
7.54967e-05
0.000707667
0.000413909
0.000259935
0.000434914
0.000577208
0.00162358
6.8422e-09
5.87116e-05
0.00157667
-1.80639e-08
4.69478e-05
0.00153808
1.20946e-08
3.85638e-05
0.00150616
-2.27373e-08
3.19613e-05
0.00147905
3.53669e-08
2.70467e-05
0.00145664
-6.23244e-08
2.2521e-05
0.0014367
1.24711e-07
1.97264e-05
0.0014212
-2.32698e-07
1.5943e-05
0.0014055
4.32351e-07
1.5144e-05
0.00139019
1.08395e-06
1.34851e-05
0.00139171
-4.11663e-06
8.01107e-06
0.00135065
1.4463e-05
1.50008e-05
0.0014426
-2.91554e-05
-2.09813e-05
0.00130086
6.16583e-05
4.09095e-05
0.00158364
1.07419e-05
-0.000206006
0.00178215
0.000257818
-0.000278146
0.00174198
0.000319758
-1.85784e-05
0.00154995
0.000341529
0.000124152
0.00146458
0.000346537
2.61598e-05
0.00140795
0.000375467
-7.75783e-06
0.00135031
0.000408173
-1.53156e-05
0.00126609
0.000439624
1.25056e-06
0.00109207
0.000481722
7.57237e-05
0.000717425
0.000535394
0.000253143
0.00059419
0.000558242
0.00162365
-2.16264e-08
5.86919e-05
0.00157665
1.1946e-08
4.69723e-05
0.00153814
-1.87209e-08
3.85393e-05
0.0015061
2.96083e-08
3.19916e-05
0.00147917
-3.87672e-08
2.7003e-05
0.00145643
8.10996e-08
2.25924e-05
0.00143709
-1.24075e-07
1.95937e-05
0.00142034
2.8022e-07
1.62321e-05
0.00140632
-2.77892e-07
1.47283e-05
0.00139593
-8.731e-07
1.23394e-05
0.00137228
4.52745e-06
1.49909e-05
0.00139976
-9.66377e-06
-3.37972e-06
0.0013069
3.95269e-05
2.41105e-05
0.00145908
-3.23867e-05
-5.81952e-05
0.00145467
8.31293e-05
-6.81498e-05
0.00174409
0.000262244
-0.00029436
0.00173221
0.000369154
-3.80641e-05
0.00157221
0.000385486
0.000115925
0.00148856
0.000403708
2.64673e-05
0.00142659
0.000438219
-8.00489e-07
0.00137175
0.000479132
-1.61307e-05
0.0012863
0.000522173
2.8974e-06
0.00110889
0.00058406
7.49633e-05
0.000731059
0.000671806
0.000241448
0.000793216
0.000532145
0.00162363
-3.09527e-08
5.87288e-05
0.00157667
1.8564e-08
4.69313e-05
0.00153806
-1.2544e-08
3.85768e-05
0.00150613
1.5796e-08
3.19427e-05
0.00147903
7.82408e-10
2.70657e-05
0.00145661
1.08476e-09
2.24949e-05
0.00143672
1.87979e-08
1.97567e-05
0.00142123
-8.33464e-08
1.58936e-05
0.00140442
-1.49442e-07
1.51161e-05
0.00139122
6.13901e-08
1.35478e-05
0.0013876
2.18347e-07
8.59141e-06
0.00136022
2.3858e-06
1.46328e-05
0.00141495
2.51181e-06
-1.72965e-05
0.00131947
2.44131e-05
3.84121e-05
0.00153243
5.70625e-05
-0.000187202
0.00174216
0.000323685
-0.000271717
0.00176374
0.000414838
-6.7712e-05
0.00158032
0.000453026
0.000115783
0.00149518
0.000461795
2.70273e-05
0.00143765
0.000497833
-2.09207e-06
0.00138762
0.000545113
-1.59545e-05
0.00130378
0.00060021
5.78638e-06
0.00112918
0.000685923
7.26876e-05
0.000757029
0.000821136
0.000222784
0.0010567
0.000493654
0.00162348
-7.24639e-09
5.8795e-05
0.00157663
1.12975e-08
4.68576e-05
0.00153798
-2.54318e-10
3.86329e-05
0.00150612
-9.90339e-09
3.18885e-05
0.00147899
2.14347e-08
2.71093e-05
0.00145657
-3.98045e-08
2.24635e-05
0.00143672
8.69738e-08
1.97811e-05
0.00142077
-8.98064e-08
1.59542e-05
0.00140481
4.36549e-07
1.5354e-05
0.00139055
7.545e-07
1.35706e-05
0.00138057
1.25903e-06
8.95121e-06
0.0013662
2.50067e-06
1.41805e-05
0.00137393
8.46671e-06
-1.36587e-05
0.00135112
1.52184e-05
3.18667e-05
0.00149358
7.34541e-05
-0.000159057
0.00172249
0.00036361
-0.000269529
0.0017534
0.000462438
-7.87459e-05
0.00159268
0.000510372
0.000103232
0.0015115
0.000516064
2.68729e-05
0.00145889
0.000554305
-3.86032e-06
0.00141162
0.00060535
-1.29592e-05
0.00133095
0.000672566
8.32531e-06
0.00116303
0.000785004
6.88304e-05
0.000808883
0.00098198
0.000193296
0.00144044
0.000425242
0.00162339
5.88313e-05
6.74775e-08
0.00157665
4.68229e-05
-7.57473e-08
0.00153794
3.8654e-05
5.39919e-08
0.00150612
3.18786e-05
-6.87356e-08
0.00147899
2.70977e-05
5.8142e-08
0.00145654
2.24987e-05
-8.53377e-08
0.00143683
1.96835e-05
9.65508e-08
0.00142089
1.61119e-05
-8.60568e-08
0.00140463
1.48739e-05
4.2024e-07
0.00139175
1.3298e-05
1.24908e-06
0.00138705
8.88755e-06
-2.25544e-06
0.00136208
1.36374e-05
1.34993e-05
0.00140451
-1.50263e-05
-1.92833e-05
0.00131797
3.30459e-05
6.88761e-05
0.00151608
-0.000166738
4.19356e-05
0.00173806
-0.000266945
0.000407909
0.00176379
-7.36841e-05
0.000510116
0.00161949
9.0791e-05
0.000563698
0.00153963
2.89631e-05
0.000566905
0.00149487
-5.31197e-06
0.000604351
0.00144897
-6.72975e-06
0.000657952
0.00137777
8.08724e-06
0.000735668
0.00122709
5.879e-05
0.000876873
0.000908859
0.000160286
0.00113995
0.000310352
0.00203904
0.00172978
-2.97392e-10
7.16739e-06
0.00176404
1.13346e-09
1.26517e-05
0.00178822
7.529e-11
1.44074e-05
0.00180604
1.94172e-09
1.41142e-05
0.00181989
-1.02751e-10
1.32243e-05
0.00183054
2.10261e-09
1.18345e-05
0.0018394
1.53557e-10
1.08972e-05
0.00184585
2.94458e-09
9.48001e-06
0.00185196
1.40012e-08
8.95021e-06
0.00185736
4.51392e-08
8.60957e-06
0.00185804
1.28935e-07
7.54086e-06
0.0018675
3.43984e-07
6.72925e-06
0.00184394
1.0379e-06
3.0315e-06
0.00189403
3.55497e-06
-7.48906e-06
0.00176581
1.61861e-05
-0.000121768
0.00154684
0.000178474
-0.0002364
0.00133363
0.000142976
0.000120104
0.00124369
0.000188249
5.29322e-05
0.000965877
0.000258016
6.64789e-05
0.00113799
0.000433271
-0.000659752
0.000798115
0.000305405
4.74249e-05
0.00048156
0.000224181
0.000141377
0.000145144
0.000221826
0.000235596
-0.000151126
0.000282408
0.000321037
0.000132296
0.000384797
0.00172978
1.09539e-09
7.16631e-06
0.00176404
1.77006e-09
1.26531e-05
0.00178822
1.1259e-09
1.44059e-05
0.00180603
2.35884e-09
1.41161e-05
0.00181989
1.1337e-10
1.32212e-05
0.00183054
2.41278e-09
1.18393e-05
0.00183941
3.94465e-10
1.08898e-05
0.00184585
9.04907e-09
9.48387e-06
0.001852
3.47562e-08
8.90451e-06
0.00185724
1.22236e-07
8.70187e-06
0.00185845
2.68208e-07
7.05382e-06
0.00186684
8.98402e-07
7.40582e-06
0.00184499
2.13931e-06
1.44429e-06
0.00189342
7.91065e-06
-7.3832e-06
0.00176482
3.19909e-05
-0.000116156
0.00160367
0.00012881
-5.10209e-05
0.00135556
0.00031306
0.000107629
0.00129611
0.000356823
3.13915e-05
0.00118369
0.000391994
1.5356e-05
0.00117584
0.000443999
-1.90736e-06
0.000988845
0.000478225
3.18667e-06
0.000598881
0.000499883
0.000118795
0.000202926
0.000517278
0.000190687
-4.89015e-05
0.00054219
0.000271628
0.000390434
0.000347638
0.00172977
4.74966e-09
7.16697e-06
0.00176404
1.04872e-09
1.26514e-05
0.00178822
3.31061e-09
1.44072e-05
0.00180604
4.98596e-10
1.4114e-05
0.00181989
1.8477e-10
1.32241e-05
0.00183054
2.45935e-09
1.18352e-05
0.00183941
-2.09802e-09
1.08966e-05
0.00184584
2.04413e-08
9.4785e-06
0.00185192
6.92759e-08
8.94662e-06
0.0018572
2.52852e-07
8.58776e-06
0.00185785
4.32955e-07
7.53861e-06
0.00186669
1.88162e-06
6.53969e-06
0.00184308
3.35835e-06
2.88498e-06
0.00189089
1.40572e-05
-8.69937e-06
0.00176188
5.25859e-05
-0.000122356
0.00150623
0.000428681
-0.000335535
0.00131169
0.000442294
9.56347e-05
0.00127956
0.000498072
2.50552e-05
0.00119186
0.000520108
-5.82374e-06
0.00117215
0.000532225
-5.91367e-05
0.000984931
0.00066072
-1.38365e-05
0.000607427
0.000750199
0.000117118
0.000224651
0.000796326
0.000181824
-2.95524e-05
0.000812134
0.000252955
0.000648216
0.00033314
0.00172976
9.44048e-09
7.16401e-06
0.00176404
-5.63103e-09
1.26548e-05
0.00178821
9.46953e-09
1.44039e-05
0.00180605
-9.782e-09
1.41183e-05
0.00181988
1.20948e-08
1.322e-05
0.00183055
-1.53294e-08
1.18402e-05
0.0018394
2.15064e-08
1.08898e-05
0.00184578
2.99926e-08
9.48472e-06
0.00185169
2.31319e-07
8.90585e-06
0.00185696
8.55374e-08
8.68226e-06
0.00185623
2.22323e-06
7.12637e-06
0.00186641
2.81811e-07
7.14468e-06
0.00183842
9.46515e-06
1.55465e-06
0.0018874
1.7164e-05
-8.93167e-06
0.0017664
6.30401e-05
-0.00011386
0.00155397
0.000490055
-0.000117
0.00131861
0.00060182
8.82838e-05
0.00126019
0.000659507
2.63804e-05
0.00107005
0.000729693
7.66498e-06
0.0011072
0.000935205
-0.000470937
0.000906006
0.000875061
-2.60328e-05
0.00058163
0.000960978
0.000110156
0.000227602
0.00105159
0.000173488
-1.35298e-05
0.00108
0.000237552
0.000904697
0.000323909
0.00172974
-2.67709e-09
7.16004e-06
0.00176405
5.13946e-09
1.26598e-05
0.0017882
-4.43447e-09
1.43987e-05
0.00180605
6.3512e-09
1.41256e-05
0.00181987
-1.05395e-08
1.32128e-05
0.00183058
1.45764e-08
1.18434e-05
0.00183936
-2.27375e-08
1.08898e-05
0.00184612
2.24135e-08
9.42655e-06
0.00185255
-7.09825e-08
8.78736e-06
0.00185538
5.34633e-07
9.1096e-06
0.00186912
-9.51218e-07
4.72511e-06
0.00184894
4.70126e-06
1.17403e-05
0.00189003
1.80555e-06
-8.76761e-06
0.00181232
2.76716e-05
6.9515e-06
0.00177769
0.000124824
-0.000107478
0.00152512
0.000551764
-0.000106174
0.00131341
0.000735912
8.30883e-05
0.00126476
0.000808441
2.45622e-05
0.00113204
0.000894773
-4.15452e-06
0.00111983
0.00101155
-7.25353e-05
0.000922662
0.00109744
-3.75691e-05
0.000594795
0.00119526
9.40709e-05
0.000252699
0.00130911
0.000159943
1.76215e-05
0.00135114
0.000223599
0.00118661
0.000312753
0.00172975
2.93251e-09
7.16074e-06
0.00176405
-8.47948e-09
1.2659e-05
0.00178821
4.83362e-09
1.44001e-05
0.00180607
-1.22702e-08
1.41232e-05
0.00181987
1.48011e-08
1.32169e-05
0.00183059
-2.21689e-08
1.18403e-05
0.00183936
3.90162e-08
1.08934e-05
0.00184587
-5.26446e-09
9.45504e-06
0.00185187
2.10964e-07
8.87047e-06
0.00185705
1.33668e-07
8.68516e-06
0.00185436
2.52603e-06
7.22641e-06
0.00186643
6.79586e-07
6.8946e-06
0.00183227
1.32088e-05
1.73655e-06
0.00188549
2.56286e-05
-1.02636e-05
0.00177993
0.000117792
-9.41162e-05
0.0015571
0.000759341
-0.000264292
0.00131449
0.000882724
7.66799e-05
0.00127816
0.000948683
2.00602e-05
0.0011546
0.00105619
-1.17475e-05
0.00111836
0.001215
-0.000175014
0.000933576
0.00131197
-4.52233e-05
0.000625422
0.00142696
7.75513e-05
0.000299472
0.00156415
0.000146501
6.43815e-05
0.00162931
0.000209826
0.00151189
0.000297193
0.00172976
-1.21863e-08
7.1597e-06
0.00176405
4.24985e-09
1.26611e-05
0.00178821
-1.24622e-08
1.43979e-05
0.00180605
1.2129e-08
1.41263e-05
0.00181987
-1.67384e-08
1.32136e-05
0.00183058
2.75445e-08
1.18391e-05
0.00183934
-2.76512e-08
1.08981e-05
0.00184611
4.01202e-08
9.41855e-06
0.00185222
-3.40396e-08
8.86502e-06
0.0018551
5.43049e-07
9.02486e-06
0.00186783
-4.15028e-07
5.21658e-06
0.00184931
4.68584e-06
1.1056e-05
0.00188767
6.73805e-06
-7.81479e-06
0.00181392
3.23e-05
8.72913e-06
0.00179611
0.000166138
-9.94651e-05
0.00156917
0.000805794
-0.00011543
0.00133534
0.0010102
6.77888e-05
0.00130029
0.00107831
2.10947e-05
0.0012003
0.00119925
-1.66469e-05
0.00113259
0.00136993
-8.80434e-05
0.0009643
0.00151005
-4.60643e-05
0.000681382
0.00164943
6.31913e-05
0.000371779
0.00181461
0.000133962
0.000125751
0.00191892
0.000197654
0.00189107
0.000278563
0.00172978
-1.32827e-08
7.16336e-06
0.00176405
3.80048e-09
1.2657e-05
0.00178821
-7.37324e-09
1.4403e-05
0.00180605
5.01525e-09
1.41178e-05
0.00181987
2.55548e-10
1.32232e-05
0.00183056
1.38894e-09
1.18313e-05
0.00183938
1.32778e-08
1.09026e-05
0.00184585
4.53402e-09
9.45529e-06
0.00185193
9.33463e-08
8.90207e-06
0.00185693
3.94992e-07
8.68878e-06
0.00185657
1.3434e-06
7.19959e-06
0.0018651
3.20855e-06
7.50268e-06
0.00184248
1.25647e-05
-5.74136e-07
0.00187944
3.28687e-05
7.90085e-07
0.00179028
0.000164126
-9.67878e-05
0.00162455
0.000944312
-0.000246128
0.00136425
0.00114185
6.05178e-05
0.00133072
0.00120775
1.96299e-05
0.00124192
0.00133221
-1.72397e-05
0.00116597
0.00151581
-7.21272e-05
0.00100912
0.00169029
-3.94037e-05
0.000761094
0.00185511
4.79959e-05
0.000472581
0.0020566
0.000119067
0.000210348
0.00222084
0.00018289
0.00234353
0.000251402
0.00172982
4.89842e-10
7.16589e-06
0.00176402
4.7247e-09
1.26562e-05
0.00178824
-2.67428e-10
1.4403e-05
0.00180602
7.07697e-10
1.41163e-05
0.0018199
2.64122e-09
1.32215e-05
0.00183054
-5.85754e-09
1.1833e-05
0.00183941
2.06728e-08
1.08992e-05
0.00184591
8.35011e-09
9.45328e-06
0.0018523
2.0064e-07
8.86184e-06
0.00185691
5.58692e-07
8.77994e-06
0.00185835
1.99731e-06
6.8562e-06
0.00186351
3.76663e-06
8.40469e-06
0.0018502
1.52799e-05
-3.11413e-06
0.00186816
3.61628e-05
1.04678e-05
0.00180002
0.000173905
-0.00010139
0.00166485
0.00100847
-0.000200171
0.00140462
0.00127211
5.06545e-05
0.0013621
0.00133449
1.90037e-05
0.00128609
0.00145104
-1.59866e-05
0.00121397
0.0016395
-5.55246e-05
0.00108061
0.00184315
-3.26208e-05
0.000876664
0.00203108
3.62079e-05
0.000630754
0.00227267
9.85589e-05
0.000353858
0.00253079
0.000160057
0.00290794
0.00021451
0.00172984
7.16506e-06
3.01574e-08
0.00176402
1.26599e-05
-1.44075e-08
0.00178826
1.43975e-05
1.29015e-08
0.00180602
1.41272e-05
-2.46073e-09
0.00181993
1.32056e-05
-1.48553e-08
0.00183053
1.18503e-05
3.641e-08
0.00183943
1.08871e-05
-8.2543e-08
0.0018459
9.44921e-06
2.08922e-07
0.00185214
8.99097e-06
-1.70043e-07
0.00185519
8.65481e-06
2.13929e-06
0.00186172
7.12289e-06
-2.74584e-06
0.00185382
7.57321e-06
1.76642e-05
0.00187013
-1.25182e-06
-1.48469e-05
0.00184008
1.00405e-05
8.90636e-05
0.00181457
-9.42798e-05
0.000126326
0.00168671
-0.000207993
0.0010759
0.0014438
3.52585e-05
0.00140526
0.00140165
1.6299e-05
0.00145106
0.00134114
-1.46454e-05
0.00155528
0.00127245
-4.16721e-05
0.00174455
0.00118827
-3.0479e-05
0.00195096
0.0010233
2.97224e-05
0.00217425
0.000816045
8.10751e-05
0.0024575
0.000606928
0.000119809
0.0027802
0.000153684
0.00367143
0.00169386
6.52714e-10
-7.16504e-06
0.00171917
1.96254e-10
-1.26524e-05
0.00174798
5.84234e-10
-1.4405e-05
0.00177621
5.24154e-10
-1.4115e-05
0.00180266
-4.95175e-10
-1.32232e-05
0.00182632
2.72967e-09
-1.18354e-05
0.00184812
-3.60073e-09
-1.0895e-05
0.00186708
1.18013e-08
-9.49121e-06
0.00188499
-2.29153e-09
-8.95522e-06
0.00190209
1.11879e-07
-8.6254e-06
0.00191729
-9.42417e-08
-7.54383e-06
0.00192996
7.13597e-07
-6.7387e-06
0.00193612
3.21734e-08
-3.18011e-06
0.0019185
2.84768e-06
7.13264e-06
0.00167321
1.07656e-05
0.000111933
0.00116935
0.000188728
7.59155e-05
0.00117845
0.000230867
-0.000120576
0.000999841
0.000273185
-4.19829e-05
0.000827697
0.000265384
-2.69565e-05
-5.69319e-05
0.000247882
-2.32462e-05
-0.000299002
0.000319648
-3.04286e-05
-0.000451363
0.000419527
-0.000125987
-0.00046305
0.000456664
-0.000209614
-0.000335299
0.000507877
-0.000314818
0.000451752
-0.000402511
0.00169386
4.18692e-10
-7.16144e-06
0.00171917
5.31896e-10
-1.2657e-05
0.00174798
7.44526e-10
-1.43999e-05
0.00177621
8.29884e-10
-1.41221e-05
0.00180265
9.75287e-10
-1.32162e-05
0.00182633
-1.35925e-09
-1.18377e-05
0.00184811
4.68535e-09
-1.08961e-05
0.00186704
-4.91242e-09
-9.42709e-06
0.00188472
4.32297e-08
-8.82048e-06
0.00190258
2.06655e-08
-9.08776e-06
0.00191416
4.76139e-07
-5.09066e-06
0.0019333
3.41073e-07
-1.14261e-05
0.0019247
2.98102e-06
7.05924e-06
0.00192072
7.52681e-06
-8.21504e-06
0.00167128
4.26089e-05
0.00010061
0.00113855
0.000283869
0.00038383
0.0011601
0.000412587
-9.63708e-05
0.0010019
0.000503275
-4.08424e-05
0.000803276
0.000529525
-5.03545e-05
-9.05185e-05
0.00050229
0.000637217
-0.000410637
0.000659331
-1.66539e-05
-0.000507721
0.000742883
-0.000107662
-0.000486371
0.000815244
-0.000189479
-0.000315811
0.000878857
-0.000270157
0.000823293
-0.000339977
0.00169386
1.23352e-09
-7.16243e-06
0.00171917
4.44919e-10
-1.26556e-05
0.00174798
9.65693e-10
-1.44018e-05
0.00177621
5.78452e-10
-1.41192e-05
0.00180266
-8.25577e-10
-1.32204e-05
0.00182632
2.12221e-09
-1.18358e-05
0.00184813
-2.49202e-09
-1.0898e-05
0.00186705
1.46315e-08
-9.47071e-06
0.00188495
2.70782e-08
-8.93178e-06
0.00190195
2.25119e-07
-8.62827e-06
0.00191736
2.26027e-07
-7.61247e-06
0.0019291
1.65869e-06
-6.59881e-06
0.00193568
2.76079e-06
-3.50288e-06
0.00191404
1.25163e-05
7.81238e-06
0.00167096
5.93421e-05
0.000103164
0.00114504
0.000411973
5.96255e-05
0.00114166
0.00060471
-9.38557e-05
0.000983843
0.000719915
-3.41312e-05
0.000760772
0.000774906
-2.83295e-05
-5.94619e-05
0.000826346
0.000436777
-0.000404686
0.000977577
1.28648e-05
-0.000490283
0.00105273
-0.000107303
-0.000463647
0.00115104
-0.000180843
-0.000311575
0.0012251
-0.00024562
0.00115304
-0.000308454
0.00169385
1.04316e-09
-7.15869e-06
0.00171917
-1.16128e-10
-1.26604e-05
0.00174797
6.41674e-10
-1.4397e-05
0.00177622
-2.40096e-10
-1.41261e-05
0.00180265
-1.10179e-09
-1.32139e-05
0.00182633
1.90452e-09
-1.18388e-05
0.00184812
-1.93788e-09
-1.08978e-05
0.00186702
1.89482e-08
-9.41911e-06
0.00188472
4.83751e-08
-8.81249e-06
0.00190233
3.06803e-07
-9.02647e-06
0.00191438
4.29091e-07
-5.1167e-06
0.00193189
2.32794e-06
-1.11152e-05
0.00192436
4.63866e-06
7.17477e-06
0.00191621
1.93387e-05
-7.73373e-06
0.00166369
9.63934e-05
0.000100766
0.00115924
0.000679023
0.000117824
0.00112389
0.000814137
-8.65083e-05
0.000975169
0.000925839
-3.11779e-05
0.000752726
0.00101125
-6.44827e-06
-1.8051e-05
0.00106944
5.6431e-05
-0.000351791
0.00125481
3.01992e-05
-0.000435004
0.00135547
-0.000109562
-0.000420006
0.00148143
-0.000172138
-0.000291949
0.00156319
-0.000228858
0.0014837
-0.000298948
0.00169385
-8.59536e-10
-7.15646e-06
0.00171917
-2.20371e-10
-1.26641e-05
0.00174797
-8.32708e-10
-1.43938e-05
0.00177623
-3.69456e-10
-1.41312e-05
0.00180265
-6.95374e-11
-1.32083e-05
0.00182634
-1.10394e-09
-1.18457e-05
0.00184811
5.93404e-09
-1.08893e-05
0.00186697
8.52236e-09
-9.42463e-06
0.00188449
9.31533e-08
-8.77337e-06
0.00190271
2.65919e-07
-9.08354e-06
0.00191156
1.00399e-06
-4.69406e-06
0.0019348
2.44286e-06
-1.16851e-05
0.00191378
8.23962e-06
8.61873e-06
0.00191961
2.85544e-05
-8.23788e-06
0.00167627
0.00014393
8.74973e-05
0.00115022
0.000841737
0.00025462
0.00112359
0.00100169
-7.85414e-05
0.000977314
0.00112375
-2.74055e-05
0.000744085
0.00124085
-7.33743e-07
0.000102148
0.00136335
0.000275263
-0.000251896
0.00153674
3.42508e-05
-0.000359508
0.00165603
-9.9096e-05
-0.000363106
0.00180468
-0.000159914
-0.000259352
0.00189976
-0.000217001
0.00183016
-0.000293298
0.00169385
-2.64837e-09
-7.1586e-06
0.00171917
9.66428e-12
-1.26613e-05
0.00174797
-2.49461e-09
-1.43965e-05
0.00177622
-3.95943e-12
-1.41274e-05
0.00180265
-4.14808e-10
-1.32118e-05
0.00182633
9.02898e-10
-1.18411e-05
0.00184812
5.09435e-09
-1.08963e-05
0.00186698
2.02357e-08
-9.41783e-06
0.0018847
8.82582e-08
-8.84344e-06
0.00190219
4.46132e-07
-9.00051e-06
0.00191468
9.58197e-07
-5.21121e-06
0.00193107
3.77833e-06
-1.09041e-05
0.00192442
9.43059e-06
7.16288e-06
0.00191268
3.70091e-05
-7.11167e-06
0.00168663
0.000180061
9.49863e-05
0.00115937
0.00100129
0.000100885
0.00113028
0.00118197
-7.52129e-05
0.00099013
0.00130829
-2.46287e-05
0.000756576
0.00145238
1.01127e-05
0.000224067
0.00163176
8.88939e-05
-0.000129399
0.00180453
4.01372e-05
-0.000263448
0.00195017
-8.27718e-05
-0.000287855
0.00212154
-0.000146238
-0.000210529
0.00223698
-0.000204989
0.00219934
-0.000282751
0.00169385
-3.84174e-09
-7.16266e-06
0.00171917
2.03929e-10
-1.26558e-05
0.00174797
-2.95673e-09
-1.44031e-05
0.00177622
7.34362e-10
-1.41174e-05
0.00180265
5.89085e-10
-1.32219e-05
0.00182633
9.65045e-10
-1.18356e-05
0.00184811
9.6118e-09
-1.08953e-05
0.00186699
1.9083e-08
-9.45968e-06
0.0018847
1.17791e-07
-8.87474e-06
0.00190235
4.85514e-07
-8.67489e-06
0.00191438
1.28037e-06
-7.12701e-06
0.00193203
4.16728e-06
-7.05297e-06
0.0019229
1.17538e-05
-1.04782e-06
0.00191697
4.31063e-05
8.46123e-06
0.00169652
0.000210594
8.96371e-05
0.0011771
0.00115706
0.000245779
0.00114175
0.00135497
-7.055e-05
0.00101201
0.0014812
-2.24281e-05
0.000785264
0.0016484
1.39006e-05
0.000363316
0.00188018
8.53413e-05
4.76572e-06
0.00207574
4.08784e-05
-0.000144829
0.00223028
-6.75997e-05
-0.000183788
0.00242777
-0.000133457
-0.000138835
0.00258213
-0.000192667
0.0026061
-0.000267262
0.00169386
-3.73658e-09
-7.16521e-06
0.00171917
1.94503e-09
-1.2653e-05
0.00174798
-2.07148e-09
-1.44063e-05
0.0017762
2.12234e-09
-1.41126e-05
0.00180265
2.08625e-09
-1.32274e-05
0.00182631
1.50958e-09
-1.18289e-05
0.00184812
1.20127e-08
-1.09026e-05
0.00186702
2.65903e-08
-9.46018e-06
0.00188483
1.20729e-07
-8.90461e-06
0.00190199
6.72478e-07
-8.67149e-06
0.00191636
1.16833e-06
-7.049e-06
0.00193032
5.37792e-06
-7.73757e-06
0.00192793
1.1978e-05
1.55734e-06
0.00192532
4.92369e-05
-2.86829e-06
0.00171477
0.000219476
0.000104133
0.00120068
0.00127114
0.000151356
0.00116103
0.00151756
-6.30181e-05
0.00104007
0.00164326
-2.16474e-05
0.000831785
0.00182444
1.48862e-05
0.000480314
0.00209028
6.91946e-05
0.000162716
0.00231788
3.57213e-05
2.92293e-06
0.002489
-5.11765e-05
-5.44197e-05
0.00272218
-0.000118286
-3.67041e-05
0.00292459
-0.00017761
0.00306327
-0.000242702
0.00169386
-3.24199e-10
-7.16582e-06
0.00171916
6.08423e-09
-1.26538e-05
0.00174797
-5.23279e-09
-1.44035e-05
0.00177619
1.19141e-08
-1.41154e-05
0.00180265
-1.16748e-08
-1.32221e-05
0.0018263
1.68672e-08
-1.18333e-05
0.00184811
4.84894e-09
-1.08981e-05
0.00186704
1.49987e-08
-9.46643e-06
0.00188457
3.3446e-07
-8.88437e-06
0.00190238
3.99621e-07
-8.76603e-06
0.00191474
2.5162e-06
-6.84433e-06
0.0019339
2.94938e-06
-8.39299e-06
0.00192002
1.96982e-05
2.99575e-06
0.00194934
4.09063e-05
-1.04584e-05
0.00173982
0.00022473
0.000102002
0.00123633
0.00134585
0.000226486
0.00118488
0.00167074
-5.20341e-05
0.00107464
0.00179216
-1.99763e-05
0.000890189
0.00197835
1.45246e-05
0.000606776
0.00226462
5.3507e-05
0.000335335
0.00252627
3.01189e-05
0.000180048
0.00271925
-3.9001e-05
0.000115202
0.00298356
-9.81298e-05
0.000110828
0.00324352
-0.000154684
0.0035965
-0.000208077
0.00169385
-7.16412e-06
8.80118e-09
0.00171917
-1.26591e-05
5.1493e-09
0.00174797
-1.43968e-05
-1.07065e-08
0.0017762
-1.41261e-05
3.45816e-08
0.00180267
-1.32062e-05
-6.56875e-08
0.00182626
-1.18491e-05
1.23572e-07
0.00184824
-1.08876e-05
-2.03726e-07
0.00186672
-9.45203e-06
4.33413e-07
0.00188546
-8.98925e-06
-4.22092e-07
0.00190118
-8.65576e-06
1.97786e-06
0.00192143
-7.12926e-06
-3.47756e-06
0.00192077
-7.59622e-06
1.87136e-05
0.00195252
1.16855e-06
-1.45597e-05
0.00193004
-1.0128e-05
8.34047e-05
0.00179239
9.37437e-05
0.000173435
0.00129832
0.000209085
0.00142079
0.00120263
-3.54262e-05
0.00183668
0.00110932
-1.63397e-05
0.00191771
0.000955773
1.37483e-05
0.0021033
0.000736292
4.03115e-05
0.0024021
0.000519824
2.86504e-05
0.00268336
0.000393875
-3.14397e-05
0.00290608
0.000348737
-8.0928e-05
0.00319039
0.000335955
-0.00011592
0.0034917
-0.000149128
0.00423501
0.00172975
9.16804e-09
-5.87239e-05
0.00176404
-7.74189e-09
-4.69322e-05
0.00178821
9.85765e-09
-3.85785e-05
0.00180604
-1.14955e-08
-3.19413e-05
0.00181988
1.38196e-08
-2.70706e-05
0.00183055
-1.6472e-08
-2.24882e-05
0.0018394
2.02168e-08
-1.97641e-05
0.00184575
2.59289e-08
-1.58652e-05
0.00185156
1.86613e-07
-1.49603e-05
0.00185687
-1.20902e-07
-1.38223e-05
0.00185569
1.7377e-06
-8.09808e-06
0.00186612
-1.22869e-06
-1.60061e-05
0.00183705
4.98544e-06
2.08713e-05
0.00188633
1.71812e-06
-4.38859e-05
0.00176494
-1.00889e-05
0.000242672
0.00161076
-2.87672e-05
0.000257275
0.00137235
0.000156672
-3.94155e-05
0.0013145
0.000161761
-0.000146103
0.00124137
9.39815e-05
-4.78946e-05
0.00126326
-2.50255e-05
-2.02021e-05
0.00113754
9.78936e-05
-2.68634e-06
0.000815695
0.000210246
-1.45044e-05
0.000418272
0.00027779
-9.01004e-05
7.08305e-05
0.000319743
-0.000287248
0.000329819
-0.000661603
0.00172974
-3.60966e-09
-5.86821e-05
0.00176405
8.14403e-09
-4.6981e-05
0.0017882
-4.55093e-09
-3.8533e-05
0.00180605
9.36197e-09
-3.19947e-05
0.00181986
-1.06133e-08
-2.7005e-05
0.00183058
1.36327e-08
-2.25833e-05
0.00183934
-2.16599e-08
-1.96215e-05
0.00184615
-1.0835e-08
-1.61971e-05
0.00185257
-1.39025e-07
-1.4915e-05
0.00185536
3.17313e-07
-1.2326e-05
0.00186889
-1.40334e-06
-1.54698e-05
0.0018491
2.83218e-06
4.22682e-06
0.00188909
-2.30896e-06
-2.5673e-05
0.00181557
9.50012e-06
5.74811e-05
0.00176678
5.2792e-05
8.58126e-05
0.00144419
0.000341868
0.000333526
0.00128434
0.000280993
-6.13569e-05
0.00121111
0.000328006
-0.00013403
0.000932829
0.000360869
-3.89608e-05
0.0010788
0.000418721
4.74229e-05
0.000783933
0.000390141
-1.41219e-05
0.000515609
0.000411558
-4.07231e-05
0.000191751
0.00050889
-9.68552e-05
-6.85086e-05
0.000599162
-0.00028946
0.000552214
-0.000631051
0.00172975
8.70377e-09
-5.87189e-05
0.00176405
-6.31359e-09
-4.69386e-05
0.0017882
8.5211e-09
-3.85708e-05
0.00180606
-9.55671e-09
-3.1953e-05
0.00181987
1.04135e-08
-2.70545e-05
0.00183057
-1.3876e-08
-2.25132e-05
0.00183937
1.64079e-08
-1.9734e-05
0.0018458
2.45945e-08
-1.59327e-05
0.00185162
1.8731e-07
-1.50786e-05
0.00185697
-5.75816e-08
-1.36146e-05
0.00185398
1.87256e-06
-7.89078e-06
0.0018662
-7.24795e-07
-1.53287e-05
0.00183065
6.96967e-06
2.27419e-05
0.00187948
9.66129e-06
-4.11989e-05
0.00176006
3.33537e-05
0.000241296
0.00155134
0.000345277
0.000263307
0.00131015
0.000456143
-2.84553e-05
0.00121675
0.000513456
-0.000126466
0.000985567
0.000587811
-2.41887e-05
0.00106455
0.000727407
4.90003e-05
0.000794791
0.000669304
3.3665e-06
0.000459577
0.000663713
-2.43125e-05
0.000116304
0.000761339
-9.01607e-05
-0.00010422
0.000853358
-0.000279441
0.000745068
-0.000605688
0.00172973
2.00886e-09
-5.86773e-05
0.00176406
-7.94095e-10
-4.6987e-05
0.00178819
1.21745e-09
-3.85275e-05
0.00180606
-2.67412e-09
-3.20031e-05
0.00181986
6.5707e-10
-2.69974e-05
0.0018306
-2.48321e-09
-2.25935e-05
0.00183934
4.74581e-10
-1.96185e-05
0.00184614
9.66542e-09
-1.62031e-05
0.00185247
4.06844e-08
-1.49959e-05
0.00185559
2.43848e-07
-1.24701e-05
0.00186772
4.40032e-07
-1.5803e-05
0.00185057
1.99954e-06
3.24336e-06
0.00188664
4.44665e-06
-2.64181e-05
0.00181117
1.80644e-05
5.9365e-05
0.00177948