/*--------------------------------*- C++ -*----------------------------------*\
  =========                 |
  \\      /  F ield         | OpenFOAM: The Open Source CFD Toolbox
   \\    /   O peration     | Website:  https://openfoam.org
    \\  /    A nd           | Version:  6
     \\/     M anipulation  |
\*---------------------------------------------------------------------------*/
FoamFile
{
    version     2.0;
    format      ascii;
    class       volScalarField;
    location    "3.5";
    object      T;
}
// * * * * * * * * * * * * * * * * * * * * * * * * * * * * * * * * * * * * * //

dimensions      [0 0 0 1 0 0 0];

internalField   nonuniform List<scalar> 
26250
(
0.980141
0.967356
0.9559
0.946569
0.937839
0.930987
0.924394
0.920516
0.919927
0.927516
0.942824
1.00973
1.13301
1.59624
2.51515
2.70863
2.66842
2.63505
2.59658
2.60973
2.61637
2.63607
2.6723
2.72606
2.72229
0.980147
0.96735
0.955906
0.946563
0.937845
0.93098
0.924398
0.920498
0.919913
0.927429
0.94264
1.0092
1.13191
1.59299
2.50943
2.70026
2.65994
2.62584
2.59014
2.59031
2.60238
2.62952
2.66057
2.71973
2.71109
0.98016
0.967335
0.95592
0.946549
0.937859
0.930966
0.924404
0.920445
0.919864
0.927268
0.942205
1.00837
1.12927
1.59019
2.50556
2.70637
2.66811
2.63134
2.59691
2.59632
2.60976
2.63825
2.67065
2.72882
2.71953
0.980303
0.967196
0.956071
0.946397
0.93801
0.930813
0.924495
0.920172
0.919714
0.926897
0.939806
1.007
1.12361
1.5854
2.4956
2.69556
2.6567
2.6256
2.59216
2.59858
2.61159
2.64004
2.67294
2.73363
2.73497
0.98075
0.96675
0.956527
0.945928
0.93849
0.930308
0.925083
0.919755
0.921738
0.921726
0.946385
0.984501
1.15294
1.57546
2.3543
2.66615
2.62785
2.60229
2.57261
2.57612
2.59151
2.6237
2.65978
2.72472
2.73269
0.980387
0.967113
0.956153
0.946321
0.938091
0.930737
0.924596
0.920155
0.919716
0.926031
0.9359
1.00278
1.11001
1.56648
2.45299
2.66979
2.63349
2.60352
2.57005
2.57102
2.5849
2.61486
2.65
2.716
2.72777
0.98068
0.966814
0.956461
0.946
0.938422
0.930371
0.925002
0.919675
0.920937
0.921069
0.944256
0.979221
1.14093
1.52618
2.30106
2.63163
2.61567
2.58585
2.55667
2.55723
2.57168
2.6015
2.63715
2.70443
2.72202
0.980285
0.967164
0.956077
0.946405
0.938005
0.930816
0.924488
0.920071
0.919674
0.925185
0.935456
0.996497
1.09416
1.52995
2.39631
2.62889
2.61617
2.58292
2.54862
2.54727
2.55984
2.58678
2.62003
2.68693
2.70661
0.97955
0.967952
0.95529
0.947187
0.937218
0.93162
0.923752
0.921133
0.919166
0.924604
0.935455
0.99193
1.08648
1.49453
2.34052
2.60048
2.59795
2.57226
2.53976
2.53585
2.54583
2.56736
2.59565
2.65887
2.67174
0.979006
0.968514
0.95473
0.947765
0.936649
0.932178
0.92309
0.921534
0.918062
0.923505
0.932218
0.987231
1.07226
1.47749
2.30445
2.57754
2.57913
2.55767
2.53043
2.52467
2.5327
2.54548
2.5627
2.60101
2.5774
1.01422
1.02102
1.02631
1.02896
1.03185
1.03303
1.03513
1.0369
1.04461
1.05667
1.0936
1.18261
1.39351
1.97539
2.82481
2.71871
2.79458
2.75653
2.75647
2.76443
2.77063
2.7848
2.82254
2.82711
2.76257
1.01422
1.02102
1.02631
1.02896
1.03185
1.03303
1.03513
1.03689
1.04457
1.05662
1.09341
1.18224
1.39258
1.96876
2.82394
2.72312
2.79025
2.74995
2.74406
2.75383
2.76601
2.77544
2.80636
2.83445
2.76765
1.01422
1.02102
1.02631
1.02896
1.03185
1.03303
1.03513
1.03687
1.0445
1.05644
1.09304
1.18107
1.39029
1.9639
2.82255
2.71703
2.79122
2.74987
2.74198
2.75049
2.76558
2.77229
2.7938
2.83238
2.7706
1.01423
1.02101
1.02632
1.02896
1.03185
1.03303
1.03512
1.03683
1.04437
1.05613
1.09253
1.17904
1.38716
1.952
2.81838
2.72446
2.78809
2.74507
2.74152
2.74934
2.76328
2.76836
2.78424
2.82676
2.77002
1.0142
1.02106
1.02628
1.02901
1.0318
1.03308
1.03503
1.03673
1.04352
1.05664
1.08714
1.18508
1.37408
1.94146
2.81874
2.73096
2.7881
2.74134
2.73732
2.74288
2.75561
2.76114
2.77283
2.8143
2.76658
1.01423
1.02102
1.02631
1.02897
1.03184
1.03304
1.03508
1.03673
1.04396
1.0552
1.09071
1.17249
1.3751
1.90463
2.80673
2.72761
2.7827
2.73301
2.72846
2.733
2.74288
2.74823
2.7596
2.8002
2.75842
1.01419
1.02107
1.02627
1.02902
1.0318
1.03308
1.03501
1.03666
1.04316
1.0555
1.08485
1.17771
1.357
1.87661
2.80673
2.7346
2.77282
2.72628
2.72108
2.7243
2.73214
2.73212
2.73877
2.77648
2.74008
1.01422
1.02102
1.0263
1.02897
1.03183
1.03304
1.03505
1.03661
1.0435
1.05399
1.08754
1.16574
1.35097
1.84483
2.78704
2.73277
2.75009
2.71468
2.70768
2.70934
2.71489
2.71661
2.71445
2.74734
2.71364
1.01415
1.02106
1.02626
1.02899
1.0318
1.03304
1.03502
1.03656
1.04319
1.05325
1.08552
1.16173
1.3362
1.82106
2.77321
2.73474
2.72719
2.69885
2.69752
2.69625
2.69317
2.68955
2.68613
2.70192
2.65124
1.01409
1.0211
1.02621
1.02902
1.03177
1.03305
1.03498
1.03646
1.04268
1.0524
1.08249
1.15706
1.32159
1.79469
2.75267
2.74736
2.70106
2.66773
2.67251
2.67979
2.67499
2.66352
2.6411
2.64615
2.56712
1.00631
1.01271
1.02147
1.02803
1.03565
1.04066
1.04703
1.05168
1.06197
1.07804
1.12149
1.22622
1.45927
2.1221
2.87878
2.54431
2.78537
2.76131
2.76418
2.7278
2.80873
2.80802
2.80918
2.8096
2.77112
1.00634
1.01268
1.02149
1.02801
1.03567
1.04063
1.04705
1.05165
1.06202
1.07781
1.12176
1.22454
1.4594
2.12481
2.87635
2.54731
2.78492
2.75903
2.76294
2.72918
2.80453
2.80462
2.80423
2.80605
2.76618
1.00631
1.01271
1.02147
1.02804
1.03565
1.04066
1.04703
1.05166
1.06187
1.07785
1.12094
1.22507
1.45615
2.11753
2.87343
2.55513
2.78252
2.75322
2.75921
2.72762
2.79562
2.7972
2.79431
2.79748
2.75874
1.00634
1.01268
1.02149
1.02801
1.03567
1.04063
1.04705
1.05161
1.06183
1.07745
1.12073
1.22223
1.45335
2.11381
2.86817
2.57164
2.78533
2.75062
2.75607
2.71881
2.7897
2.79069
2.78625
2.78903
2.75105
1.00636
1.01266
1.02152
1.02799
1.0357
1.04061
1.04706
1.05154
1.06174
1.07692
1.12022
1.21851
1.44846
2.10202
2.86092
2.58633
2.7829
2.7455
2.75207
2.71345
2.77423
2.77619
2.77012
2.77081
2.73523
1.00635
1.01267
1.02151
1.028
1.03569
1.04061
1.04704
1.0515
1.06144
1.07655
1.11855
1.21613
1.43926
2.07675
2.85252
2.60564
2.77769
2.7359
2.74381
2.70682
2.7611
2.76533
2.75629
2.75642
2.721
1.00638
1.01265
1.02153
1.02797
1.03571
1.04059
1.04705
1.05142
1.06118
1.07582
1.11702
1.21089
1.4286
2.04487
2.84027
2.62773
2.77294
2.72607
2.73186
2.69763
2.73293
2.74244
2.73364
2.72605
2.68951
1.00639
1.01263
1.02155
1.02796
1.03572
1.04057
1.04705
1.05134
1.06081
1.07507
1.11499
1.20542
1.41584
2.00235
2.82304
2.64702
2.7632
2.71407
2.7197
2.68758
2.71381
2.72582
2.70778
2.69915
2.65867
1.00643
1.01259
1.02159
1.02791
1.03576
1.04052
1.04708
1.05122
1.06048
1.074
1.11316
1.19742
1.403
1.9464
2.80544
2.67733
2.74983
2.69667
2.7026
2.67262
2.67847
2.69354
2.67327
2.6505
2.58674
1.00635
1.01267
1.0215
1.02799
1.03568
1.04059
1.04699
1.05112
1.05984
1.07334
1.10989
1.1957
1.38431
1.8812
2.79926
2.6898
2.73398
2.68155
2.68481
2.65891
2.65658
2.66431
2.63372
2.59735
2.48604
1.01424
1.02101
1.02632
1.02895
1.03185
1.03303
1.03513
1.03687
1.04456
1.05656
1.09349
1.18233
1.39397
1.98125
2.82426
2.72167
2.79141
2.75356
2.74316
2.75301
2.7612
2.77811
2.79145
2.83037
2.78445
1.0142
1.02106
1.02628
1.02901
1.03181
1.03308
1.03505
1.0368
1.04378
1.05743
1.08877
1.19028
1.38581
1.99398
2.82682
2.70076
2.80209
2.76427
2.76164
2.77234
2.77705
2.79229
2.8058
2.82963
2.77093
1.01423
1.02101
1.02632
1.02896
1.03185
1.03303
1.03512
1.03685
1.04446
1.05629
1.0931
1.18058
1.39149
1.97691
2.82049
2.72017
2.79036
2.75123
2.75234
2.76203
2.76921
2.78679
2.80408
2.82489
2.76577
1.01421
1.02105
1.02628
1.02901
1.03181
1.03308
1.03505
1.03677
1.04371
1.05701
1.08812
1.18773
1.38036
1.97166
2.82075
2.72846
2.79244
2.74902
2.74392
2.7537
2.76501
2.774
2.79796
2.81951
2.76244
1.01421
1.02105
1.02629
1.02901
1.03181
1.03308
1.03504
1.03674
1.04364
1.05662
1.08752
1.1853
1.37518
1.95175
2.81724
2.72783
2.79099
2.74529
2.74055
2.74651
2.7587
2.76523
2.78619
2.80953
2.75696
1.0142
1.02106
1.02628
1.02901
1.03181
1.03308
1.03503
1.0367
1.04343
1.05614
1.08634
1.182
1.36747
1.91669
2.81208
2.73231
2.78638
2.73803
2.73256
2.73639
2.74566
2.75028
2.76941
2.79745
2.74867
1.01422
1.02102
1.02631
1.02897
1.03184
1.03304
1.03506
1.03667
1.04374
1.05469
1.0894
1.16868
1.36546
1.86348
2.79614
2.72887
2.77312
2.72857
2.72483
2.7284
2.73557
2.73474
2.74674
2.7758
2.7308
1.01423
1.02102
1.02631
1.02896
1.03184
1.03303
1.03506
1.03661
1.04354
1.05408
1.0873
1.16707
1.34909
1.84484
2.7879
2.73107
2.74442
2.71172
2.70889
2.71161
2.71786
2.71765
2.71953
2.74722
2.7047
1.01421
1.02103
1.02629
1.02898
1.03182
1.03304
1.03503
1.03656
1.04321
1.05326
1.08562
1.16164
1.33654
1.82054
2.77279
2.73565
2.72511
2.69414
2.69604
2.69738
2.69684
2.69172
2.69084
2.70264
2.64392
1.01409
1.0211
1.02621
1.02902
1.03177
1.03305
1.03498
1.03646
1.04269
1.05243
1.08255
1.15717
1.32187
1.7946
2.75215
2.7477
2.70215
2.66431
2.66811
2.67785
2.67501
2.66536
2.64547
2.64761
2.56004
0.980286
0.967207
0.956051
0.946417
0.937986
0.930839
0.924485
0.920164
0.919726
0.927215
0.940435
1.0095
1.12868
1.60115
2.52392
2.70892
2.66787
2.63244
2.59593
2.59455
2.60467
2.63315
2.66413
2.7274
2.70555
0.980807
0.966678
0.956592
0.945861
0.938557
0.930243
0.925167
0.919759
0.922182
0.922208
0.947975
0.987874
1.16488
1.62015
2.39103
2.69182
2.65251
2.61911
2.58341
2.59688
2.6037
2.62844
2.66109
2.71995
2.70166
0.980287
0.967208
0.956054
0.946419
0.937993
0.930838
0.924516
0.9203
0.91983
0.926942
0.937884
1.00807
1.12084
1.60048
2.52131
2.7079
2.66572
2.63375
2.59747
2.60966
2.61743
2.64117
2.67629
2.73507
2.72808
0.980807
0.966679
0.956594
0.945864
0.938557
0.930252
0.925162
0.919815
0.922225
0.922692
0.947597
0.98989
1.15971
1.5909
2.36239
2.67208
2.6339
2.60648
2.57772
2.58131
2.59564
2.62716
2.66123
2.72603
2.72882
0.980782
0.966708
0.956568
0.945893
0.938528
0.930284
0.925119
0.919868
0.922053
0.923341
0.946861
0.989132
1.15454
1.55326
2.36001
2.67345
2.63435
2.60553
2.57596
2.57958
2.59292
2.62277
2.65758
2.72031
2.73133
0.980736
0.966752
0.956522
0.945937
0.938484
0.930319
0.925074
0.919765
0.92158
0.92209
0.945749
0.984566
1.14859
1.54215
2.33307
2.65121
2.61523
2.59144
2.56128
2.56244
2.57667
2.60681
2.64421
2.70814
2.7287
0.980341
0.967138
0.95613
0.946333
0.93807
0.930758
0.924553
0.920054
0.919582
0.92599
0.937313
1.00037
1.10458
1.54715
2.42622
2.64993
2.62858
2.59141
2.5584
2.55554
2.57126
2.59206
2.63357
2.68715
2.72003
0.980351
0.96714
0.956117
0.946352
0.938045
0.930764
0.924541
0.919989
0.919569
0.925413
0.937528
0.99624
1.09677
1.51855
2.38459
2.62721
2.61909
2.58737
2.55477
2.55096
2.56635
2.5846
2.62396
2.67318
2.70133
0.98025
0.967248
0.955965
0.946456
0.938005
0.930858
0.92435
0.920329
0.919639
0.92449
0.935644
0.991875
1.08649
1.49505
2.34168
2.59869
2.59603
2.57029
2.5403
2.5376
2.55204
2.56822
2.60273
2.65194
2.66478
0.979013
0.968501
0.954741
0.947757
0.936661
0.932176
0.923162
0.921445
0.918142
0.923533
0.932491
0.987406
1.07198
1.47807
2.30489
2.57752
2.57816
2.5557
2.52932
2.52402
2.5356
2.54638
2.56788
2.60659
2.57322
0.98106
0.966426
0.956853
0.945598
0.938818
0.929951
0.925342
0.918924
0.919393
0.919322
0.937844
0.966103
1.10107
1.38795
2.08538
2.51607
2.54029
2.52274
2.50532
2.5042
2.50954
2.52072
2.52004
2.51369
2.42211
0.979199
0.968339
0.954928
0.947582
0.936853
0.931973
0.923328
0.920948
0.917018
0.921627
0.928976
0.976703
1.0567
1.39401
2.15416
2.47292
2.50512
2.48939
2.47172
2.46645
2.46729
2.46726
2.45938
2.43448
2.33854
0.981036
0.966461
0.956827
0.945625
0.938802
0.929952
0.925295
0.918668
0.918167
0.917861
0.933252
0.956119
1.07309
1.29428
1.93184
2.42934
2.48109
2.47066
2.45954
2.44896
2.44385
2.43479
2.41655
2.38275
2.30051
0.979446
0.968069
0.955196
0.947282
0.937145
0.931639
0.92361
0.920316
0.916134
0.919566
0.926611
0.963635
1.03508
1.29154
1.9474
2.34528
2.43417
2.43675
2.42923
2.41932
2.40963
2.39898
2.37515
2.34269
2.27677
0.979631
0.967895
0.955388
0.947089
0.937351
0.931421
0.923804
0.919923
0.915581
0.918364
0.923697
0.954992
1.00963
1.22088
1.81143
2.27009
2.40942
2.41396
2.40751
2.39408
2.3787
2.36161
2.33757
2.29928
2.24516
0.980509
0.967001
0.956291
0.946172
0.938269
0.930476
0.924715
0.918832
0.915902
0.915403
0.923344
0.937965
1.00222
1.11935
1.5235
2.12059
2.35515
2.36807
2.37142
2.36022
2.34463
2.32807
2.30457
2.27017
2.21975
0.980267
0.967253
0.95604
0.946437
0.938013
0.930738
0.924447
0.918979
0.915148
0.914751
0.920077
0.931678
0.979723
1.06411
1.4104
2.04634
2.3003
2.33184
2.32999
2.31896
2.30275
2.28614
2.26488
2.23338
2.1896
0.980364
0.967161
0.956133
0.94635
0.938098
0.930658
0.92452
0.918901
0.91521
0.914726
0.917663
0.927703
0.962967
1.04317
1.29821
1.92055
2.2539
2.31576
2.31279
2.29873
2.27958
2.26114
2.23956
2.21197
2.17337
0.981057
0.966437
0.956861
0.945591
0.938848
0.929881
0.925262
0.918095
0.915697
0.912905
0.915707
0.923394
0.950798
1.01972
1.20782
1.77417
2.16874
2.28605
2.28961
2.27634
2.25803
2.23355
2.21003
2.18205
2.14886
0.980009
0.967513
0.955764
0.946725
0.937705
0.931067
0.924047
0.919281
0.913994
0.912122
0.911677
0.919846
0.93514
0.995016
1.11343
1.46706
2.01531
2.22919
2.25315
2.25378
2.24052
2.21734
2.19372
2.16571
2.13259
0.980756
0.966745
0.956532
0.94593
0.938486
0.93026
0.924829
0.918446
0.914647
0.91062
0.912467
0.913821
0.930307
0.964044
1.06218
1.36206
1.81279
2.14171
2.19946
2.20964
2.20353
2.18931
2.16832
2.14554
2.11783
0.97959
0.967918
0.955344
0.947133
0.937286
0.931476
0.923627
0.919647
0.913379
0.91154
0.909637
0.912584
0.920395
0.950248
1.01589
1.2134
1.72595
2.07234
2.17337
2.18348
2.17755
2.16251
2.14028
2.11757
2.09394
0.980522
0.966976
0.956301
0.946155
0.938266
0.930467
0.924628
0.918586
0.914361
0.91004
0.908974
0.909183
0.916682
0.935977
0.986977
1.12389
1.47271
1.92778
2.12331
2.14434
2.1483
2.13585
2.11701
2.09508
2.07221
0.980412
0.967088
0.956193
0.946266
0.938161
0.930571
0.92453
0.918664
0.914237
0.909826
0.907637
0.907289
0.912351
0.922928
0.962543
1.02962
1.30752
1.81863
2.0533
2.1142
2.1162
2.11046
2.0931
2.07134
2.04759
0.980167
0.967342
0.955941
0.946543
0.9379
0.930857
0.924269
0.918941
0.91396
0.909992
0.906911
0.906731
0.90897
0.916187
0.942507
0.994894
1.17264
1.62306
1.97051
2.09417
2.1025
2.09774
2.08129
2.05599
2.03137
0.980693
0.966811
0.956483
0.945992
0.938427
0.930307
0.924816
0.918351
0.914508
0.909426
0.907124
0.905322
0.906791
0.912078
0.926247
0.968714
1.06146
1.39885
1.80497
2.03897
2.07569
2.07564
2.06723
2.04785
2.01968
0.980605
0.966882
0.956427
0.946071
0.938305
0.930428
0.924756
0.918348
0.914471
0.909541
0.906499
0.903994
0.905025
0.908078
0.917049
0.94564
1.00799
1.19522
1.5934
1.93741
2.04203
2.05557
2.05273
2.03913
2.01356
0.980428
0.967078
0.956196
0.946271
0.938161
0.930573
0.924524
0.918685
0.914126
0.909697
0.906354
0.903429
0.903213
0.904403
0.910321
0.928407
0.972596
1.08002
1.38368
1.7793
1.97661
2.01363
2.02232
2.0183
2.0033
0.980462
0.967039
0.956239
0.946225
0.938201
0.930534
0.924563
0.918631
0.914195
0.909595
0.906382
0.902963
0.9017
0.901488
0.905909
0.915958
0.947335
1.00972
1.22887
1.65772
1.89629
1.97791
1.98917
1.98799
1.97839
0.98022
0.967285
0.955991
0.946476
0.937951
0.930791
0.924307
0.918888
0.913946
0.909832
0.906122
0.903054
0.900829
0.900704
0.902771
0.909755
0.927018
0.971941
1.08784
1.43012
1.78162
1.94271
1.96954
1.96904
1.96276
0.980553
0.966952
0.956332
0.946134
0.938293
0.930445
0.924648
0.918543
0.91428
0.909496
0.906428
0.902708
0.9009
0.899601
0.900612
0.904662
0.914153
0.945422
1.00768
1.22433
1.56024
1.85632
1.94332
1.95333
1.95161
0.98053
0.966977
0.956306
0.946162
0.938265
0.930478
0.924615
0.918581
0.914237
0.909546
0.906352
0.902745
0.900498
0.898316
0.899028
0.900349
0.907219
0.923668
0.971427
1.0689
1.35364
1.70105
1.88091
1.92004
1.92842
0.980372
0.967134
0.956146
0.946323
0.938104
0.930641
0.924455
0.918743
0.914081
0.9097
0.906203
0.902864
0.900312
0.898036
0.897473
0.897874
0.901662
0.911679
0.93985
0.996732
1.19252
1.56402
1.79008
1.88459
1.89809
0.980331
0.967173
0.956105
0.946361
0.938065
0.930678
0.924419
0.918776
0.91405
0.909726
0.90618
0.902869
0.900267
0.897813
0.896529
0.896396
0.898529
0.904852
0.919723
0.957235
1.05336
1.33965
1.65348
1.83582
1.87515
0.980483
0.967022
0.95626
0.9462
0.938229
0.930512
0.924572
0.918625
0.914203
0.909551
0.906364
0.902686
0.900395
0.897628
0.896298
0.895598
0.896466
0.899815
0.907926
0.931852
0.986258
1.13454
1.44571
1.73605
1.84205
0.980444
0.967062
0.956219
0.946247
0.938178
0.930563
0.92453
0.918664
0.914159
0.909616
0.906282
0.902768
0.90032
0.897642
0.895989
0.894622
0.895038
0.896708
0.900807
0.916508
0.944831
1.0286
1.2245
1.59083
1.76868
0.980337
0.96717
0.956108
0.946361
0.938065
0.93068
0.924415
0.918783
0.914041
0.90974
0.906161
0.902889
0.9002
0.897738
0.895766
0.894174
0.893816
0.894292
0.896918
0.905001
0.923905
0.967992
1.0921
1.39744
1.674
0.98027
0.967236
0.956041
0.946427
0.937998
0.930746
0.924349
0.918849
0.913976
0.909804
0.906098
0.902949
0.900143
0.897775
0.8957
0.894008
0.893013
0.893103
0.89433
0.899747
0.908033
0.942045
0.994436
1.20895
1.4727
0.980406
0.967098
0.956182
0.946283
0.938143
0.930598
0.924495
0.918698
0.914123
0.909651
0.906248
0.902794
0.900293
0.897618
0.895833
0.893775
0.892762
0.892147
0.892658
0.895058
0.899783
0.916619
0.95071
1.03497
1.26158
0.980409
0.967097
0.956185
0.946282
0.938144
0.930598
0.924495
0.9187
0.914122
0.909654
0.906244
0.9028
0.900284
0.897633
0.895798
0.893783
0.892513
0.891358
0.891639
0.892502
0.895337
0.904545
0.924264
0.971038
1.10832
0.980304
0.967204
0.956075
0.946395
0.938031
0.930714
0.924381
0.918817
0.914007
0.909773
0.906128
0.902918
0.900169
0.897748
0.895686
0.893876
0.892362
0.891151
0.8907
0.890961
0.892461
0.897531
0.907539
0.93655
0.997085
0.980246
0.967261
0.956016
0.946453
0.937972
0.930772
0.924323
0.918875
0.913949
0.90983
0.906072
0.902974
0.900116
0.897799
0.895637
0.893911
0.892305
0.891048
0.890109
0.890077
0.890701
0.893575
0.898256
0.916168
0.948246
0.98038
0.967126
0.956153
0.946313
0.938111
0.93063
0.924463
0.918732
0.91409
0.909686
0.906213
0.90283
0.900256
0.897658
0.895773
0.893776
0.892421
0.890902
0.890045
0.889399
0.889665
0.890884
0.893476
0.902982
0.921568
0.980295
0.967213
0.956064
0.946405
0.93802
0.930725
0.92437
0.918828
0.913996
0.909784
0.906118
0.902929
0.900161
0.897756
0.895678
0.893872
0.892323
0.89098
0.889859
0.88905
0.888968
0.889412
0.890823
0.896241
0.905557
0.980294
0.967214
0.956063
0.946406
0.938019
0.930725
0.924369
0.918828
0.913995
0.909784
0.906118
0.90293
0.900159
0.897758
0.895676
0.893876
0.892318
0.890977
0.889833
0.888904
0.888437
0.888547
0.88937
0.892619
0.898108
0.980262
0.967244
0.956033
0.946435
0.937991
0.930752
0.924345
0.91885
0.913975
0.909799
0.906104
0.902939
0.900151
0.897767
0.895671
0.893884
0.892319
0.890977
0.889832
0.888849
0.88821
0.888172
0.888763
0.891284
0.895533
0.980343
0.967171
0.956102
0.946375
0.938041
0.930714
0.924369
0.918838
0.913974
0.909814
0.906077
0.902973
0.900107
0.897805
0.895627
0.893911
0.892281
0.890999
0.889792
0.888857
0.888112
0.88808
0.88854
0.890866
0.895042
0.980372
0.967141
0.956145
0.946328
0.938104
0.930643
0.924455
0.918742
0.914081
0.909692
0.906205
0.90283
0.900251
0.897652
0.895777
0.893758
0.892436
0.890835
0.889967
0.88866
0.888312
0.887775
0.888389
0.88955
0.895693
0.980356
0.967149
0.95613
0.946337
0.938089
0.930653
0.924442
0.918754
0.914069
0.909709
0.90619
0.902854
0.90023
0.897683
0.895743
0.893803
0.892382
0.890906
0.889877
0.888779
0.888175
0.887999
0.888447
0.890178
0.895493
0.980356
0.96715
0.956129
0.946339
0.938087
0.930656
0.924439
0.918757
0.914065
0.909714
0.906186
0.90286
0.900224
0.897693
0.895732
0.893819
0.892358
0.890939
0.889832
0.888834
0.888112
0.888073
0.8885
0.890352
0.895561
1.01385
1.02142
1.02592
1.02937
1.03143
1.03345
1.03458
1.03677
1.04048
1.05381
1.07913
1.14097
1.32846
1.77602
2.68142
2.74757
2.70414
2.64942
2.64793
2.65088
2.64768
2.63545
2.59337
2.55262
2.40043
1.01373
1.02147
1.02585
1.02939
1.03139
1.03344
1.03453
1.03665
1.04018
1.05108
1.07803
1.12954
1.3194
1.71744
2.60099
2.73585
2.6966
2.65696
2.63128
2.62682
2.61559
2.59643
2.55144
2.48724
2.33649
1.01393
1.02134
1.026
1.0293
1.03151
1.03336
1.03456
1.0363
1.03952
1.05085
1.07321
1.12527
1.29461
1.66047
2.51903
2.709
2.66856
2.65642
2.62846
2.60578
2.58932
2.56266
2.50628
2.4451
2.31598
1.01415
1.02107
1.02625
1.029
1.03179
1.03304
1.03482
1.03588
1.03923
1.04738
1.07081
1.11057
1.27384
1.59055
2.38417
2.66576
2.66196
2.64734
2.62405
2.59454
2.55941
2.53546
2.48057
2.42326
2.31488
1.01399
1.02122
1.02611
1.02914
1.03166
1.03315
1.03475
1.0359
1.03952
1.04613
1.06363
1.11539
1.21062
1.56308
2.36217
2.59572
2.63935
2.62527
2.6132
2.58905
2.54366
2.50338
2.45183
2.40602
2.31712
1.01387
1.02138
1.02596
1.02931
1.0315
1.03334
1.0345
1.03595
1.03799
1.04574
1.05984
1.09597
1.20457
1.42461
2.13149
2.55587
2.63203
2.60599
2.58918
2.57466
2.53588
2.4977
2.42704
2.38478
2.31525
1.01369
1.02154
1.0258
1.02946
1.03134
1.03348
1.03435
1.03599
1.03751
1.04415
1.05482
1.08582
1.16748
1.34178
1.86442
2.4551
2.60829
2.59492
2.56567
2.54282
2.51521
2.48618
2.42325
2.36441
2.30765
1.01398
1.02126
1.02608
1.02919
1.03162
1.0332
1.03464
1.03563
1.03761
1.0411
1.05185
1.0767
1.1315
1.28984
1.72931
2.354
2.56648
2.56437
2.54968
2.52825
2.49093
2.46855
2.4205
2.36044
2.30072
1.01406
1.02121
1.02614
1.02916
1.03167
1.03317
1.03465
1.0355
1.03705
1.03981
1.04831
1.06907
1.10963
1.25292
1.54546
2.24665
2.52615
2.5361
2.52141
2.50837
2.47573
2.44418
2.40915
2.35701
2.29863
1.01375
1.02147
1.02586
1.0294
1.0314
1.03339
1.03438
1.03566
1.0365
1.03874
1.04692
1.06046
1.0976
1.20318
1.42034
2.04179
2.44524
2.51816
2.49878
2.49156
2.46921
2.43329
2.40109
2.35474
2.30184
1.01387
1.02138
1.02595
1.02932
1.03147
1.03334
1.03442
1.03564
1.03646
1.03884
1.04293
1.05606
1.08455
1.15246
1.34115
1.86813
2.32764
2.48121
2.47688
2.46044
2.4469
2.41728
2.38385
2.34618
2.30062
1.01381
1.02139
1.02592
1.02932
1.03146
1.03332
1.03442
1.03558
1.03634
1.03804
1.041
1.05124
1.07052
1.12384
1.24764
1.65656
2.17207
2.4227
2.44995
2.44374
2.43199
2.40761
2.37615
2.34006
2.297
1.01407
1.02118
1.02616
1.02912
1.03168
1.03313
1.03463
1.03535
1.03646
1.03725
1.04034
1.04619
1.06066
1.10457
1.18241
1.46791
2.09724
2.34911
2.4069
2.40615
2.39851
2.38603
2.36118
2.33228
2.29446
1.01408
1.02116
1.02617
1.0291
1.0317
1.03311
1.03464
1.03534
1.03638
1.037
1.03868
1.04415
1.05503
1.08087
1.1608
1.31315
1.79623
2.25671
2.38319
2.38306
2.37611
2.36218
2.3443
2.31853
2.28797
1.01386
1.02137
1.02596
1.0293
1.0315
1.0333
1.03445
1.03551
1.03618
1.03702
1.03802
1.04237
1.04892
1.07033
1.11765
1.22568
1.53106
2.11302
2.32176
2.3477
2.347
2.33526
2.32037
2.30416
2.28088
1.01381
1.02144
1.0259
1.02938
1.03142
1.03339
1.03437
1.0356
1.03609
1.03706
1.03775
1.04077
1.04516
1.06134
1.09288
1.16704
1.39445
1.935
2.246
2.32611
2.32327
2.31392
2.29487
2.27455
2.25559
1.01386
1.02139
1.02595
1.02933
1.03146
1.03334
1.03443
1.03553
1.03613
1.03697
1.03753
1.03947
1.04257
1.05409
1.0738
1.13212
1.26139
1.68694
2.09393
2.27133
2.29727
2.29707
2.28477
2.2654
2.24207
1.01397
1.02127
1.02606
1.02921
1.03159
1.03322
1.03454
1.03542
1.03624
1.03679
1.03746
1.03823
1.04147
1.04692
1.06194
1.10237
1.17721
1.44354
1.98858
2.20351
2.25213
2.25827
2.25626
2.24704
2.22927
1.01396
1.02128
1.02605
1.02922
1.03158
1.03323
1.03452
1.03544
1.03622
1.0368
1.03733
1.03789
1.03943
1.04489
1.05353
1.07887
1.14245
1.27583
1.67304
2.09726
2.22931
2.23343
2.23236
2.22144
2.20666
1.014
1.02124
1.0261
1.02917
1.03163
1.03318
1.03457
1.03538
1.03627
1.03673
1.03738
1.03775
1.03868
1.04239
1.04761
1.06567
1.10329
1.18556
1.44061
1.93517
2.16482
2.21139
2.20988
2.20505
2.19079
1.01392
1.02133
1.02601
1.02926
1.03154
1.03327
1.03448
1.03548
1.03618
1.03683
1.03727
1.03779
1.03835
1.04067
1.04403
1.05656
1.07888
1.1382
1.2901
1.70753
2.05087
2.17904
2.18587
2.18522
2.17428
1.01387
1.02137
1.02597
1.02931
1.03149
1.03332
1.03444
1.03552
1.03613
1.03687
1.03722
1.0378
1.03817
1.03946
1.04164
1.04955
1.06254
1.10364
1.18453
1.44974
1.85342
2.1107
2.16474
2.1639
2.15985
1.01388
1.02136
1.02597
1.02929
1.0315
1.0333
1.03445
1.03551
1.03615
1.03685
1.03723
1.03776
1.03804
1.03878
1.04015
1.04551
1.05344
1.07915
1.13383
1.26565
1.61029
1.97409
2.11986
2.14015
2.13999
1.01396
1.02128
1.02605
1.02921
1.03158
1.03322
1.03453
1.03543
1.03623
1.03677
1.03731
1.03766
1.03806
1.03839
1.03926
1.04258
1.04743
1.06319
1.09805
1.17095
1.39587
1.82357
2.04066
2.10965
2.11573
1.01398
1.02127
1.02607
1.02921
1.03159
1.03321
1.03454
1.03542
1.03624
1.03676
1.03732
1.03765
1.03806
1.03833
1.03883
1.04083
1.04371
1.05433
1.07263
1.12408
1.24193
1.59907
1.90393
2.06087
2.08743
1.01393
1.02132
1.02602
1.02925
1.03155
1.03326
1.03449
1.03547
1.03619
1.03681
1.03727
1.03769
1.03801
1.03831
1.0386
1.03939
1.04209
1.04668
1.05915
1.09144
1.15395
1.35692
1.76809
1.97233
2.05263
1.01389
1.02135
1.02599
1.02928
1.03152
1.03329
1.03446
1.03549
1.03616
1.03683
1.03724
1.03772
1.03797
1.03835
1.03853
1.03906
1.04015
1.04385
1.05018
1.06837
1.10876
1.20624
1.43677
1.84561
2.01004
1.01397
1.02127
1.02606
1.0292
1.03159
1.03321
1.03454
1.03541
1.03624
1.03676
1.03732
1.03764
1.03806
1.03825
1.0386
1.03883
1.03966
1.04117
1.04605
1.05552
1.07916
1.13953
1.27221
1.6194
1.90334
1.01397
1.02127
1.02606
1.02921
1.03159
1.03321
1.03454
1.03542
1.03624
1.03676
1.03732
1.03764
1.03805
1.03826
1.03858
1.03874
1.03917
1.04002
1.04319
1.04801
1.06326
1.09558
1.16714
1.37046
1.75907
1.0139
1.02134
1.02599
1.02928
1.03152
1.03329
1.03447
1.03549
1.03616
1.03683
1.03724
1.03772
1.03797
1.03833
1.03849
1.03879
1.03897
1.03966
1.04078
1.04505
1.05175
1.07182
1.11792
1.2158
1.4904
1.0139
1.02134
1.026
1.02927
1.03153
1.03328
1.03447
1.03548
1.03617
1.03682
1.03725
1.03771
1.03798
1.03832
1.0385
1.03877
1.03889
1.03921
1.03988
1.04241
1.04615
1.05769
1.08436
1.13824
1.30921
1.01396
1.02128
1.02605
1.02921
1.03158
1.03322
1.03453
1.03542
1.03623
1.03676
1.03731
1.03765
1.03804
1.03826
1.03856
1.0387
1.03895
1.03908
1.03956
1.04045
1.04344
1.04876
1.06338
1.09721
1.17212
1.01394
1.0213
1.02603
1.02924
1.03156
1.03325
1.03451
1.03545
1.0362
1.03679
1.03728
1.03768
1.03801
1.03829
1.03853
1.03873
1.0389
1.03907
1.03926
1.03998
1.04111
1.0453
1.05196
1.0719
1.11574
1.0139
1.02134
1.026
1.02927
1.03153
1.03327
1.03448
1.03548
1.03617
1.03682
1.03725
1.0377
1.03799
1.03832
1.0385
1.03875
1.03887
1.03908
1.03919
1.03956
1.04018
1.04271
1.04624
1.0579
1.08271
1.01391
1.02132
1.02601
1.02926
1.03154
1.03326
1.03449
1.03547
1.03619
1.03681
1.03727
1.03769
1.038
1.03831
1.03851
1.03874
1.03888
1.03906
1.03915
1.03931
1.03972
1.04115
1.04323
1.05066
1.06276
1.01394
1.0213
1.02604
1.02923
1.03157
1.03324
1.03452
1.03544
1.03621
1.03678
1.03729
1.03767
1.03802
1.03828
1.03854
1.03872
1.03891
1.03903
1.03918
1.03928
1.03953
1.0405
1.04191
1.04714
1.05577
1.01395
1.02129
1.02604
1.02923
1.03157
1.03323
1.03452
1.03544
1.03621
1.03678
1.03729
1.03766
1.03803
1.03827
1.03854
1.03871
1.03891
1.03902
1.03919
1.03927
1.03952
1.04001
1.04156
1.04508
1.05282
1.01392
1.02132
1.02602
1.02925
1.03155
1.03326
1.0345
1.03546
1.03619
1.0368
1.03727
1.03768
1.03801
1.0383
1.03852
1.03873
1.03889
1.03904
1.03916
1.03929
1.03942
1.04007
1.04123
1.04428
1.05346
1.01394
1.0213
1.02604
1.02923
1.03157
1.03324
1.03452
1.03544
1.03621
1.03678
1.03729
1.03766
1.03803
1.03828
1.03854
1.03871
1.03891
1.03902
1.03919
1.03927
1.03948
1.03989
1.04136
1.04443
1.05151
1.01394
1.02129
1.02604
1.02923
1.03157
1.03324
1.03452
1.03544
1.03621
1.03678
1.03729
1.03766
1.03803
1.03828
1.03854
1.03871
1.03891
1.03902
1.03918
1.03926
1.03947
1.03987
1.04133
1.04438
1.05148
1.00588
1.01314
1.02104
1.02847
1.0352
1.04109
1.0464
1.05154
1.05826
1.0747
1.1064
1.17943
1.39225
1.91227
2.76596
2.71128
2.70742
2.67051
2.66636
2.6401
2.61946
2.62166
2.58505
2.51877
2.33675
1.00586
1.01316
1.02102
1.02849
1.03517
1.04111
1.04636
1.05148
1.05793
1.07366
1.10279
1.17244
1.36942
1.85264
2.72911
2.71687
2.69529
2.65926
2.65389
2.62924
2.59619
2.58244
2.53987
2.45895
2.28155
1.00617
1.01285
1.02133
1.02817
1.03551
1.04075
1.04674
1.05085
1.05773
1.06926
1.09968
1.1725
1.31768
1.77645
2.72338
2.71403
2.67254
2.64357
2.63451
2.6124
2.56306
2.5421
2.49564
2.42181
2.28167
1.00546
1.01356
1.02062
1.02887
1.0348
1.04144
1.04602
1.05146
1.05657
1.06773
1.09446
1.16128
1.28709
1.71594
2.67358
2.6996
2.65396
2.64168
2.62361
2.60169
2.54774
2.50865
2.46313
2.40146
2.28421
1.00622
1.0128
1.02137
1.02814
1.03552
1.04075
1.04663
1.05089
1.05674
1.06641
1.09113
1.13377
1.29457
1.59376
2.48152
2.67392
2.66282
2.63244
2.60597
2.5839
2.52878
2.48417
2.43212
2.38686
2.2914
1.00561
1.01341
1.02077
1.02874
1.03492
1.04134
1.04603
1.0514
1.05614
1.06695
1.08455
1.1311
1.25279
1.51878
2.3256
2.62485
2.66393
2.63503
2.59561
2.57423
2.52395
2.46639
2.41028
2.36768
2.29757
1.00549
1.01352
1.02066
1.02885
1.03481
1.04145
1.04591
1.05141
1.05555
1.06477
1.07928
1.11849
1.21507
1.42561
2.10586
2.55721
2.64855
2.62703
2.57704
2.55325
2.51458
2.46086
2.39188
2.35281
2.29555
1.00545
1.01357
1.02061
1.0289
1.03476
1.04149
1.04585
1.05138
1.055
1.06252
1.07447
1.10607
1.18133
1.3437
1.81429
2.49996
2.62044
2.60714
2.56932
2.54084
2.50178
2.45623
2.38577
2.33306
2.28965
1.00576
1.01327
1.02091
1.0286
1.03506
1.0412
1.04612
1.05103
1.05488
1.06052
1.07052
1.09625
1.15858
1.28058
1.67807
2.50086
2.57547
2.56674
2.55259
2.52276
2.49163
2.45392
2.38732
2.32659
2.27795
1.00576
1.01326
1.02092
1.02857
1.03509
1.04114
1.04619
1.05086
1.05497
1.05983
1.06986
1.08849
1.133
1.26037
1.52437
2.32397
2.54416
2.5587
2.54008
2.51079
2.4731
2.44599
2.39048
2.32804
2.27456
1.00592
1.01309
1.02108
1.02841
1.03525
1.04099
1.04633
1.05069
1.055
1.059
1.06656
1.08211
1.11467
1.21481
1.40482
2.01116
2.47006
2.5479
2.5245
2.5041
2.46482
2.43825
2.39452
2.33235
2.27618
1.00571
1.0133
1.02087
1.02862
1.03504
1.0412
1.0461
1.05092
1.05461
1.0588
1.06391
1.07793
1.10169
1.16694
1.31635
1.78936
2.34489
2.51344
2.50532
2.48815
2.4485
2.42166
2.39095
2.34216
2.28181
1.00618
1.01283
1.02134
1.02817
1.03548
1.04076
1.04654
1.05046
1.05497
1.0581
1.06291
1.07176
1.09313
1.13348
1.26799
1.55442
2.21474
2.46598
2.49011
2.47764
2.44645
2.40835
2.38186
2.34343
2.29304
1.00513
1.0139
1.02028
1.02923
1.03443
1.0418
1.04551
1.05146
1.05395
1.05881
1.06126
1.06855
1.08357
1.12211
1.19461
1.43151
2.06192