/*--------------------------------*- C++ -*----------------------------------*\
  =========                 |
  \\      /  F ield         | OpenFOAM: The Open Source CFD Toolbox
   \\    /   O peration     | Website:  https://openfoam.org
    \\  /    A nd           | Version:  6
     \\/     M anipulation  |
\*---------------------------------------------------------------------------*/
FoamFile
{
    version     2.0;
    format      ascii;
    class       volVectorField;
    location    "3.5";
    object      U;
}
// * * * * * * * * * * * * * * * * * * * * * * * * * * * * * * * * * * * * * //

dimensions      [0 1 -1 0 0 0 0];

internalField   nonuniform List<vector> 
26250
(
(3.01561 8.69161e-08 -0.0579687)
(3.02577 4.9657e-07 -0.0597704)
(3.03428 2.39451e-07 -0.0611255)
(3.04139 1.08686e-06 -0.0622748)
(3.04763 -4.35575e-08 -0.0631542)
(3.0527 1.40069e-06 -0.0640235)
(3.05729 -4.72623e-07 -0.0645775)
(3.05998 4.00274e-06 -0.0654404)
(3.05861 9.59107e-06 -0.0660065)
(3.05614 3.65802e-05 -0.0676063)
(3.03693 7.06578e-05 -0.0701465)
(3.00132 0.000230328 -0.0782315)
(2.86007 0.000507279 -0.0931953)
(2.46014 0.00164005 -0.139032)
(1.48286 0.0042813 -0.237217)
(0.664596 0.012722 -0.277699)
(0.766099 0.0159546 -0.259315)
(0.905697 0.0163409 -0.250809)
(0.984022 0.0191917 -0.254641)
(0.966337 0.0252365 -0.260038)
(0.949367 0.0257912 -0.26107)
(0.894801 0.021428 -0.263759)
(0.761051 0.0140311 -0.267649)
(0.50807 0.0111006 -0.269288)
(0.28348 0.000485381 -0.263305)
(3.01561 1.31291e-06 -0.057969)
(3.02577 1.41024e-06 -0.05977)
(3.03428 1.01973e-06 -0.0611258)
(3.04139 2.74131e-06 -0.0622744)
(3.04763 -1.15958e-06 -0.0631545)
(3.0527 4.59861e-06 -0.0640231)
(3.0573 -3.55977e-06 -0.0645775)
(3.05999 1.68442e-05 -0.0654399)
(3.05864 4.11175e-05 -0.0660048)
(3.05619 0.000132043 -0.067601)
(3.03708 0.000253568 -0.0701299)
(3.00169 0.000701242 -0.0781968)
(2.86113 0.00149773 -0.0931046)
(2.46359 0.00419722 -0.13878)
(1.49496 0.0108142 -0.236751)
(0.693231 0.0249533 -0.276147)
(0.788826 0.0340865 -0.257779)
(0.92383 0.0406568 -0.248356)
(1.00285 0.0475584 -0.252346)
(1.00368 0.0543185 -0.255774)
(0.97436 0.0563551 -0.258343)
(0.915759 0.0507403 -0.261427)
(0.793038 0.0393558 -0.26391)
(0.561008 0.03566 -0.26609)
(0.358094 0.0255052 -0.260232)
(3.01561 8.26436e-06 -0.0579696)
(3.02577 -8.58633e-07 -0.0597692)
(3.03428 4.41898e-06 -0.0611265)
(3.04139 -2.27902e-06 -0.0622737)
(3.04763 -9.93013e-07 -0.063155)
(3.0527 2.11341e-06 -0.0640229)
(3.0573 -7.00471e-06 -0.0645768)
(3.06002 6.25337e-05 -0.0654385)
(3.05871 0.000160001 -0.0660013)
(3.05631 0.000445863 -0.0675886)
(3.03738 0.000812625 -0.0700992)
(3.00237 0.0018446 -0.0781138)
(2.86266 0.00355174 -0.0928913)
(2.46779 0.00809365 -0.138437)
(1.50101 0.0182649 -0.236143)
(0.672364 0.0448833 -0.276676)
(0.773085 0.0606856 -0.257978)
(0.912748 0.0698832 -0.248342)
(0.991747 0.0755063 -0.252268)
(0.992864 0.0787776 -0.255557)
(0.958687 0.0830215 -0.258382)
(0.891989 0.0844452 -0.26096)
(0.769949 0.0803513 -0.262982)
(0.537665 0.0778459 -0.264997)
(0.326963 0.071366 -0.259149)
(3.01561 2.11419e-05 -0.0579765)
(3.02576 -8.70425e-06 -0.0597615)
(3.03428 1.41372e-05 -0.0611345)
(3.04139 -2.05039e-05 -0.0622647)
(3.04763 1.88404e-05 -0.0631635)
(3.0527 -4.2988e-05 -0.0640137)
(3.05734 5.10227e-05 -0.064581)
(3.06013 -0.00011234 -0.0654298)
(3.05896 8.33037e-05 -0.0659893)
(3.05673 0.00136226 -0.0675779)
(3.03821 -0.00237853 -0.0699515)
(3.00415 0.0104296 -0.0779811)
(2.86549 -0.00960888 -0.0923209)
(2.48216 0.0417383 -0.137641)
(1.52124 0.0307126 -0.235199)
(0.721657 0.0811099 -0.274396)
(0.808225 0.101913 -0.255752)
(0.934159 0.110885 -0.245753)
(1.0067 0.115221 -0.250308)
(0.994549 0.120624 -0.254732)
(0.963142 0.126158 -0.256674)
(0.896032 0.13129 -0.259167)
(0.76804 0.133516 -0.260694)
(0.529585 0.131434 -0.26228)
(0.310664 0.120789 -0.257775)
(3.01561 7.64685e-06 -0.0579979)
(3.02576 -3.18099e-06 -0.0597377)
(3.03427 6.17094e-06 -0.0611588)
(3.04139 -9.14857e-06 -0.0622375)
(3.04761 7.14933e-06 -0.063193)
(3.05273 -1.66983e-05 -0.0639774)
(3.05725 8.6386e-06 -0.0646279)
(3.06004 -3.02023e-05 -0.0653585)
(3.05993 -8.74996e-05 -0.066091)
(3.05424 0.000331682 -0.0675271)
(3.04441 0.000872128 -0.0694146)
(2.99653 0.00255051 -0.0784125)
(2.87846 0.00569396 -0.090501)
(2.52242 0.0142235 -0.140745)
(1.54522 0.0364486 -0.225463)
(0.769784 0.0894201 -0.270446)
(0.842103 0.119504 -0.252468)
(0.958533 0.133957 -0.241961)
(1.02581 0.145664 -0.246261)
(1.0192 0.158218 -0.250022)
(0.985214 0.16974 -0.252298)
(0.917437 0.179024 -0.254872)
(0.785219 0.186048 -0.256213)
(0.540629 0.188505 -0.257436)
(0.314588 0.176244 -0.253706)
(3.01561 -1.24236e-06 -0.0579806)
(3.02576 -2.08983e-06 -0.0597567)
(3.03427 2.16763e-07 -0.0611392)
(3.04139 -4.97801e-06 -0.0622594)
(3.04763 5.6983e-06 -0.0631696)
(3.0527 -1.15204e-05 -0.0640055)
(3.05733 2.5235e-05 -0.0645907)
(3.06005 -1.04222e-05 -0.0654117)
(3.05925 0.000195029 -0.0659611)
(3.05752 0.000447901 -0.067537)
(3.04 0.00108778 -0.0696971)
(3.00815 0.00218892 -0.0775564)
(2.87388 0.00587566 -0.0909889)
(2.51338 0.0157342 -0.135162)
(1.58716 0.0441637 -0.229977)
(0.802062 0.11087 -0.270762)
(0.862254 0.147697 -0.251832)
(0.970725 0.165502 -0.240016)
(1.03874 0.181351 -0.244131)
(1.0335 0.198666 -0.247565)
(0.998374 0.215148 -0.249523)
(0.931165 0.228588 -0.251352)
(0.799153 0.240885 -0.251928)
(0.550335 0.251356 -0.25244)
(0.318331 0.242884 -0.248622)
(3.01561 -1.12681e-05 -0.0579944)
(3.02576 -3.57853e-07 -0.0597411)
(3.03427 -8.42578e-06 -0.0611554)
(3.0414 6.5733e-06 -0.0622412)
(3.04761 -6.01331e-06 -0.0631899)
(3.05274 1.64976e-05 -0.063979)
(3.05725 -2.61963e-06 -0.0646271)
(3.06018 4.96791e-05 -0.0653444)
(3.0603 0.000133641 -0.0660684)
(3.05498 0.000282702 -0.0674395)
(3.04584 0.000497265 -0.0692531)
(3.00055 0.00199655 -0.0778106)
(2.88968 0.00550411 -0.0892433)
(2.55363 0.0168457 -0.136292)
(1.63139 0.0555869 -0.218833)
(0.872499 0.135359 -0.265774)
(0.90254 0.180422 -0.249577)
(0.997658 0.199721 -0.236761)
(1.0601 0.217924 -0.240704)
(1.05561 0.238005 -0.243875)
(1.01809 0.25914 -0.245929)
(0.95041 0.278244 -0.247206)
(0.81926 0.298895 -0.247097)
(0.566155 0.322338 -0.246863)
(0.326014 0.327469 -0.242636)
(3.01561 -4.00392e-05 -0.0579751)
(3.02576 1.41601e-05 -0.0597598)
(3.03428 -2.02064e-05 -0.0611349)
(3.04139 3.07767e-05 -0.0622652)
(3.04764 -1.86046e-05 -0.0631636)
(3.0527 5.73011e-05 -0.064013)
(3.05736 -6.06675e-05 -0.0645806)
(3.06016 0.000123606 -0.0654133)
(3.05944 -0.000303091 -0.0659572)
(3.05782 -0.000961202 -0.067414)
(3.04144 0.00336145 -0.0695057)
(3.0122 -0.00544005 -0.0769815)
(2.88683 0.020079 -0.0891538)
(2.55148 -0.00634917 -0.132153)
(1.69844 0.064067 -0.222634)
(0.914921 0.154829 -0.265944)
(0.924408 0.206989 -0.248752)
(1.0096 0.230576 -0.234253)
(1.07461 0.251919 -0.237825)
(1.07201 0.275809 -0.240731)
(1.03633 0.301872 -0.242354)
(0.971957 0.328047 -0.242867)
(0.846036 0.360511 -0.241806)
(0.592728 0.40424 -0.240507)
(0.344522 0.440449 -0.234936)
(3.01562 -2.90514e-05 -0.0579398)
(3.02578 7.87722e-06 -0.0598022)
(3.03428 -3.65578e-06 -0.0610938)
(3.0414 2.70623e-07 -0.0623081)
(3.04763 2.47775e-05 -0.0631208)
(3.05271 -2.87114e-05 -0.0640568)
(3.0573 8.89685e-05 -0.0645405)
(3.05999 -0.000129766 -0.065459)
(3.05941 0.000193422 -0.0658852)
(3.05805 0.000715859 -0.0673463)
(3.04245 0.00139889 -0.0694424)
(3.01439 0.00418053 -0.0766172)
(2.89668 0.00925532 -0.0882272)
(2.57386 0.0274024 -0.129986)
(1.78261 0.072811 -0.216671)
(0.98978 0.189071 -0.262546)
(0.969861 0.239717 -0.246127)
(1.03976 0.269053 -0.231534)
(1.0985 0.289448 -0.234732)
(1.09488 0.315061 -0.237277)
(1.0617 0.344361 -0.238242)
(1.00284 0.377911 -0.237843)
(0.888081 0.425506 -0.235604)
(0.644939 0.499743 -0.232884)
(0.388764 0.599881 -0.224506)
(3.01562 4.58735e-05 -0.0579134)
(3.02579 -2.60555e-05 -0.0598306)
(3.03427 3.12135e-05 -0.061066)
(3.04142 -5.40284e-05 -0.0623357)
(3.04761 4.83466e-05 -0.0630958)
(3.05276 -9.91549e-05 -0.0640773)
(3.05728 0.000135768 -0.0645225)
(3.06025 -0.000132629 -0.0654487)
(3.06015 0.00075238 -0.0658912)
(3.05881 0.0020002 -0.0672893)
(3.04423 -0.000372843 -0.0691288)
(3.01883 0.0118535 -0.0761837)
(2.90504 -0.00278474 -0.0867513)
(2.60618 0.0602149 -0.127904)
(1.83962 0.0780607 -0.212091)
(1.06475 0.223215 -0.259298)
(1.02227 0.274969 -0.242336)
(1.07858 0.308029 -0.22842)
(1.12989 0.326295 -0.231181)
(1.12659 0.353079 -0.233607)
(1.09829 0.384876 -0.233827)
(1.04897 0.426742 -0.232446)
(0.955654 0.494991 -0.228444)
(0.749578 0.617269 -0.222147)
(0.4847 0.858799 -0.208108)
(2.98855 -2.2596e-07 -0.0014325)
(2.98291 5.09527e-07 -0.00328759)
(2.97953 9.15535e-08 -0.00492941)
(2.97738 1.15401e-06 -0.00644609)
(2.97597 1.42435e-07 -0.00768094)
(2.975 1.36666e-06 -0.0088985)
(2.97415 3.61841e-07 -0.00973707)
(2.97267 1.98225e-06 -0.010815)
(2.9677 8.77875e-06 -0.0112734)
(2.95812 2.81917e-05 -0.0121391)
(2.92675 7.77192e-05 -0.0136234)
(2.85811 0.000200009 -0.0164986)
(2.65879 0.00052634 -0.0231612)
(2.03025 0.00151614 -0.0358758)
(0.578336 0.00430379 -0.0642259)
(-0.423348 0.0197903 -0.0645116)
(0.0448529 0.0256405 -0.0607901)
(0.428155 0.032977 -0.0583722)
(0.498378 0.0455866 -0.0609092)
(0.393182 0.0683365 -0.0611631)
(0.375234 0.0692786 -0.0630918)
(0.279356 0.0572332 -0.0635042)
(0.0827466 0.0492226 -0.0637992)
(0.00343028 0.0400286 -0.0607807)
(0.150154 0.0117684 -0.0547623)
(2.98855 5.33206e-07 -0.00143242)
(2.98291 1.36839e-06 -0.00328771)
(2.97953 1.0325e-06 -0.00492931)
(2.97738 2.62018e-06 -0.00644627)
(2.97597 6.65486e-07 -0.00768085)
(2.975 3.08677e-06 -0.00889844)
(2.97415 1.02379e-06 -0.00973733)
(2.97268 8.26343e-06 -0.0108141)
(2.96772 3.16013e-05 -0.0112753)
(2.95818 0.000106387 -0.0121309)
(2.92689 0.000245653 -0.0136492)
(2.85849 0.000728421 -0.0164582)
(2.65975 0.00166195 -0.0232474)
(2.03363 0.00491813 -0.0358293)
(0.593304 0.0132579 -0.0644263)
(-0.36359 0.0329027 -0.0647771)
(0.0688463 0.054677 -0.0602964)
(0.444744 0.0749316 -0.0577394)
(0.52169 0.0936305 -0.0603899)
(0.458314 0.123579 -0.0618629)
(0.395471 0.121149 -0.0624225)
(0.287576 0.111866 -0.0620209)
(0.11167 0.106863 -0.0622034)
(0.0101091 0.107089 -0.0600445)
(0.206837 0.0629866 -0.0540409)
(2.98855 4.21388e-06 -0.0014326)
(2.98291 1.39397e-06 -0.00328768)
(2.97953 3.50589e-06 -0.00492925)
(2.97738 1.3905e-06 -0.00644643)
(2.97597 1.17671e-06 -0.00768032)
(2.975 2.18128e-06 -0.0088994)
(2.97416 5.5372e-07 -0.0097357)
(2.97269 1.78331e-05 -0.0108175)
(2.96778 6.68852e-05 -0.0112734)
(2.9583 0.000222369 -0.0121428)
(2.92725 0.000454401 -0.0136177)
(2.85931 0.00144004 -0.0164999)
(2.66195 0.00298049 -0.0231397)
(2.03993 0.00894739 -0.0357634)
(0.598498 0.0233066 -0.0642616)
(-0.412435 0.0608459 -0.0639351)
(0.0626527 0.0960561 -0.0601258)
(0.444629 0.123249 -0.0574492)
(0.520431 0.138443 -0.0602084)
(0.465151 0.146491 -0.0619816)
(0.394982 0.162035 -0.0620256)
(0.288709 0.174356 -0.0608925)
(0.123103 0.182364 -0.0604768)
(0.00728822 0.187499 -0.0585707)
(0.18546 0.133818 -0.052727)
(2.98855 1.05748e-05 -0.00143383)
(2.98291 -4.02713e-07 -0.00328607)
(2.97953 8.61043e-06 -0.00493025)
(2.97738 -4.10011e-06 -0.00644509)
(2.97597 6.78909e-06 -0.00768125)
(2.975 -6.30084e-06 -0.00889884)
(2.97417 1.01446e-05 -0.00973572)
(2.97273 3.80111e-05 -0.0108239)
(2.96788 0.00020878 -0.011283)
(2.95849 0.00027843 -0.0121556)
(2.92785 0.00171333 -0.0136611)
(2.86055 0.00173491 -0.016486)
(2.66539 0.00685226 -0.0232207)
(2.04952 0.0147239 -0.0356227)
(0.627903 0.0329856 -0.0642275)
(-0.339093 0.0989987 -0.0645474)
(0.0895284 0.141327 -0.0596725)
(0.453466 0.172691 -0.0565748)
(0.510948 0.191831 -0.0594722)
(0.417972 0.212242 -0.0606432)
(0.374539 0.22992 -0.061455)
(0.278204 0.250153 -0.0600095)
(0.12683 0.2671 -0.0589891)
(0.00536154 0.271517 -0.056782)
(0.165367 0.208391 -0.0510161)
(2.98855 4.89439e-06 -0.00143645)
(2.98291 -5.57226e-07 -0.00328229)
(2.97953 3.78882e-06 -0.00493331)
(2.97738 -2.58305e-06 -0.00644051)
(2.97597 1.65352e-06 -0.00768737)
(2.975 -1.74076e-06 -0.00888847)
(2.97419 7.46845e-07 -0.00975157)
(2.97287 3.11152e-05 -0.010788)
(2.96798 0.000108364 -0.0112979)
(2.9595 0.000388231 -0.0122854)
(2.9287 0.000825299 -0.0131171)
(2.86282 0.00277628 -0.0178247)
(2.67142 0.00616115 -0.0206012)
(2.05837 0.0190337 -0.039201)
(0.627653 0.0527365 -0.0625213)
(-0.308308 0.125252 -0.064863)
(0.109013 0.180162 -0.0593522)
(0.464049 0.219353 -0.0558294)
(0.516173 0.249583 -0.0586308)
(0.442197 0.27886 -0.0603972)
(0.378777 0.300856 -0.0605642)
(0.283334 0.325967 -0.0589573)
(0.141033 0.350288 -0.05741)
(0.0110561 0.356168 -0.0546894)
(0.153267 0.28693 -0.0489316)
(2.98855 1.97989e-07 -0.00143534)
(2.98291 -1.85214e-06 -0.00328403)
(2.97953 -3.35224e-08 -0.00493203)
(2.97737 -3.61178e-06 -0.00644232)
(2.97597 1.73639e-06 -0.00768418)
(2.975 -4.18883e-06 -0.00889461)
(2.97419 8.47138e-06 -0.00973908)
(2.97282 1.38071e-05 -0.0108159)
(2.96819 8.69098e-05 -0.0112621)
(2.95909 0.000425135 -0.0121682)
(2.92977 0.00100968 -0.0136523)
(2.86507 0.00320277 -0.0164192)
(2.67794 0.00815028 -0.02303)
(2.08829 0.0232576 -0.0346827)
(0.712758 0.0688008 -0.0633425)
(-0.259514 0.160645 -0.0640236)
(0.134108 0.22275 -0.0588986)
(0.477863 0.266841 -0.0548906)
(0.52377 0.305612 -0.0577574)
(0.448557 0.347726 -0.0595851)
(0.384571 0.373198 -0.0595918)
(0.295292 0.402202 -0.0577493)
(0.164456 0.433264 -0.0557027)
(0.0261799 0.444748 -0.0524283)
(0.143638 0.377877 -0.0464253)
(2.98855 -6.59904e-06 -0.00143674)
(2.98291 -1.81074e-06 -0.00328167)
(2.97953 -5.88736e-06 -0.0049341)
(2.97738 2.60907e-07 -0.00643912)
(2.97597 -2.35971e-06 -0.0076893)
(2.97501 3.98018e-06 -0.00888534)
(2.97421 6.64675e-06 -0.00975644)
(2.97293 2.53908e-05 -0.0107798)
(2.96831 0.000122544 -0.0113106)
(2.96027 0.00047451 -0.0122616)
(2.93093 0.00135851 -0.0130781)
(2.86901 0.00349109 -0.0176073)
(2.68716 0.0107652 -0.0202337)
(2.10998 0.0260987 -0.0375825)
(0.750584 0.0866931 -0.0611912)
(-0.184756 0.194997 -0.0646278)
(0.170058 0.265426 -0.0585324)
(0.494234 0.313452 -0.0540971)
(0.536347 0.358901 -0.0568448)
(0.465905 0.408485 -0.0587296)
(0.397736 0.443262 -0.0585178)
(0.315778 0.479193 -0.0563641)
(0.198397 0.518754 -0.053744)
(0.0532134 0.541167 -0.0498554)
(0.138996 0.487702 -0.0434088)
(2.98855 -1.89115e-05 -0.00143412)
(2.98291 6.52419e-07 -0.00328519)
(2.97953 -1.33564e-05 -0.00493114)
(2.97738 8.418e-06 -0.00644424)
(2.97598 -7.90835e-06 -0.007682)
(2.97501 1.66508e-05 -0.00889824)
(2.97421 -3.29731e-06 -0.00973441)
(2.97292 2.38071e-05 -0.0108212)
(2.96856 3.60593e-05 -0.0112498)
(2.96013 0.000563321 -0.0121119)
(2.93225 0.000573608 -0.0135514)
(2.87327 0.00430823 -0.0161097)
(2.69582 0.0104738 -0.0225522)
(2.15083 0.0278605 -0.032874)
(0.867673 0.101449 -0.0619533)
(-0.105621 0.228919 -0.0640312)
(0.210395 0.306578 -0.0578317)
(0.513469 0.358949 -0.0529517)
(0.552125 0.409541 -0.055741)
(0.486077 0.464681 -0.0574624)
(0.419653 0.511231 -0.0571472)
(0.345897 0.556896 -0.0549518)
(0.244194 0.6083 -0.0517343)
(0.096524 0.649122 -0.0471538)
(0.144031 0.625468 -0.0400374)
(2.98855 -9.86124e-06 -0.00142981)
(2.98292 4.70705e-07 -0.00329073)
(2.97954 -6.00198e-06 -0.00492857)
(2.97738 2.11498e-06 -0.00644711)
(2.97598 1.77945e-07 -0.00768088)
(2.97501 1.23066e-06 -0.00889768)
(2.97422 1.47882e-05 -0.00973546)
(2.97296 2.57569e-05 -0.0108046)
(2.96879 0.000173746 -0.0112228)
(2.96079 0.000676395 -0.0120606)
(2.93378 0.00198616 -0.0135224)
(2.87843 0.00491469 -0.015892)
(2.70597 0.0141333 -0.0222968)
(2.18775 0.0335282 -0.0321634)
(0.969527 0.106836 -0.0613845)
(-0.00358345 0.26318 -0.0641022)
(0.260927 0.350176 -0.0570267)
(0.53523 0.406111 -0.0519563)
(0.570343 0.458915 -0.0546646)
(0.510849 0.518142 -0.0561426)
(0.45021 0.576351 -0.0555566)
(0.387335 0.632952 -0.0532034)
(0.305635 0.700747 -0.0496137)
(0.165624 0.772872 -0.0441698)
(0.166722 0.806025 -0.0360197)
(2.98855 2.3183e-05 -0.0014287)
(2.98292 2.52032e-06 -0.00329102)
(2.97954 9.15517e-06 -0.00493053)
(2.97738 3.34352e-06 -0.00644232)
(2.97598 -9.24069e-06 -0.00768945)
(2.97502 1.98508e-05 -0.00888414)
(2.97423 -3.97771e-05 -0.00975701)
(2.97306 0.000136863 -0.0107759)
(2.9691 4.18e-05 -0.0112608)
(2.96164 0.00176506 -0.0121037)
(2.93571 -0.000308897 -0.0134044)
(2.8838 0.0128524 -0.0159722)
(2.71757 0.00212305 -0.0217461)
(2.23127 0.0585603 -0.0315742)
(1.07005 0.104505 -0.0605326)
(0.107281 0.293963 -0.0643604)
(0.318237 0.396464 -0.0559294)
(0.559063 0.452973 -0.0507413)
(0.590809 0.505594 -0.0531894)
(0.540823 0.568219 -0.0547213)
(0.488696 0.635351 -0.0540094)
(0.441104 0.705169 -0.0513842)
(0.38898 0.794725 -0.0472403)
(0.276987 0.912566 -0.0413787)
(0.221793 1.08798 -0.0323119)
(2.9951 5.01103e-07 1.02661e-06)
(2.98906 3.11679e-07 -5.27615e-07)
(2.98253 5.54172e-07 6.91701e-07)
(2.97637 5.21422e-07 -3.69569e-07)
(2.97073 -1.66411e-07 2.18916e-07)
(2.96583 1.5997e-06 6.28981e-08)
(2.96115 -1.4752e-06 -9.25729e-08)
(2.95661 6.6594e-06 1.23859e-06)
(2.94917 2.2237e-06 3.97593e-06)
(2.93613 6.93812e-05 7.85135e-06)
(2.89824 -3.17678e-05 1.28299e-05)
(2.81676 0.000354297 2.27947e-05)
(2.58941 9.93675e-05 7.66607e-06)
(1.85671 0.000930352 -1.39504e-05)
(0.196938 0.0021821 -0.000160246)
(-0.899424 0.0152991 0.000218485)
(-0.120145 0.0268023 -3.50471e-05)
(0.307223 0.037578 0.000128768)
(0.38992 0.0420134 0.000470845)
(0.291462 0.040968 0.00115531)
(-0.147504 0.0639205 9.56759e-05)
(-0.108945 0.0691259 -0.000282278)
(-0.144423 0.0698268 -0.000313754)
(-0.0925851 0.0708623 -0.000228179)
(0.0882966 0.0592897 -0.000497433)
(2.9951 7.89179e-07 2.42132e-06)
(2.98906 5.00393e-07 -2.36278e-06)
(2.98253 9.43429e-07 2.27424e-06)
(2.97637 9.77885e-07 -2.67298e-06)
(2.97073 4.20508e-07 2.6326e-06)
(2.96583 1.13915e-06 -2.83335e-06)
(2.96116 6.83658e-07 3.26881e-06)
(2.95661 4.97723e-06 3.99398e-06)
(2.94922 2.59261e-05 2.55615e-05)
(2.9361 8.57011e-05 -1.87878e-05)
(2.89844 0.000225859 0.000204383)
(2.81691 0.000612665 -0.000174116)
(2.59 0.00147014 0.00034511)
(1.85729 0.00421295 -0.000171732)
(0.20492 0.0125304 -0.000826995)
(-0.886593 0.041167 -0.000500019)
(-0.103657 0.0720323 0.000210817)
(0.317039 0.0960569 0.000120297)
(0.385007 0.102036 -0.000172607)
(0.262397 0.0955416 -0.000779239)
(-0.184112 0.12629 0.000134001)
(-0.129164 0.144586 0.000372308)
(-0.163531 0.153429 8.05057e-05)
(-0.109598 0.159642 -0.000135731)
(0.0895171 0.14 -0.000253228)
(2.9951 1.21828e-06 1.71508e-06)
(2.98906 7.05054e-07 -1.56738e-06)
(2.98253 1.25648e-06 1.59936e-06)
(2.97637 1.06045e-06 -1.80496e-06)
(2.97073 2.09816e-07 1.47171e-06)
(2.96583 8.36068e-07 -1.38665e-06)
(2.96116 1.00577e-06 7.46588e-07)
(2.95663 7.21878e-06 1.58074e-06)
(2.94924 4.34677e-05 3.48699e-06)
(2.9363 0.000158078 7.96485e-06)
(2.89867 0.000414671 5.61992e-06)
(2.81784 0.00117385 2.85593e-05)
(2.59215 0.0028268 -3.05848e-05)
(1.86588 0.00826002 -6.6132e-05)
(0.222152 0.0243572 -0.000347203)
(-0.863572 0.0635605 0.000264107)
(-0.0886239 0.114763 1.53792e-05)
(0.325666 0.154478 -6.33131e-05)
(0.373884 0.169934 -0.000394418)
(0.253159 0.16649 -0.000884256)
(-0.18674 0.206467 0.000132135)
(-0.121724 0.230747 0.000474452)
(-0.163292 0.247012 0.000308096)
(-0.116887 0.257999 7.67578e-06)
(0.077776 0.231455 7.3435e-05)
(2.9951 1.71719e-06 2.32925e-06)
(2.98906 7.43956e-07 -2.50011e-06)
(2.98253 1.37855e-06 2.48368e-06)
(2.97637 6.34839e-07 -3.0865e-06)
(2.97073 -1.17725e-06 3.09435e-06)
(2.96583 2.31096e-06 -3.53443e-06)
(2.96116 -2.11743e-06 3.5325e-06)
(2.95665 2.0473e-05 2.40051e-06)
(2.94935 5.34138e-05 2.02688e-05)
(2.93642 0.000337386 -2.66089e-05)
(2.89927 0.000441109 0.000190771)
(2.81901 0.00222361 -0.000217917)
(2.59542 0.00386348 0.000337216)
(1.87558 0.0128554 -0.00024987)
(0.244938 0.0372948 -0.000801654)
(-0.834045 0.0999589 0.000114639)
(-0.0708556 0.163284 6.47345e-05)
(0.336846 0.212349 8.93508e-06)
(0.36641 0.237622 -1.46012e-06)
(0.256128 0.239925 0.000319075)
(-0.174432 0.291329 8.67587e-05)
(-0.103377 0.317079 0.000180409)
(-0.152012 0.340126 0.000239003)
(-0.11749 0.354021 9.34758e-05)
(0.0686323 0.321834 0.000191589)
(2.9951 1.36917e-07 1.23639e-06)
(2.98906 4.37574e-08 -1.33946e-06)
(2.98253 -2.2524e-07 1.37119e-06)
(2.97637 -2.71245e-07 -1.67866e-06)
(2.97073 -1.00157e-06 1.5441e-06)
(2.96583 4.6142e-07 -1.58717e-06)
(2.96117 2.34764e-06 8.4127e-07)
(2.95667 1.81032e-05 -3.89384e-07)
(2.9495 9.20522e-05 -3.1689e-06)
(2.93663 0.000370053 -2.349e-06)
(2.90015 0.000883212 -1.75179e-05)
(2.82093 0.00276572 -2.4508e-05)
(2.60078 0.00651335 -6.85658e-05)
(1.89278 0.0199354 -0.000140124)
(0.289284 0.0589586 -0.00036551)
(-0.78058 0.143321 -0.000251608)
(-0.0424752 0.214864 0.000117529)
(0.349409 0.269712 8.74602e-05)
(0.361578 0.303967 -9.08122e-06)
(0.258948 0.317083 -0.000107703)
(-0.131936 0.371907 -8.06231e-06)
(-0.0802906 0.401815 2.24738e-05)
(-0.132582 0.431709 0.00015093)
(-0.112974 0.449058 0.000143945)
(0.062302 0.413612 0.000243177)
(2.9951 -2.61184e-06 1.06853e-06)
(2.98906 -2.82659e-07 -1.22423e-06)
(2.98253 -2.49832e-06 1.37636e-06)
(2.97637 -4.13762e-07 -1.72329e-06)
(2.97073 -5.24642e-07 2.34738e-06)
(2.96583 -7.51843e-08 -3.06979e-06)
(2.96118 6.97077e-06 4.30012e-06)
(2.95672 1.9522e-05 -2.33387e-06)
(2.94964 0.000117938 1.60247e-05)
(2.93709 0.000458996 -3.09188e-05)
(2.90123 0.0012154 0.000192772)
(2.82398 0.00361873 -0.000254952)
(2.60883 0.00902988 0.000386676)
(1.92178 0.0275297 -0.000286826)
(0.345931 0.0816484 -0.000599492)
(-0.717627 0.181894 0.000202628)
(-0.012985 0.263007 7.14183e-05)
(0.363114 0.324907 3.16685e-05)
(0.362374 0.368523 8.49029e-06)
(0.260928 0.394943 7.08401e-05)
(-0.0753788 0.449387 -5.55821e-05)
(-0.0519 0.487488 -2.95681e-05)
(-0.104606 0.524983 0.000114595)
(-0.102459 0.548591 0.000169184)
(0.0586731 0.514853 0.000279324)
(2.9951 -4.81969e-06 -1.30162e-06)
(2.98906 -1.98195e-07 2.07334e-06)
(2.98253 -4.14336e-06 -1.84352e-06)
(2.97637 1.51894e-07 3.08437e-06)
(2.97073 -3.11354e-07 -3.53063e-06)
(2.96583 1.1665e-06 4.99455e-06)
(2.96119 9.38795e-06 -6.24581e-06)
(2.95677 2.60755e-05 4.20518e-06)
(2.94987 0.00013507 -1.70051e-05)
(2.93756 0.000598756 2.37402e-05)
(2.90277 0.00140362 -0.000207582)
(2.8278 0.00461015 0.000222602)
(2.6194 0.0109426 -0.000457384)
(1.95835 0.0337849 0.000270249)
(0.41984 0.101394 0.000453131)
(-0.642055 0.22075 -0.000261484)
(0.0185785 0.311166 -6.81728e-05)
(0.378283 0.378967 -4.37391e-05)
(0.368887 0.431119 -2.5509e-05)
(0.266625 0.471746 -2.15563e-05)
(-0.0106448 0.526768 -6.30844e-05)
(-0.0163452 0.575032 -3.28309e-05)
(-0.0659833 0.621483 0.000104003)
(-0.0834486 0.656448 0.000184763)
(0.0593356 0.631691 0.000293687)
(2.9951 -5.6399e-06 -3.79221e-07)
(2.98906 7.36829e-07 9.73255e-07)
(2.98253 -4.2565e-06 -9.09417e-07)
(2.97637 2.38034e-06 1.46357e-06)
(2.97073 4.35806e-07 -1.4455e-06)
(2.96584 4.38854e-06 1.74247e-06)
(2.9612 1.16663e-05 -1.32676e-06)
(2.95683 3.39739e-05 3.52342e-07)
(2.95012 0.000153471 -2.70531e-07)
(2.93816 0.000727523 -4.91822e-06)
(2.90454 0.00154909 1.67604e-05)
(2.83243 0.00545094 -5.18001e-05)
(2.63176 0.0124442 0.00010388)
(2.00256 0.0387931 -0.000122929)
(0.514279 0.116077 0.000175331)
(-0.548538 0.259091 0.000133358)
(0.0536552 0.359945 -6.57386e-05)
(0.394211 0.43257 -7.2593e-05)
(0.380741 0.491764 -4.33586e-05)
(0.279143 0.545254 -4.29227e-05)
(0.0533634 0.606187 -5.37435e-05)
(0.0272406 0.661387 -2.60551e-05)
(-0.0139493 0.722458 0.000100815)
(-0.0517609 0.77607 0.000208902)
(0.0671689 0.772957 0.000298103)
(2.9951 -3.06956e-06 1.01044e-06)
(2.98906 4.17598e-06 -5.92487e-07)
(2.98253 -5.82754e-06 3.65434e-07)
(2.97638 1.0386e-05 -2.75809e-07)
(2.97073 -9.59918e-06 -2.84817e-10)
(2.96584 1.92363e-05 2.6401e-07)
(2.96121 -9.30672e-07 -4.22155e-07)
(2.95689 5.2311e-05 9.21266e-07)
(2.95045 0.000252616 6.39468e-07)
(2.93875 0.000762104 2.96503e-07)
(2.90667 0.00220068 -5.20871e-06)
(2.83746 0.00544363 -1.30433e-06)
(2.64587 0.0153497 -1.67777e-05)
(2.05143 0.0405879 -1.08507e-05)
(0.629612 0.122764 1.56265e-05)
(-0.430641 0.293964 -3.79864e-06)
(0.0944442 0.409011 -5.36266e-05)
(0.411385 0.485241 -4.82962e-05)
(0.396713 0.549571 -4.19858e-05)
(0.299493 0.613364 -4.19643e-05)
(0.11823 0.683266 -4.81542e-05)
(0.0803623 0.748657 -3.86663e-05)
(0.0553296 0.826292 8.11002e-05)
(0.00590085 0.908064 0.000232541)
(0.0852595 0.949738 0.00027922)
(2.9951 6.35149e-06 4.22206e-07)
(2.98906 9.85817e-06 1.54759e-07)
(2.98253 -9.59452e-06 1.60706e-07)
(2.97637 3.06201e-05 2.17514e-07)
(2.97073 -4.73552e-05 -2.04652e-07)
(2.96585 8.4496e-05 2.17261e-07)
(2.96123 -0.000115082 -5.99094e-07)
(2.95704 0.000267156 2.2072e-07)
(2.95072 -2.58284e-06 -2.59531e-07)
(2.93982 0.00150961 -1.6366e-06)
(2.90841 -0.000437196 -3.49989e-06)
(2.84398 0.0124578 -7.48527e-06)
(2.65906 0.00449233 -1.60129e-05)
(2.09773 0.0538745 -1.57747e-05)
(0.748482 0.117091 -2.05411e-05)
(-0.291975 0.323697 -5.04209e-06)
(0.137869 0.459461 -2.09531e-05)
(0.427863 0.53609 -1.40211e-05)
(0.414917 0.603153 -2.81762e-05)
(0.326812 0.675288 -3.3318e-05)
(0.185248 0.753992 -4.07406e-05)
(0.147554 0.833209 -2.84486e-05)
(0.144867 0.931716 5.1668e-05)
(0.103896 1.05331 0.000201183)
(0.125574 1.22298 0.000253361)
(2.98855 7.00921e-06 0.00143439)
(2.98291 -1.50708e-06 0.00328595)
(2.97953 6.00734e-06 0.00493061)
(2.97738 -4.65508e-06 0.00644507)
(2.97597 6.65003e-06 0.00768113)
(2.975 -7.24167e-06 0.00889929)
(2.97416 9.31425e-06 0.00973519)
(2.97269 2.32821e-05 0.0108267)
(2.96774 0.000140863 0.0112889)
(2.9582 1.2121e-05 0.012176)
(2.92688 0.00111433 0.0136688)
(2.8581 -7.32417e-05 0.0165752)
(2.65846 0.00256857 0.0232626)
(2.02582 0.00226096 0.0360382)
(0.574607 -0.00187385 0.0639925)
(-0.384813 -0.00724699 0.0650129)
(0.0567032 0.00536877 0.0606569)
(0.439656 0.0141466 0.0584279)
(0.531717 0.00820614 0.0610931)
(0.500247 -0.0189083 0.062694)
(0.442509 -0.016389 0.0628871)
(0.344678 -0.000698379 0.062461)
(0.195361 0.0191378 0.0619464)
(0.0627458 0.0418623 0.0602314)
(0.184227 0.0517436 0.0543635)
(2.98855 3.97825e-06 0.00143715)
(2.98291 -3.30673e-07 0.00328176)
(2.97953 3.85242e-06 0.00493395)
(2.97738 -1.84383e-06 0.00644016)
(2.97597 2.61579e-06 0.00768769)
(2.975 -2.5336e-06 0.00888837)
(2.97418 -2.02964e-07 0.00975186)
(2.97281 8.33156e-06 0.0107888)
(2.96774 2.78354e-05 0.0112999)
(2.95897 0.000103117 0.0123169)
(2.92713 0.000203816 0.01311)
(2.85851 0.000729012 0.0179836)
(2.65993 0.00143687 0.0205994)
(2.01943 0.00430237 0.0397857)
(0.527249 0.0108787 0.0624151)
(-0.485303 0.0342366 0.0635783)
(0.0348775 0.0564009 0.0608671)
(0.424632 0.0708937 0.058698)
(0.49184 0.0690035 0.0611903)
(0.375076 0.0662828 0.061762)
(0.362533 0.071228 0.0633777)
(0.274518 0.0871066 0.0631571)
(0.103801 0.107185 0.0623846)
(0.0049961 0.12187 0.0595645)
(0.158013 0.111195 0.0535714)
(2.98855 3.61711e-06 0.00143529)
(2.98291 1.91399e-07 0.0032846)
(2.97953 3.33401e-06 0.004932)
(2.97738 -8.73661e-07 0.00644271)
(2.97597 1.28614e-06 0.00768383)
(2.975 -1.35471e-06 0.00889516)
(2.97417 -1.57252e-06 0.00973912)
(2.97271 6.92719e-06 0.0108174)
(2.96783 2.68178e-05 0.0112751)
(2.95834 0.000138489 0.0121945)
(2.92738 0.000291865 0.0136837)
(2.85905 0.00100357 0.0166205)
(2.66112 0.00251188 0.0233203)
(2.03173 0.00781822 0.036037)
(0.589005 0.0225709 0.0636787)
(-0.3736 0.0730196 0.0643167)
(0.0699682 0.102812 0.0601106)
(0.437475 0.126139 0.0575655)
(0.491719 0.140959 0.0602499)
(0.387788 0.164106 0.0612011)
(0.355841 0.163859 0.0625801)
(0.259688 0.165745 0.0622243)
(0.0756004 0.185711 0.0614824)
(-0.0155201 0.202025 0.0582413)
(0.139138 0.171564 0.0524556)
(2.98855 8.06909e-06 0.00143793)
(2.98291 -1.75061e-06 0.00328069)
(2.97953 6.14944e-06 0.00493499)
(2.97738 -5.94794e-06 0.00643849)
(2.97597 5.30392e-06 0.00768924)
(2.975 -8.79295e-06 0.0088865)
(2.97419 8.06486e-06 0.00975228)
(2.97283 2.56919e-05 0.0107877)
(2.96786 0.000160912 0.0112853)
(2.9592 0.000173505 0.0122883)
(2.92786 0.00146135 0.0130447)
(2.86046 0.00111487 0.0178487)
(2.66546 0.00581099 0.0204258)
(2.03668 0.0126194 0.0395191)
(0.58124 0.031463 0.0622542)
(-0.356833 0.0881665 0.0650769)
(0.085861 0.136947 0.0599168)
(0.449545 0.173169 0.0568629)
(0.505162 0.199348 0.0594804)
(0.428663 0.226362 0.0613412)
(0.361913 0.236152 0.0616516)
(0.260276 0.242958 0.0606017)
(0.0855187 0.264028 0.0598838)
(-0.013901 0.280747 0.0566253)
(0.140778 0.232114 0.0508238)
(2.98855 -1.4996e-06 0.00143822)
(2.98291 -5.86552e-07 0.00328006)
(2.97953 -1.77163e-06 0.00493557)
(2.97738 -1.33131e-06 0.0064374)
(2.97597 -9.21307e-07 0.00769071)
(2.975 -1.87233e-06 0.0088845)
(2.97419 4.46957e-06 0.00975421)
(2.97285 1.10063e-05 0.0107855)
(2.96796 6.86654e-05 0.0112781)
(2.95942 0.000326933 0.0122549)
(2.92856 0.000773007 0.0130404)
(2.86232 0.0024975 0.0177174)
(2.67064 0.00619257 0.0204285)
(2.05269 0.0187222 0.0393057)
(0.615665 0.0546342 0.0619845)
(-0.34143 0.128118 0.0644167)
(0.0988872 0.18176 0.0596278)
(0.456479 0.221615 0.0563054)
(0.505844 0.254428 0.0588668)
(0.423518 0.290217 0.0604024)
(0.364721 0.306775 0.0607312)
(0.267555 0.322148 0.059267)
(0.108364 0.345688 0.0580972)
(-0.0060399 0.361493 0.0547539)
(0.14027 0.302186 0.0488456)
(2.98855 -1.26469e-05 0.00143739)
(2.98291 2.38843e-06 0.00328118)
(2.97953 -1.19169e-05 0.00493471)
(2.97738 8.46385e-06 0.00643858)
(2.97597 -1.19806e-05 0.00768982)
(2.97501 1.58864e-05 0.00888511)
(2.9742 -8.20837e-06 0.00975524)
(2.97289 2.24389e-05 0.0107823)
(2.96811 2.32791e-05 0.0112943)
(2.95979 0.000504179 0.012269)
(2.92959 6.4726e-05 0.0130383)
(2.86515 0.00391764 0.0177023)
(2.67802 0.00640033 0.0202997)
(2.07811 0.0252312 0.0385303)
(0.67398 0.0799364 0.0615691)
(-0.261921 0.166572 0.0646056)
(0.130855 0.224399 0.0591482)
(0.472592 0.266618 0.0552975)
(0.517382 0.307168 0.0579486)
(0.442365 0.352034 0.0598136)
(0.37319 0.376976 0.0596804)
(0.282287 0.401455 0.0578983)
(0.140327 0.430159 0.0562075)
(0.0112512 0.447968 0.0526311)
(0.137634 0.387779 0.0464864)
(2.98855 -1.36642e-05 0.00143459)
(2.98291 2.09764e-06 0.00328544)
(2.97954 -1.34911e-05 0.00493074)
(2.97738 8.73257e-06 0.00644489)
(2.97598 -1.32187e-05 0.00768107)
(2.975 1.79385e-05 0.00889932)
(2.9742 -8.56921e-06 0.00973361)
(2.97287 2.55489e-05 0.0108228)
(2.96835 3.75419e-05 0.0112655)