/*--------------------------------*- C++ -*----------------------------------*\
  =========                 |
  \\      /  F ield         | OpenFOAM: The Open Source CFD Toolbox
   \\    /   O peration     | Website:  https://openfoam.org
    \\  /    A nd           | Version:  6
     \\/     M anipulation  |
\*---------------------------------------------------------------------------*/
FoamFile
{
    version     2.0;
    format      ascii;
    class       volScalarField;
    location    "0.5";
    object      Ma;
}
// * * * * * * * * * * * * * * * * * * * * * * * * * * * * * * * * * * * * * //

dimensions      [0 0 0 0 0 0 0];

internalField   nonuniform List<scalar> 
5250
(
3
2.99999
2.99996
2.99991
2.99973
2.99944
2.99831
2.99664
2.98991
2.97967
2.94202
2.87336
2.67702
2.25423
1.39537
0.335387
0.118686
0.059019
0.160779
0.187354
0.179646
0.130256
0.0844351
0.0342137
0.070779
3
2.99999
2.99996
2.99991
2.99973
2.99945
2.99833
2.99669
2.99004
2.97992
2.94262
2.87454
2.67958
2.25833
1.40186
0.341906
0.121369
0.0783969
0.168366
0.195089
0.186853
0.139678
0.0997366
0.0628058
0.0813175
3
2.99999
2.99996
2.99992
2.99974
2.99947
2.99838
2.99679
2.99031
2.98046
2.94392
2.8772
2.68528
2.26859
1.41825
0.360797
0.127207
0.110414
0.181365
0.207381
0.200525
0.158933
0.127692
0.103008
0.111227
3
2.99999
2.99997
2.99992
2.99975
2.99949
2.99847
2.99695
2.99075
2.98134
2.94605
2.88169
2.69494
2.28659
1.44819
0.39508
0.142061
0.145758
0.19567
0.22348
0.221341
0.187646
0.165163
0.14917
0.153385
3
2.99999
2.99997
2.99993
2.99977
2.99953
2.99858
2.99716
2.99138
2.98259
2.94913
2.88822
2.709
2.31373
1.49388
0.446542
0.171666
0.1809
0.208542
0.243393
0.24874
0.223893
0.208942
0.198937
0.202331
3
3
2.99997
2.99993
2.99979
2.99957
2.99871
2.99743
2.99219
2.98418
2.95334
2.8969
2.72855
2.35174
1.56032
0.520415
0.219043
0.213482
0.219129
0.269012
0.283713
0.267093
0.258614
0.253136
0.257369
3
3
2.99997
2.99994
2.99981
2.99962
2.99886
2.99772
2.99313
2.98601
2.95881
2.90773
2.75576
2.40268
1.66048
0.621714
0.285311
0.237272
0.232068
0.304438
0.32798
0.318519
0.315379
0.315502
0.322227
3
3
2.99998
2.99995
2.99983
2.99966
2.99899
2.998
2.99406
2.98789
2.96493
2.9204
2.78887
2.47201
1.80703
0.762564
0.366576
0.254539
0.2584
0.352188
0.381951
0.378263
0.382694
0.389224
0.403335
3
3
2.99998
2.99995
2.99985
2.99969
2.99911
2.99824
2.99486
2.98965
2.97067
2.93355
2.82443
2.5547
1.9824
0.969001
0.454573
0.274264
0.300813
0.410723
0.444445
0.447854
0.461188
0.482543
0.51964
3
3
2.99998
2.99996
2.99987
2.99973
2.9992
2.99844
2.99544
2.99104
2.97462
2.94535
2.85579
2.63957
2.17457
1.25704
0.527559
0.290881
0.355182
0.475859
0.51199
0.52471
0.555671
0.604901
0.707507
3
3
2.99999
2.99996
2.99988
2.99976
2.99928
2.9986
2.9959
2.99205
2.97706
2.95298
2.87448
2.70127
2.31348
1.52218
0.595977
0.315025
0.423799
0.540415
0.579811
0.606307
0.660146
0.755512
0.912662
3.00001
3
2.99999
2.99997
2.9999
2.99979
2.99937
2.99878
2.99638
2.99305
2.97965
2.95913
2.88982
2.74284
2.40375
1.66963
0.722025
0.379661
0.501429
0.592689
0.639713
0.684136
0.756007
0.873973
1.03521
3.00001
3
2.99999
2.99998
2.99992
2.99983
2.99948
2.99899
2.99698
2.99418
2.98271
2.96584
2.9041
2.78172
2.47993
1.80548
0.900748
0.485398
0.564512
0.62809
0.687568
0.747214
0.82706
0.939234
1.07767
3.00001
3
3
2.99998
2.99994
2.99987
2.9996
2.99921
2.99762
2.99538
2.98653
2.97211
2.92389
2.81513
2.56644
1.94678
1.09264
0.61746
0.60526
0.660639
0.723902
0.791759
0.873888
0.974143
1.08921
3.00001
3
3
2.99999
2.99995
2.9999
2.9997
2.9994
2.9982
2.99646
2.98977
2.97837
2.94123
2.85458
2.65538
2.12156
1.3433
0.77857
0.65587
0.698128
0.756976
0.826354
0.906665
0.994972
1.09471
3.00001
3.00001
3
2.99999
2.99997
2.99993
2.99977
2.99954
2.99858
2.99728
2.99155
2.98372
2.9519
2.89855
2.73672
2.38956
1.67516
0.960426
0.726576
0.754543
0.803024
0.867779
0.940345
1.0191
1.10198
3.00001
3.00001
3
3
2.99998
2.99995
2.99984
2.99968
2.999
2.99807
2.994
2.98842
2.96551
2.92719
2.80833
2.54454
1.97789
1.14245
0.819704
0.821389
0.861048
0.913432
0.975463
1.0406
1.11205
3.00001
3.00001
3
3
2.99999
2.99997
2.9999
2.9998
2.99935
2.99876
2.99603
2.99239
2.97678
2.95075
2.87005
2.67967
2.27974
1.45607
1.0078
0.903899
0.920751
0.956104
1.01062
1.06746
1.12814
3.00001
3.00001
3.00001
3
3
2.99999
2.99995
2.99989
2.99965
2.9993
2.99788
2.99575
2.987
2.97266
2.91755
2.81183
2.53067
1.94499
1.24576
1.00808
0.989052
1.0101
1.04779
1.09785
1.14935
3.00001
3.00001
3.00001
3.00001
3
3
2.99997
2.99993
2.99978
2.99957
2.99861
2.99739
2.99191
2.98345
2.95414
2.88368
2.7176
2.2714
1.6004
1.1417
1.05506
1.06155
1.08679
1.12946
1.17469
3.00001
3.00001
3.00001
3.00001
3
3
2.99999
2.99997
2.99988
2.99976
2.9992
2.9985
2.99506
2.99064
2.97016
2.93807
2.82543
2.59953
2.05209
1.40421
1.1672
1.12881
1.13713
1.16445
1.2063
3.00001
3.00001
3.00001
3.00001
3.00001
3
3
2.99999
2.99995
2.9999
2.99971
2.99933
2.9981
2.99563
2.98547
2.97093
2.90574
2.79531
2.45879
1.8817
1.3452
1.21454
1.19926
1.21189
1.23798
3.00001
3.00001
3.00001
3.00001
3.00001
3.00001
3
3
2.99998
2.99995
2.9998
2.99964
2.99875
2.99774
2.99282
2.98519
2.95964
2.89099
2.73872
2.30797
1.7153
1.33252
1.26127
1.26232
1.28105
3.00001
3.00001
3.00001
3.00001
3.00001
3.00001
3.00001
3
3
2.99998
2.99993
2.99985
2.99945
2.99901
2.99628
2.99334
2.97677
2.9537
2.8578
2.68766
2.19596
1.64914
1.37908
1.32981
1.33009
3.00001
3.00001
3.00001
3.00001
3.00001
3.00001
3.00001
3.00001
3
3
2.99997
2.99994
2.99978
2.99961
2.99885
2.99754
2.9942
2.9818
2.95061
2.8622
2.64179
2.17714
1.63973
1.42993
1.3986
3.00001
3.00001
3.00001
3.00001
3.00001
3.00001
3.00001
3.00001
3.00001
3
3
2.99998
2.99995
2.99984
2.99971
2.99922
2.99801
2.99623
2.98274
2.95187
2.86241
2.62833
2.18087
1.68056
1.48371
3.00001
3.00001
3.00001
3.00001
3.00001
3.00001
3.00001
3.00001
3.00001
3.00001
3
3
2.99999
2.99996
2.99988
2.99969
2.99908
2.99658
2.99357
2.97532
2.95065
2.84648
2.66881
2.18054
1.76923
3.00001
3.00001
3.00001
3.00001
3.00001
3.00001
3.00001
3.00001
3.00001
3.00001
3.00001
3
3
2.99999
2.99996
2.99985
2.99973
2.99892
2.99812
2.99475
2.98415
2.96034
2.88618
2.68487
2.30272
3.00001
3.00001
3.00001
3.00001
3.00001
3.00001
3.00001
3.00001
3.00001
3.00001
3.00001
3.00001
3.00001
3
2.99999
2.99996
2.99992
2.99975
2.99944
2.99846
2.9953
2.98352
2.96616
2.88523
2.75942
3.00001
3.00001
3.00001
3.00001
3.00001
3.00001
3.00001
3.00001
3.00001
3.00001
3.00001
3.00001
3.00001
3.00001
3.00001
3
2.99999
2.99995
2.99986
2.99948
2.99915
2.9955
2.99603
2.9729
2.91351
3.00001
3.00001
3.00001
3.00001
3.00001
3.00001
3.00001
3.00001
3.00001
3.00001
3.00001
3.00001
3.00001
3.00001
3.00001
3.00001
3
3
2.99996
2.9999
2.99971
2.99872
2.99815
2.99345
2.98072
3.00001
3.00001
3.00001
3.00001
3.00001
3.00001
3.00001
3.00001
3.00001
3.00001
3.00001
3.00001
3.00001
3.00001
3.00001
3.00001
3.00001
3
3
2.99996
2.99993
2.99971
2.99951
2.99827
2.99533
3.00001
3.00001
3.00001
3.00001
3.00001
3.00001
3.00001
3.00001
3.00001
3.00001
3.00001
3.00001
3.00001
3.00001
3.00001
3.00001
3.00001
3.00001
3
3
2.99999
2.99993
2.99987
2.9995
2.99904
3.00001
3.00001
3.00001
3.00001
3.00001
3.00001
3.00001
3.00001
3.00001
3.00001
3.00001
3.00001
3.00001
3.00001
3.00001
3.00001
3.00001
3.00001
3.00001
3
3
2.99999
2.99997
2.99988
2.99981
3.00001
3.00001
3.00001
3.00001
3.00001
3.00001
3.00001
3.00001
3.00001
3.00001
3.00001
3.00001
3.00001
3.00001
3.00001
3.00001
3.00001
3.00001
3.00001
3.00001
3.00001
3
3
2.99998
2.99996
3.00001
3.00001
3.00001
3.00001
3.00001
3.00001
3.00001
3.00001
3.00001
3.00001
3.00001
3.00001
3.00001
3.00001
3.00001
3.00001
3.00001
3.00001
3.00001
3.00001
3.00001
3.00001
3.00001
3
3
3.00001
3.00001
3.00001
3.00001
3.00001
3.00001
3.00001
3.00001
3.00001
3.00001
3.00001
3.00001
3.00001
3.00001
3.00001
3.00001
3.00001
3.00001
3.00001
3.00001
3.00001
3.00001
3.00001
3.00001
3.00001
3.00001
3.00001
3.00001
3.00001
3.00001
3.00001
3.00001
3.00001
3.00001
3.00001
3.00001
3.00001
3.00001
3.00001
3.00001
3.00001
3.00001
3.00001
3.00001
3.00001
3.00001
3.00001
3.00001
3.00001
3.00001
3.00001
3.00001
3.00001
3.00001
3.00001
3.00001
3.00001
3.00001
3.00001
3.00001
3.00001
3.00001
3.00001
3.00001
3.00001
3.00001
3.00001
3.00001
3.00001
3.00001
3.00001
3.00001
3.00001
3.00001
3.00001
3.00001
3.00001
3.00001
3.00001
3.00001
3.00001
3.00001
3.00001
3.00001
3.00001
3.00001
3.00001
3.00001
3.00001
3.00001
3.00001
3.00001
3.00001
3.00001
3.00001
3.00001
3.00001
3.00001
3.00001
3.00001
3.00001
3.00001
3.00001
3.00001
3.00001
3.00001
3.00001
3.00001
3.00001
3.00001
3.00001
3.00001
3.00001
3.00001
3.00001
3.00001
3.00001
3.00001
3.00001
3.00001
3.00001
3.00001
3.00001
3.00001
3.00001
3.00001
3.00001
3.00001
3.00001
3.00001
3.00001
3.00001
3.00001
3.00001
3.00001
3.00001
3.00001
3.00001
3.00001
3.00001
3.00001
3.00001
3.00001
3.00001
3.00001
3.00001
3.00001
3.00001
3.00001
3.00001
3.00001
3.00001
3.00001
3.00001
3.00001
3.00001
3.00001
3.00001
3.00001
3.00001
3.00001
3.00001
3.00001
3.00001
3.00001
3.00001
3.00001
3.00001
3.00001
3.00001
3.00001
3.00001
3.00001
3.00001
3.00001
3.00001
3.00001
3.00001
3.00001
3.00001
3.00001
3.00001
3.00001
3.00001
3.00001
3.00001
3.00001
3.00001
3.00001
3.00001
3.00001
3.00001
3.00001
3.00001
3.00001
3.00001
3.00001
3.00001
3.00001
3.00001
3.00001
3.00001
3.00001
3.00001
3.00001
3.00001
3.00001
3.00001
3.00001
3.00001
3.00001
3.00001
3.00001
3.00001
3.00001
3.00001
3.00001
3.00001
3.00001
3.00001
3.00001
3.00001
3.00001
3.00001
3.00001
3.00001
3.00001
3.00001
3.00001
3.00001
3.00001
3.00001
3.00001
3.00001
3.00001
3.00001
3.00001
3.00001
3.00001
3.00001
3.00001
3.00001
3.00001
3.00001
3.00001
3.00001
3.00001
3.00001
3.00001
3.00001
3.00001
3.00001
3.00001
3.00001
3.00001
3.00001
3.00001
3.00001
3.00001
3.00001
3.00001
3.00001
3.00001
3.00001
3.00001
3.00001
3.00001
3.00001
3.00001
3.00001
3.00001
3.00001
3.00001
3.00001
3.00001
3.00001
3.00001
3.00001
3.00001
3.00001
3.00001
3.00001
3.00001
3.00001
3.00001
3.00001
3.00001
3.00001
3.00001
3.00001
3.00001
3.00001
3.00001
3.00001
3.00001
3.00001
3.00001
3.00001
3.00001
3.00001
3.00001
3.00001
3.00001
3.00001
3.00001
3.00001
3.00001
3.00001
3.00001
3.00001
3.00001
3.00001
3.00001
3.00001
3.00001
3.00001
3.00001
3.00001
3.00001
3.00001
3.00001
3.00001
3.00001
3.00001
3.00001
3.00001
3.00001
3.00001
3.00001
3.00001
3.00001
3.00001
3.00001
3.00001
3.00001
3.00001
3.00001
3.00001
3.00001
3.00001
3.00001
3.00001
3.00001
3.00001
3.00001
3.00001
3.00001
3.00001
3.00001
3.00001
1.134
1.36056
1.5148
1.60863
1.64183
1.6223
1.56268
1.51041
1.43035
1.35598
1.29539
1.27101
1.26889
1.27849
1.28624
1.29787
1.31148
1.32148
1.32929
1.33711
1.34558
1.35474
1.36448
1.37497
1.38655
1.39962
1.41434
1.43052
1.44756
1.46471
1.48136
1.49722
1.51233
1.52704
1.54185
1.55723
1.57331
1.58971
1.60573
1.62051
1.63297
1.64257
1.65039
1.65563
1.6561
1.65204
1.64658
1.6415
1.63879
1.63921
1.64168
1.64753
1.66358
1.69191
1.72911
1.7758
1.83182
1.89652
1.96861
2.04642
2.12774
2.21028
2.29169
2.37005
2.44358
2.51121
2.57215
2.62636
2.67392
2.71538
2.75115
2.78188
2.80826
2.83105
2.85113
2.86929
2.88632
2.90277
2.91888
2.93456
2.94929
2.96237
2.97321
2.9818
2.98862
2.99436
2.99927
3.00362
3.00771
3.0089
3.00823
3.00676
3.00525
3.00377
3.00243
3.00151
3.00092
3.00054
3.00031
3.00018
1.19382
1.33919
1.44092
1.50006
1.52546
1.52881
1.53057
1.54689
1.58233
1.6265
1.65489
1.66333
1.66614
1.6617
1.65203
1.64377
1.63833
1.64003
1.64361
1.65026
1.65992
1.6702
1.68069
1.69097
1.7008
1.7104
1.72029
1.73102
1.74284
1.75563
1.76895
1.78216
1.79471
1.80632
1.81719
1.8279
1.83912
1.85121
1.86421
1.87762
1.89043
1.9012
1.90907
1.91483
1.91876
1.91895
1.91367
1.90463
1.89518
1.88821
1.88502
1.88503
1.88697
1.89407
1.91186
1.94295
1.98293
2.03115
2.08663
2.14802
2.21379
2.28223
2.3516
2.42018
2.48652
2.54944
2.608
2.66163
2.70997
2.75295
2.79066
2.8232
2.85087
2.87405
2.89347
2.90993
2.92444
2.93778
2.95046
2.96252
2.97351
2.98291
2.99027
2.99568
2.99976
3.00289
3.00538
3.00942
3.01193
3.01178
3.0102
3.00822
3.0063
3.00434
3.00282
3.00178
3.00109
3.00065
3.00038
3.00022
1.1924
1.29577
1.38346
1.45873
1.52686
1.59536
1.66414
1.72729
1.78317
1.83132
1.86757
1.88348
1.88532
1.88387
1.87519
1.86091
1.84883
1.84262
1.84027
1.84266
1.8468
1.8529
1.86099
1.86934
1.87776
1.88628
1.89493
1.90393
1.91354
1.92376
1.93439
1.94507
1.9553
1.96462
1.97293
1.9806
1.98832
1.99677
2.00637
2.01701
2.02812
2.03837
2.04619
2.05131
2.05493
2.05625
2.05368
2.04573
2.03644
2.02887
2.02469
2.02381
2.02486
2.03047
2.04559
2.07298
2.10868
2.15189
2.20174
2.25712
2.3167
2.37893
2.44222
2.50497
2.56582
2.62357
2.67733
2.72636
2.77024
2.80864
2.84155
2.86919
2.89193
2.91034
2.92512
2.9372
2.9475
2.95694
2.9661
2.97506
2.98342
2.99054
2.99596
2.99983
3.00264
3.00473
3.00677
3.01058
3.0126
3.01211
3.01036
3.00829
3.00629
3.00427
3.00277
3.00174
3.00107
3.00063
3.00037
3.00022
1.19496
1.28532
1.36835
1.44764
1.52356
1.59681
1.66745
1.73181
1.79089
1.8384
1.87724
1.90804
1.93117
1.94779
1.95731
1.96086
1.96207
1.96037
1.95805
1.95574
1.9531
1.95487
1.95732
1.96126
1.96727
1.97569
1.98596
1.99739
2.00918
2.02064
2.03145
2.04136
2.0501
2.05753
2.06388
2.06974
2.07576
2.08273
2.0913
2.10119
2.1117
2.12157
2.12918
2.13407
2.13746
2.13893
2.13766
2.1342
2.13122
2.13025
2.13106
2.13379
2.14319
2.16246
2.1878
2.21918
2.25619
2.29825
2.3445
2.39402
2.44576
2.49859
2.55134
2.60285
2.65217
2.69849
2.74135
2.78045
2.8157
2.8469
2.87402
2.89704
2.91618
2.93174
2.94435
2.95464
2.96342
2.9714
2.97909
2.98664
2.99367
2.99954
3.00374
3.00642
3.008
3.00903
3.01107
3.01405
3.01486
3.01361
3.01138
3.00905
3.00668
3.00449
3.00292
3.00185
3.00114
3.00068
3.0004
3.00024
1.19436
1.28489
1.36621
1.4422
1.51517
1.58324
1.64739
1.70799
1.76471
1.81736
1.8657
1.91013
1.94964
1.9828
2.00989
2.02832
2.04107
2.04538
2.04543
2.04463
2.04288
2.03965
2.03858
2.04055
2.04376
2.0483
2.05534
2.0659
2.07729
2.08813
2.09802
2.1068
2.11445
2.12102
2.12676
2.1322
2.13789
2.14435
2.15221
2.1614
2.17129
2.18081
2.18866
2.19425
2.19819
2.20141
2.204
2.20584
2.20764
2.21019
2.21616
2.22967
2.24927
2.27309
2.30116
2.33331
2.36914
2.40809
2.44948
2.49265
2.53696
2.58172
2.62619
2.66968
2.71144
2.75087
2.78753
2.82121
2.85174
2.87901
2.90282
2.92294
2.93935
2.95229
2.96237
2.97037
2.97719
2.98343
2.98945
2.99526
3.00055
3.00481
3.0077
3.00928
3.0099
3.01084
3.01264
3.01511
3.01538
3.0138
3.01141
3.009
3.00652
3.00436
3.00283
3.00178
3.00109
3.00065
3.00038
3.00022
1.18955
1.27417
1.35298
1.42632
1.49515
1.55991
1.62175
1.68094
1.73756
1.79138
1.84212
1.88961
1.9335
1.97304
2.00797
2.037
2.06016
2.07718
2.08861
2.09546
2.09862
2.10004
2.10136
2.10324
2.10571
2.10958
2.1152
2.12187
2.12964
2.13776
2.1461
2.15407
2.16151
2.16842
2.17495
2.18149
2.18855
2.1965
2.20521
2.21454
2.22449
2.23443
2.24307
2.24958
2.2547
2.25964
2.26476
2.27027
2.27788
2.2893
2.30524
2.32517
2.34813
2.37399
2.40265
2.43389
2.46747
2.50304
2.54022
2.57852
2.61742
2.65638
2.69474
2.73196
2.76742
2.80063
2.83121
2.85913
2.88433
2.90687
2.92662
2.94338
2.9571
2.96781
2.97599
2.98235
2.98781
2.99302
2.99814
3.00327
3.00778
3.0111
3.01285
3.01325
3.0136
3.01409
3.01529
3.01713
3.01671
3.01464
3.01197
3.00934
3.00661
3.00442
3.00287
3.00181
3.00111
3.00066
3.00039
3.00023
1.18839
1.26504
1.33868
1.40847
1.47471
1.53791
1.59845
1.65631
1.71255
1.76692
1.81884
1.86766
1.91248
1.95391
1.99138
2.0251
2.05455
2.07973
2.10075
2.118
2.13163
2.1429
2.15162
2.15848
2.16438
2.17024
2.17623
2.18154
2.18625
2.19069
2.19518
2.20013
2.20576
2.21158
2.21781
2.22491
2.23329
2.24277
2.25293
2.26337
2.27383
2.28406
2.29344
2.3013
2.30844
2.31672
2.32625
2.3365
2.34852
2.36379
2.38303
2.40559
2.43044
2.4573
2.48592
2.51621
2.54796
2.58095
2.6149
2.64945
2.68407
2.71821
2.75133
2.78298
2.81289
2.8408
2.86642
2.8897
2.91072
2.92962
2.94631
2.96059
2.97229
2.98137
2.98811
2.99319
2.99754
3.00171
3.00572
3.00979
3.01339
3.01566
3.01624
3.01629
3.01591
3.01576
3.01628
3.01794
3.01713
3.01476
3.01194
3.00919
3.00637
3.00425
3.00275
3.00173
3.00106
3.00063
3.00037
3.00022
1.19309
1.26047
1.32797
1.39401
1.45815
1.52006
1.57978
1.63708
1.692
1.74423
1.79376
1.84079
1.8852
1.92661
1.96453
1.99904
2.03028
2.05913
2.08591
2.11107
2.1342
2.15531
2.17355
2.18948
2.20269
2.213
2.2211
2.22732
2.23152
2.23489
2.23779
2.24036
2.24418
2.24875
2.2543
2.26134
2.27049
2.28116
2.2925
2.30399
2.31556
2.32715
2.33891
2.35028
2.36111
2.37303
2.38682
2.40169
2.41777
2.43594
2.45718
2.48117
2.50673
2.5334
2.56099
2.58956
2.61913
2.64954
2.68054
2.71174
2.7427
2.77281
2.80154
2.82846
2.85352
2.87674
2.89808
2.91737
2.93467
2.95004
2.96365
2.97532
2.98492
2.9924
2.99789
3.00195
3.00548
3.00884
3.01213
3.01566
3.01852
3.01951
3.01964
3.01924
3.01844
3.01804
3.0187
3.01947
3.01789
3.01509
3.01212
3.00912
3.00627
3.00418
3.00271
3.00171
3.00105
3.00062
3.00037
3.00022
1.2055
1.26269
1.32199
1.38224
1.44226
1.50137
1.55906
1.61462
1.66785
1.71881
1.76728
1.81311
1.85568
1.89508
1.93176
1.96645
1.99981
2.03196
2.06321
2.09364
2.12289
2.1506
2.17637
2.19953
2.21972
2.23622
2.24956
2.25958
2.26699
2.27252
2.27721
2.28178
2.28621
2.29134
2.29744
2.30442
2.3128
2.32296
2.33407
2.34576
2.35818
2.37131
2.38551
2.40024
2.41522
2.43092
2.44777
2.4658
2.48465
2.50486
2.52715
2.5517
2.57727
2.60299
2.6291
2.6559
2.68338
2.71131
2.73944
2.76735
2.79458
2.82062
2.84512
2.86776
2.88835
2.90748
2.92527
2.94121
2.95526
2.96773
2.97855
2.98782
2.99545
3.00157
3.00622
3.00968
3.01259
3.01534
3.01802
3.02078
3.02234
3.02262
3.02254
3.02151
3.02027
3.01957
3.02043
3.02028
3.01809
3.01502
3.01194
3.00877
3.00599
3.00398
3.00257
3.00162
3.00099
3.00059
3.00035
3.0002
1.22163
1.27103
1.32199
1.3757
1.43128
1.48703
1.54197
1.59529
1.64646
1.6951
1.74097
1.78427
1.82523
1.86432
1.90177
1.9379
1.97322
2.00782
2.04184
2.07477
2.10668
2.1371
2.16578
2.19217
2.21625
2.23744
2.25611
2.27189
2.28562
2.29724
2.30699
2.31608
2.3238
2.33155
2.33943
2.34752
2.35571
2.36497
2.37542
2.38746
2.40032
2.41462
2.43085
2.44854
2.4669
2.4856
2.50502
2.52539
2.54644
2.56844
2.59181
2.61644
2.64163
2.66638
2.69126
2.71629
2.74164
2.76711
2.79232
2.81686
2.84026
2.8624
2.88295
2.90247
2.92009
2.93578
2.94973
2.9621
2.9735
2.98413
2.99274
2.99976
3.00537
3.00991
3.01359
3.01663
3.01921
3.02157
3.02371
3.02516
3.02547
3.02595
3.02517
3.02363
3.02211
3.02131
3.02216
3.02109
3.01835
3.01504
3.0118
3.00847
3.00577
3.00383
3.00247
3.00155
3.00095
3.00056
3.00033
3.0002
1.24665
1.28761
1.33242
1.37917
1.42832
1.47901
1.52976
1.5797
1.62816
1.67479
1.71926
1.76159
1.802
1.84086
1.87863
1.91563
1.95209
1.98786
2.02311
2.05724
2.09022
2.12123
2.15057
2.17791
2.20349
2.22759
2.24986
2.27116
2.29054
2.30915
2.32563
2.34108
2.35523
2.36752
2.37895
2.38936
2.39962
2.41016
2.42129
2.43407
2.44831
2.46359
2.48037
2.49981
2.52035
2.54136
2.56209
2.58331
2.60539
2.62841
2.65214
2.67608
2.69978
2.72306
2.74642
2.7698
2.79309
2.81586
2.83779
2.85893
2.87877
2.897
2.91483
2.9313
2.94608
2.95904
2.97037
2.98036
2.98912
2.99681
3.00395
3.00992
3.01398
3.01714
3.01998
3.02268
3.02518
3.02732
3.0288
3.02895
3.02917
3.02893
3.02742
3.02539
3.0235
3.02265
3.02319
3.02146
3.01829
3.01481
3.0114
3.00801
3.00545
3.0036
3.00232
3.00145
3.00089
3.00053
3.00031
3.00018
1.27496
1.31387
1.35266
1.39372
1.4368
1.48083
1.52646
1.57215
1.61707
1.6609
1.70359
1.74506
1.78536
1.82483
1.86354
1.90123
1.93808
1.97408
2.00908
2.04269
2.07469
2.10508
2.1339
2.1615
2.18789
2.2137
2.23849
2.26315
2.28686
2.31023
2.3331
2.35416
2.37466
2.39266
2.40903
2.42396
2.43738
2.45083
2.46457
2.47901
2.4959
2.51406
2.53255
2.55274
2.5749
2.59738
2.61913
2.64087
2.6633
2.68627
2.70856
2.73075
2.7526
2.77475
2.79643
2.818
2.83912
2.8592
2.87822
2.89547
2.91105
2.92697
2.94203
2.95529
2.96696
2.97718
2.98617
2.99409
3.00103
3.00699
3.01224
3.01711
3.02072
3.02289
3.02503
3.02749
3.03008
3.03209
3.03272
3.03298
3.03304
3.03159
3.02929
3.02676
3.02465
3.02409
3.02408
3.02163
3.01806
3.01446
3.01085
3.00756
3.00513
3.00338
3.00218
3.00136
3.00083
3.00049
3.00029
3.00017
1.31012
1.346
1.38219
1.41819
1.4554
1.49512
1.5346
1.57503
1.61596
1.65665
1.69691
1.73686
1.77673
1.81627
1.8552
1.89324
1.93011
1.96542
1.9991
2.03105
2.06148
2.09065
2.11884
2.1464
2.17351
2.2003
2.22714
2.25383
2.28056
2.30694
2.33304
2.35862
2.38262
2.40586
2.42697
2.44657
2.46568
2.48348
2.50224
2.52118
2.54078
2.56219
2.58389
2.60577
2.62904
2.65308
2.67637
2.69912
2.72145
2.74364
2.76521
2.78582
2.80617
2.82613
2.84565
2.86483
2.88375
2.9012
2.91601
2.92867
2.94166
2.95455
2.96614
2.9766
2.98566
2.99323
2.99979
3.00563
3.01075
3.01506
3.01866
3.02221
3.02539
3.02708
3.0287
3.03094
3.03352
3.0353
3.0363
3.03707
3.03594
3.03348
3.03054
3.02765
3.02566
3.02584
3.02462
3.02141
3.01756
3.01388
3.01016
3.00704
3.00476
3.00313
3.00201
3.00125
3.00076
3.00045
3.00026
3.00016
1.34875
1.37617
1.40979
1.44507
1.48054
1.51585
1.55201
1.5883
1.62409
1.66064
1.6982
1.73652
1.77525
1.81383
1.85192
1.88908
1.92482
1.95861
1.9905
2.02095
2.05036
2.07887
2.10689
2.13462
2.16227
2.18996
2.21766
2.24556
2.27356
2.30186
2.32998
2.35784
2.38509
2.41093
2.43644
2.46027
2.48406
2.50745
2.53086
2.55497
2.57913
2.60388
2.62924
2.65398
2.6785
2.70344
2.7277
2.75126
2.77453
2.79707
2.81909
2.83965
2.85909
2.87803
2.89574
2.91332
2.93099
2.94599
2.95649
2.96626
2.97617
2.98527
2.99349
3.0004
3.00614
3.0105
3.01427
3.01736
3.02028
3.02319
3.02552
3.02723
3.02931
3.03074
3.03181
3.03343
3.03558
3.03755
3.03983
3.04005
3.03796
3.03478
3.03128
3.02835
3.02732
3.02723
3.0247
3.02091
3.01693
3.01316
3.00942
3.00651
3.00439
3.00288
3.00184
3.00114
3.00069
3.00041
3.00024
3.00014
1.39725
1.41314
1.43707
1.46824
1.50074
1.53431
1.56871
1.60352
1.63885
1.67373
1.70801
1.74294
1.77851
1.81447
1.85048
1.88588
1.9201
1.95287
1.98406
2.01384
2.04276
2.07117
2.09928
2.12725
2.15521
2.1833
2.21158
2.24025
2.26929
2.29876
2.32829
2.35785
2.38673
2.41527
2.44256
2.47025
2.49683
2.52424
2.55182
2.57937
2.60798
2.6359
2.66423
2.6927
2.71942
2.74632
2.77269
2.79673
2.81979
2.84358
2.86514
2.88587
2.90575
2.92444
2.94203
2.95899
2.97661
2.99062
2.99856
3.00627
3.01332
3.01949
3.02464
3.02843
3.03075
3.0319
3.03238
3.03259
3.03274
3.033
3.03338
3.03402
3.03446
3.03505
3.03559
3.03636
3.03751
3.04002
3.04265
3.04225
3.03947
3.03574
3.03193
3.0292
3.02902
3.02766
3.02433
3.02019
3.01616
3.01225
3.00866
3.00596
3.00399
3.00261
3.00166
3.00103
3.00062
3.00037
3.00022
3.00013
1.45514
1.45907
1.4749
1.49855
1.52793
1.55873
1.5909
1.62343
1.65588
1.68839
1.72124
1.75387
1.78647
1.81929
1.85222
1.88513
1.91776
1.94953
1.98027
2.01005
2.03917
2.06813
2.09712
2.12626
2.15541
2.18465
2.21392
2.24333
2.27293
2.30264
2.33237
2.36172
2.39098
2.41976
2.44874
2.4773
2.50676
2.53593
2.56601
2.59658
2.62697
2.65828
2.68871
2.71905
2.74921
2.77717
2.80486
2.83217
2.85602
2.87959
2.90314
2.92423
2.94417
2.96369
2.98017
2.99552
3.01257
3.02663
3.03368
3.03999
3.04552
3.05009
3.05354
3.05537
3.0554
3.05409
3.05204
3.04972
3.04739
3.04526
3.04345
3.04201
3.04119
3.04075
3.04041
3.0402
3.04072
3.04307
3.04506
3.04411
3.04084
3.03667
3.03261
3.03019
3.02992
3.02755
3.02364
3.01927
3.01519
3.01122
3.00787
3.00539
3.0036
3.00234
3.00148
3.00092
3.00056
3.00033
3.00019
3.00011
1.55629
1.52371
1.52095
1.5348
1.55488
1.58117
1.61055
1.64276
1.67528
1.70674
1.73728
1.76753
1.79786
1.82841
1.85911
1.8897
1.9201
1.95062
1.9809
2.01083
2.04061
2.07059
2.10073
2.13094
2.16104
2.19095
2.22058
2.25005
2.27932
2.30855
2.33765
2.36674
2.39584
2.42503
2.45453
2.48432
2.51463
2.54542
2.5768
2.60829
2.64081
2.67245
2.70508
2.73646
2.76736
2.7979
2.82586
2.85386
2.88081
2.90446
2.92823
2.95171
2.97091
2.99016
3.00845
3.02355
3.03906
3.05469
3.062
3.06655
3.07065
3.07386
3.07609
3.07661
3.07517
3.07233
3.06887
3.06528
3.06146
3.05738
3.05386
3.05102
3.04888
3.04737
3.04625
3.04526
3.04508
3.04665
3.04752
3.04577
3.04204
3.03755
3.03327
3.03102
3.03016
3.02699
3.0226
3.01811
3.01402
3.01011
3.00705
3.0048
3.00319
3.00207
3.00131
3.00081
3.00049
3.00029
3.00017
3.0001
1.85032
1.61812
1.58251
1.57782
1.59008
1.6083
1.63284
1.66089
1.69263
1.72483
1.75521
1.78393
1.81222
1.84073
1.86953
1.89872
1.9282
1.95802
1.9882
2.01858
2.04898
2.07902
2.10868
2.13815
2.16763
2.19718
2.22683
2.25647
2.28596
2.31528
2.34435
2.37339
2.40239
2.43173
2.46135
2.4916
2.52232
2.55369
2.58551
2.61786
2.6502
2.68308
2.7151
2.7473
2.77843
2.80867
2.83841
2.86602
2.89347
2.91977
2.94249
2.96601
2.98793
3.00542
3.02307
3.03892
3.05255
3.06846
3.0797
3.08311
3.08668
3.08955
3.09156
3.09178
3.08975
3.0863
3.08247
3.07809
3.07283
3.06775
3.06322
3.0594
3.05631
3.05393
3.05205
3.0504
3.04974
3.05051
3.04993
3.04713
3.04274
3.03796
3.03366
3.03168
3.02992
3.02592
3.02115
3.01669
3.01259
3.00896
3.00622
3.00422
3.00279
3.0018
3.00114
3.0007
3.00042
3.00025
3.00014
3.00009
2.35626
1.99219
1.70411
1.64211
1.63193
1.64443
1.66086
1.68283
1.70971
1.74023
1.77178
1.80119
1.82802
1.85424
1.88162
1.91041
1.94051
1.97098
2.00151
2.03163
2.06102
2.08985
2.11867
2.14755
2.17664
2.20592
2.23536
2.26482
2.29422
2.32342
2.35246
2.38137
2.41033
2.43953
2.4691
2.49927
2.52996
2.56136
2.59316
2.62546
2.65784
2.69015
2.72219
2.75354
2.78425
2.81444
2.84343
2.87219
2.89886
2.92524
2.94985
2.97118
2.99335
3.013
3.02816
3.04441
3.05814
3.07018
3.08389
3.09041
3.09265
3.09542
3.09752
3.09791
3.09598
3.09273
3.08907
3.08446
3.07904
3.07386
3.06916
3.06506
3.06168
3.05897
3.05657
3.05468
3.05403
3.05346
3.05145
3.04759
3.04266
3.03774
3.03365
3.0322
3.02903
3.02422
3.0193
3.01498
3.01104
3.00781
3.0054
3.00364
3.0024
3.00154
3.00097
3.0006
3.00036
3.00021
3.00012
3.00008
2.8098
2.48325
2.11681
1.78678
1.69707
1.68377
1.69848
1.71315
1.73153
1.75589
1.78513
1.81583
1.84656
1.87518
1.90198
1.92846
1.95557
1.98363
2.01243
2.04166
2.0711
2.10047
2.12967
2.15873
2.18779
2.21688
2.24604
2.2751
2.30405
2.33282
2.36148
2.39009
2.41881
2.44777
2.47715
2.50704
2.53752
2.56856
2.60004
2.63183
2.66364
2.69525
2.72645
2.75706
2.78719
2.81654
2.8454
2.87306
2.89989
2.92488
2.94897
2.97105
2.99063
3.01066
3.02757
3.04074
3.05536
3.06707
3.07713
3.08724
3.09046
3.09261
3.09506
3.09595
3.09459
3.09187
3.0887
3.08453
3.07967
3.07502
3.07077
3.06707
3.06393
3.06119
3.05873
3.0573
3.05638
3.05453
3.05128
3.04662
3.0414
3.03685
3.0342
3.03192
3.02714
3.02187
3.01711
3.01307
3.00949
3.00668
3.00459
3.00308
3.00202
3.0013
3.00081
3.0005
3.0003
3.00018
3.0001
3.00007
2.93862
2.86342
2.60196
2.25193
1.88614
1.75246
1.73778
1.75064
1.76602
1.78384
1.80499
1.83221
1.86148
1.89109
1.91947
1.9463
1.97237
1.99863
2.0257
2.05368
2.08238
2.11152
2.14077
2.16999
2.19909
2.22798
2.2567
2.28526
2.31376
2.34217
2.37058
2.39898
2.42753
2.4563
2.48545
2.51502
2.54506
2.57551
2.6063
2.63722
2.66809
2.69871
2.72894
2.75876
2.78807
2.81681
2.84474
2.87153
2.89703
2.92103
2.94363
2.96495
2.98457
3.00213
3.01967
3.03358
3.04509
3.05799
3.06719
3.07495
3.08185
3.08367
3.08601
3.08778
3.08714
3.08504
3.08249
3.07909
3.07523
3.07152
3.06813
3.06519
3.06252
3.06014
3.05866
3.05744
3.0557
3.05288
3.04872
3.04378
3.03932
3.03698
3.03471
3.02979
3.02431
3.01915
3.01477
3.01113
3.00799
3.00559
3.00382
3.00255
3.00167
3.00106
3.00067
3.00041
3.00025
3.00015
3.00009
3.00005
2.9832
2.96171
2.88546
2.73116
2.36976
2.03239
1.83245
1.81199
1.80718
1.82149
1.83618
1.85618
1.88067
1.90706
1.93373
1.96
1.98602
2.01237
2.03952
2.06748
2.09603
2.12479
2.15354
2.18206
2.21038
2.23848
2.26647
2.29445
2.32249
2.35059
2.37878
2.40709
2.43556
2.46425
2.49321
2.52245
2.55198
2.58173
2.61163
2.64152
2.67128
2.70081
2.73008
2.75907
2.78755
2.81525
2.84184
2.86729
2.89147
2.91435
2.93593
2.95601
2.97483
2.99187
3.00725
3.02182
3.03313
3.04324
3.05384
3.06043
3.06613
3.071
3.0725
3.07466
3.07511
3.07367
3.07181
3.06937
3.06663
3.06406
3.06175
3.05954
3.05776
3.05674
3.05562
3.05417
3.05192
3.04834
3.04419
3.04066
3.04038
3.03682
3.03179
3.02637
3.02109
3.01633
3.0124
3.00921
3.00655
3.00455
3.00309
3.00206
3.00134
3.00085
3.00053
3.00033
3.0002
3.00012
3.00007
3.00005
2.99546
2.9922
2.97351
2.92826
2.8135
2.5618
2.19789
1.94654
1.88117
1.86586
1.8767
1.8881
1.90386
1.92509
1.94908
1.97469
2.00076
2.02717
2.05416
2.08181
2.1099
2.13809
2.16617
2.19404
2.22171
2.24923
2.2767
2.30417
2.33179
2.35956
2.38751
2.41566
2.44398
2.47243
2.50099
2.52962
2.55829
2.58702
2.61576
2.64447
2.67309
2.70169
2.7301
2.75801
2.78512
2.81139
2.83669
2.86091
2.8839
2.90563
2.92601
2.94512
2.96281
2.97901
2.99377
3.00682
3.01867
3.02813
3.03664
3.04464
3.04902
3.05354
3.05733
3.05848
3.05978
3.05927
3.05806
3.05662
3.05511
3.05364
3.05239
3.05165
3.05115
3.05058
3.04953
3.0476
3.04496
3.04259
3.0431
3.04133
3.03756
3.03277
3.0276
3.02247
3.01769
3.01347
3.01003
3.00735
3.0052
3.00358
3.00242
3.0016
3.00104
3.00066
3.00041
3.00025
3.00015
3.00009
3.00006
3.00004
2.99906
2.99843
2.99441
2.98441
2.94977
2.89191
2.69421
2.43562
2.11312
1.94639
1.93129
1.92519
1.94021
1.95439
1.97281
1.99246
2.01647
2.04205
2.06822
2.09488
2.1221
2.14963
2.17723
2.20473
2.23214
2.25946
2.28673
2.31401
2.34139
2.36898
2.39669
2.42447
2.45234
2.48025
2.50813
2.53594
2.56362
2.5912
2.61874
2.64638
2.6741
2.7016
2.72859
2.75494
2.78068
2.80567
2.82974
2.85271
2.87446
2.89498
2.91426
2.93231
2.94904
2.96448
2.9784
2.99096
3.00196
3.0115
3.01959
3.02637
3.03194
3.03528
3.03919
3.04196
3.04267
3.04317
3.04278
3.0423
3.04198
3.0417
3.04174
3.04189
3.04189
3.04148
3.04052
3.03994
3.04178
3.0417
3.03988
3.0367
3.03254
3.0278
3.02292
3.01827
3.01415
3.01064
3.00777
3.0056
3.00395
3.00271
3.00182
3.0012
3.00077
3.00049
3.00031
3.00019
3.00012
3.00007
3.00004
3.00003
2.99981
2.99969
2.99887
2.99686
2.98928
2.97621
2.92689
2.84121
2.6011
2.3294
2.07822
1.99567
1.98364
1.99134
2.00384
2.0199
2.04015
2.06111
2.08409
2.10829
2.13354
2.15976
2.18659
2.21377
2.24104
2.26837
2.2957
2.323
2.35028
2.37755
2.40488
2.43213
2.45935
2.48656
2.51365
2.54058
2.56732
2.59399
2.6207
2.64742
2.67385
2.69972
2.72518
2.75017
2.77461
2.79831
2.82106
2.84272
2.8632
2.88254
2.90075
2.91786
2.93378
2.94845
2.96174
2.97368
2.98419
2.99342
3.0012
3.0079
3.01318
3.01722
3.02039
3.0236
3.02528
3.02601
3.0266
3.02712
3.02788
3.02864
3.02952
3.03023
3.03077
3.03243
3.03499
3.03645
3.03701
3.03621
3.03402
3.03072
3.02667
3.02228
3.01796
3.01404