/*--------------------------------*- C++ -*----------------------------------*\
  =========                 |
  \\      /  F ield         | OpenFOAM: The Open Source CFD Toolbox
   \\    /   O peration     | Website:  https://openfoam.org
    \\  /    A nd           | Version:  6
     \\/     M anipulation  |
\*---------------------------------------------------------------------------*/
FoamFile
{
    version     2.0;
    format      ascii;
    class       volScalarField;
    location    "0.5";
    object      p;
}
// * * * * * * * * * * * * * * * * * * * * * * * * * * * * * * * * * * * * * //

dimensions      [1 -1 -2 0 0 0 0];

internalField   nonuniform List<scalar> 
5250
(
1
1.00001
1.00004
1.0001
1.00022
1.0006
1.0013
1.00359
1.00749
1.02156
1.04329
1.13378
1.26285
1.88174
3.059
7.44387
15.9375
14.851
13.4301
12.8699
12.6415
12.5755
12.5513
12.5285
12.5852
1
1.00001
1.00004
1.0001
1.00022
1.00059
1.00128
1.00355
1.0074
1.02132
1.04284
1.13266
1.26052
1.87612
3.04684
7.4105
15.8842
14.784
13.382
12.8292
12.6181
12.5671
12.5543
12.5336
12.5903
1
1.00001
1.00003
1.00009
1.00021
1.00057
1.00124
1.00344
1.00719
1.02081
1.04185
1.13012
1.25547
1.86252
3.01669
7.32079
15.7525
14.6501
13.273
12.7326
12.5533
12.5262
12.5343
12.519
12.5765
1
1.00001
1.00003
1.00009
1.0002
1.00054
1.00117
1.00328
1.00686
1.01997
1.04023
1.12581
1.24694
1.83894
2.96345
7.15887
15.5334
14.4753
13.1133
12.5839
12.4421
12.4426
12.4843
12.4767
12.5347
1
1.00001
1.00003
1.00008
1.00018
1.0005
1.00108
1.00305
1.00639
1.01873
1.03784
1.11947
1.23438
1.80389
2.88355
6.91688
15.2189
14.2624
12.9129
12.3923
12.2911
12.3234
12.3995
12.3959
12.4517
1
1.00001
1.00003
1.00008
1.00017
1.00046
1.00098
1.00276
1.00577
1.01708
1.0345
1.11085
1.2165
1.75623
2.77184
6.58022
14.7707
14.0086
12.6955
12.1696
12.1022
12.1723
12.2745
12.2732
12.3253
1
1.00001
1.00003
1.00007
1.00015
1.00041
1.00087
1.00243
1.00506
1.01507
1.03009
1.09964
1.1913
1.69261
2.61962
6.13319
14.1152
13.6605
12.5264
11.9556
11.8834
11.9801
12.0908
12.085
12.1283
1
1.00001
1.00002
1.00006
1.00014
1.00036
1.00076
1.0021
1.00435
1.01291
1.02531
1.08595
1.16097
1.60297
2.40366
5.52552
13.1425
13.3691
12.5413
11.7442
11.6149
11.7195
11.8203
11.7968
11.8161
1
1.00001
1.00002
1.00006
1.00012
1.00032
1.00067
1.00181
1.00373
1.01083
1.02097
1.07121
1.12914
1.50015
2.12911
4.75711
11.5606
13.4039
12.5464
11.5165
11.2971
11.3793
11.4199
11.3368
11.2647
1
1.00001
1.00002
1.00005
1.00011
1.00029
1.00061
1.0016
1.0033
1.00922
1.01808
1.05755
1.10278
1.39187
1.83489
3.84284
9.18741
13.668
12.624
11.2578
10.9091
10.9232
10.85
10.582
10.1562
1
1.00001
1.00002
1.00005
1.0001
1.00026
1.00054
1.00144
1.00297
1.00817
1.01627
1.04892
1.08981
1.31436
1.64398
3.10237
6.69253
13.5873
12.5085
10.9504
10.4804
10.3566
10.0467
9.31335
7.54962
1
1.00001
1.00001
1.00004
1.00009
1.00022
1.00048
1.00127
1.00263
1.00717
1.01438
1.04237
1.07802
1.2698
1.51974
2.79671
5.5882
12.7693
12.0287
10.6249
10.0508
9.76783
9.22634
8.2403
6.4815
1
1
1.00001
1.00003
1.00007
1.00019
1.0004
1.00106
1.00221
1.00609
1.01227
1.03602
1.06727
1.23008
1.42387
2.55305
4.71781
11.1542
11.0037
10.3522
9.6554
9.21033
8.57769
7.62539
6.3162
1
1
1.00001
1.00003
1.00006
1.00015
1.00031
1.00084
1.00175
1.00488
1.00965
1.02967
1.05193
1.19594
1.3326
2.31478
3.99929
9.50428
10.3311
9.99681
9.31313
8.76842
8.14015
7.32377
6.32438
1
1
1.00001
1.00002
1.00004
1.00011
1.00024
1.00064
1.00134
1.00376
1.00738
1.0232
1.0397
1.15475
1.25131
2.0503
3.28205
7.67665
9.98499
9.737
9.10862
8.45916
7.84967
7.1522
6.34746
1
1
1.00001
1.00001
1.00003
1.00009
1.00018
1.0005
1.00106
1.00295
1.00602
1.01744
1.0341
1.10743
1.20276
1.69383
2.54368
5.41619
9.65147
9.50137
8.98128
8.2672
7.64812
7.03604
6.35354
1
1
1
1.00001
1.00002
1.00006
1.00013
1.00036
1.00075
1.00211
1.00431
1.01253
1.0244
1.07761
1.14182
1.49869
2.07641
4.19871
8.68045
9.00852
8.73316
8.11545
7.48498
6.91592
6.34576
1
1
1
1.00001
1.00001
1.00004
1.00008
1.00023
1.0005
1.0014
1.00288
1.00847
1.01654
1.05333
1.09607
1.34848
1.70695
3.2772
6.72475
8.58029
8.45531
8.05378
7.43562
6.85656
6.32098
1
1
1
1
1.00001
1.00002
1.00005
1.00013
1.00027
1.00078
1.00158
1.00482
1.00922
1.03127
1.05556
1.20783
1.38207
2.33202
3.97956
7.86119
8.19449
7.96567
7.45084
6.86232
6.32642
1
1
1
1
1.00001
1.00001
1.00003
1.00008
1.00017
1.00049
1.00101
1.00291
1.00561
1.01831
1.0299
1.12865
1.19823
1.87536
2.81256
6.05357
7.76897
7.71916
7.44849
6.9067
6.36021
1
1
1
1
1
1.00001
1.00002
1.00005
1.0001
1.00028
1.00059
1.00172
1.00345
1.0107
1.02041
1.06925
1.12775
1.45267
1.95759
3.66431
6.78789
7.44483
7.35023
7.0314
6.4581
1
1
1
1
1
1
1.00001
1.00002
1.00004
1.00012
1.00023
1.00078
1.00135
1.00529
1.00952
1.03489
1.06355
1.22864
1.47192
2.45839
4.54863
6.79348
7.12688
6.99516
6.65228
1
1
1
1
1
1
1
1.00001
1.00003
1.00007
1.00015
1.00043
1.00087
1.0026
1.00476
1.01672
1.02463
1.1214
1.17646
1.8257
2.63408
5.28493
6.69219
6.81385
6.65835
1
1
1
1
1
1
1
1
1.00001
1.00003
1.00006
1.0002
1.0004
1.00129
1.00251
1.00819
1.01523
1.05437
1.09982
1.36223
1.7416
3.08831
5.55011
6.43246
6.50324
1
1
1
1
1
1
1
1
1
1.00001
1.00003
1.00008
1.00017
1.00046
1.00079
1.00278
1.00331
1.02011
1.02366
1.16264
1.23128
1.99764
2.92444
5.5377
6.18195
1
1
1
1
1
1
1
1
1
1
1.00001
1.00002
1.00007
1.00013
1.00034
1.00065
1.00178
1.00271
1.01737
1.0206
1.16323
1.23186
1.98334
2.88704
5.25651
1
1
1
1
1
1
1
1
1
1
1
1.00001
1.00002
1.00003
1.00014
1.0002
1.00119
1.00187
1.00849
1.01417
1.05937
1.10209
1.37929
1.7302
2.90427
1
1
1
1
1
1
1
1
1
1
1
1
1.00001
1.00001
1.00006
1.0001
1.00038
1.00069
1.00225
1.00375
1.01574
1.02058
1.13855
1.16822
1.81229
1
1
1
1
1
1
1
1
1
1
1
1
1
1.00001
1.00002
1.00004
1.00011
1.00016
1.00068
1.00078
1.00592
1.00746
1.04434
1.06633
1.28394
1
1
1
1
1
1
1
1
1
1
1
1
1
1
1
1.00001
1.00001
1.00007
1.00009
1.00051
1.00112
1.0027
1.00222
1.03303
1.03573
1
1
1
1
1
1
1
1
1
1
1
1
1
1
1
1
1.00001
1.00001
1.00005
1.00007
1.00042
1.00064
1.00248
1.00291
1.02245
1
1
1
1
1
1
1
1
1
1
1
1
1
1
1
1
1
1
1.00002
1.00003
1.00011
1.00017
1.00068
1.00078
1.00598
1
1
1
1
1
1
1
1
1
1
1
1
1
1
1
1
1
1
1
1.00001
1.00003
1.00004
1.00018
1.00026
1.00144
1
1
1
1
1
1
1
1
1
1
1
1
1
1
1
1
1
1
1
1
1.00001
1.00001
1.00005
1.00007
1.00031
1
1
1
1
1
1
1
1
1
1
1
1
1
1
1
1
1
1
1
1
1
1
1.00001
1.00002
1.00007
1
1
1
1
1
1
1
1
1
1
1
1
1
1
1
1
1
1
1
1
1
1
1
1
1
1
1
1
1
1
1
1
1
1
1
1
1
1
1
1
1
1
1
1
1
1
1
1
1
1
1
1
1
1
1
1
1
1
1
1
1
1
1
1
1
1
1
1
1
1
1
1
1
1
1
1
1
1
1
1
1
1
1
1
1
1
1
1
1
1
1
1
1
1
1
1
1
1
1
1
1
1
1
1
1
1
1
1
1
1
1
1
1
1
1
1
1
1
1
1
1
1
1
1
1
1
1
1
1
1
1
1
1
1
1
1
1
1
1
1
1
1
1
1
1
1
1
1
1
1
1
1
1
1
1
1
1
1
1
1
1
1
1
1
1
1
1
1
1
1
1
1
1
1
1
1
1
1
1
1
1
1
1
1
1
1
1
1
1
1
1
1
1
1
1
1
1
1
1
1
1
1
1
1
1
1
1
1
1
1
1
1
1
1
1
1
1
1
1
1
1
1
1
1
1
1
1
1
1
1
1
1
1
1
1
1
1
1
1
1
1
1
1
1
1
1
1
1
1
1
1
1
1
1
1
1
1
1
1
1
1
1
1
1
1
1
1
1
1
1
1
1
1
1
1
1
1
1
1
1
1
1
1
1
1
1
1
1
1
1
1
1
1
1
1
1
1
1
1
1
1
1
1
1
1
1
1
1
1
1
1
1
1
1
1
1
1
1
1
1
1
1
1
1
1
1
1
1
1
1
1
1
1
1
1
1
1
1
1
1
1
1
1
1
1
1
1
1
1
1
1
1
1
1
1
1
1
1
1
1
1
1
1
1
1
1
1
1
1
1
1
1
1
1
1
3.67015
1.96439
1.24451
0.903806
0.732396
0.651952
0.653624
0.668459
0.711246
0.810232
0.93621
1.02671
1.07149
1.0714
1.06722
1.05593
1.03333
1.01469
1.00279
0.996299
0.991728
0.987499
0.982866
0.977404
0.971104
0.964125
0.956612
0.948654
0.940289
0.931545
0.922487
0.913262
0.904097
0.895251
0.887016
0.879656
0.873239
0.867814
0.863575
0.860128
0.856935
0.854822
0.85335
0.851295
0.848997
0.847649
0.846493
0.84615
0.846185
0.846408
0.84671
0.847562
0.850387
0.854217
0.858702
0.863659
0.86927
0.875521
0.882282
0.889393
0.896679
0.904043
0.911441
0.918883
0.926414
0.934071
0.941823
0.949557
0.957105
0.964306
0.97113
0.977685
0.984178
0.990826
0.99774
1.00482
1.01169
1.01783
1.02266
1.02581
1.02732
1.02771
1.0277
1.02759
1.02714
1.02585
1.02277
1.0171
1.01121
1.00698
1.00416
1.00234
1.00114
1.00048
1.00023
1.0001
1.00003
0.999999
0.999988
0.999965
4.12149
2.57045
1.75494
1.344
1.15146
1.07745
1.06654
1.06111
1.04382
1.00572
0.974674
0.972794
0.97631
0.985623
1.0043
1.0227
1.03153
1.03072
1.02764
1.02025
1.00845
0.997451
0.987223
0.977952
0.969661
0.962101
0.954849
0.947535
0.939878
0.931705
0.923007
0.913937
0.904758
0.895786
0.887365
0.879776
0.873176
0.86765
0.863207
0.859714
0.856883
0.854386
0.8525
0.851169
0.84955
0.847483
0.846165
0.846075
0.846158
0.846359
0.846899
0.847988
0.849876
0.853642
0.859521
0.863863
0.86924
0.875418
0.882117
0.889127
0.896309
0.903557
0.910837
0.918188
0.925674
0.933329
0.941114
0.948905
0.956542
0.963867
0.970804
0.977453
0.984029
0.990743
0.997702
1.00481
1.01172
1.01788
1.02271
1.02584
1.02734
1.02773
1.02773
1.02762
1.02718
1.02597
1.02308
1.01692
1.01106
1.00697
1.00421
1.00232
1.00106
1.0005
1.00024
1.0001
1.00003
0.999999
0.999987
0.999962
4.82844
3.61959
2.77864
2.21736
1.82916
1.54827
1.34367
1.1923
1.08767
1.00454
0.944947
0.914797
0.915482
0.920618
0.931504
0.955259
0.978488
0.994568
1.00213
1.0016
0.999321
0.99408
0.984378
0.974779
0.96611
0.957871
0.949928
0.942221
0.934512
0.926573
0.918302
0.909737
0.901057
0.892555
0.884523
0.877206
0.870821
0.865426
0.861002
0.857541
0.854762
0.852262
0.850218
0.848939
0.847544
0.845855
0.844332
0.844286
0.844411
0.844784
0.845609
0.846929
0.848867
0.852864
0.858658
0.863245
0.868766
0.875042
0.881805
0.888858
0.89606
0.903317
0.910603
0.917948
0.925409
0.933031
0.940788
0.948565
0.956188
0.963519
0.970524
0.977266
0.983935
0.990742
0.997787
1.00497
1.01193
1.0181
1.02292
1.02602
1.02748
1.02785
1.02785
1.02774
1.02729
1.02605
1.02304
1.01674
1.01093
1.00688
1.00413
1.00225
1.00102
1.00051
1.00024
1.0001
1.00003
0.999999
0.999987
0.999962
5.22883
4.23637
3.42408
2.79366
2.31224
1.94374
1.66545
1.45881
1.30008
1.18669
1.10892
1.05191
1.01301
0.987316
0.971324
0.966691
0.967469
0.969952
0.975391
0.981971
0.987675
0.988572
0.987883
0.985552
0.980581
0.971779
0.962099
0.952058
0.941752
0.931662
0.921878
0.912364
0.903162
0.894433
0.886394
0.87912
0.872723
0.867345
0.862866
0.8593
0.856437
0.853803
0.851538
0.850103
0.84855
0.846599
0.845196
0.845071
0.845153
0.845386
0.84593
0.847144
0.850102
0.854001
0.858585
0.863697
0.869426
0.875715
0.882426
0.889405
0.896518
0.90368
0.910867
0.918106
0.925456
0.932963
0.940623
0.948342
0.955969
0.963365
0.970478
0.977362
0.984185
0.991154
0.998365
1.00567
1.01269
1.01886
1.02363
1.02665
1.02801
1.02831
1.0283
1.02815
1.0276
1.02614
1.02299
1.01639
1.01072
1.00677
1.00405
1.00212
1.00099
1.00052
1.00024
1.0001
1.00003
0.999999
0.999987
0.999961
5.47312
4.62573
3.88042
3.25589
2.74939
2.34698
2.02928
1.77948
1.58156
1.42445
1.29972
1.19892
1.11855
1.05594
1.00908
0.974793
0.953714
0.942062
0.941094
0.94183
0.944008
0.948297
0.952678
0.955309
0.955079
0.953766
0.951359
0.945373
0.937079
0.927929
0.918065
0.908036
0.898276
0.889129
0.880838
0.873508
0.867204
0.862064
0.857941
0.854684
0.852064
0.849775
0.847823
0.846236
0.84472
0.843065
0.841908
0.841782
0.841849
0.842069
0.842643
0.844491
0.847476
0.851514
0.856407
0.861976
0.868112
0.874717
0.881662
0.888798
0.895997
0.903184
0.910351
0.917542
0.92483
0.932273
0.939881
0.94758
0.955225
0.962674
0.969877
0.976902
0.983919
0.991102
0.998527
1.00602
1.01316
1.01936
1.02409
1.02705
1.02835
1.02863
1.02861
1.02844
1.02783
1.02624
1.02282
1.01594
1.01043
1.00656
1.00388
1.00199
1.00097
1.00051
1.00024
1.0001
1.00003
0.999999
0.999987
0.999962
5.6299
4.90623
4.23641
3.64757
3.14676
2.72936
2.3847
2.10078
1.86777
1.67593
1.51797
1.38827
1.28101
1.19263
1.12035
1.06266
1.01814
0.984839
0.96164
0.946821
0.938229
0.936131
0.936291
0.937046
0.938839
0.942418
0.94299
0.942476
0.940684
0.93657
0.928218
0.918097
0.907566
0.897265
0.887612
0.879034
0.8717
0.865659
0.860852
0.857099
0.854165
0.851749
0.849627
0.847838
0.846236
0.84456
0.843324
0.843077
0.843147
0.843389
0.84407
0.845573
0.848615
0.852634
0.857475
0.86303
0.869172
0.875761
0.882653
0.889705
0.896792
0.903846
0.910869
0.917921
0.925082
0.932426
0.93995
0.947588
0.955208
0.962674
0.969942
0.977087
0.984276
0.991657
0.999276
1.00691
1.01413
1.0203
1.025
1.02778
1.029
1.02926
1.0292
1.02894
1.02824
1.02652
1.02263
1.01551
1.01014
1.00637
1.00372
1.00187
1.00097
1.00051
1.00024
1.0001
1.00003
1
0.999988
0.999962
5.72662
5.10069
4.5051
3.96213
3.4819
3.06545
2.70902
2.40643
2.15019
1.93342
1.74982
1.59442
1.46298
1.35184
1.25775
1.17835
1.11174
1.0568
1.01274
0.97874
0.953428
0.935697
0.925062
0.919505
0.917666
0.917757
0.918143
0.918386
0.918217
0.91733
0.914785
0.90923
0.901642
0.893547
0.885267
0.877351
0.870032
0.863557
0.85812
0.853696
0.850162
0.847321
0.844859
0.842835
0.841205
0.83955
0.838531
0.838481
0.838597
0.838982
0.839932
0.841961
0.845359
0.84973
0.854977
0.860969
0.867545
0.87453
0.88175
0.889056
0.896334
0.903527
0.910655
0.9178
0.925036
0.932418
0.939981
0.947693
0.955405
0.962971
0.970374
0.97765
0.984981
0.992526
1.00031
1.00805
1.01524
1.02129
1.02589
1.02851
1.02945
1.02949
1.02941
1.02923
1.02866
1.02676
1.02256
1.01512
1.00979
1.0061
1.0035
1.00175
1.00095
1.0005
1.00023
1.00009
1.00003
1
0.999988
0.999964
5.77891
5.23264
4.70422
4.20926
3.75751
3.35327
2.99686
2.68542
2.41493
2.18102
1.97917
1.80511
1.65452
1.5243
1.4118
1.31493
1.23182
1.16094
1.10088
1.05076
1.00977
0.9772
0.952243
0.933924
0.921131
0.913013
0.908367
0.905578
0.903678
0.902257
0.900563
0.898525
0.895389
0.891377
0.886453
0.880981
0.875201
0.869398
0.863932
0.859
0.854663
0.850906
0.847579
0.844678
0.842369
0.840321
0.838831
0.838572
0.838663
0.839
0.839873
0.841743
0.845204
0.849739
0.855164
0.861316
0.868019
0.875082
0.882337
0.889653
0.896931
0.904096
0.911186
0.918332
0.925612
0.933021
0.940604
0.948388
0.956218
0.963934
0.971476
0.979012
0.986696
0.994553
1.00255
1.01039
1.01744
1.02328
1.02752
1.02966
1.03021
1.03055
1.03067
1.03042
1.02955
1.02708
1.02156
1.01444
1.00941
1.00586
1.00329
1.00169
1.00094
1.00049
1.00023
1.0001
1.00003
1
0.999989
0.999965
5.81425
5.32795
4.85684
4.40749
3.98807
3.60276
3.25353
2.94076
2.66307
2.41764
2.20153
2.01155
1.84514
1.69975
1.57262
1.4615
1.36455
1.28019
1.20712
1.14411
1.09021
1.04449
1.00621
0.974787
0.949526
0.929678
0.914431
0.903054
0.894939
0.889103
0.884768
0.88108
0.877868
0.875212
0.872893
0.870522
0.867901
0.8649
0.861651
0.858249
0.854743
0.851144
0.847534
0.844045
0.840956
0.838316
0.836112
0.835172
0.835183
0.835386
0.836053
0.837614
0.840871
0.84579
0.851624
0.858157
0.865203
0.872543
0.880005
0.887454
0.89481
0.9021
0.909267
0.916401
0.923798
0.93139
0.939087
0.947089
0.955253
0.963345
0.971346
0.979328
0.987476
0.995822
1.0042
1.01227
1.01934
1.02493
1.02873
1.03052
1.03138
1.03196
1.03185
1.03141
1.03007
1.02687
1.02014
1.01363
1.00892
1.00552
1.00304
1.00162
1.00091
1.00047
1.00022
1.00009
1.00003
1
0.99999
0.999967
5.86235
5.40802
4.97986
4.56914
4.17923
3.81381
3.47602
3.16716
2.88706
2.63543
2.41057
2.21065
2.03318
1.87574
1.73637
1.61324
1.50465
1.40901
1.32501
1.25141
1.18721
1.13128
1.08275
1.04077
1.00461
0.973691
0.947581
0.925832
0.908009
0.893765
0.882671
0.874403
0.868454
0.864207
0.861206
0.85939
0.858428
0.857939
0.857392
0.856482
0.855296
0.853222
0.850494
0.847369
0.844183
0.841236
0.838723
0.837155
0.836829
0.836912
0.837301
0.838402
0.840822
0.845558
0.851327
0.857804
0.864767
0.872001
0.879347
0.886652
0.893809
0.900885
0.908192
0.915277
0.922542
0.929956
0.937617
0.945825
0.954273
0.962374
0.970697
0.979165
0.987899
0.996849
1.00572
1.01403
1.02118
1.0266
1.03005
1.03203
1.03333
1.03341
1.0332
1.03249
1.03054
1.02629
1.01892
1.0129
1.00844
1.00517
1.00282
1.00158
1.00089
1.00046
1.00022
1.00009
1.00003
1
0.999991
0.999969
5.9597
5.51713
5.10801
4.71975
4.34776
3.99794
3.67161
3.36932
3.09133
2.83761
2.60771
2.40058
2.21427
2.04713
1.89765
1.76442
1.6462
1.5415
1.44883
1.36661
1.29369
1.22908
1.17181
1.12097
1.07584
1.03576
1.0002
0.968859
0.941506
0.918157
0.89858
0.882692
0.870285
0.861107
0.854789
0.850759
0.848595
0.847345
0.846694
0.846447
0.846215
0.84571
0.844577
0.842857
0.840878
0.838957
0.837483
0.836825
0.836778
0.836887
0.837326
0.838576
0.841299
0.846485
0.852458
0.859147
0.866326
0.873734
0.881182
0.888439
0.895714
0.903194
0.910086
0.916833
0.923776
0.931035
0.938521
0.946264
0.954426
0.96299
0.971395
0.979748
0.98875
0.99805
1.00719
1.01557
1.02259
1.02783
1.03128
1.03369
1.03451
1.03443
1.03411
1.03317
1.03079
1.02565
1.01803
1.0122
1.00794
1.00477
1.00261
1.00152
1.00085
1.00044
1.00021
1.00009
1.00003
1
0.999992
0.999972
6.12541
5.64796
5.23282
4.85647
4.50663
4.17026
3.8503
3.55118
3.27471
3.02068
2.78818
2.57669
2.38597
2.21398
2.05853
1.91831
1.79222
1.67904
1.5778
1.48737
1.40659
1.33424
1.26931
1.21085
1.15801
1.11021
1.06689
1.02782
0.992706
0.96147
0.934123
0.91066
0.891114
0.875284
0.86298
0.853877
0.847399
0.843163
0.840442
0.838763
0.837283
0.836009
0.834889
0.833915
0.833035
0.832592
0.832544
0.832628
0.832976
0.833986
0.836216
0.839702
0.844059
0.849395
0.855782
0.862987
0.870576
0.878175
0.885618
0.893225
0.90119
0.908455
0.915323
0.922243
0.929241
0.936453
0.943923
0.951531
0.959188
0.967266
0.975656
0.983886
0.99241
1.00161
1.0106
1.01869
1.02528
1.0302
1.03381
1.03556
1.03566
1.03559
1.03524
1.03416
1.03137
1.02512
1.01726
1.0116
1.00749
1.00443
1.00249
1.00147
1.00082
1.00042
1.0002
1.00008
1.00003
1
0.999994
0.999974
6.31252
5.82426
5.38157
4.99542
4.6452
4.32217
4.01944
3.73023
3.4569
3.20257
2.96811
2.7533
2.55694
2.37823
2.2164
2.06988
1.93729
1.81748
1.70943
1.61202
1.52418
1.44476
1.37277
1.30731
1.24759
1.193
1.14307
1.09743
1.05592
1.01838
0.984735
0.954935
0.928908
0.906658
0.888032
0.872759
0.860512
0.850855
0.843345
0.837496
0.832977
0.82944
0.826668
0.824289
0.822177
0.820862
0.820871
0.821112
0.821852
0.823467
0.826786
0.831673
0.837449
0.844055
0.851825
0.860417
0.869011
0.877377
0.886065
0.895324
0.903737
0.911495
0.918953
0.926258
0.933529
0.940876
0.948402
0.956115
0.96418
0.972522
0.981306
0.989844
0.998122
1.00702
1.0157
1.02334
1.02942
1.0341
1.03695
1.0375
1.03752
1.03742
1.03694
1.03537
1.03145
1.02341
1.01616
1.0109
1.00699
1.00408
1.00238
1.0014
1.00078
1.0004
1.00019
1.00008
1.00003
1
0.999995
0.999977
6.35786
6.02406
5.57283
5.16067
4.7987
4.47259
4.16995
3.88832
3.6237
3.37284
3.13801
2.92112
2.72187
2.53964
2.37343
2.22195
2.08393
1.95818
1.84389
1.73999
1.64537
1.55921
1.48054
1.40851
1.34239
1.28163
1.22575
1.17453
1.12761
1.08485
1.04607
1.01119
0.98009
0.952608
0.928547
0.907639
0.889648
0.874263
0.861117
0.849946
0.840473
0.832455
0.825804
0.820408
0.816461
0.813626
0.812181
0.811998
0.812201
0.812923
0.814712
0.818469
0.824289
0.830775
0.838759
0.847605
0.856028
0.864542
0.874516
0.884291
0.893418
0.902426
0.911325
0.920239
0.929195
0.938328
0.947546
0.956804
0.966174
0.975517
0.984923
0.99473
1.00399
1.01303
1.02166
1.02915
1.03506
1.03917
1.04045
1.04056
1.04052
1.04022
1.0392
1.0363
1.0298
1.02148
1.01507
1.01018
1.00645
1.00376
1.00228
1.00133
1.00074
1.00039
1.00019
1.00008
1.00003
1.00001
0.999997
0.999979
6.21365
6.0778
5.77
5.35438
4.97226
4.63534
4.33065
4.04854
3.78347
3.53595
3.30487
3.088
2.88674
2.70131
2.53126
2.37523
2.23208
2.10081
1.98045
1.8702
1.76912
1.67638
1.59125
1.51299
1.44095
1.37457
1.31342
1.25712
1.20542
1.15816
1.1151
1.07603
1.04072
1.009
0.980534
0.955093
0.932264
0.911796
0.893441
0.877019
0.862386
0.849486
0.838213
0.82868
0.820796
0.814508
0.810255
0.807358
0.807095
0.807325
0.808206
0.810294
0.814558
0.819328
0.824947
0.831965
0.838299
0.845301
0.85467
0.863708
0.872893
0.882479
0.892472
0.90295
0.913945
0.925461
0.937248
0.949201
0.961184
0.973095
0.984894
0.996225
1.00718
1.01733
1.02649
1.03427
1.04035
1.04345
1.04381
1.04379
1.04358
1.04284
1.04079
1.03592
1.02761
1.01999
1.01401
1.00941
1.00587
1.00349
1.00214
1.00125
1.00069
1.00036
1.00018
1.00008
1.00003
1.00001
0.999998
0.999982
5.90137
5.92968
5.80915
5.54584
5.17318
4.82082
4.50406
4.21624
3.95003
3.70049
3.46628
3.24887
3.04784
2.86179
2.6892
2.52938
2.38142
2.24476
2.11863
2.00241
1.89547
1.79695
1.706
1.62202
1.54443
1.47275
1.40654
1.34551
1.28936
1.23786
1.19079
1.14792
1.10894
1.07349
1.04126
1.01188
0.985063
0.960456
0.937848
0.917035
0.89792
0.880585
0.865006
0.851302
0.839538
0.829728
0.821853
0.815969
0.81201
0.809608
0.809608
0.809991
0.811168
0.813899
0.81818
0.823843
0.829277
0.834394
0.841957
0.849395
0.857262
0.865947
0.875491
0.886087
0.897864
0.910644
0.924202
0.938281
0.952642
0.967022
0.981173
0.994882
1.00768
1.01927
1.02944
1.0379
1.04393
1.04637
1.04651
1.04641
1.04598
1.0447
1.04154
1.03476
1.02598
1.01868
1.01301
1.00866
1.00534
1.00326
1.002
1.00117
1.00065
1.00034
1.00017
1.00008
1.00003
1.00001
1
0.999985
4.93824
5.54617
5.65357
5.55742
5.33617
5.01932
4.70174
4.40384
4.1285
3.87327
3.63558
3.4143
3.2087
3.01872
2.84351
2.68161
2.53145
2.39081
2.25957
2.13773
2.02491
1.92028
1.82344
1.73389
1.65108
1.57453
1.5038
1.43856
1.37847
1.32324
1.27257
1.22615
1.18364
1.14467
1.10891
1.07597
1.04556
1.01735
0.991162
0.966777
0.94419
0.923286
0.904202
0.887009
0.871804
0.858704
0.847667
0.838683
0.831807
0.82651
0.823373
0.821147
0.821188
0.821513
0.822448
0.824311
0.827899
0.83093
0.836257
0.842717
0.8497
0.857778
0.866917
0.877312
0.889155
0.902301
0.916388
0.931064
0.946308
0.962084
0.977717
0.992837
1.00702
1.01981
1.03084
1.03982
1.04589
1.04803
1.04812
1.04797
1.04736
1.04567
1.04172
1.03368
1.02459
1.01746
1.01205
1.00792
1.00488
1.00306
1.00186
1.00109
1.0006
1.00032
1.00016
1.00007
1.00003
1.00001
1
0.999987
2.48579
4.52889
5.2434
5.39638
5.32432
5.15667
4.89471
4.60845
4.32742
4.06246
3.81571
3.58705
3.37585
3.18118
3.00148
2.83485
2.67987
2.53585
2.40141
2.27522
2.157
2.04697
1.94492
1.85035
1.76273
1.68161
1.60655
1.53718
1.47316
1.41417
1.35986
1.30991
1.26392
1.22154
1.18237
1.14608
1.11234
1.08088
1.0515
1.02408
0.998534
0.974891
0.953138
0.933342
0.915515
0.89974
0.886083
0.874418
0.864832
0.857096
0.851057
0.846686
0.843664
0.841733
0.84108
0.841243
0.841768
0.842913
0.844894
0.848914
0.853969
0.860397
0.868114
0.877374
0.888507
0.901193
0.914822
0.929428
0.945211
0.961492
0.977773
0.993572
1.00838
1.02163
1.0329
1.0419
1.04758
1.04928
1.04941
1.04925
1.04856
1.04659
1.04199
1.03259
1.02326
1.01635
1.01119
1.00726
1.00453
1.00286
1.00173
1.00101
1.00056
1.0003
1.00015
1.00007
1.00003
1.00001
1
0.999989
1.49642
2.40847
3.97787
4.87608
5.14296
5.10746
4.99092
4.78292
4.52546
4.26206
4.00868
3.77087
3.55107
3.34885
3.16314
2.99209
2.83278
2.6838
2.54397
2.41312
2.29108
2.17722
2.07079
1.97161
1.87942
1.79387
1.71461
1.64125
1.57342
1.51074
1.45285
1.39936
1.34988
1.30405
1.26148
1.22186
1.18488
1.15032
1.11798
1.08779
1.05966
1.03361
1.00963
0.98775
0.967962
0.950236
0.934515
0.920762
0.90894
0.898953
0.890622
0.883827
0.878518
0.874171
0.871271
0.869115
0.867932
0.867998
0.86836
0.869577
0.872085
0.876782
0.883007
0.890916
0.900871
0.912388
0.924923
0.938775
0.953913
0.969572
0.985311
1.00059
1.01482
1.02745
1.03813
1.04617
1.05048
1.05179
1.05187
1.05167
1.05083
1.04827
1.04234
1.0309
1.02183
1.01528
1.01038
1.00668
1.00423
1.00266
1.0016
1.00093
1.00052
1.00028
1.00014
1.00007
1.00003
1.00001
1
0.999991
1.2259
1.37211
2.1352
3.40197
4.51695
4.88962
4.88983
4.81729
4.65568
4.43666
4.19682
3.96087
3.73531
3.52555
3.33243
3.15417
2.98932
2.83567
2.69166
2.55627
2.42903
2.3099
2.19895
2.09576
1.99982
1.9106
1.82765
1.75064
1.67921
1.61297
1.55154
1.49451
1.44151
1.39218
1.34617
1.30319
1.26298
1.22536
1.19017
1.15734
1.12679
1.09851
1.07248
1.04868
1.02709
1.00766
0.990363
0.97505
0.961577
0.949804
0.9396
0.930794
0.923395
0.917099
0.911805
0.907907
0.904779
0.902552
0.902375
0.902569
0.903439
0.90548
0.909915
0.916415
0.924993
0.935175
0.946412
0.959027
0.972853
0.987186
1.00152
1.01533
1.02806
1.03914
1.04815
1.05397
1.05664
1.05732
1.05728
1.05689
1.05543
1.05088
1.04034
1.02847
1.02027
1.0142
1.00959
1.00616
1.00394
1.00245
1.00148
1.00086
1.00048
1.00026
1.00013
1.00006
1.00003
1.00001
1
0.999993
1.0288
1.16683
1.27226
1.86722
2.83777
4.1527
4.60921
4.68638
4.63901
4.53225
4.36664
4.15483
3.93398
3.71862
3.51581
3.32822
3.15513
2.99449
2.84443
2.70371
2.57169
2.44804
2.33247
2.22464
2.12423
2.03085
1.94412
1.86352
1.7886
1.7189
1.65403
1.59358
1.53717
1.48446
1.43514
1.38896
1.3457
1.30519
1.26731
1.23197
1.19911
1.16869
1.14068
1.11507
1.09183
1.07084
1.05197
1.03513
1.02018
1.00699
0.995361
0.985057
0.975992
0.968107
0.961131
0.955307
0.950806
0.946951
0.944596
0.944382
0.944565
0.945402
0.947513
0.952002
0.959218
0.968104
0.977999
0.989166
1.00132
1.01382
1.02617
1.03776
1.04824
1.05696
1.06291
1.06613
1.06726
1.06735
1.06712
1.06589
1.06112
1.04901
1.03568
1.02613
1.01878
1.01314
1.00882
1.00568
1.00363
1.00225
1.00136
1.00079
1.00044
1.00024
1.00012
1.00006
1.00003
1.00001
1.00001
0.999995
1.00691
1.04738
1.0724
1.29414
1.54948
2.38198
3.83126
4.26626
4.48431
4.47084
4.40397
4.27076
4.09992
3.90718
3.71047
3.5189
3.33698
3.16655
3.00757
2.85923
2.72073
2.59145
2.47094
2.35869
2.25421
2.15696
2.0664
1.98204
1.90343
1.8301
1.76163
1.6976
1.63764
1.58144
1.52871
1.47925
1.43288
1.38947
1.34892
1.31113
1.27602
1.2436
1.21381
1.18651
1.16159
1.13898
1.11861
1.10034
1.08395
1.06929
1.05618
1.04447
1.03401
1.02472
1.01654
1.00931
1.00343
0.998683
0.99482
0.993105
0.993067
0.993332
0.994341
0.996818
1.002
1.00962
1.01814
1.02763
1.0378
1.04799
1.05781
1.06682
1.07425
1.07935
1.08232
1.08342
1.08349
1.08321
1.081
1.07325
1.05666
1.04379
1.03317
1.02439
1.01743
1.01212
1.00812
1.00524
1.00334
1.00207
1.00125
1.00073
1.00041
1.00022
1.00012
1.00006
1.00003
1.00001
1.00001
0.999997
1.00205
1.01035
1.01157
1.08833
1.10749
1.49748
1.87131
3.08199
3.92773
4.24889
4.29128
4.25461
4.1658
4.03375
3.87619
3.70372
3.52674
3.35284
3.18606
3.02868
2.88158
2.7447
2.6176
2.49964
2.39011
2.28829
2.19353
2.10519
2.02275
1.94568
1.87354
1.8059
1.74241
1.68275
1.62668
1.57403
1.52463
1.47838
1.43518
1.39501
1.35784
1.32349
1.29178
1.26266
1.23612
1.21199
1.1901
1.17027
1.15234
1.13616
1.12156
1.10836
1.09649
1.08582
1.07632
1.06799
1.06081
1.0551
1.05055
1.04738
1.04657
1.04665
1.04711
1.0485
1.05158
1.05757
1.06459
1.07219
1.08002
1.0877
1.09465
1.10016
1.10403
1.10623
1.10692
1.10691
1.10563
1.09928
1.0833
1.06786
1.05413
1.0419
1.03143
1.02288
1.01618
1.01117
1.00748
1.00483
1.00306
1.0019
1.00114
1.00067
1.00038
1.00021
1.00011
1.00006
1.00003
1.00001
1.00001
0.999998
1.00046
1.00211
1.00229
1.02008
1.02603
1.13371
1.22192
1.64933
2.32216
3.54583
3.90137
4.10655
4.09613
4.04387
3.94246
3.8284
3.68857
3.53255
3.3712
3.2117
3.05838
2.91367
2.77854
2.65299
2.53657
2.42857
2.32826
2.23491
2.14784
2.06646
1.99024
1.9187
1.85148
1.78827
1.72883
1.67298
1.62062
1.57168
1.52615
1.48384
1.44449
1.40802
1.37446
1.34369
1.31549
1.2897
1.26617
1.24473
1.22522
1.20747
1.19132
1.17663
1.16331
1.15123
1.14046
1.13087
1.12266
1.11572
1.11035
1.10624
1.10395
1.10366
1.10382
1.10448
1.10619
1.10997
1.11528
1.12082
1.12607
1.13098
1.13469
1.13708
1.13818
1.13823
1.13701
1.13073
1.1153
1.09912
1.08295
1.06728
1.0528
1.04018
1.0297
1.02136
1.01497
1.01023
1.00682
1.00442
1.00279
1.00172
1.00104
1.00061
1.00035
1.00019
1.0001
1.00005
1.00003
1.00001
1.00001
0.999999
1.0001
1.00044
1.00047
1.00418
1.00516
1.03071
1.04934
1.17963
1.34108
1.8483
2.73173
3.5672
3.82616
3.92794
3.90646
3.84583
3.74954
3.64799
3.52338
3.38371
3.23826
3.09375
2.95428
2.82215
2.69834
2.5829
2.47547
2.37553
2.28244
2.19559
2.11438
2.03828
1.96686
1.89981
1.83687
1.77787
1.72263
1.67103
1.62283
1.57789
1.53621
1.49778
1.46237
1.42975
1.39976
1.37223
1.34699
1.32388
1.30273
1.28337
1.26566
1.24946
1.23469
1.22125
1.20917
1.19839
1.18904
1.18102
1.1746
1.16945
1.16612
1.16404
1.16395
1.16412
1.16475
1.16625
1.16939
1.17258
1.17515
1.17716
1.17796
1.17784
1.17569
1.16796
1.15437
1.13871
1.12077
1.10188
1.08332
1.066
1.05072
1.03791
1.0276
1.0196
1.01359
1.00921
1.00609
1.00394
1.00249
1.00153
1.00092
1.00054
1.00031
1.00017
1.0001
1.00005
1.00003
1.00001
1.00001
1
1.00003
1.00005
1.00017
1.00022
1.00196
1.0021
1.01529
1.02072
1.11018
1.16916
1.52472
2.01986
3.03022
3.48789
3.70099
3.75249
3.72642
3.66429
3.57654
3.48689
3.37728
3.25436
3.12579
2.99702
2.87173
2.75178
2.63843
2.53193
2.43214
2.33877
2.2514
2.16963
2.09303
2.02124
1.954
1.89098
1.83206
1.77703
1.72577
1.6782
1.63433
1.59375
1.55623
1.5216
1.48968
1.46029
1.43326
1.4084
1.38555
1.36455
1.34524
1.3275
1.31125
1.29641
1.28298
1.27094
1.26032
1.25115
1.24351
1.23729
1.23265
1.22942
1.22756
1.22614
1.22577
1.22602
1.22663
1.2269
1.22663
1.225
1.22053
1.21277
1.20149
1.18618
1.16735
1.14611
1.12384
1.10183
1.08113
1.06269
1.04717
1.03462
1.02483
1.0174
1.01193
1.00801
1.00526
1.00339
1.00213
1.00132
1.00079
1.00047
1.00027
1.00015
1.00008
1.00004
1.00002
1.00001
1.00001
1
1
1.00001
1.00001
1.0001
1.00021
1.00058
1.0007
1.00748
1.00917
1.0538
1.08828
1.28066
1.53393
2.1901
3.06678
3.38374
3.55003
3.58251
3.55669
3.49685
3.42055
3.34313
3.25131
3.14634
3.03431
2.92077
2.8086
2.69951
2.59496
2.49579
2.40226
2.31423
2.23165
2.1542
2.08174
2.01412
1.95106
1.89243
1.83811
1.78781
1.74112
1.69787
1.65789
1.62097
1.5869
1.55547
1.52649
1.49974
1.47505
1.45226
1.43122
1.41178
1.39386
1.37743
1.36246
1.34893
1.33688
1.32632
1.31728
1.3097
1.30355
1.29872
1.29482
1.29135
1.28866
1.28677
1.2842
1.28034
1.27485
1.26692
1.25566
1.2405
1.22131
1.1987
1.17373
1.14769
1.12174
1.09707
1.07513
1.05671
1.04183
1.03017
1.02131
1.01475
1.01001
1.00666
1.00435
1.00278
1.00175
1.00108
1.00065
1.00038
1.00022
1.00013
1.00007
1.00004
1.00002
1.00001
1.00001
1
1
1
1
1.00002
1.00002
1.00014
1.00017
1.00129
1.00181
1.0094
1.01536
1.05836
1.10929
1.28734
1.58098
2.23248
2.96909
3.2417
3.38104
3.41995
3.39708
3.34372
3.27775
3.21138
3.13659
3.04964
2.95466
2.85658
2.75791
2.66008
2.56473
2.47308
2.38577
2.30332
2.22582
2.15329
2.08563
2.02264
1.96411
1.90988
1.8597
1.81329
1.7704
1.73077
1.69413
1.66025
1.6289
1.59985
1.57292
1.54795
1.52475
1.50321
1.48329
1.46495
1.44813
1.43282
1.41903
1.40673
1.3959
1.38645
1.37824
1.37098
1.36425
1.35782
1.35206
1.34605
1.33837
1.32869
1.31638
1.30067
1.28112
1.25774
1.23114
1.20224
1.17187
1.1411
1.112
1.08655
1.06537
1.04829
1.03494
1.02479
1.01726
1.01181
1.00793
1.00524
1.0034
1.00217
1.00136
1.00083
1.0005
1.0003
1.00017
1.0001
1.00005
1.00003
1.00002