/*--------------------------------*- C++ -*----------------------------------*\
  =========                 |
  \\      /  F ield         | OpenFOAM: The Open Source CFD Toolbox
   \\    /   O peration     | Website:  https://openfoam.org
    \\  /    A nd           | Version:  6
     \\/     M anipulation  |
\*---------------------------------------------------------------------------*/
FoamFile
{
    version     2.0;
    format      ascii;
    class       surfaceScalarField;
    location    "0.5";
    object      phi;
}
// * * * * * * * * * * * * * * * * * * * * * * * * * * * * * * * * * * * * * //

dimensions      [1 0 -1 0 0 0 0];

internalField   nonuniform List<scalar> 
10325
(
0.00840003
5.65948e-11
0.00840002
3.70944e-10
0.00840001
1.11304e-09
0.00839996
3.12536e-09
0.00839988
7.32076e-09
0.0083996
1.82324e-08
0.0083992
4.03621e-08
0.00839791
9.60242e-08
0.00839611
2.04688e-07
0.0083906
4.77828e-07
0.00838306
1.00091e-06
0.0083615
2.36803e-06
0.00833103
5.23335e-06
0.00825818
1.45939e-05
0.00824946
3.23739e-05
0.00755449
0.000184892
0.00616864
0.000790281
0.00519385
0.00092824
0.00432476
0.000827351
0.00332735
0.000784069
0.00237385
0.000761659
0.00157813
0.00072522
0.000970181
0.0006672
0.000427807
0.000687123
0.000610186
0.00840003
1.13585e-10
0.00840002
7.47103e-10
0.00840001
2.23773e-09
0.00839996
6.32924e-09
0.00839988
1.48466e-08
0.0083996
3.73726e-08
0.0083992
8.29716e-08
0.00839787
1.9975e-07
0.00839602
4.26842e-07
0.00839033
1.0107e-06
0.00838245
2.11546e-06
0.00835988
5.14061e-06
0.00832771
1.11853e-05
0.00824977
3.26305e-05
0.00823157
7.37753e-05
0.00747148
0.000428194
0.00594841
0.00172515
0.00502924
0.00181169
0.0042467
0.00155775
0.00334728
0.001459
0.00246446
0.00146007
0.00167862
0.00144249
0.00102518
0.00138679
0.000491315
0.00136749
0.00128478
0.00840003
1.66051e-10
0.00840002
1.09653e-09
0.00840001
3.28191e-09
0.00839996
9.37609e-09
0.00839988
2.20527e-08
0.0083996
5.64628e-08
0.00839919
1.26106e-07
0.00839781
3.09431e-07
0.00839589
6.65808e-07
0.00838985
1.60274e-06
0.00838134
3.38876e-06
0.00835704
8.31789e-06
0.00832163
1.82805e-05
0.00823661
5.37631e-05
0.00820925
0.000124079
0.00740104
0.000706436
0.00579688
0.00274025
0.00489897
0.00270229
0.00418236
0.00219895
0.00333543
0.0020654
0.00250997
0.00211576
0.00174643
0.00214598
0.00109199
0.00212059
0.000524532
0.0020836
0.00199271
0.00840003
2.07199e-10
0.00840002
1.36793e-09
0.00840001
4.09277e-09
0.00839997
1.17665e-08
0.00839989
2.77087e-08
0.00839961
7.22588e-08
0.00839921
1.62504e-07
0.00839776
4.09392e-07
0.00839578
8.9145e-07
0.00838924
2.18951e-06
0.00837985
4.72174e-06
0.00835321
1.16317e-05
0.00831318
2.60186e-05
0.00821926
7.6741e-05
0.00818598
0.000181333
0.0073411
0.001001
0.00563482
0.00383511
0.00480978
0.003572
0.00415431
0.00274061
0.00336363
0.0026083
0.00257953
0.0027532
0.00182954
0.00285901
0.00117816
0.00287404
0.000567046
0.00285059
0.00274472
0.00840003
2.34357e-10
0.00840003
1.54353e-09
0.00840002
4.61418e-09
0.00839998
1.32692e-08
0.00839991
3.11813e-08
0.00839965
8.23024e-08
0.00839928
1.85704e-07
0.00839778
4.81733e-07
0.0083958
1.06308e-06
0.00838853
2.6935e-06
0.00837805
5.9852e-06
0.00834825
1.48229e-05
0.00830072
3.42866e-05
0.00819605
0.000100633
0.00816092
0.000246269
0.00727986
0.00129998
0.00544887
0.0049917
0.0047467
0.00437655
0.00419239
0.00315734
0.00346343
0.00310797
0.0027191
0.00338097
0.00198715
0.00359619
0.00130458
0.00367482
0.000637771
0.00367532
0.00356563
0.00840003
2.42854e-10
0.00840003
1.60347e-09
0.00840002
4.79816e-09
0.00839999
1.38016e-08
0.00839994
3.23181e-08
0.00839972
8.56759e-08
0.0083994
1.92786e-07
0.00839799
5.11649e-07
0.00839617
1.13716e-06
0.00838835
2.99689e-06
0.00837659
6.8063e-06
0.00834297
1.75426e-05
0.00828633
4.18116e-05
0.00816516
0.000124826
0.00814467
0.000321332
0.00723016
0.00157793
0.00527625
0.00612417
0.00476396
0.00503963
0.00434895
0.00348175
0.00367762
0.00360391
0.00295522
0.00403776
0.00222515
0.00437732
0.00147753
0.00454931
0.000737003
0.00456919
0.00447558
0.00840003
2.33303e-10
0.00840003
1.54242e-09
0.00840002
4.64469e-09
0.0084
1.33347e-08
0.00839996
3.10665e-08
0.0083998
8.21831e-08
0.00839957
1.83169e-07
0.0083984
4.92821e-07
0.00839691
1.09106e-06
0.00838946
3.00946e-06
0.00837892
6.7106e-06
0.00834226
1.89253e-05
0.00827883
4.46442e-05
0.00812529
0.000143252
0.00815019
0.000393021
0.00718631
0.00178377
0.00521897
0.00710605
0.00500442
0.00531762
0.0047168
0.00391704
0.00405989
0.00418741
0.00332278
0.00476429
0.00255794
0.00521228
0.00175552
0.00547588
0.00089104
0.00557702
0.00552545
0.00840003
2.30922e-10
0.00840003
1.48982e-09
0.00840003
4.51403e-09
0.00840001
1.25929e-08
0.00839999
2.8937e-08
0.00839988
7.43748e-08
0.00839973
1.6231e-07
0.00839892
4.34927e-07
0.00839788
9.41661e-07
0.00839189
2.73558e-06
0.00838434
5.74766e-06
0.00834959
1.84054e-05
0.00828934
4.20491e-05
0.00812947
0.000141631
0.00808073
0.000423314
0.00722965
0.00180409
0.00542816
0.00747446
0.00572445
0.00558933
0.00532685
0.00455193
0.00458344
0.00486548
0.00382558
0.00552489
0.00304096
0.00608038
0.00213678
0.00649034
0.00114425
0.0066941
0.00680678
0.00840003
2.50263e-10
0.00840003
1.56915e-09
0.00840003
4.76617e-09
0.00840002
1.27721e-08
0.0084
2.89384e-08
0.00839994
6.96597e-08
0.00839987
1.48235e-07
0.00839941
3.68285e-07
0.00839885
7.71049e-07
0.00839516
2.16398e-06
0.00839097
4.28063e-06
0.00836299
1.50716e-05
0.00832005
3.19072e-05
0.00818348
0.000123066
0.00803947
0.000363873
0.0074871
0.00157893
0.00643199
0.00661333
0.00665959
0.00634987
0.00606434
0.00556502
0.00521564
0.00566508
0.00446331
0.00629302
0.00367396
0.00694655
0.00278176
0.00748435
0.00164388
0.00793686
0.00857039
0.00840003
2.83228e-10
0.00840003
1.74886e-09
0.00840003
5.30364e-09
0.00840002
1.39242e-08
0.00840001
3.13491e-08
0.00839997
7.2531e-08
0.00839991
1.52535e-07
0.00839967
3.51174e-07
0.00839938
7.21313e-07
0.0083977
1.78257e-06
0.0083956
3.455e-06
0.00838215
1.09626e-05
0.00836246
1.99589e-05
0.0082694
8.44383e-05
0.00817572
0.000220307
0.00799157
0.000974832
0.00811488
0.00416423
0.00797469
0.00742891
0.00680786
0.00697399
0.00587151
0.00648516
0.00523483
0.00695102
0.00458902
0.00766215
0.0037726
0.00837953
0.00266905
0.0091128
0.0113316
0.00840003
3.18573e-10
0.00840003
1.95155e-09
0.00840003
5.8836e-09
0.00840002
1.53418e-08
0.00840001
3.45122e-08
0.00839997
7.93478e-08
0.00839991
1.66887e-07
0.00839969
3.80474e-07
0.00839941
7.76937e-07
0.00839815
1.85878e-06
0.00839648
3.69919e-06
0.00838949
1.00254e-05
0.00837506
1.95302e-05
0.00834553
6.16349e-05
0.00829233
0.000168699
0.00840667
0.000541912
0.00934028
0.00228497
0.00869147
0.00821802
0.00730698
0.00822533
0.00647475
0.00720549
0.00600028
0.00747004
0.00563254
0.00810803
0.00536817
0.00869239
0.00552977
0.0089957
0.00816437
0.00874189
0.00840003
3.3159e-10
0.00840003
2.06156e-09
0.00840003
6.18205e-09
0.00840002
1.64301e-08
0.0084
3.73119e-08
0.00839996
8.79572e-08
0.0083999
1.8855e-07
0.0083997
4.34272e-07
0.00839938
9.13116e-07
0.00839844
2.10102e-06
0.00839673
4.35667e-06
0.0083916
1.05388e-05
0.00838481
2.12599e-05
0.00835956
5.87245e-05
0.00832789
0.00014903
0.00826533
0.000460764
0.00846415
0.00167793
0.00850374
0.0074214
0.00760263
0.00862358
0.00700125
0.00775944
0.00670048
0.00780895
0.00658295
0.00827628
0.00672352
0.00858152
0.00723554
0.00848194
0.00747457
0.00794457
0.00840003
3.03564e-10
0.00840003
1.92515e-09
0.00840003
5.7786e-09
0.00840002
1.56349e-08
0.00840001
3.57612e-08
0.00839997
8.59766e-08
0.00839992
1.85796e-07
0.00839973
4.3733e-07
0.00839947
9.26783e-07
0.00839841
2.18228e-06
0.00839734
4.68505e-06
0.00839305
1.07604e-05
0.00838272
2.41824e-05
0.00836694
5.80309e-05
0.00833638
0.000143384
0.00824667
0.000457572
0.00832527
0.00140666
0.00804886
0.00721737
0.00802077
0.00830788
0.00747115
0.00818848
0.00730078
0.00793684
0.00745745
0.00815457
0.00777511
0.00828673
0.00824254
0.00803609
0.00722826
0.00850796
0.00840003
2.57272e-10
0.00840003
1.63347e-09
0.00840003
4.91864e-09
0.00840002
1.33485e-08
0.00840001
3.05837e-08
0.00839998
7.42681e-08
0.00839995
1.6077e-07
0.00839981
3.85063e-07
0.00839969
8.14987e-07
0.00839903
1.9668e-06
0.00839867
4.09184e-06
0.00839512
1.02394e-05
0.00839495
2.08304e-05
0.00837291
5.91446e-05
0.00837757
0.000132216
0.00831079
0.000457756
0.00830579
0.00134108
0.00826131
0.00688098
0.00815089
0.00819192
0.00791367
0.00823829
0.00783983
0.00789825
0.00810794
0.00789958
0.00847526
0.00794806
0.00885771
0.00767791
0.0070114
0.00908862
0.00840003
2.22087e-10
0.00840003
1.39602e-09
0.00840003
4.19906e-09
0.00840002
1.12252e-08
0.00840002
2.55895e-08
0.0084
6.04505e-08
0.00839998
1.29368e-07
0.00839988
3.00121e-07
0.00839981
6.20114e-07
0.00839936
1.50642e-06
0.00839951
2.88717e-06
0.00839702
8.65919e-06
0.00840042
1.32496e-05
0.00838545
5.91003e-05
0.0084104
9.52795e-05
0.00833052
0.000494768
0.00848648
0.00118454
0.0090341
0.00589625
0.0089055
0.00818024
0.00861526
0.00839085
0.00843234
0.00796348
0.00865657
0.00773077
0.00900554
0.00766311
0.00933906
0.00739808
0.00683127
0.00957338
0.00840003
1.82052e-10
0.00840003
1.15236e-09
0.00840003
3.46536e-09
0.00840002
9.40333e-09
0.00840002
2.1563e-08
0.00839999
5.24824e-08
0.00839995
1.13986e-07
0.00839981
2.74296e-07
0.00839964
5.84522e-07
0.00839899
1.41941e-06
0.00839803
2.9897e-06
0.00839628
7.41575e-06
0.00839017
1.56886e-05
0.00839429
4.09599e-05
0.00837855
9.3519e-05
0.00851736
0.000287812
0.00885338
0.000773242
0.0110078
0.00317068
0.0100832
0.00892743
0.00960998
0.00874092
0.00917479
0.00836968
0.00929684
0.00780842
0.00956108
0.00751127
0.00981224
0.00718045
0.00667673
0.00995662
0.00840003
1.45849e-10
0.00840003
9.29322e-10
0.00840003
2.7735e-09
0.00840003
7.61491e-09
0.00840002
1.75309e-08
0.0084
4.32221e-08
0.00839998
9.45679e-08
0.00839988
2.29298e-07
0.0083998
4.91922e-07
0.00839939
1.20083e-06
0.00839912
2.53144e-06
0.00839743
6.33197e-06
0.0083971
1.29836e-05
0.00839003
3.53864e-05
0.0084
7.03236e-05
0.00840645
0.000229047
0.00863093
0.000583466
0.00931405
0.00227454
0.0103301
0.00769693
0.0103313
0.00863371
0.0100146
0.00864733
0.00990662
0.00801032
0.0100125
0.00746589
0.010165
0.00700341
0.00651177
0.0102886
0.00840003
8.47837e-11
0.00840003
5.58452e-10
0.00840003
1.69322e-09
0.00840003
4.78701e-09
0.00840003
1.11559e-08
0.00840001
2.88414e-08
0.00840001
6.41994e-08
0.00839995
1.65346e-07
0.00839993
3.62748e-07
0.00839965
9.27651e-07
0.00839946
2.0107e-06
0.00839825
5.03602e-06
0.00839688
1.10119e-05
0.0083913
2.72894e-05
0.00840776
6.13015e-05
0.00840448
0.000164344
0.00854399
0.000454416
0.00912383
0.00156304
0.0109678
0.00522557
0.0108982
0.00855231
0.01073
0.00873482
0.010479
0.00834654
0.0105239
0.00753832
0.0105573
0.00696153
0.00639447
0.0105797
0.00840003
5.71931e-11
0.00840003
3.65376e-10
0.00840003
1.10628e-09
0.00840003
3.02178e-09
0.00840003
6.97863e-09
0.00840003
1.70177e-08
0.00840004
3.72397e-08
0.00840004
8.941e-08
0.0084001
1.90972e-07
0.00840006
4.71201e-07
0.00840053
9.80793e-07
0.00839982
2.65544e-06
0.00840198
5.15457e-06
0.00839931
1.61815e-05
0.00840473
3.16449e-05
0.00843574
0.000100384
0.00855511
0.000231741
0.00921484
0.000808937
0.0116672
0.00240323
0.0117483
0.00809473
0.0117628
0.00864765
0.0113406
0.00873678
0.011048
0.0078958
0.0109666
0.00704473
0.00639547
0.0108895
0.00840003
4.09313e-11
0.00840003
2.58976e-10
0.00840003
7.74129e-10
0.00840003
2.10826e-09
0.00840003
4.8454e-09
0.00840003
1.18838e-08
0.00840003
2.59888e-08
0.00840001
6.32206e-08
0.00840001
1.36065e-07
0.00839993
3.33914e-07
0.00839994
7.08464e-07
0.00839994
1.75879e-06
0.00840002
3.60411e-06
0.00840108
9.70701e-06
0.00841103
1.77121e-05
0.00841111
6.32471e-05
0.00850934
0.000114289
0.00873101
0.000498603
0.00963452
0.00132303
0.0118376
0.00499518
0.0119003
0.00846073
0.0121463
0.00845914
0.011683
0.0084244
0.0114301
0.00735526
0.00655391
0.0112365
0.00840003
2.08852e-11
0.00840003
1.38546e-10
0.00840003
4.21634e-10
0.00840003
1.19624e-09
0.00840003
2.78904e-09
0.00840003
7.22249e-09
0.00840003
1.60474e-08
0.00840003
4.14931e-08
0.00840004
9.10093e-08
0.00839999
2.35259e-07
0.00840001
5.19175e-07
0.00839963
1.28232e-06
0.00839951
2.89047e-06
0.0083975
6.7798e-06
0.00839554
1.4874e-05
0.00839653
3.7963e-05
0.00839722
8.23311e-05
0.00857157
0.000249637
0.00919266
0.000672443
0.0114971
0.00249486
0.0125657
0.00697306
0.0124864
0.00843426
0.01262
0.00826939
0.0121096
0.00793732
0.00695684
0.0117934
0.00840003
1.23584e-11
0.00840003
7.8134e-11
0.00840003
2.36087e-10
0.00840003
6.39585e-10
0.00840003
1.47909e-09
0.00840003
3.55739e-09
0.00840004
7.82209e-09
0.00840005
1.81558e-08
0.00840009
3.88088e-08
0.00840016
9.03675e-08
0.00840037
1.78892e-07
0.00840034
4.94085e-07
0.00840153
8.53247e-07
0.00839957
3.07509e-06
0.00840382
5.53829e-06
0.00840408
1.92195e-05
0.00840856
4.02069e-05
0.00846053
0.000118041
0.00866096
0.000313504
0.0097779
0.00105818
0.0124234
0.00314638
0.0130299
0.00765296
0.0131995
0.00804434
0.0129775
0.00813118
0.00747409
0.0125073
0.00840003
5.81956e-12
0.00840003
3.89615e-11
0.00840003
1.18843e-10
0.00840003
3.41288e-10
0.00840003
7.99899e-10
0.00840003
2.08114e-09
0.00840003
4.63927e-09
0.00840003
1.18354e-08
0.00840003
2.58815e-08
0.00840002
6.43845e-08
0.00840001
1.3964e-07
0.00839996
3.3041e-07
0.00839984
7.11682e-07
0.00840042
1.67571e-06
0.00840126
3.49294e-06
0.0084061
9.33042e-06
0.00842794
1.70528e-05
0.00843555
6.22837e-05
0.00861437
0.000112928
0.0090562
0.000499334
0.0106072
0.00127929
0.012926
0.0043643
0.0133114
0.00744724
0.0137288
0.00772919
0.00792449
0.0133301
0.00840003
2.83012e-12
0.00840003
1.84172e-11
0.00840003
5.62545e-11
0.00840003
1.5609e-10
0.00840003
3.66347e-10
0.00840003
8.9199e-10
0.00840003
1.97694e-09
0.00840004
4.59616e-09
0.00840004
9.83007e-09
0.00840004
2.41033e-08
0.00840007
4.90001e-08
0.00839998
1.43866e-07
0.00840023
2.89265e-07
0.00840007
8.86492e-07
0.00840058
1.86041e-06
0.00839991
5.29042e-06
0.00840017
1.17716e-05
0.00840153
3.08794e-05
0.00840531
7.29454e-05
0.00858996
0.000192257
0.00924845
0.000557475
0.0114915
0.00179215
0.0135936
0.00468545
0.0137488
0.00744913
0.00747478
0.0142058
0.00840003
1.03731e-12
0.00840003
7.41688e-12
0.00840003
2.13977e-11
0.00840003
6.34337e-11
0.00840003
1.39849e-10
0.00840003
3.86868e-10
0.00840003
8.05109e-10
0.00840003
2.33283e-09
0.00840003
4.6109e-09
0.00840003
1.38658e-08
0.00840004
2.56213e-08
0.00840007
7.59974e-08
0.00840015
1.38171e-07
0.00840064
3.99232e-07
0.00840156
7.04869e-07
0.00840456
2.28117e-06
0.00841294
3.19071e-06
0.00841844
1.51794e-05
0.00847614
1.64638e-05
0.00847779
0.000105466
0.00883823
0.000137826
0.00968702
0.000731228
0.0121897
0.00176564
0.0141563
0.00478739
0.00723576
0.0141649
0.00840003
3.96712e-13
0.00840003
2.21926e-12
0.00840003
7.76899e-12
0.00840003
1.9343e-11
0.00840003
5.00947e-11
0.00840003
1.08216e-10
0.00840003
2.721e-10
0.00840003
5.36196e-10
0.00840003
1.503e-09
0.00840004
2.7001e-09
0.00840003
9.39678e-09
0.00840008
1.73563e-08
0.00840013
6.00822e-08
0.00840035
1.17501e-07
0.00840118
3.20512e-07
0.0084002
6.16049e-07
0.00840808
1.49118e-06
0.00840079
2.19817e-06
0.00840796
9.90057e-06
0.00850577
1.31337e-05
0.00847034
8.57434e-05
0.00895715
0.000152913
0.00981545
0.000716686
0.0124069
0.00155125
0.00472682
0.0142642
0.00840003
1.35829e-13
0.00840003
7.5921e-13
0.00840003
2.62156e-12
0.00840003
6.65356e-12
0.00840003
1.73523e-11
0.00840003
3.91068e-11
0.00840003
9.96501e-11
0.00840003
2.18889e-10
0.00840003
5.67391e-10
0.00840003
1.2455e-09
0.00840004
3.18218e-09
0.00840004
7.08639e-09
0.00840008
1.70991e-08
0.00840014
3.60494e-08
0.00840021
9.54853e-08
0.00840051
1.71025e-07
0.00839953
6.66553e-07
0.00839994
1.16738e-06
0.00840018
4.5474e-06
0.00839656
8.96612e-06
0.00842165
3.01213e-05
0.00845821
7.03721e-05
0.00888586
0.000205194
0.00961226
0.000573458
0.00161139
0.0124526
0.00840003
4.79141e-14
0.00840003
2.66044e-13
0.00840003
9.27006e-13
0.00840003
2.36732e-12
0.00840003
6.23839e-12
0.00840003
1.42525e-11
0.00840003
3.59303e-11
0.00840003
8.02329e-11
0.00840003
1.98129e-10
0.00840003
4.36707e-10
0.00840003
1.04701e-09
0.00840004
2.19269e-09
0.00840004
5.66464e-09
0.00840005
1.04963e-08
0.0084
3.62052e-08
0.00840006
6.70469e-08
0.00840024
2.36483e-07
0.00840028
4.92984e-07
0.00840561
1.43603e-06
0.00839277
3.1163e-06
0.0084313
8.90405e-06
0.00840628
1.64805e-05
0.00851939
6.9244e-05
0.00893741
0.000130289
0.000542914
0.00983091
0.00840003
1.76785e-14
0.00840003
8.96003e-14
0.00840003
3.3386e-13
0.00840003
8.107e-13
0.00840003
2.28919e-12
0.00840003
4.98132e-12
0.00840003
1.35546e-11
0.00840003
2.86421e-11
0.00840003
7.88114e-11
0.00840003
1.62381e-10
0.00840003
4.62424e-10
0.00840003
9.19235e-10
0.00840003
2.68845e-09
0.00840003
5.22228e-09
0.00840004
1.52967e-08
0.00840006
2.97598e-08
0.00840017
8.64342e-08
0.00840058
1.48675e-07
0.00840121
4.98338e-07
0.00840351
6.72267e-07
0.0084013
3.29898e-06
0.00841312
4.84905e-06
0.00843199
2.44549e-05
0.00849
3.71657e-05
0.000157395
0.00874474
0.00840003
3.81092e-15
0.00840003
2.96174e-14
0.00840003
8.4722e-14
0.00840003
2.67801e-13
0.00840003
5.92251e-13
0.00840003
1.64851e-12
0.00840003
3.44776e-12
0.00840003
9.29976e-12
0.00840003
1.87187e-11
0.00840003
5.16605e-11
0.00840003
9.5898e-11
0.00840003
2.90984e-10
0.00840003
4.98373e-10
0.00840003
1.62502e-09
0.00840005
2.57609e-09
0.00840005
9.07721e-09
0.00840012
1.27957e-08
0.00840016
5.8885e-08
0.00840043
7.62967e-08
0.00840066
3.68319e-07
0.00840064
5.67579e-07
0.00840698
1.94376e-06
0.00844593
1.98071e-06
0.00841659
1.74912e-05
2.00084e-05
0.00855142
0.00840003
1.09228e-15
0.00840003
5.94517e-15
0.00840003
2.34893e-14
0.00840003
5.80606e-14
0.00840003
1.65981e-13
0.00840003
3.7034e-13
0.00840003
9.73674e-13
0.00840003
2.08898e-12
0.00840003
5.28411e-12
0.00840003
1.0853e-11
0.00840003
2.75643e-11
0.00840003
5.13641e-11
0.00840003
1.4111e-10
0.00840003
2.32158e-10
0.00840003
7.43988e-10
0.00840004
1.15214e-09
0.00840004
4.25737e-09
0.00840011
6.13227e-09
0.00840006
2.63851e-08
0.00840041
3.8664e-08
0.00840007
2.26692e-07
0.00840147
3.69171e-07
0.00840298
1.38435e-06
0.00841405
2.18413e-06
9.92682e-06
0.00839874
0.00840003
2.51481e-16
0.00840003
1.42979e-15
0.00840003
5.19734e-15
0.00840003
1.39008e-14
0.00840003
3.77509e-14
0.00840003
8.92768e-14
0.00840003
2.28439e-13
0.00840003
5.16763e-13
0.00840003
1.29208e-12
0.00840003
2.84652e-12
0.00840003
7.08303e-12
0.00840003
1.53074e-11
0.00840003
3.94735e-11
0.00840003
8.39719e-11
0.00840003
2.35396e-10
0.00840003
5.00443e-10
0.00840003
1.48321e-09
0.00840003
3.17493e-09
0.00840003
9.37646e-09
0.00840004
1.97047e-08
0.00840014
5.65493e-08
0.00840032
1.22992e-07
0.00840102
3.44098e-07
0.00840208
6.51554e-07
2.48983e-06
0.00840232
0.00840003
5.20417e-17
0.00840003
3.03577e-16
0.00840003
1.11846e-15
0.00840003
2.97803e-15
0.00840003
8.1345e-15
0.00840003
1.91475e-14
0.00840003
4.8823e-14
0.00840003
1.09382e-13
0.00840003
2.77456e-13
0.00840003
5.89336e-13
0.00840003
1.62911e-12
0.00840003
3.35535e-12
0.00840003
1.01315e-11
0.00840003
2.1423e-11
0.00840003
6.46188e-11
0.00840003
1.41501e-10
0.00840003
4.20926e-10
0.00840003
9.27712e-10
0.00840003
2.70974e-09
0.00840004
5.84221e-09
0.00840006
1.64484e-08
0.00840014
3.35328e-08
0.00840018
9.62628e-08
0.00840055
1.78773e-07
6.17747e-07
0.00840025
0.00840003
9.54098e-18
0.00840003
5.97937e-17
0.00840003
2.22966e-16
0.00840003
6.00919e-16
0.00840003
1.66788e-15
0.00840003
3.9478e-15
0.00840003
1.03474e-14
0.00840003
2.34127e-14
0.00840003
6.04151e-14
0.00840003
1.33096e-13
0.00840003
3.46961e-13
0.00840003
7.60731e-13
0.00840003
2.07856e-12
0.00840003
4.60388e-12
0.00840003
1.3877e-11
0.00840003
3.0473e-11
0.00840003
9.6781e-11
0.00840003
2.10848e-10
0.00840003
6.34836e-10
0.00840003
1.34959e-09
0.00840004
3.92806e-09
0.00840006
7.87886e-09
0.00840006
2.40406e-08
0.00840019
4.60019e-08
1.44751e-07
0.0084003
0.00840003
1.89735e-18
0.00840003
9.54098e-18
0.00840003
4.10913e-17
0.00840003
1.146e-16
0.00840003
3.36645e-16
0.00840003
7.63522e-16
0.00840003
2.11788e-15
0.00840003
4.63534e-15
0.00840003
1.27048e-14
0.00840003
2.70849e-14
0.00840003
7.54763e-14
0.00840003
1.57864e-13
0.00840003
4.56772e-13
0.00840003
9.32293e-13
0.00840003
2.87315e-12
0.00840003
5.60781e-12
0.00840003
1.9305e-11
0.00840003
3.65861e-11
0.00840003
1.36598e-10
0.00840003
2.499e-10
0.00840003
9.114e-10
0.00840004
1.61206e-09
0.00840004
5.69774e-09
0.00840007
1.00423e-08
3.46836e-08
0.0084001
0.00840003
2.81893e-18
0.00840003
7.04731e-18
0.00840003
1.42573e-17
0.00840003
2.73219e-17
0.00840003
5.65411e-17
0.00840003
1.56938e-16
0.00840003
3.20599e-16
0.00840003
9.48053e-16
0.00840003
1.86339e-15
0.00840003
5.58576e-15
0.00840003
1.04215e-14
0.00840003
3.2338e-14
0.00840003
5.77319e-14
0.00840003
1.91479e-13
0.00840003
3.24104e-13
0.00840003
1.17611e-12
0.00840003
1.94621e-12
0.00840003
7.38256e-12
0.00840003
1.15708e-11
0.00840003
5.30997e-11
0.00840003
7.66455e-11
0.00840003
3.66037e-10
0.00840003
5.4099e-10
0.00840004
2.23627e-09
3.31521e-09
0.00840005
0.00840003
-1.02999e-18
0.00840003
-5.42101e-20
0.00840003
2.98156e-18
0.00840003
6.17995e-18
0.00840003
1.25767e-17
0.00840003
2.74574e-17
0.00840003
6.57298e-17
0.00840003
1.34793e-16
0.00840003
3.7012e-16
0.00840003
7.29505e-16
0.00840003
2.07641e-15
0.00840003
3.90009e-15
0.00840003
1.14005e-14
0.00840003
2.02077e-14
0.00840003
6.41148e-14
0.00840003
1.07447e-13
0.00840003
3.82132e-13
0.00840003
6.44861e-13
0.00840003
2.29428e-12
0.00840003
3.60962e-12
0.00840003
1.66001e-11
0.00840003
2.50579e-11
0.00840003
1.23164e-10
0.00840003
2.26956e-10
6.89538e-10
0.00840003
0.00840003
-4.87891e-19
0.00840003
9.21572e-19
0.00840003
-3.79471e-19
0.00840003
-2.71051e-19
0.00840003
-4.33681e-19
0.00840003
1.81604e-18
0.00840003
8.61941e-18
0.00840003
2.31206e-17
0.00840003
6.09593e-17
0.00840003
1.32462e-16
0.00840003
3.5055e-16
0.00840003
7.37149e-16
0.00840003
1.96953e-15
0.00840003
4.07899e-15
0.00840003
1.12563e-14
0.00840003
2.28348e-14
0.00840003
6.71276e-14
0.00840003
1.33354e-13
0.00840003
4.26019e-13
0.00840003
8.25023e-13
0.00840003
2.78809e-12
0.00840003
5.24987e-12
0.00840003
1.87664e-11
0.00840003
3.34975e-11
1.3644e-10
0.00840003
0.00840003
-9.75782e-19
0.00840003
-2.11419e-18
0.00840003
-2.98156e-18
0.00840003
-2.87314e-18
0.00840003
-1.73472e-18
0.00840003
-1.0842e-19
0.00840003
2.43945e-18
0.00840003
5.93601e-18
0.00840003
1.05168e-17
0.00840003
2.77014e-17
0.00840003
4.98733e-17
0.00840003
1.37911e-16
0.00840003
2.51643e-16
0.00840003
7.59077e-16
0.00840003
1.32823e-15
0.00840003
4.2775e-15
0.00840003
7.15649e-15
0.00840003
2.51985e-14
0.00840003
4.17864e-14
0.00840003
1.51355e-13
0.00840003
2.59757e-13
0.00840003
1.0296e-12
0.00840003
1.56208e-12
0.00840003
7.46393e-12
1.17163e-11
0.00840003
0.00840003
2.1684e-18
0.00840003
3.79471e-19
0.00840003
-2.49366e-18
0.00840003
-3.36103e-18
0.00840003
-1.84314e-18
0.00840003
5.42101e-19
0.00840003
1.54499e-18
0.00840003
2.38524e-18
0.00840003
6.4239e-18
0.00840003
8.64651e-18
0.00840003
1.33628e-17
0.00840003
2.35272e-17
0.00840003
4.75965e-17
0.00840003
8.44865e-17
0.00840003
2.42265e-16
0.00840003
4.10506e-16
0.00840003
1.35905e-15
0.00840003
2.13322e-15
0.00840003
7.78118e-15
0.00840003
1.22371e-14
0.00840003
4.41755e-14
0.00840003
6.58954e-14
0.00840003
3.13665e-13
0.00840003
4.46455e-13
2.30783e-12
0.00840003
0.00840003
-2.1684e-19
0.00840003
1.6263e-19
0.00840003
1.73472e-18
0.00840003
1.51788e-18
0.00840003
2.71051e-19
0.00840003
-2.00577e-18
0.00840003
-1.46367e-18
0.00840003
1.0842e-18
0.00840003
2.00577e-18
0.00840003
3.41524e-18
0.00840003
4.58075e-18
0.00840003
4.44523e-18
0.00840003
7.23705e-18
0.00840003
1.3417e-17
0.00840003
3.18213e-17
0.00840003
7.51623e-17
0.00840003
1.28532e-16
0.00840003
4.13325e-16
0.00840003
6.44125e-16
0.00840003
2.32868e-15
0.00840003
3.91549e-15
0.00840003
1.25768e-14
0.00840003
1.99406e-14
0.00840003
8.95811e-14
1.29967e-13
0.00840003
0.00840003
-5.42101e-20
0.00840003
0
0.00840003
1.02999e-18
0.00840003
1.6263e-18
0.00840003
2.81893e-18
0.00840003
4.2826e-18
0.00840003
3.84892e-18
0.00840003
3.27971e-18
0.00840003
3.11708e-18
0.00840003
2.92735e-18
0.00840003
2.62919e-18
0.00840003
3.17129e-18
0.00840003
4.77049e-18
0.00840003
5.25838e-18
0.00840003
5.93601e-18
0.00840003
1.09233e-17
0.00840003
2.26056e-17
0.00840003
3.86247e-17
0.00840003
1.17717e-16
0.00840003
1.84477e-16
0.00840003
6.57162e-16
0.00840003
1.1669e-15
0.00840003
3.43993e-15
0.00840003
5.00058e-15
2.4947e-14
0.00840003
0.00840003
-9.75782e-19
0.00840003
-9.21572e-19
0.00840003
-1.6263e-19
0.00840003
2.71051e-19
0.00840003
1.95156e-18
0.00840003
2.11419e-18
0.00840003
3.46945e-18
0.00840003
3.33392e-18
0.00840003
2.03288e-18
0.00840003
6.50521e-19
0.00840003
3.52366e-19
0.00840003
-8.13152e-19
0.00840003
-9.21572e-19
0.00840003
-3.25261e-19
0.00840003
2.71051e-19
0.00840003
1.24683e-18
0.00840003
2.92735e-18
0.00840003
6.31548e-18
0.00840003
1.25496e-17
0.00840003
3.03035e-17
0.00840003
5.29904e-17
0.00840003
1.64799e-16
0.00840003
2.79914e-16
0.00840003
9.28131e-16
1.29694e-15
0.00840003
0.00840003
4.33681e-19
0.00840003
1.0842e-19
0.00840003
1.6263e-18
0.00840003
2.81893e-18
0.00840003
1.24683e-18
0.00840003
1.0842e-19
0.00840003
-4.87891e-19
0.00840003
-1.81604e-18
0.00840003
-5.69206e-19
0.00840003
0
0.00840003
-7.31836e-19
0.00840003
-2.43945e-19
0.00840003
-7.31836e-19
0.00840003
-9.21572e-19
0.00840003
-3.25261e-19
0.00840003
-9.21572e-19
0.00840003
-6.77626e-19
0.00840003
-1.35525e-19
0.00840003
4.60786e-19
0.00840003
2.35814e-18
0.00840003
5.25838e-18
0.00840003
1.51246e-17
0.00840003
3.586e-17
0.00840003
5.99835e-17
2.4072e-16
0.00840003
0.00840003
2.71051e-19
0.00840003
-3.79471e-19
0.00840003
-3.90313e-18
0.00840003
-3.90313e-18
0.00840003
-2.38524e-18
0.00840003
5.42101e-19
0.00840003
1.87025e-18
0.00840003
3.33392e-18
0.00840003
2.30393e-18
0.00840003
6.50521e-19
0.00840003
-2.71051e-20
0.00840003
-1.92873e-34
0.00840003
2.71051e-20
0.00840003
2.71051e-19
0.00840003
9.21572e-19
0.00840003
2.84603e-18
0.00840003
3.33392e-18
0.00840003
3.7676e-18
0.00840003
3.41524e-18
0.00840003
3.68629e-18
0.00840003
3.41524e-18
0.00840003
3.38813e-18
0.00840003
5.99022e-18
0.00840003
9.16151e-18
2.66172e-17
0.00840003
0.00840003
-8.67362e-19
0.00840003
-7.58942e-19
0.00840003
1.19262e-18
0.00840003
2.33103e-18
0.00840003
2.43945e-18
0.00840003
7.46903e-35
0.00840003
-1.87025e-18
0.00840003
-1.89735e-18
0.00840003
-1.73472e-18
0.00840003
-7.31836e-19
0.00840003
-2.1684e-19
0.00840003
2.71051e-20
0.00840003
-8.40257e-19
0.00840003
-1.81604e-18
0.00840003
-2.30393e-18
0.00840003
-2.41235e-18
0.00840003
-1.76183e-18
0.00840003
-1.38236e-18
0.00840003
-5.69206e-19
0.00840003
2.71051e-20
0.00840003
4.60786e-19
0.00840003
8.67362e-19
0.00840003
1.38236e-18
0.00840003
1.87025e-18
4.58075e-18
0.00840003
0.00840003
-5.96311e-19
0.00840003
-6.50521e-19
0.00840003
-2.71051e-19
0.00840003
-6.50521e-19
0.00840003
-2.6563e-18
0.00840003
-3.27971e-18
0.00840003
-3.2255e-18
0.00840003
-3.95734e-18
0.00840003
-2.98156e-18
0.00840003
-2.52077e-18
0.00840003
-2.41235e-18
0.00840003
-2.6563e-18
0.00840003
-3.00866e-18
0.00840003
-1.68051e-18
0.00840003
-8.94467e-19
0.00840003
-3.52366e-19
0.00840003
6.50521e-19
0.00840003
7.86047e-19
0.00840003
1.46367e-18
0.00840003
2.87314e-18
0.00840003
4.25549e-18
0.00840003
5.14996e-18
0.00840003
6.12574e-18
0.00840003
6.53232e-18
6.30193e-18
0.00840003
0.00840003
-1.13841e-18
0.00840003
-4.22839e-18
0.00840003
-6.66784e-18
0.00840003
-1.00831e-17
0.00840003
-1.08962e-17
0.00840003
-1.12486e-17
0.00840003
-1.17365e-17
0.00840003
-1.01102e-17
0.00840003
-9.08019e-18
0.00840003
-7.5081e-18
0.00840003
-6.09864e-18
0.00840003
-3.87602e-18
0.00840003
-9.75782e-19
0.00840003
1.0842e-19
0.00840003
1.6263e-18
0.00840003
3.44234e-18
0.00840003
3.71339e-18
0.00840003
4.2826e-18
0.00840003
4.58075e-18
0.00840003
4.47233e-18
0.00840003
4.74338e-18
0.00840003
5.20417e-18
0.00840003
5.58364e-18
0.00840003
5.44812e-18
5.66496e-18
0.00840003
0.00840003
-1.68051e-18
0.00840003
-2.38524e-18
0.00840003
-2.43945e-18
0.00840003
-3.46945e-18
0.00840003
-4.39102e-18
0.00840003
-4.66207e-18
0.00840003
-2.24972e-18
0.00840003
-2.27682e-18
0.00840003
-1.19262e-18
0.00840003
-1.46367e-18
0.00840003
-1.78893e-18
0.00840003
-2.1413e-18
0.00840003
-1.43657e-18
0.00840003
3.52366e-19
0.00840003
1.32815e-18
0.00840003
1.57209e-18
0.00840003
2.87314e-18
0.00840003
4.20128e-18
0.00840003
5.42101e-18
0.00840003
5.31259e-18
0.00840003
4.22839e-18
0.00840003
2.95445e-18
0.00840003
2.38524e-18
0.00840003
2.98156e-18
4.03865e-18
0.00840003
0.00840003
0.00840003
0.00840003
0.00840003
0.00840003
0.00840003
0.00840003
0.00840003
0.00840003
0.00840003
0.00840003
0.00840003
0.00840003
0.00840003
0.00840003
0.00840003
0.00840003
0.00840003
0.00840003
0.00840003
0.00840003
0.00840003
0.00840003
0.00840003
0.00840003
0.00518696
0.00357286
0.0036246
0.00157181
0.00277613
0.000858686
0.00227331
0.000512213
0.0019763
0.000306335
0.0018123
0.000172104
0.00173075
9.00743e-05
0.00172105
1.82331e-05
0.00177358
-4.19503e-05
0.0019894
-0.000211677
0.00215052
-0.000158132
0.00227087
-0.000117622
0.00233849
-7.05544e-05
0.00236466
-3.29699e-05
0.0023595
-5.95702e-06
0.00233521
8.44464e-06
0.00230924
8.0024e-06
0.00229132
2.2477e-06
0.00228651
-6.95411e-06
0.00229275
-1.50786e-05
0.00230273
-1.79826e-05
0.0023129
-1.90412e-05
0.00232169
-1.8968e-05
0.00232933
-1.80426e-05
0.00233742
-1.69739e-05
0.00234759
-1.61322e-05
0.0023604
-1.55888e-05
0.00237508
-1.53262e-05
0.00238983
-1.5279e-05
0.0024028
-1.53491e-05
0.00241297
-1.54282e-05
0.00242053
-1.54254e-05
0.00242677
-1.52906e-05
0.00243371
-1.50084e-05
0.00244356
-1.45823e-05
0.00245768
-1.40359e-05
0.00247588
-1.34273e-05
0.00249695
-1.27413e-05
0.00251852
-1.19645e-05
0.00253651
-1.12867e-05
0.00254898
-1.05359e-05
0.00255776
-9.43162e-06
0.00256097
-8.76154e-06
0.00255314
-8.64331e-06
0.00253418
-8.06862e-06
0.00250967
-6.9813e-06
0.0024861
-6.4175e-06
0.00246889
-6.13026e-06
0.00246106
-5.9671e-06
0.00246211
-6.03138e-06
0.00247117
-6.46061e-06
0.00250453
-7.08629e-06
0.00258314
-7.80373e-06
0.00269107
-9.94552e-06
0.0028308
-1.24875e-05
0.0030056
-1.45688e-05
0.00321762
-1.71529e-05