/*--------------------------------*- C++ -*----------------------------------*\
  =========                 |
  \\      /  F ield         | OpenFOAM: The Open Source CFD Toolbox
   \\    /   O peration     | Website:  https://openfoam.org
    \\  /    A nd           | Version:  6
     \\/     M anipulation  |
\*---------------------------------------------------------------------------*/
FoamFile
{
    version     2.0;
    format      ascii;
    class       volScalarField;
    location    "0.5";
    object      T;
}
// * * * * * * * * * * * * * * * * * * * * * * * * * * * * * * * * * * * * * //

dimensions      [0 0 0 1 0 0 0];

internalField   nonuniform List<scalar> 
5250
(
1
1.00001
1.00002
1.00004
1.00013
1.00025
1.00079
1.00147
1.00467
1.00903
1.02636
1.05887
1.15169
1.39397
2.21561
2.67316
2.99541
3.0192
2.93931
2.94077
2.97988
3.05968
3.14057
3.24539
3.37586
1
1.00001
1.00002
1.00004
1.00013
1.00024
1.00078
1.00145
1.00461
1.00892
1.02609
1.05834
1.15036
1.39162
2.20761
2.67399
2.99952
3.01563
2.93502
2.93897
2.97845
3.05637
3.1363
3.24009
3.37267
1
1.00001
1.00002
1.00004
1.00012
1.00024
1.00075
1.00141
1.00449
1.00868
1.02551
1.05713
1.14747
1.38559
2.18888
2.67232
3.00669
3.00851
2.92535
2.9333
2.97577
3.05312
3.13236
3.23548
3.3678
1
1.00001
1.00002
1.00004
1.00012
1.00022
1.00071
1.00134
1.00429
1.00829
1.02455
1.05507
1.14263
1.37509
2.1551
2.66768
3.01596
2.99668
2.90999
2.9225
2.96922
3.0464
3.12726
3.22867
3.36302
1
1.00001
1.00002
1.00004
1.00011
1.00021
1.00066
1.00124
1.004
1.00774
1.02316
1.05207
1.13566
1.35936
2.10515
2.65558
3.02858
2.98154
2.89094
2.9054
2.95738
3.0337
3.11818
3.21447
3.3511
1
1.00001
1.00002
1.00003
1.0001
1.00019
1.0006
1.00113
1.00361
1.00705
1.0212
1.04814
1.12591
1.33782
2.0342
2.62769
3.04658
2.95413
2.87082
2.88501
2.93865
3.01625
3.09799
3.20119
3.33983
1
1
1.00001
1.00003
1.00009
1.00017
1.00053
1.001
1.00317
1.00625
1.01859
1.04328
1.11203
1.31033
1.92365
2.58264
3.06737
2.91458
2.84968
2.86382
2.9208
2.98813
3.07917
3.17209
3.31374
1
1
1.00001
1.00003
1.00008
1.00015
1.00047
1.00088
1.00273
1.00543
1.01567
1.03745
1.09559
1.27232
1.76577
2.50631
3.08319
2.87699
2.8327
2.84243
2.89976
2.95884
3.04041
3.14152
3.2814
1
1
1.00001
1.00002
1.00007
1.00013
1.00041
1.00076
1.00236
1.00461
1.01301
1.03125
1.07819
1.22773
1.60579
2.35104
3.07293
2.84956
2.80719
2.82315
2.88177
2.92146
2.99994
3.07383
3.19961
1
1
1.00001
1.00002
1.00007
1.00012
1.00037
1.00068
1.0021
1.00394
1.01135
1.02531
1.06364
1.1812
1.45525
2.10412
2.98828
2.81535
2.79175
2.81378
2.86056
2.88279
2.92035
2.99703
3.08109
1
1
1.00001
1.00002
1.00006
1.00011
1.00033
1.0006
1.0019
1.00347
1.01042
1.02138
1.05593
1.14611
1.35918
1.88139
2.79957
2.78959
2.79274
2.80855
2.82294
2.82519
2.83226
2.83461
2.81886
1
1
1.00001
1.00002
1.00005
1.00009
1.00029
1.00053
1.00168
1.00302
1.00932
1.01847
1.04906
1.12528
1.29773
1.78983
2.69059
2.79361
2.79087
2.7868
2.7776
2.75553
2.73982
2.70005
2.65504
1
1
1.00001
1.00001
1.00004
1.00008
1.00024
1.00044
1.00141
1.00254
1.00794
1.01532
1.04291
1.10581
1.25162
1.70165
2.56196
2.75167
2.72885
2.7492
2.74088
2.70018
2.66088
2.61395
2.54443
1
1
1.00001
1.00001
1.00003
1.00006
1.00019
1.00035
1.0011
1.00203
1.00607
1.01274
1.03294
1.09084
1.20047
1.6131
2.41815
2.64135
2.69687
2.70655
2.70299
2.66159
2.59794
2.54282
2.48384
1
1
1
1.00001
1.00002
1.00005
1.00014
1.00026
1.00084
1.00157
1.00458
1.00995
1.02513
1.07139
1.15368
1.50238
2.1889
2.53504
2.68168
2.68537
2.68371
2.64281
2.55781
2.496
2.43261
1
1
1
1.00001
1.00002
1.00003
1.00011
1.0002
1.00067
1.00119
1.00396
1.00719
1.02206
1.04693
1.12234
1.31344
1.92349
2.3456
2.61888
2.63529
2.6423
2.59726
2.51207
2.43675
2.38669
1
1
1
1
1.00001
1.00002
1.00008
1.00014
1.00047
1.00084
1.00281
1.00513
1.01574
1.03369
1.08721
1.22758
1.62177
2.20124
2.53141
2.56132
2.55733
2.53061
2.4672
2.40853
2.35593
1
1
1
1
1.00001
1.00002
1.00005
1.00009
1.00031
1.00055
1.00187
1.00338
1.0107
1.02276
1.0581
1.15818
1.37765
1.97019
2.38026
2.52189
2.52081
2.50329
2.43961
2.3851
2.33845
1
1
1
1
1
1.00001
1.00003
1.00005
1.00017
1.00031
1.00098
1.00192
1.00588
1.01261
1.03733
1.09138
1.23307
1.59241
2.22823
2.41996
2.46176
2.45522
2.42668
2.37486
2.33542
1
1
1
1
1
1.00001
1.00002
1.00003
1.00011
1.00019
1.00066
1.00115
1.00372
1.0077
1.01955
1.05778
1.12646
1.40608
1.9304
2.32616
2.425
2.42204
2.4035
2.35806
2.32546
1
1
1
1
1
1
1.00001
1.00002
1.00006
1.00011
1.00038
1.00066
1.00234
1.00419
1.01384
1.02868
1.08134
1.19758
1.58184
2.02354
2.29046
2.35527
2.35537
2.33849
2.29748
1
1
1
1
1
1
1
1.00001
1.00003
1.00005
1.00013
1.00032
1.00084
1.00204
1.00678
1.01329
1.04451
1.09747
1.28946
1.60541
2.16234
2.27059
2.29408
2.29091
2.27791
1
1
1
1
1
1
1
1
1.00002
1.00003
1.0001
1.00016
1.0006
1.001
1.00329
1.00702
1.01681
1.05511
1.11629
1.38429
1.83278
2.1772
2.24923
2.24633
2.22857
1
1
1
1
1
1
1
1
1.00001
1.00001
1.00003
1.00007
1.00027
1.00044
1.00181
1.003
1.011
1.02141
1.06761
1.15131
1.48511
1.81331
2.13972
2.1899
2.19014
1
1
1
1
1
1
1
1
1
1
1.00002
1.00003
1.00011
1.00018
1.00051
1.0012
1.00215
1.00929
1.02006
1.06999
1.17536
1.45427
1.90537
2.09111
2.12661
1
1
1
1
1
1
1
1
1
1
1
1.00001
1.00002
1.00008
1.00013
1.00034
1.00101
1.00104
1.00906
1.01931
1.06985
1.1852
1.45555
1.87729
2.04844
1
1
1
1
1
1
1
1
1
1
1
1
1.00001
1.00002
1.00006
1.00013
1.00045
1.00163
1.00295
1.01174
1.02316
1.07418
1.16107
1.50969
1.73061
1
1
1
1
1
1
1
1
1
1
1
1
1
1.00001
1.00002
1.00008
1.00013
1.00053
1.00087
1.00214
1.00836
1.01539
1.05849
1.15702
1.37705
1
1
1
1
1
1
1
1
1
1
1
1
1
1
1.00001
1.00002
1.00004
1.00012
1.00028
1.00059
1.0024
1.00764
1.01606
1.05569
1.11681
1
1
1
1
1
1
1
1
1
1
1
1
1
1
1
1
1.00001
1.00003
1.00006
1.00026
1.00033
1.00264
1.00021
1.01428
1.04129
1
1
1
1
1
1
1
1
1
1
1
1
1
1
1
1
1
1
1.00002
1.00004
1.00014
1.00065
1.00087
1.0027
1.01005
1
1
1
1
1
1
1
1
1
1
1
1
1
1
1
1
1
1
1.00001
1.00003
1.00004
1.00015
1.00024
1.00073
1.00242
1
1
1
1
1
1
1
1
1
1
1
1
1
1
1
1
1
1
1
1.00001
1.00001
1.00004
1.00006
1.00023
1.00046
1
1
1
1
1
1
1
1
1
1
1
1
1
1
1
1
1
1
1
1
1
1.00001
1.00002
1.00006
1.00009
1
1
1
1
1
1
1
1
1
1
1
1
1
1
1
1
1
1
1
1
1
1
1
1.00001
1.00002
1
1
1
1
1
1
1
1
1
1
1
1
1
1
1
1
1
1
1
1
1
1
1
1
1
1
1
1
1
1
1
1
1
1
1
1
1
1
1
1
1
1
1
1
1
1
1
1
1
1
1
1
1
1
1
1
1
1
1
1
1
1
1
1
1
1
1
1
1
1
1
1
1
1
1
1
1
1
1
1
1
1
1
1
1
1
1
1
1
1
1
1
1
1
1
1
1
1
1
1
1
1
1
1
1
1
1
1
1
1
1
1
1
1
1
1
1
1
1
1
1
1
1
1
1
1
1
1
1
1
1
1
1
1
1
1
1
1
1
1
1
1
1
1
1
1
1
1
1
1
1
1
1
1
1
1
1
1
1
1
1
1
1
1
1
1
1
1
1
1
1
1
1
1
1
1
1
1
1
1
1
1
1
1
1
1
1
1
1
1
1
1
1
1
1
1
1
1
1
1
1
1
1
1
1
1
1
1
1
1
1
1
1
1
1
1
1
1
1
1
1
1
1
1
1
1
1
1
1
1
1
1
1
1
1
1
1
1
1
1
1
1
1
1
1
1
1
1
1
1
1
1
1
1
1
1
1
1
1
1
1
1
1
1
1
1
1
1
1
1
1
1
1
1
1
1
1
1
1
1
1
1
1
1
1
1
1
1
1
1
1
1
1
1
1
1
1
1
1
1
1
1
1
1
1
1
1
1
1
1
1
1
1
1
1
1
1
1
1
1
1
1
1
1
1
1
1
1
1
1
1
1
1
1
1
1
1
1
1
1
1
1
1
1
1
1
1
1
1
1
1
1
1
1
1
1
1
1
1
1
1
1
1
1
1
1
1
1
1
1
1
1
1
1
1
2.71877
2.53276
2.41083
2.33425
2.32218
2.34596
2.42412
2.47175
2.56092
2.62349
2.68634
2.69917
2.702
2.69025
2.68611
2.68189
2.67541
2.67145
2.66585
2.6562
2.64464
2.63362
2.62491
2.61821
2.61185
2.60358
2.59191
2.57666
2.5591
2.54112
2.52428
2.50917
2.49553
2.48233
2.46823
2.45212
2.43384
2.41452
2.39645
2.38166
2.37209
2.36925
2.37031
2.376
2.39128
2.41627
2.44302
2.4674
2.48417
2.49073
2.48973
2.47731
2.43621
2.36519
2.27746
2.17452
2.0604
1.9401
1.81909
1.70199
1.59275
1.4939
1.40696
1.33219
1.26941
1.21763
1.17584
1.14256
1.11654
1.09643
1.08124
1.07
1.06193
1.0563
1.05236
1.04943
1.04682
1.04396
1.04044
1.03612
1.03128
1.02641
1.02208
1.0185
1.01545
1.01253
1.00946
1.00593
1.00191
0.999573
0.998563
0.998316
0.998374
0.998671
0.999098
0.999416
0.999634
0.99978
0.999869
0.999922
2.57337
2.45883
2.3803
2.33481
2.31514
2.31424
2.31462
2.299
2.26436
2.21482
2.1817
2.17344
2.16992
2.17471
2.18589
2.19581
2.20803
2.20796
2.20672
2.20252
2.19356
2.18363
2.17389
2.1655
2.1591
2.15423
2.14947
2.14326
2.13473
2.12386
2.11149
2.09893
2.08742
2.07765
2.06931
2.06128
2.05226
2.04152
2.02907
2.01587
2.00378
1.99523
1.99184
1.99201
1.99455
2.00249
2.0198
2.04449
2.07017
2.09005
2.10063
2.1029
2.10023
2.08748
2.05453
1.99665
1.92495
1.84348
1.75633
1.66751
1.58037
1.49765
1.42129
1.35256
1.29204
1.23973
1.19528
1.15809
1.12744
1.1025
1.08253
1.06692
1.05511
1.04658
1.04068
1.0367
1.0338
1.03123
1.02841
1.02512
1.02153
1.01802
1.01505
1.01273
1.01079
1.009
1.00705
1.00331
0.999993
0.998295
0.997702
0.997665
0.997883
0.998431
0.998937
0.999306
0.99956
0.999732
0.999838
0.999903
2.51355
2.45018
2.38524
2.32453
2.27016
2.20969
2.14667
2.09025
2.0391
1.99579
1.96182
1.94755
1.9476
1.94973
1.95854
1.97357
1.98651
1.99253
1.99653
1.99453
1.99122
1.98737
1.98185
1.9764
1.97144
1.96702
1.96283
1.95811
1.95214
1.94472
1.93611
1.92694
1.91822
1.91095
1.90551
1.90137
1.89739
1.89232
1.88537
1.87665
1.86697
1.8583
1.85319
1.85221
1.85301
1.85631
1.86495
1.88271
1.90295
1.91972
1.92942
1.93196
1.9302
1.92058
1.89535
1.84979
1.79228
1.72615
1.65451
1.58031
1.50634
1.43501
1.36817
1.30718
1.25277
1.20521
1.16443
1.13014
1.10184
1.07905
1.06117
1.04761
1.0378
1.03116
1.02708
1.02484
1.02367
1.02275
1.02145
1.01951
1.01708
1.0146
1.01251
1.01089
1.00954
1.00825
1.00643
1.00271
0.999623
0.998095
0.997593
0.997597
0.997865
0.998461
0.998958
0.999321
0.999571
0.99974
0.999843
0.999906
2.43793
2.40337
2.35767
2.30094
2.24144
2.18032
2.11678
2.06088
2.00833
1.96899
1.93771
1.91448
1.89754
1.8853
1.8785
1.87581
1.87384
1.87521
1.8764
1.8779
1.88254
1.88173
1.88169
1.88091
1.87888
1.87451
1.86772
1.85931
1.85024
1.8413
1.83288
1.82545
1.81955
1.81558
1.81336
1.81208
1.81071
1.80797
1.80275
1.7954
1.78696
1.77912
1.77422
1.77318
1.77378
1.7761
1.78155
1.7901
1.79779
1.80173
1.80195
1.79808
1.78306
1.75294
1.71489
1.6697
1.61877
1.5638
1.50667
1.44908
1.3926
1.33857
1.28811
1.24206
1.20089
1.1648
1.13367
1.1072
1.08498
1.06669
1.052
1.04063
1.03222
1.02645
1.02282
1.0208
1.01971
1.01891
1.01779
1.01605
1.01383
1.01157
1.00976
1.00847
1.00755
1.00661
1.00448
1.00105
0.998557
0.997398
0.997113
0.997213
0.997683
0.998365
0.998893
0.999276
0.999541
0.99972
0.99983
0.999897
2.37322
2.32559
2.28483
2.24146
2.1922
2.14538
2.09966
2.05526
2.01316
1.97351
1.93701
1.90267
1.87142
1.84482
1.82196
1.80695
1.79497
1.7916
1.79226
1.79426
1.79759
1.80356
1.80699
1.80713
1.80671
1.80479
1.79997
1.79093
1.78156
1.77347
1.76687
1.76168
1.75792
1.75558
1.75448
1.7539
1.753
1.75105
1.74704
1.74098
1.73369
1.72655
1.72135
1.71889
1.71808
1.71716
1.71611
1.71567
1.71507
1.71283
1.70463
1.68456
1.65595
1.62258
1.58509
1.54416
1.50073
1.45578
1.41034
1.36529
1.32135
1.2792
1.23945
1.20262
1.16916
1.13932
1.11316
1.09053
1.07124
1.05506
1.04187
1.03161
1.02417
1.01928
1.01649
1.0152
1.01469
1.01436
1.01373
1.0126
1.01106
1.00946
1.00819
1.00736
1.00685
1.00579
1.00367
1.00043
0.9982
0.99721
0.997016
0.99717
0.997733
0.998415
0.998931
0.999304
0.999559
0.999732
0.999838
0.999903
2.33643
2.29109
2.25014
2.2109
2.17181
2.13355
2.09442
2.05452
2.01421
1.97433
1.93554
1.89831
1.8633
1.83175
1.80381
1.78146
1.76434
1.75275
1.74609
1.74355
1.74406
1.74554
1.74692
1.74718
1.74603
1.74334
1.73883
1.73302
1.72645
1.72133
1.71731
1.71402
1.71136
1.70933
1.70781
1.7063
1.70404
1.70051
1.69584
1.69019
1.68338
1.67612
1.67011
1.66644
1.66394
1.66063
1.65613
1.65065
1.64208
1.62785
1.60703
1.58072
1.55109
1.51901
1.485
1.44953
1.41303
1.37595
1.33874
1.30194
1.26604
1.23149
1.19886
1.16851
1.14088
1.11621
1.09461
1.07593
1.05997
1.04649
1.0354
1.02669
1.0203
1.01618
1.01394
1.01307
1.0128
1.01251
1.01187
1.01061
1.00905
1.00759
1.00666
1.00626
1.00561
1.00457
1.00256
0.999482
0.997543
0.996779
0.996708
0.996972
0.997689
0.998389
0.998913
0.999291
0.99955
0.999726
0.999834
0.9999
2.31085
2.26909
2.23077
2.19436
2.15813
2.12122
2.08332
2.04537
2.00545
1.96472
1.92479
1.88712
1.85362
1.82314
1.79672
1.77382
1.75505
1.74002
1.72808
1.71842
1.7109
1.70373
1.6978
1.69286
1.68828
1.68349
1.67858
1.67475
1.67212
1.67059
1.67014
1.66986
1.66889
1.6679
1.66665
1.66448
1.66077
1.65565
1.64963
1.64311
1.63629
1.62933
1.62282
1.61759
1.61249
1.60482
1.59465
1.58329
1.56957
1.55144
1.52801
1.50061
1.47124
1.44075
1.40965
1.37816
1.34648
1.31481
1.28334
1.25234
1.22225
1.19348
1.16645
1.14145
1.11864
1.09815
1.08012
1.06447
1.051
1.03949
1.02988
1.0222
1.01653
1.01286
1.01097
1.01035
1.01024
1.0101
1.00966
1.00861
1.00718
1.00601
1.0055
1.00505
1.00467
1.00387
1.00213
0.999006
0.997211
0.9966
0.996613
0.996975
0.997776
0.998452
0.998959
0.999323
0.999572
0.99974
0.999843
0.999906
2.29915
2.26088
2.22227
2.18379
2.1446
2.10518
2.06548
2.0265
1.98841
1.95221
1.91809
1.88578
1.85554
1.82802
1.80405
1.78332
1.76542
1.74873
1.73257
1.71616
1.70015
1.68452
1.6707
1.65813
1.64775
1.64015
1.63472
1.6314
1.63065
1.63089
1.63174
1.63323
1.63333
1.63291
1.63172
1.62913
1.62427
1.6178
1.61078
1.60363
1.59619
1.58824
1.57935
1.57011
1.56076
1.54916
1.53446
1.51833
1.50098
1.48126
1.45787
1.43144
1.40393
1.3763
1.34885
1.32154
1.29425
1.26702
1.23999
1.21343
1.18766
1.16314
1.14024
1.11928
1.10027
1.08317
1.06796
1.05474
1.04339
1.03378
1.02569
1.0192
1.01438
1.01125
1.00971
1.00929
1.00925
1.00914
1.00867
1.00746
1.00603
1.00532
1.00483
1.00443
1.00407
1.00314
1.00095
0.998133
0.996723
0.996342
0.996441
0.996973
0.99781
0.998478
0.998976
0.999334
0.999578
0.999743
0.999845
0.999906
2.29481
2.26084
2.22454
2.1857
2.14548
2.10458
2.06385
2.02489
1.98812
1.95334
1.92095
1.89113
1.86505
1.84242
1.8222
1.80288
1.78323
1.76304
1.74198
1.72011
1.69821
1.67705
1.65733
1.64004
1.62556
1.61484
1.60706
1.6024
1.6
1.59909
1.59858
1.59777
1.59691
1.5951
1.59228
1.5889
1.58437
1.57812
1.57115
1.56378
1.55551
1.54605
1.53467
1.52191
1.50818
1.49296
1.47586
1.4573
1.43819
1.41794
1.39553
1.37074
1.34529
1.32057
1.29648
1.27261
1.24887
1.22532
1.20207
1.17937
1.15753
1.13692
1.11778
1.10031
1.08469
1.07048
1.05758
1.04638
1.03688
1.0288
1.02214
1.01678
1.01281
1.01014
1.0087
1.00824
1.00815
1.00796
1.00739
1.00619
1.00523
1.0047
1.00408
1.00386
1.00356
1.00254
0.999903
0.997487
0.996414
0.996205
0.996395
0.997075
0.997906
0.99855
0.999028
0.999369
0.999602
0.999759
0.999855
0.999913
2.29383
2.2599
2.22736
2.19016
2.14901
2.10715
2.06613
2.02733
1.99153
1.95923
1.9306
1.90498
1.88169
1.85953
1.83787
1.8161
1.79335
1.76968
1.74513
1.72091
1.69718
1.67486
1.65438
1.63652
1.62108
1.60865
1.59833
1.59039
1.58348
1.57771
1.57289
1.56768
1.56348
1.55888
1.55409
1.54924
1.54468
1.53923
1.53272
1.52447
1.51544
1.50466
1.49121
1.47558
1.45874
1.44121
1.42266
1.40312
1.38324
1.36284
1.34131
1.31859
1.29554
1.27353
1.2522
1.23142
1.21086
1.19051
1.17058
1.1513
1.13299
1.11571
1.09972
1.08461
1.07106
1.0591
1.04863
1.03959
1.03157
1.02435
1.01877
1.01452
1.01151
1.00952
1.00837
1.00779
1.0075
1.00711
1.00641
1.00565
1.00515
1.00414
1.00367
1.00351
1.00314
1.00185
0.998906
0.996906
0.996119
0.996053
0.996361
0.997182
0.997991
0.998611
0.99907
0.999397
0.99962
0.999769
0.999861
0.999916
2.26933
2.24587
2.21546
2.18418
2.14842
2.10932
2.07045
2.03329
1.99878
1.9671
1.9386
1.91284
1.88903
1.86604
1.84283
1.8188
1.79379
1.7685
1.74298
1.71848
1.69518
1.67446
1.65577
1.63947
1.62498
1.61165
1.59967
1.58762
1.57658
1.56488
1.55439
1.54382
1.5338
1.52538
1.51763
1.51103
1.50474
1.49836
1.49146
1.48262
1.47196
1.45998
1.4461
1.42893
1.41035
1.39122
1.37253
1.35362
1.33417
1.31407
1.29349
1.27291
1.25289
1.2338
1.21517
1.19691
1.17895
1.16153
1.14476
1.1285
1.11315
1.09899
1.08506
1.07209
1.06042
1.0502
1.04134
1.03366
1.02713
1.02164
1.01681
1.01297
1.01068
1.0093
1.00838
1.00767
1.00702
1.00632
1.00561
1.00532
1.00449
1.00356
1.00324
1.00312
1.00271
1.00119
0.998186
0.996481
0.995929
0.995974
0.996431
0.997343
0.998107
0.998696
0.999129
0.999437
0.999646
0.999786
0.999872
0.999923
2.24914
2.21845
2.1918
2.16201
2.13038
2.09966
2.06605
2.03257
2.00059
1.9703
1.9414
1.91379
1.88731
1.86122
1.83524
1.80982
1.78464
1.75988
1.73596
1.71378
1.69374
1.67585
1.65992
1.64521
1.63151
1.61763
1.60403
1.58928
1.5745
1.55882
1.54259
1.52761
1.51242
1.49968
1.48842
1.47859
1.47033
1.46185
1.45286
1.44291
1.42999
1.4154
1.4002
1.38288
1.36335
1.34374
1.3253
1.30719
1.28858
1.26959
1.25151
1.23392
1.21701
1.20012
1.18389
1.16793
1.15237
1.13752
1.12325
1.11008
1.09801
1.08547
1.07337
1.06247
1.05272
1.04411
1.03658
1.03005
1.0245
1.01994
1.01618
1.01293
1.01075
1.0098
1.00911
1.00827
1.00719
1.00618
1.00566
1.00488
1.00374
1.00324
1.00312
1.00304
1.00248
1.00042
0.997504
0.996133
0.995814
0.995961
0.9966
0.997503
0.998228
0.998781
0.999188
0.999475
0.999671
0.999801
0.999881
0.999928
2.20678
2.17861
2.15101
2.12579
2.10013
2.07019
2.04368
2.01655
1.98862
1.96101
1.93374
1.90636
1.87831
1.85009
1.82233
1.79561
1.77045
1.74749
1.7268
1.70858
1.69242
1.67778
1.66407
1.65057
1.63684
1.62251
1.60696
1.59044
1.57272
1.55447
1.53575
1.51704
1.49985
1.4832
1.46883
1.45593
1.4433
1.43184
1.41891
1.40538
1.39072
1.37373
1.35621
1.3384
1.31912
1.29915
1.28035
1.26261
1.24554
1.22862
1.21231
1.19712
1.18247
1.16826
1.1545
1.14103
1.12759
1.11489
1.10381
1.09405
1.08373
1.07314
1.06323
1.054
1.04576
1.03871
1.03258
1.02723
1.02267
1.01899
1.01616
1.01371
1.01172
1.01096
1.01041
1.00946
1.00808
1.00688
1.00572
1.00414
1.00338
1.00325
1.00331
1.0032
1.00218
0.999203
0.996817
0.99589
0.995777
0.996037
0.996824
0.997685
0.998363
0.998877
0.999254
0.99952
0.999699
0.999818
0.999892
0.999935
2.1718
2.15234
2.12536
2.09461
2.06492
2.03859
2.01296
1.98896
1.96757
1.94489
1.91957
1.89216
1.86357
1.83513
1.80763
1.78186
1.75859
1.7386
1.72153
1.70651
1.69267
1.67964
1.66666
1.65327
1.63903
1.62367
1.60722
1.58947
1.57067
1.55074
1.5305
1.51025
1.49057
1.47254
1.45484
1.43903
1.42307
1.40732
1.39119
1.37389
1.35616
1.33747
1.31789
1.29876
1.27978
1.26044
1.24194
1.2246
1.20802
1.19231
1.17703
1.16298
1.14997
1.13732
1.12559
1.11386
1.10169
1.09093
1.08303
1.07528
1.06695
1.05877
1.05089
1.04377
1.03747
1.03226
1.02773
1.02398
1.02072
1.01784
1.01568
1.0143
1.01296
1.01224
1.01187
1.0111
1.00974
1.00807
1.0056
1.00393
1.00346
1.00357
1.00377
1.00338
1.00126
0.998033
0.996346
0.99578
0.9958
0.996193
0.997081
0.997875
0.998502
0.998976
0.999322
0.999564
0.999728
0.999836
0.999903
0.999941
2.13148
2.1195
2.10612
2.08016
2.05163
2.02249
1.99447
1.96833
1.94268
1.91877
1.89658
1.87317
1.84853
1.82331
1.79834
1.77487
1.75376
1.73519
1.71913
1.70502
1.6918
1.67873
1.66538
1.65141
1.63653
1.62051
1.60331
1.58471
1.5649
1.54403
1.52278
1.50139
1.48089
1.46088
1.44245
1.42362
1.40604
1.38743
1.36845
1.34927
1.32869
1.30858
1.28787
1.26694
1.24767
1.22827
1.20952
1.19291
1.17741
1.16174
1.14805
1.13487
1.12231
1.11062
1.09957
1.08882
1.07716
1.06736
1.06136
1.05505
1.04864
1.04235
1.03638
1.03115
1.02688
1.02354
1.02092
1.01882
1.01715
1.01581
1.01479
1.01393
1.01349
1.01314
1.01288
1.01238
1.01136
1.00891
1.0057
1.004
1.00366
1.00388
1.00403
1.00313
1
0.997329
0.996078
0.995761
0.995879
0.996449
0.997337
0.998072
0.998647
0.999079
0.999391
0.99961
0.999757
0.999853
0.999914
0.999948
2.0834
2.07962
2.06517
2.04716
2.02223
1.9957
1.96874
1.94389
1.92116
1.89923
1.8768
1.85489
1.83337
1.81207
1.79131
1.77117
1.75185
1.73408
1.71787
1.70288
1.6885
1.67381
1.65839
1.64205
1.62497
1.60706
1.58847
1.5691
1.54904
1.52856
1.50793
1.48779
1.46789
1.44871
1.42942
1.41072
1.39102
1.37164
1.35117
1.33011
1.30912
1.28711
1.26591
1.24479
1.22391
1.2051
1.18667
1.16873
1.1538
1.13915
1.12465
1.11219
1.10043
1.08868
1.07882
1.06953
1.05863
1.04914
1.04392
1.03872
1.03348
1.02836
1.02357
1.01961
1.01678
1.01494
1.01381
1.01318
1.0129
1.01288
1.01304
1.0133
1.01342
1.01343
1.0134
1.01317
1.01212
1.00925
1.00594
1.00414
1.00376
1.00397
1.00399
1.00251
0.999078
0.996883
0.995966
0.995832
0.996058
0.996777
0.997609
0.998277
0.998795
0.999183
0.999462
0.999656
0.999786
0.999871
0.999925
0.999954
1.98202
2.01738
2.02489
2.01222
1.99834
1.97765
1.9539
1.92704
1.90155
1.87918
1.85883
1.83915
1.81967
1.80044
1.78168
1.76386
1.74695
1.73009
1.71355
1.69723
1.68072
1.66341
1.64532
1.62667
1.60774
1.58867
1.56963
1.55052
1.53145
1.51231
1.49332
1.47439
1.45555
1.43673
1.41766
1.39835
1.37848
1.35811
1.33709
1.31592
1.29372
1.27241
1.25024
1.22932
1.20898
1.18912
1.1716
1.15417
1.13774
1.12395
1.11008
1.09632
1.08557
1.07461
1.06401
1.0552
1.04568
1.03554
1.03036
1.02649
1.02237
1.01831
1.01449
1.01152
1.00974
1.00897
1.00878
1.0089
1.00946
1.01053
1.01159
1.0125
1.01316
1.01349
1.01353
1.01331
1.01218
1.00922
1.00608
1.00431
1.00381
1.00388
1.00371
1.00176
0.998423
0.996605
0.995991
0.996
0.996348
0.997153
0.997892
0.998486
0.998945
0.999286
0.999532
0.999701
0.999815
0.999888
0.999935
0.99996
1.72189
1.93026
1.96686
1.97554
1.96392
1.95206
1.93577
1.91653
1.89123
1.86525
1.84286
1.82372
1.80569
1.78799
1.77073
1.75369
1.73674
1.71947
1.70162
1.6833
1.66468
1.64634
1.62829
1.61028
1.59197
1.57333
1.55436
1.53529
1.51634
1.49763
1.47927
1.46105
1.44297
1.42459
1.40597
1.3867
1.36693
1.34648
1.32556
1.30411
1.28271
1.26087
1.23997
1.21907
1.19932
1.18052
1.1623
1.14595
1.12981
1.11462
1.10208
1.08881
1.07651
1.06706
1.05709
1.04796
1.03996
1.02999
1.0226
1.01978
1.01628
1.01273
1.00931
1.00678
1.00561
1.00543
1.0056
1.00629
1.00779
1.00947
1.01104
1.01237
1.01334
1.01383
1.01388
1.01352
1.01205
1.00896
1.00618
1.00461
1.00411
1.00398
1.00344
1.00092
0.997884
0.996509
0.99618
0.996285
0.996778
0.997539
0.998181
0.998697
0.999094
0.999389
0.9996
0.999745
0.999843
0.999905
0.999945
0.999966
1.38258
1.55472
1.85344
1.91465
1.92966
1.918
1.91076
1.90103
1.88421
1.85965
1.83263
1.80986
1.79259
1.77724
1.76066
1.74247
1.72274
1.70288
1.68314
1.66406
1.64606
1.62881
1.61148
1.59392
1.57592
1.55757
1.53896
1.52032
1.50182
1.48365
1.4658
1.4482
1.43066
1.41289
1.39474
1.37594
1.35658
1.33646
1.31593
1.29493
1.27391
1.25306
1.2326
1.21292
1.19398
1.17568
1.15852
1.14168
1.12656
1.11168
1.09806
1.0867
1.07447
1.06369
1.05565
1.04636
1.03827
1.03092
1.02216
1.01774
1.01553
1.01238
1.00925
1.00694
1.00603
1.00603
1.00637
1.00741
1.00917
1.01096
1.01261
1.01396
1.01483
1.01514
1.01503
1.01421
1.01202
1.00914
1.00675
1.00542
1.00489
1.00443
1.00325
0.99987
0.997485
0.996632
0.996529
0.996711
0.997272
0.997923
0.998467
0.998903
0.999239
0.999488
0.999665
0.999787
0.999869
0.99992
0.999954
0.999971
1.09311
1.28961
1.4747
1.7834
1.86813
1.88909
1.877
1.87412
1.86965
1.85432
1.82931
1.80204
1.77573
1.75449
1.73772
1.72246
1.70675
1.68983
1.67187
1.65329
1.63434
1.61547
1.59684
1.57845
1.56013
1.54186
1.52362
1.50563
1.48793
1.47061
1.45354
1.43664
1.41966
1.40246
1.38477
1.3665
1.34757
1.32803
1.30806
1.2878
1.26759
1.24767
1.22826
1.2095
1.19132
1.17392
1.15707
1.14129
1.1262
1.11251
1.0994
1.08758
1.07729
1.06633
1.05711
1.05004
1.04144
1.03429
1.0279
1.0213
1.01892
1.01667
1.0137
1.01142
1.01051
1.01052
1.01088
1.01194
1.01357
1.01518
1.01656
1.01753
1.01799
1.01796
1.01739
1.01562
1.0129
1.01026
1.00824
1.00709
1.00636
1.00513
1.00225
0.998835
0.997408
0.997008
0.997017
0.997236
0.997766
0.998295
0.998742
0.999101
0.999378
0.999582
0.999727
0.999827
0.999893
0.999935
0.999963
0.999976
1.02848
1.06579
1.21241
1.39444
1.69753
1.83041
1.85283
1.84565
1.83596
1.82617
1.81469
1.79319
1.76831
1.74381
1.72279
1.70567
1.69069
1.67585
1.65983
1.64234
1.62367
1.60436
1.58502
1.56591
1.54719
1.52898
1.51124
1.49391
1.47686
1.46009
1.44346
1.42694
1.4103
1.3934
1.37604
1.35818
1.33978
1.32093
1.30174
1.28244
1.26326
1.24439
1.22598
1.20804
1.19066
1.17388
1.15785
1.14278
1.12872
1.11574
1.10369
1.09237
1.08199
1.07273
1.06305
1.05544
1.04902
1.04114
1.0353
1.03024
1.02563
1.0241
1.02171
1.01925
1.01822
1.01819
1.01849
1.0194
1.02066
1.02181
1.02267
1.02304
1.02297
1.02232
1.02055
1.01802
1.01527
1.01282
1.01108
1.00979
1.00802
1.00438
1.0004
0.998522
0.997749
0.997551
0.997581
0.997787
0.998228
0.998646
0.999001
0.999287
0.999507
0.999669
0.999784
0.999863
0.999915
0.999948
0.99997
0.999981
1.00773
1.01848
1.0545
1.13099
1.35933
1.54994
1.77463
1.79513
1.80372
1.79151
1.78516
1.77315
1.75476
1.73485
1.71588
1.69873
1.68278
1.66671
1.64955
1.63118
1.61196
1.59255
1.57339
1.55483
1.53685
1.51947
1.50252
1.48582
1.46927
1.45282
1.43639
1.41991
1.40329
1.3864
1.36919
1.35162
1.33371
1.31552
1.29719
1.2789
1.26076
1.2429
1.22537
1.20817
1.19151
1.17555
1.16056
1.14648
1.13336
1.12112
1.10969
1.09912
1.08917
1.08014
1.07188
1.06373
1.05742
1.0515
1.04479
1.0405
1.03675
1.03345
1.03209
1.02985
1.02847
1.02833
1.02853
1.02912
1.02987
1.03039
1.03053
1.0303
1.02937
1.02739
1.02488
1.02199
1.01919
1.01698
1.01489
1.01193
1.00618
1.00246
1.0002
0.998901
0.9983
0.998146
0.998171
0.99833
0.99866
0.998974
0.999242
0.999459
0.999625
0.999748
0.999835
0.999895
0.999935
0.99996
0.999977
0.999985
1.00225
1.00387
1.01127
1.03653
1.0884
1.22491
1.47502
1.66539
1.72574
1.75268
1.74887
1.74648
1.74023
1.72667
1.71001
1.69226
1.67496
1.6578
1.64004
1.62136
1.60215
1.58299
1.56429
1.54621
1.52877
1.51185
1.49531
1.47904
1.46279
1.44654
1.43019
1.4137
1.39705
1.38024
1.36328
1.34621
1.32904
1.31177
1.29447
1.2772
1.26006
1.24299
1.22615
1.2098
1.19417
1.1793
1.16522
1.15198
1.13961
1.12807
1.11734
1.1073
1.09798
1.08938
1.08142
1.07426
1.06751
1.06206
1.05688
1.0517
1.04886
1.0459
1.04328
1.04216
1.0406
1.04014
1.04018
1.04034
1.04043
1.04027
1.03964
1.03822
1.03611
1.03345
1.03052
1.02768
1.02485
1.02124
1.01485
1.00946
1.00548
1.00263
1.00069
0.999512
0.998926
0.998755
0.998762
0.99885
0.999057
0.999272
0.999459
0.999612
0.99973
0.999818
0.99988
0.999923
0.999953
0.999971
0.999983
0.999988
1.00047
1.0008
1.00231
1.00787
1.02378
1.05169
1.1602
1.28919
1.51621
1.68664
1.70449
1.71853
1.70931
1.70364
1.69364
1.68344
1.66787
1.65069
1.63315
1.61521
1.59668
1.57793
1.55939
1.54134
1.52378
1.5067
1.49002
1.4736
1.45729
1.44092
1.42454
1.40816
1.39172
1.37523
1.35876
1.34231
1.32595
1.30964
1.29335
1.27698
1.26053
1.2443
1.22854
1.21337
1.19874
1.18475
1.17147
1.15901
1.14738
1.13653
1.12641
1.11693
1.10811
1.09988
1.09238
1.08547
1.07929
1.07378
1.06897
1.06478
1.06118
1.05906
1.05651
1.05457
1.05377
1.05291
1.05259
1.05226
1.05159
1.05058
1.04893
1.04667
1.04392
1.04086
1.03759
1.03328
1.02632
1.01983
1.01418
1.00949
1.00581
1.00312
1.00132
1.00021
0.999601
0.999338
0.999296
0.99932
0.999407
0.999531
0.999645
0.999742
0.999818
0.999876
0.999918
0.999947
0.999967
0.999979
0.999988
0.999992
1.0001
1.00016
1.00047
1.0016
1.00497
1.0114
1.03535
1.07529
1.21129
1.36362
1.56752
1.65057
1.67429
1.67349
1.67077
1.6637
1.65133
1.63903
1.62511
1.60998
1.59365
1.57619
1.55816
1.53998
1.52205
1.50443
1.48714
1.47021
1.45355
1.43711
1.42076
1.4046
1.38851
1.37245
1.3565
1.34067
1.32502
1.30939
1.29367
1.27792
1.2624
1.24741
1.23279
1.21858
1.20483
1.19166
1.17922
1.16753
1.15665
1.14646
1.13689
1.12789
1.11945
1.11161
1.10443
1.09786
1.09199
1.08671
1.08217
1.07815
1.07492
1.07241
1.0704
1.06828
1.06706
1.06627
1.0654
1.06443
1.06299
1.06114
1.0587
1.05581
1.05238
1.0473
1.04056
1.03362
1.02659
1.02005
1.01439
1.00975
1.0062
1.00365
1.00194
1.00086
1.00022
0.99988
0.99972
0.999689
0.999699
0.999738
0.999793
0.999845
0.999888
0.999922
0.999948
0.999966
0.999978
0.999986
0.999992
0.999994
1.00001
1.00002
1.00012
1.00011
1.00072
1.00222
1.00623
1.01611
1.04339
1.12063
1.22781
1.42528
1.58865
1.62147
1.6368
1.63208
1.62648
1.61885
1.60815
1.59972
1.58796
1.57353
1.55733
1.54002
1.52236
1.5046
1.48711
1.4699
1.45302
1.43642
1.42004
1.40388
1.38798
1.37218
1.3565
1.34098
1.32566
1.31049
1.29547
1.28077
1.26644
1.25247
1.23878
1.22542
1.21252
1.20022
1.1886
1.17771
1.16748
1.15788
1.14876
1.14014
1.13204
1.12451
1.11762
1.11133
1.10567
1.10063
1.09622
1.0924
1.08924
1.08669
1.08456
1.08234
1.08077
1.07982
1.07849
1.07667
1.07444
1.07167
1.06787
1.06298
1.05702
1.04995
1.04215
1.03422
1.02671
1.02001
1.01432
1.00978
1.00642
1.00403
1.00241
1.00135
1.00068
1.00028
1.00006
0.999946
0.999898
0.999895
0.999902
0.99992
0.999939
0.999956
0.99997
0.99998
0.999987
0.999992
0.999995
0.999996
1
1.00001
1.00001
1.00005
1.00006
1.00042
1.00038
1.00307
1.00805
1.02144
1.05272
1.12572
1.27257
1.42815
1.55858
1.58618
1.59548
1.59136
1.58749
1.57927
1.57062
1.56311
1.55204
1.53808
1.5223
1.5058
1.48896
1.47196
1.455
1.43831
1.42183
1.40567
1.38979
1.37423
1.35887
1.34375
1.32897
1.31447
1.30032
1.28648
1.2729
1.25966
1.24682
1.23432
1.22222
1.21074
1.1999
1.18969
1.18003
1.17085
1.1621
1.15371
1.14584
1.13856
1.13189
1.12583
1.12036
1.11547
1.11115
1.10739
1.10418
1.10148
1.09901
1.09657
1.09459
1.09311
1.09098
1.08804
1.08447
1.08005
1.07447
1.06766
1.05971
1.05107
1.04226
1.03377
1.02597
1.01914
1.01359
1.00939
1.00632
1.00414
1.00263
1.00161
1.00094
1.00052
1.00026
1.00011
1.00003
0.999988
0.999972
0.999971
0.999973
0.999979
0.999985
0.999989
0.999993
0.999995
0.999997
0.999997
1
1
1
1.00001
1.00002
1.00005
1.00017
1.00045
1.00149
1.00339
1.00994
1.02261
1.05817
1.12593
1.26067
1.41677
1.52728
1.55066
1.5557
1.55208
1.5486
1.54173
1.53376
1.52595
1.51631
1.50378
1.48945
1.47457
1.45929
1.44365
1.42784
1.41203
1.39645
1.38112
1.36605
1.35118
1.33664
1.32251
1.30861
1.2951
1.2821
1.26956
1.25747
1.24573
1.23438
1.22351
1.21331
1.20361
1.19432
1.18542
1.17679
1.16858
1.16087
1.15379
1.14732
1.14138
1.13599
1.1311
1.12674
1.12288
1.11946
1.11636
1.11339
1.1105
1.10809
1.10549
1.1019
1.0975
1.09218
1.08572
1.07806
1.06935
1.05995
1.0503
1.04076
1.03168
1.02364
1.01718
1.01223
1.00854
1.00584
1.00391
1.00255
1.00162
1.001
1.0006
1.00034
1.00018
1.00009
1.00004
1.00001
0.999998
0.999993
0.999993
0.999994
0.999995
0.999997
0.999998
0.999999
0.999999
1
1
1
1
1
1
1.00003
1.00002
1.00019
1.00028
1.00151
1.00363
1.01004
1.02431
1.05846
1.13502
1.22559
1.38876
1.48391
1.51383
1.51656
1.51655
1.51344
1.50621
1.49797
1.4902
1.48215
1.47171
1.45925
1.44608
1.43242
1.41832
1.4039
1.38932
1.37481
1.36043
1.34636
1.33275
1.31959
1.30665
1.29425
1.28236
1.27083
1.25966
1.24882
1.23844
1.22862
1.21927
1.21014
1.20127
1.19273
1.18464
1.17708
1.1701
1.16364
1.15771
1.15224
1.14725
1.14268
1.13846
1.13454
1.13074
1.12702
1.12352
1.11997
1.11532
1.10983
1.10349
1.09616
1.08776
1.07842
1.06837
1.05779
1.04686
1.03631
1.02728
1.02013
1.0146
1.01041
1.00729
1.00501
1.00337
1.00223
1.00144
1.00091
1.00056
1.00033