/*--------------------------------*- C++ -*----------------------------------*\
  =========                 |
  \\      /  F ield         | OpenFOAM: The Open Source CFD Toolbox
   \\    /   O peration     | Website:  https://openfoam.org
    \\  /    A nd           | Version:  6
     \\/     M anipulation  |
\*---------------------------------------------------------------------------*/
FoamFile
{
    version     2.0;
    format      ascii;
    class       volVectorField;
    location    "0.5";
    object      U;
}
// * * * * * * * * * * * * * * * * * * * * * * * * * * * * * * * * * * * * * //

dimensions      [0 1 -1 0 0 0 0];

internalField   nonuniform List<vector> 
5250
(
(3 6.08512e-09 0)
(2.99999 4.1028e-08 0)
(2.99999 1.266e-07 0)
(2.99997 3.65819e-07 0)
(2.99991 8.81075e-07 0)
(2.9998 2.25758e-06 0)
(2.99948 5.13314e-06 0)
(2.99883 1.25448e-05 0)
(2.99688 2.74046e-05 0)
(2.99308 6.52512e-05 0)
(2.98055 0.000138929 0)
(2.95672 0.00032383 0)
(2.87289 0.000694902 0)
(2.66148 0.00168866 0)
(2.07699 0.00354439 0)
(0.548252 0.010334 0)
(-0.204051 0.02361 0)
(0.0973475 0.0322491 0)
(0.273595 0.033555 0)
(0.319244 0.0361771 0)
(0.30751 0.0400703 0)
(0.223628 0.0436183 0)
(0.142371 0.0460495 0)
(0.0329396 0.0520955 0)
(0.119367 0.0516075 0)
(3 1.82978e-08 0)
(2.99999 1.23783e-07 0)
(2.99999 3.8201e-07 0)
(2.99997 1.10945e-06 0)
(2.99991 2.6768e-06 0)
(2.9998 6.90783e-06 0)
(2.99949 1.57493e-05 0)
(2.99885 3.87945e-05 0)
(2.99692 8.49571e-05 0)
(2.99317 0.000204225 0)
(2.98076 0.000435212 0)
(2.9572 0.00103333 0)
(2.87396 0.00220327 0)
(2.66407 0.00553368 0)
(2.08284 0.0118137 0)
(0.558007 0.0348546 0)
(-0.196474 0.0747103 0)
(0.0988342 0.0936267 0)
(0.273568 0.0914317 0)
(0.321262 0.0929863 0)
(0.307321 0.0976902 0)
(0.222404 0.100826 0)
(0.144427 0.10168 0)
(0.0374726 0.106661 0)
(0.105509 0.105686 0)
(3 3.00666e-08 0)
(2.99999 2.04326e-07 0)
(2.99999 6.30805e-07 0)
(2.99997 1.84787e-06 0)
(2.99992 4.47237e-06 0)
(2.99981 1.17016e-05 0)
(2.99951 2.68364e-05 0)
(2.99889 6.71394e-05 0)
(2.997 0.000147986 0)
(2.99336 0.000361038 0)
(2.98122 0.000775207 0)
(2.95824 0.00187022 0)
(2.87646 0.00400197 0)
(2.67036 0.0102902 0)
(2.09815 0.0224139 0)
(0.585994 0.0669079 0)
(-0.171611 0.138572 0)
(0.104232 0.160663 0)
(0.272032 0.149074 0)
(0.321923 0.150057 0)
(0.306544 0.160269 0)
(0.220525 0.168785 0)
(0.1458 0.172673 0)
(0.0431657 0.180187 0)
(0.0955252 0.180387 0)
(3 4.0132e-08 0)
(3 2.73279e-07 0)
(2.99999 8.43739e-07 0)
(2.99997 2.49053e-06 0)
(2.99992 6.04078e-06 0)
(2.99982 1.60772e-05 0)
(2.99953 3.71363e-05 0)
(2.99894 9.50409e-05 0)
(2.99714 0.000211775 0)
(2.99367 0.000526328 0)
(2.98199 0.0011486 0)
(2.95996 0.00279381 0)
(2.88071 0.00605886 0)
(2.6813 0.0157252 0)
(2.12569 0.0348591 0)
(0.63688 0.103804 0)
(-0.128542 0.210576 0)
(0.109608 0.227269 0)
(0.267761 0.199292 0)
(0.32457 0.201526 0)
(0.310549 0.22142 0)
(0.223255 0.239633 0)
(0.150186 0.250502 0)
(0.051727 0.262997 0)
(0.0883521 0.26705 0)
(3 4.74764e-08 0)
(3 3.22924e-07 0)
(2.99999 9.96573e-07 0)
(2.99997 2.95017e-06 0)
(2.99993 7.15081e-06 0)
(2.99983 1.93071e-05 0)
(2.99956 4.48183e-05 0)
(2.99902 0.000117873 0)
(2.99734 0.000266147 0)
(2.99411 0.000679195 0)
(2.98307 0.00152123 0)
(2.96245 0.00372915 0)
(2.88688 0.00829791 0)
(2.69752 0.0216239 0)
(2.16693 0.0490047 0)
(0.713182 0.144536 0)
(-0.0676316 0.29099 0)
(0.110825 0.29204 0)
(0.260401 0.24066 0)
(0.332228 0.248476 0)
(0.322326 0.281216 0)
(0.234477 0.311597 0)
(0.160886 0.332031 0)
(0.0647023 0.350753 0)
(0.0842717 0.360673 0)
(3 5.13101e-08 0)
(3 3.48905e-07 0)
(2.99999 1.07673e-06 0)
(2.99997 3.18815e-06 0)
(2.99993 7.70809e-06 0)
(2.99985 2.09795e-05 0)
(2.9996 4.87201e-05 0)
(2.99911 0.000131427 0)
(2.99758 0.000299848 0)
(2.99468 0.000792817 0)
(2.98448 0.00182313 0)
(2.96579 0.00459418 0)
(2.89521 0.0105666 0)
(2.71997 0.0279615 0)
(2.22445 0.0653708 0)
(0.822111 0.189187 0)
(0.0145942 0.382048 0)
(0.103958 0.351888 0)
(0.250946 0.273634 0)
(0.349803 0.293968 0)
(0.344979 0.342825 0)
(0.25573 0.38701 0)
(0.178733 0.41863 0)
(0.0828024 0.445272 0)
(0.0834554 0.462882 0)
(3 5.11968e-08 0)
(3 3.48103e-07 0)
(2.99999 1.07613e-06 0)
(2.99998 3.18348e-06 0)
(2.99994 7.66482e-06 0)
(2.99986 2.08992e-05 0)
(2.99964 4.82739e-05 0)
(2.99921 0.000132653 0)
(2.99785 0.000303371 0)
(2.99533 0.000836914 0)
(2.98618 0.001931 0)
(2.96998 0.00520402 0)
(2.90599 0.012139 0)
(2.75013 0.0339901 0)
(2.30154 0.0823294 0)
(0.971001 0.23541 0)
(0.122327 0.484485 0)
(0.0878263 0.395438 0)
(0.245329 0.305425 0)
(0.383554 0.343962 0)
(0.381356 0.410804 0)
(0.289063 0.468616 0)
(0.206097 0.513605 0)
(0.108743 0.551297 0)
(0.0873634 0.580029 0)
(3 4.99139e-08 0)
(3 3.3489e-07 0)
(2.99999 1.03905e-06 0)
(2.99998 3.02705e-06 0)
(2.99994 7.21007e-06 0)
(2.99988 1.9374e-05 0)
(2.99968 4.40514e-05 0)
(2.9993 0.000121774 0)
(2.99813 0.000275182 0)
(2.99598 0.0007973 0)
(2.98806 0.00177938 0)
(2.97457 0.005342 0)
(2.91909 0.0123404 0)
(2.7881 0.0371513 0)
(2.39936 0.0945196 0)
(1.17587 0.273396 0)
(0.257556 0.589894 0)
(0.0706499 0.42592 0)
(0.261703 0.347349 0)
(0.435692 0.403405 0)
(0.430709 0.487363 0)
(0.334761 0.557934 0)
(0.246777 0.619985 0)
(0.146111 0.674221 0)
(0.0989925 0.723887 0)
(3 5.17374e-08 0)
(3 3.37972e-07 0)
(2.99999 1.05299e-06 0)
(2.99998 2.96113e-06 0)
(2.99995 6.94255e-06 0)
(2.99989 1.77782e-05 0)
(2.99972 3.93772e-05 0)
(2.99938 0.000104807 0)
(2.99838 0.000229717 0)
(2.99653 0.000674918 0)
(2.98992 0.00141895 0)
(2.97903 0.00478115 0)
(2.93275 0.010586 0)
(2.83046 0.0354446 0)
(2.51036 0.0932266 0)
(1.45824 0.284718 0)
(0.43469 0.667849 0)
(0.0726552 0.457237 0)
(0.300813 0.404386 0)
(0.500481 0.475145 0)
(0.491716 0.572235 0)
(0.395211 0.65557 0)
(0.307149 0.737379 0)
(0.207475 0.820173 0)
(0.129597 0.920422 0)
(3 5.73614e-08 0)
(3 3.67287e-07 0)
(2.99999 1.14683e-06 0)
(2.99998 3.12945e-06 0)
(2.99996 7.264e-06 0)
(2.9999 1.76173e-05 0)
(2.99975 3.82424e-05 0)
(2.99944 9.40042e-05 0)
(2.99857 0.000199669 0)
(2.99692 0.000541866 0)
(2.99145 0.00108193 0)
(2.98239 0.00370007 0)
(2.94525 0.00737132 0)
(2.86862 0.0281456 0)
(2.62228 0.0714232 0)
(1.80802 0.236426 0)
(0.66061 0.628717 0)
(0.104896 0.476662 0)
(0.354523 0.475923 0)
(0.56984 0.558958 0)
(0.56028 0.660252 0)
(0.471782 0.755719 0)
(0.39802 0.862146 0)
(0.324326 0.995709 0)
(0.211492 1.22374 0)
(3 6.47061e-08 0)
(3 4.10598e-07 0)
(2.99999 1.28011e-06 0)
(2.99998 3.44901e-06 0)
(2.99996 7.98284e-06 0)
(2.99991 1.89251e-05 0)
(2.99978 4.08561e-05 0)
(2.9995 9.60691e-05 0)
(2.99873 0.00020152 0)
(2.99723 0.000501303 0)
(2.99253 0.00100493 0)
(2.98437 0.0029854 0)
(2.95377 0.00564024 0)
(2.8918 0.0200091 0)
(2.6967 0.0489234 0)
(2.0824 0.151087 0)
(0.889935 0.449873 0)
(0.168809 0.49834 0)
(0.416269 0.572982 0)
(0.630651 0.650006 0)
(0.630949 0.742237 0)
(0.569861 0.844876 0)
(0.540448 0.970664 0)
(0.574664 1.13479 0)
(0.662222 1.38182 0)
(3 6.99061e-08 0)
(3 4.45775e-07 0)
(2.99999 1.38453e-06 0)
(2.99999 3.75607e-06 0)
(2.99997 8.74673e-06 0)
(2.99992 2.09618e-05 0)
(2.99981 4.58282e-05 0)
(2.99957 0.000107979 0)
(2.99889 0.00023028 0)
(2.99757 0.00055306 0)
(2.99349 0.00115367 0)
(2.98632 0.00298286 0)
(2.95984 0.00597458 0)
(2.90952 0.016982 0)
(2.73799 0.041516 0)
(2.23112 0.107356 0)
(1.14327 0.309178 0)
(0.306605 0.55558 0)
(0.482875 0.684499 0)
(0.664722 0.732863 0)
(0.693394 0.809866 0)
(0.676417 0.912227 0)
(0.696994 1.03929 0)
(0.800131 1.19254 0)
(0.991547 1.3646 0)
(3 6.82923e-08 0)
(3 4.42061e-07 0)
(3 1.369e-06 0)
(2.99999 3.78012e-06 0)
(2.99997 8.88754e-06 0)
(2.99994 2.17883e-05 0)
(2.99984 4.83975e-05 0)
(2.99964 0.000116025 0)
(2.99908 0.000252609 0)
(2.99797 0.000604261 0)
(2.99453 0.00131048 0)
(2.98847 0.00314252 0)
(2.96574 0.0067665 0)
(2.92514 0.0169398 0)
(2.77414 0.0397274 0)
(2.35286 0.10466 0)
(1.41598 0.271334 0)
(0.518979 0.615615 0)
(0.548674 0.754034 0)
(0.674408 0.793548 0)
(0.74854 0.857573 0)
(0.775735 0.951744 0)
(0.830866 1.06291 0)
(0.952974 1.18226 0)
(1.14742 1.28001 0)
(3 6.03015e-08 0)
(3 3.93775e-07 0)
(3 1.21886e-06 0)
(2.99999 3.3997e-06 0)
(2.99998 8.01926e-06 0)
(2.99995 1.99461e-05 0)
(2.99987 4.4494e-05 0)
(2.99972 0.000108716 0)
(2.99927 0.000237709 0)
(2.99841 0.000582177 0)
(2.99558 0.00127026 0)
(2.99097 0.00310199 0)
(2.97164 0.00676352 0)
(2.94016 0.0173474 0)
(2.81167 0.0387405 0)
(2.47008 0.110607 0)
(1.67751 0.269953 0)
(0.741935 0.675692 0)
(0.62005 0.776855 0)
(0.704023 0.828012 0)
(0.800379 0.880822 0)
(0.861604 0.962358 0)
(0.934887 1.05355 0)
(1.05368 1.14139 0)
(1.22513 1.20241 0)
(3 5.1541e-08 0)
(3 3.35351e-07 0)
(3 1.03885e-06 0)
(2.99999 2.88194e-06 0)
(2.99998 6.77659e-06 0)
(2.99996 1.67198e-05 0)
(2.99991 3.7018e-05 0)
(2.99979 8.98886e-05 0)
(2.99944 0.000193483 0)
(2.9988 0.000480775 0)
(2.9966 0.000993116 0)
(2.99314 0.0027388 0)
(2.97794 0.00508791 0)
(2.95466 0.0173595 0)
(2.85194 0.033117 0)
(2.59762 0.120587 0)
(1.9674 0.281283 0)
(0.985405 0.752086 0)
(0.706112 0.809298 0)
(0.760558 0.854605 0)
(0.861305 0.892157 0)
(0.943581 0.956199 0)
(1.0217 1.02896 0)
(1.12804 1.09474 0)
(1.27257 1.1383 0)
(3 4.34533e-08 0)
(3 2.823e-07 0)
(3 8.74333e-07 0)
(3 2.42254e-06 0)
(2.99999 5.69509e-06 0)
(2.99997 1.40294e-05 0)
(2.99993 3.10543e-05 0)
(2.99984 7.53491e-05 0)
(2.99957 0.00016212 0)
(2.99905 0.000404335 0)
(2.99745 0.000832454 0)
(2.99443 0.0023277 0)
(2.98426 0.00429539 0)
(2.96574 0.0147711 0)
(2.89916 0.0278867 0)
(2.73664 0.102287 0)
(2.31102 0.238287 0)
(1.3 0.688191 0)
(0.849457 0.812991 0)
(0.850956 0.881037 0)
(0.930853 0.915089 0)
(1.02148 0.955198 0)
(1.0992 1.0065 0)
(1.19088 1.05476 0)
(1.31028 1.08695 0)
(3 3.52562e-08 0)
(3 2.30731e-07 0)
(3 7.13161e-07 0)
(3 2.0031e-06 0)
(2.99999 4.74348e-06 0)
(2.99998 1.1957e-05 0)
(2.99995 2.68724e-05 0)
(2.99989 6.68106e-05 0)
(2.9997 0.000147282 0)
(2.99933 0.000368839 0)
(2.99819 0.000800269 0)
(2.99606 0.00204371 0)
(2.98876 0.0043453 0)
(2.97606 0.0116871 0)
(2.92812 0.0246346 0)
(2.81832 0.0720767 0)
(2.51306 0.170006 0)
(1.62071 0.496319 0)
(1.00935 0.825894 0)
(0.941603 0.917303 0)
(0.990102 0.956923 0)
(1.07964 0.972529 0)
(1.16352 0.996904 0)
(1.24686 1.02635 0)
(1.34699 1.04837 0)
(3 2.47978e-08 0)
(3 1.64112e-07 0)
(3 5.05833e-07 0)
(3 1.44478e-06 0)
(2.99999 3.44274e-06 0)
(2.99999 8.91549e-06 0)
(2.99997 2.02745e-05 0)
(2.99993 5.19692e-05 0)
(2.99981 0.000116294 0)
(2.99957 0.000298434 0)
(2.99883 0.000658127 0)
(2.99743 0.00169168 0)
(2.99264 0.00367583 0)
(2.98411 0.00972355 0)
(2.95217 0.0205879 0)
(2.88323 0.057959 0)
(2.67216 0.139372 0)
(2.00539 0.39425 0)
(1.29383 0.862264 0)
(1.06966 0.957226 0)
(1.07111 0.994888 0)
(1.13533 0.999679 0)
(1.22035 1.00123 0)
(1.30164 1.01168 0)
(1.38879 1.02342 0)
(3 1.52654e-08 0)
(3 1.01265e-07 0)
(3 3.12373e-07 0)
(3 8.95265e-07 0)
(3 2.12987e-06 0)
(2.99999 5.55211e-06 0)
(2.99998 1.26035e-05 0)
(2.99996 3.26749e-05 0)
(2.99989 7.30163e-05 0)
(2.99976 0.000190583 0)
(2.99934 0.000419483 0)
(2.99862 0.00111368 0)
(2.99575 0.00240689 0)
(2.99133 0.00663487 0)
(2.97148 0.0144177 0)
(2.93721 0.0404843 0)
(2.8084 0.0989003 0)
(2.43795 0.283646 0)
(1.71254 0.724736 0)
(1.23875 0.961619 0)
(1.17159 1.0176 0)
(1.19917 1.03298 0)
(1.27143 1.02355 0)
(1.35221 1.01679 0)
(1.43277 1.01599 0)
(3 1.05504e-08 0)
(3 6.89511e-08 0)
(3 2.13174e-07 0)
(3 5.98274e-07 0)
(3 1.41621e-06 0)
(3 3.5621e-06 0)
(2.99999 7.98245e-06 0)
(2.99997 1.98139e-05 0)
(2.99993 4.32814e-05 0)
(2.99985 0.000109478 0)
(2.99959 0.000233182 0)
(2.99911 0.000626562 0)
(2.99746 0.00126325 0)
(2.9949 0.00382707 0)
(2.98286 0.00747837 0)
(2.96571 0.0247282 0)
(2.88384 0.0519746 0)
(2.68799 0.170319 0)
(2.18066 0.434768 0)
(1.48255 0.913294 0)
(1.28393 1.02515 0)
(1.27017 1.05642 0)
(1.31545 1.05279 0)
(1.39225 1.03429 0)
(1.47134 1.02178 0)
(3 6.64656e-09 0)
(3 4.37582e-08 0)
(3 1.34761e-07 0)
(3 3.82838e-07 0)
(3 9.095e-07 0)
(3 2.34639e-06 0)
(2.99999 5.32046e-06 0)
(2.99999 1.36771e-05 0)
(2.99996 3.06334e-05 0)
(2.99992 7.9295e-05 0)
(2.99977 0.000176885 0)
(2.99949 0.00045272 0)
(2.99855 0.000994092 0)
(2.99688 0.00261 0)
(2.99063 0.00520084 0)
(2.97985 0.0163764 0)
(2.93791 0.0312467 0)
(2.84271 0.107973 0)
(2.5678 0.260014 0)
(1.8638 0.718516 0)
(1.46069 0.993377 0)
(1.3704 1.05976 0)
(1.37564 1.0739 0)
(1.43085 1.05996 0)
(1.50631 1.03642 0)
(3 3.57438e-09 0)
(3 2.36644e-08 0)
(3 7.284e-08 0)
(3 2.08751e-07 0)
(3 4.96709e-07 0)
(3 1.29445e-06 0)
(3 2.94023e-06 0)
(2.99999 7.59295e-06 0)
(2.99998 1.69674e-05 0)
(2.99996 4.40107e-05 0)
(2.9999 9.68802e-05 0)
(2.9998 0.000255027 0)
(2.99934 0.000552099 0)
(2.99867 0.00150329 0)
(2.99556 0.00319245 0)
(2.99058 0.00920118 0)
(2.96963 0.0198144 0)
(2.92779 0.0580051 0)
(2.78839 0.142961 0)
(2.34727 0.41799 0)
(1.78312 0.856375 0)
(1.51195 1.03119 0)
(1.46046 1.08 0)
(1.47778 1.08663 0)
(1.53442 1.06613 0)
(3 1.95451e-09 0)
(3 1.28276e-08 0)
(3 3.95652e-08 0)
(3 1.12278e-07 0)
(3 2.67111e-07 0)
(3 6.81073e-07 0)
(3 1.53974e-06 0)
(3 3.81911e-06 0)
(2.99999 8.38775e-06 0)
(2.99998 2.06565e-05 0)
(2.99994 4.29169e-05 0)
(2.99987 0.000114669 0)
(2.99965 0.00021784 0)
(2.99924 0.000688359 0)
(2.99774 0.00132925 0)
(2.99564 0.00437232 0)
(2.98439 0.00896791 0)
(2.96943 0.0285594 0)
(2.89284 0.0654407 0)
(2.70769 0.205211 0)
(2.2605 0.531562 0)
(1.73317 0.928421 0)
(1.5695 1.05581 0)
(1.54304 1.09471 0)
(1.56751 1.09553 0)
(3 9.30019e-10 0)
(3 6.22757e-09 0)
(3 1.91673e-08 0)
(3 5.59044e-08 0)
(3 1.34296e-07 0)
(3 3.54364e-07 0)
(3 8.12008e-07 0)
(3 2.09038e-06 0)
(3 4.68942e-06 0)
(2.99999 1.20591e-05 0)
(2.99998 2.6576e-05 0)
(2.99995 6.95257e-05 0)
(2.99985 0.000151025 0)
(2.99966 0.000404191 0)
(2.99898 0.00085316 0)
(2.99781 0.00242795 0)
(2.99309 0.00475156 0)
(2.98511 0.015733 0)
(2.95266 0.0306574 0)
(2.88198 0.103417 0)
(2.66363 0.258168 0)
(2.11832 0.666545 0)
(1.76977 0.968159 0)
(1.65826 1.05959 0)
(1.63639 1.094 0)
(3 4.15829e-10 0)
(3 2.80344e-09 0)
(3 8.49604e-09 0)
(3 2.46166e-08 0)
(3 5.79186e-08 0)
(3 1.50891e-07 0)
(3 3.3425e-07 0)
(3 8.59024e-07 0)
(3 1.81007e-06 0)
(3 4.92647e-06 0)
(2.99999 9.73058e-06 0)
(2.99998 2.9917e-05 0)
(2.99994 5.91772e-05 0)
(2.99987 0.000185624 0)
(2.99962 0.000382696 0)
(2.99933 0.00117869 0)
(2.99741 0.00240029 0)
(2.99559 0.00772979 0)
(2.98 0.0150723 0)
(2.96024 0.0502701 0)
(2.86207 0.106975 0)
(2.60243 0.347117 0)
(2.14825 0.712745 0)
(1.81246 0.995323 0)
(1.73489 1.07238 0)
(3 1.54187e-10 0)
(3 1.03513e-09 0)
(3 3.11802e-09 0)
(3 9.05241e-09 0)
(3 2.10401e-08 0)
(3 5.67475e-08 0)
(3 1.25724e-07 0)
(3 3.48975e-07 0)
(3 7.64782e-07 0)
(3 2.16704e-06 0)
(3 4.7524e-06 0)
(2.99999 1.32545e-05 0)
(2.99998 2.88599e-05 0)
(2.99995 7.86627e-05 0)
(2.9999 0.000156426 0)
(2.99971 0.000460509 0)
(2.99952 0.000727093 0)
(2.99777 0.00283607 0)
(2.99621 0.00416559 0)
(2.98017 0.0200413 0)
(2.96047 0.0348122 0)
(2.85821 0.134364 0)
(2.60928 0.338359 0)
(2.18363 0.730607 0)
(1.88234 0.982954 0)
(3 5.72593e-11 0)
(3 3.17237e-10 0)
(3 1.08513e-09 0)
(3 2.77331e-09 0)
(3 7.2597e-09 0)
(3 1.63722e-08 0)
(3 4.17608e-08 0)
(3 8.72402e-08 0)
(3 2.41577e-07 0)
(3 4.71578e-07 0)
(3 1.52994e-06 0)
(3 3.09595e-06 0)
(2.99999 9.9586e-06 0)
(2.99998 2.10591e-05 0)
(2.99997 5.70416e-05 0)
(2.99987 0.000114781 0)
(2.99975 0.000311665 0)
(2.99901 0.000515243 0)
(2.99796 0.00221148 0)
(2.99273 0.00364224 0)
(2.98456 0.0187767 0)
(2.94993 0.0368272 0)
(2.87271 0.131498 0)
(2.65948 0.32455 0)
(2.21471 0.715625 0)
(3 1.97562e-11 0)
(3 1.08967e-10 0)
(3 3.78919e-10 0)
(3 9.70887e-10 0)
(3 2.62172e-09 0)
(3 6.04436e-09 0)
(3 1.60067e-08 0)
(3 3.6177e-08 0)
(3 9.71616e-08 0)
(3 2.1852e-07 0)
(3 5.79384e-07 0)
(3 1.27874e-06 0)
(3 3.29383e-06 0)
(2.99999 6.50012e-06 0)
(2.99999 1.95052e-05 0)
(2.99996 3.34658e-05 0)
(2.99991 0.000140891 0)
(2.99971 0.000260892 0)
(2.99942 0.0010313 0)
(2.99794 0.00210582 0)
(2.99658 0.00721098 0)
(2.98298 0.0152015 0)
(2.969 0.0476047 0)
(2.8858 0.112007 0)
(2.68358 0.316557 0)
(3 7.05252e-12 0)
(3 3.78639e-11 0)
(3 1.34832e-10 0)
(3 3.4314e-10 0)
(3 9.50482e-10 0)
(3 2.18693e-09 0)
(3 5.84592e-09 0)
(3 1.31217e-08 0)
(3 3.46958e-08 0)
(3 7.60549e-08 0)
(3 1.98869e-07 0)
(3 4.10111e-07 0)
(3 1.14975e-06 0)
(3 2.14222e-06 0)
(3 7.55642e-06 0)
(2.99999 1.43717e-05 0)
(2.99997 5.17443e-05 0)
(2.99991 0.000102646 0)
(2.99986 0.000329002 0)
(2.99934 0.000613915 0)
(2.99888 0.00211782 0)
(2.99488 0.00341163 0)
(2.98983 0.016573 0)
(2.96435 0.0267856 0)
(2.9141 0.108411 0)
(3 2.31058e-12 0)
(3 1.26521e-11 0)
(3 4.46139e-11 0)
(3 1.15792e-10 0)
(3 3.19728e-10 0)
(3 7.4812e-10 0)
(3 1.99482e-09 0)
(3 4.52922e-09 0)
(3 1.21333e-08 0)
(3 2.70976e-08 0)
(3 7.38875e-08 0)
(3 1.63815e-07 0)
(3 4.53038e-07 0)
(3 1.00021e-06 0)
(3 2.7553e-06 0)
(3 6.01439e-06 0)
(2.99999 1.61962e-05 0)
(2.99999 3.25501e-05 0)
(2.99994 9.54262e-05 0)
(2.99986 0.000160708 0)
(2.99963 0.000664707 0)
(2.99945 0.00111161 0)
(2.99633 0.00488598 0)
(2.99403 0.00941371 0)
(2.97286 0.0325725 0)
(3 5.27183e-13 0)
(3 3.69104e-12 0)
(3 1.11981e-11 0)
(3 3.36589e-11 0)
(3 8.07602e-11 0)
(3 2.17336e-10 0)
(3 4.92791e-10 0)
(3 1.28137e-09 0)
(3 2.78626e-09 0)
(3 7.3128e-09 0)
(3 1.47445e-08 0)
(3 4.12781e-08 0)
(3 7.79908e-08 0)
(3 2.28534e-07 0)
(3 4.07976e-07 0)
(3 1.28558e-06 0)
(3 2.0782e-06 0)
(2.99999 8.78825e-06 0)
(2.99999 1.40277e-05 0)
(2.99995 6.10886e-05 0)
(2.99991 0.000133756 0)
(2.99969 0.000373281 0)
(2.99944 0.000553054 0)
(2.99748 0.00337507 0)
(2.99565 0.0050394 0)
(3 1.4449e-13 0)
(3 7.70082e-13 0)
(3 2.87855e-12 0)
(3 7.37311e-12 0)
(3 2.09794e-11 0)
(3 4.90532e-11 0)
(3 1.29725e-10 0)
(3 2.91574e-10 0)
(3 7.44674e-10 0)
(3 1.60737e-09 0)
(3 4.11126e-09 0)
(3 8.19512e-09 0)
(3 2.2346e-08 0)
(3 4.05349e-08 0)
(3 1.27548e-07 0)
(3 2.25001e-07 0)
(3 8.08068e-07 0)
(3 1.40519e-06 0)
(3 5.32196e-06 0)
(2.99999 9.2321e-06 0)
(2.99997 4.53163e-05 0)
(2.99992 8.35413e-05 0)
(2.99986 0.000300841 0)
(2.99935 0.000536509 0)
(2.99895 0.00225821 0)
(3 3.26405e-14 0)
(3 1.78581e-13 0)
(3 6.4739e-13 0)
(3 1.70214e-12 0)
(3 4.82166e-12 0)
(3 1.13724e-11 0)
(3 3.04609e-11 0)
(3 6.89333e-11 0)
(3 1.81708e-10 0)
(3 3.99533e-10 0)
(3 1.07586e-09 0)
(3 2.31933e-09 0)
(3 6.66086e-09 0)
(3 1.42762e-08 0)
(3 4.43766e-08 0)
(3 9.60125e-08 0)
(3 3.08005e-07 0)
(3 6.64728e-07 0)
(3 2.08993e-06 0)
(3 4.43737e-06 0)
(2.99999 1.33923e-05 0)
(2.99998 2.70228e-05 0)
(2.99996 8.17032e-05 0)
(2.99984 0.000138434 0)
(2.99972 0.000591868 0)
(3 6.62804e-15 0)
(3 3.70413e-14 0)
(3 1.35092e-13 0)
(3 3.56283e-13 0)
(3 1.00996e-12 0)
(3 2.37619e-12 0)
(3 6.35431e-12 0)
(3 1.4207e-11 0)
(3 3.80146e-11 0)
(3 8.03418e-11 0)
(3 2.36083e-10 0)
(3 4.86225e-10 0)
(3 1.57507e-09 0)
(3 3.35277e-09 0)
(3 1.10139e-08 0)
(3 2.39354e-08 0)
(3 7.79372e-08 0)
(3 1.67787e-07 0)
(3 5.30491e-07 0)
(3 1.10773e-06 0)
(3 3.37451e-06 0)
(2.99999 6.60004e-06 0)
(2.99999 2.09324e-05 0)
(2.99997 3.73622e-05 0)
(2.99993 0.000144733 0)
(3 1.19429e-15 0)
(3 6.95337e-15 0)
(3 2.62477e-14 0)
(3 7.00512e-14 0)
(3 2.0486e-13 0)
(3 4.81134e-13 0)
(3 1.33887e-12 0)
(3 3.02062e-12 0)
(3 8.33913e-12 0)
(3 1.83469e-11 0)
(3 5.18028e-11 0)
(3 1.11688e-10 0)
(3 3.34524e-10 0)
(3 7.02949e-10 0)
(3 2.3326e-09 0)
(3 4.78053e-09 0)
(3 1.69586e-08 0)
(3 3.47232e-08 0)
(3 1.18715e-07 0)
(3 2.36152e-07 0)
(3 7.8565e-07 0)
(3 1.46717e-06 0)
(3 5.14477e-06 0)
(2.99999 9.2912e-06 0)
(2.99999 3.35056e-05 0)
(3 5.30669e-16 0)
(3 1.8e-15 0)
(3 5.70323e-15 0)
(3 1.40788e-14 0)
(3 4.02852e-14 0)
(3 9.36047e-14 0)
(3 2.60931e-13 0)
(3 5.96308e-13 0)
(3 1.64541e-12 0)
(3 3.6707e-12 0)
(3 1.02761e-11 0)
(3 2.25031e-11 0)
(3 6.53584e-11 0)
(3 1.3963e-10 0)
(3 4.31583e-10 0)
(3 8.69954e-10 0)
(3 3.04085e-09 0)
(3 5.77156e-09 0)
(3 2.22781e-08 0)
(3 4.21409e-08 0)
(3 1.56946e-07 0)
(3 2.95739e-07 0)
(3 1.06168e-06 0)
(3 1.9653e-06 0)
(3 6.90482e-06 0)
(3 1.99943e-16 0)
(3 7.86637e-16 0)
(3 2.00384e-15 0)
(3 3.71648e-15 0)
(3 7.32685e-15 0)
(3 1.91496e-14 0)
(3 3.98439e-14 0)
(3 1.13061e-13 0)
(3 2.36512e-13 0)
(3 6.84382e-13 0)
(3 1.36679e-12 0)
(3 4.07168e-12 0)
(3 7.77126e-12 0)
(3 2.46074e-11 0)
(3 4.47511e-11 0)
(3 1.54309e-10 0)
(3 2.80159e-10 0)
(3 9.91228e-10 0)
(3 1.69717e-09 0)
(3 7.35278e-09 0)
(3 1.1863e-08 0)
(3 5.34902e-08 0)
(3 9.17954e-08 0)
(3 3.52781e-07 0)
(3 5.63643e-07 0)
(3 -1.77427e-16 0)
(3 2.9995e-17 0)
(3 2.34469e-16 0)
(3 5.51156e-16 0)
(3 1.16396e-15 0)
(3 2.90729e-15 0)
(3 7.50897e-15 0)
(3 1.65412e-14 0)
(3 4.56454e-14 0)
(3 9.37003e-14 0)
(3 2.67417e-13 0)
(3 5.246e-13 0)
(3 1.53362e-12 0)
(3 2.84392e-12 0)
(3 9.00065e-12 0)
(3 1.57976e-11 0)
(3 5.61248e-11 0)
(3 9.95502e-11 0)
(3 3.53496e-10 0)
(3 5.81386e-10 0)
(3 2.68977e-09 0)
(3 4.15855e-09 0)
(3 2.0982e-08 0)
(3 4.09878e-08 0)
(3 1.27272e-07 0)
(3 -1.43834e-16 0)
(3 -2.13636e-16 0)
(3 -4.79312e-16 0)
(3 -4.74625e-16 0)
(3 -4.07022e-16 0)
(3 5.12631e-17 0)
(3 1.04943e-15 0)
(3 3.00165e-15 0)
(3 7.81867e-15 0)
(3 1.73029e-14 0)
(3 4.66671e-14 0)
(3 9.99047e-14 0)
(3 2.76114e-13 0)
(3 5.8874e-13 0)
(3 1.68914e-12 0)
(3 3.52681e-12 0)
(3 1.07981e-11 0)
(3 2.18921e-11 0)
(3 7.2757e-11 0)
(3 1.42979e-10 0)
(3 5.08176e-10 0)
(3 9.6349e-10 0)
(3 3.5259e-09 0)
(3 6.11898e-09 0)
(3 2.58612e-08 0)
(3 1.47732e-16 0)
(3 -1.14835e-16 0)
(3 -6.11211e-16 0)
(3 -9.16269e-16 0)
(3 -7.50229e-16 0)
(3 -2.49741e-16 0)
(3 3.29178e-16 0)
(3 8.93741e-16 0)
(3 2.03921e-15 0)
(3 4.36076e-15 0)
(3 7.39495e-15 0)
(3 1.86387e-14 0)
(3 3.3952e-14 0)
(3 9.71935e-14 0)
(3 1.79227e-13 0)
(3 5.53022e-13 0)
(3 9.86432e-13 0)
(3 3.30788e-12 0)
(3 5.89664e-12 0)
(3 2.00826e-11 0)
(3 3.69907e-11 0)
(3 1.41048e-10 0)
(3 2.31862e-10 0)
(3 1.12577e-09 0)
(3 2.05425e-09 0)
(3 1.91123e-16 0)
(3 1.05396e-16 0)
(3 -9.47361e-18 0)
(3 -1.10126e-16 0)
(3 -9.10805e-17 0)
(3 -1.54788e-16 0)
(3 -6.68428e-17 0)
(3 3.34782e-16 0)
(3 1.05438e-15 0)
(3 1.65082e-15 0)
(3 2.35997e-15 0)
(3 3.53584e-15 0)
(3 6.48578e-15 0)
(3 1.14307e-14 0)
(3 3.22458e-14 0)
(3 5.78415e-14 0)
(3 1.82048e-13 0)
(3 3.15834e-13 0)
(3 1.08232e-12 0)
(3 1.90349e-12 0)
(3 6.48409e-12 0)
(3 1.03157e-11 0)
(3 4.83002e-11 0)
(3 7.5756e-11 0)
(3 3.71708e-10 0)
(3 -5.26595e-17 0)
(3 -2.74683e-17 0)
(3 3.32312e-16 0)
(3 4.96329e-16 0)
(3 6.01797e-16 0)
(3 5.33509e-16 0)
(3 5.04549e-16 0)
(3 6.9834e-16 0)
(3 7.24981e-16 0)
(3 8.33161e-16 0)
(3 9.18445e-16 0)
(3 8.93322e-16 0)
(3 1.39249e-15 0)
(3 2.16244e-15 0)
(3 4.59378e-15 0)
(3 1.04275e-14 0)
(3 1.82854e-14 0)
(3 5.58737e-14 0)
(3 9.45616e-14 0)
(3 3.22125e-13 0)
(3 6.05861e-13 0)
(3 1.82817e-12 0)
(3 3.0861e-12 0)
(3 1.33292e-11 0)
(3 1.99336e-11 0)
(3 -1.37195e-16 0)
(3 -1.40145e-16 0)
(3 -2.38101e-17 0)
(3 2.00994e-17 0)
(3 3.18001e-16 0)
(3 5.61982e-16 0)
(3 8.10317e-16 0)
(3 8.77202e-16 0)
(3 7.895e-16 0)
(3 6.01732e-16 0)
(3 5.47823e-16 0)
(3 4.7451e-16 0)
(3 7.39108e-16 0)
(3 9.0622e-16 0)
(3 9.92556e-16 0)
(3 1.63181e-15 0)
(3 3.40133e-15 0)
(3 5.87802e-15 0)
(3 1.69237e-14 0)
(3 2.75666e-14 0)
(3 9.33424e-14 0)
(3 1.77539e-13 0)
(3 5.08263e-13 0)
(3 7.60827e-13 0)
(3 3.88064e-12 0)
(3 -5.51142e-17 0)
(3 -4.79045e-17 0)
(3 2.31902e-16 0)
(3 5.42744e-16 0)
(3 6.38472e-16 0)
(3 5.57061e-16 0)
(3 5.60188e-16 0)
(3 2.69462e-16 0)
(3 1.83612e-16 0)
(3 -4.15652e-17 0)
(3 -2.58818e-16 0)
(3 -3.97785e-16 0)
(3 -5.29181e-16 0)
(3 -5.14973e-16 0)
(3 -3.88065e-16 0)
(3 -4.65417e-16 0)
(3 -3.62507e-16 0)
(3 -4.54758e-17 0)
(3 7.79705e-16 0)
(3 3.09996e-15 0)
(3 6.32484e-15 0)
(3 2.20377e-14 0)
(3 3.7812e-14 0)
(3 1.34583e-13 0)
(3 2.02973e-13 0)
(3 6.74343e-17 0)
(3 1.80576e-17 0)
(3 -1.94925e-16 0)
(3 -1.34195e-16 0)
(3 -1.5069e-16 0)
(3 3.40203e-17 0)
(3 2.24474e-16 0)
(3 2.78905e-16 0)
(3 2.68943e-16 0)
(3 1.55543e-16 0)
(3 -7.89205e-18 0)
(3 9.1938e-17 0)
(3 1.09382e-16 0)
(3 1.58817e-16 0)
(3 4.60524e-16 0)
(3 8.35827e-16 0)
(3 1.02956e-15 0)
(3 1.1663e-15 0)
(3 1.11082e-15 0)
(3 1.28735e-15 0)
(3 1.47148e-15 0)
(3 2.86094e-15 0)
(3 5.80955e-15 0)
(3 8.9775e-15 0)
(3 3.85487e-14 0)
(3 -4.8343e-17 0)
(3 -1.67739e-16 0)
(3 -3.55936e-16 0)
(3 -3.5017e-16 0)
(3 -2.41851e-16 0)
(3 -2.09705e-16 0)
(3 -2.84559e-16 0)
(3 -6.17715e-17 0)
(3 -9.64832e-17 0)
(3 -1.40846e-16 0)
(3 -2.38024e-16 0)
(3 -2.67988e-16 0)
(3 -4.04964e-16 0)
(3 -5.25676e-16 0)
(3 -4.74223e-16 0)
(3 -1.25073e-16 0)
(3 1.83481e-16 0)
(3 4.8726e-16 0)
(3 6.85248e-16 0)
(3 8.85002e-16 0)
(3 8.9671e-16 0)
(3 7.83337e-16 0)
(3 1.14165e-15 0)
(3 1.40954e-15 0)
(3 5.04972e-15 0)
(3 -1.62536e-16 0)
(3 -1.23548e-16 0)
(3 1.70686e-16 0)
(3 5.24853e-16 0)
(3 5.63671e-16 0)
(3 3.63702e-16 0)
(3 1.26061e-16 0)
(3 -4.60219e-17 0)
(3 6.48668e-17 0)
(3 2.21013e-16 0)
(3 3.32684e-16 0)
(3 2.72345e-16 0)
(3 -9.53037e-17 0)
(3 -3.14418e-16 0)
(3 -5.54355e-16 0)
(3 -8.20497e-16 0)
(3 -8.16034e-16 0)
(3 -8.60894e-16 0)
(3 -6.05563e-16 0)
(3 -1.42841e-16 0)
(3 3.33949e-16 0)
(3 7.67653e-16 0)
(3 1.20301e-15 0)
(3 1.46151e-15 0)
(3 2.0258e-15 0)
(3 -1.79543e-16 0)
(3 -5.76175e-16 0)
(3 -8.32817e-16 0)
(3 -1.38215e-15 0)
(3 -2.02157e-15 0)
(3 -2.35577e-15 0)
(3 -2.60077e-15 0)
(3 -2.58709e-15 0)
(3 -2.38271e-15 0)
(3 -2.07927e-15 0)
(3 -1.76365e-15 0)
(3 -1.34452e-15 0)
(3 -8.28661e-16 0)
(3 -2.95237e-16 0)
(3 2.52707e-16 0)
(3 8.38374e-16 0)
(3 1.204e-15 0)
(3 1.37411e-15 0)
(3 1.47132e-15 0)
(3 1.65106e-15 0)
(3 2.00465e-15 0)
(3 2.41006e-15 0)
(3 2.85926e-15 0)
(3 3.14203e-15 0)
(3 3.20109e-15 0)
(3 -3.14684e-16 0)
(3 -7.36911e-16 0)
(3 -1.21102e-15 0)
(3 -1.9018e-15 0)
(3 -2.28267e-15 0)
(3 -2.50886e-15 0)
(3 -2.35496e-15 0)
(3 -2.13372e-15 0)
(3 -1.93192e-15 0)
(3 -1.83238e-15 0)
(3 -1.78542e-15 0)
(3 -1.5527e-15 0)
(3 -9.36118e-16 0)
(3 -3.01052e-16 0)
(3 3.15192e-16 0)
(3 8.51471e-16 0)
(3 1.30068e-15 0)
(3 1.80759e-15 0)
(3 2.20429e-15 0)
(3 2.27262e-15 0)
(3 2.11543e-15 0)
(3 1.89535e-15 0)
(3 1.79685e-15 0)
(3 1.84695e-15 0)
(3 2.12162e-15 0)
(3 -1.68618e-16 0)
(3 -2.32171e-16 0)
(3 -2.54225e-16 0)
(3 -2.16332e-16 0)
(3 -1.31081e-16 0)
(3 -5.22985e-17 0)
(3 4.35175e-16 0)
(3 5.28491e-16 0)
(3 7.37531e-16 0)
(3 7.76036e-16 0)
(3 6.98244e-16 0)
(3 5.08509e-16 0)
(3 4.05926e-16 0)
(3 4.62049e-16 0)
(3 4.77724e-16 0)
(3 3.8977e-16 0)
(3 4.69384e-16 0)
(3 7.19897e-16 0)
(3 1.0578e-15 0)
(3 1.17823e-15 0)
(3 1.07535e-15 0)
(3 8.28235e-16 0)
(3 6.31246e-16 0)
(3 7.03705e-16 0)
(3 1.01709e-15 0)
(1.30012 1.34383 0)
(1.76851 1.24932 0)
(2.06144 1.13241 0)
(2.24585 0.998203 0)
(2.35674 0.839892 0)
(2.39742 0.65317 0)
(2.39018 0.454612 0)
(2.36072 0.256581 0)
(2.28757 0.0800509 0)
(2.19586 -0.0439715 0)
(2.12181 -0.0753316 0)
(2.08727 -0.0609521 0)
(2.08559 -0.0273399 0)
(2.09697 0.00428655 0)
(2.10787 0.028499 0)
(2.12505 0.0414813 0)
(2.14473 0.0421165 0)
(2.15961 0.0354946 0)
(2.17025 0.0249531 0)
(2.17914 0.0145689 0)
(2.18821 0.00711199 0)
(2.19852 0.00237742 0)
(2.21067 -0.000131444 0)
(2.22481 -0.00108146 0)
(2.24082 -0.0011338 0)
(2.25836 -0.00083099 0)
(2.277 -0.000535555 0)
(2.29626 -0.000442749 0)
(2.31568 -0.000602599 0)
(2.33488 -0.000957439 0)
(2.35358 -0.00139929 0)
(2.37164 -0.00181726 0)
(2.38905 -0.00212289 0)
(2.4059 -0.00226523 0)
(2.42233 -0.00222951 0)
(2.4385 -0.00203668 0)
(2.45447 -0.00174209 0)
(2.4702 -0.00137409 0)
(2.48574 -0.000961304 0)
(2.50087 -0.000621983 0)
(2.51503 -0.000282541 0)
(2.5283 0.000215813 0)
(2.5409 0.000458755 0)
(2.55203 0.000309306 0)
(2.56095 0.00034501 0)
(2.56798 0.000738413 0)
(2.57362 0.000920348 0)
(2.57845 0.000874658 0)
(2.58294 0.000712472 0)
(2.58701 0.000396293 0)
(2.59037 -0.0001314 0)
(2.59312 -0.000726012 0)
(2.59658 -0.00130265 0)
(2.602 -0.0024744 0)
(2.60944 -0.00377968 0)
(2.61863 -0.00462993 0)
(2.62939 -0.00537011 0)
(2.64161 -0.00604083 0)
(2.65512 -0.0066032 0)
(2.66975 -0.00702697 0)
(2.68528 -0.00730999 0)
(2.70151 -0.00745669 0)
(2.71829 -0.00748836 0)
(2.73552 -0.00743396 0)
(2.75312 -0.00731936 0)
(2.77101 -0.00716203 0)
(2.78912 -0.00697084 0)
(2.80731 -0.00674849 0)
(2.82543 -0.0064933 0)
(2.84328 -0.00619784 0)
(2.8607 -0.0058519 0)
(2.87759 -0.00545564 0)
(2.8939 -0.0050167 0)
(2.90964 -0.00454525 0)
(2.9248 -0.00405424 0)
(2.93934 -0.00355855 0)
(2.95312 -0.00307118 0)
(2.96588 -0.00260154 0)
(2.9773 -0.00215818 0)
(2.98709 -0.00175179 0)
(2.99505 -0.00139039 0)
(3.00123 -0.00107532 0)
(3.00585 -0.000804107 0)
(3.00924 -0.000575632 0)
(3.01162 -0.000389359 0)
(3.01306 -0.000242245 0)
(3.01341 -0.000118315 0)
(3.0125 8.10306e-06 0)
(3.01058 4.08058e-05 0)
(3.00825 3.48319e-05 0)
(3.00606 3.0067e-05 0)
(3.00422 3.22809e-05 0)
(3.0028 2.33211e-05 0)
(3.00176 7.80515e-06 0)
(3.00107 2.50816e-06 0)
(3.00063 9.21628e-07 0)
(3.00036 4.12128e-07 0)
(3.0002 2.03222e-07 0)
(3.00011 2.08848e-07 0)
(3.00005 4.84633e-07 0)
(1.42637 1.2779 0)
(1.78741 1.1022 0)
(2.03939 0.884843 0)
(2.19863 0.647876 0)
(2.28473 0.409103 0)
(2.31825 0.186141 0)
(2.32858 0.00148022 0)
(2.34099 -0.144731 0)
(2.3687 -0.242186 0)
(2.40399 -0.283038 0)
(2.42909 -0.272911 0)
(2.44119 -0.231702 0)
(2.44766 -0.180636 0)
(2.44683 -0.133711 0)
(2.44071 -0.0929068 0)
(2.43497 -0.0628236 0)
(2.43402 -0.0464493 0)
(2.43661 -0.0405013 0)
(2.44124 -0.0405896 0)
(2.44876 -0.0426193 0)
(2.45803 -0.0452814 0)
(2.46761 -0.0475002 0)
(2.47756 -0.0481366 0)
(2.4879 -0.0475208 0)
(2.49871 -0.0461727 0)
(2.51001 -0.0444004 0)
(2.52176 -0.0424605 0)
(2.53386 -0.0405931 0)
(2.5461 -0.0389494 0)
(2.55829 -0.0375745 0)
(2.57019 -0.0364332 0)
(2.58169 -0.0354459 0)
(2.59275 -0.034529 0)
(2.60342 -0.0336167 0)
(2.61384 -0.0326544 0)
(2.62416 -0.0316192 0)
(2.63449 -0.0305264 0)
(2.64488 -0.0293541 0)
(2.65532 -0.0281019 0)
(2.66573 -0.0268759 0)
(2.67587 -0.0256055 0)
(2.68538 -0.0241222 0)
(2.69422 -0.0227907 0)
(2.70247 -0.0218635 0)
(2.70975 -0.020853 0)
(2.71541 -0.0195055 0)
(2.71962 -0.0181501 0)
(2.72329 -0.0169918 0)
(2.72674 -0.0159796 0)
(2.72974 -0.0152332 0)
(2.73201 -0.0148644 0)
(2.73351 -0.0147242 0)
(2.73459 -0.0147658 0)
(2.73651 -0.015566 0)
(2.74033 -0.016767 0)
(2.74539 -0.0178771 0)
(2.7511 -0.0190878 0)
(2.7577 -0.020362 0)
(2.76525 -0.0215922 0)
(2.77369 -0.0226819 0)
(2.78291 -0.0235668 0)
(2.79284 -0.024204 0)
(2.8034 -0.024577 0)
(2.81456 -0.0246877 0)
(2.82627 -0.0245495 0)
(2.83851 -0.0241812 0)
(2.8512 -0.0236024 0)
(2.86421 -0.0228309 0)
(2.87738 -0.0218846 0)
(2.89052 -0.0207814 0)
(2.90346 -0.0195335 0)
(2.91607 -0.0181545 0)
(2.92831 -0.0166654 0)
(2.94018 -0.0150942 0)