/*--------------------------------*- C++ -*----------------------------------*\
  =========                 |
  \\      /  F ield         | OpenFOAM: The Open Source CFD Toolbox
   \\    /   O peration     | Website:  https://openfoam.org
    \\  /    A nd           | Version:  6
     \\/     M anipulation  |
\*---------------------------------------------------------------------------*/
FoamFile
{
    version     2.0;
    format      ascii;
    class       volScalarField;
    location    "8.5";
    object      Ma;
}
// * * * * * * * * * * * * * * * * * * * * * * * * * * * * * * * * * * * * * //

dimensions      [0 0 0 0 0 0 0];

internalField   nonuniform List<scalar> 
5250
(
2.99975
2.99935
2.99807
2.99597
2.98898
2.97713
2.94062
2.8681
2.6883
2.28354
1.46734
0.422582
0.0615949
0.123656
0.269475
0.298989
0.283348
0.252262
0.203202
0.153834
0.120331
0.0952969
0.0708878
0.0478809
0.0381968
2.99975
2.99935
2.99808
2.99599
2.98905
2.97725
2.9409
2.86868
2.68946
2.28567
1.4699
0.426347
0.0654028
0.132871
0.274178
0.301418
0.28606
0.25591
0.208346
0.161431
0.130304
0.107275
0.0858475
0.0677629
0.0611614
2.99976
2.99936
2.99811
2.99605
2.98918
2.97754
2.94151
2.87
2.69191
2.29085
1.4768
0.436956
0.0726951
0.151249
0.281646
0.305577
0.291608
0.26326
0.21831
0.175866
0.149455
0.130609
0.11416
0.101738
0.0975144
2.99976
2.99938
2.99816
2.99615
2.98941
2.97801
2.94251
2.87226
2.69595
2.29984
1.4897
0.455773
0.0869873
0.175794
0.290102
0.311477
0.300818
0.275071
0.233645
0.196888
0.176135
0.16217
0.150891
0.143261
0.141027
2.99977
2.99941
2.99823
2.99629
2.98975
2.9787
2.94399
2.8756
2.70215
2.31315
1.50953
0.483142
0.11092
0.203859
0.297947
0.318988
0.313732
0.291016
0.253407
0.222669
0.207713
0.198786
0.1922
0.18842
0.188104
2.99979
2.99944
2.99832
2.99649
2.9902
2.97964
2.94605
2.88017
2.71127
2.33162
1.53716
0.52083
0.145773
0.233924
0.303298
0.328163
0.330468
0.311106
0.27744
0.252897
0.243839
0.239878
0.238084
0.237939
0.23956
2.9998
2.99949
2.99844
2.99673
2.9908
2.98089
2.94873
2.88635
2.72275
2.35684
1.57612
0.572144
0.192487
0.262931
0.304049
0.339953
0.351647
0.335254
0.305915
0.287644
0.28464
0.286229
0.289693
0.294798
0.299935
2.99982
2.99954
2.99859
2.99703
2.99159
2.98245
2.95248
2.89405
2.73889
2.38978
1.63401
0.641116
0.251989
0.28629
0.301187
0.356196
0.377655
0.36382
0.338764
0.327292
0.330583
0.338363
0.349324
0.362652
0.376076
2.99985
2.99959
2.99875
2.99736
2.99251
2.98431
2.95726
2.90398
2.76248
2.43199
1.72585
0.730971
0.325655
0.29762
0.298773
0.378548
0.409099
0.396808
0.376226
0.371763
0.381397
0.396669
0.419171
0.448312
0.484709
2.99987
2.99964
2.99891
2.9977
2.99349
2.98636
2.96263
2.91631
2.78958
2.49159
1.85346
0.856608
0.409741
0.299271
0.30596
0.408829
0.445553
0.433545
0.417895
0.420172
0.435774
0.461509
0.501743
0.559848
0.662973
2.99988
2.99969
2.99905
2.998
2.99442
2.98834
2.96827
2.9291
2.82071
2.56414
2.0061
1.03766
0.499128
0.301866
0.326285
0.44667
0.485574
0.472877
0.462679
0.469629
0.491745
0.532132
0.595338
0.693805
0.841594
2.9999
2.99972
2.99915
2.99823
2.99511
2.98997
2.9729
2.94097
2.85132
2.6412
2.17555
1.29208
0.567729
0.30538
0.361471
0.488511
0.524611
0.512583
0.50717
0.517285
0.5466
0.600382
0.677253
0.788616
0.932956
2.9999
2.99974
2.99923
2.9984
2.99559
2.99107
2.97589
2.94899
2.8713
2.69857
2.31268
1.53834
0.614199
0.312528
0.405995
0.52198
0.553895
0.547352
0.546713
0.562055
0.598746
0.656501
0.73305
0.830394
0.943991
2.99991
2.99976
2.9993
2.99854
2.99599
2.99193
2.97821
2.95447
2.88493
2.73275
2.39116
1.66658
0.695167
0.351503
0.456907
0.541178
0.572403
0.574667
0.579643
0.601188
0.641584
0.695732
0.763888
0.844978
0.933813
2.99992
2.99979
2.99936
2.99868
2.99637
2.99273
2.98032
2.95926
2.89649
2.76146
2.45509
1.781
0.832213
0.431115
0.492868
0.543701
0.582836
0.595511
0.606867
0.630959
0.670504
0.719303
0.779787
0.846967
0.921103
2.99993
2.99981
2.99944
2.99883
2.99678
2.99356
2.98249
2.96408
2.90791
2.78971
2.51694
1.89811
0.992335
0.522767
0.504311
0.545574
0.58863
0.611208
0.627946
0.65211
0.688274
0.731774
0.785604
0.842792
0.905485
2.99994
2.99984
2.99951
2.99899
2.99722
2.99446
2.98488
2.96932
2.92054
2.81947
2.58583
2.0228
1.1731
0.622947
0.514227
0.547334
0.591821
0.623247
0.644006
0.667237
0.70013
0.738453
0.785469
0.835751
0.888085
2.99995
2.99986
2.99959
2.99915
2.99765
2.99533
2.98727
2.97428
2.93305
2.85032
2.6537
2.17643
1.38877
0.736247
0.537135
0.561291
0.60467
0.638522
0.658957
0.679304
0.70786
0.742582
0.782415
0.826435
0.871296
2.99996
2.99989
2.99966
2.99929
2.99807
2.99615
2.98953
2.97905
2.94472
2.8821
2.71558
2.35659
1.65469
0.854545
0.579428
0.59688
0.631803
0.661649
0.677961
0.693088
0.7157
0.745599
0.77907
0.816142
0.855017
2.99997
2.99991
2.99972
2.99942
2.9984
2.99682
2.99132
2.98267
2.95393
2.90239
2.76161
2.45615
1.82503
0.932552
0.600524
0.615812
0.650139
0.680634
0.695692
0.707994
0.725163
0.748942
0.776382
0.807149
0.840394
2.99998
2.99993
2.99977
2.99952
2.99869
2.99739
2.99285
2.98582
2.96197
2.91944
2.80441
2.53238
2.00821
1.07482
0.672789
0.627023
0.65371
0.681517
0.701937
0.71585
0.731096
0.750178
0.773311
0.799677
0.828418
2.99998
2.99994
2.99982
2.99962
2.99894
2.9979
2.99424
2.98859
2.96934
2.93534
2.84085
2.61636
2.17986
1.29495
0.783686
0.636642
0.649152
0.672859
0.697923
0.714669
0.729514
0.74685
0.768147
0.792343
0.818203
2.99999
2.99996
2.99986
2.9997
2.99917
2.99835
2.99545
2.99108
2.97567
2.95012
2.87492
2.70654
2.35877
1.59973
0.929302
0.677591
0.665113
0.679073
0.701797
0.718106
0.730907
0.746362
0.765564
0.787587
0.810957
2.99999
2.99997
2.99989
2.99976
2.99934
2.99869
2.99637
2.99293
2.98045
2.96094
2.8979
2.7747
2.4775
1.86264
1.05014
0.692031
0.665198
0.683071
0.706597
0.724231
0.736685
0.750595
0.767544
0.787064
0.807807
3
2.99998
2.99991
2.99982
2.99949
2.99897
2.99718
2.99445
2.98482
2.96912
2.92009
2.81399
2.57599
2.00727
1.18757
0.729743
0.649365
0.668491
0.693665
0.7182
0.735775
0.751652
0.768554
0.786939
0.806052
3
2.99998
2.99994
2.99983
2.99965
2.99905
2.99812
2.99487
2.98972
2.9731
2.94015
2.85419
2.64011
2.2309
1.38755
0.821905
0.63558
0.643043
0.669581
0.703306
0.729283
0.749104
0.7673
0.785621
0.803987
3
2.99998
2.99996
2.99986
2.99972
2.99922
2.99847
2.99573
2.99173
2.97711
2.95375
2.88136
2.72869
2.39224
1.71442
0.940859
0.641382
0.629943
0.656694
0.695412
0.727239
0.749807
0.768443
0.786046
0.803302
3
2.99999
2.99997
2.99989
2.99977
2.99936
2.99875
2.99648
2.99322
2.98089
2.96229
2.89962
2.77928
2.4831
1.86373
1.02418
0.619093
0.596213
0.630819
0.674889
0.715532
0.743818
0.764703
0.78257
0.799519
3
2.99999
2.99997
2.99991
2.99982
2.99949
2.99899
2.9972
2.99451
2.98498
2.969
2.91936
2.80934
2.56251
1.97638
1.13986
0.637203
0.543859
0.580412
0.635077
0.689984
0.726312
0.750573
0.769717
0.787194
3
3
2.99998
2.99994
2.99983
2.99965
2.99905
2.99809
2.99492
2.98936
2.97284
2.93525
2.84394
2.60658
2.15927
1.29653
0.699601
0.491408
0.527069
0.596077
0.66437
0.705925
0.731367
0.75118
0.769652
3.00001
3
2.99998
2.99994
2.99987
2.99964
2.99928
2.99799
2.99606
2.98901
2.97803
2.94111
2.87085
2.688
2.2804
1.53133
0.73929
0.457641
0.506414
0.585571
0.655179
0.693576
0.715807
0.733713
0.751516
3.00001
3
2.99999
2.99995
2.99989
2.99967
2.99936
2.99817
2.99649
2.98999
2.98055
2.94644
2.88729
2.72119
2.36417
1.65553
0.748284
0.407018
0.47441
0.558008
0.630686
0.670126
0.692458
0.710494
0.728649
3.00001
3
2.99999
2.99995
2.9999
2.99971
2.99943
2.99836
2.99685
2.99097
2.98251
2.95132
2.89802
2.7449
2.41278
1.73327
0.791972
0.396776
0.44194
0.517344
0.590936
0.634092
0.660301
0.681225
0.701128
3.00001
3
2.99999
2.99996
2.99991
2.99975
2.9995
2.99857
2.99725
2.99207
2.98455
2.95759
2.9072
2.77186
2.44767
1.83646
0.86481
0.422194
0.410258
0.474431
0.543773
0.59331
0.625394
0.649455
0.670718
3.00001
3
2.99999
2.99997
2.99993
2.99979
2.99958
2.99883
2.99768
2.99366
2.98662
2.96488
2.915
2.79555
2.48499
1.91697
0.960386
0.461844
0.381902
0.431796
0.50071
0.559291
0.597153
0.62284
0.643964
3.00001
3
2.99999
2.99998
2.99993
2.99986
2.9996
2.99919
2.99787
2.99528
2.98815
2.9707
2.92798
2.81288
2.5712
1.95187
1.08705
0.495975
0.341937
0.386454
0.468876
0.540924
0.582943
0.607686
0.6269
3.00001
3
3
2.99998
2.99995
2.99985
2.99969
2.99913
2.99825
2.99534
2.98975
2.97362
2.93445
2.83922
2.58525
2.11639
1.18984
0.550793
0.304612
0.361327
0.468118
0.551552
0.593919
0.61509
0.630555
3.00001
3
3
2.99998
2.99995
2.99986
2.99971
2.99916
2.99838
2.99534
2.99077
2.97511
2.94332
2.8587
2.64298
2.23133
1.38615
0.615385
0.299627
0.372403
0.493779
0.579619
0.617108
0.631981
0.642383
3.00001
3
3
2.99999
2.99995
2.99989
2.9997
2.99939
2.99831
2.9966
2.99094
2.97979
2.94782
2.87069
2.69297
2.26352
1.50078
0.57911
0.216773
0.330127
0.474772
0.567439
0.607464
0.623053
0.63346
3.00001
3
3
2.99999
2.99996
2.99988
2.99976
2.99933
2.99866
2.99637
2.99233
2.98004
2.95224
2.88096
2.70029
2.3334
1.59343
0.635842
0.210216
0.322168
0.458833
0.553425
0.595354
0.612313
0.623366
3.00001
3
3
2.99999
2.99996
2.99991
2.99973
2.99946
2.99852
2.99698
2.99205
2.98181
2.95352
2.88341
2.7233
2.32598
1.60444
0.629927
0.197386
0.302232
0.433783
0.530587
0.576919
0.596891
0.60938
3.00001
3
3
2.99999
2.99996
2.99989
2.99977
2.99936
2.99873
2.99647
2.99284
2.98075
2.95667
2.8887
2.72761
2.37955
1.66416
0.715194
0.243146
0.315932
0.426669
0.522824
0.571056
0.591997
0.604239
3.00001
3
3
2.99999
2.99996
2.99991
2.99974
2.99948
2.99858
2.99711
2.99238
2.98278
2.95604
2.89057
2.74074
2.36284
1.67181
0.704089
0.238113
0.297451
0.404229
0.50176
0.553616
0.577088
0.590546
3.00001
3
3
2.99999
2.99996
2.99988
2.99976
2.99933
2.99869
2.99625
2.99275
2.97952
2.95844
2.88938
2.74717
2.40788
1.72631
0.802726
0.297684
0.323849
0.411327
0.506164
0.557476
0.579614
0.59108
3.00001
3
3
2.99998
2.99996
2.99988
2.99976
2.9993
2.99867
2.99614
2.99272
2.97897
2.95903
2.88938
2.75682
2.42576
1.76291
0.850436
0.322013
0.328215
0.411842
0.504757
0.557306
0.578981
0.588896
3.00001
3
3
2.99998
2.99996
2.99988
2.99976
2.99931
2.99868
2.99619
2.99282
2.97932
2.9598
2.89154
2.76182
2.43858
1.78263
0.873631
0.333822
0.325911
0.40708
0.498796
0.551479
0.572113
0.580567
3.00001
3
3
2.99998
2.99996
2.99988
2.99976
2.99932
2.99871
2.99626
2.99295
2.97966
2.9605
2.89323
2.76567
2.44717
1.79756
0.894543
0.347846
0.329391
0.407173
0.496176
0.547544
0.566867
0.573268
3.00001
3
3
2.99999
2.99996
2.99989
2.99978
2.99936
2.99877
2.99649
2.99324
2.98102
2.96153
2.89757
2.76472
2.45209
1.79699
0.892128
0.355112
0.332949
0.408419
0.494813
0.544051
0.562625
0.567918
3.00001
3
3
2.99999
2.99996
2.99992
2.99976
2.99952
2.99874
2.99737
2.99334
2.98436
2.96167
2.903
2.7732
2.42234
1.7959
0.838092
0.327379
0.295812
0.373201
0.462315
0.513234
0.534018
0.542473
3.00001
3
3
2.99999
2.99997
2.99989
2.99978
2.99938
2.99879
2.99655
2.99335
2.9813
2.962
2.89872
2.76665
2.45663
1.80562
0.90588
0.367201
0.337773
0.408891
0.49083
0.537493
0.553485
0.555375
1.01343
1.0408
0.780461
0.354444
0.180532
0.211091
0.301428
0.365445
0.399346
0.413826
0.419239
0.421635
0.424893
0.430459
0.435981
0.438272
0.437267
0.433112
0.426843
0.41874
0.408767
0.396951
0.383122
0.367217
0.349513
0.330236
0.309744
0.287812
0.264454
0.239974
0.214785
0.189184
0.16349
0.137593
0.111703
0.0858385
0.0601587
0.0356952
0.0185419
0.0321067
0.0547492
0.0762931
0.098764
0.122146
0.145399
0.168661
0.191156
0.212736
0.233685
0.256089
0.278767
0.301032
0.322365
0.343535
0.364136
0.384656
0.40479
0.424729
0.444321
0.463754
0.482812
0.501758
0.520375
0.538784
0.556976
0.57494
0.592652
0.610148
0.627378
0.644381
0.66114
0.677607
0.693832
0.709704
0.72532
0.740568
0.755506
0.770101
0.784346
0.798186
0.811723
0.824702
0.83738
0.849422
0.860961
0.871814
0.881852
0.890981
0.898852
0.905353
0.909857
0.912366
0.913764
0.914641
0.914453
0.911928
0.906204
0.899726
0.892626
0.896521
1.03616
1.02093
0.856988
0.606259
0.50528
0.390758
0.291793
0.200597
0.130345
0.0803982
0.0201333
0.0545366
0.0837119
0.107204
0.126258
0.133199
0.125156
0.118369
0.111937
0.104783
0.0956341
0.0841663
0.0710995
0.0568047
0.0420073
0.0293082
0.026672
0.0401481
0.0571562
0.0753691
0.0942883
0.113865
0.134244
0.155218
0.176394
0.197738
0.218832
0.240245
0.261128
0.281479
0.300915
0.320307
0.339782
0.359413
0.379097
0.398575
0.417862
0.436202
0.454281
0.472572
0.49192
0.510554
0.52903
0.546825
0.564657
0.582104
0.599495
0.616553
0.633485
0.65018
0.666728
0.683099
0.699294
0.7153
0.731172
0.74678
0.762302
0.777514
0.792645
0.807491
0.822164
0.836649
0.850824
0.864865
0.878537
0.892001
0.905128
0.917907
0.930419
0.942436
0.954237
0.965467
0.976403
0.9868
0.996683
1.00602
1.01458
1.02238
1.02909
1.03447
1.03821
1.03999
1.04093
1.04143
1.04103
1.03853
1.03332
1.02742
1.02081
1.02447
1.01398
1.01996
0.965298
0.879087
0.815874
0.748087
0.681159
0.614625
0.554564
0.500418
0.451136
0.40311
0.365327
0.337522
0.31715
0.302905
0.292002
0.278139
0.269744
0.266671
0.269408
0.276178
0.285772
0.297114
0.309745
0.323326
0.337704
0.352145
0.36654
0.381002
0.395945
0.411029
0.426709
0.442389
0.458508
0.474386
0.490533
0.506347
0.522187
0.537425
0.552409
0.567076
0.581832
0.59667
0.611586
0.626571
0.641322
0.655656
0.669537
0.68373
0.69865
0.71374
0.728481
0.742947
0.757306
0.771614
0.785863
0.80005
0.814132
0.828112
0.84195
0.85568
0.869305
0.882829
0.896292
0.909612
0.92289
0.935982
0.948988
0.961844
0.974491
0.987105
0.999383
1.01167
1.02363
1.03549
1.04711
1.05848
1.06963
1.08046
1.09103
1.10115
1.11102
1.12033
1.1292
1.13758
1.14509
1.1521
1.15783
1.16263
1.16547
1.16686
1.16738
1.16747
1.16674
1.16416
1.15862
1.15334
1.14601
1.14862
0.99933
1.03181
1.03134
1.00833
0.98191
0.952937
0.920149
0.881915
0.841284
0.798857
0.759629
0.725593
0.69915
0.679781
0.66528
0.65463
0.647089
0.64299
0.639785
0.637497
0.63694
0.638671
0.642073
0.64655
0.65202
0.658111
0.664777
0.671636
0.678636
0.685686
0.69301
0.700511
0.708439
0.716499
0.724813
0.733233
0.741809
0.750455
0.759119
0.767714
0.776232
0.784797
0.793509
0.80254
0.811803
0.821423
0.831112
0.840655
0.84989
0.85945
0.869785
0.880737
0.891558
0.902294
0.912996
0.923779
0.934649
0.945613
0.956649
0.96776
0.9789
0.990116
1.00133
1.01261
1.02389
1.03515
1.04649
1.0577
1.06904
1.08019
1.09139
1.10243
1.11339
1.12425
1.13492
1.14551
1.15583
1.16608
1.176
1.18586
1.19529
1.20465
1.2135
1.22225
1.23044
1.23833
1.24553
1.25197
1.25754
1.26178
1.2645
1.2656
1.26621
1.26634
1.26572
1.26322
1.25832
1.25345
1.24637
1.24848
0.982589
1.02901
1.05263
1.06043
1.05925
1.05283
1.04163
1.02561
1.00573
0.983328
0.962061
0.943642
0.929315
0.918379
0.910547
0.904284
0.899351
0.896241
0.894725
0.893578
0.892626
0.892377
0.893122
0.894415
0.896202
0.898015
0.900065
0.901925
0.903827
0.905545
0.907303
0.909135
0.911137
0.913349
0.915749
0.918402
0.921273
0.92439
0.927734
0.931254
0.93499
0.938964
0.943284
0.948056
0.953281
0.959054
0.965166
0.971354
0.97739
0.983787
0.990989
0.999068
1.00732
1.01562
1.024
1.03249
1.04122
1.0501
1.0592
1.06847
1.07785
1.08747
1.09708
1.10697
1.11679
1.12686
1.13687
1.14705
1.15721
1.16739
1.17762
1.18772
1.19789
1.20787
1.21785
1.22769
1.2374
1.24704
1.2564
1.26579
1.27487
1.28393
1.2926
1.30105
1.30897
1.31632
1.32313
1.32901
1.33403
1.33788
1.33983
1.34057
1.34088
1.34075
1.33959
1.33664
1.33128
1.32625
1.31884
1.31988
0.964385
1.01106
1.04704
1.06994
1.08445
1.09304
1.0971
1.09708
1.09331
1.0871
1.07994
1.07321
1.06775
1.06392
1.06149
1.06003
1.05895
1.05804
1.05764
1.05805
1.05845
1.05789
1.05699
1.0563
1.05567
1.05507
1.05424
1.05334
1.05209
1.05083
1.04927
1.0479
1.04643
1.04537
1.04431
1.04378
1.04337
1.04345
1.0438
1.04447
1.04545
1.04678
1.04851
1.05075
1.05349
1.05686
1.06072
1.06477
1.06881
1.07319
1.07838
1.08455
1.09115
1.098
1.10501
1.11229
1.11976
1.12759
1.13559
1.14395
1.15244
1.1612
1.1701
1.17917
1.18843
1.19774
1.2072
1.21671
1.22626
1.23589
1.24547
1.25512
1.26471
1.27425
1.28381
1.29319
1.30271
1.31193
1.32129
1.33022
1.3392
1.34763
1.35605
1.36381
1.37143
1.37828
1.38472
1.39025
1.39494
1.39844
1.40015
1.4007
1.40102
1.40096
1.39965
1.39635
1.39132
1.38621
1.37919
1.37966
0.941521
0.988165
1.02667
1.0566
1.08085
1.09916
1.1134
1.12399
1.13142
1.13626
1.13922
1.14131
1.14322
1.14541
1.14807
1.15092
1.15371
1.15597
1.15733
1.15831
1.15958
1.16052
1.16037
1.15937
1.15808
1.15658
1.15481
1.15272
1.15036
1.14766
1.14479
1.1417
1.13866
1.13563
1.13287
1.13034
1.12815
1.12635
1.12492
1.12387
1.12323
1.12298
1.12318
1.12391
1.12515
1.12708
1.12956
1.13237
1.13517
1.13835
1.14227
1.1472
1.15268
1.15854
1.16465
1.17099
1.17763
1.18449
1.19173
1.19916
1.20695
1.2149
1.22312
1.23153
1.24009
1.24889
1.25772
1.2668
1.27585
1.2851
1.29431
1.30363
1.31292
1.32227
1.33162
1.34092
1.35019
1.35931
1.36837
1.37715
1.38587
1.39412
1.40227
1.40982
1.41708
1.42369
1.42963
1.43486
1.43894
1.44198
1.44311
1.4435
1.44357
1.44324
1.44137
1.43761
1.43252
1.42735
1.42065
1.42048
0.917462
0.961025
0.99984
1.03334
1.06127
1.08538
1.10605
1.12393
1.13859
1.1509
1.16103
1.16971
1.17735
1.18442
1.19117
1.19749
1.20341
1.20836
1.2124
1.2151
1.21723
1.21882
1.22037
1.22101
1.22056
1.21927
1.21751
1.21521
1.21256
1.20948
1.20609
1.20239
1.19857
1.19469
1.19094
1.18736
1.18408
1.18114
1.17856
1.1764
1.17465
1.17333
1.17251
1.17214
1.17237
1.17324
1.1747
1.17656
1.17843
1.18069
1.18369
1.1876
1.19222
1.19723
1.20269
1.20834
1.21445
1.2207
1.22743
1.23429
1.24162
1.24906
1.25688
1.26486
1.27306
1.28149
1.28999
1.29877
1.30749
1.31652
1.32542
1.33461
1.34365
1.35284
1.36191
1.37101
1.38003
1.38895
1.39778
1.40638
1.41479
1.42293
1.43063
1.43812
1.44483
1.45128
1.45668
1.46157
1.46516
1.46764
1.46845
1.46878
1.46876
1.46805
1.46549
1.46162
1.45663
1.45184
1.44557
1.44529
0.894998
0.934624
0.971539
1.00564
1.03585
1.06315
1.08713
1.10857
1.12765
1.14472
1.1598
1.173
1.18485
1.19552
1.20545
1.21451
1.22293
1.23031
1.23674
1.24178
1.24587
1.24908
1.25148
1.25323
1.25465
1.25525
1.25457
1.2529
1.25069
1.2479
1.24474
1.24117
1.23739
1.23339
1.22941
1.22545
1.22174
1.21825
1.21518
1.21247
1.21024
1.20843
1.20713
1.20628
1.20603
1.20633
1.20733
1.20863
1.2101
1.21183
1.21439
1.21775
1.22186
1.22644
1.23146
1.23688
1.2426
1.24868
1.255
1.2617
1.26863
1.2759
1.2834
1.29117
1.29915
1.30731
1.3157
1.32417
1.33286
1.34158
1.35051
1.35938
1.36839
1.37733
1.38635
1.39527
1.40422
1.41298
1.42168
1.43012
1.43834
1.44627
1.45374
1.46087
1.46728
1.47317
1.47818
1.48226
1.48534
1.48682
1.48728
1.48741
1.48722
1.48605
1.48295
1.47926
1.47454
1.47082
1.46526
1.46582
0.875119
0.910439
0.944756
0.977527
1.00809
1.03636
1.06243
1.08623
1.10803
1.12761
1.1453
1.16131
1.17592
1.1892
1.20154
1.21283
1.22334
1.23286
1.24138
1.24869
1.25487
1.26005
1.26434
1.26787
1.27044
1.2723
1.2734
1.27396
1.27315
1.2713
1.26894
1.26597
1.26269
1.25901
1.25524
1.25132
1.24755
1.24393
1.24067
1.23774
1.23528
1.23321
1.23168
1.23056
1.23004
1.23005
1.23073
1.23181
1.23291
1.23444
1.23656
1.23962
1.24323
1.24749
1.25214
1.25731
1.2628
1.26867
1.27484
1.28131
1.2881
1.29514
1.30252
1.31006
1.31792
1.32586
1.3341
1.34238
1.35093
1.35946
1.36819
1.37687
1.38571
1.39449
1.40334
1.41214
1.42087
1.42956
1.43798
1.44634
1.45427
1.46202
1.46925
1.476
1.48215
1.48747
1.49209
1.49549
1.49796
1.4988
1.49908
1.49905
1.49868
1.49704
1.49364
1.4903
1.4861
1.48314
1.47835
1.47911
0.858881
0.89019
0.921475
0.952045
0.981472
1.00934
1.03566
1.06019
1.08309
1.10421
1.12375
1.14165
1.15817
1.17331
1.18736
1.20041
1.21254
1.22382
1.23414
1.24347
1.25168
1.25885
1.26504
1.27032
1.27478
1.27844
1.28118
1.28309
1.28408
1.28463
1.28383
1.28203
1.27969
1.27688
1.2736
1.27
1.26647
1.26297
1.2598
1.25688
1.25439
1.25227
1.25062
1.24939
1.24873
1.24858
1.24913
1.25004
1.25107
1.25241
1.25444
1.25721
1.26066
1.2646
1.2691
1.27401
1.27941
1.28508
1.29116
1.29745
1.30414
1.31101
1.31823
1.32563
1.33331
1.34116
1.34921
1.35744
1.36575
1.37423
1.3827
1.39136
1.39994
1.40867
1.41725
1.42591
1.43439
1.4428
1.451
1.45895
1.46666
1.47388
1.48077
1.48694
1.49257
1.49729
1.50118
1.50396
1.50557
1.50605
1.50623
1.50613
1.50524
1.50315
1.49979
1.49696
1.49364
1.49146
1.48764
1.48896
0.845591
0.873659
0.902098
0.930212
0.95784
0.984447
1.01002
1.03429
1.05727
1.07887
1.09911
1.11802
1.13569
1.15217
1.16764
1.18212
1.19575
1.20853
1.22046
1.23153
1.2416
1.25067
1.2588
1.26596
1.27228
1.27764
1.28216
1.28571
1.28838
1.29003
1.29088
1.29118
1.29051
1.28901
1.28689
1.28408
1.28108
1.27797
1.2751
1.27234
1.27003
1.26794
1.2664
1.26514
1.26453
1.26431
1.26485
1.2657
1.2667
1.26797
1.26985
1.27249
1.27573
1.27952
1.28378
1.28857
1.29375
1.29938
1.30527
1.31155
1.31804
1.32489
1.33192
1.33927
1.34677
1.35456
1.36246
1.37055
1.37872
1.38702
1.3954
1.40384
1.41235
1.42081
1.42934
1.4377
1.44609
1.45418
1.4622
1.46983
1.47717
1.48407
1.49039
1.49612
1.50098
1.50508
1.50807
1.51009
1.51085
1.51106
1.51104
1.51073
1.50912
1.50692
1.50411
1.50201
1.49975
1.49836
1.49564
1.49763
0.835628
0.860842
0.886511
0.91212
0.937573
0.962468
0.986713
1.01007
1.03253
1.05393
1.07435
1.09366
1.11199
1.12929
1.1457
1.16122
1.17595
1.18989
1.2031
1.21552
1.22713
1.23783
1.24762
1.25652
1.26451
1.27163
1.27788
1.28324
1.28774
1.29129
1.29398
1.29568
1.29667
1.29711
1.29682
1.29562
1.29377
1.29151
1.28912
1.28673
1.28462
1.28268
1.28121
1.28002
1.27942
1.27919
1.27972
1.28067
1.28165
1.28297
1.28479
1.28734
1.29048
1.29411
1.29827
1.30285
1.30796
1.31342
1.31933
1.32547
1.33198
1.33866
1.34569
1.35286
1.36035
1.3679
1.37571
1.38354
1.39156
1.39962
1.4078
1.41601
1.42426
1.43252
1.44072
1.4489
1.45687
1.46476
1.47228
1.4796
1.48643
1.49281
1.49856
1.50361
1.5078
1.51109
1.51332
1.51447
1.51478
1.51483
1.51465
1.5137
1.51166
1.50958
1.50753
1.50627
1.50499
1.50435
1.5026
1.5052
0.829736
0.852205
0.875156
0.898244
0.921394
0.944308
0.966917
0.988989
1.01049
1.03131
1.05137
1.07071
1.08919
1.10697
1.1239
1.14018
1.15569
1.17057
1.18475
1.19827
1.21113
1.22319
1.23446
1.24489
1.25453
1.2633
1.27133
1.27844
1.28483
1.29028
1.29494
1.29863
1.30149
1.30341
1.3046
1.30535
1.30541
1.30454
1.30299
1.30123
1.2994
1.29769
1.29631
1.29521
1.29464
1.29442
1.29498
1.29591
1.29702
1.29833
1.30014
1.3026
1.30562
1.30917
1.31315
1.31767
1.32257
1.328
1.33372
1.33988
1.34621
1.3529
1.35974
1.36691
1.3742
1.38173
1.38933
1.3971
1.40494
1.41287
1.42089
1.42889
1.43698
1.44494
1.45297
1.46075
1.4685
1.4759
1.4831
1.48985
1.4962
1.50191
1.50698
1.51119
1.5146
1.51693
1.51833
1.51873
1.51879
1.51868
1.51793
1.5164
1.51426
1.51278
1.51166
1.51119
1.51084
1.51091
1.51007
1.51323
0.825976
0.846289
0.866987
0.887924
0.909029
0.930134
0.951116
0.971882
0.992272
1.01232
1.0318
1.05087
1.06927
1.0872
1.10446
1.12119
1.13729
1.15284
1.16781
1.18221
1.19605
1.20923
1.22172
1.23348
1.2445
1.25479
1.26431
1.2731
1.28114
1.28836
1.2948
1.30035
1.30509
1.30891
1.31182
1.31393
1.31537
1.31626
1.31647
1.31585
1.31466
1.3134
1.31223
1.31129
1.31075
1.3106
1.31106
1.31202
1.31319
1.31449
1.31623
1.31847
1.32138
1.32469
1.32858
1.33284
1.33767
1.34284
1.34851
1.35445
1.36077
1.36727
1.37411
1.38109
1.38833
1.39564
1.40316
1.41072
1.41842
1.42616
1.43396
1.44181
1.4496
1.45743
1.46505
1.47266
1.47993
1.48704
1.49369
1.50001
1.50568
1.51079
1.51503
1.51851
1.52093
1.52247
1.52295
1.52303
1.52291
1.52232
1.52069
1.51902
1.51741
1.51671
1.51629
1.51668
1.51719
1.5178
1.51809
1.52158
0.822655
0.841479
0.860562
0.87984
0.899374
0.918998
0.938678
0.958291
0.977748
0.997014
1.01596
1.03461
1.05283
1.07067
1.08804
1.10497
1.12142
1.1374
1.15292
1.16795
1.18253
1.19657
1.21006
1.2229
1.23515
1.24671
1.25762
1.26787
1.27736
1.28618
1.29419
1.30148
1.30784
1.31341
1.31809
1.32187
1.32481
1.32713
1.32866
1.32961
1.32997
1.32961
1.32886
1.3281
1.32756
1.32725
1.32748
1.32826
1.32929
1.33051
1.33194
1.33401
1.33663
1.33983
1.34344
1.34758
1.35215
1.35718
1.36261
1.36844
1.37456
1.38099
1.3876
1.39449
1.40146
1.40869
1.41594
1.42339
1.43081
1.43836
1.44588
1.45343
1.46094
1.46836
1.47571
1.4828
1.48974
1.49624
1.50244
1.50805
1.5131
1.51737
1.52083
1.52339
1.525
1.52564
1.52581
1.52577
1.52526
1.52388
1.52214
1.52083
1.52016
1.52016
1.52075
1.52173
1.52297
1.5244
1.52574
1.52967
0.820691
0.838215
0.855961
0.873935
0.892192
0.910639
0.929247
0.947878
0.966537
0.985086
1.00353
1.02174
1.03974
1.0574
1.07476
1.09171
1.10835
1.12454
1.14041
1.15582
1.17087
1.1855
1.19967
1.21331
1.22642
1.23892
1.25086
1.26215
1.27285
1.28289
1.29228
1.30092
1.30887
1.31603
1.32232
1.32776
1.3323
1.33607
1.33917
1.34137
1.34268
1.34363
1.34393
1.34373
1.34321
1.34291
1.34272
1.34321
1.34411
1.34514
1.34645
1.34816
1.35057
1.35348
1.35693
1.36082
1.36521
1.37
1.37523
1.38079
1.38677
1.39295
1.39946
1.40608
1.41298
1.41998
1.42716
1.43441
1.44175
1.44911
1.45649
1.46384
1.47113
1.47833
1.48533
1.49212
1.49858
1.50465
1.51028
1.51526
1.51962
1.52311
1.52585
1.52758
1.52849
1.52881
1.52887
1.52841
1.52715
1.52547
1.52426
1.52363
1.52379
1.52449
1.52562
1.52699
1.52906
1.53157
1.53364
1.53743
0.816419
0.833409
0.850587
0.86799
0.885629
0.903439
0.921433
0.939493
0.957551
0.975561
0.993486
1.01127
1.02888
1.04627
1.06342
1.08028
1.09687
1.11314
1.12912
1.14476
1.16013
1.17513
1.1898
1.20396
1.21772
1.23099
1.24377
1.25607
1.26783
1.27903
1.28964
1.29962
1.30894
1.31753
1.32535
1.33234
1.33834
1.34342
1.34772
1.35133
1.35395
1.35566
1.35663
1.35719
1.35736
1.35719
1.35685
1.35699
1.35753
1.35843
1.35943
1.36082
1.36271
1.36532
1.3684
1.37205
1.37611
1.38067
1.38558
1.39101
1.39674
1.40291
1.40921
1.41585
1.42256
1.42959
1.43665
1.4439
1.45111
1.45839
1.46559
1.47276
1.47979
1.4867
1.49334
1.49973
1.50568
1.51125
1.51618
1.52053
1.52402
1.52678
1.5286
1.52961
1.53008
1.53022
1.52976
1.52844
1.52687
1.52564
1.52506
1.52528
1.52604
1.52704
1.52862
1.53073
1.53375
1.53713
1.53965
1.5434
0.804611
0.822106
0.839686
0.857374
0.875238
0.893205
0.911264
0.929418
0.947614
0.965704
0.983626
1.00137
1.01892
1.03624
1.05333
1.07016
1.08674
1.10307
1.11913
1.13495
1.15049
1.16579
1.18077
1.19544
1.2097
1.22361
1.23705
1.25009
1.26259
1.27465
1.28611
1.29705
1.30733
1.31697
1.32584
1.33397
1.34121
1.34755
1.35283
1.35739
1.36112
1.36385
1.36579
1.36704
1.36776
1.36816
1.36836
1.36839
1.36865
1.36921
1.37001
1.37098
1.37243
1.37452
1.37735
1.38067
1.38453
1.38879
1.39357
1.39874
1.40441
1.41032
1.4166
1.42301
1.42977
1.43661
1.44368
1.45075
1.45791
1.46501
1.47209
1.47907
1.4859
1.49255
1.4989
1.50488
1.51044
1.51542
1.51978
1.52332
1.52608
1.52796
1.52906
1.5297
1.52991
1.52939
1.52799
1.5265
1.52525
1.52465
1.5249
1.52555
1.52658
1.52803
1.53035
1.53347
1.53718
1.54114
1.54407
1.54784
0.788216
0.806774
0.825245
0.843555
0.861776
0.879966
0.898157
0.916366
0.934583
0.952823
0.970996
0.989015
1.00681
1.02437
1.04167
1.05871
1.07547
1.09197
1.10821
1.1242
1.13994
1.15543
1.17068
1.18559
1.20018
1.21439
1.22824
1.24165
1.25464
1.26717
1.27919
1.29075
1.30168
1.31209
1.32179
1.33083
1.33903
1.34652
1.35309
1.35887
1.36389
1.36817
1.37138
1.3738
1.37545
1.37662
1.37737
1.37788
1.37833
1.37889
1.37958
1.38042
1.38153
1.38314
1.38542
1.38824
1.39153
1.39529
1.39951
1.4042
1.40931
1.41482
1.42064
1.42679
1.4332
1.43986
1.44668
1.45364
1.46065
1.46768
1.47465
1.48153
1.48819
1.49464
1.50066
1.50632
1.5114
1.51587
1.51957
1.52243
1.52447
1.52575
1.5266
1.52689
1.52633
1.52485
1.52352
1.52227
1.52173
1.52203
1.52273
1.52369
1.52516
1.52737
1.53055
1.53439
1.53858
1.54304
1.54627
1.55024
0.770117
0.789089
0.8081
0.827
0.845753
0.864374
0.882912
0.901308
0.919625
0.937788
0.955882
0.973817
0.991645
1.00927
1.02671
1.04389
1.06085
1.07754
1.094
1.11019
1.12617
1.14191
1.15744
1.17268
1.1876
1.20217
1.21641
1.23027
1.24379
1.2569
1.26964
1.28186
1.29365
1.30484
1.31548
1.32542
1.33478
1.34331
1.35116
1.3581
1.36431
1.3698
1.37454
1.37828
1.38127
1.38348
1.38508
1.38622
1.38707
1.38772
1.38832
1.38894
1.38968
1.39076
1.39228
1.39436
1.39694
1.40006
1.40366
1.4078
1.41236
1.41741
1.4228
1.42859
1.43461
1.44094
1.44741
1.45405
1.46073
1.46744
1.4741
1.48063
1.48693
1.49294
1.49849
1.50364
1.50809
1.51194
1.51484
1.51705
1.5186
1.51965
1.52002
1.51949
1.51805
1.51684
1.51574
1.51523
1.51563
1.5164
1.51748
1.51891
1.52112
1.52421
1.52808
1.53236
1.53695
1.54173
1.54531
1.54939
0.747704
0.767275
0.786986
0.806673
0.826324
0.845746
0.86493
0.883852
0.902571
0.92107
0.939387
0.957494
0.975349
0.993009
1.01045
1.02769
1.0447
1.06151
1.07809
1.09447
1.11064
1.12663
1.1424
1.15798
1.17326
1.18828
1.20298
1.21738
1.23142
1.24507
1.2583
1.27109
1.28341
1.29526
1.30659
1.31742
1.32767
1.33731
1.3463
1.35453
1.36194
1.36857
1.37455
1.37948
1.38358
1.38674
1.38912
1.39078
1.3919
1.3926
1.39307
1.39349
1.39398
1.39465
1.39567
1.39716
1.39918
1.40175
1.40486
1.40846
1.41255
1.41704
1.42197
1.4272
1.43285
1.43865
1.44481
1.45096
1.45736
1.46356
1.46987
1.47582
1.4817
1.48701
1.49205
1.49646
1.5002
1.50326
1.50547
1.50729
1.50853
1.50886
1.50832
1.50705
1.50594
1.50505
1.50467
1.50514
1.50606
1.50724
1.50874
1.51084
1.51389
1.51769
1.522
1.52664
1.5315
1.53654
1.54033
1.5445
0.721226
0.741361
0.761447
0.781409
0.801262
0.821047
0.840749
0.860271
0.879553
0.898608
0.917384
0.935936
0.954251
0.972321
0.990139
1.00771
1.02503
1.04213
1.05899
1.07565
1.09207
1.10834
1.12435
1.14025
1.15582
1.17118
1.18615
1.20093
1.21533
1.22952
1.24332
1.25685
1.26996
1.28273
1.29501
1.30686
1.3181
1.32882
1.33877
1.34806
1.35648
1.36411
1.37096
1.37702
1.38215
1.38624
1.38947
1.39184
1.39338
1.39436
1.39497
1.39538
1.39572
1.39615
1.39676
1.39772
1.39907
1.40103
1.40338
1.4064
1.4098
1.41381
1.41812
1.42297
1.42797
1.43347
1.43891
1.44477
1.45042
1.4563
1.46184
1.46737
1.47245
1.47713
1.48143
1.48493
1.4879
1.49012
1.49202
1.49325
1.49346
1.49276
1.49163
1.49058
1.48978
1.48938
1.48986
1.49087
1.49217
1.49362
1.4957
1.49853
1.50235
1.50658
1.51128
1.51628
1.52144
1.52681
1.53088
1.53525
0.691568
0.712361
0.733086
0.753637
0.773974
0.794113
0.814088
0.833892
0.853514
0.872887
0.892011
0.910833
0.929399
0.947657
0.965687
0.983434
1.001
1.01832
1.03548
1.05241
1.06915
1.08568
1.10201
1.11815
1.13413
1.14988
1.16541
1.18072
1.19579
1.21063
1.22518
1.23943
1.25336
1.26684
1.27995
1.29247
1.30448
1.31585
1.32656
1.33658
1.34587
1.35441
1.36207
1.36906
1.3751
1.38022
1.38433
1.38754
1.38992
1.39167
1.39287
1.39365
1.39418
1.39453
1.39493
1.39547
1.39641
1.39768