/*--------------------------------*- C++ -*----------------------------------*\
  =========                 |
  \\      /  F ield         | OpenFOAM: The Open Source CFD Toolbox
   \\    /   O peration     | Website:  https://openfoam.org
    \\  /    A nd           | Version:  6
     \\/     M anipulation  |
\*---------------------------------------------------------------------------*/
FoamFile
{
    version     2.0;
    format      ascii;
    class       surfaceScalarField;
    location    "8.5";
    object      phi;
}
// * * * * * * * * * * * * * * * * * * * * * * * * * * * * * * * * * * * * * //

dimensions      [1 0 -1 0 0 0 0];

internalField   nonuniform List<scalar> 
10325
(
0.00840002
1.51002e-09
0.00839996
9.16012e-09
0.00839981
2.80008e-08
0.00839942
7.13068e-08
0.00839874
1.56605e-07
0.00839719
3.47263e-07
0.00839503
6.94088e-07
0.00838994
1.59592e-06
0.00838528
3.2342e-06
0.00836812
9.06214e-06
0.00834774
1.9687e-05
0.00826252
0.000100366
0.00737383
0.000552098
0.00656757
0.000781865
0.00596506
0.00074967
0.00544783
0.000655257
0.00482535
0.000591072
0.00415601
0.000568937
0.00347175
0.000560084
0.00281426
0.000569238
0.00218341
0.000599717
0.00159489
0.000626811
0.00104663
0.00064197
0.000519449
0.000655077
0.000659483
0.00840002
3.23172e-09
0.00839996
1.95979e-08
0.0083998
5.9707e-08
0.00839938
1.52337e-07
0.00839865
3.3544e-07
0.008397
7.46866e-07
0.00839464
1.50891e-06
0.00838914
3.46141e-06
0.00838367
7.18335e-06
0.00836389
1.98394e-05
0.00834052
4.52538e-05
0.00821802
0.000234129
0.00722158
0.00121495
0.00642272
0.00155577
0.00591299
0.00142634
0.0054574
0.00124154
0.00486979
0.00114034
0.0042149
0.00111864
0.00352255
0.00112787
0.00284879
0.00115684
0.00221073
0.00120986
0.00161768
0.00126039
0.0010612
0.00129389
0.000527267
0.00131776
0.00132736
0.00840002
5.25347e-09
0.00839995
3.18161e-08
0.00839977
9.66366e-08
0.00839931
2.46858e-07
0.00839849
5.44796e-07
0.00839665
1.21935e-06
0.00839388
2.47285e-06
0.00838764
5.71498e-06
0.00838059
1.19217e-05
0.00835836
3.30723e-05
0.00833193
7.65456e-05
0.00817527
0.000395395
0.00712024
0.00193869
0.00629542
0.00235782
0.00585477
0.00205
0.00545875
0.00176173
0.0049037
0.00164507
0.00426446
0.00164464
0.00357797
0.00168936
0.00290546
0.0017476
0.00226396
0.00183057
0.00166011
0.00190925
0.00108687
0.00196606
0.000536341
0.00199783
0.00200481
0.00840002
7.54601e-09
0.00839994
4.56823e-08
0.00839974
1.3823e-07
0.00839921
3.53677e-07
0.00839825
7.8076e-07
0.00839614
1.76174e-06
0.00839268
3.56007e-06
0.00838547
8.37362e-06
0.00837559
1.73256e-05
0.00835228
4.90804e-05
0.00832328
0.000112498
0.00813308
0.000578581
0.00701766
0.00272041
0.00618111
0.00317313
0.00581859
0.00261598
0.0054815
0.00221593
0.00495521
0.00210278
0.00433491
0.00214192
0.00366828
0.0022325
0.00300586
0.00233589
0.00236464
0.0024608
0.0017484
0.00257721
0.00115155
0.00266683
0.000562236
0.00271849
0.0027089
0.00840002
1.00119e-08
0.00839992
6.07488e-08
0.00839969
1.82929e-07
0.00839906
4.69903e-07
0.00839792
1.03738e-06
0.00839542
2.37335e-06
0.00839107
4.75747e-06
0.00838242
1.151e-05
0.00836854
2.35053e-05
0.00834272
6.81591e-05
0.00831176
0.000154038
0.00808284
0.000785425
0.00689477
0.00356819
0.00606486
0.00398645
0.00580822
0.0030942
0.00553483
0.00259762
0.00503377
0.00251112
0.00443773
0.0026067
0.00379765
0.00275255
0.00315494
0.00291653
0.00252193
0.00309697
0.00189143
0.00326952
0.0012657
0.00339951
0.000632908
0.0034829
0.00348312
0.00840002
1.23751e-08
0.0083999
7.5804e-08
0.00839962
2.27797e-07
0.00839887
5.89863e-07
0.00839749
1.32152e-06
0.00839451
3.01947e-06
0.00838885
6.29017e-06
0.00837831
1.48135e-05
0.00835948
3.1451e-05
0.00832725
8.82958e-05
0.00829289
0.000206863
0.00801877
0.00101749
0.00674558
0.00448926
0.00595221
0.0047744
0.00584137
0.00345021
0.00562578
0.00290394
0.00515168
0.00287048
0.00458547
0.00303746
0.00397956
0.00324889
0.0033643
0.00348781
0.0027401
0.0037402
0.00210237
0.00397888
0.00142903
0.00418419
0.000725475
0.00431868
0.0043479
0.00840002
1.40401e-08
0.00839988
8.73902e-08
0.00839957
2.61984e-07
0.00839865
6.92492e-07
0.00839706
1.57421e-06
0.00839333
3.66037e-06
0.00838575
7.97063e-06
0.00837294
1.83287e-05
0.00834422
4.16522e-05
0.00830811
0.000110868
0.00827488
0.000272219
0.00794143
0.00127669
0.00656996
0.00548084
0.00590237
0.00544373
0.00595049
0.00368232
0.00577271
0.00315909
0.00532108
0.0031914
0.00479477
0.00342997
0.00422953
0.00372564
0.00364776
0.00404803
0.00303902
0.00438575
0.0023873
0.00471123
0.001678
0.00500369
0.000875386
0.00525095
0.00535987
0.00840002
1.46452e-08
0.00839987
9.25249e-08
0.00839956
2.75971e-07
0.00839854
7.48053e-07
0.00839685
1.70799e-06
0.00839212
4.16839e-06
0.00838351
9.02626e-06
0.00836519
2.23101e-05
0.00833218
5.03801e-05
0.00827279
0.000141128
0.00827861
0.000349746
0.00784632
0.00155244
0.00633418
0.00650874
0.00598405
0.00589531
0.00618423
0.00384942
0.00599024
0.00338335
0.0055578
0.00348839
0.0050755
0.00379682
0.00456654
0.00417755
0.00402198
0.00459743
0.00343521
0.00502234
0.0027922
0.00543926
0.00204299
0.00586488
0.00112806
0.0062902
0.00661755
0.00840002
1.37777e-08
0.00839988
8.87658e-08
0.00839961
2.63353e-07
0.0083986
7.3274e-07
0.00839699
1.68722e-06
0.00839174
4.29357e-06
0.00838296
9.37454e-06
0.0083595
2.45407e-05
0.0083224
5.55223e-05
0.0082221
0.000164306
0.00829054
0.000430411
0.00773194
0.001808
0.0061282
0.00750327
0.00629099
0.00590408
0.00652606
0.00403872
0.00629668
0.00365485
0.00587568
0.00380561
0.00543905
0.0041547
0.00498776
0.00460611
0.00449634
0.0051173
0.00397178
0.00560565
0.00338635
0.00610865
0.00264811
0.00670986
0.00162438
0.00743103
0.00836308
0.00840002
1.08012e-08
0.00839991
7.26764e-08
0.0083997
2.16057e-07
0.00839883
6.29907e-07
0.00839753
1.46451e-06
0.00839252
3.94391e-06
0.00838444
8.67676e-06
0.00835928
2.39718e-05
0.00830943
5.53473e-05
0.00822372
0.000166957
0.0082115
0.000473846
0.00770228
0.00190238
0.00627993
0.00797582
0.0068094
0.00595899
0.00701621
0.00438532
0.00669463
0.0040183
0.00626998
0.00416463
0.00587809
0.00450648
0.00549585
0.0050002
0.00509769
0.00556483
0.00467589
0.00608586
0.00419054
0.00667481
0.00359116
0.00740899
0.00272358
0.00839989
0.0111913
0.00840002
7.79512e-09
0.00839995
5.25479e-08
0.00839984
1.57236e-07
0.00839927
4.63795e-07
0.00839843
1.07729e-06
0.00839442
3.03429e-06
0.0083888
6.66704e-06
0.00836443
2.02539e-05
0.00832857
4.4967e-05
0.0082294
0.000152601
0.00816093
0.000431512
0.00783894
0.00176758
0.00711699
0.00733792
0.00760663
0.00639815
0.00759109
0.00500963
0.00714794
0.00457447
0.00672663
0.00460202
0.00638247
0.00488234
0.0060601
0.0053728
0.00581547
0.00587334
0.00554555
0.00641675
0.00527559
0.0070183
0.005127
0.00764403
0.0054654
0.00814157
0.0078752
0.00884105
0.00840002
6.4179e-09
0.00839999
4.19213e-08
0.00839993
1.26166e-07
0.00839965
3.56686e-07
0.00839928
8.20582e-07
0.00839732
2.16842e-06
0.00839444
4.73404e-06
0.00838012
1.35359e-05
0.0083591
3.04227e-05
0.00827791
9.90097e-05
0.00821858
0.000293127
0.0082206
0.0011303
0.00860392
0.00498247
0.00890213
0.00739316
0.00819082
0.00636451
0.00760084
0.00529114
0.00722896
0.00506299
0.00691847
0.00528366
0.00669256
0.00567451
0.00652578
0.00611225
0.00641486
0.00659433
0.00641679
0.0070787
0.00668719
0.00743714
0.0073327
0.00755857
0.00698604
0.00826115
0.00840002
6.05772e-09
0.0084
3.86729e-08
0.00839997
1.16787e-07
0.00839981
3.19938e-07
0.00839958
7.30367e-07
0.00839853
1.82348e-06
0.00839701
3.93771e-06
0.00839056
1.02551e-05
0.00838074
2.28024e-05
0.00835459
6.52118e-05
0.0083576
0.000181743
0.00852384
0.000610135
0.00980676
0.00256762
0.00950183
0.00816798
0.00835439
0.00771407
0.00790543
0.00590717
0.00762022
0.00548895
0.00740843
0.00561132
0.00728653
0.00589192
0.00719291
0.00628201
0.0071626
0.00668112
0.00734836
0.00693903
0.00772546
0.00710961
0.00827855
0.00704911
0.00655776
0.0087424
0.00840002
6.2706e-09
0.00840001
3.95451e-08
0.00839998
1.19484e-07
0.00839987
3.21988e-07
0.0083997
7.30139e-07
0.00839901
1.77099e-06
0.00839794
3.7702e-06
0.00839354
9.47164e-06
0.0083867
2.01112e-05
0.0083637
5.65718e-05
0.00833824
0.000143944
0.00832359
0.000479843
0.00865121
0.0017868
0.00902671
0.00746296
0.00850026
0.00821179
0.00810349
0.00653723
0.00786753
0.00588387
0.00771442
0.00586416
0.00763247
0.0060547
0.00764534
0.00633117
0.00777876
0.00659398
0.0080383
0.00672361
0.00840473
0.00678315
0.00887746
0.00661168
0.0062792
0.00918578
0.00840002
6.76389e-09
0.00840001
4.24381e-08
0.00839999
1.28207e-07
0.0083999
3.43426e-07
0.00839975
7.77515e-07
0.0083992
1.86458e-06
0.00839828
3.95566e-06
0.00839493
9.74192e-06
0.00838896
2.04377e-05
0.00837051
5.58369e-05
0.00833713
0.000137778
0.00829456
0.000441675
0.00829724
0.00149069
0.00821265
0.00700985
0.00860458
0.00759292
0.00821018
0.00703782
0.00804487
0.00617466
0.00797138
0.00601302
0.00796206
0.00612439
0.00806113
0.00627953
0.00826208
0.00643187
0.00854937
0.00647222
0.00890518
0.00646053
0.00930464
0.00624375
0.00597115
0.0096386
0.00840002
7.30243e-09
0.00840001
4.57148e-08
0.00839999
1.37562e-07
0.00839992
3.68907e-07
0.00839979
8.34541e-07
0.00839933
2.00631e-06
0.00839853
4.25322e-06
0.00839581
1.04274e-05
0.00839035
2.20565e-05
0.00837762
5.62724e-05
0.00833681
0.000150888
0.0083229
0.000411045
0.00825359
0.00137434
0.00814576
0.00669314
0.0082548
0.00741181
0.00829026
0.0069915
0.00823518
0.00629844
0.0082184
0.00607253
0.00826724
0.00610974
0.00839916
0.00617966
0.00861509
0.00624467
0.00890299
0.00621117
0.00925802
0.00612957
0.00958992
0.00593419
0.00564302
0.00993877
0.00840003
7.18894e-09
0.00840002
4.49906e-08
0.00840001
1.35751e-07
0.00839998
3.63131e-07
0.00839993
8.23213e-07
0.00839972
1.96563e-06
0.00839943
4.17929e-06
0.00839806
1.02422e-05
0.00839716
2.05553e-05
0.00838513
5.906e-05
0.00839171
0.000127187
0.00830874
0.000453212
0.00832869
0.00123578
0.00846232
0.00621539
0.00843597
0.00738606
0.00848111
0.00690871
0.00842728
0.00636256
0.00844191
0.00607365
0.00853145
0.00603818
0.00868927
0.00604329
0.00891049
0.00604528
0.00917898
0.00596539
0.00951368
0.0058194
0.00982409
0.00564313
0.00535108
0.0101332
0.00840003
6.7371e-09
0.00840003
4.21506e-08
0.00840003
1.26824e-07
0.00840002
3.39807e-07
0.00840003
7.66917e-07
0.00839998
1.84324e-06
0.00840006
3.85624e-06
0.00839957
9.63734e-06
0.00840023
1.86794e-05
0.00839561
5.67557e-05
0.00840557
0.000108096
0.00840104
0.000426152
0.00847408
0.00108876
0.00934819
0.00504304
0.00912724
0.00756249
0.00883756
0.00716874
0.00872066
0.00647191
0.00870693
0.00608807
0.0087908
0.00595955
0.00894621
0.00589856
0.00916442
0.00584015
0.00942487
0.00571866
0.00970289
0.00555863
0.0100037
0.00535879
0.00508459
0.0102845
0.00840003
5.70913e-09
0.00840003
3.57214e-08
0.00840004
1.0821e-07
0.00840007
2.87731e-07
0.00840016
6.5205e-07
0.00840034
1.53359e-06
0.00840078
3.25829e-06
0.00840208
7.63118e-06
0.00840377
1.59878e-05
0.00841674
3.96447e-05
0.00843097
8.81679e-05
0.00857937
0.000257546
0.00894386
0.000667565
0.011191
0.00261198
0.0102966
0.00840729
0.00957771
0.00784742
0.00923096
0.00679244
0.0091092
0.00620293
0.00912797
0.00594071
0.00923363
0.00579879
0.00941964
0.00566204
0.00964625
0.00550389
0.00988653
0.00532768
0.0101562
0.00510037
0.00483605
0.0104167
0.00840003
4.94655e-09
0.00840003
3.09364e-08
0.00840004
9.36431e-08
0.00840006
2.48927e-07
0.00840012
5.63608e-07
0.00840024
1.3246e-06
0.00840054
2.81247e-06
0.00840107
6.56333e-06
0.00840255
1.37561e-05
0.00840635
3.27964e-05
0.00841284
7.73741e-05
0.00845841
0.000195721
0.00856582
0.000555525
0.00912131
0.00197149
0.00986498
0.00754884
0.0101018
0.00754704
0.00952969
0.00734185
0.0094533
0.00626862
0.00946213
0.0059285
0.0095395
0.00572345
0.00968526
0.00552417
0.00985843
0.00533924
0.0100723
0.00512184
0.0103046
0.00487654
0.00461223
0.0105375
0.00840003
4.3452e-09
0.00840003
2.71574e-08
0.00840004
8.2123e-08
0.00840005
2.18471e-07
0.0084001
4.94985e-07
0.00840017
1.16509e-06
0.00840039
2.47631e-06
0.0084007
5.78319e-06
0.00840167
1.21065e-05
0.00840216
2.98018e-05
0.00841145
6.36205e-05
0.00841417
0.00018074
0.00847071
0.000479729
0.00867353
0.00170902
0.00944332
0.00659744
0.00946942
0.00746804
0.00972636
0.007052
0.0095907
0.00639215
0.00963701
0.00587639
0.0097552
0.00560513
0.00989262
0.00539007
0.0100598
0.00517579
0.0102558
0.0049321
0.0104615
0.00467844
0.0044139
0.0106676
0.00840003
3.74881e-09
0.00840003
2.34182e-08
0.00840004
7.06095e-08
0.00840005
1.88251e-07
0.0084001
4.25367e-07
0.00840018
1.00829e-06
0.00840042
2.12329e-06
0.0084007
5.06267e-06
0.00840188
1.03044e-05
0.00840216
2.70317e-05
0.00840986
5.25782e-05
0.00841114
0.000167261
0.0084747
0.000399799
0.00861821
0.00149308
0.00955706
0.00548854
0.00954614
0.00747507
0.00971383
0.00687172
0.00965889
0.00644183
0.00974767
0.00578578
0.00989009
0.00546382
0.010045
0.00523706
0.0102305
0.00499486
0.0104219
0.00474706
0.0106132
0.0044938
0.00423345
0.0107997
0.00840003
2.95849e-09
0.00840003
1.85198e-08
0.00840004
5.62096e-08
0.00840007
1.49221e-07
0.00840014
3.3787e-07
0.00840027
7.91963e-07
0.00840062
1.67439e-06
0.00840134
3.90361e-06
0.00840301
8.033e-06
0.00840725
2.02676e-05
0.0084182
3.88772e-05
0.00845446
0.000118291
0.008555
0.000281856
0.00909708
0.000921547
0.0113572
0.0030196
0.0105389
0.00830311
0.0103241
0.00711824
0.0102173
0.00656632
0.0101205
0.00588894
0.0101713
0.00541807
0.0103047
0.00510965
0.0104595
0.00484665
0.0106235
0.00458998
0.0107894
0.00433468
0.00407701
0.0109519
0.00840003
2.43854e-09
0.00840003
1.51303e-08
0.00840004
4.63565e-08
0.00840006
1.21322e-07
0.0084001
2.79156e-07
0.00840019
6.43367e-07
0.00840039
1.39787e-06
0.00840084
3.14535e-06
0.00840163
6.80012e-06
0.0084052
1.51074e-05
0.00840614
3.55192e-05
0.00844259
7.47758e-05
0.00849426
0.000213081
0.00882629
0.000567533
0.00993707
0.00181332
0.010789
0.00738597
0.0106958
0.00720478
0.0105679
0.00669281
0.0104986
0.00596015
0.0105227
0.00539797
0.0106176
0.00502122
0.0107397
0.00473111
0.0108724
0.00446399
0.0110082
0.00420427
0.00394694
0.0111432
0.00840003
1.34628e-09
0.00840003
1.38737e-08
0.00840004
2.99663e-08
0.00840005
1.08418e-07
0.00840014
1.79136e-07
0.00840015
5.8725e-07
0.00840064
8.50897e-07
0.00840052
3.03034e-06
0.00840347
3.57007e-06
0.00840022
1.71998e-05
0.00842439
9.86404e-06
0.00838375
0.000109823
0.00854354
4.61343e-05
0.00839333
0.000696652
0.0088762
0.0012725
0.0101159
0.00601586
0.0104038
0.00690407
0.0105183
0.00657539
0.0105823
0.00589789
0.0106965
0.005287
0.0108284
0.00489178
0.0109637
0.00459674
0.0110957
0.00433331
0.0112227
0.00407908
0.00382724
0.0113441
0.00840003
1.41771e-09
0.00840003
7.81851e-09
0.00840004
2.65899e-08
0.00840008
6.37933e-08
0.00840008
1.60134e-07
0.00840031
3.3263e-07
0.00840029
8.01987e-07
0.00840164
1.56951e-06
0.00840074
4.06901e-06
0.0084106
6.86695e-06
0.00839479
2.34685e-05
0.00846692
3.51964e-05
0.00835246
0.000151347
0.00873399
0.000300766
0.00864529
0.00132865
0.010201
0.00430773
0.0102787
0.00684918
0.0105106
0.00636244
0.0106837
0.00574422
0.0108318
0.0051479
0.0109924
0.00473221
0.0111469
0.00443878
0.0112888
0.00418899
0.0114182
0.00394843
0.00370798
0.0115369
0.00840003
1.13769e-09
0.00840003
6.34465e-09
0.00840003
2.07957e-08
0.00840004
5.15046e-08
0.00840007
1.24833e-07
0.00840011
2.70224e-07
0.00840024
6.20377e-07
0.00840045
1.28921e-06
0.00840122
2.99399e-06
0.00840162
6.09342e-06
0.00840829
1.52337e-05
0.00841011
2.96344e-05
0.0084745
8.45951e-05
0.0085474
0.000213215
0.00926267
0.000603297
0.0114514
0.00204046
0.0109709
0.00725221
0.0110112
0.00631157
0.0110085
0.00574923
0.0111023
0.00506598
0.0112415
0.00459563
0.0113837
0.00429474
0.0115155
0.00405487
0.0116365
0.00382545
0.00359489
0.0117478
0.00840003
9.65983e-10
0.00840003
5.3898e-09
0.00840003
1.73564e-08
0.00840004
4.37047e-08
0.00840005
1.04822e-07
0.00840007
2.33332e-07
0.00840011
5.27088e-07
0.00840018
1.15095e-06
0.00840039
2.53948e-06
0.00840051
5.65589e-06
0.00840277
1.18133e-05
0.00840098
2.95461e-05
0.00842431
5.64378e-05
0.00846392
0.000164792
0.00861787
0.000429201
0.00924319
0.0013679
0.0104401
0.00594527
0.0106924
0.00602015
0.0109102
0.00550457
0.0111143
0.00485775
0.0113027
0.00440525
0.011473
0.00411938
0.0116261
0.0038957
0.0117648
0.00368107
0.00346384
0.0118914
0.00840003
9.6683e-10
0.00840003
3.08691e-09
0.00840003
1.5832e-08
0.00840005
2.64441e-08
0.00840005
9.66421e-08
0.00840013
1.37102e-07
0.0084001
5.11034e-07
0.00840059
6.11227e-07
0.00840019
2.72308e-06
0.00840346
2.13174e-06
0.00839765
1.65052e-05
0.00842527
7.98868e-07
0.00837252
0.000103684
0.00853704
-4.9785e-06
0.00833886
0.000607519
0.00874312
0.000919988
0.009473
0.00507089
0.0100207
0.00545967
0.0105094
0.00501377
0.0108883
0.00448361
0.0111586
0.00413398
0.0113769
0.00389694
0.0115685
0.0036988
0.0117374
0.00350496
0.00330589
0.0118876
0.00840003
1.86911e-10
0.00840003
3.34387e-09
0.00840004
5.2832e-09
0.00840004
2.5883e-08
0.0084001
3.05833e-08
0.00840008
1.38546e-07
0.00840045
1.25434e-07
0.00840028
7.09273e-07
0.00840252
3.80313e-07
0.00840018
4.08862e-06
0.00841666
-3.49116e-07
0.00838683
2.83895e-05
0.00849644
-7.84535e-06
0.00828535
0.000195333
0.00877102
0.000106733
0.0085399
0.00111417
0.00948707
0.00393719
0.00990488
0.00507601
0.0103822
0.00456769
0.0106634
0.00421875
0.0109212
0.00388134
0.0111686
0.00364923
0.0114
0.00346569
0.011613
0.00329189
0.00311534
0.0118041
0.00840003
3.13827e-10
0.00840003
1.71732e-09
0.00840003
5.95027e-09
0.00840004
1.40215e-08
0.00840003
3.57183e-08
0.00840009
7.26371e-08
0.00840001
1.77086e-07
0.00840034
3.39497e-07
0.00839973
8.58267e-07
0.0084021
1.56561e-06
0.0083965
4.45042e-06
0.00841738
7.19237e-06
0.0083767
2.69896e-05
0.00852616
4.22552e-05
0.00841038
0.000196013
0.00903289
0.000429969
0.010781
0.00196551
0.0108309
0.00506177
0.0106421
0.00477674
0.0107094
0.00416482
0.0108613
0.00373584
0.0110598
0.00345327
0.0112753
0.00325131
0.0114874
0.00307959
0.0029158
0.0116852
0.00840003
2.91784e-10
0.00840003
1.62831e-09
0.00840003
5.32766e-09
0.00840003
1.31939e-08
0.00840003
3.18648e-08
0.00840002
6.9019e-08
0.00840002
1.57126e-07
0.0084
3.28221e-07
0.00839999
7.45244e-07
0.00839988
1.53372e-06
0.00840013
3.57335e-06
0.00839928
7.29095e-06
0.00840472
1.82228e-05
0.00840372
3.92513e-05
0.00847176
0.000114111
0.00860186
0.000280154
0.0092878
0.00120198
0.0100071
0.004273
0.0102056
0.00454374
0.0103693
0.00400529
0.0105661
0.00354102
0.0107992
0.00321834
0.0110354
0.00300911
0.0112583
0.00284939
0.00270363
0.0114646
0.00840003
2.9631e-10
0.00840003
1.64841e-09
0.00840003
5.40731e-09
0.00840003
1.34087e-08
0.00840002
3.26393e-08
0.00840001
7.10997e-08
0.00839998
1.63757e-07
0.00839993
3.45368e-07
0.00839976
7.9114e-07
0.0083995
1.64638e-06
0.00839873
3.71468e-06
0.00839687
8.35238e-06
0.00839543
1.66857e-05
0.008387
4.24584e-05
0.00839112
9.66948e-05
0.00841621
0.00025285
0.00858686
0.000960474
0.00902669
0.00369402
0.00956176
0.00393041
0.00979694
0.0037449
0.010109
0.00323982
0.0104219
0.00290552
0.0107053
0.00271682
0.0109553
0.00258696
0.00246895
0.0111773
0.00840003
3.18144e-10
0.00840003
1.76425e-09
0.00840003
5.65445e-09
0.00840003
1.43071e-08
0.00840002
3.4438e-08
0.00840001
7.77468e-08
0.00839997
1.75932e-07
0.00839989
3.93082e-07
0.0083997
8.46462e-07
0.0083992
1.99509e-06
0.00839854
3.66188e-06
0.00839567
1.01986e-05
0.00839405
1.52109e-05
0.00838605
4.48963e-05
0.00838223
8.61293e-05
0.00837911
0.000262608
0.00842662
0.000840339
0.00843406
0.00353604
0.00877439
0.00355991
0.00919161
0.00330821
0.00961272
0.00283122
0.00998684
0.00253463
0.0102975
0.00239729
0.0105619
0.0023093
0.00222224
0.0107977
0.00840003
3.69403e-10
0.00840003
1.07063e-09
0.00840003
5.93856e-09
0.00840003
9.24516e-09
0.00840003
3.67191e-08
0.00840005
4.84272e-08
0.0084
1.99875e-07
0.00840016
2.07899e-07
0.00839974
1.1381e-06
0.00840105
5.23736e-07
0.00839704
7.00325e-06
0.00840851
-2.08504e-06
0.00837698
4.3437e-05
0.00844433
-2.76604e-05
0.00827058
0.000247257
0.00852345
-1.17095e-05
0.00826673
0.00104617
0.00814548
0.00347697
0.00833932
0.00335487
0.00877134
0.00288545
0.00924464
0.00238426
0.00962049
0.00217756
0.0099216
0.00210874
0.0101834
0.00205792
0.00199282
0.0104226
0.00840003
4.20646e-11
0.00840003
1.20789e-09
0.00840003
1.5476e-09
0.00840003
9.2997e-09
0.00840006
8.70988e-09
0.00840005
5.06199e-08
0.0084002
3.07795e-08
0.00840008
2.78022e-07
0.00840115
-8.64487e-09
0.00839951
1.86167e-06
0.00840761
-1.40508e-06
0.00839014
1.34651e-05
0.0084461
-1.35666e-05
0.00832091
8.89844e-05
0.00862589
-6.93538e-05
0.00804491
0.000539436
0.00851149
0.000500079
0.00807161
0.00370145
0.0081303
0.00334295
0.00868098
0.00238836
0.00913346
0.00198311
0.00946271
0.00187922
0.00972444
0.00186679
0.0099663
0.00183291
0.00178575
0.0101897
0.00840003
9.39465e-11
0.00840003
5.35015e-10
0.00840003
1.79142e-09
0.00840003
4.38242e-09
0.00840003
1.05628e-08
0.00840005
2.18005e-08
0.00840002
5.02548e-08
0.00840018
9.26417e-08
0.00839982
2.54672e-07
0.00840129
3.08331e-07
0.0083975
1.74456e-06
0.00840918
1.39031e-06
0.00837934
1.22874e-05
0.00844787
1.64909e-05
0.00827121
8.68225e-05
0.00859761
0.000185601
0.00816331
0.000856965
0.00827665
0.00329004
0.00865044
0.00310089
0.00910451
0.00205303
0.00941567
0.00175462
0.0096551
0.00169055
0.00988065
0.00167791
0.0100837
0.00166151
0.00162935
0.0102693
0.00840003
1.89704e-10
0.00840003
3.12983e-10
0.00840003
2.85789e-09
0.00840003
2.94041e-09
0.00840002
1.77415e-08
0.00840002
1.53442e-08
0.00839996
9.82172e-08
0.00839996
6.73634e-08
0.00839962
5.48726e-07
0.00839968
1.82975e-07
0.00839775
3.45344e-06
0.00840101
-1.55367e-06
0.00838472
2.39825e-05
0.00842866
-2.44595e-05
0.00834285
0.000146863
0.0085554
-4.69044e-05
0.00868657
0.000619701
0.0097648
0.0018444
0.0101387
0.00292883
0.0100746
0.00226592
0.00998364
0.0019126
0.0100357
0.00168925
0.0101532
0.00160486
0.0102894
0.00156636
0.00152785
0.0104287
0.00840003
-4.48614e-12
0.00840003
7.15539e-10
0.00840003
4.45191e-10
0.00840003
5.44188e-09
0.00840004
2.57192e-09
0.00840002
3.06328e-08
0.00840011
7.67334e-09
0.00839997
1.70001e-07
0.00840051
-1.74139e-08
0.00839949
1.0488e-06
0.00840368
-9.27138e-07
0.00839335
7.92401e-06
0.00842779
-1.14529e-05
0.00834337
5.4859e-05
0.0085599
-7.64484e-05
0.00821827
0.000273899
0.0087576
3.32566e-05
0.00938474
0.001131
0.00969019
0.00258064
0.00959977
0.00236811
0.00971274
0.00184683
0.0098335
0.00161981
0.00996836
0.00150936
0.0101133
0.00145189
0.00140745
0.0102606
0.00840003
1.15837e-10
0.00840003
-1.67436e-11
0.00840003
1.65496e-09
0.00840003
2.08318e-10
0.00840003
1.01531e-08
0.00840005
-4.17436e-10
0.0084
5.65602e-08
0.00840018
-2.09801e-08
0.00839981
3.32234e-07
0.00840114
-3.30015e-07
0.0083976
2.46752e-06
0.00840998
-4.39365e-06
0.00837835
1.90669e-05
0.00846992
-3.63849e-05
0.00825668
0.000131834
0.00866646
-0.000143387
0.00832955
0.000352825
0.00906613
0.000322611
0.00947723
0.00207824
0.00954525
0.00228235
0.00952457
0.00191836
0.00963697
0.00156562
0.00979831
0.00139741
0.00996342
0.00132227
0.00127454
0.0101187
0.00840003
-5.73005e-11
0.00840003
3.47159e-10
0.00840003
-5.55862e-10
0.00840003
2.49506e-09
0.00840004
-3.58278e-09
0.00840002
1.42881e-08
0.0084001
-2.44042e-08
0.00839999
8.39973e-08
0.00840048
-1.75554e-07
0.0083995
5.95535e-07
0.00840348
-1.57296e-06
0.00839329
5.49129e-06
0.00842509
-1.29623e-05
0.00834132
4.57988e-05
0.0085569
-8.49148e-05
0.00817508
0.000232566
0.0086669
-0.00014825
0.00820838
0.000749333
0.00855242
0.00166555
0.00882118
0.00198741
0.00915781
0.00161974
0.0093758
0.0013955
0.00956966
0.00124209
0.00975399
0.00116239
0.00111559
0.00992674
0.00840003
7.48026e-11
0.00840003
-2.37032e-10
0.00840003
8.78029e-10
0.00840003
-1.5978e-09
0.00840002
5.59781e-09
0.00840005
-9.12589e-09
0.00839998
3.52136e-08
0.00840012
-5.51502e-08
0.00839968
2.33375e-07
0.00840067
-4.2204e-07
0.00839706
1.88336e-06
0.00840667
-4.29145e-06
0.00837819
1.50386e-05
0.00845897
-3.56995e-05
0.00826447
0.000108017
0.0086601
-0.000168553
0.00809426
0.000415424
0.00881356
1.07549e-05
0.00893969
0.0014955
0.00912317
0.00177997
0.00917438
0.00159466
0.00935309
0.00124947
0.00953529
0.00108235
0.00970708
0.00100286
0.000958016
0.00987017
0.00840003
-1.11636e-10
0.00840003
2.27089e-11
0.00840003
-1.48995e-09
0.00840003
-1.26535e-10
0.00840004
-9.31661e-09
0.00840003
-4.63855e-10
0.00840012
-5.4194e-08
0.00840005
4.27266e-09
0.00840059
-3.20799e-07
0.00839994
1.59107e-07
0.00840381
-2.10312e-06
0.00839649
2.7025e-06
0.0084246
-1.34885e-05
0.00835739
3.09487e-05
0.00854131
-7.61966e-05
0.00817771
0.000195747
0.00872774
-0.000146658
0.00808574
0.000651635
0.00818093
0.0013807
0.00844018
0.0015055
0.00885129
0.0011906
0.00910757
0.00100304
0.00931905
0.000877959
0.00950831
0.000814667
0.000778922
0.00968429
0.00840003
-2.93455e-11
0.00840003
-1.75729e-10
0.00840003
-4.78657e-10
0.00840003
-1.3857e-09
0.00840002
-2.76765e-09
0.00840003
-7.26735e-09
0.00839999
-1.29385e-08
0.00840002
-3.5127e-08
0.00839975
-5.4069e-08
0.00840007
-1.62884e-07
0.00839812
-1.56078e-07
0.00840165
-8.00716e-07
0.00838761
5.24393e-07
0.00842228
-3.49396e-06
0.00833264
1.19616e-05
0.00852648
2.07403e-06
0.00825485
0.000119396
0.00865441
0.000253073
0.00872796
0.00129075
0.00899222
0.00122559
0.00910087
0.00107086
0.00927091
0.000822535
0.00943075
0.000709382
0.00957887
0.000657153
0.000627914
0.00972057
0.00840003
-2.83728e-12
0.00840003
-2.08749e-11
0.00840003
-5.8375e-11
0.00840003
-1.45213e-10
0.00840003
-1.82465e-10
0.00840002
-2.52382e-10
0.0084
6.33527e-10
0.00839997
2.30246e-09
0.0083999
1.24534e-08
0.00839971
3.07836e-08
0.00839948
1.12448e-07
0.00839845
2.63921e-07
0.00839827
8.38507e-07
0.00839303
2.06287e-06
0.00839934
5.924e-06
0.00838347
1.88086e-05
0.00844329
5.94388e-05
0.00850311
0.000198772
0.00881943
0.000975034
0.00905405
0.000981579
0.00923874
0.000862956
0.00934843
0.000680325
0.00945601
0.000570067
0.00957059
0.000516764
0.000491881
0.00968796
0.00840003
1.41312e-11
0.00840003
7.75023e-11
0.00840003
2.64204e-10
0.00840003
6.70492e-10
0.00840003
1.73054e-09
0.00840002
3.94961e-09
0.00840002
9.65275e-09
0.0084
2.13186e-08
0.00839997
5.08267e-08
0.00839991
1.09189e-07
0.00839982
2.57155e-07
0.00839963
5.28333e-07
0.00839941
1.31205e-06
0.00839951
2.44138e-06
0.0083992
7.15002e-06
0.00840584
1.39965e-05
0.00841754
5.04186e-05
0.0084854
0.000139938
0.00877955
0.000701102
0.00902577
0.000726857
0.00920159
0.000663291
0.00929887
0.000537939
0.00937155
0.000446353
0.0094533
0.00039523
0.000370903
0.00954618
0.00840003
3.81044e-11
0.00840003
2.15477e-10
0.00840003
6.38466e-10
0.00840003
1.78065e-09
0.00840003
4.08928e-09
0.00840002
1.03981e-08
0.00840001
2.25367e-08
0.00839998
5.69131e-08
0.00839994
1.16706e-07
0.00839977
3.00118e-07
0.00839958
5.31432e-07
0.00839859
1.6283e-06
0.0083986
1.66549e-06
0.00839332
8.38634e-06
0.00840023
1.46272e-06
0.00838417
3.28085e-05
0.00844437
-5.31377e-06
0.00848805
0.000105032
0.0088446
0.000381333
0.00907425
0.000494952
0.0092163
0.000496015
0.00927918
0.000417651
0.00931937
0.000341893
0.00936155
0.000296164
0.000276158
0.00941409
0.00840003
1.05857e-10
0.00840003
-1.14087e-12
0.00840003
1.44724e-09
0.00840003
3.81022e-10
0.00840003
9.39301e-09
0.00840004
2.98078e-09
0.00840001
5.72506e-08
0.00840006
1.41131e-08
0.00839985
3.5215e-07
0.00840023
-5.68726e-08
0.00839854
2.32705e-06
0.00840226
-1.97026e-06
0.0083904
1.39336e-05
0.00842305
-2.34492e-05
0.00833421
9.18013e-05
0.00857308
-0.00020228
0.00824299
0.000330791
0.00862976
-0.000274624
0.00887216
0.00019126
0.00905141
0.000320471
0.00919499
0.000339094
0.00925195
0.000300784
0.00927879
0.000239033
0.00930113
0.000205143
0.000194332
0.00931181
0.00840003
-8.48125e-11
0.00840003
1.2057e-10
0.00840003
-1.04749e-09
0.00840003
6.27945e-10
0.00840005
-6.93338e-09
0.00840005
2.45078e-09
0.00840016
-4.4933e-08
0.00840017
1.20481e-08
0.00840082
-2.94764e-07
0.0084006
1.76267e-07
0.00840504
-2.07977e-06
0.00840055
2.48693e-06
0.00842811
-1.31873e-05
0.00837922
2.56975e-05
0.00855764
-8.5625e-05
0.00814131
0.000216055
0.00877009
-0.000287163
0.00811806
0.00038184
0.00812175
0.000229028
0.00828252
0.000142618
0.00850455
0.000110132
0.00868281
7.54758e-05
0.00878405
6.95338e-05
0.0088667
6.13677e-05
5.18521e-05
0.00893419
0.00840003
0.00840003
0.00840003
0.00840003
0.00840003
0.00840003
0.00839999
0.00840002
0.00839976
0.00839998
0.00839805
0.00840072
0.0083881
0.00841501
0.00833113
0.00855258
0.00827234
0.00865986
0.00894891
0.00909275
0.00918172
0.00917086
0.00915296
0.00911466
0.00907155
0.00518414
0.00366835
0.00305672
0.00211901
0.00136568
0.00168104
-0.000520107
0.00188756
-0.0010763
0.00056136
-0.00166393
0.000591644
-0.00206983
0.000410074
-0.00233483
0.000270873
-0.00246655
0.000138862
-0.00252024
6.1221e-05
-0.00253314
2.06055e-05
-0.0025365
1.07599e-05
-0.00254633
1.71405e-05
-0.00255749
1.82072e-05
-0.00257391
2.24785e-05
-0.00258658
1.81201e-05
-0.00258164
-2.00099e-07
-0.00256161
-1.60848e-05
-0.00253148
-2.73527e-05
-0.00249425
-3.52449e-05
-0.00244947
-4.31955e-05
-0.00239643
-5.25649e-05
-0.0023329
-6.34124e-05
-0.0022588
-7.47231e-05
-0.002173
-8.67358e-05
-0.00207669
-9.75581e-05
-0.0019706
-0.000108029
-0.00185358
-0.000119257
-0.00172366
-0.000132657
-0.00158186
-0.000144809
-0.00143056
-0.000154619
-0.00127072
-0.000163146
-0.00110493
-0.000169093
-0.000932845
-0.000175336
-0.000754901
-0.000180783
-0.000571715
-0.000185664
-0.000382946
-0.000190872
-0.000190321
-0.000194514
1.2929e-05
-0.000204986
0.000224956
-0.000213809
0.000437602
-0.000214192
0.000645536
-0.000209324
0.000847754
-0.000203277
0.0010466
-0.000199628
0.00124055
-0.000194734
0.00143113
-0.000191495
0.00161583
-0.000185526
0.00179522
-0.00018032
0.00197043
-0.00017561
0.00214693
-0.000176294
0.00232051
-0.00017311
0.0024904
-0.000168887
0.00265308
-0.000161482
0.00281069
-0.00015598
0.00296156
-0.000149202
0.00310809
-0.000143699
0.00324871
-0.000137449
0.00338387
-0.000131662
0.00351339
-0.000125534
0.00363732
-0.000119735
0.00375561
-0.000113718
0.00386894
-0.000108086
0.00397631
-0.000102383
0.00407862
-9.69194e-05
0.00417575
-9.15938e-05
0.00426752
-8.64619e-05
0.00435402
-8.14967e-05
0.00443529
-7.67837e-05
0.00451132
-7.22505e-05
0.00458244
-6.79809e-05
0.00464833
-6.39185e-05
0.00470917
-6.00762e-05