/*--------------------------------*- C++ -*----------------------------------*\
  =========                 |
  \\      /  F ield         | OpenFOAM: The Open Source CFD Toolbox
   \\    /   O peration     | Website:  https://openfoam.org
    \\  /    A nd           | Version:  6
     \\/     M anipulation  |
\*---------------------------------------------------------------------------*/
FoamFile
{
    version     2.0;
    format      ascii;
    class       volScalarField;
    location    "8.5";
    object      T;
}
// * * * * * * * * * * * * * * * * * * * * * * * * * * * * * * * * * * * * * //

dimensions      [0 0 0 1 0 0 0];

internalField   nonuniform List<scalar> 
5250
(
1.00012
1.00028
1.00088
1.00174
1.00497
1.01003
1.02644
1.0605
1.14381
1.37063
2.10789
2.66975
2.83511
2.93496
2.88822
2.76946
2.74141
2.74698
2.75822
2.75966
2.75715
2.75353
2.75095
2.74966
2.74924
1.00012
1.00028
1.00087
1.00173
1.00494
1.00998
1.02631
1.06023
1.14325
1.36935
2.10596
2.66627
2.83869
2.93427
2.88343
2.76414
2.73916
2.74559
2.75639
2.75729
2.75479
2.75135
2.74855
2.74689
2.74751
1.00012
1.00027
1.00086
1.0017
1.00488
1.00986
1.02605
1.05962
1.14212
1.36618
2.10067
2.65846
2.84505
2.93203
2.8768
2.75688
2.73529
2.74327
2.75323
2.75453
2.75253
2.74933
2.74673
2.74514
2.74396
1.00011
1.00027
1.00084
1.00166
1.00479
1.00965
1.02563
1.05856
1.14031
1.36073
2.08981
2.6468
2.85455
2.92823
2.86785
2.74842
2.72995
2.73992
2.74859
2.74938
2.74802
2.74625
2.74325
2.74073
2.74077
1.00011
1.00026
1.00081
1.0016
1.00464
1.00935
1.02501
1.05699
1.13748
1.35283
2.07187
2.63214
2.86629
2.92685
2.85922
2.74047
2.72284
2.7343
2.74274
2.74304
2.74201
2.7396
2.73864
2.73561
2.73342
1.0001
1.00024
1.00077
1.00152
1.00445
1.00894
1.02414
1.05486
1.13318
1.34209
2.04673
2.61193
2.88094
2.92506
2.84936
2.73132
2.71528
2.72624
2.73438
2.73423
2.73257
2.73173
2.72845
2.72783
2.72599
1.00009
1.00022
1.00071
1.00142
1.00418
1.0084
1.02302
1.05198
1.12799
1.32753
2.01138
2.58081
2.89947
2.9209
2.83857
2.72006
2.70694
2.71914
2.72117
2.72322
2.72147
2.71886
2.71802
2.71278
2.71048
1.00008
1.0002
1.00065
1.00129
1.00383
1.00774
1.02134
1.0486
1.12026
1.30942
1.95403
2.53702
2.92466
2.91392
2.82813
2.70553
2.69697
2.70785
2.70799
2.70801
2.70676
2.7041
2.6998
2.69573
2.68804
1.00007
1.00018
1.00057
1.00115
1.00341
1.00693
1.01919
1.04419
1.10844
1.28796
1.85025
2.48897
2.95857
2.89976
2.8147
2.68964
2.68534
2.69588
2.69476
2.69365
2.68888
2.68406
2.67451
2.65934
2.64286
1.00007
1.00016
1.0005
1.001
1.00296
1.00602
1.01679
1.03845
1.09576
1.25563
1.71839
2.41514
2.99301
2.88679
2.79753
2.67609
2.67192
2.68357
2.68208
2.67807
2.66799
2.65953
2.64238
2.6115
2.546
1.00006
1.00014
1.00043
1.00087
1.00253
1.00514
1.01421
1.03254
1.08089
1.21668
1.58452
2.28244
3.00566
2.86853
2.77287
2.66873
2.66116
2.67174
2.67099
2.66391
2.64772
2.62569
2.59393
2.53319
2.40511
1.00005
1.00012
1.00038
1.00076
1.00222
1.00438
1.01215
1.02679
1.06654
1.17533
1.45535
2.0727
2.97522
2.84786
2.76367
2.6803
2.64887
2.65294
2.65267
2.64707
2.63093
2.59787
2.54993
2.48013
2.35673
1.00005
1.00011
1.00035
1.00069
1.002
1.00387
1.01083
1.02289
1.05744
1.14471
1.35844
1.87552
2.82987
2.80955
2.76435
2.69325
2.64715
2.63738
2.63179
2.61883
2.60152
2.57451
2.51748
2.46308
2.36353
1.00004
1.0001
1.00032
1.00063
1.00181
1.00349
1.00979
1.02035
1.05112
1.12761
1.30659
1.79446
2.72515
2.80373
2.76541
2.69169
2.64647
2.62987
2.62174
2.60169
2.57387
2.5492
2.49908
2.45485
2.38413
1.00004
1.00009
1.00029
1.00057
1.00164
1.00314
1.00885
1.01814
1.0459
1.11325
1.26774
1.71645
2.61711
2.76933
2.72251
2.68408
2.64115
2.62283
2.6111
2.59419
2.55936
2.5348
2.48522
2.45078
2.38968
1.00004
1.00008
1.00026
1.0005
1.00146
1.00278
1.00789
1.01594
1.04083
1.09937
1.23215
1.63548
2.48719
2.70899
2.69713
2.6729
2.63577
2.61329
2.59819
2.58518
2.55557
2.53327
2.48648
2.45533
2.40472
1.00003
1.00007
1.00022
1.00043
1.00126
1.00239
1.00683
1.01359
1.03506
1.08578
1.19175
1.55342
2.34874
2.63954
2.67854
2.66065
2.63335
2.60726
2.58601
2.57346
2.54627
2.52881
2.49111
2.45746
2.4232
1.00003
1.00006
1.00019
1.00037
1.00106
1.00201
1.00575
1.01133
1.02962
1.07033
1.15781
1.44772
2.14365
2.56345
2.66764
2.64878
2.6256
2.60184
2.58014
2.56779
2.54344
2.52151
2.49689
2.46292
2.43387
1.00002
1.00005
1.00016
1.0003
1.00088
1.00165
1.00474
1.00913
1.02482
1.05371
1.13136
1.32858
1.90831
2.44924
2.62909
2.61291
2.60163
2.58852
2.57191
2.56244
2.5442
2.5205
2.49942
2.47225
2.44432
1.00002
1.00004
1.00013
1.00025
1.00073
1.00137
1.00394
1.00754
1.02069
1.04425
1.10892
1.27154
1.74086
2.40413
2.62209
2.60331
2.58794
2.57067
2.56087
2.55085
2.54115
2.52211
2.5026
2.48122
2.4566
1.00001
1.00003
1.00011
1.00021
1.0006
1.00112
1.00324
1.00617
1.01701
1.03681
1.08686
1.23485
1.56079
2.3032
2.58845
2.60393
2.58631
2.57062
2.55747
2.54647
2.5367
2.52312
2.50596
2.48748
2.46647
1.00001
1.00003
1.00009
1.00017
1.00048
1.0009
1.00262
1.00496
1.01368
1.02949
1.06998
1.19098
1.43502
2.11286
2.52377
2.60747
2.59371
2.58228
2.56394
2.5505
2.53898
2.52705
2.51142
2.4937
2.47514
1.00001
1.00002
1.00007
1.00013
1.00038
1.00071
1.00207
1.00386
1.01097
1.02247
1.05532
1.14225
1.324
1.86814
2.39447
2.57406
2.57274
2.56845
2.55982
2.54895
2.53889
2.52811
2.51476
2.4985
2.48182
1.00001
1.00002
1.00005
1.0001
1.0003
1.00056
1.00166
1.00305
1.00889
1.01731
1.0459
1.10655
1.25674
1.6459
2.38299
2.56749
2.57291
2.56181
2.55052
2.54085
2.53359
2.52406
2.51267
2.49851
2.48397
1.00001
1.00001
1.00004
1.00008
1.00024
1.00044
1.00129
1.0024
1.00683
1.01384
1.03484
1.08979
1.19679
1.56537
2.32503
2.55294
2.58924
2.57097
2.55883
2.5435
2.53264
2.52214
2.51098
2.498
2.48466
1
1.00001
1.00003
1.00008
1.00015
1.00043
1.00081
1.00232
1.00454
1.01172
1.02774
1.06343
1.18085
1.3985
2.05359
2.50671
2.62031
2.60719
2.58276
2.55623
2.53735
2.52457
2.51279
2.49985
2.48671
1
1.00001
1.00002
1.00006
1.00012
1.00036
1.00066
1.00195
1.00358
1.01036
1.02077
1.05291
1.13018
1.30891
1.73771
2.41874
2.59803
2.60735
2.59418
2.56676
2.54177
2.52523
2.51223
2.49966
2.48723
1
1.00001
1.00002
1.00005
1.0001
1.00029
1.00054
1.00162
1.00293
1.00873
1.01673
1.04514
1.105
1.25244
1.6508
2.42644
2.617
2.62556
2.60677
2.58744
2.55997
2.53836
2.52153
2.50731
2.49349
1
1.00001
1.00001
1.00004
1.00008
1.00023
1.00043
1.00128
1.00239
1.00672
1.014
1.03495
1.09272
1.20402
1.58872
2.37796
2.61119
2.66262
2.633
2.60555
2.5704
2.54725
2.5309
2.518
2.5064
1
1
1.00001
1.00003
1.00008
1.00015
1.00043
1.00083
1.00225
1.0048
1.0115
1.03064
1.06768
1.20033
1.452
2.11488
2.57912
2.70242
2.67258
2.64222
2.59724
2.5676
2.54919
2.53386
2.51937
1
1
1.00001
1.00003
1.00006
1.00017
1.00031
1.00092
1.0017
1.00499
1.00971
1.02624
1.0604
1.1439
1.38193
2.02519
2.51953
2.69941
2.66754
2.64411
2.60296
2.57881
2.56346
2.54983
2.5358
1
1
1.00001
1.00003
1.00005
1.00015
1.00028
1.00084
1.00151
1.00459
1.00852
1.02421
1.05184
1.1288
1.32678
1.91762
2.50839
2.71061
2.66592
2.64779
2.6117
2.58997
2.57776
2.56746
2.55578
1
1
1.00001
1.00002
1.00005
1.00014
1.00025
1.00076
1.00136
1.00415
1.00765
1.02202
1.04682
1.1171
1.29855
1.83877
2.48716
2.7258
2.68362
2.66589
2.62537
2.59983
2.58582
2.5752
2.56482
1
1
1.00001
1.00002
1.00004
1.00012
1.00022
1.00066
1.00119
1.00363
1.00682
1.01878
1.04325
1.10219
1.28335
1.71755
2.45614
2.71881
2.71637
2.69155
2.65528
2.62406
2.60494
2.59201
2.58077
1
1
1.00001
1.00002
1.00003
1.0001
1.00018
1.00054
1.00102
1.00281
1.00607
1.01489
1.04054
1.09001
1.26554
1.64424
2.38763
2.69696
2.73187
2.70839
2.68174
2.64949
2.62722
2.61191
2.59923
1
1
1.00001
1.00001
1.00003
1.00006
1.00018
1.00036
1.00092
1.00216
1.00494
1.01384
1.03012
1.09291
1.1951
1.61998
2.44011
2.69088
2.73856
2.71379
2.67973
2.64384
2.62311
2.6106
2.60071
1
1
1
1.00001
1.00003
1.00007
1.00014
1.0004
1.00077
1.00203
1.0047
1.01101
1.03139
1.06949
1.21399
1.48088
2.20447
2.69403
2.76432
2.73586
2.68835
2.64158
2.61688
2.60534
2.59717
1
1
1
1.00001
1.00002
1.00007
1.00013
1.00039
1.0007
1.00213
1.0041
1.01078
1.02664
1.06117
1.18059
1.40621
2.0142
2.66497
2.77327
2.73665
2.69171
2.64479
2.62163
2.61117
2.6025
1
1
1
1.00001
1.00003
1.00005
1.00014
1.00026
1.00077
1.00151
1.00393
1.00932
1.02212
1.06257
1.14005
1.39762
2.06764
2.61187
2.76839
2.73789
2.69323
2.64579
2.62432
2.617
2.61241
1
1
1
1.00001
1.00002
1.00006
1.00011
1.00031
1.00059
1.0016
1.00347
1.00844
1.02252
1.05152
1.14913
1.34525
1.83941
2.68079
2.78395
2.7461
2.70638
2.65576
2.63033
2.61959
2.61327
1
1
1
1.00001
1.00002
1.00004
1.00012
1.00023
1.00066
1.00135
1.00341
1.00843
1.01958
1.05633
1.1247
1.35837
1.95562
2.59359
2.76896
2.73357
2.70643
2.65799
2.63143
2.6199
2.61358
1
1
1
1.00001
1.00002
1.00005
1.0001
1.00029
1.00055
1.00159
1.00319
1.00834
1.0201
1.04841
1.13473
1.31412
1.7962
2.67111
2.77426
2.73487
2.71234
2.66581
2.63942
2.62767
2.62067
1
1
1
1.00001
1.00002
1.00004
1.00012
1.00023
1.00064
1.00129
1.00327
1.00796
1.01853
1.05275
1.11612
1.33572
1.88635
2.55866
2.75551
2.72573
2.70742
2.66809
2.64281
2.63162
2.62583
1
1
1
1.00001
1.00002
1.00006
1.0001
1.00031
1.00056
1.00172
1.00315
1.00925
1.01874
1.0492
1.12267
1.29714
1.75056
2.63509
2.74261
2.72059
2.70156
2.66371
2.63997
2.63021
2.62575
1
1
1
1.00001
1.00002
1.00006
1.00011
1.00032
1.00057
1.00178
1.00315
1.00965
1.01826
1.04989
1.11645
1.28715
1.71742
2.61155
2.72988
2.72142
2.69411
2.65992
2.63941
2.63291
2.63084
1
1
1
1.00001
1.00002
1.00006
1.00011
1.00032
1.00057
1.00176
1.0031
1.00948
1.01791
1.04886
1.11416
1.27887
1.70586
2.59924
2.72289
2.71793
2.68967
2.65739
2.64002
2.63899
2.64025
1
1
1
1.00001
1.00002
1.00006
1.0001
1.00031
1.00056
1.00173
1.00304
1.00933
1.01758
1.04809
1.11219
1.27369
1.69535
2.58427
2.71542
2.71049
2.68118
2.65108
2.63888
2.64126
2.64839
1
1
1
1.00001
1.00002
1.00005
1.0001
1.00029
1.00053
1.00161
1.00294
1.00855
1.01734
1.04528
1.11448
1.26922
1.70522
2.59068
2.71513
2.70936
2.67734
2.64278
2.63725
2.64167
2.65509
1
1
1
1.00001
1.00002
1.00004
1.00011
1.00021
1.00056
1.00118
1.0028
1.00729
1.01593
1.04684
1.09906
1.30313
1.75793
2.48354
2.71966
2.71759
2.68916
2.6496
2.64054
2.644
2.65745
1
1
1
1.00001
1.00002
1.00005
1.0001
1.00029
1.00052
1.00158
1.00289
1.00841
1.01713
1.04473
1.11347
1.26658
1.69868
2.57717
2.7076
2.70258
2.66787
2.64197
2.64097
2.64924
2.67281
2.33235
2.34417
2.61209
2.88795
3.1453
3.1169
3.10881
3.07448
3.06274
3.05722
3.05618
3.05616
3.05604
3.05423
3.05261
3.05161
3.05211
3.05326
3.05533
3.05645
3.05966
3.06263
3.06578
3.07033
3.07366
3.07882
3.08248
3.08654
3.09008
3.09247
3.09404
3.09455
3.09434
3.09187
3.08869
3.08626
3.08446
3.08219
3.07907
3.0739
3.07028
3.06286
3.05845
3.0493
3.04332
3.03384
3.02759
3.0175
3.01122
2.99925
2.99111
2.97851
2.96977
2.95743
2.94834
2.93651
2.92565
2.91382
2.90299
2.89088
2.88017
2.86788
2.85647
2.84476
2.83283
2.82082
2.80896
2.79689
2.785
2.77287
2.76057
2.74842
2.73592
2.72386
2.71141
2.69933
2.68713
2.675
2.66293
2.65126
2.63921
2.62835
2.61686
2.6066
2.59641
2.58696
2.5784
2.57048
2.56416
2.55869
2.55549
2.55399
2.55378
2.55414
2.55492
2.55786
2.56531
2.57021
2.58023
2.57858
2.28054
2.29371
2.44588
2.66218
2.81531
2.97907
3.0895
3.16027
3.19013
3.27401
3.35771
3.32044
3.30765
3.30286
3.30093
3.30134
3.30288
3.30304
3.30232
3.29766
3.29299
3.28694
3.27839
3.2699
3.26191
3.25167
3.24058
3.22648
3.21387
3.19987
3.18327
3.16683
3.14898
3.13232
3.1144
3.09446
3.07897
3.05891
3.04241
3.02273
3.00569
2.9867
2.96849
2.95084
2.93232
2.9152
2.89641
2.88125
2.86354
2.84941
2.83007
2.81557
2.79789
2.78397
2.76767
2.75347
2.73824
2.72447
2.7104
2.69702
2.68359
2.67034
2.6573
2.64455
2.63167
2.61957
2.60695
2.59531
2.58306
2.57147
2.55973
2.5479
2.53663
2.5248
2.51374
2.50243
2.49158
2.4812
2.47079
2.46151
2.45184
2.4435
2.43496
2.42727
2.42003
2.4131
2.40716
2.4015
2.39695
2.39363
2.39124
2.39106
2.39131
2.39184
2.39258
2.39514
2.40094
2.40537
2.4126
2.40911
2.30775
2.29713
2.34688
2.4227
2.48
2.56006
2.64961
2.74705
2.83107
2.90662
2.98576
3.05014
3.10211
3.13711
3.16004
3.17642
3.19066
3.20641
3.22108
3.23072
3.22922
3.22331
3.21012
3.1933
3.17321
3.15236
3.12835
3.10553
3.08096
3.05649
3.0278
3.00061
2.97011
2.94332
2.91314
2.88695
2.85856
2.8343
2.80849
2.78595
2.76314
2.74281
2.72291
2.70411
2.68605
2.6683
2.65195
2.63587
2.62091
2.60595
2.59071
2.57537
2.56044
2.54605
2.53193
2.51804
2.50444
2.49111
2.47823
2.46577
2.45392
2.44243
2.43125
2.42031
2.40934
2.39875
2.38796
2.37766
2.36728
2.35707
2.34725
2.3369
2.32737
2.31698
2.30727
2.29713
2.28718
2.27739
2.26766
2.25841
2.24926
2.24102
2.23277
2.22567
2.21903
2.21284
2.20826
2.20346
2.20087
2.19844
2.19864
2.19967
2.20193
2.20463
2.20767
2.21199
2.2213
2.22673
2.23811
2.23885
2.33515
2.302
2.29998
2.32108
2.34326
2.37142
2.40338
2.44474
2.48744
2.5332
2.57565
2.61459
2.64685
2.67146
2.69209
2.70431
2.71374
2.71681
2.71632
2.71458
2.71108
2.7044
2.69536
2.68573
2.67445
2.66332
2.65124
2.63946
2.62728
2.61555
2.60317
2.59167
2.5794
2.56805
2.55662
2.54591
2.53544
2.52556
2.51616
2.50732
2.49901
2.49102
2.48349
2.47578
2.46848
2.46074
2.45344
2.44596
2.4392
2.43193
2.42443
2.41613
2.40812
2.40006
2.39217
2.3842
2.37621
2.36816
2.3601
2.35197
2.34393
2.33572
2.32764
2.31938
2.31112
2.3029
2.2943
2.28607
2.27717
2.26882
2.25994
2.25139
2.24273
2.23401
2.22555
2.21681
2.2085
2.1998
2.19171
2.18309
2.17531
2.16697
2.1597
2.15198
2.14537
2.13871
2.13302
2.12815
2.12387
2.1213
2.11969
2.1199
2.12043
2.12164
2.12292
2.12588
2.13215
2.13639
2.14538
2.14524
2.35566
2.31218
2.29405
2.28696
2.28777
2.29343
2.30316
2.31777
2.33564
2.35618
2.37557
2.39347
2.40702
2.41869
2.42604
2.43266
2.43644
2.43914
2.43903
2.43845
2.43711
2.43552
2.43247
2.42918
2.42487
2.42148
2.41736
2.41436
2.41097
2.40848
2.40607
2.40402
2.40217
2.40044
2.39898
2.39746
2.39607
2.39458
2.39295
2.39128
2.38936
2.3873
2.38495
2.38212
2.37897
2.37517
2.37122
2.36687
2.36289
2.35828
2.35332
2.34737
2.34139
2.33537
2.32925
2.32321
2.31681
2.31046
2.3038
2.29699
2.29025
2.28299
2.27616
2.2685
2.2614
2.25347
2.24597
2.23792
2.22996
2.2219
2.21361
2.20564
2.19726
2.18931
2.18102
2.17292
2.16488
2.15663
2.1489
2.14069
2.13316
2.12522
2.118
2.11074
2.10417
2.09829
2.09278
2.08855
2.085
2.08251
2.0822
2.08269
2.08375
2.08514
2.08724
2.09066
2.09753
2.10209
2.11079
2.11149
2.36179
2.3344
2.30337
2.28529
2.27376
2.26729
2.26393
2.26368
2.26707
2.27212
2.27796
2.28343
2.28795
2.29099
2.29291
2.29393
2.29468
2.29507
2.29506
2.29454
2.29351
2.29394
2.29459
2.29482
2.29531
2.29575
2.29686
2.29773
2.29949
2.30072
2.3029
2.30431
2.30661
2.30783
2.31001
2.31085
2.31241
2.31298
2.31346
2.31361
2.31349
2.31313
2.31239
2.31115
2.30959
2.30736
2.30479
2.30191
2.29906
2.29577
2.29189
2.28704
2.28188
2.27636
2.27076
2.26471
2.25861
2.25193
2.24534
2.23815
2.23115
2.22371
2.21627
2.20871
2.20089
2.19322
2.18529
2.17749
2.16969
2.16175
2.15404
2.1461
2.13832
2.13058
2.12265
2.11514
2.10708
2.09974
2.09175
2.08466
2.07692
2.07025
2.0629
2.05678
2.05015
2.04474
2.03931
2.03504
2.03136
2.02885
2.02795
2.02812
2.02866
2.02927
2.03093
2.0345
2.03975
2.04463
2.05183
2.05286
2.38014
2.34743
2.32
2.30005
2.27931
2.26496
2.25358
2.24528
2.23925
2.23505
2.23243
2.2303
2.22834
2.22618
2.22355
2.22097
2.21831
2.21626
2.21501
2.21432
2.21343
2.21271
2.21285
2.21381
2.21526
2.21688
2.21878
2.22099
2.2233
2.22601
2.22864
2.23169
2.23444
2.23744
2.23998
2.24242
2.24448
2.24612
2.24746
2.2484
2.24894
2.24922
2.24905
2.24837
2.24741
2.24567
2.24364
2.24112
2.23875
2.23587
2.23254
2.22827
2.22368
2.21868
2.21351
2.20825
2.20262
2.19702
2.19087
2.18481
2.17827
2.17179
2.16503
2.15813
2.15122
2.14393
2.13689
2.12932
2.12212
2.11443
2.10705
2.09937
2.09183
2.08419
2.07652
2.06894
2.06128
2.0538
2.04618
2.03899
2.03154
2.02485
2.01781
2.01171
2.00556
2.00015
1.99543
1.99118
1.98834
1.98603
1.98593
1.98622
1.98709
1.9879
1.99028
1.99451
1.99987
2.00534
2.01205
2.01422
2.39986
2.36808
2.34002
2.31511
2.29599
2.27836
2.26258
2.24725
2.23545
2.22514
2.21696
2.20953
2.20306
2.19698
2.19105
2.18576
2.18042
2.17646
2.17273
2.17082
2.16884
2.16795
2.16672
2.16642
2.16692
2.16838
2.17006
2.17228
2.17466
2.17748
2.18046
2.18384
2.18715
2.19063
2.19382
2.19693
2.1997
2.20218
2.20439
2.20621
2.20775
2.20892
2.20961
2.21006
2.20991
2.20914
2.2081
2.20649
2.20506
2.20315
2.20069
2.19757
2.19381
2.18986
2.18526
2.18082
2.17561
2.17071
2.16494
2.15952
2.1533
2.14737
2.14086
2.13444
2.12777
2.12087
2.11413
2.10684
2.10005
2.09251
2.08562
2.07801
2.07096
2.06345
2.05629
2.04895
2.0417
2.03452
2.0273
2.02033
2.01342
2.00668
2.00047
1.99407
1.98886
1.98325
1.97919
1.97498
1.97251
1.97049
1.97045
1.9707
1.97141
1.97253
1.97573
1.97973
1.98504
1.99013
1.99652
1.99872
2.41596
2.38612
2.3598
2.33367
2.3121
2.29129
2.27418
2.2586
2.24461
2.23109
2.21857
2.20766
2.19768
2.1889
2.1804
2.17297
2.16576
2.15973
2.15422
2.15018
2.14665
2.14412
2.14213
2.14089
2.13996
2.13953
2.14021
2.14188
2.14388
2.14632
2.14892
2.15192
2.15495
2.15829
2.16142
2.16468
2.16753
2.17036
2.17267
2.17479
2.17639
2.17776
2.17858
2.17917
2.17916
2.17885
2.17786
2.17675
2.17534
2.17392
2.17156
2.16887
2.1654
2.16162
2.15742
2.15283
2.1481
2.14295
2.13781
2.13217
2.12654
2.12047
2.11436
2.10798
2.10145
2.09486
2.088
2.08124
2.0741
2.06719
2.05987
2.05284
2.04549
2.03841
2.03107
2.02401
2.01673
2.0098
2.00273
1.99601
1.98939
1.98298
1.9771
1.97126
1.96635
1.96163
1.95786
1.95491
1.95273
1.95216
1.95242
1.95311
1.95391
1.95551
1.95934
1.96273
1.96794
1.97121
1.97703
1.97725
2.43174
2.40509
2.37974
2.35482
2.33175
2.31034
2.29033
2.2724
2.25549
2.24074
2.22743
2.21525
2.20368
2.19322
2.18299
2.17386
2.16506
2.15723
2.15017
2.14416
2.13907
2.13479
2.13122
2.1281
2.12602
2.12431
2.12379
2.12309
2.12375
2.12532
2.12715
2.12961
2.13216
2.13527
2.13818
2.14142
2.14434
2.1473
2.14978
2.15212
2.15391
2.15552
2.15652
2.15738
2.15755
2.15753
2.1569
2.15582
2.15499
2.15356
2.15196
2.1494
2.14667
2.1431
2.13941
2.13505
2.13056
2.12567
2.12059
2.11526
2.1096
2.10384
2.09766
2.09159
2.08505
2.07877
2.07198
2.06549
2.05849
2.05181
2.04471
2.03791
2.03075
2.02386
2.01676
2.00978
2.00289
1.99588
1.98932
1.98248
1.9763
1.96997
1.96422
1.9588
1.95381
1.94972
1.94597
1.94365
1.94175
1.9417
1.94196
1.94276
1.94353
1.94546
1.94956
1.95248
1.95734
1.95998
1.96539
1.96569
2.44428
2.42109
2.39764
2.37456
2.35198
2.33074
2.31028
2.29144
2.27352
2.25714
2.24173
2.22779
2.21461
2.20273
2.1916
2.18122
2.17154
2.16244
2.15409
2.14647
2.13977
2.13389
2.12878
2.12447
2.12073
2.11749
2.11502
2.11293
2.11225
2.11135
2.11197
2.11335
2.11539
2.11778
2.12051
2.12371
2.12656
2.12962
2.13211
2.13458
2.1365
2.13824
2.13948
2.14053
2.14099
2.14121
2.14077
2.13998
2.13913
2.13806
2.13639
2.13428
2.13144
2.12834
2.12459
2.12065
2.11611
2.11157
2.10647
2.10146
2.09587
2.09035
2.08435
2.07837
2.07209
2.06574
2.05925
2.05257
2.04595
2.03904
2.03235
2.02528
2.01861
2.01155
2.00493
1.99805
1.99154
1.98498
1.97866
1.97258
1.96654
1.96109
1.95561
1.95095
1.94645
1.94285
1.9398
1.9378
1.93665
1.9367
1.93698
1.93752
1.93881
1.94103
1.94498
1.94756
1.95153
1.95361
1.95823
1.95785
2.4548
2.43427
2.41264
2.39153
2.37007
2.34967
2.32961
2.31068
2.2926
2.2756
2.25961
2.24467
2.2306
2.21749
2.20504
2.1934
2.1823
2.17193
2.16214
2.15307
2.14475
2.13728
2.13049
2.12455
2.11919
2.11481
2.11104
2.10829
2.10618
2.10504
2.1048
2.10489
2.1056
2.10711
2.10908
2.11165
2.11424
2.11712
2.11942
2.12191
2.12365
2.12553
2.12661
2.12786
2.12818
2.12862
2.12815
2.12757
2.12683
2.12592
2.12454
2.12248
2.11996
2.11688
2.11353
2.10957
2.10543
2.10074
2.09604
2.09084
2.08566
2.07997
2.07431
2.06821
2.06217
2.05574
2.04938
2.04276
2.03617
2.02944
2.02267
2.01591
2.00905
2.00239
1.99554
1.98909
1.9824
1.97625
1.96992
1.96412
1.95843
1.9531
1.94828
1.94381
1.9402
1.93701
1.93492
1.93345
1.93319
1.93333
1.93385
1.93439
1.9365
1.93848
1.94167
1.94365
1.94648
1.94793
1.95147
1.95036
2.46337
2.44506
2.42562
2.4065
2.38686
2.36772
2.34871
2.33042
2.31256
2.29564
2.27923
2.26387
2.24906
2.23521
2.22192
2.20943
2.19746
2.18616
2.17537
2.16525
2.15573
2.147
2.13903
2.1318
2.1254
2.11973
2.11481
2.11069
2.10725
2.10464
2.10267
2.10157
2.10101
2.10101
2.10131
2.10242
2.10417
2.10617
2.10821
2.11038
2.11207
2.11389
2.11506
2.11632
2.11675
2.11728
2.11691
2.11612
2.11548
2.11441
2.11304
2.111
2.10847
2.10558
2.10217
2.09851
2.09422
2.08982
2.08482
2.07987
2.07441
2.06901
2.06312
2.05733
2.05109
2.04504
2.03861
2.03241
2.02591
2.01954
2.01301
2.00652
2.00002
1.99351
1.98715
1.98074
1.97467
1.96853
1.96288
1.95723
1.9521
1.94722
1.94286
1.939
1.93583
1.93331
1.93173
1.93095
1.93101
1.93129
1.93168
1.93279
1.93517
1.9371
1.93953
1.94084
1.94277
1.94363
1.94634
1.94463
2.46772
2.45148
2.43435
2.41734
2.39989
2.38266
2.36526
2.34827
2.33143
2.31502
2.29915
2.28361
2.26893
2.25448
2.24096
2.22767
2.21518
2.20301
2.19151
2.18047
2.16999
2.16019
2.15101
2.1426
2.13472
2.12773
2.12112
2.11554
2.11027
2.10601
2.10215
2.09925
2.097
2.09549
2.09465
2.09427
2.09427
2.09509
2.09661
2.09825
2.09997
2.10166
2.10294
2.10416
2.10466
2.10516
2.10468
2.10401
2.10308
2.10206
2.10054
2.09848
2.09601
2.093
2.08976
2.08591
2.08193
2.07728
2.0726
2.06735
2.06221
2.05659
2.05105
2.04504
2.0391
2.03283
2.02665
2.0203
2.01396
2.00762
2.00117
1.99489
1.98841
1.98229
1.97593
1.97006
1.96401
1.95852
1.95301
1.94805
1.94328
1.93911
1.93534
1.93234
1.92982
1.92829
1.92731
1.92734
1.92755
1.92785
1.92883
1.93037
1.93281
1.93423
1.93571
1.93649
1.93749
1.93781
1.9397
1.93746
2.46997
2.45519
2.43986
2.42444
2.40877
2.3931
2.37743
2.36172
2.3463
2.33072
2.31574
2.30053
2.28608
2.27152
2.2577
2.24397
2.23089
2.2181
2.20584
2.19402
2.18268
2.17187
2.16166
2.15206
2.1431
2.13468
2.12695
2.11979
2.11314
2.10731
2.10201
2.09754
2.0936
2.09051
2.08819
2.08657
2.08562
2.08514
2.08516
2.08579
2.08704
2.08826
2.08937
2.09031
2.09078
2.09099
2.09059
2.08974
2.08867
2.08765
2.08608
2.08432
2.08176
2.07912
2.07572
2.07227
2.06813
2.06391
2.05906
2.0542
2.04884
2.04357
2.03784
2.03218
2.02611
2.02017
2.01396
2.00787
2.00165
1.99547
1.98929
1.98303
1.97698
1.97075
1.96496
1.95898
1.95358
1.94811
1.94325
1.93849
1.93443
1.93067
1.92775
1.92524
1.92376
1.92275
1.9228
1.92304
1.92338
1.92414
1.92619
1.92764
1.92956
1.93027
1.93137
1.93131
1.93138
1.93149
1.93196
1.92974
2.47302
2.45931
2.44512
2.43098
2.41641
2.40194
2.38726
2.37257
2.35792
2.34315
2.32862
2.31398
2.29967
2.2854
2.27145
2.25771
2.24426
2.23118
2.21834
2.20598
2.19386
2.18229
2.17107
2.16049
2.15029
2.14071
2.13165
2.1231
2.11532
2.10797
2.10147
2.09539
2.09039
2.08592
2.08226
2.07919
2.07697
2.07511
2.07397
2.07334
2.07309
2.07344
2.07417
2.07493
2.07539
2.07588
2.07575
2.07515
2.07447
2.07349
2.07249
2.0707
2.06859
2.0658
2.06282
2.05927
2.05547
2.05124
2.04674
2.04184
2.03683
2.03151
2.02623
2.02056
2.01503
2.00908
2.00338
1.99735
1.99162
1.98566
1.97993
1.97412
1.9684
1.96282
1.95723
1.95201
1.94678
1.9421
1.93753
1.93359
1.93
1.92708
1.92477
1.92318
1.92226
1.92217
1.92232
1.92252
1.92312
1.92464
1.92634
1.92753
1.92826
1.92851
1.92821
1.92764
1.92697
1.9263
1.92556
1.92285
2.47455
2.46172
2.44858
2.43543
2.42195
2.40838
2.39452
2.38072
2.3666
2.35254
2.33823
2.32407
2.30978
2.29577
2.28174
2.26814
2.25451
2.24142
2.22832
2.21578
2.20338
2.19139
2.17974
2.16853
2.15772
2.14757
2.13778
2.12867
2.11996
2.11182
2.10414
2.09718
2.09066
2.08475
2.07967
2.07519
2.07134
2.0682
2.06565
2.06371
2.06277
2.06201
2.06197
2.06223
2.06295
2.06324
2.06386
2.06356
2.06288
2.06217
2.06106
2.05969
2.05753
2.05507
2.05207
2.04876
2.04498
2.04101
2.03662
2.03211
2.02713
2.02224
2.01696
2.0118
2.00625
2.00072
1.99496
1.98922
1.98346
1.97772
1.97204
1.96639
1.96085
1.9554
1.95017
1.94512
1.94039
1.93602
1.93199
1.92855
1.9255
1.92326
1.92139
1.92046
1.92
1.92002
1.92009
1.92056
1.9218
1.92342
1.9244
1.92506
1.92499
1.9245
1.92365
1.92294
1.92148
1.91991
1.91832
1.91585
2.48
2.46686
2.45375
2.44056
2.42717
2.41373
2.39995
2.38619
2.37254
2.35895
2.34535
2.33177
2.31819
2.30468
2.29123
2.27791
2.26469
2.25169
2.23881
2.22621
2.21366
2.20155
2.18948
2.17802
2.16671
2.15581
2.14523
2.13493
2.12509
2.11562
2.10665
2.09818
2.09026
2.08294
2.07627
2.07026
2.06538
2.06119
2.05778
2.05496
2.05297
2.05183
2.05145
2.05152
2.0518
2.05222
2.05305
2.05307
2.05278
2.05207
2.05137
2.05013
2.04861
2.04636
2.04386
2.04075
2.03739
2.03352
2.02953
2.02492
2.02023
2.01498
2.00996
2.00444
1.99913
1.99327
1.98762
1.98164
1.97597
1.97018
1.96467
1.95915
1.9539
1.94871
1.94386
1.9392
1.93501
1.93107
1.9278
1.92486
1.92276
1.92104
1.92015
1.91982
1.91985
1.91994
1.92044
1.92184
1.92336
1.92444
1.92501
1.92486
1.92419
1.9235
1.92229
1.92111
1.91873
1.91633
1.91431
1.91175
2.49413
2.48132
2.46811
2.45451
2.44029
2.42587
2.41128
2.39636
2.3812
2.36637
2.35198
2.33789
2.32403
2.31039
2.29693
2.28367
2.27054
2.25758
2.24476
2.23204
2.21954
2.20707
2.19491
2.18279
2.17108
2.15951
2.14842
2.13753
2.12724
2.11718
2.10776
2.09868
2.09025
2.08234
2.07519
2.06862
2.06293
2.05796
2.05419
2.05105
2.04869
2.04712
2.0461
2.04552
2.04532
2.04536
2.04545
2.04563
2.04551
2.04521
2.04455
2.04388
2.04262
2.04094
2.03851
2.03568
2.03227
2.02864
2.02443
2.02002
2.01498
2.01002
2.00461
1.99938
1.99365
1.98804
1.98208
1.97634
1.97051
1.96493
1.9594
1.95402
1.94884
1.94379
1.93911
1.93473
1.93078
1.92742
1.9245
1.92244
1.9209
1.92009
1.91996
1.92006
1.92028
1.92093
1.9226
1.92415
1.92544
1.92615
1.92599
1.92557
1.92473
1.92375
1.92201
1.91972
1.9166
1.91363
1.91114
1.90842
2.50485
2.49087
2.47721
2.46413
2.45119
2.43811
2.42469
2.41079
2.3964
2.38132
2.36594
2.35058
2.33553
2.32078
2.30641
2.29233
2.27862
2.26517
2.252
2.23907
2.22638
2.21393
2.2017
2.18976
2.17808
2.16677
2.15576
2.14516
2.13494
2.12508
2.1157
2.10653
2.09803
2.08977
2.08222
2.07511
2.06887
2.06302
2.05796
2.05331
2.04937
2.04579
2.0432
2.04114
2.03985
2.03876
2.03798
2.03737
2.03686
2.03616
2.03538
2.03453
2.03353
2.03222
2.03038
2.02818
2.02563
2.02273
2.01951
2.01584
2.01186
2.00749
2.00291
1.99799
1.99285
1.9874
1.98182
1.97606
1.9703
1.96454
1.95889
1.95331
1.94805
1.94289
1.93831
1.93398
1.93032
1.92716
1.92473
1.92313
1.9221
1.92188
1.92197
1.92228
1.92307
1.92501
1.92641
1.92799
1.92874
1.92855
1.92806
1.92732
1.92617
1.92458
1.92202
1.91887
1.91528
1.91167
1.90898
1.90588
2.52107
2.50623
2.49161
2.47744
2.46375
2.45037
2.43694
2.42368
2.41012
2.39655
2.38242
2.36815
2.35346
2.33881
2.32413
2.30971
2.29546
2.28152
2.26783
2.25448
2.24135
2.22853
2.21586
2.20354
2.19147
2.1798
2.16834
2.15725
2.1463
2.13567
2.12519
2.1152
2.10542
2.09624
2.08748
2.07944
2.07167
2.06479
2.05825
2.05255
2.04723
2.04256
2.0382
2.03469
2.03157
2.02917
2.02729
2.02583
2.0246
2.02373
2.0231
2.02265
2.02229
2.02175
2.02097
2.01975
2.01823
2.01624
2.01395
2.01108
2.00791
2.00416
2.00021
1.99574
1.99118
1.9862
1.98117
1.97592
1.97066
1.96533
1.96005
1.95487
1.94991
1.94518
1.94095
1.93699
1.93387
1.93106
1.92942
1.92816
1.92757
1.92746
1.92773
1.92854
1.93053
1.93183
1.93329
1.93414
1.93388
1.93338
1.9324
1.93124
1.92945
1.92698
1.92365
1.92008
1.91607
1.91217
1.90912
1.90587
2.54239
2.52737
2.5115
2.49533
2.47883
2.46311
2.44815
2.43395
2.41995
2.40612
2.39213
2.3781
2.3642
2.35017
2.33618
2.32211
2.30814
2.29425
2.28052
2.26689
2.25343
2.24011
2.227
2.21403
2.20131
2.18873
2.17645
2.16438
2.15266
2.14135
2.13046
2.11999
2.11002
2.10037
2.09119
2.08227
2.07381
2.06575
2.0581
2.05111
2.04472
2.03908
2.03381
2.02962
2.02593
2.02317
2.02104
2.01962
2.01874
2.01839
2.01837
2.01839
2.01838
2.01826
2.01789
2.01714
2.01597
2.01434
2.0123
2.00988
2.00704
2.00393
2.00038
1.99667
1.99243
1.98823
1.98343
1.97891
1.97382
1.96925
1.96421
1.95984
1.95519
1.95134
1.94745
1.94431
1.9417
1.93954
1.93842
1.93748
1.93706
1.93729
1.9381
1.93989
1.94115
1.94228
1.94299
1.94267
1.942
1.94094
1.93958
1.93783
1.93529
1.93206
1.92832
1.92442
1.92026
1.91618
1.91303
1.90974
2.55363
2.54194
2.52952
2.51668
2.5033
2.48911
2.4741
2.45879
2.44351
2.4282
2.41312
2.39797
2.38281
2.36768
2.35265
2.33776
2.32302
2.30842
2.29406
2.2798
2.26589
2.25202
2.2386
2.22514
2.21228
2.19947
2.18728
2.17505
2.16337
2.15157
2.14022
2.12887
2.1179
2.10709
2.09673
2.08664
2.07726
2.06823
2.06015
2.05255
2.04595
2.03991
2.03465
2.03009
2.02615
2.02324
2.02097
2.01943
2.01882
2.01863
2.01869
2.01882
2.01896
2.01894
2.01878
2.01834
2.01768
2.01634
2.01502
2.01286
2.01064
2.00765
2.00467
2.00093
1.99746
1.99315
1.9894
1.98482
1.9809
1.97633
1.97243
1.96819
1.96455
1.96117
1.95795
1.95576
1.9536
1.95243
1.95147
1.95107
1.95128
1.9522
1.9538
1.95513
1.95616
1.95697
1.95668
1.95599
1.95488
1.95369
1.95176
1.94953
1.94619
1.94258
1.93843
1.93416
1.92973
1.92523
1.92178
1.91815
2.56889
2.55648
2.54375
2.53117
2.51863
2.50576
2.49221
2.478
2.46323
2.44832
2.43328
2.41841
2.40347
2.38878
2.37397
2.35939
2.34462
2.33005
2.31541
2.30104
2.28683
2.27295
2.25937
2.24607
2.23297
2.22008
2.20732
2.19466
2.18214
2.16967
2.15742
2.14536
2.13352
2.12223
2.11118
2.101
2.09129
2.08243
2.07425
2.06675
2.05993
2.05365
2.04822
2.04316
2.039
2.03545
2.03284
2.03088
2.02953
2.02841
2.02758
2.02696
2.02648
2.02619
2.02585
2.02548
2.02464
2.02377
2.02198
2.02026
2.01742
2.01478
2.01104
2.00763
2.00336
1.99951
1.99512
1.99119
1.98709
1.98327
1.97972
1.97616
1.97328
1.97034
1.96826
1.96636
1.96534
1.96413
1.96421
1.96465
1.96602
1.96774
1.96946
1.97065
1.97168
1.97149
1.97094
1.96977
1.96849
1.96674
1.9642
1.96143
1.9573
1.95346
1.9486
1.94428
1.93918
1.93485
1.93096
1.92774
2.58654
2.57367
2.56059
2.54741
2.53408
2.52077
2.50716
2.49327
2.4787
2.46371
2.44815
2.43246
2.41666
2.40111
2.38575
2.37077
2.35601
2.34158
2.32735
2.31339
2.29964
2.2861
2.27274
2.25951
2.24633
2.23333
2.22035
2.20763
2.19488
2.18253
2.17016
2.15834
2.14665
2.13564
2.12493
2.11498
2.10522
2.09629
2.08749
2.07936
2.07155
2.06449
2.05809
2.0522
2.0473
2.04276
2.03924
2.03571
2.033
2.03038
2.02869
2.02712
2.02632
2.02542
2.02486
2.02409
2.02316
2.02183
2.02007
2.0179
2.01537
2.01243
2.00933
2.00585
2.00239
1.99875
1.99504
1.99164
1.98803
1.98519
1.98218
1.97992
1.97813
1.97673
1.97601
1.97558
1.97576
1.97658
1.97774
1.98009
1.98234
1.9848
1.98662
1.98833
1.98906
1.98854
1.98775
1.9861
1.98408
1.98143
1.97769
1.97384
1.96894
1.96483
1.95968
1.95564
1.95058
1.94716
1.94342
1.94159
2.591
2.58019
2.5685
2.5564