/*--------------------------------*- C++ -*----------------------------------*\
  =========                 |
  \\      /  F ield         | OpenFOAM: The Open Source CFD Toolbox
   \\    /   O peration     | Website:  https://openfoam.org
    \\  /    A nd           | Version:  6
     \\/     M anipulation  |
\*---------------------------------------------------------------------------*/
FoamFile
{
    version     2.0;
    format      ascii;
    class       volVectorField;
    location    "8.5";
    object      U;
}
// * * * * * * * * * * * * * * * * * * * * * * * * * * * * * * * * * * * * * //

dimensions      [0 1 -1 0 0 0 0];

internalField   nonuniform List<vector> 
5250
(
(2.99992 1.6236e-07 0)
(2.99976 1.00813e-06 0)
(2.99937 3.15278e-06 0)
(2.99856 8.23437e-06 0)
(2.99639 1.85242e-05 0)
(2.99202 4.18804e-05 0)
(2.97923 8.50018e-05 0)
(2.95358 0.000192936 0)
(2.87511 0.000380277 0)
(2.67343 0.000940834 0)
(2.13036 0.00194421 0)
(0.690449 0.00562576 0)
(-0.102588 0.0152268 0)
(0.210309 0.0254575 0)
(0.457021 0.0294021 0)
(0.496774 0.0281031 0)
(0.468395 0.0264804 0)
(0.417253 0.0265771 0)
(0.336343 0.0276173 0)
(0.25383 0.02962 0)
(0.197049 0.0330702 0)
(0.1537 0.0371784 0)
(0.110017 0.0414728 0)
(0.0642369 0.0466626 0)
(0.0330983 0.0539964 0)
(2.99992 5.0984e-07 0)
(2.99977 3.16975e-06 0)
(2.99938 9.90615e-06 0)
(2.99857 2.59221e-05 0)
(2.99642 5.8469e-05 0)
(2.99206 0.000132628 0)
(2.97933 0.000271443 0)
(2.9538 0.000616259 0)
(2.87564 0.00123496 0)
(2.67466 0.00304075 0)
(2.13309 0.00649151 0)
(0.69591 0.0190125 0)
(-0.0990531 0.0482805 0)
(0.21515 0.074254 0)
(0.458554 0.0805287 0)
(0.495599 0.0742361 0)
(0.468354 0.0692045 0)
(0.418445 0.068638 0)
(0.338756 0.0699543 0)
(0.257983 0.0727975 0)
(0.201704 0.078032 0)
(0.157101 0.0835557 0)
(0.111821 0.0880471 0)
(0.0641783 0.0921645 0)
(0.0318572 0.0962431 0)
(2.99992 9.12343e-07 0)
(2.99977 5.67773e-06 0)
(2.99939 1.77252e-05 0)
(2.9986 4.64831e-05 0)
(2.99647 0.000105171 0)
(2.99217 0.000239796 0)
(2.97958 0.000494011 0)
(2.95431 0.00112818 0)
(2.87683 0.0022848 0)
(2.67762 0.00564617 0)
(2.14038 0.0123438 0)
(0.711503 0.0366183 0)
(-0.0838005 0.0895114 0)
(0.224651 0.128861 0)
(0.459078 0.132085 0)
(0.493242 0.118918 0)
(0.46901 0.112359 0)
(0.420915 0.113818 0)
(0.34235 0.118375 0)
(0.263864 0.124779 0)
(0.208627 0.134004 0)
(0.162511 0.143143 0)
(0.115062 0.15019 0)
(0.0649714 0.155539 0)
(0.030747 0.158578 0)
(2.99993 1.37622e-06 0)
(2.99978 8.57134e-06 0)
(2.99941 2.67055e-05 0)
(2.99863 7.01723e-05 0)
(2.99655 0.000158999 0)
(2.99234 0.000365079 0)
(2.97998 0.000751815 0)
(2.95516 0.00174116 0)
(2.87886 0.00351629 0)
(2.68275 0.00882999 0)
(2.15344 0.0193122 0)
(0.739268 0.0574215 0)
(-0.0564695 0.135687 0)
(0.237354 0.184811 0)
(0.457613 0.178734 0)
(0.491634 0.157923 0)
(0.473225 0.151966 0)
(0.427226 0.157448 0)
(0.349615 0.166775 0)
(0.273642 0.178042 0)
(0.21967 0.192349 0)
(0.171962 0.206526 0)
(0.122017 0.218106 0)
(0.0687779 0.226978 0)
(0.0309822 0.231409 0)
(2.99993 1.88786e-06 0)
(2.99979 1.17857e-05 0)
(2.99943 3.66034e-05 0)
(2.99869 9.64892e-05 0)
(2.99667 0.000218705 0)
(2.99259 0.000507579 0)
(2.98057 0.00103979 0)
(2.9564 0.0024596 0)
(2.8819 0.00493269 0)
(2.69042 0.0126273 0)
(2.17263 0.0274108 0)
(0.779616 0.0812756 0)
(-0.0183072 0.186895 0)
(0.250815 0.242335 0)
(0.453152 0.220163 0)
(0.492048 0.191675 0)
(0.482311 0.188089 0)
(0.438163 0.198949 0)
(0.361139 0.213784 0)
(0.2877 0.23072 0)
(0.235253 0.250916 0)
(0.186379 0.271146 0)
(0.133951 0.288487 0)
(0.0769338 0.301994 0)
(0.0337046 0.30916 0)
(2.99993 2.40709e-06 0)
(2.9998 1.51376e-05 0)
(2.99946 4.69231e-05 0)
(2.99876 0.000124518 0)
(2.99683 0.000284708 0)
(2.99293 0.000664529 0)
(2.98139 0.00138607 0)
(2.95811 0.00327216 0)
(2.88615 0.00666541 0)
(2.70108 0.016946 0)
(2.1988 0.0373117 0)
(0.834634 0.109099 0)
(0.0318836 0.245363 0)
(0.262809 0.301647 0)
(0.444134 0.254667 0)
(0.495656 0.220144 0)
(0.497547 0.221309 0)
(0.454765 0.238856 0)
(0.378014 0.259956 0)
(0.307255 0.283666 0)
(0.256453 0.31097 0)
(0.206509 0.338439 0)
(0.15128 0.363005 0)
(0.0890695 0.382757 0)
(0.0383429 0.393663 0)
(2.99994 2.84021e-06 0)
(2.99981 1.81063e-05 0)
(2.9995 5.60678e-05 0)
(2.99885 0.000151047 0)
(2.99704 0.000350696 0)
(2.99338 0.000826793 0)
(2.98246 0.00179785 0)
(2.96041 0.00415508 0)
(2.89173 0.00891842 0)
(2.71542 0.021826 0)
(2.23474 0.0498016 0)
(0.908142 0.141771 0)
(0.0964513 0.31325 0)
(0.269763 0.359383 0)
(0.428977 0.279984 0)
(0.504858 0.243864 0)
(0.520653 0.252284 0)
(0.478217 0.277353 0)
(0.401662 0.30549 0)
(0.334026 0.337256 0)
(0.285059 0.373141 0)
(0.234421 0.409626 0)
(0.176327 0.443858 0)
(0.107749 0.47344 0)
(0.0463976 0.491612 0)
(2.99994 3.08428e-06 0)
(2.99983 1.99779e-05 0)
(2.99955 6.16924e-05 0)
(2.99895 0.000170006 0)
(2.9973 0.000398589 0)
(2.99396 0.000971845 0)
(2.98381 0.00215404 0)
(2.96353 0.00512627 0)
(2.89888 0.0113477 0)
(2.73447 0.0279903 0)
(2.2832 0.0650428 0)
(1.00519 0.179938 0)
(0.176795 0.393006 0)
(0.26724 0.409161 0)
(0.409925 0.297505 0)
(0.522781 0.264509 0)
(0.552364 0.282031 0)
(0.509277 0.314739 0)
(0.433405 0.350616 0)
(0.36974 0.39163 0)
(0.323185 0.437444 0)
(0.273047 0.484803 0)
(0.213634 0.532735 0)
(0.138211 0.579162 0)
(0.061458 0.613513 0)
(2.99995 3.05606e-06 0)
(2.99985 2.01363e-05 0)
(2.9996 6.19175e-05 0)
(2.99907 0.000174933 0)
(2.9976 0.000413085 0)
(2.99463 0.00105297 0)
(2.98549 0.00234248 0)
(2.96743 0.00594836 0)
(2.90837 0.013208 0)
(2.7598 0.0345425 0)
(2.34616 0.0813428 0)
(1.13139 0.223291 0)
(0.274976 0.488002 0)
(0.253468 0.438869 0)
(0.393209 0.310871 0)
(0.550931 0.286171 0)
(0.592817 0.313032 0)
(0.548148 0.35216 0)
(0.474223 0.395655 0)
(0.415632 0.446689 0)
(0.372646 0.502262 0)
(0.326381 0.561961 0)
(0.271487 0.629456 0)
(0.193378 0.705044 0)
(0.0937544 0.782386 0)
(2.99996 2.64275e-06 0)
(2.99987 1.78809e-05 0)
(2.99965 5.47746e-05 0)
(2.99919 0.000160153 0)
(2.99791 0.000382003 0)
(2.99534 0.00102299 0)
(2.98738 0.00230121 0)
(2.97183 0.00619553 0)
(2.92006 0.0139974 0)
(2.79168 0.038368 0)
(2.42782 0.0941207 0)
(1.30516 0.262158 0)
(0.391785 0.590755 0)
(0.231051 0.452949 0)
(0.394113 0.326426 0)
(0.590689 0.31364 0)
(0.639826 0.347913 0)
(0.593218 0.390511 0)
(0.524009 0.440227 0)
(0.471493 0.500491 0)
(0.434051 0.564134 0)
(0.399948 0.637568 0)
(0.362616 0.730557 0)
(0.303018 0.852467 0)
(0.174443 1.04337 0)
(2.99996 1.9995e-06 0)
(2.99988 1.38039e-05 0)
(2.99969 4.22097e-05 0)
(2.99929 0.000127191 0)
(2.9982 0.000304344 0)
(2.996 0.000858053 0)
(2.98927 0.00193903 0)
(2.97636 0.00563448 0)
(2.93254 0.0127601 0)
(2.82807 0.0378285 0)
(2.52341 0.095904 0)
(1.5424 0.280307 0)
(0.540039 0.676129 0)
(0.217155 0.462852 0)
(0.411897 0.354324 0)
(0.638269 0.353639 0)
(0.689743 0.389492 0)
(0.641746 0.430808 0)
(0.580884 0.484103 0)
(0.535776 0.548151 0)
(0.507993 0.618218 0)
(0.49765 0.704161 0)
(0.502501 0.816608 0)
(0.541029 0.962637 0)
(0.580349 1.16905 0)
(2.99997 1.5282e-06 0)
(2.9999 1.03999e-05 0)
(2.99972 3.19032e-05 0)
(2.99937 9.49536e-05 0)
(2.99842 0.000225206 0)
(2.9965 0.000634407 0)
(2.99089 0.00142182 0)
(2.98008 0.0042753 0)
(2.94464 0.00953622 0)
(2.86323 0.0302221 0)
(2.62335 0.0786483 0)
(1.84444 0.241546 0)
(0.72103 0.662626 0)
(0.218538 0.466714 0)
(0.442942 0.406086 0)
(0.686594 0.410147 0)
(0.733911 0.43633 0)
(0.688238 0.472613 0)
(0.638035 0.524624 0)
(0.603623 0.586471 0)
(0.592186 0.659819 0)
(0.609413 0.751689 0)
(0.651289 0.863363 0)
(0.744959 0.993708 0)
(0.882554 1.12801 0)
(2.99997 1.34139e-06 0)
(2.9999 8.88728e-06 0)
(2.99975 2.74461e-05 0)
(2.99942 7.85716e-05 0)
(2.99857 0.000184642 0)
(2.99685 0.000487843 0)
(2.99195 0.00108132 0)
(2.98254 0.00301072 0)
(2.95259 0.00671416 0)
(2.88715 0.0199611 0)
(2.69496 0.0525062 0)
(2.10097 0.15587 0)
(0.913147 0.483427 0)
(0.24686 0.462037 0)
(0.476355 0.478264 0)
(0.713637 0.473848 0)
(0.762039 0.481079 0)
(0.727404 0.510905 0)
(0.689954 0.557305 0)
(0.66925 0.615957 0)
(0.677277 0.688425 0)
(0.714664 0.773852 0)
(0.775452 0.866871 0)
(0.877773 0.963291 0)
(1.01772 1.03461 0)
(2.99997 1.32556e-06 0)
(2.99991 8.63843e-06 0)
(2.99977 2.67862e-05 0)
(2.99947 7.48265e-05 0)
(2.9987 0.000174798 0)
(2.99714 0.000441521 0)
(2.99274 0.000968634 0)
(2.98436 0.00251562 0)
(2.95773 0.00549503 0)
(2.90183 0.0150448 0)
(2.73298 0.0371725 0)
(2.23013 0.102767 0)
(1.10735 0.30119 0)
(0.329737 0.487529 0)
(0.514227 0.559362 0)
(0.711422 0.531224 0)
(0.772341 0.520182 0)
(0.757733 0.542523 0)
(0.735771 0.582669 0)
(0.731089 0.637042 0)
(0.752276 0.702537 0)
(0.79836 0.772359 0)
(0.864922 0.842722 0)
(0.962822 0.908678 0)
(1.08495 0.949651 0)
(2.99997 1.40148e-06 0)
(2.99992 9.06654e-06 0)
(2.99979 2.81638e-05 0)
(2.99952 7.78212e-05 0)
(2.99883 0.00018121 0)
(2.99741 0.000448479 0)
(2.99347 0.000976602 0)
(2.98597 0.00246612 0)
(2.96221 0.00525326 0)
(2.91358 0.0141113 0)
(2.76408 0.033166 0)
(2.33153 0.0917658 0)
(1.3228 0.250478 0)
(0.486519 0.527263 0)
(0.54717 0.601622 0)
(0.686065 0.568115 0)
(0.771513 0.549505 0)
(0.781305 0.56542 0)
(0.775266 0.600495 0)
(0.783304 0.647457 0)
(0.811903 0.701024 0)
(0.860686 0.755454 0)
(0.926982 0.807393 0)
(1.01494 0.853202 0)
(1.12053 0.878572 0)
(2.99998 1.51243e-06 0)
(2.99993 9.77345e-06 0)
(2.99981 3.03857e-05 0)
(2.99958 8.38374e-05 0)
(2.99896 0.000195345 0)
(2.9977 0.000481576 0)
(2.99422 0.00104925 0)
(2.98761 0.00262039 0)
(2.96666 0.0055983 0)
(2.92498 0.0144236 0)
(2.79364 0.03491 0)
(2.42575 0.0896614 0)
(1.54637 0.240727 0)
(0.65435 0.558704 0)
(0.576303 0.594835 0)
(0.676621 0.581181 0)
(0.771131 0.564451 0)
(0.801861 0.577299 0)
(0.809125 0.608127 0)
(0.825027 0.647045 0)
(0.85761 0.689293 0)
(0.906578 0.731202 0)
(0.970723 0.769598 0)
(1.04961 0.801458 0)
(1.14021 0.819475 0)
(2.99998 1.55813e-06 0)
(2.99994 1.00652e-05 0)
(2.99984 3.13049e-05 0)
(2.99963 8.63432e-05 0)
(2.9991 0.000201415 0)
(2.99802 0.000495678 0)
(2.99504 0.00108186 0)
(2.98942 0.00270048 0)
(2.97128 0.00566366 0)
(2.93787 0.0150496 0)
(2.82265 0.0345682 0)
(2.51935 0.0946949 0)
(1.78187 0.239072 0)
(0.816049 0.598635 0)
(0.598413 0.591763 0)
(0.677805 0.581068 0)
(0.774144 0.568361 0)
(0.822243 0.58023 0)
(0.83921 0.606837 0)
(0.858992 0.638626 0)
(0.892711 0.671712 0)
(0.940318 0.703412 0)
(1.00042 0.732168 0)
(1.07157 0.753796 0)
(1.15098 0.765766 0)
(2.99998 1.49734e-06 0)
(2.99995 9.66731e-06 0)
(2.99986 3.00607e-05 0)
(2.99969 8.28664e-05 0)
(2.99924 0.000193114 0)
(2.99833 0.000475197 0)
(2.99584 0.00103154 0)
(2.99108 0.00260074 0)
(2.97617 0.00525271 0)
(2.9488 0.015239 0)
(2.85525 0.0304712 0)
(2.6168 0.0994929 0)
(2.01958 0.235977 0)
(0.989589 0.640508 0)
(0.631031 0.609465 0)
(0.697941 0.589376 0)
(0.793603 0.574608 0)
(0.850196 0.581341 0)
(0.870966 0.601477 0)
(0.890475 0.626071 0)
(0.922119 0.651244 0)
(0.966958 0.674846 0)
(1.02212 0.695551 0)
(1.08527 0.710165 0)
(1.15486 0.716915 0)
(2.99999 1.33823e-06 0)
(2.99996 8.62578e-06 0)
(2.99989 2.68226e-05 0)
(2.99974 7.37142e-05 0)
(2.99937 0.000171595 0)
(2.99862 0.000419669 0)
(2.99661 0.000909376 0)
(2.99261 0.00225379 0)
(2.98104 0.00462528 0)
(2.95845 0.012782 0)
(2.88831 0.0256304 0)
(2.71512 0.0799418 0)
(2.27796 0.189144 0)
(1.22084 0.545966 0)
(0.726573 0.595625 0)
(0.755314 0.600322 0)
(0.83332 0.586583 0)
(0.889273 0.58514 0)
(0.909133 0.596323 0)
(0.924769 0.612959 0)
(0.951622 0.630566 0)
(0.991044 0.647316 0)
(1.03961 0.660469 0)
(1.09501 0.669091 0)
(1.15571 0.671749 0)
(2.99999 1.14571e-06 0)
(2.99996 7.36564e-06 0)
(2.99991 2.29157e-05 0)
(2.99979 6.26667e-05 0)
(2.99948 0.000145905 0)
(2.99886 0.00035271 0)
(2.99719 0.000768796 0)
(2.99389 0.00184086 0)
(2.98432 0.00392782 0)
(2.96588 0.00960543 0)
(2.90803 0.0214418 0)
(2.76908 0.0544804 0)
(2.40439 0.131323 0)
(1.40008 0.361292 0)
(0.780376 0.580182 0)
(0.77895 0.616825 0)
(0.848549 0.611417 0)
(0.912986 0.597786 0)
(0.939408 0.59744 0)
(0.95557 0.60457 0)
(0.979414 0.614031 0)
(1.01331 0.622801 0)
(1.05496 0.628924 0)
(1.10323 0.631951 0)
(1.15624 0.630956 0)
(2.99999 9.99057e-07 0)
(2.99997 6.42476e-06 0)
(2.99992 1.99924e-05 0)
(2.99983 5.47015e-05 0)
(2.99958 0.000127452 0)
(2.99906 0.000308277 0)
(2.9977 0.000673137 0)
(2.995 0.00161017 0)
(2.98704 0.00345015 0)
(2.97266 0.00839714 0)
(2.92361 0.0187565 0)
(2.81368 0.0468832 0)
(2.50626 0.114661 0)
(1.60178 0.308301 0)
(0.887015 0.620359 0)
(0.783681 0.639997 0)
(0.839532 0.632777 0)
(0.907508 0.608594 0)
(0.949564 0.598688 0)
(0.973284 0.59802 0)
(0.997918 0.600018 0)
(1.02895 0.600981 0)
(1.06653 0.600916 0)
(1.10977 0.599255 0)
(1.15692 0.595148 0)
(2.99999 8.70274e-07 0)
(2.99998 5.60223e-06 0)
(2.99994 1.74324e-05 0)
(2.99986 4.77908e-05 0)
(2.99966 0.00011138 0)
(2.99925 0.000270551 0)
(2.99815 0.000589551 0)
(2.99599 0.00142494 0)
(2.98958 0.00302363 0)
(2.97828 0.0077307 0)
(2.93853 0.0159323 0)
(2.85492 0.0449758 0)
(2.60924 0.103882 0)
(1.85826 0.299794 0)
(1.04652 0.674377 0)
(0.78558 0.663098 0)
(0.827291 0.639194 0)
(0.895857 0.60542 0)
(0.951255 0.586509 0)
(0.982385 0.58102 0)
(1.00817 0.578622 0)
(1.03816 0.575987 0)
(1.07409 0.572873 0)
(1.11448 0.568765 0)
(1.15762 0.562934 0)
(2.99999 7.21174e-07 0)
(2.99998 4.63908e-06 0)
(2.99995 1.44316e-05 0)
(2.99989 3.95187e-05 0)
(2.99973 9.19689e-05 0)
(2.99941 0.000223127 0)
(2.99855 0.000484266 0)
(2.99684 0.0011725 0)
(2.99194 0.00246357 0)
(2.98307 0.00642844 0)
(2.95333 0.0126248 0)
(2.89239 0.037615 0)
(2.7128 0.0844123 0)
(2.17263 0.245876 0)
(1.30005 0.614583 0)
(0.869478 0.652556 0)
(0.861942 0.628623 0)
(0.910318 0.596432 0)
(0.967002 0.570666 0)
(1.00095 0.559033 0)
(1.02474 0.553385 0)
(1.05188 0.549398 0)
(1.0847 0.545241 0)
(1.12162 0.540159 0)
(1.1608 0.533574 0)
(3 5.80293e-07 0)
(2.99999 3.7299e-06 0)
(2.99996 1.16008e-05 0)
(2.99991 3.16943e-05 0)
(2.99979 7.37965e-05 0)
(2.99953 0.000177942 0)
(2.99885 0.00038806 0)
(2.99748 0.000923059 0)
(2.99366 0.00196787 0)
(2.98644 0.00483783 0)
(2.96364 0.0100786 0)
(2.91866 0.0260946 0)
(2.7767 0.0614028 0)
(2.38429 0.159489 0)
(1.56557 0.420596 0)
(0.922784 0.614858 0)
(0.87476 0.610958 0)
(0.919236 0.591866 0)
(0.977605 0.563654 0)
(1.01751 0.545313 0)
(1.04326 0.535338 0)
(1.06884 0.528785 0)
(1.09861 0.522801 0)
(1.13192 0.516241 0)
(1.16717 0.508551 0)
(3 4.06946e-07 0)
(2.99999 3.19705e-06 0)
(2.99997 8.75365e-06 0)
(2.99993 2.68433e-05 0)
(2.99983 5.5731e-05 0)
(2.99963 0.000152301 0)
(2.9991 0.000290219 0)
(2.99804 0.000808152 0)
(2.99498 0.00141813 0)
(2.98959 0.00442274 0)
(2.97051 0.00648005 0)
(2.93749 0.025294 0)
(2.81785 0.0351053 0)
(2.50728 0.143679 0)
(1.78726 0.29106 0)
(0.978903 0.633443 0)
(0.842037 0.618699 0)
(0.892086 0.594217 0)
(0.958929 0.558286 0)
(1.01387 0.532951 0)
(1.04946 0.519331 0)
(1.07887 0.510871 0)
(1.10887 0.503556 0)
(1.14066 0.495815 0)
(1.17348 0.487096 0)
(3 2.97185e-07 0)
(2.99999 2.38081e-06 0)
(2.99998 6.42954e-06 0)
(2.99994 1.99207e-05 0)
(2.99987 4.07424e-05 0)
(2.99969 0.000112471 0)
(2.99933 0.000210157 0)
(2.99833 0.000594022 0)
(2.99649 0.00102721 0)
(2.99046 0.00326161 0)
(2.98065 0.00469021 0)
(2.94324 0.0197578 0)
(2.86879 0.0269475 0)
(2.63569 0.115414 0)
(1.97137 0.259633 0)
(1.1298 0.645677 0)
(0.817541 0.6246 0)
(0.860163 0.581548 0)
(0.931222 0.53923 0)
(1.002 0.510301 0)
(1.05038 0.496175 0)
(1.0854 0.488434 0)
(1.11677 0.481896 0)
(1.14791 0.474566 0)
(1.17912 0.46591 0)
(3 2.74758e-07 0)
(2.99999 1.57088e-06 0)
(2.99998 5.27728e-06 0)
(2.99995 1.34219e-05 0)
(2.9999 3.34414e-05 0)
(2.99975 7.41955e-05 0)
(2.99945 0.000175857 0)
(2.99865 0.000372512 0)
(2.99708 0.000916154 0)
(2.99249 0.00179189 0)
(2.98425 0.0051658 0)
(2.95658 0.00946892 0)
(2.9007 0.0304439 0)
(2.73603 0.0682914 0)
(2.25125 0.198499 0)
(1.36933 0.515771 0)
(0.858251 0.576329 0)
(0.855817 0.549764 0)
(0.922256 0.517852 0)
(1.00095 0.48926 0)
(1.05797 0.47431 0)
(1.09623 0.466895 0)
(1.12731 0.461133 0)
(1.15673 0.454356 0)
(1.18581 0.44593 0)
(3 2.26188e-07 0)
(2.99999 1.29253e-06 0)
(2.99998 4.35842e-06 0)
(2.99996 1.11009e-05 0)
(2.99992 2.7788e-05 0)
(2.9998 6.2141e-05 0)
(2.99955 0.000147185 0)
(2.99889 0.000318238 0)
(2.99759 0.000751573 0)
(2.99387 0.00160643 0)
(2.98695 0.00386151 0)
(2.96432 0.00819938 0)
(2.92148 0.0199431 0)
(2.77849 0.0477952 0)
(2.39186 0.114167 0)
(1.56662 0.30148 0)
(0.854619 0.522164 0)
(0.815223 0.518376 0)
(0.888167 0.49847 0)
(0.978256 0.470665 0)
(1.05033 0.455487 0)
(1.09699 0.448329 0)
(1.13066 0.442842 0)
(1.15988 0.436111 0)
(1.18787 0.427617 0)
(3 2.07817e-07 0)
(2.99999 9.52267e-07 0)
(2.99999 3.76521e-06 0)
(2.99997 8.39322e-06 0)
(2.99993 2.42847e-05 0)
(2.99984 4.72105e-05 0)
(2.99964 0.000132751 0)
(2.99911 0.000239825 0)
(2.99808 0.000712002 0)
(2.99498 0.00113475 0)
(2.98971 0.003998 0)
(2.96992 0.00474079 0)
(2.9366 0.0225383 0)
(2.81167 0.0241686 0)
(2.48816 0.121276 0)
(1.74351 0.223159 0)
(0.881535 0.532076 0)
(0.734428 0.498165 0)
(0.818522 0.465853 0)
(0.92659 0.438524 0)
(1.01981 0.428591 0)
(1.07841 0.425186 0)
(1.11722 0.421446 0)
(1.14857 0.415453 0)
(1.17777 0.407436 0)
(3 1.24051e-07 0)
(3 7.08135e-07 0)
(2.99999 2.38468e-06 0)
(2.99998 6.06514e-06 0)
(2.99994 1.51696e-05 0)
(2.99987 3.3769e-05 0)
(2.99969 8.02347e-05 0)
(2.99933 0.00017102 0)
(2.99828 0.000412989 0)
(2.99652 0.000850147 0)
(2.98987 0.00225433 0)
(2.97987 0.00417943 0)
(2.93856 0.013431 0)
(2.85563 0.0267783 0)
(2.60052 0.0846464 0)
(1.87233 0.22239 0)
(0.987295 0.536257 0)
(0.661307 0.463957 0)
(0.754804 0.415589 0)
(0.88414 0.396348 0)
(0.995209 0.394895 0)
(1.05948 0.396232 0)
(1.09897 0.394745 0)
(1.13031 0.390098 0)
(1.15995 0.383282 0)
(3 5.38396e-08 0)
(3 5.41952e-07 0)
(2.99999 1.27161e-06 0)
(2.99998 4.43396e-06 0)
(2.99995 7.83688e-06 0)
(2.99988 2.4578e-05 0)
(2.99974 3.76526e-05 0)
(2.99936 0.00012775 0)
(2.9986 0.000162961 0)
(2.99646 0.000721948 0)
(2.99244 0.00058512 0)
(2.97944 0.0046969 0)
(2.95626 0.00302277 0)
(2.87474 0.0300589 0)
(2.68044 0.0397086 0)
(2.17277 0.167396 0)
(1.08874 0.437819 0)
(0.626267 0.416099 0)
(0.728541 0.391574 0)
(0.873619 0.378726 0)
(0.988298 0.374973 0)
(1.04949 0.372961 0)
(1.08487 0.369491 0)
(1.1135 0.364383 0)
(1.14188 0.358141 0)
(3 6.51157e-08 0)
(3 3.72605e-07 0)
(2.99999 1.25017e-06 0)
(2.99998 3.18291e-06 0)
(2.99996 7.90422e-06 0)
(2.99989 1.75767e-05 0)
(2.99977 4.13109e-05 0)
(2.99943 8.83326e-05 0)
(2.99875 0.000208981 0)
(2.99684 0.000438684 0)
(2.9932 0.00108565 0)
(2.98189 0.00219863 0)
(2.96116 0.00605087 0)
(2.89108 0.0122663 0)
(2.72293 0.0365726 0)
(2.29097 0.0850684 0)
(1.16017 0.241893 0)
(0.578096 0.3389 0)
(0.679096 0.372598 0)
(0.829592 0.369084 0)
(0.953637 0.359742 0)
(1.01963 0.351301 0)
(1.05706 0.344467 0)
(1.08693 0.338591 0)
(1.11629 0.332922 0)
(3 6.32322e-08 0)
(3 3.61587e-07 0)
(2.99999 1.21684e-06 0)
(2.99998 3.09835e-06 0)
(2.99996 7.7283e-06 0)
(2.99991 1.72532e-05 0)
(2.99979 4.06417e-05 0)
(2.99949 8.76382e-05 0)
(2.99888 0.000205357 0)
(2.99716 0.000436468 0)
(2.99389 0.00102052 0)
(2.98363 0.00224575 0)
(2.96508 0.00498602 0)
(2.90113 0.0115273 0)
(2.74932 0.0272291 0)
(2.34948 0.0629004 0)
(1.2376 0.16835 0)
(0.575228 0.313426 0)
(0.631952 0.353233 0)
(0.767336 0.353134 0)
(0.89673 0.335652 0)
(0.970454 0.321763 0)
(1.01437 0.313795 0)
(1.04859 0.309068 0)
(1.08059 0.305174 0)
(3 6.60664e-08 0)
(3 3.76878e-07 0)
(2.99999 1.27565e-06 0)
(2.99998 3.25682e-06 0)
(2.99997 8.21325e-06 0)
(2.99992 1.85287e-05 0)
(2.99982 4.41387e-05 0)
(2.99955 9.71606e-05 0)
(2.99902 0.000226163 0)
(2.99749 0.000503285 0)
(2.9947 0.00108656 0)
(2.98522 0.00264457 0)
(2.96939 0.00494252 0)
(2.91 0.0120892 0)
(2.77272 0.0255356 0)
(2.40605 0.0591917 0)
(1.34635 0.155837 0)
(0.619676 0.31721 0)
(0.590511 0.32938 0)
(0.707978 0.323409 0)
(0.834286 0.298496 0)
(0.918267 0.283717 0)
(0.970185 0.278522 0)
(1.00825 0.276971 0)
(1.04166 0.275578 0)
(3 7.39255e-08 0)
(3 3.22101e-07 0)
(2.99999 1.32786e-06 0)
(2.99999 2.88003e-06 0)
(2.99997 8.6981e-06 0)
(2.99993 1.65055e-05 0)
(2.99985 4.87901e-05 0)
(2.99962 8.44166e-05 0)
(2.99919 0.000272205 0)
(2.99785 0.00038615 0)
(2.99566 0.0015245 0)
(2.98687 0.00142395 0)
(2.97348 0.00850992 0)
(2.91865 0.00433387 0)
(2.79514 0.0452768 0)
(2.45777 0.0396602 0)
(1.47376 0.17389 0)
(0.681851 0.33217 0)
(0.550914 0.308112 0)
(0.65326 0.27968 0)
(0.780498 0.251321 0)
(0.877503 0.242404 0)
(0.936673 0.243891 0)
(0.975889 0.246725 0)
(1.00819 0.247829 0)
(3 4.42412e-08 0)
(3 2.52046e-07 0)
(3 8.52013e-07 0)
(2.99999 2.1719e-06 0)
(2.99998 5.47664e-06 0)
(2.99995 1.22927e-05 0)
(2.99987 2.94706e-05 0)
(2.99972 6.39458e-05 0)
(2.99925 0.000152942 0)
(2.9985 0.000332547 0)
(2.99552 0.000802472 0)
(2.99117 0.00167341 0)
(2.97174 0.00441741 0)
(2.94062 0.00934669 0)
(2.81073 0.0241357 0)
(2.48338 0.0676697 0)
(1.69113 0.153326 0)
(0.725423 0.36836 0)
(0.484902 0.291654 0)
(0.593785 0.229593 0)
(0.740354 0.202484 0)
(0.855766 0.203082 0)
(0.920199 0.21124 0)
(0.957434 0.217629 0)
(0.986591 0.22073 0)
(3 1.4624e-08 0)
(3 1.82845e-07 0)
(3 3.78838e-07 0)
(2.99999 1.47036e-06 0)
(2.99998 2.25035e-06 0)
(2.99995 8.05156e-06 0)
(2.99989 9.79427e-06 0)
(2.99972 4.25953e-05 0)
(2.9994 3.05389e-05 0)
(2.99837 0.000260263 0)
(2.99676 5.16266e-05 0)
(2.98994 0.00188718 0)
(2.98014 2.63464e-05 0)
(2.93617 0.0136044 0)
(2.84845 0.0039619 0)
(2.57426 0.0787762 0)
(1.76041 0.147823 0)
(0.808828 0.403844 0)
(0.422064 0.279924 0)
(0.565946 0.192065 0)
(0.748872 0.168223 0)
(0.879225 0.174794 0)
(0.942554 0.186182 0)
(0.973676 0.194018 0)
(0.996719 0.197934 0)
(3 3.04984e-08 0)
(3 9.93952e-08 0)
(3 5.10473e-07 0)
(2.99999 9.09284e-07 0)
(2.99998 3.29676e-06 0)
(2.99995 4.97049e-06 0)
(2.99989 1.82868e-05 0)
(2.99974 2.35423e-05 0)
(2.99942 0.000104046 0)
(2.99851 8.79283e-05 0)
(2.99689 0.00069925 0)
(2.9911 0.000155423 0)
(2.98225 0.00499112 0)
(2.94483 0.000497379 0)
(2.87155 0.0314966 0)
(2.64585 0.0274766 0)
(1.96079 0.159352 0)
(0.938439 0.358534 0)
(0.428902 0.254984 0)
(0.586861 0.187404 0)
(0.79193 0.170675 0)
(0.926671 0.172676 0)
(0.983044 0.178876 0)
(1.00457 0.183661 0)
(1.01946 0.186113 0)
(3 1.99148e-08 0)
(3 1.13383e-07 0)
(3 3.87171e-07 0)
(2.99999 9.90558e-07 0)
(2.99998 2.54066e-06 0)
(2.99996 5.7826e-06 0)
(2.9999 1.41531e-05 0)
(2.99978 3.17523e-05 0)
(2.99945 7.62627e-05 0)
(2.99885 0.000174113 0)
(2.99679 0.000394286 0)
(2.99363 0.000922629 0)
(2.98024 0.00214649 0)
(2.95913 0.0044246 0)
(2.87534 0.0126908 0)
(2.67579 0.0289804 0)
(2.15652 0.0803563 0)
(0.909265 0.221751 0)
(0.305391 0.191895 0)
(0.51609 0.178985 0)
(0.759494 0.173904 0)
(0.906645 0.172923 0)
(0.968623 0.173701 0)
(0.992619 0.17496 0)
(1.00865 0.175787 0)
(3 1.19725e-08 0)
(3 7.68952e-08 0)
(3 2.40187e-07 0)
(2.99999 6.57435e-07 0)
(2.99998 1.53935e-06 0)
(2.99996 3.71387e-06 0)
(2.99991 8.2107e-06 0)
(2.99978 1.93123e-05 0)
(2.99953 4.24055e-05 0)
(2.99877 9.79203e-05 0)
(2.99751 0.000217425 0)
(2.99258 0.00050716 0)
(2.9853 0.00105538 0)
(2.95423 0.00284324 0)
(2.89464 0.00595408 0)
(2.70633 0.0167047 0)
(2.16067 0.0418589 0)
(1.0354 0.108478 0)
(0.311754 0.160728 0)
(0.50154 0.182976 0)
(0.734081 0.175754 0)
(0.8863 0.166958 0)
(0.95186 0.162081 0)
(0.977959 0.160457 0)
(0.994899 0.160159 0)
(3 6.29389e-09 0)
(3 3.62766e-08 0)
(3 1.21589e-07 0)
(2.99999 3.08609e-07 0)
(2.99998 7.59232e-07 0)
(2.99996 1.65294e-06 0)
(2.99991 3.85833e-06 0)
(2.99981 7.77062e-06 0)
(2.99951 1.93676e-05 0)
(2.99899 3.35036e-05 0)
(2.99713 0.000115354 0)
(2.99434 0.000143594 0)
(2.98229 0.000778724 0)
(2.9635 0.00122832 0)
(2.8881 0.00469402 0)
(2.71087 0.0130081 0)
(2.24354 0.0269715 0)
(1.01085 0.0857001 0)
(0.292137 0.150123 0)
(0.465753 0.181024 0)
(0.693334 0.16896 0)
(0.851059 0.154849 0)
(0.924244 0.146978 0)
(0.955328 0.144075 0)
(0.974691 0.143212 0)
(3 1.88184e-09 0)
(3 1.25606e-08 0)
(3 3.94639e-08 0)
(2.99999 1.13884e-07 0)
(2.99998 2.71021e-07 0)
(2.99996 7.1227e-07 0)
(2.99992 1.60065e-06 0)
(2.99979 4.31564e-06 0)
(2.99955 9.51337e-06 0)
(2.99884 2.76087e-05 0)
(2.9976 5.72895e-05 0)
(2.99315 0.000187712 0)
(2.98623 0.000388317 0)
(2.95779 0.00132407 0)
(2.90555 0.00298018 0)
(2.72778 0.00916185 0)
(2.23022 0.0235719 0)
(1.16715 0.0634321 0)
(0.384381 0.127534 0)
(0.498019 0.157962 0)
(0.686817 0.148497 0)
(0.842788 0.13561 0)
(0.918887 0.127951 0)
(0.951471 0.12487 0)
(0.970296 0.123851 0)
(3 -3.96036e-09 0)
(3 -2.26375e-08 0)
(3 -7.71791e-08 0)
(2.99999 -1.96626e-07 0)
(2.99998 -5.01014e-07 0)
(2.99996 -1.14839e-06 0)
(2.99991 -2.72703e-06 0)
(2.99981 -6.33337e-06 0)
(2.99953 -1.36543e-05 0)
(2.99903 -3.36024e-05 0)
(2.99726 -4.48507e-05 0)
(2.99462 -0.000198745 0)
(2.98329 7.7295e-05 0)
(2.96582 -0.00042034 0)
(2.89549 0.00198392 0)
(2.73081 0.00513721 0)
(2.29608 0.0159138 0)
(1.12464 0.0600207 0)
(0.377363 0.117592 0)
(0.470864 0.139464 0)
(0.65273 0.127816 0)
(0.811476 0.115019 0)
(0.893505 0.107899 0)
(0.930253 0.105035 0)
(0.95127 0.104053 0)
(3 -1.51584e-08 0)
(3 -2.21362e-08 0)
(3 -2.27418e-07 0)
(2.99999 -2.48968e-07 0)
(2.99998 -1.51531e-06 0)
(2.99996 -1.45474e-06 0)
(2.99991 -8.97058e-06 0)
(2.99979 -7.15816e-06 0)
(2.99953 -5.29377e-05 0)
(2.99882 -1.99578e-05 0)
(2.99746 -0.000330179 0)
(2.99326 0.000145573 0)
(2.98603 -0.00185013 0)
(2.9596 0.00300935 0)
(2.91078 -0.00800716 0)
(2.74229 0.0215812 0)
(2.28406 -0.00181457 0)
(1.30117 0.0700507 0)
(0.478354 0.11922 0)
(0.519912 0.122558 0)
(0.667643 0.106435 0)
(0.820994 0.0917196 0)
(0.901806 0.0848041 0)
(0.936382 0.0825214 0)
(0.954278 0.0819942 0)
(3 -3.46032e-09 0)
(3 -2.02996e-08 0)
(3 -6.61683e-08 0)
(2.99999 -1.65505e-07 0)
(2.99998 -3.82807e-07 0)
(2.99996 -8.20387e-07 0)
(2.99991 -1.67253e-06 0)
(2.99978 -3.4176e-06 0)
(2.99952 -5.88278e-06 0)
(2.9988 -1.14785e-05 0)
(2.99741 -8.06052e-06 0)
(2.9933 -2.45951e-05 0)
(2.98591 0.000161627 0)
(2.96057 0.000143819 0)
(2.9129 0.00208301 0)
(2.75208 0.00473516 0)
(2.31022 0.0181187 0)
(1.37353 0.046695 0)
(0.522581 0.0998789 0)
(0.532706 0.0968948 0)
(0.670252 0.087851 0)
(0.819741 0.0755893 0)
(0.902757 0.0692864 0)
(0.937074 0.0670092 0)
(0.952864 0.0664496 0)
(3 1.21433e-09 0)
(3 6.36821e-09 0)
(3 2.40512e-08 0)
(2.99999 6.34778e-08 0)
(2.99998 1.91431e-07 0)
(2.99996 4.68916e-07 0)
(2.99991 1.33388e-06 0)
(2.99978 3.1395e-06 0)
(2.99952 8.6161e-06 0)
(2.99882 1.95351e-05 0)
(2.99745 5.28214e-05 0)
(2.99341 0.000115931 0)
(2.98617 0.0003184 0)
(2.96133 0.000678391 0)
(2.9152 0.00189748 0)
(2.7577 0.00458318 0)
(2.32822 0.0128931 0)
(1.40812 0.031999 0)
(0.545721 0.0749528 0)
(0.532168 0.0740884 0)
(0.664052 0.0689166 0)
(0.810886 0.0601096 0)
(0.8944 0.0543265 0)
(0.927955 0.0516822 0)
(0.941967 0.0511217 0)
(3 5.6164e-09 0)
(3 3.13313e-08 0)
(3 1.08957e-07 0)
(2.99999 2.79442e-07 0)
(2.99998 7.3926e-07 0)
(2.99996 1.70828e-06 0)
(2.99991 4.26563e-06 0)
(2.99979 9.59395e-06 0)
(2.99953 2.31369e-05 0)
(2.99884 5.09428e-05 0)
(2.99749 0.00011571 0)
(2.99353 0.000266457 0)
(2.9864 0.000488014 0)
(2.96197 0.00131355 0)
(2.91668 0.00175681 0)
(2.76181 0.0048507 0)
(2.3405 0.00792759 0)
(1.43791 0.0186637 0)
(0.570974 0.0504369 0)
(0.5395 0.0549774 0)
(0.664469 0.0546834 0)
(0.806403 0.0487999 0)
(0.888436 0.0427137 0)
(0.920457 0.0386293 0)
(0.93219 0.0370609 0)
(3 1.54789e-08 0)
(3 2.87458e-08 0)
(3 2.4143e-07 0)
(2.99999 3.24725e-07 0)
(2.99998 1.69624e-06 0)
(2.99996 2.18043e-06 0)
(2.99992 1.07588e-05 0)
(2.9998 1.2839e-05 0)
(2.99956 6.72923e-05 0)
(2.99889 5.70735e-05 0)
(2.99763 0.00042783 0)
(2.99372 0.0001048 0)
(2.9871 0.00238318 0)
(2.96244 -0.00121254 0)
(2.91866 0.0118223 0)
(2.76249 -0.0112915 0)
(2.34638 0.0299428 0)
(1.43592 -0.00437873 0)
(0.584803 0.019864 0)
(0.54732 0.028044 0)
(0.667412 0.0339973 0)
(0.803646 0.0347214 0)
(0.882912 0.0326112 0)
(0.913934 0.0304908 0)
(0.924906 0.0298516 0)
(3 2.26277e-09 0)
(3 1.2811e-08 0)
(3 4.33005e-08 0)
(2.99999 1.10138e-07 0)
(2.99998 2.75343e-07 0)
(2.99997 6.13377e-07 0)
(2.99992 1.42511e-06 0)
(2.99983 3.03829e-06 0)
(2.99957 6.82505e-06 0)
(2.99913 1.41497e-05 0)
(2.99752 3.09445e-05 0)
(2.99521 6.18496e-05 0)
(2.98515 0.000133305 0)
(2.97021 0.000255281 0)
(2.90731 0.000578487 0)
(2.76521 0.00107436 0)
(2.38112 0.00311494 0)
(1.32074 0.00819048 0)
(0.539546 0.0193493 0)
(0.487215 0.0205595 0)
(0.61166 0.0203133 0)
(0.752316 0.0181996 0)
(0.833825 0.0165122 0)
(0.868185 0.0159494 0)
(0.884169 0.0163897 0)
(3 -9.1191e-09 0)
(3 6.98978e-09 0)
(3 -1.1836e-07 0)
(2.99999 -1.0037e-08 0)
(2.99998 -8.80374e-07 0)
(2.99996 -3.17117e-07 0)
(2.99992 -6.21887e-06 0)
(2.9998 -2.76767e-06 0)
(2.99957 -4.35959e-05 0)
(2.99891 -5.5149e-06 0)
(2.99767 -0.000313903 0)
(2.99381 0.000155641 0)
(2.98726 -0.00193174 0)
(2.96282 0.0024499 0)
(2.91937 -0.0103979 0)
(2.7647 0.0153137 0)
(2.3532 -0.0244314 0)
(1.45415 0.0173285 0)
(0.603967 0.0174661 0)
(0.555076 0.0151139 0)
(0.667783 0.0104443 0)
(0.797784 0.00487051 0)
(0.873481 0.000871558 0)
(0.900874 -0.00175559 0)
(0.907958 -0.00360196 0)
(1.06669 1.12143 0)
(1.22871 1.0147 0)
(0.921803 0.861015 0)
(0.146039 0.584368 0)
(-0.319286 0.0238117 0)
(-0.372624 -0.00618973 0)
(-0.530951 -0.0235116 0)
(-0.640391 -0.0222704 0)
(-0.698784 -0.0116479 0)
(-0.723564 0.00263503 0)
(-0.732691 0.0178771 0)
(-0.736598 0.0270796 0)
(-0.742076 0.0322401 0)
(-0.751519 0.0339268 0)
(-0.760982 0.0338146 0)
(-0.764965 0.0314155 0)
(-0.763425 0.0274008 0)
(-0.756438 0.023408 0)
(-0.745812 0.0206569 0)
(-0.731827 0.0188387 0)
(-0.714795 0.0174694 0)
(-0.69449 0.0161051 0)
(-0.670663 0.0145762 0)
(-0.643321 0.0128449 0)
(-0.612664 0.0108373 0)
(-0.579389 0.00844564 0)
(-0.543788 0.00551485 0)
(-0.50564 0.00189389 0)
(-0.464867 -0.00222746 0)
(-0.421959 -0.00608301 0)
(-0.377682 -0.00953414 0)
(-0.332561 -0.0125688 0)
(-0.287185 -0.0152626 0)
(-0.241279 -0.0178495 0)
(-0.195259 -0.0203167 0)
(-0.149078 -0.0227159 0)
(-0.102643 -0.025045 0)
(-0.0562301 -0.0276642 0)
(-0.00938296 -0.0311536 0)
(0.0446007 -0.0343431 0)
(0.0895395 -0.0344341 0)
(0.129353 -0.0330986 0)
(0.16981 -0.0315828 0)
(0.211116 -0.0304001 0)
(0.251948 -0.0293283 0)
(0.292393 -0.0284245 0)
(0.331482 -0.0273633 0)
(0.36861 -0.0262246 0)
(0.404715 -0.0253756 0)
(0.442787 -0.0251691 0)
(0.481475 -0.024955 0)
(0.518967 -0.0241988 0)
(0.555051 -0.0230799 0)
(0.590371 -0.0220225 0)
(0.624893 -0.0210315 0)
(0.658847 -0.0201311 0)