/*--------------------------------*- C++ -*----------------------------------*\
  =========                 |
  \\      /  F ield         | OpenFOAM: The Open Source CFD Toolbox
   \\    /   O peration     | Website:  https://openfoam.org
    \\  /    A nd           | Version:  6
     \\/     M anipulation  |
\*---------------------------------------------------------------------------*/
FoamFile
{
    version     2.0;
    format      ascii;
    class       volScalarField;
    location    "89";
    object      p;
}
// * * * * * * * * * * * * * * * * * * * * * * * * * * * * * * * * * * * * * //

dimensions      [0 2 -2 0 0 0 0];

internalField   nonuniform List<scalar> 
918
(
0.532057
1.2186
0.00693712
0.531967
-0.011697
1.18542
-0.508067
0.626062
0.51321
-0.123164
-0.0866591
0.515325
1.04316
0.810345
-1.17177
-0.0256136
0.626898
-0.420174
0.511278
-0.0915793
0.639527
0.519883
0.522348
0.513133
0.574792
0.762822
0.920806
-0.00326615
0.011629
0.00643597
-0.0131017
-0.0337071
-0.0310836
1.06854
1.12043
1.14381
0.479698
0.311838
-0.403282
-0.458608
-0.434856
-0.524053
0.626562
0.627666
-0.233214
0.625535
0.624497
0.498888
0.512604
0.513441
0.514562
0.513473
0.514751
0.405485
-0.130404
-0.157623
-0.107938
-0.107026
0.0201519
-0.0878595
-0.088913
-0.0852664
-0.086934
0.428673
0.510086
0.506717
0.519594
0.528721
1.15877
1.13269
1.15894
1.06829
1.08622
1.02025
0.993376
0.831499
0.854911
0.793608
0.779918
-1.62388
-2.56419
-0.598277
-0.324997
-0.0108428
-0.0273286
-0.0262818
0.622817
0.62506
0.624594
0.627635
1.03233
-0.391953
-0.464721
0.51182
0.510347
0.519405
0.520309
0.515276
0.515273
-0.0889388
-0.0887527
-0.0743764
-0.0884859
-0.0859282
0.61884
0.62111
0.512568
0.510009
0.536494
0.55943
0.547608
0.245364
0.585072
0.601146
0.627442
0.773187
0.759817
0.772369
0.896082
0.86416
0.952808
0.97477
0.0141703
-0.00179605
-0.0269455
-0.0241062
-0.0249953
0.475435
0.468993
0.497271
0.483322
0.486366
0.217972
0.068974
0.393347
0.416469
-0.32768
-0.378535
-0.461411
-0.459743
-0.567475
0.59779
0.629061
0.62863
-0.244466
-0.171774
-0.300155
-0.11394
-0.171662
0.489827
0.496087
0.492157
0.507558
0.50172
0.504147
0.516673
0.513857
0.515451
0.453943
0.579358
0.330003
0.28713
-0.279631
-0.175615
-0.260008
-0.0996251
-0.0985205
0.0320085
0.0659397
0.00778737
-0.00289368
-0.0930775
-0.0903729
-0.0922592
-0.0862428
-0.0866292
0.420104
0.407009
0.439941
0.447478
0.496618
0.49798
0.50266
0.500565
0.94519
0.968244
0.973532
0.949427
-3.53456
-6.1526
0.0153104
0.172605
-0.0102417
-0.0118152
-0.000539619
-0.0104237
-0.00133293
-0.0029979
-0.0373716
-0.0369698
-0.0297504
-0.0312714
0.620267
0.621328
0.998531
1.02594
0.971363
0.946251
0.501194
0.50306
0.507677
0.504561
-0.0873811
-0.0875913
-0.0879395
0.623288
0.621707
0.622421
0.203804
0.114582
0.297325
0.328665
0.616613
0.606033
0.615659
0.687383
0.72665
0.991666
1.01452
0.999462
1.01133
1.06169
1.0846
1.04983
0.453974
0.464919
0.459177
0.500072
0.497924
0.498853
0.495518
0.496412
0.495085
-0.0416592
-0.4109
0.464862
0.466059
0.458825
0.461239
0.684834
0.768538
0.626257
0.628018
0.628887
-0.0619268
-0.109117
0.233929
0.196352
0.358912
0.393708
0.375415
0.920042
0.879575
0.927866
0.903026
0.867655
0.892008
-0.346337
-2.10146
-1.10022
0.569129
0.373776
0.464747
-0.0194724
-0.0370131
-0.0328405
1.01566
1.05503
0.642987
0.836363
0.788765
0.749246
0.775594
0.838742
0.771423
0.806083
0.836295
0.812008
0.546755
0.475445
0.494055
0.843479
0.898619
0.0765971
-0.00317034
-0.0260517
0.0898587
0.154437
0.124455
1.03164
0.950906
1.01257
0.510251
0.511205
-0.0210909
-0.0472123
0.515323
0.515034
-0.0238294
-0.0150233
0.479956
-0.937828
0.0773891
0.504878
0.494463
0.511323
-0.104642
0.306763
-0.0890446
-0.00115349
-0.0304677
0.505574
0.441051
0.398648
-0.0105448
-0.0354927
-0.0846415
-0.215705
0.50799
0.506347
0.510713
0.511529
0.512309
-0.0311915
-0.031025
-0.0212416
-0.0752042
-0.0678573
-0.0808322
0.474567
0.494638
-0.19904
0.511008
0.513114
0.512806
0.507048
0.511966
0.510611
-0.0270953
-0.029852
-0.0320475
0.183371
0.325595
0.662404
0.736641
0.611733
0.446041
0.156799
0.600022
0.651487
0.577098
0.707475
0.626802
0.623821
0.144435
0.000427425
0.148744
0.0816822
0.501694
0.501157
0.491979
0.488853
0.506167
0.503846
0.509038
0.506298
0.509466
0.510604
-0.0592897
-0.0874517
-0.104666
-0.147576
0.274521
0.535013
0.216203
0.279883
0.139443
-0.0830367
-0.0824897
-0.0841289
-0.088571
-0.0501115
-0.0497748
-0.00595745
0.00451535
-0.0114186
-0.0374597
-0.0584541
-0.050015
-0.0591195
0.498812
0.499128
0.504271
0.513287
0.450712
0.454414
0.420726
0.439449
0.425613
0.365539
0.395269
0.372362
-0.0212297
-0.0123777
-0.0129042
-0.0368009
-0.0361404
-0.0576991
-0.0501029
-0.0487641
-0.0457408
-0.0503983
-0.0775567
-0.0841327
-0.179905
-0.300365
0.94336
0.884127
0.13264
0.497874
0.503552
0.500714
0.505473
0.508665
0.50929
0.506853
0.503341
0.494768
0.496416
0.492905
0.494013
-0.136207
-0.246288
-0.0783256
-0.15535
0.140767
0.608046
0.332721
0.27729
0.262515
0.490952
0.679832
0.586249
0.639516
0.609954
-0.400829
-0.00487314
-0.336356
0.208254
0.205165
0.689679
0.731211
0.748577
0.705621
0.662129
-0.0277759
0.539003
-0.0831237
-0.0310322
0.161557
0.0422715
0.59429
0.612726
0.620111
0.615637
0.620649
0.620684
0.610127
0.597696
0.620863
0.624164
0.483674
0.211588
0.167995
0.122089
0.61182
0.505545
0.555926
0.474586
0.49734
0.499769
0.498745
0.479369
0.486732
0.48239
0.489622
0.493255
0.500646
0.500823
0.496611
0.498573
-0.0801127
-0.0890832
-0.0664107
-0.129215
-0.133619
-0.177724
-0.0863727
0.0894665
0.0363789
0.224062
0.332179
0.0662276
-0.0562268
-0.0377775
0.0130563
0.173611
0.172037
0.0458628
0.145598
0.120001
0.102081
0.215781
0.216076
-0.0569672
-0.0643734
-0.0629106
-0.0691003
-0.025648
0.0964107
0.070746
-0.03752
-0.0432787
-0.0803801
-0.0832558
-0.00157576
-0.0456041
-0.0375817
-0.00741148
-0.0649575
-0.0394042
-0.0301336
-0.0397875
-0.0391322
-0.0384916
0.493902
0.495676
0.495906
0.505609
0.517383
0.532269
0.498212
0.47196
0.462978
0.466074
0.439097
0.448343
0.443635
0.459497
0.481099
0.489392
0.48761
0.490309
0.472342
0.473985
0.45943
0.464078
0.433234
0.414359
0.40413
-0.0609232
-0.028163
-0.041909
-0.0534434
-0.0281437
-0.0372789
-0.0387403
-0.0194788
-0.039255
-0.0340365
-0.044003
-0.049748
-0.0504266
-0.0823492
0.000469016
-0.184773
-0.233028
-0.286561
0.867922
1.00755
0.791232
0.553571
0.571232
0.813876
0.922025
0.522712
0.737871
0.750441
0.564604
0.855208
0.501842
0.501417
0.499268
0.498432
0.499446
-0.0236445
0.0799552
0.0899382
0.150367
0.264925
0.369651
0.305384
0.191009
0.323215
0.348272
0.604245
0.610043
0.568872
0.592398
0.59439
0.400045
0.480613
0.518254
0.476058
0.549066
0.583003
0.529213
0.571929
0.492986
0.443179
0.434494
0.389255
0.423958
0.404959
0.379328
0.493668
0.470464
0.481312
0.471468
0.493567
0.518953
0.519172
0.540701
0.557868
0.472008
0.417644
0.434618
0.46364
0.419579
0.437311
0.45937
0.180339
0.0819809
0.244669
-0.0828166
0.000676631
0.0421229
-0.00170196
-0.0425535
0.264041
-0.371585
-0.318043
-0.991933
0.488183
0.817749
0.53813
0.549997
0.618895
0.607416
0.615775
0.614824
0.620523
0.599576
0.610258
0.614769
0.582208
0.603745
0.591573
0.6011
0.487116
0.387609
0.390913
0.322139
0.182781
0.22487
0.416819
0.347825
0.272587
0.264676
0.441615
0.30646
0.386368
0.435566
0.358893
0.294786
0.521489
0.568927
0.56133
0.534169
0.412173
0.445254
0.445841
0.495941
0.539574
0.563199
0.488175
0.494473
0.495381
0.492653
0.491027
0.494146
0.494423
0.496735
0.496876
0.499474
0.498973
-0.079182
-0.0652566
-0.077925
-0.0865704
-0.0249072
-0.0336129
-0.00155955
-0.0277374
-0.036793
-0.0307745
-0.0470662
-0.0628857
-0.061931
-0.0529333
0.0698043
0.0830985
0.0940635
0.0514675
0.25134
0.390238
0.473087
0.357543
0.202911
0.230045
0.294805
0.0215784
0.00317784
-0.00877888
0.0616403
0.0539878
-0.0698133
-0.0748205
-0.0705873
-0.0570358
-0.0503269
-0.0739357
-0.0799582
-0.0695731
-0.0755131
-0.081346
-0.0851423
0.473631
0.466561
0.470095
0.462574
0.460751
0.477622
0.482264
0.48329
0.488908
0.491512
0.480973
0.486748
0.490958
-0.0405923
-0.0578962
-0.0572994
-0.0622838
-0.0579506
-0.0556384
-0.0596359
0.118123
0.02589
0.0613775
-0.00941202
-0.136158
-0.0767689
0.491938
0.484098
0.471188
0.710035
0.545948
0.465139
0.564011
0.684958
0.2653
0.464003
0.299827
0.874362
0.782662
0.927481
0.54313
0.246693
0.419079
0.426138
0.2674
0.392576
0.330268
0.206674
0.241911
0.277657
0.361287
0.245505
0.225071
-0.0180435
0.164339
0.272952
0.254911
0.380839
0.436765
0.257464
0.172819
0.118737
0.58566
0.602162
0.610678
0.581827
0.602607
0.560417
0.552305
0.569662
0.579848
0.572673
-0.626249
-0.215033
-1.41427
-0.83245
-0.38065
0.516072
0.520879
0.73826
0.638138
0.642788
0.6249
0.575732
0.553843
0.590307
0.600494
0.311901
0.396133
0.384416
0.35895
0.305618
0.248156
0.518398
0.529716
0.549129
0.578188
0.556082
0.584008
0.486952
0.486797
0.485453
0.481707
0.480202
0.483486
0.0172416
-0.0070129
0.0297535
0.0217524
-0.00319487
-0.0113847
-0.0491424
-0.0604925
-0.0616906
-0.0574712
-0.0461406
-0.0445409
0.165594
0.102682
0.0144718
0.0555759
-0.0109051
-0.0930109
-0.0955943
-0.00416191
0.0961514
0.077425
0.379332
0.645778
0.472258
0.636514
0.437317
0.533607
0.453791
0.427327
0.454238
0.360974
0.451834
0.0534837
-0.149391
-0.204063
0.809753
0.773432
0.551344
0.311464
0.189722
0.477945
0.501277
0.462235
0.488968
0.537052
0.52231
0.0217359
0.105796
0.198457
0.502369
0.273961
0.293475
0.283137
0.451123
0.418883
)
;

boundaryField
{
    wall-4
    {
        type            zeroGradient;
    }
    velocity-inlet-5
    {
        type            zeroGradient;
    }
    velocity-inlet-6
    {
        type            zeroGradient;
    }
    pressure-outlet-7
    {
        type            fixedValue;
        value           uniform 0;
    }
    wall-8
    {
        type            zeroGradient;
    }
    frontAndBackPlanes
    {
        type            empty;
    }
}


// ************************************************************************* //
