/*--------------------------------*- C++ -*----------------------------------*\
  =========                 |
  \\      /  F ield         | OpenFOAM: The Open Source CFD Toolbox
   \\    /   O peration     | Website:  https://openfoam.org
    \\  /    A nd           | Version:  6
     \\/     M anipulation  |
\*---------------------------------------------------------------------------*/
FoamFile
{
    version     2.0;
    format      ascii;
    class       surfaceScalarField;
    location    "89";
    object      phi;
}
// * * * * * * * * * * * * * * * * * * * * * * * * * * * * * * * * * * * * * //

dimensions      [0 3 -1 0 0 0 0];

internalField   nonuniform List<scalar> 
1300
(
3.75095
5.62643
-3.31821
3.75095
-7.7528
5.62643
-4.28859
4.28859
-0.385615
0.385615
1.8765
1.87445
-2.42941
2.42941
-1.69057
1.69057
-2.52467
2.52467
-5.24822
5.24822
-5.06889
5.06889
4.69412
-4.69412
-6.34191
6.34191
-0.962913
0.962913
-3.58089
3.58089
3.17237
-3.17237
-1.77169
1.77169
0.117235
-0.117235
-0.55408
4.30503
3.19687
3.19687
-1.98771
1.98771
-4.87519
4.87519
6.22201
-6.22201
5.21537
-5.21537
-1.89715
-2.52603
1.79045
-11.4539
-5.96235
-5.96235
-8.44087
8.44087
-2.81444
2.81199
2.94734
-2.94734
-1.71662
1.71662
-4.30759
0.018999
-4.30759
4.25738
0.0312168
4.25738
-0.498763
0.113148
-0.498763
3.96369
-3.96369
0.283184
0.102431
0.283184
3.06734
-3.06734
-1.87685
3.75335
1.8741
-1.8721
6.17713
-1.87886
3.75331
-6.04536
6.04536
-2.67827
0.248859
-2.67827
2.19687
0.232545
2.19687
-6.90412
6.90412
-1.77016
0.0795925
-1.77016
1.68802
0.00254882
1.68802
2.88869
-2.88869
-2.62422
0.099552
-2.62422
2.39155
0.133121
2.39155
0.353041
5.27339
-5.97947
8.79146
-5.27339
0.0251692
5.21032
0.0378997
5.21032
-5.10545
0.0365576
-5.10545
5.01381
0.0550872
5.01381
4.78115
-0.0870301
4.78115
-4.81545
0.121332
-4.81545
-3.35684
-4.08455
-6.50383
0.161926
-6.50383
-1.03492
0.072003
-1.03492
0.859083
0.10383
0.859083
-3.72853
3.72853
-3.94111
0.360218
-3.94111
3.12732
0.0450513
3.12732
1.86812
1.88284
5.61907
-5.61907
2.4467
-1.68958
-0.0821135
-1.68958
-1.86929
-3.34608
1.86929
-0.0975933
-0.11009
0.227325
-0.11009
3.15713
0.0397419
3.15713
2.23553
0.156023
-2.23553
0.247821
3.30369
-3.30369
1.32862
0.659085
1.32862
-5.55862
5.55862
4.96224
0.0515624
-4.96224
0.0870565
6.15675
0.0652574
6.15675
-6.20715
-0.0148568
-6.20715
2.48017
-5.00619
-2.68551
6.15251
0.189402
-6.15251
0.190154
2.91894
0.0284001
2.91894
-2.91776
2.91776
-2.98431
0.036962
-2.98431
-2.13904
0.422419
-2.13904
1.40286
0.313759
1.40286
-4.22382
-0.0837767
-4.22382
-4.10083
0.159719
4.10083
0.156547
1.11861
-1.11861
-0.607017
0.108254
-0.607017
-4.07074
-0.153073
4.07074
-0.107056
-3.90152
-0.0621635
-3.90152
-3.02197
0.0376642
3.02197
0.0453659
3.11213
0.0449994
-3.11213
0.0447951
-1.87099
3.75383
-1.87996
3.75406
-5.67975
-0.365609
-5.67975
6.36688
-0.32152
6.36688
3.10286
0.478037
-3.10286
0.424585
2.00999
0.186877
2.00999
-6.87556
-0.0285597
-6.87556
6.91093
-0.00681602
6.91093
1.87171
0.138278
-1.87171
0.10155
1.68078
0.00723932
1.68078
2.91651
-0.0278256
2.91651
-2.88221
-0.00647823
-2.88221
2.78906
-2.78906
2.71381
0.0752501
-2.71381
0.0895825
-11.1244
11.1096
-0.0361875
-11.0882
5.17413
5.17413
4.2335
0.547646
4.2335
-5.01337
0.197923
-5.01337
2.66802
-5.35353
3.12709
-6.48393
4.67338
-16.1273
4.28014
-8.36469
6.75681
-6.75681
6.63722
0.119592
-6.63722
0.133384
-1.14023
0.105311
-1.14023
-3.13146
-0.597066
-3.13146
4.36844
-0.639915
4.36844
-3.0274
3.0274
-3.07622
0.0488229
3.07622
0.0510922
1.66676
0.0140194
-1.66676
-0.0228196
0.184483
0.0987006
-0.184483
0.0743933
3.52756
-0.223867
3.52756
-3.09814
-0.205548
-3.09814
-1.23731
0.0970845
1.23731
0.0913105
-5.80741
0.248794
-5.80741
-11.1822
0.0939387
-11.1443
-6.11322
-6.11322
2.32766
11.1191
-2.89738
0.015174
2.89738
0.0215619
2.97453
0.0528694
-2.97453
0.0567714
-2.85589
0.0668385
2.85589
0.0618659
-2.50676
0.367716
-2.50676
-1.02017
1.02017
-1.1663
0.146139
1.1663
0.23656
1.42159
-0.302974
1.42159
0.746098
0.112985
-0.746098
0.139081
-3.84471
-0.0568108
-3.84471
6.60264
-0.235761
6.60264
-2.96868
-0.129458
2.96868
-0.0521719
-0.0347619
11.1443
-5.13937
0.0339197
5.13937
-11.2096
11.2435
-3.21155
0.704791
3.21155
1.02195
5.28371
0.274904
-5.28371
0.270341
6.84948
0.0614528
-6.84948
0.0926702
-2.64111
-0.490352
-2.64111
-5.09294
-0.586813
5.09294
-0.724499
-11.4823
-0.202206
11.6845
-11.4272
6.00962
0.147136
-6.00962
11.3907
-0.992713
-0.1259
0.992713
0.0274532
1.76211
-0.340522
1.76211
3.74712
-0.219563
-3.74712
-0.0975942
-6.76543
-0.110124
6.76543
-0.162792
-2.19113
-0.449979
2.19113
-0.429019
-4.26739
4.30713
1.90974
-2.31566
-2.69053
-5.66174
1.85529
1.89854
4.302
-10.1399
-5.98743
-9.9497
7.21483
-6.94449
-9.31601
9.22898
7.94786
-8.01003
-5.77728
5.82837
6.48481
-6.43944
1.87948
1.87387
8.07996
-7.83111
-15.683
15.3174
7.64714
-7.56755
15.818
-15.8466
-17.8519
17.9134
-5.70715
5.8067
-6.7431
6.73662
-6.98006
6.92788
-2.79409
-3.68984
13.1094
-12.9475
8.6464
-8.72851
-8.68823
9.04845
3.38462
0.922516
3.42962
-1.88178
3.76126
-1.87153
3.78127
2.7839
-5.57799
2.56963
-5.26016
4.41267
4.23372
-4.31508
-1.34666
-5.92887
5.95727
-5.80955
5.87141
9.19794
-9.17894
-1.88498
3.75885
-1.86908
3.76762
-3.42284
-2.35443
3.37779
0.924202
8.0576
5.05179
-8.247
-1.7027
-8.0338
7.81423
-8.21799
8.01245
-0.436153
5.83849
-5.40233
4.43903
-1.65352
7.49201
5.56131
5.75923
5.8607
-5.58579
1.08379
-6.48612
-6.39907
-2.21227
2.32052
2.07384
-1.97141
6.15944
1.78842
6.05238
-5.81463
-2.19539
-5.87145
3.81968
2.00869
3.8685
4.08225
2.40256
4.11991
3.02945
-3.03685
0.0073993
-3.0594
6.08884
0.722009
-5.41383
-4.48963
4.99317
3.0868
5.22571
-5.59676
-2.23434
-5.17218
-9.5631
-6.11992
-10.1499
10.1649
5.1525
9.84339
-11.9489
11.7861
4.88754
2.7596
4.89009
-4.97979
-2.58776
-4.87824
11.6662
-2.65821
-9.00795
-10.3256
-7.52628
10.3324
5.48558
10.9639
6.9494
11.0566
4.41972
7.24645
-9.9053
2.37901
-3.86682
-1.84033
-3.77724
3.6648
2.14189
3.79792
-4.2189
-2.5242
-4.20373
-4.29524
-2.68482
4.32306
2.41356
-4.41772
-3.80028
4.54718
2.38071
4.06123
-10.0487
4.30346
-7.9933
-9.19539
-3.75208
-9.062
3.58548
2.59649
-6.18197
-1.9925
8.59933
-4.36561
7.25266
-5.22155
-3.50696
-5.24437
-6.97927
-1.70897
-6.81955
-8.91309
8.42274
-9.1975
8.55759
12.4947
-5.63188
-6.86282
-3.96704
-2.4724
3.92225
-0.492627
-3.71005
3.71745
0.051209
3.83248
4.755
4.26237
-3.88268
-1.92686
-3.82591
3.822
2.04941
3.88884
6.86408
2.33386
6.89529
-6.62962
-2.54932
-6.71339
9.08514
-8.66273
2.78851
-2.69143
5.38036
2.63208
-5.1565
-2.8773
6.23031
-3.20863
-3.02168
-12.3501
10.7835
1.56668
-4.85813
-0.419098
-0.536333
-5.56467
-3.75134
5.44334
0.315893
11.0993
7.348
-5.51471
5.7635
6.16979
6.22136
-0.17771
5.8786
-5.17381
5.27446
-2.73479
-2.53967
5.48816
-5.64123
-1.22524
-5.56704
4.3418
0.411153
1.45009
-1.22276
-1.74524
-0.467026
-1.60616
1.11141
0.96243
1.21011
0.961475
1.35904
-2.94525
0.499216
2.44604
-1.98378
-1.47219
-3.82178
-1.14304
4.96482
5.73929
2.07494
-5.6417
-0.229747
2.5499
-2.44607
-0.839479
-2.9823
2.22244
-3.06192
-3.46249
-1.95416
5.41665
-3.36873
-0.457178
3.31586
0.552637
-3.82825
-2.10062
3.79128
0.328629
-3.12907
6.19038
-3.06131
-5.05594
2.529
3.55984
4.53769
-4.7899
2.44929
2.3406
-1.23006
4.2574
0.968316
4.44427
-7.07307
4.83872
5.74303
3.30542
-6.22107
1.04889
-6.02417
8.56561
-7.41018
-1.15544
4.11841
4.44721
7.00476
5.48993
-5.68823
12.693
-1.18041
-6.22977
7.20458
-3.89916
4.87589
-8.77505
-10.3658
4.13605
-9.19126
11.0828
-1.89151
-3.59149
-8.35742
12.7827
-1.25021
-11.5325
8.59318
-4.35651
-4.43083
8.78734
-7.01472
7.0186
-1.98971
-5.02888
-10.1523
-5.69429
10.2624
1.52371
-9.96888
12.3479
-2.72244
4.16772
0.722371
4.17496
3.37428
-5.47005
2.09577
3.64044
-5.63015
2.04965
-7.5197
-6.7543
12.0964
-5.34208
-10.5064
-9.54104
-0.965337
2.54762
9.80028
-9.49702
7.42684
2.07018
3.29782
0.591026
-3.37307
-0.404169
0.23188
4.50838
-4.74026
4.0298
4.18583
3.21855
1.28983
3.84952
2.10775
-3.87108
-0.332648
-4.16862
1.4838
-1.75506
-3.69354
5.17735
-4.06187
0.368329
-2.74148
-3.49254
6.23401
-4.58181
3.0358
3.15458
5.08521
-4.91445
1.42192
-2.39094
-2.52351
2.63995
-4.39501
2.00144
3.1759
4.38215
0.581873
5.91608
6.18029
-8.51257
0.519269
11.2321
-9.52939
2.47977
8.57685
-9.9066
0.365559
-8.69644
0.978695
-5.3443
-5.20328
5.23518
-6.94415
-3.53986
6.26047
0.634821
-6.41702
-0.402529
-6.0555
-2.8576
-6.50547
-3.04336
-6.15414
-8.73159
-1.67153
-7.06006
6.75121
-6.69886
-3.45105
7.42336
1.13423
-7.4685
7.3426
-7.52568
7.18516
0.0951028
3.62234
4.35747
1.88507
-2.39229
4.27735
-5.08356
7.41742
-8.76843
3.68488
4.25462
-6.80394
-4.51381
5.0482
4.03695
5.36196
8.90703
-10.355
1.44799
-10.6244
11.9657
-1.34123
-16.3958
5.77134
-7.48875
2.41097
0.377548
2.51628
0.542069
2.50254
-3.04461
-2.14936
-2.05805
-2.44677
-3.49288
5.93966
1.05896
-3.47733
2.41838
-3.5642
4.62316
-0.0841872
-3.39315
5.18473
-2.68219
5.56228
-3.64839
1.91389
3.54812
5.83992
-2.2918
4.41916
-1.78707
1.95103
-4.24283
-1.54186
-2.95377
5.09566
-3.28024
3.64857
-0.355401
4.00398
-4.04044
0.831811
-0.821885
3.36394
3.61176
4.33063
-3.0408
2.93388
-4.72095
-1.30895
-4.13908
-0.963177
-0.180891
-3.77251
3.9534
5.99078
-6.17168
-5.27537
9.51242
-4.23705
7.69178
-5.4326
-2.25918
-4.28189
-4.38084
3.91417
1.96443
9.65621
0.177887
-5.61049
-4.99592
-3.97397
3.08539
2.18906
-1.70673
3.27341
2.24306
-0.792972
0.399903
0.810206
1.75867
-1.35877
0.338164
1.42051
-0.884599
1.68362
0.86628
-1.79661
0.190448
-1.36124
3.58368
1.0848
-2.04723
0.688456
0.891916
-3.62671
5.10895
-2.7383
-2.37065
6.00086
1.14949
-3.88778
4.41755
-4.0064
2.45822
-3.60126
-1.42956
-5.43596
-3.64754
-2.48022
4.8986
-3.45944
5.53438
1.43611
-5.30463
6.74074
-3.62928
1.67511
-3.04998
3.91626
-0.993879
-2.0561
2.87475
2.5419
-3.14385
0.161543
-0.269097
2.41769
-2.68679
-0.644225
-2.628
-4.57619
4.90482
-2.10372
4.55302
2.17363
-1.91782
6.47083
1.80754
-3.72536
-3.2484
-3.70558
-1.38475
3.15294
-0.56903
-4.30921
-5.59791
4.17093
0.273342
-7.08956
7.93675
-0.84719
-4.00276
-0.835959
4.95437
-6.0992
0.469053
-4.04955
3.8872
4.85552
5.12886
-11.3008
-0.231779
-6.14825
1.08861
-7.23686
5.53581
-3.50728
7.64333
-10.3199
6.86889
-9.18572
6.48789
-0.748971
6.23564
-4.13987
2.77231
-8.4666
-6.94289
5.59869
-2.83909
6.32106
-3.22582
9.54688
-5.94825
5.3811
4.16578
-1.05408
-4.19029
-5.37978
4.32571
0.00131943
4.17627
4.98719
-2.87944
4.65454
2.26467
-4.65561
-2.13034
-6.48886
1.83325
-3.33429
-1.92265
3.7559
3.16257
3.75359
1.23238
-3.34942
7.25704
-8.22238
-1.91497
-3.28831
5.37185
-1.04615
3.4794
-6.76772
-1.8649
4.7347
-0.721145
-4.01356
0.897181
-4.43704
1.67415
-6.1112
5.27
-5.67253
2.25446
-9.74321
-5.21403
-5.18658
-2.27762
-5.24806
-7.5629
5.28527
-1.79156
5.55104
-8.49703
7.77589
-3.46864
8.75391
-5.45227
-1.05321
5.88129
1.30387
10.0578
0.16802
-4.68183
-1.94228
3.71651
-1.77423
1.14311
-3.60449
0.112025
2.49877
3.5021
-6.84057
0.0366237
-4.64521
-3.90502
7.94197
5.6074
11.5982
1.24317
9.12601
-1.18404
10.3692
4.17792
4.41448
-2.9982
4.44619
0.9552
4.64008
-0.894025
2.80791
1.62225
1.69425
0.751817
2.29623
1.31553
3.12804
0.0834337
-1.97462
4.62892
-8.60289
-0.981574
-8.05524
1.17374
5.43337
-4.25963
2.84825
-0.659183
1.07401
-0.202443
-1.12503
1.32747
-2.74211
-1.918
-0.497489
-1.67702
2.36548
1.90666
-1.86799
-0.874122
0.325507
-3.97304
3.27575
-3.11421
-0.572311
6.16843
-2.88788
0.201087
-1.21276
-2.42691
-2.89394
2.70349
6.17444
0.29639
3.11314
5.20121
3.10059
0.22115
3.79003
-5.68154
-3.72967
-5.91332
-0.377501
4.57686
1.76888
8.03139
5.93466
4.88852
-1.8792
-10.1016
6.49881
-2.05262
5.15759
-1.14403
-4.96717
5.08148
2.33594
-5.7163
0.0437762
-4.92339
-6.97601
-0.476593
8.25248
-9.5812
8.52799
5.67039
1.38966
-4.4279
-0.758676
4.28176
0.132714
10.5019
-0.917297
-7.03008
7.94737
-4.51607
3.5345
0.673824
2.59959
2.00129
1.34211
-5.68797
-9.94759
-2.07043
-1.55627
-4.44108
0.523736
-2.43039
6.06315
-2.52865
3.80396
5.41872
6.49274
-2.04869
-4.12299
6.28574
-2.48177
4.01096
)
;

boundaryField
{
    wall-4
    {
        type            calculated;
        value           uniform 0;
    }
    velocity-inlet-5
    {
        type            calculated;
        value           uniform -3.75095;
    }
    velocity-inlet-6
    {
        type            calculated;
        value           uniform -5.62643;
    }
    pressure-outlet-7
    {
        type            calculated;
        value           nonuniform List<scalar> 8(3.31821 7.7528 4.42318 9.66346 7.44139 5.16568 5.79511 8.95351);
    }
    wall-8
    {
        type            calculated;
        value           uniform 0;
    }
    frontAndBackPlanes
    {
        type            empty;
        value           nonuniform 0();
    }
}


// ************************************************************************* //
