/*--------------------------------*- C++ -*----------------------------------*\
  =========                 |
  \\      /  F ield         | OpenFOAM: The Open Source CFD Toolbox
   \\    /   O peration     | Website:  https://openfoam.org
    \\  /    A nd           | Version:  6
     \\/     M anipulation  |
\*---------------------------------------------------------------------------*/
FoamFile
{
    version     2.0;
    format      ascii;
    class       volVectorField;
    location    "89";
    object      U;
}
// * * * * * * * * * * * * * * * * * * * * * * * * * * * * * * * * * * * * * //

dimensions      [0 1 -1 0 0 0 0];

internalField   nonuniform List<vector> 
918
(
(0.985049 -0.000715746 0)
(0.00544233 2.96617 0)
(-0.00503567 0.875776 0)
(0.979575 0.00196184 0)
(-0.0143294 2.06291 3.33383e-20)
(-0.00719318 2.9486 -2.53961e-18)
(0.822319 1.12395 4.49074e-19)
(0.114241 0.0839804 -1.39726e-20)
(0.999922 -0.000245672 0)
(0.0925455 0.669131 0)
(0.016172 0.355798 0)
(0.732494 0.00936353 0)
(0.0101962 2.93184 0)
(0.00330112 2.79436 0)
(-0.00278166 3.17625 8.30751e-19)
(-0.0135827 1.92994 2.48703e-20)
(0.294723 0.0470941 9.78068e-19)
(0.234622 1.11015 3.54123e-19)
(0.964317 0.00674199 0)
(-0.005561 0.344534 0)
(0.0575929 -0.0742983 -6.35067e-19)
(1.00183 -0.00455936 0)
(0.99985 -0.00892589 0)
(0.975169 -0.00605177 0)
(0.592021 0.0278223 0)
(0.0208333 2.64491 0)
(-0.012088 2.91163 9.28311e-19)
(-0.00812925 0.926262 0)
(-0.0364678 1.17125 0)
(-0.00607751 0.894809 0)
(-0.0243963 2.5845 0)
(-0.00512396 2.11381 -2.66281e-20)
(-0.0102408 1.9012 0)
(-0.0219374 2.98768 -9.14414e-23)
(-0.0163796 3.00545 1.97091e-18)
(0.00231084 3.00043 0)
(0.871988 -0.0097659 0)
(0.372861 0.910335 1.62676e-19)
(0.821056 1.14304 -5.63319e-19)
(0.953189 1.00996 5.73974e-19)
(0.683411 1.22586 -1.02674e-19)
(0.696944 1.18535 5.85191e-19)
(0.142559 0.127358 1.36294e-20)
(0.149191 0.0893183 0)
(1.16974 0.533137 0)
(0.108554 0.108483 6.13497e-20)
(0.0877488 0.0674608 -6.36719e-20)
(0.920571 -0.00704543 0)
(1.00027 5.2613e-05 0)
(0.999907 0.00032086 0)
(1.0037 -0.0072797 0)
(1.00088 -0.000949411 0)
(1.00011 -5.34436e-06 0)
(0.0780596 1.8344 -7.67934e-19)
(0.0333309 0.849417 0)
(0.128644 0.760038 0)
(0.0178576 0.78998 0)
(0.0540976 0.586261 0)
(0.00538594 2.03838 0)
(-0.0075905 0.687906 0)
(0.0130856 0.398547 0)
(-0.0118854 0.681813 0)
(0.0105392 0.353129 0)
(0.843807 -0.0156217 0)
(0.842219 0.0256801 0)
(0.757172 0.00410428 0)
(0.800247 0.0261355 0)
(0.70128 0.0197908 0)
(0.0137944 3.00031 9.42579e-19)
(0.0109322 3.00668 0)
(0.00585224 3.00351 0)
(0.0118284 2.99747 1.0696e-23)
(0.00802699 2.95885 -1.4009e-18)
(0.0121944 2.98283 0)
(0.00920022 2.90499 0)
(0.0210266 2.93147 2.1621e-24)
(0.00383629 2.82437 0)
(0.0260314 2.91877 0)
(-0.000657256 2.7451 0)
(0.304227 3.56941 0)
(-0.122129 3.652 0)
(0.14815 3.26679 -7.73153e-19)
(0.00251711 3.00562 0)
(-0.0334323 1.99128 0)
(-0.00756519 2.17949 -2.45289e-20)
(-0.00936507 1.94258 2.55829e-20)
(0.346856 0.139573 -3.39754e-19)
(0.323416 0.0153773 -3.30402e-19)
(0.300993 0.155527 -1.01487e-18)
(0.262487 0.0661672 -6.60288e-19)
(0.266475 1.02627 0)
(0.334391 1.24179 -3.66772e-19)
(0.416233 1.15285 6.05412e-19)
(0.987693 0.00817052 0)
(0.943201 0.00577655 0)
(1.00028 0.000671977 0)
(1.00254 0.00906614 0)
(1.0031 0.00899783 -2.61771e-18)
(0.992135 0.00941166 1.97805e-18)
(-0.0277854 0.705798 0)
(-0.00070498 0.347577 0)
(-0.0572095 1.01425 0)
(-0.0388998 0.767961 0)
(-0.0168044 0.352483 0)
(-0.082842 0.0688922 1.97555e-19)
(0.0322075 0.0490138 0)
(0.993626 -0.00769171 0)
(0.954055 -0.00648496 0)
(0.742644 0.0277516 0)
(0.672692 0.025418 0)
(0.660046 0.0267012 0)
(0.980779 -0.0024246 0)
(0.583548 0.0663277 0)
(0.454418 -0.012488 1.48877e-18)
(-0.0411109 2.8601 7.20694e-19)
(0.033893 2.9143 0)
(0.0428433 2.89269 0)
(0.00323004 2.70246 0)
(-0.00873074 2.98653 8.8663e-19)
(-0.0138822 2.89432 0)
(-0.0109522 2.99161 -2.73339e-18)
(-0.0115746 2.92911 9.31438e-19)
(-0.0529996 1.35174 0)
(-0.0207484 1.38103 0)
(-0.00812549 2.14074 8.80921e-22)
(-0.00802433 2.09931 0)
(-0.0172559 1.91316 0)
(0.938929 -0.00519068 0)
(0.857356 -0.0111669 0)
(0.862746 0.00527444 0)
(0.949709 -0.00613589 0)
(0.883714 -0.00809996 0)
(0.49597 1.10996 -2.06599e-19)
(0.543446 1.17992 0)
(0.334944 0.844822 3.15982e-20)
(0.279928 0.709667 0)
(0.9225 1.03898 -1.6233e-19)
(1.04558 0.849482 3.27536e-19)
(0.394725 1.32076 0)
(0.545509 1.27657 0)
(0.599818 1.20257 0)
(0.104534 0.180858 -2.97015e-19)
(0.169449 0.13964 0)
(0.171155 0.105662 1.83334e-19)
(1.00854 0.903351 0)
(1.08422 0.751111 0)
(1.11396 0.686356 -2.63611e-19)
(1.15023 0.596696 0)
(1.20635 0.391613 4.75294e-20)
(0.957535 -0.00709472 0)
(0.96275 -0.00810658 0)
(0.900943 -0.00737479 0)
(0.983934 -0.00812048 0)
(0.97444 -0.00802832 0)
(0.936557 -0.00656769 0)
(1.0002 0.00250612 0)
(1.00078 0.00123867 0)
(1 0.000759876 0)
(0.0386862 2.08557 4.22713e-19)
(0.141346 1.78273 0)
(0.0168636 2.19156 6.54349e-19)
(0.0520224 1.89169 -5.3339e-19)
(0.168173 1.08527 -2.90583e-19)
(0.0505158 0.935553 0)
(0.123058 0.940182 0)
(0.00735335 0.751403 0)
(0.0303776 0.51246 0)
(-0.0025395 2.26148 -2.7887e-22)
(0.0229671 2.04072 0)
(-0.00432734 2.26341 -2.13554e-21)
(0.00319291 2.04808 -7.59201e-21)
(-0.00186748 0.720943 0)
(-0.00598185 0.702261 0)
(0.0157517 0.448861 0)
(-0.0208485 0.684784 0)
(0.00576761 0.346469 0)
(0.939609 0.0139325 0)
(0.856663 -0.0115185 0)
(0.928744 0.00491073 0)
(0.846367 -0.0127876 0)
(0.809394 0.00152691 0)
(0.898964 0.0206468 0)
(0.874699 0.0244171 0)
(0.783147 0.00100097 0)
(0.0099811 3.06796 -8.75281e-21)
(0.0156524 3.05793 0)
(0.0122623 2.97005 0)
(0.00752903 2.87687 0)
(0.893035 3.96146 0)
(1.18635 3.35821 9.34289e-19)
(0.080261 3.08845 0)
(-0.0181037 2.91693 0)
(-0.020267 1.4088 0)
(-0.0389289 1.70275 0)
(-0.0280932 1.53955 0)
(-0.0348293 2.546 -1.55426e-20)
(-0.0209523 2.24512 0)
(-0.0250354 2.3876 0)
(-0.000632966 1.97373 -1.99554e-23)
(-0.00553497 2.25474 -3.23968e-20)
(-0.00653554 2.21779 -2.62411e-20)
(-0.00563695 1.95687 0)
(0.38977 0.116386 5.20901e-19)
(0.363187 0.00828437 -5.11075e-19)
(0.231489 1.59011 0)
(0.289729 0.770802 -3.21345e-19)
(0.176429 1.6879 -1.05559e-18)
(0.245973 1.23097 1.0565e-18)
(0.901593 0.00589107 0)
(0.966987 0.0107145 0)
(0.974853 0.0098817 0)
(0.922933 0.00586483 0)
(-0.0197286 0.688232 0)
(-0.0235236 0.695258 0)
(0.00605775 0.338399 0)
(0.0776144 0.0925784 5.62011e-19)
(0.0558463 0.0673327 -6.5797e-19)
(0.0487229 0.0518329 0)
(1.10862 0.0911081 2.35627e-20)
(1.09218 0.0429759 0)
(1.01954 0.043977 0)
(0.91443 -0.00125685 0)
(0.436843 0.0979633 0)
(0.496205 0.0780121 -2.38176e-18)
(0.400861 0.00582176 8.92679e-19)
(0.010285 2.97709 7.67547e-19)
(-0.0331355 2.8611 4.60557e-20)
(0.00827379 3.0536 -1.84939e-20)
(0.0164184 3.04263 6.88487e-19)
(-0.0117256 2.99992 3.06589e-20)
(-0.012462 2.95204 -1.23471e-22)
(-0.015084 3.01306 -5.72259e-19)
(0.0153461 3.02551 4.07533e-19)
(0.00806625 3.03582 -6.62484e-19)
(0.934796 0.00216641 0)
(0.939569 -0.00109265 0)
(0.848248 -0.0112009 0)
(0.956218 0.0118954 0)
(0.942234 0.0134308 0)
(0.881434 0.00543557 0)
(0.915853 0.0172469 0)
(0.925089 0.0151455 0)
(0.836602 0.00288676 0)
(0.668662 1.40804 1.80737e-20)
(0.686724 1.51847 0)
(0.117395 0.28686 6.67817e-20)
(0.214006 0.652666 5.27654e-19)
(0.239351 0.689725 -3.09766e-19)
(0.212251 0.489322 6.15162e-19)
(0.341677 0.833654 1.57261e-18)
(0.136415 0.237513 3.78024e-19)
(0.258485 0.164944 7.00223e-19)
(0.210361 0.161845 1.80849e-19)
(0.221106 0.0923245 3.44075e-19)
(1.19723 0.448505 9.99438e-20)
(1.22153 0.246976 9.75083e-20)
(0.00746287 2.24736 2.42223e-19)
(0.0409487 1.96552 0)
(0.973359 0.033228 0)
(0.947029 0.0193593 0)
(0.87162 -0.0150359 0)
(0.0130723 3.07352 0)
(0.0167089 2.94399 1.22038e-18)
(0.0137867 2.95669 0)
(0.00562815 2.85024 -1.2109e-18)
(0.00998787 3.08962 2.97859e-19)
(0.011075 3.08413 0)
(0.705833 1.81381 -1.70229e-19)
(1.23055 2.61809 5.75636e-19)
(0.690551 1.99178 -1.3906e-18)
(0.0218063 2.97599 -6.64994e-19)
(0.0398642 2.99745 0)
(-0.0386904 2.87807 0)
(-0.00631496 2.24063 -1.29733e-20)
(-0.00522519 2.26066 6.3091e-20)
(-0.000129234 2.00964 -7.56117e-21)
(0.268378 1.40389 1.02013e-18)
(0.28879 0.57549 -7.00556e-19)
(0.0687504 2.00336 7.4279e-19)
(0.119272 1.87294 -8.9953e-19)
(0.210696 1.53966 1.05313e-19)
(0.00613112 3.12029 -1.65313e-18)
(0.0133457 3.12067 1.82085e-18)
(-0.0052557 2.98051 8.28461e-19)
(-0.00147155 2.97495 -7.927e-19)
(-0.0176041 2.87702 -8.43824e-19)
(0.0117575 3.10075 -2.21123e-18)
(0.0055791 3.10545 2.24454e-18)
(0.26906 0.698826 0)
(0.219699 0.658344 -1.12728e-18)
(0.0749177 0.210843 4.96161e-19)
(0.347706 0.954581 1.11745e-18)
(0.20116 0.282647 -1.72099e-18)
(1.19989 0.176874 4.59428e-20)
(1.21825 0.306494 0)
(1.19534 0.121838 1.15523e-20)
(0.00136911 2.26665 -1.12542e-21)
(0.00464882 2.25586 0)
(0.0341154 2.00084 0)
(0.313524 1.31871 -3.66106e-19)
(0.354614 1.18117 -7.95138e-19)
(0.234565 0.39452 1.42292e-18)
(1.00644 -0.00967909 0)
(1.00774 -0.00778154 4.81105e-19)
(-0.0468637 1.33432 0)
(-0.0564852 1.34031 0)
(1.00244 0.00326853 1.33607e-21)
(1.0032 0.00781181 9.87726e-19)
(-0.0260479 2.53304 1.96964e-20)
(-0.0287221 2.5755 0)
(0.0399718 3.17212 4.6819e-19)
(0.372213 3.53696 0)
(1.16018 0.695755 -4.82285e-20)
(1.01177 0.0106299 -2.85334e-21)
(1.02089 -0.00898651 0)
(1.00157 0.000290103 1.575e-22)
(0.117876 1.37772 0)
(0.153109 2.58798 0)
(0.0352234 1.32482 0)
(-0.000700205 2.63365 -1.34269e-20)
(-0.0226239 2.57976 -1.52321e-20)
(0.998591 0.0315337 2.87501e-21)
(1.06306 0.00593513 0)
(1.10019 0.0285111 0)
(-0.0372411 1.75003 0)
(-0.020376 2.57822 0)
(-0.0148924 1.32931 0)
(0.309279 1.49248 -1.73376e-19)
(1.01152 -0.00904995 0)
(1.00971 -0.0129836 0)
(1.00227 0.000932604 6.16039e-19)
(1.00547 -0.00490995 -7.26353e-19)
(1.00113 -0.000862414 0)
(-0.0264217 1.47525 0)
(-0.0150306 1.39855 0)
(-0.0216889 1.43739 0)
(-0.0181387 1.31474 0)
(-0.0347061 1.30408 0)
(-0.0269445 1.28516 0)
(1.0357 -0.00428863 0)
(1.01901 0.0156335 -9.62873e-22)
(0.81402 1.31459 2.84667e-19)
(1.00245 0.000391208 -6.15843e-19)
(1.00339 0.00444331 7.35052e-19)
(1.00126 0.00208949 0)
(1.01105 0.00962709 6.1335e-19)
(1.00682 0.00744095 -7.46563e-19)
(1.0071 0.0111098 0)
(-0.0253528 2.60508 0)
(-0.028791 2.58388 -3.50499e-20)
(-0.0254935 2.59813 2.47235e-20)
(1.24307 0.274493 5.12572e-19)
(1.16379 0.0894078 0)
(0.0435114 3.09142 -9.39965e-19)
(0.0520354 2.874 -6.66575e-20)
(0.102815 3.20174 1.25673e-18)
(0.12113 3.21365 -2.64935e-19)
(0.140089 3.25566 0)
(0.0225474 3.13768 2.58147e-19)
(0.0607771 3.16195 9.36316e-19)
(0.0611835 3.1787 -4.82969e-19)
(0.0268482 3.12946 0)
(0.539731 0.290041 0)
(0.482818 0.302685 0)
(1.14279 0.727581 1.05849e-19)
(1.10719 0.863099 -8.61921e-20)
(1.20024 0.613001 0)
(1.22675 0.546657 0)
(1.01568 0.0120348 -1.13931e-18)
(1.01464 0.0127683 1.43246e-18)
(1.02578 -0.00871394 0)
(1.02411 -0.0102807 0)
(1.00681 0.00327958 0)
(1.01088 0.00422245 0)
(1.00419 0.00221934 0)
(1.00932 0.00634011 0)
(1.00682 0.00503753 0)
(1.00436 0.00525306 0)
(0.109507 1.37734 0)
(0.0961475 1.33352 0)
(0.138521 1.42147 0)
(0.147731 1.40506 0)
(0.151956 2.6078 0)
(0.186612 2.67361 -4.02205e-19)
(0.0952051 2.65819 0)
(0.0852274 2.65325 1.73548e-19)
(0.0247719 2.67703 -1.50877e-19)
(0.0203379 1.33577 0)
(0.0304492 1.25267 0)
(0.0224031 1.3485 0)
(0.0485775 1.27262 0)
(-0.00145233 1.99368 4.41503e-20)
(-0.0222029 2.60804 -4.55584e-20)
(-0.00644561 2.67574 -3.99422e-20)
(-0.0193084 2.6872 0)
(-0.0247781 2.61399 4.49563e-20)
(-0.0234166 2.60949 4.7778e-20)
(0.00500534 1.98997 -3.41456e-20)
(-0.0110983 2.39866 6.11185e-20)
(-0.0152263 2.42374 4.52775e-20)
(1.01177 0.040133 1.15473e-18)
(1.00426 0.0214016 -1.43862e-18)
(1.00353 0.0476285 -1.18004e-18)
(0.975766 0.0378329 1.48696e-18)
(1.06473 0.00927738 0)
(1.04995 -0.00641226 0)
(1.0927 0.0378318 0)
(1.07591 0.0151012 0)
(1.07467 0.000507729 0)
(1.14138 0.0798704 0)
(1.11586 0.0464983 0)
(1.1193 0.0374899 0)
(-0.0317998 2.43002 4.17414e-21)
(-0.0233735 2.02532 0)
(-0.0236057 2.2203 0)
(-0.0224078 2.59904 -2.25332e-20)
(-0.0189255 2.61018 7.36203e-22)
(-0.00446135 1.59715 -6.18382e-20)
(-0.0150888 1.51925 6.31928e-20)
(-0.0251024 1.41087 0)
(-0.029784 1.41702 0)
(-0.0362404 1.40698 0)
(-0.0088359 1.33148 0)
(0.00719037 1.2462 0)
(0.386932 1.51718 2.89716e-19)
(0.435303 1.52145 1.54305e-19)
(0.591623 2.46247 -2.46924e-19)
(0.385686 2.55253 7.10089e-19)
(0.349685 2.0473 6.79499e-20)
(1.02072 -0.00798866 0)
(1.0158 -0.0093464 0)
(1.01486 -0.0132049 0)
(1.00775 -0.000546909 0)
(1.00484 -0.00068894 0)
(1.008 -0.00446606 0)
(1.00954 -0.00342878 0)
(1.01465 -0.0042668 0)
(1.01974 0.0164409 1.11779e-18)
(1.01713 0.0150382 -1.42011e-18)
(1.0201 0.0189305 -1.12656e-18)
(1.0175 0.0173277 1.41191e-18)
(0.770287 1.36117 0)
(0.708905 1.39714 2.48633e-19)
(0.878421 1.24252 1.05372e-19)
(0.914728 1.20201 -1.39848e-19)
(1.16208 2.60742 2.65846e-19)
(0.746393 0.13347 5.8088e-19)
(1.17209 0.10831 0)
(1.21495 0.20297 -4.16227e-19)
(1.19653 0.154486 -1.73232e-20)
(1.01128 0.16721 0)
(0.0751698 3.01826 3.33217e-19)
(0.081359 2.90314 -1.10322e-18)
(0.0227893 2.36119 6.98948e-19)
(0.160017 -0.273132 -3.05357e-19)
(0.340381 3.44125 -2.55324e-19)
(0.191703 3.33755 0)
(0.22226 3.39286 3.3259e-19)
(0.219839 3.07557 -1.16942e-18)
(0.252444 3.19365 0)
(0.00648093 3.1224 4.89239e-20)
(0.016913 3.13115 -5.64364e-19)
(0.0159277 3.12691 8.30641e-19)
(0.0329687 3.14006 0)
(0.030986 3.14957 0)
(1.25399 2.57023 0)
(0.54219 0.788907 -5.17482e-19)
(1.02767 1.03727 -1.68018e-20)
(0.99431 1.09018 0)
(0.863172 0.972338 -1.04172e-19)
(1.08682 0.912916 2.66676e-20)
(0.291952 0.308858 -7.60613e-19)
(0.631845 0.326948 -2.34306e-20)
(0.514891 0.218397 3.89019e-19)
(0.520567 0.316741 2.77255e-20)
(0.384664 0.266116 -1.10703e-18)
(0.585712 0.323279 0)
(0.680287 0.43869 6.70783e-19)
(0.693848 0.452503 0)
(0.548311 0.320722 0)
(0.446398 0.245064 0)
(0.80015 0.659221 3.8775e-19)
(1.25467 0.30856 -4.16341e-19)
(1.24788 0.440959 0)
(1.24804 0.396046 0)
(0.684234 0.187316 5.91362e-19)
(0.846977 0.561127 -3.65934e-19)
(0.768498 0.52195 6.53515e-19)
(0.965272 0.456923 -6.55288e-19)
(1.01848 0.0147723 7.6143e-19)
(1.01705 0.0136852 -7.66059e-19)
(1.01585 0.0142479 0)
(1.03709 -0.00450677 0)
(1.03049 -0.0076859 -7.17579e-19)
(1.0287 -0.0105692 7.1012e-19)
(1.02476 0.0110359 0)
(1.02273 0.015137 0)
(1.01271 0.00476171 0)
(1.01458 0.00910183 0)
(1.01644 0.00427279 0)
(1.01558 0.00295157 0)
(0.0789106 1.36257 0)
(0.0817465 1.30495 0)
(0.152109 1.42249 5.03213e-20)
(0.277589 1.48855 8.41696e-20)
(0.176126 1.45967 1.89321e-19)
(0.212708 1.45771 -3.06121e-19)
(0.166133 1.43547 0)
(0.14428 1.58685 -8.64624e-20)
(0.141686 1.58332 0)
(0.347111 2.00094 -9.89263e-20)
(0.319818 2.33612 5.52343e-19)
(0.200699 1.46718 7.53452e-20)
(0.276655 1.40393 2.48226e-20)
(0.209983 1.40258 -2.02433e-20)
(0.291523 1.34225 -8.51072e-20)
(0.261012 1.57777 0)
(0.266558 1.62519 9.43084e-20)
(0.0199155 2.24429 -1.3793e-20)
(0.038338 2.66967 0)
(0.0557607 2.39445 1.00639e-19)
(0.0474753 2.41984 0)
(0.0644496 2.67701 -2.08222e-19)
(0.042907 2.70374 0)
(0.0275728 1.4647 6.3892e-20)
(0.0320589 1.52132 0)
(0.0341898 1.42453 0)
(0.0271462 1.43337 -7.29171e-20)
(0.00327281 2.66095 5.74607e-21)
(0.0289415 2.69023 1.73855e-19)
(0.0107099 2.73365 8.972e-22)
(0.00379749 1.84825 -2.89863e-20)
(-0.00388231 1.7004 -1.9688e-20)
(0.0174992 1.31562 0)
(0.0270141 1.22864 0)
(0.0390359 1.59332 -5.1611e-21)
(0.0421434 1.47443 -5.71043e-20)
(0.0254979 1.55732 5.86589e-20)
(0.0520224 1.61584 0)
(-0.0321611 2.27077 1.35397e-19)
(-0.035512 2.54733 -5.73613e-20)
(-0.0212322 2.44817 1.04996e-20)
(-0.00482919 1.86464 3.51393e-20)
(-0.0291988 2.50298 1.48567e-20)
(-0.0235271 2.44515 -3.90244e-20)
(1.01807 0.0225611 -7.65837e-19)
(1.01497 0.0289503 7.69727e-19)
(1.01196 0.0180865 0)
(1.00987 0.071063 1.06907e-18)
(0.990366 0.0613753 -1.20833e-18)
(0.949386 0.0560892 1.35293e-18)
(1.01295 0.115461 -1.43226e-19)
(1.04403 -0.00464389 0)
(1.05224 -0.000383239 6.87265e-19)
(1.04033 -0.00815787 -6.86969e-19)
(1.07235 0.0439433 -4.07312e-20)
(1.06503 0.0291617 3.51944e-19)
(1.06414 0.0658648 0)
(1.05442 0.0551616 -1.26806e-19)
(1.03209 0.0439179 0)
(1.02606 0.0388729 0)
(1.02764 0.0137052 0)
(1.02406 0.0163672 0)
(1.04067 0.0339265 2.60637e-19)
(1.03946 0.0286414 -5.76906e-19)
(1.05306 0.0388431 -2.75593e-19)
(1.0482 0.0387601 -3.04234e-19)
(1.07784 0.0707384 5.81729e-19)
(1.10184 0.0567824 0)
(1.10861 0.0956474 0)
(-0.0300873 2.27677 7.77328e-20)
(-0.0332413 2.03047 4.41376e-21)
(-0.02825 2.04066 0)
(-0.031401 2.44366 -7.73807e-20)
(-0.0296083 2.4024 -8.41559e-21)
(-0.0359034 2.47 1.02849e-20)
(-0.0223189 2.62136 -4.08183e-20)
(-0.0276875 2.56367 2.30658e-21)
(-0.0262295 2.51775 -1.36314e-20)
(-0.0179145 2.61409 2.58414e-20)
(-0.0219785 2.61653 -3.00465e-20)
(-0.0132363 1.52357 -1.09916e-21)
(-0.00785178 1.64393 -6.41139e-20)
(0.378285 1.4533 -1.24097e-19)
(0.373675 1.38364 1.55084e-20)
(0.650156 1.44483 -2.40578e-19)
(0.525504 1.51435 -1.49916e-19)
(0.579461 1.47344 0)
(0.607172 2.4191 2.1544e-19)
(0.666339 2.42908 3.36275e-19)
(0.415727 2.51345 9.48629e-20)
(0.400382 2.53697 -5.82357e-19)
(0.501122 2.47571 5.55868e-19)
(0.552354 2.47316 0)
(0.484672 2.52357 -5.47939e-19)
(0.253498 2.59283 1.10425e-18)
(0.366137 2.56325 -6.90059e-20)
(0.279897 2.65516 -1.56694e-18)
(0.970825 2.38601 7.08519e-19)
(0.848307 2.38682 0)
(1.01142 0.00139991 2.49784e-20)
(1.01537 -0.00515458 -2.04083e-20)
(1.01779 -0.00388761 -3.73037e-19)
(1.01564 -0.00101622 3.71744e-19)
(1.01313 0.0018537 0)
(0.638429 1.30628 0)
(0.683154 1.1917 0)
(0.798543 1.12204 0)
(0.670677 1.14855 0)
(1.19317 2.62288 5.1655e-20)
(1.08559 2.37426 0)
(0.815881 2.16348 3.51832e-21)
(0.820825 2.42661 0)
(0.915556 2.51729 -4.3043e-19)
(0.946891 2.46665 2.87389e-19)
(0.783182 0.164338 0)
(0.726421 0.144665 1.57005e-19)
(0.906202 0.1634 9.17606e-19)
(0.814049 0.145383 -3.42953e-19)
(0.754762 0.0900363 -1.06263e-18)
(1.08793 0.247821 -8.34366e-19)
(0.986544 0.317686 -1.01582e-20)
(0.927267 0.353773 8.06978e-19)
(1.01328 0.261611 6.87751e-19)
(0.931194 0.20863 -1.20974e-18)
(0.888797 0.221248 1.51438e-19)
(0.929015 0.318717 -3.15944e-19)
(0.904684 0.224891 0)
(0.999788 0.209829 5.92393e-19)
(1.05484 0.218626 0)
(1.0524 0.230628 0)
(1.12587 0.125646 2.6555e-19)
(1.06516 0.195986 -1.06522e-20)
(1.07944 0.24956 -1.52115e-19)
(1.11307 0.213096 0)
(1.02235 0.0485098 5.88991e-19)
(1.03676 0.0627068 7.35017e-19)
(1.03257 0.0461416 -5.84978e-19)
(1.04137 0.0694051 -4.92864e-19)
(1.01514 0.0762864 -7.54913e-19)
(0.98412 0.170608 0)
(0.987864 0.107727 0)
(0.962588 0.0745993 -4.81553e-19)
(0.89724 0.0994264 1.92732e-19)
(1.03875 0.116473 6.81408e-19)
(1.0761 0.137806 -7.7756e-19)
(1.07047 0.182498 6.9924e-19)
(1.03541 0.158317 0)
(1.08627 0.123477 0)
(1.0568 0.113141 -3.19325e-19)
(1.04232 0.109368 -5.53825e-19)
(0.587786 1.07967 1.1742e-19)
(0.608488 1.39695 -1.88868e-20)
(1.14342 2.71464 -2.44943e-19)
(1.19556 3.09902 2.59726e-21)
(1.25087 2.72339 -1.17141e-19)
(1.28984 2.69354 1.76694e-20)
(1.26456 2.31624 -3.84126e-20)
(1.18305 3.00417 -7.2429e-20)
(1.20288 2.96109 2.21315e-19)
(1.17692 3.25191 -1.22105e-19)
(1.39402 2.96508 1.53182e-19)
(1.4052 2.89959 0)
(0.578988 0.81414 -4.76475e-20)
(0.197892 1.21109 4.62883e-19)
(0.529919 0.32315 4.93899e-19)
(0.41326 0.0892372 5.62125e-19)
(0.449043 0.293324 6.26762e-19)
(0.545366 0.416326 -1.01884e-18)
(0.556846 0.397275 8.36517e-19)
(0.452252 0.294101 -3.07404e-19)
(0.278652 0.232149 7.07595e-19)
(0.715582 0.259645 -3.40741e-19)
(0.658864 0.292118 0)
(0.591233 0.196066 7.91286e-21)
(0.730074 0.517412 3.5436e-19)
(0.701683 0.492268 -1.28508e-18)
(0.63406 0.439176 1.26118e-20)
(0.614518 0.418878 0)
(0.7237 0.720567 3.67083e-19)
(0.839284 0.802949 4.04129e-19)
(0.778314 0.853667 -4.7113e-19)
(0.908284 0.824693 -1.49321e-19)
(0.943072 0.867737 -3.44161e-20)
(0.950606 0.875244 3.52935e-20)
(0.88351 0.68226 -6.59758e-19)
(0.957143 0.72858 1.38823e-19)
(1.01308 0.73236 0)
(1.01181 0.707829 -1.77164e-19)
(1.03041 0.343452 2.07762e-19)
(1.15963 0.343023 2.5091e-19)
(1.07451 0.285571 3.41079e-19)
(1.00039 0.390431 -4.16198e-19)
(1.05826 0.49122 0)
(1.13985 0.431895 0)
(0.899102 0.427561 -5.0777e-22)
(0.845848 0.322319 0)
(0.893108 0.313014 3.84967e-19)
(0.914177 0.352101 2.72043e-21)
(0.988189 0.502954 1.82958e-18)
(0.921164 0.561066 4.7208e-19)
(0.944037 0.520245 -4.97559e-19)
(0.861326 0.496054 5.30184e-19)
(0.826517 0.470613 3.38885e-19)
(0.80471 0.450304 -3.31932e-19)
(1.0282 -0.000375201 6.16334e-19)
(1.02049 0.000611693 0)
(1.01912 0.00142274 4.02257e-19)
(1.0227 -0.000686517 -9.10551e-19)
(1.02258 0.00462689 4.43563e-19)
(1.02004 0.0116814 -9.28502e-19)
(1.02079 0.0115169 0)
(1.01968 0.0123051 -1.93351e-19)
(1.0166 0.00784389 4.84552e-19)
(1.01669 0.0109674 -2.43557e-19)
(1.0173 0.0106747 1.78346e-19)
(0.0376953 1.33722 0)
(0.0442954 1.39992 0)
(0.0561584 1.3414 0)
(0.0624929 1.2762 0)
(0.0898945 1.40725 -7.05602e-20)
(0.0930866 1.38058 1.88275e-20)
(0.0885969 1.57275 1.49852e-21)
(0.105648 1.41262 -3.59282e-20)
(0.0440783 1.48841 4.8425e-20)
(0.049839 1.48221 -3.81303e-20)
(0.0788232 1.39985 -2.26716e-20)
(0.0642135 1.40162 7.24143e-20)
(0.0611301 1.38372 1.20701e-20)
(0.0472531 1.40303 8.35478e-21)
(0.100614 2.35568 -1.10682e-19)
(0.0900972 2.40983 0)
(0.154707 2.01156 1.0279e-19)
(0.129133 1.69555 3.64877e-20)
(0.221474 2.01037 -8.47971e-20)
(0.186991 2.433 0)
(0.235352 2.37901 -6.55955e-19)
(0.32442 2.35022 4.34948e-19)
(0.248774 1.97849 -2.22262e-19)
(0.138804 2.13973 1.53826e-19)
(0.118714 2.2537 0)
(0.0128983 1.8456 -3.70318e-20)
(-0.00519941 2.36579 2.84357e-21)
(0.00404087 2.12261 0)
(0.00328103 2.43043 -1.70278e-20)
(0.0171579 2.26332 2.91664e-20)
(0.0127352 1.4421 -1.31076e-20)
(0.00958787 1.422 2.18968e-19)
(0.00798753 1.43237 -7.08372e-20)
(0.0222657 1.44169 -6.23316e-20)
(0.0243572 1.46824 0)
(0.00496989 1.41692 0)
(0.00152627 1.31572 -9.04094e-20)
(-0.00157916 1.40917 2.65761e-20)
(0.00636594 1.40716 0)
(0.0117939 1.30761 -6.88837e-20)
(0.0206432 1.21596 1.37898e-19)
(1.0425 0.015076 0)
(1.04898 0.0105706 -6.42688e-20)
(1.03918 0.0245379 -4.64735e-19)
(1.04951 0.0234362 0)
(1.05471 0.0227226 0)
(1.03637 0.0131109 -6.75648e-21)
(1.03014 0.0135336 7.49563e-19)
(1.03202 0.0175117 9.08134e-19)
(1.02565 0.0211701 0)
(1.02226 0.0217853 0)
(1.03568 0.0259244 4.63868e-19)
(1.0261 0.0282687 0)
(1.02358 0.0282929 0)
(-0.0206338 2.03219 0)
(-0.0118123 1.67121 -2.56603e-21)
(-0.00949246 1.774 -3.59191e-20)
(-0.00879596 1.41424 0)
(-0.00920014 1.57735 -3.78517e-20)
(-0.0182966 1.49053 2.27405e-20)
(-0.0173015 1.4309 0)
(0.403156 1.61912 0)
(0.368068 1.32206 -2.30112e-20)
(0.275874 1.34599 0)
(0.437728 1.32001 -4.57329e-20)
(0.473462 1.47925 0)
(0.459178 1.42104 4.43254e-20)
(1.04008 2.66628 -1.50442e-20)
(0.985134 2.40481 -8.89924e-19)
(0.94746 2.20606 9.94914e-19)
(0.864883 2.37882 2.40615e-19)
(0.852275 2.48289 0)
(0.921328 2.47761 0)
(0.954605 2.37882 0)
(0.930422 2.36988 -9.32606e-19)
(0.690848 2.44665 -3.72459e-19)
(0.799885 2.4306 -9.65364e-20)
(0.807075 2.40865 7.27532e-20)
(0.703741 2.4001 0)
(0.809127 2.39339 0)
(0.769594 2.41018 -3.6495e-19)
(0.765121 2.46144 0)
(0.633949 1.06963 0)
(0.514376 0.852597 -5.57832e-19)
(0.522915 0.929261 -3.25337e-20)
(0.5013 1.06648 0)
(0.488666 0.973218 8.52218e-19)
(0.805814 0.88903 -1.30671e-19)
(0.809154 1.02343 0)
(0.790613 1.00691 1.78437e-19)
(0.679091 1.02243 0)
(0.670611 0.92674 0)
(1.16197 2.75114 -2.15219e-19)
(1.13718 2.80966 -8.64174e-20)
(0.921323 2.3322 7.02174e-20)
(0.898203 2.313 -7.4302e-20)
(1.13166 2.72872 0)
(1.08384 2.69648 8.92143e-20)
(1.09901 2.4909 -2.92151e-19)
(1.00065 2.25062 -2.79248e-20)
(0.495773 1.32504 0)
(0.516114 1.07477 -1.03408e-19)
(0.596622 1.18495 0)
(0.846783 0.232694 0)
(0.753144 0.179031 0)
(0.658238 0.14269 0)
(0.855277 0.232481 -6.07296e-19)
(0.739553 0.228279 3.56192e-19)
(0.916698 0.0905408 -3.98794e-19)
(0.923143 0.135179 0)
(0.901677 0.148894 1.72561e-19)
(0.837049 0.110925 6.90814e-19)
(0.795011 0.0767553 -4.32764e-19)
(1.093 3.3423 -6.69799e-19)
(1.16164 3.26628 0)
(1.11094 3.42683 -1.56783e-18)
(0.653676 3.57339 1.30449e-18)
(1.02099 3.07373 1.21464e-19)
(0.534223 0.77255 5.65055e-19)
(0.511578 0.739093 0)
(0.342218 0.322194 -1.41306e-19)
(0.495911 0.628975 8.42284e-19)
(0.568696 0.322351 -1.81488e-19)
(0.524312 0.453942 2.18427e-19)
(0.688747 0.53107 4.50005e-19)
(0.732441 0.568234 0)
(0.671043 0.564394 0)
(0.660011 0.538116 0)
(1.01951 0.616417 8.61088e-20)
(0.972473 0.598619 -4.57288e-19)
(0.982905 0.610708 3.49539e-19)
(1.04678 0.554364 -3.36916e-19)
(1.09245 0.522482 0)
(1.09532 0.604566 -8.84577e-20)
(0.886326 0.425399 -7.56281e-19)
(0.87242 0.409356 -9.79229e-19)
(0.801707 0.419655 5.96376e-19)
(0.813676 0.379452 -6.22338e-19)
(0.853004 0.334624 -4.90407e-19)
(0.797113 0.340172 6.0036e-19)
(1.0266 0.00674834 -4.64122e-19)
(1.02623 0.00686886 9.3531e-19)
(1.02999 0.000975276 5.9722e-19)
(1.03419 0.00160475 -7.171e-19)
(1.03402 0.0119661 0)
(1.02977 0.0120692 -1.17367e-18)
(0.0858283 1.64716 9.69226e-21)
(0.0703497 1.604 0)
(0.108953 1.70063 5.48588e-20)
(0.117314 1.67009 -4.93689e-20)
(0.0859605 1.57194 -2.77862e-21)
(0.0720403 1.57586 0)
(0.00825289 1.70726 0)
(-0.00681926 1.52749 2.01723e-20)
(-0.00566984 1.47102 -1.81298e-20)
(-0.0128201 1.57516 3.3494e-21)
(-0.00179762 1.89753 3.03091e-20)
(-0.014117 1.95165 -1.20154e-20)
(0.493551 1.35789 -2.55979e-19)
(0.496375 1.35222 2.80086e-19)
(0.451944 1.31208 -7.37613e-21)
(0.42873 1.2901 7.32156e-21)
(0.631524 1.31328 0)
(0.557344 1.40785 1.19809e-19)
(0.558286 1.41069 -1.1668e-19)
(0.488195 1.30108 7.11808e-21)
(0.528586 1.25292 0)
(0.592962 1.21863 0)
(0.664659 2.41025 5.48416e-19)
(0.660109 2.44077 1.25924e-18)
(0.715542 2.45575 -8.66278e-19)
(0.614121 2.42794 -1.97949e-19)
(0.55679 2.52034 2.69904e-19)
(0.49762 2.48728 -6.9481e-19)
(0.992281 2.38364 -5.60633e-19)
(1.02346 2.40111 0)
(0.950481 2.18933 -6.12049e-19)
(1.05487 2.67752 0)
(1.0537 2.65835 0)
(0.596419 2.28365 3.24566e-21)
(1.11578 3.06606 7.29688e-20)
(0.991919 2.96182 -1.19651e-19)
(0.314314 0.778072 0)
(0.310103 0.649475 -3.01668e-19)
(0.521386 0.588399 -3.04351e-19)
(0.358097 2.12476 0)
(0.400223 2.74374 -8.55228e-20)
(0.409288 2.47748 0)
(0.730993 0.688072 -7.81838e-19)
(0.798065 0.697357 1.09006e-18)
(0.8008 0.661814 -1.034e-18)
(0.702467 0.645974 -9.89562e-20)
(0.758199 0.606767 -4.10215e-19)
(0.966656 2.74858 -5.52609e-20)
(1.01213 2.75685 -2.08082e-19)
(0.546425 2.19758 4.44364e-19)
(0.600319 1.73002 -3.50927e-19)
(0.699484 1.84866 -4.92604e-19)
(0.974262 2.38954 -1.38118e-19)
(0.974843 2.34263 3.6382e-19)
(0.640895 1.75569 3.33427e-20)
(0.447756 1.29078 1.73233e-19)
)
;

boundaryField
{
    wall-4
    {
        type            noSlip;
    }
    velocity-inlet-5
    {
        type            fixedValue;
        value           uniform (1 0 0);
    }
    velocity-inlet-6
    {
        type            fixedValue;
        value           uniform (0 3 0);
    }
    pressure-outlet-7
    {
        type            zeroGradient;
    }
    wall-8
    {
        type            noSlip;
    }
    frontAndBackPlanes
    {
        type            empty;
    }
}


// ************************************************************************* //
