/*--------------------------------*- C++ -*----------------------------------*\
  =========                 |
  \\      /  F ield         | OpenFOAM: The Open Source CFD Toolbox
   \\    /   O peration     | Website:  https://openfoam.org
    \\  /    A nd           | Version:  6
     \\/     M anipulation  |
\*---------------------------------------------------------------------------*/
FoamFile
{
    version     2.0;
    format      ascii;
    class       volScalarField;
    location    "86";
    object      p;
}
// * * * * * * * * * * * * * * * * * * * * * * * * * * * * * * * * * * * * * //

dimensions      [0 2 -2 0 0 0 0];

internalField   nonuniform List<scalar> 
918
(
0.529022
1.21804
0.00684107
0.528932
-0.0116512
1.18499
-0.510907
0.623919
0.510175
-0.12561
-0.0872507
0.512181
1.0423
0.809627
-1.17385
-0.0253884
0.624718
-0.424473
0.508238
-0.0887881
0.638419
0.516848
0.519313
0.510098
0.572516
0.762104
0.919929
-0.00292392
0.0113008
0.00619575
-0.0130404
-0.0335873
-0.0308549
1.06813
1.12
1.14334
0.47666
0.310131
-0.40591
-0.461143
-0.437848
-0.527276
0.624605
0.625647
-0.235864
0.623263
0.622349
0.495852
0.509569
0.510406
0.511528
0.510438
0.511716
0.403304
-0.133381
-0.16103
-0.110005
-0.108445
0.0215959
-0.0890014
-0.0898384
-0.085633
-0.087213
0.425674
0.507099
0.503682
0.516368
0.525638
1.1582
1.13218
1.1584
1.0676
1.08564
1.0194
0.992502
0.830749
0.854166
0.792894
0.77918
-1.62638
-2.56726
-0.600036
-0.326516
-0.0107702
-0.0269995
-0.0257961
0.620466
0.623267
0.622975
0.625683
1.02962
-0.396138
-0.468737
0.508779
0.507306
0.51637
0.517274
0.51224
0.512238
-0.0866998
-0.0869891
-0.0715684
-0.0859919
-0.0834829
0.618078
0.61985
0.509533
0.506974
0.533743
0.556805
0.545146
0.242581
0.584147
0.600026
0.626678
0.772487
0.759115
0.771653
0.895261
0.863406
0.951628
0.973509
0.0140754
-0.00169611
-0.0266826
-0.0238194
-0.02472
0.472398
0.46596
0.494205
0.480283
0.483329
0.216106
0.0669028
0.391783
0.415027
-0.330256
-0.381062
-0.465163
-0.463104
-0.571055
0.596693
0.626883
0.625955
-0.247073
-0.174556
-0.302751
-0.116593
-0.174334
0.48679
0.49305
0.48912
0.504523
0.498684
0.501112
0.513638
0.510823
0.512416
0.454695
0.579198
0.327435
0.283968
-0.284198
-0.179424
-0.264166
-0.100254
-0.0990673
0.0309938
0.0615278
0.00936718
-0.00245746
-0.0940542
-0.090749
-0.0931489
-0.0865131
-0.0860589
0.417112
0.404042
0.436933
0.444466
0.493462
0.494882
0.499492
0.497512
0.943813
0.967019
0.972485
0.948387
-3.53828
-6.15765
0.0141168
0.171569
-0.00999375
-0.0115668
-0.000422948
-0.0103539
-0.00124267
-0.00297426
-0.0367064
-0.0363937
-0.0291692
-0.0306617
0.618909
0.619329
0.996715
1.02368
0.966967
0.942863
0.498136
0.500013
0.504636
0.501518
-0.0863015
-0.0865619
-0.0872511
0.621249
0.619881
0.620428
0.20107
0.11182
0.294484
0.3258
0.613831
0.603726
0.612885
0.686617
0.725839
0.990709
1.0137
0.99841
1.01054
1.06127
1.08432
1.04928
0.450956
0.461889
0.456153
0.497013
0.494846
0.495782
0.492468
0.493353
0.492049
-0.0438418
-0.413412
0.463891
0.464964
0.457498
0.460037
0.683711
0.767413
0.623729
0.624772
0.625975
-0.0646468
-0.111824
0.231313
0.197131
0.356037
0.390762
0.37251
0.918937
0.878951
0.927012
0.902367
0.867081
0.891185
-0.349004
-2.10484
-1.10333
0.568357
0.37294
0.463942
-0.0193797
-0.0363314
-0.032661
1.01334
1.05329
0.64007
0.831574
0.784129
0.748479
0.774869
0.838039
0.770612
0.805322
0.835666
0.811334
0.545779
0.474526
0.493151
0.8424
0.897545
0.0738409
-0.00589495
-0.0287952
0.0894625
0.159377
0.131806
1.03066
0.949917
1.01149
0.507216
0.508169
-0.0200992
-0.0452088
0.512288
0.511999
-0.0235442
-0.0146218
0.479275
-0.940098
0.0748186
0.501836
0.491426
0.508288
-0.106137
0.304996
-0.0902045
-8.81845e-06
-0.029979
0.502862
0.438048
0.395664
-0.00990375
-0.0350421
-0.0824986
-0.220042
0.504954
0.503312
0.507677
0.508494
0.509274
-0.0304295
-0.029986
-0.0206467
-0.0734246
-0.0660428
-0.0785542
0.471528
0.491719
-0.201706
0.507972
0.510078
0.509771
0.504006
0.508929
0.507571
-0.0265954
-0.0294394
-0.0316263
0.180621
0.322782
0.661758
0.735958
0.611147
0.445351
0.155723
0.599285
0.650799
0.576409
0.706786
0.624863
0.621046
0.141713
-0.00240498
0.145896
0.0788929
0.49865
0.498106
0.488943
0.485815
0.503128
0.500805
0.506001
0.503255
0.506427
0.507566
-0.0606745
-0.090082
-0.110158
-0.153024
0.271247
0.530567
0.219226
0.278544
0.141784
-0.0832448
-0.0825045
-0.0850234
-0.0889701
-0.047919
-0.0490087
-0.00495486
0.00559455
-0.011182
-0.0368711
-0.056819
-0.0495378
-0.0583932
0.495988
0.496162
0.501076
0.509636
0.447696
0.451398
0.41774
0.436451
0.422617
0.362656
0.392325
0.369489
-0.0207174
-0.0116761
-0.0124601
-0.0363315
-0.0355581
-0.0568564
-0.0491573
-0.0482404
-0.0447097
-0.0492106
-0.0760454
-0.0829635
-0.183915
-0.304144
0.942838
0.866908
0.13137
0.494839
0.500516
0.497679
0.502435
0.505629
0.506254
0.503817
0.500304
0.491831
0.493405
0.489894
0.490931
-0.138987
-0.249338
-0.0810513
-0.158016
0.138914
0.605166
0.329998
0.274541
0.259755
0.487804
0.679008
0.585635
0.638898
0.609592
-0.402696
-0.00625513
-0.338007
0.206835
0.203575
0.688929
0.730489
0.747887
0.704911
0.661393
-0.0303203
0.537
-0.0857338
-0.0336228
0.159063
0.0396133
0.594521
0.610552
0.616721
0.613095
0.618619
0.618375
0.607222
0.595493
0.618
0.621882
0.48053
0.208875
0.165302
0.119402
0.610512
0.502967
0.553223
0.47141
0.494322
0.496719
0.495694
0.476328
0.483693
0.479351
0.48656
0.490252
0.497606
0.497786
0.493578
0.495535
-0.0809464
-0.0890852
-0.0774367
-0.134132
-0.139146
-0.182736
-0.0946138
0.0895463
0.0386148
0.227314
0.353537
0.0597515
-0.0623345
-0.0457158
0.00703435
0.157979
0.16592
0.0447205
0.145334
0.116181
0.0992438
0.213206
0.213425
-0.0571657
-0.0635184
-0.0633423
-0.0694145
-0.0235973
0.100545
0.0721223
-0.0372521
-0.0431068
-0.0809876
-0.084171
-0.00397079
-0.0454534
-0.0375274
-0.00875717
-0.0641967
-0.0388473
-0.0298493
-0.0390239
-0.0389233
-0.038325
0.490688
0.492659
0.492689
0.502253
0.513731
0.528653
0.495605
0.46892
0.459941
0.463039
0.436102
0.445305
0.440583
0.456423
0.477976
0.486363
0.484521
0.487216
0.469288
0.470926
0.456317
0.460983
0.430151
0.411354
0.40114
-0.0603167
-0.0274647
-0.0412639
-0.0529978
-0.0275212
-0.0367575
-0.0383674
-0.0191918
-0.0389524
-0.0335389
-0.0434588
-0.0491039
-0.0495318
-0.0863748
-0.00424797
-0.187978
-0.236524
-0.289898
0.868121
1.00745
0.784365
0.567235
0.57616
0.813062
0.921286
0.525821
0.714021
0.746252
0.563688
0.854091
0.498802
0.49838
0.496233
0.495396
0.496408
-0.0262867
0.0774397
0.0872658
0.147814
0.263118
0.367998
0.303076
0.189222
0.321452
0.346207
0.602579
0.609259
0.568471
0.589761
0.590484
0.397615
0.478042
0.515766
0.47325
0.549438
0.580955
0.526027
0.569785
0.491001
0.440585
0.431829
0.386621
0.421384
0.402389
0.376654
0.490413
0.46735
0.47811
0.468428
0.490358
0.516466
0.51643
0.536053
0.554681
0.469069
0.414898
0.432062
0.46077
0.416601
0.434212
0.456317
0.177785
0.0797174
0.242332
-0.0851024
-0.00127627
0.0398128
-0.00382399
-0.0447881
0.261835
-0.374037
-0.320637
-0.994816
0.486051
0.817135
0.538392
0.550307
0.617074
0.605862
0.614495
0.614086
0.61885
0.599108
0.606897
0.612561
0.578845
0.600303
0.589496
0.598389
0.484577
0.384995
0.388353
0.319467
0.180166
0.222302
0.413826
0.344963
0.269811
0.261866
0.438588
0.303801
0.383664
0.432526
0.356165
0.292182
0.518671
0.567458
0.55935
0.531683
0.409547
0.442933
0.443318
0.492982
0.536944
0.561096
0.485134
0.491439
0.492347
0.489616
0.487984
0.491112
0.491399
0.493712
0.493846
0.496449
0.495945
-0.0800686
-0.0657401
-0.0790382
-0.0879487
-0.0237917
-0.0363707
-0.00643786
-0.0407492
-0.0369904
-0.0333346
-0.0500057
-0.0641981
-0.0625963
-0.0527365
0.0718668
0.091483
0.0939851
0.0497277
0.222286
0.401774
0.458984
0.322161
0.197503
0.226212
0.308161
0.0193935
0.00449799
-0.00884865
0.0633916
0.0530655
-0.0700877
-0.074477
-0.0695739
-0.0570293
-0.0504782
-0.0724415
-0.0784068
-0.0684731
-0.0746691
-0.0809312
-0.083591
0.470583
0.463502
0.467063
0.459503
0.457685
0.474575
0.479241
0.480216
0.485818
0.488395
0.47788
0.483729
0.487936
-0.0401485
-0.0569901
-0.0564899
-0.0615655
-0.0570564
-0.0547983
-0.058684
0.115953
0.022781
0.0591505
-0.0124956
-0.139495
-0.080185
0.490294
0.483047
0.470206
0.708922
0.544631
0.46384
0.562981
0.683871
0.263833
0.462743
0.298364
0.873802
0.781812
0.926625
0.542209
0.244099
0.416384
0.423879
0.264782
0.389823
0.327945
0.204176
0.239568
0.275221
0.359078
0.243632
0.223087
-0.0199382
0.162387
0.27121
0.253227
0.379232
0.435339
0.254984
0.170332
0.116245
0.583892
0.60022
0.607933
0.579429
0.600005
0.562231
0.551326
0.56637
0.575218
0.572085
-0.62908
-0.217737
-1.41715
-0.834815
-0.382955
0.513809
0.518369
0.736186
0.636386
0.641444
0.623805
0.573484
0.550525
0.589008
0.599485
0.30892
0.393474
0.381478
0.356468
0.302753
0.245032
0.515338
0.526886
0.546649
0.57558
0.553425
0.581074
0.483904
0.483749
0.482412
0.478664
0.477153
0.480454
0.0183413
-0.00749114
0.0318973
0.0170655
-0.00747126
-0.0073105
-0.0481901
-0.0593634
-0.0610436
-0.0569561
-0.0458985
-0.0442291
0.163155
0.100478
0.0116031
0.0530746
-0.0136953
-0.0961567
-0.098675
-0.007058
0.0935749
0.0748707
0.378796
0.645478
0.471602
0.637034
0.437369
0.535408
0.452613
0.42594
0.453045
0.359413
0.450261
0.0504526
-0.15237
-0.207071
0.807948
0.771169
0.549266
0.309151
0.18784
0.476499
0.498828
0.459798
0.48619
0.534978
0.519518
0.0189359
0.103311
0.195436
0.499568
0.271479
0.290838
0.280491
0.448415
0.416199
)
;

boundaryField
{
    wall-4
    {
        type            zeroGradient;
    }
    velocity-inlet-5
    {
        type            zeroGradient;
    }
    velocity-inlet-6
    {
        type            zeroGradient;
    }
    pressure-outlet-7
    {
        type            fixedValue;
        value           uniform 0;
    }
    wall-8
    {
        type            zeroGradient;
    }
    frontAndBackPlanes
    {
        type            empty;
    }
}


// ************************************************************************* //
