/*--------------------------------*- C++ -*----------------------------------*\
  =========                 |
  \\      /  F ield         | OpenFOAM: The Open Source CFD Toolbox
   \\    /   O peration     | Website:  https://openfoam.org
    \\  /    A nd           | Version:  6
     \\/     M anipulation  |
\*---------------------------------------------------------------------------*/
FoamFile
{
    version     2.0;
    format      ascii;
    class       surfaceScalarField;
    location    "86";
    object      phi;
}
// * * * * * * * * * * * * * * * * * * * * * * * * * * * * * * * * * * * * * //

dimensions      [0 3 -1 0 0 0 0];

internalField   nonuniform List<scalar> 
1300
(
3.75095
5.62643
-3.32411
3.75095
-7.75297
5.62643
-4.28639
4.28639
-0.381135
0.381135
1.8765
1.87445
-2.42952
2.42952
-1.69965
1.69965
-2.52342
2.52342
-5.24827
5.24827
-5.06887
5.06887
4.69471
-4.69471
-6.34052
6.34052
-0.960439
0.960439
-3.58149
3.58149
3.17238
-3.17238
-1.79239
1.79239
0.114736
-0.114736
-0.55408
4.30503
3.19687
3.19687
-1.99261
1.99261
-4.87515
4.87515
6.22229
-6.22229
5.22528
-5.22528
-1.90116
-2.52168
1.79123
-11.4572
-5.96175
-5.96175
-8.44086
8.44086
-2.81443
2.812
2.94736
-2.94736
-1.71815
1.71815
-4.30523
0.0188319
-4.30523
4.25556
0.0308357
4.25556
-0.496785
0.11565
-0.496785
3.96303
-3.96303
0.277948
0.103188
0.277948
3.06734
-3.06734
-1.87685
3.75335
1.8741
-1.8721
6.17713
-1.87886
3.75331
-6.04747
6.04747
-2.67821
0.248691
-2.67821
2.19562
0.233895
2.19562
-6.89912
6.89912
-1.76835
0.0687061
-1.76835
1.69391
0.00573579
1.69391
2.88873
-2.88873
-2.6254
0.10198
-2.6254
2.38867
0.13475
2.38867
0.353022
5.27341
-5.97945
8.79145
-5.27341
0.0251398
5.21023
0.0380349
5.21023
-5.10535
0.0364856
-5.10535
5.01367
0.0551921
5.01367
4.78205
-0.087334
4.78205
-4.81575
0.121037
-4.81575
-3.35703
-4.08332
-6.50207
0.161543
-6.50207
-1.03342
0.0729781
-1.03342
0.861057
0.0993817
0.861057
-3.73354
3.73354
-3.94027
0.358776
-3.94027
3.12733
0.0450511
3.12733
1.86812
1.88284
5.61907
-5.61907
2.44669
-1.707
-0.085391
-1.707
-1.89005
-3.33522
1.89005
-0.0976618
-0.110249
0.224984
-0.110249
3.15713
0.0397405
3.15713
2.23187
0.156805
-2.23187
0.239254
3.30357
-3.30357
1.33086
0.661756
1.33086
-5.55868
5.55868
4.96209
0.0515803
-4.96209
0.0869421
6.15678
0.0655108
6.15678
-6.20763
-0.0146598
-6.20763
2.48103
-5.00271
-2.68048
6.15153
0.188992
-6.15153
0.189783
2.91897
0.0283945
2.91897
-2.91819
2.91819
-2.98432
0.0369568
-2.98432
-2.14046
0.42231
-2.14046
1.40442
0.313734
1.40442
-4.22189
-0.0833374
-4.22189
-4.09949
0.159215
4.09949
0.156072
1.11933
-1.11933
-0.605358
0.108573
-0.605358
-4.0696
-0.152286
4.0696
-0.106571
-3.90068
-0.0623519
-3.90068
-3.02198
0.0376572
3.02198
0.0453646
3.11214
0.0449973
-3.11214
0.044795
-1.87099
3.75383
-1.87996
3.75406
-5.68288
-0.364586
-5.68288
6.367
-0.319531
6.367
3.10279
0.478703
-3.10279
0.424584
2.01101
0.184611
2.01101
-6.8729
-0.0262235
-6.8729
6.90527
-0.006146
6.90527
1.87069
0.14032
-1.87069
0.10234
1.68973
0.0041758
1.68973
2.91652
-0.0277883
2.91652
-2.88226
-0.0064748
-2.88226
2.78856
-2.78856
2.71368
0.0748812
-2.71368
0.0882761
-11.1242
11.1095
-0.036324
-11.0879
5.17391
5.17391
4.23469
0.547358
4.23469
-5.01343
0.197682
-5.01343
2.66724
-5.34772
3.12343
-6.48046
4.67345
-16.1307
4.28142
-8.36475
6.75378
-6.75378
6.63508
0.118694
-6.63508
0.133017
-1.14265
0.10923
-1.14265
-3.13157
-0.601964
-3.13157
4.36936
-0.635824
4.36936
-3.0274
3.0274
-3.07623
0.0488277
3.07623
0.0510994
1.67874
0.0109963
-1.67874
-0.0282601
0.179337
0.0986103
-0.179337
0.0690886
3.52752
-0.223946
3.52752
-3.09825
-0.205321
-3.09825
-1.23167
0.0890234
1.23167
0.0991875
-5.80747
0.248791
-5.80747
-11.1819
0.0940786
-11.1439
-6.11355
-6.11355
2.3273
11.1188
-2.89742
0.0151571
2.89742
0.0215522
2.97466
0.0527422
-2.97466
0.0564687
-2.85627
0.0677127
2.85627
0.0619181
-2.50807
0.367608
-2.50807
-1.02161
1.02161
-1.16781
0.1462
1.16781
0.236603
1.42182
-0.302492
1.42182
0.740184
0.120873
-0.740184
0.134826
-3.84412
-0.0565638
-3.84412
6.6047
-0.237702
6.6047
-2.96867
-0.129583
2.96867
-0.0521472
-0.0347941
11.1443
-5.13911
0.0337639
5.13911
-11.2098
11.2436
-3.21284
0.704776
3.21284
1.02185
5.28372
0.274966
-5.28372
0.270286
6.84502
0.0602455
-6.84502
0.0912444
-2.64076
-0.490818
-2.64076
-5.09567
-0.587208
5.09567
-0.726311
-11.4824
-0.202162
11.6846
-11.4272
6.00964
0.147145
-6.00964
11.3907
-0.993917
-0.125412
0.993917
0.0276945
1.76196
-0.340137
1.76196
3.74688
-0.219363
-3.74688
-0.0972333
-6.76651
-0.106384
6.76651
-0.161813
-2.19068
-0.450073
2.19068
-0.428725
-4.26739
4.30713
1.90974
-2.31717
-2.68554
-5.65239
1.85529
1.89854
4.30198
-10.1415
-5.98921
-9.95169
7.21469
-6.9444
-9.31721
9.22988
7.94713
-8.00949
-5.77728
5.82838
6.4848
-6.43944
1.87949
1.87387
8.07139
-7.8227
-15.691
15.3264
7.63792
-7.56921
15.8176
-15.8438
-17.8564
17.9167
-5.70499
5.80697
-6.74308
6.73661
-6.98019
6.92804
-2.79398
-3.68648
13.1115
-12.9499
8.63194
-8.71733
-8.68718
9.04596
3.38462
0.922511
3.42962
-1.88177
3.76126
-1.87153
3.78127
2.77982
-5.5738
2.5679
-5.25345
4.40455
4.2274
-4.30689
-1.3455
-5.92889
5.95729
-5.80902
5.87094
9.19531
-9.17648
-1.88499
3.75885
-1.86908
3.76762
-3.42286
-2.35442
3.37781
0.924165
8.05925
5.05222
-8.24824
-1.70345
-8.03366
7.8143
-8.21788
8.01256
-0.435995
5.83845
-5.40245
4.43916
-1.6536
7.49205
5.56109
5.75877
5.86072
-5.58575
1.08368
-6.48613
-6.39919
-2.22074
2.32931
2.08969
-1.98651
6.15876
1.78837
6.05219
-5.81443
-2.19505
-5.871
3.81969
2.00869
3.86852
4.08226
2.40255
4.11991
3.02946
-3.03684
0.00737208
-3.05938
6.08885
0.722015
-5.4138
-4.48963
4.99216
3.07923
5.22606
-5.60032
-2.22238
-5.17573
-9.57136
-6.11961
-10.1586
10.1684
5.15797
9.84888
-11.9506
11.7888
4.88014
2.75778
4.88587
-4.98102
-2.58819
-4.87868
11.6785
-2.65312
-9.02536
-10.3249
-7.53151
10.331
5.48657
10.9676
6.94906
11.0588
4.42355
7.25494
-9.91012
2.37861
-3.86586
-1.83913
-3.77759
3.66446
2.14251
3.79921
-4.21897
-2.52411
-4.20382
-4.29536
-2.68483
4.32315
2.41346
-4.41758
-3.8003
4.54717
2.38088
4.06031
-10.0495
4.30444
-7.99092
-9.1973
-3.75262
-9.06429
3.58236
2.59605
-6.17841
-1.99144
8.59039
-4.36299
7.24488
-5.21536
-3.50198
-5.24362
-6.97721
-1.70998
-6.81799
-8.91544
8.42462
-9.21374
8.57791
12.4996
-5.6313
-6.86828
-3.96704
-2.47239
3.92225
-0.492627
-3.71004
3.71741
0.051222
3.83249
4.755
4.26238
-3.88235
-1.92667
-3.82588
3.82146
2.04949
3.88917
6.86214
2.33318
6.89297
-6.62763
-2.54885
-6.71097
9.08747
-8.66516
2.78576
-2.69674
5.38052
2.63203
-5.15658
-2.87708
6.23522
-3.20926
-3.02596
-12.3501
10.7851
1.56492
-4.85802
-0.418867
-0.533602
-5.56522
-3.75199
5.44418
0.314588
11.0997
7.34774
-5.51476
5.76355
6.16982
6.2214
-0.177795
5.88017
-5.17539
5.27327
-2.73652
-2.53675
5.48753
-5.63982
-1.22344
-5.56492
4.34148
0.412377
1.45605
-1.23107
-1.74434
-0.4764
-1.60951
1.12372
0.965977
1.22233
0.959365
1.36994
-2.93581
0.500912
2.4349
-1.97645
-1.48559
-3.8232
-1.14564
4.96884
5.73886
2.07544
-5.64163
-0.229372
2.54733
-2.44795
-0.841464
-2.98174
2.22209
-3.06356
-3.46326
-1.95128
5.41454
-3.36867
-0.457216
3.31592
0.552596
-3.82826
-2.10064
3.7913
0.328615
-3.12917
6.19046
-3.06129
-5.05584
2.52898
3.55986
4.53767
-4.78991
2.44929
2.34061
-1.23004
4.25715
0.968907
4.44176
-7.07632
4.85394
5.74413
3.30183
-6.22283
1.0471
-6.02922
8.55538
-7.40281
-1.15257
4.07805
4.47732
7.01079
5.4888
-5.66495
12.6757
-1.17194
-6.23087
7.20116
-3.89933
4.87476
-8.77409
-10.3636
4.13269
-9.20085
11.0802
-1.87933
-3.58948
-8.36111
12.7903
-1.25007
-11.5403
8.59881
-4.35441
-4.42615
8.78056
-7.00754
7.01434
-1.98772
-5.02662
-10.1499
-5.69398
10.2562
1.53253
-9.97429
12.3529
-2.71936
4.16714
0.718734
4.17131
3.36846
-5.4751
2.10664
3.63907
-5.6268
2.04192
-7.51702
-6.75481
12.0956
-5.34081
-10.5074
-9.54304
-0.964393
2.5501
9.8028
-9.49916
7.42979
2.06937
3.29829
0.590874
-3.37318
-0.404413
0.234432
4.50782
-4.74226
4.03364
4.19045
3.21476
1.29306
3.84958
2.10771
-3.87113
-0.332686
-4.16882
1.48399
-1.75536
-3.69388
5.17787
-4.06183
0.367949
-2.74231
-3.49239
6.2347
-4.58144
3.03593
3.15453
5.08541
-4.91424
1.42186
-2.39066
-2.52358
2.63998
-4.39534
2.00148
3.17639
4.38236
0.582061
5.91524
6.18038
-8.51129
0.520363
11.2326
-9.52915
2.47919
8.57965
-9.90898
0.365946
-8.69834
0.976986
-5.33998
-5.20142
5.23289
-6.94287
-3.5412
6.259
0.633973
-6.41507
-0.402922
-6.05685
-2.85859
-6.50692
-3.06012
-6.15361
-8.72507
-1.66905
-7.05603
6.75557
-6.68228
-3.47629
7.40859
1.16932
-7.47033
7.34492
-7.52766
7.18752
0.0950888
3.62232
4.35747
1.88507
-2.39228
4.27735
-5.0823
7.41548
-8.76618
3.68389
4.25331
-6.80217
-4.51287
5.04993
4.03753
5.36367
8.90826
-10.3561
1.44788
-10.6267
11.9676
-1.34082
-16.3988
5.7721
-7.49058
2.41087
0.374892
2.5201
0.546359
2.4994
-3.04576
-2.15038
-2.05119
-2.4482
-3.49226
5.94046
1.05878
-3.47678
2.418
-3.56397
4.62275
-0.0813365
-3.39544
5.18214
-2.68273
5.55703
-3.64531
1.91172
3.55249
5.84364
-2.29115
4.41955
-1.78751
1.9498
-4.24094
-1.54246
-2.95377
5.09628
-3.28093
3.64888
-0.354023
4.0029
-4.03563
0.826369
-0.820871
3.36958
3.60883
4.33306
-3.04
2.93384
-4.72135
-1.3071
-4.13929
-0.9629
-0.180701
-3.77379
3.95449
5.99181
-6.17251
-5.27585
9.51354
-4.23769
7.69324
-5.43323
-2.26
-4.2832
-4.38196
3.91559
1.96458
9.65781
0.178262
-5.61149
-4.99713
-3.97528
3.08472
2.18856
-1.70924
3.27416
2.24284
-0.786792
0.400653
0.821673
1.75863
-1.35798
0.340305
1.41832
-0.890761
1.67632
0.871008
-1.79719
0.187682
-1.35239
3.57448
1.08251
-2.04849
0.690511
0.890365
-3.62689
5.10864
-2.73982
-2.36882
5.999
1.14773
-3.88754
4.41719
-4.00482
2.45672
-3.60236
-1.43083
-5.43564
-3.64727
-2.48153
4.89953
-3.45893
5.53437
1.43627
-5.305
6.74126
-3.62773
1.67645
-3.05188
3.92288
-0.995021
-2.05686
2.87229
2.54224
-3.14291
0.161172
-0.270617
2.4171
-2.68772
-0.646456
-2.6229
-4.57621
4.90482
-2.10369
4.55298
2.17366
-1.91782
6.4708
1.80752
-3.72534
-3.24832
-3.70554
-1.38473
3.15294
-0.569151
-4.30953
-5.59577
4.16921
0.272549
-7.07612
7.93919
-0.863066
-3.9969
-0.857047
4.9351
-6.09206
0.465267
-4.05014
3.88904
4.85795
5.1305
-11.3083
-0.231954
-6.15033
1.07895
-7.22928
5.55627
-3.52169
7.65438
-10.3234
6.84707
-9.15404
6.50181
-0.727466
6.24333
-4.13669
2.78203
-8.47602
-6.94348
5.59559
-2.8378
6.31432
-3.2234
9.53772
-5.94276
5.37916
4.15855
-1.05714
-4.18648
-5.37499
4.31785
0.0041714
4.17549
4.98724
-2.87953
4.65455
2.26489
-4.65555
-2.13044
-6.4887
1.83315
-3.33417
-1.92261
3.75576
3.1628
3.75368
1.23217
-3.34927
7.25762
-8.22201
-1.9168
-3.28462
5.36488
-1.04703
3.47707
-6.76169
-1.86291
4.73734
-0.723402
-4.01394
0.893958
-4.43516
1.67486
-6.11002
5.26801
-5.67093
2.25446
-9.74504
-5.21587
-5.18818
-2.27772
-5.24994
-7.56459
5.28687
-1.79249
5.55243
-8.49892
7.77552
-3.46864
8.75551
-5.454
-1.05293
5.88272
1.3048
10.0603
0.167811
-4.68068
-1.94235
3.71819
-1.77584
1.14237
-3.60598
0.112218
2.4973
3.5017
-6.83878
0.0366178
-4.64406
-3.90573
7.94326
5.60781
11.5996
1.24349
9.12745
-1.18419
10.3709
4.17948
4.41608
-2.9994
4.44728
0.95509
4.63898
-0.897597
2.80932
1.6225
1.69548
0.752463
2.30163
1.3072
3.128
0.0822347
-1.96896
4.62934
-8.60462
-0.98215
-8.05727
1.17261
5.43228
-4.25967
2.85095
-0.662398
1.07511
-0.202523
-1.13038
1.33291
-2.73927
-1.91718
-0.498853
-1.67135
2.36186
1.90313
-1.86301
-0.876265
0.325864
-3.97314
3.27649
-3.11532
-0.573076
6.16819
-2.88849
0.200773
-1.21204
-2.42213
-2.89853
2.71085
6.17439
0.296416
3.1131
5.20124
3.1006
0.221073
3.79495
-5.67428
-3.72207
-5.90623
-0.349965
4.58514
1.7696
8.03321
5.92815
4.88112
-1.88056
-10.1026
6.49966
-2.05238
5.15884
-1.1449
-4.96511
5.0805
2.33498
-5.71447
0.043539
-4.92158
-6.97396
-0.477554
8.25307
-9.58275
8.52983
5.67124
1.38479
-4.42954
-0.758634
4.28334
0.132737
10.5037
-0.916122
-7.03274
7.94886
-4.51616
3.53401
0.67335
2.60081
2.00626
1.34386
-5.68888
-9.94856
-2.07267
-1.55422
-4.44149
0.527349
-2.43048
6.06399
-2.52998
3.80398
5.41889
6.494
-2.04795
-4.12456
6.28564
-2.48166
4.01234
)
;

boundaryField
{
    wall-4
    {
        type            calculated;
        value           uniform 0;
    }
    velocity-inlet-5
    {
        type            calculated;
        value           uniform -3.75095;
    }
    velocity-inlet-6
    {
        type            calculated;
        value           uniform -5.62643;
    }
    pressure-outlet-7
    {
        type            calculated;
        value           nonuniform List<scalar> 8(3.32411 7.75297 4.42284 9.66601 7.44035 5.16151 5.79068 8.95487);
    }
    wall-8
    {
        type            calculated;
        value           uniform 0;
    }
    frontAndBackPlanes
    {
        type            empty;
        value           nonuniform 0();
    }
}


// ************************************************************************* //
