/*--------------------------------*- C++ -*----------------------------------*\
  =========                 |
  \\      /  F ield         | OpenFOAM: The Open Source CFD Toolbox
   \\    /   O peration     | Website:  https://openfoam.org
    \\  /    A nd           | Version:  6
     \\/     M anipulation  |
\*---------------------------------------------------------------------------*/
FoamFile
{
    version     2.0;
    format      ascii;
    class       volVectorField;
    location    "86";
    object      U;
}
// * * * * * * * * * * * * * * * * * * * * * * * * * * * * * * * * * * * * * //

dimensions      [0 1 -1 0 0 0 0];

internalField   nonuniform List<vector> 
918
(
(0.985049 -0.000715887 0)
(0.00543428 2.96618 0)
(-0.00457241 0.877444 0)
(0.979575 0.00196163 0)
(-0.0142915 2.06297 3.3216e-20)
(-0.0071808 2.94861 -2.53866e-18)
(0.821798 1.1235 4.51522e-19)
(0.112889 0.0826037 -1.39268e-20)
(0.999922 -0.000245462 0)
(0.0919879 0.667987 0)
(0.015901 0.357611 0)
(0.732737 0.00702892 0)
(0.0101976 2.93186 0)
(0.00334005 2.79432 0)
(-0.0026845 3.1766 8.32518e-19)
(-0.0136317 1.9295 2.46102e-20)
(0.294641 0.0460727 9.74911e-19)
(0.234333 1.11034 3.58469e-19)
(0.96432 0.00674167 0)
(-0.00533378 0.353302 0)
(0.0572016 -0.0697523 -6.34404e-19)
(1.00183 -0.00455934 0)
(0.99985 -0.00892578 0)
(0.975169 -0.00605162 0)
(0.593532 0.0270392 0)
(0.0207916 2.6449 0)
(-0.0121572 2.91174 9.27231e-19)
(-0.00817801 0.928036 0)
(-0.035636 1.17141 0)
(-0.00606786 0.897104 0)
(-0.0242442 2.58516 0)
(-0.00512708 2.1138 -2.65304e-20)
(-0.0101753 1.90086 0)
(-0.0219809 2.98768 -9.14067e-23)
(-0.0163865 3.00544 1.97018e-18)
(0.00230731 3.00043 0)
(0.871994 -0.00976399 0)
(0.373332 0.91106 1.61493e-19)
(0.820533 1.14245 -5.67673e-19)
(0.952654 1.00939 5.7731e-19)
(0.682924 1.22534 -1.03325e-19)
(0.696482 1.18496 5.88761e-19)
(0.140699 0.128519 1.35845e-20)
(0.149025 0.0882975 0)
(1.16946 0.533265 0)
(0.106998 0.108093 6.11325e-20)
(0.086181 0.0651855 -6.34465e-20)
(0.920572 -0.00704643 0)
(1.00027 5.3138e-05 0)
(0.999907 0.000320901 0)
(1.0037 -0.00727972 0)
(1.00088 -0.000949112 0)
(1.00011 -5.28797e-06 0)
(0.0789989 1.83607 -7.65104e-19)
(0.033697 0.850099 0)
(0.127643 0.759397 0)
(0.018298 0.791669 0)
(0.054155 0.58401 0)
(0.00501516 2.03538 0)
(-0.00935665 0.690378 0)
(0.0128641 0.396373 0)
(-0.0122886 0.684978 0)
(0.00776962 0.354746 0)
(0.843821 -0.0156127 0)
(0.84144 0.02736 0)
(0.757573 0.00314676 0)
(0.799833 0.0269447 0)
(0.700911 0.0207774 0)
(0.0137866 3.00032 9.4209e-19)
(0.0109182 3.00668 0)
(0.0058444 3.00352 0)
(0.0118325 2.99748 1.06871e-23)
(0.00804394 2.95886 -1.40017e-18)
(0.0122453 2.98286 0)
(0.00922008 2.90485 0)
(0.0210223 2.93146 2.16015e-24)
(0.00381717 2.82432 0)
(0.0260891 2.91875 0)
(-0.000592787 2.74502 0)
(0.304453 3.57003 0)
(-0.122133 3.65265 0)
(0.148322 3.26716 -7.74798e-19)
(0.00262683 3.00578 0)
(-0.033033 1.99101 0)
(-0.00752729 2.1792 -2.42724e-20)
(-0.00942063 1.94192 2.50959e-20)
(0.345836 0.139925 -3.38519e-19)
(0.322576 0.0153978 -3.29454e-19)
(0.301791 0.153267 -1.01203e-18)
(0.263268 0.0662488 -6.57771e-19)
(0.265287 1.02659 0)
(0.333769 1.24171 -3.70273e-19)
(0.415849 1.15268 6.10976e-19)
(0.987696 0.00817272 0)
(0.943206 0.00577028 0)
(1.00028 0.000672046 0)
(1.00254 0.00906634 0)
(1.0031 0.00899856 -2.60228e-18)
(0.992135 0.00941238 1.9664e-18)
(-0.0282788 0.709404 0)
(-0.00164488 0.354386 0)
(-0.0567825 1.01457 0)
(-0.0371502 0.771823 0)
(-0.0149269 0.361996 0)
(-0.0825253 0.0729442 1.97336e-19)
(0.0319987 0.0465544 0)
(0.993627 -0.00769146 0)
(0.954056 -0.00648476 0)
(0.741943 0.0268338 0)
(0.672974 0.0248508 0)
(0.658463 0.0266584 0)
(0.980742 -0.00249081 0)
(0.58603 0.0661871 0)
(0.454538 -0.0116751 1.4845e-18)
(-0.0411254 2.86016 7.19757e-19)
(0.0339197 2.91424 0)
(0.0428149 2.89264 0)
(0.00324682 2.70236 0)
(-0.00878042 2.98661 8.85841e-19)
(-0.0139568 2.89431 0)
(-0.010919 2.99188 -2.73048e-18)
(-0.0114411 2.92938 9.3001e-19)
(-0.051649 1.35069 0)
(-0.019901 1.37985 0)
(-0.008062 2.14056 8.70722e-22)
(-0.00797879 2.09916 0)
(-0.0172332 1.91274 0)
(0.938935 -0.00519046 0)
(0.857361 -0.0111595 0)
(0.862889 0.0050741 0)
(0.949712 -0.00613341 0)
(0.883719 -0.00809956 0)
(0.496492 1.11073 -2.05186e-19)
(0.543923 1.18063 0)
(0.335414 0.845624 3.145e-20)
(0.280316 0.710386 0)
(0.922038 1.03841 -1.63382e-19)
(1.0452 0.849052 3.29727e-19)
(0.394264 1.32043 0)
(0.545119 1.2761 0)
(0.59937 1.20233 0)
(0.1045 0.181185 -2.96504e-19)
(0.168644 0.140289 0)
(0.171145 0.103698 1.8247e-19)
(1.00818 0.902919 0)
(1.08398 0.75093 0)
(1.11374 0.686138 -2.65893e-19)
(1.14994 0.59664 0)
(1.20608 0.391545 4.75083e-20)
(0.957536 -0.0070924 0)
(0.962751 -0.00810573 0)
(0.900945 -0.00737632 0)
(0.983935 -0.00811986 0)
(0.974441 -0.00802754 0)
(0.936558 -0.00656788 0)
(1.0002 0.00250608 0)
(1.00078 0.00123879 0)
(1 0.000760029 0)
(0.038679 2.08523 4.22108e-19)
(0.14058 1.7823 0)
(0.0178319 2.19296 6.49316e-19)
(0.0538893 1.8917 -5.2801e-19)
(0.168136 1.0854 -2.94238e-19)
(0.0508018 0.935724 0)
(0.122839 0.940058 0)
(0.00670104 0.753496 0)
(0.029877 0.51067 0)
(-0.00286387 2.26164 -2.75312e-22)
(0.0209346 2.04188 0)
(-0.00471074 2.26121 -3.01398e-21)
(0.00294453 2.04614 -6.48591e-21)
(-0.000635145 0.722192 0)
(-0.00569197 0.703066 0)
(0.0147394 0.4477 0)
(-0.0204914 0.687073 0)
(0.00853375 0.349147 0)
(0.939628 0.0139205 0)
(0.85665 -0.0115295 0)
(0.928758 0.00491344 0)
(0.846385 -0.0127857 0)
(0.809495 0.000876775 0)
(0.899073 0.0204098 0)
(0.874665 0.0240882 0)
(0.782962 0.00132432 0)
(0.00982527 3.06823 -8.74127e-21)
(0.0155471 3.05814 0)
(0.0123564 2.97004 0)
(0.00756587 2.87673 0)
(0.89337 3.96232 0)
(1.18677 3.35904 9.35165e-19)
(0.0803458 3.08857 0)
(-0.0180446 2.91695 0)
(-0.0197338 1.40734 0)
(-0.0384697 1.70176 0)
(-0.0275538 1.53837 0)
(-0.0346327 2.54655 -1.53767e-20)
(-0.0206704 2.24524 0)
(-0.0247947 2.38797 0)
(-0.000571106 1.97241 2.63659e-23)
(-0.00532484 2.2543 -3.18555e-20)
(-0.00642667 2.21727 -2.57427e-20)
(-0.00563377 1.95602 0)
(0.390068 0.116331 5.19333e-19)
(0.363566 0.00752832 -5.09782e-19)
(0.233796 1.59167 0)
(0.288939 0.770349 -3.20638e-19)
(0.175232 1.69033 -1.05176e-18)
(0.247242 1.23083 1.05228e-18)
(0.901598 0.005921 0)
(0.966994 0.0107071 0)
(0.974855 0.00988651 0)
(0.922938 0.00585546 0)
(-0.0189829 0.690992 0)
(-0.0247246 0.69917 0)
(0.00545569 0.343144 0)
(0.0765925 0.0910182 5.60176e-19)
(0.0568463 0.0662987 -6.5614e-19)
(0.0462966 0.0488874 0)
(1.10857 0.0910614 2.32794e-20)
(1.09217 0.0429477 0)
(1.01956 0.0439632 0)
(0.914479 -0.00123815 0)
(0.437142 0.0974742 0)
(0.495424 0.0801691 -2.37379e-18)
(0.398918 0.00407797 8.88915e-19)
(0.0103141 2.97712 7.6668e-19)
(-0.0331198 2.86117 4.60302e-20)
(0.00828106 3.05359 -1.84751e-20)
(0.016414 3.04271 6.88821e-19)
(-0.0116943 3.00006 3.06195e-20)
(-0.0124457 2.95221 -1.23375e-22)
(-0.0150477 3.01304 -5.72066e-19)
(0.0152888 3.02554 4.06508e-19)
(0.00801577 3.03568 -6.60342e-19)
(0.934808 0.00217473 0)
(0.939579 -0.00109259 0)
(0.848259 -0.0111973 0)
(0.956239 0.0118366 0)
(0.94224 0.0134055 0)
(0.881468 0.00547661 0)
(0.91567 0.017907 0)
(0.924981 0.0154309 0)
(0.836852 0.00207508 0)
(0.669145 1.40877 1.99297e-20)
(0.687172 1.51917 0)
(0.117536 0.2876 6.66473e-20)
(0.214211 0.653436 5.26336e-19)
(0.239642 0.6905 -3.08998e-19)
(0.212646 0.490098 6.13477e-19)
(0.341557 0.833973 1.5701e-18)
(0.136343 0.237666 3.77557e-19)
(0.257591 0.164969 6.97358e-19)
(0.20939 0.161672 1.79774e-19)
(0.218944 0.0908409 3.42379e-19)
(1.19699 0.448375 1.02218e-19)
(1.22139 0.246856 9.99278e-20)
(0.0100186 2.25086 2.39536e-19)
(0.0437665 1.96501 0)
(0.97335 0.0332134 0)
(0.947048 0.0193375 0)
(0.871609 -0.0150631 0)
(0.0128527 3.0737 0)
(0.016703 2.94385 1.21947e-18)
(0.0138229 2.95661 0)
(0.00568268 2.85005 -1.21023e-18)
(0.00982063 3.08957 2.9765e-19)
(0.0108884 3.08421 0)
(0.706373 1.81457 -1.70896e-19)
(1.23098 2.61884 5.77795e-19)
(0.691074 1.99253 -1.39297e-18)
(0.0218139 2.976 -6.64119e-19)
(0.0398972 2.99744 0)
(-0.0387141 2.87808 0)
(-0.0063431 2.23963 -1.3083e-20)
(-0.00501125 2.25989 6.21275e-20)
(-0.000152603 2.00795 -7.30679e-21)
(0.268962 1.40426 1.01827e-18)
(0.288528 0.574978 -6.99186e-19)
(0.068445 2.00652 7.38527e-19)
(0.120352 1.87179 -8.93961e-19)
(0.212215 1.54141 1.04267e-19)
(0.00616274 3.12033 -1.65152e-18)
(0.0133475 3.1207 1.81911e-18)
(-0.00525417 2.98047 8.27752e-19)
(-0.0014555 2.97497 -7.91831e-19)
(-0.0176148 2.87703 -8.43101e-19)
(0.0116709 3.10075 -2.2095e-18)
(0.00553343 3.10545 2.24281e-18)
(0.268976 0.699345 0)
(0.21979 0.659096 -1.12509e-18)
(0.0748379 0.211275 4.95234e-19)
(0.347543 0.954644 1.11611e-18)
(0.201016 0.282667 -1.71891e-18)
(1.19984 0.17682 4.48008e-20)
(1.21812 0.306418 0)
(1.1953 0.121816 1.27689e-20)
(-0.00133531 2.26798 -1.13122e-21)
(0.00675014 2.25501 0)
(0.0329958 1.99637 0)
(0.313565 1.31887 -3.65912e-19)
(0.354452 1.18101 -7.943e-19)
(0.234479 0.394389 1.42141e-18)
(1.00644 -0.00967838 0)
(1.00774 -0.00778135 4.78246e-19)
(-0.0456512 1.33316 0)
(-0.055455 1.33824 0)
(1.00244 0.00326978 1.33604e-21)
(1.0032 0.00780906 9.81907e-19)
(-0.0258302 2.5335 1.94859e-20)
(-0.0285601 2.57597 0)
(0.0399627 3.17212 4.67495e-19)
(0.372436 3.53737 0)
(1.16002 0.695384 -4.70767e-20)
(1.01177 0.0106361 -2.85403e-21)
(1.02089 -0.00898618 0)
(1.00157 0.000290676 1.57624e-22)
(0.117258 1.37573 0)
(0.149672 2.58938 0)
(0.0335965 1.32648 0)
(-0.000928479 2.63339 -1.19533e-20)
(-0.0217758 2.58029 -1.49646e-20)
(0.998126 0.0317531 2.68046e-21)
(1.06305 0.00592882 0)
(1.10025 0.0286 0)
(-0.0367832 1.74912 0)
(-0.0203011 2.57867 0)
(-0.0160252 1.32737 0)
(0.309073 1.49217 -1.77051e-19)
(1.01152 -0.00904917 0)
(1.00971 -0.0129828 0)
(1.00227 0.000935471 6.12412e-19)
(1.00547 -0.0049093 -7.22047e-19)
(1.00113 -0.000861841 0)
(-0.0260566 1.47391 0)
(-0.0149761 1.39667 0)
(-0.0211149 1.43583 0)
(-0.0191682 1.31278 0)
(-0.035032 1.30208 0)
(-0.0280375 1.28225 0)
(1.0357 -0.00428535 0)
(1.0189 0.0155096 -1.00124e-21)
(0.813736 1.3141 2.86904e-19)
(1.00245 0.000392471 -6.12157e-19)
(1.00339 0.00444432 7.30712e-19)
(1.00126 0.00209074 0)
(1.01105 0.00962784 6.09663e-19)
(1.00682 0.00744595 -7.42155e-19)
(1.00711 0.0111091 0)
(-0.0252651 2.60555 0)
(-0.0286396 2.58432 -3.45723e-20)
(-0.0253617 2.59859 2.4389e-20)
(1.24311 0.274405 5.065e-19)
(1.16377 0.0892937 0)
(0.0434218 3.09143 -9.38993e-19)
(0.0519717 2.874 -6.65939e-20)
(0.102808 3.20171 1.25557e-18)
(0.12117 3.21361 -2.64438e-19)
(0.140236 3.25576 0)
(0.0224905 3.13768 2.57841e-19)
(0.0607191 3.16195 9.35331e-19)
(0.061151 3.17868 -4.82399e-19)
(0.0267719 3.12948 0)
(0.542631 0.288698 0)
(0.487202 0.303893 0)
(1.14282 0.727246 1.0217e-19)
(1.10733 0.862826 -8.12945e-20)
(1.20011 0.612956 0)
(1.22682 0.546547 0)
(1.01569 0.0120341 -1.1324e-18)
(1.01464 0.012776 1.42374e-18)
(1.02578 -0.00871069 0)
(1.02411 -0.0102796 0)
(1.00681 0.00327485 0)
(1.01088 0.00422277 0)
(1.00419 0.002221 0)
(1.00933 0.006344 0)
(1.00682 0.00504069 0)
(1.00437 0.00525581 0)
(0.107715 1.37634 0)
(0.0963157 1.33427 0)
(0.141854 1.42216 0)
(0.146958 1.40526 0)
(0.151591 2.61068 0)
(0.189054 2.6766 -4.01919e-19)
(0.0932918 2.65954 0)
(0.0846112 2.65464 1.72143e-19)
(0.0234011 2.67628 -1.55002e-19)
(0.0192891 1.33561 0)
(0.0316671 1.25273 0)
(0.0234558 1.34785 0)
(0.0485971 1.27238 0)
(-0.00221665 1.99559 4.26602e-20)
(-0.0216338 2.60842 -4.50053e-20)
(-0.00656378 2.67522 -3.898e-20)
(-0.0190475 2.68704 0)
(-0.0240717 2.6146 4.44378e-20)
(-0.0227416 2.61015 4.7185e-20)
(0.00452121 1.99233 -3.25898e-20)
(-0.0103029 2.40008 6.03758e-20)
(-0.0148152 2.42483 4.41891e-20)
(1.01171 0.0403131 1.14859e-18)
(1.00432 0.0210084 -1.42978e-18)
(1.00357 0.0475794 -1.17245e-18)
(0.975997 0.0380788 1.47647e-18)
(1.06473 0.00926064 0)
(1.04996 -0.00641571 0)
(1.09274 0.0378016 0)
(1.07592 0.0150819 0)
(1.07468 0.000518585 0)
(1.14142 0.0799225 0)
(1.11589 0.0464931 0)
(1.11926 0.0375603 0)
(-0.031592 2.43021 4.07806e-21)
(-0.0229602 2.02482 0)
(-0.0232945 2.22019 0)
(-0.0223643 2.59956 -2.22288e-20)
(-0.0188602 2.61077 7.23119e-22)
(-0.00451033 1.59608 -6.08129e-20)
(-0.0147784 1.51804 6.2145e-20)
(-0.0253375 1.40975 0)
(-0.0298141 1.41561 0)
(-0.0364796 1.40574 0)
(-0.00986812 1.32992 0)
(0.00522035 1.24614 0)
(0.386512 1.51691 2.97058e-19)
(0.435228 1.52107 1.56435e-19)
(0.591326 2.46337 -2.45696e-19)
(0.385285 2.5595 6.91487e-19)
(0.349371 2.04825 6.84515e-20)
(1.02072 -0.00798845 0)
(1.0158 -0.00934621 0)
(1.01486 -0.0132061 0)
(1.00774 -0.000545833 0)
(1.00484 -0.000685582 0)
(1.008 -0.00446415 0)
(1.00955 -0.00342725 0)
(1.01465 -0.00426681 0)
(1.01964 0.0164151 1.11113e-18)
(1.01713 0.014954 -1.40985e-18)
(1.02007 0.0188973 -1.12015e-18)
(1.01739 0.0173475 1.40305e-18)
(0.770066 1.36069 0)
(0.708667 1.39681 2.52262e-19)
(0.878197 1.24216 1.07692e-19)
(0.914602 1.20156 -1.42928e-19)
(1.16252 2.60805 2.61228e-19)
(0.750072 0.126607 5.78219e-19)
(1.17217 0.108399 0)
(1.21501 0.202993 -4.11314e-19)
(1.19653 0.15466 -1.71149e-20)
(1.01239 0.166255 0)
(0.0751669 3.01829 3.31445e-19)
(0.0813653 2.90315 -1.10218e-18)
(0.0227623 2.36125 6.98244e-19)
(0.159507 -0.272309 -3.05673e-19)
(0.340608 3.44162 -2.56547e-19)
(0.191873 3.33776 0)
(0.222448 3.39314 3.34182e-19)
(0.220005 3.07569 -1.1658e-18)
(0.252569 3.19382 0)
(0.00647155 3.12243 4.887e-20)
(0.0169187 3.13116 -5.63828e-19)
(0.0159165 3.12693 8.29853e-19)
(0.0329263 3.14007 0)
(0.0309472 3.14958 0)
(1.25457 2.571 0)
(0.541676 0.788746 -5.15968e-19)
(1.02763 1.03679 -1.85622e-20)
(0.994081 1.08981 0)
(0.863044 0.97157 -1.02925e-19)
(1.08678 0.912518 2.66025e-20)
(0.296842 0.306964 -7.61212e-19)
(0.634111 0.323777 -2.29278e-20)
(0.517196 0.216462 3.87465e-19)
(0.523894 0.319565 2.76253e-20)
(0.388603 0.26797 -1.10354e-18)
(0.58877 0.32171 0)
(0.679975 0.437726 6.67209e-19)
(0.692796 0.451344 0)
(0.551798 0.323203 0)
(0.451659 0.246487 0)
(0.800898 0.659436 3.85002e-19)
(1.25462 0.308432 -4.11421e-19)
(1.24787 0.440774 0)
(1.24796 0.395872 0)
(0.682022 0.187659 5.9089e-19)
(0.847229 0.561193 -3.64325e-19)
(0.768205 0.523513 6.50339e-19)
(0.96554 0.45767 -6.51015e-19)
(1.01842 0.0147664 7.55842e-19)
(1.01705 0.0136779 -7.61071e-19)
(1.01588 0.0142284 0)
(1.0371 -0.00450418 0)
(1.03049 -0.00768232 -7.13095e-19)
(1.0287 -0.0105678 7.05682e-19)
(1.02476 0.0110599 0)
(1.0227 0.0151728 0)
(1.01271 0.004759 0)
(1.01457 0.00910543 0)
(1.01643 0.00427113 0)
(1.01557 0.00295031 0)
(0.0777179 1.36258 0)
(0.0812375 1.30372 0)
(0.157715 1.42433 6.31607e-20)
(0.276956 1.48849 8.68424e-20)
(0.175764 1.46059 1.95661e-19)
(0.213201 1.45773 -3.16201e-19)
(0.165694 1.43635 0)
(0.146156 1.58506 -8.317e-20)
(0.14319 1.58272 0)
(0.343382 2.00104 -9.96657e-20)
(0.327467 2.32932 6.08688e-19)
(0.198735 1.46655 7.24802e-20)
(0.275914 1.40324 2.83763e-20)
(0.207232 1.40264 -2.31393e-20)
(0.290366 1.34191 -7.76643e-20)
(0.26214 1.57698 0)
(0.268745 1.62436 8.84035e-20)
(0.0195521 2.24495 -1.38301e-20)
(0.0362472 2.67094 0)
(0.056112 2.39705 9.97523e-20)
(0.0477895 2.4216 0)
(0.0634145 2.67944 -2.06532e-19)
(0.0418614 2.7052 0)
(0.0266761 1.4637 6.41558e-20)
(0.0314586 1.51929 0)
(0.0343291 1.4234 0)
(0.0261696 1.43314 -7.34132e-20)
(0.00242443 2.66045 5.7349e-21)
(0.0249291 2.68861 1.78846e-19)
(0.00949333 2.73208 9.01831e-22)
(0.00351865 1.84935 -2.85601e-20)
(-0.00406914 1.7018 -1.92796e-20)
(0.0173604 1.31545 0)
(0.0256604 1.22922 0)
(0.0397566 1.59378 -7.64722e-21)
(0.042629 1.47372 -5.69853e-20)
(0.0259427 1.55574 5.92847e-20)
(0.0535407 1.61706 0)
(-0.0322445 2.27063 1.33676e-19)
(-0.0355912 2.54762 -5.66611e-20)
(-0.0213718 2.44843 1.03708e-20)
(-0.00492696 1.86534 3.46167e-20)
(-0.0286574 2.50356 1.47655e-20)
(-0.0228564 2.44585 -3.87451e-20)
(1.01821 0.0224273 -7.60914e-19)
(1.0148 0.0289669 7.64906e-19)
(1.01208 0.0181353 0)
(1.00996 0.0707549 1.05978e-18)
(0.990518 0.0609879 -1.20037e-18)
(0.950667 0.05697 1.34376e-18)
(1.01296 0.11592 -1.42451e-19)
(1.04404 -0.00463822 0)
(1.05226 -0.000374638 6.8284e-19)
(1.04034 -0.00815641 -6.82474e-19)
(1.07238 0.0438496 -4.04543e-20)
(1.06508 0.0291942 3.49585e-19)
(1.06423 0.0658705 0)
(1.05441 0.0551665 -1.25972e-19)
(1.03219 0.044015 0)
(1.02596 0.0391361 0)
(1.02765 0.0137303 0)
(1.02409 0.0163508 0)
(1.04046 0.0338161 2.58923e-19)
(1.0395 0.0287111 -5.7319e-19)
(1.05324 0.0389448 -2.7377e-19)
(1.04825 0.0388504 -3.02262e-19)
(1.0779 0.0707114 5.77594e-19)
(1.10193 0.0567667 0)
(1.10865 0.0954036 0)
(-0.0301255 2.27671 7.70165e-20)
(-0.0329303 2.03003 4.31013e-21)
(-0.0280006 2.04027 0)
(-0.0312751 2.44383 -7.667e-20)
(-0.0293277 2.40245 -8.21977e-21)
(-0.035808 2.47026 1.01419e-20)
(-0.0219394 2.62208 -4.02583e-20)
(-0.0276442 2.56427 2.27261e-21)
(-0.0260344 2.51832 -1.35118e-20)
(-0.0177974 2.61473 2.54996e-20)
(-0.0217377 2.61723 -2.9645e-20)
(-0.0133886 1.52229 -1.11039e-21)
(-0.00804807 1.64311 -6.30689e-20)
(0.377913 1.45294 -1.27908e-19)
(0.373261 1.38352 9.87188e-21)
(0.649905 1.44449 -2.44063e-19)
(0.525258 1.51399 -1.5196e-19)
(0.579288 1.47303 0)
(0.60751 2.41954 2.15874e-19)
(0.666508 2.42964 3.36043e-19)
(0.421689 2.51491 9.16148e-20)
(0.403328 2.5353 -6.13236e-19)
(0.500137 2.47456 5.59081e-19)
(0.553544 2.4735 0)
(0.486085 2.5245 -5.44245e-19)
(0.260264 2.58725 1.10331e-18)
(0.360688 2.56584 -6.10718e-20)
(0.277234 2.651 -1.55096e-18)
(0.970859 2.38671 7.07149e-19)
(0.848321 2.38758 0)
(1.01142 0.00140079 2.48277e-20)
(1.01538 -0.00515523 -2.02844e-20)
(1.01779 -0.00388873 -3.70762e-19)
(1.01564 -0.00101757 3.69471e-19)
(1.01313 0.0018552 0)
(0.638279 1.3059 0)
(0.682954 1.19141 0)
(0.798291 1.1219 0)
(0.670512 1.14829 0)
(1.19357 2.62348 5.16425e-20)
(1.0861 2.3751 0)
(0.816058 2.16367 3.48528e-21)
(0.820783 2.42713 0)
(0.915619 2.51776 -4.28023e-19)
(0.946953 2.46714 2.85764e-19)
(0.785178 0.162694 0)
(0.725023 0.148558 1.56728e-19)
(0.903411 0.160532 9.16654e-19)
(0.812185 0.1464 -3.42703e-19)
(0.755189 0.0929187 -1.05607e-18)
(1.08781 0.248046 -8.29113e-19)
(0.986088 0.317922 -1.02098e-20)
(0.927329 0.353231 8.0315e-19)
(1.0142 0.259876 6.8378e-19)
(0.930283 0.207288 -1.20851e-18)
(0.887944 0.220762 1.51986e-19)
(0.927489 0.318542 -3.14181e-19)
(0.90467 0.225575 0)
(1.00076 0.211768 5.91104e-19)
(1.05504 0.218915 0)
(1.05236 0.231739 0)
(1.12598 0.125742 2.63761e-19)
(1.06473 0.19559 -1.06555e-20)
(1.07932 0.249483 -1.51166e-19)
(1.11308 0.212923 0)
(1.02263 0.0487807 5.84931e-19)
(1.03677 0.0627994 7.30094e-19)
(1.0326 0.0462328 -5.80863e-19)
(1.0413 0.069318 -4.89612e-19)
(1.01493 0.0759826 -7.48752e-19)
(0.983979 0.168725 0)
(0.986834 0.108058 0)
(0.961797 0.075908 -4.78355e-19)
(0.901932 0.0981032 1.90779e-19)
(1.03933 0.117243 6.77409e-19)
(1.07611 0.137995 -7.72599e-19)
(1.07025 0.181872 6.9493e-19)
(1.03528 0.158527 0)
(1.08633 0.123661 0)
(1.05691 0.11297 -3.17029e-19)
(1.04231 0.109358 -5.50213e-19)
(0.587828 1.08007 1.15743e-19)
(0.60883 1.39694 -1.74904e-20)
(1.14366 2.71493 -2.42723e-19)
(1.1959 3.09938 2.10792e-21)
(1.25128 2.72398 -1.13264e-19)
(1.29035 2.69422 1.5655e-20)
(1.2652 2.31711 -3.83535e-20)
(1.18342 3.00459 -7.05924e-20)
(1.2032 2.96154 2.18414e-19)
(1.17731 3.25236 -1.22993e-19)
(1.39445 2.96574 1.54215e-19)
(1.40566 2.90043 0)
(0.578366 0.814096 -4.74238e-20)
(0.198898 1.21067 4.62443e-19)
(0.529673 0.323972 4.94123e-19)
(0.41349 0.0900885 5.62135e-19)
(0.451494 0.295398 6.24856e-19)
(0.54502 0.416496 -1.01614e-18)
(0.556553 0.39722 8.35285e-19)
(0.455378 0.293454 -3.07297e-19)
(0.28749 0.234151 7.05657e-19)
(0.711967 0.261827 -3.40651e-19)
(0.659691 0.292141 0)
(0.588975 0.198375 7.3024e-21)
(0.731541 0.517394 3.52329e-19)
(0.701815 0.491593 -1.27816e-18)
(0.633458 0.439705 1.28915e-20)
(0.616315 0.418707 0)
(0.724408 0.720647 3.65254e-19)
(0.839469 0.80287 4.01389e-19)
(0.778497 0.853385 -4.68006e-19)
(0.908491 0.824195 -1.48092e-19)
(0.942957 0.867182 -3.39791e-20)
(0.950523 0.874634 3.48455e-20)
(0.883997 0.681946 -6.55229e-19)
(0.957489 0.728442 1.37679e-19)
(1.01297 0.732049 0)
(1.01175 0.707606 -1.75406e-19)
(1.03031 0.34379 2.06092e-19)
(1.15965 0.342918 2.4834e-19)
(1.07507 0.285075 3.38929e-19)
(1.00058 0.390692 -4.13289e-19)
(1.05836 0.490934 0)
(1.13978 0.431675 0)
(0.898185 0.42736 -6.94377e-22)
(0.845728 0.322023 0)
(0.893225 0.311184 3.83332e-19)
(0.913859 0.351188 2.54492e-21)
(0.987998 0.50292 1.81772e-18)
(0.920684 0.560451 4.69087e-19)
(0.943416 0.520159 -4.94447e-19)
(0.861598 0.497047 5.27343e-19)
(0.825918 0.470976 3.37504e-19)
(0.803788 0.449398 -3.30596e-19)
(1.02821 -0.000366392 6.12511e-19)
(1.02049 0.000617337 0)
(1.01912 0.00142719 3.99773e-19)
(1.02269 -0.000682939 -9.04908e-19)
(1.02258 0.004636 4.40833e-19)
(1.02003 0.0116871 -9.22762e-19)
(1.02077 0.0115112 0)
(1.01967 0.0122824 -1.92162e-19)
(1.0166 0.00783893 4.81602e-19)
(1.01669 0.0109612 -2.41874e-19)
(1.01728 0.0106718 1.77047e-19)
(0.0371291 1.33691 0)
(0.0443492 1.39912 0)
(0.0560628 1.34052 0)
(0.062969 1.27731 0)
(0.086444 1.40614 -7.26399e-20)
(0.0929435 1.37761 1.52027e-20)
(0.0856137 1.57411 4.12351e-21)
(0.101876 1.41223 -4.53986e-20)
(0.0456481 1.48712 5.01787e-20)
(0.0507003 1.48198 -3.95098e-20)
(0.0769629 1.40117 -2.38086e-20)
(0.0658749 1.40298 7.49766e-20)
(0.0618869 1.38325 1.22585e-20)
(0.0475659 1.40265 8.35632e-21)
(0.100886 2.35727 -1.10064e-19)
(0.0883393 2.40772 0)
(0.158114 2.01173 1.01196e-19)
(0.136269 1.70315 3.60614e-20)
(0.219262 2.01326 -7.82528e-20)
(0.201282 2.42877 0)
(0.211143 2.39737 -6.2785e-19)
(0.323043 2.36456 4.37098e-19)
(0.24739 1.98081 -2.22195e-19)
(0.141123 2.14196 1.48965e-19)
(0.119516 2.24584 0)
(0.0139161 1.85065 -3.40098e-20)
(-0.00658054 2.36917 -1.53849e-22)
(0.00266868 2.12723 0)
(0.00317108 2.43089 -1.75459e-20)
(0.0203994 2.2649 2.79657e-20)
(0.0130761 1.4414 -1.31044e-20)
(0.0090608 1.42091 2.17308e-19)
(0.00736077 1.43118 -7.03488e-20)
(0.0221884 1.44026 -6.18648e-20)
(0.0236999 1.46721 0)
(0.00393449 1.41537 0)
(0.00140271 1.31432 -8.87747e-20)
(-0.00312464 1.40744 2.61568e-20)
(0.00495631 1.40549 0)
(0.0107674 1.3069 -6.80817e-20)
(0.019392 1.21472 1.35817e-19)
(1.04248 0.0151066 0)
(1.04902 0.0105917 -6.38495e-20)
(1.03918 0.0246113 -4.61671e-19)
(1.04953 0.0234703 0)
(1.05469 0.0227119 0)
(1.03635 0.0131125 -6.73325e-21)
(1.03009 0.013571 7.4512e-19)
(1.03201 0.0175163 9.02171e-19)
(1.0257 0.0211802 0)
(1.02229 0.0217648 0)
(1.0356 0.0260036 4.6088e-19)
(1.02601 0.0282355 0)
(1.02363 0.0281925 0)
(-0.0212194 2.03227 0)
(-0.0121746 1.67069 -2.59083e-21)
(-0.00982622 1.77359 -3.55293e-20)
(-0.00914576 1.41255 0)
(-0.010001 1.57614 -3.73825e-20)
(-0.0183307 1.48893 2.24266e-20)
(-0.0165524 1.42887 0)
(0.402981 1.62016 0)
(0.36725 1.32181 -1.55267e-20)
(0.27539 1.34585 0)
(0.437384 1.31984 -5.39876e-20)
(0.473196 1.47886 0)
(0.458813 1.42073 4.79579e-20)
(1.04014 2.66688 -1.50057e-20)
(0.985182 2.40553 -8.88244e-19)
(0.947729 2.20689 9.92733e-19)
(0.864992 2.37958 2.40451e-19)
(0.852259 2.48353 0)
(0.921363 2.47813 0)
(0.954626 2.3796 0)
(0.930488 2.37069 -9.31088e-19)
(0.690559 2.44727 -3.71439e-19)
(0.799816 2.43112 -9.62052e-20)
(0.807049 2.40917 7.24977e-20)
(0.70375 2.40077 0)
(0.809167 2.39415 0)
(0.769611 2.4109 -3.64627e-19)
(0.765142 2.46201 0)
(0.633837 1.06946 0)
(0.514641 0.852855 -5.5387e-19)
(0.522565 0.928535 -3.22879e-20)
(0.501462 1.06686 0)
(0.488824 0.973752 8.46603e-19)
(0.805885 0.88868 -1.29648e-19)
(0.809077 1.02307 0)
(0.79034 1.00634 1.76664e-19)
(0.678773 1.02232 0)
(0.670629 0.926124 0)
(1.16218 2.75153 -2.13659e-19)
(1.13738 2.80997 -8.51763e-20)
(0.921498 2.33231 6.79895e-20)
(0.89838 2.31323 -7.36809e-20)
(1.13189 2.72916 0)
(1.08404 2.6969 8.84733e-20)
(1.09941 2.49164 -2.91059e-19)
(1.00116 2.25154 -2.80238e-20)
(0.495998 1.32543 0)
(0.516308 1.07501 -1.01933e-19)
(0.596513 1.18476 0)
(0.84609 0.23355 0)
(0.753665 0.181246 0)
(0.65871 0.142403 0)
(0.858155 0.232611 -6.04928e-19)
(0.741995 0.229138 3.55068e-19)
(0.910964 0.0881577 -3.90641e-19)
(0.925159 0.143194 0)
(0.908195 0.155164 1.71313e-19)
(0.836484 0.111064 6.8681e-19)
(0.786658 0.0772336 -4.31925e-19)
(1.09344 3.34286 -6.7189e-19)
(1.16202 3.26677 0)
(1.11139 3.42746 -1.57104e-18)
(0.654004 3.57393 1.30743e-18)
(1.02154 3.07395 1.23282e-19)
(0.534237 0.77337 5.62536e-19)
(0.511749 0.740005 0)
(0.342986 0.32511 -1.40958e-19)
(0.495571 0.627826 8.39768e-19)
(0.567367 0.323763 -1.81228e-19)
(0.524028 0.453246 2.18089e-19)
(0.688927 0.530423 4.48288e-19)
(0.734271 0.567523 0)
(0.670642 0.563297 0)
(0.658633 0.535968 0)
(1.01941 0.61657 8.46767e-20)
(0.972696 0.598504 -4.54599e-19)
(0.983089 0.610831 3.46593e-19)
(1.04674 0.553986 -3.34693e-19)
(1.09258 0.522217 0)
(1.09571 0.60481 -8.75379e-20)
(0.886717 0.425632 -7.53047e-19)
(0.872468 0.410042 -9.74492e-19)
(0.801639 0.418062 5.93279e-19)
(0.815857 0.378777 -6.19553e-19)
(0.8541 0.335522 -4.87817e-19)
(0.800047 0.339436 5.96929e-19)
(1.02659 0.00675741 -4.61236e-19)
(1.02623 0.00687481 9.29393e-19)
(1.02999 0.000985301 5.93463e-19)
(1.0342 0.00160702 -7.12573e-19)
(1.03404 0.0120112 0)
(1.02974 0.0120879 -1.16683e-18)
(0.0834007 1.64452 9.28846e-21)
(0.0716698 1.60508 0)
(0.104975 1.69792 5.31436e-20)
(0.114364 1.67618 -4.63982e-20)
(0.0716085 1.5708 -7.41349e-21)
(0.0694883 1.57301 0)
(0.00804965 1.70707 0)
(-0.00755431 1.52611 1.98728e-20)
(-0.00637824 1.46948 -1.78624e-20)
(-0.0133017 1.57399 3.15679e-21)
(-0.00220962 1.89772 3.00871e-20)
(-0.0142408 1.95195 -1.19425e-20)
(0.493582 1.35817 -2.51525e-19)
(0.4964 1.35263 2.75274e-19)
(0.451589 1.31185 -3.35482e-21)
(0.428553 1.29034 7.08885e-21)
(0.631322 1.31299 0)
(0.557122 1.40749 1.2377e-19)
(0.558092 1.41036 -1.20535e-19)
(0.487932 1.30048 3.23742e-21)
(0.528308 1.25259 0)
(0.592757 1.21827 0)
(0.664435 2.41074 5.46936e-19)
(0.66005 2.44133 1.25788e-18)
(0.715442 2.45637 -8.65472e-19)
(0.614589 2.42818 -1.98037e-19)
(0.555847 2.521 2.70429e-19)
(0.496344 2.4873 -6.97967e-19)
(0.992483 2.3844 -5.59312e-19)
(1.02381 2.40188 0)
(0.950943 2.19026 -6.10507e-19)
(1.05505 2.67795 0)
(1.0539 2.6588 0)
(0.596957 2.28405 5.96825e-21)
(1.11623 3.06631 7.57572e-20)
(0.992523 2.96218 -1.22707e-19)
(0.315074 0.779237 0)
(0.311045 0.651594 -3.00627e-19)
(0.521982 0.590367 -3.02797e-19)
(0.358647 2.12527 0)
(0.400497 2.74364 -8.68002e-20)
(0.409603 2.47739 0)
(0.731834 0.688043 -7.77863e-19)
(0.798046 0.697464 1.08415e-18)
(0.801481 0.66172 -1.0281e-18)
(0.703266 0.644758 -9.85512e-20)
(0.759131 0.605316 -4.07938e-19)
(0.967221 2.74884 -5.73733e-20)
(1.01243 2.75695 -2.04849e-19)
(0.546982 2.1982 4.3982e-19)
(0.600774 1.73016 -3.4786e-19)
(0.699985 1.84887 -4.88884e-19)
(0.974714 2.38969 -1.37634e-19)
(0.975234 2.34274 3.60336e-19)
(0.641574 1.75613 3.30945e-20)
(0.44833 1.29118 1.71675e-19)
)
;

boundaryField
{
    wall-4
    {
        type            noSlip;
    }
    velocity-inlet-5
    {
        type            fixedValue;
        value           uniform (1 0 0);
    }
    velocity-inlet-6
    {
        type            fixedValue;
        value           uniform (0 3 0);
    }
    pressure-outlet-7
    {
        type            zeroGradient;
    }
    wall-8
    {
        type            noSlip;
    }
    frontAndBackPlanes
    {
        type            empty;
    }
}


// ************************************************************************* //
