/*--------------------------------*- C++ -*----------------------------------*\
  =========                 |
  \\      /  F ield         | OpenFOAM: The Open Source CFD Toolbox
   \\    /   O peration     | Website:  https://openfoam.org
    \\  /    A nd           | Version:  6
     \\/     M anipulation  |
\*---------------------------------------------------------------------------*/
FoamFile
{
    version     2.0;
    format      ascii;
    class       volScalarField;
    location    "73";
    object      p;
}
// * * * * * * * * * * * * * * * * * * * * * * * * * * * * * * * * * * * * * //

dimensions      [0 2 -2 0 0 0 0];

internalField   nonuniform List<scalar> 
918
(
0.534463
1.23408
0.00617075
0.53438
-0.0114745
1.20168
-0.504139
0.631041
0.515616
-0.124371
-0.0814307
0.518101
1.05913
0.826058
-1.16835
-0.0210621
0.629395
-0.41982
0.513668
-0.0771287
0.653134
0.522289
0.524754
0.515539
0.577519
0.779611
0.936564
-0.00362462
0.0106003
0.00537716
-0.012854
-0.0331281
-0.0294155
1.08481
1.13673
1.15994
0.482087
0.315686
-0.399406
-0.453738
-0.431944
-0.521651
0.630255
0.630869
-0.228223
0.632014
0.633204
0.501296
0.515011
0.515848
0.516968
0.515876
0.517155
0.384829
-0.131197
-0.158076
-0.109717
-0.108706
0.0290759
-0.0837988
-0.0855709
-0.0797743
-0.0775637
0.430987
0.51308
0.509384
0.522359
0.531126
1.17425
1.14798
1.17404
1.08466
1.10217
1.03603
1.00892
0.847277
0.870497
0.808994
0.795043
-1.62368
-2.56873
-0.592127
-0.316646
-0.0105093
-0.0223965
-0.0209501
0.625141
0.627542
0.627904
0.630798
1.03088
-0.391683
-0.463389
0.514203
0.512727
0.521818
0.522722
0.517686
0.517686
-0.0729106
-0.0711655
-0.0655509
-0.0753667
-0.0750014
0.640501
0.63994
0.514974
0.512416
0.539324
0.562389
0.55114
0.24795
0.588193
0.605181
0.643027
0.789159
0.776107
0.788722
0.912222
0.879622
0.968394
0.990078
0.0139432
-0.0013195
-0.0228392
-0.0213938
-0.0216181
0.477819
0.47137
0.499558
0.485716
0.488765
0.221014
0.0709814
0.397845
0.421477
-0.32319
-0.373251
-0.46014
-0.458022
-0.565701
0.60073
0.63174
0.631582
-0.239861
-0.167421
-0.295084
-0.109569
-0.166855
0.49223
0.498495
0.494563
0.509966
0.504128
0.506555
0.519085
0.516265
0.517861
0.444926
0.573914
0.303001
0.27756
-0.280586
-0.176016
-0.260865
-0.100756
-0.100001
0.0396682
0.0691268
0.0159993
0.00328258
-0.0941491
-0.0885008
-0.0921197
-0.0737638
-0.073346
0.422389
0.409293
0.442268
0.449817
0.498823
0.500271
0.504932
0.502896
0.960316
0.98318
0.989131
0.965351
-3.5442
-6.17261
0.0264839
0.185259
-0.00926498
-0.0106367
4.40201e-05
-0.00992726
-0.000629391
-0.00272084
-0.0296698
-0.0297537
-0.0237572
-0.0246651
0.623141
0.624876
1.00002
1.02735
0.970029
0.945864
0.503557
0.505435
0.510057
0.506938
-0.0723219
-0.0712683
-0.0724692
0.633819
0.63758
0.635361
0.206551
0.117415
0.299666
0.330985
0.619707
0.609071
0.618692
0.703004
0.741583
1.00637
1.03059
1.01459
1.02718
1.07801
1.10092
1.06629
0.456323
0.467287
0.461535
0.50243
0.500237
0.501183
0.49786
0.498718
0.497421
-0.0402381
-0.411437
0.47107
0.472369
0.464149
0.467294
0.687442
0.770951
0.628561
0.630541
0.631134
-0.0578601
-0.105019
0.236157
0.207088
0.361226
0.395989
0.377731
0.935439
0.895432
0.943767
0.919018
0.883629
0.908405
-0.347528
-2.10801
-1.10459
0.584284
0.387936
0.479338
-0.0132646
-0.0293739
-0.0261383
1.01831
1.05888
0.641385
0.827812
0.781581
0.764749
0.79143
0.853848
0.78635
0.821234
0.852089
0.828381
0.550588
0.481188
0.498933
0.846161
0.901532
0.0796689
0.000399927
-0.0226022
0.0934834
0.165692
0.132948
1.03651
0.954481
1.01645
0.512658
0.51361
-0.0178473
-0.0412119
0.517734
0.517445
-0.0217711
-0.0117878
0.495176
-0.935556
0.0810523
0.507271
0.496876
0.51373
-0.103962
0.31573
-0.0847286
0.00976909
-0.0233097
0.509742
0.443381
0.400847
-0.00658292
-0.0302547
-0.0696767
-0.216812
0.510396
0.508754
0.513117
0.513932
0.514711
-0.026738
-0.0265937
-0.018285
-0.0638615
-0.0590114
-0.0687957
0.476954
0.497345
-0.196331
0.513412
0.515518
0.515213
0.509431
0.514362
0.512997
-0.0222335
-0.0261623
-0.0276314
0.186282
0.327603
0.678539
0.753391
0.627509
0.460952
0.169047
0.615414
0.667482
0.592638
0.723158
0.627955
0.629048
0.147928
0.00388511
0.152095
0.0852138
0.504105
0.503556
0.494397
0.49126
0.508563
0.50624
0.511437
0.508678
0.511851
0.512997
-0.0580231
-0.0898132
-0.107049
-0.150294
0.279775
0.536367
0.218932
0.240881
0.148739
-0.074502
-0.0789921
-0.0808903
-0.0867843
-0.0410434
-0.0421941
0.00345864
0.0128538
-0.00386025
-0.0296711
-0.0489772
-0.0427857
-0.0506555
0.502614
0.50231
0.506753
0.515022
0.453051
0.456765
0.422933
0.441769
0.42787
0.367543
0.397519
0.374588
-0.0177225
-0.00766292
-0.00981684
-0.0307323
-0.0297568
-0.0512291
-0.0440139
-0.0419729
-0.0383718
-0.0435051
-0.0645384
-0.0693047
-0.180359
-0.300168
0.949
0.865203
0.134818
0.500287
0.505958
0.503123
0.50787
0.511066
0.511693
0.509258
0.505745
0.497415
0.498891
0.495544
0.496664
-0.134573
-0.244282
-0.0754208
-0.151722
0.143679
0.609985
0.334933
0.279661
0.265019
0.492162
0.692466
0.601529
0.656842
0.633453
-0.395697
0.00500422
-0.329347
0.217389
0.21102
0.705381
0.747041
0.764504
0.721263
0.677638
-0.0279833
0.5438
-0.0793471
-0.0278048
0.163739
0.045685
0.623205
0.614391
0.622065
0.624344
0.630837
0.621825
0.60741
0.601723
0.621821
0.625958
0.486742
0.214628
0.171138
0.12533
0.6159
0.509159
0.558516
0.478149
0.499816
0.502184
0.501156
0.481763
0.489139
0.484787
0.492054
0.495771
0.503055
0.503254
0.499063
0.500994
-0.0823208
-0.0902944
-0.0751842
-0.131043
-0.136592
-0.179526
-0.0925711
0.0883551
0.034906
0.233243
0.365206
0.0608643
-0.0587701
-0.042725
0.0105707
0.165212
0.173163
0.0462366
0.155694
0.11164
0.105583
0.193371
0.216284
-0.0538378
-0.0594122
-0.0598116
-0.0645761
-0.0151777
0.101045
0.0758474
-0.0294181
-0.037031
-0.0731435
-0.0700699
-0.00651558
-0.0435126
-0.0355575
-0.010089
-0.0583456
-0.0329114
-0.0229535
-0.0288852
-0.0310285
-0.0302216
0.496406
0.498642
0.498502
0.507445
0.519653
0.534999
0.500341
0.474343
0.465338
0.468448
0.441368
0.450623
0.445869
0.461737
0.483325
0.492234
0.490012
0.492764
0.474657
0.476324
0.461648
0.466316
0.435306
0.416582
0.406328
-0.055172
-0.02261
-0.0360803
-0.0484717
-0.0234046
-0.032704
-0.0311258
-0.0122205
-0.0316644
-0.0270887
-0.0367038
-0.0415825
-0.0424663
-0.0823603
-0.000600994
-0.183531
-0.232515
-0.285515
0.874125
1.01362
0.788341
0.578243
0.584671
0.819505
0.9257
0.536301
0.706437
0.746405
0.568578
0.85789
0.504234
0.503822
0.501687
0.500857
0.501854
-0.0226013
0.0812357
0.0920538
0.151808
0.26804
0.373611
0.305147
0.19215
0.32471
0.348963
0.607927
0.613625
0.572215
0.594382
0.596831
0.402107
0.482819
0.519892
0.478509
0.550953
0.58501
0.5322
0.574879
0.49452
0.445273
0.436529
0.391521
0.426101
0.407044
0.381469
0.495725
0.472481
0.483267
0.473252
0.495674
0.52021
0.521442
0.543749
0.560788
0.474116
0.419813
0.43681
0.465643
0.42165
0.439168
0.461307
0.179765
0.082461
0.244991
-0.0823694
0.00304347
0.0428527
-8.96701e-05
-0.0419422
0.264789
-0.372259
-0.318666
-0.995017
0.489466
0.833815
0.569494
0.580947
0.631028
0.619887
0.630233
0.635815
0.63677
0.603063
0.611563
0.616632
0.583575
0.604672
0.602054
0.609189
0.491832
0.391659
0.394255
0.32585
0.186075
0.227749
0.419135
0.351007
0.276112
0.268377
0.444223
0.309182
0.388698
0.438769
0.361714
0.297638
0.523984
0.571717
0.564716
0.536044
0.417067
0.449955
0.451926
0.502073
0.545298
0.570432
0.490585
0.496918
0.497823
0.495079
0.493446
0.496591
0.496885
0.499195
0.49934
0.501942
0.501429
-0.0793773
-0.0637849
-0.0792727
-0.0878533
-0.0189186
-0.0312004
-0.00729464
-0.0363213
-0.036189
-0.0332075
-0.0485424
-0.0650936
-0.062677
-0.0519979
0.0658457
0.0878587
0.0829468
0.0426564
0.229074
0.408723
0.470307
0.339944
0.191758
0.210391
0.299934
0.0161674
0.00816084
-0.00578484
0.0616223
0.0495985
-0.0638347
-0.0683875
-0.0627458
-0.0514908
-0.0452433
-0.0630738
-0.064684
-0.0539606
-0.0606683
-0.0651968
-0.0683594
0.476017
0.468913
0.472522
0.464903
0.46308
0.480045
0.484678
0.485733
0.491388
0.494048
0.483383
0.489511
0.493728
-0.0320209
-0.0487215
-0.048944
-0.0488543
-0.0470391
-0.0448017
-0.0484267
0.119683
0.0263228
0.0625902
-0.00844813
-0.13545
-0.0757806
0.49365
0.488067
0.476492
0.713076
0.548848
0.468106
0.567488
0.687801
0.267616
0.466946
0.302002
0.879343
0.786408
0.931507
0.546856
0.247191
0.416244
0.424995
0.267117
0.390741
0.332123
0.208142
0.243441
0.278294
0.361636
0.247957
0.227203
-0.0153409
0.166103
0.275795
0.257906
0.384876
0.441687
0.256833
0.172667
0.119086
0.58892
0.604921
0.612974
0.584979
0.606117
0.562425
0.553334
0.571629
0.580678
0.573959
-0.62968
-0.218019
-1.41779
-0.831997
-0.380283
0.517197
0.518432
0.741515
0.644502
0.656753
0.638509
0.583971
0.556732
0.598815
0.611492
0.314883
0.399654
0.387
0.362761
0.308381
0.250842
0.523362
0.532296
0.555854
0.58233
0.557202
0.585181
0.489356
0.489212
0.487857
0.484107
0.48261
0.485901
0.0144841
-0.0102246
0.0249768
0.0138289
-0.0067749
-0.00977023
-0.0376431
-0.0490085
-0.0496253
-0.046768
-0.0366237
-0.0350204
0.165574
0.103675
0.0151895
0.0565134
-0.0103585
-0.0925609
-0.0950283
-0.00376126
0.0964098
0.0779128
0.383415
0.650973
0.476539
0.642729
0.442311
0.541264
0.45885
0.432286
0.459991
0.364259
0.45445
0.0476897
-0.154472
-0.209333
0.813078
0.773831
0.554174
0.311786
0.193132
0.484249
0.505693
0.465725
0.492106
0.542573
0.525259
0.0181363
0.105008
0.192544
0.49786
0.273505
0.291989
0.281907
0.448645
0.417361
)
;

boundaryField
{
    wall-4
    {
        type            zeroGradient;
    }
    velocity-inlet-5
    {
        type            zeroGradient;
    }
    velocity-inlet-6
    {
        type            zeroGradient;
    }
    pressure-outlet-7
    {
        type            fixedValue;
        value           uniform 0;
    }
    wall-8
    {
        type            zeroGradient;
    }
    frontAndBackPlanes
    {
        type            empty;
    }
}


// ************************************************************************* //
