/*--------------------------------*- C++ -*----------------------------------*\
  =========                 |
  \\      /  F ield         | OpenFOAM: The Open Source CFD Toolbox
   \\    /   O peration     | Website:  https://openfoam.org
    \\  /    A nd           | Version:  6
     \\/     M anipulation  |
\*---------------------------------------------------------------------------*/
FoamFile
{
    version     2.0;
    format      ascii;
    class       surfaceScalarField;
    location    "73";
    object      phi;
}
// * * * * * * * * * * * * * * * * * * * * * * * * * * * * * * * * * * * * * //

dimensions      [0 3 -1 0 0 0 0];

internalField   nonuniform List<scalar> 
1300
(
3.75095
5.62643
-3.33228
3.75095
-7.7637
5.62643
-4.274
4.274
-0.383645
0.383645
1.87649
1.87446
-2.42922
2.42922
-1.77638
1.77638
-2.52488
2.52488
-5.24796
5.24796
-5.06911
5.06911
4.69923
-4.69923
-6.3383
6.3383
-0.96139
0.96139
-3.5767
3.5767
3.17246
-3.17246
-1.88854
1.88854
0.0579979
-0.0579979
-0.554081
4.30503
3.19687
3.19687
-1.98039
1.98039
-4.87423
4.87423
6.22198
-6.22198
5.2479
-5.2479
-1.91562
-2.49774
1.7999
-11.4897
-5.9638
-5.9638
-8.44102
8.44102
-2.81459
2.81184
2.94725
-2.94725
-1.72537
1.72537
-4.29054
0.0165437
-4.29054
4.24458
0.0294232
4.24458
-0.491176
0.107531
-0.491176
3.94994
-3.94994
0.292379
0.0912654
0.292379
3.0673
-3.0673
-1.87686
3.75335
1.8741
-1.8721
6.17713
-1.87886
3.75332
-6.0776
6.0776
-2.67576
0.24654
-2.67576
2.19711
0.232114
2.19711
-6.88978
6.88978
-1.80478
0.0283987
-1.80478
1.77619
0.000195408
1.77619
2.88834
-2.88834
-2.6297
0.104822
-2.6297
2.38442
0.140464
2.38442
0.353477
5.27295
-5.97991
8.79175
-5.27295
0.0249945
5.21033
0.0376283
5.21033
-5.1054
0.0362921
-5.1054
5.01382
0.0552898
5.01382
4.78836
-0.0891309
4.78836
-4.8189
0.119668
-4.8189
-3.36087
-4.07482
-6.49789
0.159596
-6.49789
-1.02588
0.0644884
-1.02588
0.857197
0.104193
0.857197
-3.72944
3.72944
-3.9333
0.356602
-3.9333
3.12743
0.045028
3.12743
1.86812
1.88283
5.61907
-5.61907
2.44662
-1.82673
-0.0618049
-1.82673
-1.96469
-3.28321
1.96469
-0.076149
-0.159214
0.217212
-0.159214
3.15712
0.039751
3.15712
2.23907
0.145342
-2.23907
0.258683
3.30128
-3.30128
1.31998
0.660412
1.31998
-5.55902
5.55902
4.9619
0.0519203
-4.9619
0.0876678
6.15711
0.0648746
6.15711
-6.20744
-0.0145416
-6.20744
2.48673
-4.98447
-2.65386
6.15141
0.186884
-6.15141
0.187611
2.91883
0.0284199
2.91883
-2.91912
2.91912
-2.98423
0.0369776
-2.98423
-2.14768
0.422309
-2.14768
1.41133
0.314046
1.41133
-4.20586
-0.0846813
-4.20586
-4.09094
0.15764
4.09094
0.153634
1.11793
-1.11793
-0.603884
0.112708
-0.603884
-4.05439
-0.151473
4.05439
-0.104454
-3.88988
-0.0600545
-3.88988
-3.02191
0.037684
3.02191
0.0453823
3.11211
0.0450097
-3.11211
0.0448145
-1.87099
3.75382
-1.87996
3.75406
-5.69813
-0.379467
-5.69813
6.36019
-0.282589
6.36019
3.10181
0.47489
-3.10181
0.426047
2.01422
0.182893
2.01422
-6.86316
-0.0266235
-6.86316
6.89559
-0.0058068
6.89559
1.88455
0.12967
-1.88455
0.079763
1.7914
-0.0152084
1.7914
2.91604
-0.0277013
2.91604
-2.88198
-0.00636205
-2.88198
2.79049
-2.79049
2.71653
0.0739598
-2.71653
0.0868283
-11.1242
11.1096
-0.0362315
-11.0879
5.1741
5.1741
4.24263
0.545735
4.24263
-5.01536
0.196458
-5.01536
2.66591
-5.31977
3.10319
-6.46406
4.67479
-16.1645
4.29406
-8.36888
6.74594
-6.74594
6.62874
0.117201
-6.62874
0.130841
-1.13607
0.110193
-1.13607
-3.12604
-0.603401
-3.12604
4.36454
-0.635104
4.36454
-3.02765
3.02765
-3.07638
0.0487277
3.07638
0.0510478
1.79968
-0.00828063
-1.79968
-0.0270548
0.204421
0.0879578
-0.204421
0.0452071
3.52358
-0.222309
3.52358
-3.09698
-0.204297
-3.09698
-1.23193
0.0958607
1.23193
0.0880467
-5.80713
0.248105
-5.80713
-11.1815
0.0935239
-11.1438
-6.11392
-6.11392
2.3271
11.1189
-2.89722
0.0152478
2.89722
0.0216097
2.97515
0.0525008
-2.97515
0.0560311
-2.85777
0.0672831
2.85777
0.061348
-2.51556
0.367877
-2.51556
-1.02628
1.02628
-1.17425
0.147965
1.17425
0.237081
1.418
-0.300074
1.418
0.738291
0.118905
-0.738291
0.134407
-3.83547
-0.0544075
-3.83547
6.59958
-0.239396
6.59958
-2.96777
-0.12921
2.96777
-0.0517296
-0.0348943
11.1445
-5.1392
0.0338015
5.1392
-11.2094
11.2432
-3.22102
0.705454
3.22102
1.02161
5.2849
0.274122
-5.2849
0.269543
6.83611
0.0594823
-6.83611
0.0901711
-2.63516
-0.490877
-2.63516
-5.10356
-0.594576
5.10356
-0.739013
-11.4815
-0.203248
11.6848
-11.4262
6.01038
0.146733
-6.01038
11.3899
-0.995672
-0.122258
0.995672
0.0306105
1.75721
-0.339205
1.75721
3.74066
-0.217075
-3.74066
-0.0948138
-6.75426
-0.108896
6.75426
-0.15468
-2.18575
-0.449408
2.18575
-0.428544
-4.26739
4.30714
1.90974
-2.33298
-2.65149
-5.61619
1.85526
1.89857
4.30187
-10.1585
-6.006
-9.97084
7.21489
-6.94535
-9.32639
9.23726
7.93161
-7.99167
-5.77743
5.82848
6.48467
-6.43929
1.87944
1.8739
8.06476
-7.81822
-15.676
15.2965
7.58852
-7.56013
15.8253
-15.852
-17.8668
17.9263
-5.69766
5.80248
-6.74284
6.73648
-6.97987
6.92814
-2.79872
-3.66535
13.1261
-12.9665
8.59015
-8.65196
-8.67525
9.03185
3.38461
0.922525
3.42962
-1.88179
3.76124
-1.87153
3.78127
2.75378
-5.5525
2.56598
-5.21747
4.37398
4.21617
-4.29783
-1.31836
-5.92869
5.95711
-5.80878
5.87013
9.17573
-9.15919
-1.88498
3.75889
-1.86908
3.76764
-3.42302
-2.35442
3.37799
0.923883
8.07286
5.05327
-8.25974
-1.7111
-8.0262
7.80912
-8.2174
8.0131
-0.436673
5.83791
-5.40124
4.43756
-1.65369
7.4916
5.5612
5.75766
5.86069
-5.58657
1.08466
-6.4859
-6.39823
-2.27537
2.38808
2.16753
-2.07627
6.14365
1.78796
6.0392
-5.8062
-2.18547
-5.8606
3.81982
2.00866
3.86855
4.08214
2.40254
4.11982
3.02961
-3.03673
0.00711469
-3.05927
6.08888
0.722159
-5.41369
-4.4898
4.99178
3.07298
5.22389
-5.59542
-2.22281
-5.16937
-9.58262
-6.09333
-10.1772
10.0888
5.20774
9.80616
-11.9576
11.8029
4.85879
2.72974
4.85898
-4.97155
-2.58858
-4.89178
11.6845
-2.65363
-9.0309
-10.3309
-7.53591
10.3367
5.48865
10.9738
6.95248
11.064
4.4275
7.25703
-9.91615
2.38024
-3.8635
-1.83416
-3.77667
3.66017
2.14231
3.80063
-4.21885
-2.52399
-4.2036
-4.29516
-2.68471
4.32286
2.41362
-4.4172
-3.8002
4.54641
2.38174
4.05523
-10.0612
4.31365
-7.97899
-9.2047
-3.76184
-9.07386
3.55183
2.60158
-6.15341
-2.00067
8.5365
-4.32033
7.21814
-5.19588
-3.45608
-5.22293
-6.9638
-1.71145
-6.80616
-8.92615
8.43528
-9.21983
8.58472
12.5223
-5.63721
-6.88512
-3.96701
-2.47228
3.92219
-0.492571
-3.71003
3.71715
0.0512026
3.83247
4.755
4.26243
-3.882
-1.92678
-3.82597
3.82122
2.0489
3.88851
6.84702
2.32871
6.87644
-6.61106
-2.54813
-6.69574
9.10158
-8.67927
2.79852
-2.70266
5.37633
2.63677
-5.15402
-2.87218
6.24057
-3.21515
-3.02543
-12.3463
10.7956
1.55072
-4.85467
-0.417116
-0.475113
-5.56961
-3.75678
5.44995
0.307711
11.1033
7.34648
-5.5152
5.76331
6.16957
6.22149
-0.176738
5.89023
-5.18478
5.27037
-2.71953
-2.55083
5.47613
-5.62761
-1.2196
-5.54746
4.32786
0.411593
1.50332
-1.28611
-1.7797
-0.495663
-1.6453
1.19904
0.968492
1.287
0.951979
1.4361
-2.92144
0.532641
2.3888
-1.96946
-1.54363
-3.80982
-1.15489
4.96472
5.73113
2.07799
-5.63631
-0.224289
2.56287
-2.45868
-0.828159
-2.98166
2.23405
-3.06221
-3.46874
-1.94279
5.41153
-3.36858
-0.457385
3.31608
0.552472
-3.82816
-2.10053
3.79118
0.328638
-3.12899
6.1903
-3.06131
-5.05577
2.52895
3.55993
4.53761
-4.78996
2.4492
2.34076
-1.23003
4.25849
0.965406
4.44138
-7.0712
4.8484
5.73851
3.29334
-6.2134
1.04403
-6.02717
8.54604
-7.40155
-1.14449
4.0794
4.46664
7.03501
5.48732
-5.67779
12.7128
-1.15689
-6.24467
7.18406
-3.89072
4.86469
-8.75541
-10.352
4.10734
-9.20502
11.0712
-1.86617
-3.60533
-8.3523
12.8103
-1.21447
-11.5959
8.59169
-4.34854
-4.40024
8.74879
-7.00217
6.98882
-1.99184
-4.99698
-10.1493
-5.70266
10.2582
1.54475
-9.94784
12.3281
-2.6908
4.16214
0.696846
4.14693
3.36365
-5.48127
2.11762
3.63852
-5.63036
2.0553
-7.53657
-6.75359
12.0965
-5.34288
-10.5154
-9.5436
-0.971834
2.54966
9.77841
-9.50215
7.4363
2.06585
3.2981
0.590409
-3.37206
-0.404614
0.235121
4.51249
-4.74761
4.03575
4.1811
3.2207
1.29178
3.8494
2.10771
-3.87101
-0.332596
-4.16861
1.4839
-1.755
-3.6938
5.1777
-4.06142
0.367621
-2.74567
-3.49336
6.23903
-4.57983
3.03606
3.15424
5.08497
-4.91466
1.4213
-2.39053
-2.52413
2.64012
-4.39511
2.00059
3.17712
4.38232
0.582123
5.90691
6.18957
-8.50849
0.529498
11.2428
-9.53174
2.47762
8.58633
-9.91392
0.370324
-8.70353
0.978742
-5.29907
-5.17467
5.22001
-6.93146
-3.5354
6.2498
0.626645
-6.40343
-0.402722
-6.06537
-2.86078
-6.51478
-3.0612
-6.15863
-8.73899
-1.67325
-7.06574
6.76203
-6.67948
-3.49772
7.41849
1.16623
-7.47988
7.35762
-7.53822
7.19902
0.0949493
3.6222
4.35738
1.8851
-2.39217
4.27726
-5.07251
7.40122
-8.74338
3.67087
4.2366
-6.78474
-4.50678
5.05912
4.04246
5.37317
8.92014
-10.3718
1.4517
-10.6473
11.9867
-1.33933
-16.4261
5.77873
-7.50593
2.41174
0.386789
2.52193
0.549532
2.49113
-3.04066
-2.15313
-2.06509
-2.4426
-3.49696
5.93955
1.06658
-3.47411
2.40753
-3.57481
4.64139
-0.0712352
-3.40288
5.18082
-2.68969
5.56761
-3.64604
1.92156
3.55089
5.84547
-2.29459
4.42132
-1.78455
1.94782
-4.24241
-1.54914
-2.95501
5.09732
-3.28402
3.65164
-0.349715
4.00136
-4.04965
0.834503
-0.828947
3.35215
3.61083
4.33094
-3.03915
2.9369
-4.72144
-1.30551
-4.13932
-0.962204
-0.183214
-3.7837
3.96691
6.00294
-6.18616
-5.28131
9.52341
-4.24211
7.70247
-5.43885
-2.26362
-4.29131
-4.38797
3.92343
1.9668
9.66927
0.179473
-5.61832
-5.00531
-3.98369
3.08916
2.1812
-1.73834
3.28907
2.21345
-0.710133
0.391985
0.895015
1.76298
-1.37099
0.345888
1.41709
-0.940222
1.70034
0.862531
-1.81924
0.173947
-1.30336
3.53741
1.08544
-2.05393
0.682934
0.88987
-3.6094
5.08748
-2.73069
-2.35679
5.97735
1.14462
-3.87531
4.40285
-3.99126
2.44473
-3.59962
-1.43058
-5.42183
-3.63387
-2.48757
4.8951
-3.45199
5.52998
1.42635
-5.30569
6.73205
-3.6303
1.68751
-3.06039
3.92292
-1.01108
-2.0493
2.87847
2.53306
-3.13552
0.153859
-0.257053
2.41954
-2.67659
-0.642668
-2.61213
-4.57607
4.90471
-2.10373
4.55293
2.17353
-1.91768
6.47062
1.80761
-3.7253
-3.24816
-3.70555
-1.38453
3.15307
-0.585034
-4.30675
-5.58202
4.17708
0.264302
-7.05734
7.92737
-0.870034
-3.98436
-0.864042
4.94344
-6.09795
0.467584
-4.04265
3.88472
4.85013
5.11443
-11.365
-0.230899
-6.15724
1.09359
-7.25083
5.56024
-3.56132
7.66866
-10.3177
6.82
-9.15149
6.52417
-0.726665
6.25122
-4.1336
2.77968
-8.48234
-6.9376
5.56978
-2.84004
6.26663
-3.21794
9.48456
-5.90874
5.36428
4.12029
-1.05707
-4.16586
-5.33707
4.27999
0.0272115
4.17414
4.98713
-2.87942
4.65453
2.26458
-4.65511
-2.13054
-6.48831
1.8332
-3.33406
-1.92245
3.75565
3.16252
3.75293
1.23152
-3.34831
7.24235
-8.21418
-1.89947
-3.27521
5.31035
-1.03036
3.4448
-6.72001
-1.85428
4.74783
-0.728772
-4.01906
0.889378
-4.42478
1.67317
-6.09795
5.25829
-5.66101
2.25434
-9.76027
-5.22554
-5.19493
-2.2791
-5.25912
-7.57716
5.29806
-1.79843
5.55919
-8.51501
7.78624
-3.47166
8.76972
-5.46171
-1.05306
5.89026
1.30876
10.0785
0.162133
-4.66891
-1.94072
3.734
-1.79328
1.14844
-3.62157
0.112436
2.48959
3.48776
-6.81745
0.032711
-4.6362
-3.91006
7.95252
5.61336
11.6163
1.24447
9.13872
-1.1862
10.3832
4.18697
4.42405
-3.00704
4.45874
0.95987
4.63074
-0.892979
2.81454
1.62895
1.69344
0.765239
2.29307
1.31776
3.12758
0.0869145
-1.97817
4.63339
-8.61708
-0.984933
-8.07135
1.16591
5.42879
-4.26288
2.87363
-0.692421
1.08035
-0.178072
-1.19692
1.37499
-2.72891
-1.90705
-0.489963
-1.65798
2.34092
1.87943
-1.85095
-0.877952
0.331132
-3.96501
3.26849
-3.11463
-0.581568
6.15048
-2.89022
0.213632
-1.20271
-2.3985
-2.89416
2.72021
6.1743
0.296315
3.11299
5.20102
3.10049
0.221078
3.81778
-5.68395
-3.71879
-5.91485
-0.35461
4.58883
1.75833
8.02009
5.87861
4.84825
-1.87176
-10.0859
6.50586
-2.04712
5.16653
-1.14747
-4.95049
5.07393
2.3273
-5.70057
0.0395637
-4.91092
-6.95804
-0.481131
8.26737
-9.59734
8.54428
5.6835
1.38225
-4.43781
-0.757122
4.28984
0.134205
10.5174
-0.911076
-7.05525
7.96632
-4.51771
3.53278
0.676069
2.613
2.05106
1.35864
-5.69661
-9.95948
-2.06675
-1.54266
-4.42353
0.541182
-2.42061
6.07104
-2.53826
3.80742
5.42806
6.50841
-2.04771
-4.13845
6.28981
-2.48239
4.02601
)
;

boundaryField
{
    wall-4
    {
        type            calculated;
        value           uniform 0;
    }
    velocity-inlet-5
    {
        type            calculated;
        value           uniform -3.75095;
    }
    velocity-inlet-6
    {
        type            calculated;
        value           uniform -5.62643;
    }
    pressure-outlet-7
    {
        type            calculated;
        value           nonuniform List<scalar> 8(3.33228 7.7637 4.41336 9.68977 7.43569 5.14059 5.7691 8.96885);
    }
    wall-8
    {
        type            calculated;
        value           uniform 0;
    }
    frontAndBackPlanes
    {
        type            empty;
        value           nonuniform 0();
    }
}


// ************************************************************************* //
