/*--------------------------------*- C++ -*----------------------------------*\
  =========                 |
  \\      /  F ield         | OpenFOAM: The Open Source CFD Toolbox
   \\    /   O peration     | Website:  https://openfoam.org
    \\  /    A nd           | Version:  6
     \\/     M anipulation  |
\*---------------------------------------------------------------------------*/
FoamFile
{
    version     2.0;
    format      ascii;
    class       volVectorField;
    location    "73";
    object      U;
}
// * * * * * * * * * * * * * * * * * * * * * * * * * * * * * * * * * * * * * //

dimensions      [0 1 -1 0 0 0 0];

internalField   nonuniform List<vector> 
918
(
(0.985049 -0.000715245 0)
(0.00534253 2.96624 0)
(-0.00265731 0.880152 0)
(0.979575 0.00196173 0)
(-0.0138744 2.06584 3.27441e-20)
(-0.00709788 2.94855 -2.57536e-18)
(0.818523 1.12085 4.45442e-19)
(0.115536 0.0723755 -1.40695e-20)
(0.999922 -0.000244278 0)
(0.0902521 0.663641 0)
(0.00849326 0.383847 0)
(0.734614 -0.00431083 0)
(0.0102126 2.93157 0)
(0.00337996 2.79437 0)
(-0.00232467 3.17937 8.26246e-19)
(-0.0137578 1.92793 2.04155e-20)
(0.295274 0.0401614 9.82256e-19)
(0.232937 1.10876 3.54342e-19)
(0.964343 0.00674379 0)
(-0.000448653 0.392541 0)
(0.0236779 0.0247078 -6.55051e-19)
(1.00183 -0.00455958 0)
(0.999851 -0.00892629 0)
(0.975168 -0.00605177 0)
(0.592516 0.0211472 0)
(0.0212402 2.6441 0)
(-0.0123482 2.91192 9.42913e-19)
(-0.00572524 0.933144 0)
(-0.031467 1.16946 0)
(-0.00375791 0.902776 0)
(-0.0226825 2.59148 0)
(-0.00487996 2.11638 -2.61543e-20)
(-0.00996748 1.90083 0)
(-0.0221447 2.98761 -9.28336e-23)
(-0.0164876 3.0055 2.00097e-18)
(0.0023117 3.00058 0)
(0.871957 -0.00975801 0)
(0.375425 0.914634 1.64795e-19)
(0.817394 1.13926 -5.57428e-19)
(0.949896 1.00535 5.67898e-19)
(0.680215 1.22208 -1.02071e-19)
(0.69365 1.18283 5.82248e-19)
(0.145237 0.129758 1.37247e-20)
(0.146418 0.0771347 0)
(1.16544 0.532108 0)
(0.117287 0.108303 6.21045e-20)
(0.0920998 0.0586276 -6.44482e-20)
(0.920558 -0.00704823 0)
(1.00027 5.78231e-05 0)
(0.999907 0.000320901 0)
(1.0037 -0.00728023 0)
(1.00088 -0.000947172 0)
(1.00011 -5.61206e-06 0)
(0.0922939 1.84626 -7.3021e-19)
(0.0317048 0.853905 0)
(0.127483 0.752617 0)
(0.0177917 0.796354 0)
(0.0533039 0.580905 0)
(0.00421156 2.03124 0)
(-0.00799567 0.712107 0)
(0.00502181 0.400178 0)
(-0.00899172 0.70982 0)
(0.016622 0.380907 0)
(0.843662 -0.0156211 0)
(0.83827 0.0324107 0)
(0.761099 -0.00326681 0)
(0.800186 0.0334784 0)
(0.701153 0.0136225 0)
(0.013952 3.0002 9.55911e-19)
(0.0111749 3.00603 0)
(0.00624732 3.00387 0)
(0.0118781 2.99713 1.08586e-23)
(0.00827322 2.95871 -1.42072e-18)
(0.0121897 2.98285 0)
(0.00901368 2.90488 0)
(0.0210745 2.93135 2.20411e-24)
(0.00413258 2.82434 0)
(0.0261737 2.91887 0)
(-0.000664089 2.74527 0)
(0.305793 3.57444 0)
(-0.122274 3.6572 0)
(0.149234 3.27015 -7.68968e-19)
(0.00320493 3.0076 0)
(-0.0301015 1.9899 0)
(-0.00721376 2.17971 -2.01354e-20)
(-0.0095152 1.93998 2.04122e-20)
(0.348634 0.138917 -3.41069e-19)
(0.316768 0.0109551 -3.31714e-19)
(0.303431 0.154244 -1.01995e-18)
(0.260001 0.0597401 -6.62798e-19)
(0.263345 1.02308 0)
(0.331929 1.23975 -3.66077e-19)
(0.41332 1.15074 6.04036e-19)
(0.987723 0.00815628 0)
(0.943241 0.00578443 0)
(1.00028 0.000672067 0)
(1.00254 0.00906651 0)
(1.00311 0.00899112 -2.62994e-18)
(0.992135 0.00942007 1.98731e-18)
(-0.0206668 0.734124 0)
(0.00210336 0.399608 0)
(-0.0516148 1.01847 0)
(-0.0314212 0.788913 0)
(-0.0103299 0.39352 0)
(-0.0475253 0.104045 2.03369e-19)
(0.0478728 0.0572393 0)
(0.993626 -0.00769255 0)
(0.954051 -0.00648426 0)
(0.743023 0.0246253 0)
(0.672157 0.0296137 0)
(0.662443 0.0199402 0)
(0.98006 -0.00275453 0)
(0.585951 0.0608048 0)
(0.448938 -0.0182166 1.49744e-18)
(-0.0406801 2.86038 7.39403e-19)
(0.0335946 2.91448 0)
(0.0427199 2.89252 0)
(0.00304233 2.70218 0)
(-0.00867661 2.98629 9.02064e-19)
(-0.0141278 2.89462 0)
(-0.0110973 2.99159 -2.77792e-18)
(-0.0116186 2.92947 9.46111e-19)
(-0.0451265 1.34555 0)
(-0.015536 1.37396 0)
(-0.00787542 2.14135 7.53587e-22)
(-0.00781556 2.10043 0)
(-0.0172938 1.91189 0)
(0.938899 -0.0051958 0)
(0.857315 -0.011152 0)
(0.863291 0.00459078 0)
(0.949684 -0.0061362 0)
(0.883691 -0.00809281 0)
(0.498912 1.11456 -2.09241e-19)
(0.546179 1.18437 0)
(0.337404 0.849347 3.1965e-20)
(0.281867 0.7139 0)
(0.918342 1.03525 -1.60427e-19)
(1.04112 0.8457 3.23011e-19)
(0.391742 1.31813 0)
(0.54281 1.27342 0)
(0.596675 1.20047 0)
(0.103854 0.181579 -2.98317e-19)
(0.171384 0.144599 0)
(0.169938 0.0920635 1.84133e-19)
(1.00429 0.899731 0)
(1.08027 0.748122 0)
(1.10982 0.683348 -2.59192e-19)
(1.14645 0.594466 0)
(1.20246 0.391352 4.72038e-20)
(0.957515 -0.00709483 0)
(0.962734 -0.00810804 0)
(0.900926 -0.00737194 0)
(0.983931 -0.00812252 0)
(0.974431 -0.00803101 0)
(0.93655 -0.00656955 0)
(1.0002 0.00250573 0)
(1.00077 0.00123994 0)
(1 0.000761523 0)
(0.0442695 2.08827 4.07974e-19)
(0.1443 1.78981 0)
(0.0192544 2.20421 6.13622e-19)
(0.0521746 1.8938 -5.1307e-19)
(0.167229 1.08459 -2.90825e-19)
(0.0496935 0.938924 0)
(0.121546 0.938983 0)
(0.00689426 0.758736 0)
(0.0276747 0.506443 0)
(-0.00333944 2.25839 -3.98811e-22)
(0.0195193 2.03661 0)
(-0.00506599 2.25907 -8.40237e-21)
(0.00263034 2.04299 4.04092e-21)
(-0.00330315 0.732371 0)
(-0.00809369 0.716137 0)
(0.0101015 0.443304 0)
(-0.0172507 0.710631 0)
(0.00614239 0.384899 0)
(0.93954 0.0138614 0)
(0.856452 -0.0115687 0)
(0.928691 0.00488845 0)
(0.846277 -0.0127785 0)
(0.810793 -0.00154373 0)
(0.898481 0.0218861 0)
(0.873218 0.02635 0)
(0.785092 -0.00246804 0)
(0.0102933 3.06723 -8.89494e-21)
(0.0152146 3.05908 0)
(0.012322 2.97034 0)
(0.00756091 2.87659 0)
(0.895493 3.96835 0)
(1.18946 3.36467 9.36743e-19)
(0.0808089 3.09019 0)
(-0.0176457 2.91805 0)
(-0.0160816 1.40034 0)
(-0.0355622 1.69712 0)
(-0.0243161 1.53256 0)
(-0.0331886 2.5519 -1.43474e-20)
(-0.0179487 2.24677 0)
(-0.0225791 2.39168 0)
(-0.000772912 1.96883 1.65991e-22)
(-0.00509384 2.25318 -2.58852e-20)
(-0.00616481 2.2172 -2.095e-20)
(-0.00582632 1.95318 0)
(0.389617 0.118074 5.23584e-19)
(0.356522 0.00159041 -5.13624e-19)
(0.234584 1.59194 0)
(0.288191 0.767003 -3.21791e-19)
(0.179549 1.69221 -1.05567e-18)
(0.245234 1.22446 1.05603e-18)
(0.901672 0.00584873 0)
(0.967036 0.0106878 0)
(0.974892 0.00985865 0)
(0.922983 0.00586457 0)
(-0.0186513 0.720294 0)
(-0.0217216 0.725918 0)
(0.000695664 0.391171 0)
(0.0913587 0.097339 5.71462e-19)
(0.0762971 0.0782856 -6.75112e-19)
(0.0543702 0.0500017 0)
(1.10743 0.0905572 2.38369e-20)
(1.09113 0.0426461 0)
(1.01903 0.0437507 0)
(0.91403 -0.00146482 0)
(0.439846 0.097383 0)
(0.499979 0.0751681 -2.39492e-18)
(0.397234 0.000555067 8.9711e-19)
(0.0106205 2.977 7.84273e-19)
(-0.0332086 2.86126 4.56654e-20)
(0.00812841 3.05341 -1.87725e-20)
(0.0157871 3.04313 7.02956e-19)
(-0.0118773 3.00004 3.1113e-20)
(-0.0122669 2.95231 -1.25488e-22)
(-0.0150476 3.01328 -5.81182e-19)
(0.0145283 3.02641 4.10502e-19)
(0.00760915 3.03506 -6.67341e-19)
(0.934759 0.0021521 0)
(0.939537 -0.00110532 0)
(0.848191 -0.0111794 0)
(0.956289 0.011881 0)
(0.942276 0.0135424 0)
(0.881655 0.00524827 0)
(0.915402 0.0187183 0)
(0.924949 0.0156778 0)
(0.837574 0.000872572 0)
(0.671536 1.41287 1.67567e-20)
(0.689536 1.52333 0)
(0.118657 0.291967 6.76306e-20)
(0.213278 0.65418 5.34546e-19)
(0.240306 0.693217 -3.13782e-19)
(0.214805 0.495863 6.22783e-19)
(0.340365 0.832508 1.57875e-18)
(0.135401 0.237051 3.79013e-19)
(0.257972 0.169575 7.02962e-19)
(0.2117 0.164085 1.81356e-19)
(0.218669 0.0824077 3.45285e-19)
(1.19381 0.446856 9.6201e-20)
(1.21893 0.246042 9.38535e-20)
(0.0091168 2.24674 2.38784e-19)
(0.039447 1.95831 0)
(0.97308 0.0330855 0)
(0.946904 0.0192761 0)
(0.871311 -0.0151567 0)
(0.0123699 3.07483 0)
(0.0168462 2.94401 1.24222e-18)
(0.01397 2.95693 0)
(0.00584573 2.84993 -1.23284e-18)
(0.00907986 3.09023 3.03407e-19)
(0.0118431 3.083 0)
(0.709254 1.81935 -1.70832e-19)
(1.23386 2.62389 5.77577e-19)
(0.694013 1.99733 -1.39476e-18)
(0.0221963 2.97628 -6.81764e-19)
(0.0402687 2.99823 0)
(-0.0383296 2.87888 0)
(-0.00615788 2.23805 -1.27256e-20)
(-0.00470262 2.25834 5.01121e-20)
(-0.000379646 2.00446 -6.94381e-21)
(0.268685 1.40325 1.02364e-18)
(0.287288 0.570443 -7.02807e-19)
(0.0704882 2.00732 7.38392e-19)
(0.125318 1.8757 -8.89882e-19)
(0.208326 1.543 1.01522e-19)
(0.00579055 3.1204 -1.6871e-18)
(0.0130176 3.12077 1.85683e-18)
(-0.00522273 2.9806 8.43743e-19)
(-0.0015882 2.97515 -8.08412e-19)
(-0.0176023 2.87719 -8.59387e-19)
(0.0121382 3.10062 -2.25426e-18)
(0.00560623 3.10522 2.2864e-18)
(0.267465 0.699185 0)
(0.218659 0.659883 -1.14014e-18)
(0.0744513 0.212536 5.01687e-19)
(0.346726 0.952513 1.12105e-18)
(0.199834 0.281535 -1.72657e-18)
(1.19807 0.176162 4.71983e-20)
(1.21565 0.30539 0)
(1.19354 0.121351 1.00232e-20)
(-0.000858929 2.26626 -1.18513e-21)
(0.003682 2.25107 0)
(0.0316669 1.99392 0)
(0.313335 1.31862 -3.6806e-19)
(0.354053 1.17855 -7.98145e-19)
(0.233337 0.392702 1.42815e-18)
(1.00644 -0.00968125 0)
(1.00774 -0.00778309 4.83378e-19)
(-0.0396721 1.32792 0)
(-0.0481003 1.33252 0)
(1.00244 0.00327257 1.34094e-21)
(1.0032 0.00781405 9.92366e-19)
(-0.0243031 2.53824 1.81795e-20)
(-0.0274263 2.58073 0)
(0.0402583 3.17263 4.83445e-19)
(0.373982 3.54038 0)
(1.15835 0.69305 -4.97741e-20)
(1.0118 0.0106459 -2.83828e-21)
(1.02087 -0.00900134 0)
(1.00158 0.000284714 1.57607e-22)
(0.11892 1.37452 0)
(0.135911 2.58603 0)
(0.0214232 1.32705 0)
(-0.000319406 2.63386 -3.9479e-21)
(-0.0218899 2.58172 -9.58566e-21)
(0.996442 0.0317231 2.18275e-21)
(1.06304 0.00590429 0)
(1.10021 0.0285846 0)
(-0.0338818 1.74442 0)
(-0.0191081 2.58158 0)
(-0.0139141 1.3193 0)
(0.308845 1.49003 -1.74046e-19)
(1.01152 -0.00905508 0)
(1.00971 -0.0129845 0)
(1.00227 0.000938737 6.19102e-19)
(1.00548 -0.00491064 -7.29774e-19)
(1.00113 -0.000861362 0)
(-0.0223076 1.46648 0)
(-0.0110026 1.38781 0)
(-0.0172437 1.42801 0)
(-0.0167041 1.30616 0)
(-0.0288502 1.29633 0)
(-0.0223762 1.27566 0)
(1.03567 -0.0042987 0)
(1.01882 0.0152497 -9.66896e-22)
(0.811857 1.31127 2.8171e-19)
(1.00244 0.000386995 -6.18663e-19)
(1.00338 0.00444959 7.38493e-19)
(1.00126 0.002095 0)
(1.01109 0.00963288 6.16243e-19)
(1.00684 0.00745264 -7.50061e-19)
(1.00713 0.0111188 0)
(-0.0241784 2.60913 0)
(-0.0275154 2.58863 -3.05393e-20)
(-0.0243503 2.60257 2.14819e-20)
(1.24215 0.273301 5.18596e-19)
(1.16377 0.0892268 0)
(0.0439805 3.09102 -9.63684e-19)
(0.0519237 2.87358 -6.82226e-20)
(0.103176 3.20174 1.28821e-18)
(0.121405 3.21378 -2.74901e-19)
(0.141065 3.25702 0)
(0.0229181 3.13786 2.64933e-19)
(0.0613033 3.16187 9.59948e-19)
(0.061478 3.17889 -4.95545e-19)
(0.0273949 3.1293 0)
(0.56222 0.291345 0)
(0.507771 0.307335 0)
(1.14059 0.724444 1.10576e-19)
(1.1057 0.860654 -9.23138e-20)
(1.19812 0.610541 0)
(1.22516 0.544667 0)
(1.0157 0.0120253 -1.14476e-18)
(1.01468 0.0127529 1.43934e-18)
(1.02575 -0.00872638 0)
(1.02409 -0.0102932 0)
(1.00678 0.00322335 0)
(1.01089 0.00421194 0)
(1.00422 0.00221427 0)
(1.00936 0.0063505 0)
(1.00684 0.0050426 0)
(1.00439 0.00526475 0)
(0.108197 1.37454 0)
(0.0961703 1.33454 0)
(0.14224 1.42067 0)
(0.147975 1.4043 0)
(0.147181 2.61227 0)
(0.190323 2.68057 -4.08229e-19)
(0.103521 2.66989 0)
(0.0813956 2.67082 1.64433e-19)
(0.0265199 2.67558 -1.59804e-19)
(0.0149492 1.32683 0)
(0.0210843 1.25625 0)
(0.0262743 1.33997 0)
(0.0403933 1.27788 0)
(-0.0017344 1.99623 3.66892e-20)
(-0.0216092 2.60995 -3.88139e-20)
(-0.006632 2.67608 -2.98696e-20)
(-0.0189727 2.68848 0)
(-0.0237702 2.61601 3.03789e-20)
(-0.022392 2.61143 3.81377e-20)
(0.00543617 1.993 -2.79957e-20)
(-0.0100998 2.40151 5.20715e-20)
(-0.0148951 2.42596 3.38603e-20)
(1.01115 0.0404127 1.16498e-18)
(1.00394 0.0195032 -1.44679e-18)
(1.00376 0.0462574 -1.1857e-18)
(0.975403 0.0376213 1.49199e-18)
(1.06469 0.00923261 0)
(1.04991 -0.00643383 0)
(1.09272 0.0377384 0)
(1.07585 0.0150218 0)
(1.07461 0.000579966 0)
(1.14153 0.079729 0)
(1.11578 0.046318 0)
(1.11901 0.0375466 0)
(-0.0297081 2.43333 3.47704e-21)
(-0.0203437 2.02238 0)
(-0.0207398 2.22068 0)
(-0.021215 2.60237 -1.88161e-20)
(-0.0179507 2.61324 5.97366e-22)
(-0.00181945 1.58788 -5.46372e-20)
(-0.0112142 1.51025 5.58165e-20)
(-0.0218754 1.40107 0)
(-0.0259364 1.40686 0)
(-0.0327429 1.39801 0)
(-0.0103809 1.32115 0)
(-7.93943e-05 1.24438 0)
(0.385476 1.51441 2.90393e-19)
(0.434291 1.51845 1.53971e-19)
(0.591686 2.46635 -2.46983e-19)
(0.379078 2.56356 6.86757e-19)
(0.349742 2.05252 7.02351e-20)
(1.02071 -0.00800224 0)
(1.0158 -0.00935803 0)
(1.01485 -0.0132137 0)
(1.00773 -0.000557317 0)
(1.00485 -0.000678215 0)
(1.008 -0.00447275 0)
(1.00955 -0.00343786 0)
(1.01465 -0.00428266 0)
(1.01955 0.0162774 1.12369e-18)
(1.01715 0.0147682 -1.42201e-18)
(1.01996 0.0186651 -1.13298e-18)
(1.01742 0.0168663 1.41938e-18)
(0.768257 1.35815 0)
(0.70699 1.39365 2.46745e-19)
(0.87563 1.23914 1.02514e-19)
(0.912859 1.19853 -1.36056e-19)
(1.16459 2.61204 2.72605e-19)
(0.751677 0.132968 5.82776e-19)
(1.17207 0.108083 0)
(1.21458 0.202013 -4.20922e-19)
(1.19565 0.15434 -1.75242e-20)
(1.01324 0.167882 0)
(0.0764364 3.01828 3.4531e-19)
(0.0822618 2.90271 -1.13348e-18)
(0.0244244 2.35923 7.17482e-19)
(0.149656 -0.253636 -3.24788e-19)
(0.341973 3.44437 -2.50982e-19)
(0.192606 3.33939 0)
(0.223522 3.39582 3.26934e-19)
(0.221622 3.07615 -1.20269e-18)
(0.25457 3.19507 0)
(0.00696426 3.12237 5.00361e-20)
(0.0170888 3.13115 -5.76454e-19)
(0.0163476 3.12701 8.48443e-19)
(0.033486 3.14007 0)
(0.031436 3.14972 0)
(1.25752 2.57586 0)
(0.536163 0.788474 -5.22796e-19)
(1.0258 1.03414 -1.43914e-20)
(0.991462 1.08706 0)
(0.860319 0.96983 -1.05148e-19)
(1.08426 0.909774 2.65718e-20)
(0.32762 0.305172 -8.04782e-19)
(0.647829 0.32294 -2.22359e-20)
(0.531842 0.218476 3.89834e-19)
(0.540662 0.322452 2.81594e-20)
(0.422997 0.272904 -1.12662e-18)
(0.604383 0.323204 0)
(0.693543 0.429579 6.5038e-19)
(0.696406 0.43574 0)
(0.574891 0.329633 0)
(0.482973 0.253695 0)
(0.800237 0.655233 3.90852e-19)
(1.2535 0.307137 -4.2164e-19)
(1.24653 0.439008 0)
(1.24672 0.394589 0)
(0.684542 0.187785 5.95565e-19)
(0.848415 0.559202 -3.67683e-19)
(0.7692 0.522891 6.5719e-19)
(0.965912 0.454068 -6.62124e-19)
(1.01835 0.0146853 7.62185e-19)
(1.01704 0.0136429 -7.68703e-19)
(1.01596 0.0141461 0)
(1.03707 -0.00451628 0)
(1.03047 -0.0076936 -7.21151e-19)
(1.02867 -0.0105748 7.13658e-19)
(1.02473 0.0110281 0)
(1.02269 0.0151399 0)
(1.0127 0.00472164 0)
(1.01456 0.00910405 0)
(1.01639 0.00424483 0)
(1.01555 0.0029303 0)
(0.0780436 1.36255 0)
(0.0811231 1.30495 0)
(0.153558 1.42414 5.9583e-20)
(0.276667 1.48635 8.51521e-20)
(0.176211 1.45811 1.92194e-19)
(0.212611 1.45631 -3.10363e-19)
(0.161197 1.43381 0)
(0.142385 1.58604 -8.31716e-20)
(0.139416 1.58295 0)
(0.347066 2.00407 -1.0226e-19)
(0.330227 2.33491 6.23468e-19)
(0.194489 1.46674 7.24717e-20)
(0.274996 1.39981 2.66609e-20)
(0.205409 1.39994 -2.17342e-20)
(0.288554 1.33834 -8.38386e-20)
(0.257173 1.57711 0)
(0.268652 1.62241 9.37394e-20)
(0.0225159 2.25302 -1.31148e-20)
(0.03797 2.66861 0)
(0.0631056 2.40475 9.41041e-20)
(0.0582092 2.4282 0)
(0.0680702 2.6874 -1.8255e-19)
(0.04249 2.70298 0)
(0.0234633 1.45916 6.00048e-20)
(0.0327441 1.51682 0)
(0.031162 1.41819 0)
(0.0190287 1.42834 -6.87371e-20)
(0.00288847 2.6611 2.24395e-21)
(0.0264879 2.69154 1.83309e-19)
(0.0105566 2.73288 9.44816e-22)
(0.00127599 1.84735 -2.17277e-20)
(-0.00533182 1.70061 -1.66013e-20)
(0.00891939 1.30974 0)
(0.0171027 1.22433 0)
(0.0401121 1.59552 -1.0014e-20)
(0.041978 1.47508 -5.43974e-20)
(0.0273096 1.55442 5.73092e-20)
(0.0518339 1.61918 0)
(-0.0302977 2.2712 1.18575e-19)
(-0.0336641 2.54983 -5.02044e-20)
(-0.0198109 2.4495 8.46466e-21)
(-0.00627673 1.86291 2.63259e-20)
(-0.0276172 2.50446 1.17327e-20)
(-0.0228758 2.44622 -2.76809e-20)
(1.01793 0.0221107 -7.69331e-19)
(1.01421 0.0286847 7.73757e-19)
(1.01212 0.0173475 0)
(1.01142 0.0706986 1.05737e-18)
(0.990507 0.0613464 -1.21428e-18)
(0.94961 0.0557949 1.36072e-18)
(1.01348 0.116461 -1.43887e-19)
(1.044 -0.00465377 0)
(1.05221 -0.00039977 6.9082e-19)
(1.04029 -0.00818024 -6.90512e-19)
(1.07242 0.0437272 -4.09401e-20)
(1.06503 0.0289936 3.5366e-19)
(1.06417 0.0657751 0)
(1.0543 0.0549127 -1.27395e-19)
(1.03243 0.0444323 0)
(1.02544 0.0399232 0)
(1.02762 0.0137785 0)
(1.024 0.016265 0)
(1.04039 0.033602 2.61903e-19)
(1.0398 0.028981 -5.79775e-19)
(1.05328 0.0389412 -2.77023e-19)
(1.0482 0.0388276 -3.05746e-19)
(1.07779 0.0704247 5.84357e-19)
(1.10189 0.0564448 0)
(1.10866 0.0952082 0)
(-0.0280039 2.2777 7.0432e-20)
(-0.0303058 2.02824 3.60588e-21)
(-0.0254616 2.03811 0)
(-0.0298297 2.44603 -7.0123e-20)
(-0.027623 2.4047 -6.93812e-21)
(-0.0342004 2.47343 9.01809e-21)
(-0.0214064 2.62363 -3.24851e-20)
(-0.0262367 2.56594 1.70695e-21)
(-0.0248136 2.51939 -1.09762e-20)
(-0.0169989 2.61686 2.13245e-20)
(-0.0211092 2.61904 -2.45726e-20)
(-0.010814 1.50844 -4.95346e-22)
(-0.00537375 1.63558 -5.39267e-20)
(0.376717 1.44983 -1.24346e-19)
(0.371663 1.38078 1.45305e-20)
(0.648633 1.44158 -2.38734e-19)
(0.524662 1.51144 -1.49719e-19)
(0.578403 1.47007 0)
(0.607503 2.42311 2.17498e-19)
(0.667037 2.43264 3.37806e-19)
(0.422284 2.51693 8.99984e-20)
(0.402213 2.53893 -6.30746e-19)
(0.500711 2.4788 5.66285e-19)
(0.553769 2.47653 0)
(0.486595 2.52696 -5.47012e-19)
(0.262973 2.58901 1.11572e-18)
(0.356863 2.56819 -5.965e-20)
(0.279967 2.65168 -1.55233e-18)
(0.970769 2.39071 7.13794e-19)
(0.848725 2.39145 0)
(1.01144 0.00139177 2.51029e-20)
(1.01538 -0.00517241 -2.05045e-20)
(1.01776 -0.00391469 -3.74819e-19)
(1.01563 -0.00103602 3.73517e-19)
(1.01313 0.00184835 0)
(0.637136 1.30347 0)
(0.680018 1.18862 0)
(0.794784 1.11933 0)
(0.667688 1.14606 0)
(1.19551 2.62743 5.14112e-20)
(1.08846 2.37957 0)
(0.817877 2.16768 3.53275e-21)
(0.821468 2.43169 0)
(0.916352 2.52206 -4.31995e-19)
(0.947843 2.47145 2.88396e-19)
(0.781235 0.167618 0)
(0.72537 0.147514 1.57825e-19)
(0.903779 0.161039 9.22074e-19)
(0.81795 0.144196 -3.44172e-19)
(0.753684 0.090963 -1.06535e-18)
(1.08867 0.246429 -8.38576e-19)
(0.98652 0.316881 -1.01256e-20)
(0.931715 0.35235 8.09622e-19)
(1.015 0.260393 6.91334e-19)
(0.932217 0.207501 -1.21439e-18)
(0.889931 0.221316 1.51889e-19)
(0.928878 0.31718 -3.17663e-19)
(0.905579 0.224328 0)
(1.00091 0.209896 5.94478e-19)
(1.05586 0.218789 0)
(1.05281 0.228698 0)
(1.12583 0.124896 2.66963e-19)
(1.06559 0.195209 -1.06905e-20)
(1.08035 0.24849 -1.52891e-19)
(1.11356 0.211634 0)
(1.02334 0.0488209 5.9174e-19)
(1.03718 0.0629929 7.38259e-19)
(1.03295 0.046701 -5.87732e-19)
(1.04162 0.069259 -4.94891e-19)
(1.01451 0.0748899 -7.49387e-19)
(0.985593 0.171479 0)
(0.988813 0.10872 0)
(0.962274 0.0733036 -4.84052e-19)
(0.89703 0.100938 1.9348e-19)
(1.03877 0.116892 6.84522e-19)
(1.07609 0.136658 -7.81681e-19)
(1.07024 0.18137 7.02804e-19)
(1.03529 0.157699 0)
(1.08633 0.123308 0)
(1.05723 0.112799 -3.20806e-19)
(1.04256 0.108973 -5.56349e-19)
(0.587833 1.08409 1.17152e-19)
(0.61178 1.40048 -2.00237e-20)
(1.14495 2.71796 -2.451e-19)
(1.19749 3.10249 2.56009e-21)
(1.25332 2.72801 -1.2239e-19)
(1.2929 2.69876 1.87482e-20)
(1.26839 2.32236 -3.80889e-20)
(1.18515 3.00795 -7.29551e-20)
(1.20472 2.96493 2.2204e-19)
(1.17924 3.25589 -1.22286e-19)
(1.39677 2.97026 1.52707e-19)
(1.40824 2.90628 0)
(0.574449 0.814848 -4.77016e-20)
(0.207433 1.21082 4.71547e-19)
(0.521262 0.341027 5.19423e-19)
(0.407391 0.105255 5.8936e-19)
(0.475707 0.299817 6.38087e-19)
(0.548492 0.414806 -1.03984e-18)
(0.556451 0.399806 8.56103e-19)
(0.470127 0.299023 -3.2052e-19)
(0.334801 0.240832 7.25805e-19)
(0.719565 0.255444 -3.43499e-19)
(0.670787 0.28597 0)
(0.60168 0.196277 7.55879e-21)
(0.739593 0.508457 3.55003e-19)
(0.709715 0.480699 -1.28658e-18)
(0.633911 0.433744 1.42938e-20)
(0.621356 0.413352 0)
(0.720733 0.71613 3.70351e-19)
(0.837283 0.79923 4.0803e-19)
(0.77481 0.849211 -4.75503e-19)
(0.904988 0.821075 -1.50802e-19)
(0.939782 0.864509 -3.49414e-20)
(0.947314 0.871853 3.58393e-20)
(0.883543 0.679019 -6.63592e-19)
(0.955901 0.725463 1.402e-19)
(1.01017 0.728811 0)
(1.00882 0.704537 -1.79139e-19)
(1.03136 0.341043 2.09493e-19)
(1.15877 0.341319 2.53672e-19)
(1.07508 0.283894 3.42868e-19)
(0.999861 0.388334 -4.1896e-19)
(1.05734 0.488913 0)
(1.13905 0.42925 0)
(0.901804 0.427444 -1.12353e-22)
(0.846852 0.322512 0)
(0.893088 0.312368 3.87426e-19)
(0.914943 0.350967 3.19076e-21)
(0.987717 0.498458 1.84936e-18)
(0.920332 0.556901 4.76603e-19)
(0.943113 0.516079 -5.04096e-19)
(0.861106 0.493017 5.37599e-19)
(0.826671 0.468498 3.42709e-19)
(0.802615 0.446318 -3.35985e-19)
(1.02818 -0.000370594 6.19374e-19)
(1.02044 0.000590041 0)
(1.01908 0.00140627 4.04222e-19)
(1.02266 -0.000689495 -9.1505e-19)
(1.02256 0.00460627 4.4578e-19)
(1.02002 0.0116604 -9.33041e-19)
(1.02074 0.0114735 0)
(1.01967 0.0122344 -1.94273e-19)
(1.01657 0.00781514 4.86947e-19)
(1.01668 0.0109292 -2.44349e-19)
(1.01726 0.0106334 1.78771e-19)
(0.038273 1.33657 0)
(0.0389996 1.39551 0)
(0.0565856 1.34075 0)
(0.0600199 1.27834 0)
(0.0890984 1.40158 -6.36463e-20)
(0.0932571 1.37544 1.16676e-20)
(0.0815841 1.57485 3.98811e-21)
(0.103002 1.40958 -4.43369e-20)
(0.0445931 1.4877 4.93456e-20)
(0.0495023 1.48308 -3.89681e-20)
(0.0760575 1.39774 -2.72654e-20)
(0.0641487 1.40111 7.4857e-20)
(0.0575976 1.38123 1.23777e-20)
(0.0469295 1.39939 8.21288e-21)
(0.100203 2.37333 -1.03627e-19)
(0.0914886 2.41631 0)
(0.151282 2.01353 9.329e-20)
(0.132301 1.70017 3.14939e-20)
(0.214504 2.01566 -7.78393e-20)
(0.218953 2.41948 0)
(0.220515 2.39805 -6.08376e-19)
(0.307436 2.37282 4.55342e-19)
(0.252347 1.98095 -2.05886e-19)
(0.145789 2.14848 1.45011e-19)
(0.111373 2.25098 0)
(0.0148114 1.85498 -2.91397e-20)
(-0.00535829 2.37539 -9.09375e-21)
(0.00339042 2.13191 0)
(0.00493535 2.43793 -1.69015e-20)
(0.0220939 2.27435 2.54601e-20)
(0.00988153 1.43552 -1.19899e-20)
(0.00604074 1.41488 1.98374e-19)
(0.00435259 1.42361 -6.49433e-20)
(0.0177202 1.43284 -5.59318e-20)
(0.0205801 1.46239 0)
(0.00248365 1.40509 0)
(-0.00433871 1.30607 -7.25853e-20)
(-0.0019776 1.39243 2.08412e-20)
(0.00297037 1.39257 0)
(0.00359978 1.29731 -5.53419e-20)
(0.0110361 1.21437 1.11033e-19)
(1.04246 0.0150981 0)
(1.04898 0.0105783 -6.45969e-20)
(1.0391 0.0245682 -4.66947e-19)
(1.04941 0.0234415 0)
(1.05469 0.022682 0)
(1.03628 0.0131173 -6.76574e-21)
(1.03008 0.0135471 7.53085e-19)
(1.03201 0.0174819 9.12727e-19)
(1.02565 0.0211565 0)
(1.02204 0.021757 0)
(1.03551 0.0260926 4.66259e-19)
(1.02559 0.0282035 0)
(1.02352 0.0281973 0)
(-0.0201026 2.03089 0)
(-0.00990769 1.66347 -2.36534e-21)
(-0.00806602 1.76848 -3.2549e-20)
(-0.00574616 1.39916 0)
(-0.00947065 1.56669 -3.07687e-20)
(-0.0155517 1.47625 1.86899e-20)
(-0.0107331 1.41255 0)
(0.403276 1.62549 0)
(0.365468 1.31873 -2.35346e-20)
(0.275359 1.34549 0)
(0.43513 1.31712 -4.35261e-20)
(0.472788 1.47674 0)
(0.457372 1.41779 4.32153e-20)
(1.0405 2.67123 -1.51669e-20)
(0.985218 2.4098 -8.96722e-19)
(0.947964 2.21049 1.00602e-18)
(0.8655 2.38353 2.42247e-19)
(0.852776 2.48787 0)
(0.921787 2.48247 0)
(0.954544 2.38379 0)
(0.930582 2.37458 -9.36249e-19)
(0.691142 2.45189 -3.76184e-19)
(0.800292 2.43568 -9.71705e-20)
(0.807643 2.41368 7.32202e-20)
(0.704234 2.40403 0)
(0.80958 2.3978 0)
(0.770172 2.41426 -3.66422e-19)
(0.765658 2.46633 0)
(0.631105 1.06721 0)
(0.51558 0.858099 -5.53777e-19)
(0.522008 0.930276 -3.21277e-20)
(0.501832 1.07055 0)
(0.488884 0.978652 8.48e-19)
(0.80295 0.886642 -1.31438e-19)
(0.806198 1.0216 0)
(0.787166 1.00441 1.80016e-19)
(0.676084 1.02096 0)
(0.66806 0.924431 0)
(1.16343 2.75464 -2.17388e-19)
(1.13858 2.81282 -8.79057e-20)
(0.922911 2.335 7.23009e-20)
(0.899637 2.31609 -7.51091e-20)
(1.13312 2.73259 0)
(1.08511 2.70038 9.02159e-20)
(1.10124 2.49598 -2.95273e-19)
(1.00305 2.25593 -2.83764e-20)
(0.497176 1.32949 0)
(0.517102 1.07734 -1.03195e-19)
(0.594499 1.18249 0)
(0.848364 0.23039 0)
(0.754979 0.177067 0)
(0.660493 0.140845 0)
(0.85586 0.229427 -6.10737e-19)
(0.744614 0.22466 3.58836e-19)
(0.91469 0.087662 -4.00461e-19)
(0.927818 0.138118 0)
(0.899508 0.146983 1.72961e-19)
(0.83961 0.108765 6.91782e-19)
(0.799473 0.0776388 -4.33656e-19)
(1.09626 3.34711 -6.72289e-19)
(1.16416 3.27058 0)
(1.11449 3.43202 -1.56931e-18)
(0.65623 3.57799 1.3064e-18)
(1.02482 3.07609 1.20119e-19)
(0.533283 0.779877 5.65994e-19)
(0.512358 0.747892 0)
(0.349187 0.354727 -1.43216e-19)
(0.489303 0.627458 8.50747e-19)
(0.553574 0.342005 -1.86977e-19)
(0.520353 0.452649 2.23001e-19)
(0.69027 0.524131 4.5778e-19)
(0.737555 0.560634 0)
(0.66707 0.5628 0)
(0.651853 0.530474 0)
(1.01782 0.61383 8.79576e-20)
(0.972383 0.596045 -4.61754e-19)
(0.98271 0.608427 3.52304e-19)
(1.04644 0.550637 -3.40692e-19)
(1.09142 0.520059 0)
(1.09388 0.60271 -8.93681e-20)
(0.887108 0.422877 -7.64351e-19)
(0.87522 0.409403 -9.83023e-19)
(0.798517 0.409074 6.02381e-19)
(0.81385 0.378784 -6.2471e-19)
(0.856112 0.335629 -4.91358e-19)
(0.800389 0.338508 6.01721e-19)
(1.02657 0.00672482 -4.66464e-19)
(1.0262 0.00684578 9.3986e-19)
(1.02997 0.000968767 6.00191e-19)
(1.03417 0.00159563 -7.2064e-19)
(1.034 0.0119872 0)
(1.02971 0.0120718 -1.17909e-18)
(0.0822712 1.64784 1.00016e-20)
(0.0673062 1.60728 0)
(0.108017 1.70418 4.22552e-20)
(0.114318 1.67748 -3.68188e-20)
(0.0713354 1.57144 -7.41154e-21)
(0.0641503 1.57489 0)
(0.00692332 1.70166 0)
(-0.00912426 1.51672 1.62812e-20)
(-0.00755611 1.45781 -1.46388e-20)
(-0.0124745 1.56436 2.9513e-21)
(-0.00165094 1.89506 2.43968e-20)
(-0.01426 1.94928 -9.49193e-21)
(0.493602 1.36061 -2.56988e-19)
(0.496126 1.35558 2.8111e-19)
(0.449433 1.30949 -8.15927e-21)
(0.428183 1.29138 7.4157e-21)
(0.629007 1.31128 0)
(0.555909 1.40497 1.19185e-19)
(0.557001 1.40817 -1.16064e-19)
(0.485083 1.29712 7.87137e-21)
(0.526244 1.25048 0)
(0.590735 1.21636 0)
(0.664961 2.41529 5.53933e-19)
(0.660578 2.44543 1.26999e-18)
(0.71591 2.46058 -8.73567e-19)
(0.614726 2.43226 -1.9955e-19)
(0.555918 2.52587 2.73386e-19)
(0.496128 2.49157 -7.06495e-19)
(0.993071 2.38857 -5.66758e-19)
(1.02512 2.40616 0)
(0.952016 2.19425 -6.19913e-19)
(1.05596 2.68148 0)
(1.05489 2.66265 0)
(0.60102 2.28831 8.32144e-21)
(1.11868 3.0686 7.72399e-20)
(0.996151 2.96571 -1.25255e-19)
(0.32071 0.792913 0)
(0.318884 0.671803 -3.02274e-19)
(0.525862 0.607639 -3.05641e-19)
(0.363422 2.13031 0)
(0.403002 2.74402 -8.45549e-20)
(0.412465 2.47836 0)
(0.729485 0.683348 -7.88755e-19)
(0.796736 0.692203 1.09808e-18)
(0.801006 0.658725 -1.04653e-18)
(0.702586 0.640655 -9.99779e-20)
(0.761003 0.599432 -4.12448e-19)
(0.970387 2.75194 -5.84996e-20)
(1.01385 2.75873 -2.06865e-19)
(0.55149 2.20463 4.35712e-19)
(0.604047 1.73351 -3.45389e-19)
(0.703173 1.85216 -4.91282e-19)
(0.977007 2.39238 -1.373e-19)
(0.977128 2.34538 3.61658e-19)
(0.645854 1.76177 3.31673e-20)
(0.452265 1.29545 1.73109e-19)
)
;

boundaryField
{
    wall-4
    {
        type            noSlip;
    }
    velocity-inlet-5
    {
        type            fixedValue;
        value           uniform (1 0 0);
    }
    velocity-inlet-6
    {
        type            fixedValue;
        value           uniform (0 3 0);
    }
    pressure-outlet-7
    {
        type            zeroGradient;
    }
    wall-8
    {
        type            noSlip;
    }
    frontAndBackPlanes
    {
        type            empty;
    }
}


// ************************************************************************* //
