/*--------------------------------*- C++ -*----------------------------------*\
  =========                 |
  \\      /  F ield         | OpenFOAM: The Open Source CFD Toolbox
   \\    /   O peration     | Website:  https://openfoam.org
    \\  /    A nd           | Version:  6
     \\/     M anipulation  |
\*---------------------------------------------------------------------------*/
FoamFile
{
    version     2.0;
    format      ascii;
    class       volScalarField;
    location    "87";
    object      p;
}
// * * * * * * * * * * * * * * * * * * * * * * * * * * * * * * * * * * * * * //

dimensions      [0 2 -2 0 0 0 0];

internalField   nonuniform List<scalar> 
918
(
0.535212
1.2237
0.00688173
0.535119
-0.0116617
1.19053
-0.504918
0.630296
0.516364
-0.123047
-0.0869012
0.518254
1.04838
0.815566
-1.16732
-0.0255176
0.631018
-0.419316
0.514426
-0.0897777
0.64444
0.523038
0.525503
0.516288
0.577895
0.768101
0.925907
-0.00301666
0.0114008
0.00627143
-0.0130589
-0.0336308
-0.0309514
1.07365
1.12554
1.14891
0.482861
0.316928
-0.399949
-0.455107
-0.432019
-0.521456
0.630916
0.631932
-0.22959
0.629673
0.628706
0.502044
0.515758
0.516594
0.517717
0.516627
0.517905
0.404667
-0.130399
-0.157717
-0.107989
-0.107025
0.0204914
-0.0886828
-0.0893974
-0.0851355
-0.0870256
0.431903
0.513185
0.50978
0.522439
0.531601
1.16387
1.13778
1.16402
1.07346
1.09133
1.02542
0.998426
0.836833
0.860269
0.798864
0.78523
-1.61967
-2.56033
-0.593633
-0.320195
-0.0107956
-0.0271673
-0.0260134
0.626886
0.629661
0.629071
0.632028
1.04326
-0.391077
-0.463535
0.514967
0.513493
0.522557
0.523461
0.518427
0.518425
-0.0875243
-0.0876399
-0.0724686
-0.0868886
-0.0843031
0.623922
0.625889
0.515723
0.513165
0.539403
0.561494
0.550212
0.248835
0.589822
0.605881
0.63266
0.778541
0.7651
0.77768
0.901319
0.869506
0.957795
0.979837
0.014106
-0.00172263
-0.0268283
-0.0239436
-0.0248549
0.478601
0.472165
0.500398
0.486482
0.489526
0.222891
0.0737175
0.398605
0.421886
-0.324139
-0.374915
-0.459859
-0.457542
-0.565523
0.604582
0.633168
0.63235
-0.240864
-0.168241
-0.296513
-0.110279
-0.168037
0.492986
0.499243
0.495315
0.510714
0.504876
0.507303
0.519825
0.51701
0.518603
0.453049
0.581961
0.329643
0.285967
-0.278931
-0.175604
-0.259629
-0.0993588
-0.0981905
0.0304536
0.0630117
0.00900462
-0.00254641
-0.0931193
-0.0904072
-0.0924994
-0.0864892
-0.0861935
0.423348
0.410282
0.443157
0.450685
0.499657
0.501047
0.505684
0.50368
0.950138
0.973287
0.978574
0.954539
-3.53108
-6.14993
0.0203147
0.177693
-0.0100598
-0.0116312
-0.000453325
-0.0103713
-0.00127913
-0.00297895
-0.0369967
-0.0366706
-0.0294426
-0.0309886
0.625248
0.625601
1.0123
1.03842
0.984022
0.956917
0.504326
0.506199
0.510822
0.507704
-0.0865994
-0.086875
-0.0874357
0.627575
0.62613
0.626745
0.207312
0.118098
0.300758
0.332066
0.620163
0.610088
0.619297
0.692583
0.731823
0.996869
1.0198
1.00457
1.01638
1.0668
1.08969
1.05502
0.457171
0.468097
0.462364
0.503202
0.501043
0.501976
0.498634
0.499543
0.498217
-0.0370316
-0.406509
0.470953
0.471942
0.464405
0.466976
0.691867
0.775913
0.630347
0.631338
0.632587
-0.0583544
-0.105523
0.2331
0.196106
0.362289
0.397005
0.378755
0.92502
0.884902
0.932951
0.908234
0.872948
0.897135
-0.342063
-2.09769
-1.09627
0.574349
0.378974
0.46995
-0.0196745
-0.036649
-0.0329658
1.02678
1.06564
0.648066
0.83956
0.791505
0.754389
0.780794
0.844052
0.77656
0.811256
0.841726
0.817367
0.553357
0.481711
0.50052
0.851203
0.906886
0.0801336
0.000414889
-0.0224967
0.0901519
0.157307
0.13015
1.04197
0.959713
1.02213
0.513406
0.514359
-0.0204047
-0.0458274
0.518475
0.518186
-0.0236323
-0.0147707
0.485253
-0.933443
0.0811264
0.508023
0.497619
0.514476
-0.102652
0.308243
-0.0897552
-0.000717699
-0.0303008
0.508821
0.444268
0.401919
-0.0100989
-0.0352678
-0.0833284
-0.21531
0.511145
0.509502
0.513866
0.514683
0.515463
-0.0306886
-0.0303237
-0.0208441
-0.0740688
-0.0666511
-0.0793857
0.47773
0.497846
-0.195694
0.51416
0.516266
0.515959
0.510193
0.515116
0.513759
-0.0268262
-0.0296105
-0.03182
0.186902
0.329077
0.667737
0.741935
0.617086
0.45133
0.16188
0.605268
0.656797
0.582392
0.712776
0.6311
0.627625
0.148082
0.00395956
0.152248
0.085205
0.504837
0.504295
0.495136
0.49201
0.509317
0.506994
0.51219
0.509444
0.512615
0.513754
-0.057421
-0.088074
-0.105328
-0.149042
0.271274
0.537369
0.216176
0.280975
0.140644
-0.0831492
-0.0822538
-0.0844276
-0.0887551
-0.0498675
-0.0493599
-0.00534173
0.00525937
-0.0112977
-0.037099
-0.0577705
-0.0497357
-0.058631
0.502035
0.502336
0.507246
0.515921
0.453912
0.45761
0.423986
0.442668
0.428854
0.368939
0.398573
0.375739
-0.020873
-0.0119028
-0.0126066
-0.0365786
-0.0358504
-0.057144
-0.0494635
-0.0484357
-0.0450681
-0.049595
-0.0765728
-0.0832749
-0.179155
-0.298994
0.957345
0.900531
0.135473
0.50103
0.506707
0.50387
0.508625
0.511818
0.512443
0.510007
0.506495
0.497972
0.499583
0.49604
0.497088
-0.132985
-0.243469
-0.0749034
-0.151849
0.14567
0.611689
0.336273
0.280811
0.266011
0.494367
0.685065
0.591579
0.644807
0.615346
-0.396244
2.85885e-05
-0.331645
0.213126
0.209854
0.694898
0.736495
0.753943
0.710913
0.667383
-0.0234214
0.543264
-0.0794999
-0.0273922
0.16533
0.0459003
0.599958
0.616761
0.623318
0.61953
0.624931
0.624821
0.613848
0.601842
0.624647
0.628315
0.487071
0.21515
0.171633
0.125715
0.616426
0.509415
0.559782
0.478026
0.500502
0.502909
0.501883
0.482529
0.489889
0.48555
0.492752
0.49642
0.503795
0.503973
0.499765
0.501724
-0.0804808
-0.08859
-0.0740718
-0.129632
-0.134084
-0.177196
-0.0937659
0.0864414
0.0359932
0.223815
0.344826
0.0643845
-0.058872
-0.0430552
0.0105234
0.175042
0.170633
0.0425214
0.145123
0.115585
0.0984138
0.216196
0.215971
-0.0575748
-0.0646358
-0.0629628
-0.0692685
-0.0242782
0.0988008
0.0715598
-0.0374708
-0.0433635
-0.0806137
-0.0839063
-0.00263496
-0.0455504
-0.0381229
-0.00779938
-0.0645007
-0.0391415
-0.0301875
-0.0393491
-0.0391514
-0.0384551
0.49691
0.498849
0.498917
0.508511
0.520135
0.535131
0.501526
0.475124
0.466152
0.469247
0.44233
0.451526
0.446828
0.462654
0.484183
0.492515
0.49072
0.493406
0.475488
0.477116
0.462555
0.467215
0.436435
0.41762
0.407424
-0.0604947
-0.0277096
-0.0414753
-0.0531801
-0.0277447
-0.0369719
-0.0385875
-0.0195328
-0.0392366
-0.0338331
-0.0437199
-0.0493653
-0.049888
-0.0817278
-0.000106149
-0.182223
-0.231171
-0.284407
0.879208
1.0178
0.808997
0.57051
0.583674
0.828498
0.938225
0.526947
0.755341
0.756894
0.571172
0.862751
0.504993
0.50457
0.502423
0.501586
0.502598
-0.0202171
0.0837002
0.0935371
0.154136
0.269905
0.374831
0.309956
0.196123
0.328659
0.353357
0.608658
0.615225
0.574032
0.596181
0.597594
0.403776
0.484371
0.522176
0.47945
0.555558
0.587643
0.532276
0.57606
0.497338
0.446552
0.437969
0.392877
0.42754
0.408585
0.382869
0.496632
0.473581
0.484345
0.474648
0.496578
0.521705
0.522273
0.543335
0.559834
0.475304
0.421251
0.438399
0.467332
0.422935
0.440528
0.46256
0.18441
0.0863793
0.249146
-0.0783602
0.00545848
0.0466217
0.00294642
-0.0380353
0.26862
-0.367228
-0.313733
-0.987843
0.492455
0.823021
0.543873
0.555816
0.623337
0.611996
0.620561
0.619899
0.62504
0.605011
0.613719
0.619234
0.58567
0.607132
0.595748
0.604914
0.491009
0.391401
0.394741
0.325854
0.186477
0.228616
0.420348
0.351429
0.276208
0.268261
0.445014
0.310056
0.389902
0.439028
0.362588
0.298508
0.525232
0.573649
0.565683
0.538126
0.41593
0.449304
0.449653
0.499448
0.543371
0.567327
0.491329
0.497627
0.498537
0.495808
0.494174
0.497297
0.497576
0.499892
0.50003
0.502632
0.502129
-0.07993
-0.0654078
-0.07771
-0.0867827
-0.0207562
-0.0325512
-0.00845812
-0.0375552
-0.0366466
-0.0334375
-0.0495334
-0.0646254
-0.0625212
-0.0524508
0.0624897
0.0752133
0.0877487
0.0410643
0.256331
0.387131
0.482261
0.34544
0.194727
0.213262
0.274628
0.0210889
0.0041665
-0.00990146
0.0629993
0.0535173
-0.0700809
-0.0744677
-0.0699238
-0.0570526
-0.0507434
-0.073167
-0.078921
-0.0689384
-0.0750727
-0.0811928
-0.0841096
0.476789
0.469717
0.473254
0.465718
0.463903
0.480767
0.485425
0.486406
0.492014
0.4946
0.484077
0.489897
0.494109
-0.0405412
-0.0573964
-0.0569289
-0.0618944
-0.0574614
-0.0551687
-0.0590419
0.122255
0.0275351
0.0640353
-0.00708011
-0.134058
-0.0749968
0.49749
0.490359
0.477366
0.717086
0.552411
0.471404
0.570629
0.691902
0.270706
0.47022
0.305414
0.883727
0.790574
0.936221
0.550006
0.250564
0.423038
0.430307
0.271364
0.396505
0.334258
0.210469
0.245816
0.281601
0.365429
0.250418
0.229831
-0.0132809
0.169179
0.278041
0.260091
0.38611
0.442263
0.261698
0.176895
0.122625
0.590278
0.606705
0.614585
0.586118
0.60645
0.565993
0.557885
0.573722
0.583245
0.578024
-0.622175
-0.210859
-1.41026
-0.828143
-0.376299
0.520362
0.525028
0.742561
0.642622
0.647532
0.629837
0.579778
0.55722
0.595153
0.605511
0.315402
0.399951
0.388004
0.362848
0.309247
0.251557
0.521874
0.533435
0.552957
0.581943
0.560057
0.587707
0.490098
0.489941
0.488607
0.484863
0.483353
0.486644
0.0131222
-0.010153
0.0224142
0.00885768
-0.00941399
-0.0112861
-0.0484952
-0.0598325
-0.0614064
-0.0573315
-0.0462158
-0.0444224
0.169697
0.107019
0.0174815
0.059393
-0.00766728
-0.0903727
-0.0928176
-0.00115215
0.0997481
0.0810509
0.385529
0.654222
0.479181
0.645442
0.44357
0.542141
0.459681
0.432899
0.460028
0.366379
0.457337
0.0573583
-0.145426
-0.200154
0.814266
0.777672
0.555791
0.31581
0.19434
0.482732
0.505341
0.466268
0.492754
0.541382
0.526108
0.0258186
0.110112
0.202351
0.506395
0.278236
0.297676
0.287343
0.455221
0.422945
)
;

boundaryField
{
    wall-4
    {
        type            zeroGradient;
    }
    velocity-inlet-5
    {
        type            zeroGradient;
    }
    velocity-inlet-6
    {
        type            zeroGradient;
    }
    pressure-outlet-7
    {
        type            fixedValue;
        value           uniform 0;
    }
    wall-8
    {
        type            zeroGradient;
    }
    frontAndBackPlanes
    {
        type            empty;
    }
}


// ************************************************************************* //
