/*--------------------------------*- C++ -*----------------------------------*\
  =========                 |
  \\      /  F ield         | OpenFOAM: The Open Source CFD Toolbox
   \\    /   O peration     | Website:  https://openfoam.org
    \\  /    A nd           | Version:  6
     \\/     M anipulation  |
\*---------------------------------------------------------------------------*/
FoamFile
{
    version     2.0;
    format      ascii;
    class       surfaceScalarField;
    location    "87";
    object      phi;
}
// * * * * * * * * * * * * * * * * * * * * * * * * * * * * * * * * * * * * * //

dimensions      [0 3 -1 0 0 0 0];

internalField   nonuniform List<scalar> 
1300
(
3.75095
5.62643
-3.32231
3.75095
-7.75296
5.62643
-4.28703
4.28703
-0.38283
0.38283
1.8765
1.87445
-2.42911
2.42911
-1.69611
1.69611
-2.52368
2.52368
-5.24818
5.24818
-5.06866
5.06866
4.6945
-4.6945
-6.34093
6.34093
-0.96064
0.96064
-3.58085
3.58085
3.17238
-3.17238
-1.78481
1.78481
0.115927
-0.115927
-0.554081
4.30503
3.19687
3.19687
-1.98869
1.98869
-4.8752
4.8752
6.22215
-6.22215
5.22195
-5.22195
-1.89964
-2.52326
1.79101
-11.4562
-5.96195
-5.96195
-8.44088
8.44088
-2.81445
2.81198
2.94735
-2.94735
-1.71768
1.71768
-4.30599
0.018961
-4.30599
4.25602
0.0310103
4.25602
-0.497387
0.114558
-0.497387
3.96324
-3.96324
0.279535
0.103295
0.279535
3.06734
-3.06734
-1.87685
3.75335
1.8741
-1.8721
6.17713
-1.87886
3.75331
-6.04617
6.04617
-2.6775
0.248387
-2.6775
2.19507
0.234039
2.19507
-6.90102
6.90102
-1.76942
0.0733123
-1.76942
1.69163
0.00448065
1.69163
2.88871
-2.88871
-2.62503
0.101352
-2.62503
2.38992
0.133762
2.38992
0.35308
5.27335
-5.97951
8.79149
-5.27335
0.0251658
5.21041
0.0377708
5.21041
-5.10521
0.0365477
-5.10521
5.01362
0.0550385
5.01362
4.78171
-0.0872069
4.78171
-4.81566
0.121161
-4.81566
-3.35699
-4.08361
-6.50261
0.161688
-6.50261
-1.03468
0.0740366
-1.03468
0.861079
0.0995616
0.861079
-3.72576
3.72576
-3.9402
0.359352
-3.9402
3.12732
0.0450524
3.12732
1.86812
1.88283
5.61907
-5.61907
2.4467
-1.70041
-0.0844002
-1.70041
-1.88284
-3.33912
1.88284
-0.0980272
-0.109766
0.225693
-0.109766
3.15713
0.0397412
3.15713
2.23301
0.156903
-2.23301
0.244322
3.30359
-3.30359
1.33232
0.656372
1.33232
-5.55859
5.55859
4.96217
0.0514493
-4.96217
0.0869728
6.15691
0.0652424
6.15691
-6.20729
-0.014857
-6.20729
2.48062
-5.00387
-2.68231
6.1518
0.189122
-6.1518
0.189854
2.91895
0.0284008
2.91895
-2.91805
2.91805
-2.98431
0.0369592
-2.98431
-2.13999
0.42231
-2.13999
1.40399
0.313687
1.40399
-4.22258
-0.0834094
-4.22258
-4.09977
0.159571
4.09977
0.156249
1.11928
-1.11928
-0.605206
0.107819
-0.605206
-4.07005
-0.152537
4.07005
-0.106804
-3.90092
-0.0623218
-3.90092
-3.02197
0.0376601
3.02197
0.0453659
3.11213
0.044998
-3.11213
0.0447947
-1.87099
3.75383
-1.87996
3.75406
-5.67997
-0.366202
-5.67997
6.36911
-0.322935
6.36911
3.10249
0.478361
-3.10249
0.424992
2.01121
0.183856
2.01121
-6.87526
-0.0257603
-6.87526
6.90668
-0.00565463
6.90668
1.8705
0.140715
-1.8705
0.101081
1.68622
0.00540156
1.68622
2.9165
-0.0277896
2.9165
-2.88223
-0.00647526
-2.88223
2.78871
-2.78871
2.71391
0.0747955
-2.71391
0.0888797
-11.1242
11.1093
-0.036166
-11.088
5.17425
5.17425
4.23427
0.547433
4.23427
-5.01341
0.197752
-5.01341
2.66748
-5.3498
3.12464
-6.48163
4.67333
-16.1295
4.28103
-8.36464
6.75445
-6.75445
6.63567
0.118783
-6.63567
0.133055
-1.14096
0.106283
-1.14096
-3.131
-0.594753
-3.131
4.36866
-0.642903
4.36866
-3.02741
3.02741
-3.07623
0.0488202
3.07623
0.0510976
1.67448
0.0117444
-1.67448
-0.0259277
0.180974
0.0985601
-0.180974
0.0712088
3.52752
-0.223923
3.52752
-3.09816
-0.205429
-3.09816
-1.23359
0.0926257
1.23359
0.0987345
-5.80749
0.248901
-5.80749
-11.182
0.0939801
-11.1442
-6.11331
-6.11331
2.32757
11.1191
-2.89739
0.0151614
2.89739
0.0215588
2.97463
0.0527723
-2.97463
0.0565857
-2.85609
0.0673837
2.85609
0.0619576
-2.50764
0.36765
-2.50764
-1.02122
1.02122
-1.16741
0.146187
1.16741
0.236584
1.42196
-0.302676
1.42196
0.742587
0.118492
-0.742587
0.137381
-3.84438
-0.0565415
-3.84438
6.60358
-0.234471
6.60358
-2.96863
-0.129533
2.96863
-0.052134
-0.0349695
11.1443
-5.13928
0.0340708
5.13928
-11.2095
11.2436
-3.21242
0.704785
3.21242
1.02185
5.28368
0.274913
-5.28368
0.270265
6.84604
0.060636
-6.84604
0.0915894
-2.63968
-0.491327
-2.63968
-5.09542
-0.58455
5.09542
-0.726763
-11.4823
-0.20231
11.6846
-11.4273
6.0098
0.147108
-6.0098
11.3907
-0.993663
-0.125618
0.993663
0.0275549
1.76211
-0.340158
1.76211
3.74698
-0.219466
-3.74698
-0.0973972
-6.76741
-0.107856
6.76741
-0.163828
-2.19077
-0.448903
2.19077
-0.428658
-4.26739
4.30713
1.90974
-2.31641
-2.68747
-5.65552
1.85529
1.89854
4.30199
-10.1409
-5.98864
-9.95101
7.21474
-6.94448
-9.31674
9.22954
7.94729
-8.00961
-5.77728
5.82838
6.4848
-6.43944
1.87948
1.87387
8.07062
-7.82224
-15.6942
15.328
7.64038
-7.56707
15.8185
-15.8443
-17.8542
17.9148
-5.70582
5.80717
-6.74306
6.73658
-6.98009
6.92795
-2.79405
-3.68758
13.111
-12.9493
8.63725
-8.72165
-8.68718
9.04653
3.38462
0.922513
3.42962
-1.88178
3.76126
-1.87153
3.78127
2.78143
-5.57547
2.56837
-5.25584
4.4074
4.22985
-4.30937
-1.34615
-5.92887
5.95727
-5.80919
5.87115
9.19612
-9.17716
-1.88498
3.75885
-1.86908
3.76762
-3.42286
-2.35442
3.37781
0.924178
8.05875
5.05227
-8.24787
-1.70314
-8.03382
7.81435
-8.21773
8.0123
-0.436109
5.83848
-5.40237
4.43909
-1.65355
7.49202
5.5612
5.75895
5.86069
-5.58578
1.08379
-6.48615
-6.39918
-2.21793
2.32575
2.08443
-1.98114
6.15902
1.78827
6.05222
-5.81461
-2.195
-5.87115
3.81969
2.00869
3.86851
4.08225
2.40255
4.11991
3.02946
-3.03684
0.00738108
-3.05939
6.08884
0.722014
-5.41381
-4.48963
4.99218
3.07844
5.22622
-5.60184
-2.2204
-5.17685
-9.58297
-6.11127
-10.1675
10.167
5.16101
9.8441
-11.9525
11.7886
4.88376
2.75662
4.88825
-4.97994
-2.58713
-4.87886
11.6744
-2.65432
-9.02006
-10.3251
-7.52913
10.3307
5.48781
10.9662
6.94869
11.0577
4.42087
7.2535
-9.90868
2.37955
-3.86619
-1.83963
-3.77731
3.66486
2.1423
3.79863
-4.21894
-2.52412
-4.20378
-4.29531
-2.68478
4.3231
2.41349
-4.41758
-3.80015
4.54712
2.38083
4.06043
-10.0491
4.3042
-7.99179
-9.19687
-3.75246
-9.06382
3.58385
2.59593
-6.17978
-1.99162
8.59361
-4.36376
7.24746
-5.21787
-3.50378
-5.2438
-6.97777
-1.70941
-6.8182
-8.9134
8.42207
-9.18845
8.54555
12.4944
-5.63125
-6.86318
-3.96704
-2.4724
3.92225
-0.492627
-3.71004
3.71742
0.0512172
3.83249
4.755
4.26237
-3.88246
-1.92673
-3.82587
3.8217
2.04945
3.88908
6.86257
2.33355
6.89358
-6.62839
-2.54877
-6.7118
9.08671
-8.6644
2.7844
-2.69178
5.38042
2.63188
-5.1565
-2.87732
6.23193
-3.20744
-3.02449
-12.3501
10.7845
1.56558
-4.85805
-0.418959
-0.534887
-5.56502
-3.75172
5.44386
0.315084
11.0996
7.34786
-5.51466
5.76356
6.16995
6.2214
-0.177781
5.87962
-5.17483
5.27378
-2.73616
-2.53762
5.48782
-5.64036
-1.22398
-5.56568
4.3417
0.411859
1.45392
-1.22823
-1.74458
-0.473354
-1.6072
1.11959
0.964839
1.21815
0.959376
1.36638
-2.93932
0.500204
2.43912
-1.97995
-1.48093
-3.82299
-1.14433
4.96732
5.739
2.07535
-5.6416
-0.229551
2.54819
-2.44863
-0.841065
-2.98193
2.22173
-3.0628
-3.46307
-1.95216
5.41523
-3.36868
-0.457196
3.3159
0.552608
-3.82825
-2.10062
3.79129
0.328622
-3.12915
6.19045
-3.0613
-5.05588
2.52899
3.55986
4.53768
-4.78991
2.44929
2.34061
-1.23005
4.25791
0.968317
4.44176
-7.08526
4.86486
5.74224
3.30429
-6.2206
1.04375
-6.04151
8.53863
-7.39755
-1.14108
4.06712
4.47151
7.01197
5.48246
-5.70417
12.7161
-1.16209
-6.23546
7.2036
-3.89931
4.87385
-8.77316
-10.3563
4.12085
-9.19748
11.0756
-1.87808
-3.59111
-8.36136
12.7886
-1.24826
-11.5403
8.59584
-4.35548
-4.42745
8.78292
-7.00979
7.01458
-1.98607
-5.0285
-10.1524
-5.69192
10.2602
1.52841
-9.97305
12.3526
-2.71955
4.16711
0.721134
4.17251
3.36739
-5.47539
2.108
3.6424
-5.62848
2.04668
-7.52208
-6.75491
12.0958
-5.34089
-10.5074
-9.54248
-0.964895
2.5498
9.8028
-9.49849
7.42977
2.06871
3.29822
0.590863
-3.37301
-0.4043
0.23404
4.50768
-4.74172
4.03267
4.18957
3.21548
1.29219
3.84955
2.10772
-3.87111
-0.332667
-4.16873
1.48395
-1.75525
-3.69377
5.17772
-4.06183
0.368066
-2.74193
-3.49248
6.23441
-4.58156
3.0359
3.15455
5.08535
-4.91437
1.42189
-2.39078
-2.52359
2.63994
-4.39519
2.00146
3.17626
4.38229
0.582145
5.91574
6.18006
-8.51167
0.519884
11.2323
-9.52919
2.4788
8.57894
-9.90858
0.366098
-8.69772
0.977408
-5.34117
-5.20237
5.23317
-6.94258
-3.53998
6.25938
0.634199
-6.41563
-0.402568
-6.05779
-2.85561
-6.50669
-3.03417
-6.15428
-8.73834
-1.67304
-7.0653
6.74903
-6.70877
-3.45875
7.43553
1.11001
-7.46984
7.34422
-7.52703
7.18687
0.0950936
3.62233
4.35747
1.88507
-2.39228
4.27735
-5.08267
7.41622
-8.76712
3.68445
4.25389
-6.80267
-4.51323
5.04945
4.03727
5.36314
8.90792
-10.3556
1.44769
-10.626
11.9673
-1.34135
-16.3979
5.7719
-7.48996
2.41288
0.371525
2.51916
0.54279
2.50526
-3.04805
-2.14899
-2.05025
-2.4481
-3.49217
5.94027
1.05897
-3.47688
2.41791
-3.5633
4.62228
-0.0825239
-3.39436
5.1863
-2.68104
5.55782
-3.64583
1.912
3.55089
5.84246
-2.29157
4.41951
-1.78762
1.94998
-4.24155
-1.54218
-2.95381
5.09612
-3.2806
3.64867
-0.354399
4.00307
-4.03638
0.828939
-0.820898
3.36867
3.61299
4.33259
-3.0404
2.93345
-4.72108
-1.3081
-4.13893
-0.962671
-0.180591
-3.7734
3.95399
5.99154
-6.17213
-5.27561
9.51315
-4.23754
7.69275
-5.43298
-2.25976
-4.28277
-4.38163
3.91512
1.9645
9.65724
0.178147
-5.61113
-4.99668
-3.97483
3.0849
2.18887
-1.7083
3.27388
2.24319
-0.789264
0.400532
0.817621
1.75855
-1.35802
0.3394
1.41915
-0.88883
1.67855
0.869638
-1.79704
0.189843
-1.35602
3.57775
1.0831
-2.04794
0.68992
0.890716
-3.62687
5.109
-2.7394
-2.3696
5.99972
1.14835
-3.88775
4.41733
-4.00547
2.45742
-3.60175
-1.43033
-5.4358
-3.64753
-2.48114
4.89905
-3.45914
5.53448
1.43598
-5.30493
6.74091
-3.6283
1.67614
-3.05054
3.92018
-0.993972
-2.05657
2.87315
2.54208
-3.14322
0.161293
-0.270069
2.41742
-2.68749
-0.645376
-2.62532
-4.5762
4.90482
-2.1037
4.55299
2.17365
-1.91782
6.47082
1.80753
-3.72535
-3.24835
-3.70555
-1.38474
3.15294
-0.569374
-4.30949
-5.59788
4.16877
0.272991
-7.06639
7.93836
-0.871977
-3.98795
-0.876916
4.94403
-6.09449
0.466013
-4.04781
3.89056
4.85887
5.13186
-11.3045
-0.235826
-6.14349
1.09241
-7.23591
5.56393
-3.50847
7.62932
-10.3177
6.85893
-9.20767
6.48825
-0.747662
6.24119
-4.13319
2.77887
-8.47079
-6.94238
5.59604
-2.83942
6.31717
-3.22395
9.54113
-5.9435
5.37928
4.16184
-1.05625
-4.18754
-5.376
4.31974
0.00328573
4.1758
4.98721
-2.87949
4.65455
2.26476
-4.65554
-2.13043
-6.48877
1.83323
-3.33422
-1.92263
3.75586
3.16272
3.75359
1.23227
-3.34929
7.25781
-8.2227
-1.91692
-3.28545
5.3671
-1.04735
3.47785
-6.7633
-1.86332
4.73544
-0.721187
-4.01426
0.895813
-4.4358
1.67392
-6.10972
5.26866
-5.67122
2.25452
-9.74448
-5.21532
-5.18776
-2.27758
-5.24944
-7.564
5.28642
-1.79211
5.55212
-8.49836
7.77717
-3.46898
8.7554
-5.45348
-1.05321
5.88214
1.30473
10.0601
0.167944
-4.68117
-1.94249
3.71773
-1.77524
1.14242
-3.60546
0.112267
2.49774
3.50198
-6.83944
0.0367752
-4.64439
-3.9056
7.94287
5.60754
11.5991
1.24347
9.12698
-1.18411
10.3704
4.17902
4.41561
-2.99902
4.44671
0.954976
4.63943
-0.896961
2.80896
1.6222
1.69624
0.752388
2.30028
1.31271
3.12922
0.081174
-1.96908
4.62914
-8.60397
-0.981994
-8.05654
1.173
5.43261
-4.25961
2.85005
-0.661175
1.07481
-0.202498
-1.12829
1.33079
-2.74012
-1.91756
-0.498407
-1.67326
2.36318
1.90449
-1.86477
-0.875345
0.32562
-3.97315
3.27613
-3.11484
-0.572762
6.16815
-2.88849
0.201
-1.21234
-2.42433
-2.89768
2.70784
6.17441
0.296406
3.11311
5.20123
3.1006
0.221115
3.80897
-5.68705
-3.71311
-5.92287
-0.358945
4.58509
1.76909
8.03371
5.93093
4.88358
-1.87972
-10.1024
6.49954
-2.05283
5.15819
-1.14393
-4.96579
5.08072
2.33549
-5.71492
0.0436988
-4.92209
-6.97492
-0.477489
8.25466
-9.58264
8.52943
5.67382
1.39148
-4.42906
-0.758697
4.28288
0.132732
10.5032
-0.916483
-7.03174
7.94822
-4.51613
3.53413
0.673542
2.60034
2.00433
1.34316
-5.68859
-9.9482
-2.07209
-1.55479
-4.44169
0.525637
-2.43013
6.06366
-2.52953
3.8039
5.41869
6.4935
-2.04811
-4.12402
6.28565
-2.48175
4.01175
)
;

boundaryField
{
    wall-4
    {
        type            calculated;
        value           uniform 0;
    }
    velocity-inlet-5
    {
        type            calculated;
        value           uniform -3.75095;
    }
    velocity-inlet-6
    {
        type            calculated;
        value           uniform -5.62643;
    }
    pressure-outlet-7
    {
        type            calculated;
        value           nonuniform List<scalar> 8(3.32231 7.75296 4.4229 9.66516 7.44061 5.16293 5.79212 8.95436);
    }
    wall-8
    {
        type            calculated;
        value           uniform 0;
    }
    frontAndBackPlanes
    {
        type            empty;
        value           nonuniform 0();
    }
}


// ************************************************************************* //
