/*--------------------------------*- C++ -*----------------------------------*\
  =========                 |
  \\      /  F ield         | OpenFOAM: The Open Source CFD Toolbox
   \\    /   O peration     | Website:  https://openfoam.org
    \\  /    A nd           | Version:  6
     \\/     M anipulation  |
\*---------------------------------------------------------------------------*/
FoamFile
{
    version     2.0;
    format      ascii;
    class       volVectorField;
    location    "87";
    object      U;
}
// * * * * * * * * * * * * * * * * * * * * * * * * * * * * * * * * * * * * * //

dimensions      [0 1 -1 0 0 0 0];

internalField   nonuniform List<vector> 
918
(
(0.985049 -0.000715821 0)
(0.00543468 2.96618 0)
(-0.00476753 0.876915 0)
(0.979575 0.00196171 0)
(-0.0143092 2.06296 3.32549e-20)
(-0.00718727 2.9486 -2.55083e-18)
(0.822004 1.12357 4.46301e-19)
(0.1134 0.0831751 -1.40684e-20)
(0.999922 -0.00024568 0)
(0.0922379 0.668179 0)
(0.0158977 0.356806 0)
(0.732654 0.00795879 0)
(0.010213 2.9318 0)
(0.00330979 2.79422 0)
(-0.00272833 3.17647 8.26536e-19)
(-0.013612 1.92962 2.47496e-20)
(0.294402 0.0465044 9.84687e-19)
(0.234362 1.11012 3.53346e-19)
(0.964319 0.00674156 0)
(-0.00553698 0.350113 0)
(0.0574251 -0.0717248 -6.40312e-19)
(1.00183 -0.00455944 0)
(0.99985 -0.00892592 0)
(0.975169 -0.0060517 0)
(0.592266 0.0271854 0)
(0.0208281 2.64492 0)
(-0.0120516 2.91172 9.33013e-19)
(-0.00823188 0.927417 0)
(-0.03596 1.17135 0)
(-0.00614854 0.896329 0)
(-0.0242833 2.58494 0)
(-0.00511334 2.11382 -2.65615e-20)
(-0.0101863 1.90098 0)
(-0.021957 2.98768 -9.18786e-23)
(-0.0163847 3.00546 1.97973e-18)
(0.0023143 3.00044 0)
(0.871991 -0.00976424 0)
(0.373192 0.910831 1.65903e-19)
(0.820727 1.14262 -5.57725e-19)
(0.952819 1.0096 5.69369e-19)
(0.683097 1.22548 -1.02098e-19)
(0.69662 1.18504 5.82257e-19)
(0.141325 0.128147 1.37226e-20)
(0.149083 0.0886438 0)
(1.16956 0.533205 0)
(0.107419 0.108329 6.1759e-20)
(0.0866508 0.0659848 -6.40969e-20)
(0.920572 -0.007046 0)
(1.00027 5.2721e-05 0)
(0.999907 0.000320761 0)
(1.0037 -0.00727982 0)
(1.00088 -0.000949396 0)
(1.00011 -5.40309e-06 0)
(0.0775703 1.83504 -7.66566e-19)
(0.0331663 0.849801 0)
(0.127904 0.759362 0)
(0.0183247 0.790952 0)
(0.0542468 0.584428 0)
(0.00490486 2.03657 0)
(-0.00865297 0.68959 0)
(0.0130973 0.397134 0)
(-0.0120202 0.683723 0)
(0.00866664 0.354275 0)
(0.843814 -0.0156133 0)
(0.841725 0.026884 0)
(0.757526 0.00320796 0)
(0.800031 0.0263002 0)
(0.701006 0.0206414 0)
(0.0138082 3.0003 9.46896e-19)
(0.0109541 3.00666 0)
(0.00587665 3.00354 0)
(0.0118276 2.99746 1.07495e-23)
(0.00804879 2.95883 -1.40732e-18)
(0.0121661 2.9828 0)
(0.00911803 2.90506 0)
(0.0210833 2.93133 2.17612e-24)
(0.00392424 2.82417 0)
(0.0260344 2.91869 0)
(-0.000651129 2.74498 0)
(0.304361 3.5698 0)
(-0.122137 3.6524 0)
(0.14825 3.26703 -7.69231e-19)
(0.00258233 3.00573 0)
(-0.0331531 1.99108 0)
(-0.0075339 2.17927 -2.44099e-20)
(-0.00938579 1.94212 2.53199e-20)
(0.346149 0.140077 -3.41979e-19)
(0.323157 0.0154293 -3.32834e-19)
(0.301567 0.153811 -1.02202e-18)
(0.263289 0.0663134 -6.64751e-19)
(0.265354 1.02597 0)
(0.333976 1.24158 -3.65888e-19)
(0.416 1.15265 6.03916e-19)
(0.987695 0.00817227 0)
(0.943204 0.00577265 0)
(1.00028 0.000671926 0)
(1.00254 0.00906618 0)
(1.0031 0.00899834 -2.63372e-18)
(0.992135 0.009412 1.99015e-18)
(-0.0281983 0.708033 0)
(-0.00135758 0.351854 0)
(-0.0569954 1.01439 0)
(-0.0378346 0.770394 0)
(-0.0155141 0.35877 0)
(-0.0828051 0.0712802 1.99171e-19)
(0.0319613 0.0472708 0)
(0.993626 -0.00769164 0)
(0.954055 -0.00648487 0)
(0.742266 0.0273647 0)
(0.672429 0.0253893 0)
(0.658944 0.0267052 0)
(0.980755 -0.00245862 0)
(0.585387 0.0653992 0)
(0.455316 -0.0120182 1.49959e-18)
(-0.0411364 2.86009 7.2699e-19)
(0.0338748 2.91423 0)
(0.0428181 2.89269 0)
(0.00321006 2.70242 0)
(-0.00870478 2.98661 8.9171e-19)
(-0.0139222 2.89439 0)
(-0.0109307 2.99171 -2.74787e-18)
(-0.0115338 2.92918 9.36321e-19)
(-0.0521295 1.35104 0)
(-0.0202192 1.38025 0)
(-0.00807565 2.14061 8.75786e-22)
(-0.0079806 2.0992 0)
(-0.0172324 1.91286 0)
(0.938931 -0.00519173 0)
(0.857357 -0.0111623 0)
(0.862847 0.00510047 0)
(0.94971 -0.00613461 0)
(0.883716 -0.00809958 0)
(0.496334 1.11048 -2.1052e-19)
(0.543774 1.18039 0)
(0.335284 0.845387 3.20618e-20)
(0.280214 0.710185 0)
(0.922207 1.03859 -1.60887e-19)
(1.04534 0.849209 3.24407e-19)
(0.394431 1.32044 0)
(0.545236 1.27622 0)
(0.59947 1.20235 0)
(0.104524 0.181099 -3.00219e-19)
(0.168842 0.139857 0)
(0.17093 0.104263 1.84361e-19)
(1.00832 0.903075 0)
(1.08406 0.751016 0)
(1.11382 0.68624 -2.60414e-19)
(1.15003 0.596651 0)
(1.20617 0.391552 4.7506e-20)
(0.957535 -0.00709355 0)
(0.96275 -0.00810616 0)
(0.900944 -0.00737587 0)
(0.983934 -0.00812007 0)
(0.97444 -0.00802772 0)
(0.936558 -0.00656776 0)
(1.0002 0.00250589 0)
(1.00078 0.00123854 0)
(1 0.000759867 0)
(0.0386154 2.08571 4.21889e-19)
(0.14275 1.78241 0)
(0.0171231 2.19196 6.5308e-19)
(0.0532922 1.8928 -5.31752e-19)
(0.168132 1.08531 -2.89938e-19)
(0.0511411 0.935476 0)
(0.122983 0.939961 0)
(0.00666902 0.752655 0)
(0.0298945 0.511547 0)
(-0.00315184 2.26225 -2.67111e-22)
(0.0211912 2.04229 0)
(-0.00456702 2.26156 -2.81725e-21)
(0.00303832 2.04661 -6.84899e-21)
(-0.000758807 0.721681 0)
(-0.00601129 0.702824 0)
(0.0151447 0.44802 0)
(-0.020885 0.686206 0)
(0.00758392 0.347946 0)
(0.939618 0.0139249 0)
(0.856647 -0.0115245 0)
(0.92875 0.00491151 0)
(0.846377 -0.0127854 0)
(0.80942 0.00126048 0)
(0.899076 0.0203706 0)
(0.874601 0.024355 0)
(0.783048 0.00123908 0)
(0.00998206 3.06807 -8.79862e-21)
(0.0156458 3.058 0)
(0.0122376 2.97014 0)
(0.00750589 2.87692 0)
(0.893258 3.962 0)
(1.18663 3.35874 9.33523e-19)
(0.0803181 3.08853 0)
(-0.0180576 2.91695 0)
(-0.0199406 1.40786 0)
(-0.0386105 1.70208 0)
(-0.0277414 1.53876 0)
(-0.0346582 2.54635 -1.54265e-20)
(-0.0207276 2.24518 0)
(-0.0248661 2.38783 0)
(-0.000592351 1.9727 8.55374e-24)
(-0.00539427 2.25439 -3.21029e-20)
(-0.00643538 2.21741 -2.59724e-20)
(-0.00559685 1.95629 0)
(0.389975 0.115963 5.2465e-19)
(0.363184 0.00772697 -5.14985e-19)
(0.230974 1.58971 0)
(0.289327 0.770587 -3.25249e-19)
(0.178919 1.68575 -1.06874e-18)
(0.248415 1.23066 1.06984e-18)
(0.901597 0.00591643 0)
(0.966993 0.0107053 0)
(0.974855 0.00988427 0)
(0.922936 0.00586186 0)
(-0.0191248 0.690008 0)
(-0.0242643 0.697742 0)
(0.00576015 0.341444 0)
(0.0768549 0.0914702 5.65885e-19)
(0.0563526 0.0665747 -6.6272e-19)
(0.0470903 0.0498666 0)
(1.10858 0.0910809 2.39242e-20)
(1.09217 0.0429584 0)
(1.01954 0.043973 0)
(0.914446 -0.0012446 0)
(0.436833 0.097704 0)
(0.496049 0.0802566 -2.39825e-18)
(0.399538 0.00490374 8.98242e-19)
(0.0102855 2.9771 7.7317e-19)
(-0.033171 2.86115 4.60218e-20)
(0.00816455 3.05366 -1.85893e-20)
(0.0163507 3.04259 6.9169e-19)
(-0.0116949 2.99995 3.08178e-20)
(-0.0124505 2.95208 -1.24071e-22)
(-0.0150882 3.01308 -5.74944e-19)
(0.0153562 3.02548 4.0987e-19)
(0.00805067 3.03589 -6.66665e-19)
(0.9348 0.0021725 0)
(0.939573 -0.00109303 0)
(0.848252 -0.0111999 0)
(0.956233 0.0118561 0)
(0.942231 0.0134351 0)
(0.88146 0.00545308 0)
(0.915772 0.0176114 0)
(0.925015 0.0153611 0)
(0.836758 0.00234555 0)
(0.668985 1.40853 1.40694e-20)
(0.687026 1.51894 0)
(0.117498 0.287361 6.76591e-20)
(0.214198 0.653249 5.34354e-19)
(0.239586 0.690293 -3.13541e-19)
(0.212529 0.489848 6.22733e-19)
(0.34164 0.834008 1.58865e-18)
(0.136386 0.237635 3.81371e-19)
(0.258079 0.164855 7.0471e-19)
(0.209586 0.161874 1.81725e-19)
(0.219795 0.0914111 3.45987e-19)
(1.19709 0.448401 9.69077e-20)
(1.22146 0.246916 9.42967e-20)
(0.00772129 2.2498 2.41298e-19)
(0.0424393 1.96545 0)
(0.973338 0.0332159 0)
(0.947035 0.0193427 0)
(0.871598 -0.0150589 0)
(0.0131182 3.07362 0)
(0.0167949 2.94391 1.22768e-18)
(0.0138532 2.95675 0)
(0.0057254 2.85017 -1.21807e-18)
(0.00994594 3.08962 2.99729e-19)
(0.0111017 3.0842 0)
(0.706187 1.81433 -1.69268e-19)
(1.23085 2.61858 5.72566e-19)
(0.690906 1.99228 -1.38781e-18)
(0.0218138 2.97596 -6.70782e-19)
(0.0398937 2.99744 0)
(-0.0386945 2.87806 0)
(-0.00637317 2.23987 -1.31766e-20)
(-0.00511156 2.26003 6.26646e-20)
(-0.000193164 2.00839 -7.31646e-21)
(0.26844 1.40361 1.0315e-18)
(0.288581 0.574816 -7.07923e-19)
(0.0691938 2.00419 7.47495e-19)
(0.118335 1.87592 -9.02163e-19)
(0.208607 1.53877 1.04282e-19)
(0.00601108 3.12036 -1.66434e-18)
(0.0132493 3.12073 1.83326e-18)
(-0.00526246 2.98054 8.33697e-19)
(-0.00147421 2.97503 -7.98154e-19)
(-0.0176027 2.87713 -8.49156e-19)
(0.0117464 3.1007 -2.22565e-18)
(0.00548327 3.10543 2.25934e-18)
(0.269055 0.699298 0)
(0.219825 0.658919 -1.14209e-18)
(0.0748826 0.211147 5.02682e-19)
(0.34763 0.954758 1.12764e-18)
(0.201074 0.28263 -1.73679e-18)
(1.19986 0.176839 4.74088e-20)
(1.21817 0.306456 0)
(1.19532 0.121821 9.97585e-21)
(-0.0001301 2.26741 -1.13281e-21)
(0.0073476 2.25604 0)
(0.0347848 1.99756 0)
(0.313026 1.31863 -3.69804e-19)
(0.354438 1.18115 -8.02618e-19)
(0.234488 0.394394 1.4362e-18)
(1.00644 -0.00967872 0)
(1.00774 -0.00778165 4.84069e-19)
(-0.0460914 1.33353 0)
(-0.0558703 1.33888 0)
(1.00244 0.00326917 1.33556e-21)
(1.0032 0.00780974 9.93787e-19)
(-0.0258929 2.53333 1.9549e-20)
(-0.0286075 2.5758 0)
(0.0399978 3.17212 4.73555e-19)
(0.372334 3.5372 0)
(1.16004 0.695515 -4.98251e-20)
(1.01177 0.0106346 -2.85424e-21)
(1.02089 -0.00898677 0)
(1.00157 0.000290188 1.57193e-22)
(0.118628 1.37555 0)
(0.152491 2.58898 0)
(0.0346612 1.32601 0)
(-0.00134124 2.63355 -1.25694e-20)
(-0.0220894 2.58003 -1.51234e-20)
(0.998296 0.0317038 2.74454e-21)
(1.06305 0.00593002 0)
(1.10023 0.0285624 0)
(-0.036939 1.74946 0)
(-0.0203568 2.57857 0)
(-0.0155552 1.32811 0)
(0.309229 1.49225 -1.72884e-19)
(1.01152 -0.00904954 0)
(1.00971 -0.0129831 0)
(1.00227 0.000934318 6.19862e-19)
(1.00547 -0.00490987 -7.30837e-19)
(1.00113 -0.000862302 0)
(-0.0262114 1.47445 0)
(-0.0150675 1.39733 0)
(-0.0213431 1.4364 0)
(-0.0187501 1.31351 0)
(-0.0350248 1.30271 0)
(-0.0277165 1.28322 0)
(1.0357 -0.00428769 0)
(1.01894 0.015556 -9.98708e-22)
(0.813829 1.31425 2.81839e-19)
(1.00245 0.000391859 -6.19622e-19)
(1.00339 0.0044438 7.39558e-19)
(1.00126 0.00209008 0)
(1.01105 0.00962683 6.17162e-19)
(1.00682 0.00744389 -7.51152e-19)
(1.00711 0.0111099 0)
(-0.0253151 2.60543 0)
(-0.0286943 2.58418 -3.47774e-20)
(-0.0254171 2.59846 2.45352e-20)
(1.24311 0.274471 5.20396e-19)
(1.16373 0.089332 0)
(0.0434843 3.09142 -9.47627e-19)
(0.0520172 2.87402 -6.71624e-20)
(0.102828 3.20174 1.26745e-18)
(0.121177 3.21364 -2.6849e-19)
(0.140202 3.25572 0)
(0.0225301 3.13768 2.60457e-19)
(0.0607641 3.16196 9.43985e-19)
(0.0611969 3.17869 -4.87238e-19)
(0.0268043 3.12948 0)
(0.541553 0.28892 0)
(0.485585 0.303468 0)
(1.14278 0.727359 1.10705e-19)
(1.10729 0.862914 -9.25174e-20)
(1.20018 0.61301 0)
(1.22683 0.546579 0)
(1.01568 0.0120342 -1.14644e-18)
(1.01464 0.0127733 1.44144e-18)
(1.02578 -0.00871182 0)
(1.02411 -0.0102798 0)
(1.00681 0.00327641 0)
(1.01088 0.00422257 0)
(1.00419 0.00222032 0)
(1.00933 0.0063429 0)
(1.00682 0.00503956 0)
(1.00437 0.00525456 0)
(0.107969 1.37578 0)
(0.0960966 1.33435 0)
(0.143398 1.42241 0)
(0.146589 1.4058 0)
(0.147732 2.61006 0)
(0.183253 2.67837 -4.04739e-19)
(0.094971 2.66 0)
(0.0862647 2.65398 1.74082e-19)
(0.0238698 2.67734 -1.53163e-19)
(0.0185881 1.33594 0)
(0.0311337 1.25268 0)
(0.0234639 1.34772 0)
(0.0482377 1.27233 0)
(-0.00220732 1.99517 4.37391e-20)
(-0.0219521 2.60822 -4.52483e-20)
(-0.00699684 2.67535 -3.93253e-20)
(-0.0194055 2.68697 0)
(-0.0242159 2.6143 4.47534e-20)
(-0.0228053 2.60984 4.74654e-20)
(0.00414859 1.99168 -3.37774e-20)
(-0.0107912 2.39965 6.07017e-20)
(-0.0153121 2.42445 4.45795e-20)
(1.01178 0.0402069 1.1624e-18)
(1.00425 0.0211194 -1.44769e-18)
(1.00357 0.0475825 -1.18688e-18)
(0.975964 0.0380826 1.4949e-18)
(1.06472 0.00926178 0)
(1.04996 -0.00641451 0)
(1.09272 0.0377854 0)
(1.07592 0.0150802 0)
(1.07467 0.000505574 0)
(1.14137 0.0798829 0)
(1.11588 0.0464827 0)
(1.11926 0.0375315 0)
(-0.0316177 2.43011 4.11007e-21)
(-0.023068 2.02497 0)
(-0.0233661 2.2202 0)
(-0.0223912 2.59944 -2.23892e-20)
(-0.0188617 2.61063 7.29464e-22)
(-0.0045776 1.59655 -6.11534e-20)
(-0.0149186 1.51853 6.24912e-20)
(-0.0252594 1.41016 0)
(-0.0298321 1.41611 0)
(-0.0364553 1.40618 0)
(-0.00932422 1.33054 0)
(0.00612492 1.24614 0)
(0.386644 1.51694 2.88626e-19)
(0.435347 1.52113 1.53389e-19)
(0.592061 2.46226 -2.4917e-19)
(0.380503 2.55046 7.29648e-19)
(0.349943 2.04789 6.83206e-20)
(1.02072 -0.00798893 0)
(1.0158 -0.00934621 0)
(1.01486 -0.0132057 0)
(1.00774 -0.000546202 0)
(1.00484 -0.000686699 0)
(1.008 -0.00446505 0)
(1.00955 -0.00342762 0)
(1.01465 -0.00426673 0)
(1.01968 0.0164227 1.125e-18)
(1.01712 0.0149789 -1.4282e-18)
(1.02009 0.018908 -1.13407e-18)
(1.01744 0.0173676 1.4207e-18)
(0.770144 1.36082 0)
(0.708746 1.39686 2.45555e-19)
(0.878313 1.24226 1.02384e-19)
(0.914656 1.20171 -1.35883e-19)
(1.16241 2.60784 2.77802e-19)
(0.748117 0.129315 5.84486e-19)
(1.1721 0.108333 0)
(1.21498 0.203033 -4.22528e-19)
(1.19654 0.154611 -1.7589e-20)
(1.01162 0.166128 0)
(0.0751658 3.01827 3.39649e-19)
(0.0813723 2.90314 -1.1129e-18)
(0.0227783 2.36119 7.04925e-19)
(0.159738 -0.272722 -3.08687e-19)
(0.340508 3.44148 -2.52061e-19)
(0.1918 3.33768 0)
(0.222378 3.39306 3.28339e-19)
(0.219917 3.07563 -1.18484e-18)
(0.252528 3.19376 0)
(0.00640424 3.12242 4.92941e-20)
(0.0168341 3.13116 -5.68422e-19)
(0.0158463 3.12693 8.36612e-19)
(0.0329289 3.14008 0)
(0.0309558 3.14958 0)
(1.25438 2.57073 0)
(0.541899 0.788764 -5.21345e-19)
(1.02767 1.03695 -1.43779e-20)
(0.994174 1.08993 0)
(0.863092 0.971822 -1.06152e-19)
(1.08681 0.912675 2.66413e-20)
(0.295188 0.307677 -7.68489e-19)
(0.633356 0.324796 -2.30799e-20)
(0.516389 0.217559 3.91473e-19)
(0.522946 0.318719 2.79104e-20)
(0.387258 0.267342 -1.11477e-18)
(0.587724 0.321925 0)
(0.679941 0.438162 6.74713e-19)
(0.693262 0.451748 0)
(0.550603 0.322368 0)
(0.449962 0.245808 0)
(0.80072 0.659369 3.90823e-19)
(1.25465 0.308507 -4.22804e-19)
(1.24785 0.440816 0)
(1.24797 0.395922 0)
(0.683483 0.187116 5.96351e-19)
(0.847047 0.561133 -3.68584e-19)
(0.768176 0.522931 6.58329e-19)
(0.965409 0.457422 -6.60832e-19)
(1.01844 0.0147681 7.6571e-19)
(1.01705 0.0136805 -7.70576e-19)
(1.01587 0.0142299 0)
(1.03709 -0.00450582 0)
(1.03049 -0.00768406 -7.22263e-19)
(1.0287 -0.0105684 7.1476e-19)
(1.02476 0.0110528 0)
(1.02271 0.0151618 0)
(1.01271 0.00475994 0)
(1.01457 0.00910441 0)
(1.01644 0.00427122 0)
(1.01558 0.00295067 0)
(0.0781169 1.36317 0)
(0.0811228 1.30379 0)
(0.157477 1.42545 5.88533e-20)
(0.277209 1.48843 8.41035e-20)
(0.177204 1.46017 1.89017e-19)
(0.212958 1.45712 -3.05978e-19)
(0.162601 1.43554 0)
(0.145108 1.58319 -8.38239e-20)
(0.14153 1.58006 0)
(0.351366 2.00018 -9.94652e-20)
(0.315807 2.34092 6.07813e-19)
(0.196798 1.46807 7.30421e-20)
(0.276607 1.40377 2.67602e-20)
(0.206417 1.40281 -2.18621e-20)
(0.290933 1.34178 -8.27943e-20)
(0.25798 1.57688 0)
(0.266553 1.624 9.24204e-20)
(0.0185006 2.24463 -1.2144e-20)
(0.0365588 2.67083 0)
(0.0565252 2.39543 9.43594e-20)
(0.0487723 2.42144 0)
(0.0644962 2.67737 -2.08856e-19)
(0.0423553 2.70452 0)
(0.0267395 1.46409 6.42713e-20)
(0.0317065 1.51985 0)
(0.0345712 1.42351 0)
(0.0264711 1.43316 -7.34453e-20)
(0.00212766 2.66068 5.95743e-21)
(0.0261656 2.69005 1.76701e-19)
(0.00925426 2.73296 9.03093e-22)
(0.00356149 1.84919 -2.87789e-20)
(-0.00418206 1.70157 -1.95386e-20)
(0.0180112 1.31552 0)
(0.0262793 1.22919 0)
(0.0409825 1.59364 -6.26614e-21)
(0.0431953 1.47366 -5.73781e-20)
(0.0262387 1.55629 5.94123e-20)
(0.0544395 1.61596 0)
(-0.0322976 2.27065 1.34478e-19)
(-0.0356069 2.5476 -5.69992e-20)
(-0.0212779 2.44848 1.04643e-20)
(-0.0047886 1.86531 3.4885e-20)
(-0.0285734 2.50341 1.48415e-20)
(-0.0229632 2.44561 -3.89224e-20)
(1.01814 0.0224745 -7.70492e-19)
(1.01483 0.0289762 7.7456e-19)
(1.01207 0.0180784 0)
(1.00986 0.0707917 1.07402e-18)
(0.990444 0.0609805 -1.21509e-18)
(0.950274 0.0564616 1.36049e-18)
(1.01301 0.115718 -1.44247e-19)
(1.04404 -0.00464046 0)
(1.05225 -0.000379163 6.92006e-19)
(1.04034 -0.00815818 -6.91657e-19)
(1.07236 0.0438814 -4.10258e-20)
(1.06507 0.0291948 3.54427e-19)
(1.0642 0.0658606 0)
(1.05441 0.055181 -1.27668e-19)
(1.03215 0.043979 0)
(1.02596 0.0390353 0)
(1.02765 0.0137261 0)
(1.02409 0.0163522 0)
(1.04054 0.0338497 2.62387e-19)
(1.03952 0.0287133 -5.80671e-19)
(1.05317 0.03891 -2.77538e-19)
(1.04823 0.0388191 -3.06299e-19)
(1.07788 0.070726 5.8602e-19)
(1.1019 0.0567721 0)
(1.10863 0.0954761 0)
(-0.0302524 2.27667 7.72636e-20)
(-0.0330949 2.03021 4.34688e-21)
(-0.0281486 2.04042 0)
(-0.0313593 2.44377 -7.6914e-20)
(-0.029424 2.4024 -8.28727e-21)
(-0.0358636 2.47015 1.0201e-20)
(-0.0219368 2.62183 -4.04892e-20)
(-0.0275413 2.56417 2.29951e-21)
(-0.0259175 2.5182 -1.36012e-20)
(-0.0177835 2.61458 2.56718e-20)
(-0.0217081 2.61703 -2.98579e-20)
(-0.0133179 1.52268 -1.11347e-21)
(-0.00807888 1.64346 -6.35019e-20)
(0.378 1.45294 -1.23492e-19)
(0.373401 1.38349 1.54019e-20)
(0.650024 1.44456 -2.3759e-19)
(0.525341 1.51405 -1.49022e-19)
(0.579362 1.47314 0)
(0.605972 2.42011 2.18132e-19)
(0.666272 2.42961 3.39675e-19)
(0.413153 2.51304 9.52564e-20)
(0.398281 2.53889 -6.03025e-19)
(0.502611 2.47719 5.66038e-19)
(0.552909 2.47298 0)
(0.483864 2.52336 -5.58682e-19)
(0.253652 2.60028 1.11243e-18)
(0.366096 2.55788 -7.48776e-20)
(0.284655 2.65882 -1.58596e-18)
(0.970915 2.3865 7.17219e-19)
(0.848301 2.38736 0)
(1.01142 0.00140047 2.51357e-20)
(1.01538 -0.00515501 -2.05364e-20)
(1.01779 -0.00388859 -3.75394e-19)
(1.01564 -0.00101748 3.74088e-19)
(1.01313 0.00185439 0)
(0.638371 1.306 0)
(0.683037 1.19152 0)
(0.79843 1.12189 0)
(0.670586 1.14838 0)
(1.19347 2.62328 5.16584e-20)
(1.08599 2.37483 0)
(0.816016 2.16355 3.59264e-21)
(0.820884 2.42698 0)
(0.915598 2.51761 -4.37297e-19)
(0.946991 2.46697 2.91966e-19)
(0.784978 0.161418 0)
(0.725631 0.146866 1.583e-19)
(0.905597 0.162688 9.26086e-19)
(0.812124 0.146978 -3.45807e-19)
(0.754621 0.0922009 -1.06907e-18)
(1.08778 0.248049 -8.42081e-19)
(0.986392 0.317626 -1.01334e-20)
(0.926979 0.353507 8.13035e-19)
(1.014 0.260453 6.92539e-19)
(0.930583 0.20791 -1.2222e-18)
(0.888133 0.220565 1.53621e-19)
(0.928012 0.319166 -3.18092e-19)
(0.905052 0.225396 0)
(1.00037 0.211026 5.97629e-19)
(1.05506 0.218872 0)
(1.0523 0.231657 0)
(1.12595 0.12576 2.67913e-19)
(1.06487 0.195643 -1.06984e-20)
(1.07929 0.249485 -1.53356e-19)
(1.11311 0.213009 0)
(1.02254 0.048679 5.92512e-19)
(1.03676 0.0627662 7.39856e-19)
(1.03257 0.0461935 -5.88402e-19)
(1.04131 0.0693524 -4.96133e-19)
(1.01502 0.0760881 -7.58665e-19)
(0.983648 0.169471 0)
(0.987097 0.108164 0)
(0.962305 0.0754034 -4.84188e-19)
(0.90056 0.0996216 1.94344e-19)
(1.03918 0.116953 6.8634e-19)
(1.07607 0.13805 -7.84353e-19)
(1.07036 0.182083 7.05272e-19)
(1.03536 0.158748 0)
(1.08627 0.123529 0)
(1.05686 0.112987 -3.21705e-19)
(1.04223 0.109284 -5.57687e-19)
(0.587838 1.07991 1.20123e-19)
(0.608736 1.3969 -2.19958e-20)
(1.14361 2.7148 -2.49161e-19)
(1.19579 3.09925 3.49627e-21)
(1.25116 2.72378 -1.26932e-19)
(1.29018 2.69398 2.18354e-20)
(1.26499 2.31684 -3.83531e-20)
(1.1833 3.00443 -7.61752e-20)
(1.20311 2.96137 2.27164e-19)
(1.17718 3.25219 -1.20565e-19)
(1.39431 2.96548 1.51185e-19)
(1.40551 2.90014 0)
(0.578636 0.814101 -4.80912e-20)
(0.198518 1.21083 4.66075e-19)
(0.529836 0.323639 4.9873e-19)
(0.413452 0.0897389 5.67642e-19)
(0.450599 0.294694 6.312e-19)
(0.545027 0.416528 -1.02647e-18)
(0.556557 0.397283 8.43384e-19)
(0.454249 0.293781 -3.10141e-19)
(0.284317 0.233644 7.12721e-19)
(0.713421 0.260954 -3.4375e-19)
(0.658854 0.292756 0)
(0.589122 0.197764 7.51511e-21)
(0.730895 0.517583 3.56388e-19)
(0.701513 0.491993 -1.2927e-18)
(0.633761 0.439474 1.28271e-20)
(0.61565 0.418667 0)
(0.724261 0.720623 3.70045e-19)
(0.839405 0.802927 4.08126e-19)
(0.778488 0.853509 -4.75747e-19)
(0.908472 0.824391 -1.50961e-19)
(0.942991 0.867413 -3.50436e-20)
(0.950556 0.874873 3.5937e-20)
(0.883832 0.682058 -6.6498e-19)
(0.957363 0.728497 1.40347e-19)
(1.013 0.732195 0)
(1.01179 0.707733 -1.79297e-19)
(1.03037 0.343674 2.09397e-19)
(1.15972 0.342946 2.54372e-19)
(1.07486 0.285301 3.44254e-19)
(1.00049 0.390576 -4.19432e-19)
(1.05834 0.490998 0)
(1.1398 0.431773 0)
(0.898485 0.427265 -6.40643e-22)
(0.845598 0.322047 0)
(0.893225 0.311907 3.87779e-19)
(0.914095 0.351647 2.62708e-21)
(0.988083 0.50304 1.84559e-18)
(0.920777 0.560534 4.76317e-19)
(0.943611 0.520328 -5.01254e-19)
(0.861595 0.496722 5.3444e-19)
(0.826229 0.470775 3.41378e-19)
(0.804335 0.4496 -3.34375e-19)
(1.02821 -0.000370295 6.20303e-19)
(1.02049 0.000614861 0)
(1.01912 0.00142461 4.04819e-19)
(1.02269 -0.000684538 -9.16373e-19)
(1.02258 0.00463317 4.46396e-19)
(1.02004 0.0116846 -9.34415e-19)
(1.02078 0.0115135 0)
(1.01968 0.012292 -1.94564e-19)
(1.0166 0.0078403 4.8763e-19)
(1.01669 0.010963 -2.44953e-19)
(1.01728 0.0106727 1.79319e-19)
(0.0373678 1.33736 0)
(0.04435 1.39981 0)
(0.0558442 1.34037 0)
(0.0629045 1.27672 0)
(0.0875311 1.40382 -6.69603e-20)
(0.0938829 1.37657 1.29067e-20)
(0.0857254 1.57522 5.21204e-21)
(0.106225 1.41274 -4.35633e-20)
(0.0452772 1.48766 4.99905e-20)
(0.0497058 1.4829 -3.93872e-20)
(0.0759993 1.40044 -2.58442e-20)
(0.0649652 1.40248 7.4757e-20)
(0.0620552 1.38412 1.22505e-20)
(0.0477805 1.40275 8.29765e-21)
(0.102175 2.35802 -1.03037e-19)
(0.0886755 2.40912 0)
(0.150612 2.00689 9.76093e-20)
(0.133853 1.70188 3.22659e-20)
(0.225149 1.99742 -8.26775e-20)
(0.190869 2.42813 0)
(0.259 2.36312 -6.44412e-19)
(0.312072 2.35367 4.54133e-19)
(0.248961 1.9795 -2.02214e-19)
(0.139655 2.14567 1.46844e-19)
(0.116002 2.26374 0)
(0.0148518 1.8474 -3.60704e-20)
(-0.00626445 2.36688 7.04048e-22)
(0.00332785 2.12639 0)
(0.00392824 2.42993 -1.72991e-20)
(0.0193296 2.26262 2.87511e-20)
(0.0126511 1.44159 -1.30972e-20)
(0.00930399 1.42119 2.17575e-19)
(0.00774848 1.43154 -7.03362e-20)
(0.0220734 1.4407 -6.20415e-20)
(0.0235846 1.46757 0)
(0.00446547 1.41598 0)
(0.00157173 1.31475 -8.93411e-20)
(-0.00288598 1.40805 2.63041e-20)
(0.00548728 1.40611 0)
(0.0108878 1.30724 -6.83986e-20)
(0.0196403 1.21504 1.36558e-19)
(1.04248 0.015094 0)
(1.049 0.0105842 -6.47077e-20)
(1.03917 0.0245694 -4.67769e-19)
(1.04951 0.0234473 0)
(1.0547 0.0227149 0)
(1.03636 0.0131123 -6.73303e-21)
(1.03011 0.0135586 7.5464e-19)
(1.03203 0.0175056 9.13939e-19)
(1.02569 0.0211694 0)
(1.02227 0.021768 0)
(1.03563 0.0259662 4.66925e-19)
(1.02605 0.0282289 0)
(1.02361 0.0282168 0)
(-0.0210434 2.03236 0)
(-0.012167 1.67086 -2.61906e-21)
(-0.00981696 1.77375 -3.57038e-20)
(-0.00921622 1.41312 0)
(-0.00978858 1.57644 -3.76387e-20)
(-0.0183386 1.48939 2.256e-20)
(-0.0169595 1.42952 0)
(0.403322 1.61952 0)
(0.367662 1.32178 -2.59012e-20)
(0.275671 1.3459 0)
(0.437603 1.31974 -4.04212e-20)
(0.473358 1.47891 0)
(0.458995 1.42066 4.19491e-20)
(1.04014 2.6667 -1.52304e-20)
(0.985193 2.40529 -9.00866e-19)
(0.947678 2.20666 1.00794e-18)
(0.864886 2.37937 2.43154e-19)
(0.852217 2.48333 0)
(0.921373 2.47796 0)
(0.954693 2.37937 0)
(0.9305 2.37048 -9.42049e-19)
(0.690973 2.44708 -3.7901e-19)
(0.799943 2.43099 -9.79952e-20)
(0.80713 2.40902 7.3857e-20)
(0.703812 2.40055 0)
(0.809077 2.39395 0)
(0.769548 2.41071 -3.68434e-19)
(0.765107 2.46202 0)
(0.633887 1.06954 0)
(0.514586 0.852764 -5.63175e-19)
(0.522728 0.928775 -3.28567e-20)
(0.501438 1.06673 0)
(0.488807 0.973576 8.60594e-19)
(0.805897 0.888794 -1.3241e-19)
(0.809123 1.02315 0)
(0.790465 1.0065 1.81432e-19)
(0.678919 1.02235 0)
(0.67066 0.926308 0)
(1.16215 2.75138 -2.19358e-19)
(1.13736 2.80984 -8.94475e-20)
(0.921472 2.33224 7.53298e-20)
(0.898335 2.31313 -7.60182e-20)
(1.13185 2.72901 0)
(1.084 2.69677 9.12853e-20)
(1.0993 2.49141 -2.95989e-19)
(1.001 2.25127 -2.80351e-20)
(0.495941 1.32524 0)
(0.516259 1.07491 -1.0579e-19)
(0.596613 1.18484 0)
(0.84626 0.233451 0)
(0.753074 0.181119 0)
(0.658986 0.142993 0)
(0.856857 0.232819 -6.11861e-19)
(0.741441 0.228758 3.58594e-19)
(0.914978 0.0877964 -4.011e-19)
(0.922595 0.138696 0)
(0.907231 0.155273 1.73627e-19)
(0.835862 0.111278 6.9545e-19)
(0.787275 0.0761933 -4.3667e-19)
(1.0933 3.34264 -6.66817e-19)
(1.1619 3.26658 0)
(1.11124 3.42723 -1.56267e-18)
(0.653892 3.57373 1.2999e-18)
(1.02137 3.0739 1.17671e-19)
(0.534259 0.773083 5.69498e-19)
(0.511714 0.739686 0)
(0.342691 0.324002 -1.42249e-19)
(0.495665 0.628223 8.48499e-19)
(0.567901 0.323214 -1.83064e-19)
(0.524116 0.453479 2.20114e-19)
(0.688951 0.530853 4.531e-19)
(0.733588 0.567952 0)
(0.670677 0.563604 0)
(0.659052 0.536665 0)
(1.01948 0.616558 8.77847e-20)
(0.972574 0.598524 -4.61581e-19)
(0.982998 0.610827 3.53112e-19)
(1.04672 0.554108 -3.40272e-19)
(1.0925 0.522232 0)
(1.09564 0.604729 -8.95335e-20)
(0.886633 0.425485 -7.6194e-19)
(0.872424 0.409807 -9.86512e-19)
(0.802065 0.418728 6.00454e-19)
(0.815455 0.379038 -6.26197e-19)
(0.85353 0.335338 -4.93579e-19)
(0.799076 0.339988 6.04058e-19)
(1.0266 0.0067544 -4.67129e-19)
(1.02623 0.00687235 9.41324e-19)
(1.02999 0.000982545 6.01119e-19)
(1.03419 0.00160496 -7.21772e-19)
(1.03404 0.0119935 0)
(1.02975 0.0120791 -1.18169e-18)
(0.0826905 1.64526 9.24925e-21)
(0.0685425 1.60516 0)
(0.106061 1.70229 3.48436e-20)
(0.118926 1.68117 -2.93369e-20)
(0.0720747 1.57083 -9.71275e-21)
(0.0642712 1.57317 0)
(0.0083259 1.70731 0)
(-0.00723434 1.52672 2.0013e-20)
(-0.00617295 1.47008 -1.79869e-20)
(-0.0131554 1.57436 3.18221e-21)
(-0.00186882 1.89781 3.02898e-20)
(-0.0139348 1.95195 -1.20037e-20)
(0.493632 1.35804 -2.64125e-19)
(0.496459 1.35243 2.88883e-19)
(0.451855 1.31179 -1.15755e-20)
(0.428752 1.29019 7.71593e-21)
(0.631417 1.3131 0)
(0.557245 1.40759 1.1637e-19)
(0.558237 1.41044 -1.13331e-19)
(0.488007 1.30068 1.11708e-20)
(0.528454 1.25269 0)
(0.592895 1.21841 0)
(0.664644 2.41073 5.57994e-19)
(0.660278 2.44111 1.27668e-18)
(0.715418 2.45627 -8.78078e-19)
(0.613348 2.42853 -2.00603e-19)
(0.557373 2.5212 2.74012e-19)
(0.497959 2.48831 -7.0699e-19)
(0.992447 2.38417 -5.67947e-19)
(1.0237 2.40166 0)
(0.950783 2.19 -6.198e-19)
(1.05502 2.67781 0)
(1.05386 2.65867 0)
(0.596765 2.28389 -2.60363e-22)
(1.1161 3.06617 6.91103e-20)
(0.992338 2.96206 -1.1573e-19)
(0.314781 0.778787 0)
(0.310664 0.650776 -3.0371e-19)
(0.521763 0.589614 -3.07423e-19)
(0.358418 2.12506 0)
(0.40034 2.74369 -8.28497e-20)
(0.409487 2.47746 0)
(0.731527 0.687951 -7.88227e-19)
(0.798015 0.697313 1.09912e-18)
(0.801307 0.661705 -1.04234e-18)
(0.702861 0.645143 -9.97687e-20)
(0.758732 0.605833 -4.13237e-19)
(0.967028 2.74874 -5.23392e-20)
(1.01234 2.75686 -2.13562e-19)
(0.546794 2.19795 4.50389e-19)
(0.600639 1.73007 -3.55078e-19)
(0.699835 1.84877 -4.98678e-19)
(0.97457 2.38962 -1.38556e-19)
(0.975121 2.34267 3.6921e-19)
(0.641361 1.75595 3.37301e-20)
(0.448159 1.29103 1.76017e-19)
)
;

boundaryField
{
    wall-4
    {
        type            noSlip;
    }
    velocity-inlet-5
    {
        type            fixedValue;
        value           uniform (1 0 0);
    }
    velocity-inlet-6
    {
        type            fixedValue;
        value           uniform (0 3 0);
    }
    pressure-outlet-7
    {
        type            zeroGradient;
    }
    wall-8
    {
        type            noSlip;
    }
    frontAndBackPlanes
    {
        type            empty;
    }
}


// ************************************************************************* //
