/*--------------------------------*- C++ -*----------------------------------*\
  =========                 |
  \\      /  F ield         | OpenFOAM: The Open Source CFD Toolbox
   \\    /   O peration     | Website:  https://openfoam.org
    \\  /    A nd           | Version:  6
     \\/     M anipulation  |
\*---------------------------------------------------------------------------*/
FoamFile
{
    version     2.0;
    format      ascii;
    class       volScalarField;
    location    "38";
    object      p;
}
// * * * * * * * * * * * * * * * * * * * * * * * * * * * * * * * * * * * * * //

dimensions      [0 2 -2 0 0 0 0];

internalField   nonuniform List<scalar> 
918
(
0.569476
1.3056
0.00455005
0.569354
-0.00149726
1.27341
-0.458855
0.730528
0.550569
-0.0767218
-0.0187452
0.547776
1.13054
0.897233
-1.14129
0.01909
0.683977
-0.384374
0.548485
0.0163629
0.766132
0.557295
0.559767
0.55056
0.607606
0.854635
1.00799
0.0144648
0.00349129
-2.93407e-05
0.00537431
-0.00898791
0.00945502
1.15652
1.20847
1.23165
0.517642
0.348388
-0.346305
-0.399521
-0.381605
-0.48363
0.723795
0.722433
-0.151332
0.731185
0.739178
0.536442
0.549952
0.550781
0.551972
0.550821
0.552124
0.435628
-0.0810938
-0.112051
-0.0601131
-0.0517387
0.0805619
-0.0186845
-0.0203677
-0.0156656
-0.0178404
0.468029
0.543918
0.541055
0.552749
0.562098
1.24577
1.21946
1.24552
1.15628
1.17381
1.10743
1.08031
0.918686
0.942161
0.880595
0.86656
-1.60769
-2.56713
-0.556221
-0.272507
-0.000949132
0.0210177
0.0288923
0.674378
0.673673
0.684419
0.69367
1.07199
-0.353185
-0.426435
0.548945
0.547469
0.556788
0.557696
0.552641
0.552657
0.0160822
0.0130856
0.0195058
0.0150556
0.0183773
0.757264
0.75603
0.550007
0.547471
0.571033
0.593315
0.582478
0.292761
0.614562
0.627951
0.712261
0.860513
0.849291
0.861171
0.983722
0.951247
1.03932
1.06104
0.0142665
0.00361223
0.0172675
0.00577684
0.00736347
0.513464
0.507155
0.53392
0.521191
0.524173
0.252584
0.100462
0.430907
0.454549
-0.264289
-0.307411
-0.415897
-0.41303
-0.521416
0.620604
0.717764
0.715075
-0.172647
-0.0942013
-0.220079
-0.0364571
-0.0926857
0.52756
0.533677
0.529817
0.545037
0.53924
0.541651
0.55404
0.551195
0.552804
0.49534
0.627604
0.353541
0.325042
-0.237281
-0.130327
-0.22349
-0.0398236
-0.0351708
0.0975756
0.12416
0.0726157
0.0644461
-0.0267867
-0.0206055
-0.0236232
-0.0158921
-0.00936349
0.459768
0.447247
0.478944
0.48632
0.532412
0.533668
0.537737
0.535896
1.03126
1.05452
1.06037
1.03648
-3.55807
-6.21577
0.0804598
0.243762
0.00455808
0.00754961
0.00278752
0.0144782
0.00738888
0.00348887
0.0386609
0.024028
0.0244625
0.0295706
0.665824
0.664416
1.0354
1.06233
1.0157
0.994744
0.53827
0.540209
0.544815
0.541731
-0.00169308
0.00909813
0.0038757
0.740747
0.749901
0.748229
0.253432
0.166756
0.341564
0.371677
0.655567
0.636018
0.651582
0.773539
0.812499
1.07776
1.10206
1.08588
1.09877
1.14972
1.17267
1.13794
0.492632
0.503169
0.497598
0.537081
0.534699
0.535734
0.531606
0.532873
0.531322
-0.0126557
-0.388818
0.506576
0.50892
0.495723
0.502502
0.706536
0.790457
0.696411
0.706441
0.704337
0.00988366
-0.0379658
0.283408
0.254231
0.400967
0.434209
0.416883
1.0068
0.966947
1.01512
0.990565
0.954683
0.979532
-0.326235
-2.10614
-1.09255
0.652763
0.452615
0.545821
0.0448188
0.0366431
0.0270272
1.06415
1.10559
0.697177
0.884464
0.837649
0.836018
0.862728
0.925911
0.857258
0.89258
0.924193
0.899793
0.57572
0.514538
0.52918
0.868709
0.925436
0.132129
0.0589152
0.0352257
0.143708
0.212162
0.179378
1.07894
0.98311
1.05117
0.547709
0.548627
0.0238504
0.028978
0.552677
0.552407
-8.83096e-05
0.0035317
0.56403
-0.916083
0.144003
0.542044
0.532022
0.548668
-0.0434081
0.369476
-0.0192489
0.0768202
0.0393043
0.543743
0.479804
0.438099
0.0378168
0.019444
0.0140134
-0.175905
0.545451
0.543816
0.54805
0.548902
0.549644
0.0280508
0.0262917
0.0251974
0.019828
0.02035
0.0201075
0.512592
0.53147
-0.146146
0.548305
0.550391
0.550117
0.544173
0.549193
0.54774
0.0292654
0.00348844
0.013824
0.235883
0.366965
0.752062
0.830761
0.698889
0.528535
0.226294
0.685135
0.739423
0.662596
0.795138
0.709112
0.718619
0.207709
0.0700768
0.209454
0.144811
0.539012
0.538329
0.529584
0.526572
0.543443
0.541188
0.546294
0.543449
0.546609
0.547785
-0.00347785
-0.0393962
-0.0536654
-0.104462
0.335019
0.595489
0.26247
0.289036
0.190619
-0.0146904
-0.0146485
-0.0138457
-0.0155124
0.0272348
0.0227896
0.0680627
0.0738976
0.0570581
0.0334053
0.0187045
0.0219866
0.0123613
0.537287
0.536494
0.542129
0.550313
0.489175
0.492868
0.459471
0.478212
0.464678
0.405947
0.435819
0.413399
0.0203793
0.0414914
0.0156467
0.0174771
0.0167831
0.0284998
0.0303831
0.0248223
0.0263139
0.0261161
0.0153319
0.0102046
-0.138785
-0.255595
1.00551
0.927927
0.163362
0.535391
0.541033
0.538214
0.542791
0.54599
0.546677
0.54431
0.540847
0.531716
0.533232
0.52989
0.530793
-0.0897346
-0.195774
-0.026135
-0.097676
0.174509
0.645417
0.375667
0.324285
0.30961
0.529221
0.74007
0.67231
0.746527
0.748123
-0.365832
0.0523951
-0.29114
0.257749
0.241915
0.776191
0.818166
0.835309
0.792568
0.748208
-0.00456827
0.569287
-0.0189208
0.0267735
0.214671
0.107617
0.73104
0.68755
0.693384
0.70911
0.727726
0.704349
0.689022
0.678399
0.708511
0.714335
0.529548
0.265212
0.227362
0.178337
0.668328
0.563772
0.618292
0.540088
0.534342
0.536935
0.53577
0.517289
0.52448
0.520285
0.526849
0.530355
0.538131
0.538287
0.534265
0.536168
-0.02942
-0.0301162
-0.0448678
-0.0892976
-0.0902991
-0.130716
-0.0597175
0.142724
0.0870085
0.274225
0.414049
0.109948
-0.01979
-0.00542199
0.0493024
0.213882
0.215891
0.0845038
0.198981
0.156798
0.149087
0.241045
0.263954
0.00557084
0.00349392
-0.00114134
-0.00611871
0.050267
0.139551
0.128474
0.0303134
0.0214306
-0.0127406
-0.0154147
0.0208803
0.0118512
0.0169867
0.0329974
-0.0371453
0.00867889
0.0245597
0.0325254
0.0244472
0.0282782
0.530754
0.532801
0.532637
0.541259
0.555287
0.570038
0.533831
0.509993
0.501147
0.504181
0.477438
0.486667
0.481668
0.49702
0.51838
0.52725
0.524896
0.527483
0.510009
0.511671
0.497182
0.501808
0.472663
0.455083
0.44516
0.0049439
0.0483795
0.0424443
0.00655632
0.046087
0.0279306
0.0251576
0.0371329
0.0218054
0.0219117
0.0150915
0.0241072
0.0248117
-0.0415908
0.0385345
-0.143622
-0.193206
-0.243475
0.91864
1.05206
0.835646
0.633105
0.63361
0.865439
0.955009
0.591991
0.769114
0.805162
0.5939
0.883386
0.539296
0.538938
0.536813
0.536014
0.537017
0.0135491
0.112302
0.134552
0.184516
0.298869
0.405698
0.328633
0.220042
0.354528
0.378647
0.645675
0.654973
0.604761
0.62601
0.623529
0.446692
0.527833
0.569441
0.517905
0.589204
0.621922
0.571348
0.612579
0.533651
0.485591
0.47847
0.431747
0.466423
0.448668
0.422259
0.530401
0.50765
0.518255
0.508478
0.529497
0.551893
0.553157
0.576758
0.59119
0.5105
0.460199
0.477069
0.503755
0.461225
0.477161
0.497813
0.198751
0.103814
0.2689
-0.0607706
0.0312686
0.067776
0.0268948
-0.0204947
0.286649
-0.35714
-0.299589
-0.984397
0.509601
0.901278
0.692728
0.706696
0.72514
0.704659
0.714351
0.730361
0.737941
0.659693
0.677753
0.680847
0.644786
0.677676
0.675596
0.68528
0.529157
0.438236
0.439772
0.375189
0.243418
0.280543
0.45681
0.394519
0.325899
0.319122
0.491681
0.360232
0.43563
0.493103
0.424055
0.354746
0.585643
0.631049
0.62087
0.592838
0.49906
0.525186
0.544805
0.587563
0.615105
0.641012
0.525781
0.531985
0.532948
0.530226
0.528381
0.531439
0.5316
0.533889
0.534411
0.536917
0.536226
-0.0104196
-0.00122919
-0.0146814
-0.0188874
0.051584
0.0254674
0.0272511
-0.00807216
0.0185464
0.0188586
0.00159385
-0.0130033
-0.00195907
0.0091518
0.0995383
0.118115
0.126925
0.0916628
0.278575
0.452619
0.518447
0.3899
0.238483
0.25624
0.337507
0.0359093
0.0578081
0.0418111
0.0904282
0.0685424
0.00064305
-0.0026333
0.00280269
0.00633496
0.0151035
0.00156164
0.00731088
0.0119135
0.00151904
-0.00447497
0.00172004
0.51163
0.504607
0.507805
0.500436
0.498815
0.515125
0.519529
0.520791
0.526169
0.528583
0.518528
0.524348
0.528179
0.0187352
0.0163633
0.000694379
0.0176995
0.0223723
0.0245981
0.0212889
0.151421
0.0582681
0.0932986
0.0237065
-0.0990583
-0.0393277
0.519774
0.514124
0.507894
0.738879
0.579655
0.494323
0.589867
0.708293
0.296312
0.501843
0.333477
0.912819
0.814148
0.959371
0.583635
0.271469
0.432782
0.44618
0.282485
0.40762
0.375238
0.250326
0.288919
0.310917
0.394185
0.276697
0.254541
0.0133924
0.190392
0.304946
0.286446
0.416593
0.474048
0.279984
0.194885
0.144569
0.630038
0.648259
0.660332
0.633174
0.655066
0.591872
0.58189
0.599541
0.608015
0.603019
-0.623199
-0.21228
-1.41459
-0.822028
-0.371396
0.536252
0.525453
0.770852
0.677243
0.730351
0.713322
0.646023
0.610974
0.646402
0.672934
0.365905
0.467042
0.436858
0.437689
0.378455
0.31047
0.599951
0.601876
0.624291
0.648812
0.623406
0.65142
0.524339
0.524111
0.523074
0.519515
0.518019
0.520965
0.0574822
0.0307793
0.069781
0.0639113
0.0465877
0.0465393
0.0244961
0.0151526
0.0146193
0.0164293
0.0184544
0.0226543
0.192879
0.136975
0.047845
0.093144
0.0226587
-0.0579381
-0.0604097
0.0282774
0.127262
0.108089
0.417098
0.691763
0.517218
0.6837
0.475737
0.579984
0.491877
0.466292
0.495793
0.393415
0.482586
0.0371428
-0.157311
-0.216447
0.834913
0.79117
0.578581
0.323953
0.213248
0.514756
0.54643
0.50512
0.539486
0.589923
0.575851
0.0226411
0.12299
0.1844
0.494711
0.29341
0.309602
0.302583
0.459187
0.43572
)
;

boundaryField
{
    wall-4
    {
        type            zeroGradient;
    }
    velocity-inlet-5
    {
        type            zeroGradient;
    }
    velocity-inlet-6
    {
        type            zeroGradient;
    }
    pressure-outlet-7
    {
        type            fixedValue;
        value           uniform 0;
    }
    wall-8
    {
        type            zeroGradient;
    }
    frontAndBackPlanes
    {
        type            empty;
    }
}


// ************************************************************************* //
