/*--------------------------------*- C++ -*----------------------------------*\
  =========                 |
  \\      /  F ield         | OpenFOAM: The Open Source CFD Toolbox
   \\    /   O peration     | Website:  https://openfoam.org
    \\  /    A nd           | Version:  6
     \\/     M anipulation  |
\*---------------------------------------------------------------------------*/
FoamFile
{
    version     2.0;
    format      ascii;
    class       surfaceScalarField;
    location    "38";
    object      phi;
}
// * * * * * * * * * * * * * * * * * * * * * * * * * * * * * * * * * * * * * //

dimensions      [0 3 -1 0 0 0 0];

internalField   nonuniform List<scalar> 
1300
(
3.75095
5.62643
-3.07787
3.75095
-7.31327
5.62643
-4.31212
4.31212
-0.903786
0.903786
1.87645
1.8745
-2.67826
2.67826
-2.06533
2.06533
-2.55462
2.55462
-5.248
5.248
-5.06912
5.06912
4.71825
-4.71825
-6.13123
6.13123
-1.22984
1.22984
-3.70481
3.70481
3.17311
-3.17311
-2.25138
2.25138
-0.254469
0.254469
-0.554109
4.30506
3.19684
3.19684
-2.01263
2.01263
-4.87218
4.87218
6.22222
-6.22222
4.90343
-4.90343
-1.82556
-2.12679
1.63229
-11.3407
-5.68099
-5.68099
-8.44104
8.44104
-2.81461
2.81182
2.94497
-2.94497
-1.7294
1.7294
-4.30038
-0.0117447
-4.30038
4.29265
0.019475
4.29265
-0.992482
0.0886955
-0.992482
3.83803
-3.83803
0.774869
0.128917
0.774869
3.06678
-3.06678
-1.87687
3.75332
1.87409
-1.87202
6.17709
-1.87893
3.75343
-6.03428
6.03428
-2.8932
0.214943
-2.8932
2.49538
0.182882
2.49538
-6.81327
6.81327
-2.15189
0.0865647
-2.15189
2.048
0.0173312
2.048
2.87681
-2.87681
-2.64948
0.0948566
-2.64948
2.42684
0.127782
2.42684
0.353499
5.27293
-5.97993
8.79175
-5.27293
0.0249287
5.2104
0.0376001
5.2104
-5.10517
0.0360509
-5.10517
5.01319
0.0559267
5.01319
4.8134
-0.0951438
4.8134
-4.83203
0.113773
-4.83203
-3.71542
-4.23965
-6.31562
0.184393
-6.31562
-1.22462
-0.00521959
-1.22462
1.18871
0.041138
1.18871
-3.64912
3.64912
-4.02438
0.319566
-4.02438
3.12803
0.045079
3.12803
1.86812
1.88284
5.61907
-5.61907
2.44596
-2.21113
-0.0402536
-2.21113
-2.29344
-2.60999
2.29344
-0.0420568
-0.496902
0.242433
-0.496902
3.15695
0.0398988
3.15695
2.2706
0.156245
-2.2706
0.257968
3.25926
-3.25926
1.33856
0.674072
1.33856
-5.561
5.561
4.96046
0.0527329
-4.96046
0.0882793
6.15692
0.0652978
6.15692
-6.20772
-0.0144921
-6.20772
2.66769
-4.79447
-2.4344
5.90113
0.230102
-5.90113
0.22014
2.9152
0.0297666
2.9152
-2.92101
2.92101
-2.98275
0.0377887
-2.98275
-2.15774
0.428345
-2.15774
1.40866
0.32074
1.40866
-4.17166
-0.128718
-4.17166
-4.17129
0.146915
4.17129
0.121356
1.06433
-1.06433
-1.06537
0.0728884
-1.06537
-3.97655
-0.195105
3.97655
-0.138524
-3.76736
-0.0706708
-3.76736
-3.02092
0.0381639
3.02092
0.045866
3.11181
0.0451332
-3.11181
0.0450285
-1.87096
3.7538
-1.87999
3.75408
-5.65306
-0.381228
-5.65306
6.33112
-0.296839
6.33112
3.276
0.428808
-3.276
0.382801
2.3522
0.143177
2.3522
-6.80126
-0.0120068
-6.80126
6.80602
0.00725074
6.80602
2.2539
0.0982939
-2.2539
0.10201
2.07715
-0.0291522
2.07715
2.89946
-0.0226499
2.89946
-2.87395
-0.00285867
-2.87395
2.79805
-2.79805
2.7283
0.0697564
-2.7283
0.0788163
-11.1239
11.1094
-0.036307
-11.0876
5.1741
5.1741
4.26813
0.545271
4.26813
-5.02134
0.189315
-5.02134
3.10605
-5.54045
3.17255
-6.88797
4.79357
-16.1343
4.3321
-8.57175
6.62185
-6.62185
6.47565
0.146207
-6.47565
0.160024
-1.25862
0.0339932
-1.25862
-3.05541
-0.593709
-3.05541
4.31127
-0.662155
4.31127
-3.02843
3.02843
-3.07694
0.0485083
3.07694
0.0510917
2.13627
-0.0591237
-2.13627
-0.0748534
0.632111
0.142758
-0.632111
0.135208
3.46152
-0.202256
3.46152
-3.06926
-0.189998
-3.06926
-1.29557
0.0369571
1.29557
0.0429823
-5.80786
0.246861
-5.80786
-11.1814
0.0938206
-11.1438
-6.1139
-6.1139
2.32713
11.1189
-2.89182
0.0178757
2.89182
0.0233749
2.9762
0.0522324
-2.9762
0.0551897
-2.86163
0.0635736
2.86163
0.0593808
-2.53076
0.373015
-2.53076
-1.01085
1.01085
-1.1684
0.157552
1.1684
0.240253
1.35089
-0.286567
1.35089
1.13883
0.0498798
-1.13883
0.0734556
-3.72411
-0.0432479
-3.72411
6.56638
-0.23526
6.56638
-2.94756
-0.121702
2.94756
-0.0481048
-0.0349982
11.1444
-5.1391
0.0339254
5.1391
-11.2097
11.2436
-3.24205
0.711296
3.24205
1.02607
5.28755
0.273456
-5.28755
0.266205
6.73803
0.0679882
-6.73803
0.116178
-2.55825
-0.497157
-2.55825
-5.0491
-0.603952
5.0491
-0.73783
-11.4818
-0.202818
11.6847
-11.4259
6.01068
0.146238
-6.01068
11.3899
-0.962859
-0.101467
0.962859
0.0479923
1.68558
-0.334684
1.68558
3.65647
-0.194952
-3.65647
-0.0676407
-6.70401
-0.0972569
6.70401
-0.137624
-2.11422
-0.444036
2.11422
-0.428639
-4.26716
4.30706
1.90992
-2.45632
-2.33815
-5.06631
1.85476
1.89904
4.30073
-10.1579
-5.97639
-9.93776
7.21421
-6.94801
-9.36782
9.27268
7.69433
-7.76501
-5.77825
5.82935
6.48396
-6.43809
1.87909
1.87423
7.97937
-7.76443
-15.7327
15.3515
7.57141
-7.48485
15.8909
-15.9029
-17.9228
17.9908
-5.7076
5.80246
-6.72995
6.72709
-6.95818
6.91008
-3.21536
-3.67261
13.1487
-12.9643
8.35347
-8.39373
-8.61861
8.93818
3.38452
0.922538
3.42965
-1.88205
3.76114
-1.87138
3.78131
2.69185
-5.90721
2.8486
-5.18675
4.02623
4.32725
-3.98417
-1.08214
-5.92406
5.95383
-5.81453
5.87391
9.01181
-9.02356
-1.88505
3.75928
-1.86903
3.76806
-3.42359
-2.35466
3.37851
0.922212
8.04246
5.10621
-8.27257
-1.66519
-7.89444
7.69949
-8.16928
7.97928
-0.438783
5.83677
-5.39798
4.4334
-1.65248
7.48925
5.56173
5.75105
5.86074
-5.58728
1.08727
-6.48526
-6.39698
-2.55127
2.62415
2.51319
-2.38428
5.99783
1.6965
5.85931
-5.67313
-2.09188
-5.71638
3.82063
2.00872
3.86914
4.08078
2.40318
4.11894
3.02994
-3.03611
0.00617317
-3.05879
6.08872
0.72317
-5.41345
-4.49123
5.00641
2.97296
5.1893
-5.56264
-2.20179
-5.17984
-9.60049
-6.13221
-10.2044
10.1362
5.21526
9.83938
-12.0216
11.884
4.84844
2.72297
4.86578
-4.96381
-2.52103
-4.8618
11.6775
-2.60257
-9.0749
-10.3639
-7.55887
10.3567
5.53417
10.9926
6.99824
11.1087
4.43283
7.24465
-9.967
2.40812
-3.86549
-1.84211
-3.78667
3.6691
2.13336
3.79688
-4.21469
-2.51526
-4.19681
-4.29017
-2.66801
4.31282
2.41427
-4.40188
-3.7674
4.52358
2.3865
4.14984
-10.1262
4.42191
-8.09452
-9.23813
-3.72616
-9.0781
3.60224
2.6017
-6.20394
-2.30497
8.57387
-4.24662
7.49173
-5.08062
-3.31311
-5.15547
-6.91018
-1.70843
-6.76327
-8.94704
8.44989
-9.24328
8.58112
12.6574
-5.69492
-6.96249
-3.9668
-2.47129
3.92178
-0.492121
-3.71055
3.71672
0.0505913
3.8319
4.75444
4.26232
-3.88396
-1.93056
-3.82877
3.8272
2.04671
3.89078
6.77047
2.24134
6.78994
-6.46247
-2.56109
-6.59119
9.13786
-8.70951
2.87542
-2.83846
5.30881
2.67048
-5.10655
-2.78789
6.22926
-3.15814
-3.07112
-12.3604
10.8605
1.49997
-4.8712
-0.437797
-0.183327
-5.58894
-3.77888
5.47516
0.275886
11.1364
7.35747
-5.51616
5.76302
6.16851
6.22124
-0.175737
5.92046
-5.20917
5.34547
-2.52506
-2.8204
5.33009
-5.5252
-1.26109
-5.40261
4.14151
0.334105
1.74979
-1.50736
-1.98149
-0.569778
-1.90803
1.48234
1.03085
1.6251
0.921862
1.70229
-2.97336
0.593289
2.38007
-2.0515
-1.79099
-3.64844
-1.08843
4.73687
5.58225
2.11724
-5.51461
-0.201765
2.69254
-2.6514
-0.761681
-2.88676
2.13017
-2.89185
-3.55736
-1.85302
5.41038
-3.36967
-0.459107
3.31743
0.551701
-3.82674
-2.09733
3.78895
0.329996
-3.12687
6.1906
-3.06373
-5.05743
2.52902
3.5597
4.53774
-4.79089
2.44817
2.34272
-1.23119
4.27319
0.916111
4.41636
-6.96589
4.7641
5.70685
3.23132
-6.13566
0.95582
-6.01007
8.37919
-7.24938
-1.12981
3.87184
4.50735
7.10385
5.55356
-5.70761
12.8115
-1.05364
-6.19574
7.06371
-3.83238
4.78056
-8.61294
-10.3341
4.13838
-9.24825
11.0552
-1.80696
-3.62697
-8.39462
12.8752
-1.2095
-11.6657
8.62988
-4.2155
-4.27949
8.49499
-6.81808
6.80052
-1.96647
-4.83406
-10.1795
-5.7234
10.2767
1.60724
-9.88008
12.2882
-2.63543
4.16297
0.70281
4.13381
3.27358
-5.40943
2.13585
3.54449
-5.51096
2.06345
-7.47289
-6.82984
12.178
-5.34818
-10.556
-9.61995
-0.936054
2.53654
9.75167
-9.53478
7.4431
2.09168
3.30493
0.585849
-3.37468
-0.411989
0.252787
4.51843
-4.77122
4.04966
4.20591
3.27704
1.2414
3.84528
2.10855
-3.86865
-0.328163
-4.15886
1.49085
-1.74459
-3.68159
5.17244
-4.06196
0.380368
-2.73854
-3.50156
6.2401
-4.58065
3.03902
3.15158
5.08572
-4.91342
1.41186
-2.39591
-2.5175
2.6501
-4.39469
1.97917
3.19327
4.36566
0.598262
6.00723
6.17079
-8.60893
0.51441
11.277
-9.61182
2.51106
8.59769
-9.95416
0.334208
-8.7439
1.00382
-5.25045
-5.20011
5.13263
-6.84106
-3.48031
6.21433
0.575612
-6.33569
-0.42758
-6.06848
-2.87857
-6.51251
-3.06888
-6.1744
-8.77649
-1.68178
-7.09471
6.76811
-6.69726
-3.50718
7.4351
1.14603
-7.47293
7.37146
-7.53679
7.20211
0.0944039
3.62231
4.35672
1.88543
-2.39113
4.27656
-5.05939
7.30073
-8.62294
3.56355
4.08564
-6.64673
-4.5373
5.06904
4.06882
5.38978
8.97963
-10.4932
1.51353
-10.7567
12.0844
-1.32766
-16.5577
5.80093
-7.57802
2.58161
0.29381
2.6156
0.624934
2.46137
-3.08631
-2.21352
-2.17054
-2.3672
-3.49169
5.85889
1.1462
-3.40943
2.26323
-3.5552
4.7014
0.0251505
-3.43458
5.22417
-2.7628
5.51798
-3.53005
1.98793
3.46646
5.80178
-2.33532
4.4147
-1.74422
1.86488
-4.2002
-1.62681
-2.96346
5.09682
-3.27664
3.65701
-0.325595
3.98261
-4.07435
0.916207
-0.797309
3.4086
3.66657
4.30564
-3.06425
2.96567
-4.7099
-1.23453
-4.11164
-0.918361
-0.233297
-3.82621
4.05951
6.06595
-6.29925
-5.31585
9.57376
-4.25791
7.73188
-5.46605
-2.26583
-4.31227
-4.39724
3.93926
1.98121
9.71309
0.176193
-5.64225
-5.03297
-4.0069
3.21343
2.13204
-1.91652
3.41649
2.09985
-0.350057
0.511042
1.11406
1.86598
-1.35494
0.258095
1.60788
-1.24926
1.93326
0.759284
-1.98314
0.0751051
-1.29914
3.42931
1.08093
-2.11179
0.756849
0.991074
-3.51614
4.83441
-2.5681
-2.26631
5.82548
1.16173
-3.72983
4.24088
-3.90677
2.38971
-3.47814
-1.34012
-5.24689
-3.55038
-2.56077
4.82399
-3.29812
5.41536
1.26663
-5.21359
6.48023
-3.58281
1.7298
-3.06549
3.82478
-1.11859
-1.94691
2.93025
2.48013
-3.0468
0.160044
-0.116554
2.36469
-2.48124
-0.527157
-2.57866
-4.57446
4.90446
-2.10527
4.55344
2.17128
-1.91563
6.46907
1.80972
-3.72535
-3.24771
-3.70682
-1.38263
3.15511
-0.569819
-4.29198
-5.40388
4.19369
0.222673
-6.80418
7.7126
-0.908419
-3.83122
-0.932883
4.80473
-5.98558
0.474618
-3.92212
3.79047
4.70658
4.92926
-11.4397
-0.225982
-6.22449
1.10218
-7.32666
5.60953
-3.59031
7.72869
-10.3672
6.86
-9.22115
6.59887
-0.72779
6.23829
-4.10244
2.83661
-8.56001
-6.95277
5.46357
-2.7406
6.16638
-3.11895
9.28533
-5.75439
5.23368
4.05166
-1.04572
-4.10975
-5.19862
4.1529
0.0350608
4.16887
4.98149
-2.87294
4.65333
2.25662
-4.65253
-2.13807
-6.49111
1.83857
-3.33953
-1.91844
3.75701
3.16728
3.75313
1.23951
-3.34114
7.30441
-8.24046
-1.95623
-3.24388
5.16272
-1.00982
3.40084
-6.64472
-1.84961
4.82314
-0.758613
-4.06453
0.871781
-4.35209
1.661
-6.01309
5.18006
-5.60764
2.24399
-9.82201
-5.22894
-5.18094
-2.2739
-5.26289
-7.62293
5.34903
-1.822
5.54946
-8.59966
7.84104
-3.48473
8.83376
-5.45918
-1.05333
5.88782
1.31429
10.148
0.0922787
-4.62958
-1.90412
3.83442
-1.9303
1.30931
-3.73393
0.100488
2.46353
3.36195
-6.60505
-0.0416785
-4.67126
-3.91513
7.98395
5.65863
11.7246
1.23142
9.18533
-1.20138
10.4168
4.1884
4.42865
-3.03198
4.54551
1.02753
4.59108
-0.829892
2.81782
1.78571
1.78049
0.870915
2.30049
1.36608
3.2167
0.130392
-2.04015
4.65674
-8.66364
-0.98551
-8.11837
1.15431
5.43545
-4.28115
3.02273
-0.890689
1.09243
0.0236749
-1.60167
1.578
-2.79673
-1.95173
-0.343845
-1.60778
2.36463
1.82153
-2.02078
-0.775949
0.283812
-3.8342
3.19433
-3.03428
-0.554156
5.92607
-2.78548
0.304233
-1.05568
-2.27442
-2.8442
2.7691
6.17528
0.29379
3.11154
5.19825
3.10092
0.22798
3.90026
-5.70723
-3.57263
-5.93321
-0.32368
4.48105
1.73377
8.0179
5.78542
4.7756
-1.86911
-10.1096
6.53601
-1.9905
5.20835
-1.14382
-4.86927
5.0484
2.25233
-5.62401
0.0163629
-4.85291
-6.84341
-0.493612
8.33466
-9.65444
8.6011
5.72254
1.37217
-4.43858
-0.742367
4.28102
0.147627
10.5644
-0.908586
-7.18013
8.08871
-4.52687
3.54136
0.745978
2.67052
2.32398
1.43329
-5.74684
-10.028
-1.90266
-1.61348
-4.16897
0.567898
-2.38943
6.10837
-2.56701
3.84254
5.5217
6.61413
-2.07837
-4.22088
6.33628
-2.49374
4.12039
)
;

boundaryField
{
    wall-4
    {
        type            calculated;
        value           uniform 0;
    }
    velocity-inlet-5
    {
        type            calculated;
        value           uniform -3.75095;
    }
    velocity-inlet-6
    {
        type            calculated;
        value           uniform -5.62643;
    }
    pressure-outlet-7
    {
        type            calculated;
        value           nonuniform List<scalar> 8(3.07787 7.31327 3.95235 9.70843 7.95507 5.10209 6.27859 9.12568);
    }
    wall-8
    {
        type            calculated;
        value           uniform 0;
    }
    frontAndBackPlanes
    {
        type            empty;
        value           nonuniform 0();
    }
}


// ************************************************************************* //
