/*--------------------------------*- C++ -*----------------------------------*\
  =========                 |
  \\      /  F ield         | OpenFOAM: The Open Source CFD Toolbox
   \\    /   O peration     | Website:  https://openfoam.org
    \\  /    A nd           | Version:  6
     \\/     M anipulation  |
\*---------------------------------------------------------------------------*/
FoamFile
{
    version     2.0;
    format      ascii;
    class       volVectorField;
    location    "38";
    object      U;
}
// * * * * * * * * * * * * * * * * * * * * * * * * * * * * * * * * * * * * * //

dimensions      [0 1 -1 0 0 0 0];

internalField   nonuniform List<vector> 
918
(
(0.985047 -0.000708325 0)
(0.00533823 2.96625 0)
(-0.0110333 0.80974 0)
(0.979573 0.00195818 0)
(-0.0546435 1.95163 7.46823e-21)
(-0.00708424 2.94855 -2.7329e-18)
(0.816378 1.13853 4.01268e-19)
(0.312888 0.115526 -1.62301e-20)
(0.999919 -0.000244208 0)
(0.0810797 0.751071 0)
(-0.00261916 0.52957 0)
(0.736154 -0.015515 0)
(0.0101925 2.9316 0)
(0.00354732 2.79434 0)
(-0.00066027 3.19152 7.96799e-19)
(0.000547219 1.86514 -1.88385e-20)
(0.369949 0.028308 1.06673e-18)
(0.237848 1.14837 3.15784e-19)
(0.964488 0.00667265 0)
(0.00168797 0.597721 0)
(0.0899173 0.183879 -7.67422e-19)
(1.00184 -0.00456243 0)
(0.999853 -0.00893468 0)
(0.975152 -0.00606211 0)
(0.599298 -0.0359238 0)
(0.0230223 2.64327 0)
(-0.0123305 2.91198 1.01112e-18)
(-0.00512465 0.875631 0)
(-0.00144167 1.05744 0)
(-0.0037302 0.850857 0)
(-0.0522126 2.5829 0)
(-0.0281784 2.04154 -5.95057e-21)
(-0.0196895 1.78952 0)
(-0.0221691 2.9876 -9.89707e-23)
(-0.0165047 3.00551 2.12379e-18)
(0.00230461 3.00061 0)
(0.871084 -0.00939274 0)
(0.374937 0.917926 1.85556e-19)
(0.818186 1.14894 -4.66811e-19)
(0.953299 1.00241 4.96812e-19)
(0.683517 1.2332 -9.18796e-20)
(0.694793 1.20621 5.33586e-19)
(0.343743 0.211251 1.58338e-20)
(0.324913 0.0978373 0)
(1.13192 0.511306 0)
(0.309352 0.21205 7.22176e-20)
(0.283513 0.133353 -7.49418e-20)
(0.92037 -0.00698485 0)
(1.00025 7.97005e-05 0)
(0.999909 0.000314083 0)
(1.00369 -0.00730046 0)
(1.00091 -0.000954307 0)
(1.0001 -1.96852e-05 0)
(0.0984312 1.82825 -8.27332e-19)
(0.0346028 0.920816 0)
(0.123119 0.824863 0)
(0.0120223 0.876839 0)
(0.0463765 0.68838 0)
(0.0155516 2.00919 0)
(0.0125158 0.747968 0)
(0.0145964 0.562772 0)
(0.000328663 0.737751 0)
(-0.0124395 0.526891 0)
(0.839408 -0.0150597 0)
(0.844344 0.0320066 0)
(0.767775 -0.00492119 0)
(0.817045 0.0428283 0)
(0.699381 -0.0188724 0)
(0.01396 3.00019 1.01644e-18)
(0.011191 3.00589 0)
(0.00630825 3.00391 0)
(0.0118806 2.99707 1.15757e-23)
(0.00828315 2.95873 -1.51068e-18)
(0.012198 2.98295 0)
(0.00902624 2.90488 0)
(0.0211637 2.93132 2.39084e-24)
(0.00411383 2.82407 0)
(0.0263737 2.91884 0)
(-0.000826393 2.74477 0)
(0.310412 3.59202 0)
(-0.122704 3.67543 0)
(0.152744 3.28259 -7.41591e-19)
(0.00613248 3.015 0)
(-0.014499 2.12577 0)
(-0.0182827 2.12207 1.85791e-20)
(-0.00233015 1.875 -2.43794e-20)
(0.449307 0.134598 -3.69013e-19)
(0.37035 -0.000533004 -3.5609e-19)
(0.428694 0.161213 -1.10879e-18)
(0.357446 0.0505769 -7.31235e-19)
(0.256172 0.988385 0)
(0.338486 1.27612 -3.3392e-19)
(0.414939 1.18021 5.51582e-19)
(0.987958 0.00807835 0)
(0.943451 0.00578848 0)
(1.00029 0.000675138 0)
(1.00254 0.00907253 0)
(1.00315 0.00892201 -2.80751e-18)
(0.992126 0.00950489 2.12153e-18)
(-0.0209935 0.782709 0)
(-0.0252482 0.587573 0)
(0.00540029 0.897085 0)
(-0.0173699 0.797579 0)
(-0.019333 0.607509 0)
(0.119163 0.194994 2.37556e-19)
(0.169853 0.168048 0)
(0.993607 -0.00769817 0)
(0.953981 -0.00646725 0)
(0.766634 0.0503373 0)
(0.700339 0.054787 0)
(0.659398 -0.0241206 0)
(0.967725 -0.00611597 0)
(0.629856 0.0606884 0)
(0.456739 -0.0350754 1.55892e-18)
(-0.0405174 2.862 8.22072e-19)
(0.0336474 2.91423 0)
(0.0427181 2.89159 0)
(0.00375269 2.70117 0)
(-0.00877421 2.98626 9.71675e-19)
(-0.0143667 2.89478 0)
(-0.0110708 2.99178 -2.98349e-18)
(-0.0115903 2.92964 1.01452e-18)
(0.0514012 1.29101 0)
(0.0514781 1.36341 0)
(-0.0243752 2.06651 -4.65299e-22)
(-0.0161811 2.02931 0)
(-0.00543858 1.83634 0)
(0.938139 -0.00560858 0)
(0.855936 -0.010493 0)
(0.86374 0.00608346 0)
(0.949157 -0.00640161 0)
(0.883091 -0.00792095 0)
(0.499623 1.11924 -2.34363e-19)
(0.547471 1.19073 0)
(0.335654 0.850249 3.49106e-20)
(0.279632 0.715148 0)
(0.913796 1.03924 -1.37167e-19)
(1.02659 0.839402 2.66104e-19)
(0.400931 1.33914 0)
(0.545885 1.29356 0)
(0.596847 1.22617 0)
(0.0942069 0.171556 -3.07416e-19)
(0.360569 0.205999 0)
(0.322765 0.0922344 2.07426e-19)
(0.989162 0.895468 0)
(1.05284 0.73764 0)
(1.08218 0.671299 -1.93432e-19)
(1.11258 0.579643 0)
(1.16706 0.370873 4.4501e-20)
(0.957186 -0.00723611 0)
(0.962564 -0.00820727 0)
(0.900562 -0.00728626 0)
(0.983881 -0.00815231 0)
(0.974336 -0.00809386 0)
(0.936427 -0.00652428 0)
(1.0002 0.00250258 0)
(1.00077 0.00124721 0)
(0.999999 0.000775437 0)
(0.0402865 2.0765 4.57523e-19)
(0.148151 1.77218 0)
(0.0117796 2.19503 7.1005e-19)
(0.0582039 1.87853 -6.03313e-19)
(0.173304 1.13007 -2.58182e-19)
(0.0560527 0.995204 0)
(0.122392 0.993625 0)
(0.01162 0.828394 0)
(0.0309368 0.640301 0)
(-0.00964114 2.23828 -1.23427e-21)
(0.0231289 2.00852 0)
(-0.00832724 2.23157 -5.96941e-20)
(0.0178933 2.00509 1.07022e-19)
(0.00544044 0.797546 0)
(0.014484 0.774035 0)
(0.018489 0.603562 0)
(-0.012499 0.745391 0)
(-0.00395664 0.529876 0)
(0.936456 0.0131827 0)
(0.850637 -0.011489 0)
(0.926447 0.004355 0)
(0.843414 -0.012191 0)
(0.81257 0.000492608 0)
(0.900894 0.021057 0)
(0.876514 0.0259874 0)
(0.788975 -0.00194648 0)
(0.01019 3.06748 -9.54845e-21)
(0.0151977 3.059 0)
(0.0123715 2.97032 0)
(0.00759779 2.87662 0)
(0.901197 3.99081 0)
(1.1967 3.38427 9.3993e-19)
(0.0830782 3.09646 0)
(-0.0159148 2.92135 0)
(0.0689917 1.45755 0)
(0.0230779 1.81777 0)
(0.0395291 1.67726 0)
(-0.034334 2.5367 4.98884e-21)
(-0.0239784 2.31053 0)
(-0.0532115 2.43473 0)
(0.0162559 1.93405 5.57526e-21)
(-0.014707 2.21291 2.7505e-20)
(-0.0120821 2.17481 2.47121e-20)
(0.00306023 1.89913 0)
(0.465918 0.111039 5.57729e-19)
(0.379217 -0.0122999 -5.47907e-19)
(0.231172 1.57693 0)
(0.281056 0.732227 -3.32606e-19)
(0.178863 1.67444 -1.10655e-18)
(0.242164 1.19963 1.10754e-18)
(0.901941 0.00624097 0)
(0.967233 0.0104568 0)
(0.975128 0.00972391 0)
(0.923167 0.00605649 0)
(-0.0279084 0.755898 0)
(-0.0253584 0.767239 0)
(-0.0203582 0.554029 0)
(0.266108 0.210024 6.64106e-19)
(0.224021 0.195537 -7.88587e-19)
(0.234093 0.146303 0)
(1.08931 0.0850771 2.85911e-20)
(1.07323 0.0385679 0)
(1.00845 0.0415204 0)
(0.905748 -0.00379801 0)
(0.492221 0.086929 0)
(0.546099 0.0627315 -2.49908e-18)
(0.401212 -0.0191241 9.4149e-19)
(0.0111353 2.97724 8.60589e-19)
(-0.0329487 2.86186 4.58923e-20)
(0.00840282 3.05332 -2.00962e-20)
(0.0155912 3.04334 7.52844e-19)
(-0.0118534 3.00001 3.33026e-20)
(-0.0123259 2.9523 -1.34301e-22)
(-0.0150198 3.01334 -6.19673e-19)
(0.0142358 3.02672 4.35703e-19)
(0.00755613 3.03472 -7.09458e-19)
(0.93318 0.00165926 0)
(0.938562 -0.00172856 0)
(0.846234 -0.0106166 0)
(0.956663 0.0113955 0)
(0.943017 0.0126229 0)
(0.882009 0.00600517 0)
(0.917417 0.0170046 0)
(0.926226 0.0144223 0)
(0.838409 0.00336553 0)
(0.674146 1.42121 -6.7748e-21)
(0.692956 1.53285 0)
(0.123347 0.308153 7.25246e-20)
(0.196862 0.632074 5.7604e-19)
(0.233448 0.685105 -3.36448e-19)
(0.218377 0.515122 6.67532e-19)
(0.325419 0.799264 1.62366e-18)
(0.121602 0.223064 3.88006e-19)
(0.405789 0.181207 7.77989e-19)
(0.389707 0.200954 2.01061e-19)
(0.343393 0.067774 3.86412e-19)
(1.15851 0.432977 3.62885e-20)
(1.18478 0.236509 3.39606e-20)
(0.00153465 2.23928 2.82801e-19)
(0.0464313 1.94124 0)
(0.965891 0.0315772 0)
(0.941979 0.018377 0)
(0.864377 -0.0163611 0)
(0.0125414 3.07487 0)
(0.0169577 2.94414 1.3403e-18)
(0.0139769 2.95692 0)
(0.00576147 2.84972 -1.33021e-18)
(0.00896376 3.09104 3.2838e-19)
(0.0115803 3.08271 0)
(0.714044 1.83138 -1.66857e-19)
(1.24114 2.64005 5.65022e-19)
(0.699135 2.01044 -1.39117e-18)
(0.0227023 2.97711 -7.57281e-19)
(0.0413489 3.00036 0)
(-0.0382547 2.88049 0)
(-0.0116729 2.20917 -1.60325e-20)
(-0.0127606 2.21917 -6.11178e-20)
(0.0213747 1.98368 -3.52347e-21)
(0.262653 1.37995 1.07101e-18)
(0.266161 0.522665 -7.34413e-19)
(0.0697291 1.99242 7.96659e-19)
(0.121137 1.86394 -9.52575e-19)
(0.207857 1.51797 1.02254e-19)
(0.00672083 3.1202 -1.84147e-18)
(0.0131559 3.12094 2.02567e-18)
(-0.00501086 2.98034 9.16011e-19)
(-0.00139841 2.97517 -8.83665e-19)
(-0.0179262 2.87752 -9.32993e-19)
(0.0126133 3.09983 -2.44609e-18)
(0.00486559 3.1055 2.48035e-18)
(0.245775 0.669712 0)
(0.201161 0.637455 -1.21618e-18)
(0.0648546 0.209384 5.34623e-19)
(0.337107 0.914657 1.1508e-18)
(0.187799 0.264489 -1.77267e-18)
(1.1732 0.169646 6.86153e-20)
(1.18436 0.294836 0)
(1.1682 0.11713 -1.5632e-20)
(-0.00627101 2.25341 -1.89759e-21)
(-0.0032742 2.24193 0)
(0.0362354 1.9759 0)
(0.310762 1.3026 -3.82414e-19)
(0.349397 1.14243 -8.2568e-19)
(0.216309 0.372004 1.47258e-18)
(1.00642 -0.00974601 0)
(1.00773 -0.00781359 5.16547e-19)
(0.0337048 1.27039 0)
(-0.00429389 1.20477 0)
(1.00245 0.00331817 1.39812e-21)
(1.00327 0.00796135 1.05948e-18)
(-0.0410172 2.54052 -6.21631e-21)
(-0.0370777 2.57394 0)
(0.0421853 3.1741 5.52534e-19)
(0.380058 3.55436 0)
(1.12379 0.683531 -7.64066e-20)
(1.01204 0.0108781 -2.75048e-21)
(1.02077 -0.00910762 0)
(1.00161 0.00020746 1.36147e-22)
(0.106538 1.36131 0)
(0.144424 2.59514 0)
(0.0319232 1.31724 0)
(-0.00394167 2.64118 5.48778e-20)
(-0.0235694 2.5905 3.75833e-20)
(0.999766 0.0261201 2.5449e-21)
(1.06143 0.00463111 0)
(1.09795 0.0258321 0)
(0.00974261 1.84662 0)
(-0.0324772 2.58548 0)
(0.0131118 1.27629 0)
(0.285167 1.4823 -1.38021e-19)
(1.01145 -0.00910606 0)
(1.00969 -0.0130313 0)
(1.00228 0.000901267 6.61952e-19)
(1.00549 -0.00495943 -7.79461e-19)
(1.00115 -0.000886942 0)
(0.0276868 1.54673 0)
(0.0427534 1.37015 0)
(0.0454294 1.48332 0)
(0.0265593 1.26504 0)
(0.00602136 1.19526 0)
(-0.00408764 1.16336 0)
(1.03504 -0.00477364 0)
(1.01963 0.0150126 -9.43935e-22)
(0.783366 1.30379 2.37529e-19)
(1.00235 0.000343995 -6.60859e-19)
(1.00344 0.00455442 7.88393e-19)
(1.0013 0.00211728 0)
(1.01137 0.00972471 6.58364e-19)
(1.00703 0.00754299 -8.00771e-19)
(1.00744 0.0113005 0)
(-0.0355245 2.6076 0)
(-0.0355281 2.58672 1.17264e-20)
(-0.0362361 2.5986 -6.94531e-21)
(1.2273 0.260761 6.2423e-19)
(1.15782 0.0852176 0)
(0.0461691 3.09044 -1.06956e-18)
(0.0511755 2.87048 -7.55202e-20)
(0.105494 3.20146 1.43233e-18)
(0.123842 3.21412 -3.20036e-19)
(0.146528 3.26216 0)
(0.0230339 3.13801 2.95575e-19)
(0.0624902 3.16173 1.06558e-18)
(0.0627561 3.17932 -5.52278e-19)
(0.0275801 3.1288 0)
(0.648085 0.303367 0)
(0.595861 0.352171 0)
(1.1027 0.714807 1.94626e-19)
(1.06914 0.84965 -2.04479e-19)
(1.16492 0.602629 0)
(1.19636 0.531647 0)
(1.01588 0.0120282 -1.22378e-18)
(1.0148 0.012788 1.53884e-18)
(1.0255 -0.00887797 0)
(1.02385 -0.0104058 0)
(1.00661 0.00283347 0)
(1.01085 0.0041239 0)
(1.00444 0.00212516 0)
(1.00956 0.00653494 0)
(1.00702 0.00511043 0)
(1.00454 0.00532769 0)
(0.0943105 1.35782 0)
(0.0773304 1.34299 0)
(0.132933 1.40648 0)
(0.128112 1.41063 0)
(0.151701 2.61902 0)
(0.193558 2.68583 -4.51757e-19)
(0.110131 2.68008 0)
(0.084469 2.68173 2.01148e-19)
(0.0306903 2.68778 -2.11158e-19)
(0.0239031 1.32668 0)
(0.021319 1.25816 0)
(0.026506 1.33064 0)
(0.0313312 1.27553 0)
(-0.00456296 1.99379 -1.76749e-20)
(-0.0252319 2.61821 2.0385e-20)
(-0.0133806 2.68484 4.22984e-20)
(-0.0227982 2.69464 0)
(-0.0272315 2.62422 -8.46065e-20)
(-0.0261165 2.61807 -3.62856e-20)
(0.00393548 1.99296 1.45437e-20)
(-0.0144979 2.41689 -2.73489e-20)
(-0.0186447 2.43671 -4.79466e-20)
(1.01031 0.0371007 1.2396e-18)
(1.007 0.0168113 -1.54463e-18)
(1.00379 0.0426978 -1.26664e-18)
(0.978846 0.0293274 1.5938e-18)
(1.06301 0.00783362 0)
(1.04853 -0.00712807 0)
(1.09005 0.0346648 0)
(1.07383 0.0133707 0)
(1.07259 -0.000445908 0)
(1.13685 0.07441 0)
(1.11157 0.0429931 0)
(1.11353 0.0355816 0)
(-0.0456014 2.44592 -5.55634e-21)
(-0.00766034 2.06705 0)
(-0.0247474 2.25827 0)
(-0.0341894 2.6062 7.64773e-21)
(-0.028293 2.61806 -4.67417e-22)
(-0.00120173 1.61456 3.37502e-20)
(0.0202577 1.57215 -3.41075e-20)
(0.0209984 1.39897 0)
(0.0334982 1.41171 0)
(0.0158359 1.41889 0)
(-0.00128023 1.29009 0)
(-0.00972871 1.21848 0)
(0.376085 1.5022 2.1872e-19)
(0.419427 1.51085 1.31006e-19)
(0.604562 2.46187 -2.54453e-19)
(0.398367 2.5612 7.31429e-19)
(0.353416 2.07123 8.32758e-20)
(1.02057 -0.00811223 0)
(1.0157 -0.00942474 0)
(1.0148 -0.0132493 0)
(1.00762 -0.00071015 0)
(1.00492 -0.000649121 0)
(1.00796 -0.00461339 0)
(1.00948 -0.00362872 0)
(1.01451 -0.00445829 0)
(1.02041 0.0158118 1.20102e-18)
(1.01772 0.0148382 -1.52369e-18)
(1.02093 0.0179113 -1.21058e-18)
(1.01877 0.0164058 1.51483e-18)
(0.74506 1.34667 0)
(0.678889 1.38691 1.95902e-19)
(0.850262 1.2239 5.77023e-20)
(0.881977 1.19563 -7.65609e-20)
(1.16466 2.62291 3.46158e-19)
(0.794379 0.116087 6.15048e-19)
(1.16407 0.0993261 0)
(1.20071 0.187678 -5.04923e-19)
(1.18145 0.149172 -2.10091e-20)
(1.01203 0.151152 0)
(0.0875824 3.02544 3.96224e-19)
(0.0888768 2.90549 -1.27712e-18)
(0.0372251 2.36474 8.11551e-19)
(0.134482 -0.0676191 -3.91675e-19)
(0.347403 3.45634 -2.26744e-19)
(0.197097 3.34664 0)
(0.227924 3.40677 2.95359e-19)
(0.230318 3.08361 -1.33883e-18)
(0.264498 3.20402 0)
(0.00753942 3.12234 5.50567e-20)
(0.0180094 3.13112 -6.30442e-19)
(0.0170219 3.12704 9.27921e-19)
(0.0340739 3.13978 0)
(0.0319311 3.14996 0)
(1.2621 2.59002 0)
(0.516847 0.831126 -5.48499e-19)
(0.99236 1.02978 2.64536e-20)
(0.962119 1.07069 0)
(0.826888 0.959351 -1.3001e-19)
(1.04802 0.894018 2.82734e-20)
(0.406655 0.387626 -9.67078e-19)
(0.705914 0.31958 -2.48086e-20)
(0.660867 0.24615 4.35246e-19)
(0.614035 0.372519 3.21828e-20)
(0.527263 0.349877 -1.29838e-18)
(0.668524 0.332292 0)
(0.698146 0.419209 7.5212e-19)
(0.70405 0.423977 0)
(0.646195 0.361399 0)
(0.60551 0.303429 0)
(0.761351 0.643917 4.33096e-19)
(1.23194 0.289834 -5.14836e-19)
(1.2155 0.431508 0)
(1.22811 0.377611 0)
(0.752921 0.178601 6.50359e-19)
(0.824692 0.540912 -4.09435e-19)
(0.744873 0.496031 7.26044e-19)
(0.94981 0.428235 -7.76205e-19)
(1.01899 0.0144561 8.16848e-19)
(1.01741 0.0135307 -8.2362e-19)
(1.01618 0.0142193 0)
(1.0364 -0.00500307 0)
(1.03005 -0.00797051 -7.74018e-19)
(1.02823 -0.01077 7.66087e-19)
(1.02488 0.0102278 0)
(1.02308 0.0142732 0)
(1.01243 0.0044754 0)
(1.01454 0.00903637 0)
(1.01595 0.00387324 0)
(1.01525 0.00272549 0)
(0.0613253 1.35192 0)
(0.0613087 1.31448 0)
(0.143253 1.40265 2.80178e-20)
(0.26374 1.47561 6.06055e-20)
(0.156841 1.44758 1.32448e-19)
(0.180451 1.45377 -2.15256e-19)
(0.148558 1.4088 0)
(0.128307 1.57558 -1.40238e-19)
(0.127178 1.56771 0)
(0.349349 2.03042 -1.21204e-19)
(0.341112 2.34576 6.88468e-19)
(0.179777 1.45014 1.22262e-19)
(0.264095 1.37544 6.92608e-21)
(0.191268 1.3769 -5.63614e-21)
(0.279686 1.31141 -1.34956e-19)
(0.251859 1.57556 0)
(0.254937 1.6246 1.3349e-19)
(0.0293122 2.27922 -3.12122e-20)
(0.0382233 2.68301 0)
(0.0675402 2.41867 1.35966e-19)
(0.0602257 2.4386 0)
(0.0710001 2.69785 -2.23022e-19)
(0.0449139 2.71537 0)
(0.0253069 1.41707 6.20954e-22)
(0.033625 1.47201 0)
(0.0318513 1.38223 0)
(0.0244929 1.38471 -7.13253e-22)
(-0.00316505 2.66953 -7.978e-21)
(0.023542 2.70816 2.44472e-19)
(0.00686012 2.73898 1.5125e-21)
(-0.00180995 1.8414 2.34869e-20)
(-0.00839388 1.68565 7.34023e-21)
(0.0216234 1.30507 0)
(1.95822e-05 1.23902 0)
(0.0395697 1.57059 3.33492e-20)
(0.031455 1.44692 1.99162e-20)
(0.0318283 1.51572 -2.77324e-20)
(0.0420087 1.6002 0)
(-0.0440234 2.29316 3.54752e-20)
(-0.0491224 2.56224 -2.09187e-20)
(-0.0256382 2.46535 -4.77008e-21)
(-0.0159859 1.85854 -2.84529e-20)
(-0.0327155 2.51474 -8.45295e-21)
(-0.0289297 2.45355 5.69027e-20)
(1.0189 0.0207558 -8.2102e-19)
(1.01514 0.0264182 8.24175e-19)
(1.01424 0.0163039 0)
(1.01254 0.066507 1.1302e-18)
(0.992696 0.053808 -1.29766e-18)
(0.955158 0.049225 1.45076e-18)
(1.01271 0.108335 -1.54163e-19)
(1.04306 -0.0051825 0)
(1.05096 -0.0011915 7.43335e-19)
(1.03951 -0.00848785 -7.42593e-19)
(1.07087 0.0398732 -4.42514e-20)
(1.06327 0.0267851 3.81226e-19)
(1.06462 0.0619105 0)
(1.05231 0.0516036 -1.37074e-19)
(1.03255 0.0418662 0)
(1.02543 0.0375268 0)
(1.0278 0.0127999 0)
(1.02428 0.0154833 0)
(1.0406 0.0315517 2.81636e-19)
(1.03916 0.0270676 -6.22347e-19)
(1.05197 0.0357022 -2.98569e-19)
(1.04798 0.0356088 -3.2901e-19)
(1.07473 0.0651912 6.34981e-19)
(1.098 0.0520801 0)
(1.1038 0.0899525 0)
(-0.0477964 2.28749 -7.26935e-21)
(-0.0237101 2.0528 -7.48004e-21)
(-0.0279239 2.04408 0)
(-0.0404942 2.46272 7.79408e-21)
(-0.0282703 2.40489 1.27843e-20)
(-0.058437 2.46738 -4.33579e-21)
(-0.0283996 2.63181 3.32019e-20)
(-0.0369165 2.57528 -2.4578e-21)
(-0.0310255 2.53042 8.24566e-21)
(-0.0262443 2.62409 -1.07002e-20)
(-0.0293694 2.62613 1.41456e-20)
(-0.00330711 1.50144 -4.34955e-23)
(-0.00111719 1.64567 2.72076e-20)
(0.367559 1.42871 -8.53404e-20)
(0.363819 1.35955 6.17741e-20)
(0.630686 1.43162 -1.89522e-19)
(0.509179 1.50114 -1.26446e-19)
(0.555178 1.46618 0)
(0.605371 2.43343 2.18447e-19)
(0.666702 2.42998 3.4899e-19)
(0.418901 2.52667 8.16407e-20)
(0.401399 2.54921 -7.08648e-19)
(0.499393 2.49233 6.15701e-19)
(0.554083 2.48052 0)
(0.486816 2.53403 -5.75529e-19)
(0.261265 2.5988 1.22318e-18)
(0.366738 2.56973 -6.19842e-20)
(0.285387 2.65919 -1.68494e-18)
(0.963579 2.39402 7.48758e-19)
(0.84604 2.39287 0)
(1.01134 0.0011761 2.68796e-20)
(1.01519 -0.00536421 -2.1937e-20)
(1.01763 -0.00415314 -4.01203e-19)
(1.01543 -0.00121871 3.99832e-19)
(1.01293 0.00164163 0)
(0.620035 1.2926 0)
(0.654949 1.17939 0)
(0.763966 1.10044 0)
(0.641607 1.1402 0)
(1.19583 2.63936 5.03531e-20)
(1.08685 2.3862 0)
(0.824437 2.20335 3.90908e-21)
(0.824777 2.45552 0)
(0.917431 2.54363 -4.69896e-19)
(0.949175 2.49399 3.14025e-19)
(0.809946 0.138834 0)
(0.773053 0.133283 1.68596e-19)
(0.9199 0.146662 9.76761e-19)
(0.840729 0.124116 -3.67698e-19)
(0.806394 0.0825679 -1.11899e-18)
(1.08171 0.224697 -9.31858e-19)
(0.98928 0.284167 -7.3378e-21)
(0.926629 0.325328 8.90074e-19)
(1.01903 0.235082 7.48897e-19)
(0.936354 0.184518 -1.29822e-18)
(0.899334 0.197941 1.61926e-19)
(0.940308 0.29158 -3.42616e-19)
(0.912973 0.200862 0)
(1.00126 0.187985 6.37226e-19)
(1.05357 0.202112 0)
(1.04966 0.207352 0)
(1.12052 0.114283 2.93187e-19)
(1.06408 0.175077 -1.01638e-20)
(1.07458 0.228128 -1.66521e-19)
(1.11137 0.195643 0)
(1.02364 0.0460206 6.35616e-19)
(1.03877 0.0598252 7.92748e-19)
(1.03295 0.0437459 -6.30359e-19)
(1.04064 0.0648916 -5.31802e-19)
(1.01506 0.0704454 -8.00129e-19)
(0.990795 0.156692 0)
(0.993809 0.10097 0)
(0.964589 0.0629545 -5.147e-19)
(0.91372 0.0925531 2.03704e-19)
(1.03586 0.107823 7.36888e-19)
(1.07332 0.125081 -8.57206e-19)
(1.06474 0.163628 7.68861e-19)
(1.03497 0.143052 0)
(1.08261 0.112429 0)
(1.05707 0.102921 -3.48921e-19)
(1.04405 0.101542 -6.00264e-19)
(0.585663 1.10932 1.30886e-19)
(0.624208 1.44168 -3.71414e-20)
(1.14658 2.73633 -2.66296e-19)
(1.19926 3.11694 6.60614e-21)
(1.2549 2.74143 -1.81957e-19)
(1.29675 2.71325 4.23916e-20)
(1.27227 2.33413 -3.68521e-20)
(1.18704 3.02263 -9.06821e-20)
(1.20563 2.97931 2.50409e-19)
(1.18149 3.27094 -1.16078e-19)
(1.40157 2.98656 1.43591e-19)
(1.41367 2.92524 0)
(0.548246 0.853707 -4.99856e-20)
(0.237427 1.22884 5.05656e-19)
(0.494843 0.463972 6.16463e-19)
(0.368376 0.226604 7.07269e-19)
(0.546843 0.379791 7.32006e-19)
(0.556348 0.476664 -1.17563e-18)
(0.557068 0.474715 9.62699e-19)
(0.511299 0.409553 -3.72504e-19)
(0.445052 0.341508 8.43372e-19)
(0.768248 0.238328 -3.71331e-19)
(0.728931 0.278821 0)
(0.701498 0.207688 1.08978e-20)
(0.731213 0.516092 3.95834e-19)
(0.689657 0.487979 -1.43963e-18)
(0.652406 0.470157 2.33338e-20)
(0.649424 0.445302 0)
(0.685155 0.738241 3.98585e-19)
(0.798388 0.788795 4.57247e-19)
(0.727834 0.83794 -5.30202e-19)
(0.865638 0.806759 -1.71473e-19)
(0.904834 0.852758 -4.42741e-20)
(0.912449 0.859415 4.54043e-20)
(0.859132 0.669551 -7.22996e-19)
(0.92548 0.720161 1.59492e-19)
(0.977173 0.724689 0)
(0.975986 0.701813 -2.09932e-19)
(1.03019 0.311049 2.37563e-19)
(1.14496 0.313497 3.02821e-19)
(1.0659 0.2642 3.81713e-19)
(0.988143 0.358293 -4.6627e-19)
(1.02568 0.466127 0)
(1.11308 0.413015 0)
(0.885554 0.396338 8.51177e-21)
(0.84568 0.287687 0)
(0.870765 0.271945 4.22524e-19)
(0.90998 0.321937 1.00836e-20)
(0.950026 0.454472 2.18999e-18)
(0.874618 0.524651 5.57005e-19)
(0.900109 0.471816 -6.02187e-19)
(0.817654 0.449658 6.38422e-19)
(0.804837 0.430982 3.85855e-19)
(0.793503 0.401661 -3.78224e-19)
(1.02795 -0.000715978 6.63639e-19)
(1.02025 0.000226962 0)
(1.01892 0.00109162 4.32959e-19)
(1.02256 -0.00108786 -9.80219e-19)
(1.02241 0.00419857 4.77137e-19)
(1.02014 0.0111231 -9.98516e-19)
(1.02103 0.0108712 0)
(1.01998 0.0116937 -2.07933e-19)
(1.01635 0.00752053 5.21038e-19)
(1.01673 0.0106505 -2.6214e-19)
(1.01745 0.0102219 1.9206e-19)
(0.0317048 1.32119 0)
(0.0373979 1.3469 0)
(0.0429733 1.32764 0)
(0.0420672 1.28988 0)
(0.0773839 1.35647 6.41844e-20)
(0.0911283 1.33173 -4.13743e-20)
(0.0520129 1.52821 -2.31313e-20)
(0.108704 1.363 -3.57304e-20)
(0.0388856 1.455 -2.71688e-20)
(0.0429744 1.45154 2.08906e-20)
(0.0686504 1.35758 -3.58519e-20)
(0.0577285 1.36221 8.7505e-21)
(0.0468197 1.34054 1.43442e-21)
(0.0378547 1.35988 -2.56676e-21)
(0.108236 2.38988 -1.49345e-19)
(0.0978262 2.43296 0)
(0.156473 2.0374 1.14372e-19)
(0.119402 1.71338 5.52356e-20)
(0.22031 2.02793 -9.41905e-20)
(0.218536 2.43606 0)
(0.241279 2.39654 -7.00122e-19)
(0.301435 2.38949 5.02408e-19)
(0.255323 2.00306 -2.50523e-19)
(0.145097 2.16457 1.70928e-19)
(0.113915 2.27125 0)
(0.0192178 1.86584 -6.24275e-20)
(-0.0115434 2.40807 -1.07404e-19)
(-0.00293939 2.15169 0)
(0.005711 2.46681 -1.46938e-20)
(0.024564 2.31042 4.06514e-20)
(0.0190116 1.40296 -1.75844e-22)
(0.00941055 1.3878 1.74728e-21)
(0.00823273 1.39277 -4.91924e-21)
(0.0195759 1.39172 4.55445e-21)
(0.0238056 1.42107 0)
(0.00309836 1.37309 0)
(-0.00568681 1.28888 6.85815e-21)
(-0.00996755 1.35767 -3.40048e-21)
(-0.00128677 1.35977 0)
(0.000211403 1.29047 -1.1335e-21)
(-0.00484611 1.21181 -2.50433e-21)
(1.04158 0.0136886 0)
(1.04812 0.00926017 -6.95321e-20)
(1.03892 0.0224929 -5.01867e-19)
(1.04894 0.0214306 0)
(1.05363 0.0207969 0)
(1.03627 0.0117058 -6.66065e-21)
(1.03042 0.0119538 8.04311e-19)
(1.03202 0.0161653 9.7849e-19)
(1.02587 0.0199775 0)
(1.02249 0.0205439 0)
(1.03551 0.0243787 5.00273e-19)
(1.02579 0.0262716 0)
(1.02397 0.0265038 0)
(-0.0379268 2.03911 0)
(-0.0054857 1.65411 -7.80246e-21)
(-0.0208767 1.77561 -2.61201e-20)
(-0.00450908 1.36129 0)
(-0.0175182 1.55369 1.28637e-20)
(-0.0091359 1.44911 -1.05469e-20)
(0.00763165 1.37311 0)
(0.405327 1.66503 0)
(0.35594 1.29963 -9.62157e-20)
(0.281218 1.34478 0)
(0.424035 1.30616 4.28271e-20)
(0.463988 1.4592 0)
(0.446855 1.40411 4.97313e-21)
(1.03877 2.68672 -1.60732e-20)
(0.979231 2.41521 -9.4079e-19)
(0.937448 2.20439 1.07376e-18)
(0.861114 2.38592 2.4789e-19)
(0.852616 2.50354 0)
(0.920321 2.50149 0)
(0.947419 2.3873 0)
(0.924254 2.37454 -9.64514e-19)
(0.694521 2.47508 -4.1138e-19)
(0.802702 2.45901 -1.05019e-19)
(0.810558 2.43737 7.93777e-20)
(0.703385 2.40411 0)
(0.807269 2.39791 0)
(0.769371 2.41316 -3.76435e-19)
(0.768564 2.4823 0)
(0.600207 1.07255 0)
(0.514282 0.896473 -5.74968e-19)
(0.517417 0.961435 -3.35174e-20)
(0.49979 1.09534 0)
(0.486999 1.00907 8.80961e-19)
(0.761269 0.875255 -1.51029e-19)
(0.774858 1.01225 0)
(0.751736 0.990256 2.1669e-19)
(0.638726 1.02088 0)
(0.633098 0.937231 0)
(1.16377 2.76965 -2.42611e-19)
(1.13887 2.82878 -1.05575e-19)
(0.926394 2.35917 1.00981e-19)
(0.902513 2.33746 -8.41384e-20)
(1.13258 2.74675 0)
(1.08432 2.71535 1.01159e-19)
(1.09981 2.50555 -3.17951e-19)
(0.99886 2.25712 -2.83137e-20)
(0.499426 1.35717 0)
(0.515717 1.09216 -1.15343e-19)
(0.576474 1.17501 0)
(0.857994 0.208304 0)
(0.792615 0.157443 0)
(0.736793 0.137446 0)
(0.858843 0.207126 -6.48639e-19)
(0.780298 0.202686 3.88092e-19)
(0.928076 0.0778018 -4.21757e-19)
(0.944648 0.1261 0)
(0.920379 0.135621 1.81262e-19)
(0.864092 0.0982736 7.26456e-19)
(0.82892 0.0690296 -4.5488e-19)
(1.10282 3.36455 -6.68106e-19)
(1.16752 3.28718 0)
(1.12287 3.44976 -1.56087e-18)
(0.662198 3.59526 1.29898e-18)
(1.03382 3.09035 1.08694e-19)
(0.520558 0.833983 5.87574e-19)
(0.508469 0.802447 0)
(0.383218 0.493369 -1.54531e-19)
(0.466661 0.677742 8.92538e-19)
(0.521603 0.470108 -2.14614e-19)
(0.511538 0.513822 2.43635e-19)
(0.687337 0.548894 5.10543e-19)
(0.713466 0.576919 0)
(0.644191 0.613731 0)
(0.613952 0.5632 0)
(0.987927 0.614016 1.14937e-19)
(0.931341 0.568835 -5.38891e-19)
(0.953685 0.600803 4.02995e-19)
(1.01087 0.522941 -4.09117e-19)
(1.05286 0.496891 0)
(1.05897 0.594739 -1.0629e-19)
(0.848408 0.391189 -8.70327e-19)
(0.844161 0.385099 -1.10643e-18)
(0.807395 0.380281 6.8336e-19)
(0.806141 0.343946 -7.00934e-19)
(0.8422 0.29889 -5.47406e-19)
(0.80438 0.301002 6.72843e-19)
(1.02652 0.00607228 -4.99843e-19)
(1.02618 0.00618546 1.00766e-18)
(1.02973 0.000349404 6.43857e-19)
(1.03365 0.000921795 -7.73154e-19)
(1.03359 0.0105511 0)
(1.02983 0.0107761 -1.2578e-18)
(0.0870606 1.6625 2.08259e-20)
(0.0477056 1.58924 0)
(0.0972875 1.71129 1.41651e-19)
(0.104224 1.68764 -1.2929e-19)
(0.0359178 1.52906 4.34134e-20)
(0.0313151 1.51709 0)
(0.00278095 1.69126 0)
(-0.00727499 1.49631 -4.9218e-21)
(-0.00819223 1.42901 4.42642e-21)
(-0.0118261 1.5473 -1.2405e-21)
(-0.00813897 1.89993 -1.01893e-20)
(-0.0287927 1.94776 6.84177e-21)
(0.48986 1.37901 -3.15906e-19)
(0.492907 1.37611 3.44047e-19)
(0.436947 1.29592 -5.36591e-20)
(0.423328 1.30056 1.09525e-20)
(0.61159 1.30187 0)
(0.544562 1.39297 7.52462e-20)
(0.54532 1.39583 -7.32103e-20)
(0.469939 1.27556 5.11753e-20)
(0.507917 1.2389 0)
(0.57429 1.20696 0)
(0.668805 2.43744 6.06202e-19)
(0.662316 2.46017 1.36292e-18)
(0.719602 2.47635 -9.36236e-19)
(0.622497 2.44827 -2.10637e-19)
(0.554522 2.54687 2.9333e-19)
(0.495154 2.508 -7.62012e-19)
(0.988179 2.39254 -6.05204e-19)
(1.02251 2.412 0)
(0.943669 2.18924 -6.67725e-19)
(1.05454 2.69591 0)
(1.05361 2.67795 0)
(0.618405 2.317 1.62312e-20)
(1.12355 3.08343 7.69358e-20)
(1.00698 2.98605 -1.33988e-19)
(0.337434 0.873868 0)
(0.358296 0.783639 -3.1174e-19)
(0.545539 0.708933 -3.19577e-19)
(0.386336 2.16471 0)
(0.412749 2.75234 -7.64524e-20)
(0.424148 2.49261 0)
(0.692123 0.702085 -8.5126e-19)
(0.754465 0.695086 1.19665e-18)
(0.763702 0.657268 -1.18714e-18)
(0.682378 0.661791 -1.08728e-19)
(0.736641 0.618112 -4.52696e-19)
(0.97924 2.77146 -5.82772e-20)
(1.01618 2.77368 -2.30112e-19)
(0.572712 2.24647 4.23302e-19)
(0.61787 1.7614 -3.39236e-19)
(0.71465 1.87933 -5.18825e-19)
(0.982692 2.41307 -1.39989e-19)
(0.980643 2.36985 3.86386e-19)
(0.663127 1.80366 3.45439e-20)
(0.468434 1.32646 1.8648e-19)
)
;

boundaryField
{
    wall-4
    {
        type            noSlip;
    }
    velocity-inlet-5
    {
        type            fixedValue;
        value           uniform (1 0 0);
    }
    velocity-inlet-6
    {
        type            fixedValue;
        value           uniform (0 3 0);
    }
    pressure-outlet-7
    {
        type            zeroGradient;
    }
    wall-8
    {
        type            noSlip;
    }
    frontAndBackPlanes
    {
        type            empty;
    }
}


// ************************************************************************* //
