/*--------------------------------*- C++ -*----------------------------------*\
  =========                 |
  \\      /  F ield         | OpenFOAM: The Open Source CFD Toolbox
   \\    /   O peration     | Website:  https://openfoam.org
    \\  /    A nd           | Version:  6
     \\/     M anipulation  |
\*---------------------------------------------------------------------------*/
FoamFile
{
    version     2.0;
    format      ascii;
    class       volScalarField;
    location    "56";
    object      p;
}
// * * * * * * * * * * * * * * * * * * * * * * * * * * * * * * * * * * * * * //

dimensions      [0 2 -2 0 0 0 0];

internalField   nonuniform List<scalar> 
918
(
0.524132
1.23747
0.00605692
0.52404
-0.0112122
1.20518
-0.506333
0.645796
0.505271
-0.12626
-0.0655911
0.505494
1.06226
0.828089
-1.17999
-0.018516
0.621621
-0.427319
0.503278
-0.0708629
0.668516
0.511957
0.514424
0.505212
0.566925
0.783884
0.939009
-0.00326417
0.00993676
0.00519805
-0.0129259
-0.0335371
-0.0293063
1.08833
1.14023
1.1634
0.471878
0.305441
-0.402509
-0.454196
-0.436359
-0.526034
0.641943
0.64022
-0.225479
0.64845
0.652286
0.491006
0.504665
0.5055
0.506635
0.505529
0.506814
0.387627
-0.135111
-0.162723
-0.109162
-0.107119
0.0359955
-0.0691232
-0.0720764
-0.0614356
-0.0617384
0.421136
0.500712
0.497535
0.510359
0.520703
1.17763
1.15143
1.17749
1.08784
1.10549
1.03932
1.0123
0.850748
0.874124
0.810792
0.799035
-1.63924
-2.58942
-0.600857
-0.322454
-0.0102434
-0.018911
-0.016766
0.616706
0.618984
0.621148
0.624894
1.01793
-0.398984
-0.469737
0.503795
0.502313
0.511479
0.512382
0.507338
0.507344
-0.0649824
-0.0616005
-0.0625076
-0.0697349
-0.0716854
0.66067
0.660178
0.50465
0.502097
0.529705
0.552139
0.541276
0.240326
0.579744
0.5961
0.644844
0.79324
0.780026
0.792347
0.914128
0.881779
0.971243
0.992938
0.0135634
-0.00100676
-0.0206687
-0.0199789
-0.0196295
0.467624
0.461204
0.488885
0.475495
0.478532
0.2101
0.0590854
0.388076
0.412058
-0.32424
-0.371645
-0.466927
-0.463594
-0.569152
0.585619
0.637473
0.634119
-0.239428
-0.165577
-0.292371
-0.108304
-0.164931
0.481984
0.488216
0.484302
0.499651
0.493828
0.496249
0.508744
0.505918
0.507518
0.447902
0.575489
0.304699
0.279354
-0.290288
-0.180913
-0.268963
-0.0953766
-0.0901938
0.0470356
0.0753196
0.0235057
0.0110534
-0.0812697
-0.0742068
-0.077411
-0.0612299
-0.0602467
0.412621
0.399643
0.432324
0.43982
0.487941
0.4894
0.493871
0.491843
0.963518
0.986126
0.99228
0.968459
-3.57057
-6.20977
0.0240091
0.184144
-0.00849696
-0.00945206
0.000749873
-0.00924596
9.09117e-05
-0.00247326
-0.0229448
-0.0234066
-0.0184084
-0.0185044
0.614653
0.616639
0.974042
1.00859
0.965241
0.940161
0.493115
0.495013
0.499645
0.496525
-0.0601173
-0.0599839
-0.0605209
0.653873
0.658766
0.657372
0.199521
0.111348
0.291254
0.322233
0.6111
0.596292
0.60854
0.704243
0.743043
1.00976
1.03371
1.018
1.03075
1.08155
1.10447
1.06941
0.446258
0.457143
0.451438
0.491965
0.489664
0.490668
0.486886
0.487951
0.486504
-0.0527792
-0.426082
0.463944
0.465357
0.454665
0.45938
0.671009
0.753318
0.623941
0.6297
0.628854
-0.0585678
-0.105752
0.238647
0.210405
0.352124
0.386457
0.368428
0.93867
0.898956
0.946943
0.922169
0.887165
0.91068
-0.362983
-2.13012
-1.12353
0.586514
0.38901
0.48081
-0.00526889
-0.0221274
-0.0184123
1.0074
1.04561
0.642707
0.828806
0.784358
0.77005
0.797769
0.855586
0.786921
0.821702
0.854502
0.832811
0.538024
0.47296
0.488749
0.828637
0.883671
0.0747082
-0.0024138
-0.0259622
0.0993002
0.168995
0.137494
1.02052
0.937269
0.999114
0.502336
0.50328
-0.0167958
-0.0403503
0.507389
0.507102
-0.0196075
-0.00949488
0.498288
-0.949269
0.0789548
0.496865
0.486593
0.503385
-0.105035
0.318244
-0.0688087
0.0201723
-0.0149704
0.499687
0.433356
0.391183
-0.00289219
-0.0267405
-0.0634509
-0.226586
0.500076
0.498437
0.502768
0.50359
0.504361
-0.0236358
-0.0242671
-0.0164983
-0.0575257
-0.0546667
-0.0624484
0.46675
0.486834
-0.202925
0.503056
0.505156
0.504859
0.49902
0.503981
0.502594
-0.0187657
-0.0236299
-0.0251696
0.180438
0.318567
0.682545
0.75826
0.631173
0.463635
0.167931
0.618325
0.671066
0.595781
0.726983
0.632652
0.643014
0.145784
0.00369896
0.149646
0.0822355
0.493725
0.493129
0.484134
0.481013
0.498193
0.495867
0.501067
0.49827
0.501442
0.502608
-0.0593321
-0.0868957
-0.107817
-0.151221
0.288232
0.541502
0.217223
0.241003
0.149772
-0.0607547
-0.0587648
-0.0670212
-0.0722026
-0.0266571
-0.0316912
0.0145062
0.0213749
0.00451013
-0.0224458
-0.0333797
-0.0309631
-0.0377548
0.492886
0.492333
0.497815
0.506415
0.442925
0.446646
0.413065
0.431744
0.417991
0.358065
0.387893
0.365178
-0.0138963
-0.00284893
-0.00667153
-0.0260167
-0.024787
-0.0463649
-0.0396714
-0.0365534
-0.0334018
-0.0384826
-0.0582396
-0.0595758
-0.190505
-0.309619
0.922387
0.863884
0.123353
0.48999
0.495644
0.49282
0.497506
0.500711
0.501354
0.498933
0.495426
0.486926
0.488318
0.485214
0.48628
-0.142963
-0.250573
-0.0813425
-0.155011
0.132636
0.601132
0.326215
0.272249
0.257269
0.48201
0.689667
0.604676
0.665318
0.653529
-0.405961
0.000466289
-0.336975
0.210866
0.201562
0.707361
0.75053
0.768672
0.724878
0.680698
-0.0423788
0.533888
-0.0809512
-0.0313769
0.157788
0.0443779
0.641228
0.614947
0.61986
0.636889
0.64808
0.628442
0.612321
0.60662
0.632177
0.635969
0.482013
0.209145
0.167386
0.121041
0.608765
0.506989
0.558828
0.47637
0.48932
0.491756
0.490682
0.471537
0.478898
0.474567
0.481712
0.485363
0.492705
0.49291
0.488798
0.490686
-0.078251
-0.0842469
-0.0708731
-0.13961
-0.140603
-0.188387
-0.0924928
0.0773316
0.0253893
0.224129
0.347863
0.0534452
-0.0639555
-0.045921
0.00247578
0.154175
0.161865
0.0494101
0.157079
0.114064
0.108354
0.192888
0.217111
-0.0455171
-0.0492366
-0.0506451
-0.0557077
-0.00355047
0.100162
0.0821429
-0.0194015
-0.0274611
-0.0562962
-0.0579679
-0.0173128
-0.0380288
-0.0319672
-0.00742631
-0.0536216
-0.0278344
-0.0169158
-0.0193224
-0.0223196
-0.0211469
0.486306
0.488509
0.48843
0.495117
0.509408
0.523117
0.488583
0.464149
0.455157
0.458268
0.431294
0.440543
0.43568
0.451464
0.473096
0.482322
0.47971
0.482457
0.464405
0.466189
0.451521
0.456099
0.425174
0.406732
0.396611
-0.0503115
-0.0168144
-0.0302991
-0.0443129
-0.0187188
-0.0287912
-0.0239773
-0.00560557
-0.0240006
-0.0209754
-0.0306947
-0.0360929
-0.0370315
-0.0928101
-0.0100683
-0.190316
-0.241709
-0.293213
0.858312
0.996254
0.780643
0.564206
0.578516
0.797662
0.897448
0.533434
0.705281
0.743543
0.556288
0.841081
0.493882
0.493501
0.491389
0.490575
0.491534
-0.0327701
0.0704737
0.0843848
0.141732
0.257405
0.363528
0.292466
0.178783
0.311482
0.336057
0.598218
0.604813
0.561083
0.583644
0.58143
0.394122
0.474649
0.514231
0.468936
0.542496
0.575878
0.522412
0.565528
0.485366
0.435955
0.427346
0.382685
0.417101
0.398433
0.372834
0.485128
0.461984
0.472838
0.462284
0.483427
0.510523
0.508455
0.526863
0.545913
0.46361
0.410739
0.42771
0.455684
0.412131
0.429003
0.450677
0.166273
0.069732
0.233316
-0.0959535
-0.00865119
0.0297808
-0.0123865
-0.0551765
0.251935
-0.388308
-0.334348
-1.0137
0.476277
0.838942
0.595452
0.607946
0.647206
0.632144
0.641592
0.649772
0.654769
0.598354
0.607498
0.612012
0.584056
0.609192
0.609841
0.61725
0.486167
0.389135
0.388195
0.323331
0.183783
0.223805
0.416029
0.347991
0.273234
0.265644
0.436709
0.303443
0.381358
0.434658
0.359777
0.29422
0.522369
0.567927
0.558797
0.533177
0.418169
0.451108
0.45573
0.504223
0.546129
0.572245
0.480328
0.486643
0.487573
0.484829
0.483109
0.486235
0.486494
0.488776
0.489045
0.491611
0.491037
-0.0664085
-0.0545076
-0.0711239
-0.0750888
-0.0255117
-0.0351657
-0.0082073
-0.030076
-0.0304472
-0.027396
-0.0474927
-0.0611556
-0.0573452
-0.0455479
0.0699713
0.0878509
0.0926785
0.0495074
0.219652
0.40499
0.455272
0.328053
0.193816
0.227219
0.314624
0.00100949
0.0113309
-0.0045682
0.0547337
0.03805
-0.0504406
-0.054454
-0.0530877
-0.0429667
-0.0360457
-0.0556868
-0.0533869
-0.0438599
-0.0510651
-0.0544397
-0.0562674
0.465818
0.458704
0.46234
0.454701
0.45287
0.469858
0.474354
0.475581
0.481137
0.48385
0.473286
0.479352
0.483504
-0.0246601
-0.0417077
-0.0426476
-0.0387957
-0.0381062
-0.0376534
-0.0416828
0.108271
0.0150339
0.051466
-0.0201883
-0.146198
-0.0871469
0.480394
0.476558
0.467748
0.697421
0.535274
0.454567
0.553377
0.671782
0.255199
0.453534
0.288655
0.863166
0.769986
0.914611
0.532732
0.234982
0.400607
0.410911
0.252624
0.376088
0.32374
0.199951
0.23543
0.267855
0.350656
0.237182
0.216568
-0.0253803
0.154719
0.265119
0.247323
0.374969
0.432368
0.243644
0.16051
0.107835
0.579127
0.596019
0.604239
0.575573
0.596669
0.554588
0.543535
0.55774
0.565563
0.564628
-0.649184
-0.237342
-1.43795
-0.848296
-0.397236
0.504343
0.500451
0.730749
0.637293
0.66251
0.646421
0.586186
0.553415
0.599529
0.616327
0.313425
0.40016
0.385951
0.362798
0.308293
0.250423
0.522814
0.531257
0.554722
0.580661
0.555618
0.582746
0.47902
0.478866
0.477582
0.47386
0.472384
0.475595
0.0270292
-0.000306103
0.036618
0.0228556
-0.00516495
-0.00850594
-0.027542
-0.038736
-0.0378572
-0.0354606
-0.027156
-0.0255638
0.152035
0.0915464
0.00339394
0.0450744
-0.01989
-0.103724
-0.103542
-0.0157664
0.0846093
0.0671577
0.371968
0.635797
0.46324
0.637086
0.433254
0.534755
0.450264
0.423644
0.452464
0.353481
0.442573
0.0238604
-0.176516
-0.232435
0.801378
0.759933
0.543221
0.296078
0.179779
0.474955
0.503535
0.464249
0.489165
0.541757
0.521243
-0.00135906
0.0901341
0.169154
0.476613
0.260495
0.277569
0.269043
0.432283
0.40382
)
;

boundaryField
{
    wall-4
    {
        type            zeroGradient;
    }
    velocity-inlet-5
    {
        type            zeroGradient;
    }
    velocity-inlet-6
    {
        type            zeroGradient;
    }
    pressure-outlet-7
    {
        type            fixedValue;
        value           uniform 0;
    }
    wall-8
    {
        type            zeroGradient;
    }
    frontAndBackPlanes
    {
        type            empty;
    }
}


// ************************************************************************* //
