/*--------------------------------*- C++ -*----------------------------------*\
  =========                 |
  \\      /  F ield         | OpenFOAM: The Open Source CFD Toolbox
   \\    /   O peration     | Website:  https://openfoam.org
    \\  /    A nd           | Version:  6
     \\/     M anipulation  |
\*---------------------------------------------------------------------------*/
FoamFile
{
    version     2.0;
    format      ascii;
    class       surfaceScalarField;
    location    "56";
    object      phi;
}
// * * * * * * * * * * * * * * * * * * * * * * * * * * * * * * * * * * * * * //

dimensions      [0 3 -1 0 0 0 0];

internalField   nonuniform List<scalar> 
1300
(
3.75095
5.62643
-3.34511
3.75095
-7.76706
5.62643
-4.24251
4.24251
-0.565187
0.565187
1.87647
1.87448
-2.5116
2.5116
-1.9337
1.9337
-2.53637
2.53637
-5.24795
5.24795
-5.06978
5.06978
4.7058
-4.7058
-6.31337
6.31337
-0.991305
0.991305
-3.56238
3.56238
3.17266
-3.17266
-1.97407
1.97407
-0.0550126
0.0550126
-0.55409
4.30504
3.19686
3.19686
-1.9753
1.9753
-4.87467
4.87467
6.22235
-6.22235
5.27589
-5.27589
-1.93077
-2.47893
1.81643
-11.5289
-5.95063
-5.95063
-8.441
8.441
-2.81457
2.81186
2.94671
-2.94671
-1.73121
1.73121
-4.25482
0.0123148
-4.25482
4.20917
0.033338
4.20917
-0.639277
0.074091
-0.639277
3.90914
-3.90914
0.466486
0.0987004
0.466486
3.06715
-3.06715
-1.87686
3.75333
1.87409
-1.87208
6.17713
-1.87887
3.75335
-6.06912
6.06912
-2.72887
0.217277
-2.72887
2.31227
0.199322
2.31227
-6.87078
6.87078
-1.99015
0.0564554
-1.99015
1.9416
-0.00789734
1.9416
2.88576
-2.88576
-2.63646
0.100084
-2.63646
2.39666
0.139717
2.39666
0.353423
5.27301
-5.97985
8.79171
-5.27301
0.0250545
5.21017
0.0377824
5.21017
-5.10535
0.035577
-5.10535
5.01284
0.056933
5.01284
4.79681
-0.0910052
4.79681
-4.82361
0.117807
-4.82361
-3.36606
-4.06003
-6.47076
0.157388
-6.47076
-1.04992
0.0586143
-1.04992
0.898993
0.0923119
0.898993
-3.71872
3.71872
-3.90412
0.341741
-3.90412
3.12764
0.0450228
3.12764
1.86813
1.88283
5.61908
-5.61908
2.44641
-1.93665
-0.0374155
-1.93665
-2.02835
-3.24753
2.02835
-0.0542836
-0.277113
0.2221
-0.277113
3.15708
0.0397858
3.15708
2.22324
0.173411
-2.22324
0.247944
3.29083
-3.29083
1.3085
0.666805
1.3085
-5.55855
5.55855
4.96179
0.0510572
-4.96179
0.0871114
6.15742
0.0649306
6.15742
-6.20753
-0.0148217
-6.20753
2.49401
-4.97293
-2.63113
6.13132
0.182051
-6.13132
0.180691
2.91801
0.028699
2.91801
-2.92
2.92
-2.98385
0.0371425
-2.98385
-2.15428
0.423076
-2.15428
1.41631
0.314895
1.41631
-4.16688
-0.0879433
-4.16688
-4.05721
0.153086
4.05721
0.151963
1.10736
-1.10736
-0.712063
0.0727854
-0.712063
-4.01337
-0.153505
4.01337
-0.104237
-3.85482
-0.054313
-3.85482
-3.02164
0.037789
3.02164
0.0455075
3.11203
0.0450459
-3.11203
0.0448833
-1.87098
3.75381
-1.87997
3.75406
-5.68815
-0.380977
-5.68815
6.35303
-0.283903
6.35303
3.11379
0.448594
-3.11379
0.384912
2.16613
0.146149
2.16613
-6.84703
-0.0237559
-6.84703
6.87237
-0.00158495
6.87237
2.06099
0.105133
-2.06099
0.0708381
1.9415
0.000101023
1.9415
2.91258
-0.0268159
2.91258
-2.88024
-0.00551623
-2.88024
2.79406
-2.79406
2.72121
0.0728421
-2.72121
0.0847579
-11.1242
11.1094
-0.0361713
-11.088
5.174
5.174
4.25182
0.544987
4.25182
-5.01723
0.193623
-5.01723
2.66687
-5.298
3.08482
-6.45089
4.67035
-16.1992
4.30574
-8.36577
6.71918
-6.71918
6.60122
0.117956
-6.60122
0.130467
-1.14543
0.0955152
-1.14543
-3.09854
-0.620183
-3.09854
4.35043
-0.631704
4.35043
-3.02792
3.02792
-3.07661
0.0486891
3.07661
0.0510353
1.93196
0.00953544
-1.93196
-0.00469445
0.364718
0.101768
-0.364718
0.0876051
3.50815
-0.217321
3.50815
-3.09006
-0.200766
-3.09006
-1.23074
0.0853077
1.23074
0.0777539
-5.8072
0.248646
-5.8072
-11.1817
0.0936757
-11.1439
-6.11386
-6.11386
2.32714
11.1189
-2.89604
0.0158008
2.89604
0.0219655
2.97552
0.0524006
-2.97552
0.0555212
-2.86001
0.0659526
2.86001
0.0599855
-2.52291
0.368629
-2.52291
-1.02909
1.02909
-1.17959
0.150491
1.17959
0.236728
1.40145
-0.294094
1.40145
0.804788
0.0942054
-0.804788
0.0927247
-3.80799
-0.0468337
-3.80799
6.5914
-0.238372
6.5914
-2.96257
-0.127488
2.96257
-0.0499987
-0.0347146
11.1441
-5.13928
0.0339312
5.13928
-11.209
11.2429
-3.22957
0.706658
3.22957
1.02225
5.28484
0.273709
-5.28484
0.267611
6.8111
0.0612699
-6.8111
0.0919174
-2.618
-0.480542
-2.618
-5.08772
-0.600422
5.08772
-0.737294
-11.482
-0.203712
11.6857
-11.425
6.01091
0.146516
-6.01091
11.3895
-0.992624
-0.114736
0.992623
0.0364712
1.73855
-0.337092
1.73855
3.71937
-0.211218
-3.71937
-0.0886216
-6.74458
-0.102447
6.74458
-0.153182
-2.16686
-0.451144
2.16686
-0.42831
-4.26734
4.30712
1.90979
-2.34861
-2.62433
-5.59614
1.85516
1.89865
4.30158
-10.173
-6.02622
-9.99233
7.21343
-6.94581
-9.33947
9.24846
7.87871
-7.93302
-5.77775
5.82878
6.48438
-6.43887
1.87932
1.87401
8.00516
-7.78789
-15.7131
15.3321
7.58424
-7.52779
15.8567
-15.8804
-17.8989
17.9602
-5.69484
5.79493
-6.74014
6.73463
-6.97504
6.92504
-2.8056
-3.64529
13.148
-12.9906
8.56969
-8.6071
-8.64593
8.98767
3.38457
0.922556
3.42961
-1.88187
3.76119
-1.87148
3.78127
2.73342
-5.53902
2.56457
-5.1889
4.35495
4.21474
-4.30066
-1.29548
-5.92776
5.95646
-5.8103
5.87029
9.13086
-9.11854
-1.88498
3.759
-1.86908
3.76773
-3.42328
-2.35447
3.37826
0.923321
8.09021
5.05776
-8.27226
-1.72007
-7.9985
7.78728
-8.20672
8.00595
-0.437068
5.83746
-5.40039
4.43761
-1.65367
7.49113
5.55975
5.75338
5.86016
-5.58646
1.08565
-6.48604
-6.39893
-2.39637
2.46915
2.28958
-2.19088
6.09993
1.77878
5.99569
-5.77906
-2.15395
-5.8259
3.82008
2.00871
3.86877
4.08169
2.40269
4.11948
3.02987
-3.03648
0.00660481
-3.0591
6.08897
0.722517
-5.41357
-4.49024
4.99013
3.01503
5.18945
-5.55271
-2.23518
-5.16779
-9.5871
-6.12595
-10.1875
10.1106
5.22152
9.82665
-11.9899
11.8367
4.87525
2.70899
4.86736
-4.96117
-2.56662
-4.89033
11.6759
-2.62785
-9.04808
-10.3489
-7.55
10.3505
5.50617
10.9931
6.96713
11.085
4.43109
7.24484
-9.93726
2.38726
-3.86236
-1.83248
-3.77761
3.65096
2.14397
3.79067
-4.21807
-2.52207
-4.20227
-4.29365
-2.68139
4.32047
2.41416
-4.41337
-3.79334
4.54086
2.38418
4.04698
-10.0732
4.3188
-7.96409
-9.22021
-3.77037
-9.08975
3.52736
2.59836
-6.12572
-2.01166
8.49604
-4.2813
7.20056
-5.19701
-3.41009
-5.2017
-6.92544
-1.7205
-6.77235
-8.94386
8.46332
-9.2437
8.61199
12.5846
-5.67103
-6.91354
-3.96692
-2.47195
3.92204
-0.492426
-3.7101
3.71671
0.0510864
3.83236
4.75491
4.26249
-3.88242
-1.92788
-3.8269
3.82228
2.048
3.88823
6.81264
2.31822
6.84598
-6.57616
-2.54239
-6.6641
9.11627
-8.69319
2.81914
-2.73383
5.36053
2.64541
-5.14321
-2.85529
6.24103
-3.20057
-3.04046
-12.3494
10.8171
1.53228
-4.85826
-0.42065
-0.365637
-5.57622
-3.76325
5.45841
0.294967
11.1121
7.34882
-5.51485
5.7635
6.17083
6.22188
-0.177043
5.90157
-5.19491
5.28341
-2.65574
-2.62767
5.4434
-5.59691
-1.2207
-5.51236
4.29166
0.398783
1.59599
-1.37389
-1.84822
-0.548144
-1.7555
1.30707
0.982513
1.40884
0.920674
1.54848
-2.91653
0.568314
2.34822
-1.99586
-1.62257
-3.76039
-1.13613
4.89651
5.69931
2.08797
-5.61069
-0.215208
2.6163
-2.52399
-0.804557
-2.95583
2.19676
-3.00132
-3.49089
-1.89404
5.38492
-3.36892
-0.457984
3.31652
0.552249
-3.8278
-2.09996
3.79065
0.328825
-3.12822
6.19011
-3.06189
-5.0561
2.52891
3.56006
4.53761
-4.79029
2.44894
2.34135
-1.23023
4.27045
0.919001
4.4166
-6.97929
4.74411
5.71915
3.26852
-6.16775
0.999952
-5.97933
8.5532
-7.39148
-1.16173
4.11493
4.43827
7.05971
5.52486
-5.6914
12.7511
-1.16134
-6.23014
7.14067
-3.87215
4.85275
-8.7249
-10.3776
4.14748
-9.22951
11.0635
-1.83395
-3.61503
-8.37487
12.8445
-1.21342
-11.6311
8.61324
-4.27605
-4.31595
8.59201
-6.9039
6.88258
-1.98232
-4.90026
-10.1655
-5.71492
10.268
1.56875
-9.89346
12.2807
-2.64862
4.15618
0.711179
4.15628
3.3165
-5.44728
2.13078
3.58741
-5.56973
2.06743
-7.51471
-6.76309
12.1012
-5.33815
-10.5335
-9.5612
-0.972259
2.55054
9.73018
-9.51767
7.448
2.06967
3.29921
0.589019
-3.37206
-0.405548
0.239872
4.51524
-4.75511
4.03055
4.20396
3.23221
1.28303
3.84861
2.10785
-3.87058
-0.331693
-4.16686
1.48547
-1.7527
-3.69196
5.17743
-4.06198
0.370019
-2.74703
-3.49423
6.24127
-4.57951
3.03649
3.15362
5.08449
-4.91379
1.41956
-2.39121
-2.52258
2.64242
-4.39512
1.99651
3.18092
4.38069
0.587346
5.90314
6.19809
-8.5015
0.537415
11.2559
-9.53578
2.48391
8.60108
-9.93191
0.370709
-8.71904
0.978097
-5.2594
-5.14762
5.19108
-6.91158
-3.53382
6.21795
0.628027
-6.36991
-0.40244
-6.0745
-2.86936
-6.52564
-3.08128
-6.16242
-8.77267
-1.68071
-7.09196
6.7826
-6.69896
-3.48856
7.43626
1.17574
-7.4858
7.37106
-7.55028
7.21319
0.0946359
3.62207
4.35712
1.88518
-2.39185
4.27702
-5.06068
7.3789
-8.72501
3.66433
4.21042
-6.7528
-4.5146
5.06665
4.04962
5.38155
8.946
-10.4068
1.46075
-10.6844
12.0294
-1.34507
-16.4748
5.79046
-7.52882
2.45906
0.360077
2.55457
0.570818
2.49427
-3.06509
-2.16301
-2.08526
-2.42845
-3.49613
5.92458
1.0822
-3.45002
2.36782
-3.57541
4.65761
-0.0386831
-3.41134
5.2005
-2.70622
5.56057
-3.61409
1.94648
3.53481
5.83979
-2.30498
4.42254
-1.77712
1.92888
-4.23385
-1.56725
-2.95578
5.09975
-3.28549
3.6555
-0.344639
4.00014
-4.0641
0.863526
-0.831887
3.37207
3.62001
4.33027
-3.04724
2.94405
-4.72117
-1.28981
-4.13382
-0.9529
-0.193798
-3.80718
4.00098
6.02717
-6.22096
-5.2902
9.53934
-4.24915
7.71319
-5.44707
-2.26612
-4.29971
-4.39349
3.93108
1.9705
9.68369
0.179746
-5.62682
-5.01517
-3.99292
3.12086
2.16255
-1.79743
3.32971
2.16307
-0.567077
0.431039
0.9778
1.77916
-1.34812
0.308489
1.47067
-1.06541
1.78449
0.831813
-1.87869
0.123197
-1.26936
3.46612
1.07886
-2.06137
0.71325
0.913535
-3.56928
5.02679
-2.68742
-2.33937
5.94033
1.14986
-3.83729
4.3625
-3.96372
2.42468
-3.5608
-1.41261
-5.37633
-3.59755
-2.50554
4.87336
-3.41903
5.507
1.38247
-5.2918
6.67427
-3.61907
1.72503
-3.07422
3.90603
-1.03854
-2.03568
2.89696
2.48796
-3.1059
0.150075
-0.208941
2.40812
-2.61706
-0.593201
-2.58906
-4.57551
4.90433
-2.1042
4.55315
2.17282
-1.91712
6.47027
1.8082
-3.72532
-3.2479
-3.70589
-1.38398
3.15364
-0.5967
-4.29363
-5.49696
4.1885
0.228106
-6.99409
7.85215
-0.858056
-3.97906
-0.765044
4.87998
-6.04887
0.479138
-3.98144
3.87071
4.78971
5.01782
-11.4068
-0.224357
-6.18526
1.11282
-7.29808
5.55109
-3.54895
7.69642
-10.3779
6.88934
-9.20216
6.53469
-0.763386
6.24592
-4.11514
2.80215
-8.51708
-6.94832
5.49674
-2.78775
6.20792
-3.15564
9.36355
-5.80426
5.28525
4.0783
-1.02232
-4.17938
-5.27168
4.24936
0.0135713
4.16985
4.98606
-2.87821
4.65437
2.26282
-4.65403
-2.13229
-6.48816
1.83413
-3.33454
-1.92142
3.75555
3.16308
3.75209
1.23297
-3.34655
7.22952
-8.20177
-1.89137
-3.25625
5.25772
-1.00835
3.41177
-6.66802
-1.84762
4.78435
-0.730946
-4.05341
0.886678
-4.4205
1.67519
-6.09569
5.23638
-5.63882
2.25256
-9.78138
-5.23324
-5.19677
-2.28087
-5.26941
-7.59802
5.31715
-1.80756
5.5635
-8.54791
7.81696
-3.48152
8.79866
-5.47128
-1.05436
5.89959
1.31359
10.1123
0.150158
-4.66475
-1.93529
3.76741
-1.83212
1.18557
-3.65703
0.110384
2.48204
3.45828
-6.77371
0.0209051
-4.64385
-3.91463
7.96425
5.62471
11.6519
1.24513
9.15348
-1.18923
10.3986
4.19232
4.42904
-3.03534
4.49609
0.965644
4.62997
-0.883301
2.82979
1.67127
1.72989
0.794104
2.30069
1.31932
3.16422
0.0991262
-1.98613
4.64026
-8.63318
-0.986557
-8.08819
1.16027
5.42835
-4.26808
2.91791
-0.755361
1.08579
-0.103294
-1.33987
1.44317
-2.73096
-1.90695
-0.436281
-1.61046
2.32371
1.85566
-1.88743
-0.84353
0.326596
-3.92414
3.23421
-3.08413
-0.59617
6.0781
-2.87505
0.257995
-1.15002
-2.33106
-2.87921
2.75601
6.1746
0.295664
3.11272
5.2
3.10003
0.221822
3.84388
-5.67783
-3.67082
-5.90219
-0.351098
4.52888
1.73514
7.99504
5.81344
4.80509
-1.86294
-10.0647
6.55113
-2.05504
5.20606
-1.15265
-4.94304
5.054
2.3249
-5.68203
0.0432037
-4.89984
-6.95488
-0.482495
8.29946
-9.62976
8.5754
5.70604
1.38592
-4.44303
-0.753735
4.29254
0.136504
10.5351
-0.908362
-7.09826
8.00662
-4.51999
3.53343
0.695595
2.63412
2.13876
1.3834
-5.71486
-9.98294
-2.02624
-1.54304
-4.36561
0.530904
-2.38657
6.08351
-2.55008
3.81739
5.45655
6.54234
-2.05421
-4.16675
6.30336
-2.48597
4.05637
)
;

boundaryField
{
    wall-4
    {
        type            calculated;
        value           uniform 0;
    }
    velocity-inlet-5
    {
        type            calculated;
        value           uniform -3.75095;
    }
    velocity-inlet-6
    {
        type            calculated;
        value           uniform -5.62643;
    }
    pressure-outlet-7
    {
        type            calculated;
        value           nonuniform List<scalar> 8(3.34511 7.76706 4.4097 9.71246 7.42609 5.12514 5.75169 8.97609);
    }
    wall-8
    {
        type            calculated;
        value           uniform 0;
    }
    frontAndBackPlanes
    {
        type            empty;
        value           nonuniform 0();
    }
}


// ************************************************************************* //
