/*--------------------------------*- C++ -*----------------------------------*\
  =========                 |
  \\      /  F ield         | OpenFOAM: The Open Source CFD Toolbox
   \\    /   O peration     | Website:  https://openfoam.org
    \\  /    A nd           | Version:  6
     \\/     M anipulation  |
\*---------------------------------------------------------------------------*/
FoamFile
{
    version     2.0;
    format      ascii;
    class       volScalarField;
    location    "33";
    object      p;
}
// * * * * * * * * * * * * * * * * * * * * * * * * * * * * * * * * * * * * * //

dimensions      [0 2 -2 0 0 0 0];

internalField   nonuniform List<scalar> 
918
(
0.53366
1.26906
0.00420078
0.533555
-0.0147484
1.23685
-0.492658
0.703724
0.514733
-0.10644
-0.0479585
0.510891
1.09403
0.860003
-1.18006
0.0974825
0.656498
-0.421993
0.512643
-0.0894053
0.735557
0.521476
0.523951
0.514753
0.570571
0.819634
0.970694
-0.0537998
-0.0149974
-0.0208795
-0.00756719
0.000369517
0.0339278
1.11999
1.17191
1.19507
0.48201
0.313103
-0.382465
-0.435912
-0.417046
-0.51832
0.695459
0.695443
-0.180968
0.704151
0.711816
0.500681
0.514119
0.514964
0.516146
0.514999
0.516301
0.407814
-0.113137
-0.144026
-0.0869171
-0.0792171
0.0703552
-0.0524824
-0.0580762
-0.0424079
-0.0400699
0.433286
0.506933
0.504215
0.515683
0.524708
1.20922
1.18295
1.20899
1.11968
1.1372
1.071
1.04389
0.882456
0.905722
0.842513
0.83072
-1.64596
-2.60539
-0.595133
-0.311012
-0.0392396
0.0831428
0.0801172
0.64633
0.646423
0.658656
0.668693
1.02912
-0.391942
-0.463176
0.513078
0.511622
0.520989
0.521896
0.516832
0.516852
-0.0787664
-0.0690226
-0.0960903
-0.0926724
-0.0906668
0.726434
0.72593
0.514208
0.51167
0.533972
0.556886
0.545865
0.260679
0.578366
0.593024
0.674228
0.825478
0.813739
0.825408
0.945962
0.913257
1.00295
1.02462
-0.0572326
-0.0585805
0.0978633
0.0682207
0.0898459
0.477789
0.471461
0.497903
0.485575
0.488516
0.216753
0.0643196
0.396288
0.420723
-0.297345
-0.342187
-0.448871
-0.447925
-0.55716
0.582624
0.689909
0.688002
-0.202569
-0.124586
-0.253231
-0.0643621
-0.122777
0.491871
0.497948
0.494132
0.509248
0.503472
0.505874
0.51824
0.515379
0.516992
0.466619
0.595122
0.325137
0.298099
-0.268389
-0.161286
-0.253656
-0.0687945
-0.0650471
0.0775788
0.104887
0.0658277
0.0597782
-0.0624949
-0.0592621
-0.0646067
-0.0362511
-0.040624
0.42492
0.412862
0.443989
0.451066
0.496258
0.497496
0.501361
0.499602
0.995139
1.01783
1.02395
1.00016
-3.59603
-6.25314
0.0420082
0.205618
-0.111956
-0.100187
-0.0578277
-0.0252737
-0.039391
-0.012243
0.0403355
0.0356102
0.0512511
0.0477075
0.63755
0.636288
0.985641
1.01272
0.981337
0.96162
0.502351
0.504321
0.508962
0.505847
-0.0435988
-0.0659469
-0.0525222
0.712376
0.719084
0.719897
0.222013
0.137597
0.308731
0.33795
0.626345
0.602236
0.62047
0.734673
0.773403
1.0413
1.06557
1.04952
1.06236
1.11321
1.13612
1.10128
0.457202
0.46763
0.462181
0.501142
0.498714
0.499824
0.495569
0.496932
0.495366
-0.0490474
-0.425514
0.482267
0.480594
0.462584
0.471028
0.664116
0.741789
0.668256
0.680015
0.677724
-0.0187571
-0.0659231
0.257083
0.225548
0.366713
0.400067
0.38264
0.970174
0.930504
0.978549
0.953794
0.918726
0.942619
-0.363358
-2.14354
-1.12992
0.615027
0.414341
0.507428
0.0428369
0.0319565
0.0318627
1.01548
1.05634
0.663078
0.848863
0.802401
0.801112
0.828765
0.886932
0.817769
0.853125
0.886253
0.864655
0.540379
0.489415
0.498244
0.818351
0.875819
0.103781
0.0319956
0.00833133
0.124944
0.186083
0.156884
1.03034
0.93426
1.00063
0.511914
0.512807
-0.0980407
-0.104584
0.516885
0.516598
-0.0263787
0.038226
0.525906
-0.953998
0.118322
0.506168
0.496279
0.51283
-0.0749174
0.340865
-0.0523916
0.0522974
0.0366645
0.506702
0.444442
0.403638
-0.1508
0.081083
-0.0727762
-0.210833
0.509667
0.508044
0.512198
0.513074
0.513819
-0.175014
-0.121522
-0.154725
-0.112059
-0.113686
-0.105578
0.476983
0.495397
-0.18026
0.512491
0.514582
0.514299
0.508314
0.513341
0.511876
0.0343776
0.0350207
0.0722971
0.205377
0.333454
0.715688
0.795859
0.660893
0.490017
0.187613
0.647909
0.702902
0.625026
0.759151
0.680596
0.690008
0.179837
0.0389727
0.179316
0.116779
0.503177
0.502461
0.493805
0.490836
0.507633
0.505443
0.510476
0.507708
0.510774
0.511951
-0.0347796
-0.0683174
-0.0845368
-0.133153
0.304515
0.562913
0.235231
0.262821
0.173833
-0.036791
-0.0422048
-0.0532164
-0.0597153
0.00207919
0.0188442
0.0517451
0.0649577
0.0507536
0.0310251
0.000750493
0.00772034
-0.00523042
0.50068
0.499966
0.505485
0.513803
0.453445
0.457253
0.42374
0.443042
0.42931
0.371457
0.401901
0.378769
-0.0462178
-0.106131
-0.0593165
0.0569223
0.0408993
-0.0974909
-0.133754
-0.128075
-0.13975
-0.13646
-0.0574084
-0.0581466
-0.17313
-0.287551
0.943169
0.88794
0.114973
0.499654
0.505263
0.502458
0.506962
0.51013
0.510834
0.508489
0.505063
0.495709
0.497225
0.493795
0.494618
-0.12502
-0.232182
-0.059875
-0.12977
0.13873
0.615394
0.34296
0.292142
0.277121
0.495062
0.697924
0.634187
0.713108
0.716212
-0.404897
0.0131815
-0.330278
0.217378
0.200859
0.738509
0.782375
0.800725
0.756587
0.711443
-0.0413721
0.530546
-0.0492543
-0.00546357
0.180659
0.075114
0.69811
0.659215
0.665226
0.678335
0.697388
0.675007
0.657365
0.648547
0.678873
0.685089
0.490598
0.235861
0.19931
0.151055
0.64171
0.528045
0.584179
0.505649
0.498421
0.501071
0.499859
0.48164
0.488734
0.484603
0.491002
0.494419
0.502371
0.502484
0.498528
0.500436
-0.0567173
-0.0590477
-0.0686694
-0.122843
-0.119726
-0.16037
-0.089063
0.0993198
0.0493057
0.2281
0.366201
0.0695358
-0.0567632
-0.0406067
0.00812555
0.172022
0.171076
0.0597333
0.169901
0.136406
0.124256
0.218604
0.239659
-0.0265063
-0.0277446
-0.0343086
-0.0394956
0.0245296
0.122047
0.108487
0.0120352
-0.00196551
-0.0335888
-0.0337317
-0.00998967
-0.016701
-0.0119456
0.00721664
-0.0506213
0.0209346
0.0174574
0.0154877
0.0166992
0.0137214
0.494481
0.4965
0.496387
0.50525
0.518926
0.533211
0.498883
0.474446
0.465657
0.468794
0.442095
0.451419
0.447665
0.461716
0.482818
0.491249
0.489093
0.491607
0.474399
0.475933
0.462273
0.466496
0.438785
0.420803
0.410692
-0.0810523
-0.0907469
-0.0886645
-0.0673333
-0.0625309
-0.0451763
0.0365251
0.0423756
0.0301677
0.0350192
0.0274126
-0.0804652
-0.0742804
-0.0773245
-0.000412889
-0.1809
-0.227155
-0.277659
0.869459
1.00627
0.796781
0.589386
0.594323
0.816082
0.915732
0.551174
0.733599
0.767202
0.557131
0.83232
0.503558
0.503212
0.501092
0.500282
0.501282
-0.0224032
0.0763109
0.0991183
0.148853
0.263962
0.371194
0.293337
0.178364
0.313071
0.338794
0.614922
0.625516
0.571855
0.593908
0.589821
0.414157
0.496527
0.539071
0.487861
0.556491
0.590899
0.541058
0.581944
0.50047
0.453781
0.447803
0.399422
0.433584
0.415195
0.389554
0.494283
0.471905
0.482609
0.473042
0.493441
0.517892
0.517986
0.539672
0.55473
0.475722
0.42788
0.44406
0.469745
0.42781
0.4428
0.462962
0.163561
0.0697536
0.236249
-0.09853
-0.00454118
0.0317231
-0.00917691
-0.0557688
0.252777
-0.395032
-0.336808
-1.02203
0.471695
0.86096
0.659826
0.673088
0.693771
0.674831
0.681713
0.69754
0.705101
0.633889
0.64848
0.651811
0.612692
0.644893
0.646001
0.653191
0.491417
0.403374
0.400741
0.340864
0.209514
0.246563
0.418413
0.358565
0.292899
0.28929
0.459081
0.329126
0.40363
0.459423
0.392377
0.323449
0.550474
0.602056
0.586231
0.561686
0.475377
0.495326
0.520236
0.560049
0.584258
0.611051
0.490092
0.496169
0.497146
0.494463
0.492534
0.495546
0.495674
0.497988
0.498617
0.501137
0.500392
-0.0508949
-0.0387195
-0.0479716
-0.0540025
0.0136059
-0.0110956
-0.00284296
-0.0331886
-0.0107648
-0.00909951
-0.0300361
-0.0433036
-0.0386167
-0.0265051
0.0804542
0.096648
0.09268
0.0586183
0.241864
0.406876
0.476453
0.344949
0.20088
0.217827
0.297585
0.00370772
0.0295556
0.0117538
0.0630305
0.0377223
-0.0258347
-0.0284449
-0.028264
-0.0194519
-0.0125055
-0.0275376
-0.0322124
-0.023667
-0.0288858
-0.0405991
-0.04328
0.475895
0.469215
0.472508
0.4653
0.463576
0.479583
0.483758
0.484943
0.490225
0.492447
0.482665
0.488471
0.492129
0.00614657
-0.0541872
-0.0275195
-0.0204481
-0.0401662
-0.0477989
-0.0380256
0.109694
0.0157809
0.0475926
-0.0165382
-0.134411
-0.0750837
0.482127
0.480633
0.482659
0.69331
0.537755
0.454427
0.551048
0.666231
0.252927
0.459172
0.290063
0.867868
0.76683
0.911351
0.539801
0.234025
0.396487
0.41026
0.245547
0.372499
0.336531
0.214629
0.253763
0.273813
0.357349
0.242424
0.221049
-0.0209347
0.156731
0.2706
0.25232
0.382828
0.441406
0.243652
0.159091
0.107949
0.599842
0.617564
0.629901
0.598612
0.622909
0.557094
0.548651
0.566321
0.573446
0.567568
-0.661467
-0.25047
-1.45282
-0.860018
-0.410473
0.498141
0.488614
0.72956
0.63763
0.693748
0.67882
0.61524
0.580513
0.610962
0.639546
0.331746
0.43726
0.401712
0.415117
0.34866
0.275149
0.57096
0.571235
0.593856
0.618805
0.593826
0.622038
0.488565
0.488297
0.487426
0.483849
0.482213
0.485064
0.0339474
0.00605749
0.0409751
0.0323617
0.0185192
0.0179037
0.0127828
-0.00142405
-0.00547817
-0.00944483
0.0168947
0.0166007
0.154608
0.0976442
0.00681364
0.0526701
-0.0147566
-0.0952558
-0.0987788
-0.0113478
0.088282
0.0699641
0.37354
0.647305
0.473782
0.640179
0.432638
0.537786
0.464661
0.434894
0.466877
0.359665
0.44755
0.0017
-0.193792
-0.252551
0.791854
0.749269
0.53917
0.28501
0.171227
0.471294
0.51076
0.470853
0.505657
0.556063
0.54488
-0.0145745
0.085217
0.147605
0.457724
0.260561
0.274139
0.269715
0.424396
0.402828
)
;

boundaryField
{
    wall-4
    {
        type            zeroGradient;
    }
    velocity-inlet-5
    {
        type            zeroGradient;
    }
    velocity-inlet-6
    {
        type            zeroGradient;
    }
    pressure-outlet-7
    {
        type            fixedValue;
        value           uniform 0;
    }
    wall-8
    {
        type            zeroGradient;
    }
    frontAndBackPlanes
    {
        type            empty;
    }
}


// ************************************************************************* //
