/*--------------------------------*- C++ -*----------------------------------*\
  =========                 |
  \\      /  F ield         | OpenFOAM: The Open Source CFD Toolbox
   \\    /   O peration     | Website:  https://openfoam.org
    \\  /    A nd           | Version:  6
     \\/     M anipulation  |
\*---------------------------------------------------------------------------*/
FoamFile
{
    version     2.0;
    format      ascii;
    class       volScalarField;
    location    "9";
    object      Ma;
}
// * * * * * * * * * * * * * * * * * * * * * * * * * * * * * * * * * * * * * //

dimensions      [0 0 0 0 0 0 0];

internalField   nonuniform List<scalar> 
26250
(
3.04717
3.07636
3.10468
3.12613
3.14797
3.1635
3.17693
3.17261
3.16304
3.1079
2.97931
2.62171
1.9144
0.863643
0.402714
0.478628
0.583394
0.635574
0.634912
0.596247
0.582972
0.551036
0.478352
0.346398
0.239973
3.04716
3.07638
3.10467
3.12614
3.14796
3.16352
3.17696
3.17281
3.16332
3.10833
2.98051
2.62297
1.91851
0.863296
0.389276
0.467484
0.575231
0.627859
0.62863
0.605395
0.58352
0.54961
0.480686
0.353041
0.248172
3.04713
3.07641
3.10464
3.12617
3.14793
3.16355
3.17702
3.17326
3.16379
3.10924
2.9826
2.62671
1.92662
0.873028
0.407951
0.482925
0.585903
0.638615
0.639638
0.618892
0.59274
0.556626
0.489036
0.362215
0.25644
3.04707
3.07647
3.10457
3.12623
3.14789
3.1636
3.17731
3.17421
3.16645
3.11124
2.98892
2.63339
1.92666
0.898469
0.427757
0.498212
0.596775
0.648779
0.649756
0.61703
0.593466
0.556923
0.488619
0.361106
0.254611
3.0459
3.07768
3.10331
3.1275
3.14649
3.16507
3.17638
3.17644
3.16282
3.12377
2.97307
2.66279
1.92221
0.887075
0.43741
0.506258
0.601211
0.654882
0.656261
0.630108
0.604348
0.565792
0.495675
0.367302
0.259195
3.04711
3.07643
3.10459
3.12619
3.14793
3.16362
3.17775
3.17569
3.16914
3.11567
3.00157
2.65169
1.95564
0.952032
0.469186
0.530445
0.619033
0.670507
0.671303
0.648163
0.621063
0.581304
0.51107
0.382855
0.274253
3.0447
3.07884
3.10207
3.12876
3.14527
3.16643
3.17483
3.17874
3.16544
3.12821
2.9845
2.68897
1.96055
0.945739
0.48239
0.542432
0.626881
0.680205
0.682752
0.663239
0.637767
0.599325
0.53199
0.406274
0.301291
3.04729
3.07625
3.10481
3.126
3.14817
3.16347
3.1782
3.17674
3.17052
3.11984
3.01
2.675
2.03406
1.01362
0.525109
0.573463
0.648129
0.697753
0.700236
0.682327
0.658807
0.623157
0.560958
0.442336
0.349006
3.04762
3.07598
3.10514
3.12571
3.14849
3.16322
3.17874
3.17727
3.17012
3.12283
3.01416
2.69255
2.07612
1.04105
0.551705
0.590881
0.659621
0.709517
0.714486
0.700476
0.681468
0.651553
0.599285
0.497204
0.432316
3.04784
3.07571
3.10541
3.12539
3.14884
3.16294
3.17927
3.17857
3.17273
3.12695
3.025
2.71053
2.10743
1.10374
0.600586
0.619601
0.679375
0.72783
0.734072
0.723398
0.709748
0.688825
0.654459
0.587359
0.591157
2.96772
2.95189
2.94123
2.93505
2.92961
2.92615
2.91932
2.9077
2.86781
2.7964
2.60257
2.17906
1.34994
0.197431
0.317819
0.0399492
0.265992
0.322954
0.278421
0.193769
0.187829
0.14487
0.0604957
0.0423503
0.102113
2.96772
2.95189
2.94123
2.93505
2.92961
2.92616
2.91936
2.90777
2.86801
2.79682
2.60355
2.18126
1.35357
0.197747
0.349776
0.0479332
0.266859
0.323725
0.28985
0.237651
0.205972
0.158218
0.0869862
0.0667777
0.114126
2.96772
2.95189
2.94123
2.93505
2.92961
2.92618
2.91943
2.90792
2.8684
2.79775
2.60533
2.1859
1.35955
0.210937
0.315508
0.068076
0.279457
0.332495
0.299646
0.251547
0.222889
0.180812
0.124953
0.107306
0.132731
2.96771
2.9519
2.94122
2.93506
2.92961
2.9262
2.91955
2.90819
2.86904
2.79931
2.60835
2.19292
1.37116
0.228521
0.302877
0.0870969
0.291021
0.340003
0.302483
0.23522
0.234418
0.206189
0.166673
0.151735
0.154617
2.96767
2.9519
2.9412
2.93504
2.92958
2.92617
2.91954
2.90847
2.87243
2.79808
2.6219
2.18937
1.38467
0.26312
0.288396
0.106177
0.304022
0.351727
0.31828
0.275158
0.265113
0.240929
0.211342
0.197835
0.185556
2.9677
2.95191
2.9412
2.93506
2.92961
2.92627
2.91986
2.9089
2.87091
2.80362
2.61808
2.21348
1.4087
0.27804
0.263118
0.128148
0.319552
0.366157
0.338111
0.305181
0.297404
0.279857
0.259321
0.247261
0.227666
2.96759
2.95193
2.94114
2.93505
2.92957
2.92626
2.9199
2.90928
2.87453
2.80309
2.6337
2.21367
1.43208
0.321479
0.244208
0.151358
0.336336
0.382399
0.360249
0.337489
0.332638
0.322882
0.311823
0.302806
0.28445
2.9677
2.95191
2.94121
2.93508
2.92963
2.9264
2.92034
2.90982
2.87349
2.8091
2.63245
2.24169
1.46816
0.349
0.209513
0.1766
0.354577
0.400143
0.383863
0.369914
0.370749
0.370028
0.369642
0.366928
0.361175
2.96772
2.95192
2.94123
2.9351
2.92965
2.9265
2.92065
2.9104
2.87514
2.8127
2.64142
2.26136
1.5058
0.389894
0.190175
0.202351
0.372886
0.41879
0.408822
0.403175
0.410604
0.419986
0.433056
0.445558
0.467852
2.96776
2.95189
2.94126
2.93508
2.92968
2.92663
2.92113
2.91118
2.87785
2.81682
2.65425
2.28113
1.54848
0.448121
0.176642
0.231609
0.39239
0.438498
0.434662
0.43676
0.451193
0.471911
0.503967
0.5417
0.643151
2.98597
2.96997
2.9513
2.9352
2.91937
2.90653
2.89222
2.87356
2.82392
2.7383
2.52408
2.05613
1.19423
0.019385
0.684868
0.0988484
0.185423
0.2474
0.195434
0.131723
0.0733977
0.0769835
0.0908849
0.0606676
0.0750417
2.98594
2.97
2.95126
2.93523
2.91934
2.90655
2.89218
2.87359
2.82388
2.73899
2.52456
2.05896
1.20047
0.0162576
0.677501
0.0956205
0.196703
0.251475
0.194747
0.117124
0.112474
0.115137
0.129158
0.10756
0.0954973
2.98598
2.96996
2.9513
2.93519
2.91938
2.90652
2.89225
2.87368
2.82445
2.73963
2.52701
2.063
1.20492
0.0214131
0.66929
0.100576
0.21103
0.258844
0.197044
0.124714
0.151948
0.154919
0.17117
0.159069
0.138557
2.98595
2.96999
2.95127
2.93521
2.91935
2.90655
2.89224
2.8738
2.82485
2.74138
2.52985
2.07159
1.22061
0.0339291
0.647871
0.108513
0.229841
0.271763
0.211771
0.155148
0.193187
0.197325
0.214862
0.21004
0.186377
2.98592
2.97002
2.95124
2.93524
2.91932
2.90658
2.89223
2.87398
2.82543
2.74372
2.53377
2.08374
1.2422
0.0509847
0.61534
0.120928
0.251064
0.288636
0.23401
0.194262
0.233666
0.240718
0.25944
0.261616
0.23737
2.98596
2.96998
2.95128
2.93521
2.91936
2.90657
2.89235
2.87422
2.82652
2.74582
2.53913
2.09578
1.25887
0.0730825
0.57975
0.136893
0.27381
0.308773
0.261685
0.237226
0.271618
0.285552
0.306586
0.316205
0.294684
2.98596
2.96998
2.95128
2.93521
2.91936
2.9066
2.89244
2.8745
2.82758
2.74857
2.54487
2.11013
1.28078
0.105167
0.537725
0.155795
0.29707
0.331123
0.293193
0.28234
0.311172
0.333586
0.357686
0.376592
0.362409
2.98601
2.96993
2.95133
2.93517
2.91942
2.90659
2.8926
2.87485
2.82912
2.75155
2.55257
2.12578
1.30611
0.144046
0.492741
0.17749
0.320791
0.354753
0.326668
0.327069
0.3538
0.383263
0.41364
0.444511
0.445175
2.98604
2.96991
2.95136
2.93516
2.91945
2.90661
2.89273
2.87526
2.83077
2.75552
2.56155
2.14583
1.34092
0.190973
0.446392
0.20053
0.344154
0.379143
0.36072
0.370128
0.398177
0.435301
0.474981
0.521834
0.552373
2.98616
2.9698
2.95148
2.93505
2.91957
2.90655
2.89297
2.87601
2.83358
2.76011
2.57346
2.16908
1.38015
0.251406
0.4002
0.225052
0.36707
0.403548
0.394465
0.411426
0.443161
0.487665
0.541552
0.610923
0.722756
2.96771
2.9519
2.94122
2.93506
2.92961
2.92617
2.91938
2.90784
2.86807
2.79688
2.60353
2.17835
1.35094
0.199442
0.322092
0.0413693
0.267378
0.329178
0.303719
0.258172
0.22445
0.180405
0.108473
0.0580909
0.136839
2.96771
2.95188
2.94122
2.93504
2.9296
2.92612
2.91928
2.90789
2.8709
2.79393
2.61337
2.16721
1.34728
0.215506
0.313255
0.0492953
0.271032
0.326063
0.282823
0.187652
0.183197
0.147414
0.0865415
0.0764741
0.116172
2.9677
2.95191
2.94121
2.93506
2.9296
2.92617
2.91946
2.90807
2.86861
2.79825
2.60626
2.18397
1.36111
0.214505
0.31307
0.0635699
0.278746
0.330544
0.288899
0.215821
0.204525
0.163893
0.117267
0.116881
0.131878
2.96769
2.95189
2.94121
2.93504
2.92959
2.92614
2.9194
2.90821
2.87166
2.79628
2.61821
2.17844
1.36956
0.244971
0.298951
0.0827307
0.290113
0.340871
0.306116
0.257994
0.235206
0.196608
0.15909
0.15817
0.158605
2.96768
2.9519
2.94119
2.93505
2.92959
2.92616
2.91952
2.90847
2.87224
2.79835
2.62236
2.18868
1.38965
0.269988
0.279166
0.102266
0.303117
0.351599
0.318917
0.272218
0.263698
0.234594
0.20468
0.202107
0.191942
2.96768
2.9519
2.9412
2.93506
2.9296
2.92621
2.91968
2.90883
2.87328
2.80048
2.62752
2.20014
1.409
0.293214
0.266593
0.124568
0.317898
0.365039
0.337672
0.305808
0.296747
0.276466
0.254318
0.250243
0.234409
2.9677
2.95191
2.94121
2.93507
2.92963
2.92634
2.92006
2.90926
2.872
2.80592
2.62429
2.22674
1.43544
0.310587
0.233472
0.149465
0.335314
0.38117
0.3592
0.337004
0.332125
0.321368
0.308352
0.30494
0.290404
2.9677
2.95191
2.94122
2.93509
2.92964
2.92641
2.92032
2.90975
2.87341
2.80889
2.63188
2.24277
1.4665
0.346323
0.215614
0.174952
0.353137
0.398746
0.382591
0.369126
0.370472
0.369475
0.367513
0.368565
0.365954
2.96771
2.95192
2.94123
2.93511
2.92965
2.9265
2.92063
2.91038
2.87509
2.81259
2.64126
2.2611
1.50587
0.390762
0.190108
0.202362
0.37206
0.417758
0.407779
0.402411
0.410374
0.420079
0.432172
0.446597
0.471536
2.96776
2.9519
2.94126
2.93508
2.92968
2.92663
2.92112
2.91116
2.87782
2.81676
2.65416
2.281
1.54861
0.448797
0.177063
0.231713
0.392241
0.438391
0.434359
0.436476
0.451023
0.472262
0.503793
0.542462
0.645756
3.04711
3.07643
3.10462
3.12618
3.14793
3.16355
3.17722
3.17373
3.16575
3.10935
2.98407
2.62291
1.90054
0.88215
0.419987
0.49079
0.590864
0.646429
0.649973
0.636076
0.61368
0.576476
0.506371
0.378013
0.272783
3.04651
3.07705
3.10393
3.12692
3.14712
3.16458
3.17643
3.17631
3.16189
3.12133
2.96664
2.65215
1.89661
0.840152
0.40428
0.477872
0.579251
0.63414
0.636062
0.598187
0.581865
0.545263
0.468779
0.333669
0.230071
3.04706
3.07647
3.10456
3.12623
3.14789
3.16359
3.1774
3.17427
3.16733
3.1108
2.99067
2.62713
1.90429
0.904954
0.435582
0.503294
0.600239
0.652253
0.653125
0.618942
0.597558
0.560144
0.482304
0.347518
0.238218
3.0464
3.07716
3.10382
3.12704
3.14701
3.16469
3.1765
3.17634
3.16173
3.11793
2.96844
2.65071
1.91006
0.880624
0.429975
0.499427
0.596028
0.65128
0.654289
0.630435
0.604689
0.567325
0.492686
0.360462
0.25105
3.04639
3.07716
3.1038
3.12704
3.14701
3.16474
3.17681
3.17647
3.16173
3.11564
2.97192
2.65739
1.91899
0.90134
0.440986
0.508288
0.602257
0.656275
0.657567
0.630499
0.604487
0.568052
0.496374
0.366962
0.259556
3.0465
3.07705
3.10393
3.12693
3.14712
3.16459
3.17662
3.17654
3.16311
3.12142
2.97738
2.67174
1.9378
0.919328
0.454959
0.519969
0.610522
0.663747
0.665091
0.642518
0.615342
0.578061
0.507747
0.380013
0.274361
3.04716
3.0764
3.10466
3.12616
3.14799
3.1636
3.17777
3.1758
3.16891
3.11654
3.00233
2.66013
2.0008
0.97668
0.494829
0.55019
0.631952
0.681609
0.682501
0.661914
0.634686
0.597268
0.529128
0.40427
0.302086
3.0472
3.07637
3.10473
3.12613
3.14807
3.16362
3.1779
3.17643
3.1685
3.1193
3.00669
2.67549
2.04173
1.00035
0.515195
0.567371
0.644175
0.694221
0.697533
0.680545
0.656366
0.621846
0.559279
0.441537
0.350835
3.04755
3.07603
3.10509
3.12576
3.14847
3.16325
3.1786
3.17725
3.16991
3.12254
3.01361
2.69238
2.07573
1.04264
0.552657
0.590901
0.658713
0.707966
0.712941
0.699182
0.679882
0.650832
0.598839
0.497689
0.434689
3.04781
3.07575
3.10534
3.12548
3.1487
3.16305
3.17916
3.17851
3.17194
3.12745
3.02459
2.71002
2.10728
1.10335
0.601603
0.620409
0.679805
0.728169
0.734289
0.723288
0.709188
0.688643
0.654853
0.588515
0.593471
3.04426
3.07935
3.10158
3.12931
3.14483
3.16707
3.17525
3.18312
3.17177
3.14304
3.02002
2.77804
2.08843
1.13201
0.640897
0.643634
0.695234
0.744732
0.753468
0.746768
0.740438
0.733812
0.727954
0.726673
0.777266
3.04728
3.07623
3.10482
3.12594
3.14824
3.16357
3.17901
3.18018
3.17467
3.13545
3.04472
2.75642
2.17713
1.24546
0.708232
0.68659
0.727569
0.77015
0.780064
0.776265
0.775165
0.779548
0.792395
0.8233
0.896728
3.04451
3.07913
3.10179
3.12914
3.14501
3.16698
3.17596
3.18495
3.17499
3.15062
3.04055
2.82853
2.19819
1.28852
0.756812
0.725655
0.76013
0.796917
0.808619
0.808197
0.811802
0.822574
0.84375
0.882763
0.955988
3.04778
3.07574
3.10539
3.12538
3.14891
3.163
3.18039
3.18248
3.17902
3.14198
3.05457
2.80512
2.25198
1.38597
0.805705
0.761074
0.787869
0.817846
0.832515
0.836728
0.845226
0.860104
0.885141
0.92459
0.990327
3.04747
3.07607
3.10506
3.12574
3.14858
3.16339
3.18041
3.18424
3.18136
3.1493
3.07524
2.83471
2.37705
1.45926
0.858862
0.797661
0.81361
0.835478
0.851969
0.860013
0.871769
0.88917
0.915466
0.953756
1.01133
3.04515
3.07848
3.10252
3.12837
3.14596
3.16615
3.17804
3.18842
3.18154
3.16081
3.07808
2.90385
2.40396
1.56658
0.934682
0.83526
0.838484
0.854351
0.871643
0.882246
0.895464
0.913346
0.939174
0.974355
1.0239
3.04541
3.07818
3.10284
3.128
3.14628
3.16591
3.1786
3.18934
3.1839
3.1643
3.09372
2.93594
2.49916
1.70514
1.01174
0.86285
0.857687
0.870202
0.888378
0.90261
0.916361
0.934813
0.958873
0.991885
1.0343
3.04559
3.07802
3.10304
3.1278
3.14644
3.16578
3.17914
3.18978
3.18495
3.16862
3.11182
2.96417
2.61096
1.84526
1.11686
0.900391
0.885281
0.894649
0.911995
0.926388
0.938669
0.954655
0.976563
1.00546
1.04268
3.04556
3.07807
3.10303
3.12784
3.14653
3.16575
3.17934
3.19097
3.18673
3.17554
3.1319
3.00733
2.74037
2.0408
1.26513
0.958033
0.927698
0.93445
0.949229
0.961317
0.970107
0.981533
0.998968
1.0226
1.05256
3.04822
3.07532
3.10586
3.12488
3.14952
3.16263
3.18264
3.18878
3.19469
3.18473
3.15572
3.05418
2.83594
2.26807
1.42514
0.986185
0.94074
0.952465
0.971
0.987507
0.99762
1.00848
1.02319
1.04245
1.06658
3.04516
3.07847
3.10255
3.12837
3.14597
3.16647
3.17893
3.19403
3.19556
3.19257
3.16061
3.08716
2.86186
2.41122
1.55969
1.00485
0.932623
0.945756
0.967215
0.990041
1.0052
1.01897
1.03434
1.05278
1.07556
3.04743
3.07611
3.10496
3.12582
3.14856
3.16378
3.1817
3.19162
3.20024
3.19366
3.1728
3.09776
2.92632
2.48891
1.66934
1.06899
0.942603
0.941052
0.958206
0.979748
0.999399
1.01552
1.0324
1.05214
1.07519
3.0457
3.07792
3.1031
3.12777
3.14658
3.16588
3.1796
3.1943
3.19959
3.19798
3.17744
3.11797
2.96936
2.59667
1.89857
1.18412
0.974398
0.958139
0.966287
0.98252
1.00021
1.01534
1.0318
1.0509
1.07294
3.04611
3.07756
3.10347
3.12739
3.14696
3.16547
3.18008
3.1942
3.2018
3.2012
3.18671
3.14554
3.02462
2.76905
2.13918
1.30975
1.00956
0.97999
0.983771
0.997842
1.01467
1.02796
1.04209
1.05863
1.07793
3.04648
3.07712
3.10394
3.12686
3.14736
3.16498
3.18047
3.19393
3.20326
3.20304
3.19337
3.16189
3.06503
2.85691
2.28869
1.47692
1.02242
0.967719
0.976798
0.995187
1.01677
1.03311
1.04817
1.06437
1.08257
3.04478
3.07884
3.10211
3.12879
3.14548
3.16701
3.17865
3.19589
3.20174
3.20568
3.19833
3.17142
3.08841
2.89944
2.40218
1.58404
1.01709
0.932996
0.944928
0.96604
0.992274
1.01644
1.03646
1.05566
1.0754
3.04496
3.07866
3.10231
3.12857
3.14571
3.16679
3.17887
3.19585
3.2023
3.20818
3.20198
3.17918
3.10831
2.94207
2.51442
1.7213
1.06889
0.921221
0.921037
0.939493
0.966103
0.993945
1.01686
1.03788
1.059
3.04537
3.07828
3.10271
3.12818
3.14612
3.16636
3.17934
3.19547
3.20321
3.20965
3.2044
3.18557
3.12896
2.98237
2.63549
1.8909
1.1511
0.928739
0.916714
0.930671
0.957019
0.986018
1.00872
1.02873
1.04868
3.04573
3.07792
3.10311
3.12775
3.14658
3.16593
3.1797
3.19526
3.20408
3.21136
3.20763
3.19177
3.14823
3.02399
2.75211
2.08636
1.26644
0.943706
0.918756
0.933759
0.961507
0.990683
1.01143
1.02898
1.04655
3.04564
3.07795
3.10312
3.12774
3.14665
3.16581
3.18002
3.19489
3.20521
3.21395
3.21101
3.19931
3.16002
3.06167
2.80655
2.27183
1.39062
0.942166
0.899491
0.918327
0.94854
0.980016
1.00143
1.01904
1.03651
3.04581
3.07777
3.10323
3.12759
3.1467
3.16571
3.18007
3.19484
3.20526
3.2144
3.21159
3.20507
3.16964
3.08203
2.84161
2.35536
1.45512
0.913599
0.858978
0.881365
0.912701
0.946506
0.97166
0.992487
1.01221
3.04532
3.0782
3.10282
3.12797
3.14638
3.16603
3.17986
3.19513
3.20524
3.21523
3.21417
3.20896
3.17711
3.10006
2.87573
2.44178
1.54065
0.940282
0.845504
0.856185
0.880424
0.911771
0.940285
0.963196
0.983853
3.04551
3.0781
3.1029
3.12799
3.14632
3.16624
3.17952
3.19561
3.20478
3.21633
3.216
3.21186
3.18411
3.11448
2.91569
2.51986
1.66442
0.989938
0.842707
0.843296
0.861591
0.89239
0.924244
0.948289
0.968286
3.04549
3.07814
3.10288
3.12803
3.14628
3.16624
3.17956
3.19552
3.20494
3.21665
3.21761
3.21483
3.19054
3.13105
2.95671
2.61296
1.80557
1.05959
0.848532
0.845015
0.864292
0.899084
0.933598
0.956884
0.974588
3.04567
3.07796
3.10307
3.12783
3.14652
3.16596
3.17991
3.19511
3.20546
3.21627
3.21884
3.21639
3.19804
3.14428
3.00907
2.69765
2.02404
1.14238
0.855111
0.851875
0.875766
0.916156
0.950246
0.969738
0.983178
3.04581
3.0778
3.10324
3.12762
3.14676
3.16568
3.1802
3.19485
3.20568
3.21622
3.21976
3.21731
3.20217
3.15155
3.03828
2.73279
2.11834
1.23322
0.825107
0.812585
0.847131
0.897552
0.936682
0.957193
0.970224
3.04595
3.07765
3.10338
3.1275
3.14683
3.16565
3.18016
3.19495
3.2056
3.21677
3.2212
3.22034
3.2053
3.16498
3.04968
2.80451
2.1606
1.26904
0.798206
0.774785
0.812621
0.865734
0.907942
0.930145
0.94407
3.04601
3.07759
3.10345
3.12743
3.14691
3.16557
3.18023
3.19489
3.20567
3.21676
3.22163
3.22083
3.20722
3.1659
3.0597
2.80181
2.18862
1.29173
0.786943
0.756261
0.792893
0.844064
0.886268
0.908847
0.923224
3.04609
3.0775
3.10354
3.12733
3.14701
3.16547
3.18034
3.19478
3.2058
3.21673
3.22213
3.22154
3.20885
3.17191
3.0676
2.83316
2.22411
1.33048
0.800091
0.760285
0.789522
0.834387
0.874925
0.897208
0.911303
3.0461
3.07747
3.10361
3.12728
3.14709
3.16542
3.18041
3.19472
3.20587
3.21676
3.22252
3.22205
3.21022
3.17599
3.07592
2.85758
2.26226
1.38879
0.811201
0.762252
0.786536
0.827058
0.866626
0.88897
0.902941
3.04623
3.07739
3.10363
3.12726
3.14709
3.16537
3.18046
3.19465
3.20594
3.21675
3.22281
3.22242
3.21117
3.17933
3.08167
2.87699
2.29512
1.43756
0.833548
0.769257
0.789315
0.825504
0.862881
0.884633
0.898256
3.04634
3.07724
3.10381
3.12705
3.1473
3.16517
3.18063
3.19449
3.20612
3.2167
3.22353
3.22308
3.21218
3.17893
3.08668
2.86855
2.31751
1.43761
0.839779
0.763476
0.78131
0.815572
0.853352
0.87632
0.89078
3.04638
3.0772
3.10386
3.127
3.14734
3.16512
3.18067
3.19445
3.20617
3.21669
3.22371
3.22338
3.21342
3.18384
3.09546
2.90111
2.36358
1.51784
0.859158
0.760687
0.773121
0.805846
0.844106
0.868551
0.884259
3.04643
3.07715
3.10392
3.12695
3.1474
3.16506
3.18071
3.19438
3.20618
3.21663
3.22377
3.22351
3.21463
3.18665
3.10389
2.91735
2.40966
1.57877
0.877203
0.748436
0.758645
0.792551
0.835727
0.864554
0.882275
3.04619
3.07717
3.10388
3.12681
3.14746
3.16493
3.18075
3.1943
3.20626
3.21657
3.22387
3.22372
3.21598
3.19111
3.11278
2.94376
2.45849
1.65193
0.89891
0.731614
0.743891
0.784551
0.836764
0.871446
0.891734
3.04607
3.07725
3.10377
3.12691
3.14742
3.16495
3.18084
3.19424
3.20634
3.21651
3.22396
3.22385
3.21769
3.19432
3.12452
2.96076
2.52907
1.73893
0.917799
0.70756
0.726885
0.782204
0.850099
0.89088
0.911899
3.04572
3.07779
3.1033
3.12743
3.14703
3.16527
3.18066
3.19434
3.20636
3.21647
3.22401
3.22387
3.21883
3.19562
3.13765
2.97608
2.60767
1.82513
0.955374
0.704156
0.730109
0.79513
0.869359
0.907413
0.920308
3.04531
3.07836
3.10263
3.12826
3.14609
3.16637
3.17944
3.19569
3.20493
3.21797
3.22272
3.22635
3.22142
3.20211
3.14531
3.00828
2.65813
1.94981
1.01917
0.662606
0.687722
0.757413
0.838803
0.878906
0.890487
3.04537
3.07821
3.1028
3.12808
3.14627
3.16622
3.17961
3.19553
3.20513
3.21778
3.22299
3.22646
3.2219
3.20322
3.15127
3.01674
2.68696
2.00581
1.05083
0.612117
0.638948
0.719683
0.812171
0.858627
0.873365
3.04552
3.07807
3.10294
3.12793
3.1464
3.16608
3.17971
3.19542
3.20522
3.21768
3.22302
3.22608
3.22151
3.20247
3.15252
3.01416
2.69515
1.9918
1.04881
0.578874
0.612398
0.699899
0.796519
0.846041
0.862877
2.96817
2.95136
2.94175
2.93446
2.93029
2.92586
2.9219
2.90843
2.8858
2.8166
2.66356
2.32782
1.598
0.552815
0.16964
0.266066
0.415701
0.459645
0.460662
0.468965
0.490963
0.52488
0.57877
0.653271
0.808672
2.96832
2.95132
2.94182
2.93447
2.93033
2.92595
2.92205
2.90944
2.88763
2.82476
2.67237
2.36056
1.6363
0.607866
0.188736
0.30363
0.440689
0.481147
0.485901
0.499052
0.528433
0.574742
0.643031
0.735387
0.876598
2.96816
2.95138
2.94173
2.93448
2.93029
2.92597
2.92226
2.91008
2.88984
2.82648
2.68877
2.37635
1.68879
0.690844
0.230209
0.343954
0.460474
0.49944
0.508988
0.526875
0.562157
0.615882
0.688596
0.779433
0.891849
2.96822
2.95144
2.94173
2.93461
2.93026
2.92619
2.92268
2.91217
2.89174
2.83851
2.69944
2.41843
1.74358
0.745869
0.282191
0.379463
0.467103
0.510363
0.526916
0.550807
0.590724
0.645903
0.716052
0.801018
0.897433
2.96806
2.95159
2.94159
2.93477
2.93008
2.92658
2.92262
2.91542
2.89253
2.84262
2.72619
2.41853
1.8248
0.837823
0.354397
0.405783
0.466073
0.515197
0.539338
0.568375
0.611824
0.66507
0.729803
0.808574
0.894381
2.96809
2.95148
2.94167
2.93459
2.93026
2.92621
2.92285
2.91341
2.89746
2.84577
2.7372
2.48262
1.88658
0.972293
0.435658
0.422703
0.470646
0.519685
0.548522
0.579752
0.62357
0.675616
0.734953
0.807247
0.885207
2.96808
2.9515
2.94165
2.9346
2.93025
2.92629
2.92308
2.91467
2.9006
2.85447
2.75635
2.52985
1.97084
1.09423
0.520285
0.434767
0.473601
0.523336
0.555966
0.587356
0.628639
0.679019
0.734733
0.800534
0.871285
2.9678
2.95177
2.94139
2.93489
2.92995
2.92679
2.92328
2.91853
2.90264
2.8673
2.78681
2.55809
2.12932
1.23899
0.614146
0.444903
0.477186
0.527023
0.563095
0.593217
0.630433
0.677238
0.729477
0.788684
0.852293
2.96758
2.95199
2.94118
2.93509
2.92979
2.92698
2.92342
2.91957
2.90508
2.87673
2.80528
2.6158
2.24981
1.42567
0.719178
0.473578
0.496162
0.540436
0.574695
0.601025
0.632418
0.674096
0.721781
0.773679
0.830276
2.96773
2.95194
2.94126
2.93511
2.92983
2.92705
2.92358
2.92034
2.90775
2.88658
2.82146
2.68097
2.36757
1.69809
0.851491
0.529965
0.538325
0.567644
0.59541
0.614368
0.638278
0.672771
0.713603
0.759088
0.809061
2.9678
2.95173
2.94142
2.93483
2.93009
2.92669
2.92421
2.9207
2.91319
2.88854
2.84178
2.71824
2.42843
1.83082
0.920975
0.544823
0.554188
0.583214
0.612159
0.628075
0.646197
0.672737
0.706302
0.745844
0.790333
2.96774
2.95188
2.94129
2.93501
2.92994
2.92691
2.9241
2.92144
2.91505
2.89515
2.85269
2.75227
2.4831
1.97346
1.0447
0.591328
0.55472
0.583267
0.613648
0.633578
0.650209
0.671748
0.699928
0.734355
0.773641
2.9678
2.95179
2.94136
2.93492
2.92997
2.92691
2.92403
2.92177
2.91501
2.90163
2.86618
2.77275
2.57733
2.06123
1.19898
0.664941
0.545046
0.570055
0.601996
0.628233
0.646966
0.667959
0.694338
0.725513
0.760526
2.9682
2.95142
2.94172
2.93458
2.93033
2.92656
2.92453
2.92158
2.91775
2.90362
2.87533
2.80206
2.61162
2.23283
1.4173
0.768632
0.550127
0.56109
0.589359
0.620658
0.642359
0.664043
0.689454
0.718556
0.750502
2.96835
2.95128
2.94186
2.93444
2.93045
2.92644
2.92465
2.92172
2.91871
2.90625
2.88519
2.82156
2.67892
2.36887
1.7029
0.892923
0.587664
0.578254
0.596318
0.626055
0.645846
0.665283
0.688052
0.714339
0.743308
2.9682
2.95136
2.94176
2.93449
2.93038
2.92647
2.92464
2.92191
2.91932
2.90878
2.89172
2.83503
2.72343
2.45205
1.85236
0.991852
0.588147
0.574579
0.597986
0.627776
0.648755
0.667719
0.688727
0.712454
0.73864
2.96815
2.95141
2.94171
2.93455
2.93033
2.92654
2.92462
2.92206
2.91984
2.91108
2.89658
2.84863
2.75048
2.51735
1.96374
1.1063
0.611154
0.550235
0.577442
0.611397
0.641705
0.664916
0.686654
0.709535
0.734165
2.96823
2.9514
2.94174
2.93458
2.93031
2.92663
2.92453
2.92241
2.92025
2.91504
2.89892
2.8638
2.78135
2.55615
2.12805
1.24677
0.667741
0.513208
0.540659
0.585
0.628396
0.657391
0.681013
0.704329
0.728613
2.96811
2.95149
2.94166
2.93462
2.93029
2.92662
2.92459
2.92231
2.9205
2.9145
2.90405
2.86915
2.80066
2.62559
2.21663
1.45426
0.729087
0.489731
0.515993
0.568804
0.619438
0.651026
0.675317
0.69874
0.722757
2.96806
2.95153
2.94163
2.93466
2.93026
2.92665
2.92459
2.92236
2.92063
2.91561
2.90701
2.8763
2.82185
2.66798
2.34079
1.6578
0.801287
0.491389
0.516119
0.564452
0.614761
0.645439
0.669242
0.692612
0.716574
2.96806
2.95153
2.94162
2.93467
2.93024
2.92666
2.92457
2.92241
2.92083
2.91656
2.90905
2.88195
2.83478
2.69813
2.40676
1.77763
0.843488
0.467659
0.493969
0.54242
0.597132
0.631518
0.657988
0.682683
0.707045
2.96801
2.95156
2.94158
2.93468
2.93022
2.92668
2.92456
2.92247
2.92103
2.91745
2.91074
2.88738
2.84386
2.72689
2.44468
1.88022
0.922268
0.472642
0.459165
0.507559
0.564398
0.607204
0.639519
0.667029
0.692603
2.96803
2.95155
2.9416
2.93468
2.93023
2.92669
2.92457
2.92249
2.92114
2.91798
2.91213
2.89019
2.85314
2.74525
2.49412
1.99023
1.01118
0.504733
0.414471
0.456657
0.520086
0.577667
0.617878
0.648415
0.675139
2.96797
2.95158
2.94155
2.93471
2.93018
2.9267
2.92453
2.92252
2.92129
2.91873
2.91348
2.89547
2.86067
2.76884
2.53283
2.07659
1.15518
0.558441
0.367704
0.405288
0.487137
0.558158
0.602253
0.632979
0.659249
2.96775
2.9518
2.94137
2.93488
2.93006
2.92682
2.92446
2.92264
2.92129
2.91924
2.91463
2.89791
2.86948
2.78624
2.59126
2.18556
1.32732
0.620088
0.342914
0.387114
0.489106
0.563901
0.604431
0.630431
0.653235
2.96777
2.95182
2.94133
2.93496
2.92995
2.92697
2.92429
2.92285
2.92104
2.91967
2.91435
2.90434
2.87559
2.80502
2.64972
2.25212
1.50678
0.665116
0.347103
0.401923
0.506993
0.578091
0.612474
0.633047
0.651864
2.96776
2.95185
2.94129
2.93501
2.92989
2.92704
2.92423
2.9229
2.92112
2.9198
2.91622
2.9042
2.88129
2.81856
2.66385
2.33431
1.65488
0.704976
0.30836
0.386378
0.494413
0.570102
0.604802
0.624102
0.641757
2.96783
2.95176
2.94138
2.93492
2.92999
2.92694
2.92431
2.92284
2.92111
2.9198
2.91545
2.90731
2.8832
2.82499
2.69755
2.34916
1.70813
0.722878
0.268043
0.357883
0.46585
0.545048
0.583312
0.604962
0.623907
2.96782
2.95177
2.94138
2.93492
2.92999
2.92694
2.92431
2.92285
2.9211
2.9198
2.91556
2.90803
2.88395
2.83009
2.70668
2.37753
1.76003
0.755553
0.26657
0.337638
0.430682
0.513289
0.556266
0.581185
0.602011
2.96793
2.95167
2.94148
2.93483
2.93009
2.92685
2.92442
2.92274
2.92131
2.91988
2.91704
2.90595
2.88805
2.83046
2.7072
2.42408
1.78022
0.829274
0.293065
0.328265
0.404991
0.489953
0.536187
0.562779
0.584005
2.96798
2.95163
2.94152
2.93479
2.93013
2.92681
2.92446
2.9227
2.92135
2.91986
2.91726
2.90705
2.88946
2.83602
2.7116
2.43622
1.80474
0.858659
0.314825
0.31838
0.388602
0.472385
0.520571
0.548693
0.570178
2.9679
2.95171
2.94144
2.93487
2.93004
2.9269
2.92436
2.92281
2.92119
2.92003
2.91662
2.9097
2.89086
2.84118
2.73686
2.43134
1.86621
0.898459
0.331085
0.301472
0.366576
0.451596
0.504268
0.535851
0.558743
2.96805
2.95157
2.94158
2.93474
2.93018
2.92676
2.9245
2.92267
2.9214
2.91991
2.91755
2.90792
2.89224
2.84133
2.73177
2.47907
1.87756
0.958273
0.354578
0.280911
0.340315
0.429938
0.490433
0.526758
0.551714
2.96808
2.95154
2.94161
2.93472
2.9302
2.92675
2.92452
2.92265
2.92141
2.91995
2.9177
2.90828
2.89361
2.84304
2.74379
2.49953
1.92413
1.02608
0.379655
0.249713
0.308628
0.412853
0.484312
0.525885
0.552849
2.96812
2.95147
2.94166
2.93464
2.93025
2.92667
2.92457
2.92258
2.92147
2.9199
2.91794
2.90949
2.89554
2.85076
2.75085
2.52545
1.95261
1.06932
0.397112
0.204276
0.274975
0.406472
0.491439
0.537887
0.565818
2.96816
2.95143
2.94169
2.9346
2.93028
2.92664
2.9246
2.92255
2.9215
2.9199
2.91814
2.91031
2.89756
2.85526
2.76457
2.55393
2.02385
1.16163
0.421141
0.159024
0.249758
0.414471
0.51186
0.560551
0.585999
2.9679
2.95169
2.94145
2.93483
2.93007
2.92685
2.92439
2.92278
2.92126
2.92023
2.91788
2.91306
2.89927
2.86419
2.78836
2.56299
2.14065
1.26004
0.448495
0.125773
0.243325
0.434681
0.539633
0.585924
0.60489
2.96811
2.95147
2.94166
2.93462
2.93029
2.92663
2.92463
2.92253
2.92155
2.91994
2.91862
2.91248
2.90137
2.86766
2.78861
2.60947
2.15627
1.35262
0.450931
0.0962983
0.226726
0.43358
0.544062
0.588661
0.60357
2.96782
2.95174
2.94139
2.93488
2.93002
2.9269
2.92435
2.92281
2.92125
2.92028
2.91826
2.91424
2.90068
2.8721
2.80187
2.61514
2.25205
1.46228
0.462623
0.0561791
0.202901
0.424731
0.542838
0.58988
0.604721
2.96785
2.95173
2.94142
2.93488
2.93003
2.9269
2.92436
2.92282
2.92126
2.92032
2.91836
2.91445
2.90092
2.87372
2.80456
2.62321
2.26751
1.49199
0.434456
0.0564756
0.169172
0.408054
0.53345
0.584133
0.600575
2.98726
2.9687
2.95257
2.93393
2.92072
2.9053
2.8943
2.87442
2.84273
2.75985
2.5858
2.21997
1.4248
0.343899
0.343926
0.251982
0.391119
0.427347
0.426256
0.449492
0.486359
0.539809
0.610271
0.704419
0.87398
2.98734
2.96862
2.95264
2.93385
2.92079
2.90527
2.89459
2.87543
2.84532
2.7652
2.6033
2.24788
1.50485
0.427493
0.283554
0.283013
0.414874
0.449643
0.45541
0.482601
0.526022
0.587867
0.669351
0.774928
0.925148
2.98696
2.96901
2.95222
2.93433
2.92025
2.90604
2.89397
2.87778
2.84282
2.77522
2.62135
2.24749
1.55982
0.460259
0.256409
0.315583
0.432825
0.467073
0.47948
0.510547
0.560357
0.628539
0.71074
0.810783
0.930383
2.987
2.96896
2.95229
2.93427
2.92035
2.906
2.8943
2.87855
2.84623
2.78174
2.63872
2.27932
1.62104
0.540814
0.240663
0.343105
0.44331
0.47789
0.497058
0.532827
0.588835
0.657244
0.735943
0.825433
0.924863
2.98504
2.9709
2.95043
2.93605
2.9187
2.9075
2.89338
2.88028
2.85242
2.78817
2.64396
2.35245
1.67008
0.64449
0.253724
0.363503
0.443553
0.483088
0.510505
0.550655
0.609194
0.675533
0.746915
0.827635
0.912852
2.98696
2.96901
2.95228
2.93426
2.92044
2.90589
2.89495
2.87986
2.85618
2.78989
2.66885
2.3811
1.75376
0.778653
0.30828
0.369463
0.430697
0.483807
0.51974
0.562379
0.620116
0.683182
0.751647
0.824264
0.897828
2.98696
2.96901
2.95227
2.93427
2.92042
2.90597
2.89502
2.88058
2.8591
2.79837
2.68978
2.42706
1.84327
0.909997
0.384422
0.359338
0.419438
0.482579
0.524128
0.567659
0.623066
0.683665
0.748587
0.817134
0.88249
2.98598
2.97
2.9513
2.93524
2.91948
2.90695
2.89433
2.88237
2.86263
2.81225
2.71024
2.48798
1.93733
1.04476
0.464752
0.348307
0.404701
0.478293
0.524292
0.567466
0.620033
0.678257
0.740227
0.803534
0.863797
2.98647
2.96951
2.95176
2.93481
2.91989
2.90662
2.89481
2.88282
2.86577
2.82122
2.73629
2.53723
2.0716
1.22434
0.557685
0.357051
0.39872
0.475184
0.521464
0.562757
0.611774
0.668087
0.726463
0.785566
0.841819
2.98564
2.97031
2.95098
2.93556
2.91914
2.90741
2.89404
2.88414
2.86572
2.83587
2.75715
2.58887
2.2338
1.45727
0.65607
0.385965
0.421437
0.484984
0.522908
0.557979
0.60186
0.653744
0.707473
0.763859
0.817624
2.98633
2.96968
2.9516
2.93501
2.91968
2.90698
2.89464
2.88469
2.86959
2.84315
2.77768
2.63149
2.33558
1.66566
0.729147
0.408348
0.451512
0.497558
0.527924
0.555655
0.59244
0.637897
0.68581
0.738726
0.791552
2.98618
2.96977
2.95154
2.93498
2.91978
2.90677
2.89507
2.88422
2.87139
2.84331
2.79439
2.66798
2.37905
1.81088