/*--------------------------------*- C++ -*----------------------------------*\
  =========                 |
  \\      /  F ield         | OpenFOAM: The Open Source CFD Toolbox
   \\    /   O peration     | Website:  https://openfoam.org
    \\  /    A nd           | Version:  6
     \\/     M anipulation  |
\*---------------------------------------------------------------------------*/
FoamFile
{
    version     2.0;
    format      ascii;
    class       volScalarField;
    location    "9";
    object      p;
}
// * * * * * * * * * * * * * * * * * * * * * * * * * * * * * * * * * * * * * //

dimensions      [1 -1 -2 0 0 0 0];

internalField   nonuniform List<scalar> 
26250
(
0.957353
0.911613
0.874301
0.845427
0.818352
0.800584
0.779559
0.777929
0.781539
0.824608
0.866286
1.1966
1.75062
3.89374
8.52142
8.18949
7.31569
6.7556
6.73104
6.78579
6.83178
6.93799
7.17395
7.65982
8.35026
0.957354
0.911606
0.87431
0.845409
0.818377
0.800545
0.779598
0.777771
0.781344
0.824213
0.865579
1.19512
1.74699
3.88612
8.5244
8.17379
7.28666
6.74168
6.70646
6.75169
6.84235
6.96778
7.20504
7.66991
8.36369
0.95735
0.911599
0.874321
0.845382
0.818426
0.80046
0.77969
0.777436
0.780948
0.823411
0.864317
1.19136
1.73835
3.8614
8.46428
8.13882
7.28444
6.73485
6.691
6.7343
6.83423
6.97577
7.21891
7.67023
8.38072
0.957308
0.911652
0.874286
0.845431
0.818407
0.800426
0.779764
0.776525
0.77981
0.821043
0.860842
1.18392
1.72862
3.81721
8.38148
8.08538
7.27669
6.72199
6.68046
6.72654
6.81157
6.95332
7.20904
7.66221
8.38468
0.957155
0.911884
0.874084
0.845752
0.817947
0.801214
0.778059
0.777706
0.784328
0.792808
0.918516
1.05119
1.92928
3.67458
8.32159
8.01459
7.25746
6.69301
6.64346
6.68469
6.77073
6.91791
7.18383
7.64095
8.378
0.957258
0.911695
0.874277
0.845454
0.818441
0.800328
0.779838
0.775402
0.778416
0.816588
0.853947
1.16543
1.69123
3.69525
8.15045
7.91059
7.20209
6.65342
6.59515
6.63251
6.71817
6.87293
7.14132
7.59684
8.35724
0.95705
0.912007
0.874094
0.8457
0.81815
0.800833
0.778819
0.776924
0.782424
0.790706
0.909351
1.03247
1.87646
3.51973
8.03043
7.78872
7.15101
6.6017
6.53376
6.56786
6.64983
6.80459
7.0683
7.51485
8.30324
0.957374
0.911535
0.874431
0.845206
0.818707
0.799918
0.780169
0.774433
0.777232
0.814108
0.84894
1.14602
1.63176
3.52616
7.78933
7.62906
7.06731
6.54352
6.46707
6.49633
6.56819
6.7096
6.9546
7.37449
8.17599
0.957495
0.911368
0.874535
0.845035
0.818845
0.799735
0.780164
0.774087
0.776769
0.812613
0.845539
1.13349
1.58349
3.43488
7.56572
7.45211
6.97592
6.47543
6.38871
6.4118
6.46946
6.58463
6.79064
7.14777
7.88938
0.957485
0.911367
0.874581
0.844995
0.818922
0.79959
0.780291
0.77306
0.775466
0.808742
0.839349
1.11704
1.54713
3.31833
7.32484
7.2646
6.88519
6.39928
6.29752
6.31342
6.35356
6.42644
6.55804
6.77368
7.25781
1.03418
1.06998
1.09275
1.1107
1.12192
1.13403
1.14135
1.16012
1.18942
1.29352
1.4471
2.11971
3.45432
8.37006
17.8974
15.887
14.004
13.3802
13.493
13.8773
13.8321
13.9455
14.2605
14.7282
15.1624
1.03418
1.06998
1.09275
1.11069
1.12192
1.13402
1.14133
1.16005
1.18926
1.29302
1.44606
2.11627
3.44555
8.34626
17.913
15.8265
13.955
13.3438
13.4389
13.7097
13.824
13.966
14.2541
14.6886
15.1271
1.03417
1.06997
1.09275
1.11068
1.12193
1.13401
1.14128
1.15988
1.18892
1.29189
1.44422
2.10889
3.42901
8.28645
17.778
15.7513
13.8817
13.2893
13.3846
13.6462
13.7776
13.9179
14.1907
14.5813
15.0358
1.03415
1.07
1.09273
1.11071
1.12191
1.13401
1.14122
1.1596
1.1883
1.28999
1.4408
2.09709
3.40052
8.18357
17.6248
15.643
13.7837
13.2175
13.3354
13.6638
13.6723
13.7829
14.0492
14.4066
14.877
1.03408
1.07008
1.09264
1.11085
1.12175
1.13424
1.14099
1.15952
1.18502
1.29072
1.42227
2.09469
3.3687
7.99515
17.4452
15.5003
13.6543
13.1056
13.2159
13.49
13.5197
13.6211
13.8645
14.1808
14.6584
1.03411
1.07003
1.09271
1.11075
1.1219
1.134
1.14102
1.15885
1.18667
1.28494
1.43049
2.06381
3.31709
7.88679
17.186
15.3119
13.4894
12.9609
13.0618
13.3068
13.3387
13.4265
13.6353
13.8953
14.3717
1.03405
1.0701
1.09265
1.11084
1.12177
1.13417
1.14076
1.15865
1.18331
1.28497
1.41031
2.0561
3.27102
7.66268
16.9028
15.0881
13.2995
12.79
12.8807
13.0927
13.1239
13.1873
13.3453
13.5328
13.9883
1.03419
1.06995
1.09278
1.11065
1.12194
1.13387
1.1407
1.15783
1.18459
1.27864
1.41618
2.02026
3.20465
7.49644
16.4945
14.832
13.0904
12.5999
12.6784
12.8579
12.8724
12.893
12.9808
13.0735
13.4593
1.03427
1.06986
1.09284
1.11055
1.12199
1.13378
1.14049
1.15718
1.18331
1.27447
1.40759
1.99094
3.13152
7.26145
16.0748
14.5416
12.8667
12.3928
12.4557
12.5942
12.5822
12.5399
12.5338
12.4771
12.6955
1.0343
1.06979
1.09295
1.11042
1.12213
1.13358
1.14019
1.15629
1.18131
1.26953
1.39388
1.95911
3.05087
6.97163
15.6061
14.2375
12.6405
12.1733
12.217
12.3048
12.2639
12.1432
11.9917
11.6743
11.5077
1.00867
1.03205
1.05906
1.0877
1.11325
1.13839
1.16032
1.18722
1.2298
1.35789
1.54714
2.35121
3.94324
9.87619
20.8893
18.1206
16.0358
15.4133
15.5467
15.8833
16.0242
16.1281
16.4081
16.7726
17.0756
1.00866
1.03206
1.05905
1.08771
1.11324
1.1384
1.16032
1.18724
1.22979
1.35711
1.54669
2.34643
3.93203
9.83457
20.8273
18.0719
15.9889
15.3924
15.5406
15.8937
16.0131
16.0854
16.3473
16.6843
16.9915
1.00866
1.03206
1.05905
1.08771
1.11324
1.13841
1.16028
1.18717
1.22941
1.35627
1.54402
2.33931
3.91482
9.77491
20.7556
17.9708
15.8842
15.3284
15.4983
15.8857
15.9476
15.9698
16.196
16.4809
16.7946
1.00864
1.03208
1.05903
1.08773
1.11322
1.13842
1.16026
1.18715
1.2291
1.35416
1.54111
2.32482
3.88009
9.64676
20.6235
17.832
15.7387
15.2198
15.4043
15.7938
15.8069
15.7905
15.9744
16.2007
16.5118
1.00863
1.03209
1.05902
1.08775
1.11321
1.13842
1.16025
1.18709
1.22865
1.35128
1.53718
2.30469
3.83215
9.4626
20.4344
17.6596
15.5609
15.0753
15.2685
15.6719
15.6228
15.568
15.703
15.8581
16.1574
1.00864
1.03209
1.05902
1.08775
1.1132
1.13844
1.16015
1.1869
1.22787
1.34861
1.53163
2.28457
3.78395
9.29447
20.1439
17.4372
15.3503
14.8959
15.0898
15.4882
15.4019
15.3075
15.3779
15.4461
15.7166
1.00865
1.03208
1.05902
1.08775
1.11317
1.13846
1.16003
1.18672
1.22706
1.34524
1.5256
2.26064
3.72664
9.09242
19.7856
17.1741
15.1118
14.6849
14.8713
15.2318
15.1347
14.9948
14.9856
14.9451
15.1572
1.00867
1.03206
1.05903
1.08775
1.11314
1.13848
1.15987
1.18648
1.22592
1.3416
1.51725
2.23397
3.66116
8.85636
19.3559
16.8758
14.8528
14.4482
14.6202
14.9174
14.8156
14.6251
14.5209
14.3396
14.4445
1.0087
1.03203
1.05906
1.08771
1.11314
1.13847
1.15974
1.18624
1.22464
1.33681
1.50761
2.20024
3.57872
8.56599
18.8611
16.5479
14.5796
14.1896
14.3419
14.5661
14.4499
14.1919
13.9705
13.5965
13.49
1.00875
1.03192
1.0592
1.0875
1.1134
1.13812
1.15998
1.18549
1.22241
1.33108
1.49406
2.16105
3.48608
8.2138
18.3249
16.2058
14.2987
13.9136
14.0423
14.1871
14.0486
13.7094
13.3278
12.6905
12.17
1.03415
1.07
1.09273
1.11071
1.12191
1.13403
1.14131
1.15998
1.18905
1.29291
1.44525
2.11863
3.45143
8.35378
17.8215
15.854
14.0127
13.3784
13.4515
13.6895
13.8444
14.0061
14.336
14.8083
15.2722
1.0341
1.07006
1.09265
1.11083
1.12176
1.13427
1.14114
1.1602
1.18612
1.29561
1.43007
2.12822
3.45049
8.27559
17.7871
15.8274
13.9879
13.3778
13.4884
13.8516
13.8204
13.94
14.2762
14.7465
15.2014
1.03411
1.07004
1.09269
1.11076
1.12187
1.13406
1.14128
1.15976
1.18853
1.2913
1.44208
2.10879
3.42687
8.25929
17.7121
15.7482
13.9134
13.3301
13.444
13.7769
13.7648
13.8742
14.1773
14.6097
15.0643
1.03406
1.07012
1.0926
1.1109
1.12171
1.13429
1.1411
1.15985
1.1856
1.29302
1.42568
2.1112
3.40648
8.1145
17.597
15.6404
13.8014
13.2317
13.3344
13.5956
13.6636
13.7903
14.048
14.4222
14.8859
1.03404
1.07016
1.09257
1.11095
1.12167
1.1343
1.14106
1.15953
1.18522
1.29072
1.4222
2.09585
3.36782
7.97031
17.4303
15.5006
13.6587
13.1098
13.2212
13.5105
13.534
13.6397
13.8676
14.1872
14.6569
1.03407
1.07011
1.09261
1.11089
1.12171
1.13425
1.14093
1.15916
1.18439
1.28815
1.41683
2.07769
3.32326
7.82768
17.2167
15.3123
13.4886
12.9617
13.065
13.3122
13.354
13.4481
13.6394
13.8972
14.3604
1.03417
1.06998
1.09275
1.11068
1.12192
1.13392
1.14088
1.15843
1.18586
1.28233
1.42467
2.04441
3.267
7.71205
16.8676
15.0841
13.2958
12.7916
12.8845
13.1004
13.1382
13.2049
13.3487
13.5304
13.9704
1.03422
1.06992
1.0928
1.11061
1.12196
1.13384
1.14069
1.15789
1.18476
1.27887
1.41728
2.02009
3.20597
7.50886
16.5162
14.8237
13.0837
12.6006
12.6815
12.8649
12.8833
12.9066
12.9846
13.0674
13.4389
1.03426
1.06987
1.09284
1.11056
1.12198
1.13378
1.1405
1.1572
1.18336
1.27462
1.40782
1.99154
3.13244
7.26204
16.0665
14.5374
12.864
12.3931
12.4573
12.5986
12.5888
12.5506
12.5365
12.4678
12.6755
1.03428
1.0698
1.09293
1.11044
1.12212
1.1336
1.1402
1.15631
1.18134
1.26962
1.39401
1.95947
3.05134
6.97144
15.6044
14.2374
12.6409
12.1717
12.2158
12.3056
12.2665
12.1496
11.9928
11.666
11.4901
0.95732
0.911635
0.87429
0.845418
0.818409
0.800431
0.779779
0.776832
0.780201
0.822432
0.863487
1.19294
1.75419
3.87777
8.47119
8.16618
7.34386
6.77498
6.70761
6.74675
6.84105
6.99211
7.25424
7.73321
8.4949
0.957227
0.911791
0.874128
0.845689
0.817987
0.80116
0.778325
0.778366
0.784981
0.794174
0.923047
1.06029
1.95726
3.78122
8.50315
8.16195
7.34678
6.77522
6.72735
6.77626
6.83341
6.96097
7.23046
7.73493
8.45249
0.957271
0.911701
0.874227
0.84551
0.818328
0.800503
0.779725
0.776372
0.77963
0.820366
0.860581
1.18663
1.75147
3.84088
8.42403
8.13173
7.33186
6.76652
6.71855
6.76358
6.82424
6.95224
7.21921
7.72784
8.43664
0.957159
0.911888
0.874033
0.845831
0.817843
0.801323
0.778132
0.778142
0.785663
0.794882
0.923446
1.05972
1.94609
3.70637
8.39217
8.07911
7.31024
6.73702
6.68154
6.72173
6.80685
6.94831
7.21243
7.70759
8.43001
0.957131
0.911944
0.873973
0.845935
0.817699
0.801492
0.77781
0.777736
0.786288
0.795996
0.922383
1.05576
1.93011
3.64786
8.29763
7.99867
7.25699
6.69225
6.64247
6.68555
6.7753
6.92421
7.18625
7.66921
8.40904
0.95719
0.911855
0.874066
0.845796
0.817865
0.801293
0.778094
0.778109
0.784585
0.793301
0.9167
1.04493
1.90592
3.58963
8.18931
7.90876
7.20334
6.64913
6.59446
6.63397
6.72393
6.87865
7.13931
7.61164
8.36841
0.957353
0.911588
0.874358
0.845313
0.818558
0.800141
0.779973
0.775281
0.778311
0.816822
0.853567
1.15977
1.66542
3.62208
7.98568
7.78096
7.13674
6.60409
6.54119
6.57605
6.65969
6.813
7.06725
7.52249
8.30146
0.957423
0.911486
0.874461
0.845147
0.818729
0.799902
0.78012
0.774936
0.777883
0.815385
0.850347
1.1476
1.62472
3.53498
7.7915
7.62543
7.0555
6.54319
6.47196
6.50228
6.57631
6.7173
6.95493
7.37571
8.16523
0.957486
0.911387
0.874525
0.845051
0.818815
0.79977
0.780155
0.774174
0.776915
0.812895
0.845924
1.13395
1.58477
3.43492
7.56484
7.45075
6.97332
6.47495
6.39045
6.41446
6.47408
6.58994
6.79077
7.14358
7.87453
0.957462
0.911382
0.874554
0.845026
0.818895
0.799636
0.780289
0.773032
0.776143
0.808463
0.839641
1.11789
1.54772
3.32037
7.32602
7.26734
6.8896
6.39943
6.29643
6.31291
6.35451
6.42859
6.55684
6.76818
7.2425
0.957131
0.911843
0.874361
0.845251
0.818803
0.799707
0.780142
0.772799
0.777058
0.783608
0.882501
0.974305
1.7212
3.04211
7.09714
7.06312
6.80938
6.32499
6.19964
6.20613
6.22307
6.23476
6.22849
6.14714
5.63876
0.957407
0.911426
0.874641
0.844929
0.819099
0.799361
0.780406
0.772287
0.774746
0.801524
0.829334
1.07648
1.46933
3.03464
6.71128
6.89553
6.69111
6.26214
6.11145
6.09913
6.08315
6.04232
5.94721
5.7235
5.16583
0.957225
0.911683
0.874544
0.844955
0.819209
0.799043
0.780845
0.770968
0.774111
0.779751
0.867194
0.947209
1.60223
2.73384
6.36654
6.71944
6.5525
6.19492
6.03435
5.99652
5.95549
5.8723
5.7314
5.49011
5.03622
0.957609
0.911134
0.874899
0.844497
0.819614
0.798504
0.781323
0.769434
0.771028
0.797332
0.822927
1.03983
1.38845
2.74003
5.98169
6.48635
6.37688
6.11928
5.95961
5.90054
5.83809
5.72902
5.56825
5.32773
4.95352
0.95762
0.911104
0.874952
0.844397
0.819751
0.79825
0.781572
0.768166
0.769394
0.791558
0.810819
1.01873
1.28912
2.59543
5.58351
6.2714
6.21676
6.05659
5.89586
5.81963
5.74103
5.62153
5.45459
5.22396
4.90182
0.957386
0.911392
0.874891
0.84441
0.819956
0.797801
0.782224
0.766323
0.769076
0.773006
0.840538
0.902705
1.38824
2.23053
5.07451
6.13782
6.11439
6.01576
5.85186
5.75654
5.66735
5.54531
5.38125
5.16651
4.8845
0.957403
0.911333
0.874984
0.844268
0.820189
0.797435
0.7826
0.765266
0.767423
0.770968
0.830047
0.885156
1.30077
2.01624
4.48091
6.04573
6.06172
5.99232
5.83616
5.71131
5.61164
5.49208
5.33606
5.13717
4.88898
0.957436
0.911286
0.875037
0.844167
0.820303
0.797307
0.782526
0.765082
0.766355
0.770178
0.816945
0.869354
1.20112
1.80107
3.78379
5.99684
6.07544
6.00115
5.83176
5.68159
5.57378
5.45868
5.31326
5.13078
4.90604
0.95749
0.911231
0.875043
0.844149
0.820296
0.797199
0.782749
0.76392
0.764305
0.767668
0.802736
0.848656
1.09662
1.55923
3.04182
5.87428
6.11502
6.03502
5.84468
5.67323
5.5568
5.4444
5.30826
5.13869
4.94141
0.957733
0.910915
0.875177
0.844054
0.820224
0.797411
0.782211
0.764326
0.760856
0.764875
0.770612
0.855624
0.934415
1.52878
2.51184
5.52872
6.09943
6.03407
5.86973
5.67587
5.55268
5.44353
5.31399
5.16113
4.98827
0.957398
0.911422
0.874799
0.844552
0.819663
0.798154
0.781056
0.765571
0.756489
0.757913
0.779989
0.799549
0.993668
1.25308
2.43417
5.05776
5.99859
5.9785
5.87421
5.68607
5.55828
5.45079
5.33245
5.19796
5.03931
0.957533
0.911246
0.874821
0.844605
0.81947
0.798503
0.780462
0.766243
0.754595
0.756942
0.760973
0.822706
0.882238
1.3035
2.04681
4.45629
5.84352
5.91791
5.86398
5.72571
5.58161
5.47415
5.36791
5.24139
5.09249
0.957322
0.911556
0.874574
0.844923
0.819128
0.798943
0.779897
0.766787
0.753196
0.753945
0.768654
0.785248
0.912644
1.09772
1.8961
3.68179
5.77156
5.95037
5.90246
5.784
5.63376
5.52178
5.41281
5.28818
5.14535
0.957317
0.91156
0.874535
0.844993
0.819014
0.799136
0.779558
0.767202
0.751573
0.751811
0.76122
0.770189
0.874417
0.983623
1.64352
2.82136
5.68374
6.04611
5.99818
5.87608
5.70001
5.57227
5.45712
5.33293
5.19523
0.957324
0.911531
0.874538
0.845012
0.818966
0.799247
0.779349
0.767468
0.750569
0.750537
0.756089
0.762841
0.845357
0.921224
1.49699
2.42734
5.30805
6.08614
6.05896
5.96023
5.76271
5.61828
5.49738
5.3747
5.24264
0.957135
0.911775
0.874428
0.84513
0.818944
0.799215
0.77949
0.767151
0.751043
0.749511
0.752524
0.757967
0.82814
0.893777
1.3822
2.20832
4.90574
6.05288
6.05216
5.9872
5.83295
5.66606
5.53649
5.41592
5.29021
0.957155
0.911724
0.874499
0.845018
0.819113
0.798949
0.779883
0.766487
0.751831
0.747162
0.74943
0.753822
0.813621
0.870219
1.27786
1.97901
4.32052
5.98929
6.08478
6.03247
5.89968
5.71819
5.57921
5.45875
5.33757
0.957243
0.911593
0.8746
0.844861
0.819286
0.798693
0.780229
0.76594
0.752407
0.74536
0.747091
0.75138
0.798471
0.851853
1.17238
1.75122
3.6435
5.9999
6.18778
6.13116
5.98248
5.77147
5.62034
5.49968
5.38308
0.95733
0.911466
0.874715
0.844678
0.819515
0.798329
0.780746
0.765142
0.753248
0.743291
0.744455
0.748526
0.784595
0.830425
1.08027
1.52592
3.03242
5.9611
6.33206
6.26023
6.06956
5.82096
5.65901
5.5392
5.4266
0.957359
0.911408
0.874801
0.844543
0.819701
0.798053
0.781133
0.764475
0.754118
0.740239
0.741322
0.743534
0.77608
0.807134
1.03002
1.38749
2.74234
5.74037
6.36772
6.30421
6.12123
5.85936
5.69443
5.57609
5.46654
0.957374
0.911387
0.874822
0.844524
0.819723
0.798041
0.781109
0.764547
0.753862
0.740531
0.739844
0.742112
0.769281
0.792795
1.00251
1.29449
2.58896
5.49031
6.30833
6.27036
6.13135
5.89113
5.72767
5.60885
5.5019
0.957312
0.911474
0.874766
0.844604
0.819642
0.798157
0.780946
0.764773
0.753461
0.740836
0.737922
0.739765
0.763536
0.78279
0.976434
1.21914
2.42048
5.10044
6.23647
6.23031
6.14687
5.95873
5.77264
5.64076
5.53323
0.95731
0.911486
0.874734
0.844656
0.819565
0.79827
0.780786
0.764993
0.753102
0.741088
0.736331
0.73776
0.758374
0.774624
0.946307
1.15283
2.22103
4.61626
6.24043
6.27614
6.20653
6.03507
5.81774
5.66853
5.55916
0.957306
0.911501
0.874708
0.844694
0.819507
0.798355
0.78066
0.765177
0.752791
0.741395
0.734978
0.736089
0.753637
0.767696
0.914948
1.09441
2.0017
4.03733
6.33878
6.41762
6.33139
6.11336
5.84866
5.68511
5.5777
0.957321
0.911491
0.874701
0.844708
0.819471
0.798411
0.780568
0.765313
0.752574
0.741613
0.734342
0.735442
0.748885
0.762026
0.880132
1.01836
1.78009
3.2681
6.58052
6.64894
6.50897
6.18231
5.86679
5.69356
5.59068
0.957336
0.91148
0.874692
0.84473
0.819422
0.798492
0.780439
0.765496
0.752305
0.741904
0.733665
0.734608
0.745885
0.759142
0.859967
0.983266
1.67582
2.95352
6.54022
6.77634
6.6091
6.21922
5.86904
5.69348
5.59749
0.95735
0.911471
0.874683
0.844754
0.819371
0.798574
0.780308
0.765692
0.751973
0.74229
0.732181
0.732603
0.742715
0.751194
0.8497
0.942072
1.62367
2.80027
6.38002
6.76631
6.60619
6.22477
5.86972
5.69518
5.604
0.957354
0.911473
0.87467
0.844778
0.819328
0.798638
0.78021
0.765829
0.751776
0.742509
0.731806
0.732179
0.741496
0.75046
0.843238
0.933874
1.58458
2.709
6.20959
6.69613
6.55881
6.22028
5.8765
5.70374
5.614
0.957363
0.911466
0.874671
0.844782
0.819314
0.798661
0.78017
0.765885
0.751683
0.742609
0.731457
0.731724
0.739975
0.747565
0.836399
0.918809
1.54417
2.61603
6.02099
6.60464
6.49861
6.22046
5.89053
5.71536
5.62185
0.957369
0.91146
0.874675
0.844779
0.819313
0.798662
0.780162
0.765897
0.751645
0.742644
0.731168
0.731366
0.738861
0.745687
0.830191
0.906307
1.5046
2.51773
5.86383
6.5411
6.45849
6.22384
5.90374
5.72531
5.62764
0.957385
0.911447
0.874672
0.844782
0.819298
0.79868
0.780131
0.765939
0.751578
0.74271
0.730967
0.731118
0.738011
0.74433
0.825533
0.898552
1.47303
2.44112
5.68941
6.49108
6.42293
6.22047
5.91417
5.73491
5.63367
0.957399
0.91143
0.874677
0.84478
0.819282
0.798713
0.780066
0.766044
0.751409
0.742919
0.730451
0.730451
0.737461
0.744062
0.822892
0.896336
1.44531
2.40101
5.54376
6.4514
6.39604
6.22063
5.92426
5.74292
5.63789
0.957407
0.911419
0.874681
0.844773
0.819283
0.798714
0.780064
0.766051
0.7514
0.742923
0.730342
0.730323
0.736414
0.74218
0.816259
0.883174
1.40329
2.29172
5.34818
6.46007
6.4138
6.25021
5.94948
5.75751
5.64466
0.957408
0.91141
0.874687
0.844768
0.81929
0.798712
0.780069
0.766051
0.751399
0.742927
0.730295
0.730269
0.735611
0.741169
0.810622
0.873957
1.35969
2.19421
5.11221
6.51782
6.47894
6.31798
5.99048
5.77048
5.64656
0.957382
0.911427
0.874694
0.84477
0.819301
0.798713
0.780073
0.76605
0.751399
0.742921
0.730289
0.730264
0.734601
0.739619
0.8041
0.862933
1.31599
2.08628
4.81199
6.64721
6.60723
6.41955
6.0318
5.77174
5.63893
0.957353
0.911453
0.874682
0.844789
0.819296
0.798724
0.780068
0.766065
0.751381
0.742943
0.730268
0.730256
0.733615
0.738494
0.79672
0.851334
1.25501
1.95742
4.46479
6.88252
6.82237
6.56196
6.0559
5.75669
5.61819
0.957292
0.911535
0.874629
0.844837
0.819271
0.79874
0.78007
0.766059
0.751399
0.74293
0.730273
0.730255
0.733144
0.73862
0.78767
0.84747
1.1903
1.83438
4.03429
7.20385
7.11263
6.74574
6.0948
5.73392
5.58781
0.957235
0.911616
0.874579
0.844885
0.819255
0.798724
0.780142
0.765906
0.751676
0.742452
0.730984
0.728964
0.73104
0.734984
0.782219
0.827964
1.14698
1.68301
3.62901
7.48
7.37773
6.90508
6.12565
5.7071
5.55355
0.957241
0.911599
0.874595
0.844865
0.819279
0.798692
0.780185
0.765846
0.751756
0.742339
0.731103
0.728661
0.730612
0.734825
0.777812
0.823786
1.11827
1.62516
3.49954
7.57975
7.47683
6.96253
6.12678
5.68582
5.53103
0.95726
0.911572
0.874607
0.844849
0.819285
0.79869
0.780178
0.765865
0.751719
0.742408
0.731019
0.728875
0.73087
0.735439
0.776827
0.825704
1.10985
1.62527
3.46967
7.61069
7.4905
6.94926
6.11591
5.67432
5.51887
1.0342
1.06981
1.09308
1.11017
1.12268
1.13267
1.14185
1.15339
1.18836
1.23565
1.45051
1.77347
3.13306
6.48506
15.1021
13.9293
12.4107
11.9492
11.9729
12.0008
11.9258
11.7099
11.3557
10.6381
8.96695
1.0343
1.06967
1.09322
1.10998
1.1229
1.13238
1.14202
1.15268
1.18672
1.22769
1.43981
1.72415
3.05342
6.16557
14.4667
13.5633
12.1607
11.7293
11.7311
11.7109
11.5848
11.2675
10.7403
9.86259
8.16585
1.03424
1.06977
1.09312
1.11012
1.12273
1.13252
1.14173
1.15225
1.18397
1.22666
1.42142
1.70025
2.95713
5.81274
13.7535
13.1384
11.932
11.535
11.5081
11.4442
11.2619
10.8658
10.2755
9.43543
8.17219
1.0344
1.06961
1.09323
1.10998
1.12279
1.13237
1.14157
1.1506
1.18189
1.21552
1.40672
1.64326
2.86329
5.49282
12.9763
12.629
11.7756
11.3757
11.3057
11.2047
10.9784
10.5477
9.97824
9.22666
8.21844
1.0345
1.06948
1.09332
1.10989
1.12274
1.13266
1.14026
1.1522
1.16911
1.23975
1.31909
1.75587
2.52835
5.29829
12.1409
12.1381
11.6805
11.2556
11.1305
10.9998
10.7413
10.3319
9.80646
9.14691
8.31824
1.03444
1.0695
1.09341
1.10972
1.12312
1.13197
1.14172
1.15009
1.17548
1.21005
1.36573
1.56865
2.5974
4.68185
11.2199
11.884
11.5888
11.1645
10.9902
10.8339
10.5736
10.1955
9.71845
9.14168
8.43533
1.03446
1.06946
1.09346
1.10966
1.1232
1.13183
1.14171
1.14926
1.1722
1.2025
1.34436
1.51329
2.44873
4.22974
10.1162
11.758
11.5424
11.1
10.8815
10.7085
10.4594
10.1142
9.6852
9.16036
8.55995
1.0345
1.06945
1.09341
1.10976
1.12297
1.13221
1.14045
1.14924
1.16158
1.21215
1.26403
1.57887
2.04288
3.96656
8.78513
11.7576
11.5552
11.076
10.7981
10.6162
10.3848
10.0727
9.68766
9.21435
8.70128
1.03452
1.06945
1.09338
1.10979
1.12291
1.13218
1.14044
1.14808
1.15985
1.20207
1.24873
1.50831
1.8897
3.45316
7.33493
11.822
11.6145
11.0837
10.7433
10.5547
10.3435
10.0642
9.70839
9.30561
8.85672
1.03457
1.06941
1.09339
1.10978
1.12288
1.13216
1.14038
1.14745
1.1583
1.19088
1.2368
1.43319
1.7414
2.94923
5.75622
11.7929
11.6334
11.1303
10.7258
10.521
10.3267
10.0725
9.75909
9.40912
9.01461
1.03443
1.06957
1.09329
1.10989
1.12286
1.13204
1.1407
1.14574
1.15804
1.17683
1.24362
1.33645
1.75237
2.53761
5.19256
11.2675
11.4852
11.1483
10.724
10.5106
10.3301
10.0989
9.83066
9.51931
9.16623
1.03446
1.06953
1.0933
1.10988
1.12286
1.13204
1.14064
1.14554
1.15648
1.17065
1.23222
1.2972
1.67993
2.28687
4.63449
10.1942
11.256
11.1017
10.7475
10.5262
10.3528
10.1542
9.91376
9.6288
9.30591
1.03434
1.06968
1.09313
1.11013
1.12253
1.13257
1.13975
1.14704
1.15318
1.17418
1.19679
1.32477
1.46608
2.30268
3.87714
8.88854
11.2462
11.1392
10.8291
10.5813
10.4125
10.232
10.0036
9.73492
9.4343
1.03424
1.06981
1.09303
1.11025
1.12242
1.13265
1.13978
1.14639
1.15369
1.1648
1.20685
1.25272
1.51775
1.89892
3.50568
7.32068
11.3561
11.2887
11.0008
10.6929
10.4991
10.3125
10.09
9.83388
9.55157
1.03422
1.06981
1.09303
1.11026
1.12242
1.13267
1.13971
1.14643
1.15262
1.16307
1.19553
1.23939
1.43907
1.73798
2.94978
5.68928
11.4683
11.5106
11.2352
10.818
10.5828
10.3876
10.1703
9.92605
9.66034
1.03416
1.06986
1.09301
1.11027
1.12245
1.13262
1.13976
1.14629
1.15218
1.16133
1.18821
1.22783
1.38957
1.62542
2.68504
4.90712
11.0344
11.5551
11.3433
10.9221
10.6678
10.4609
10.2468
10.0145
9.76443
1.03417
1.06983
1.09304
1.11023
1.1225
1.13256
1.13981
1.14617
1.15192
1.1597
1.18283
1.21527
1.35776
1.54167
2.48234
4.32324
10.0553
11.5669
11.4242
11.0721
10.767
10.537
10.3241
10.1024
9.86599
1.03422
1.06978
1.09307
1.11019
1.12248
1.13263
1.13957
1.14657
1.1505
1.15975
1.17141
1.22262
1.27497
1.59181
2.05848
3.99887
8.71213
11.6883
11.5955
11.2595
10.8723
10.6139
10.4027
10.1906
9.96561
1.0343
1.06968
1.09317
1.11004
1.12266
1.13233
1.14001
1.14582
1.1517
1.15756
1.17428
1.19905
1.29773
1.43235
2.07142
3.30446
7.3948
12.0268
11.9003
11.4452
10.9675
10.6868
10.48
10.2768
10.0614
1.03434
1.06962
1.09324
1.10993
1.1228
1.13213
1.14024
1.14553
1.15182
1.15695
1.17101
1.1931
1.27264
1.39472
1.89218
2.87161
6.06617
12.2811
12.1437
11.6158
11.0698
10.7684
10.5603
10.3609
10.1521
1.03436
1.0696
1.09325
1.10992
1.12281
1.13213
1.14022
1.14553
1.15167
1.15632
1.16876
1.18834
1.2578
1.36334
1.79698
2.6426
5.52959
11.9847
12.1011
11.7496
11.1841
10.8615
10.6417
10.4404
10.2371
1.03434
1.06963
1.09323
1.10996
1.12277
1.1322
1.14014
1.14559
1.1515
1.15569
1.16689
1.18386
1.24738
1.33153
1.73754
2.46553
5.09214
11.3183
12.0759
11.831
11.3265
10.9761
10.7242
10.5133
10.3154
1.03433
1.06964
1.09321
1.10999
1.12274
1.13222
1.14012
1.14558
1.15146
1.15536
1.16544
1.18113
1.23736
1.31283
1.67687
2.28473
4.67908
10.4106
12.1548
11.9756
11.5206
11.0896
10.7935
10.5761
10.3868
1.03431
1.06969
1.09318
1.11003
1.12269
1.13228
1.14006
1.14563
1.15133
1.15481
1.16397
1.17692
1.22894
1.28738
1.62467
2.12878
4.24446
9.37188
12.439
12.2488
11.6968
11.1594
10.8324
10.622
10.4474
1.03435
1.06964
1.09319
1.11001
1.1227
1.13228
1.14005
1.14563
1.15128
1.15461
1.16266
1.1752
1.21845
1.27545
1.5518
1.99274
3.754
8.12965
13.0099
12.6639
11.8171
11.1853
10.852
10.6595
10.5012
1.03435
1.06965
1.09318
1.11005
1.12264
1.13237
1.1399
1.14588
1.15082
1.15544
1.16048
1.17642
1.1954
1.29297
1.4052
2.01904
3.17272
6.98415
13.5284
13.0499
11.9459
11.2194
10.8763
10.6987
10.5531
1.03432
1.06969
1.09314
1.1101
1.12259
1.13244
1.13983
1.14591
1.15087
1.15483
1.16103
1.17046
1.20442
1.2456
1.45933
1.77962
3.06969
6.21218
13.6126
13.1716
12.0711
11.2759
10.9167
10.7428
10.6026
1.03433
1.06968
1.09313
1.11011
1.12255
1.1325
1.13972
1.1461
1.15053
1.15558
1.15979
1.17312
1.18906
1.26949
1.35843
1.86656
2.77673
5.96853
13.4302
13.0923
12.1181
11.351
10.9808
10.7961
10.6517
1.03433
1.06969
1.09313
1.11012
1.12253
1.13252
1.13969
1.14614
1.15046
1.15565
1.15974
1.17237
1.18831
1.26452
1.34996
1.82751
2.68188
5.70971
13.0797
12.9119
12.1897
11.4508
11.0573
10.8508
10.6961
1.03431
1.06971
1.09313
1.11012
1.12255
1.13248
1.13978
1.14596
1.15078
1.15486
1.16015
1.16906
1.19696
1.23528
1.41204
1.65543
2.81666
5.32565
12.73
12.7648
12.2953
11.5562
11.13
10.8995
10.7329
1.0343
1.06972
1.09311
1.11014
1.12254
1.1325
1.13975
1.14601
1.15069
1.15495
1.15996
1.16821
1.19531
1.22935
1.40536
1.63111
2.76882
5.16333
12.3538
12.7171
12.3404
11.6391
11.1957
10.9414
10.7616
1.03433
1.06969
1.09313
1.11013
1.12253
1.13252
1.13969
1.14613
1.15044
1.15553
1.15892
1.17044
1.18271
1.25046
1.31985
1.75294
2.46866
5.15479
11.9799
12.7209
12.3885
11.7192
11.2569
10.9763
10.7837
1.03431
1.06971
1.09312
1.11012
1.12254
1.13249
1.13975
1.14601
1.15068
1.15496
1.15967
1.16758
1.19226
1.22566
1.38366
1.58552
2.63679
4.77149
11.5929
12.7966
12.48
11.8126
11.3076
10.9982
10.7963
1.0343
1.06971
1.09312
1.11013
1.12255
1.13249
1.13976
1.146
1.15069
1.15492
1.1595
1.16727
1.19068
1.22495
1.37039
1.56874
2.55575
4.55299
11.1354
12.9711
12.6325
11.9011
11.3371
10.9994
10.7947
1.03428
1.06973
1.09311
1.11015
1.12253
1.13252
1.13972
1.14607
1.15059
1.15504
1.15929
1.16637
1.18863
1.21748
1.36134
1.52974
2.50086
4.34225
10.5999
13.2687
12.8587
11.9824
11.3365
10.9736
10.7735
1.03427
1.06974
1.0931
1.11016
1.12252
1.13254
1.13971
1.14609
1.15055
1.15509
1.15909
1.16582
1.1864
1.21383
1.34613
1.50235
2.38935
4.06621
9.94639
13.7442
13.199
12.075
11.3097
10.9135
10.7269
1.03428
1.06972
1.09309
1.11016
1.1225
1.13257
1.13965
1.1462
1.15034
1.1555
1.15817
1.16689
1.17634
1.22547
1.27382
1.58661
2.04601
3.99456
9.12115
14.3965
13.6678
12.2082
11.281
10.8388
10.6667
1.03423
1.06979
1.09305
1.11021
1.12247
1.1326
1.13963
1.14618
1.15042
1.15523
1.15866
1.16434
1.18189
1.20383
1.3151
1.44568
2.16946
3.54796
8.38009
15.1665
14.2144
12.387
11.2723
10.7707
10.6063
1.03427
1.06974
1.09308
1.11018
1.12248
1.13258
1.13963
1.1462
1.15034
1.15542
1.15813
1.1656
1.17526
1.21748
1.26095
1.52288
1.89935
3.48528
7.53356
15.906
14.6785
12.5393
11.2794
10.7296
10.5655
1.03431
1.0697
1.0931
1.11014
1.1225
1.13255
1.13966
1.14616
1.15038
1.15536
1.15809
1.1653
1.17519
1.21548
1.25901
1.51216
1.87747
3.40092
7.37026
16.2052
14.8386
12.6027
11.2896
10.7151
10.5462
1.00875
1.03183
1.05944
1.08704
1.11428
1.13663
1.16256
1.18122
1.228
1.29606
1.54932
1.9731
3.52559
7.6844
17.7438
15.8545
14.0084
13.6297
13.7329
13.7958
13.6269
13.1921
12.605
11.5841
9.49419
1.00875
1.03183
1.05945
1.08704
1.11426
1.13665
1.16236
1.1807
1.22466
1.29262
1.52728
1.93568
3.38874
7.26706
17.0449
15.448
13.711
13.35
13.4261
13.4182
13.2077
12.674
11.8968
10.7086
8.65083
1.0087
1.03199
1.05917
1.08757
1.11332
1.13826
1.15928
1.18506
1.21408
1.31441
1.43796
2.02677
3.12164
6.98582
16.2151
14.9417
13.4328
13.0988
13.139
13.0866
12.8178
12.2103
11.3662
10.244
8.67974
1.00875
1.03196
1.05917
1.08756
1.11326
1.13828
1.15909
1.18449
1.2115
1.30664
1.41979
1.97575
2.9973
6.60028
15.3305
14.4233
13.2138
12.8983
12.8904
12.7943
12.4803
11.8453
11.0463
10.0559
8.78908
1.00899
1.03156
1.05959
1.08696
1.1141
1.13684
1.16142
1.17896
1.21821
1.26764
1.47756
1.76441
3.06014
6.04406
14.4091
13.9453
13.0873
12.76
12.6878
12.5334
12.1874
11.6044
10.8831
10.037
9.00105
1.00895
1.03162
1.05961
1.08689
1.11424
1.13669
1.16133
1.17947
1.2131
1.26958
1.44904
1.74041
2.88606
5.5382
13.3813
13.5549
13.0918
12.6529
12.5033
12.324
11.9784
11.4612
10.8169
10.0607
9.19255
1.00896
1.03162
1.05961
1.08692
1.11416
1.13687
1.16088
1.17971
1.21029
1.26196
1.4239
1.67983
2.71485
5.00915
12.1558
13.4557
13.0828
12.5571
12.3464
12.1597
11.843
11.3842
10.8185
10.1258
9.38722
1.009
1.03156
1.05961
1.08696
1.11402
1.13707
1.16043
1.17943
1.20742
1.24843
1.40135
1.58952
2.55801
4.42821
10.7305
13.496
13.1021
12.4803
12.2219
12.0399
11.7577
11.3504
10.8385
10.2438
9.60185
1.00894
1.03169
1.05945
1.08718
1.11372
1.13748
1.15972
1.17989
1.20392
1.24215
1.3685
1.53908
2.32906
3.87578
9.11401
13.6653
13.1747
12.431
12.1294
11.9574
11.7082
11.3523
10.8908
10.383
9.82481
1.00894
1.03171
1.05938
1.08735
1.11339
1.13806
1.15856
1.18167
1.19911
1.24388
1.3088
1.55457
1.96787
3.45871
7.19882
13.8297
13.2619
12.4312
12.0802
11.9086
11.6891
11.3693
10.9793
10.5358
10.0454
1.00889
1.03176
1.05937
1.08732
1.1135
1.13784
1.15878
1.18083
1.19679
1.23607
1.28827
1.50222
1.8126
3.08754
6.12887
13.4795
13.1527
12.4494
12.0694
11.8881
11.6935
11.4126
11.0814
10.6916
10.2553
1.00892
1.03169
1.05947
1.08711
1.11385
1.13717
1.15995
1.17841
1.20059
1.22525
1.29997
1.40194
1.84918
2.64054
5.55681
12.3999
12.849
12.502
12.0872
11.894
11.716
11.4846
11.1903
10.8398
10.4444
1.00887
1.03174
1.05941
1.08719
1.11376
1.13729
1.15976
1.17841
1.19957
1.21921
1.28568
1.35829
1.75048
2.36481
4.81607
10.878
12.8575
12.5981
12.1499
11.9316
11.7723
11.5709
11.3003
10.9776
10.6158
1.00872
1.03197
1.0592
1.08746
1.11346
1.13771
1.15908
1.17944
1.1963
1.22135
1.25397
1.386
1.54682
2.35891
3.95502
9.20775
13.0482
12.7979
12.2897
12.0238
11.8597
11.66
11.4026
11.1023
10.7688
1.00875
1.03188
1.05929
1.08735
1.11361
1.13751
1.15939
1.17878
1.19703
1.21678
1.24984
1.35031
1.49682
2.11129
3.32951