/*--------------------------------*- C++ -*----------------------------------*\
  =========                 |
  \\      /  F ield         | OpenFOAM: The Open Source CFD Toolbox
   \\    /   O peration     | Website:  https://openfoam.org
    \\  /    A nd           | Version:  6
     \\/     M anipulation  |
\*---------------------------------------------------------------------------*/
FoamFile
{
    version     2.0;
    format      ascii;
    class       surfaceScalarField;
    location    "9";
    object      phi;
}
// * * * * * * * * * * * * * * * * * * * * * * * * * * * * * * * * * * * * * //

dimensions      [1 0 -1 0 0 0 0];

internalField   nonuniform List<scalar> 
72625
(
0.00162358
-3.02861e-10
5.87346e-05
0.00157662
1.5013e-09
4.69625e-05
0.00153814
-6.28757e-10
3.84876e-05
0.00150601
3.14139e-09
3.21155e-05
0.00147925
-2.06785e-09
2.67676e-05
0.00145625
5.52252e-09
2.29861e-05
0.00143735
-1.77914e-09
1.89223e-05
0.00141997
2.70956e-08
1.73118e-05
0.00140442
6.52137e-08
1.54439e-05
0.00138777
1.4446e-07
1.63747e-05
0.00138465
2.88033e-07
2.76736e-06
0.00136073
6.77365e-07
2.28199e-05
0.00141014
1.67131e-06
-5.07867e-05
0.00154676
6.11833e-06
-0.00014445
0.00180621
1.50743e-05
-0.00027737
0.00167626
3.27366e-05
9.54024e-05
0.00148891
4.67337e-05
0.000140287
0.00140055
4.31422e-05
4.49081e-05
0.00131731
5.49446e-05
2.80189e-05
0.00134293
7.41201e-05
-0.000100041
0.001282
5.64904e-05
4.16462e-06
0.00118081
4.07804e-05
6.01651e-05
0.00100848
2.76943e-05
0.00014434
0.000660712
3.0138e-05
0.000317993
1.73326e-05
0.000641928
0.00162358
9.105e-10
5.87341e-05
0.00157662
3.46056e-09
4.69624e-05
0.00153813
-1.28675e-09
3.84883e-05
0.00150601
5.91207e-09
3.21138e-05
0.00147925
-7.18121e-09
2.67712e-05
0.00145626
1.29068e-08
2.29799e-05
0.00143735
-8.87444e-09
1.89344e-05
0.00141999
5.71005e-08
1.72924e-05
0.00140443
1.50058e-07
1.54277e-05
0.00138779
3.35266e-07
1.63233e-05
0.0013846
6.47496e-07
2.7681e-06
0.0013604
1.73615e-06
2.27242e-05
0.00140871
4.0806e-06
-5.043e-05
0.00154057
1.62948e-05
-0.000143723
0.00177254
7.9119e-05
-0.000298848
0.00161765
8.58119e-05
9.96333e-05
0.00145506
7.69269e-05
0.00013148
0.00137942
7.86798e-05
3.94439e-05
0.00133085
8.77041e-05
1.52761e-05
0.00134437
9.98319e-05
-3.98026e-05
0.00130326
0.000106214
-8.99938e-06
0.00121512
9.7978e-05
3.06762e-05
0.00103326
8.8592e-05
0.000120627
0.000679614
9.11692e-05
0.000292727
7.02146e-05
0.000626285
0.00162358
7.96496e-09
5.87323e-05
0.00157662
1.02154e-09
4.69628e-05
0.00153813
2.32977e-09
3.84895e-05
0.00150602
-1.41893e-09
3.21101e-05
0.00147925
-6.43787e-09
2.67797e-05
0.00145627
1.66261e-08
2.29653e-05
0.00143735
-3.23563e-08
1.89587e-05
0.00141991
2.13681e-07
1.72482e-05
0.00140435
2.83544e-07
1.53853e-05
0.00138776
5.43431e-07
1.62708e-05
0.00138348
2.1394e-06
2.72935e-06
0.00136075
1.47439e-06
2.25789e-05
0.00140515
9.96251e-06
-5.00179e-05
0.00154015
1.98153e-05
-0.000140192
0.00178796
0.000109441
-0.000280966
0.00165769
0.000128994
8.52567e-05
0.00148422
0.000119961
0.000129952
0.00140749
0.000117791
3.71687e-05
0.00136177
0.000122136
1.08793e-05
0.00135441
0.000134561
-2.77881e-05
0.0013219
0.000154209
-1.59239e-05
0.00123407
0.000167294
1.82994e-05
0.00105361
0.000165979
0.00010291
0.000701502
0.000169567
0.00027354
0.000165952
0.000605433
0.00162358
2.84931e-08
5.87234e-05
0.00157664
-3.23578e-08
4.69726e-05
0.00153812
3.39372e-08
3.84817e-05
0.00150606
-5.29297e-08
3.21182e-05
0.0014792
7.50613e-08
2.67753e-05
0.0014564
-1.37506e-07
2.29577e-05
0.0014371
2.87152e-07
1.89847e-05
0.00142041
-2.1114e-07
1.71029e-05
0.00140618
-7.69499e-07
1.52545e-05
0.00138481
5.92901e-06
1.59044e-05
0.00139646
-1.19162e-05
2.35514e-06
0.0013362
3.96625e-05
2.16549e-05
0.00143733
-4.16226e-05
-4.93841e-05
0.00153245
6.05376e-05
-0.000137388
0.00180008
0.00011787
-0.000279039
0.00168685
0.000168312
7.19122e-05
0.00151233
0.000163556
0.000130376
0.00143048
0.000167101
3.22221e-05
0.00136455
0.000183761
3.93668e-06
0.00136516
0.000208899
-7.5322e-05
0.00131319
0.000221068
-1.53458e-05
0.00122243
0.000234282
2.33528e-05
0.0010413
0.000245451
0.000101341
0.000684245
0.000257511
0.000268757
0.000266076
0.000583527
0.00162373
-1.93402e-08
5.86602e-05
0.00157662
4.26243e-08
4.70469e-05
0.00153823
-3.72909e-08
3.8412e-05
0.00150592
5.51228e-08
3.22048e-05
0.00147937
-9.19277e-08
2.66608e-05
0.00145603
1.55071e-07
2.31322e-05
0.00143791
-3.0982e-07
1.86229e-05
0.00142209
4.47436e-07
1.74915e-05
0.00140136
1.17733e-06
1.66341e-05
0.00140414
-4.61723e-06
8.25473e-06
0.00135421
1.61576e-05
2.14402e-05
0.00145721
-3.01058e-05
-3.38747e-05
0.00130602
6.23576e-05
4.67269e-05
0.00166768
1.36381e-05
-0.000316389
0.00182951
0.000195264
-0.000242521
0.00171667
0.000221852
5.67868e-05
0.00152045
0.000225516
0.0001332
0.00143566
0.000221005
3.01474e-05
0.00138243
0.000239447
-3.16844e-06
0.00137579
0.000266814
-5.19725e-05
0.00132305
0.000291158
-1.80187e-05
0.00122658
0.000308685
2.14595e-05
0.00104296
0.000329138
9.96447e-05
0.000676607
0.000356818
0.000266454
0.000375784
0.000566315
0.00162356
3.93807e-08
5.87178e-05
0.00157667
-5.96562e-08
4.69765e-05
0.00153813
3.54215e-08
3.84818e-05
0.00150611
-5.28378e-08
3.21176e-05
0.00147918
6.12283e-08
2.67833e-05
0.0014565
-1.08374e-07
2.29381e-05
0.00143696
2.12978e-07
1.90283e-05
0.00142077
-3.43369e-07
1.69731e-05
0.00140742
-6.83196e-07
1.51826e-05
0.00138165
5.64197e-06
1.53964e-05
0.00140794
-1.2332e-05
2.17786e-06
0.00131552
4.16401e-05
2.02733e-05
0.00146551
-3.99731e-05
-4.75173e-05
0.0015167
8.54967e-05
-0.000124554
0.00180485
0.000187693
-0.000284054
0.00171541
0.000264833
4.38878e-05
0.00154662
0.000266958
0.000126388
0.00146369
0.00027367
2.97273e-05
0.00141229
0.000296156
-5.84587e-06
0.00139284
0.000327169
-4.15662e-05
0.00134362
0.00035772
-1.79788e-05
0.0012449
0.000385682
2.09768e-05
0.00105814
0.000419673
9.5984e-05
0.000688217
0.000467778
0.0002583
0.000516172
0.000547465
0.00162381
-6.12229e-08
5.86013e-05
0.00157662
6.34199e-08
4.71051e-05
0.0015383
-5.18215e-08
3.83763e-05
0.00150596
7.65842e-08
3.22292e-05
0.00147942
-7.76897e-08
2.6666e-05
0.00145608
1.52701e-07
2.30974e-05
0.00143756
-2.01131e-07
1.87624e-05
0.00142007
4.76259e-07
1.74666e-05
0.00140157
1.15206e-06
1.64666e-05
0.00140141
-4.30034e-06
8.41319e-06
0.00135479
1.41624e-05
2.08717e-05
0.00145307
-2.29291e-05
-3.32637e-05
0.00130601
6.11219e-05
4.50295e-05
0.00164428
2.85194e-05
-0.00028319
0.00182416
0.00026123
-0.000256881
0.0017453
0.00031703
2.40267e-05
0.00155587
0.000326722
0.000128822
0.00147403
0.000324476
3.05492e-05
0.00142878
0.00034825
-7.27484e-06
0.00140783
0.000382345
-3.48325e-05
0.00136234
0.000419741
-1.69047e-05
0.001266
0.00046066
2.06824e-05
0.00107751
0.000514614
9.34435e-05
0.000706298
0.000592638
0.00024574
0.000699862
0.000522317
0.00162355
-2.29276e-08
5.87407e-05
0.00157665
6.19393e-09
4.69464e-05
0.0015381
-7.50052e-09
3.85129e-05
0.00150608
1.70854e-08
3.20729e-05
0.00147917
-4.84336e-10
2.68385e-05
0.00145643
1.80035e-08
2.28668e-05
0.00143706
4.29698e-08
1.91431e-05
0.00142056
5.25818e-08
1.69032e-05
0.00140622
2.85882e-07
1.51819e-05
0.00138552
7.60635e-07
1.55089e-05
0.00139596
6.11386e-07
3.04284e-06
0.00134614
6.20143e-06
2.03756e-05
0.00143918
1.23226e-05
-4.46353e-05
0.00151108
6.29922e-05
-0.000107504
0.00179038
0.000269233
-0.00029073
0.00174489
0.000356808
3.21902e-06
0.00157954
0.000370939
0.000120415
0.0014995
0.000372557
3.16294e-05
0.00145511
0.000399224
-6.9937e-06
0.00143131
0.000436772
-3.125e-05
0.00138661
0.000479641
-1.55442e-05
0.00129297
0.00053298
2.04583e-05
0.00110901
0.000609759
8.85405e-05
0.000741269
0.000731654
0.000228222
0.000956355
0.000484667
0.00162354
1.96818e-09
5.87701e-05
0.0015766
1.11841e-08
4.69127e-05
0.00153808
-1.12453e-08
3.85391e-05
0.00150603
5.40669e-09
3.20411e-05
0.00147919
-1.59708e-08
2.68711e-05
0.00145635
1.51366e-08
2.28347e-05
0.00143721
-1.65335e-09
1.9183e-05
0.00142015
1.91567e-07
1.69175e-05
0.00140479
3.48982e-07
1.52159e-05
0.00138885
1.05334e-06
1.55966e-05
0.00138289
2.97367e-06
3.48094e-06
0.00136324
4.99823e-06
2.05589e-05
0.00140231
2.03162e-05
-4.74207e-05
0.00149551
6.11505e-05
-9.24714e-05
0.00175852
0.000300799
-0.00029786
0.00173965
0.000390537
-1.82954e-05
0.00158581
0.000406948
0.000116874
0.0015119
0.000411526
3.4535e-05
0.00147439
0.000442335
-6.04197e-06
0.00145237
0.000484406
-2.62288e-05
0.00141101
0.000533041
-1.2396e-05
0.00132364
0.000599131
2.0249e-05
0.00114858
0.000704309
8.02257e-05
0.000790713
0.000889469
0.00019954
0.0013281
0.000418908
0.00162348
5.87734e-05
6.6289e-08
0.00157665
4.69088e-05
-6.90674e-08
0.00153806
3.85477e-05
3.59224e-08
0.00150608
3.20322e-05
-4.63926e-08
0.00147917
2.68863e-05
1.2924e-08
0.00145638
2.28082e-05
-2.89e-08
0.00143718
1.9257e-05
1.77472e-08
0.00142031
1.68084e-05
2.2242e-08
0.0014059
1.51866e-05
-1.97897e-07
0.00138622
1.52191e-05
5.39231e-06
0.00139242
3.61842e-06
-7.76046e-06
0.00134565
1.99843e-05
3.22428e-05
0.00144104
-4.60666e-05
-2.92088e-05
0.00147736
-7.92211e-05
0.000102802
0.00175817
-0.000297589
0.000314143
0.00176186
-4.55186e-05
0.000429494
0.00161347
0.000114853
0.000439385
0.00153908
3.82751e-05
0.000447188
0.00150658
-4.95697e-06
0.000479373
0.00148646
-1.95477e-05
0.000523543
0.00144995
-8.59567e-06
0.000577741
0.00137323
1.88035e-05
0.000656251
0.00121468
6.83895e-05
0.000794043
0.000895823
0.000162715
0.00104508
0.000302464
0.00192133
0.00172982
-4.69256e-10
7.13998e-06
0.00176407
1.36994e-09
1.27046e-05
0.00178823
-5.84818e-11
1.4335e-05
0.00180611
2.46991e-09
1.42272e-05
0.0018198
3.09229e-10
1.3078e-05
0.00183074
3.12807e-09
1.20456e-05
0.00183876
7.61698e-09
1.08959e-05
0.00184549
2.23643e-08
1.0535e-05
0.0018514
5.44882e-08
9.44723e-06
0.00185838
1.60559e-07
9.08428e-06
0.00185351
3.91446e-07
7.10182e-06
0.00186825
1.35152e-06
6.20555e-06
0.00182399
3.78982e-06
-1.14863e-05
0.00180536
2.04773e-05
-0.000150924
0.00156732
2.43279e-05
-7.18813e-05
0.00138858
0.000137814
0.000133665
0.00131957
0.000154805
5.29782e-05
0.00114819
0.000171795
4.30917e-05
0.000880451
0.000224435
6.99174e-05
0.00100798
0.000423155
-0.000652022
0.000659472
0.00028669
6.46609e-05
0.000373262
0.00021603
0.00012905
9.15096e-05
0.000209398
0.000214972
-0.00013169
0.000234369
0.000305656
0.000138503
0.000371245
0.00172982
9.245e-10
7.1394e-06
0.00176407
2.23432e-09
1.27053e-05
0.00178823
1.04708e-09
1.43339e-05
0.00180611
3.28412e-09
1.42289e-05
0.00181981
5.63964e-10
1.30741e-05
0.00183073
4.45941e-09
1.2053e-05
0.00183878
1.2347e-08
1.08833e-05
0.00184549
4.54758e-08
1.05342e-05
0.00185151
1.13876e-07
9.32218e-06
0.00185823
3.60511e-07
9.24878e-06
0.00185407
7.66171e-07
6.41633e-06
0.00186769
2.8957e-06
7.03941e-06
0.00182324
7.44753e-06
-1.08147e-05
0.00179503
4.76248e-05
-0.000147217
0.00147788
0.000291171
-0.000255012
0.00134397
0.000255664
0.00011254
0.00130127
0.00028538
4.17389e-05
0.00118164
0.000308831
2.05793e-05
0.00105434
0.000343605
2.19453e-05
0.0010002
0.000401874
3.42336e-05
0.000810372
0.000449355
1.69914e-05
0.000476933
0.000479798
9.9139e-05
0.000148624
0.000486468
0.000170332
-8.27405e-05
0.000497365
0.000259718
0.00034752
0.000334126
0.00172981
5.43983e-09
7.14022e-06
0.00176407
1.00191e-09
1.27032e-05
0.00178822
4.45755e-09
1.43357e-05
0.00180611
4.26499e-10
1.42256e-05
0.00181981
1.1181e-09
1.30783e-05
0.00183073
5.45532e-09
1.20452e-05
0.0018388
8.72568e-09
1.08845e-05
0.00184549
6.87862e-08
1.05146e-05
0.00185136
1.77567e-07
9.43107e-06
0.0018581
6.88134e-07
9.05375e-06
0.00185306
1.30691e-06
7.09102e-06
0.00186659
5.35995e-06
6.07372e-06
0.00182206
1.23362e-05
-1.15367e-05
0.00178346
7.78229e-05
-0.000136289
0.00151936
0.000349844
-8.37508e-05
0.00135934
0.000392868
0.000105199
0.00131858
0.00041744
3.70449e-05
0.00121138
0.000444031
7.87756e-06
0.00109967
0.000469901
-5.16371e-06
0.00103557
0.000468653
-3.18915e-05
0.000840657
0.000623895
3.13277e-06
0.000510362
0.000730093
9.71453e-05
0.000182201
0.000753915
0.00016257
-4.29709e-05
0.000749504
0.000244971
0.000587389
0.000322045
0.0017298
1.30791e-08
7.13729e-06
0.00176408
-9.82971e-09
1.2707e-05
0.00178822
1.70602e-08
1.43316e-05
0.00180612
-1.98234e-08
1.42315e-05
0.0018198
2.72863e-08
1.30712e-05
0.00183075
-3.80355e-08
1.20544e-05
0.00183883
3.86349e-08
1.08673e-05
0.00184544
3.23024e-08
1.05121e-05
0.00185082
7.11296e-07
9.31641e-06
0.00185783
2.0451e-07
9.23883e-06
0.00185021
4.66617e-06
6.4795e-06
0.00186618
3.45166e-06
7.0766e-06
0.00182413
1.47202e-05
-1.08083e-05
0.00177404
0.000124087
-0.000138056
0.00151091
0.00043531
-0.000110047
0.00135977
0.000511656
0.000101148
0.00132175
0.000546788
3.71593e-05
0.00119397
0.000595474
6.96504e-06
0.000990515
0.000676486
-7.81493e-07
0.000965246
0.000879626
-0.00046247
0.000732722
0.000835351
4.34712e-06
0.00047554
0.000914939
9.45082e-05
0.000190062
0.000982711
0.000156828
-2.49805e-05
0.000999559
0.00023208
0.000831277
0.000314029
0.00172978
-6.19622e-09
7.13281e-06
0.00176409
1.40375e-08
1.27127e-05
0.0017882
-1.28998e-08
1.43234e-05
0.00180612
2.11511e-08
1.42432e-05
0.00181977
-2.81137e-08
1.3059e-05
0.00183076
4.67275e-08
1.20605e-05
0.00183853
-2.10411e-09
1.08947e-05
0.00184545
1.56967e-07
1.04463e-05
0.00185429
-2.13981e-07
8.68922e-06
0.00185025
1.47639e-06
1.09062e-05
0.00187584
-8.65067e-07
1.30554e-06
0.00181736
1.02676e-05
1.72212e-05
0.00187784
2.11056e-05
-2.07626e-05
0.00173388
9.38999e-05
-0.00014714
0.00150968
0.000547873
-0.000138689
0.00135274
0.000627943
9.3743e-05
0.00132458
0.000672024
3.41142e-05
0.00121172
0.000735898
1.1062e-06
0.00107283
0.000828538
-1.75894e-05
0.00100634
0.000950807
-5.78612e-05
0.000787947
0.00104236
-8.00685e-06
0.000502941
0.00113341
8.68597e-05
0.000215855
0.00122031
0.000148562
2.6417e-06
0.00125614
0.000221322
0.00109481
0.000304781
0.00172979
1.15104e-08
7.13526e-06
0.00176409
-1.70252e-08
1.27081e-05
0.00178822
1.22656e-08
1.43307e-05
0.00180614
-2.23199e-08
1.42325e-05
0.0018198
2.48111e-08
1.30712e-05
0.00183077
-3.49576e-08
1.20513e-05
0.00183889
5.787e-08
1.08458e-05
0.00184548
7.36362e-08
1.04486e-05
0.00185039
7.83902e-07
9.25899e-06
0.00185753
3.32021e-07
9.26846e-06
0.00184721
5.24272e-06
6.24966e-06
0.00186495
4.80198e-06
7.4333e-06
0.00182815
2.07092e-05
-1.05574e-05
0.00176594
0.000153279
-0.000126949
0.00152043
0.000608732
-0.000110256
0.00136011
0.000742717
8.66129e-05
0.00133424
0.00079113
3.18749e-05
0.00123646
0.000867847
-5.34526e-06
0.00110708
0.000981024
-2.96223e-05
0.00102205
0.00113374
-0.000140409
0.000825606
0.00123811
-1.85752e-05
0.000553175
0.00134739
7.82908e-05
0.000265626
0.00146222
0.000140818
4.92918e-05
0.00152042
0.000208601
0.00139995
0.000291004
0.00172973
-2.62263e-08
7.13461e-06
0.0017641
1.48848e-08
1.27064e-05
0.00178818
-2.45572e-08
1.43308e-05
0.00180613
2.56108e-08
1.4233e-05
0.00181977
-2.56263e-08
1.30725e-05
0.00183074
5.20684e-08
1.20435e-05
0.00183867
3.11568e-08
1.08595e-05
0.00184562
2.09849e-07
1.03544e-05
0.0018542
-7.89362e-08
8.75831e-06
0.0018505
1.58455e-06
1.06656e-05
0.00187488
-1.04939e-07
1.71359e-06
0.00181809
1.15506e-05
1.61933e-05
0.00187889
2.72427e-05
-2.23376e-05
0.00174001
0.000130545
-0.000126815
0.00152911
0.000743306
-0.000189201
0.00135731
0.000854623
8.04667e-05
0.00134463
0.000903315
2.76412e-05
0.001263
0.000988114
-9.09e-06
0.0011535
0.00111686
-3.43432e-05
0.00105384
0.00128565
-8.79073e-05
0.000879648
0.00141738
-2.31383e-05
0.00062306
0.00155319
7.02418e-05
0.000345473
0.0017006
0.000131678
0.000115904
0.00179752
0.000196535
0.00176246
0.000275187
0.00172981
-1.59257e-08
7.14334e-06
0.00176407
1.5599e-09
1.26962e-05
0.00178823
-9.24216e-09
1.43437e-05
0.00180611
5.16888e-09
1.42134e-05
0.00181983
1.89558e-09
1.30901e-05
0.00183071
1.06022e-08
1.2026e-05
0.001839
6.24519e-08
1.08161e-05
0.00184556
1.92512e-07
1.0342e-05
0.00185089
4.57122e-07
9.29425e-06
0.00185754
1.25503e-06
9.05418e-06
0.00185067
3.20016e-06
6.46161e-06
0.00186491
1.06714e-05
6.43718e-06
0.00182797
3.09442e-05
-1.13533e-05
0.00178793
0.00016851
-0.000110719
0.00155078
0.000798771
-0.00011791
0.00136813
0.000960612
7.60208e-05
0.00135908
0.00100449
2.65558e-05
0.00129245
0.00109632
-1.09585e-05
0.00119751
0.00123853
-3.46001e-05
0.00109842
0.0014243
-7.17737e-05
0.000941423
0.0015801
-2.25487e-05
0.000709145
0.00174465
6.00646e-05
0.000449735
0.00192819
0.000119325
0.000204615
0.00208595
0.000182913
0.00220028
0.000250604
0.00172983
-5.41313e-09
7.14873e-06
0.00176404
1.11902e-08
1.26897e-05
0.00178824
-1.17728e-08
1.43488e-05
0.00180606
1.28709e-08
1.42054e-05
0.00181985
-1.04617e-08
1.30945e-05
0.00183067
1.17681e-08
1.20176e-05
0.00183902
9.93142e-08
1.07962e-05
0.00184566
1.80641e-07
1.02646e-05
0.00185143
6.28827e-07
9.25641e-06
0.00185786
1.27814e-06
9.00904e-06
0.00185269
5.3408e-06
6.37147e-06
0.00186632
1.07773e-05
6.24457e-06
0.00181934
4.11889e-05
-1.0678e-05
0.00179127
0.000192332
-9.3232e-05
0.00156219
0.00090937
-0.000189075
0.00137524
0.00105782
6.80773e-05
0.0013769
0.0010917
2.58603e-05
0.00132724
0.00119026
-1.09724e-05
0.00124754
0.00134382
-3.25675e-05
0.00115954
0.00154229
-5.72793e-05
0.00103082
0.00171622
-2.09424e-05
0.000842159
0.00190373
4.82334e-05
0.000611983
0.00213586
0.000101609
0.000346449
0.00238863
0.00016065
0.00274916
0.000215512
0.00172982
7.14759e-06
1.83602e-08
0.00176405
1.26918e-05
-2.3138e-10
0.00178826
1.43464e-05
-1.42526e-08
0.00180605
1.42137e-05
3.537e-08
0.00181993
1.30781e-05
-7.90897e-08
0.00183057
1.20375e-05
1.33574e-07
0.00183948
1.07018e-05
-2.55218e-07
0.00184573
1.02401e-05
4.82192e-07
0.00185341
9.2494e-06
-1.14296e-06
0.00185403
9.05556e-06
6.6971e-06
0.00186532
5.95723e-06
-8.44682e-06
0.00184433
6.66089e-06
4.45327e-05
0.00184342
-1.04904e-05
6.50378e-06
0.00178228
-7.72122e-05
0.000246789
0.00159158
-0.000181058
0.000973729
0.00139693
6.06757e-05
0.00114304
0.00140198
2.65949e-05
0.00117291
0.001369
-9.44041e-06
0.00126958
0.00130779
-2.88571e-05
0.00142776
0.00124036
-4.56704e-05
0.00163464
0.00113982
-1.75079e-05
0.00182411
0.000990408
3.99676e-05
0.00203029
0.000805134
8.27284e-05
0.00230546
0.000607697
0.000119736
0.0026271
0.000153955
0.00350481
0.00169382
1.14367e-09
-7.1379e-06
0.00171923
-4.18745e-10
-1.27059e-05
0.0017479
1.81004e-09
-1.43322e-05
0.00177636
-9.90099e-10
-1.42292e-05
0.00180251
1.87185e-09
-1.30745e-05
0.0018266
-5.71444e-10
-1.2051e-05
0.00184838
-5.2949e-10
-1.08828e-05
0.00186947
-2.26881e-09
-1.05606e-05
0.00188836
6.42793e-09
-9.45475e-06
0.00190619
1.89464e-07
-9.10419e-06
0.00191986
2.52784e-07
-6.97565e-06
0.00193
1.70791e-06
-6.28165e-06
0.00190061
4.73753e-06
1.21369e-05
0.00152791
3.46567e-05
0.000179908
0.00113066
0.000197255
0.000109044
0.00118748
0.000197288
-0.000124296
0.00105823
0.000230528
-5.03659e-05
0.000899877
0.000233636
-3.35438e-05
0.000787597
0.000224148
-4.3074e-05
-5.26782e-06
0.000201317
-6.17856e-05
-0.000229646
0.000341758
-5.42452e-05
-0.000414637
0.000422103
-0.00011043
-0.000454294
0.000446501
-0.000194728
-0.000315876
0.000474898
-0.000310468
0.000440305
-0.000386624
0.00169382
1.04636e-09
-7.13429e-06
0.00171923
9.03826e-10
-1.27115e-05
0.0017479
7.77811e-10
-1.43251e-05
0.00177636
1.48339e-09
-1.42395e-05
0.0018025
6.59586e-10
-1.30638e-05
0.00182661
1.24857e-10
-1.20584e-05
0.00184839
8.22552e-09
-1.0909e-05
0.00186943
1.87675e-08
-1.05312e-05
0.00188746
8.53602e-08
-8.80154e-06
0.00190734
2.44043e-07
-1.08504e-05
0.00191475
8.89859e-07
-1.79019e-06
0.00193668
2.84021e-06
-1.66394e-05
0.00189884
8.15284e-06
2.25734e-05
0.00152863
5.42397e-05
0.000196473
0.00111116
0.000258407
8.11832e-05
0.00117664
0.000354083
-0.0001137
0.00106685
0.00042297
-4.30874e-05
0.000902108
0.000448787
-3.12951e-05
0.0007487
0.000453981
-5.56863e-05
-6.56291e-05
0.00042906
0.000619429
-0.000353162
0.000684102
-3.95554e-05
-0.000480867
0.000747066
-0.000100597
-0.000484308
0.000793876
-0.000176558
-0.000321591
0.000832801
-0.000263781
0.000778742
-0.000327681
0.00169382
2.88314e-09
-7.13509e-06
0.00171923
-8.01667e-10
-1.27093e-05
0.0017479
2.98768e-09
-1.4329e-05
0.00177636
-1.61919e-09
-1.4233e-05
0.00180251
1.55941e-09
-1.30732e-05
0.0018266
-1.02097e-09
-1.20493e-05
0.00184837
2.41657e-09
-1.08832e-05
0.00186944
8.16279e-09
-1.05414e-05
0.0018883
7.51707e-08
-9.43518e-06
0.00190602
5.28673e-07
-9.1141e-06
0.00191968
1.13687e-06
-6.96784e-06
0.00192905
5.28234e-06
-6.36339e-06
0.00189707
1.50247e-05
1.25926e-05
0.00152427
0.000106609
0.000177238
0.00111582
0.00045043
0.000113057
0.00115949
0.00051852
-0.000106786
0.00105669
0.000602464
-4.18034e-05
0.000879402
0.000653736
-2.12321e-05
0.000657206
0.00069306
-2.3226e-05
-6.85238e-05
0.000785077
0.000336369
-0.000367846
0.000995633
-1.08012e-05
-0.000473337
0.00104793
-0.000100822
-0.000466185
0.00111359
-0.000167245
-0.000312826
0.0011628
-0.000241203
0.00109124
-0.000305111
0.00169381
2.42724e-09
-7.13053e-06
0.00171924
-1.2784e-09
-1.27163e-05
0.00174789
2.46965e-09
-1.43209e-05
0.00177637
-2.22426e-09
-1.42447e-05
0.0018025
6.65385e-10
-1.30627e-05
0.00182661
2.60943e-10
-1.20533e-05
0.00184839
2.01323e-09
-1.09153e-05
0.00186937
1.89642e-08
-1.04826e-05
0.0018874
1.12415e-07
-8.7643e-06
0.00190701
7.28922e-07
-1.07304e-05
0.00191471
1.52205e-06
-1.76169e-06
0.00193558
7.21974e-06
-1.63376e-05
0.00189588
2.0282e-05
2.28469e-05
0.0015407
0.000143134
0.000173606
0.0011234
0.000612709
0.000125564
0.00115829
0.000683581
-0.000102574
0.00105605
0.000777913
-3.81811e-05
0.000871255
0.000853177
-9.11402e-06
0.000637711
0.000918757
5.96614e-06
-4.7776e-05
0.000971808
3.48946e-05
-0.000331491
0.00128029
1.58803e-06
-0.00042964
0.00134159
-0.000103273
-0.000427628
0.00142603
-0.000160754
-0.000293441
0.00148551
-0.000227575
0.00140792
-0.000297969
0.00169381
-1.20354e-09
-7.12775e-06
0.00171924
3.70874e-10
-1.27212e-05
0.00174789
-1.31657e-09
-1.43166e-05
0.00177638
-2.00743e-10
-1.42513e-05
0.00180249
1.04496e-09
-1.30564e-05
0.00182661
-9.0004e-10
-1.20573e-05
0.00184841
1.86704e-08
-1.0915e-05
0.00186927
5.38532e-08
-1.0454e-05
0.00188648
1.99099e-07
-8.62874e-06
0.00190799
7.50404e-07
-1.07785e-05
0.0019098
2.0033e-06
-1.13275e-06
0.00194319
7.63527e-06
-1.71371e-05
0.00189905
2.14614e-05
2.10724e-05
0.00158283
0.00013943
0.000166963
0.00114509
0.000772001
0.000123196
0.00116368
0.000852532
-9.74774e-05
0.00106236
0.000947478
-3.60809e-05
0.000874511
0.00104354
-2.66916e-06
0.000616434
0.00114344
1.48079e-05
9.10907e-06
0.00125362
0.000266092
-0.000267165
0.00154507
1.48331e-06
-0.000368262
0.00162305
-9.6528e-05
-0.000374392
0.00172947
-0.000152091
-0.000261916
0.00180975
-0.0002179
0.00174079
-0.000291946
0.00169382
-2.41247e-09
-7.1324e-06
0.00171924
-1.0681e-09
-1.27142e-05
0.00174789
-1.61309e-09
-1.43239e-05
0.00177637
-2.76889e-09
-1.42412e-05
0.0018025
3.63825e-09
-1.30657e-05
0.0018266
-2.03752e-09
-1.20446e-05
0.00184834
2.35178e-08
-1.09011e-05
0.00186916
6.10423e-08
-1.03831e-05
0.00188713
2.25155e-07
-8.74518e-06
0.0019067
9.45421e-07
-1.06529e-05
0.0019143
2.2538e-06
-1.73314e-06
0.00193608
9.06146e-06
-1.63097e-05
0.00189848
2.50793e-05
2.2255e-05
0.00159842
0.000162904
0.000144374
0.00115261
0.000893583
0.000197845
0.00117106
0.00100494
-8.81799e-05
0.00107512
0.00110489
-3.17929e-05
0.000887551
0.00122025
4.13941e-06
0.000619261
0.00135247
2.85692e-05
0.00011635
0.00152839
8.61458e-05
-0.000166924
0.00179403
1.33836e-05
-0.000280916
0.00189882
-8.65935e-05
-0.00030161
0.00203175
-0.000143978
-0.000215359
0.00213711
-0.000207599
0.00209695
-0.000282467
0.00169382
-4.5796e-09
-7.13858e-06
0.00171923
-1.82221e-09
-1.27042e-05
0.0017479
-2.94146e-09
-1.43367e-05
0.00177636
-2.09191e-09
-1.42234e-05
0.00180251
4.81752e-09
-1.30794e-05
0.00182659
-3.26499e-10
-1.20401e-05
0.00184827
3.1604e-08
-1.083e-05
0.001869
7.64262e-08
-1.03969e-05
0.00188689
2.99423e-07
-9.22134e-06
0.00190653
1.05964e-06
-9.2209e-06
0.00191345
2.92018e-06
-6.03256e-06
0.00193504
1.03908e-05
-7.28251e-06
0.0018976
2.90002e-05
1.04e-05
0.0016186
0.000187718
0.000121967
0.00116812
0.00102303
0.000115944
0.00118015
0.00114971
-8.04575e-05
0.00109137
0.00124784
-2.8782e-05
0.000911542
0.00138102
8.74599e-06
0.000651162
0.0015436
3.41379e-05
0.0002287
0.00177519
8.64837e-05
-4.63202e-05
0.00202445
1.94922e-05
-0.000169782
0.00216532
-7.56049e-05
-0.00020166
0.00232549
-0.000133714
-0.000147722
0.00247181
-0.000195066
0.0024906
-0.000268151
0.00169384
-6.24842e-09
-7.14606e-06
0.00171922
4.41801e-10
-1.26936e-05
0.00174791
-2.6572e-09
-1.43465e-05
0.00177634
-2.67983e-10
-1.42097e-05
0.00180252
6.65777e-09
-1.30919e-05
0.00182657
-2.16745e-09
-1.20234e-05
0.00184819
3.90203e-08
-1.08175e-05
0.00186886
7.12058e-08
-1.03287e-05
0.00188738
3.49953e-07
-9.28793e-06
0.00190499
1.39744e-06
-9.02785e-06
0.00191726
3.49483e-06
-6.53742e-06
0.00192675
1.3066e-05
-6.31486e-06
0.00189715
3.59404e-05
1.07891e-05
0.00164407
0.000223227
0.000100971
0.00118066
0.00114783
0.000205807
0.00119076
0.00128566
-7.42595e-05
0.00111252
0.00137682
-2.64059e-05
0.000945322
0.00152533
1.05064e-05
0.000704955
0.00171401
3.41924e-05
0.000351223
0.00198541
7.02994e-05
9.4205e-05
0.00223741
2.00079e-05
-2.86589e-05
0.00240933
-6.34468e-05
-7.27641e-05
0.00260679
-0.000120739
-4.79955e-05
0.00280813
-0.000181139
0.00293649
-0.000245179
0.00169385
-9.0325e-09
-7.1488e-06
0.00171921
1.38779e-08
-1.26898e-05
0.00174792
-1.63049e-08
-1.43488e-05
0.00177631
2.35984e-08
-1.42055e-05
0.00180253
-2.33132e-08
-1.30944e-05
0.00182653
2.93802e-08
-1.20167e-05
0.00184814
2.06334e-08
-1.07992e-05
0.00186866
7.67564e-08
-1.02619e-05
0.00188687
6.38169e-07
-9.25583e-06
0.00190465
1.50581e-06
-9.01465e-06
0.00191515
5.59774e-06
-6.38403e-06
0.00192679
1.33805e-05
-6.29828e-06
0.00189366
4.72715e-05
1.06046e-05
0.00166779
0.000258056
9.21589e-05
0.00119231
0.00126305
0.000156617
0.00120282
0.00140593
-6.70313e-05
0.00113799
0.00149066
-2.55549e-05
0.00098733
0.00165301
1.07324e-05
0.000773432
0.00186217
3.22307e-05
0.000482637
0.00216104
5.62691e-05
0.000257257
0.00242102
1.95575e-05
0.000143476
0.00262049
-5.06853e-05
9.1527e-05
0.00286023
-0.000102541
9.49553e-05
0.00312094
-0.000158643
0.00345631
-0.00021159
0.00169383
-7.146e-06
-2.04481e-10
0.00171921
-1.26927e-05
1.67731e-08
0.00174792
-1.43446e-05
-3.51145e-08
0.0017763
-1.42147e-05
7.2023e-08
0.00180256
-1.30775e-05
-1.3268e-07
0.00182644
-1.20372e-05
2.27132e-07
0.00184827
-1.07033e-05
-4.02842e-07
0.00186814
-1.02383e-05
6.81039e-07
0.00188805
-9.25294e-06
-7.93612e-07
0.00190031
-9.05058e-06
7.22398e-06
0.00192555
-5.95576e-06
-7.8783e-06
0.00190474
-6.67879e-06
4.69513e-05
0.00191034
1.04469e-05
2.00918e-05
0.0016863
7.78898e-05
0.000321786
0.00121537
0.000186386
0.00135224
0.00122182
-6.03847e-05
0.00151576
0.00116613
-2.61919e-05
0.00159669
0.0010375
9.94318e-06
0.00176076
0.00085679
2.91122e-05
0.00198374
0.00062661
4.54232e-05
0.00229882
0.000442288
1.69866e-05
0.0025696
0.000354781
-4.12951e-05
0.00278713
0.00032064
-8.30817e-05
0.00305751
0.000314015
-0.000118373
0.00336268
-0.000151342
0.00407424
0.00172981
9.17227e-09
-5.87279e-05
0.00176408
-8.98728e-09
-4.69676e-05
0.00178822
1.3817e-08
-3.84855e-05
0.00180612
-1.87087e-08
-3.21137e-05
0.0018198
2.56439e-08
-2.67784e-05
0.00183074
-4.00574e-08
-2.29547e-05
0.00183881
2.62933e-08
-1.8976e-05
0.00184537
-4.06435e-08
-1.71136e-05
0.00185057
5.75541e-07
-1.52461e-05
0.00185767
-3.79791e-07
-1.59825e-05
0.00184942
3.47607e-06
-2.34518e-06
0.00186579
-1.19076e-06
-2.20398e-05
0.00182453
1.84351e-06
5.03495e-05
0.00180497
4.70969e-05
0.000145768
0.00152283
0.000111897
0.000271781
0.00137784
0.000118039
-9.99208e-05
0.00134719
0.000130585
-0.000151506
0.00124572
0.00012267
-5.59675e-05
0.00114079
8.36647e-05
-2.34814e-05
0.00113064
-6.1556e-05
9.17028e-06
0.000976679
9.76537e-05
1.09857e-07
0.000702485
0.000206762
-4.48494e-05
0.000346678
0.000279736
-0.000119513
4.71806e-05
0.000294614
-0.000307521
0.00031967
-0.000659846
0.0017298
-1.70028e-09
-5.86941e-05
0.00176408
9.15066e-09
-4.701e-05
0.00178821
-7.50773e-09
-3.84406e-05
0.00180612
1.67763e-08
-3.21755e-05
0.00181979
-2.41104e-08
-2.66866e-05
0.00183075
4.15848e-08
-2.31041e-05
0.00183855
-2.72035e-08
-1.86549e-05
0.00184538
8.81458e-08
-1.75185e-05
0.00185426
-4.38413e-07
-1.66776e-05
0.00184995
9.6881e-07
-8.04674e-06
0.00187527
-2.24221e-06
-2.15063e-05
0.00181476
5.82389e-06
3.63062e-05
0.001873
9.06125e-06
-4.4042e-05
0.00174817
2.52033e-05
0.000338107
0.00151819
0.000187402
0.000226005
0.0013642
0.000242652
-8.69352e-05
0.00132794
0.000269694
-0.000146966
0.00116933
0.000292547
-4.35895e-05
0.00089603
0.000318557
-1.83971e-05
0.000959442
0.000400031
9.32875e-05
0.00064701
0.000371221
-1.98541e-06
0.00039614
0.00040742
-5.17023e-05
0.000124756
0.000498271
-0.000125303
-9.621e-05
0.000556323
-0.000306576
0.000504049
-0.000609022
0.0017298
1.14403e-08
-5.87197e-05
0.00176409
-1.00056e-08
-4.69778e-05
0.00178821
1.51245e-08
-3.84747e-05
0.00180614
-2.06913e-08
-3.21273e-05
0.00181978
2.48522e-08
-2.67635e-05
0.00183078
-3.93691e-08
-2.29663e-05
0.00183881
2.72119e-08
-1.89677e-05
0.00184539
-1.36942e-08
-1.70471e-05
0.00185009
6.03656e-07
-1.5198e-05
0.00185758
-1.33836e-07
-1.56471e-05
0.00184634
3.89012e-06
-2.00929e-06
0.00186513
1.22356e-06
-2.11049e-05
0.00182916
9.2758e-06
4.72152e-05
0.00178257
0.000102615
0.000141348
0.00149685
0.000305387
0.000272208
0.00135636
0.000358358
-8.48869e-05
0.00132067
0.000403434
-0.000141295
0.00117503
0.000452974
-3.738e-05
0.000951869
0.000524455
-7.23628e-06
0.00094777
0.000659545
7.97034e-05
0.000660111
0.000635444
1.13901e-05
0.000359875
0.000643189
-3.76924e-05
8.1167e-05
0.000725675
-0.000117996
-9.98818e-05
0.000790684
-0.000296094
0.000692489
-0.000594088
0.00172979
3.66246e-09
-5.8681e-05
0.00176409
-3.48109e-09
-4.70275e-05
0.00178821
3.34233e-09
-3.84228e-05
0.00180615
-6.24294e-09
-3.22002e-05
0.00181977
2.06972e-09
-2.66588e-05
0.00183081
1.07822e-09
-2.31394e-05
0.00183854
2.78668e-09
-1.86203e-05
0.00184546
7.43194e-08
-1.75109e-05
0.00185405
1.3156e-07
-1.68964e-05
0.00185073
7.4403e-07
-8.43709e-06
0.00187361
1.32261e-06
-2.22013e-05
0.00181846
6.24125e-06
3.32076e-05
0.00188216
1.58938e-05
-4.79208e-05
0.0017356
9.99163e-05
0.000316906
0.00150768
0.000412869