/*--------------------------------*- C++ -*----------------------------------*\
  =========                 |
  \\      /  F ield         | OpenFOAM: The Open Source CFD Toolbox
   \\    /   O peration     | Website:  https://openfoam.org
    \\  /    A nd           | Version:  6
     \\/     M anipulation  |
\*---------------------------------------------------------------------------*/
FoamFile
{
    version     2.0;
    format      ascii;
    class       volScalarField;
    location    "9";
    object      T;
}
// * * * * * * * * * * * * * * * * * * * * * * * * * * * * * * * * * * * * * //

dimensions      [0 0 0 1 0 0 0];

internalField   nonuniform List<scalar> 
26250
(
0.979737
0.967785
0.955505
0.94698
0.937554
0.931581
0.925615
0.928001
0.929549
0.955492
1.00366
1.18245
1.66442
2.44996
2.70424
2.6652
2.61719
2.58576
2.58192
2.61361
2.62176
2.63818
2.67247
2.70914
2.70979
0.979745
0.967776
0.955514
0.94697
0.937562
0.93157
0.925606
0.927911
0.929436
0.95532
1.00306
1.18194
1.65941
2.45133
2.71161
2.67475
2.62647
2.59412
2.59243
2.61008
2.6229
2.64328
2.67379
2.71747
2.7148
0.979765
0.967754
0.955534
0.94695
0.93758
0.931547
0.925591
0.927711
0.929259
0.95494
1.00212
1.18003
1.65173
2.44435
2.70233
2.66256
2.61787
2.58437
2.58346
2.6004
2.61383
2.63812
2.66697
2.71625
2.71382
0.979804
0.967716
0.955576
0.946916
0.937611
0.931514
0.925494
0.927322
0.927993
0.954237
0.998884
1.17706
1.65602
2.43156
2.69497
2.65496
2.61064
2.57917
2.57583
2.60336
2.6157
2.64057
2.66968
2.72038
2.72113
0.980549
0.966951
0.956345
0.946156
0.938418
0.930719
0.926055
0.925514
0.93232
0.943719
1.0167
1.14577
1.62337
2.52607
2.69866
2.65868
2.61226
2.57836
2.57678
2.59827
2.61239
2.63714
2.66938
2.71763
2.72828
0.979776
0.967741
0.955561
0.946934
0.937593
0.931508
0.925326
0.926664
0.926918
0.952533
0.992807
1.16828
1.63099
2.39645
2.68123
2.64086
2.60381
2.57003
2.5702
2.58915
2.60571
2.63067
2.66667
2.71577
2.72998
0.98132
0.966213
0.95711
0.945377
0.939159
0.929892
0.92697
0.924405
0.931147
0.942051
1.01159
1.13156
1.5991
2.4871
2.68314
2.64129
2.60161
2.56543
2.56402
2.58047
2.59491
2.6194
2.65452
2.70956
2.72855
0.979663
0.967851
0.955435
0.947048
0.93746
0.931604
0.925117
0.926237
0.926425
0.950631
0.989557
1.15686
1.55396
2.35063
2.66015
2.62164
2.59262
2.55863
2.55678
2.57223
2.58537
2.60777
2.64098
2.69309
2.71775
0.979455
0.96803
0.955236
0.947223
0.937276
0.931761
0.92483
0.925999
0.926829
0.949236
0.988323
1.14838
1.51839
2.31843
2.64386
2.60658
2.58341
2.54925
2.54802
2.5616
2.57362
2.59471
2.62466
2.67418
2.68754
0.979319
0.968196
0.955071
0.947413
0.937072
0.931936
0.924597
0.925423
0.925742
0.947642
0.983301
1.14003
1.49588
2.27338
2.61195
2.59748
2.56505
2.52858
2.52661
2.53746
2.5471
2.56455
2.587
2.631
2.61059
1.01408
1.02115
1.0262
1.02907
1.03184
1.03349
1.03693
1.04217
1.06149
1.09619
1.19095
1.44123
2.19193
2.79808
2.67528
2.80094
2.76308
2.75039
2.78113
2.78092
2.78405
2.79393
2.8344
2.82306
2.75445
1.01408
1.02115
1.0262
1.02907
1.03184
1.03348
1.03692
1.04214
1.0614
1.09598
1.19044
1.43986
2.18719
2.79995
2.66221
2.80349
2.76589
2.75356
2.77555
2.77979
2.78494
2.79046
2.82476
2.82845
2.75916
1.01408
1.02114
1.0262
1.02907
1.03184
1.03347
1.03688
1.04207
1.06122
1.09549
1.18962
1.43661
2.18362
2.7923
2.67588
2.8007
2.75973
2.74935
2.76784
2.77636
2.78497
2.7891
2.81293
2.82985
2.76128
1.01409
1.02114
1.02621
1.02906
1.03185
1.03346
1.03683
1.04194
1.06094
1.09467
1.18816
1.43185
2.17386
2.78392
2.68143
2.79859
2.75485
2.74488
2.76616
2.77522
2.78092
2.78644
2.80548
2.82746
2.76039
1.01412
1.02114
1.02622
1.02908
1.03186
1.03349
1.03685
1.042
1.05866
1.09691
1.17818
1.43888
2.16115
2.78608
2.69397
2.80287
2.75618
2.74363
2.76189
2.7652
2.7696
2.77726
2.79562
2.82084
2.75766
1.0141
1.02113
1.02622
1.02906
1.03185
1.03343
1.03667
1.04161
1.06006
1.09253
1.18312
1.41872
2.13505
2.77064
2.70473
2.79581
2.74864
2.73843
2.7535
2.75805
2.76155
2.76536
2.77923
2.81158
2.75186
1.01417
1.02112
1.02626
1.02907
1.03186
1.03345
1.03667
1.04161
1.05769
1.09443
1.17202
1.42374
2.10662
2.77862
2.71761
2.79202
2.74115
2.73081
2.74336
2.7454
2.75022
2.75262
2.76195
2.79192
2.73964
1.01409
1.02113
1.02622
1.02905
1.03184
1.03337
1.03644
1.04119
1.05881
1.08994
1.17534
1.40199
2.06333
2.7707
2.72239
2.78676
2.73318
2.72306
2.73373
2.73367
2.73422
2.73566
2.73879
2.7704
2.71781
1.01409
1.02112
1.02621
1.02904
1.03183
1.03332
1.03629
1.04092
1.05802
1.08819
1.1707
1.38998
2.02084
2.76655
2.7271
2.77832
2.72532
2.7136
2.72105
2.7212
2.71837
2.71474
2.7126
2.7301
2.67517
1.01406
1.02114
1.02619
1.02905
1.03181
1.03327
1.03604
1.04058
1.05657
1.08652
1.16324
1.37955
1.96999
2.76169
2.73369
2.76359
2.7205
2.70658
2.70766
2.70539
2.69846
2.69159
2.67577
2.68331
2.5885
1.00612
1.0129
1.02128
1.02824
1.03549
1.04108
1.04772
1.05612
1.08021
1.12285
1.2296
1.52167
2.32279
2.84739
2.46672
2.79266
2.77839
2.76557
2.79188
2.74575
2.82646
2.82763
2.82175
2.809
2.74834
1.00615
1.01288
1.02131
1.02822
1.03551
1.04106
1.04775
1.0561
1.0803
1.12239
1.22956
1.51947
2.31639
2.84517
2.46505
2.78866
2.77185
2.76151
2.78949
2.7467
2.82258
2.82381
2.81751
2.80492
2.74972
1.00612
1.0129
1.02128
1.02825
1.03548
1.04108
1.0477
1.05607
1.07996
1.12215
1.2281
1.51684
2.31254
2.84535
2.47551
2.79151
2.7704
2.76054
2.78705
2.75458
2.81985
2.81825
2.80984
2.7961
2.74706
1.00614
1.01288
1.0213
1.02823
1.0355
1.04106
1.04772
1.05601
1.07985
1.12113
1.22687
1.51064
2.297
2.84142
2.48981
2.79185
2.76703
2.75843
2.78203
2.7468
2.8128
2.81167
2.79959
2.78891
2.74147
1.00616
1.01286
1.02132
1.02821
1.03553
1.04104
1.04773
1.05592
1.07966
1.11978
1.22519
1.50186
2.27692
2.83551
2.50707
2.78889
2.75974
2.75366
2.77445
2.73879
2.80623
2.79904
2.78843
2.77387
2.72961
1.00614
1.01289
1.0213
1.02823
1.0355
1.04105
1.04767
1.05581
1.0791
1.11874
1.22237
1.49359
2.26245
2.83092
2.52938
2.78549
2.75047
2.7466
2.76529
2.73246
2.79211
2.79026
2.77457
2.76059
2.7177
1.00613
1.01289
1.02129
1.02823
1.03549
1.04104
1.04762
1.05568
1.07862
1.11727
1.21954
1.48358
2.24321
2.82108
2.55611
2.78244
2.74243
2.7372
2.75185
2.72327
2.77664
2.77176
2.75668
2.73795
2.69227
1.0061
1.01293
1.02126
1.02826
1.03545
1.04106
1.04754
1.05554
1.07783
1.11583
1.21535
1.47329
2.21809
2.81514
2.58453
2.77924
2.73341
2.72814
2.7379
2.71051
2.75146
2.7567
2.73569
2.71272
2.66491
1.00608
1.01294
1.02124
1.02827
1.03544
1.04106
1.04747
1.05535
1.07704
1.11379
1.21069
1.45996
2.18279
2.80567
2.61255
2.77613
2.72543
2.71765
2.72442
2.69868
2.72709
2.73026
2.70601
2.67648
2.60793
1.006
1.01301
1.02116
1.02835
1.03536
1.04111
1.04734
1.05503
1.07553
1.11168
1.20405
1.44564
2.14096
2.79664
2.63268
2.76811
2.71839
2.70777
2.70812
2.68185
2.69746
2.70533
2.67439
2.63058
2.51642
1.01409
1.02114
1.02621
1.02907
1.03184
1.03348
1.03691
1.0421
1.06137
1.09598
1.19025
1.44187
2.19008
2.79908
2.68023
2.80681
2.76738
2.75424
2.77097
2.77945
2.78673
2.8032
2.81542
2.84738
2.75188
1.01409
1.02115
1.0262
1.02908
1.03184
1.03351
1.03697
1.04228
1.05932
1.09914
1.18225
1.4537
2.19821
2.80139
2.68885
2.81166
2.77176
2.7575
2.78627
2.78662
2.78984
2.802
2.82789
2.84514
2.75952
1.0141
1.02113
1.02622
1.02906
1.03185
1.03347
1.03687
1.04199
1.06113
1.09528
1.18887
1.43812
2.18119
2.79277
2.68424
2.80713
2.76668
2.75514
2.78257
2.78336
2.78558
2.79417
2.82526
2.83596
2.75738
1.0141
1.02114
1.02621
1.02908
1.03185
1.0335
1.03691
1.04212
1.05901
1.09788
1.17984
1.44634
2.17521
2.79282
2.694
2.80873
2.76498
2.75278
2.77411
2.77894
2.78225
2.78723
2.81952
2.82882
2.75578
1.01411
1.02114
1.02622
1.02907
1.03185
1.03349
1.03685
1.04197
1.05879
1.09673
1.17782
1.43955
2.15425
2.78648
2.70093
2.80731
2.76097
2.74857
2.76618
2.77314
2.77491
2.77799
2.81047
2.81936
2.75278
1.0141
1.02114
1.02622
1.02907
1.03185
1.03346
1.03678
1.04182
1.05829
1.0957
1.17518
1.43229
2.13253
2.78326
2.71372
2.80177
2.75318
2.74159
2.75636
2.76054
2.76508
2.76593
2.79344
2.81059
2.74644
1.0141
1.02113
1.02621
1.02905
1.03184
1.0334
1.03658
1.04144
1.05953
1.09144
1.17981
1.41078
2.10296
2.77012
2.71842
2.79175
2.74174
2.73304
2.74608
2.7484
2.75428
2.7534
2.77391
2.79224
2.73407
1.01409
1.02113
1.02621
1.02905
1.03183
1.03336
1.03645
1.04122
1.05885
1.09001
1.17581
1.40105
2.06672
2.76839
2.72062
2.78689
2.73319
2.72397
2.73532
2.73546
2.7364
2.73696
2.74751
2.77277
2.71411
1.01409
1.02112
1.02621
1.02904
1.03183
1.03332
1.0363
1.04093
1.05804
1.08824
1.17078
1.39017
2.02077
2.76607
2.72597
2.77769
2.72469
2.71471
2.72256
2.72412
2.7212
2.71471
2.71758
2.73516
2.67291
1.01406
1.02114
1.02619
1.02905
1.03181
1.03327
1.03605
1.04059
1.05658
1.08655
1.16329
1.37965
1.96983
2.76137
2.73382
2.76273
2.71954
2.70571
2.70774
2.70664
2.70229
2.69243
2.67992
2.68724
2.58817
0.979779
0.967743
0.955547
0.946941
0.937584
0.931545
0.925518
0.927551
0.928252
0.955042
1.00103
1.18206
1.6836
2.43827
2.69795
2.65702
2.61305
2.57411
2.57118
2.57945
2.59596
2.61396
2.65028
2.69394
2.67885
0.980158
0.967355
0.955962
0.946507
0.938041
0.930999
0.925973
0.925491
0.932705
0.944693
1.01978
1.15044
1.64265
2.55831
2.7179
2.68091
2.62765
2.59529
2.58908
2.61992
2.63103
2.65014
2.68569
2.72759
2.72465
0.979807
0.967716
0.955579
0.946915
0.937609
0.931522
0.925459
0.927318
0.927549
0.954599
0.997448
1.18021
1.68047
2.4292
2.69162
2.65314
2.60682
2.57511
2.57203
2.59901
2.61641
2.6359
2.67605
2.71485
2.72731
0.980225
0.967282
0.95603
0.946437
0.938109
0.930936
0.925964
0.925428
0.93268
0.946665
1.01847
1.15366
1.62722
2.532
2.70198
2.66249
2.6141
2.5784
2.57571
2.59419
2.61251
2.63224
2.67357
2.7142
2.72954
0.980229
0.967283
0.956034
0.946437
0.938108
0.93092
0.925842
0.925331
0.932517
0.948064
1.01649
1.15062
1.6166
2.52022
2.69627
2.65738
2.61137
2.57622
2.5754
2.59714
2.61568
2.63485
2.67559
2.71555
2.73556
0.98016
0.967351
0.955958
0.946501
0.938041
0.930999
0.925902
0.925405
0.932088
0.945277
1.01446
1.14187
1.60941
2.50971
2.69561
2.65595
2.61183
2.57628
2.57491
2.59199
2.61032
2.62922
2.66996
2.71202
2.73576
0.979748
0.967762
0.955526
0.946954
0.937559
0.931521
0.925311
0.926621
0.927042
0.952006
0.992918
1.16408
1.58358
2.37716
2.67343
2.63386
2.60165
2.5691
2.56927
2.58545
2.60459
2.62357
2.66382
2.70803
2.73399
0.979724
0.967777
0.955485
0.946971
0.937521
0.931518
0.925254
0.926323
0.927439
0.950718
0.991479
1.15643
1.54623
2.35206
2.66176
2.61998
2.59108
2.55646
2.55599
2.56945
2.58871
2.60752
2.64691
2.69633
2.7222
0.979499
0.967997
0.955265
0.947199
0.937284
0.931744
0.924903
0.925987
0.926911
0.949354
0.988614
1.1484
1.51895
2.31679
2.6418
2.60477
2.58174
2.54728
2.54603
2.55835
2.57292
2.59108
2.6248
2.6749
2.69074
0.979335
0.96817
0.955114
0.94736
0.93715
0.931863
0.924657
0.925435
0.926173
0.947274
0.983474
1.14032
1.49591
2.27335
2.61136
2.59686
2.56436
2.5281
2.52536
2.53574
2.54629
2.56197
2.58422
2.6295
2.61247
0.981615
0.965884
0.957431
0.945028
0.939462
0.929504
0.926959
0.922659
0.928474
0.936133
0.996094
1.08441
1.51912
2.37647
2.60569
2.59858
2.56449
2.52539
2.51722
2.52351
2.52622
2.53345
2.53299
2.5325
2.46093
0.979681
0.967859
0.955436
0.947072
0.937431
0.93157
0.924798
0.924608
0.925307
0.943989
0.975238
1.11612
1.44803
2.16049
2.55897
2.56813
2.54504
2.51506
2.50468
2.5072
2.50649
2.5022
2.49074
2.46598
2.37242
0.981458
0.966019
0.957309
0.945122
0.939379
0.929553
0.926655
0.922008
0.92712
0.933272
0.986634
1.0621
1.44272
2.23748
2.5347
2.55048
2.52834
2.50234
2.49214
2.49206
2.48868
2.47929
2.45919
2.43094
2.35328
0.979361
0.96817
0.955096
0.947407
0.937062
0.931903
0.924156
0.923829
0.923436
0.940961
0.972955
1.09037
1.39935
2.04569
2.4923
2.52336
2.5051
2.48544
2.47542
2.47262
2.46612
2.45533
2.43106
2.4025
2.34304
0.979562
0.967956
0.955304
0.947187
0.937266
0.931668
0.924227
0.923051
0.922707
0.938161
0.962871
1.08098
1.31009
1.96026
2.45361
2.49887
2.48563
2.47297
2.4614
2.45736
2.44896
2.4379
2.41534
2.38501
2.33585
0.981052
0.966428
0.956872
0.945575
0.93885
0.930027
0.925703
0.920803
0.924298
0.930161
0.969193
1.03324
1.30763
1.97402
2.39348
2.47062
2.46729
2.45689
2.44182
2.43699
2.42681
2.41716
2.3972
2.37189
2.33264
0.980887
0.96661
0.956679
0.945787
0.938672
0.930164
0.92544
0.920503
0.923222
0.929193
0.96193
1.0213
1.2493
1.86468
2.33752
2.45914
2.45822
2.44862
2.43241
2.42065
2.4099
2.39414
2.37754
2.34977
2.31865
0.980776
0.966713
0.956558
0.945906
0.93858
0.930252
0.925154
0.920413
0.922814
0.927913
0.953267
1.01229
1.18447
1.728
2.2429
2.43362
2.44192
2.43539
2.42171
2.40959
2.39954
2.38563
2.36706
2.34377
2.31155
0.980794
0.966686
0.956565
0.945885
0.938533
0.930266
0.925105
0.919931
0.922084
0.925245
0.944158
0.995596
1.11591
1.58819
2.09528
2.36855
2.39263
2.3898
2.38223
2.3754
2.37143
2.36506
2.35199
2.33383
2.30901
0.979089
0.968428
0.954819
0.947694
0.936738
0.932135
0.923194
0.921439
0.918025
0.923034
0.931975
0.979911
1.0634
1.39904
2.07734
2.35795
2.38967
2.37856
2.36458
2.35072
2.34327
2.33559
2.32564
2.31118
2.2934
0.981042
0.966434
0.95685
0.945583
0.938837
0.929906
0.925344
0.918674
0.918466
0.918173
0.933392
0.958601
1.06709
1.29493
1.88173
2.34839
2.40736
2.39203
2.37736
2.35475
2.3418
2.32974
2.3168
2.30167
2.28287
0.979585
0.967933
0.955359
0.947144
0.937279
0.931513
0.923726
0.920169
0.916033
0.919337
0.925693
0.960266
1.02676
1.25643
1.8665
2.28306
2.39487
2.39813
2.38489
2.36979
2.35258
2.33787
2.32258
2.30517
2.28494
0.98069
0.966789
0.956502
0.94596
0.938451
0.930283
0.92495
0.918698
0.916785
0.916428
0.925793
0.948515
1.01439
1.18937
1.64724
2.19009
2.36956
2.38162
2.37489
2.36441
2.35077
2.33871
2.32467
2.30873
2.29005
0.980431
0.967016
0.956268
0.946195
0.938222
0.930537
0.924665
0.91885
0.915808
0.915337
0.922225
0.936406
0.992431
1.09724
1.46537
2.13704
2.34645
2.36516
2.36142
2.349
2.33409
2.32378
2.3123
2.2992
2.28373
0.980194
0.967301
0.95598
0.946517
0.937976
0.930833
0.924433
0.91907
0.915155
0.914823
0.9194
0.92987
0.974991
1.05306
1.384
2.03548
2.33913
2.3792
2.36926
2.35376
2.33316
2.31845
2.30531
2.29177
2.27659
0.981286
0.966204
0.957106
0.945344
0.939106
0.929632
0.925511
0.917924
0.916071
0.913716
0.917282
0.926224
0.964402
1.0367
1.30901
1.95821
2.34516
2.41729
2.4026
2.38658
2.3635
2.34028
2.32087
2.30257
2.28486
0.981172
0.966319
0.956984
0.945469
0.938975
0.92975
0.925403
0.917942
0.915883
0.912751
0.91579
0.923326
0.955557
1.01978
1.24086
1.84549
2.29902
2.42542
2.42478
2.40815
2.3877
2.36382
2.34374
2.32502
2.30609
0.98091
0.966558
0.956743
0.945707
0.938736
0.929994
0.925149
0.918155
0.915469
0.912268
0.9148
0.921166
0.945932
1.00444
1.17195
1.6932
2.21825
2.41715
2.42365
2.41076
2.39037
2.36576
2.34653
2.32971
2.31306
0.98068
0.966786
0.9565
0.945966
0.938469
0.930236
0.924961
0.918268
0.915084
0.911719
0.913459
0.919037
0.937468
0.987852
1.11143
1.55449
2.09775
2.39045
2.41089
2.39875
2.37921
2.35458
2.33712
2.32255
2.30847
0.98074
0.966766
0.956501
0.945967
0.93844
0.930299
0.924794
0.918471
0.914606
0.910725
0.912158
0.915812
0.933296
0.970391
1.08937
1.39055
2.01097
2.39119
2.42521
2.40886
2.38851
2.36164
2.34382
2.32928
2.31478
0.98063
0.96688
0.956431
0.946052
0.938408
0.930359
0.924764
0.918515
0.914573
0.910577
0.912074
0.913243
0.929526
0.961377
1.07563
1.32906
1.95963
2.41555
2.4621
2.44027
2.42129
2.39276
2.37006
2.35128
2.33394
0.980943
0.966604
0.956684
0.945825
0.938593
0.930173
0.924879
0.918361
0.914591
0.910243
0.910962
0.911718
0.92652
0.953492
1.06119
1.27167
1.88719
2.39399
2.47136
2.4621
2.44314
2.41839
2.39561
2.37713
2.36011
0.980823
0.966666
0.95663
0.945817
0.938628
0.930052
0.925072
0.918094
0.914865
0.909728
0.910228
0.910679
0.923594
0.948124
1.04246
1.22625
1.79047
2.35812
2.48003
2.47869
2.46125
2.43498
2.40613
2.38529
2.36897
0.980834
0.966645
0.956646
0.94579
0.93865
0.930058
0.925043
0.918156
0.914772
0.909635
0.909571
0.909555
0.920887
0.9416
1.02298
1.17686
1.68744
2.29614
2.46965
2.46899
2.45144
2.42565
2.39563
2.37456
2.35863
0.980719
0.966757
0.956525
0.945917
0.938503
0.930228
0.924838
0.918403
0.914474
0.909887
0.908992
0.909153
0.917469
0.937294
0.998607
1.13497
1.53864
2.27874
2.46985
2.46569
2.44246
2.41176
2.38379
2.36778
2.35636
0.980628
0.96686
0.956417
0.946043
0.93836
0.930396
0.924666
0.918557
0.914346
0.909947
0.908593
0.908948
0.915562
0.934993
0.984636
1.11788
1.49032
2.23721
2.48497
2.49017
2.46286
2.42503
2.39229
2.37535
2.3652
0.980532
0.966955
0.95633
0.946119
0.938312
0.930417
0.924684
0.918513
0.914391
0.909726
0.90806
0.90765
0.914694
0.928555
0.982057
1.07609
1.46487
2.2421
2.51406
2.52752
2.49891
2.46182
2.4254
2.40539
2.39355
0.980493
0.966998
0.956287
0.946166
0.938264
0.930465
0.924639
0.918553
0.914347
0.909746
0.907882
0.90751
0.913746
0.928644
0.976952
1.08023
1.44713
2.2085
2.50996
2.53394
2.50611
2.47249
2.43879
2.42038
2.40898
0.980448
0.967052
0.95623
0.946227
0.938203
0.930529
0.924573
0.918616
0.914275
0.909778
0.907666
0.907272
0.913181
0.92595
0.973933
1.06388
1.42336
2.18003
2.49908
2.52814
2.50448
2.47492
2.44217
2.42407
2.41285
0.980438
0.967073
0.95619
0.946254
0.93816
0.930554
0.924533
0.918652
0.914232
0.909782
0.907499
0.90711
0.912657
0.924262
0.970455
1.05191
1.39857
2.14388
2.4975
2.53222
2.51104
2.48425
2.45118
2.43209
2.42014
0.980351
0.967122
0.956174
0.946269
0.93816
0.930585
0.924502
0.918696
0.914195
0.9098
0.907376
0.906994
0.91231
0.922855
0.967998
1.04265
1.37719
2.1057
2.48382
2.53285
2.51442
2.49158
2.46195
2.44383
2.43163
0.980285
0.967216
0.956065
0.946396
0.93803
0.930705
0.924397
0.918791
0.91409
0.909858
0.907068
0.906725
0.91179
0.923356
0.965315
1.05002
1.36045
2.08381
2.46827
2.52964
2.515
2.49527
2.4656
2.44742
2.43625
0.980258
0.967243
0.956034
0.946426
0.938004
0.930736
0.924375
0.918817
0.914062
0.909868
0.906988
0.906657
0.911347
0.921263
0.961757
1.03379
1.33287
2.02663
2.46245
2.53545
2.52506
2.50193
2.47135
2.45113
2.43739
0.980227
0.967275
0.955998
0.946456
0.937971
0.93077
0.924352
0.918857
0.914053
0.909905
0.906963
0.90666
0.910816
0.920241
0.95797
1.02772
1.30428
1.96939
2.4516
2.54767
2.53822
2.51283
2.47552
2.45013
2.4349
0.980382
0.967258
0.956023
0.946541
0.937935
0.930844
0.92433
0.918901
0.91401
0.909943
0.906905
0.906628
0.910269
0.918383
0.954154
1.01571
1.27507
1.90909
2.44243
2.56207
2.54928
2.51489
2.47386
2.44551
2.42717
0.980458
0.967207
0.956087
0.94648
0.937959
0.930833
0.924277
0.91894
0.913964
0.909975
0.906856
0.90664
0.909473
0.91729
0.948778
1.01092
1.23357
1.82657
2.43293
2.58196
2.56299
2.51907
2.45764
2.42049
2.40049
0.980681
0.966869
0.956377
0.946165
0.938187
0.930644
0.924381
0.918879
0.913952
0.909997
0.906825
0.906666
0.908844
0.917365
0.941973
1.00712
1.18676
1.74041
2.41104
2.57266
2.54348
2.49432
2.43262
2.39917
2.38724
0.980946
0.966508
0.956792
0.945658
0.938755
0.929992
0.925096
0.91809
0.914784
0.909132
0.90761
0.905596
0.907929
0.914443
0.939715
0.992054
1.16277
1.65541
2.32204
2.59124
2.56864
2.52059
2.45834
2.42687
2.41715
0.980908
0.966602
0.956691
0.945768
0.938647
0.930083
0.924997
0.918183
0.914674
0.909239
0.907475
0.905589
0.907689
0.914183
0.936787
0.988945
1.14734
1.59202
2.30173
2.61679
2.59787
2.55153
2.48224
2.44461
2.43096
0.980811
0.966689
0.9566
0.94586
0.93857
0.930163
0.924938
0.91825
0.914618
0.909295
0.907443
0.905752
0.90781
0.914603
0.935863
0.990831
1.14092
1.605
2.31072
2.63551
2.61409
2.56531
2.49203
2.45126
2.43568
1.01378
1.0215
1.02585
1.02947
1.03141
1.03375
1.03559
1.0422
1.05288
1.08461
1.16571
1.34435
1.83926
2.77204
2.73908
2.73474
2.70602
2.69822
2.69878
2.6932
2.67866
2.66471
2.63282
2.60466
2.47027
1.01369
1.02153
1.02581
1.02946
1.03139
1.0337
1.03553
1.04166
1.05227
1.07997
1.16285
1.32171
1.81527
2.76951
2.75839
2.72721
2.68201
2.68022
2.68335
2.67851
2.66153
2.63861
2.59266
2.5469
2.42864
1.01379
1.02149
1.02587
1.02945
1.03141
1.0337
1.03543
1.04145
1.05094
1.0801
1.15266
1.31454
1.77721
2.71876
2.74446
2.71781
2.67024
2.66203
2.66214
2.65884
2.64545
2.61985
2.56243
2.51547
2.42937
1.01375
1.02145
1.02588
1.02937
1.03145
1.03356
1.03527
1.04023
1.05058
1.07311
1.14966
1.28492
1.75244
2.70935
2.74392
2.70834
2.67498
2.65548
2.6494
2.63665
2.62388
2.60238
2.54817
2.49687
2.42976
1.01386
1.02135
1.02597
1.02927
1.03156
1.03336
1.0353
1.03878
1.04906
1.07508
1.1256
1.30192
1.70665
2.54226
2.72821
2.68379
2.67684
2.65629
2.64501
2.62689
2.60119
2.58391
2.54506
2.4877
2.4325
1.01384
1.02142
1.02592
1.02937
1.03146
1.03356
1.03519
1.03987
1.04733
1.07114
1.12831
1.25098
1.64811
2.51959
2.69286
2.68528
2.66745
2.65305
2.64132
2.6257
2.59376
2.5677
2.54115
2.48803
2.43813
1.01386
1.0214
1.02593
1.02937
1.03147
1.03352
1.03509
1.03928
1.04589
1.0669
1.11913
1.22362
1.59328
2.43813
2.6526
2.67966
2.66226
2.64456
2.63277
2.62167
2.59638
2.56081
2.53575
2.49157
2.44347
1.01404
1.02121
1.02611
1.02917
1.03167
1.03323
1.03505
1.03736
1.04446
1.06298
1.0961
1.22632
1.4668
2.21552
2.62013
2.68446
2.66367
2.64562
2.62574
2.61332
2.59641
2.56117
2.53719
2.49945
2.45469
1.01419
1.02107
1.02626
1.02903
1.03179
1.0331
1.03504
1.03683
1.0436
1.05799
1.08855
1.19296
1.39078
2.04077
2.55666
2.67544
2.65721
2.64209
2.62353
2.60598
2.59353
2.56317
2.53731
2.50795
2.47059
1.01409
1.02111
1.02621
1.02902
1.03176
1.03306
1.03497
1.03645
1.04266
1.05254
1.08276
1.15569
1.32251
1.76546
2.49297
2.64836
2.63576
2.62353
2.61561
2.60305
2.59131
2.56575
2.53951
2.51216
2.48131
1.01404
1.02124
1.02609
1.02922
1.03158
1.0333
1.03462
1.03635
1.03985
1.05158
1.0745
1.13172
1.29176
1.71554
2.44372
2.64575
2.63265
2.62041
2.6062
2.59807
2.58981
2.57154
2.54661
2.51962
2.48923
1.01408
1.02114
1.02618
1.02909
1.03169
1.03315
1.03472
1.03596
1.03911
1.04811
1.07021
1.11319
1.26729
1.58913
2.34028
2.62593
2.63484
2.62026
2.60535
2.59469
2.58748
2.5734
2.55505
2.53165
2.50419
1.01404
1.02121
1.02613
1.02915
1.03165
1.03318
1.03472
1.03587
1.0391
1.0459
1.06074
1.1118
1.19708
1.53557
2.31133
2.57306
2.64451
2.62733
2.61369
2.5982
2.58907
2.57581
2.5582
2.53761
2.51462
1.01377
1.02146
1.02587
1.02939
1.0314
1.03342
1.03441
1.03602
1.03783
1.04437
1.05881
1.09026
1.19616
1.40066
2.05563
2.53196
2.64817
2.63786
2.62617
2.60886
2.59634
2.58192
2.56401
2.5434
2.5221
1.01366
1.02156
1.02577
1.02949
1.03132
1.03351
1.03433
1.03599
1.03735
1.04347
1.05343
1.08253
1.15768
1.32115
1.76657
2.45232
2.62267
2.62119
2.61763
2.60703
2.59633
2.58326
2.56802
2.54945
2.52965
1.01377
1.0215
1.02585
1.02946
1.03137
1.03348
1.03434
1.0359
1.03708
1.04234
1.0501
1.07702
1.1341
1.27141
1.6626
2.44713
2.6242
2.62279
2.61239
2.5991
2.59128
2.5813
2.56766
2.55159
2.53412
1.0138
1.02147
1.02588
1.02941
1.0314
1.03344
1.03437
1.03582
1.03686
1.04122
1.04794
1.0702
1.12162
1.23231
1.59427
2.40403
2.61643
2.63852
2.62296
2.60795
2.59386
2.582
2.56874
2.55368
2.53742
1.01375
1.02148
1.02586
1.0294
1.03142
1.03339
1.03442
1.03564
1.03667
1.03927
1.0465
1.06485
1.09949
1.22758
1.46875
2.19474
2.59826
2.66942
2.6424
2.62099
2.59796
2.58339
2.57019
2.55538
2.53953
1.01383
1.02141
1.02592
1.02936
1.03144
1.03338
1.0344
1.03568
1.03658
1.03957
1.04439
1.06083
1.09529
1.17781
1.42205
2.06946
2.55687
2.68665
2.66224
2.64314
2.61411
2.59255
2.57565
2.55972
2.54387
1.01386
1.02139
1.02595
1.02933
1.03146
1.03336
1.03441
1.03566
1.03652
1.03907
1.04292
1.05789
1.08372
1.15908
1.34005
1.90272
2.4843
2.67661
2.65535
2.64313
2.61887
2.60172
2.58558
2.56809
2.5501
1.01387
1.02138
1.02595
1.02933
1.03148
1.03335
1.03442
1.03563
1.03644
1.0386
1.04199
1.05523
1.07747
1.14377
1.30187
1.77941
2.48152
2.68665
2.66116
2.65106
2.62683
2.60886
2.59274
2.57684
2.56021
1.0139
1.02136
1.02598
1.02932
1.03149
1.03334
1.03443
1.0356
1.03635
1.03817
1.04125
1.05241
1.07386
1.12717
1.28509
1.66459
2.45296
2.69289
2.68711
2.66569
2.63754
2.61685
2.60127
2.58656
2.5707
1.01388
1.02137
1.02597
1.02932
1.03148
1.03333
1.03442
1.03559
1.0363
1.03793
1.04057
1.05132
1.06909
1.11864
1.25858
1.57004
2.38267
2.68168
2.71392
2.68905
2.66052
2.62934
2.60778
2.59165
2.57659
1.01392
1.02135
1.026
1.0293
1.03152
1.03332
1.03445
1.03557
1.03624
1.03755
1.04003
1.04845
1.06609
1.10598
1.24021
1.50501
2.25673
2.66131
2.72855
2.70885
2.67532
2.64515
2.62359
2.6066
2.59157
1.01408
1.0212
1.02612
1.02918
1.0316
1.03324
1.03451
1.03549
1.03626
1.0373
1.03943
1.04762
1.06128
1.09902
1.20501
1.43518
2.0938
2.63465
2.74429
2.72687
2.68303
2.64698
2.62654
2.61281
2.5993
1.01406
1.02119
1.02615
1.02913
1.03167
1.03314
1.03462
1.03536
1.03641
1.0371
1.03969
1.04464
1.0571
1.09465
1.164
1.40382
2.01988
2.61213
2.73869
2.71938
2.67799
2.64469
2.62652
2.61357
2.60128
1.01407
1.02116
1.02617
1.02909
1.03171
1.03309
1.03466
1.03532
1.03639
1.037
1.03876
1.04446
1.05585
1.0834
1.16661
1.34435
1.80437
2.6418
2.74559
2.71088
2.67981
2.64633
2.62985
2.62077
2.61111
1.01402
1.02122
1.02611
1.02916
1.03164
1.03316
1.0346
1.03538
1.03637
1.03704
1.03919
1.0432
1.05371
1.08454
1.1392
1.34457
1.81272
2.62069
2.76671
2.72364
2.69566
2.65932
2.63934
2.62749
2.61677
1.01402
1.02122
1.02611
1.02916
1.03165
1.03316
1.0346
1.03537
1.03637
1.03704
1.03917
1.04278
1.05357
1.08171
1.13553
1.3259
1.77288
2.59739
2.76534
2.72432
2.70721
2.67469
2.6561
2.64243
2.62934
1.01395
1.02129
1.02605
1.02922
1.03158
1.03322
1.03453
1.03544
1.03626
1.03702
1.03834
1.04385
1.0522
1.07871
1.14391
1.28558
1.71888
2.62941
2.75248
2.72441
2.7111
2.67949
2.6588
2.645
2.6333
1.01391
1.02132
1.02602
1.02925
1.03155
1.03325
1.0345
1.03547
1.03623
1.03703
1.03826
1.04325
1.05174
1.07548
1.14272
1.27827
1.70598
2.61088
2.74352
2.73564
2.71231
2.68124
2.65977
2.64586
2.63509
1.01397
1.02126
1.02607
1.02919
1.03161
1.03319
1.03456
1.0354
1.03632
1.03695
1.03862
1.04215
1.05003
1.07672
1.1191
1.29882
1.67314
2.49747
2.74454
2.74201
2.72012
2.68778
2.66464
2.64971
2.63848
1.01387
1.02136
1.02597
1.02928
1.03151
1.03329
1.03447
1.03549
1.0362
1.03702
1.03813
1.04291
1.05025
1.0735
1.13188
1.25292
1.65611
2.54143
2.73968
2.7442
2.72503
2.69385
2.66718
2.65059
2.63938
1.01385
1.02138
1.02596
1.0293
1.0315
1.0333
1.03446
1.03551
1.03619
1.03701
1.03805
1.0428
1.04944
1.07334
1.12452
1.24256
1.61863
2.48885
2.74068
2.75308
2.73637
2.7005
2.67235
2.65466
2.64334
1.01382
1.02142
1.02592
1.02935
1.03146
1.03335
1.03442
1.03556
1.03615
1.03705
1.03796
1.04216
1.04876
1.06886
1.12272
1.22494
1.61167
2.44191
2.74077
2.7617
2.74516
2.70364
2.67232
2.65491
2.64491
1.0138
1.02145
1.0259
1.02938
1.03144
1.03338
1.03439
1.03558
1.03612
1.03706
1.03788
1.04179
1.04775
1.06698
1.11533
1.21147
1.55855
2.36465
2.7483
2.76907
2.75296
2.70288
2.66809
2.64975
2.63939
1.01397
1.02128
1.02606
1.02922
1.03159
1.03322
1.03454
1.03542
1.03628
1.03687
1.03806
1.04051
1.04637
1.06511
1.09544
1.22512
1.45981
2.16937
2.75132
2.78155
2.76632
2.70808
2.6641
2.64279
2.634
1.01382
1.02143
1.02591
1.02937
1.03143
1.03339
1.03438
1.0356
1.03609
1.03706
1.03768
1.04068
1.04609
1.06093
1.10318
1.18394
1.46792
2.15211
2.76584
2.78295
2.76863
2.70386
2.65813
2.63889
2.63177
1.01402
1.02124
1.0261
1.02918
1.03162
1.0332
1.03457
1.0354
1.03629
1.03684
1.03789
1.03984
1.046
1.06078
1.09071
1.19444
1.39186
1.95389
2.78964
2.78891
2.78239
2.72036
2.66842
2.64463
2.635
1.014
1.02125
1.02609
1.02919
1.03161
1.0332
1.03457
1.0354
1.03629
1.03682
1.03784
1.0397
1.04599
1.05984
1.08955
1.18963
1.383
1.92316
2.80336
2.78323
2.80003
2.73223
2.67389
2.64655
2.6361
1.00527
1.01375
1.02043
1.0291
1.03459
1.04192
1.04651
1.05607
1.07098
1.11022
1.20314
1.40955
2.00692
2.80146
2.67164
2.75929
2.70456
2.69882
2.69765
2.66562
2.67026
2.67171
2.63569
2.5739
2.40522
1.00521
1.01381
1.02037
1.02915
1.03454
1.04195
1.04635
1.05563
1.06956
1.10801
1.19252
1.39413
1.90799
2.79544
2.69067
2.74942
2.69048
2.68458
2.68295
2.65148
2.64252
2.63953
2.60281
2.53051
2.38242
1.00546
1.01355
1.02065
1.02885
1.03487
1.04152
1.0467
1.05442
1.07049
1.10546
1.17676
1.4015
1.93377
2.77076
2.70745
2.72587
2.68857
2.67581
2.66966
2.63648
2.61752
2.60379
2.57475
2.51603
2.39146
1.00543
1.01359
1.0206
1.0289
1.0348
1.04156
1.04653
1.05409
1.06874
1.10237
1.16724
1.38256
1.8737
2.74642
2.7165
2.7075
2.68318
2.67263
2.66352
2.63215
2.59589
2.58094
2.54626
2.50539
2.40948
1.00677
1.01226
1.0219
1.02763
1.03602
1.04041
1.04744
1.05272
1.06669
1.09581
1.17528
1.3215
1.80175
2.75579
2.73576
2.69823
2.67212
2.66356
2.6543
2.62829
2.58344
2.55552
2.53311
2.50009
2.43355
1.00547
1.01354
1.02062
1.02888
1.03478
1.04159
1.04627
1.05339
1.06412
1.09659
1.15815
1.31041
1.72985
2.67512
2.72366
2.68193
2.67732
2.66141
2.6477
2.62552
2.5789
2.54684
2.50975
2.49158
2.45711
1.00547
1.01354
1.02063
1.02888
1.03479
1.04155
1.04623
1.05306
1.06276
1.09255
1.14749
1.28316
1.66956
2.57499
2.69446
2.68894
2.67537
2.65609
2.64409
2.62563
2.58144
2.54342
2.5064
2.47516
2.45641
1.00613
1.01287
1.02129
1.02821
1.03546
1.04087
1.04679
1.052
1.0614
1.08462
1.13956
1.24367
1.61334
2.48954
2.66026
2.69399
2.67933
2.65284
2.6367
2.62306
2.58725
2.54748
2.50909
2.47221
2.45311
1.00579
1.01321
1.02097
1.02852
1.03516
1.04113
1.04647
1.05191
1.05981
1.08081
1.12487
1.22067
1.51343
2.32511
2.62625
2.69005
2.68106
2.65475
2.63502
2.62298
2.59812
2.55655
2.51677
2.47559
2.4535
1.00636
1.01267
1.0215
1.028
1.03567
1.04061
1.04697
1.05117
1.06007
1.0742
1.11146
1.20138
1.40013
2.01564
2.59706
2.68182
2.67195
2.64968
2.63065
2.62001
2.60317
2.57032
2.53423
2.48601
2.45685
1.00589
1.0131
1.02108
1.02838
1.0353
1.04091
1.04659
1.05102
1.05799
1.07088
1.1009
1.18096
1.33493
1.79275
2.62901
2.67926
2.65884
2.64281
2.62917
2.61614
2.60419
2.57692
2.55417
2.50795
2.46661
1.006
1.01303
1.02113
1.02839
1.03525
1.04103
1.04638
1.05125
1.05722
1.07063
1.09479
1.15456
1.32151
1.70364
2.5682
2.67871
2.66013
2.64583
2.62973
2.61666
2.60635
2.58348
2.56449
2.53655
2.49187
1.00621
1.01279
1.02138
1.02812
1.03554
1.04072
1.04666
1.0508
1.05667
1.06598
1.08979
1.13114
1.28809
1.58231
2.39546
2.65122
2.68171
2.66557
2.64039
2.62137
2.61158
2.59088
2.56771
2.54874
2.51787
1.00526
1.01382
1.02035
1.0292
1.03445
1.04182
1.04555
1.05173
1.05513
1.06411
1.0824
1.13089
1.2183
1.52724
2.32039
2.58861
2.68112
2.6742
2.65523
2.63027
2.61645
2.60222
2.5759
2.55481
2.53126
1.0059
1.01311
1.02106
1.02844
1.03522
1.04103
1.04633
1.05086
1.05559
1.06199
1.07939
1.11379
1.1942
1.41667
2.10535
2.55793
2.67554
2.67401
2.66352
2.64251
2.62204
2.60704