/*--------------------------------*- C++ -*----------------------------------*\
  =========                 |
  \\      /  F ield         | OpenFOAM: The Open Source CFD Toolbox
   \\    /   O peration     | Website:  https://openfoam.org
    \\  /    A nd           | Version:  6
     \\/     M anipulation  |
\*---------------------------------------------------------------------------*/
FoamFile
{
    version     2.0;
    format      ascii;
    class       volVectorField;
    location    "9";
    object      U;
}
// * * * * * * * * * * * * * * * * * * * * * * * * * * * * * * * * * * * * * //

dimensions      [0 1 -1 0 0 0 0];

internalField   nonuniform List<vector> 
26250
(
(3.01558 -2.30613e-07 -0.0579437)
(3.02581 8.92779e-07 -0.0597949)
(3.0342 -4.68879e-07 -0.0611079)
(3.04148 2.38196e-06 -0.0622846)
(3.04743 -1.59682e-06 -0.0631696)
(3.05268 4.87785e-06 -0.0640044)
(3.0558 -1.61978e-06 -0.0647874)
(3.05555 2.45205e-05 -0.0657799)
(3.04884 5.71254e-05 -0.0669396)
(3.03712 0.000124892 -0.0706765)
(2.98376 0.000241987 -0.0769592)
(2.84916 0.000513178 -0.0982878)
(2.46552 0.00112281 -0.145539)
(1.32989 0.0027385 -0.242367)
(0.602367 0.00200782 -0.275168)
(0.73779 0.0038026 -0.257302)
(0.910042 0.00785265 -0.250031)
(0.989969 0.0100632 -0.253737)
(0.98731 0.0142566 -0.25655)
(0.9271 0.0232312 -0.262883)
(0.906293 0.0213815 -0.263043)
(0.854916 0.0159015 -0.264426)
(0.734697 0.00971799 -0.267657)
(0.502899 0.00739968 -0.268536)
(0.293756 0.00258112 -0.264099)
(3.01558 4.62624e-07 -0.0579442)
(3.02581 2.50554e-06 -0.0597944)
(3.03421 -4.98448e-07 -0.0611083)
(3.04148 6.48952e-06 -0.0622842)
(3.04744 -5.20547e-06 -0.0631696)
(3.05268 1.48654e-05 -0.0640046)
(3.05581 -6.71488e-06 -0.0647847)
(3.0556 7.49197e-05 -0.0657772)
(3.04893 0.000173972 -0.0669336)
(3.03727 0.000379495 -0.0706621)
(2.98406 0.000704475 -0.0769122)
(2.84991 0.0016759 -0.0982005)
(2.46712 0.00371327 -0.145066)
(1.32972 0.0102817 -0.242206)
(0.578368 0.0209561 -0.2756)
(0.719253 0.0274266 -0.257804)
(0.897263 0.0314675 -0.250995)
(0.978168 0.0342595 -0.25422)
(0.978176 0.04025 -0.256927)
(0.941309 0.0500371 -0.260829)
(0.9067 0.0489577 -0.261876)
(0.85279 0.0413407 -0.263622)
(0.738874 0.032103 -0.266148)
(0.515826 0.0292085 -0.267895)
(0.312182 0.0183403 -0.263455)
(3.01558 6.75746e-06 -0.0579451)
(3.02581 -1.29307e-07 -0.0597934)
(3.03421 3.6666e-06 -0.061109)
(3.04148 6.93037e-08 -0.0622837)
(3.04744 -4.42283e-06 -0.0631692)
(3.05268 1.44113e-05 -0.0640054)
(3.05585 -1.28053e-05 -0.064779)
(3.0557 0.000192935 -0.0657711)
(3.04909 0.000445521 -0.0669252)
(3.03756 0.000985421 -0.0706283)
(2.98476 0.00177443 -0.0768397)
(2.85169 0.00382774 -0.0979905)
(2.47186 0.00692576 -0.144372)
(1.34329 0.0205187 -0.24121)
(0.610468 0.0449192 -0.273938)
(0.743253 0.0557683 -0.255766)
(0.913082 0.0562613 -0.248558)
(0.993531 0.0582957 -0.251942)
(0.994088 0.0614743 -0.254938)
(0.961572 0.0660697 -0.258912)
(0.919716 0.0707681 -0.259724)
(0.86256 0.0712163 -0.261322)
(0.750907 0.0679065 -0.263339)
(0.530554 0.0665998 -0.265415)
(0.327303 0.0562359 -0.261103)
(3.01558 2.77773e-05 -0.0579469)
(3.02581 -1.42132e-05 -0.059791)
(3.03421 2.23436e-05 -0.0611112)
(3.04147 -3.52738e-05 -0.0622812)
(3.04745 4.11885e-05 -0.0631706)
(3.05267 -8.08628e-05 -0.0640039)
(3.05596 0.000178224 -0.0647682)
(3.05597 9.33409e-05 -0.0657684)
(3.04957 -0.000492068 -0.0668609)
(3.03839 0.00505375 -0.0705867)
(2.98626 -0.00515697 -0.0765777)
(2.85525 0.0228918 -0.0976019)
(2.47513 -0.011655 -0.143979)
(1.38015 0.0299079 -0.239075)
(0.64478 0.0534435 -0.272973)
(0.767787 0.0696167 -0.254276)
(0.929493 0.0724175 -0.246062)
(1.0085 0.0777221 -0.24997)
(1.00816 0.0838502 -0.253088)
(0.956727 0.0951647 -0.258416)
(0.918558 0.103875 -0.258283)
(0.860017 0.109632 -0.259532)
(0.746248 0.110806 -0.261178)
(0.522778 0.110717 -0.263009)
(0.314635 0.101641 -0.258989)
(3.01557 6.98384e-06 -0.0579825)
(3.0258 7.1946e-07 -0.0597498)
(3.03419 2.05599e-06 -0.0611525)
(3.04149 -1.46021e-06 -0.0622366)
(3.0474 -6.92269e-06 -0.0632222)
(3.05279 8.94636e-06 -0.0639431)
(3.05599 -3.29272e-06 -0.0648454)
(3.05514 0.000183565 -0.0656047)
(3.05317 0.000413556 -0.0668377)
(3.03376 0.00118794 -0.0707585)
(2.99683 0.00237455 -0.0755794)
(2.84855 0.00580902 -0.0985953)
(2.44524 0.0127377 -0.137096)
(1.38864 0.036108 -0.2411)
(0.660364 0.0755021 -0.27303)
(0.779601 0.0962407 -0.253711)
(0.934717 0.103965 -0.244343)
(1.01572 0.111303 -0.248383)
(1.01578 0.121156 -0.251551)
(0.973494 0.136004 -0.25576)
(0.931121 0.147214 -0.255882)
(0.868584 0.154084 -0.256937)
(0.751088 0.158093 -0.258306)
(0.522872 0.16119 -0.259345)
(0.307367 0.152205 -0.256222)
(3.01558 1.52995e-05 -0.0579455)
(3.0258 -3.18642e-06 -0.0597918)
(3.0342 -5.1766e-06 -0.0611097)
(3.04146 2.8538e-06 -0.0622821)
(3.04746 -2.9845e-05 -0.0631677)
(3.05268 3.2076e-05 -0.0640053)
(3.0561 -8.24334e-05 -0.064749)
(3.05632 5.45262e-05 -0.0657413)
(3.0504 0.000380392 -0.0667812)
(3.04 0.000802981 -0.0704613)
(2.98978 0.00237276 -0.0760411)
(2.86448 0.00569061 -0.0966143)
(2.49351 0.0146851 -0.141016)
(1.45441 0.0436991 -0.234119)
(0.712907 0.0934731 -0.270661)
(0.815597 0.120801 -0.251532)
(0.960097 0.132261 -0.241865)
(1.03675 0.142254 -0.245634)
(1.03545 0.155355 -0.248927)
(0.996995 0.172802 -0.252737)
(0.951795 0.187494 -0.252987)
(0.886251 0.197902 -0.253631)
(0.767177 0.207431 -0.254797)
(0.534425 0.217567 -0.255197)
(0.311115 0.212065 -0.252129)
(3.01557 -1.66642e-05 -0.0580198)
(3.02578 6.8861e-06 -0.0597107)
(3.0342 -1.67957e-05 -0.0611911)
(3.04147 2.18639e-05 -0.0621963)
(3.04743 -2.06652e-05 -0.0632563)
(3.05275 4.60336e-05 -0.0639072)
(3.05601 -8.38273e-06 -0.0648655)
(3.05552 0.000154738 -0.0655577)
(3.05378 0.000356319 -0.066738)
(3.03539 0.000777195 -0.0705697)
(3.00081 0.00163963 -0.0751893)
(2.85872 0.00492832 -0.0972798)
(2.4755 0.015952 -0.134721)
(1.47179 0.0481079 -0.2367)
(0.733999 0.110869 -0.27077)
(0.83262 0.144931 -0.250776)
(0.969235 0.159654 -0.239731)
(1.04797 0.171705 -0.243393)
(1.04853 0.187151 -0.246516)
(1.0149 0.206676 -0.249736)
(0.970769 0.225183 -0.249733)
(0.905518 0.241818 -0.249841)
(0.788034 0.260099 -0.250227)
(0.552272 0.282109 -0.25029)
(0.321541 0.288716 -0.246863)
(3.01558 -6.41348e-05 -0.05794)
(3.0258 3.06971e-05 -0.0597988)
(3.03422 -3.67085e-05 -0.0611018)
(3.04146 6.72098e-05 -0.0622921)
(3.04748 -4.3179e-05 -0.0631546)
(3.05269 0.000134899 -0.06402)
(3.05619 -9.32072e-05 -0.0647162)
(3.05662 0.000416851 -0.0657181)
(3.05092 0.0013791 -0.0667272)
(3.04104 -0.00271561 -0.0702328)
(2.99327 0.00906343 -0.0756495)
(2.87554 -0.0116357 -0.0953664)
(2.5317 0.0399728 -0.13501)
(1.53627 0.0514029 -0.228654)
(0.802584 0.133273 -0.267585)
(0.877679 0.172954 -0.248824)
(0.998081 0.191412 -0.237225)
(1.07054 0.204215 -0.240673)
(1.0703 0.220722 -0.243739)
(1.03845 0.241627 -0.246551)
(0.996045 0.263279 -0.246362)
(0.932729 0.286765 -0.245845)
(0.819031 0.316309 -0.245316)
(0.583328 0.356457 -0.244123)
(0.345119 0.392994 -0.239756)
(3.01559 -1.59414e-05 -0.0579302)
(3.02581 8.82752e-06 -0.0598091)
(3.03422 -1.39536e-05 -0.0610913)
(3.04147 1.90257e-05 -0.0623035)
(3.04748 -1.51316e-05 -0.0631425)
(3.05271 3.73804e-05 -0.0640321)
(3.05624 2.41156e-05 -0.0646941)
(3.05674 0.000254318 -0.0656964)
(3.0512 0.000536606 -0.0667316)
(3.04172 0.00149196 -0.0700647)
(2.99555 0.00309896 -0.075506)
(2.88384 0.00837317 -0.0944236)
(2.5547 0.0226218 -0.132779)
(1.56784 0.0632491 -0.224903)
(0.844269 0.145861 -0.265829)
(0.900983 0.192736 -0.247267)
(1.01154 0.213499 -0.235043)
(1.08347 0.229746 -0.237984)
(1.08634 0.250018 -0.241003)
(1.05953 0.274135 -0.243182)
(1.02292 0.299821 -0.242741)
(0.966058 0.331446 -0.241617)
(0.862266 0.376154 -0.240062)
(0.637434 0.445437 -0.23738)
(0.392628 0.543327 -0.230064)
(3.01559 5.20274e-05 -0.057925)
(3.0258 -1.83268e-05 -0.0598149)
(3.03422 7.99393e-06 -0.0610848)
(3.04146 -2.5016e-05 -0.0623102)
(3.04749 -2.07091e-05 -0.0631339)
(3.05272 -1.28199e-05 -0.0640399)
(3.05637 -3.65947e-06 -0.0646662)
(3.05704 0.000183827 -0.0656695)
(3.05193 0.000128125 -0.0666385)
(3.04317 0.00540534 -0.0699173)
(2.99869 -0.00173371 -0.074936)
(2.89242 0.0293422 -0.0934306)
(2.57422 0.00356824 -0.130199)
(1.64763 0.083052 -0.218945)
(0.919902 0.164554 -0.262369)
(0.943437 0.21603 -0.245842)
(1.03693 0.234327 -0.231852)
(1.10511 0.251696 -0.234209)
(1.10887 0.275045 -0.237169)
(1.08614 0.30205 -0.238568)
(1.05654 0.33205 -0.237792)
(1.01092 0.373066 -0.235957)
(0.927804 0.439284 -0.232935)
(0.739029 0.556275 -0.228166)
(0.488751 0.791849 -0.215423)
(2.98853 -3.52273e-07 -0.0014337)
(2.98293 6.44379e-07 -0.00327785)
(2.9795 1.07325e-08 -0.0049498)
(2.97739 1.44611e-06 -0.00640825)
(2.97587 4.28451e-07 -0.00774385)
(2.97472 2.02212e-06 -0.00879658)
(2.97272 5.36565e-06 -0.00988274)
(2.96835 1.53241e-05 -0.0105241)
(2.95464 3.59661e-05 -0.0114509)
(2.92777 0.00010095 -0.0130924)
(2.84014 0.000230279 -0.0162414)
(2.61587 0.00069882 -0.023775)
(1.99818 0.00172959 -0.0416804)
(0.323697 0.00509659 -0.065268)
(-0.515948 0.00244983 -0.0633876)
(0.0277055 0.0105805 -0.0599213)
(0.437856 0.0177503 -0.0588097)
(0.531576 0.023805 -0.0610146)
(0.458763 0.0346534 -0.0626379)
(0.311382 0.0598149 -0.0622667)
(0.300476 0.0618097 -0.0641367)
(0.227657 0.0516178 -0.0643783)
(0.0655639 0.0436581 -0.0645632)
(0.0148393 0.0326906 -0.0614361)
(0.159314 0.0155971 -0.0556446)
(2.98853 2.84313e-07 -0.00143349)
(2.98293 1.70029e-06 -0.00327825)
(2.9795 1.06571e-06 -0.0049493)
(2.97739 3.46113e-06 -0.00640906)
(2.97587 1.66379e-06 -0.00774289)
(2.97472 5.207e-06 -0.00879789)
(2.97273 1.4548e-05 -0.00988181)
(2.96837 4.6601e-05 -0.010529)
(2.95471 0.000111216 -0.011456)
(2.92793 0.00032616 -0.0130844)
(2.84061 0.000684149 -0.0162509)
(2.61727 0.00217248 -0.0237168)
(2.00138 0.00513114 -0.0415418)
(0.324007 0.016582 -0.0650594)
(-0.566334 0.0326856 -0.0624345)
(0.0195474 0.0496938 -0.0599139)
(0.435309 0.0633969 -0.0587763)
(0.528728 0.0727978 -0.0609267)
(0.471235 0.0849688 -0.0624366)
(0.373681 0.115509 -0.0633784)
(0.317962 0.114075 -0.0635333)
(0.233744 0.106007 -0.0630812)
(0.0855772 0.100278 -0.0632035)
(0.011229 0.0938346 -0.0606772)
(0.172014 0.0575901 -0.0550614)
(2.98854 4.51907e-06 -0.00143348)
(2.98293 1.12826e-06 -0.00327851)
(2.9795 4.35466e-06 -0.00494892)
(2.97739 1.15339e-06 -0.00640981)
(2.97587 2.83468e-06 -0.00774149)
(2.97473 4.22369e-06 -0.00880029)
(2.97276 1.82879e-05 -0.00987835)
(2.96842 7.79882e-05 -0.0105363)
(2.95487 0.00020284 -0.0114577)
(2.92825 0.000605567 -0.0130878)
(2.84157 0.00126228 -0.0162251)
(2.61987 0.00391081 -0.0236697)
(2.00857 0.00917643 -0.0414798)
(0.345033 0.0313384 -0.0648957)
(-0.508076 0.0652456 -0.0630243)
(0.0435962 0.0868179 -0.0595094)
(0.448631 0.10434 -0.0580151)
(0.535586 0.115953 -0.0604023)
(0.47859 0.124969 -0.0620487)
(0.393207 0.130485 -0.0635475)
(0.334287 0.150466 -0.0629802)
(0.243938 0.166872 -0.061901)
(0.0999808 0.17359 -0.0615572)
(0.00880991 0.170244 -0.0593633)
(0.176983 0.120128 -0.053785)
(2.98853 1.38672e-05 -0.00143428)
(2.98293 -1.91455e-06 -0.00327742)
(2.9795 1.38338e-05 -0.00494954)
(2.97739 -8.71459e-06 -0.00640889)
(2.97587 1.53857e-05 -0.00774182)
(2.97474 -1.60218e-05 -0.00880136)
(2.97279 2.34908e-05 -0.00987603)
(2.96852 6.44718e-05 -0.0105603)
(2.95513 0.000572549 -0.0114813)
(2.92879 0.000700988 -0.0131024)
(2.84312 0.00359893 -0.0162545)
(2.62393 0.00535674 -0.0235695)
(2.02117 0.0127559 -0.0411277)
(0.372258 0.0515096 -0.0644309)
(-0.483466 0.0907265 -0.0633025)
(0.0580635 0.119823 -0.0591658)
(0.458054 0.142249 -0.0571614)
(0.536939 0.159511 -0.0597116)
(0.467912 0.174278 -0.0614648)
(0.334839 0.193822 -0.0621645)
(0.319641 0.216236 -0.0623473)
(0.240104 0.238916 -0.0610777)
(0.104756 0.251685 -0.0601365)
(0.0051119 0.248464 -0.0577708)
(0.166187 0.188815 -0.0521701)
(2.98853 4.77256e-06 -0.00143831)
(2.98293 9.99009e-07 -0.00327131)
(2.9795 3.48933e-06 -0.00495495)
(2.97739 -6.42493e-07 -0.00640034)
(2.97586 1.04574e-06 -0.00775462)
(2.97474 3.52156e-06 -0.00877961)
(2.97281 2.81788e-05 -0.0099219)
(2.96889 0.000127547 -0.01053)
(2.95544 0.000337311 -0.0113577)
(2.93048 0.0010018 -0.0137524)
(2.84587 0.00230603 -0.0148173)
(2.62607 0.00685247 -0.0260705)
(2.03519 0.0167399 -0.0364721)
(0.430674 0.0562867 -0.0651009)
(-0.45564 0.111505 -0.0634049)
(0.070912 0.151952 -0.0589925)
(0.467529 0.181619 -0.0564191)
(0.541785 0.205902 -0.0590844)
(0.472306 0.230257 -0.0607745)
(0.372083 0.258976 -0.0619941)
(0.332117 0.283902 -0.0613096)
(0.249734 0.308642 -0.0598591)
(0.120072 0.327139 -0.0585653)
(0.0076793 0.327439 -0.0559265)
(0.155487 0.261233 -0.050298)
(2.98854 4.22324e-06 -0.00143553)
(2.98292 1.27043e-06 -0.00327645)
(2.9795 -6.03834e-08 -0.00494961)
(2.97739 5.45788e-07 -0.0064086)
(2.97588 -2.80788e-06 -0.00774039)
(2.97476 7.04061e-06 -0.0088042)
(2.9729 3.6504e-05 -0.00987129)
(2.96877 0.00015149 -0.0105854)
(2.95585 0.000373255 -0.0114911)
(2.93042 0.00113433 -0.0130958)
(2.84766 0.00264393 -0.016236)
(2.63635 0.0079119 -0.0232488)
(2.05787 0.0194105 -0.0402183)
(0.453828 0.0645682 -0.0636997)
(-0.406983 0.132476 -0.0637633)
(0.0935041 0.183661 -0.0586331)
(0.478687 0.220076 -0.0556557)
(0.548509 0.250752 -0.058337)
(0.48084 0.282783 -0.0600121)
(0.387087 0.321349 -0.0613923)
(0.3439 0.349781 -0.0603381)
(0.265448 0.377753 -0.0584953)
(0.145573 0.403093 -0.056742)
(0.021529 0.410525 -0.0538391)
(0.146276 0.344865 -0.0480131)
(2.98853 -1.06061e-05 -0.00144185)
(2.98292 -9.31171e-08 -0.00326748)
(2.97949 -9.60859e-06 -0.00495498)
(2.97739 3.37041e-06 -0.00640179)
(2.97587 -2.89309e-06 -0.00774811)
(2.97477 1.37702e-05 -0.00879075)
(2.97294 5.59402e-05 -0.00989653)
(2.96917 0.000188694 -0.0105434)
(2.95625 0.00045623 -0.0113709)
(2.93242 0.00128649 -0.0136786)
(2.8512 0.00308387 -0.0147994)
(2.64122 0.00904529 -0.0257119)
(2.07812 0.0225309 -0.0355685)
(0.52669 0.0744654 -0.0649427)
(-0.363489 0.160939 -0.0635992)
(0.112573 0.21883 -0.0583409)
(0.49015 0.258522 -0.0547771)
(0.556543 0.293724 -0.0575233)
(0.492616 0.331451 -0.0591497)
(0.409169 0.376334 -0.0604077)
(0.361622 0.412343 -0.0592282)
(0.288911 0.447482 -0.0570731)
(0.181931 0.482126 -0.0548422)
(0.0481193 0.501035 -0.051416)
(0.141459 0.446776 -0.045254)
(2.98854 -3.1574e-05 -0.00143319)
(2.98293 2.93612e-06 -0.00328039)
(2.97951 -2.40129e-05 -0.0049455)
(2.97739 1.61343e-05 -0.00641551)
(2.97589 -1.27851e-05 -0.00773145)
(2.97481 4.02684e-05 -0.00881649)
(2.97305 7.23651e-05 -0.00985587)
(2.96911 0.000272184 -0.0106034)
(2.95675 0.000263041 -0.011477)
(2.93267 0.00166517 -0.0130091)
(2.85386 0.00186452 -0.0160565)
(2.65416 0.0109293 -0.0227709)
(2.10837 0.0270645 -0.0390057)
(0.571532 0.0824685 -0.0634287)
(-0.28533 0.184373 -0.0639825)
(0.142032 0.251711 -0.0581368)
(0.503519 0.295254 -0.0540418)
(0.566568 0.334351 -0.0566588)
(0.507287 0.376943 -0.0582213)
(0.433292 0.427576 -0.0591615)
(0.386737 0.472133 -0.0579204)
(0.321754 0.517642 -0.055572)
(0.229367 0.564632 -0.0528688)
(0.0912169 0.601899 -0.0488996)
(0.146421 0.575601 -0.0421057)
(2.98854 -1.57321e-05 -0.00143063)
(2.98293 6.61032e-06 -0.00328418)
(2.97951 -1.6207e-05 -0.00494317)
(2.9774 1.41446e-05 -0.00641954)
(2.97589 -1.13191e-05 -0.00772751)
(2.97484 2.66137e-05 -0.0088213)
(2.97314 9.1291e-05 -0.00985279)
(2.96932 0.000294791 -0.0106085)
(2.95735 0.000716061 -0.0114585)
(2.93407 0.00190874 -0.0129434)
(2.85793 0.00473428 -0.0159299)
(2.66595 0.0129811 -0.0224332)
(2.14002 0.0312864 -0.038421)
(0.637309 0.102304 -0.0627082)
(-0.22339 0.211283 -0.0639195)
(0.172689 0.283874 -0.0579145)
(0.517528 0.329026 -0.0533267)
(0.578468 0.371738 -0.0557527)
(0.525287 0.419025 -0.0572196)
(0.461111 0.475772 -0.05785)
(0.419485 0.528334 -0.0565597)
(0.365593 0.585043 -0.05396)
(0.291499 0.648965 -0.0508313)
(0.159523 0.717227 -0.0460522)
(0.168198 0.745504 -0.0385629)
(2.98854 1.03645e-05 -0.00143216)
(2.98292 1.65182e-05 -0.00328158)
(2.97951 -1.53622e-05 -0.0049452)
(2.9774 3.47542e-05 -0.00641581)
(2.9759 -5.66934e-05 -0.00773148)
(2.97489 8.88519e-05 -0.00881654)
(2.97328 -9.1335e-05 -0.00985568)
(2.96963 0.0004172 -0.0106187)
(2.95809 -0.000304869 -0.0114368)
(2.9361 0.00500678 -0.0129198)
(2.86265 -0.00118114 -0.0157905)
(2.67902 0.030031 -0.0220994)
(2.1729 0.0266626 -0.0373942)
(0.730065 0.133249 -0.0618667)
(-0.142755 0.246625 -0.063987)
(0.209812 0.317663 -0.0575801)
(0.534251 0.361502 -0.0526005)
(0.593822 0.405935 -0.0548773)
(0.547586 0.45667 -0.0562215)
(0.49328 0.519192 -0.0564775)
(0.459411 0.579001 -0.0551066)
(0.422024 0.646968 -0.0523666)
(0.374668 0.732695 -0.0487773)
(0.267666 0.84489 -0.0435706)
(0.220345 1.01041 -0.0351563)
(2.9951 8.63743e-07 7.02604e-07)
(2.98905 -8.12993e-08 -3.82902e-07)
(2.98253 1.2199e-06 5.59196e-07)
(2.97635 -3.20863e-07 -2.82957e-07)
(2.97071 1.03853e-06 2.15412e-07)
(2.96561 -2.1693e-07 8.05259e-08)
(2.96042 -5.15161e-07 1.07805e-06)
(2.95309 -3.33504e-06 3.53751e-06)
(2.93498 -6.20525e-07 9.31876e-06)
(2.90162 0.000104032 1.45647e-05)
(2.79888 0.000155038 4.2609e-05)
(2.53635 0.000816172 2.1252e-05)
(1.82009 0.00205752 5.15061e-05)
(-0.0318482 0.00746006 0.000155515)
(-1.07549 0.0179878 0.00031184)
(-0.163112 0.0261066 0.000176134)
(0.307151 0.0343995 -5.23158e-05)
(0.409663 0.0380413 1.1338e-05)
(0.324299 0.0382546 0.000258967)
(0.215923 0.0318958 0.00113449)
(-0.104627 0.0654212 -7.64245e-05)
(-0.108975 0.0698725 -0.000373277)
(-0.136843 0.0676861 -0.000453469)
(-0.0780822 0.0651274 -0.000467946)
(0.111115 0.0559434 -0.000619867)
(2.9951 1.61817e-06 2.11618e-06)
(2.98905 2.30741e-07 -2.51091e-06)
(2.98253 1.94139e-06 2.83397e-06)
(2.97635 3.34214e-07 -3.82621e-06)
(2.97071 1.99981e-06 4.49332e-06)
(2.96561 1.91679e-08 -6.36636e-06)
(2.96041 5.34633e-06 4.86801e-06)
(2.95309 1.19742e-05 -3.8999e-06)
(2.93506 6.15854e-05 7.90734e-05)
(2.90176 0.000272431 -6.20085e-05)
(2.79936 0.000652292 0.000369025)
(2.53801 0.0022435 -0.000235014)
(1.82707 0.00543434 -8.76442e-05)
(-0.0202387 0.0184916 0.000676293)
(-1.06307 0.0368649 0.000516671)
(-0.14779 0.0604605 -4.27633e-06)
(0.31731 0.0810088 -0.000196144)
(0.408455 0.0883153 -0.000210487)
(0.313297 0.0874053 -0.000307516)
(0.17677 0.0801947 -0.000853209)
(-0.13842 0.128634 2.27472e-05)
(-0.129703 0.143564 0.00015836)
(-0.15787 0.148586 -0.000131775)
(-0.0999415 0.149874 -0.000336291)
(0.0885325 0.131295 -0.000418758)
(2.9951 2.90822e-06 1.70922e-06)
(2.98905 1.36457e-07 -1.85338e-06)
(2.98253 2.81858e-06 1.82096e-06)
(2.97635 -9.87651e-08 -2.1677e-06)
(2.97071 1.81341e-06 1.56353e-06)
(2.96562 -4.38583e-07 -1.31116e-06)
(2.96043 7.13806e-06 5.18155e-08)
(2.95314 1.94064e-05 3.02217e-06)
(2.9352 0.000107436 9.81988e-06)
(2.90213 0.000488389 1.41001e-05)
(2.80042 0.00116568 4.92921e-05)
(2.54078 0.00405457 1.91372e-06)
(1.8323 0.00991308 3.81171e-05)
(-0.0114484 0.0342565 0.000261278)
(-1.05128 0.0608403 0.000272369)
(-0.136986 0.0973273 1.63126e-05)
(0.326415 0.129724 -0.000189309)
(0.404999 0.144675 -0.000252369)
(0.292977 0.149583 -0.000368232)
(0.143958 0.148725 -0.00078573)
(-0.14404 0.210611 7.88169e-05)
(-0.12459 0.228287 0.000265473)
(-0.159358 0.238601 7.98605e-05)
(-0.108918 0.242665 -0.000165379)
(0.0772567 0.216262 -0.000161371)
(2.9951 3.98033e-06 2.63781e-06)
(2.98905 -5.21121e-07 -3.46495e-06)
(2.98253 3.84498e-06 3.6634e-06)
(2.97635 -1.79989e-06 -5.07661e-06)
(2.97071 1.2262e-06 5.36003e-06)
(2.96562 -8.18788e-07 -7.26078e-06)
(2.96043 2.90957e-06 2.97942e-06)
(2.95318 1.39591e-05 -6.51121e-06)
(2.93545 0.000113219 6.79507e-05)
(2.90266 0.000763783 -7.28011e-05)
(2.80216 0.001572 0.000349283)
(2.54613 0.00624083 -0.000278161)
(1.84988 0.0154653 -0.000106104)
(0.0158695 0.0549426 0.000670193)
(-1.01788 0.0947049 0.000116036)
(-0.116759 0.138713 1.42266e-05)
(0.337974 0.178736 -0.000106088)
(0.403919 0.201427 -8.82094e-05)
(0.280952 0.214083 6.22979e-06)
(0.137368 0.217364 0.000407768)
(-0.133483 0.295227 5.33756e-05)
(-0.109362 0.312278 -4.53021e-05)
(-0.150722 0.326385 7.19286e-06)
(-0.111576 0.332547 -9.15805e-05)
(0.069904 0.300569 -5.06415e-05)
(2.9951 9.02169e-07 1.26096e-06)
(2.98905 -5.32033e-07 -2.01321e-06)
(2.98253 8.73859e-07 1.9692e-06)
(2.97634 -1.75827e-06 -2.67247e-06)
(2.97071 1.29065e-06 2.16669e-06)
(2.96562 -9.20037e-07 -1.67026e-06)
(2.96044 1.40548e-05 -1.72851e-06)
(2.95323 4.75198e-05 -2.35039e-07)
(2.9358 0.000203614 -4.89719e-06)
(2.90339 0.000922936 -4.25611e-08)
(2.80458 0.00206021 1.53884e-06)
(2.55362 0.00743945 -2.28825e-05)
(1.87432 0.0181821 1.56425e-05)
(0.0582685 0.063051 0.000244448)
(-0.966376 0.124088 6.27048e-05)
(-0.0935896 0.178953 -1.82985e-06)
(0.350533 0.226012 -2.66057e-05)
(0.404713 0.256155 -2.57155e-05)
(0.274109 0.277117 -3.27567e-05)
(0.144042 0.287413 -0.000122984)
(-0.111462 0.375226 -8.83592e-05)
(-0.088812 0.392813 -0.000113355)
(-0.134455 0.411834 -1.88407e-05)
(-0.109161 0.421823 -3.79021e-05)
(0.0644367 0.386841 8.89022e-06)
(2.9951 -2.68466e-06 1.16205e-06)
(2.98905 -7.57704e-07 -2.31977e-06)
(2.98253 -1.87068e-06 2.70048e-06)
(2.97635 -2.2361e-06 -3.87621e-06)
(2.97071 3.3437e-06 4.94527e-06)
(2.96563 -1.79118e-06 -6.57786e-06)
(2.96047 2.79251e-05 2.29729e-06)
(2.95333 7.75725e-05 -7.94381e-06)
(2.93618 0.000280396 5.74351e-05)
(2.90426 0.00105831 -7.71984e-05)
(2.80728 0.00247377 0.000316231)
(2.56128 0.00832659 -0.000275001)
(1.89341 0.0202089 -0.00011085)
(0.102385 0.0680953 0.000590585)
(-0.909526 0.151355 -0.000131867)
(-0.0666666 0.218528 -2.14545e-06)
(0.363755 0.271827 4.46097e-06)
(0.407979 0.308895 -5.19144e-06)
(0.273587 0.3384 -1.93513e-05)
(0.152295 0.361355 -3.2784e-05)
(-0.0713542 0.448217 -9.45886e-05)
(-0.061585 0.472995 -0.000133094)
(-0.109111 0.498888 -2.50879e-05)
(-0.100609 0.51565 -1.1405e-05)
(0.0611444 0.481935 6.57671e-05)
(2.99509 -5.19342e-06 -3.31975e-06)
(2.98905 -2.02527e-06 3.54876e-06)
(2.98253 -3.87153e-06 -2.89672e-06)
(2.97635 -3.36437e-06 4.38922e-06)
(2.97072 4.76862e-06 -3.97591e-06)
(2.96564 -1.09207e-06 6.48124e-06)
(2.9605 3.61161e-05 -2.99855e-06)
(2.95344 9.17144e-05 5.56433e-06)
(2.93662 0.000342451 -6.42555e-05)
(2.90526 0.00124561 6.35343e-05)
(2.81037 0.00300712 -0.000332718)
(2.57017 0.00972277 0.000232335)
(1.91811 0.0236023 7.25353e-05)
(0.15744 0.080087 -0.000501284)
(-0.84071 0.17972 0.00015467)
(-0.037826 0.257108 2.21754e-05)
(0.377316 0.315677 2.22671e-05)
(0.413667 0.359154 -9.82161e-06)
(0.280947 0.397017 -2.4104e-05)
(0.165622 0.435496 -4.65023e-05)
(-0.022413 0.518028 -8.84022e-05)
(-0.0263286 0.554748 -0.000110054)
(-0.0732485 0.589339 -2.10197e-05)
(-0.0835945 0.617504 1.46885e-05)
(0.0617376 0.591431 0.000106576)
(2.99509 -8.07259e-06 -9.60564e-07)
(2.98906 -9.32653e-07 8.46836e-07)
(2.98253 -6.09597e-06 -6.77849e-07)
(2.97635 -1.50974e-07 1.07216e-06)
(2.97072 4.17234e-06 -4.32816e-07)
(2.96565 3.43039e-06 7.33749e-07)
(2.96055 4.15888e-05 1.15278e-07)
(2.95359 0.000104868 -1.32361e-06)
(2.93714 0.000415353 -4.32183e-06)
(2.90653 0.00150383 -5.65779e-06)
(2.81402 0.00370772 -2.55303e-05)
(2.58023 0.0117193 3.35651e-06)
(1.94501 0.0285427 -2.38532e-05)
(0.221704 0.0962251 -0.000128811)
(-0.763661 0.210542 -9.83721e-05)
(-0.00653381 0.295822 4.5983e-05)
(0.391575 0.357707 4.12457e-05)
(0.421729 0.406791 -3.95062e-06)
(0.295959 0.452297 -1.91054e-05)
(0.186151 0.505274 -4.27159e-05)
(0.0318691 0.586 -6.76302e-05)
(0.0179783 0.636088 -8.57905e-05)
(-0.0243245 0.683722 -2.35708e-05)
(-0.0544754 0.730094 3.81757e-05)
(0.0689814 0.723445 0.000124642)
(2.99509 -1.13735e-05 6.3714e-08)
(2.98906 8.50324e-06 -1.77842e-07)
(2.98253 -1.45184e-05 8.53259e-08)
(2.97636 1.84677e-05 -1.25566e-07)
(2.97072 -1.71901e-05 2.2808e-07)
(2.96567 3.16794e-05 -1.08196e-07)
(2.96059 1.80935e-05 -1.55215e-07)
(2.95376 0.000149115 -5.94706e-07)
(2.93779 0.000600136 -1.17918e-06)
(2.90806 0.00195497 -3.40514e-06)
(2.8185 0.00481612 -5.46641e-06)
(2.59273 0.0144638 -1.1941e-05)
(1.9808 0.0344564 -1.69379e-05)
(0.297825 0.116725 -6.36736e-06)
(-0.679682 0.242118 3.87696e-05)
(0.0259753 0.333106 2.34993e-05)
(0.406212 0.397234 1.69489e-05)
(0.432178 0.451532 -1.74056e-06)
(0.317126 0.503912 -1.02995e-05)
(0.214383 0.568985 -2.74862e-05)
(0.090737 0.651253 -4.12344e-05)
(0.071614 0.715693 -6.80272e-05)
(0.0419173 0.780215 -1.72114e-05)
(-0.0013172 0.853715 6.00841e-05)
(0.0856213 0.88791 0.000125348)
(2.9951 -6.78717e-06 5.13924e-07)
(2.98905 2.17198e-05 -2.49913e-07)
(2.98254 -3.15896e-05 4.96695e-07)
(2.97635 6.0653e-05 -3.59829e-07)
(2.97073 -9.28569e-05 2.8317e-07)
(2.96568 0.000151437 -3.22765e-07)
(2.96065 -0.000218409 -3.701e-07)
(2.95408 0.000439056 -5.48383e-07)
(2.93864 -4.17283e-05 -8.49103e-07)
(2.91014 0.00538827 -2.03766e-06)
(2.82383 -0.00046854 -2.93704e-06)
(2.60779 0.0310597 -7.23103e-06)
(2.01914 0.0342257 -8.68604e-06)
(0.393366 0.148402 2.13205e-06)
(-0.586735 0.278191 8.59216e-06)
(0.0587769 0.369789 1.55112e-07)
(0.42091 0.434867 -2.4578e-06)
(0.444895 0.49298 9.84381e-06)
(0.343251 0.55097 7.38939e-06)
(0.249989 0.625671 -4.82775e-06)
(0.153967 0.711372 -1.65728e-05)
(0.137844 0.79017 -4.10155e-05)
(0.128163 0.876306 -7.63452e-06)
(0.0897343 0.986784 5.50153e-05)
(0.121599 1.14006 0.000115461)
(2.98853 6.96864e-06 0.00143467)
(2.98293 -2.77138e-06 0.0032772)
(2.9795 7.97231e-06 0.00495017)
(2.97739 -8.59195e-06 0.00640842)
(2.97587 1.21591e-05 0.00774238)
(2.97472 -1.96252e-05 0.00880054)
(2.97274 5.3909e-06 0.00987704)
(2.9684 -2.9174e-05 0.0105529)
(2.95473 0.000355008 0.0114873)
(2.928 -2.78426e-05 0.0131503)
(2.84037 0.00203233 0.0163191)
(2.6156 0.000542835 0.0238799)
(1.9988 0.00100956 0.041619)
(0.326999 0.0109515 0.0654995)
(-0.523164 0.0161823 0.0639689)
(0.0278216 0.0196426 0.0603634)
(0.440343 0.0223105 0.0586708)
(0.542441 0.0221456 0.0608981)
(0.501456 0.0151928 0.0625973)
(0.425379 -0.0149397 0.0639301)
(0.369075 -0.00973266 0.063858)
(0.295254 0.00638104 0.0633782)
(0.169156 0.024126 0.062699)
(0.0666425 0.0381299 0.0609384)
(0.21625 0.0427443 0.054193)
(2.98853 5.37707e-06 0.00143714)
(2.98293 -6.06461e-07 0.003273)
(2.9795 5.01802e-06 0.00495455)
(2.9774 -2.21323e-06 0.00640102)
(2.97586 2.78166e-06 0.00775409)
(2.97472 -9.81241e-07 0.00878045)
(2.97272 3.2643e-06 0.00991674)
(2.9687 3.2781e-05 0.0105145)
(2.9548 9.99033e-05 0.0113671)
(2.92911 0.000312908 0.013845)
(2.8415 0.00071439 0.0149104)
(2.61285 0.00207248 0.026642)
(1.99715 0.00498572 0.0376707)
(0.354102 0.0174266 0.0664184)
(-0.508733 0.0312911 0.0637377)
(0.0349699 0.0446442 0.0601364)
(0.443945 0.0558328 0.0583375)
(0.534645 0.0603546 0.0606575)
(0.464234 0.0586508 0.0625753)
(0.302156 0.0538566 0.0626662)
(0.291786 0.0661551 0.0641421)
(0.222404 0.0857837 0.0637765)
(0.0786924 0.104958 0.063011)
(0.00822777 0.113761 0.0602481)
(0.154513 0.102231 0.0540066)
(2.98853 7.03953e-06 0.00143577)
(2.98293 -1.19242e-06 0.00327555)
(2.9795 6.12173e-06 0.00495172)
(2.97739 -3.51228e-06 0.00640602)
(2.97587 2.67675e-06 0.00774442)
(2.97472 -7.84474e-07 0.00879881)
(2.97277 4.23325e-06 0.00987735)
(2.96847 4.99721e-05 0.0105642)
(2.95496 0.000114333 0.0114941)
(2.92849 0.000453426 0.0131675)
(2.84169 0.000995216 0.0163288)
(2.61894 0.00330969 0.0238028)
(2.00976 0.00844655 0.0412086)
(0.351151 0.0305833 0.0652562)
(-0.506122 0.0535277 0.0637461)
(0.0436926 0.0765838 0.0597479)
(0.449684 0.097057 0.0577198)
(0.533838 0.111454 0.0601494)
(0.461222 0.125161 0.0620343)
(0.321421 0.149697 0.0626419)
(0.297412 0.155063 0.0634219)
(0.213501 0.159778 0.0627824)
(0.0569312 0.178198 0.0620954)
(-0.00547714 0.187724 0.0589254)
(0.142688 0.157419 0.053051)
(2.98853 1.1311e-05 0.00143855)
(2.98293 -5.29217e-06 0.00327071)
(2.9795 1.10379e-05 0.00495682)
(2.97739 -1.42007e-05 0.00639747)
(2.97586 1.30155e-05 0.00775781)
(2.97472 -2.04243e-05 0.00877644)
(2.97276 1.08003e-05 0.00992007)
(2.96879 3.56915e-05 0.010519)
(2.95514 0.000462811 0.0113336)
(2.92989 0.000501359 0.0137634)
(2.84386 0.00304961 0.0147805)
(2.61973 0.00450307 0.0262667)
(2.01954 0.0113421 0.0369227)
(0.401055 0.0488978 0.0660468)
(-0.479436 0.0827653 0.0636971)
(0.0558517 0.112103 0.0594768)
(0.458475 0.138773 0.0570804)
(0.538907 0.160837 0.0596839)
(0.472409 0.18166 0.0615026)
(0.371632 0.207141 0.0628464)
(0.31782 0.221399 0.0623797)
(0.223789 0.232193 0.061192)
(0.0714961 0.250167 0.0605416)
(-0.0056711 0.259702 0.0573877)
(0.144369 0.214045 0.0516249)
(2.98853 -2.78459e-06 0.00143902)
(2.98293 -8.80789e-07 0.00326951)
(2.97949 -3.21028e-06 0.00495819)
(2.97739 -1.38348e-06 0.00639499)
(2.97586 -1.7222e-06 0.00776158)
(2.97473 4.04403e-06 0.00877195)
(2.9728 2.52509e-05 0.00992793)
(2.96886 0.000115946 0.010529)
(2.95544 0.00026903 0.0113075)
(2.93053 0.000910755 0.0136712)
(2.84593 0.00200857 0.0147226)
(2.62586 0.00660268 0.0259759)
(2.03924 0.0163918 0.0363393)
(0.442542 0.0545038 0.0655783)
(-0.442571 0.102728 0.0637955)
(0.0723512 0.143595 0.0592063)
(0.467932 0.177545 0.0565144)
(0.542246 0.205545 0.0591765)
(0.472772 0.23264 0.0608762)
(0.363013 0.264338 0.0619948)
(0.327808 0.28589 0.0613639)
(0.23733 0.304924 0.0598292)
(0.0947108 0.324496 0.0589298)
(-0.00160008 0.334757 0.0556578)
(0.14236 0.280461 0.0499207)
(2.98853 -1.97138e-05 0.0014375)
(2.98293 5.4308e-06 0.00327191)
(2.9795 -2.02107e-05 0.00495563)
(2.97739 1.63144e-05 0.00639891)
(2.97586 -1.81584e-05 0.00775661)
(2.97475 3.3888e-05 0.00877769)
(2.97286 5.44206e-05 0.00991824)
(2.969 0.000203471 0.0105156)
(2.9558 0.00011713 0.0113332)
(2.93138 0.00125597 0.013683)
(2.84834 0.000873817 0.0147456)
(2.63294 0.00824373 0.0258577)
(2.05717 0.0203182 0.0359786)
(0.481577 0.0556501 0.0653841)
(-0.415291 0.127864 0.0636553)
(0.0894038 0.178954 0.0588015)
(0.477358 0.217375 0.0557649)
(0.547363 0.249604 0.0584479)
(0.480056 0.283237 0.0600628)
(0.387282 0.323112 0.0614201)
(0.341331 0.351204 0.0603078)
(0.25688 0.376841 0.0584066)
(0.127543 0.401431 0.0570822)
(0.0122432 0.415893 0.0537213)
(0.138702 0.3597 0.047837)
(2.98853 -2.15158e-05 0.00143317)
(2.98293 4.8768e-06 0.00327926)
(2.9795 -2.15846e-05 0.00494733)
(2.97739 1.6537e-05 0.00641275)
(2.97588 -1.7183e-05 0.00773635)
(2.97478 3.75072e-05 0.00881007)
(2.97296 6.60403e-05 0.00986481)
(2.96891 0.00023906 0.0105853)
(2.95622 0.000186111 0.0114747)
(2.93136 0.00143122 0.0130166)