/*--------------------------------*- C++ -*----------------------------------*\
  =========                 |
  \\      /  F ield         | OpenFOAM: The Open Source CFD Toolbox
   \\    /   O peration     | Website:  https://openfoam.org
    \\  /    A nd           | Version:  6
     \\/     M anipulation  |
\*---------------------------------------------------------------------------*/
FoamFile
{
    version     2.0;
    format      ascii;
    class       volScalarField;
    location    "3";
    object      Ma;
}
// * * * * * * * * * * * * * * * * * * * * * * * * * * * * * * * * * * * * * //

dimensions      [0 0 0 0 0 0 0];

internalField   nonuniform List<scalar> 
26250
(
3.04655
3.07703
3.10409
3.12675
3.14766
3.16457
3.18057
3.19021
3.18985
3.17462
3.1299
2.99103
2.69577
1.96154
0.962445
0.446472
0.501367
0.58192
0.632515
0.621045
0.610511
0.576622
0.495536
0.348644
0.232974
3.04654
3.07704
3.10408
3.12676
3.14765
3.16458
3.18056
3.19025
3.18991
3.17483
3.13038
2.99225
2.69817
1.96662
0.971879
0.466205
0.517739
0.595499
0.646722
0.647886
0.629419
0.59219
0.517277
0.380229
0.271384
3.04652
3.07707
3.10405
3.12678
3.14763
3.1646
3.18056
3.19037
3.19007
3.17526
3.13148
2.99422
2.70288
1.97181
0.976511
0.454941
0.50885
0.589152
0.640284
0.641831
0.620642
0.57865
0.504665
0.368877
0.258137
3.0463
3.07729
3.10381
3.12702
3.1474
3.16484
3.18044
3.19093
3.19063
3.17629
3.13641
2.99803
2.7124
1.98667
0.991679
0.486121
0.53312
0.605027
0.652311
0.64532
0.625945
0.584286
0.507401
0.369264
0.256137
3.04569
3.07792
3.10314
3.12772
3.14663
3.16567
3.1794
3.19165
3.18883
3.18291
3.1319
3.02483
2.68865
2.03085
1.03583
0.517561
0.556536
0.623335
0.66783
0.665036
0.64451
0.602564
0.523505
0.383052
0.267802
3.04653
3.07705
3.10407
3.12676
3.14764
3.16455
3.18072
3.19052
3.19093
3.17859
3.14478
3.00836
2.73672
2.02287
1.04147
0.5369
0.568264
0.632079
0.678009
0.67689
0.657021
0.616583
0.539102
0.399761
0.285928
3.0457
3.0779
3.10316
3.12771
3.14665
3.16567
3.17945
3.19191
3.19006
3.18448
3.13662
3.03613
2.71353
2.08294
1.10365
0.584022
0.598033
0.654092
0.696184
0.696201
0.675728
0.636175
0.561128
0.425189
0.316533
3.0469
3.07667
3.10446
3.12637
3.14806
3.16418
3.18112
3.1903
3.19158
3.18046
3.14689
3.022
2.7687
2.07773
1.12541
0.613446
0.61656
0.667147
0.71097
0.713032
0.694954
0.659114
0.590693
0.463037
0.368744
3.04718
3.07638
3.10479
3.12605
3.14837
3.16389
3.18142
3.18953
3.19232
3.18155
3.14764
3.03093
2.78819
2.12132
1.19435
0.660828
0.648629
0.69239
0.732594
0.735042
0.719787
0.689664
0.63247
0.52225
0.458486
3.04834
3.0752
3.106
3.12478
3.14965
3.16258
3.18273
3.18885
3.19487
3.18444
3.15472
3.04255
2.81344
2.16367
1.24231
0.712688
0.68707
0.723923
0.758836
0.762226
0.750894
0.729669
0.691689
0.620089
0.628013
2.96753
2.95206
2.94111
2.9352
2.9297
2.92707
2.92329
2.9194
2.90397
2.87837
2.80028
2.63233
2.26017
1.46301
0.36293
0.246162
0.0501466
0.260873
0.301805
0.240155
0.229715
0.172216
0.0665845
0.0430796
0.094175
2.96753
2.95206
2.94111
2.93519
2.92971
2.92707
2.9233
2.91942
2.90404
2.87851
2.80067
2.63312
2.26181
1.46811
0.37286
0.207133
0.0678695
0.274944
0.320977
0.286872
0.249537
0.186391
0.0970008
0.072864
0.135589
2.96753
2.95206
2.94111
2.93519
2.92971
2.92707
2.92331
2.91947
2.9042
2.87888
2.80149
2.63522
2.26559
1.47459
0.376277
0.238131
0.0805593
0.281046
0.326352
0.29533
0.258456
0.204632
0.135221
0.116352
0.141737
2.96752
2.95206
2.9411
2.93519
2.9297
2.92707
2.92333
2.91956
2.90449
2.87949
2.80273
2.63869
2.27116
1.48626
0.394788
0.200245
0.109842
0.295592
0.330811
0.284003
0.266579
0.227265
0.179861
0.164364
0.162749
2.96758
2.95199
2.94116
2.93511
2.92977
2.927
2.92346
2.91981
2.90573
2.87979
2.81046
2.63384
2.28705
1.49693
0.395831
0.187711
0.134782
0.3128
0.347677
0.317038
0.29366
0.262131
0.228734
0.214191
0.197381
2.96755
2.95204
2.94112
2.93517
2.92972
2.92706
2.92342
2.9198
2.90536
2.88134
2.80688
2.65033
2.29168
1.53346
0.448882
0.173318
0.164325
0.333971
0.368013
0.344273
0.325596
0.302772
0.280333
0.267262
0.244326
2.96758
2.95198
2.94117
2.93511
2.92978
2.92701
2.92351
2.91998
2.90653
2.8821
2.8155
2.64777
2.31494
1.55382
0.471667
0.155531
0.197662
0.356955
0.391967
0.376502
0.362047
0.348713
0.336702
0.326967
0.30662
2.96758
2.95203
2.94114
2.93517
2.92974
2.92707
2.92346
2.92002
2.90627
2.88402
2.81336
2.66422
2.3278
1.59563
0.545029
0.151075
0.232618
0.382437
0.418082
0.409271
0.402814
0.398876
0.398608
0.396216
0.389471
2.96761
2.95201
2.94118
2.93516
2.92977
2.92708
2.9235
2.92014
2.90696
2.88564
2.81729
2.67458
2.34832
1.63551
0.607764
0.165893
0.27337
0.411554
0.445933
0.443669
0.446589
0.453521
0.467207
0.480974
0.505117
2.96773
2.95193
2.94126
2.93511
2.92983
2.92706
2.92358
2.92038
2.908
2.88762
2.82319
2.68495
2.37205
1.6817
0.670382
0.202132
0.319065
0.442688
0.475784
0.479551
0.49077
0.510456
0.54515
0.586284
0.692556
2.98568
2.97026
2.95101
2.93553
2.91915
2.90734
2.8939
2.88314
2.86213
2.82858
2.73848
2.54794
2.15187
1.29112
0.135552
0.538518
0.0670407
0.186804
0.234611
0.175589
0.0940451
0.0785787
0.0963544
0.0699483
0.0637119
2.98565
2.9703
2.95098
2.93556
2.91911
2.90737
2.89387
2.88318
2.86212
2.82885
2.73833
2.54986
2.15224
1.29075
0.140363
0.530855
0.0703981
0.199671
0.238173
0.167653
0.132175
0.117081
0.134588
0.115802
0.100124
2.98569
2.97026
2.95101
2.93553
2.91915
2.90734
2.8939
2.88319
2.86234
2.82899
2.73957
2.55014
2.15652
1.29899
0.150936
0.517431
0.0831403
0.217371
0.24564
0.180949
0.166333
0.157142
0.177777
0.169447
0.146998
2.98565
2.9703
2.95098
2.93556
2.91911
2.90737
2.89388
2.88327
2.8625
2.82964
2.7404
2.55424
2.16137
1.30715
0.165701
0.499819
0.104678
0.240198
0.261399
0.210631
0.203814
0.200772
0.223731
0.22335
0.198237
2.98561
2.97034
2.95094
2.9356
2.91907
2.90741
2.89387
2.88339
2.86278
2.83054
2.74187
2.55995
2.16955
1.32304
0.194622
0.469195
0.130935
0.266562
0.283163
0.246933
0.238995
0.246911
0.271775
0.278115
0.252667
2.98563
2.97032
2.95095
2.93558
2.91909
2.9074
2.8939
2.88349
2.86332
2.83145
2.74495
2.56516
2.18325
1.35134
0.230974
0.434613
0.158764
0.294718
0.31036
0.286175
0.276282
0.295546
0.322635
0.336049
0.313878
2.98558
2.97036
2.95091
2.93562
2.91905
2.90745
2.89389
2.88365
2.86388
2.83288
2.74818
2.57451
2.19984
1.38846
0.279403
0.393648
0.188747
0.324363
0.341589
0.32857
0.31993
0.34788
0.378216
0.400714
0.386635
2.98556
2.97038
2.9509
2.93565
2.91904
2.90747
2.8939
2.88382
2.86462
2.83446
2.75237
2.58451
2.22025
1.43388
0.337769
0.348331
0.221245
0.355319
0.375266
0.372537
0.370027
0.401419
0.439093
0.473387
0.475637
2.9855
2.97045
2.95084
2.93571
2.91898
2.90755
2.89388
2.88405
2.8654
2.83643
2.75665
2.59795
2.24213
1.49378
0.40772
0.295596
0.256068
0.387462
0.410457
0.416367
0.423219
0.459017
0.506595
0.557827
0.592705
2.98563
2.97032
2.95097
2.93559
2.91911
2.90745
2.89403
2.88433
2.8665
2.83832
2.76227
2.60512
2.26827
1.54472
0.475144
0.25009
0.294658
0.417946
0.444525
0.45904
0.475808
0.518592
0.580893
0.656643
0.779635
2.96752
2.95207
2.9411
2.9352
2.9297
2.92707
2.9233
2.91946
2.90408
2.87861
2.80057
2.63274
2.2597
1.45849
0.363037
0.216128
0.0541469
0.268575
0.322936
0.30395
0.269146
0.210003
0.12223
0.0565023
0.121467
2.96756
2.952
2.94115
2.93512
2.92976
2.927
2.92343
2.91967
2.90512
2.87819
2.8068
2.62406
2.26748
1.44772
0.333641
0.280075
0.0559045
0.261585
0.299745
0.230316
0.223946
0.175848
0.0959933
0.0807304
0.121463
2.96752
2.95207
2.9411
2.93519
2.9297
2.92706
2.92333
2.91953
2.90431
2.87911
2.80153
2.63557
2.26395
1.46419
0.371735
0.215298
0.0853307
0.276982
0.309157
0.254341
0.237412
0.187574
0.125037
0.125605
0.137127
2.96756
2.952
2.94114
2.93512
2.92975
2.927
2.92344
2.91972
2.90532
2.87899
2.80834
2.62872
2.2767
1.46974
0.367044
0.207568
0.105458
0.292643
0.328347
0.292929
0.261772
0.216091
0.169565
0.17092
0.166805
2.96756
2.952
2.94114
2.93512
2.92975
2.927
2.92345
2.91977
2.90551
2.87972
2.80978
2.63314
2.28551
1.48869
0.388179
0.207916
0.131448
0.308078
0.342121
0.309906
0.288534
0.253577
0.219434
0.218208
0.203315
2.96757
2.95199
2.94115
2.93512
2.92976
2.92701
2.92347
2.91986
2.90594
2.88073
2.81223
2.63941
2.29814
1.52114
0.426248
0.175365
0.163724
0.330319
0.364291
0.342243
0.321477
0.297201
0.273276
0.269702
0.25021
2.96753
2.95205
2.94111
2.93518
2.92972
2.92706
2.92343
2.91989
2.90573
2.88241
2.80963
2.65654
2.30781
1.56571
0.494254
0.158611
0.197296
0.355383
0.389315
0.373401
0.358705
0.345027
0.331616
0.328213
0.311608
2.96753
2.95205
2.94112
2.93518
2.92973
2.92708
2.92344
2.92001
2.90622
2.8839
2.81335
2.66375
2.32825
1.59739
0.54904
0.1504
0.235188
0.382997
0.416899
0.407062
0.400312
0.396349
0.394907
0.396891
0.393298
2.96764
2.95201
2.9412
2.93516
2.92978
2.92707
2.92349
2.92013
2.90693
2.88558
2.81716
2.67451
2.3481
1.63592
0.608989
0.165335
0.274685
0.41263
0.445814
0.442393
0.444786
0.451687
0.46455
0.481116
0.507805
2.96774
2.95194
2.94126
2.93511
2.92983
2.92706
2.92358
2.92038
2.90797
2.88755
2.82305
2.68473
2.37173
1.68187
0.671107
0.202516
0.320277
0.443975
0.476335
0.47913
0.489708
0.509091
0.543034
0.585555
0.694385
3.04633
3.07726
3.10384
3.127
3.14742
3.16481
3.18047
3.19088
3.19051
3.17553
3.13473
2.99281
2.70214
1.96364
0.953969
0.458832
0.512257
0.592241
0.645198
0.647539
0.631123
0.590639
0.512817
0.374173
0.264796
3.04558
3.07803
3.10303
3.12784
3.14652
3.16578
3.17925
3.19148
3.18756
3.18138
3.12791
3.01556
2.66507
1.97758
0.989752
0.454761
0.51056
0.592997
0.640243
0.62916
0.617343
0.580118
0.496968
0.352
0.242251
3.04631
3.07728
3.10382
3.12701
3.14739
3.16483
3.18037
3.1906
3.19041
3.17652
3.13981
2.99687
2.71401
1.97276
0.95666
0.464228
0.517674
0.594157
0.642037
0.63083
0.618088
0.581061
0.496675
0.348813
0.236146
3.04558
3.07803
3.10303
3.12784
3.14652
3.16576
3.17926
3.19134
3.18744
3.18045
3.12838
3.01375
2.67439
2.01191
1.01397
0.500603
0.545858
0.616873
0.661135
0.658215
0.638497
0.598826
0.516841
0.370822
0.25386
3.04562
3.07799
3.10306
3.1278
3.14656
3.16571
3.17934
3.19122
3.18763
3.17924
3.12972
3.01541
2.68479
2.04549
1.01451
0.500279
0.54681
0.617692
0.661597
0.658379
0.6405
0.601982
0.523441
0.381401
0.266206
3.04569
3.07792
3.10314
3.12772
3.14663
3.16566
3.17941
3.19151
3.18872
3.18198
3.13268
3.02487
2.69754
2.06199
1.05538
0.542115
0.572515
0.63501
0.67733
0.676316
0.655623
0.616132
0.538704
0.398778
0.285714
3.04625
3.07734
3.10376
3.12707
3.14733
3.16491
3.18034
3.1909
3.19082
3.17864
3.14266
3.01302
2.74924
2.0481
1.08255
0.568467
0.586743
0.645107
0.690166
0.691208
0.67032
0.633366
0.558828
0.424664
0.317441
3.04623
3.07737
3.10375
3.1271
3.14732
3.16495
3.18036
3.19118
3.19101
3.17959
3.14294
3.02121
2.76652
2.08396
1.13924
0.617704
0.616994
0.666309
0.70941
0.710328
0.690371
0.656322
0.587855
0.46274
0.370208
3.04752
3.07607
3.10515
3.12568
3.14874
3.16341
3.18172
3.18913
3.19205
3.18145
3.14763
3.03077
2.78814
2.12082
1.19347
0.66123
0.648944
0.692956
0.732858
0.734223
0.717166
0.68817
0.630689
0.522276
0.460039
3.04835
3.0752
3.10601
3.12478
3.14966
3.16257
3.18274
3.18874
3.19466
3.18404
3.1545
3.04224
2.81353
2.16304
1.24195
0.712389
0.687188
0.724491
0.75949
0.762392
0.749927
0.729443
0.691007
0.619596
0.628927
3.0451
3.07856
3.10254
3.1284
3.14601
3.16642
3.17893
3.1935
3.19368
3.18971
3.15195
3.069
2.79891
2.27666
1.34363
0.776237
0.733108
0.761348
0.789496
0.794327
0.788325
0.779584
0.77101
0.767799
0.824889
3.04791
3.0756
3.10553
3.12523
3.14915
3.16313
3.18224
3.19027
3.19779
3.1889
3.16404
3.06541
2.85635
2.28568
1.37514
0.84123
0.785053
0.802666
0.824126
0.832814
0.83342
0.835945
0.847001
0.87783
0.957487
3.04524
3.07837
3.10265
3.12824
3.14608
3.16635
3.17909
3.19413
3.19673
3.19401
3.16304
3.09429
2.86178
2.42253
1.52384
0.908108
0.827552
0.836783
0.852297
0.865269
0.873384
0.885246
0.907821
0.952303
1.03584
3.04751
3.07604
3.10509
3.12574
3.14863
3.16374
3.18173
3.19165
3.20026
3.19377
3.17178
3.09468
2.91492
2.45448
1.60839
1.00129
0.876853
0.870343
0.880789
0.895794
0.910538
0.928541
0.957755
1.00517
1.08404
3.04724
3.07631
3.10481
3.12601
3.14834
3.16406
3.18145
3.19244
3.20193
3.19674
3.17931
3.11486
2.9723
2.57988
1.81839
1.11371
0.924341
0.907832
0.914537
0.930986
0.949608
0.970922
1.00118
1.04809
1.11772
3.04606
3.07751
3.10352
3.12734
3.14697
3.16549
3.18009
3.1942
3.202
3.20146
3.18634
3.14506
3.01724
2.75183
2.1108
1.29661
1.00777
0.973291
0.972146
0.98495
1.0023
1.02143
1.04882
1.08976
1.15011
3.04642
3.07712
3.1039
3.12693
3.14737
3.16507
3.18052
3.19402
3.20339
3.20315
3.19342
3.16089
3.06417
2.85035
2.28857
1.47801
1.06192
1.01138
1.01673
1.0331
1.05333
1.0723
1.09727
1.13331
1.18442
3.04537
3.07819
3.10279
3.12805
3.14623
3.16623
3.1794
3.19518
3.20238
3.20509
3.19851
3.17114
3.09502
2.90226
2.44252
1.63161
1.11261
1.03217
1.03641
1.05665
1.08242
1.1068
1.13334
1.16753
1.21253
3.04518
3.07842
3.10257
3.12831
3.14598
3.1665
3.17919
3.19553
3.20287
3.20855
3.20286
3.18191
3.12217
2.95905
2.59778
1.81974
1.22987
1.07794
1.06628
1.07921
1.10276
1.13245
1.16072
1.19425
1.23548
3.04667
3.07687
3.1042
3.12661
3.14776
3.16463
3.18117
3.19361
3.20611
3.21155
3.2107
3.19487
3.15401
3.03147
2.77574
2.16751
1.42347
1.16213
1.12454
1.12303
1.13865
1.16392
1.19071
1.22132
1.25878
3.04572
3.07788
3.10318
3.1277
3.14667
3.16579
3.18005
3.19488
3.20521
3.21434
3.21131
3.20597
3.17135
3.08997
2.87705
2.3976
1.65423
1.25097
1.17377
1.16587
1.175
1.19549
1.2221
1.25027
1.2826
3.04757
3.07597
3.10517
3.12563
3.14877
3.1636
3.18224
3.19265
3.20763
3.21278
3.21693
3.2109
3.1892
3.12569
2.96662
2.59936
1.86565
1.33773
1.20761
1.19392
1.20127
1.22158
1.24993
1.27812
1.30817
3.04602
3.07758
3.10348
3.1274
3.14696
3.16551
3.18031
3.19476
3.20569
3.21607
3.21937
3.21733
3.20157
3.15386
3.04322
2.75355
2.18619
1.52441
1.28127
1.24326
1.24032
1.25355
1.27713
1.30384
1.33239
3.04621
3.07737
3.10368
3.12718
3.14717
3.1653
3.1805
3.19461
3.20595
3.21664
3.22251
3.22212
3.21225
3.18359
3.10158
2.92745
2.44288
1.73891
1.36665
1.28483
1.27573
1.28234
1.30179
1.32888
1.35652
3.04575
3.0778
3.10322
3.1276
3.14672
3.16572
3.18008
3.19502
3.20559
3.21724
3.22308
3.22458
3.21988
3.2
3.14426
3.01246
2.67245
2.02041
1.48082
1.32221
1.30129
1.3051
1.32168
1.34794
1.37664
3.04574
3.07783
3.10319
3.12766
3.14666
3.16579
3.18002
3.19508
3.20559
3.21738
3.22385
3.22789
3.22472
3.21105
3.17852
3.07798
2.8761
2.33391
1.68543
1.39863
1.34132
1.33598
1.34333
1.36452
1.39414
3.04589
3.07769
3.10336
3.12752
3.14681
3.16564
3.18021
3.19483
3.20591
3.2172
3.22508
3.23167
3.2296
3.22256
3.20052
3.13295
2.99207
2.62977
1.99237
1.51131
1.38267
1.36381
1.36654
1.3821
1.40791
3.04614
3.07745
3.10362
3.12725
3.1471
3.16537
3.18046
3.19463
3.20614
3.217
3.22558
3.23278
3.23395
3.23079
3.21732
3.17457
3.07708
2.84676
2.31939
1.70785
1.46082
1.41245
1.40357
1.40829
1.42622
3.04612
3.07746
3.10359
3.12727
3.14708
3.16538
3.18044
3.19468
3.20606
3.21718
3.22555
3.23384
3.23747
3.2369
3.22804
3.20136
3.13665
2.98155
2.59103
1.95294
1.55668
1.449
1.43248
1.43458
1.44782
3.04648
3.07709
3.10398
3.12687
3.14749
3.16496
3.18086
3.19425
3.20649
3.21677
3.22601
3.23377
3.23929
3.2391
3.23517
3.2181
3.18
3.07348
2.83908
2.29482
1.72518
1.50812
1.46705
1.46244
1.46781
3.0459
3.07766
3.10336
3.12754
3.14678
3.16568
3.18019
3.19487
3.20591
3.21738
3.22542
3.23451
3.23936
3.24277
3.24048
3.23099
3.20746
3.13806
2.98986
2.62152
2.01632
1.61829
1.5052
1.48748
1.48837
3.04603
3.07755
3.1035
3.12735
3.14699
3.16546
3.18037
3.19474
3.20604
3.21721
3.2257
3.23427
3.24042
3.2455
3.24449
3.24103
3.22613
3.1863
3.08447
2.87753
2.36062
1.81714
1.58136
1.52989
1.51976
3.04625
3.07733
3.10373
3.12712
3.14724
3.16522
3.18061
3.19449
3.20628
3.21696
3.22595
3.2341
3.24076
3.2463
3.24804
3.24622
3.23849
3.21201
3.15535
3.01168
2.65879
2.07585
1.68928
1.56869
1.54782
3.04633
3.07725
3.10381
3.12704
3.14732
3.16514
3.18069
3.19442
3.20635
3.21691
3.22599
3.23411
3.24084
3.2469
3.25035
3.25009
3.2458
3.23049
3.19701
3.10733
2.9061
2.42723
1.89157
1.64129
1.58257
3.04604
3.07754
3.10351
3.12735
3.147
3.16546
3.18036
3.19476
3.20601
3.21725
3.22568
3.23444
3.24054
3.24741
3.25092
3.25266
3.25093
3.24214
3.22442
3.16591
3.04729
2.75713
2.20385
1.77639
1.63124
3.04609
3.07749
3.10356
3.12729
3.14706
3.1654
3.18043
3.19468
3.20609
3.21716
3.22576
3.23434
3.24073
3.24727
3.25176
3.25513
3.25424
3.25024
3.24036
3.20423
3.13808
2.95706
2.56845
2.00319
1.7268
3.04627
3.07731
3.10375
3.12709
3.14726
3.16519
3.18064
3.19446
3.20631
3.21694
3.22597
3.23411
3.24096
3.24711
3.25217
3.25623
3.25739
3.25594
3.25013
3.23054
3.18902
3.08369
2.83703
2.33595
1.87094
3.04634
3.07723
3.10383
3.12702
3.14734
3.16511
3.18072
3.19439
3.20638
3.21687
3.22604
3.23406
3.241
3.24711
3.25224
3.25673
3.25932
3.25902
3.25609
3.24393
3.22327
3.14805
3.02564
2.65268
2.15907
3.04616
3.07742
3.10364
3.12722
3.14714
3.16532
3.18051
3.1946
3.20617
3.21709
3.22583
3.23428
3.24079
3.24733
3.25208
3.25706
3.25997
3.26146
3.26027
3.25478
3.24342
3.20466
3.13133
2.93534
2.55268
3.04617
3.0774
3.10365
3.1272
3.14715
3.1653
3.18053
3.19458
3.20619
3.21707
3.22585
3.23425
3.24083
3.24728
3.25218
3.25703
3.26056
3.26335
3.26282
3.26075
3.25428
3.23256
3.19009
3.07716
2.82266
3.04631
3.07726
3.10381
3.12704
3.14732
3.16513
3.1807
3.19441
3.20636
3.21689
3.22603
3.23406
3.24101
3.2471
3.25234
3.25692
3.26078
3.26391
3.26521
3.26444
3.26111
3.24921
3.22609
3.1591
3.02337
3.04641
3.07714
3.10392
3.12691
3.14745
3.16499
3.18083
3.19426
3.2065
3.21674
3.22616
3.23393
3.24113
3.24698
3.25244
3.25684
3.2609
3.26413
3.26651
3.26643
3.26521
3.25909
3.24791
3.20811
3.13713
3.04618
3.07739
3.10367
3.12719
3.14717
3.16529
3.18054
3.19457
3.2062
3.21705
3.22587
3.23423
3.24084
3.24728
3.25217
3.25711
3.26069
3.26442
3.26681
3.26847
3.2679
3.26525
3.25912
3.2379
3.1975
3.04633
3.07724
3.10382
3.12702
3.14734
3.16511
3.18072
3.19438
3.20639
3.21686
3.22605
3.23404
3.24103
3.24708
3.25237
3.25691
3.2609
3.26425
3.2672
3.26925
3.26981
3.26874
3.26569
3.25391
3.23319
3.04635
3.07723
3.10384
3.12701
3.14735
3.1651
3.18073
3.19438
3.20639
3.21686
3.22606
3.23404
3.24104
3.24708
3.25237
3.25692
3.26088
3.26431
3.2672
3.2697
3.27115
3.27103
3.26951
3.26355
3.25241
3.04624
3.07733
3.10372
3.12713
3.14723
3.16523
3.1806
3.1945
3.20627
3.21699
3.22593
3.23417
3.2409
3.24721
3.25223
3.25705
3.26075
3.26444
3.26711
3.26989
3.27151
3.27232
3.2717
3.26866
3.26284
3.04626
3.07732
3.10374
3.12711
3.14725
3.1652
3.18062
3.19448
3.20629
3.21697
3.22595
3.23415
3.24093
3.2472
3.25227
3.25703
3.26079
3.26441
3.26716
3.26987
3.27176
3.27308
3.27274
3.27082
3.26695
3.04628
3.0773
3.10375
3.1271
3.14724
3.16521
3.18062
3.19449
3.20628
3.21697
3.22595
3.23415
3.24093
3.2472
3.25226
3.25704
3.26078
3.26441
3.26717
3.26988
3.27185
3.2735
3.27318
3.27195
3.2683
3.04631
3.07725
3.1038
3.12703
3.14732
3.16513
3.18069
3.19442
3.20634
3.21693
3.22598
3.23414
3.24094
3.24719
3.25227
3.25702
3.2608
3.26439
3.26719
3.26987
3.27188
3.27354
3.27336
3.27213
3.26877
3.04632
3.07725
3.10381
3.12703
3.14732
3.16512
3.1807
3.1944
3.20636
3.2169
3.22602
3.2341
3.24097
3.24717
3.25228
3.25702
3.2608
3.26439
3.26719
3.26987
3.27189
3.27355
3.27337
3.27212
3.2687
2.96808
2.95149
2.94167
2.93461
2.93031
2.92649
2.92423
2.91999
2.91205
2.88459
2.83444
2.70092
2.37866
1.75452
0.691329
0.247655
0.360258
0.465412
0.502358
0.514722
0.535552
0.570422
0.628762
0.711242
0.884353
2.96826
2.9514
2.94178
2.93457
2.93038
2.92648
2.92433
2.92031
2.91305
2.8894
2.83889
2.72113
2.40248
1.82634
0.781934
0.316572
0.399209
0.478508
0.523782
0.546721
0.579588
0.629045
0.702901
0.808447
0.978256
2.96788
2.95167
2.94147
2.93479
2.93012
2.92669
2.92425
2.92102
2.91424
2.89091
2.84728
2.7326
2.44311
1.89247
0.877943
0.402834
0.43111
0.489329
0.541227
0.575655
0.618858
0.678503
0.76006
0.8672
1.01013
2.96753
2.95209
2.94109
2.93523
2.92971
2.92715
2.92389
2.92169
2.91527
2.89706
2.85424
2.75961
2.48772
1.98816
1.03983
0.507011
0.460323
0.50518
0.557831
0.600469
0.652075
0.715899
0.798586
0.899332
1.02361
2.96787
2.95177
2.9414
2.93494
2.92997
2.92695
2.924
2.92171
2.91456
2.90159
2.86263
2.77069
2.56547
2.04964
1.1913
0.61611
0.490822
0.523883
0.574777
0.622799
0.678514
0.744856
0.825811
0.918624
1.02957
2.96812
2.95147
2.94166
2.93464
2.93027
2.92661
2.92446
2.92165
2.91753
2.9021
2.87486
2.79691
2.60974
2.22756
1.38517
0.742683
0.531194
0.554018
0.600437
0.648797
0.702357
0.765819
0.845467
0.931795
1.03131
2.96834
2.95127
2.94186
2.93445
2.93045
2.92645
2.92466
2.92171
2.91862
2.90587
2.88469
2.82005
2.67607
2.36611
1.67134
0.897548
0.609556
0.612654
0.643299
0.686446
0.73184
0.787713
0.859861
0.942152
1.03187
2.96782
2.95174
2.94137
2.93489
2.92998
2.9269
2.92419
2.92237
2.91868
2.91173
2.88939
2.84238
2.72889
2.45063
1.87541
1.02516
0.667637
0.661999
0.688154
0.725008
0.764511
0.811666
0.874205
0.948884
1.03139
2.96782
2.95174
2.94138
2.93488
2.92999
2.9269
2.92424
2.92259
2.91979
2.91431
2.8964
2.85821
2.7678
2.52468
2.06674
1.19841
0.756218
0.701601
0.724684
0.755107
0.793255
0.836845
0.890507
0.956551
1.03118
2.96821
2.95142
2.94174
2.93459
2.93033
2.92662
2.9246
2.92242
2.92069
2.91618
2.90015
2.87349
2.79453
2.61174
2.23488
1.42743
0.88403
0.74069
0.753256
0.778817
0.817201
0.858541
0.906489
0.964845
1.03164
2.96805
2.95154
2.94162
2.93468
2.93024
2.92668
2.92457
2.92241
2.92086
2.91643
2.90811
2.88129
2.82795
2.68948
2.37703
1.72096
1.03577
0.806673
0.794154
0.811649
0.844001
0.882779
0.925819
0.976458
1.03513
2.96814
2.95151
2.94167
2.93469
2.93027
2.9267
2.92459
2.92251
2.92111
2.91795
2.91186
2.89146
2.85268
2.74819
2.51613
1.99083
1.2287
0.883757
0.836148
0.8468
0.87078
0.90616
0.945286
0.989808
1.04167
2.96777
2.95182
2.94133
2.93497
2.92995
2.92698
2.92428
2.92285
2.92096
2.91941
2.91334
2.90208
2.87
2.79213
2.62259
2.19184
1.44065
0.983611
0.879525
0.881108
0.899171
0.92994
0.965469
1.00521
1.05059
2.96786
2.95173
2.94141
2.93489
2.93002
2.92691
2.92436
2.92278
2.92124
2.9198
2.91672
2.90563
2.88521
2.82843
2.6902
2.40443
1.75825
1.1495
0.943746
0.921509
0.930676
0.954597
0.986547
1.02201
1.06211
2.96804
2.95154
2.94159
2.93469
2.9302
2.92672
2.92453
2.92262
2.92144
2.91995
2.91795
2.90966
2.89617
2.85258
2.76356
2.55549
2.07075
1.3651
1.03001
0.967601
0.967405
0.983264
1.01071
1.04071
1.0754
2.96814
2.95145
2.94168
2.9346
2.9303
2.92662
2.92464
2.92252
2.92156
2.91996
2.91854
2.91289
2.9036
2.87124
2.81158
2.65771
2.29383
1.63176
1.14229
1.01221
1.00116
1.01009
1.0329
1.06253
1.09365
2.96806
2.95153
2.94161
2.93468
2.93023
2.92669
2.92458
2.92258
2.92153
2.92012
2.91905
2.9155
2.90907
2.88693
2.84787
2.73482
2.50719
1.96345
1.33124
1.09016
1.04645
1.04394
1.05756
1.08231
1.11129
2.96787
2.95173
2.94143
2.93488
2.93004
2.92689
2.92437
2.9228
2.92133
2.92043
2.91923
2.91772
2.91153
2.90093
2.86874
2.79731
2.63763
2.23854
1.56666
1.17673
1.08763
1.07887
1.08511
1.10392
1.13027
2.96787
2.95172
2.94143
2.93487
2.93005
2.92689
2.92438
2.92279
2.92135
2.92043
2.91947
2.91843
2.91548
2.9051
2.88801
2.83593
2.72334
2.47524
1.9087
1.3526
1.15127
1.11772
1.1171
1.12999
1.15196
2.96787
2.95174
2.94142
2.9349
2.93002
2.92692
2.92436
2.92283
2.92132
2.92049
2.91946
2.91878
2.91699
2.91008
2.89931
2.86409
2.79241
2.62877
2.21679
1.59114
1.2412
1.15785
1.14857
1.15369
1.17103
2.968
2.95158
2.94156
2.93474
2.93017
2.92675
2.92451
2.92266
2.92148
2.92033
2.91964
2.91872
2.91765
2.91343
2.90644
2.88212
2.83908
2.72101
2.46399
1.91547
1.39256
1.21521
1.18374
1.18179
1.19308
2.96804
2.95155
2.94159
2.9347
2.93021
2.92672
2.92455
2.92263
2.92152
2.9203
2.91969
2.91876
2.91809
2.91574
2.91128
2.89617
2.86926
2.79221
2.6333
2.25417
1.64425
1.31105
1.22347
1.21164
1.21511
2.96804
2.95157
2.94158
2.93472
2.93019
2.92674
2.92453
2.92265
2.9215
2.92033
2.91968
2.91884
2.91837
2.9171
2.91432
2.90433
2.88821
2.83795
2.73756
2.50174
1.9832
1.48499
1.28943
1.24922
1.24435
2.9679
2.95171
2.94145
2.93486
2.93006
2.92688
2.92439
2.92279
2.92136
2.92047
2.91954
2.919
2.91833
2.91775
2.91611
2.90998
2.90017
2.86938
2.80457
2.65916
2.29219
1.72234
1.38697
1.28971
1.27423
2.96792
2.95167
2.94147
2.93482
2.93009
2.92684
2.92443
2.92275
2.92139
2.92043
2.91958
2.91897
2.91838
2.91789
2.91697
2.91342
2.90749
2.88744
2.85198
2.7531
2.54878
2.07009
1.56736
1.35848
1.31281
2.96799
2.95161
2.94154
2.93476
2.93015
2.92678
2.92449
2.92269
2.92146
2.92037
2.91964
2.91892
2.91845
2.91794
2.91743
2.91596
2.91088
2.90203
2.87571
2.81954
2.68927
2.37957
1.82231
1.46904
1.35564
2.96801
2.95159
2.94156
2.93474
2.93017
2.92676
2.92451
2.92268
2.92147
2.92036
2.91966
2.91891
2.91849
2.91791
2.91762
2.9167
2.91456
2.90746
2.89506
2.8588
2.78247
2.6058
2.21812
1.67087
1.42944
2.9679
2.9517
2.94145
2.93486
2.93006
2.92688
2.9244
2.92279
2.92136
2.92047
2.91954
2.91902
2.91837
2.91805
2.91751
2.91713
2.9156
2.91263
2.903
2.885
2.83522
2.72799
2.47992
1.98831
1.57156
2.9679
2.95169
2.94146
2.93484
2.93007
2.92686
2.92441
2.92278
2.92137
2.92046
2.91956
2.91901
2.91838
2.91805
2.91756
2.91731
2.91657
2.91489
2.9089
2.8993
2.86891
2.80923
2.66867
2.32979
1.80642
2.96801
2.95159
2.94155
2.93475
2.93017
2.92677
2.92451
2.92268
2.92147
2.92036
2.91966
2.91891
2.91849
2.91794
2.91769
2.91723
2.91692
2.91574
2.91349
2.90559
2.89247
2.85346
2.77109
2.59129
2.16868
2.968
2.95161
2.94154
2.93476
2.93015
2.92678
2.92449
2.9227
2.92145
2.92038
2.91964
2.91893
2.91846
2.91797
2.91767
2.91729
2.91708
2.91658
2.91521
2.91062
2.9032
2.8794
2.83448
2.72312
2.46082
2.96792
2.95168
2.94147
2.93483
2.93008
2.92685
2.92442
2.92277
2.92138
2.92045
2.91957
2.919
2.91839
2.91804
2.91759
2.91737
2.917
2.91678
2.91594
2.91423
2.90851
2.89844
2.86935
2.80805
2.66864
2.96797
2.95163
2.94152
2.93478
2.93013
2.9268
2.92447
2.92272
2.92143
2.9204
2.91962
2.91895
2.91844
2.91799
2.91765
2.91732
2.91708
2.9168
2.91648
2.91524
2.91302
2.90538
2.89261
2.85484
2.77639
2.968
2.9516
2.94155
2.93476
2.93016
2.92678
2.92449
2.9227
2.92146
2.92038
2.91964
2.91893
2.91847
2.91796
2.91767
2.9173
2.91712
2.91681
2.91664
2.91606
2.91484
2.9104
2.90357
2.88111
2.83951
2.96796
2.95164
2.94151
2.9348
2.93012
2.92682
2.92446
2.92273
2.92142
2.92041
2.9196
2.91896
2.91843
2.918
2.91764
2.91734
2.91708
2.91686
2.91667
2.91644
2.91577
2.91345
2.90959
2.89712
2.87527
2.96795
2.95165
2.9415
2.9348
2.93011
2.92682
2.92445
2.92274
2.92141
2.92042
2.9196
2.91897
2.91842
2.91801
2.91763
2.91735
2.91707
2.91688
2.91667
2.9165
2.91618
2.91495
2.91283
2.90569
2.8938
2.96797
2.95163
2.94151
2.93479
2.93013
2.92681
2.92446
2.92273
2.92142
2.92041
2.91961
2.91896
2.91844
2.918
2.91764
2.91733
2.91708
2.91687
2.91668
2.91653
2.91634
2.91579
2.91397
2.91069
2.90061
2.96799
2.95161
2.94153
2.93477
2.93015
2.92679
2.92448
2.92271
2.92144
2.92039
2.91963
2.91894
2.91846
2.91797
2.91766
2.91731
2.91711
2.91684
2.91671
2.91649
2.91637
2.9159
2.91494
2.91143
2.90566
2.96797
2.95163
2.94152
2.93479
2.93013
2.9268
2.92446
2.92272
2.92143
2.9204
2.91961
2.91895
2.91844
2.91799
2.91765
2.91732
2.91709
2.91686
2.9167
2.91652
2.91638
2.91609
2.91483
2.91274
2.90542
2.96796
2.95164
2.94151
2.93479
2.93012
2.92681
2.92446
2.92272
2.92142
2.9204
2.91961
2.91895
2.91844
2.91799
2.91764
2.91733
2.91709
2.91685
2.9167
2.91651
2.91638
2.91611
2.91492
2.91293
2.90593
2.98632
2.96964
2.95163
2.9349
2.91981
2.9067
2.89496
2.88369
2.8693
2.83527
2.77335
2.62241
2.26808
1.60017
0.503516
0.232748
0.333066
0.444573
0.47525
0.498426
0.527293
0.580194
0.660295
0.766865
0.963819
2.98635
2.96961
2.95167
2.93486
2.91985
2.90667
2.89503
2.88385
2.87
2.83772
2.78026
2.63702
2.30448
1.6674
0.586997
0.248115
0.368056
0.463011
0.500734
0.533106
0.575215
0.639188
0.731633
0.855308
1.04592
2.98612
2.96984
2.95143
2.93512
2.91957
2.90703
2.89464
2.88482
2.87073
2.84686
2.78339
2.65267
2.37152
1.71808
0.726972
0.296729
0.395798
0.470949
0.521324
0.564625
0.619303
0.69115
0.786948
0.907681
1.06206
2.98721
2.96875
2.9525
2.93407
2.92062
2.90603
2.89571
2.88399
2.87268
2.85003
2.79375
2.67466
2.42203
1.80959
0.849897
0.373866
0.408027
0.475775
0.538562
0.591563
0.655134
0.730529
0.823838
0.935022
1.0662
2.98581
2.97014
2.95116
2.93536
2.91938
2.90717
2.89473
2.88483
2.87285
2.85143
2.80627
2.7092
2.44755
1.96625
0.988455
0.465895
0.408853
0.477004
0.553014
0.614429
0.683396
0.760053
0.849403
0.949391
1.0638
2.9868
2.96917
2.9521
2.93443
2.92029
2.90629
2.89562
2.88415
2.87374
2.85223
2.81718
2.72244
2.51279
2.08457
1.16185
0.577776
0.420849
0.481653
0.566366
0.632452
0.703387
0.780553
0.866953
0.958806
1.05975
2.98698
2.96899
2.95227
2.93427
2.92045
2.90614
2.89581
2.88421
2.87495
2.85682
2.82784
2.74906
2.58093
2.22745
1.42784
0.702858
0.461543
0.50958
0.587426
0.651424
0.720378
0.795647
0.879291
0.964723
1.05627
2.98703
2.96892
2.95233
2.9342
2.92051
2.90608
2.89591
2.88431
2.87604
2.86106
2.83691
2.77263
2.63868
2.34704
1.7025
0.836637
0.518557
0.558013
0.615466
0.672651
0.73593
0.806902
0.887438
0.969173
1.0524
2.9862
2.96976
2.95152
2.935
2.91973
2.90685
2.89518
2.88519
2.87607
2.86484
2.84457
2.79188
2.6816
2.44364
1.86904
0.986276
0.600471
0.601184
0.641019
0.694194
0.751296
0.816002
0.891489
0.970371
1.04898
2.98639
2.96958
2.95169
2.93486
2.91986
2.90678
2.89523
2.88535
2.87604
2.86612
2.84573
2.80998
2.7175
2.50249
2.07359
1.17709
0.713854
0.622855
0.658945
0.708622
0.76464
0.824341
0.893809
0.968437
1.04374
2.9862
2.96976
2.95152
2.93503
2.91969
2.90694
2.89508
2.88555
2.87613
2.86765
2.85182
2.82298
2.75296
2.58426
2.25317
1.49122
0.848402
0.658275
0.684757
0.725154
0.777126
0.832373
0.895589
0.965565
1.03707
2.98658
2.96939
2.95189
2.93467
2.92007
2.90658
2.89548
2.88519
2.87684
2.86799
2.85713
2.82958
2.78285
2.65569
2.39424
1.79603
1.00137
0.723067
0.718856
0.74794
0.794228
0.843452
0.899233
0.96276
1.03033
2.98592
2.97004
2.95125
2.93529
2.91946
2.90717
2.89491
2.88576
2.87645
2.86912
2.85954
2.84079
2.80203
2.71512
2.48863
2.05309
1.20553
0.812515
0.749315
0.771658
0.809345
0.855734
0.905023
0.961349
1.02323
2.98707
2.96886
2.9524
2.93414
2.92058
2.90605
2.896
2.88472
2.87752
2.86867
2.8618
2.84843
2.81659
2.74845
2.59848
2.2293
1.50169
0.943976
0.791736
0.799479
0.8263
0.868445
0.913796
0.963036
1.01828
2.98624
2.96972
2.95155
2.93499
2.91973
2.90689
2.89517
2.88555
2.87677