/*--------------------------------*- C++ -*----------------------------------*\
  =========                 |
  \\      /  F ield         | OpenFOAM: The Open Source CFD Toolbox
   \\    /   O peration     | Website:  https://openfoam.org
    \\  /    A nd           | Version:  6
     \\/     M anipulation  |
\*---------------------------------------------------------------------------*/
FoamFile
{
    version     2.0;
    format      ascii;
    class       volScalarField;
    location    "3";
    object      p;
}
// * * * * * * * * * * * * * * * * * * * * * * * * * * * * * * * * * * * * * //

dimensions      [1 -1 -2 0 0 0 0];

internalField   nonuniform List<scalar> 
26250
(
0.957644
0.911023
0.875225
0.843935
0.820504
0.796952
0.782984
0.763483
0.763563
0.772686
0.781521
0.902444
1.02179
1.86464
3.46577
8.14765
7.91857
7.30814
6.79184
6.7412
6.76066
6.85598
7.10853
7.64379
8.41
0.957644
0.91102
0.875226
0.84393
0.820511
0.796944
0.782996
0.763456
0.763531
0.772528
0.78131
0.901531
1.02008
1.85849
3.44826
8.09905
7.89398
7.31087
6.77663
6.71705
6.75813
6.87925
7.14335
7.65735
8.44347
0.957634
0.911025
0.875225
0.843928
0.820525
0.79692
0.783031
0.763361
0.763419
0.772138
0.780748
0.899868
1.01687
1.85019
3.42472
8.0601
7.84522
7.26452
6.74519
6.69333
6.74399
6.88104
7.16361
7.6591
8.44787
0.957584
0.911092
0.875181
0.843989
0.820479
0.796957
0.783012
0.763094
0.763007
0.770831
0.778973
0.895612
1.00978
1.8341
3.3881
7.94731
7.76585
7.23679
6.73131
6.68678
6.72737
6.85913
7.14718
7.65133
8.44565
0.957499
0.911222
0.875063
0.844173
0.820224
0.797395
0.782286
0.764596
0.761622
0.764437
0.800225
0.834
1.12385
1.60617
3.45895
7.77737
7.65729
7.17333
6.69193
6.64493
6.68646
6.81774
7.10958
7.62607
8.43893
0.957576
0.911105
0.875153
0.844049
0.820404
0.797068
0.782882
0.763216
0.762898
0.768605
0.77568
0.88637
0.992621
1.79045
3.26912
7.65344
7.52812
7.10693
6.62599
6.57678
6.62056
6.75437
7.04923
7.57106
8.41275
0.957509
0.911223
0.875057
0.844188
0.820188
0.797443
0.782171
0.764654
0.760872
0.763467
0.796725
0.827847
1.10286
1.55284
3.3058
7.40623
7.35613
7.00163
6.54634
6.49378
6.53835
6.67043
6.95942
7.47238
8.34344
0.95767
0.911001
0.875225
0.843944
0.820485
0.796953
0.782969
0.763119
0.762759
0.76772
0.774567
0.877458
0.972834
1.72494
3.05894
7.20278
7.16092
6.90645
6.45518
6.39536
6.43657
6.5581
6.82561
7.30665
8.18777
0.957745
0.910909
0.875258
0.843891
0.820498
0.796938
0.782982
0.763258
0.763356
0.767196
0.773481
0.871718
0.962812
1.6695
2.9239
6.89049
6.99045
6.77409
6.34998
6.28115
6.31436
6.41401
6.6362
7.03991
7.85656
0.957801
0.910854
0.875234
0.843993
0.820267
0.797362
0.782194
0.7644
0.760475
0.764656
0.770599
0.862256
0.944
1.62561
2.7906
6.5441
6.80477
6.62174
6.24871
6.15733
6.1758
6.23734
6.37741
6.62159
7.14819
1.03457
1.06943
1.0934
1.10979
1.12291
1.13218
1.14049
1.14807
1.16094
1.19985
1.25592
1.49096
1.88474
3.38208
7.37205
17.2562
15.5701
13.9229
13.435
13.6186
13.6058
13.755
14.1333
14.6338
15.0814
1.03457
1.06942
1.09341
1.10978
1.12291
1.13217
1.1405
1.14806
1.16089
1.19969
1.25552
1.49001
1.88202
3.3746
7.34733
17.1255
15.5336
13.875
13.3667
13.4531
13.5996
13.7881
14.1304
14.5831
15.0496
1.03456
1.06943
1.09341
1.10978
1.12292
1.13217
1.1405
1.14801
1.16076
1.19926
1.2548
1.48729
1.87696
3.35781
7.30149
17.0896
15.4093
13.761
13.2787
13.3725
13.5524
13.7413
14.0655
14.4609
14.9511
1.03454
1.06945
1.09339
1.10981
1.1229
1.13218
1.1405
1.14792
1.16051
1.19851
1.25368
1.48263
1.86917
3.33074
7.22764
16.8349
15.255
13.6282
13.207
13.374
13.4449
13.6069
13.9151
14.2679
14.7747
1.03449
1.06951
1.09333
1.10989
1.12281
1.1323
1.14033
1.14786
1.15948
1.19866
1.24377
1.48641
1.83712
3.30137
7.15343
16.5325
15.0489
13.4552
13.0569
13.1915
13.2895
13.4276
13.7049
14.0164
14.5353
1.03452
1.06948
1.09336
1.10984
1.12288
1.13219
1.14049
1.14768
1.15989
1.19634
1.25027
1.46811
1.84176
3.2371
6.95896
16.2579
14.8051
13.2426
12.8648
12.9937
13.0938
13.2073
13.4433
13.7021
14.2189
1.0345
1.06952
1.09332
1.10991
1.12278
1.13233
1.14026
1.14781
1.15893
1.19614
1.23915
1.47039
1.7954
3.20029
6.77791
15.7919
14.5087
13.0033
12.6347
12.7377
12.8554
12.9358
13.1142
13.3021
13.7905
1.03457
1.06943
1.0934
1.1098
1.12289
1.13216
1.14044
1.14762
1.1592
1.19383
1.2425
1.45443
1.77785
3.14005
6.47468
15.3467
14.1806
12.7387
12.3777
12.4634
12.5661
12.6052
12.7079
12.7944
13.2005
1.0346
1.0694
1.09341
1.10977
1.1229
1.13215
1.14041
1.14758
1.15878
1.19214
1.23879
1.44307
1.7455
3.07058
6.17694
14.7593
13.8081
12.4413
12.0955
12.161
12.2224
12.2074
12.2016
12.1331
12.3457
1.03461
1.06939
1.09342
1.10977
1.12289
1.13217
1.14033
1.14751
1.15804
1.18987
1.23304
1.43023
1.70982
2.98593
5.88409
14.0778
13.3661
12.1226
11.7989
11.836
11.8337
11.7562
11.59
11.241
11.0245
1.00893
1.03177
1.0593
1.0875
1.11321
1.13835
1.15841
1.18243
1.20177
1.25246
1.32574
1.60905
2.0835
3.84525
8.69842
20.119
17.8274
15.9326
15.434
15.59
15.7368
15.8637
16.2147
16.6048
16.9188
1.00893
1.03178
1.05929
1.0875
1.11321
1.13834
1.15844
1.18236
1.20181
1.25196
1.32653
1.60626
2.0853
3.83956
8.68762
20.0339
17.7594
15.8739
15.4124
15.5928
15.734
15.8213
16.1517
16.5084
16.8295
1.00893
1.03178
1.05929
1.0875
1.11321
1.13835
1.15841
1.18239
1.20161
1.25199
1.32462
1.60602
2.07624
3.8241
8.62917
19.9077
17.6238
15.7428
15.3359
15.5671
15.6806
15.7075
15.9935
16.2879
16.6141
1.00892
1.03178
1.05929
1.0875
1.11321
1.13834
1.15843
1.18232
1.20153
1.25105
1.32447
1.60031
2.07128
3.79746
8.55156
19.7386
17.4308
15.5568
15.1982
15.4664
15.5534
15.5292
15.7593
15.982
16.3035
1.00891
1.03179
1.05928
1.08751
1.11322
1.13833
1.15845
1.18222
1.20137
1.24981
1.32373
1.59255
2.06154
3.75625
8.42177
19.4103
17.1783
15.3328
15.0153
15.3132
15.3695
15.3028
15.4643
15.6077
15.9158
1.00892
1.03178
1.05929
1.0875
1.11322
1.13833
1.15842
1.1822
1.20095
1.2489
1.3203
1.58585
2.03946
3.69518
8.22091
19.0224
16.8897
15.0722
14.7834
15.0867
15.1387
15.0308
15.1103
15.16
15.4356
1.00893
1.03177
1.0593
1.08749
1.11322
1.13832
1.15839
1.18212
1.20061
1.24708
1.31786
1.57366
2.01683
3.61525
7.96077
18.5693
16.5599
14.7771
14.507
14.7967
14.8459
14.6962
14.6792
14.6141
14.8248
1.00895
1.03175
1.05932
1.08747
1.11322
1.13832
1.15835
1.18207
1.20012
1.24523
1.31401
1.56086
1.98685
3.52163
7.65019
18.0135
16.181
14.4487
14.1904
14.439
14.4792
14.2965
14.1704
13.9547
14.0446
1.00897
1.03172
1.05934
1.08744
1.11323
1.13829
1.15834
1.18195
1.19967
1.2426
1.31118
1.54361
1.95748
3.41339
7.3148
17.3583
15.7507
14.0877
13.8411
14.0399
14.0453
13.8177
13.5584
13.1375
12.9914
1.00897
1.0317
1.05939
1.08735
1.11337
1.1381
1.15851
1.18166
1.19854
1.24135
1.3022
1.53645
1.90184
3.33627
6.96213
16.582
15.2398
13.7098
13.4727
13.614
13.5687
13.2682
12.8342
12.1321
11.52
1.03453
1.06945
1.09338
1.10981
1.12289
1.13219
1.14049
1.14802
1.16078
1.19952
1.25539
1.48983
1.88416
3.38199
7.38246
17.1702
15.5737
13.906
13.3629
13.431
13.5921
13.8018
14.1909
14.6813
15.1794
1.03449
1.06951
1.09332
1.10989
1.1228
1.1323
1.14036
1.14792
1.1599
1.20045
1.24708
1.49805
1.86501
3.38606
7.42332
17.2292
15.4842
13.8543
13.3958
13.5815
13.5784
13.7279
14.1237
14.6162
15.1046
1.0345
1.06949
1.09334
1.10986
1.12286
1.13223
1.14047
1.14795
1.16063
1.19895
1.25461
1.48597
1.87851
3.36144
7.33158
17.0177
15.4004
13.7703
13.3431
13.5188
13.5309
13.6635
14.0201
14.4695
14.9476
1.03446
1.06954
1.09329
1.10993
1.12278
1.13233
1.14034
1.1479
1.15976
1.1996
1.24579
1.49271
1.85233
3.34694
7.29989
16.8048
15.2394
13.6249
13.2071
13.3214
13.43
13.5776
13.8794
14.2602
14.748
1.03445
1.06956
1.09328
1.10995
1.12276
1.13236
1.14031
1.14787
1.15963
1.19881
1.24461
1.48759
1.84058
3.30967
7.18809
16.5931
15.0246
13.4383
13.0579
13.2119
13.29
13.4239
13.6809
13.9987
14.498
1.03447
1.06954
1.0933
1.10993
1.12277
1.13234
1.14029
1.14785
1.15934
1.19765
1.24234
1.48001
1.82245
3.25568
7.01217
16.208
14.7913
13.2368
12.8622
12.9797
13.1024
13.2125
13.4241
13.6787
14.1746
1.03453
1.06945
1.09338
1.10981
1.12291
1.13215
1.1405
1.14764
1.15962
1.19534
1.24719
1.46211
1.81478
3.1892
6.73673
15.8496
14.5209
13.0092
12.6375
12.74
12.8655
12.9412
13.0969
13.2749
13.743
1.03457
1.06942
1.09341
1.10976
1.12294
1.13211
1.14049
1.1476
1.15923
1.194
1.24248
1.45547
1.77696
3.14134
6.46449
15.3283
14.1916
12.7474
12.3826
12.4693
12.5746
12.6095
12.6917
12.7633
13.1526
1.03462
1.06937
1.09343
1.10973
1.12292
1.13212
1.14042
1.14759
1.15881
1.1922
1.23898
1.44326
1.74612
3.07112
6.17617
14.7592
13.8155
12.448
12.1012
12.1672
12.23
12.2137
12.1887
12.0975
12.3009
1.03461
1.06938
1.09342
1.10975
1.1229
1.13216
1.14035
1.14751
1.15807
1.18996
1.23321
1.43058
1.71059
2.98675
5.88543
14.0782
13.3689
12.125
11.8035
11.8416
11.8401
11.7612
11.5823
11.211
10.9855
0.957579
0.911083
0.87518
0.843977
0.82049
0.796937
0.783032
0.763101
0.763004
0.771362
0.779778
0.899295
1.0172
1.85975
3.47174
8.11734
7.90383
7.30398
6.76019
6.69619
6.74297
6.87865
7.1704
7.69732
8.49381
0.957482
0.911231
0.875056
0.844162
0.820241
0.797352
0.782383
0.76455
0.762372
0.765379
0.803123
0.839083
1.14283
1.65968
3.59489
8.10245
7.88658
7.24883
6.76336
6.72251
6.74781
6.85801
7.13588
7.69498
8.47621
0.957539
0.911138
0.875124
0.844066
0.820389
0.797089
0.782881
0.763413
0.763435
0.770137
0.778225
0.895016
1.00863
1.84601
3.44905
8.0507
7.83751
7.25223
6.75918
6.71551
6.74132
6.84959
7.12352
7.68562
8.46074
0.957446
0.911275
0.875013
0.844229
0.820181
0.797431
0.78234
0.764577
0.762643
0.765676
0.803755
0.839637
1.13859
1.63326
3.53073
7.90047
7.74805
7.20468
6.72554
6.67765
6.71636
6.83779
7.11408
7.66633
8.45988
0.957431
0.911301
0.874989
0.844273
0.82013
0.797495
0.782279
0.764576
0.762801
0.765884
0.803519
0.838501
1.13145
1.60386
3.48272
7.78275
7.63919
7.12426
6.67337
6.63788
6.6778
6.80429
7.08583
7.6266
8.4444
0.957462
0.911262
0.875021
0.844231
0.820162
0.797472
0.782227
0.76465
0.761873
0.764702
0.800622
0.833781
1.11891
1.58161
3.40485
7.61114
7.5116
7.06664
6.61157
6.56994
6.61462
6.74577
7.03054
7.56164
8.40331
0.957569
0.911108
0.875173
0.843999
0.820472
0.796963
0.782994
0.763176
0.763186
0.76905
0.776419
0.884462
0.986709
1.7609
3.16841
7.44608
7.36022
7.00988
6.53668
6.48432
6.52952
6.65937
6.93891
7.45628
8.31881
0.957623
0.911051
0.875221
0.843914
0.820551
0.796833
0.783119
0.762932
0.762933
0.768801
0.776051
0.879423
0.977478
1.71365
3.05228
7.19761
7.1692
6.91348
6.45139
6.38919
6.4296
6.5474
6.80381
7.28548
8.15487
0.957783
0.91085
0.875295
0.843837
0.820531
0.796919
0.782971
0.763376
0.763454
0.767333
0.77361
0.872058
0.962732
1.67116
2.92387
6.89138
6.99829
6.78103
6.35177
6.27994
6.31146
6.40621
6.6162
7.01537
7.82198
0.957807
0.910826
0.875242
0.843964
0.820296
0.797322
0.782248
0.764367
0.760708
0.76499
0.770644
0.862799
0.944542
1.62622
2.79102
6.54464
6.80919
6.6257
6.25139
6.15774
6.17446
6.23159
6.36216
6.59923
7.11743
0.957439
0.911374
0.874884
0.84444
0.819828
0.797921
0.781436
0.76517
0.758151
0.759809
0.785566
0.807928
1.0388
1.35958
2.80358
6.12204
6.57431
6.44081
6.14609
6.02616
6.01984
6.02405
6.01861
5.93268
5.38127
0.957643
0.911078
0.875021
0.844338
0.819833
0.798014
0.781195
0.765501
0.757288
0.760349
0.76545
0.84487
0.917139
1.49217
2.49888
5.70203
6.32815
6.24352
6.03816
5.89979
5.85091
5.79894
5.6916
5.44417
4.82159
0.95738
0.911466
0.874748
0.844656
0.819523
0.798373
0.78072
0.765932
0.755447
0.756642
0.777131
0.794676
0.990268
1.23792
2.46147
5.2288
6.07558
6.04085
5.92156
5.77661
5.68931
5.58921
5.4309
5.15498
4.6129
0.957568
0.911215
0.874827
0.8446
0.819447
0.798549
0.780365
0.766408
0.754131
0.756861
0.760693
0.824703
0.883192
1.32716
2.1034
4.64301
5.88147
5.87755
5.81246
5.66983
5.54226
5.40441
5.2144
4.92799
4.47784
0.957512
0.911309
0.874702
0.844785
0.819173
0.798956
0.779742
0.767105
0.75238
0.754313
0.757278
0.810013
0.858421
1.21827
1.82661
3.89841
5.75637
5.8102
5.74244
5.58437
5.41371
5.24875
5.0429
4.76064
4.37018
0.957344
0.911542
0.874545
0.844993
0.818987
0.799181
0.779471
0.767308
0.751375
0.751581
0.760785
0.76958
0.877464
0.99329
1.6566
2.96204
5.60987
5.7911
5.71473
5.52905
5.30946
5.11981
4.90858
4.63777
4.28987
0.957329
0.911543
0.874534
0.845034
0.818936
0.799286
0.779289
0.76752
0.750484
0.75044
0.756086
0.762887
0.84587
0.921115
1.49097
2.40945
5.17224
5.70109
5.63677
5.46437
5.21168
5.00557
4.7949
4.54053
4.22765
0.957213
0.91169
0.874474
0.845092
0.818948
0.799229
0.779437
0.767219
0.750948
0.749538
0.752521
0.758635
0.823402
0.890962
1.33844
2.10893
4.54059
5.48016
5.45993
5.35497
5.12835
4.90736
4.69708
4.45929
4.17723
0.957234
0.911641
0.874561
0.844936
0.81919
0.798839
0.780015
0.766269
0.752054
0.746366
0.748387
0.753259
0.80312
0.861261
1.19968
1.80724
3.73704
5.22915
5.30264
5.24062
5.07932
4.83794
4.62249
4.39609
4.13812
0.957447
0.911323
0.874818
0.844571
0.819606
0.798236
0.780833
0.764964
0.753538
0.741667
0.742065
0.752212
0.76134
0.863838
0.975441
1.57934
2.75698
4.95025
5.23089
5.18414
5.04921
4.80086
4.57539
4.35205
4.11007
0.957423
0.911364
0.874823
0.844516
0.819699
0.798059
0.781071
0.764589
0.753843
0.74063
0.739946
0.742151
0.767528
0.792146
0.972554
1.25539
2.25032
4.31929
5.08133
5.07053
4.98829
4.79529
4.54719
4.31991
4.08918
0.957603
0.911119
0.874955
0.84438
0.819767
0.798022
0.781039
0.764674
0.753597
0.74057
0.738156
0.740495
0.74527
0.797612
0.853208
1.19388
1.77529
3.58433
4.8498
4.9529
4.9054
4.77427
4.52081
4.29212
4.07121
0.957425
0.911384
0.874762
0.844634
0.819496
0.798387
0.780541
0.765371
0.752461
0.741821
0.733954
0.734857
0.745979
0.758535
0.854105
0.977927
1.5392
2.6298
4.52304
4.85881
4.83005
4.7304
4.51881
4.28352
4.0643
0.957389
0.911431
0.874712
0.844733
0.819374
0.798587
0.780253
0.765791
0.751767
0.742552
0.731308
0.731468
0.737748
0.743789
0.812894
0.874423
1.31541
1.97048
3.87564
4.68659
4.70851
4.65911
4.52082
4.28575
4.06534
0.957328
0.911504
0.874668
0.84479
0.819335
0.798642
0.7802
0.765862
0.751655
0.742599
0.730743
0.73006
0.732319
0.736634
0.782872
0.827184
1.12347
1.59069
3.04508
4.41674
4.62385
4.59464
4.50146
4.29917
4.07202
0.95733
0.911491
0.874694
0.844744
0.819412
0.798517
0.780401
0.765541
0.752153
0.741742
0.731769
0.726845
0.728148
0.731975
0.758735
0.797527
0.969747
1.27886
2.20181
3.97384
4.51264
4.50879
4.45867
4.32546
4.09038
0.957365
0.911438
0.874739
0.84467
0.819502
0.798374
0.780617
0.765196
0.752695
0.740805
0.732885
0.723119
0.723575
0.725286
0.743442
0.765032
0.884134
1.07772
1.75152
3.20379
4.28558
4.43497
4.40625
4.3153
4.12338
0.957401
0.911395
0.874761
0.84464
0.819514
0.798362
0.780603
0.76524
0.752574
0.741022
0.732342
0.723457
0.720131
0.721271
0.731456
0.74313
0.825598
0.924375
1.39029
2.25395
3.91409
4.33534
4.33087
4.28437
4.15967
0.957406
0.911398
0.874746
0.844662
0.819469
0.798432
0.780485
0.765427
0.75227
0.741488
0.731527
0.724346
0.716921
0.717191
0.723333
0.729205
0.785162
0.836257
1.17894
1.67733
3.17658
4.12259
4.25253
4.22763
4.14859
0.957436
0.911358
0.874765
0.84465
0.819467
0.79845
0.780443
0.765498
0.752147
0.74167
0.731207
0.724677
0.71568
0.715657
0.718184
0.722347
0.754229
0.794528
0.987324
1.31367
2.24692
3.76235
4.15459
4.15293
4.11784
0.957376
0.91144
0.874726
0.844697
0.819447
0.798453
0.780472
0.765423
0.752284
0.741418
0.731612
0.723926
0.716629
0.712755
0.713615
0.715986
0.735266
0.75956
0.879907
1.07697
1.71727
3.02016
3.93906
4.09369
4.07518
0.957387
0.911421
0.874744
0.84467
0.819482
0.798407
0.780538
0.765324
0.752435
0.741182
0.731963
0.723328
0.717271
0.710357
0.70988
0.710938
0.722375
0.732717
0.815348
0.904261
1.33835
2.11143
3.55517
3.98468
4.0107
0.957419
0.911378
0.874765
0.844641
0.819499
0.798392
0.780546
0.76533
0.752416
0.741237
0.731856
0.723515
0.716835
0.710679
0.70723
0.707839
0.713694
0.720621
0.769322
0.818734
1.11438
1.54209
2.80305
3.74743
3.94405
0.957426
0.91137
0.874767
0.844641
0.819492
0.798406
0.78052
0.765375
0.752343
0.741354
0.73167
0.723798
0.716342
0.711211
0.705232
0.705317
0.708232
0.712041
0.739702
0.774578
0.932919
1.19698
1.92438
3.305
3.80948
0.957393
0.911417
0.874743
0.844671
0.819472
0.798425
0.780502
0.765386
0.752333
0.74135
0.731682
0.723752
0.716415
0.710973
0.705254
0.703376
0.704264
0.7069
0.721315
0.743165
0.83592
0.985021
1.49584
2.52034
3.52154
0.957397
0.91141
0.874749
0.844665
0.81948
0.798413
0.78052
0.765358
0.752374
0.741284
0.731787
0.723579
0.716684
0.710481
0.70581
0.701189
0.701366
0.702536
0.710602
0.722113
0.777619
0.853404
1.1687
1.69423
2.96998
0.957422
0.911377
0.874766
0.844642
0.819495
0.798398
0.780534
0.765346
0.752388
0.741273
0.731798
0.723575
0.716674
0.710497
0.705635
0.700991
0.698764
0.69925
0.703615
0.708998
0.74316
0.782853
0.977243
1.28336
2.15264
0.957432
0.911365
0.874771
0.844635
0.819497
0.798397
0.78053
0.765355
0.752371
0.741304
0.731748
0.72366
0.716534
0.710718
0.705237
0.701427
0.697104
0.697181
0.699291
0.702543
0.720476
0.748217
0.851049
1.03159
1.55438
0.957412
0.911394
0.874756
0.844654
0.819484
0.798408
0.78052
0.765361
0.752364
0.741305
0.731748
0.72365
0.716555
0.710668
0.705314
0.701198
0.697132
0.695357
0.695894
0.697613
0.706791
0.720971
0.778265
0.871695
1.17099
0.957413
0.911393
0.874759
0.844652
0.819488
0.798404
0.780526
0.765352
0.752377
0.741284
0.73178
0.723596
0.716639
0.71053
0.705527
0.700815
0.697554
0.693717
0.693666
0.694286
0.699403
0.705921
0.741063
0.784523
0.983357
0.957433
0.911366
0.874773
0.844634
0.819499
0.798393
0.780535
0.765347
0.752383
0.741283
0.731779
0.723606
0.716618
0.710572
0.705445
0.700953
0.697236
0.693989
0.691806
0.69206
0.694524
0.698022
0.716641
0.744229
0.847053
0.957444
0.911351
0.874782
0.844624
0.819506
0.798387
0.780538
0.765345
0.75238
0.741289
0.731765
0.723629
0.716579
0.710635
0.705343
0.701108
0.696968
0.694285
0.690761
0.690753
0.691493
0.693221
0.702628
0.716712
0.773021
0.95742
0.911385
0.874763
0.844646
0.81949
0.798401
0.780526
0.765353
0.752373
0.741291
0.731766
0.723621
0.716595
0.710602
0.705403
0.700999
0.697151
0.693921
0.691193
0.689087
0.689267
0.690003
0.695024
0.701787
0.73468
0.957434
0.911365
0.874774
0.844633
0.819499
0.798392
0.780534
0.765347
0.752381
0.741285
0.731775
0.723611
0.716611
0.710581
0.705434
0.700954
0.697209
0.693823
0.691233
0.68863
0.687741
0.688073
0.690447
0.694052
0.711103
0.957437
0.911362
0.874775
0.844632
0.8195
0.798392
0.780535
0.765347
0.752381
0.741286
0.731773
0.723615
0.716603
0.710595
0.705409
0.700997
0.697134
0.693945
0.690991
0.688882
0.686564
0.686601
0.687666
0.689213
0.698558
0.957424
0.911379
0.874766
0.844643
0.819493
0.798399
0.780529
0.765351
0.752377
0.741288
0.73177
0.723617
0.716601
0.710595
0.705409
0.700995
0.697138
0.69393
0.691014
0.688781
0.686551
0.685625
0.685919
0.686825
0.691689
0.957424
0.911378
0.874766
0.844642
0.819494
0.798398
0.78053
0.76535
0.752378
0.741286
0.731774
0.723611
0.71661
0.710582
0.705429
0.700964
0.697185
0.693858
0.69112
0.688602
0.686741
0.684943
0.685052
0.685634
0.688885
0.957428
0.911374
0.874768
0.84464
0.819494
0.798397
0.780531
0.765349
0.75238
0.741283
0.731777
0.723606
0.716617
0.710571
0.705445
0.70094
0.697219
0.693808
0.69119
0.688494
0.68686
0.684595
0.684605
0.684956
0.687887
0.957433
0.911366
0.874773
0.844634
0.819499
0.798392
0.780535
0.765346
0.752383
0.741281
0.731779
0.723603
0.71662
0.710568
0.705448
0.700936
0.697224
0.693801
0.691197
0.688487
0.686857
0.684575
0.684496
0.684867
0.68758
0.957435
0.911365
0.874774
0.844632
0.8195
0.798391
0.780536
0.765344
0.752384
0.74128
0.73178
0.723603
0.71662
0.710568
0.705448
0.700937
0.697222
0.693804
0.691192
0.688492
0.686848
0.68458
0.684484
0.684864
0.687628
1.03445
1.06954
1.09337
1.1098
1.123
1.13192
1.14087
1.14619
1.15935
1.17953
1.25276
1.34925
1.81797
2.67442
5.78828
13.2672
12.8188
11.8175
11.5018
11.4932
11.4336
11.2416
10.8567
10.065
8.19226
1.03449
1.06948
1.09342
1.10973
1.12308
1.1318
1.14101
1.14578
1.15861
1.17491
1.24804
1.32431
1.7855
2.52896
5.43484
12.4245
12.2457
11.5762
11.2314
11.1612
11.0154
10.6947
10.1287
9.1382
7.19724
1.0344
1.0696
1.09327
1.10992
1.12286
1.13204
1.14069
1.14561
1.15708
1.17416
1.23863
1.31489
1.73224
2.40456
5.0813
11.4493
11.7337
11.3722
10.9828
10.835
10.614
10.1943
9.54471
8.56942
7.0675
1.03445
1.06957
1.09324
1.10996
1.12275
1.13218
1.14046
1.14566
1.15633
1.16887
1.22945
1.28899
1.67117
2.24529
4.59111
10.3362
11.4187
11.174
10.758
10.536
10.2527
9.78947
9.1316
8.24351
7.06531
1.0344
1.06963
1.09316
1.11009
1.12255
1.13255
1.13978
1.14705
1.15357
1.17421
1.19906
1.32772
1.47465
2.31348
3.89109
9.04178
11.2286
11.0307
10.5804
10.2703
9.94355
9.47448
8.84342
8.04615
7.06592
1.03428
1.06975
1.09309
1.11016
1.12253
1.13251
1.13995
1.14621
1.15379
1.16604
1.2074
1.258
1.5209
1.9095
3.527
7.41717
11.1409
10.9506
10.4395
10.0317
9.67516
9.21685
8.62884
7.91169
7.06762
1.03423
1.0698
1.09305
1.11023
1.12246
1.13263
1.13976
1.1464
1.15269
1.16333
1.19606
1.24012
1.44126
1.74197
2.96028
5.73932
10.9397
10.8082
10.3224
9.81575
9.43396
8.99532
8.45363
7.80705
7.06732
1.03423
1.06981
1.09302
1.11029
1.12237
1.13279
1.13944
1.14689
1.15117
1.16311
1.17918
1.24539
1.32725
1.72514
2.45086
4.84097
10.2294
10.4596
10.1525
9.60413
9.21312
8.79817
8.29958
7.71677
7.06334
1.03427
1.06976
1.09306
1.11022
1.12243
1.13271
1.13948
1.14672
1.15052
1.16046
1.17312
1.22888
1.28505
1.63014
2.13548
4.17482
8.83388
10.0173
9.85342
9.44023
9.03238
8.63037
8.17094
7.64106
7.05476
1.03434
1.06967
1.09317
1.11007
1.12259
1.13247
1.13974
1.14629
1.15061
1.15831
1.17053
1.21154
1.26386
1.52221
1.90675
3.49017
7.11447
9.71003
9.63789
9.33903
8.89333
8.49229
8.06113
7.5758
7.04413
1.03437
1.06962
1.09323
1.10997
1.12273
1.13223
1.14009
1.14568
1.15155
1.15629
1.16958
1.18908
1.26408
1.36953
1.82848
2.70809
5.4134
9.34179
9.46274
9.25526
8.80336
8.38525
7.97038
7.52126
7.03387
1.03444
1.06955
1.09329
1.10989
1.12281
1.13213
1.14019
1.14551
1.15154
1.1554
1.1656
1.18106
1.23597
1.31511
1.6448
2.2526
4.21028
8.44134
9.23005
9.09292
8.72902
8.29472
7.88959
7.46928
7.02153
1.0344
1.0696
1.09322
1.10999
1.12268
1.13231
1.13994
1.14585
1.15087
1.15561
1.16119
1.17881
1.19974
1.30741
1.42721
2.10067
3.29843
6.96323
8.91293
8.87392
8.66004
8.22299
7.82289
7.42515
7.00993
1.03434
1.06968
1.09315
1.11009
1.12259
1.13245
1.1398
1.14596
1.15077
1.15494
1.1605
1.16938
1.20006
1.23625
1.42767
1.68437
2.79744
5.13712
8.43991
8.70271
8.55827
8.19803
7.77857
7.39218
7.00209
1.0343
1.06971
1.09313
1.11012
1.12257
1.13248
1.13977
1.14601
1.15064
1.15501
1.15924
1.16639
1.18756
1.21751
1.34437
1.51143
2.28467
3.71365
7.45206
8.488
8.41401
8.16688
7.75235
7.37094
6.99742
1.0343
1.0697
1.09315
1.11009
1.12262
1.13241
1.13987
1.14588
1.15078
1.1548
1.15899
1.1643
1.17916
1.20197
1.28864
1.40582
1.94875
2.92219
5.86257
8.13535
8.2238
8.09281
7.75995
7.36917
7.00041
1.03433
1.06967
1.09318
1.11004
1.12266
1.13234
1.13995
1.14577
1.15089
1.15461
1.15879
1.16264
1.17286
1.18953
1.24501
1.33653
1.6614
2.29419
4.10541
7.46484
8.07876
7.99862
7.75324
7.37605
7.0092
1.03437
1.06963
1.0932
1.11002
1.12267
1.13234
1.13992
1.14583
1.15077
1.15476
1.15825
1.16192
1.16737
1.18395
1.20549
1.30637
1.42155
2.0331
3.06511
6.10967
7.7889
7.82679
7.71206
7.41052
7.02868
1.03437
1.06964
1.09319
1.11003
1.12264
1.13237
1.13989
1.14586
1.15075
1.1547
1.15831
1.16093
1.16594
1.17414
1.20019
1.23581
1.39337
1.61595
2.5224
4.34096
7.17838
7.69155
7.62569
7.41123
7.05491
1.03436
1.06964
1.09319
1.11004
1.12263
1.13238
1.13987
1.14588
1.15071
1.15474
1.15819
1.16096
1.16446
1.17026
1.18746
1.21134
1.31489
1.43776
2.05416
3.09771
5.96287
7.41509
7.47223
7.37633
7.11682
1.03433
1.06968
1.09317
1.11007
1.12262
1.13239
1.13987
1.14587
1.15072
1.15472
1.15817
1.16095
1.16401
1.16805
1.17914
1.19667
1.2586
1.35218
1.7168
2.39025
4.31026
6.82891
7.33454
7.29101
7.12717
1.03434
1.06967
1.09318
1.11005
1.12264
1.13237
1.1399
1.14584
1.15076
1.15467
1.15821
1.16087
1.1638
1.16653
1.17366
1.18518
1.22328
1.28401
1.50078
1.90557
3.10108
5.62784
7.04719
7.17011
7.09428
1.03436
1.06965
1.09319
1.11004
1.12265
1.13236
1.1399
1.14584
1.15076
1.15469
1.15819
1.16085
1.16365
1.16563
1.17037
1.1781
1.20231
1.2392
1.37825
1.59975
2.39169
3.98934
6.43104
7.02779
7.00695
1.03437
1.06964
1.09319
1.11003
1.12265
1.13237
1.13989
1.14587
1.15072
1.15474
1.15812
1.16093
1.16347
1.16545
1.16848
1.17351
1.18885
1.20975
1.30183
1.41027
1.94239
2.8186
5.1973
6.70407
6.8955
1.03435
1.06966
1.09318
1.11006
1.12263
1.13238
1.13987
1.14588
1.15071
1.15475
1.1581
1.16095
1.16341
1.16544
1.1677
1.1711
1.18029
1.19525
1.24529
1.32631
1.60972
2.13985
3.56769
6.00744
6.71501
1.03434
1.06967
1.09318
1.11006
1.12264
1.13238
1.13988
1.14587
1.15072
1.15474
1.15811
1.16094
1.16338
1.16546
1.16724
1.16988
1.17416
1.18753
1.20564
1.28452
1.38029
1.83126
2.57127
4.64597
6.3019
1.03436
1.06965
1.09319
1.11004
1.12264
1.13237
1.13989
1.14586
1.15072
1.15473
1.15812
1.16093
1.1634
1.16539
1.16736
1.1688
1.17241
1.17804
1.19626
1.22211
1.32714
1.47666
2.04509
3.06469
5.44756
1.03437
1.06964
1.09319
1.11003
1.12265
1.13237
1.13989
1.14587
1.15072
1.15475
1.15809
1.16097
1.16334
1.16548
1.16718
1.16895
1.17074
1.17547
1.18289
1.20839
1.24432
1.39149
1.61892
2.40536
3.98223
1.03436
1.06965
1.09319
1.11004
1.12264
1.13238
1.13988
1.14587
1.15071
1.15475
1.15808
1.16098
1.16333
1.16549
1.16714
1.16888
1.17011
1.17302
1.17779
1.19234
1.21385
1.29852
1.40801
1.88796
2.67838
1.03435
1.06966
1.09318
1.11005
1.12264
1.13238
1.13988
1.14587
1.15071
1.15474
1.1581
1.16094
1.16338
1.16541
1.16724
1.16869
1.17022
1.17168
1.17536
1.18139
1.20087
1.22857
1.34195
1.4996
2.09104
1.03436
1.06965
1.09319
1.11004
1.12265
1.13237
1.13989
1.14586
1.15072
1.15474
1.15811
1.16094
1.16338
1.16541
1.16722
1.16868
1.17011
1.17113
1.17346
1.17715
1.18838
1.20557
1.26912
1.35536
1.71939
1.03437
1.06964
1.0932
1.11003
1.12265
1.13237
1.13989
1.14586
1.15072
1.15474
1.1581
1.16095
1.16336
1.16544
1.16718
1.16874
1.16999
1.17127
1.1724
1.17522
1.17977
1.1944
1.21497
1.29977
1.41079
1.03436
1.06965
1.09319
1.11005
1.12264
1.13237
1.13988
1.14587
1.15072
1.15474
1.1581
1.16095
1.16336
1.16543
1.1672
1.1687
1.17004
1.17112
1.17229
1.17366
1.17718
1.18299
1.20172
1.2289
1.33688
1.03436
1.06965
1.09319
1.11004
1.12264
1.13237
1.13989
1.14586
1.15072
1.15474
1.15811
1.16094
1.16337
1.16542
1.16721
1.16869
1.17005
1.17109
1.17221
1.17309
1.17517
1.17866
1.18909
1.20521
1.26446
1.03437
1.06964
1.09319
1.11004
1.12265
1.13237
1.13989
1.14586
1.15072
1.15474
1.15811
1.16095
1.16337
1.16543
1.1672
1.16871
1.17001
1.17113
1.17211
1.17293
1.17413
1.17624
1.18198
1.19161
1.22181
1.03436
1.06965
1.09319
1.11004
1.12264
1.13237
1.13988
1.14587
1.15072
1.15474
1.1581
1.16095
1.16336
1.16543
1.16719
1.16871
1.17001
1.17113
1.1721
1.17291
1.17379
1.17507
1.17834
1.18389
1.20085
1.03436
1.06965
1.09319
1.11004
1.12264
1.13237
1.13988
1.14587
1.15072
1.15474
1.1581
1.16095
1.16337
1.16543
1.1672
1.1687
1.17002
1.17112
1.1721
1.1729
1.17364
1.17463
1.17633
1.18113
1.18894
1.03436
1.06965
1.09319
1.11004
1.12265
1.13237
1.13989
1.14586
1.15072
1.15474
1.15811
1.16094
1.16337
1.16542
1.16721
1.1687
1.17003
1.1711
1.17212
1.17287
1.1737
1.17436
1.17601
1.17871
1.1875
1.03437
1.06964
1.0932
1.11003
1.12265
1.13237
1.13989
1.14586
1.15072
1.15474
1.15811
1.16094
1.16337
1.16542
1.16721
1.16869
1.17003
1.1711
1.17211
1.17289
1.17364
1.17436
1.17555
1.17891
1.18402
1.03437
1.06964
1.0932
1.11003
1.12265
1.13236
1.13989
1.14586
1.15072
1.15473
1.15811
1.16094
1.16338
1.16542
1.16721
1.16869
1.17004
1.1711
1.17212
1.17288
1.17365
1.17433
1.17547
1.17869
1.18357
1.00893
1.0317
1.05948
1.08714
1.11383
1.13728
1.15989
1.17897
1.20182
1.2314
1.32446
1.44904
2.0083
3.05869
6.77601
15.6551
14.6278
13.3332
13.1037
13.1747
13.0696
12.6586
11.9976
10.8652
8.49614
1.0089
1.0317
1.05949
1.08712
1.11387
1.13721
1.15996
1.17874
1.20138
1.22942
1.31611
1.43427
1.95277
2.92708
6.36919
14.6844
14.018
13.018
12.7644
12.7468
12.5603
12.0221
11.1488
9.79039
7.37782
1.00885
1.03181
1.05933
1.08738
1.11346
1.13789
1.15874
1.18065
1.19656
1.23181
1.28237
1.47847
1.7434
2.98082
5.69172
13.637
13.4415
12.8203
12.4692
12.3481
12.0582
11.4247
10.4747
9.16206
7.32037
1.00877
1.03195
1.0592
1.08751
1.11332
1.138
1.15864
1.18051
1.19617
1.22867
1.27288
1.45099
1.67872
2.8017
5.1394
12.4113
13.0514
12.6489
12.1903
11.9698
11.6078
10.9426
10.0198
8.84349
7.36333
1.00886
1.03177
1.05938
1.08725
1.11369
1.13737
1.15968
1.17852
1.19964
1.2193
1.28589
1.3584
1.74638
2.3565
4.75916
10.933
12.8595
12.496
11.9301
11.6164
11.2229
10.5808
9.72236
8.68218
7.46055
1.00879
1.03183
1.05937
1.08722
1.11383
1.13713
1.16004
1.17796
1.19972
1.21919
1.27327
1.34847
1.66202
2.18586
4.1672
9.19907
12.8268
12.4081
11.6921
11.2948
10.89
10.2905
9.50925
8.58731
7.54682
1.00875
1.03188
1.05934
1.08725
1.11381
1.13716
1.15999
1.17788
1.19908
1.21604
1.26051
1.32451
1.57285
1.98348
3.49385
7.22189
12.7484
12.2922
11.482
11.0093
10.5978
10.0445
9.33814
8.51513
7.6056
1.00874
1.0319
1.0593
1.0873
1.11373
1.13726
1.15983
1.17793
1.1984
1.21308
1.24955
1.30324
1.49912
1.81775
2.97813
5.78093
12.2728
11.9985
11.3069
10.7512
10.3316
9.82572
9.18961
8.45218
7.64692
1.0088
1.03182
1.05934
1.08728
1.11368
1.13738
1.15959
1.17817
1.19749
1.21147
1.24149
1.28371
1.45082
1.66046
2.70703
4.78505
10.955
11.4286
11.0916
10.5281
10.0969
9.62956
9.05715
8.39633
7.67589
1.00881
1.03183
1.0593
1.08736
1.11351
1.13769
1.159
1.17916
1.19542
1.21428
1.23282
1.28824
1.35916
1.6837
2.20148
4.18395
8.93652
11.1219
10.8852
10.3666
9.90465
9.45933
8.93956
8.34395
7.69562
1.00885
1.03178
1.05935
1.0873
1.11357
1.13761
1.15908
1.17903
1.19538
1.21343
1.22868
1.27283
1.32619
1.57397
1.94469
3.38707
6.8198
10.9196
10.7469
10.2775
9.76401
9.31426
8.83442
8.29422
7.70738
1.00886
1.03178
1.05938
1.08725
1.11365
1.13745
1.15934
1.17853
1.19607
1.2113
1.22866
1.25412
1.32334
1.44074
1.84002
2.66424
5.15736
10.3087
10.4807
10.1973
9.65595
9.19121
8.73962
8.24576
7.71099
1.00888
1.03174
1.0594
1.08723
1.11367
1.13742
1.15937
1.17844
1.19612
1.2106
1.22739
1.24404
1.30319
1.36636
1.7078
2.22219
4.22147
8.79632
10.1942
10.0134
9.57727
9.09092
8.65162
8.19692
7.70973
1.00878
1.03189
1.05927
1.08738
1.11354
1.13758
1.15919
1.17869
1.19564
1.2112
1.22426