/*--------------------------------*- C++ -*----------------------------------*\
  =========                 |
  \\      /  F ield         | OpenFOAM: The Open Source CFD Toolbox
   \\    /   O peration     | Website:  https://openfoam.org
    \\  /    A nd           | Version:  6
     \\/     M anipulation  |
\*---------------------------------------------------------------------------*/
FoamFile
{
    version     2.0;
    format      ascii;
    class       surfaceScalarField;
    location    "3";
    object      phi;
}
// * * * * * * * * * * * * * * * * * * * * * * * * * * * * * * * * * * * * * //

dimensions      [1 0 -1 0 0 0 0];

internalField   nonuniform List<scalar> 
72625
(
0.00162357
1.57931e-10
5.87399e-05
0.00157665
9.60807e-10
4.69166e-05
0.00153806
1.48863e-10
3.85905e-05
0.00150613
1.31169e-09
3.19296e-05
0.00147905
-4.47965e-10
2.7078e-05
0.00145656
1.24235e-09
2.24874e-05
0.0014368
-6.68187e-10
1.97581e-05
0.00142087
3.73007e-09
1.5931e-05
0.00140578
1.18319e-08
1.50751e-05
0.00139168
4.48001e-08
1.40451e-05
0.0013832
8.80283e-08
8.38622e-06
0.00136632
2.94053e-07
1.65146e-05
0.00138485
6.71486e-07
-1.91894e-05
0.00133592
2.6067e-06
4.61378e-05
0.00155226
8.36677e-06
-0.000225047
0.00178413
5.13079e-05
-0.000284012
0.00168769
5.45728e-05
4.12178e-05
0.00149022
4.74913e-05
0.000149706
0.001384
5.983e-05
4.6228e-05
0.00136405
7.391e-05
-5.40925e-05
0.00128111
6.9464e-05
1.33397e-05
0.00117753
5.39851e-05
4.94475e-05
0.00101746
3.71106e-05
0.000122771
0.000671724
3.74336e-05
0.00030812
-7.47257e-07
0.000672381
0.00162357
1.81484e-09
5.87392e-05
0.00157665
2.21764e-09
4.6917e-05
0.00153806
-9.43723e-11
3.85902e-05
0.00150613
2.18476e-09
3.19297e-05
0.00147905
-3.32578e-09
2.70783e-05
0.00145656
4.23857e-09
2.24865e-05
0.00143681
-5.8276e-09
1.97602e-05
0.00142087
1.55101e-08
1.59252e-05
0.00140576
4.17165e-08
1.50776e-05
0.00139165
1.27605e-07
1.4013e-05
0.00138303
2.66415e-07
8.43984e-06
0.00136625
6.76802e-07
1.63281e-05
0.00138441
1.50234e-06
-1.89808e-05
0.00133712
4.38646e-06
4.53209e-05
0.00155182
1.36336e-05
-0.0002203
0.00180324
6.29886e-05
-0.000263941
0.00173971
9.84535e-05
1.90442e-05
0.00152889
0.000118834
0.000139294
0.00143809
0.000114201
3.63378e-05
0.00139231
0.000119128
4.84682e-07
0.00134834
0.000124539
-1.11957e-05
0.00127937
0.000119028
3.81713e-06
0.00112061
0.000105053
9.06632e-05
0.000768631
0.000108386
0.000280892
0.00010641
0.000661514
0.00162356
9.35836e-09
5.87369e-05
0.00157665
-3.60645e-09
4.69188e-05
0.00153806
4.58265e-09
3.85893e-05
0.00150613
-5.51655e-09
3.19301e-05
0.00147905
4.03415e-10
2.70798e-05
0.00145657
6.59092e-10
2.24834e-05
0.00143681
-1.17023e-08
1.97654e-05
0.00142084
6.79271e-08
1.59138e-05
0.00140576
5.30304e-08
1.50673e-05
0.00139154
3.51464e-07
1.3988e-05
0.00138262
8.003e-07
8.37674e-06
0.00136609
8.01055e-07
1.63321e-05
0.00138218
4.62854e-06
-1.92056e-05
0.00133701
4.2508e-06
4.51229e-05
0.00154201
3.08469e-05
-0.000222558
0.00176209
0.000135054
-0.000293003
0.00167548
0.000164674
1.97782e-05
0.00149716
0.000163491
0.000133491
0.00141438
0.000162475
3.44384e-05
0.00135743
0.000167155
8.85362e-06
0.00132084
0.000179875
-1.88326e-05
0.00125621
0.000194816
-1.12559e-05
0.00108402
0.000199354
7.77449e-05
0.000723906
0.000197841
0.000270535
0.000202587
0.000627819
0.00162358
1.59218e-08
5.87214e-05
0.00157666
-1.80032e-08
4.69362e-05
0.00153807
1.8734e-08
3.85749e-05
0.00150615
-2.89583e-08
3.19457e-05
0.00147904
3.94616e-08
2.70654e-05
0.00145662
-7.31719e-08
2.24943e-05
0.00143674
1.18167e-07
1.97575e-05
0.00142119
-2.58644e-07
1.58763e-05
0.00140613
2.24601e-07
1.50101e-05
0.0013913
1.29416e-06
1.37556e-05
0.00138781
-3.89057e-06
8.21517e-06
0.00135834
1.44838e-05
1.56734e-05
0.00141167
-2.87083e-05
-2.00063e-05
0.00131711
5.56594e-05
4.29484e-05
0.00155884
4.91857e-06
-0.000216165
0.00177944
0.000182217
-0.000268595
0.00172103
0.000220466
2.00832e-06
0.00152233
0.000233307
0.000128725
0.0014262
0.000231608
2.69539e-05
0.00137444
0.000249769
-3.0916e-05
0.0013084
0.000258991
-1.31483e-05
0.00123563
0.000271681
-4.20929e-06
0.00107194
0.000288714
7.41627e-05
0.000702001
0.000301366
0.000266268
0.000303755
0.000600872
0.00162366
-1.46024e-08
5.86895e-05
0.00157664
2.16391e-08
4.69743e-05
0.00153814
-1.76317e-08
3.85373e-05
0.0015061
2.40269e-08
3.1993e-05
0.00147917
-3.65111e-08
2.7003e-05
0.00145644
6.37732e-08
2.25907e-05
0.00143708
-1.16819e-07
1.96008e-05
0.00142033
2.67204e-07
1.62225e-05
0.00140603
-2.63478e-07
1.47818e-05
0.00139575
-7.32292e-07
1.229e-05
0.00137139
5.24903e-06
1.51966e-05
0.00140106
-1.1372e-05
-3.80815e-06
0.0013063
4.13239e-05
2.45866e-05
0.00145972
-3.90561e-05
-5.86618e-05
0.00145307
8.71449e-05
-7.58958e-05
0.00175392
0.000176733
-0.000296183
0.00171803
0.000261296
-5.5707e-06
0.00155094
0.00027653
0.000123649
0.00146454
0.000290257
2.76436e-05
0.00140987
0.000313176
-8.83896e-06
0.00134438
0.000336709
-1.23296e-05
0.00125855
0.000357687
-2.59702e-07
0.00108946
0.000383468
7.41673e-05
0.000715692
0.000413271
0.000261746
0.000435594
0.0005839
0.00162355
1.26134e-08
5.87297e-05
0.00157668
-2.66811e-08
4.69284e-05
0.00153807
1.81016e-08
3.85791e-05
0.00150617
-2.90821e-08
3.19463e-05
0.00147902
4.17944e-08
2.70593e-05
0.00145664
-7.11975e-08
2.25075e-05
0.00143664
1.35641e-07
1.97378e-05
0.00142129
-2.67824e-07
1.59149e-05
0.00140745
4.08565e-07
1.50897e-05
0.0013903
1.00764e-06
1.34514e-05
0.00139202
-4.12052e-06
8.04111e-06
0.00135133
1.4162e-05
1.49385e-05
0.00144205
-2.9076e-05
-2.07151e-05
0.00130053
6.15133e-05
4.09964e-05
0.00157728
9.20926e-06
-0.000199189
0.001775
0.000257123
-0.000278937
0.00174595
0.000320425
-3.0899e-05
0.00155519
0.000345298
0.000121758
0.00147011
0.000350407
2.48329e-05
0.0014142
0.000378464
-9.46582e-06
0.00135595
0.000409838
-1.49865e-05
0.00127252
0.00044022
7.65945e-07
0.00109988
0.000481217
7.47565e-05
0.000723238
0.000534346
0.000255499
0.000594357
0.000564534
0.00162366
-3.00114e-08
5.86922e-05
0.00157664
2.68425e-08
4.69722e-05
0.00153815
-2.67885e-08
3.85379e-05
0.00150609
3.7716e-08
3.1993e-05
0.00147917
-4.50603e-08
2.69996e-05
0.00145642
8.41967e-08
2.25967e-05
0.0014371
-1.29114e-07
1.95854e-05
0.00142033
2.69156e-07
1.6241e-05
0.00140637
-3.25985e-07
1.46918e-05
0.00139588
-8.54864e-07
1.23325e-05
0.0013723
4.47558e-06
1.49469e-05
0.00139923
-9.50581e-06
-3.25656e-06
0.0013064
3.93855e-05
2.42502e-05
0.00145957
-3.25019e-05
-5.92475e-05
0.00144783
8.32873e-05
-6.25765e-05
0.00173786
0.000259374
-0.00029313
0.00173454
0.000372216
-4.91724e-05
0.00157632
0.000391128
0.000112204
0.0014938
0.000407719
2.51391e-05
0.0014325
0.000440841
-1.14919e-06
0.00137729
0.000480288
-1.53417e-05
0.00129198
0.000522368
3.04984e-06
0.00111603
0.000582789
7.41494e-05
0.000735917
0.000670373
0.000244007
0.000792101
0.00053823
0.00162353
-1.39443e-08
5.87569e-05
0.00157666
2.24565e-10
4.6899e-05
0.00153804
-1.1623e-09
3.86031e-05
0.00150615
4.44028e-09
3.19184e-05
0.00147901
5.54243e-09
2.7086e-05
0.00145661
1.59071e-09
2.24782e-05
0.0014367
1.05745e-08
1.977e-05
0.00142101
-2.15345e-08
1.58945e-05
0.00140591
-5.63548e-08
1.51371e-05
0.00139153
1.06238e-07
1.35048e-05
0.00138575
2.27801e-07
8.69879e-06
0.00136036
2.38478e-06
1.43159e-05
0.00141384
2.54045e-06
-1.63188e-05
0.00131931
2.43464e-05
3.72453e-05
0.001523
5.71707e-05
-0.000177845
0.00171502
0.000331006
-0.000264748
0.00175678
0.000407945
-7.78787e-05
0.00158541
0.000452409
0.000109837
0.00150316
0.00046407
2.58281e-05
0.0014458
0.000499772
-1.59511e-06
0.00139484
0.000545994
-1.47849e-05
0.00131059
0.00060023
6.34008e-06
0.00113601
0.000684635
7.26166e-05
0.00076283
0.000818631
0.000224763
0.00105573
0.000499249
0.00162351
-1.08386e-08
5.8779e-05
0.00157663
1.79754e-08
4.68753e-05
0.00153802
-2.77631e-09
3.86189e-05
0.00150612
-8.77834e-09
3.19028e-05
0.001479
2.42859e-08
2.70964e-05
0.00145664
-5.21502e-08
2.24722e-05
0.00143662
1.0117e-07
1.97768e-05
0.00142095
-1.4536e-07
1.59152e-05
0.00140504
4.17556e-07
1.528e-05
0.00139067
7.47295e-07
1.35332e-05
0.00138062
1.25984e-06
9.03139e-06
0.00136653
2.48424e-06
1.40052e-05
0.0013742
8.15925e-06
-1.33096e-05
0.00135131
1.60957e-05
3.11152e-05
0.00149064
7.27572e-05
-0.000155028
0.00173091
0.000361459
-0.000272017
0.00175554
0.000460819
-7.7913e-05
0.00160033
0.000509253
9.81041e-05
0.00152241
0.00051651
2.54138e-05
0.00147021
0.000555297
-3.36474e-06
0.0014219
0.000605794
-1.1521e-05
0.00134049
0.000672568
9.02353e-06
0.00117194
0.000783981
6.91301e-05
0.000815136
0.000979782
0.000195517
0.0014406
0.000430304
0.00162339
5.88289e-05
6.72462e-08
0.00157666
4.68263e-05
-7.62876e-08
0.00153795
3.86503e-05
5.43796e-08
0.00150613
3.18845e-05
-6.7543e-08
0.001479
2.70893e-05
5.7108e-08
0.00145652
2.25131e-05
-7.88527e-08
0.00143685
1.9666e-05
9.30776e-08
0.00142058
1.6129e-05
-7.96494e-08
0.00140607
1.48064e-05
3.81282e-07
0.0013924
1.3278e-05
1.20927e-06
0.00138579
8.92619e-06
-2.17791e-06
0.00136202
1.35606e-05
1.33529e-05
0.0014037
-1.4529e-05
-1.87085e-05
0.00131899
3.2329e-05
6.81158e-05
0.00151402
-0.000162293
3.97795e-05
0.00174772
-0.000268629
0.000395347
0.00177
-7.16421e-05
0.000509716
0.00163049
8.41693e-05
0.000564283
0.0015519
2.65101e-05
0.000568512
0.00150729
-5.64437e-06
0.000605509
0.00146008
-6.00083e-06
0.000658924
0.00138805
8.68061e-06
0.000735837
0.00123738
5.92458e-05
0.000875308
0.000916373
0.00016232
0.00113838
0.000314275
0.00204269
0.00172978
-2.39176e-10
7.16723e-06
0.00176404
1.1645e-09
1.26517e-05
0.00178822
1.05865e-11
1.44076e-05
0.00180604
1.8859e-09
1.41138e-05
0.00181989
-3.40557e-10
1.32251e-05
0.00183054
1.99389e-09
1.18332e-05
0.0018394
-1.07131e-10
1.08989e-05
0.00184585
2.80699e-09
9.4749e-06
0.00185197
1.41844e-08
8.94524e-06
0.00185734
4.61363e-08
8.60692e-06
0.00185804
1.32608e-07
7.55565e-06
0.00186744
3.52016e-07
6.68097e-06
0.00184405
1.06977e-06
3.06536e-06
0.00189435
3.6614e-06
-7.85105e-06
0.00176614
1.65409e-05
-0.000114476
0.00154826
0.000194719
-0.000262783
0.00132401
0.000147204
0.000117381
0.00123321
0.000189683
5.03675e-05
0.000953934
0.000258847
6.64067e-05
0.00112509
0.000433842
-0.000659419
0.000783288
0.000305174
4.96257e-05
0.000468272
0.000222355
0.00014176
0.00013107
0.000224107
0.000235402
-0.000163929
0.000283087
0.000319676
0.000124412
0.000383758
0.00172977
1.30977e-09
7.16619e-06
0.00176404
1.58626e-09
1.26531e-05
0.00178822
1.07346e-09
1.44061e-05
0.00180604
1.99386e-09
1.41157e-05
0.00181989
-2.0578e-10
1.3222e-05
0.00183054
2.16938e-09
1.18383e-05
0.00183941
-4.93892e-11
1.0891e-05
0.00184585
9.13909e-09
9.47954e-06
0.001852
3.53462e-08
8.89975e-06
0.00185722
1.24009e-07
8.69941e-06
0.00185846
2.71673e-07
7.06143e-06
0.00186677
9.11487e-07
7.37486e-06
0.00184518
2.16479e-06
1.44122e-06
0.00189376
8.02488e-06
-7.63187e-06
0.00176626
3.20125e-05
-0.000109371
0.00161
0.000132345
-4.73928e-05
0.00135137
0.000318574
0.000105486
0.00129057
0.00036021
2.91898e-05
0.00117665
0.000393476
1.54184e-05
0.00116578
0.000444995
-2.03355e-08
0.000975222
0.000479306
4.95212e-06
0.00058033
0.000501091
0.000119708
0.000187958
0.00051601
0.000190662
-5.70543e-05
0.000537989
0.000270549
0.000381374
0.000347214
0.00172977
5.09538e-09
7.16674e-06
0.00176404
3.93751e-11
1.26516e-05
0.00178822
3.72034e-09
1.44072e-05
0.00180604
-8.91269e-10
1.41138e-05
0.00181989
8.80531e-10
1.32248e-05
0.00183054
1.3663e-09
1.18341e-05
0.00183941
-1.97927e-09
1.08983e-05
0.00184584
2.26404e-08
9.47321e-06
0.00185193
6.76221e-08
8.94137e-06
0.00185719
2.51373e-07
8.58526e-06
0.00185785
4.33227e-07
7.55367e-06
0.00186662
1.90069e-06
6.49018e-06
0.00184322
3.37443e-06
2.91356e-06
0.00189119
1.4211e-05
-9.05141e-06
0.00176336
5.23717e-05
-0.000116196
0.00150986
0.000430504
-0.000339856
0.00130615
0.000446347
9.4849e-05
0.00127492
0.000500862
2.36798e-05
0.00118711
0.000521456
-5.96894e-06
0.00116545
0.000532898
-5.76241e-05
0.000976455
0.000661384
-1.21916e-05
0.000596757
0.000751889
0.000117393
0.000213217
0.000795345
0.000181594
-3.72394e-05
0.000806501
0.000252018
0.000638775
0.000332911
0.00172976
8.71879e-09
7.1637e-06
0.00176405
-6.6223e-09
1.26554e-05
0.00178821
9.90111e-09
1.44036e-05
0.00180605
-1.18267e-08
1.41188e-05
0.00181988
1.50949e-08
1.32198e-05
0.00183056
-2.02764e-08
1.18399e-05
0.00183939
2.90259e-08
1.08907e-05
0.00184579
1.71484e-08
9.47872e-06
0.00185175
2.24304e-07
8.89876e-06
0.00185697
8.8912e-08
8.6825e-06
0.00185623
2.2517e-06
7.13693e-06
0.00186637
2.29202e-07
7.11499e-06
0.00183853
9.58497e-06
1.54417e-06
0.00188808
1.6732e-05
-9.14269e-06
0.00176858
6.26922e-05
-0.000108083
0.00155741
0.000489288
-0.000118381
0.00131389
0.000603837
8.71902e-05
0.00125613
0.000662059
2.49334e-05
0.00106557
0.0007315
7.2605e-06
0.00110175
0.000934008
-0.00046849
0.000897991
0.000875617
-2.38961e-05
0.00057305
0.000961674
0.000110677
0.00021923
0.00104952
0.000173455
-1.94295e-05
0.0010739
0.000237075
0.000895599
0.000324344
0.00172975
-5.13716e-09
7.15985e-06
0.00176405
7.04767e-09
1.26607e-05
0.00178821
-7.20886e-09
1.43977e-05
0.00180605
9.75734e-09
1.41269e-05
0.00181987
-1.49723e-08
1.32109e-05
0.00183058
2.14693e-08
1.18448e-05
0.00183935
-3.08172e-08
1.08892e-05
0.00184613
3.71982e-08
9.42477e-06
0.00185239
-6.25289e-08
8.81236e-06
0.00185508
5.35065e-07
9.12389e-06
0.0018688
-9.89614e-07
4.72735e-06
0.00184862
4.76839e-06
1.17344e-05
0.00188996
1.59719e-06
-8.84229e-06
0.0018129
2.80543e-05
7.101e-06
0.00178028
0.000121129
-0.000102845
0.00153137
0.000544806
-0.000105048
0.00131036
0.000736804
8.16087e-05
0.00126144
0.000811186
2.30691e-05
0.00112905
0.0008958
-4.43546e-06
0.00111695
0.00100858
-7.15269e-05
0.000918963
0.0010961
-3.50967e-05
0.00058985
0.00119482
9.54545e-05
0.000245252
0.00130746
0.000160538
1.25176e-05
0.00134429
0.000223679
0.00117783
0.000313912
0.00172976
4.43498e-09
7.16122e-06
0.00176405
-1.0364e-08
1.26592e-05
0.00178822
6.83967e-09
1.44003e-05
0.00180606
-1.46101e-08
1.41228e-05
0.00181987
1.77745e-08
1.3217e-05
0.00183059
-2.64941e-08
1.18397e-05
0.00183935
4.37925e-08
1.0894e-05
0.00184587
-1.83897e-08
9.4536e-06
0.00185184
1.9569e-07
8.87514e-06
0.001857
1.13104e-07
8.68266e-06
0.00185427
2.53807e-06
7.24947e-06
0.00186654
5.27846e-07
6.84387e-06
0.00183193
1.36105e-05
1.78769e-06
0.00188905
2.23318e-05
-1.03813e-05
0.00178256
0.00011584
-8.84719e-05
0.00156692
0.000757044
-0.000277747
0.00131241
0.000885454
7.40685e-05
0.00127491
0.000951652
1.84095e-05
0.00114834
0.00105881
-1.17709e-05
0.00111589
0.00121621
-0.000184803
0.000929491
0.00131008
-4.28827e-05
0.000620038
0.00142524
7.95327e-05
0.000292696
0.00156179
0.000147488
5.94529e-05
0.00162227
0.000210298
0.00150321
0.000298329
0.00172976
-1.41842e-08
7.15982e-06
0.00176405
7.78454e-09
1.26614e-05
0.00178821
-1.42185e-08
1.43973e-05
0.00180605
1.47049e-08
1.41269e-05
0.00181987
-1.85034e-08
1.32121e-05
0.00183057
2.84151e-08
1.18405e-05
0.00183934
-2.88923e-08
1.08964e-05
0.0018461
3.70365e-08
9.42141e-06
0.00185216
-3.83011e-08
8.87204e-06
0.00185503
5.10989e-07
9.04087e-06
0.00186766
-2.96379e-07
5.15881e-06
0.00184928
4.31671e-06
1.12354e-05
0.00188824
7.3761e-06
-8.57299e-06
0.00180859
3.03842e-05
1.21486e-05
0.00179683
0.00016226
-9.84458e-05
0.00157367
0.000799823
-0.000115177
0.00133373
0.00101213
6.33088e-05
0.00129592
0.00108171
1.95741e-05
0.00119514
0.00120196
-1.73807e-05
0.00112989
0.00137071
-9.05547e-05
0.000960965
0.00150776
-4.43831e-05
0.000676922
0.00164681
6.52642e-05
0.000365446
0.00181206
0.00013515
0.000121203
0.00191201
0.00019814
0.00188259
0.000279779
0.00172979
-7.33293e-09
7.16387e-06
0.00176404
-6.25491e-11
1.26573e-05
0.00178823
-3.04822e-09
1.44028e-05
0.00180604
1.40322e-09
1.41181e-05
0.00181989
2.57546e-09
1.32221e-05
0.00183056
1.71625e-11
1.18327e-05
0.00183938
1.24375e-08
1.09003e-05
0.00184585
1.09694e-08
9.45895e-06
0.00185194
1.00716e-07
8.89742e-06
0.00185681
4.25055e-07
8.7294e-06
0.00185691
1.20426e-06
7.04396e-06
0.00186394
3.55858e-06
7.98319e-06
0.00184522
1.14998e-05
-1.87316e-06
0.00187257
3.47588e-05
5.40633e-06
0.00179265
0.000160763
-9.75969e-05
0.00162971
0.000938406
-0.000242995
0.00136341
0.00114332
5.62879e-05
0.00132446
0.00121183
1.8228e-05
0.00123556
0.00133442
-1.79284e-05
0.00116265
0.00151582
-7.39624e-05
0.00100557
0.00168804
-3.82987e-05
0.000756622
0.00185171
5.01171e-05
0.000467413
0.00205331
0.000120288
0.000206284
0.00221395
0.000183551
0.00233522
0.000252632
0.00172981
2.78497e-11
7.16604e-06
0.00176402
6.11688e-09
1.26562e-05
0.00178824
-3.41346e-10
1.44021e-05
0.00180602
1.44336e-09
1.41178e-05
0.00181989
3.4314e-09
1.32197e-05
0.00183055
-6.9022e-09
1.18354e-05
0.0018394
2.22531e-08
1.08964e-05
0.00184587
5.82718e-09
9.46499e-06
0.00185218
2.02575e-07
8.87417e-06
0.00185674
5.64759e-07
8.80252e-06
0.00185814
1.99628e-06
6.80564e-06
0.00186325
3.78775e-06
8.57237e-06
0.00184963
1.51099e-05
-3.40117e-06
0.00186519
3.70039e-05
1.31325e-05
0.0017982
0.00017151
-9.97936e-05
0.00166133
0.00100196
-0.000201475
0.00140478
0.00127722
4.40641e-05
0.00135739
0.00133972
1.72463e-05
0.00128009
0.0014535
-1.65231e-05
0.00120967
0.00163961
-5.69025e-05
0.00107854
0.0018395
-3.2082e-05
0.000873744
0.00202763
3.77137e-05
0.000626365
0.00226993
9.97144e-05
0.000350347
0.00252436
0.000160804
0.00289997
0.000215647
0.00172984
7.16406e-06
2.97617e-08
0.00176402
1.26615e-05
-1.40922e-08
0.00178826
1.43957e-05
1.27055e-08
0.00180602
1.41296e-05
-1.23888e-09
0.00181993
1.32032e-05
-1.53411e-08
0.00183054
1.18519e-05
3.9209e-08
0.00183942
1.08859e-05
-8.2693e-08
0.00184589
9.44951e-06
2.20607e-07
0.00185204
9.00022e-06
-1.44218e-07
0.0018551
8.65483e-06
2.1254e-06
0.00186146
7.15169e-06
-2.62124e-06
0.00185373
7.49532e-06
1.75108e-05
0.00186972
-8.80328e-07
-1.45911e-05
0.00183901
9.29419e-06
9.04924e-05
0.00181416
-8.95743e-05
0.000122697
0.00168093
-0.0002064
0.00107058
0.00143828
3.09242e-05
0.00141588
0.00139904
1.50886e-05
0.00144778
0.00133765
-1.50111e-05
0.00155638
0.00126949
-4.23727e-05
0.00174432
0.00118477
-3.05179e-05
0.00194844
0.00101867
3.11514e-05
0.00217088
0.000811895
8.16421e-05
0.00245397
0.000604977
0.000120183
0.00277304
0.000154537
0.00366442
0.00169386
6.99584e-10
-7.16468e-06
0.00171917
1.93651e-10
-1.26528e-05
0.00174798
6.12868e-10
-1.44048e-05
0.00177621
4.61628e-10
-1.4115e-05
0.00180266
-5.22784e-10
-1.32236e-05
0.00182632
2.64482e-09
-1.18341e-05
0.00184812
-3.77742e-09
-1.0897e-05
0.00186707
1.17966e-08
-9.48429e-06
0.00188496
-2.93255e-09
-8.94746e-06
0.00190206
1.12508e-07
-8.62404e-06
0.00191728
-9.88384e-08
-7.56113e-06
0.00192983
7.19443e-07
-6.6862e-06
0.00193603
1.59466e-08
-3.20809e-06
0.00191759
2.84725e-06
7.52734e-06
0.00168375
1.06232e-05
0.000107482
0.00116809
0.000175299
7.34485e-05
0.00117519
0.000227237
-0.000118104
0.000992739
0.000271591
-3.93591e-05
0.000821042
0.000264152
-2.64479e-05
-6.1771e-05
0.000247036
-2.41224e-05
-0.000301108
0.000319504
-3.12571e-05
-0.000455667
0.000420657
-0.000124674
-0.00046695
0.000457124
-0.000210866
-0.000338409
0.000507352
-0.000316599
0.000448855
-0.000403901
0.00169386
6.01333e-10
-7.1611e-06
0.00171917
4.83793e-10
-1.26576e-05
0.00174797
7.95118e-10
-1.43995e-05
0.00177621
7.08507e-10
-1.41224e-05
0.00180265
8.26442e-10
-1.32163e-05
0.00182633
-1.46948e-09
-1.18368e-05
0.00184811
4.56379e-09
-1.08981e-05
0.00186703
-4.97244e-09
-9.42088e-06
0.00188471
4.39754e-08
-8.82723e-06
0.00190256
2.0729e-08
-9.08386e-06
0.00191416
4.83296e-07
-5.11141e-06
0.0019332
3.42783e-07
-1.13915e-05
0.00192454
3.02441e-06
7.03992e-06
0.00192024
7.61441e-06
-8.30983e-06
0.00168151
4.24857e-05
9.62248e-05
0.00114007
0.000277702
0.000387562
0.00115564
0.000408262
-9.22643e-05
0.000994317
0.000500397
-3.89046e-05
0.000797881
0.000526282
-5.0697e-05
-9.07835e-05
0.000499923
0.000635299
-0.000412366
0.000663092
-1.76269e-05
-0.000511489
0.000745538
-0.000106391
-0.000489575
0.000815355
-0.000189934
-0.000317199
0.000876718
-0.000271602
0.000819612
-0.00034113
0.00169386
1.51181e-09
-7.16196e-06
0.00171917
1.58873e-10
-1.26563e-05
0.00174798
1.22279e-09
-1.44013e-05
0.00177621
6.40493e-11
-1.41197e-05
0.00180266
-5.97366e-10
-1.32204e-05
0.00182632
1.68556e-09
-1.18349e-05
0.00184813
-2.44306e-09
-1.08997e-05
0.00186704
1.44149e-08
-9.4638e-06
0.00188493
2.58626e-08
-8.92542e-06
0.00190192
2.25782e-07
-8.62754e-06
0.00191737
2.20603e-07
-7.63439e-06
0.00192898
1.67206e-06
-6.54661e-06
0.00193565
2.76445e-06
-3.55297e-06
0.0019132
1.26086e-05
8.18828e-06
0.00167991
5.9364e-05
9.89495e-05
0.00114533
0.00040574
6.27164e-05
0.00113728
0.000602158
-9.2162e-05
0.000975812
0.000717809
-3.29054e-05
0.00075231
0.000771957
-2.86155e-05
-6.57846e-05
0.000824169
0.000435698
-0.000408471
0.000981392
1.14166e-05
-0.000494196
0.00105493
-0.00010659
-0.000466567
0.00115011
-0.000181253
-0.000313112
0.00122201
-0.000247168
0.00114865
-0.000309615
0.00169385
1.16744e-09
-7.15818e-06
0.00171917
-3.99308e-10
-1.26613e-05
0.00174797
8.42819e-10
-1.4396e-05
0.00177622
-7.33867e-10
-1.41273e-05
0.00180265
-7.62164e-10
-1.32125e-05
0.00182633
1.46315e-09
-1.18399e-05
0.00184812
-1.76459e-09
-1.08974e-05
0.00186701
1.87258e-08
-9.41867e-06
0.00188471
4.67592e-08
-8.82462e-06
0.00190232
3.06596e-07
-9.02645e-06
0.0019144
4.23223e-07
-5.13989e-06
0.00193185
2.33864e-06
-1.10987e-05
0.00192426
4.63729e-06
7.19493e-06
0.00191597
1.93774e-05
-7.82366e-06
0.00167257
9.56885e-05
9.77179e-05
0.00116016
0.000675529
0.000120384
0.00111928
0.000814083
-8.49793e-05
0.000966668
0.000924666
-2.9928e-05
0.000743339
0.00100856
-6.41088e-06
-2.07507e-05
0.00106407
5.51446e-05
-0.000355849
0.0012633
2.85363e-05
-0.00043937
0.00135855
-0.000109762
-0.000423031
0.00147926
-0.000172518
-0.000293534
0.00155908
-0.000229934
0.00147878
-0.0002997
0.00169385
-1.13131e-09
-7.15604e-06
0.00171918
-5.25112e-11
-1.26651e-05
0.00174797
-1.23249e-09
-1.43927e-05
0.00177623
-6.30726e-11
-1.41327e-05
0.00180264
-5.44169e-10
-1.32063e-05
0.00182634
-8.67828e-10
-1.18479e-05
0.00184811
5.8029e-09
-1.08872e-05
0.00186697
8.26444e-09
-9.42739e-06
0.00188452
9.45824e-08
-8.78578e-06
0.00190276
2.63405e-07
-9.08359e-06
0.00191159
1.01555e-06
-4.7061e-06
0.00193485
2.41337e-06
-1.16834e-05
0.00191363
8.25942e-06
8.68892e-06
0.0019201
2.83586e-05
-8.5577e-06
0.00168608
0.000141917
8.36889e-05
0.00114984
0.000834578
0.000268319
0.00111918
0.00100242
-7.71645e-05
0.000969285
0.00112336
-2.62958e-05
0.000735649
0.00123845
-1.1209e-06
8.25603e-05
0.00135702
0.000288104
-0.0002627
0.00154079
3.18427e-05
-0.000364872
0.00165656
-0.000100764
-0.000366547
0.00180138
-0.000160381
-0.000261294
0.00189464
-0.000217587
0.00182485
-0.000293841
0.00169385
-2.78028e-09
-7.1584e-06
0.00171917
-1.60546e-11
-1.2662e-05
0.00174797
-2.54189e-09
-1.43957e-05
0.00177622
-1.46558e-10
-1.41286e-05
0.00180265
-4.90628e-10
-1.32104e-05
0.00182633
9.00617e-10
-1.18422e-05
0.00184812
4.53381e-09
-1.08958e-05
0.00186698
2.10017e-08
-9.41812e-06
0.00188472
8.34776e-08
-8.85467e-06
0.00190219
4.58024e-07
-8.99693e-06
0.0019148
9.04835e-07
-5.2479e-06
0.00193102
3.83492e-06
-1.08905e-05
0.0019246
9.21814e-06
7.178e-06
0.00191327
3.66011e-05
-7.51088e-06
0.00169553
0.000178577
9.13874e-05
0.00115898
0.000989404
0.00010008
0.00112508
0.00118195
-7.27634e-05
0.000981429
0.00130822
-2.3349e-05
0.000747664
0.00145003
1.01027e-05
0.000208694
0.0016228
8.80466e-05
-0.000140822
0.00180917
3.76088e-05
-0.0002698
0.00194986
-8.52247e-05
-0.000291519
0.002117
-0.000146871
-0.000212658
0.00223162
-0.000205997
0.00219385
-0.000283713
0.00169385
-4.13002e-09
-7.16214e-06
0.00171917
1.81797e-10
-1.26571e-05
0.00174797
-3.11477e-09
-1.4402e-05
0.00177622
7.46993e-10
-1.41192e-05
0.00180265
6.54866e-10
-1.32202e-05
0.00182633
8.42881e-10
-1.18371e-05
0.00184811
9.8714e-09
-1.08939e-05
0.00186699
1.86791e-08
-9.45802e-06
0.0018847
1.1818e-07
-8.86485e-06
0.00190241
4.82586e-07
-8.71383e-06
0.00191418
1.28703e-06
-6.98939e-06
0.00193252
4.13418e-06
-7.50096e-06
0.00192122
1.17261e-05
1.48982e-07
0.00192306
4.27432e-05
4.0126e-06
0.00170683
0.000205693
8.94118e-05
0.00118181
0.00114421
0.000251618
0.00113643
0.00135581
-6.62855e-05
0.00100276
0.00148147
-2.06508e-05
0.000773166
0.00164719
1.46908e-05
0.00034161
0.00187578
8.77874e-05
-7.41849e-06
0.00207409
3.88925e-05
-0.000151017
0.00222818
-6.99611e-05
-0.000188033
0.00242313
-0.000134466
-0.000141372
0.00257595
-0.000193425
0.00260017
-0.000268332
0.00169386
-3.67968e-09
-7.16577e-06
0.00171917
1.84259e-09
-1.26532e-05
0.00174798
-2.0447e-09
-1.44059e-05
0.00177621
2.16593e-09
-1.41134e-05
0.00180265
2.08333e-09
-1.32259e-05
0.00182631
1.77387e-09
-1.18303e-05
0.00184811
1.18783e-08
-1.09006e-05
0.00186703
2.74659e-08
-9.46316e-06
0.00188482
1.20224e-07
-8.89998e-06
0.00190204
6.79432e-07
-8.70053e-06
0.00191619
1.14935e-06
-6.97095e-06
0.00193083
5.41887e-06
-8.0322e-06
0.00192644
1.19362e-05
2.2357e-06
0.00193125
4.96599e-05
-6.38766e-06
0.00172248
0.00021396
0.000101739
0.00120226
0.00125263
0.00016433
0.00115579
0.00151591
-5.82062e-05
0.00102989
0.00164521
-1.99745e-05
0.000820601
0.00182251
1.56693e-05
0.00046538
0.00208581
7.10489e-05
0.00015053
0.00231539
3.43482e-05
-4.27391e-06
0.00248625
-5.36241e-05
-5.82949e-05
0.0027165
-0.000119524
-3.91878e-05
0.00291845
-0.00017843
0.00305683
-0.000243619
0.00169386
2.09409e-10
-7.16704e-06
0.00171917
5.97295e-09
-1.26547e-05
0.00174797
-4.6167e-09
-1.44035e-05
0.0017762
1.18348e-08
-1.41149e-05
0.00180265
-1.10861e-08
-1.32212e-05
0.0018263
1.66949e-08
-1.18337e-05
0.0018481
6.02529e-09
-1.08966e-05
0.00186704
1.25965e-08
-9.46171e-06
0.00188457
3.38594e-07
-8.86611e-06
0.00190247
3.65208e-07
-8.80362e-06
0.00191467
2.58167e-06
-6.82591e-06
0.00193447
2.68674e-06
-8.57838e-06
0.00191938
2.0228e-05
3.30449e-06
0.00195765
3.76767e-05
-1.30991e-05
0.00175003
0.000220374
0.000100135
0.00124839
0.00133006
0.000219203
0.00117554
0.00167689
-4.50852e-05
0.00106396
0.0017921
-1.81905e-05
0.00087803
0.00197677
1.50562e-05
0.000590608
0.00226133
5.48594e-05
0.000324949
0.00251859
2.93988e-05
0.000173606
0.00271573
-4.07982e-05
0.0001105
0.00297832
-9.93711e-05
0.000108089
0.00323653
-0.000155426
0.0035888
-0.000208767
0.00169385
-7.1643e-06
8.64242e-09
0.00171917
-1.26601e-05
6.26361e-09
0.00174797
-1.43958e-05
-1.10362e-08
0.0017762
-1.41277e-05
3.62756e-08
0.00180266
-1.32036e-05
-6.67947e-08
0.00182626
-1.18515e-05
1.26346e-07
0.00184824
-1.08857e-05
-2.06835e-07
0.00186672
-9.45072e-06
4.38616e-07
0.00188549
-8.9952e-06
-4.39222e-07
0.0019012
-8.65666e-06
1.9492e-06
0.00192153
-7.15785e-06
-3.43702e-06
0.0019204
-7.51929e-06
1.87412e-05
0.00195348
7.94683e-07
-1.46449e-05
0.00192382
-9.37755e-06
8.576e-05
0.00179633
8.90352e-05
0.000167929
0.00129925
0.000207938
0.00140932
0.00119259
-3.09375e-05
0.00184441
0.00109756
-1.51868e-05
0.00191698
0.000946357
1.40431e-05
0.00209886
0.000726769
4.08828e-05
0.0023977
0.000509191
2.86139e-05
0.00267646
0.00038736
-3.31093e-05
0.00290135
0.000343805
-8.16301e-05
0.00318469
0.000332761
-0.000116243
0.0034836
-0.000149633
0.0042254
0.00172975
8.9625e-09
-5.87229e-05
0.00176404
-7.63923e-09
-4.69333e-05
0.00178821
9.9182e-09
-3.85774e-05
0.00180604
-1.18183e-08
-3.19424e-05
0.00181988
1.4533e-08
-2.70697e-05
0.00183055
-1.78227e-08
-2.2489e-05
0.00183939
2.19994e-08
-1.97638e-05
0.00184575
2.25066e-08
-1.58677e-05
0.00185161
1.8134e-07
-1.49795e-05
0.00185687
-1.23644e-07
-1.37902e-05
0.0018557
1.74254e-06
-8.12852e-06
0.00186611
-1.30655e-06
-1.5884e-05
0.00183719
4.99341e-06
2.06689e-05
0.00188718
1.07142e-06
-4.35553e-05
0.00176954
-1.11019e-05
0.000235111
0.00161733
-3.58992e-05
0.000259206
0.00136883
0.000156745
-2.72643e-05
0.00131319
0.000161321
-0.000145441
0.00124167
9.29494e-05
-4.81085e-05
0.00126269
-2.52136e-05
-2.01545e-05
0.00113574
9.82848e-05
-2.80769e-06
0.00081392
0.000211546
-1.4608e-05
0.000412611
0.000279297
-8.90186e-05
6.47264e-05
0.000319534
-0.00028841
0.000330033
-0.000669369
0.00172974
-3.0018e-09
-5.8684e-05
0.00176405
7.66656e-09
-4.6979e-05
0.0017882
-4.30726e-09
-3.85342e-05
0.00180605
9.19163e-09
-3.19942e-05
0.00181986
-1.10239e-08
-2.70043e-05
0.00183058
1.46213e-08
-2.2586e-05
0.00183934
-2.37314e-08
-1.96142e-05
0.00184616
-6.32542e-09
-1.62094e-05
0.00185253
-1.36397e-07
-1.48761e-05
0.0018553
3.14873e-07
-1.23155e-05
0.00186875
-1.41777e-06
-1.54023e-05
0.00184899
2.90414e-06
4.06991e-06
0.00188883
-2.36123e-06
-2.55237e-05
0.00181453
9.86369e-06
5.72294e-05
0.00176402
5.2816e-05
8.16352e-05
0.00143825
0.000337799
0.000337183
0.00127749
0.000275274
-5.10186e-05
0.00120582
0.000326017
-0.000132456
0.000926872
0.000359465
-3.85982e-05
0.00107281
0.000416801
4.69909e-05
0.000778514
0.000388967
-1.43747e-05
0.000512265
0.000412315
-4.12634e-05
0.000187994
0.000510442
-9.7079e-05
-7.42403e-05
0.000599999
-0.000290011
0.000552477
-0.000637956
0.00172975
8.60615e-09
-5.87167e-05
0.00176405
-6.43137e-09
-4.69413e-05
0.0017882
8.94284e-09
-3.85684e-05
0.00180606
-1.05219e-08
-3.19556e-05
0.00181987
1.20674e-08
-2.7052e-05
0.00183058
-1.70263e-08
-2.25156e-05
0.00183937
2.04884e-08
-1.97318e-05
0.00184582
1.32452e-08
-1.59346e-05
0.00185168
1.74307e-07
-1.50938e-05
0.00185699
-6.68827e-08
-1.35773e-05
0.00185398
1.87958e-06
-7.91806e-06
0.00186627
-8.0172e-07
-1.52158e-05
0.00183065
7.0793e-06
2.2559e-05
0.00188053
9.19675e-06
-4.10337e-05
0.00176353
3.32467e-05
0.000234398
0.00155712
0.00033907
0.000265569
0.00130404
0.000452538
-1.72729e-05
0.00121094
0.000511396
-0.000125639
0.000979184
0.000586535
-2.41814e-05
0.00105717
0.000725458
4.8723e-05
0.00078658
0.000667911
2.72104e-06
0.000454263
0.000662864
-2.51996e-05
0.000110687
0.00076308
-9.06153e-05
-0.000109904
0.00085345
-0.000280246
0.000745487
-0.000612629
0.00172974
2.17357e-09
-5.86794e-05
0.00176406
-1.05001e-09
-4.69852e-05
0.0017882
1.45419e-09
-3.85282e-05
0.00180606
-3.16896e-09
-3.20032e-05
0.00181986
8.97575e-10
-2.69955e-05
0.0018306
-3.10025e-09
-2.25976e-05
0.00183933
3.06048e-10
-1.9609e-05
0.00184613
9.0258e-09
-1.62147e-05
0.00185239
3.60268e-08
-1.49455e-05
0.0018555
2.34487e-07
-1.24485e-05
0.00186752
4.26787e-07
-1.57083e-05
0.0018504
1.9818e-06
3.14617e-06
0.00188642
4.39666e-06
-2.62175e-05
0.00181141
1.80571e-05
5.83594e-05
0.00178239