/*--------------------------------*- C++ -*----------------------------------*\
  =========                 |
  \\      /  F ield         | OpenFOAM: The Open Source CFD Toolbox
   \\    /   O peration     | Website:  https://openfoam.org
    \\  /    A nd           | Version:  6
     \\/     M anipulation  |
\*---------------------------------------------------------------------------*/
FoamFile
{
    version     2.0;
    format      ascii;
    class       volScalarField;
    location    "3";
    object      T;
}
// * * * * * * * * * * * * * * * * * * * * * * * * * * * * * * * * * * * * * //

dimensions      [0 0 0 1 0 0 0];

internalField   nonuniform List<scalar> 
26250
(
0.98016
0.967338
0.955919
0.946551
0.937857
0.930967
0.924405
0.920465
0.919884
0.927294
0.942252
1.00832
1.12903
1.58933
2.50529
2.70621
2.66659
2.63488
2.59719
2.61042
2.61701
2.63635
2.67301
2.72774
2.72514
0.980166
0.967331
0.955925
0.946544
0.937863
0.930961
0.924409
0.920447
0.919871
0.927204
0.942063
1.00775
1.12791
1.5858
2.49864
2.69609
2.65625
2.62429
2.58922
2.58942
2.60143
2.62871
2.65957
2.72008
2.71159
0.980181
0.967315
0.95594
0.946529
0.937878
0.930946
0.924416
0.920392
0.919821
0.927033
0.941596
1.0069
1.1252
1.58291
2.49445
2.70241
2.66445
2.63006
2.596
2.5954
2.60877
2.63751
2.66979
2.72952
2.72053
0.980324
0.967171
0.956087
0.946384
0.938018
0.930806
0.92451
0.920123
0.919642
0.926697
0.939163
1.00554
1.11958
1.57775
2.48375
2.69062
2.65248
2.62386
2.59093
2.5973
2.61023
2.63849
2.67203
2.73358
2.7359
0.980713
0.966776
0.956496
0.945961
0.938461
0.930336
0.925052
0.919702
0.92136
0.921416
0.945682
0.982803
1.14979
1.55868
2.3416
2.65989
2.6235
2.60052
2.5715
2.5751
2.59051
2.62247
2.65929
2.72547
2.73393
0.980174
0.967327
0.955924
0.946538
0.937868
0.930976
0.924347
0.920351
0.919676
0.925827
0.935249
1.00126
1.10606
1.55919
2.44169
2.66268
2.63406
2.60217
2.56929
2.57048
2.58415
2.61404
2.64954
2.71642
2.72932
0.980706
0.966788
0.956485
0.945972
0.938449
0.930342
0.925025
0.919606
0.920791
0.920892
0.943693
0.978051
1.13755
1.51639
2.28608
2.62326
2.61314
2.58386
2.556
2.55664
2.57101
2.59987
2.63749
2.70408
2.72311
0.979936
0.967566
0.955691
0.946778
0.937624
0.931197
0.924118
0.920501
0.919382
0.924922
0.934898
0.994927
1.09039
1.52239
2.38484
2.61699
2.6109
2.58003
2.54756
2.54665
2.55922
2.58603
2.62013
2.68873
2.70786
0.979756
0.967756
0.955483
0.946976
0.93744
0.931367
0.923935
0.9209
0.918982
0.924429
0.935044
0.99049
1.08246
1.48692
2.32422
2.59295
2.59156
2.56792
2.53708
2.53337
2.54328
2.56483
2.59367
2.65949
2.67302
0.979013
0.968508
0.954737
0.947756
0.936661
0.932171
0.923143
0.921423
0.91794
0.923198
0.931933
0.98571
1.06949
1.4659
2.28502
2.56772
2.57434
2.5539
2.52871
2.5231
2.5309
2.54367
2.56133
2.60095
2.57888
1.01422
1.02102
1.02631
1.02896
1.03185
1.03303
1.03512
1.03686
1.04447
1.05636
1.09291
1.18035
1.3889
1.95534
2.82451
2.721
2.79296
2.75568
2.75582
2.76518
2.7715
2.78577
2.82544
2.82792
2.76401
1.01422
1.02102
1.02631
1.02896
1.03185
1.03303
1.03512
1.03686
1.04443
1.0563
1.09271
1.17997
1.38792
1.94851
2.82312
2.7258
2.78809
2.74819
2.74284
2.75287
2.76564
2.77495
2.80879
2.83668
2.76878
1.01422
1.02102
1.02631
1.02896
1.03185
1.03303
1.03511
1.03684
1.04436
1.05612
1.09234
1.17878
1.38561
1.94347
2.82172
2.72096
2.78987
2.74866
2.74149
2.74972
2.76509
2.77144
2.79372
2.83468
2.7718
1.01423
1.02102
1.02632
1.02896
1.03185
1.03303
1.0351
1.03679
1.04422
1.05581
1.09183
1.17671
1.38244
1.93136
2.81698
2.72763
2.78626
2.74363
2.74073
2.74951
2.76281
2.76775
2.78493
2.82935
2.77131
1.01419
1.02107
1.02627
1.02902
1.0318
1.03309
1.03502
1.03671
1.0434
1.05632
1.08643
1.18295
1.3693
1.9197
2.81785
2.73459
2.78635
2.74004
2.73646
2.74252
2.75551
2.76028
2.77165
2.81606
2.76801
1.01421
1.02103
1.0263
1.02897
1.03183
1.03304
1.03506
1.03669
1.04382
1.05487
1.09003
1.17008
1.37054
1.8831
2.80373
2.73046
2.78085
2.73126
2.72767
2.73267
2.74333
2.74872
2.76029
2.80324
2.76004
1.01419
1.02107
1.02626
1.02902
1.03179
1.03308
1.035
1.03663
1.04306
1.05517
1.08417
1.17572
1.35144
1.8688
2.8061
2.73913
2.76894
2.72629
2.71991
2.72258
2.73155
2.73142
2.73803
2.77853
2.74186
1.01419
1.02104
1.02629
1.02897
1.03182
1.03304
1.03504
1.03659
1.0434
1.0537
1.08672
1.16481
1.34471
1.83741
2.784
2.7373
2.74516
2.71593
2.70928
2.71013
2.71381
2.71707
2.71504
2.74965
2.7155
1.01417
1.02106
1.02626
1.02899
1.03181
1.03304
1.03502
1.03654
1.04308
1.05294
1.0849
1.15969
1.33167
1.81221
2.76792
2.73961
2.72281
2.69483
2.69733
2.69687
2.69369
2.68837
2.68559
2.70398
2.65302
1.01409
1.02111
1.0262
1.02902
1.03176
1.03306
1.03497
1.03643
1.04255
1.0521
1.0818
1.155
1.31668
1.78423
2.746
2.74766
2.70289
2.66457
2.66929
2.67939
2.67574
2.66464
2.64117
2.64763
2.56909
1.00632
1.0127
1.02148
1.02803
1.03566
1.04065
1.04703
1.05164
1.06183
1.07768
1.12067
1.22381
1.45387
2.1074
2.87646
2.56197
2.78681
2.7623
2.76535
2.7299
2.81281
2.80891
2.81038
2.81047
2.77272
1.00634
1.01268
1.0215
1.028
1.03568
1.04063
1.04705
1.05161
1.06188
1.07746
1.12095
1.2221
1.45403
2.11002
2.87397
2.56495
2.78629
2.76005
2.76421
2.73101
2.80733
2.80549
2.80554
2.80718
2.76768
1.00632
1.0127
1.02148
1.02803
1.03565
1.04065
1.04703
1.05162
1.06173
1.07749
1.12012
1.22265
1.45071
2.10258
2.87096
2.57211
2.78423
2.75466
2.76084
2.73006
2.79908
2.7978
2.79563
2.79895
2.76015
1.00635
1.01268
1.0215
1.028
1.03568
1.04062
1.04705
1.05157
1.06169
1.07709
1.11991
1.21975
1.4479
2.09846
2.86539
2.58791
2.78679
2.75213
2.75812
2.72235
2.79307
2.79129
2.78779
2.79063
2.75236
1.00637
1.01265
1.02153
1.02798
1.03571
1.0406
1.04707
1.0515
1.06159
1.07656
1.11939
1.21598
1.44298
2.0864
2.8573
2.60187
2.78367
2.74641
2.75319
2.71516
2.77977
2.77633
2.77092
2.77244
2.73647
1.00636
1.01266
1.02152
1.02799
1.03569
1.04061
1.04704
1.05146
1.06129
1.0762
1.11771
1.21367
1.43373
2.06116
2.84784
2.62112
2.7792
2.73781
2.74628
2.70877
2.76467
2.76567
2.75879
2.75812
2.72227
1.00639
1.01263
1.02155
1.02796
1.03572
1.04057
1.04706
1.05138
1.06104
1.07544
1.11628
1.20811
1.42352
2.02758
2.83392
2.64114
2.77283
2.72724
2.7329
2.69887
2.74046
2.74379
2.73438
2.7279
2.69087
1.0064
1.01262
1.02156
1.02794
1.03573
1.04056
1.04706
1.0513
1.06067
1.07469
1.11424
1.20269
1.41064
1.98697
2.81327
2.66255
2.76266
2.71548
2.72276
2.68803
2.71695
2.72608
2.7105
2.70115
2.66001
1.00644
1.01257
1.0216
1.0279
1.03577
1.04051
1.04708
1.05117
1.06034
1.07362
1.11242
1.19453
1.39827
1.9204
2.80279
2.68496
2.75185
2.69661
2.70346
2.67469
2.68673
2.69535
2.67412
2.65212
2.58822
1.00636
1.01266
1.02151
1.02798
1.03569
1.04058
1.04699
1.05108
1.0597
1.07299
1.10915
1.19357
1.3788
1.87239
2.79848
2.69636
2.7272
2.68589
2.6871
2.65778
2.65987
2.66601
2.63635
2.59966
2.48747
1.01423
1.02101
1.02632
1.02895
1.03185
1.03303
1.03512
1.03684
1.04442
1.05624
1.09279
1.18001
1.38926
1.96023
2.8232
2.72592
2.79003
2.75231
2.74261
2.75244
2.76058
2.7775
2.79047
2.83043
2.78559
1.0142
1.02106
1.02628
1.02901
1.0318
1.03308
1.03504
1.03677
1.04367
1.0571
1.08809
1.18816
1.38103
1.97564
2.82505
2.71772
2.79739
2.76042
2.7591
2.77173
2.77669
2.79276
2.8062
2.82993
2.77199
1.01423
1.02101
1.02632
1.02896
1.03185
1.03303
1.0351
1.03681
1.04431
1.05598
1.09241
1.17825
1.3868
1.95624
2.81912
2.72562
2.78973
2.75048
2.7513
2.7618
2.7691
2.78752
2.80474
2.82554
2.76661
1.0142
1.02106
1.02628
1.02901
1.03181
1.03308
1.03504
1.03675
1.0436
1.05668
1.08745
1.1856
1.37562
1.94998
2.82081
2.73301
2.79183
2.7489
2.74398
2.75385
2.7644
2.77523
2.79969
2.82059
2.76261
1.0142
1.02106
1.02628
1.02901
1.03181
1.03308
1.03503
1.03672
1.04354
1.0563
1.08684
1.18316
1.37037
1.93039
2.81707
2.7321
2.79038
2.74546
2.74082
2.74721
2.75777
2.76466
2.78761
2.81007
2.75758
1.01419
1.02106
1.02627
1.02901
1.0318
1.03308
1.03502
1.03668
1.04333
1.05581
1.08571
1.17986
1.36279
1.89413
2.81007
2.73572
2.78514
2.73771
2.73338
2.73751
2.74617
2.75039
2.77273
2.79913
2.74933
1.01422
1.02102
1.02631
1.02897
1.03184
1.03304
1.03506
1.03665
1.04364
1.05441
1.08863
1.16764
1.35933
1.85634
2.79466
2.73263
2.76855
2.72811
2.72463
2.72832
2.73637
2.73431
2.74722
2.7764
2.73143
1.01422
1.02102
1.02631
1.02897
1.03183
1.03303
1.03505
1.03659
1.04343
1.05379
1.08666
1.16529
1.34423
1.83681
2.78451
2.73476
2.74
2.71224
2.71033
2.71246
2.71832
2.71906
2.72238
2.74961
2.70545
1.01415
1.02106
1.02625
1.02899
1.0318
1.03304
1.03502
1.03654
1.04309
1.05297
1.08498
1.15969
1.33188
1.81187
2.76726
2.74105
2.72079
2.69142
2.69615
2.69829
2.69725
2.69069
2.69138
2.70448
2.64428
1.01409
1.02111
1.0262
1.02902
1.03176
1.03306
1.03497
1.03644
1.04257
1.05213
1.08187
1.15511
1.31694
1.7841
2.74542
2.74757
2.70309
2.66166
2.66596
2.67828
2.67646
2.66698
2.64715
2.6501
2.5614
0.9803
0.967195
0.956069
0.946396
0.938006
0.930819
0.924489
0.920155
0.919666
0.927031
0.939775
1.00795
1.12429
1.59332
2.51176
2.70393
2.66323
2.63042
2.59434
2.59296
2.60299
2.63155
2.66311
2.72819
2.70693
0.98078
0.966706
0.956565
0.945888
0.93853
0.930268
0.925136
0.919741
0.921953
0.921973
0.94739
0.986573
1.16128
1.60772
2.37488
2.68859
2.64969
2.61886
2.58383
2.59688
2.60354
2.628
2.66103
2.72156
2.70309
0.980316
0.96718
0.956083
0.94639
0.938021
0.930808
0.924538
0.920254
0.919795
0.926683
0.937235
1.00656
1.11651
1.59297
2.50926
2.70314
2.6615
2.632
2.59645
2.60866
2.6163
2.63996
2.67559
2.73619
2.7291
0.980779
0.966708
0.956565
0.945893
0.938529
0.930278
0.925128
0.919796
0.921975
0.922435
0.946993
0.988189
1.15637
1.57537
2.34932
2.66637
2.62925
2.60419
2.57623
2.57986
2.59412
2.62602
2.66012
2.72649
2.73002
0.980757
0.966733
0.956543
0.945918
0.938504
0.930306
0.92509
0.919851
0.921833
0.923141
0.946299
0.987913
1.1512
1.54161
2.34484
2.66753
2.62966
2.60314
2.57455
2.57855
2.59168
2.62191
2.65719
2.72075
2.73319
0.980711
0.966779
0.956496
0.945964
0.938459
0.930342
0.925046
0.919758
0.92138
0.921899
0.94519
0.983342
1.14529
1.53071
2.31871
2.64249
2.61488
2.58881
2.5592
2.56054
2.57468
2.60463
2.64334
2.7071
2.73013
0.980355
0.967142
0.956121
0.94635
0.938057
0.930762
0.924562
0.920121
0.919671
0.925692
0.936631
0.998865
1.10043
1.54006
2.41452
2.64294
2.62567
2.59015
2.55784
2.55486
2.57017
2.59082
2.63375
2.6856
2.72075
0.980366
0.967126
0.956131
0.946333
0.938068
0.930742
0.924562
0.920006
0.919602
0.925182
0.936944
0.994755
1.09321
1.50979
2.37053
2.61711
2.61373
2.5849
2.55445
2.55067
2.5657
2.58383
2.62407
2.67296
2.70146
0.979542
0.96795
0.955265
0.947206
0.93722
0.931653
0.923749
0.921107
0.919096
0.924442
0.935006
0.990595
1.08237
1.4882
2.32548
2.59257
2.5906
2.56636
2.53865
2.53656
2.55077
2.56712
2.60142
2.65142
2.66474
0.979009
0.968507
0.954734
0.947759
0.936658
0.932176
0.92313
0.921468
0.918022
0.923387
0.931997
0.985827
1.06936
1.46632
2.28538
2.5676
2.57377
2.55232
2.52815
2.52358
2.53518
2.54613
2.56991
2.60686
2.57406
0.981082
0.966377
0.956857
0.945565
0.938823
0.929926
0.925346
0.918875
0.919227
0.919142
0.937283
0.96487
1.09792
1.37721
2.06998
2.51049
2.53705
2.51988
2.50443
2.50345
2.50841
2.5192
2.51867
2.51197
2.42244
0.97928
0.968253
0.955013
0.947493
0.936943
0.931877
0.923418
0.920794
0.916901
0.92137
0.928417
0.975197
1.05334
1.38296
2.13417
2.46199
2.49959
2.4861
2.47098
2.46591
2.46627
2.46678
2.45948
2.43541
2.34263
0.980993
0.966501
0.956786
0.945665
0.938764
0.929988
0.925253
0.918673
0.91798
0.917664
0.932564
0.954736
1.06847
1.2821
1.90645
2.41393
2.47549
2.46651
2.45795
2.44782
2.44143
2.43192
2.41307
2.37967
2.30035
0.979531
0.967979
0.95528
0.947194
0.93724
0.931541
0.923704
0.920167
0.916034
0.919267
0.926057
0.961729
1.03129
1.27615
1.9178
2.3277
2.42952
2.43499
2.42856
2.42097
2.41111
2.4002
2.37537
2.3417
2.27364
0.979703
0.967815
0.955445
0.947035
0.937397
0.931365
0.923862
0.919809
0.915451
0.918049
0.923216
0.952855
1.00612
1.20371
1.77542
2.2455
2.40121
2.40682
2.40162
2.389
2.37517
2.36042
2.33965
2.30289
2.25018
0.980458
0.96705
0.956238
0.946226
0.938215
0.93053
0.924661
0.91886
0.915723
0.915224
0.922483
0.936326
0.995809
1.10563
1.48145
2.09828
2.34683
2.36164
2.36269
2.35051
2.33429
2.3174
2.29554
2.26445
2.21687
0.980226
0.967294
0.955999
0.94648
0.937972
0.930781
0.924405
0.919016
0.915096
0.914755
0.919342
0.930336
0.975277
1.05692
1.38408
2.01866
2.29945
2.33615
2.33127
2.31786
2.29892
2.28031
2.25656
2.22487
2.18188
0.980902
0.966617
0.956685
0.945792
0.938656
0.930094
0.925073
0.918338
0.915707
0.914038
0.917067
0.926669
0.960731
1.03761
1.28261
1.89821
2.25574
2.32285
2.31871
2.30345
2.28176
2.26107
2.23687
2.2052
2.16545
0.981028
0.966469
0.95683
0.945626
0.938814
0.929918
0.925223
0.918124
0.915604
0.912683
0.915376
0.922625
0.948584
1.015
1.19201
1.74354
2.15197
2.28423
2.29238
2.28042
2.26424
2.23831
2.21595
2.18664
2.15127
0.980075
0.967446
0.955831
0.946657
0.937771
0.931001
0.92411
0.919212
0.914019
0.911905
0.91148
0.918966
0.932844
0.989274
1.09554
1.43815
1.98744
2.22143
2.2472
2.24993
2.23734
2.2151
2.19178
2.16583
2.13291
0.980687
0.966809
0.956466
0.94599
0.938426
0.930315
0.924777
0.918486
0.914597
0.91059
0.912196
0.912825
0.928618
0.958971
1.05518
1.31743
1.78607
2.13662
2.20221
2.21053
2.20405
2.18914
2.16757
2.14425
2.11817
0.979501
0.968022
0.95524
0.94725
0.937169
0.931608
0.923495
0.919786
0.913239
0.911627
0.909292
0.912141
0.919534
0.947587
1.01089
1.19417
1.69534
2.05778
2.17273
2.18381
2.17805
2.16264
2.13984
2.11629
2.0923
0.980494
0.967002
0.956275
0.94618
0.938241
0.930492
0.924604
0.918607
0.914335
0.910012
0.908745
0.908861
0.915859
0.934008
0.981987
1.10957
1.44019
1.90567
2.11615
2.14277
2.1478
2.13692
2.11759
2.09623
2.07211
0.98037
0.967135
0.956148
0.946316
0.938113
0.930624
0.92448
0.918713
0.914184
0.909848
0.907485
0.907151
0.911736
0.921504
0.958842
1.02307
1.28785
1.79106
2.0416
2.11023
2.11482
2.10938
2.09355
2.07126
2.04886
0.980662
0.966863
0.956427
0.946058
0.938376
0.93038
0.924726
0.918482
0.914399
0.909553
0.907329
0.906355
0.908481
0.915318
0.939997
0.990169
1.15491
1.59095
1.95204
2.08805
2.09854
2.09452
2.07912
2.05531
2.03095
0.980669
0.966839
0.95645
0.946017
0.938416
0.930328
0.924768
0.918432
0.914425
0.909459
0.907082
0.905127
0.906489
0.911535
0.924531
0.965723
1.05106
1.37374
1.77517
2.02462
2.07274
2.07309
2.06614
2.04718
2.01912
0.980578
0.966928
0.956349
0.946105
0.93833
0.930413
0.924669
0.918562
0.914276
0.909542
0.906609
0.903705
0.904699
0.906885
0.916092
0.942868
1.00217
1.17954
1.54101
1.92377
2.03936
2.05313
2.05083
2.03726
2.01333
0.980413
0.967085
0.95619
0.946269
0.938158
0.930576
0.92452
0.918684
0.914135
0.909684
0.906344
0.903355
0.902896
0.903681
0.909443
0.925594
0.967927
1.06345
1.34582
1.7577
1.96915
2.00956
2.01809
2.01521
2.00196
0.980424
0.967076
0.956203
0.946258
0.938166
0.93057
0.924528
0.918662
0.91417
0.909614
0.906357
0.902959
0.901553
0.901313
0.905284
0.914918
0.943355
1.0025
1.20225
1.62319
1.88526
1.97792
1.99011
1.98909
1.97894
0.980194
0.967311
0.955965
0.946503
0.937923
0.930822
0.924277
0.918916
0.91392
0.909856
0.906096
0.903071
0.900771
0.900666
0.902311
0.908722
0.924247
0.966616
1.06955
1.39316
1.75327
1.93295
1.96515
1.96617
1.96164
0.98057
0.966948
0.956344
0.946091
0.938349
0.930395
0.92467
0.918554
0.914258
0.9095
0.906453
0.902645
0.900899
0.899263
0.900271
0.903654
0.913197
0.940474
1.00242
1.18388
1.52918
1.84315
1.93874
1.95009
1.94922
0.980485
0.967021
0.956257
0.946207
0.938222
0.93052
0.924572
0.918626
0.914194
0.909584
0.906318
0.902772
0.900459
0.898276
0.898797
0.899624
0.906127
0.920516
0.965369
1.04812
1.31961
1.67364
1.87279
1.91595
1.92375
0.980344
0.967161
0.956116
0.946351
0.938077
0.930666
0.92443
0.918772
0.914051
0.909733
0.906173
0.90289
0.900281
0.89803
0.897319
0.897767
0.900994
0.910958
0.935074
0.990036
1.16503
1.52967
1.77891
1.88172
1.89662
0.980294
0.967209
0.956068
0.946398
0.938028
0.930713
0.924382
0.918814
0.914011
0.909765
0.906143
0.902901
0.900234
0.897827
0.896428
0.896315
0.89813
0.903891
0.9174
0.952562
1.03808
1.31069
1.62279
1.82485
1.87132
0.980479
0.967025
0.956256
0.946209
0.938215
0.930523
0.924573
0.918616
0.914205
0.909574
0.906321
0.902713
0.900414
0.897561
0.896281
0.895415
0.896088
0.899462
0.906211
0.929399
0.978019
1.10897
1.41514
1.71181
1.83141
0.980449
0.967058
0.956224
0.946244
0.938182
0.930559
0.924535
0.918661
0.91416
0.909618
0.90628
0.902764
0.900325
0.897631
0.895955
0.894485
0.894863
0.89627
0.900069
0.914385
0.941076
1.01474
1.20706
1.56637
1.75172
0.980334
0.967174
0.956105
0.946364
0.938061
0.930683
0.924412
0.918786
0.914037
0.909743
0.906158
0.90289
0.900199
0.897735
0.895761
0.89412
0.893638
0.894012
0.896397
0.903799
0.920809
0.961491
1.07195
1.36016
1.645
0.980284
0.96722
0.956057
0.946409
0.938015
0.930727
0.924368
0.918829
0.913995
0.909783
0.906119
0.902924
0.900168
0.897749
0.895719
0.893949
0.892899
0.892874
0.894034
0.898901
0.906454
0.937643
0.985539
1.17489
1.43798
0.9804
0.967104
0.956175
0.94629
0.938135
0.930605
0.924488
0.918706
0.914116
0.90966
0.90624
0.902802
0.900285
0.897628
0.895817
0.893785
0.892697
0.891992
0.892453
0.894519
0.898782
0.914112
0.942872
1.0263
1.20634
0.980393
0.967114
0.956167
0.9463
0.938125
0.930616
0.924478
0.918717
0.914105
0.909672
0.906228
0.902817
0.900268
0.89765
0.89578
0.893797
0.892477
0.891286
0.89153
0.892162
0.894734
0.903103
0.920171
0.964166
1.07912
0.980302
0.967206
0.956072
0.946397
0.938029
0.930716
0.924379
0.918819
0.914004
0.909776
0.906126
0.902921
0.900168
0.89775
0.895685
0.893874
0.892357
0.891117
0.890579
0.890764
0.892085
0.89669
0.9055
0.931997
0.986377
0.980242
0.967276
0.956001
0.946477
0.937951
0.930801
0.9243
0.918903
0.913927
0.909858
0.90605
0.903
0.900098
0.89782
0.895624
0.893929
0.89229
0.891059
0.890067
0.890051
0.890512
0.892891
0.897013
0.912848
0.940761
0.980386
0.96712
0.956159
0.946308
0.938117
0.930625
0.924468
0.918727
0.914095
0.909682
0.906218
0.902826
0.900261
0.897653
0.895778
0.893772
0.892422
0.890898
0.890012
0.889275
0.889513
0.890456
0.89281
0.901025
0.917118
0.980292
0.967217
0.95606
0.946409
0.938016
0.930729
0.924366
0.918832
0.913991
0.909789
0.906113
0.902933
0.900155
0.897762
0.89567
0.893882
0.89231
0.890994
0.889833
0.88902
0.888769
0.889118
0.890274
0.894926
0.902638
0.980281
0.967225
0.956052
0.946416
0.938009
0.930734
0.924361
0.918836
0.913988
0.909791
0.90611
0.902934
0.900153
0.897761
0.895671
0.893877
0.892316
0.890973
0.889831
0.888856
0.888268
0.888236
0.888848
0.891147
0.89538
0.980348
0.967156
0.956123
0.946344
0.938082
0.930661
0.924433
0.918763
0.914059
0.909719
0.906182
0.902862
0.900226
0.897689
0.895743
0.893805
0.892387
0.890902
0.88989
0.888762
0.888158
0.887776
0.88801
0.889166
0.891316
0.980339
0.967167
0.956111
0.946357
0.93807
0.930674
0.924422
0.918775
0.914048
0.909729
0.906169
0.902872
0.900211
0.897699
0.895727
0.893816
0.89237
0.890916
0.889866
0.88877
0.888063
0.887493
0.887625
0.888337
0.889733
0.980325
0.967177
0.956107
0.946359
0.938072
0.930672
0.924425
0.918772
0.914051
0.909727
0.906172
0.902871
0.900214
0.897698
0.895733
0.893813
0.892376
0.890913
0.889867
0.888764
0.888032
0.887335
0.88748
0.887866
0.889291
0.980304
0.96721
0.956073
0.946404
0.938029
0.930719
0.924382
0.918812
0.914017
0.909751
0.906153
0.90288
0.900206
0.897701
0.895725
0.89382
0.892364
0.890923
0.889857
0.888772
0.888017
0.887323
0.887403
0.887805
0.889085
0.980301
0.96721
0.95607
0.946406
0.938025
0.930725
0.924375
0.918824
0.914004
0.90977
0.906134
0.902901
0.90019
0.897714
0.895719
0.893823
0.892365
0.890923
0.889857
0.888771
0.888015
0.887322
0.887396
0.887809
0.889112
1.01385
1.02141
1.02592
1.02937
1.03143
1.03344
1.03456
1.03671
1.04035
1.05351
1.07828
1.13927
1.32345
1.7619
2.66474
2.74672
2.70246
2.65523
2.64688
2.64882
2.6464
2.63526
2.59378
2.55439
2.40188
1.01373
1.02147
1.02585
1.02939
1.03139
1.03344
1.03452
1.03657
1.04005
1.05072
1.07713
1.12753
1.31466
1.70017
2.58192
2.73381
2.69284
2.6627
2.6348
2.62755
2.61446
2.59616
2.5515
2.48823
2.3393
1.01398
1.02129
1.02605
1.02924
1.03156
1.0333
1.0346
1.0362
1.03936
1.0504
1.07233
1.12299
1.28973
1.64264
2.49683
2.70273
2.67058
2.65921
2.63203
2.60888
2.58816
2.56169
2.50756
2.44625
2.31748
1.01422
1.021
1.02632
1.02893
1.03185
1.03298
1.03488
1.03578
1.03909
1.04704
1.06977
1.10843
1.26688
1.57023
2.35423
2.65726
2.66223
2.64993
2.62679
2.59864
2.56163
2.53552
2.47953
2.42517
2.31697
1.01399
1.02122
1.0261
1.02914
1.03165
1.03315
1.03474
1.03588
1.03938
1.04572
1.06276
1.11234
1.20491
1.5408
2.32398
2.584
2.63968
2.62587
2.61439
2.59173
2.54588
2.50705
2.45064
2.40563
2.31827
1.01382
1.02142
1.02592
1.02935
1.03145
1.03338
1.03446
1.03597
1.03788
1.0453
1.05863
1.09331
1.19607
1.40468
2.08347
2.54193
2.63099
2.60929
2.58939
2.5754
2.53676
2.50094
2.42925
2.38467
2.31595
1.01367
1.02156
1.02578
1.02949
1.03132
1.0335
1.03432
1.03599
1.03739
1.04366
1.05365
1.08321
1.15921
1.32206
1.80022
2.43448
2.60049
2.59088
2.56339
2.54202
2.51315
2.48574
2.425
2.36518
2.30726
1.01402
1.02124
1.02611
1.02918
1.03164
1.0332
1.03465
1.0356
1.03747
1.04078
1.05106
1.07488
1.12635
1.27972
1.68753
2.35113
2.56791
2.564
2.5454
2.52708
2.49018
2.46793
2.42104
2.36167
2.30167
1.01402
1.02124
1.02611
1.02918
1.03164
1.03319
1.03462
1.0355
1.03694
1.03959
1.04767
1.06757
1.10597
1.24485
1.5166
2.21704
2.51552
2.53733
2.51803
2.50525
2.47423
2.44276
2.40813
2.3563
2.29888
1.01376
1.02146
1.02587
1.02939
1.03141
1.03339
1.03438
1.03565
1.03647
1.03859
1.04645
1.05923
1.09494
1.19439
1.40164
2.00687
2.43083
2.51784
2.50154
2.49129
2.46611
2.43259
2.40005
2.35402
2.30063
1.01387
1.02138
1.02595
1.02932
1.03147
1.03334
1.03442
1.03563
1.03643
1.03863
1.04251
1.05511
1.0814
1.14689
1.32046
1.82171
2.30827
2.4758
2.47262
2.45966
2.44453
2.41307
2.38173
2.34474
2.29909
1.01381
1.0214
1.02592
1.02932
1.03146
1.03332
1.03442
1.03558
1.03632
1.03792
1.04074
1.05047
1.06912
1.11835
1.2407
1.60461
2.15505
2.42171
2.4496
2.44198
2.43048
2.405
2.37229
2.33829
2.29586
1.01406
1.02118
1.02615
1.02912
1.03167
1.03313
1.03463
1.03536
1.03645
1.03721
1.04016
1.04571
1.05961
1.10131
1.17658
1.44573
2.06375
2.34032
2.40706
2.40557
2.39653
2.38405
2.35824
2.32756
2.2916
1.014
1.02124
1.02609
1.02918
1.03162
1.03319
1.03457
1.03541
1.0363
1.03704
1.03851
1.04381
1.05391
1.07879
1.15358
1.29705
1.74957
2.23258
2.37847
2.38147
2.37525
2.36121
2.34335
2.31655
2.28459
1.01387
1.02138
1.02597
1.02931
1.0315
1.03332
1.03444
1.03553
1.03617
1.03702
1.03795
1.04209
1.0483
1.06859
1.11443
1.214
1.51577
2.09372
2.31281
2.34587
2.34574
2.33452
2.31839
2.30226
2.27782
1.01381
1.02144
1.0259
1.02938
1.03143
1.03338
1.03437
1.0356
1.03609
1.03704
1.03771
1.04056
1.04473
1.06022
1.08972
1.16151
1.37306
1.89987
2.22908
2.32172
2.32175
2.31427
2.29645
2.27565
2.25524
1.01386
1.02138
1.02595
1.02932
1.03148
1.03333
1.03442
1.03555
1.03612
1.03695
1.0375
1.03929
1.04218
1.05298
1.07091
1.12642
1.24243
1.63882
2.06315
2.26253
2.28554
2.29375
2.28356
2.26558
2.24302
1.01399
1.02125
1.02608
1.02918
1.03161
1.03319
1.03456
1.0354
1.03626
1.03677
1.03747
1.03819
1.04124
1.04629
1.06067
1.09826
1.16988
1.41489
1.9485
2.19606
2.25066
2.25426
2.25243
2.24381
2.22793
1.01399
1.02125
1.02608
1.02919
1.03161
1.0332
1.03455
1.03541
1.03625
1.03677
1.03736
1.03786
1.03927
1.04438
1.05239
1.07628
1.13491
1.25874
1.62865
2.06551
2.22076
2.22962
2.22895
2.21858
2.20389
1.01399
1.02124
1.02609
1.02917
1.03162
1.03318
1.03457
1.03538
1.03627
1.03673
1.03737
1.03773
1.03859
1.04207
1.047
1.06321
1.10036
1.1748
1.42338
1.91155
2.15045
2.20734
2.20618
2.20156
2.18786
1.0139
1.02135
1.02599
1.02928
1.03152
1.03329
1.03446
1.0355
1.03616
1.03684
1.03725
1.0378
1.03832
1.04046
1.04357
1.05537
1.07565
1.13227
1.26845
1.66505
2.02565
2.17015
2.18165
2.18118
2.17097
1.01387
1.02137
1.02597
1.02931
1.03149
1.03331
1.03444
1.03552
1.03613
1.03687
1.03722
1.03779
1.03814
1.03933
1.04136
1.04869
1.06106
1.09795
1.17691
1.4041
1.82534
2.09612
2.15955
2.15921
2.15588
1.01388
1.02136
1.02597
1.02929
1.0315
1.0333
1.03445
1.03551
1.03615
1.03685
1.03723
1.03775
1.03802
1.03868
1.03995
1.04492
1.0522
1.07604
1.12579
1.24664
1.56582
1.94402
2.10983
2.13405
2.13392
1.01397
1.02126
1.02607
1.0292
1.0316
1.03321
1.03455
1.03541
1.03624
1.03675
1.03732
1.03764
1.03808
1.03837
1.03916
1.04221
1.04676
1.06075
1.09433
1.15969
1.37768
1.79803
2.02666
2.10589
2.11102
1.01396
1.02129
1.02605
1.02922
1.03158
1.03323
1.03452
1.03544
1.03622
1.03678
1.0373
1.03767
1.03804
1.03833
1.03878
1.04057
1.04321
1.05295
1.06928
1.11718
1.22051
1.5485
1.87483
2.05105
2.08234
1.01391
1.02133
1.026
1.02927
1.03153
1.03327
1.03448
1.03548
1.03618
1.03682
1.03725
1.0377
1.03799
1.03833
1.03859
1.03931
1.0418
1.04597
1.05789
1.08669
1.14615
1.32499
1.72892
1.9549
2.04782
1.01389
1.02134
1.02599
1.02928
1.03152
1.03328
1.03447
1.03549
1.03616
1.03683
1.03724
1.03772
1.03797
1.03834
1.03852
1.03899
1.04
1.04345
1.04925
1.06592
1.10445
1.19019
1.41617
1.82747
1.99605
1.01397
1.02127
1.02607
1.0292
1.0316
1.03321
1.03455
1.03541
1.03624
1.03675
1.03732
1.03763
1.03806
1.03825
1.0386
1.0388
1.03957
1.04095
1.04553
1.05406
1.07702
1.13139
1.26004
1.56862
1.88073
1.01397
1.02127
1.02606
1.02921
1.03159
1.03322
1.03454
1.03542
1.03623
1.03676
1.03731
1.03765
1.03805
1.03826
1.03858
1.03873
1.03911
1.03989
1.04286
1.0472
1.06141
1.09142
1.15625
1.35076
1.72976
1.0139
1.02134
1.02599
1.02928
1.03152
1.03328
1.03447
1.03549
1.03616
1.03683
1.03724
1.03772
1.03797
1.03833
1.03849
1.03879
1.03895
1.03956
1.04058
1.04444
1.05051
1.06844
1.11041
1.1964
1.44932
1.0139
1.02133
1.026
1.02926
1.03153
1.03327
1.03448
1.03547
1.03618
1.03682
1.03726
1.0377
1.03799
1.03831
1.0385
1.03876
1.03889
1.03914
1.0398
1.04208
1.0454
1.05664
1.07867
1.12986
1.27443
1.01395
1.02128
1.02605
1.02922
1.03158
1.03322
1.03453
1.03543
1.03623
1.03677
1.03731
1.03765
1.03804
1.03826
1.03856
1.0387
1.03894
1.03907
1.03949
1.04029
1.04305
1.04775
1.06103
1.09219
1.15692
1.01393
1.02132
1.02602
1.02925
1.03155
1.03326
1.0345
1.03546
1.03619
1.0368
1.03727
1.03769
1.038
1.0383
1.03852
1.03874
1.03889
1.03907
1.03924
1.03987
1.04087
1.04459
1.05047
1.06791
1.10764
1.0139
1.02133
1.026
1.02927
1.03153
1.03327
1.03448
1.03548
1.03617
1.03682
1.03725
1.0377
1.03799
1.03832
1.0385
1.03875
1.03887
1.03908
1.03918
1.03947
1.04003
1.04225
1.04527
1.0559
1.07623
1.01393
1.02131
1.02603
1.02924
1.03156
1.03325
1.0345
1.03545
1.0362
1.03679
1.03728
1.03768
1.03801
1.03829
1.03853
1.03872
1.0389
1.03904
1.03917
1.0393
1.03962
1.04077
1.04247
1.04853
1.0583
1.01394
1.0213
1.02603
1.02924
1.03156
1.03324
1.03451
1.03545
1.03621
1.03679
1.03729
1.03767
1.03802
1.03828
1.03853
1.03872
1.0389
1.03903
1.03917
1.03927
1.03944
1.04006
1.041
1.0445
1.04976
1.01392
1.02131
1.02602
1.02925
1.03155
1.03325
1.0345
1.03546
1.0362
1.0368
1.03728
1.03768
1.03801
1.03829
1.03852
1.03873
1.03889
1.03904
1.03916
1.03927
1.03937
1.03964
1.04054
1.04202
1.04684
1.01391
1.02133
1.02601
1.02926
1.03154
1.03327
1.03449
1.03547
1.03618
1.03681
1.03726
1.0377
1.03799
1.03831
1.03851
1.03874
1.03888
1.03906
1.03914
1.03929
1.03936
1.03961
1.04005
1.04178
1.04443
1.01392
1.02132
1.02602
1.02925
1.03155
1.03326
1.0345
1.03546
1.03619
1.0368
1.03727
1.03768
1.03801
1.0383
1.03852
1.03873
1.03889
1.03905
1.03916
1.03928
1.03936
1.03951
1.04015
1.04109
1.04457
1.01393
1.02131
1.02602
1.02925
1.03155
1.03325
1.0345
1.03546
1.0362
1.0368
1.03728
1.03768
1.03801
1.0383
1.03852
1.03873
1.03889
1.03905
1.03916
1.03928
1.03936
1.0395
1.0401
1.041
1.04434
1.0059
1.01312
1.02106
1.02845
1.03522
1.04107
1.04642
1.0515
1.05818
1.07429
1.10559
1.17698
1.38715
1.89168
2.76104
2.72125
2.7067
2.66878
2.66964
2.64289
2.62623
2.6246
2.58576
2.52056
2.33826
1.00588
1.01314
1.02104
1.02847
1.03519
1.04109
1.04637
1.05144
1.05785
1.07323
1.10194
1.16988
1.36411
1.83114
2.72284
2.71848
2.69832
2.65644
2.65126
2.62943
2.59975
2.58645
2.54291
2.46148
2.28362
1.00603
1.01298
1.0212
1.0283
1.03537
1.04087
1.04661
1.05095
1.05749
1.06884
1.09859
1.16988
1.31116
1.76356
2.71288
2.71341
2.66978
2.64972
2.63658
2.61042
2.56854
2.54506
2.4975
2.42455
2.28404
1.00529
1.01373
1.02045
1.02904
1.03463
1.0416
1.04585
1.05159
1.05632
1.06744
1.09337
1.15854
1.28036
1.70046
2.65473
2.69344
2.66102
2.64555
2.62659
2.60044
2.54865
2.51584
2.46625
2.40467
2.28683
1.00624
1.01278
1.02139
1.02813
1.03553
1.04075
1.04663
1.05087
1.05665
1.06605
1.08992
1.13148
1.28624
1.57454
2.4506
2.66818
2.66611
2.63983
2.6107
2.58523
2.52834
2.48708
2.43587
2.3902
2.29451
1.00558
1.01344
1.02074
1.02877
1.03489
1.04137
1.046
1.05141
1.056
1.06644
1.08326
1.12811
1.24382
1.49724
2.28109
2.61536
2.66412
2.63944
2.60075
2.57657
2.52234
2.47242
2.41345
2.37157
2.30076
1.00546
1.01356
1.02062
1.02888
1.03478
1.04148
1.04588
1.05142
1.0554
1.06424
1.07795
1.11546
1.20563
1.40365
2.0385
2.54874
2.64617
2.62543
2.57844
2.55608
2.50962
2.46109
2.39652
2.35581
2.29858
1.00542
1.0136
1.02058
1.02893
1.03473
1.04152
1.04581
1.05139
1.05488
1.06216
1.07353
1.10414
1.17434
1.33214
1.76608
2.49987
2.62045
2.60608
2.57015
2.54573
2.50154
2.45597
2.38684
2.3375
2.2928
1.00598
1.01304
1.02114
1.02838
1.03528
1.04098
1.04634
1.0508
1.05505
1.06011
1.06989
1.09426
1.15456
1.26893
1.6588
2.48913
2.56749
2.56636
2.55077
2.52437
2.48879
2.45262
2.3878
2.32807
2.28142
1.00585
1.01316
1.02101
1.02848
1.03518
1.04106
1.04628
1.05077
1.05502
1.05961
1.06928
1.08704
1.12985
1.25139
1.50259
2.29134
2.53496
2.56039
2.54028
2.51812
2.47439
2.44389
2.38947
2.32886
2.27626
1.00598
1.01304
1.02114
1.02836
1.0353
1.04094
1.04638
1.05063
1.05502
1.05885
1.06622
1.08076
1.11237
1.20636
1.38576
1.96338
2.45756
2.54727
2.51876
2.50477
2.46816
2.43737
2.39168
2.33226
2.27733
1.00572
1.01329
1.02088
1.02862
1.03504
1.04119
1.04612
1.05088
1.05461
1.05877
1.06371
1.07733
1.09935
1.16328
1.30397
1.75502
2.33674
2.51642
2.50739
2.48715
2.45144
2.42378
2.38931
2.33824
2.28122
1.00617
1.01284
1.02132
1.02818
1.03547
1.04077
1.04653
1.05047
1.05495
1.05808
1.06277
1.07115
1.09164
1.12964
1.2615
1.52193
2.18889
2.45597
2.48987
2.47631
2.4474
2.411
2.38336
2.3427
2.29083
1.00539
1.01365
1.02053
1.02899
1.03467
1.04157
1.04574
1.05125
1.05416
1.05861
1.06136
1.06803
1.08255
1.11891
1.18891
1.41048
2.01317
2.3673
2.4594