/*--------------------------------*- C++ -*----------------------------------*\
  =========                 |
  \\      /  F ield         | OpenFOAM: The Open Source CFD Toolbox
   \\    /   O peration     | Website:  https://openfoam.org
    \\  /    A nd           | Version:  6
     \\/     M anipulation  |
\*---------------------------------------------------------------------------*/
FoamFile
{
    version     2.0;
    format      ascii;
    class       volVectorField;
    location    "3";
    object      U;
}
// * * * * * * * * * * * * * * * * * * * * * * * * * * * * * * * * * * * * * //

dimensions      [0 1 -1 0 0 0 0];

internalField   nonuniform List<vector> 
26250
(
(3.01561 1.20267e-07 -0.0579696)
(3.02577 4.73943e-07 -0.0597694)
(3.03428 1.99899e-07 -0.0611265)
(3.04139 9.9615e-07 -0.0622738)
(3.04763 -1.75758e-07 -0.0631551)
(3.0527 1.27303e-06 -0.0640226)
(3.0573 -6.40922e-07 -0.0645776)
(3.06 3.80029e-06 -0.0654376)
(3.05869 9.29503e-06 -0.0659996)
(3.05628 3.68309e-05 -0.067582)
(3.03737 7.13245e-05 -0.0700924)
(3.00242 0.000237783 -0.0780662)
(2.8629 0.000522437 -0.0928142)
(2.46902 0.00173238 -0.138144)
(1.50497 0.00450958 -0.235993)
(0.679889 0.0140739 -0.277486)
(0.776333 0.0174659 -0.259415)
(0.910526 0.0171112 -0.250794)
(0.986832 0.0195819 -0.254654)
(0.968795 0.0254756 -0.260026)
(0.952154 0.025927 -0.261051)
(0.898079 0.021578 -0.263725)
(0.764547 0.0145189 -0.267636)
(0.508795 0.0113456 -0.269373)
(0.280308 -0.000732696 -0.263321)
(3.01561 1.50228e-06 -0.0579699)
(3.02577 1.10933e-06 -0.0597689)
(3.03428 9.88771e-07 -0.0611269)
(3.04139 2.1615e-06 -0.0622734)
(3.04763 -1.30125e-06 -0.0631555)
(3.0527 4.00433e-06 -0.0640221)
(3.0573 -3.7223e-06 -0.0645777)
(3.06001 1.66027e-05 -0.065437)
(3.05871 4.08862e-05 -0.0659979)
(3.05634 0.000136615 -0.0675765)
(3.03753 0.000265291 -0.0700751)
(3.00281 0.000732339 -0.0780301)
(2.86402 0.00155346 -0.0927207)
(2.47268 0.00438277 -0.137877)
(1.51806 0.0111942 -0.235451)
(0.713615 0.0268665 -0.275714)
(0.802684 0.0362009 -0.257685)
(0.931322 0.0416239 -0.248044)
(1.00851 0.047859 -0.252106)
(1.00929 0.05437 -0.255535)
(0.980215 0.056255 -0.258094)
(0.922525 0.0506331 -0.261222)
(0.800346 0.0396047 -0.263647)
(0.566829 0.0355352 -0.265881)
(0.362769 0.0235124 -0.259905)
(3.01561 8.50845e-06 -0.0579706)
(3.02577 -2.03377e-06 -0.0597681)
(3.03428 4.79747e-06 -0.0611276)
(3.04139 -4.34445e-06 -0.0622725)
(3.04763 6.39914e-07 -0.063156)
(3.0527 -1.33627e-06 -0.0640218)
(3.05731 -3.93973e-06 -0.0645771)
(3.06004 5.60763e-05 -0.0654356)
(3.05879 0.000143064 -0.0659942)
(3.05647 0.000440557 -0.0675639)
(3.03784 0.000830307 -0.0700436)
(3.00351 0.00189178 -0.077947)
(2.86559 0.00362452 -0.0925061)
(2.47697 0.00831955 -0.137532)
(1.52419 0.0186153 -0.234817)
(0.693417 0.0462701 -0.276315)
(0.787069 0.0624197 -0.257926)
(0.919964 0.0710473 -0.248008)
(0.997477 0.0761833 -0.251986)
(0.998852 0.0792426 -0.255293)
(0.965054 0.0833085 -0.258104)
(0.898878 0.0846786 -0.260726)
(0.77746 0.0805404 -0.262732)
(0.543375 0.0776672 -0.264793)
(0.330739 0.0700343 -0.258819)
(3.01561 1.92607e-05 -0.0579775)
(3.02576 -9.80286e-06 -0.0597601)
(3.03428 1.48528e-05 -0.0611354)
(3.04139 -2.33223e-05 -0.0622639)
(3.04763 2.48149e-05 -0.0631643)
(3.0527 -5.22235e-05 -0.0640128)
(3.05735 7.06155e-05 -0.0645823)
(3.06013 -0.000136175 -0.0654246)
(3.05903 0.000169814 -0.06598)
(3.0569 0.00151986 -0.0675587)
(3.0387 -0.00212437 -0.069897)
(3.00529 0.010555 -0.0778176)
(2.86849 -0.00935824 -0.0919436)
(2.49132 0.0417792 -0.136719)
(1.54498 0.0307396 -0.233805)
(0.744351 0.0819576 -0.273954)
(0.823335 0.10309 -0.255671)
(0.942192 0.112037 -0.245359)
(1.01315 0.116156 -0.24997)
(1.00108 0.121372 -0.254404)
(0.970014 0.126758 -0.256332)
(0.903544 0.131777 -0.258832)
(0.776028 0.133719 -0.260435)
(0.535605 0.131239 -0.261995)
(0.314398 0.119919 -0.257417)
(3.01561 1.01074e-06 -0.057996)
(3.02576 -1.09632e-06 -0.0597391)
(3.03427 3.19636e-06 -0.0611573)
(3.0414 -6.00672e-06 -0.0622391)
(3.04761 6.22144e-06 -0.0631921)
(3.05274 -1.17748e-05 -0.0639772)
(3.05724 9.7048e-06 -0.0646296)
(3.06012 -8.21634e-06 -0.0653483)
(3.06015 -6.1817e-06 -0.0660905)
(3.05454 0.000411918 -0.0675041)
(3.04486 0.000945201 -0.0693648)
(2.99768 0.00258733 -0.0782256)
(2.88157 0.0057089 -0.0901554)
(2.53159 0.0140169 -0.139164)
(1.56876 0.0361123 -0.223836)
(0.794793 0.0893785 -0.269843)
(0.857039 0.11997 -0.252328)
(0.966343 0.135001 -0.241603)
(1.03191 0.146783 -0.245957)
(1.02528 0.159139 -0.249727)
(0.991724 0.170479 -0.251978)
(0.92472 0.179598 -0.254571)
(0.792816 0.186267 -0.256008)
(0.546184 0.188218 -0.257216)
(0.317832 0.175671 -0.253364)
(3.01561 -1.51255e-06 -0.0579702)
(3.02577 -1.657e-06 -0.0597681)
(3.03427 -7.39026e-07 -0.061127)
(3.04139 -3.22135e-06 -0.0622713)
(3.04763 2.52141e-06 -0.0631575)
(3.0527 -5.43892e-06 -0.0640189)
(3.05735 1.35804e-05 -0.0645769)
(3.06012 3.94311e-06 -0.0654237)
(3.05938 0.000130722 -0.06595)
(3.05769 0.000294598 -0.0675357)
(3.04045 0.000905238 -0.0696453)
(3.00925 0.00197049 -0.077374)
(2.87675 0.00562764 -0.0906175)
(2.52228 0.0156203 -0.134224)
(1.61067 0.0433989 -0.228591)
(0.825984 0.111049 -0.27012)
(0.874548 0.149059 -0.252079)
(0.97673 0.167677 -0.239806)
(1.04305 0.183392 -0.24395)
(1.0375 0.200321 -0.247383)
(1.0033 0.216276 -0.249255)
(0.937094 0.229292 -0.251127)
(0.805299 0.241121 -0.251766)
(0.55449 0.251063 -0.252216)
(0.320365 0.242553 -0.248331)
(3.01561 -1.32561e-05 -0.0579954)
(3.02576 2.25755e-06 -0.0597398)
(3.03427 -8.61258e-06 -0.0611566)
(3.0414 7.43693e-06 -0.0622397)
(3.04761 -5.29769e-06 -0.0631915)
(3.05275 1.27938e-05 -0.063977)
(3.05725 -9.18182e-07 -0.0646291)
(3.06022 1.35065e-05 -0.0653389)
(3.06039 3.87902e-05 -0.0660636)
(3.05518 0.000174764 -0.0674171)
(3.04624 0.000406661 -0.0692066)
(3.00161 0.00194118 -0.0776636)
(2.89276 0.00545575 -0.088831)
(2.56133 0.016725 -0.135539)
(1.65361 0.0552413 -0.216888)
(0.897891 0.135419 -0.264946)
(0.915987 0.182375 -0.249551)
(1.00411 0.2031 -0.236589)
(1.06403 0.220881 -0.24054)
(1.05931 0.240161 -0.243668)
(1.02264 0.260394 -0.245655)
(0.955779 0.278817 -0.246893)
(0.82469 0.298873 -0.247)
(0.569623 0.321846 -0.246578)
(0.327356 0.327023 -0.242341)
(3.01561 -3.34808e-05 -0.0579585)
(3.02577 1.26841e-05 -0.0597813)
(3.03428 -1.77218e-05 -0.0611144)
(3.04139 2.81223e-05 -0.0622856)
(3.04763 -1.99291e-05 -0.0631426)
(3.05271 5.89508e-05 -0.0640341)
(3.05735 -6.91544e-05 -0.06456)
(3.06015 0.000166002 -0.0654363)
(3.05951 -0.000235097 -0.0659305)
(3.05799 -0.000851779 -0.067387)
(3.04193 0.00340019 -0.0694458)
(3.01333 -0.00524879 -0.0768797)
(2.88969 0.0201577 -0.0886118)
(2.56021 -0.00637595 -0.131671)
(1.72263 0.0644358 -0.221072)
(0.94338 0.157264 -0.264783)
(0.941973 0.208168 -0.248745)
(1.01943 0.232842 -0.234252)
(1.08013 0.254138 -0.237636)
(1.07701 0.277433 -0.240476)
(1.042 0.302734 -0.242046)
(0.978156 0.328341 -0.242587)
(0.852073 0.36025 -0.24166)
(0.596583 0.403444 -0.240396)
(0.346178 0.439641 -0.234666)
(3.01561 -1.88394e-05 -0.0579498)
(3.02578 2.74855e-06 -0.0597918)
(3.03428 1.44226e-06 -0.0611039)
(3.0414 -6.23658e-06 -0.0622968)
(3.04763 2.85915e-05 -0.0631327)
(3.05271 -3.77645e-05 -0.0640433)
(3.05734 9.03779e-05 -0.0645495)
(3.06008 -0.000123869 -0.0654527)
(3.05955 0.000262409 -0.0658784)
(3.05822 0.0007856 -0.0673269)
(3.0429 0.00144334 -0.0693934)
(3.0155 0.00418879 -0.0764658)
(2.89952 0.00904049 -0.0878126)
(2.58334 0.0280223 -0.12929)
(1.80663 0.0732887 -0.214768)
(1.0132 0.192939 -0.261744)
(0.986124 0.240093 -0.24542)
(1.0511 0.269705 -0.231344)
(1.10564 0.290243 -0.234431)
(1.10134 0.315719 -0.236856)
(1.06882 0.344598 -0.237754)
(1.01034 0.37786 -0.237377)
(0.895279 0.425027 -0.235241)
(0.650004 0.498728 -0.232648)
(0.391356 0.598707 -0.224236)
(3.01561 4.2963e-05 -0.0579138)
(3.02579 -2.57817e-05 -0.0598301)
(3.03427 3.10983e-05 -0.0610665)
(3.04142 -5.38374e-05 -0.0623349)
(3.04761 5.21049e-05 -0.0630972)
(3.05276 -0.000104228 -0.0640751)
(3.05728 0.000146034 -0.0645271)
(3.06029 -0.000176734 -0.0654416)
(3.06026 0.000682866 -0.065888)
(3.05896 0.0018878 -0.0672544)
(3.04467 -0.000398553 -0.0690996)
(3.01975 0.0117016 -0.076023)
(2.90827 -0.00286315 -0.0863993)
(2.61587 0.0602923 -0.126943)
(1.86454 0.0769361 -0.209973)
(1.09024 0.220972 -0.258356)
(1.04015 0.273798 -0.241588)
(1.09151 0.307997 -0.228331)
(1.13846 0.326578 -0.230981)
(1.13428 0.353384 -0.233273)
(1.10646 0.385066 -0.233423)
(1.05753 0.426704 -0.232041)
(0.963853 0.494341 -0.228109)
(0.755831 0.616113 -0.221835)
(0.488492 0.857485 -0.20785)
(2.98855 -1.84098e-07 -0.00143264)
(2.98291 5.1655e-07 -0.00328747)
(2.97953 7.85219e-08 -0.00492941)
(2.97738 1.10574e-06 -0.00644617)
(2.97597 2.36543e-08 -0.00768066)
(2.975 1.266e-06 -0.00889897)
(2.97416 2.00564e-07 -0.00973619)
(2.9727 1.8557e-06 -0.0108161)
(2.9678 8.84226e-06 -0.0112708)
(2.95834 2.88043e-05 -0.0121316)
(2.92743 8.01119e-05 -0.0136049)
(2.85982 0.000205518 -0.0164424)
(2.66353 0.000545331 -0.0230523)
(2.04546 0.00156696 -0.0354255)
(0.606561 0.00447593 -0.064043)
(-0.400337 0.0215431 -0.0643863)
(0.0507999 0.0270931 -0.0608991)
(0.427746 0.0339901 -0.0584293)
(0.49513 0.0463656 -0.0609316)
(0.388589 0.0687995 -0.0611852)
(0.370692 0.0696543 -0.0631232)
(0.274415 0.0572493 -0.0635595)
(0.0772837 0.0497135 -0.0638932)
(0.00189669 0.0393572 -0.0607913)
(0.146345 0.0102846 -0.0546912)
(2.98855 7.33482e-07 -0.00143256)
(2.98291 1.25218e-06 -0.00328759)
(2.97953 1.04328e-06 -0.0049293)
(2.97738 2.28487e-06 -0.00644636)
(2.97597 4.16622e-07 -0.00768056)
(2.975 2.7055e-06 -0.00889892)
(2.97416 6.62908e-07 -0.00973646)
(2.97271 8.0998e-06 -0.0108152)
(2.96782 3.19379e-05 -0.0112727)
(2.9584 0.0001082 -0.0121234)
(2.92758 0.000250493 -0.0136314)
(2.86022 0.000742588 -0.0164023)
(2.66453 0.00169774 -0.0231419)
(2.049 0.00501777 -0.0353851)
(0.623032 0.0135438 -0.0642529)
(-0.33392 0.0352967 -0.0647974)
(0.0774711 0.0565276 -0.060378)
(0.445695 0.0759712 -0.0577161)
(0.519679 0.0941981 -0.060365)
(0.455338 0.124064 -0.0618319)
(0.391851 0.121531 -0.0624134)
(0.282789 0.112194 -0.0620411)
(0.104803 0.107531 -0.0623025)
(0.00942508 0.106591 -0.0600827)
(0.210477 0.0607612 -0.053941)
(2.98855 4.64024e-06 -0.00143275)
(2.98291 7.5398e-07 -0.00328751)
(2.97953 3.73723e-06 -0.00492927)
(2.97738 2.02675e-07 -0.00644646)
(2.97597 1.38917e-06 -0.00768011)
(2.975 9.79596e-07 -0.00889981)
(2.97417 5.84455e-07 -0.00973491)
(2.97273 1.85356e-05 -0.0108186)
(2.96788 6.76645e-05 -0.0112708)
(2.95852 0.000224794 -0.012136)
(2.92794 0.000458487 -0.0136001)
(2.86105 0.00145914 -0.0164458)
(2.66677 0.00301753 -0.023033)
(2.05538 0.00906113 -0.0353191)
(0.628366 0.0236216 -0.0640903)
(-0.382557 0.0620251 -0.0640144)
(0.0706317 0.0974107 -0.0602323)
(0.445416 0.124163 -0.0574107)
(0.518705 0.138946 -0.0601841)
(0.463049 0.14689 -0.0619472)
(0.393028 0.162454 -0.0620003)
(0.285921 0.174913 -0.0608781)
(0.117935 0.183063 -0.0605074)
(0.0067213 0.186805 -0.0585994)
(0.188663 0.131614 -0.0526051)
(2.98855 1.03217e-05 -0.00143398)
(2.98291 -1.49058e-06 -0.00328578)
(2.97953 8.92591e-06 -0.00493043)
(2.97738 -5.9902e-06 -0.00644483)
(2.97597 8.66226e-06 -0.00768154)
(2.975 -9.42848e-06 -0.00889851)
(2.97418 1.39496e-05 -0.00973578)
(2.97276 3.24933e-05 -0.0108239)
(2.96799 0.000200053 -0.0112802)
(2.95871 0.000274913 -0.0121488)
(2.92854 0.00172913 -0.0136461)
(2.8623 0.00172102 -0.0164307)
(2.67025 0.00693124 -0.0231149)
(2.06515 0.0146235 -0.0351813)
(0.658665 0.0332232 -0.064043)
(-0.308417 0.100357 -0.0646539)
(0.0979461 0.142999 -0.0597886)
(0.454158 0.173977 -0.0565302)
(0.509232 0.19257 -0.0594403)
(0.415859 0.212493 -0.0606299)
(0.373456 0.230423 -0.0614177)
(0.276464 0.25084 -0.0599888)
(0.122674 0.267506 -0.0590215)
(0.00475342 0.270531 -0.0568018)
(0.168158 0.206248 -0.050879)
(2.98855 2.4786e-06 -0.0014362)
(2.98291 -8.49022e-07 -0.00328237)
(2.97953 2.14612e-06 -0.00493353)
(2.97738 -2.39122e-06 -0.00644001)
(2.97597 1.02448e-06 -0.00768858)
(2.97501 -9.81373e-07 -0.00888631)
(2.9742 1.16054e-06 -0.0097556)
(2.97289 3.21542e-05 -0.0107821)
(2.96808 0.000111511 -0.0113121)
(2.95974 0.000395443 -0.012285)
(2.92937 0.000826713 -0.0131179)
(2.86459 0.00279114 -0.0177569)
(2.67615 0.00615146 -0.0205142)
(2.07359 0.0189686 -0.0386957)
(0.659432 0.0526424 -0.0623061)
(-0.276234 0.125803 -0.0649718)
(0.119132 0.181352 -0.0594638)
(0.465136 0.220521 -0.0557992)
(0.514537 0.250192 -0.0585995)
(0.44087 0.278652 -0.060375)
(0.378573 0.301073 -0.0605138)
(0.282183 0.326449 -0.0589064)
(0.137607 0.350402 -0.057385)
(0.00986407 0.355113 -0.054687)
(0.15608 0.284776 -0.0487886)
(2.98855 -4.33649e-07 -0.00143418)
(2.98291 -1.47848e-06 -0.00328541)
(2.97953 -4.37228e-07 -0.00493125)
(2.97738 -2.73549e-06 -0.00644316)
(2.97597 1.12904e-06 -0.00768367)
(2.975 -2.7338e-06 -0.00889529)
(2.9742 7.21624e-06 -0.00973854)
(2.97285 1.39655e-05 -0.0108186)
(2.9683 8.45017e-05 -0.0112694)
(2.9593 0.000414295 -0.0121592)
(2.93047 0.000995883 -0.0136378)
(2.86681 0.00313662 -0.0163606)
(2.68276 0.00829491 -0.0229183)
(2.1039 0.0219626 -0.0341981)
(0.745867 0.0680967 -0.0630941)
(-0.227777 0.161351 -0.0640582)
(0.146119 0.224184 -0.0590031)
(0.479263 0.268195 -0.0548908)
(0.521724 0.306407 -0.0577486)
(0.446477 0.347846 -0.0595539)
(0.384599 0.373315 -0.0595515)
(0.294342 0.402502 -0.0577194)
(0.161463 0.433297 -0.0557052)
(0.024769 0.4437 -0.0524288)
(0.146024 0.375893 -0.0462773)
(2.98855 -7.03927e-06 -0.00143645)
(2.98291 -1.29731e-06 -0.00328183)
(2.97953 -5.62998e-06 -0.00493417)
(2.97738 1.69156e-07 -0.00643908)
(2.97597 -1.66462e-06 -0.00768972)
(2.97501 1.96752e-06 -0.00888472)
(2.97421 7.9118e-06 -0.00975763)
(2.97296 1.53459e-05 -0.0107778)
(2.96841 0.000103743 -0.0113135)
(2.9605 0.000429594 -0.0122503)
(2.93157 0.00142343 -0.0130776)
(2.87093 0.00320056 -0.0175235)
(2.69104 0.0112415 -0.0201549)
(2.12366 0.024033 -0.037261)
(0.783097 0.0855656 -0.0608946)
(-0.153609 0.196138 -0.0647547)
(0.182328 0.267397 -0.0586406)
(0.495035 0.315245 -0.0541698)
(0.533883 0.360027 -0.0568389)
(0.463892 0.409013 -0.0587097)
(0.397594 0.443337 -0.0584519)
(0.315061 0.479278 -0.0562968)
(0.19587 0.518801 -0.0537038)
(0.0516524 0.540272 -0.0498215)
(0.140803 0.485881 -0.0432552)
(2.98855 -1.59879e-05 -0.00143249)
(2.98291 9.4565e-07 -0.00328745)
(2.97953 -1.14677e-05 -0.00492992)
(2.97738 7.86616e-06 -0.00644532)
(2.97598 -7.58593e-06 -0.00768148)
(2.97501 1.59407e-05 -0.00889817)
(2.97422 -4.4435e-06 -0.00973483)
(2.97293 2.56094e-05 -0.0108173)
(2.96865 4.10229e-05 -0.0112535)
(2.96042 0.000568177 -0.0120977)
(2.93277 0.000569839 -0.013543)
(2.87534 0.00431073 -0.0160493)
(2.69923 0.0102941 -0.0224931)
(2.16246 0.0279398 -0.0324982)
(0.901697 0.100693 -0.0616875)
(-0.0727035 0.230387 -0.0641164)
(0.223701 0.30845 -0.0579563)
(0.513874 0.361019 -0.0531247)
(0.549238 0.410834 -0.0557974)
(0.483899 0.465285 -0.0574813)
(0.419241 0.511192 -0.0570654)
(0.345393 0.556758 -0.0548911)
(0.242323 0.608271 -0.0517024)
(0.0949777 0.648396 -0.0471036)
(0.145458 0.623826 -0.039871)
(2.98855 -5.72106e-06 -0.00143085)
(2.98292 1.18452e-07 -0.00328942)
(2.97954 -3.12279e-06 -0.00492938)
(2.97738 1.15194e-06 -0.00644619)
(2.97598 1.92431e-06 -0.00768134)
(2.97501 2.04854e-07 -0.008898)
(2.97422 1.47813e-05 -0.00973412)
(2.97298 2.83521e-05 -0.0108105)
(2.96888 0.000179542 -0.0112267)
(2.96101 0.000698213 -0.0120506)
(2.93441 0.00190603 -0.0135118)
(2.88017 0.00510486 -0.015821)
(2.70978 0.0135798 -0.0222148)
(2.20119 0.0347333 -0.0317906)
(1.00364 0.106606 -0.0611064)
(0.0292157 0.265348 -0.0642771)
(0.275074 0.352934 -0.0570066)
(0.535865 0.408142 -0.052025)
(0.56717 0.460113 -0.0546999)
(0.508529 0.518749 -0.056163)
(0.449587 0.576214 -0.0555171)
(0.387097 0.632676 -0.0531152)
(0.304519 0.700733 -0.0495513)
(0.164395 0.772369 -0.0440933)
(0.167947 0.804615 -0.0358378)
(2.98855 2.24027e-05 -0.00142916)
(2.98292 2.18608e-06 -0.0032904)
(2.97954 8.82474e-06 -0.00493113)
(2.97738 3.64726e-06 -0.00644131)
(2.97598 -8.68685e-06 -0.00769074)
(2.97502 2.05685e-05 -0.00888186)
(2.97424 -3.83024e-05 -0.00975911)
(2.97308 0.000142604 -0.010773)
(2.9692 5.93909e-05 -0.0112734)
(2.96185 0.00175896 -0.012094)
(2.93635 -0.00024209 -0.0133774)
(2.88547 0.012797 -0.0159353)
(2.72176 0.00209539 -0.0215554)
(2.24531 0.0599201 -0.0314958)
(1.10438 0.103934 -0.0601572)
(0.141843 0.29663 -0.0644374)
(0.332887 0.401517 -0.0559468)
(0.559658 0.454284 -0.0508788)
(0.587604 0.506103 -0.0531856)
(0.538555 0.568452 -0.05472)
(0.488032 0.635116 -0.0539969)
(0.441197 0.704994 -0.0513375)
(0.388543 0.794813 -0.047193)
(0.276129 0.9122 -0.0412913)
(0.22282 1.08698 -0.0321299)
(2.9951 5.34927e-07 1.06755e-06)
(2.98906 2.92709e-07 -6.15288e-07)
(2.98253 5.70868e-07 7.90406e-07)
(2.97637 4.69871e-07 -4.91531e-07)
(2.97073 -1.89486e-07 3.43e-07)
(2.96583 1.5428e-06 -3.88749e-08)
(2.96116 -1.59673e-06 -1.481e-08)
(2.95664 6.60495e-06 1.26623e-06)
(2.94928 1.74758e-06 3.98648e-06)
(2.93638 6.94107e-05 8.04382e-06)
(2.899 -3.49425e-05 1.3005e-05)
(2.81868 0.000355563 2.54356e-05)
(2.59465 8.98925e-05 1.18635e-05)
(1.87429 0.000923611 1.50726e-06)
(0.229886 0.00216352 -0.000112067)
(-0.861838 0.0143725 0.000378986)
(-0.108813 0.026168 -1.95145e-05)
(0.308237 0.0371787 0.000100993)
(0.387902 0.0417488 0.00044827)
(0.287214 0.0408992 0.00114652)
(-0.144033 0.0642828 8.62261e-05)
(-0.111923 0.0694038 -0.000290777)
(-0.145653 0.0698348 -0.000348661)
(-0.093654 0.0705671 -0.000280063)
(0.0882998 0.058803 -0.000562755)
(2.9951 9.59877e-07 2.42458e-06)
(2.98906 4.54968e-07 -2.43194e-06)
(2.98253 1.02959e-06 2.39938e-06)
(2.97637 8.37335e-07 -2.85055e-06)
(2.97073 3.43788e-07 2.90338e-06)
(2.96583 9.68548e-07 -3.15824e-06)
(2.96116 5.04824e-07 3.63662e-06)
(2.95664 4.90264e-06 3.56815e-06)
(2.94933 2.60354e-05 2.49224e-05)
(2.93636 8.64173e-05 -1.87668e-05)
(2.8992 0.000227798 0.000205183)
(2.81883 0.000618922 -0.000180036)
(2.59523 0.00148747 0.000350633)
(1.87493 0.00426319 -0.000195561)
(0.237617 0.0126282 -0.000817826)
(-0.849231 0.0402765 -0.000458222)
(-0.0933077 0.0714288 0.000267062)
(0.317611 0.0957149 0.000123401)
(0.382721 0.10162 -0.000179722)
(0.260172 0.0952445 -0.000780057)
(-0.181265 0.127231 0.000132139)
(-0.131721 0.145283 0.000369865)
(-0.164825 0.153791 4.01317e-05)
(-0.110325 0.159602 -0.000194358)
(0.0909809 0.139527 -0.000314506)
(2.9951 1.56175e-06 1.77612e-06)
(2.98906 5.13533e-07 -1.68129e-06)
(2.98253 1.4739e-06 1.75003e-06)
(2.97637 6.33664e-07 -1.98195e-06)
(2.97073 2.37066e-07 1.70588e-06)
(2.96583 4.31629e-07 -1.60645e-06)
(2.96116 9.10261e-07 9.12896e-07)
(2.95666 7.01751e-06 1.62412e-06)
(2.94935 4.31579e-05 3.31096e-06)
(2.93655 0.000158884 7.86779e-06)
(2.89944 0.000416386 4.65156e-06)
(2.81978 0.00118611 2.95356e-05)
(2.59742 0.00285901 -3.18386e-05)
(1.88355 0.00836773 -6.20067e-05)
(0.254551 0.02467 -0.000325152)
(-0.827414 0.0634458 0.000319914)
(-0.0782397 0.11456 4.83281e-05)
(0.326122 0.15428 -5.57777e-05)
(0.371301 0.169473 -0.000397571)
(0.248502 0.166236 -0.000885615)
(-0.185056 0.207833 0.000133351)
(-0.124045 0.231733 0.000476569)
(-0.164637 0.247486 0.000271622)
(-0.117544 0.257969 -5.09877e-05)
(0.0793774 0.230958 2.02783e-05)
(2.9951 2.01698e-06 2.3171e-06)
(2.98906 4.16059e-07 -2.49415e-06)
(2.98253 1.63104e-06 2.58363e-06)
(2.97637 2.31317e-08 -3.2238e-06)
(2.97073 -9.20972e-07 3.3871e-06)
(2.96583 1.83659e-06 -4.02145e-06)
(2.96117 -2.04631e-06 4.18979e-06)
(2.95667 2.02021e-05 6.6777e-07)
(2.94946 5.14663e-05 1.89279e-05)
(2.93667 0.000336948 -2.70261e-05)
(2.90004 0.000433891 0.000191851)
(2.82096 0.00223648 -0.000225956)
(2.60074 0.00387521 0.000347816)
(1.8935 0.0129469 -0.000277688)
(0.27795 0.0376486 -0.000785109)
(-0.797713 0.100802 0.000135485)
(-0.06055 0.16392 8.48402e-05)
(0.337022 0.212601 2.02437e-05)
(0.363468 0.237384 -6.07827e-07)
(0.251767 0.239564 0.000316962)
(-0.17289 0.293484 9.22431e-05)
(-0.105548 0.318394 0.000179992)
(-0.153524 0.34055 0.000215068)
(-0.118195 0.353894 4.58573e-05)
(0.0701811 0.321303 0.000154254)
(2.9951 2.34112e-08 1.34416e-06)
(2.98906 -9.94035e-08 -1.37265e-06)
(2.98253 -3.80163e-07 1.39805e-06)
(2.97637 -4.76362e-07 -1.69252e-06)
(2.97073 -1.06644e-06 1.44233e-06)
(2.96583 3.08286e-07 -1.48556e-06)
(2.96118 2.40821e-06 4.92565e-07)
(2.9567 1.79196e-05 -3.79652e-07)
(2.94961 9.19416e-05 -3.95727e-06)
(2.93689 0.000369268 -3.66683e-06)
(2.90093 0.000886076 -2.04456e-05)
(2.82289 0.00276573 -2.66934e-05)
(2.60614 0.00653392 -7.15563e-05)
(1.91094 0.0199543 -0.000142743)
(0.323625 0.0591123 -0.000380254)
(-0.742886 0.144579 -0.000277317)
(-0.0317983 0.216129 0.00013418)
(0.349385 0.270326 0.000102353)
(0.358365 0.303854 -6.53209e-06)
(0.255793 0.316431 -0.000123375)
(-0.135033 0.37489 -3.09828e-06)
(-0.0823922 0.403076 2.29508e-05)
(-0.134424 0.431965 0.000145157)
(-0.113872 0.44886 0.000105914)
(0.0636839 0.413089 0.000217293)
(2.9951 -2.90816e-06 1.55689e-06)
(2.98906 -2.20529e-07 -1.72024e-06)
(2.98253 -2.7421e-06 1.77701e-06)
(2.97637 -3.39953e-07 -2.33907e-06)
(2.97073 -8.03057e-07 2.86663e-06)
(2.96583 -1.09045e-08 -3.92344e-06)
(2.96118 6.58156e-06 5.05446e-06)
(2.95675 1.97453e-05 -4.26785e-06)
(2.94976 0.000115835 1.38102e-05)
(2.93735 0.00046496 -3.24732e-05)
(2.90201 0.00119163 0.000192788)
(2.82594 0.00363523 -0.000267817)
(2.61417 0.00895684 0.000400665)
(1.93989 0.027347 -0.000320491)
(0.381081 0.0818889 -0.000593715)
(-0.679353 0.183236 0.00023356)
(-0.00235302 0.264664 7.70593e-05)
(0.362813 0.325834 3.53563e-05)
(0.358747 0.36855 1.62593e-05)
(0.258478 0.393732 8.47758e-05)
(-0.0800854 0.452346 -5.30783e-05)
(-0.0539198 0.488534 -3.23839e-05)
(-0.106687 0.525156 0.000117756)
(-0.103501 0.548413 0.000142621)
(0.0598625 0.514404 0.00026295)
(2.9951 -5.13027e-06 -1.00735e-06)
(2.98906 -2.54807e-07 1.72369e-06)
(2.98253 -4.27278e-06 -1.70804e-06)
(2.97637 9.46082e-08 2.74337e-06)
(2.97073 -3.37016e-07 -3.41777e-06)
(2.96584 1.13037e-06 4.78244e-06)
(2.96119 9.1403e-06 -6.28089e-06)
(2.95679 2.62559e-05 4.25265e-06)
(2.94999 0.000132083 -1.74723e-05)
(2.9378 0.000603693 1.97668e-05)
(2.90356 0.0013753 -0.000195828)
(2.82973 0.00462238 0.000186676)
(2.62464 0.0108441 -0.00040348)
(1.97678 0.0335182 0.000192041)
(0.459388 0.100965 0.000469884)
(-0.60004 0.221849 -0.000277214)
(0.0290369 0.312954 -6.84824e-05)
(0.37744 0.380098 -3.59594e-05)
(0.364464 0.431332 -1.72253e-05)
(0.264277 0.47066 -1.41129e-05)
(-0.0166117 0.52936 -6.27708e-05)
(-0.0182322 0.575952 -3.36163e-05)
(-0.0682009 0.621685 0.000107742)
(-0.0846805 0.656392 0.000168387)
(0.0602908 0.631357 0.000286314)
(2.9951 -5.82265e-06 -2.55252e-08)
(2.98906 5.21248e-07 4.15091e-07)
(2.98253 -4.44236e-06 -5.22121e-07)
(2.97637 2.272e-06 1.03996e-06)
(2.97073 3.94257e-07 -1.1143e-06)
(2.96584 4.39722e-06 1.54641e-06)
(2.9612 1.16939e-05 -1.30845e-06)
(2.95685 3.42142e-05 5.72913e-07)
(2.95024 0.000153643 -6.60825e-07)
(2.9384 0.000730954 -4.02326e-06)
(2.90532 0.00154595 2.92993e-07)
(2.83434 0.00546161 -2.35326e-05)
(2.63697 0.0124649 1.87707e-05)
(2.02081 0.0388504 -2.23707e-05)
(0.554697 0.115191 0.000119514)
(-0.505334 0.260184 9.18073e-05)
(0.064893 0.361965 -6.25607e-05)
(0.393068 0.433971 -5.40312e-05)
(0.375856 0.492099 -3.16446e-05)
(0.276687 0.544516 -3.66995e-05)
(0.0478948 0.608037 -5.31636e-05)
(0.02538 0.662288 -2.7366e-05)
(-0.0162148 0.722721 0.000102551)
(-0.0531204 0.776203 0.000198358)
(0.0679204 0.77276 0.000297858)
(2.9951 -2.62486e-06 -5.34268e-07)
(2.98906 4.20635e-06 7.40692e-07)
(2.98253 -5.44747e-06 -4.97154e-07)
(2.97638 1.0512e-05 9.02094e-07)
(2.97073 -9.36228e-06 -5.12648e-07)
(2.96585 1.94664e-05 6.87942e-07)
(2.96122 -5.34366e-07 -2.69652e-07)
(2.95691 5.17473e-05 -2.60602e-07)
(2.95057 0.000254222 -6.97228e-07)
(2.93898 0.000747425 -1.66366e-06)
(2.90746 0.002234 -4.55154e-06)
(2.83941 0.00532027 -4.28787e-06)
(2.65123 0.015624 -1.3076e-05)
(2.06968 0.0394039 -9.33306e-06)
(0.671713 0.12134 9.34509e-06)
(-0.384475 0.294587 5.27769e-07)
(0.105006 0.4116 -4.32104e-05)
(0.409876 0.486655 -4.19277e-05)
(0.391368 0.549813 -3.62098e-05)
(0.296741 0.612888 -3.9105e-05)
(0.113416 0.684373 -4.78782e-05)
(0.0785289 0.749488 -4.04556e-05)
(0.0533244 0.826701 8.37837e-05)
(0.00434346 0.908426 0.00023331)
(0.0858282 0.949667 0.000288143)
(2.9951 6.63526e-06 -1.06143e-07)
(2.98906 1.04881e-05 4.66195e-07)
(2.98253 -9.25652e-06 -7.29824e-08)
(2.97637 3.17166e-05 5.44945e-07)
(2.97074 -4.7501e-05 -2.83558e-07)
(2.96585 8.62246e-05 4.45703e-07)
(2.96123 -0.000116132 -4.27061e-07)
(2.95707 0.000268934 -6.3991e-08)
(2.95083 -1.09877e-05 -6.83434e-07)
(2.94008 0.0014665 -2.31145e-06)
(2.90911 -0.000382629 -4.05941e-06)
(2.84607 0.0123365 -8.13139e-06)
(2.66344 0.00469942 -1.63322e-05)
(2.11304 0.0536543 -1.42932e-05)
(0.786348 0.115949 -1.70344e-05)
(-0.250105 0.325716 -1.82496e-06)
(0.147733 0.463637 -1.64386e-05)
(0.424719 0.537383 -1.59546e-05)
(0.409173 0.602953 -3.01608e-05)
(0.323772 0.674693 -3.54471e-05)
(0.181602 0.754449 -4.09577e-05)
(0.146037 0.834063 -3.26076e-05)
(0.143103 0.932264 5.05089e-05)
(0.10224 1.05379 0.000204012)
(0.125848 1.22316 0.000265205)
(2.98855 6.83653e-06 0.00143453)
(2.98291 -1.63318e-06 0.00328576)
(2.97953 5.99413e-06 0.00493074)
(2.97738 -4.94272e-06 0.00644496)
(2.97597 7.02239e-06 0.00768113)
(2.975 -7.97755e-06 0.00889936)
(2.97417 1.01122e-05 0.00973491)
(2.97272 2.15248e-05 0.0108262)
(2.96785 0.000136058 0.0112862)
(2.95842 6.97604e-06 0.0121674)
(2.92758 0.00111415 0.013653)
(2.85984 -0.000121329 0.0165251)
(2.66333 0.00254741 0.0231659)
(2.04169 0.00195038 0.035613)
(0.606629 -0.00237345 0.0638752)
(-0.350718 -0.00883873 0.0651907)
(0.0667854 0.00442131 0.0608291)
(0.441516 0.0136103 0.0583899)
(0.531255 0.00779358 0.0610416)
(0.499994 -0.0191492 0.0626354)
(0.442438 -0.0165483 0.0628344)
(0.344373 -0.000809507 0.062427)
(0.193648 0.0189971 0.0618809)
(0.0606243 0.0417868 0.0601224)
(0.188344 0.0519195 0.054132)
(2.98855 4.28376e-06 0.00143715)
(2.98291 -5.04435e-07 0.00328174)
(2.97953 4.08826e-06 0.00493406)
(2.97738 -2.16986e-06 0.00643996)
(2.97597 2.90959e-06 0.00768802)
(2.975 -2.9246e-06 0.0088878)
(2.97419 -6.65447e-08 0.00975278)
(2.97284 8.62727e-06 0.0107871)
(2.96784 2.76778e-05 0.0113031)
(2.95919 0.000102621 0.0123085)
(2.92778 0.000200605 0.0131026)
(2.86023 0.000726193 0.017913)
(2.6646 0.00142439 0.0205112)
(2.03448 0.00426819 0.0393946)
(0.557212 0.010778 0.0622166)
(-0.456038 0.0333488 0.0640272)
(0.0437235 0.0557616 0.0610046)
(0.424808 0.0705995 0.0586439)
(0.489315 0.0687815 0.0611177)
(0.372638 0.0660103 0.0617241)
(0.36081 0.071131 0.0633445)
(0.273412 0.0872688 0.0631521)
(0.102119 0.107442 0.0623382)
(0.00365255 0.122049 0.0594506)
(0.160038 0.111526 0.0533396)
(2.98855 3.99652e-06 0.00143549)
(2.98291 -1.29088e-07 0.00328429)
(2.97953 3.77967e-06 0.00493224)
(2.97738 -1.5916e-06 0.00644244)
(2.97597 2.08597e-06 0.00768407)
(2.975 -2.77507e-06 0.00889499)
(2.97418 -2.98558e-07 0.00973895)
(2.97275 2.4066e-06 0.0108175)
(2.96794 1.9409e-05 0.0112711)
(2.95856 0.000130631 0.0121885)
(2.92807 0.000287355 0.013667)
(2.86079 0.00100152 0.0165683)
(2.66597 0.0025597 0.0232191)
(2.04757 0.00790132 0.0355969)
(0.620485 0.0229192 0.0635357)
(-0.341768 0.0732881 0.0645307)
(0.0786352 0.102432 0.060308)
(0.438037 0.125789 0.0575651)
(0.489468 0.140564 0.0602145)
(0.38484 0.163751 0.0611768)
(0.354018 0.163814 0.0625601)
(0.258221 0.165907 0.0622277)
(0.0731878 0.186327 0.0614432)
(-0.0167097 0.202283 0.0581336)
(0.140629 0.17181 0.0522203)
(2.98855 8.09816e-06 0.00143788)
(2.98291 -2.13515e-06 0.00328068)
(2.97953 6.5339e-06 0.00493517)
(2.97738 -6.88584e-06 0.00643816)
(2.97597 6.42973e-06 0.00768987)
(2.975 -1.09696e-05 0.00888545)
(2.97419 1.01417e-05 0.00975391)
(2.97285 1.84303e-05 0.0107851)
(2.96795 0.000147082 0.0112895)
(2.95943 0.000157458 0.012281)
(2.92851 0.0014543 0.0130408)
(2.86223 0.00105946 0.0177817)
(2.67018 0.00584135 0.0203437)
(2.05196 0.0124228 0.0390437)
(0.61253 0.0312145 0.0620827)
(-0.325356 0.0873723 0.0652659)
(0.09397 0.136403 0.0601087)
(0.449776 0.172859 0.0568879)
(0.502721 0.19891 0.0594816)
(0.426221 0.225553 0.0613296)
(0.360484 0.235974 0.0616149)
(0.258528 0.24306 0.0606124)
(0.0823092 0.264833 0.0598837)
(-0.0149706 0.281035 0.0565213)
(0.14244 0.232421 0.0505763)
(2.98855 -1.30048e-06 0.00143816)
(2.98291 -7.53233e-07 0.00328006)
(2.97953 -1.73209e-06 0.00493577)
(2.97738 -1.79964e-06 0.00643701)
(2.97597 -1.05145e-06 0.00769142)
(2.975 -2.43021e-06 0.0088833)
(2.9742 4.05152e-06 0.009756)
(2.97287 9.87351e-06 0.0107827)
(2.96806 6.44582e-05 0.0112818)
(2.95964 0.000319923 0.0122466)
(2.92921 0.00075388 0.0130336)
(2.86409 0.00246361 0.0176428)
(2.67539 0.00615414 0.0203294)
(2.0679 0.0185764 0.0388494)
(0.64631 0.0543459 0.0617488)
(-0.312081 0.128639 0.0645204)
(0.106714 0.182339 0.0598153)
(0.456249 0.22189 0.0563682)
(0.502633 0.25435 0.0588933)
(0.419723 0.289882 0.0603867)
(0.36315 0.306642 0.0606777)
(0.265472 0.32216 0.0592302)
(0.10436 0.346351 0.0581069)
(-0.00753848 0.361604 0.0546378)
(0.141344 0.302734 0.0486141)
(2.98855 -1.24613e-05 0.00143741)
(2.98291 2.01804e-06 0.00328107)
(2.97953 -1.24045e-05 0.00493493)
(2.97738 7.72063e-06 0.00643812)
(2.97597 -1.29227e-05 0.00769048)
(2.97501 1.54776e-05 0.00888404)
(2.9742 -9.52654e-06 0.00975665)
(2.9729 2.24668e-05 0.01078)
(2.96821 2.21434e-05 0.0112957)
(2.96 0.000480863 0.0122584)
(2.93023 0.000119329 0.013029)
(2.8669 0.00370181 0.0176278)
(2.68272 0.00677414 0.020197)
(2.09302 0.0234906 0.0380485)
(0.707486 0.0791355 0.0612698)
(-0.228101 0.167072 0.0647085)
(0.142853 0.225244 0.0592892)
(0.473543 0.267218 0.0553553)
(0.514643 0.307436 0.058002)
(0.439536 0.351953 0.0598444)
(0.371866 0.376783 0.0596577)
(0.280178 0.401358 0.0578671)
(0.136211 0.43052 0.0562587)
(0.00912682 0.448063 0.0525463)
(0.138566 0.388303 0.0462791)
(2.98855 -1.50496e-05 0.00143478)
(2.98291 1.31213e-06 0.003285)
(2.97953 -1.44725e-05 0.004931)
(2.97738 8.46597e-06 0.00644433)
(2.97598 -1.34542e-05 0.0076818)
(2.975 1.84439e-05 0.00889813)
(2.97421 -8.57729e-06 0.00973495)
(2.97289 2.56586e-05 0.0108176)
(2.96844 3.83883e-05 0.0112539)