/*--------------------------------*- C++ -*----------------------------------*\
  =========                 |
  \\      /  F ield         | OpenFOAM: The Open Source CFD Toolbox
   \\    /   O peration     | Website:  https://openfoam.org
    \\  /    A nd           | Version:  6
     \\/     M anipulation  |
\*---------------------------------------------------------------------------*/
FoamFile
{
    version     2.0;
    format      ascii;
    class       volScalarField;
    location    "95";
    object      p;
}
// * * * * * * * * * * * * * * * * * * * * * * * * * * * * * * * * * * * * * //

dimensions      [0 2 -2 0 0 0 0];

internalField   nonuniform List<scalar> 
918
(
0.541418
1.22788
0.00704648
0.541323
-0.0117283
1.19471
-0.499889
0.638091
0.52257
-0.120984
-0.0852365
0.524397
1.0525
0.819562
-1.16063
-0.0251513
0.638367
-0.415828
0.520637
-0.09527
0.65006
0.529244
0.531709
0.522494
0.584842
0.772074
0.930443
-0.00370796
0.0124062
0.00708002
-0.0130952
-0.0335779
-0.030894
1.07783
1.12973
1.1531
0.489071
0.323244
-0.394561
-0.449982
-0.426555
-0.516512
0.638834
0.640089
-0.22414
0.637428
0.6364
0.508252
0.521963
0.522799
0.523923
0.522833
0.524111
0.404113
-0.128203
-0.155165
-0.105396
-0.104693
0.025328
-0.0867713
-0.0878545
-0.0832668
-0.084705
0.438108
0.519167
0.515906
0.528634
0.537791
1.16805
1.14196
1.16821
1.0776
1.09552
1.02962
1.00282
0.840755
0.864252
0.802816
0.789176
-1.61222
-2.55178
-0.587575
-0.31466
-0.0109866
-0.0269891
-0.0262305
0.633837
0.636434
0.636236
0.639053
1.04432
-0.386687
-0.45901
0.521181
0.519711
0.52876
0.529665
0.524632
0.524629
-0.091742
-0.0907647
-0.0788212
-0.0918962
-0.0899363
0.629366
0.631947
0.52193
0.519371
0.546044
0.56898
0.557365
0.254972
0.596296
0.612078
0.636755
0.782483
0.769068
0.781647
0.905696
0.873587
0.962429
0.984288
0.0145264
-0.0019302
-0.0266996
-0.0238887
-0.0246735
0.484811
0.478375
0.506601
0.492692
0.495735
0.229492
0.0806668
0.40464
0.427702
-0.318711
-0.369663
-0.454885
-0.452258
-0.560743
0.610442
0.641721
0.640776
-0.235348
-0.16281
-0.291122
-0.104759
-0.162458
0.499196
0.505451
0.501524
0.516921
0.511083
0.51351
0.526029
0.523215
0.524808
0.452632
0.584556
0.331699
0.290848
-0.275746
-0.173127
-0.256723
-0.09713
-0.0963338
0.0345253
0.0624553
0.0107747
-0.00301273
-0.0917633
-0.0889002
-0.0907747
-0.0853749
-0.0876618
0.429555
0.416487
0.449359
0.456887
0.505883
0.50729
0.511745
0.509771
0.954779
0.977657
0.983043
0.959013
-3.5213
-6.13744
0.0251946
0.182305
-0.0105418
-0.0122408
-0.000702672
-0.0104886
-0.00172134
-0.00315291
-0.0360044
-0.036302
-0.0300234
-0.031198
0.631965
0.632206
1.01815
1.04447
0.983425
0.960129
0.510548
0.512421
0.51704
0.513927
-0.0878656
-0.0891941
-0.0882586
0.635046
0.633099
0.634049
0.213406
0.124155
0.306934
0.338249
0.626977
0.61621
0.625758
0.696666
0.735894
1.00093
1.02378
1.00884
1.02067
1.07099
1.09387
1.05911
0.463373
0.474305
0.468569
0.509426
0.507245
0.508187
0.504862
0.505728
0.504446
-0.0299279
-0.398817
0.476243
0.477432
0.469956
0.472518
0.698056
0.78243
0.637189
0.639641
0.639878
-0.0525462
-0.0997258
0.237507
0.200846
0.368472
0.403213
0.384941
0.92975
0.889081
0.93751
0.91259
0.877281
0.90175
-0.334144
-2.08846
-1.0875
0.57842
0.383194
0.474116
-0.020676
-0.0360604
-0.0336571
1.03285
1.07207
0.651439
0.839871
0.791255
0.758399
0.784717
0.848077
0.78061
0.815309
0.845736
0.821291
0.558803
0.486914
0.505756
0.857992
0.913851
0.0861395
0.00628574
-0.0165588
0.0860646
0.156515
0.123352
1.04918
0.966819
1.02926
0.519612
0.520565
-0.0225816
-0.0505536
0.52468
0.524389
-0.0240281
-0.0149929
0.489131
-0.9266
0.0867311
0.514239
0.503826
0.520682
-0.100611
0.308593
-0.0889515
0.00266231
-0.0306016
0.515341
0.450469
0.408132
-0.0116892
-0.0353071
-0.0872704
-0.209733
0.517351
0.515709
0.520072
0.52089
0.52167
-0.0323256
-0.0325422
-0.0220807
-0.07745
-0.0707093
-0.0835236
0.48394
0.503993
-0.189833
0.520367
0.522473
0.522165
0.516412
0.521325
0.519972
-0.0271071
-0.029915
-0.031958
0.19301
0.335298
0.671569
0.745893
0.6208
0.455245
0.166494
0.609248
0.660678
0.586291
0.716691
0.639702
0.63623
0.153585
0.00917072
0.158197
0.0911592
0.511043
0.510497
0.501341
0.498221
0.515528
0.513205
0.518399
0.515661
0.518829
0.519966
-0.0601079
-0.0852796
-0.103405
-0.145868
0.264707
0.539181
0.223782
0.283862
0.141176
-0.0813087
-0.0798657
-0.0841062
-0.0872415
-0.0496863
-0.0502948
-0.0043797
0.00625201
-0.0109407
-0.0365896
-0.0587697
-0.0507224
-0.0597076
0.508483
0.508266
0.513695
0.522467
0.46011
0.463812
0.430167
0.448893
0.435053
0.375175
0.404764
0.381936
-0.0218194
-0.01349
-0.0135539
-0.0367387
-0.036236
-0.0585212
-0.0514394
-0.049868
-0.0475407
-0.0522629
-0.0802507
-0.0868047
-0.173182
-0.293352
0.965752
0.916256
0.140432
0.507236
0.512914
0.510077
0.514835
0.518026
0.518651
0.516215
0.512703
0.504116
0.505705
0.502275
0.503332
-0.127067
-0.237517
-0.0687167
-0.146055
0.152238
0.618137
0.342434
0.286972
0.272147
0.500089
0.689054
0.595325
0.648939
0.619763
-0.389977
0.00523204
-0.3258
0.218415
0.21584
0.698939
0.740473
0.757862
0.714857
0.67137
-0.0158321
0.549943
-0.0740328
-0.0218236
0.170925
0.0510993
0.604013
0.625285
0.631296
0.628644
0.632755
0.632694
0.622649
0.609569
0.633442
0.636478
0.495015
0.221214
0.177518
0.131647
0.623783
0.518518
0.568938
0.485438
0.50665
0.509095
0.508071
0.488739
0.496104
0.491762
0.498977
0.502618
0.510001
0.510167
0.505957
0.507928
-0.076992
-0.0862189
-0.0678466
-0.123566
-0.130549
-0.173622
-0.0838677
0.090433
0.0396599
0.229133
0.352239
0.0688012
-0.0509544
-0.0338514
0.018794
0.183529
0.181899
0.045407
0.147408
0.1198
0.102737
0.219963
0.219461
-0.0560776
-0.0636903
-0.0624957
-0.0687043
-0.0232225
0.0988598
0.0704268
-0.0370202
-0.0423989
-0.0783064
-0.0817316
-9.22274e-05
-0.0449227
-0.0370861
-0.00692439
-0.0650554
-0.0394131
-0.0302771
-0.0395532
-0.0394505
-0.0383222
0.503064
0.504819
0.505012
0.5149
0.5264
0.541068
0.508213
0.481337
0.472357
0.475455
0.448529
0.45777
0.453026
0.468898
0.490414
0.498854
0.496967
0.499682
0.481686
0.483394
0.468773
0.473405
0.442604
0.423788
0.41361
-0.0613287
-0.0289534
-0.0423675
-0.0538824
-0.0288735
-0.0378103
-0.0386728
-0.0196457
-0.0395203
-0.0341123
-0.0438033
-0.0504402
-0.0511907
-0.0753946
0.00689428
-0.176113
-0.225276
-0.278534
0.887731
1.02596
0.817465
0.586452
0.595269
0.837056
0.948049
0.542209
0.724245
0.766139
0.5765
0.869576
0.511205
0.510779
0.508629
0.50779
0.508806
-0.0141184
0.0900135
0.0999143
0.160592
0.276294
0.380976
0.316846
0.203041
0.335704
0.360428
0.615548
0.622317
0.581087
0.602397
0.603211
0.41007
0.490582
0.528181
0.485308
0.5624
0.594176
0.537665
0.582092
0.503536
0.452938
0.444072
0.398994
0.433836
0.414868
0.389089
0.502952
0.479871
0.490611
0.480929
0.502845
0.528542
0.528907
0.54896
0.567089
0.481626
0.42722
0.444349
0.473101
0.429043
0.446718
0.468845
0.191218
0.0928327
0.255974
-0.0714874
0.0121057
0.0537797
0.00987249
-0.0311996
0.275364
-0.359987
-0.306145
-0.979646
0.498804
0.82685
0.547283
0.558779
0.630481
0.61872
0.626697
0.625364
0.631848
0.611032
0.619905
0.625242
0.595917
0.61677
0.604239
0.614156
0.49759
0.397042
0.401532
0.331478
0.19175
0.234178
0.42198
0.355587
0.281586
0.274036
0.451495
0.316095
0.396173
0.445787
0.368415
0.304396
0.532366
0.579427
0.572726
0.544537
0.422575
0.456361
0.457239
0.508032
0.552074
0.575392
0.497544
0.503827
0.504738
0.502012
0.500379
0.503499
0.503786
0.506077
0.506217
0.508806
0.508299
-0.0779754
-0.064213
-0.0766607
-0.0856518
-0.0248989
-0.0358162
-0.0017324
-0.0333786
-0.0359475
-0.0310958
-0.0471725
-0.0604171
-0.0597629
-0.0510052
0.0669922
0.0849178
0.0867679
0.044931
0.259887
0.38433
0.447847
0.345501
0.195224
0.19914
0.265082
0.0238774
0.00485848
-0.00764082
0.0646905
0.0560771
-0.0685243
-0.0742282
-0.0719201
-0.0563072
-0.0492538
-0.0767652
-0.0813673
-0.0692589
-0.0760977
-0.0807998
-0.0855767
0.483005
0.475921
0.479511
0.471941
0.470115
0.486996
0.491591
0.492686
0.498267
0.500765
0.490363
0.496146
0.500266
-0.0407452
-0.0584136
-0.0575421
-0.0619975
-0.058314
-0.056291
-0.0607424
0.129103
0.0340114
0.0702508
-0.000667725
-0.127898
-0.068685
0.503812
0.495696
0.482609
0.723899
0.559416
0.477925
0.576474
0.698084
0.27792
0.477529
0.312661
0.891453
0.797816
0.943495
0.55755
0.257062
0.430085
0.436769
0.278141
0.403766
0.340739
0.216635
0.251737
0.287741
0.371492
0.256786
0.236129
-0.00725095
0.175376
0.284316
0.266256
0.392146
0.448004
0.268616
0.183598
0.129122
0.597937
0.614211
0.622007
0.594363
0.614579
0.573961
0.563356
0.578727
0.587783
0.584302
-0.614097
-0.20307
-1.40215
-0.821195
-0.369494
0.526528
0.531512
0.749562
0.648685
0.653667
0.635614
0.589285
0.569005
0.599943
0.611029
0.3204
0.405051
0.391623
0.368158
0.314525
0.257049
0.530508
0.540758
0.561968
0.590583
0.566158
0.594292
0.496306
0.496147
0.49483
0.491088
0.489591
0.492843
0.0182505
-0.00656599
0.0301487
0.0169132
-0.00439327
-0.00730483
-0.0494626
-0.061642
-0.0613775
-0.0574044
-0.0463321
-0.04489
0.176498
0.113735
0.0240035
0.0661305
-0.00138307
-0.0840555
-0.0865127
0.00532863
0.106327
0.0875118
0.393178
0.662327
0.487013
0.653814
0.450815
0.551035
0.465239
0.438698
0.465639
0.372419
0.463495
0.0653016
-0.137243
-0.192006
0.820459
0.784726
0.561913
0.322526
0.200491
0.488372
0.510285
0.469865
0.504226
0.547814
0.537594
0.0335017
0.117239
0.210144
0.513464
0.285083
0.304949
0.294591
0.462359
0.430108
)
;

boundaryField
{
    wall-4
    {
        type            zeroGradient;
    }
    velocity-inlet-5
    {
        type            zeroGradient;
    }
    velocity-inlet-6
    {
        type            zeroGradient;
    }
    pressure-outlet-7
    {
        type            fixedValue;
        value           uniform 0;
    }
    wall-8
    {
        type            zeroGradient;
    }
    frontAndBackPlanes
    {
        type            empty;
    }
}


// ************************************************************************* //
