/*--------------------------------*- C++ -*----------------------------------*\
  =========                 |
  \\      /  F ield         | OpenFOAM: The Open Source CFD Toolbox
   \\    /   O peration     | Website:  https://openfoam.org
    \\  /    A nd           | Version:  6
     \\/     M anipulation  |
\*---------------------------------------------------------------------------*/
FoamFile
{
    version     2.0;
    format      ascii;
    class       surfaceScalarField;
    location    "95";
    object      phi;
}
// * * * * * * * * * * * * * * * * * * * * * * * * * * * * * * * * * * * * * //

dimensions      [0 3 -1 0 0 0 0];

internalField   nonuniform List<scalar> 
1300
(
3.75095
5.62643
-3.30664
3.75095
-7.75492
5.62643
-4.2923
4.2923
-0.394056
0.394056
1.8765
1.87445
-2.43292
2.43292
-1.67882
1.67882
-2.52549
2.52549
-5.24819
5.24819
-5.06896
5.06896
4.69321
-4.69321
-6.35029
6.35029
-0.965663
0.965663
-3.586
3.586
3.17235
-3.17235
-1.74513
1.74513
0.11595
-0.11595
-0.55408
4.30503
3.19687
3.19687
-1.99058
1.99058
-4.87534
4.87534
6.22178
-6.22178
5.20155
-5.20155
-1.89491
-2.53189
1.78696
-11.4461
-5.96796
-5.96796
-8.44087
8.44087
-2.81444
2.81199
2.94735
-2.94735
-1.71416
1.71416
-4.31053
0.0182264
-4.31053
4.26147
0.0308263
4.26147
-0.509885
0.115829
-0.509885
3.96516
-3.96516
0.295232
0.0988248
0.295232
3.06734
-3.06734
-1.87685
3.75335
1.87411
-1.8721
6.17713
-1.87886
3.7533
-6.04238
6.04238
-2.68234
0.249412
-2.68234
2.19855
0.234375
2.19855
-6.90398
6.90398
-1.76946
0.0906457
-1.76946
1.68471
-0.00588872
1.68471
2.88867
-2.88867
-2.62557
0.100082
-2.62557
2.39044
0.135051
2.39044
0.35305
5.27338
-5.97948
8.79147
-5.27338
0.0251924
5.21022
0.0379655
5.21022
-5.10544
0.0364854
-5.10544
5.01385
0.0551063
5.01385
4.77995
-0.0867432
4.77995
-4.81481
0.121602
-4.81481
-3.35583
-4.08608
-6.5122
0.161918
-6.5122
-1.03648
0.0708149
-1.03648
0.861161
0.104503
0.861161
-3.72586
3.72586
-3.94593
0.359934
-3.94593
3.1273
0.0450512
3.1273
1.86812
1.88284
5.61907
-5.61907
2.44672
-1.66875
-0.0763821
-1.66875
-1.83964
-3.36191
1.83964
-0.0945089
-0.116737
0.232687
-0.116737
3.15713
0.039741
3.15713
2.23359
0.156855
-2.23359
0.243009
3.30384
-3.30384
1.32989
0.660691
1.32989
-5.55855
5.55855
4.96231
0.0515357
-4.96231
0.0869773
6.15662
0.0651575
6.15662
-6.20697
-0.0148085
-6.20697
2.48064
-5.01253
-2.69192
6.1599
0.190387
-6.1599
0.191939
2.91896
0.0283939
2.91896
-2.91763
2.91763
-2.98431
0.0369562
-2.98431
-2.13694
0.422771
-2.13694
1.40009
0.314077
1.40009
-4.22597
-0.084558
-4.22597
-4.10544
0.159512
4.10544
0.156031
1.11534
-1.11534
-0.614219
0.104334
-0.614219
-4.07242
-0.153554
4.07242
-0.107254
-3.90226
-0.0628997
-3.90226
-3.02197
0.0376635
3.02197
0.0453688
3.11213
0.0449977
-3.11213
0.0447956
-1.87099
3.75383
-1.87996
3.75407
-5.67716
-0.365213
-5.67716
6.36529
-0.322911
6.36529
3.10612
0.479878
-3.10612
0.423783
2.01239
0.186157
2.01239
-6.8769
-0.0270788
-6.8769
6.9119
-0.00792372
6.9119
1.87311
0.139285
-1.87311
0.103644
1.6709
0.0138066
1.6709
2.91649
-0.0278239
2.91649
-2.88223
-0.0064407
-2.88223
2.78843
-2.78843
2.71287
0.0755651
-2.71287
0.0872925
-11.1248
11.11
-0.0362879
-11.0885
5.17393
5.17393
4.23193
0.54802
4.23193
-5.01302
0.19821
-5.01302
2.66969
-5.36161
3.13003
-6.48586
4.67479
-16.1209
4.27682
-8.3629
6.7633
-6.7633
6.64466
0.118635
-6.64466
0.132456
-1.14408
0.107604
-1.14408
-3.12904
-0.59682
-3.12904
4.36777
-0.641919
4.36777
-3.02729
3.02729
-3.07619
0.0488945
3.07619
0.0511077
1.65347
0.0174286
-1.65347
-0.0152783
0.197102
0.09813
-0.197102
0.0803648
3.52791
-0.224079
3.52791
-3.09825
-0.205591
-3.09825
-1.23251
0.0884249
1.23251
0.0973797
-5.80739
0.248844
-5.80739
-11.1823
0.0937914
-11.1444
-6.11318
-6.11318
2.32769
11.1192
-2.89741
0.0151796
2.89741
0.0215493
2.97431
0.0529796
-2.97431
0.0566804
-2.85584
0.0674065
2.85584
0.0617948
-2.5049
0.367966
-2.5049
-1.01698
1.01698
-1.16342
0.146441
1.16342
0.236666
1.41866
-0.303318
1.41866
0.744218
0.116942
-0.744218
0.129999
-3.84505
-0.057208
-3.84505
6.59908
-0.233792
6.59908
-2.96873
-0.129517
2.96873
-0.0522364
-0.0347298
11.1447
-5.1392
0.033764
5.1392
-11.2099
11.2437
-3.20978
0.704874
3.20978
1.02216
5.28354
0.275013
-5.28354
0.270516
6.85385
0.0580513
-6.85385
0.0905529
-2.63785
-0.491184
-2.63785
-5.09807
-0.579098
5.09807
-0.730291
-11.4823
-0.202188
11.6845
-11.4272
6.00958
0.147039
-6.00958
11.3907
-0.989238
-0.126102
0.989238
0.0277442
1.75956
-0.340902
1.75956
3.74756
-0.219641
-3.74756
-0.0974978
-6.76285
-0.114051
6.76285
-0.163766
-2.18869
-0.449157
2.18869
-0.429135
-4.26739
4.30713
1.90974
-2.31491
-2.69762
-5.67682
1.85531
1.89852
4.30203
-10.1381
-5.98288
-9.94612
7.21494
-6.94443
-9.31447
9.22773
7.94859
-8.01149
-5.77724
5.82834
6.48483
-6.43946
1.87949
1.87386
8.08413
-7.83471
-15.6792
15.314
7.66435
-7.5737
15.8082
-15.8353
-17.847
17.905
-5.70563
5.80571
-6.74306
6.73662
-6.97992
6.92768
-2.79492
-3.69094
13.1067
-12.9448
8.6653
-8.74168
-8.69467
9.0546
3.38462
0.922514
3.42962
-1.88177
3.76126
-1.87153
3.78127
2.78834
-5.58326
2.57327
-5.27089
4.42281
4.24249
-4.3283
-1.34852
-5.92889
5.95728
-5.80975
5.87155
9.20102
-9.1828
-1.88498
3.75885
-1.86908
3.7676
-3.4228
-2.35444
3.37775
0.924284
8.05539
5.05129
-8.24578
-1.70034
-8.03385
7.81421
-8.21759
8.012
-0.436148
5.83857
-5.40242
4.43919
-1.65345
7.49202
5.56149
5.7597
5.86073
-5.58571
1.0837
-6.48612
-6.39914
-2.20836
2.31269
2.04863
-1.9498
6.16176
1.78682
6.05451
-5.81424
-2.19725
-5.87145
3.81963
2.00871
3.86853
4.08224
2.40259
4.1199
3.02941
-3.03687
0.00745268
-3.05943
6.08884
0.721979
-5.41387
-4.48958
4.99628
3.08784
5.23066
-5.60279
-2.23192
-5.17901
-9.59199
-6.08726
-10.1711
10.1582
5.15581
9.83531
-11.9401
11.7763
4.90247
2.76187
4.89659
-4.98345
-2.59026
-4.8798
11.6626
-2.65417
-9.00846
-10.3212
-7.52574
10.3292
5.47908
10.9628
6.94222
11.0534
4.41899
7.24364
-9.89808
2.37233
-3.86597
-1.83965
-3.77868
3.66438
2.14133
3.79943
-4.21892
-2.52413
-4.20374
-4.29532
-2.68459
4.32315
2.41347
-4.41773
-3.79986
4.54725
2.38043
4.06257
-10.0455
4.30033
-7.99127
-9.19376
-3.751
-9.0613
3.58859
2.59771
-6.1863
-1.99467
8.61407
-4.37158
7.26555
-5.22924
-3.51244
-5.24451
-6.98396
-1.71071
-6.82445
-8.90497
8.41379
-9.18726
8.54534
12.493
-5.63008
-6.86294
-3.96705
-2.47241
3.92225
-0.492632
-3.71005
3.71751
0.0512075
3.83248
4.75499
4.26236
-3.88281
-1.92694
-3.82613
3.82205
2.0495
3.88945
6.86793
2.33309
6.89875
-6.631
-2.55179
-6.71556
9.08192
-8.65915
2.78723
-2.6988
5.38068
2.63132
-5.1566
-2.87726
6.2347
-3.20793
-3.02676
-12.3506
10.7814
1.56914
-4.85854
-0.419354
-0.535304
-5.56383
-3.75065
5.44222
0.317478
11.0989
7.34825
-5.51467
5.76351
6.16981
6.22135
-0.177796
5.87653
-5.17166
5.27839
-2.73366
-2.54472
5.48922
-5.64277
-1.22635
-5.56785
4.3415
0.411739
1.43966
-1.20698
-1.74357
-0.464785
-1.61357
1.09089
0.95774
1.18902
0.963465
1.34923
-2.94365
0.484746
2.45891
-1.98019
-1.46506
-3.81438
-1.14989
4.96427
5.73973
2.07449
-5.64223
-0.229216
2.54897
-2.44447
-0.837346
-2.97703
2.22078
-3.05813
-3.45784
-1.95914
5.41697
-3.36886
-0.457266
3.31588
0.552647
-3.82826
-2.10063
3.7913
0.328597
-3.129
6.19032
-3.06132
-5.05594
2.52905
3.55979
4.53776
-4.78988
2.44929
2.3406
-1.23009
4.25893
0.971731
4.44509
-7.08168
4.84975
5.74866
3.30594
-6.22854
1.04953
-6.03215
8.56638
-7.42196
-1.14442
4.10415
4.46223
7.02553
5.46749
-5.6876
12.7131
-1.17509
-6.24687
7.20724
-3.9013
4.87771
-8.77901
-10.3452
4.09834
-9.1877
11.0856
-1.89791
-3.5862
-8.35387
12.7739
-1.24765
-11.5262
8.58766
-4.36307
-4.43226
8.79533
-7.01724
7.02252
-1.98785
-5.03466
-10.1441
-5.69124
10.2581
1.51816
-9.96897
12.3413
-2.72533
4.16397
0.732618
4.17777
3.37713
-5.47306
2.09593
3.64011
-5.62796
2.03857
-7.51162
-6.75022
12.0881
-5.33785
-10.5012
-9.53595
-0.965278
2.5496
9.7917
-9.49181
7.42524
2.06657
3.29836
0.591089
-3.37393
-0.404752
0.233308
4.50618
-4.73949
4.03274
4.1896
3.21355
1.29263
3.84955
2.10773
-3.87109
-0.332647
-4.16874
1.48414
-1.75527
-3.69328
5.17743
-4.06181
0.368529
-2.74165
-3.49241
6.23406
-4.5813
3.03561
3.15471
5.08511
-4.91409
1.42168
-2.39074
-2.52335
2.64013
-4.3954
2.00144
3.17598
4.38187
0.58201
5.91126
6.17681
-8.50897
0.5177
11.2281
-9.52775
2.47692
8.57645
-9.90217
0.366221
-8.69508
0.982661
-5.35425
-5.20364
5.23705
-6.94776
-3.54197
6.26459
0.634162
-6.42062
-0.403824
-6.05158
-2.85339
-6.50074
-3.03988
-6.14738
-8.72747
-1.66959
-7.05788
6.7442
-6.69071
-3.48038
7.421
1.12434
-7.46449
7.33838
-7.52104
7.18014
0.0951244
3.62238
4.35748
1.88507
-2.39229
4.27736
-5.08671
7.4198
-8.77117
3.68447
4.25453
-6.80632
-4.51665
5.04537
4.03655
5.35945
8.90482
-10.355
1.45023
-10.6229
11.9627
-1.33986
-16.3925
5.76957
-7.48765
2.41231
0.374915
2.51992
0.547862
2.49749
-3.04535
-2.15094
-2.05356
-2.44731
-3.49256
5.93987
1.05828
-3.47507
2.41679
-3.56606
4.62435
-0.0811503
-3.39392
5.18075
-2.68326
5.55567
-3.64721
1.90846
3.55143
5.84123
-2.2898
4.41903
-1.78771
1.95079
-4.24058
-1.54178
-2.95381
5.09514
-3.28025
3.64878
-0.355643
4.00443
-4.03671
0.82878
-0.823161
3.36643
3.60944
4.33338
-3.04075
2.93397
-4.72167
-1.30662
-4.13966
-0.963679
-0.182274
-3.77017
3.95244
5.9892
-6.17147
-5.27521
9.51113
-4.23592
7.68986
-5.43189
-2.25797
-4.28011
-4.37904
3.91215
1.96439
9.65425
0.177295
-5.60919
-4.99437
-3.97221
3.08926
2.18913
-1.7035
3.27264
2.2388
-0.799135
0.399213
0.789802
1.75948
-1.36026
0.33681
1.42267
-0.870167
1.68401
0.864961
-1.80095
0.18738
-1.37487
3.59565
1.08404
-2.04178
0.681515
0.895167
-3.62883
5.10479
-2.73677
-2.36801
5.99995
1.14932
-3.8861
4.41853
-4.00679
2.45787
-3.60776
-1.42822
-5.43501
-3.64819
-2.47977
4.89655
-3.46011
5.53459
1.43872
-5.30538
6.74409
-3.63045
1.67131
-3.04861
3.91357
-0.993892
-2.05472
2.87439
2.54258
-3.14356
0.166526
-0.269168
2.4161
-2.68527
-0.642026
-2.62221
-4.5762
4.9048
-2.10375
4.55304
2.17361
-1.9178
6.47084
1.80755
-3.72534
-3.24839
-3.70566
-1.38475
3.15301
-0.568489
-4.31131
-5.60315
4.17203
0.273056
-7.09753
7.94776
-0.85023
-4.00969
-0.840062
4.94421
-6.09446
0.4665
-4.0559
3.89187
4.8636
5.13665
-11.2922
-0.234057
-6.13637
1.08738
-7.22375
5.54961
-3.55244
7.65078
-10.285
6.80465
-9.16069
6.50636
-0.717394
6.23637
-4.14044
2.77209
-8.46333
-6.94517
5.60166
-2.83979
6.33428
-3.23021
9.56449
-5.95554
5.39051
4.17399
-1.04979
-4.19472
-5.39099
4.34119
-0.00048121
4.17729
4.9872
-2.87947
4.65455
2.26498
-4.65572
-2.13042
-6.48893
1.83321
-3.33422
-1.92245
3.75566
3.16266
3.75375
1.23231
-3.34899
7.24989
-8.21517
-1.91204
-3.2916
5.38512
-1.04392
3.48157
-6.77317
-1.87267
4.73413
-0.722392
-4.01173
0.895958
-4.43793
1.67595
-6.11387
5.27181
-5.67563
2.25367
-9.74131
-5.21082
-5.18307
-2.27669
-5.24435
-7.56029
5.2836
-1.79071
5.54767
-8.49523
7.77284
-3.46751
8.75111
-5.44787
-1.05287
5.877
1.30313
10.0542
0.166209
-4.68285
-1.94154
3.71531
-1.77377
1.14772
-3.60396
0.111354
2.49928
3.50067
-6.84079
0.0344661
-4.64839
-3.9035
7.94005
5.60763
11.5968
1.24179
9.12433
-1.18428
10.3661
4.17517
4.41183
-2.99599
4.44621
0.956451
4.64092
-0.89783
2.80629
1.62209
1.6929
0.751565
2.30031
1.30914
3.12909
0.0837367
-1.96983
4.62842
-8.60063
-0.980761
-8.05261
1.17512
5.43514
-4.26003
2.84628
-0.657148
1.07251
-0.202496
-1.12091
1.3234
-2.74722
-1.92004
-0.497375
-1.68634
2.36786
1.90931
-1.87048
-0.876739
0.325671
-3.97386
3.28209
-3.11557
-0.572986
6.17111
-2.88664
0.201369
-1.21533
-2.42084
-2.88563
2.69825
6.17451
0.296321
3.11319
5.20112
3.1005
0.221031
3.77544
-5.67335
-3.73618
-5.90741
-0.357802
4.58641
1.76601
8.0257
5.93999
4.89607
-1.8771
-10.0923
6.49708
-2.05086
5.15722
-1.14549
-4.96839
5.0842
2.3356
-5.71837
0.0427347
-4.92565
-6.97652
-0.477502
8.25034
-9.57675
8.52388
5.67048
1.3874
-4.42507
-0.758006
4.27863
0.133206
10.4993
-0.919239
-7.02711
7.94635
-4.51591
3.53514
0.674535
2.5981
1.99794
1.34079
-5.68633
-9.94635
-2.06558
-1.56325
-4.43359
0.530679
-2.43999
6.06202
-2.52688
3.80405
5.41948
6.49198
-2.05018
-4.12129
6.2861
-2.48205
4.00994
)
;

boundaryField
{
    wall-4
    {
        type            calculated;
        value           uniform 0;
    }
    velocity-inlet-5
    {
        type            calculated;
        value           uniform -3.75095;
    }
    velocity-inlet-6
    {
        type            calculated;
        value           uniform -5.62643;
    }
    pressure-outlet-7
    {
        type            calculated;
        value           nonuniform List<scalar> 8(3.30664 7.75492 4.4268 9.65919 7.44191 5.17256 5.79972 8.95161);
    }
    wall-8
    {
        type            calculated;
        value           uniform 0;
    }
    frontAndBackPlanes
    {
        type            empty;
        value           nonuniform 0();
    }
}


// ************************************************************************* //
