/*--------------------------------*- C++ -*----------------------------------*\
  =========                 |
  \\      /  F ield         | OpenFOAM: The Open Source CFD Toolbox
   \\    /   O peration     | Website:  https://openfoam.org
    \\  /    A nd           | Version:  6
     \\/     M anipulation  |
\*---------------------------------------------------------------------------*/
FoamFile
{
    version     2.0;
    format      ascii;
    class       volVectorField;
    location    "95";
    object      U;
}
// * * * * * * * * * * * * * * * * * * * * * * * * * * * * * * * * * * * * * //

dimensions      [0 1 -1 0 0 0 0];

internalField   nonuniform List<vector> 
918
(
(0.985049 -0.000715836 0)
(0.00543982 2.96618 0)
(-0.00475702 0.87291 0)
(0.979575 0.0019619 0)
(-0.0146585 2.06355 3.32777e-20)
(-0.00719099 2.9486 -2.56002e-18)
(0.822685 1.12523 4.41635e-19)
(0.116883 0.085502 -1.42437e-20)
(0.999922 -0.000246082 0)
(0.0933936 0.673429 0)
(0.0190923 0.352532 0)
(0.732725 0.00876163 0)
(0.0101863 2.93181 0)
(0.00326523 2.79442 0)
(-0.00286484 3.17569 8.20658e-19)
(-0.0134084 1.93278 2.44932e-20)
(0.295426 0.0459794 9.95976e-19)
(0.235164 1.11176 3.50026e-19)
(0.964311 0.00674359 0)
(-0.00426155 0.333033 0)
(0.0574487 -0.0751941 -6.45514e-19)
(1.00183 -0.00455924 0)
(0.99985 -0.0089259 0)
(0.975169 -0.00605161 0)
(0.593038 0.0277839 0)
(0.0208019 2.64502 0)
(-0.0121623 2.91151 9.37615e-19)
(-0.00698374 0.924138 0)
(-0.0369697 1.17157 0)
(-0.00464886 0.891661 0)
(-0.0251654 2.58335 0)
(-0.0056006 2.11478 -2.65803e-20)
(-0.0105216 1.90348 0)
(-0.0219317 2.98768 -9.22365e-23)
(-0.0163822 3.00545 1.9868e-18)
(0.00231048 3.00043 0)
(0.871989 -0.00976915 0)
(0.372044 0.909204 1.70144e-19)
(0.821533 1.14401 -5.48282e-19)
(0.95399 1.01046 5.62623e-19)
(0.683877 1.22694 -1.00958e-19)
(0.69741 1.18672 5.76425e-19)
(0.146755 0.126558 1.3894e-20)
(0.151852 0.0928783 0)
(1.17022 0.533159 0)
(0.11353 0.108087 6.25197e-20)
(0.0915502 0.0703832 -6.48848e-20)
(0.920571 -0.00704526 0)
(1.00027 5.12005e-05 0)
(0.999907 0.000320657 0)
(1.0037 -0.00727992 0)
(1.00088 -0.000950148 0)
(1.00011 -5.39036e-06 0)
(0.0777677 1.83437 -7.66625e-19)
(0.0341782 0.847914 0)
(0.129337 0.763675 0)
(0.0182698 0.787591 0)
(0.0546623 0.589466 0)
(0.00596527 2.03614 0)
(-0.00689015 0.68447 0)
(0.0124899 0.402599 0)
(-0.01364 0.678909 0)
(0.0125809 0.351058 0)
(0.843793 -0.0156327 0)
(0.842189 0.0257153 0)
(0.756904 0.00602084 0)
(0.799859 0.0278209 0)
(0.701592 0.0195751 0)
(0.0137986 3.00031 9.50434e-19)
(0.0109385 3.00667 0)
(0.0058584 3.00351 0)
(0.011842 2.99746 1.07899e-23)
(0.00802143 2.95884 -1.41257e-18)
(0.0122218 2.98281 0)
(0.00923136 2.90493 0)
(0.0210088 2.93148 2.1863e-24)
(0.00379923 2.82438 0)
(0.0260297 2.91881 0)
(-0.000657923 2.74513 0)
(0.303994 3.56857 0)
(-0.122109 3.65112 0)
(0.147975 3.2662 -7.63759e-19)
(0.00238965 3.00525 0)
(-0.0340079 1.99136 0)
(-0.00751165 2.18169 -2.4157e-20)
(-0.00897015 1.94557 2.56834e-20)
(0.347618 0.139285 -3.45865e-19)
(0.323762 0.0163805 -3.36414e-19)
(0.301313 0.157489 -1.03381e-18)
(0.26263 0.0673004 -6.72051e-19)
(0.264881 1.02598 0)
(0.334807 1.24356 -3.6208e-19)
(0.416756 1.15432 5.97739e-19)
(0.987687 0.00817162 0)
(0.943193 0.00577202 0)
(1.00028 0.000672028 0)
(1.00254 0.00906612 0)
(1.0031 0.00899855 -2.66524e-18)
(0.992135 0.00941133 2.01397e-18)
(-0.0261429 0.701194 0)
(0.00153515 0.33879 0)
(-0.0572702 1.01466 0)
(-0.0394486 0.763359 0)
(-0.0203138 0.338106 0)
(-0.080938 0.0679356 2.00773e-19)
(0.033967 0.0544459 0)
(0.993627 -0.00769174 0)
(0.954055 -0.00648437 0)
(0.741601 0.0276506 0)
(0.672818 0.0250754 0)
(0.659057 0.0278496 0)
(0.980818 -0.00240869 0)
(0.584843 0.066393 0)
(0.454738 -0.00876047 1.51477e-18)
(-0.0411023 2.86003 7.31916e-19)
(0.0338743 2.9143 0)
(0.0427989 2.89273 0)
(0.0031924 2.70251 0)
(-0.0087475 2.9864 8.96001e-19)
(-0.0138858 2.89426 0)
(-0.0109799 2.99151 -2.76128e-18)
(-0.0116332 2.92902 9.40735e-19)
(-0.0549667 1.35366 0)
(-0.0216165 1.38306 0)
(-0.00833268 2.14293 8.75882e-22)
(-0.00840555 2.10108 0)
(-0.0173627 1.91582 0)
(0.938931 -0.00518975 0)
(0.857358 -0.0111677 0)
(0.862622 0.00573063 0)
(0.949709 -0.00613031 0)
(0.883715 -0.00810251 0)
(0.495107 1.10881 -2.15613e-19)
(0.542683 1.1789 0)
(0.334052 0.843499 3.26194e-20)
(0.279173 0.708456 0)
(0.922991 1.03972 -1.58716e-19)
(1.04613 0.849817 3.19854e-19)
(0.395172 1.32213 0)
(0.545948 1.27789 0)
(0.600256 1.20406 0)
(0.104313 0.17975 -3.03e-19)
(0.173091 0.14042 0)
(0.172243 0.108411 1.86803e-19)
(1.00905 0.903751 0)
(1.08471 0.751432 0)
(1.11441 0.686509 -2.55674e-19)
(1.15052 0.597089 0)
(1.20666 0.391391 4.76092e-20)
(0.957534 -0.00709268 0)
(0.962751 -0.00810801 0)
(0.900943 -0.00737745 0)
(0.983935 -0.00812084 0)
(0.974441 -0.00802922 0)
(0.936558 -0.00656694 0)
(1.0002 0.00250675 0)
(1.00078 0.00123793 0)
(1 0.000759323 0)
(0.0391631 2.08471 4.21324e-19)
(0.142793 1.78103 0)
(0.0171828 2.18995 6.57484e-19)
(0.0523603 1.89123 -5.39617e-19)
(0.1686 1.08655 -2.87169e-19)
(0.0503234 0.935507 0)
(0.12352 0.941516 0)
(0.00598109 0.749912 0)
(0.0319707 0.514684 0)
(-0.0021501 2.26124 -3.19392e-22)
(0.0217092 2.04279 0)
(-0.00483842 2.26162 -3.3859e-21)
(0.00333313 2.04987 -6.91954e-21)
(-0.00176177 0.719594 0)
(-0.00447494 0.698706 0)
(0.0156112 0.451721 0)
(-0.0168174 0.68184 0)
(0.00465983 0.346094 0)
(0.939612 0.013915 0)
(0.856651 -0.0115358 0)
(0.928749 0.00490551 0)
(0.846372 -0.0127924 0)
(0.809185 0.00171127 0)
(0.899212 0.0202341 0)
(0.875423 0.0228101 0)
(0.78252 0.00267666 0)
(0.0100466 3.06786 -8.84134e-21)
(0.0156242 3.05788 0)
(0.0123 2.96999 0)
(0.00761537 2.87676 0)
(0.892599 3.96032 0)
(1.18578 3.35713 9.31225e-19)
(0.0801599 3.08813 0)
(-0.0181962 2.91671 0)
(-0.020659 1.41077 0)
(-0.0392976 1.70332 0)
(-0.0285255 1.54077 0)
(-0.0355839 2.5452 -1.56635e-20)
(-0.0216359 2.24464 0)
(-0.0258101 2.3871 0)
(0.000233816 1.97581 1.06274e-22)
(-0.00527819 2.25601 -3.14994e-20)
(-0.00634485 2.22039 -2.63459e-20)
(-0.0051106 1.95961 0)
(0.391553 0.11577 5.30157e-19)
(0.364929 0.00886064 -5.20486e-19)
(0.231547 1.58898 0)
(0.290225 0.770612 -3.27158e-19)
(0.180342 1.68634 -1.06992e-18)
(0.248613 1.22935 1.07152e-18)
(0.901574 0.00593548 0)
(0.966975 0.0107338 0)
(0.974841 0.00989291 0)
(0.922925 0.00584654 0)
(-0.0228439 0.684493 0)
(-0.0221632 0.690926 0)
(0.00383483 0.332888 0)
(0.0817146 0.0960101 5.72799e-19)
(0.0571585 0.0708837 -6.69988e-19)
(0.054058 0.0575654 0)
(1.1087 0.0911493 2.4555e-20)
(1.09228 0.0430002 0)
(1.01958 0.0440045 0)
(0.914486 -0.00120687 0)
(0.435866 0.0979141 0)
(0.494772 0.0796116 -2.42258e-18)
(0.399084 0.00570048 9.07467e-19)
(0.0102855 2.97708 7.77594e-19)
(-0.0331094 2.86108 4.60045e-20)
(0.00829636 3.05362 -1.86671e-20)
(0.0164003 3.04264 6.94709e-19)
(-0.0117553 2.9999 3.09476e-20)
(-0.0124479 2.95202 -1.24615e-22)
(-0.015098 3.01307 -5.77225e-19)
(0.0153311 3.02552 4.11091e-19)
(0.00805257 3.03582 -6.68541e-19)
(0.934802 0.00216786 0)
(0.939574 -0.00109637 0)
(0.848258 -0.0111968 0)
(0.956223 0.0118118 0)
(0.942299 0.0131697 0)
(0.881359 0.00568535 0)
(0.915796 0.0174723 0)
(0.925121 0.0149712 0)
(0.836471 0.00319036 0)
(0.667919 1.40702 8.01791e-21)
(0.686061 1.5175 0)
(0.117179 0.285787 6.84048e-20)
(0.213055 0.650563 5.40736e-19)
(0.23858 0.688129 -3.17136e-19)
(0.211661 0.48855 6.30149e-19)
(0.341366 0.831912 1.60271e-18)
(0.136188 0.23652 3.8432e-19)
(0.25808 0.168078 7.12769e-19)
(0.211777 0.16031 1.84034e-19)
(0.219777 0.0949001 3.50091e-19)
(1.19739 0.448704 9.21059e-20)
(1.22165 0.246911 8.91157e-20)
(0.00710962 2.24555 2.45615e-19)
(0.0394731 1.96345 0)
(0.973379 0.033254 0)
(0.947023 0.0193411 0)
(0.871629 -0.0150192 0)
(0.0130064 3.07336 0)
(0.0166945 2.9439 1.23339e-18)
(0.0138053 2.95655 0)
(0.00566427 2.85016 -1.22387e-18)
(0.00992513 3.08947 3.0119e-19)
(0.0111244 3.08397 0)
(0.705058 1.81278 -1.67336e-19)
(1.22992 2.6171 5.66346e-19)
(0.689808 1.99077 -1.38125e-18)
(0.0217749 2.97595 -6.75347e-19)
(0.0398138 2.99733 0)
(-0.0387074 2.87795 0)
(-0.00622199 2.24181 -1.32737e-20)
(-0.00462975 2.26162 6.20146e-20)
(0.000292506 2.01201 -6.62874e-21)
(0.268503 1.40219 1.03809e-18)
(0.288926 0.574717 -7.12159e-19)
(0.0675278 2.00403 7.49422e-19)
(0.120463 1.87585 -9.0152e-19)
(0.208626 1.54074 1.02614e-19)
(0.00612088 3.12032 -1.67292e-18)
(0.0133416 3.1207 1.84292e-18)
(-0.00524667 2.98045 8.37789e-19)
(-0.00145806 2.97497 -8.02452e-19)
(-0.0175549 2.87702 -8.53324e-19)
(0.0117751 3.10069 -2.23632e-18)
(0.00555006 3.10542 2.27045e-18)
(0.268633 0.697055 0)
(0.218901 0.656276 -1.15441e-18)
(0.0748552 0.209711 5.08008e-19)
(0.347548 0.953112 1.13631e-18)
(0.201113 0.281871 -1.75026e-18)
(1.20001 0.176928 4.9913e-20)
(1.2184 0.306565 0)
(1.19547 0.1219 7.34275e-21)
(-0.0003055 2.27028 -1.09485e-21)
(0.00346004 2.25469 0)
(0.0321949 2.0005 0)
(0.312766 1.31713 -3.72574e-19)
(0.354325 1.17979 -8.08099e-19)
(0.23475 0.393948 1.44653e-18)
(1.00644 -0.00967847 0)
(1.00774 -0.00778131 4.89908e-19)
(-0.04855 1.33651 0)
(-0.0578011 1.34413 0)
(1.00244 0.00326666 1.33322e-21)
(1.0032 0.00781155 1.0057e-18)
(-0.0267355 2.53229 1.98508e-20)
(-0.0293271 2.57479 0)
(0.039879 3.1721 4.77507e-19)
(0.372026 3.53643 0)
(1.16003 0.695851 -5.22279e-20)
(1.01176 0.0106258 -2.86096e-21)
(1.02089 -0.0089843 0)
(1.00157 0.000291328 1.57345e-22)
(0.116382 1.37818 0)
(0.148241 2.58598 0)
(0.0343682 1.32584 0)
(0.000773441 2.63148 -1.07479e-20)
(-0.0212364 2.57884 -1.5074e-20)
(0.998528 0.0311836 2.74483e-21)
(1.06306 0.00592937 0)
(1.10019 0.0285258 0)
(-0.0376272 1.75066 0)
(-0.0202621 2.57764 0)
(-0.0139634 1.3318 0)
(0.309287 1.49357 -1.6781e-19)
(1.01152 -0.0090494 0)
(1.00971 -0.0129824 0)
(1.00227 0.00093138 6.27293e-19)
(1.00547 -0.00490973 -7.39652e-19)
(1.00113 -0.000862749 0)
(-0.0267249 1.47683 0)
(-0.0148776 1.40143 0)
(-0.0222041 1.43949 0)
(-0.017288 1.31718 0)
(-0.0340088 1.30752 0)
(-0.0265905 1.28889 0)
(1.03571 -0.00428361 0)
(1.01904 0.0156738 -9.51445e-22)
(0.813982 1.31532 2.77142e-19)
(1.00246 0.000392261 -6.27123e-19)
(1.00339 0.00444038 7.4843e-19)
(1.00126 0.00208888 0)
(1.01104 0.00962899 6.24696e-19)
(1.00682 0.00744351 -7.60187e-19)
(1.0071 0.0111046 0)
(-0.0255505 2.60455 0)
(-0.0292933 2.58323 -3.51351e-20)
(-0.0258236 2.59756 2.47141e-20)
(1.24305 0.274377 5.33964e-19)
(1.1637 0.089348 0)
(0.0435196 3.09146 -9.53154e-19)
(0.0519857 2.87408 -6.75332e-20)
(0.102773 3.20176 1.27484e-18)
(0.121077 3.21365 -2.71182e-19)
(0.13987 3.25546 0)
(0.0224821 3.13766 2.62168e-19)
(0.0607315 3.16196 9.49551e-19)
(0.0611334 3.17869 -4.90411e-19)
(0.0268144 3.12947 0)
(0.539048 0.289274 0)
(0.478164 0.304515 0)
(1.14307 0.727585 1.17983e-19)
(1.10744 0.863935 -1.01881e-19)
(1.20011 0.613041 0)
(1.22687 0.546757 0)
(1.01569 0.0120359 -1.16052e-18)
(1.01462 0.0127832 1.45917e-18)
(1.02578 -0.00871265 0)
(1.02411 -0.0102833 0)
(1.00682 0.00328806 0)
(1.01088 0.00422373 0)
(1.00418 0.00222072 0)
(1.00931 0.00633513 0)
(1.00682 0.00503868 0)
(1.00436 0.00525101 0)
(0.10834 1.37896 0)
(0.0971459 1.33444 0)
(0.139246 1.42292 0)
(0.147769 1.4062 0)
(0.143763 2.60976 0)
(0.182645 2.68058 -4.11695e-19)
(0.0935348 2.65711 0)
(0.0851914 2.65212 1.76482e-19)
(0.0245671 2.67551 -1.53544e-19)
(0.0213311 1.33443 0)
(0.0308692 1.25111 0)
(0.0235974 1.35034 0)
(0.0484243 1.27194 0)
(-0.00233263 1.99325 4.41699e-20)
(-0.0211868 2.60724 -4.61302e-20)
(-0.00502154 2.67386 -3.95081e-20)
(-0.0182897 2.68645 0)
(-0.0236285 2.61317 4.44835e-20)
(-0.0222971 2.60872 4.72278e-20)
(0.00444436 1.98945 -3.42473e-20)
(-0.00989386 2.3967 6.18863e-20)
(-0.0145253 2.42249 4.47877e-20)
(1.01123 0.0404203 1.17657e-18)
(1.00481 0.0212914 -1.46483e-18)
(1.00354 0.0475177 -1.20165e-18)
(0.976082 0.0377246 1.51312e-18)
(1.06472 0.00927422 0)
(1.04995 -0.00642105 0)
(1.09273 0.0378959 0)
(1.07591 0.0151233 0)
(1.0747 0.000539809 0)
(1.14127 0.0798111 0)
(1.11584 0.0465479 0)
(1.11933 0.0374923 0)
(-0.0324562 2.42921 4.28582e-21)
(-0.0236025 2.02501 0)
(-0.0243045 2.21981 0)
(-0.0223416 2.5985 -2.25186e-20)
(-0.0187601 2.60988 7.40455e-22)
(-0.00388867 1.59832 -6.30757e-20)
(-0.0154527 1.52086 6.4466e-20)
(-0.0248278 1.41308 0)
(-0.0298057 1.41943 0)
(-0.0359118 1.40902 0)
(-0.00788414 1.3344 0)
(0.00881682 1.24718 0)
(0.386856 1.51831 2.78084e-19)
(0.43557 1.52256 1.5011e-19)
(0.590886 2.46029 -2.50075e-19)
(0.377764 2.55384 6.67241e-19)
(0.349685 2.04792 7.01972e-20)
(1.02072 -0.00798957 0)
(1.0158 -0.0093459 0)
(1.01486 -0.0132037 0)
(1.00775 -0.000547105 0)
(1.00484 -0.000691779 0)
(1.008 -0.00446409 0)
(1.00954 -0.00342888 0)
(1.01465 -0.00426612 0)
(1.01978 0.0164684 1.13886e-18)
(1.01719 0.0151011 -1.44669e-18)
(1.02016 0.0189597 -1.14784e-18)
(1.01753 0.0173807 1.43847e-18)
(0.770317 1.36203 0)
(0.708922 1.39803 2.38608e-19)
(0.878353 1.24301 9.72449e-20)
(0.914807 1.20253 -1.29062e-19)
(1.1613 2.60654 2.93925e-19)
(0.749513 0.127875 5.9061e-19)
(1.17209 0.108296 0)
(1.21503 0.20302 -4.33493e-19)
(1.19655 0.154549 -1.80528e-20)
(1.01238 0.16615 0)
(0.0752783 3.01833 3.46323e-19)
(0.0814093 2.90321 -1.11978e-18)
(0.022927 2.36136 7.09432e-19)
(0.159801 -0.272906 -3.10173e-19)
(0.340159 3.44073 -2.47838e-19)
(0.19156 3.33724 0)
(0.222044 3.39242 3.22837e-19)
(0.219747 3.07546 -1.1993e-18)
(0.25237 3.1934 0)
(0.00644524 3.12239 4.95827e-20)
(0.0168922 3.13113 -5.71424e-19)
(0.0159079 3.1269 8.41031e-19)
(0.0329316 3.14006 0)
(0.030941 3.14956 0)
(1.25316 2.56922 0)
(0.54246 0.790273 -5.26474e-19)
(1.02768 1.03793 -1.0806e-20)
(0.994457 1.09066 0)
(0.863436 0.972566 -1.09125e-19)
(1.08711 0.913472 2.65626e-20)
(0.283673 0.30966 -7.73242e-19)
(0.629582 0.325305 -2.26871e-20)
(0.518935 0.216399 3.96806e-19)
(0.512662 0.313255 2.82847e-20)
(0.377161 0.262202 -1.12819e-18)
(0.583176 0.325913 0)
(0.67724 0.440408 6.84885e-19)
(0.691469 0.453194 0)
(0.54051 0.320607 0)
(0.442538 0.249931 0)
(0.797377 0.660141 4.05863e-19)
(1.25475 0.308618 -4.33798e-19)
(1.24805 0.440944 0)
(1.24806 0.395884 0)
(0.682905 0.185867 6.02676e-19)
(0.847358 0.561907 -3.74829e-19)
(0.768073 0.52122 6.69495e-19)
(0.965248 0.456274 -6.7134e-19)
(1.01854 0.0147939 7.75649e-19)
(1.0171 0.0136881 -7.8106e-19)
(1.01582 0.0143168 0)
(1.0371 -0.00450314 0)
(1.03049 -0.00768133 -7.31501e-19)
(1.0287 -0.0105701 7.23912e-19)
(1.02476 0.0110213 0)
(1.02272 0.015118 0)
(1.01271 0.00476633 0)
(1.0146 0.0090947 0)
(1.01645 0.00427199 0)
(1.01558 0.00294988 0)
(0.0786556 1.36342 0)
(0.0821136 1.30425 0)
(0.15638 1.42447 5.42156e-20)
(0.277214 1.48987 8.15648e-20)
(0.17539 1.46197 1.85005e-19)
(0.213188 1.45896 -2.98252e-19)
(0.168405 1.43791 0)
(0.146378 1.58743 -8.84468e-20)
(0.143642 1.58407 0)
(0.351241 1.99822 -1.02208e-19)
(0.322476 2.33627 6.23477e-19)
(0.20003 1.47062 7.70647e-20)
(0.276557 1.40437 2.23807e-20)
(0.207972 1.40407 -1.82139e-20)
(0.291211 1.34272 -9.4367e-20)
(0.254343 1.57673 0)
(0.269606 1.62136 1.01975e-19)
(0.0210443 2.24233 -1.39878e-20)
(0.0369722 2.66825 0)
(0.0564192 2.39232 9.90191e-20)
(0.0470336 2.41751 0)
(0.0651322 2.67435 -2.11693e-19)
(0.0427809 2.70184 0)
(0.0271984 1.466 6.32562e-20)
(0.0307772 1.52277 0)
(0.034924 1.42524 0)
(0.0266089 1.43457 -7.25337e-20)
(0.00470018 2.65889 4.64548e-21)
(0.0275622 2.68909 1.77376e-19)
(0.0126276 2.73238 8.72878e-22)
(0.00453428 1.84757 -2.87139e-20)
(-0.00393976 1.69997 -1.96421e-20)
(0.0186078 1.31524 0)
(0.0279296 1.22713 0)
(0.0399212 1.59364 -3.11015e-21)
(0.0423888 1.47381 -5.62662e-20)
(0.0245663 1.55815 5.73743e-20)
(0.0546021 1.61623 0)
(-0.0321966 2.26899 1.35651e-19)
(-0.035516 2.54623 -5.74794e-20)
(-0.0209378 2.44668 1.05219e-20)
(-0.00340499 1.86298 3.48052e-20)
(-0.0282674 2.5015 1.49757e-20)
(-0.0224643 2.4436 -3.8604e-20)
(1.01834 0.0225096 -7.80198e-19)
(1.01498 0.0289441 7.83573e-19)
(1.01215 0.0184177 0)
(1.00956 0.0709239 1.08916e-18)
(0.990496 0.0607047 -1.22956e-18)
(0.950832 0.0567202 1.37559e-18)
(1.01253 0.115963 -1.46164e-19)
(1.04403 -0.0046384 0)
(1.05225 -0.000378117 7.0118e-19)
(1.04034 -0.0081471 -7.008e-19)
(1.07233 0.0438127 -4.15971e-20)
(1.06503 0.0291841 3.59259e-19)
(1.06418 0.0658713 0)
(1.05437 0.0550943 -1.29367e-19)
(1.03217 0.0439351 0)
(1.02623 0.0387999 0)
(1.02765 0.0136686 0)
(1.02401 0.0164017 0)
(1.04064 0.0338516 2.65837e-19)
(1.03928 0.0284836 -5.88259e-19)
(1.05315 0.0388533 -2.81352e-19)
(1.04822 0.0387557 -3.103e-19)
(1.07789 0.0707257 5.94258e-19)
(1.10182 0.0568202 0)
(1.10851 0.0955778 0)
(-0.0300734 2.2749 7.8318e-20)
(-0.033291 2.0296 4.53313e-21)
(-0.0283068 2.03967 0)
(-0.0315669 2.4428 -7.79526e-20)
(-0.0301148 2.40172 -8.64196e-21)
(-0.03633 2.46902 1.03668e-20)
(-0.0217807 2.62099 -4.01475e-20)
(-0.0274594 2.56279 2.31729e-21)
(-0.0257575 2.51645 -1.36665e-20)
(-0.017747 2.61382 2.57839e-20)
(-0.021699 2.61625 -2.99926e-20)
(-0.0125518 1.52655 -1.07501e-21)
(-0.00729393 1.64469 -6.49444e-20)
(0.378238 1.45416 -1.17691e-19)
(0.373715 1.3843 2.45133e-20)
(0.650281 1.44573 -2.30876e-19)
(0.52557 1.51539 -1.45784e-19)
(0.579551 1.47444 0)
(0.605481 2.41785 2.20908e-19)
(0.666062 2.42707 3.42081e-19)
(0.415549 2.51082 9.36168e-20)
(0.398961 2.53648 -6.21012e-19)
(0.501902 2.47451 5.7583e-19)
(0.552996 2.4705 0)
(0.484446 2.52076 -5.634e-19)
(0.256802 2.59524 1.13249e-18)
(0.358206 2.55595 -6.96076e-20)
(0.283338 2.65283 -1.58839e-18)
(0.970352 2.38469 7.24539e-19)
(0.847866 2.3852 0)
(1.01142 0.00139814 2.54435e-20)
(1.01537 -0.00515365 -2.07894e-20)
(1.01779 -0.00388493 -3.8004e-19)
(1.01564 -0.00101627 3.78724e-19)
(1.01313 0.00185009 0)
(0.638401 1.30704 0)
(0.683056 1.19214 0)
(0.798379 1.1227 0)
(0.670497 1.1491 0)
(1.19245 2.62209 5.15621e-20)
(1.08464 2.37301 0)
(0.815402 2.16384 3.69467e-21)
(0.820488 2.4262 0)
(0.915266 2.51683 -4.46403e-19)
(0.946586 2.46621 2.98056e-19)
(0.784095 0.16202 0)
(0.725574 0.146902 1.6006e-19)
(0.903242 0.160922 9.37185e-19)
(0.813327 0.144297 -3.50124e-19)
(0.75546 0.0933161 -1.07883e-18)
(1.0879 0.247773 -8.55129e-19)
(0.985353 0.317651 -9.92311e-21)
(0.927963 0.354352 8.22515e-19)
(1.01337 0.260406 7.00728e-19)
(0.929726 0.206648 -1.2372e-18)
(0.887329 0.220565 1.557e-19)
(0.929509 0.321059 -3.2173e-19)
(0.904681 0.225601 0)
(1.00072 0.210673 6.05711e-19)
(1.0547 0.219915 0)
(1.05255 0.230901 0)
(1.12602 0.125785 2.71882e-19)
(1.0648 0.195678 -1.05916e-20)
(1.07927 0.249545 -1.55585e-19)
(1.11297 0.213024 0)
(1.02225 0.0484029 6.00373e-19)
(1.03693 0.0626919 7.49723e-19)
(1.03267 0.0461041 -5.96194e-19)
(1.04133 0.0692908 -5.02719e-19)
(1.01508 0.076332 -7.69061e-19)
(0.984346 0.168419 0)
(0.986768 0.108106 0)
(0.961551 0.0752288 -4.89673e-19)
(0.901786 0.0983338 1.95488e-19)
(1.03912 0.117127 6.9562e-19)
(1.07621 0.138243 -7.95491e-19)
(1.07061 0.181863 7.15152e-19)
(1.03549 0.158545 0)
(1.08633 0.123668 0)
(1.0568 0.113256 -3.26263e-19)
(1.04258 0.109347 -5.65211e-19)
(0.587427 1.07921 1.24615e-19)
(0.607963 1.39732 -2.62065e-20)
(1.14297 2.71443 -2.55664e-19)
(1.19505 3.09861 4.93186e-21)
(1.25017 2.72265 -1.40353e-19)
(1.2891 2.69268 2.82424e-20)
(1.26359 2.31503 -3.83791e-20)
(1.18249 3.0037 -8.17892e-20)
(1.20233 2.96061 2.35937e-19)
(1.17635 3.25136 -1.17948e-19)
(1.39341 2.96425 1.48065e-19)
(1.40455 2.89851 0)
(0.579272 0.815323 -4.8718e-20)
(0.19671 1.21179 4.68463e-19)
(0.529289 0.32188 5.0208e-19)
(0.412027 0.0881164 5.71198e-19)
(0.444351 0.290319 6.38725e-19)
(0.546321 0.415871 -1.03821e-18)
(0.558201 0.397199 8.50766e-19)
(0.44764 0.292888 -3.1256e-19)
(0.265049 0.226856 7.20544e-19)
(0.714537 0.258606 -3.47838e-19)
(0.661176 0.290744 0)
(0.593915 0.196619 7.75686e-21)
(0.728625 0.515727 3.62248e-19)
(0.700657 0.492775 -1.31248e-18)
(0.632968 0.439843 1.17115e-20)
(0.610823 0.41891 0)
(0.722619 0.721723 3.7424e-19)
(0.839424 0.803156 4.14946e-19)
(0.777489 0.853258 -4.83255e-19)
(0.907643 0.824081 -1.53092e-19)
(0.943417 0.867618 -3.59522e-20)
(0.950775 0.875125 3.68751e-20)
(0.883808 0.683919 -6.70776e-19)
(0.957099 0.729445 1.42334e-19)
(1.0132 0.732115 0)
(1.01129 0.707027 -1.82457e-19)
(1.0302 0.343046 2.12881e-19)
(1.15956 0.343453 2.60214e-19)
(1.07467 0.285393 3.49653e-19)
(0.999447 0.390491 -4.25767e-19)
(1.05824 0.491677 0)
(1.14009 0.432004 0)
(0.900348 0.427998 -1.11103e-22)
(0.844931 0.324753 0)
(0.892053 0.314488 3.93176e-19)
(0.914505 0.352713 3.25213e-21)
(0.988034 0.503339 1.87507e-18)
(0.91978 0.562171 4.83162e-19)
(0.943811 0.52011 -5.09898e-19)
(0.860938 0.495146 5.4335e-19)
(0.825031 0.470117 3.46457e-19)
(0.801615 0.450264 -3.39418e-19)
(1.02821 -0.000361754 6.28117e-19)
(1.02051 0.000610941 0)
(1.01913 0.00142164 4.09863e-19)
(1.02271 -0.000703057 -9.27819e-19)
(1.02258 0.00462387 4.51981e-19)
(1.02004 0.0116766 -9.46055e-19)
(1.02079 0.0115051 0)
(1.01971 0.0122761 -1.97009e-19)
(1.01661 0.00783824 4.93652e-19)
(1.0167 0.0109655 -2.48273e-19)
(1.01731 0.0106735 1.81867e-19)
(0.0377817 1.33836 0)
(0.0443041 1.40155 0)
(0.0565419 1.34195 0)
(0.062603 1.27689 0)
(0.0869239 1.41 -7.20099e-20)
(0.0926282 1.38115 1.79528e-20)
(0.0867548 1.57396 2.00815e-21)
(0.102123 1.41429 -3.79076e-20)
(0.0451508 1.48784 4.80404e-20)
(0.0509556 1.48183 -3.7742e-20)
(0.0782824 1.40305 -2.09836e-20)
(0.0664147 1.40475 7.07331e-20)
(0.0616107 1.38505 1.16504e-20)
(0.0475093 1.40408 8.09759e-21)
(0.102824 2.3571 -1.08321e-19)
(0.0883473 2.40421 0)
(0.154722 2.00354 9.09573e-20)
(0.130397 1.70217 3.30117e-20)
(0.219439 2.00406 -8.48242e-20)
(0.21196 2.41552 0)
(0.260874 2.3677 -5.76943e-19)
(0.292146 2.36597 4.2132e-19)
(0.252971 1.98069 -1.96762e-19)
(0.145398 2.14644 1.43215e-19)
(0.114627 2.25455 0)
(0.0123456 1.84572 -4.02403e-20)
(-0.00623609 2.36457 -1.00066e-21)
(0.00231899 2.12084 0)
(0.00424485 2.42853 -1.71928e-20)
(0.0188309 2.2605 3.082e-20)
(0.0127142 1.4421 -1.29174e-20)
(0.011834 1.42321 2.18895e-19)
(0.00935893 1.43441 -7.05144e-20)
(0.021932 1.44396 -6.25392e-20)
(0.0245455 1.46949 0)
(0.00671732 1.41968 0)
(0.00206085 1.31685 -9.12589e-20)
(0.00101166 1.41057 2.6662e-20)
(0.00833143 1.40882 0)
(0.0125655 1.30745 -6.88411e-20)
(0.0229926 1.21639 1.38604e-19)
(1.04248 0.0150758 0)
(1.04902 0.0105649 -6.55685e-20)
(1.03919 0.0246087 -4.73941e-19)
(1.04963 0.0234853 0)
(1.05467 0.0226939 0)
(1.03638 0.0130573 -6.74803e-21)
(1.03019 0.0134758 7.63475e-19)
(1.03194 0.017492 9.25671e-19)
(1.02562 0.0211704 0)
(1.02227 0.021808 0)
(1.03567 0.0259971 4.72847e-19)
(1.02585 0.0282858 0)
(1.02368 0.028093 0)
(-0.0202223 2.03003 0)
(-0.0112609 1.67113 -2.393e-21)
(-0.00918602 1.77278 -3.58884e-20)
(-0.0068983 1.41705 0)
(-0.00845074 1.57843 -3.79575e-20)
(-0.0176019 1.49321 2.30123e-20)
(-0.0159995 1.43496 0)
(0.402666 1.61838 0)
(0.368069 1.32258 -4.01232e-20)
(0.275554 1.34618 0)
(0.437588 1.32052 -2.37487e-20)
(0.473504 1.48003 0)
(0.459173 1.42166 3.47753e-20)
(1.03977 2.66564 -1.54051e-20)
(0.984583 2.40364 -9.09975e-19)
(0.946595 2.20438 1.01926e-18)
(0.864496 2.37725 2.45571e-19)
(0.851947 2.48194 0)
(0.920991 2.47699 0)
(0.954157 2.37737 0)
(0.929991 2.36825 -9.50627e-19)
(0.690423 2.44613 -3.87362e-19)
(0.799666 2.42984 -9.97959e-20)
(0.806753 2.40816 7.522e-20)
(0.703371 2.39818 0)
(0.808611 2.39169 0)
(0.769153 2.40832 -3.71239e-19)
(0.764842 2.46065 0)
(0.633434 1.07 0)
(0.513999 0.85286 -5.73282e-19)
(0.52316 0.930685 -3.34691e-20)
(0.500718 1.06618 0)
(0.488235 0.972858 8.75436e-19)
(0.805257 0.888888 -1.3517e-19)
(0.808963 1.02404 0)
(0.790349 1.00746 1.85952e-19)
(0.678761 1.02323 0)
(0.669949 0.92743 0)
(1.16144 2.75078 -2.2481e-19)
(1.13668 2.80941 -9.33922e-20)
(0.920908 2.33233 8.21632e-20)
(0.897813 2.31289 -7.81384e-20)
(1.13108 2.72821 0)
(1.08329 2.69603 9.38318e-20)
(1.09821 2.48987 -3.00205e-19)
(0.999614 2.2491 -2.78635e-20)
(0.495289 1.32488 0)
(0.515594 1.07442 -1.0974e-19)
(0.596511 1.18516 0)
(0.84622 0.233734 0)
(0.751937 0.181449 0)
(0.659827 0.142391 0)
(0.851085 0.232939 -6.20097e-19)
(0.740062 0.22641 3.63284e-19)
(0.911808 0.0877612 -4.01402e-19)
(0.925566 0.14305 0)
(0.908261 0.154242 1.75056e-19)
(0.83734 0.109756 7.01614e-19)
(0.787906 0.0769804 -4.41152e-19)
(1.09237 3.34157 -6.60875e-19)
(1.16108 3.26566 0)
(1.11033 3.42604 -1.55345e-18)
(0.653257 3.57272 1.29148e-18)
(1.02031 3.07321 1.12101e-19)
(0.533933 0.77232 5.76543e-19)
(0.511162 0.738542 0)
(0.341843 0.319586 -1.43601e-19)
(0.49739 0.630594 8.57288e-19)
(0.570384 0.32107 -1.84742e-19)
(0.525444 0.454583 2.21946e-19)
(0.688418 0.527743 4.60425e-19)
(0.731199 0.566436 0)
(0.673543 0.566658 0)
(0.661557 0.5395 0)
(1.01965 0.616797 9.12487e-20)
(0.972568 0.6006 -4.68102e-19)
(0.983584 0.612313 3.57287e-19)
(1.04734 0.554544 -3.45446e-19)
(1.09287 0.523158 0)
(1.09508 0.604794 -9.11283e-20)
(0.885772 0.42495 -7.73072e-19)
(0.873302 0.408606 -9.98592e-19)
(0.796882 0.418908 6.10375e-19)
(0.810092 0.377913 -6.35342e-19)
(0.853277 0.336629 -4.99313e-19)
(0.796212 0.340777 6.1129e-19)
(1.0266 0.00673683 -4.73075e-19)
(1.02623 0.00685877 9.53312e-19)
(1.02998 0.000957615 6.08809e-19)
(1.03419 0.00159802 -7.31046e-19)
(1.03401 0.0119216 0)
(1.0298 0.012058 -1.19517e-18)
(0.0852602 1.64465 9.72984e-21)
(0.0748725 1.60533 0)
(0.107504 1.69729 5.10634e-20)
(0.112788 1.67309 -4.46719e-20)
(0.0779185 1.57292 -3.61169e-21)
(0.0748447 1.57602 0)
(0.00887844 1.707 0)
(-0.00654052 1.52952 2.03353e-20)
(-0.00575234 1.47315 -1.82632e-20)
(-0.0123011 1.57615 3.407e-21)
(-0.00140652 1.8955 3.03449e-20)
(-0.0134929 1.95043 -1.2109e-20)
(0.493172 1.35782 -2.77139e-19)
(0.496048 1.35207 3.02937e-19)
(0.451859 1.31255 -2.06466e-20)
(0.42835 1.29021 8.3742e-21)
(0.631488 1.31406 0)
(0.557405 1.4085 1.08348e-19)
(0.558369 1.41137 -1.05518e-19)
(0.488086 1.30165 1.99256e-20)
(0.528456 1.25331 0)
(0.592789 1.21894 0)
(0.664187 2.4097 5.70332e-19)
(0.660027 2.43947 1.29466e-18)
(0.715027 2.45476 -8.90269e-19)
(0.612952 2.42676 -2.02805e-19)
(0.556369 2.52014 2.78488e-19)
(0.496752 2.48654 -7.1944e-19)
(0.991601 2.38237 -5.7451e-19)
(1.02272 2.39989 0)
(0.949403 2.18759 -6.2723e-19)
(1.05433 2.677 0)
(1.05317 2.65782 0)
(0.595897 2.28317 -7.45367e-21)
(1.11515 3.06559 6.14536e-20)
(0.991183 2.96126 -1.07554e-19)
(0.313417 0.777047 0)
(0.309541 0.647597 -3.06824e-19)
(0.521069 0.586869 -3.11559e-19)
(0.357663 2.12426 0)
(0.399936 2.74371 -7.89305e-20)
(0.40898 2.47756 0)
(0.731665 0.691755 -7.96396e-19)
(0.798241 0.701841 1.11476e-18)
(0.798305 0.664075 -1.11811e-18)
(0.705481 0.647826 -1.0086e-19)
(0.758168 0.608184 -4.22628e-19)
(0.965878 2.74824 -4.65396e-20)
(1.01169 2.75676 -2.22725e-19)
(0.545957 2.19716 4.61978e-19)
(0.599895 1.73007 -3.62917e-19)
(0.698794 1.84858 -5.08788e-19)
(0.973605 2.38939 -1.39655e-19)
(0.974187 2.34272 3.78742e-19)
(0.640038 1.75555 3.44022e-20)
(0.447064 1.29049 1.80351e-19)
)
;

boundaryField
{
    wall-4
    {
        type            noSlip;
    }
    velocity-inlet-5
    {
        type            fixedValue;
        value           uniform (1 0 0);
    }
    velocity-inlet-6
    {
        type            fixedValue;
        value           uniform (0 3 0);
    }
    pressure-outlet-7
    {
        type            zeroGradient;
    }
    wall-8
    {
        type            noSlip;
    }
    frontAndBackPlanes
    {
        type            empty;
    }
}


// ************************************************************************* //
