/*--------------------------------*- C++ -*----------------------------------*\
  =========                 |
  \\      /  F ield         | OpenFOAM: The Open Source CFD Toolbox
   \\    /   O peration     | Website:  https://openfoam.org
    \\  /    A nd           | Version:  6
     \\/     M anipulation  |
\*---------------------------------------------------------------------------*/
FoamFile
{
    version     2.0;
    format      ascii;
    class       volScalarField;
    location    "41";
    object      p;
}
// * * * * * * * * * * * * * * * * * * * * * * * * * * * * * * * * * * * * * //

dimensions      [0 2 -2 0 0 0 0];

internalField   nonuniform List<scalar> 
918
(
0.544873
1.28004
0.00422664
0.544769
-0.00810375
1.24789
-0.480047
0.700936
0.525982
-0.0932398
-0.035178
0.523848
1.10481
0.87206
-1.1623
0.00422197
0.654338
-0.402758
0.523909
-0.010156
0.737577
0.532694
0.535164
0.525957
0.583116
0.829693
0.981596
0.0133961
0.00255943
0.000695019
-0.00973384
-0.0277537
-0.0236124
1.13104
1.18295
1.2061
0.492949
0.325992
-0.3693
-0.421467
-0.403984
-0.504394
0.694179
0.693087
-0.18212
0.702979
0.710148
0.511815
0.525367
0.526197
0.52737
0.526235
0.527531
0.414359
-0.099457
-0.130104
-0.0771176
-0.0736471
0.0652693
-0.0333068
-0.0357125
-0.0347032
-0.0385613
0.442936
0.519855
0.516845
0.528715
0.538211
1.2202
1.19398
1.22003
1.13051
1.14815
1.08187
1.05485
0.893647
0.916942
0.855728
0.843814
-1.62827
-2.58703
-0.577854
-0.294587
-0.00830083
0.00186006
0.00428788
0.645459
0.645158
0.656234
0.665182
1.05153
-0.37331
-0.445583
0.524387
0.522922
0.532202
0.533111
0.528057
0.528071
-0.0173991
-0.0232661
-0.00579944
-0.0119415
-0.0150498
0.728638
0.726525
0.525402
0.522862
0.546955
0.568948
0.557998
0.266244
0.58956
0.603901
0.687523
0.83782
0.82504
0.837562
0.956709
0.924861
1.0134
1.03513
0.013642
0.00271445
-0.00655798
-0.0101183
-0.00554668
0.48875
0.482411
0.509393
0.496513
0.499499
0.230219
0.0780746
0.408546
0.432209
-0.289236
-0.331401
-0.435904
-0.434198
-0.540744
0.596503
0.688888
0.686053
-0.198955
-0.122295
-0.246716
-0.0665306
-0.122663
0.502902
0.509043
0.505174
0.520424
0.514621
0.517034
0.529455
0.526612
0.528219
0.473498
0.604805
0.331877
0.304399
-0.256786
-0.146999
-0.240079
-0.0603065
-0.0537296
0.0769558
0.102603
0.0517678
0.0394551
-0.0463658
-0.0399144
-0.0438335
-0.0375907
-0.0350317
0.434529
0.421908
0.454001
0.461371
0.507993
0.509328
0.51357
0.511706
1.00564
1.02855
1.03471
1.01086
-3.57744
-6.2343
0.0577798
0.220465
-0.0027807
-0.0054062
0.00260594
-0.00410166
0.00194468
-0.00161602
0.000162566
0.00225646
0.0077927
0.00832647
0.638209
0.637659
1.01715
1.04418
0.997761
0.975316
0.513716
0.515634
0.520273
0.517166
-0.0340222
-0.0259363
-0.0327399
0.711387
0.720762
0.718486
0.226615
0.139719
0.3156
0.345974
0.629897
0.611934
0.626468
0.747187
0.787154
1.05231
1.0763
1.06048
1.0734
1.12426
1.14717
1.11207
0.467724
0.478405
0.472807
0.51253
0.510181
0.511201
0.507151
0.508388
0.506868
-0.0349079
-0.411123
0.483262
0.486111
0.473532
0.479978
0.682416
0.76634
0.666742
0.678348
0.674899
-0.0191719
-0.0669194
0.262782
0.233265
0.375193
0.409031
0.391362
0.981179
0.941782
0.989536
0.964849
0.929611
0.952579
-0.348753
-2.12759
-1.11484
0.628539
0.428726
0.521563
0.024902
0.0024263
0.0105974
1.03758
1.0772
0.674918
0.86154
0.815696
0.814411
0.841742
0.899113
0.831717
0.865289
0.897372
0.874356
0.550696
0.490392
0.50406
0.844739
0.902071
0.104671
0.0304948
0.00680826
0.125603
0.191474
0.161473
1.0525
0.95892
1.02542
0.5231
0.524022
0.00747109
0.00555145
0.528096
0.527821
-0.0047972
-0.000648266
0.540289
-0.936248
0.114914
0.517502
0.507397
0.524082
-0.0605556
0.346478
-0.0311468
0.0526418
0.0139906
0.519485
0.455023
0.413292
0.0142568
-0.0135098
-0.0165922
-0.195453
0.520842
0.519202
0.523462
0.524306
0.52506
-0.00244527
0.00200613
0.00109711
-0.0134943
-0.00696893
-0.0107105
0.487847
0.50702
-0.17091
0.523733
0.525825
0.525541
0.519635
0.524634
0.523197
-0.00704547
-0.0121325
-0.0166001
0.208983
0.341452
0.727709
0.805712
0.675093
0.505068
0.203693
0.660818
0.715029
0.638373
0.771126
0.681656
0.690952
0.17888
0.0424009
0.183847
0.117602
0.514424
0.513748
0.504962
0.501929
0.518868
0.516576
0.521738
0.518913
0.522061
0.523234
-0.0166252
-0.0540545
-0.0712064
-0.12324
0.313264
0.573632
0.240417
0.266927
0.172329
-0.0318391
-0.0338468
-0.030491
-0.0365252
0.00536392
-0.00277268
0.0444038
0.0497653
0.0317923
0.00412351
-0.00290211
-0.00254061
-0.0094925
0.51299
0.512321
0.517875
0.526154
0.464377
0.468025
0.434776
0.453448
0.439722
0.380662
0.410394
0.387726
0.00604785
0.0176919
0.00705569
-0.00858324
-0.00200972
-0.0179196
-0.0103884
-0.00797435
-0.00125678
-0.00879289
-0.0163776
-0.0238093
-0.159745
-0.277335
0.975709
0.907422
0.137172
0.510782
0.516413
0.513603
0.518198
0.521401
0.522078
0.519699
0.516217
0.507235
0.508731
0.505447
0.506409
-0.113972
-0.219108
-0.0511366
-0.123396
0.152117
0.618628
0.349732
0.298072
0.283048
0.503696
0.720061
0.648737
0.720383
0.720644
-0.386671
0.0306306
-0.312475
0.236962
0.221627
0.749878
0.793298
0.811972
0.76833
0.723583
-0.0269247
0.548971
-0.0445273
0.00136019
0.190512
0.081771
0.704319
0.66102
0.666091
0.681933
0.699262
0.676487
0.662616
0.650871
0.680736
0.685684
0.507714
0.237912
0.198893
0.150526
0.64294
0.540588
0.594294
0.512813
0.509816
0.512373
0.51122
0.492578
0.499829
0.495602
0.502316
0.505839
0.513505
0.513679
0.50964
0.511549
-0.0479621
-0.0515304
-0.0627993
-0.107875
-0.110926
-0.152658
-0.0764881
0.125726
0.0723843
0.246368
0.373333
0.0962425
-0.0366023
-0.0212547
0.0328879
0.205038
0.19877
0.0654413
0.180283
0.137476
0.129719
0.218759
0.242807
-0.0162384
-0.017205
-0.0172133
-0.023218
0.0276412
0.122982
0.110429
0.00682068
-0.00107595
-0.0341352
-0.0357666
0.0080461
-0.00475598
0.000146623
0.0154197
-0.0372627
-0.0103642
0.00318253
0.00869282
0.00511426
0.00588548
0.506442
0.508608
0.508395
0.516586
0.531008
0.545959
0.509357
0.48526
0.476382
0.479437
0.452789
0.46204
0.457168
0.472714
0.493916
0.502801
0.500361
0.502984
0.485433
0.48714
0.47264
0.477191
0.447557
0.429602
0.419847
-0.0358091
0.0098689
-0.00843967
-0.0322802
0.00052075
-0.0171592
0.00270829
0.016116
0.0012701
0.00288982
-0.00362858
-0.00756637
-0.00760941
-0.0630275
0.0185961
-0.165752
-0.214738
-0.26551
0.890623
1.02604
0.81139
0.595693
0.607197
0.845834
0.940531
0.561179
0.762265
0.781128
0.56874
0.858944
0.514668
0.514309
0.512197
0.511392
0.512383
-0.0100011
0.0893935
0.11088
0.162377
0.276241
0.383185
0.304828
0.194993
0.329705
0.353625
0.617583
0.62701
0.579063
0.600553
0.599919
0.419087
0.499676
0.542214
0.491337
0.563686
0.597057
0.544549
0.586827
0.507868
0.458621
0.450582
0.405887
0.440514
0.421984
0.396127
0.505931
0.483251
0.493832
0.483806
0.504808
0.526459
0.528851
0.552821
0.566845
0.485448
0.434694
0.451476
0.47837
0.435992
0.451944
0.472634
0.176231
0.080863
0.247081
-0.0815602
0.00920913
0.0458971
0.00493464
-0.0416004
0.26526
-0.377891
-0.321505
-1.00599
0.489946
0.879076
0.665651
0.679946
0.697723
0.678116
0.688132
0.703914
0.710461
0.63358
0.648788
0.651562
0.621206
0.653264
0.650522
0.660077
0.506149
0.412583
0.41513
0.349105
0.217506
0.255587
0.433624
0.369029
0.299088
0.292509
0.46403
0.332508
0.408439
0.465999
0.395404
0.32621
0.557998
0.604615
0.593985
0.56616
0.46745
0.496999
0.514216
0.559094
0.588886
0.613596
0.501145
0.507402
0.508348
0.505621
0.503816
0.506875
0.507056
0.509342
0.5098
0.512333
0.511671
-0.0290522
-0.0188762
-0.0348306
-0.0375269
0.0412585
0.0144715
0.0132373
-0.0246673
0.00107475
0.000599034
-0.0144212
-0.031323
-0.0218837
-0.0094766
0.0843096
0.102403
0.111479
0.0777491
0.277639
0.416253
0.480373
0.358374
0.231131
0.24769
0.317287
0.0234423
0.0406745
0.0249669
0.0759314
0.0542889
-0.0253651
-0.028545
-0.0215206
-0.0165387
-0.00808624
-0.0237334
-0.0247866
-0.0175093
-0.0243098
-0.0311732
-0.0318381
0.486922
0.479865
0.483198
0.475722
0.474024
0.490591
0.494988
0.49629
0.501687
0.504187
0.494033
0.499824
0.503813
-0.000968616
-0.0131779
-0.0199737
-0.0105478
-0.00896156
-0.00892726
-0.0110819
0.125843
0.0352042
0.0681423
0.00112957
-0.12041
-0.0604695
0.494566
0.489232
0.483775
0.7149
0.555115
0.470481
0.565864
0.684017
0.270212
0.476565
0.307818
0.888161
0.789992
0.93571
0.55831
0.250388
0.412515
0.426209
0.261467
0.386529
0.352264
0.227201
0.266101
0.289181
0.373075
0.253774
0.231972
-0.00970207
0.167232
0.281826
0.263073
0.394001
0.451648
0.256559
0.171551
0.120922
0.602537
0.620784
0.632062
0.605077
0.628225
0.566814
0.556701
0.57424
0.583829
0.577994
-0.644184
-0.23301
-1.4347
-0.840888
-0.390111
0.517126
0.507133
0.750168
0.656261
0.706225
0.688406
0.621562
0.587127
0.623403
0.648302
0.341977
0.4391
0.412976
0.406223
0.348205
0.284896
0.571828
0.573805
0.596195
0.621232
0.595295
0.622952
0.499767
0.499564
0.498401
0.494818
0.493379
0.496379
0.0344594
0.010609
0.0484996
0.0485333
0.0371005
0.0366221
0.00143751
-0.00962912
-0.0117904
-0.00858985
0.00122659
0.00415443
0.168916
0.112108
0.0237653
0.0680963
-0.000491186
-0.0803661
-0.0825868
0.00444568
0.10273
0.0839858
0.391435
0.665179
0.490934
0.657383
0.450672
0.554367
0.468087
0.443349
0.472636
0.369641
0.457978
0.0193569
-0.177287
-0.235559
0.815485
0.771656
0.559135
0.305141
0.193676
0.49461
0.522486
0.480716
0.516989
0.566553
0.552604
0.00292944
0.102522
0.166507
0.477414
0.271791
0.28909
0.281141
0.439871
0.414884
)
;

boundaryField
{
    wall-4
    {
        type            zeroGradient;
    }
    velocity-inlet-5
    {
        type            zeroGradient;
    }
    velocity-inlet-6
    {
        type            zeroGradient;
    }
    pressure-outlet-7
    {
        type            fixedValue;
        value           uniform 0;
    }
    wall-8
    {
        type            zeroGradient;
    }
    frontAndBackPlanes
    {
        type            empty;
    }
}


// ************************************************************************* //
