/*--------------------------------*- C++ -*----------------------------------*\
  =========                 |
  \\      /  F ield         | OpenFOAM: The Open Source CFD Toolbox
   \\    /   O peration     | Website:  https://openfoam.org
    \\  /    A nd           | Version:  6
     \\/     M anipulation  |
\*---------------------------------------------------------------------------*/
FoamFile
{
    version     2.0;
    format      ascii;
    class       volVectorField;
    location    "41";
    object      U;
}
// * * * * * * * * * * * * * * * * * * * * * * * * * * * * * * * * * * * * * //

dimensions      [0 1 -1 0 0 0 0];

internalField   nonuniform List<vector> 
918
(
(0.985047 -0.000709942 0)
(0.00534097 2.96624 0)
(-0.00367833 0.826963 0)
(0.979574 0.00195713 0)
(-0.017016 2.01929 2.61184e-20)
(-0.00708962 2.94856 -2.67685e-18)
(0.811491 1.13283 4.20093e-19)
(0.289486 0.107754 -1.55686e-20)
(0.99992 -0.000241969 0)
(0.082705 0.740249 0)
(0.00841126 0.522905 0)
(0.73535 -0.0163976 0)
(0.0102121 2.93156 0)
(0.00344219 2.7945 0)
(-0.000647839 3.1909 8.16533e-19)
(-0.0127044 1.87843 -2.86556e-21)
(0.346526 0.0251632 1.02158e-18)
(0.237003 1.14354 3.34382e-19)
(0.964476 0.00669258 0)
(-0.0154457 0.553834 0)
(0.0802236 0.173252 -7.39389e-19)
(1.00184 -0.00455718 0)
(0.999853 -0.00893347 0)
(0.975157 -0.0060568 0)
(0.596744 -0.0369618 0)
(0.0226253 2.64415 0)
(-0.012385 2.912 9.86701e-19)
(-0.00356342 0.898699 0)
(0.00348037 1.12144 0)
(-0.00552972 0.874995 0)
(-0.0256713 2.60731 0)
(-0.00593075 2.07542 -2.08424e-20)
(-0.0120608 1.84322 0)
(-0.0221411 2.98761 -9.67904e-23)
(-0.0164986 3.00549 2.08e-18)
(0.00230166 3.00059 0)
(0.871218 -0.00946496 0)
(0.375997 0.91924 1.71012e-19)
(0.812198 1.14356 -5.06123e-19)
(0.946051 0.996977 5.26421e-19)
(0.678289 1.22788 -9.64466e-20)
(0.68926 1.20193 5.56918e-19)
(0.317945 0.200936 1.51884e-20)
(0.298371 0.0913953 0)
(1.13127 0.50715 0)
(0.284043 0.198283 6.94026e-20)
(0.261055 0.121026 -7.20195e-20)
(0.920398 -0.00700513 0)
(1.00026 7.7138e-05 0)
(0.999909 0.000315403 0)
(1.00369 -0.0072971 0)
(1.0009 -0.000954877 0)
(1.00011 -1.61414e-05 0)
(0.0961404 1.83223 -7.86065e-19)
(0.0290326 0.9151 0)
(0.130749 0.809042 0)
(0.0177657 0.866547 0)
(0.0428407 0.683496 0)
(0.0135257 2.00853 0)
(0.0165203 0.755019 0)
(0.00934795 0.557689 0)
(0.0039566 0.74235 0)
(-0.000360871 0.50886 0)
(0.840394 -0.0153203 0)
(0.842435 0.0327739 0)
(0.767334 -0.00627632 0)
(0.814815 0.0433444 0)
(0.699878 -0.0178858 0)
(0.0139428 3.00021 9.94777e-19)
(0.0111652 3.00597 0)
(0.00625041 3.00387 0)
(0.0119116 2.99712 1.13157e-23)
(0.00826599 2.95874 -1.47848e-18)
(0.0122389 2.98293 0)
(0.00902559 2.90469 0)
(0.0208784 2.93182 2.32659e-24)
(0.00417652 2.82396 0)
(0.0251932 2.91884 0)
(-0.000822832 2.74413 0)
(0.310062 3.59103 0)
(-0.122679 3.67439 0)
(0.152648 3.28198 -7.59957e-19)
(0.00610499 3.01476 0)
(-0.0212846 2.03362 0)
(-0.00805957 2.15521 2.82615e-21)
(0.00143053 1.90979 -5.50873e-21)
(0.429101 0.135496 -3.53189e-19)
(0.34871 -0.00192997 -3.4102e-19)
(0.405452 0.156772 -1.0639e-18)
(0.333594 0.0457188 -7.01265e-19)
(0.257119 0.995848 0)
(0.336369 1.27321 -3.50671e-19)
(0.413406 1.17767 5.78367e-19)
(0.987919 0.00808502 0)
(0.943421 0.00580205 0)
(1.00029 0.00067521 0)
(1.00254 0.0090738 0)
(1.00314 0.00894472 -2.68259e-18)
(0.992125 0.00948906 2.02715e-18)
(-0.0368528 0.77534 0)
(-0.0197329 0.529398 0)
(-0.0170655 0.938968 0)
(-0.00546679 0.797717 0)
(-0.0191725 0.567854 0)
(0.103777 0.182821 2.28852e-19)
(0.154419 0.155081 0)
(0.993611 -0.00769904 0)
(0.953997 -0.00646224 0)
(0.761231 0.0499489 0)
(0.694144 0.055424 0)
(0.660798 -0.0229661 0)
(0.97041 -0.00505533 0)
(0.62547 0.0607716 0)
(0.452708 -0.0309209 1.49954e-18)
(-0.041113 2.86071 7.92645e-19)
(0.0337221 2.91381 0)
(0.0423926 2.8921 0)
(0.00363388 2.70137 0)
(-0.00866703 2.9867 9.4577e-19)
(-0.0142105 2.89486 0)
(-0.010904 2.99185 -2.90873e-18)
(-0.0116919 2.92975 9.89181e-19)
(0.0206669 1.33405 0)
(0.040943 1.38272 0)
(-0.00742348 2.11967 3.44442e-22)
(-0.00794402 2.06506 0)
(-0.0207674 1.85467 0)
(0.938288 -0.00550758 0)
(0.856158 -0.0107708 0)
(0.863611 0.00584503 0)
(0.949248 -0.00637979 0)
(0.883199 -0.00792749 0)
(0.500665 1.12042 -2.16794e-19)
(0.548382 1.19157 0)
(0.33678 0.852007 3.28997e-20)
(0.280584 0.716785 0)
(0.906699 1.03432 -1.46796e-19)
(1.01824 0.834805 2.86935e-19)
(0.395826 1.33401 0)
(0.541231 1.28833 0)
(0.592431 1.22188 0)
(0.0952963 0.171796 -2.96213e-19)
(0.336167 0.198769 0)
(0.300158 0.0854485 1.99086e-19)
(0.981342 0.890832 0)
(1.04714 0.732736 0)
(1.07549 0.666051 -2.16891e-19)
(1.11246 0.575308 0)
(1.1672 0.376593 4.48275e-20)
(0.957237 -0.00724606 0)
(0.962588 -0.00819433 0)
(0.900622 -0.00731533 0)
(0.98389 -0.00815174 0)
(0.97435 -0.00808706 0)
(0.93645 -0.00653909 0)
(1.0002 0.00250291 0)
(1.00077 0.00124724 0)
(0.999999 0.000773219 0)
(0.0419695 2.07919 4.36398e-19)
(0.146525 1.77571 0)
(0.0150565 2.19828 6.68581e-19)
(0.0556174 1.88293 -5.6401e-19)
(0.174134 1.12369 -2.73815e-19)
(0.0536615 0.988664 0)
(0.12349 0.983538 0)
(0.0063493 0.822192 0)
(0.0302702 0.624076 0)
(-0.00752531 2.24779 -9.33509e-22)
(0.024334 2.01852 0)
(-0.00864042 2.24997 -3.9733e-20)
(0.00924302 2.01771 6.75977e-20)
(0.00494246 0.79332 0)
(0.00855535 0.776227 0)
(0.0100624 0.590251 0)
(-0.0159561 0.744882 0)
(0.00139264 0.498322 0)
(0.937003 0.0133954 0)
(0.852065 -0.0118074 0)
(0.926773 0.00447725 0)
(0.844029 -0.0125323 0)
(0.812356 -0.000198299 0)
(0.90018 0.021556 0)
(0.874846 0.0272462 0)
(0.788652 -0.00313725 0)
(0.0104065 3.0676 -9.31066e-21)
(0.0147974 3.05925 0)
(0.0124425 2.9703 0)
(0.0076181 2.87664 0)
(0.901047 3.98949 0)
(1.19662 3.38324 9.44456e-19)
(0.0831408 3.09599 0)
(-0.0156533 2.92096 0)
(0.0218584 1.42469 0)
(-0.021857 1.75092 0)
(0.013093 1.60198 0)
(-0.0336164 2.56373 -3.86098e-21)
(-0.0252052 2.26022 0)
(-0.0276965 2.40516 0)
(0.0118273 1.94543 6.85539e-23)
(-0.00821172 2.22534 1.08526e-21)
(-0.0124904 2.18391 5.53985e-21)
(0.0121798 1.92832 0)
(0.449014 0.112741 5.3515e-19)
(0.362806 -0.0129581 -5.25405e-19)
(0.230131 1.58174 0)
(0.285239 0.740684 -3.27033e-19)
(0.178913 1.67645 -1.08686e-18)
(0.242324 1.20293 1.08768e-18)
(0.90189 0.00617736 0)
(0.967229 0.0104803 0)
(0.975084 0.0097278 0)
(0.923164 0.00597213 0)
(-0.0130532 0.736981 0)
(-0.0262776 0.746442 0)
(-0.0175674 0.510634 0)
(0.242825 0.197936 6.37893e-19)
(0.203389 0.182112 -7.58529e-19)
(0.20954 0.134905 0)
(1.09354 0.0861549 2.58291e-20)
(1.07781 0.0395403 0)
(1.01051 0.0420908 0)
(0.906596 -0.00328728 0)
(0.477696 0.0899197 0)
(0.536113 0.0659743 -2.40388e-18)
(0.392923 -0.0174177 9.05471e-19)
(0.0110832 2.9772 8.32677e-19)
(-0.0327012 2.86193 4.63211e-20)
(0.00848417 3.05294 -1.9625e-20)
(0.015781 3.04347 7.34944e-19)
(-0.0118187 2.99995 3.2512e-20)
(-0.0123166 2.95232 -1.31198e-22)
(-0.0150624 3.01327 -6.06051e-19)
(0.0143241 3.02662 4.25924e-19)
(0.00758049 3.03475 -6.92064e-19)
(0.933494 0.00162946 0)
(0.938692 -0.00152951 0)
(0.846582 -0.0109133 0)
(0.95661 0.011478 0)
(0.942906 0.0127669 0)
(0.881905 0.00595515 0)
(0.917046 0.0172753 0)
(0.926021 0.0145446 0)
(0.838231 0.00292464 0)
(0.674956 1.4218 1.22873e-20)
(0.69357 1.53319 0)
(0.121632 0.306866 6.9154e-20)
(0.198409 0.63458 5.49625e-19)
(0.234235 0.687486 -3.21748e-19)
(0.219389 0.515737 6.37627e-19)
(0.328263 0.80272 1.56862e-18)
(0.124055 0.224059 3.77823e-19)
(0.381363 0.180456 7.45541e-19)
(0.365996 0.194882 1.93232e-19)
(0.315758 0.0641377 3.70357e-19)
(1.16132 0.430359 6.11762e-20)
(1.19063 0.239581 5.9794e-20)
(0.00423855 2.24243 2.63626e-19)
(0.0428719 1.94764 0)
(0.967305 0.0320352 0)
(0.942698 0.0187786 0)
(0.86545 -0.0160573 0)
(0.0123497 3.07416 0)
(0.0167383 2.94401 1.30559e-18)
(0.0139591 2.9567 0)
(0.00588275 2.84998 -1.29543e-18)
(0.00959278 3.09029 3.19347e-19)
(0.0114763 3.08385 0)
(0.714769 1.83141 -1.7207e-19)
(1.24115 2.63932 5.81855e-19)
(0.699715 2.01026 -1.40688e-18)
(0.0226042 2.97604 -7.30543e-19)
(0.0415153 2.99969 0)
(-0.0381914 2.87959 0)
(-0.00680748 2.22394 -1.23653e-20)
(-0.00825813 2.24339 -6.82209e-21)
(0.00825393 1.97442 -9.69986e-21)
(0.266818 1.38123 1.04368e-18)
(0.268391 0.529455 -7.15896e-19)
(0.0702786 1.99443 7.73733e-19)
(0.120848 1.86515 -9.27724e-19)
(0.207497 1.52372 1.01804e-19)
(0.00544415 3.1195 -1.99012e-18)
(0.0191015 3.11913 2.13793e-18)
(-0.00488242 2.98053 8.87953e-19)
(-0.000104959 2.97509 -8.56282e-19)
(-0.0179215 2.87844 -9.04399e-19)
(0.0127376 3.09923 -2.37639e-18)
(0.00523773 3.10762 2.32633e-18)
(0.248163 0.672788 0)
(0.203433 0.64004 -1.15883e-18)
(0.0675186 0.209855 5.09409e-19)
(0.338992 0.918648 1.12126e-18)
(0.189557 0.265928 -1.72634e-18)
(1.1789 0.170328 5.72865e-20)
(1.18983 0.294498 0)
(1.17499 0.118201 -3.02079e-21)
(-0.00660541 2.25885 -1.64665e-21)
(-0.00132299 2.24632 0)
(0.0344272 1.97951 0)
(0.310984 1.30418 -3.73105e-19)
(0.350014 1.14718 -8.05557e-19)
(0.219484 0.374875 1.43663e-18)
(1.00642 -0.00973006 0)
(1.00773 -0.00780908 4.93355e-19)
(0.0188155 1.30954 0)
(-0.00594247 1.27761 0)
(1.00245 0.00331118 1.38564e-21)
(1.00324 0.00790176 1.01245e-18)
(-0.0286904 2.54738 4.88885e-21)
(-0.0349013 2.58841 0)
(0.0427876 3.17366 5.28618e-19)
(0.379158 3.55316 0)
(1.13286 0.681356 -6.39065e-20)
(1.01197 0.0108256 -2.77719e-21)
(1.02078 -0.00909082 0)
(1.00159 0.000228416 1.44957e-22)
(0.107436 1.36289 0)
(0.144379 2.59177 0)
(0.0197415 1.30282 0)
(-0.00149392 2.64056 3.4166e-20)
(-0.0243456 2.59182 1.82396e-20)
(0.999302 0.026165 2.56719e-21)
(1.06145 0.00470705 0)
(1.09782 0.0261895 0)
(-0.0212651 1.77645 0)
(-0.0253236 2.59376 0)
(-0.0113604 1.28928 0)
(0.288988 1.48265 -1.55698e-19)
(1.01146 -0.00910748 0)
(1.00969 -0.0130102 0)
(1.00228 0.000910113 6.32226e-19)
(1.00549 -0.00494575 -7.44578e-19)
(1.00115 -0.00087909 0)
(-0.00387416 1.48569 0)
(0.0177435 1.3724 0)
(0.0188856 1.44692 0)
(-0.00824362 1.27654 0)
(0.000583494 1.24193 0)
(-0.00609544 1.22235 0)
(1.03524 -0.00471317 0)
(1.01953 0.0150734 -9.23991e-22)
(0.785352 1.3031 2.57507e-19)
(1.00236 0.000336609 -6.31208e-19)
(1.00339 0.00452453 7.53263e-19)
(1.00129 0.00210856 0)
(1.01134 0.00965394 6.28624e-19)
(1.00698 0.00758763 -7.65213e-19)
(1.00738 0.0112848 0)
(-0.0316978 2.62093 0)
(-0.0356396 2.59869 -1.59413e-20)
(-0.0331134 2.61251 1.16012e-20)
(1.23229 0.264618 5.65146e-19)
(1.15939 0.0870412 0)
(0.0462387 3.09064 -1.03385e-18)
(0.0511471 2.87115 -7.31596e-20)
(0.105545 3.20141 1.38479e-18)
(0.124093 3.21397 -3.04123e-19)
(0.146508 3.26157 0)
(0.0232403 3.13774 2.84963e-19)
(0.0624674 3.16211 1.02985e-18)
(0.0631188 3.1791 -5.32648e-19)
(0.0271199 3.12938 0)
(0.633999 0.301243 0)
(0.590675 0.343468 0)
(1.11014 0.713786 1.56509e-19)
(1.07582 0.84693 -1.5565e-19)
(1.17172 0.597682 0)
(1.20249 0.529909 0)
(1.01585 0.012063 -1.16804e-18)
(1.01479 0.0128289 1.46856e-18)
(1.02553 -0.00884934 0)
(1.02387 -0.0103704 0)
(1.00658 0.00285825 0)
(1.01098 0.00419767 0)
(1.00442 0.00213623 0)
(1.00946 0.00644955 0)
(1.00703 0.00507702 0)
(1.00457 0.00534115 0)
(0.0944626 1.35851 0)
(0.077333 1.34244 0)
(0.13448 1.41015 0)
(0.130238 1.41154 0)
(0.152242 2.6147 0)
(0.192019 2.67996 -4.31468e-19)
(0.111265 2.6762 0)
(0.0848518 2.67837 1.84105e-19)
(0.0311419 2.68432 -1.88887e-19)
(0.0247824 1.32219 0)
(0.0218498 1.25971 0)
(0.0213983 1.33083 0)
(0.0291187 1.27728 0)
(0.000522164 1.99281 -2.98961e-22)
(-0.0233375 2.62003 -2.41158e-21)
(-0.00877008 2.68406 1.66457e-20)
(-0.0204924 2.69675 0)
(-0.0268942 2.62728 -3.82324e-20)
(-0.0254005 2.62277 -4.21775e-21)
(0.00893356 1.99168 1.76893e-21)
(-0.0116002 2.41498 3.23582e-21)
(-0.014807 2.43527 -1.88695e-20)
(1.01006 0.0375307 1.18365e-18)
(1.0064 0.0170123 -1.47522e-18)
(1.00343 0.0432205 -1.21038e-18)
(0.977683 0.0298342 1.52372e-18)
(1.06324 0.00804884 0)
(1.04884 -0.00680405 0)
(1.09051 0.035447 0)
(1.07411 0.013658 0)
(1.07297 -0.000592907 0)
(1.13786 0.0757103 0)
(1.11255 0.0430599 0)
(1.11497 0.0356234 0)
(-0.0242155 2.44876 -5.71961e-22)
(-0.0300857 2.02175 0)
(-0.0217912 2.23364 0)
(-0.0260254 2.61439 -5.60859e-21)
(-0.0222693 2.62316 -7.05641e-23)
(-0.000464686 1.5733 -1.62259e-20)
(0.00377268 1.51103 1.63591e-20)
(-0.00946753 1.38399 0)
(-0.00261538 1.39376 0)
(0.000954122 1.39041 0)
(-0.0146762 1.29513 0)
(-0.00287882 1.23778 0)
(0.375744 1.50397 2.55078e-19)
(0.420639 1.51149 1.43129e-19)
(0.602837 2.46261 -2.49611e-19)
(0.38742 2.56147 7.31518e-19)
(0.350814 2.06991 7.33863e-20)
(1.02056 -0.00811113 0)
(1.01571 -0.00942809 0)
(1.0148 -0.0132413 0)
(1.0076 -0.000706568 0)
(1.00492 -0.00068465 0)
(1.00798 -0.00457252 0)
(1.00949 -0.00361913 0)
(1.01454 -0.00444816 0)
(1.0203 0.015899 1.14577e-18)
(1.01768 0.0148025 -1.4518e-18)
(1.02077 0.0180668 -1.15469e-18)
(1.01852 0.0164708 1.44522e-18)
(0.745801 1.3469 0)
(0.680929 1.38538 2.22031e-19)
(0.850817 1.22502 7.96045e-20)
(0.884775 1.19271 -1.0562e-19)
(1.16586 2.62293 2.9129e-19)
(0.788881 0.122448 5.89797e-19)
(1.16644 0.102284 0)
(1.20459 0.192148 -4.57479e-19)
(1.18536 0.15208 -1.8982e-20)
(1.012 0.154411 0)
(0.0862552 3.02424 3.69352e-19)
(0.0882889 2.90534 -1.23158e-18)
(0.0359584 2.36496 7.83074e-19)
(0.133735 -0.0845238 -3.7736e-19)
(0.346919 3.45552 -2.41542e-19)
(0.1968 3.34596 0)
(0.227459 3.40576 3.14636e-19)
(0.22932 3.08268 -1.27526e-18)
(0.263166 3.20298 0)
(0.00599486 3.12283 5.31875e-20)
(0.0164586 3.13149 -6.122e-19)
(0.0153368 3.12725 9.01038e-19)
(0.0333862 3.14031 0)
(0.0316604 3.14974 0)
(1.26285 2.58978 0)
(0.520919 0.827929 -5.30675e-19)
(0.996084 1.02501 9.27475e-21)
(0.963667 1.07144 0)
(0.832059 0.961271 -1.17876e-19)
(1.05177 0.892695 2.76674e-20)
(0.40537 0.37613 -9.30638e-19)
(0.694283 0.317168 -2.49242e-20)
(0.648251 0.236047 4.18717e-19)
(0.609233 0.368485 3.09167e-20)
(0.522938 0.344232 -1.247e-18)
(0.659854 0.328063 0)
(0.698256 0.41523 7.24139e-19)
(0.704134 0.421625 0)
(0.642253 0.350405 0)
(0.59128 0.294622 0)
(0.767125 0.645424 4.1371e-19)
(1.23863 0.292801 -4.64747e-19)
(1.22541 0.428681 0)
(1.23405 0.379651 0)
(0.736075 0.178702 6.25493e-19)
(0.83072 0.539815 -3.93366e-19)
(0.749518 0.492046 6.97004e-19)
(0.954495 0.428569 -7.3013e-19)
(1.0189 0.0144896 7.78269e-19)
(1.01735 0.0135835 -7.85661e-19)
(1.01615 0.0142294 0)
(1.03655 -0.00491077 0)
(1.03014 -0.0079061 -7.37579e-19)
(1.02829 -0.0107669 7.30007e-19)
(1.0248 0.0104047 0)
(1.02296 0.0144042 0)
(1.01249 0.00448431 0)
(1.01453 0.00905972 0)
(1.01607 0.00397707 0)
(1.01534 0.002799 0)
(0.0628557 1.35491 0)
(0.0619348 1.31902 0)
(0.141287 1.40964 4.65945e-20)
(0.265153 1.47736 7.1709e-20)
(0.159507 1.45141 1.5933e-19)
(0.188821 1.45697 -2.58357e-19)
(0.146342 1.41415 0)
(0.12555 1.57769 -1.23265e-19)
(0.125952 1.57108 0)
(0.347057 2.0287 -1.06816e-19)
(0.331929 2.3456 6.4011e-19)
(0.178939 1.45289 1.07462e-19)
(0.264717 1.37759 1.53793e-20)
(0.189391 1.38008 -1.25273e-20)
(0.279716 1.3133 -1.13059e-19)
(0.252349 1.57634 0)
(0.252623 1.62527 1.1718e-19)
(0.0292575 2.27625 -2.17293e-20)
(0.0378785 2.67834 0)
(0.0684138 2.41571 1.17613e-19)
(0.062214 2.43536 0)
(0.0704466 2.69494 -2.04269e-19)
(0.0445817 2.71154 0)
(0.027254 1.41794 2.01179e-20)
(0.0363508 1.47662 0)
(0.0324351 1.38093 0)
(0.025144 1.38209 -2.35774e-20)
(0.000329595 2.66794 -3.95696e-21)
(0.0256535 2.70277 2.17618e-19)
(0.00901599 2.73703 1.31256e-21)
(0.00115115 1.83821 5.86435e-21)
(-0.00554141 1.68275 -8.29595e-22)
(0.0198713 1.30775 0)
(0.0228278 1.24158 0)
(0.0410985 1.57418 1.43201e-20)
(0.036792 1.4502 -3.11859e-21)
(0.0344723 1.5204 1.51264e-22)
(0.0446447 1.60214 0)
(-0.0317874 2.28446 6.23198e-20)
(-0.0361297 2.56422 -2.67095e-20)
(-0.0196546 2.46401 1.23456e-21)
(-0.0102238 1.85494 -7.10896e-21)
(-0.0313866 2.51472 -1.67484e-21)
(-0.0261208 2.45461 2.33849e-20)
(1.01867 0.0210022 -7.84039e-19)
(1.01474 0.0269401 7.86533e-19)
(1.01388 0.0167954 0)
(1.01246 0.0676527 1.0783e-18)
(0.992154 0.0546774 -1.24144e-18)
(0.953908 0.0510939 1.38929e-18)
(1.01325 0.110809 -1.46996e-19)
(1.04323 -0.00512948 0)
(1.05117 -0.00110577 7.06534e-19)
(1.0397 -0.00838715 -7.06365e-19)
(1.07062 0.0410907 -4.1989e-20)
(1.06347 0.0276228 3.62216e-19)
(1.06395 0.0625423 0)
(1.05304 0.0516822 -1.30399e-19)
(1.03246 0.0427138 0)
(1.02578 0.0378705 0)
(1.02772 0.013027 0)
(1.02418 0.0156682 0)
(1.0402 0.0322802 2.67934e-19)
(1.03919 0.0273315 -5.92738e-19)
(1.0524 0.0362693 -2.83743e-19)
(1.04856 0.0360493 -3.12906e-19)
(1.07585 0.0668386 6.01351e-19)
(1.09906 0.0527312 0)
(1.10521 0.0918562 0)
(-0.0282616 2.29541 4.61763e-20)
(-0.0240422 2.03911 -8.27753e-22)
(-0.0247393 2.04545 0)
(-0.0344555 2.45822 -4.60484e-20)
(-0.0302675 2.41787 1.38101e-21)
(-0.0398772 2.4909 4.44687e-21)
(-0.0243678 2.63475 4.11828e-21)
(-0.0303996 2.57717 -7.65943e-22)
(-0.0250978 2.53099 7.03388e-22)
(-0.020177 2.62746 1.13814e-21)
(-0.0237634 2.62968 -3.43018e-22)
(-0.0167858 1.47968 -2.80496e-22)
(0.00232045 1.62109 -1.12525e-20)
(0.366443 1.43289 -1.05294e-19)
(0.363338 1.36082 3.51727e-20)
(0.631076 1.43152 -2.14846e-19)
(0.510042 1.50227 -1.38516e-19)
(0.55784 1.46521 0)
(0.603009 2.43719 2.12993e-19)
(0.666994 2.43155 3.40856e-19)
(0.41862 2.52387 8.90341e-20)
(0.397635 2.54979 -6.48344e-19)
(0.500731 2.49065 5.87019e-19)
(0.558945 2.4763 0)
(0.491318 2.53144 -5.5881e-19)
(0.259574 2.59929 1.17254e-18)
(0.367407 2.56615 -6.48268e-20)
(0.289214 2.66005 -1.63641e-18)
(0.964398 2.39604 7.14643e-19)
(0.847033 2.39442 0)
(1.01139 0.00119426 2.56514e-20)
(1.01523 -0.00534077 -2.09321e-20)
(1.01762 -0.00412972 -3.82729e-19)
(1.01544 -0.00119645 3.81421e-19)
(1.01296 0.00166644 0)
(0.620793 1.29404 0)
(0.656633 1.18134 0)
(0.767921 1.10511 0)
(0.643607 1.1413 0)
(1.19666 2.63944 5.00825e-20)
(1.08822 2.38722 0)
(0.82572 2.20159 3.54071e-21)
(0.825378 2.45526 0)
(0.918525 2.54357 -4.37797e-19)
(0.950417 2.49365 2.92541e-19)
(0.807783 0.147238 0)
(0.768583 0.133361 1.61502e-19)
(0.920125 0.149451 9.35354e-19)
(0.836732 0.127119 -3.51085e-19)
(0.796309 0.0867105 -1.07516e-18)
(1.08241 0.229383 -8.73992e-19)
(0.986618 0.291722 -7.76394e-21)
(0.925991 0.328728 8.48521e-19)
(1.0143 0.241492 7.10922e-19)
(0.935064 0.188981 -1.24087e-18)
(0.897614 0.200743 1.55269e-19)
(0.942808 0.293751 -3.25879e-19)
(0.910906 0.204129 0)
(0.999181 0.193613 6.07782e-19)
(1.05394 0.203056 0)
(1.0498 0.212298 0)
(1.12204 0.118617 2.76326e-19)
(1.06169 0.181443 -1.0565e-20)
(1.0757 0.232707 -1.57567e-19)
(1.1149 0.201496 0)
(1.02349 0.0467072 6.0688e-19)
(1.03918 0.0605107 7.54602e-19)
(1.0329 0.0446098 -6.01742e-19)
(1.0411 0.0657444 -5.06004e-19)
(1.01511 0.071676 -7.63496e-19)
(0.99111 0.159258 0)
(0.992815 0.103445 0)
(0.962968 0.0643225 -4.93076e-19)
(0.911392 0.0947508 1.95122e-19)
(1.03714 0.11071 7.00621e-19)
(1.07359 0.129829 -8.09373e-19)
(1.06552 0.169667 7.26858e-19)
(1.03388 0.147397 0)
(1.08293 0.114603 0)
(1.05669 0.106316 -3.30283e-19)
(1.04419 0.103336 -5.70047e-19)
(0.587573 1.11035 1.15558e-19)
(0.625033 1.43896 -2.15747e-20)
(1.14737 2.73488 -2.45908e-19)
(1.2 3.11575 2.38219e-21)
(1.2557 2.74104 -1.36885e-19)
(1.29742 2.71275 2.24464e-20)
(1.27312 2.33443 -3.70248e-20)
(1.18781 3.02162 -7.32014e-20)
(1.20644 2.97845 2.22849e-19)
(1.1822 3.26981 -1.23636e-19)
(1.40199 2.98583 1.53007e-19)
(1.41408 2.9245 0)
(0.552833 0.850188 -4.79113e-20)
(0.235668 1.22592 4.92929e-19)
(0.497484 0.451804 5.93266e-19)
(0.372694 0.214297 6.80794e-19)
(0.545694 0.3723 7.04238e-19)
(0.558447 0.470676 -1.1319e-18)
(0.559222 0.468332 9.2744e-19)
(0.511399 0.397375 -3.58978e-19)
(0.441381 0.328553 8.11779e-19)
(0.756866 0.234321 -3.57993e-19)
(0.720509 0.273274 0)
(0.690485 0.198723 9.84257e-21)
(0.736056 0.50919 3.8152e-19)
(0.692418 0.478248 -1.38688e-18)
(0.650688 0.465839 2.24969e-20)
(0.644964 0.436838 0)
(0.690455 0.73605 3.81324e-19)
(0.808758 0.791895 4.30672e-19)
(0.736791 0.842513 -4.99984e-19)
(0.876166 0.811994 -1.60039e-19)
(0.910842 0.85361 -3.99726e-20)
(0.918563 0.860433 4.09862e-20)
(0.868217 0.673171 -6.89118e-19)
(0.93463 0.722932 1.48835e-19)
(0.984395 0.725168 0)
(0.983497 0.700934 -1.9487e-19)
(1.03153 0.312936 2.23794e-19)
(1.14935 0.315396 2.76131e-19)
(1.06627 0.269162 3.57942e-19)
(0.990557 0.358869 -4.39715e-19)
(1.03314 0.465548 0)
(1.12103 0.411453 0)
(0.891494 0.403243 7.67027e-21)
(0.843934 0.29055 0)
(0.874098 0.278203 4.03974e-19)
(0.908887 0.325943 9.89529e-21)
(0.961944 0.460794 2.05571e-18)
(0.88669 0.53166 5.25381e-19)
(0.910563 0.474082 -5.70056e-19)
(0.825166 0.451986 6.04409e-19)
(0.809566 0.4323 3.69251e-19)
(0.793659 0.402062 -3.62221e-19)
(1.02796 -0.000571846 6.32659e-19)
(1.02029 0.000332996 0)
(1.01892 0.00118029 4.12825e-19)
(1.02254 -0.000970912 -9.34568e-19)
(1.02244 0.00431116 4.55103e-19)
(1.02009 0.0112187 -9.52386e-19)
(1.02097 0.0109748 0)
(1.01996 0.0117517 -1.98355e-19)
(1.01643 0.00757815 4.97118e-19)
(1.01673 0.0106843 -2.49688e-19)
(1.0174 0.0102882 1.82812e-19)
(0.0286055 1.32158 0)
(0.0353541 1.34822 0)
(0.0443967 1.33246 0)
(0.0421274 1.29077 0)
(0.0769382 1.36062 3.96604e-20)
(0.0911105 1.33457 -3.62936e-20)
(0.0494191 1.54273 -1.66743e-20)
(0.106704 1.37573 -4.77673e-20)
(0.0425241 1.45899 -1.71481e-21)
(0.0455882 1.45607 9.74645e-22)
(0.0680995 1.36343 -4.03544e-20)
(0.0577431 1.36793 3.12345e-20)
(0.0479146 1.34619 5.1067e-21)
(0.0395313 1.3641 7.56611e-22)
(0.107253 2.38544 -1.29367e-19)
(0.0982048 2.42992 0)
(0.151412 2.03449 1.08831e-19)
(0.114695 1.70656 4.76506e-20)
(0.22199 2.02471 -9.49782e-20)
(0.200518 2.43781 0)
(0.25316 2.38488 -6.27812e-19)
(0.300579 2.38333 4.46097e-19)
(0.255475 1.99674 -2.46607e-19)
(0.141054 2.16147 1.69471e-19)
(0.11455 2.2708 0)
(0.0222809 1.86329 -4.22167e-20)
(-0.00693087 2.40003 -7.25302e-20)
(0.00432662 2.14807 0)
(0.00598262 2.46072 -1.48233e-20)
(0.0245648 2.30532 3.0275e-20)
(0.0189963 1.40298 -4.89238e-21)
(0.0124082 1.38777 7.7716e-20)
(0.0124034 1.39098 -2.78543e-20)
(0.0200834 1.39014 -1.83657e-20)
(0.0249009 1.4217 0)
(0.0103543 1.37299 0)
(-0.00463531 1.2954 -2.94962e-20)
(0.00160192 1.36271 7.49235e-21)
(0.00883938 1.36612 0)
(0.0115159 1.29713 -2.60599e-20)
(0.00772734 1.22665 4.98393e-20)
(1.04193 0.0138632 0)
(1.04818 0.00944594 -6.61316e-20)
(1.039 0.0228981 -4.77604e-19)
(1.04933 0.0217888 0)
(1.05387 0.020858 0)
(1.03628 0.0118377 -6.7119e-21)
(1.0303 0.0121835 7.6634e-19)
(1.03193 0.0163959 9.31854e-19)
(1.02578 0.0202691 0)
(1.02248 0.0207062 0)
(1.03552 0.0245916 4.7645e-19)
(1.02608 0.0266983 0)
(1.02373 0.0270165 0)
(-0.0273706 2.03298 0)
(0.00317222 1.65267 -4.08346e-21)
(-0.00991009 1.76318 -2.30262e-20)
(-0.00704969 1.36859 0)
(-0.0175863 1.5532 -5.76635e-21)
(-0.00386302 1.45336 3.59709e-21)
(-0.00894958 1.37349 0)
(0.40399 1.66136 0)
(0.35562 1.29994 -4.81272e-20)
(0.277725 1.34419 0)
(0.421202 1.30586 -1.54178e-20)
(0.462895 1.46179 0)
(0.445695 1.40424 2.96846e-20)
(1.03956 2.68739 -1.53142e-20)
(0.979908 2.4174 -8.98038e-19)
(0.938307 2.20707 1.02256e-18)
(0.862365 2.38748 2.40252e-19)
(0.853787 2.5042 0)
(0.921306 2.50167 0)
(0.948173 2.38921 0)
(0.925276 2.37646 -9.31721e-19)
(0.694421 2.47522 -3.82596e-19)
(0.802814 2.45895 -9.8817e-20)
(0.811066 2.43724 7.4637e-20)
(0.703822 2.40566 0)
(0.808117 2.39927 0)
(0.770133 2.4144 -3.67155e-19)
(0.768647 2.48277 0)
(0.603493 1.07095 0)
(0.517865 0.895141 -5.46519e-19)
(0.521339 0.959859 -3.17904e-20)
(0.502853 1.09652 0)
(0.490023 1.00977 8.37882e-19)
(0.768317 0.876494 -1.40913e-19)
(0.778825 1.01422 0)
(0.756519 0.992861 1.988e-19)
(0.643774 1.02215 0)
(0.638736 0.936835 0)
(1.16457 2.76879 -2.23299e-19)
(1.13984 2.82767 -9.1095e-20)
(0.92733 2.35763 7.57905e-20)
(0.903298 2.33607 -7.61814e-20)
(1.13351 2.74646 0)
(1.0853 2.71516 9.15868e-20)
(1.10082 2.50629 -3.01887e-19)
(1.00018 2.25878 -2.8454e-20)
(0.500262 1.35653 0)
(0.517662 1.09379 -1.01853e-19)
(0.578447 1.17717 0)
(0.858975 0.213811 0)
(0.786364 0.164753 0)
(0.728189 0.135725 0)
(0.860503 0.21301 -6.20199e-19)
(0.774077 0.20769 3.73051e-19)
(0.926241 0.0788378 -4.04336e-19)
(0.944103 0.128619 0)
(0.918537 0.138578 1.7386e-19)
(0.859014 0.0997289 6.97839e-19)
(0.823154 0.0683754 -4.36482e-19)
(1.10313 3.36351 -6.83332e-19)
(1.1681 3.28608 0)
(1.12276 3.44864 -1.58473e-18)
(0.662014 3.59392 1.32076e-18)
(1.03374 3.08991 1.24941e-19)
(0.523545 0.830059 5.67387e-19)
(0.5108 0.799633 0)
(0.381117 0.481744 -1.4986e-19)
(0.469727 0.672985 8.63618e-19)
(0.524472 0.458372 -2.0651e-19)
(0.513642 0.505751 2.35853e-19)
(0.690315 0.545749 4.91762e-19)
(0.718471 0.572897 0)
(0.647676 0.609435 0)
(0.619476 0.56151 0)
(0.992555 0.608129 1.01957e-19)
(0.942213 0.575405 -5.08216e-19)
(0.960819 0.600504 3.79043e-19)
(1.02292 0.526527 -3.81333e-19)
(1.06249 0.49784 0)
(1.06553 0.590349 -9.86279e-20)
(0.854364 0.392817 -8.2958e-19)
(0.85033 0.38542 -1.05506e-18)
(0.803951 0.383823 6.52067e-19)
(0.803476 0.341663 -6.72406e-19)
(0.845017 0.299998 -5.2366e-19)
(0.803705 0.299778 6.43615e-19)
(1.0265 0.00625228 -4.76426e-19)
(1.02616 0.00636082 9.60515e-19)
(1.02985 0.000497844 6.13354e-19)
(1.03382 0.00114948 -7.366e-19)
(1.03362 0.0107283 0)
(1.0298 0.0109689 -1.19841e-18)
(0.0885949 1.66692 1.49219e-20)
(0.0498491 1.59256 0)
(0.102733 1.7149 1.01517e-19)
(0.11283 1.68491 -9.41432e-20)
(0.0315991 1.53233 3.13514e-20)
(0.0258251 1.51551 0)
(0.00547634 1.68805 0)
(-0.00559866 1.49433 3.5148e-21)
(-0.00269245 1.43273 -3.16511e-21)
(-0.0107637 1.54756 2.89241e-21)
(-0.00349014 1.89097 2.1773e-21)
(-0.0208086 1.94261 1.35569e-21)
(0.489847 1.37811 -2.68722e-19)
(0.493236 1.37443 2.9328e-19)
(0.436137 1.29806 -2.00058e-20)
(0.421439 1.29971 8.48863e-21)
(0.610891 1.30296 0)
(0.543539 1.39412 1.03611e-19)
(0.543919 1.39713 -1.00832e-19)
(0.467968 1.27712 1.91309e-20)
(0.5086 1.2397 0)
(0.575367 1.20886 0)
(0.668496 2.43731 5.63963e-19)
(0.662527 2.46138 1.30417e-18)
(0.719922 2.47635 -8.96172e-19)
(0.620329 2.44819 -2.03564e-19)
(0.553586 2.54605 2.79415e-19)
(0.494188 2.50651 -7.26172e-19)
(0.988779 2.39428 -5.76119e-19)
(1.02333 2.41325 0)
(0.944774 2.19164 -6.37078e-19)
(1.05545 2.69577 0)
(1.05467 2.67824 0)
(0.617599 2.31481 3.25674e-20)
(1.12418 3.08304 9.60201e-20)
(1.0069 2.98498 -1.52854e-19)
(0.336672 0.867058 0)
(0.355441 0.774606 -3.02617e-19)
(0.544777 0.70122 -3.06369e-19)
(0.384493 2.16205 0)
(0.411718 2.75164 -8.78896e-20)
(0.423332 2.4912 0)
(0.698783 0.700785 -8.13294e-19)
(0.76164 0.694935 1.14217e-18)
(0.769195 0.658369 -1.14037e-18)
(0.685455 0.659823 -1.04177e-19)
(0.741412 0.614715 -4.34069e-19)
(0.979833 2.76986 -7.27343e-20)
(1.01689 2.77232 -2.03866e-19)
(0.571302 2.24265 3.96607e-19)
(0.618273 1.75893 -3.2072e-19)
(0.71532 1.8774 -4.87964e-19)
(0.983481 2.41094 -1.36916e-19)
(0.981577 2.36729 3.59083e-19)
(0.662966 1.79919 3.26787e-20)
(0.469583 1.3252 1.72621e-19)
)
;

boundaryField
{
    wall-4
    {
        type            noSlip;
    }
    velocity-inlet-5
    {
        type            fixedValue;
        value           uniform (1 0 0);
    }
    velocity-inlet-6
    {
        type            fixedValue;
        value           uniform (0 3 0);
    }
    pressure-outlet-7
    {
        type            zeroGradient;
    }
    wall-8
    {
        type            noSlip;
    }
    frontAndBackPlanes
    {
        type            empty;
    }
}


// ************************************************************************* //
