/*--------------------------------*- C++ -*----------------------------------*\
  =========                 |
  \\      /  F ield         | OpenFOAM: The Open Source CFD Toolbox
   \\    /   O peration     | Website:  https://openfoam.org
    \\  /    A nd           | Version:  6
     \\/     M anipulation  |
\*---------------------------------------------------------------------------*/
FoamFile
{
    version     2.0;
    format      ascii;
    class       volScalarField;
    location    "52";
    object      p;
}
// * * * * * * * * * * * * * * * * * * * * * * * * * * * * * * * * * * * * * //

dimensions      [0 2 -2 0 0 0 0];

internalField   nonuniform List<scalar> 
918
(
0.538722
1.2574
0.00572741
0.538635
-0.0107073
1.2251
-0.489709
0.667743
0.519857
-0.116934
-0.0556063
0.519212
1.0823
0.848167
-1.16559
-0.0129323
0.63654
-0.415006
0.517856
-0.0672746
0.692462
0.526545
0.529013
0.519803
0.578333
0.803616
0.959166
-0.00147462
0.00931404
0.00498602
-0.0121136
-0.0320209
-0.0272176
1.10825
1.16014
1.18332
0.486511
0.321069
-0.387513
-0.437314
-0.421575
-0.513601
0.663345
0.661554
-0.207152
0.670557
0.674967
0.50561
0.519251
0.520087
0.521223
0.520113
0.5214
0.394966
-0.122915
-0.151615
-0.100537
-0.098079
0.0435743
-0.0597474
-0.0638255
-0.0532119
-0.0537379
0.435835
0.514872
0.511737
0.524103
0.533519
1.19757
1.17134
1.1974
1.10787
1.12546
1.05933
1.03226
0.870572
0.893931
0.830717
0.818313
-1.62657
-2.57895
-0.585152
-0.305702
-0.0101744
-0.013946
-0.0120674
0.630786
0.63265
0.636992
0.641561
1.04508
-0.388313
-0.456486
0.518368
0.516885
0.526073
0.526977
0.521932
0.521939
-0.0598135
-0.0576577
-0.0559994
-0.0663395
-0.0643908
0.684205
0.682807
0.519242
0.516692
0.542628
0.563852
0.554009
0.255389
0.585848
0.602364
0.664928
0.812524
0.799624
0.811769
0.93442
0.901947
0.991403
1.01308
0.0141419
-0.000784134
-0.0169798
-0.0184184
-0.0179794
0.482262
0.47585
0.503448
0.490125
0.493157
0.225451
0.0739375
0.403876
0.427918
-0.307465
-0.353544
-0.452603
-0.449902
-0.553087
0.599322
0.658032
0.654551
-0.221538
-0.148045
-0.273998
-0.0903413
-0.146787
0.496603
0.502823
0.498916
0.514247
0.508428
0.510846
0.523334
0.520505
0.522106
0.453383
0.585481
0.312833
0.285284
-0.275234
-0.170137
-0.25775
-0.0869726
-0.0822575
0.0543957
0.0819434
0.0312432
0.0185816
-0.0730111
-0.0666545
-0.0694036
-0.0526236
-0.0540848
0.427302
0.414329
0.447006
0.454486
0.50242
0.503853
0.508218
0.50626
0.983595
1.0062
1.01231
0.988507
-3.5625
-6.20653
0.0422468
0.202956
-0.00806836
-0.00933662
0.000420072
-0.00848667
0.000219432
-0.00229722
-0.0163207
-0.0172859
-0.0132563
-0.0130063
0.628004
0.629629
1.00463
1.0356
0.992665
0.965449
0.507691
0.509592
0.51422
0.511103
-0.0523209
-0.0539509
-0.051257
0.675925
0.680533
0.679563
0.214725
0.126773
0.306073
0.337013
0.624258
0.608735
0.622533
0.724553
0.763156
1.02972
1.05378
1.03796
1.05067
1.10147
1.12437
1.08944
0.46091
0.471793
0.466091
0.506534
0.504223
0.505233
0.501425
0.502505
0.501054
-0.0383086
-0.412593
0.479902
0.481918
0.470262
0.475825
0.685143
0.768345
0.641494
0.64969
0.648117
-0.0416481
-0.088782
0.244463
0.216395
0.366829
0.401196
0.383157
0.958641
0.918756
0.966906
0.942074
0.907097
0.931016
-0.349818
-2.12004
-1.11205
0.606459
0.408617
0.500499
0.00199642
-0.0152469
-0.0113238
1.03501
1.0738
0.657156
0.850036
0.801306
0.789322
0.816525
0.875789
0.807294
0.84231
0.874661
0.852473
0.552062
0.488383
0.503576
0.844978
0.901406
0.0904018
0.0137471
-0.00982357
0.105593
0.174614
0.143327
1.0458
0.956942
1.02184
0.51693
0.51787
-0.012575
-0.0338075
0.521979
0.521695
-0.0176827
-0.00741613
0.51864
-0.935713
0.0959583
0.511441
0.501196
0.517971
-0.0884827
0.328554
-0.0596102
0.0283651
-0.00746608
0.514217
0.448026
0.405895
-8.86139e-05
-0.0220991
-0.059723
-0.21754
0.51467
0.513033
0.517351
0.518175
0.518943
-0.0198796
-0.0199164
-0.0134821
-0.0543249
-0.0504193
-0.0605885
0.481383
0.501364
-0.188931
0.517644
0.519738
0.519445
0.513592
0.518563
0.517169
-0.0154101
-0.0210181
-0.0218174
0.195764
0.332978
0.702707
0.778229
0.651717
0.483961
0.186877
0.638397
0.691157
0.616057
0.746657
0.65237
0.664043
0.162451
0.019929
0.165444
0.0983079
0.508316
0.507705
0.498742
0.495632
0.51277
0.510451
0.515651
0.512844
0.516016
0.517182
-0.0455232
-0.0771905
-0.0950158
-0.142444
0.293667
0.553995
0.219908
0.248095
0.155006
-0.0511865
-0.0503396
-0.0591403
-0.0649999
-0.0150322
-0.0236454
0.0229341
0.0292352
0.0119701
-0.0154834
-0.0235348
-0.0227738
-0.0287493
0.507428
0.506786
0.512545
0.52115
0.457574
0.461285
0.427654
0.446423
0.432616
0.372426
0.402683
0.379744
-0.0110857
0.000236461
-0.00448121
-0.0205918
-0.0191627
-0.0419099
-0.035636
-0.0315552
-0.0289617
-0.0340808
-0.0537701
-0.0533934
-0.180726
-0.297561
0.957018
0.910316
0.133225
0.504591
0.510241
0.507419
0.512085
0.515291
0.515941
0.513526
0.510023
0.501472
0.502865
0.499743
0.500787
-0.128476
-0.236408
-0.0678667
-0.139365
0.147735
0.613642
0.340835
0.287089
0.272212
0.495479
0.708776
0.625359
0.686754
0.677828
-0.390762
0.0182084
-0.320731
0.228079
0.217227
0.727645
0.770379
0.788142
0.744593
0.70066
-0.0288001
0.547503
-0.0640426
-0.0148838
0.173628
0.0602343
0.6645
0.63418
0.639591
0.656818
0.668734
0.648
0.631079
0.626108
0.652365
0.656417
0.496285
0.224582
0.183081
0.136732
0.625197
0.522187
0.574431
0.494104
0.503886
0.506333
0.50525
0.486169
0.493518
0.489202
0.496298
0.499933
0.507306
0.507513
0.503416
0.505295
-0.0701549
-0.0765036
-0.0674034
-0.129245
-0.129344
-0.173557
-0.087458
0.0839069
0.0340703
0.229607
0.354994
0.066522
-0.0521792
-0.0359976
0.0147355
0.17792
0.173739
0.0485244
0.161803
0.115797
0.110096
0.19846
0.222371
-0.0371617
-0.0388423
-0.0417173
-0.0476558
0.00490989
0.105827
0.0887899
-0.0116524
-0.0196734
-0.0482548
-0.0491013
-0.0130965
-0.0288546
-0.0223421
-0.00655928
-0.048161
-0.0222385
-0.0109367
-0.0113923
-0.0149046
-0.0133302
0.500784
0.502977
0.502864
0.510986
0.52595
0.541095
0.502812
0.478785
0.4698
0.472908
0.445917
0.455218
0.450287
0.466151
0.487898
0.497011
0.494304
0.497041
0.479111
0.480868
0.466185
0.470803
0.439904
0.421545
0.411258
-0.046314
-0.0130862
-0.0260409
-0.0416597
-0.0157781
-0.0263349
-0.0174612
0.000372187
-0.0174123
-0.0151262
-0.0244713
-0.0313607
-0.0321564
-0.0815868
0.00197541
-0.177971
-0.230173
-0.281308
0.880418
1.01841
0.814824
0.584035
0.595798
0.826276
0.926021
0.540377
0.757493
0.766722
0.570084
0.857537
0.508474
0.508101
0.505995
0.505186
0.50614
-0.0191372
0.0826799
0.0973889
0.154666
0.272268
0.378908
0.303947
0.191503
0.325437
0.349527
0.610693
0.617421
0.572759
0.595548
0.595422
0.408236
0.489283
0.530117
0.482151
0.5546
0.588646
0.535929
0.577952
0.498794
0.449463
0.441279
0.39722
0.430913
0.412464
0.387171
0.500276
0.47683
0.487824
0.477232
0.499011
0.520096
0.522775
0.547565
0.560877
0.477796
0.425301
0.441948
0.469857
0.426886
0.443919
0.465405
0.17736
0.0814662
0.24606
-0.0816064
0.00592522
0.0436959
0.00197557
-0.0417082
0.265026
-0.375297
-0.32122
-1.00205
0.490386
0.859752
0.621912
0.635262
0.667103
0.651788
0.661071
0.670553
0.675286
0.614591
0.625881
0.62905
0.600459
0.626732
0.629024
0.63602
0.500779
0.403524
0.402296
0.337532
0.198925
0.238831
0.430375
0.362371
0.288352
0.281934
0.452253
0.318406
0.395916
0.451147
0.375969
0.309517
0.539723
0.585533
0.576609
0.550489
0.4379
0.469842
0.477258
0.524966
0.56465
0.591617
0.494932
0.501251
0.502186
0.499436
0.497698
0.500823
0.501074
0.503354
0.503655
0.506212
0.505621
-0.0579076
-0.0454548
-0.0635868
-0.0673484
-0.00893125
-0.021049
-0.00295626
-0.0277427
-0.0241782
-0.0231449
-0.0382512
-0.0542317
-0.0505159
-0.0386235
0.0612581
0.0725182
0.0916076
0.0493513
0.258775
0.392912
0.484428
0.353871
0.198137
0.219127
0.283424
0.00474906
0.0199797
0.00495169
0.0591721
0.0387425
-0.0414472
-0.0461652
-0.0454889
-0.0355959
-0.0279486
-0.0486981
-0.0470611
-0.0369697
-0.0439787
-0.0457489
-0.0481761
0.480455
0.473354
0.477021
0.469393
0.46755
0.484485
0.488907
0.490218
0.495736
0.498388
0.487957
0.494007
0.498055
-0.0173779
-0.0357452
-0.0360695
-0.0309922
-0.0324004
-0.0328011
-0.0366688
0.12148
0.0260755
0.0624027
-0.00807487
-0.134378
-0.0753562
0.493408
0.490285
0.48267
0.713069
0.551265
0.469243
0.567255
0.68593
0.269312
0.469832
0.303298
0.883717
0.78765
0.933786
0.550527
0.248127
0.412655
0.423803
0.264478
0.387331
0.337663
0.213995
0.25078
0.280902
0.363902
0.251134
0.229897
-0.0121046
0.166973
0.279297
0.26124
0.390175
0.447927
0.254833
0.171025
0.11862
0.589125
0.608686
0.618433
0.590726
0.613129
0.560582
0.551425
0.569617
0.578582
0.571418
-0.638264
-0.226501
-1.42717
-0.835743
-0.384055
0.520326
0.513461
0.744567
0.651051
0.682102
0.665519
0.604458
0.570415
0.615018
0.633845
0.329239
0.417806
0.401643
0.381238
0.325258
0.265981
0.542201
0.549446
0.573182
0.598672
0.574249
0.601333
0.493606
0.493444
0.492188
0.488488
0.48702
0.490176
0.0247259
-0.000991613
0.0326773
0.0225636
0.00176321
-7.41089e-05
-0.0192558
-0.030791
-0.0291278
-0.0278098
-0.0189867
-0.0173967
0.163814
0.104403
0.0158417
0.0581226
-0.00759977
-0.0916826
-0.0913486
-0.00405948
0.095416
0.0780408
0.386829
0.656826
0.481773
0.65018
0.445338
0.547882
0.465516
0.439353
0.468653
0.367593
0.456188
0.0328783
-0.167453
-0.223718
0.81588
0.773564
0.559941
0.310178
0.195496
0.491543
0.519037
0.48002
0.504894
0.557493
0.537164
0.00984471
0.103903
0.179132
0.488388
0.272169
0.290452
0.28113
0.444393
0.415333
)
;

boundaryField
{
    wall-4
    {
        type            zeroGradient;
    }
    velocity-inlet-5
    {
        type            zeroGradient;
    }
    velocity-inlet-6
    {
        type            zeroGradient;
    }
    pressure-outlet-7
    {
        type            fixedValue;
        value           uniform 0;
    }
    wall-8
    {
        type            zeroGradient;
    }
    frontAndBackPlanes
    {
        type            empty;
    }
}


// ************************************************************************* //
