/*--------------------------------*- C++ -*----------------------------------*\
  =========                 |
  \\      /  F ield         | OpenFOAM: The Open Source CFD Toolbox
   \\    /   O peration     | Website:  https://openfoam.org
    \\  /    A nd           | Version:  6
     \\/     M anipulation  |
\*---------------------------------------------------------------------------*/
FoamFile
{
    version     2.0;
    format      ascii;
    class       volVectorField;
    location    "52";
    object      U;
}
// * * * * * * * * * * * * * * * * * * * * * * * * * * * * * * * * * * * * * //

dimensions      [0 1 -1 0 0 0 0];

internalField   nonuniform List<vector> 
918
(
(0.985048 -0.000712231 0)
(0.00534037 2.96624 0)
(-0.000458053 0.879204 0)
(0.979574 0.00195998 0)
(-0.0126651 2.06733 3.13075e-20)
(-0.00709596 2.94856 -2.62678e-18)
(0.807083 1.10904 4.33088e-19)
(0.213973 0.0907065 -1.48514e-20)
(0.999921 -0.000242879 0)
(0.0849189 0.70508 0)
(0.0116279 0.472631 0)
(0.734276 -0.0180309 0)
(0.01023 2.93153 0)
(0.00344553 2.7945 0)
(-0.00132663 3.18497 8.21589e-19)
(-0.012496 1.91905 1.26259e-20)
(0.296239 0.0236808 9.93979e-19)
(0.228938 1.11641 3.49307e-19)
(0.96442 0.00673513 0)
(-0.00467995 0.433028 0)
(0.0365429 0.124449 -6.96798e-19)
(1.00183 -0.00456303 0)
(0.999851 -0.00892999 0)
(0.975161 -0.00605395 0)
(0.594014 -0.0288228 0)
(0.0220471 2.64459 0)
(-0.0123989 2.91196 9.65302e-19)
(-0.00364372 0.936154 0)
(-0.024277 1.16703 0)
(-0.00153891 0.90731 0)
(-0.019816 2.60211 0)
(-0.00358563 2.11754 -2.50062e-20)
(-0.00870471 1.89646 0)
(-0.0221359 2.98761 -9.48396e-23)
(-0.0164893 3.00549 2.04089e-18)
(0.00230802 3.00058 0)
(0.871658 -0.00969954 0)
(0.377454 0.919176 1.67857e-19)
(0.806195 1.127 -5.40942e-19)
(0.939498 0.990667 5.47254e-19)
(0.670439 1.20863 -9.99334e-20)
(0.683689 1.17337 5.72101e-19)
(0.235298 0.167593 1.44887e-20)
(0.221146 0.0743361 0)
(1.14852 0.524925 0)
(0.207746 0.156924 6.6066e-20)
(0.187868 0.0907804 -6.85583e-20)
(0.920484 -0.00703039 0)
(1.00026 7.11897e-05 0)
(0.999909 0.000319036 0)
(1.0037 -0.00728421 0)
(1.00089 -0.000944244 0)
(1.00011 -9.82074e-06 0)
(0.0933109 1.83989 -7.48687e-19)
(0.0341438 0.885992 0)
(0.128768 0.781381 0)
(0.0199657 0.840266 0)
(0.0435403 0.637496 0)
(0.00425583 2.01972 0)
(-0.00675968 0.751349 0)
(0.0107287 0.49956 0)
(-0.00368972 0.74363 0)
(0.00602642 0.472819 0)
(0.8423 -0.0157319 0)
(0.838551 0.0341869 0)
(0.76626 -0.00816108 0)
(0.808283 0.0450802 0)
(0.702385 -0.0167546 0)
(0.0139451 3.00021 9.75609e-19)
(0.0111656 3.00605 0)
(0.00622722 3.00386 0)
(0.0119017 2.99714 1.10908e-23)
(0.00826918 2.95872 -1.45e-18)
(0.0122168 2.98286 0)
(0.0090252 2.90473 0)
(0.0209046 2.93153 2.26565e-24)
(0.0041207 2.82432 0)
(0.0258111 2.91886 0)
(-0.000277851 2.74475 0)
(0.308149 3.5829 0)
(-0.122472 3.6659 0)
(0.151149 3.27604 -7.64648e-19)
(0.0046933 3.01117 0)
(-0.0249824 1.99071 0)
(-0.00547771 2.17642 -1.24527e-20)
(-0.00830391 1.93071 1.15631e-20)
(0.382439 0.143274 -3.44464e-19)
(0.313476 -5.46244e-05 -3.34413e-19)
(0.344765 0.158943 -1.03397e-18)
(0.271461 0.0324452 -6.75669e-19)
(0.262886 1.00993 0)
(0.325861 1.2422 -3.61672e-19)
(0.402729 1.14805 5.96035e-19)
(0.987807 0.00812723 0)
(0.94334 0.00579746 0)
(1.00028 0.000672536 0)
(1.00254 0.00906869 0)
(1.00312 0.00897601 -2.65149e-18)
(0.992134 0.00944463 2.00362e-18)
(-0.0151966 0.75945 0)
(-0.00517797 0.446919 0)
(-0.0485826 1.02037 0)
(-0.0383792 0.809402 0)
(-0.0180726 0.428089 0)
(0.0334815 0.142232 2.1551e-19)
(0.0953154 0.111835 0)
(0.993618 -0.007697 0)
(0.954027 -0.00647788 0)
(0.74924 0.0487636 0)
(0.682675 0.0548936 0)
(0.660398 -0.0210049 0)
(0.975663 -0.00374057 0)
(0.606807 0.0568749 0)
(0.44903 -0.0318248 1.4936e-18)
(-0.0411254 2.86034 7.659e-19)
(0.0335027 2.9143 0)
(0.0422068 2.89257 0)
(0.00345418 2.70221 0)
(-0.0086097 2.98653 9.24049e-19)
(-0.0140174 2.89459 0)
(-0.0109953 2.99162 -2.84421e-18)
(-0.0116685 2.92959 9.68081e-19)
(-0.0343581 1.3392 0)
(-0.00733613 1.36663 0)
(-0.00673316 2.13932 5.79091e-22)
(-0.00638472 2.09978 0)
(-0.0164384 1.90651 0)
(0.93865 -0.00528931 0)
(0.856858 -0.0110796 0)
(0.863563 0.00523663 0)
(0.949492 -0.00621333 0)
(0.883493 -0.00806056 0)
(0.501539 1.11969 -2.13017e-19)
(0.548815 1.18977 0)
(0.339074 0.853445 3.24689e-20)
(0.282925 0.718151 0)
(0.904709 1.02338 -1.53882e-19)
(1.02535 0.833317 3.06104e-19)
(0.38332 1.3114 0)
(0.531114 1.26437 0)
(0.583449 1.19032 0)
(0.09985 0.179193 -2.97507e-19)
(0.254815 0.169225 0)
(0.224061 0.0767391 1.90291e-19)
(0.989041 0.88784 0)
(1.06429 0.73719 0)
(1.09351 0.672367 -2.40791e-19)
(1.13089 0.584654 0)
(1.18628 0.388965 4.5515e-20)
(0.957383 -0.00714578 0)
(0.962659 -0.00813743 0)
(0.900797 -0.00735547 0)
(0.983912 -0.0081338 0)
(0.974391 -0.00805064 0)
(0.936504 -0.00655657 0)
(1.0002 0.00250252 0)
(1.00077 0.00124549 0)
(1 0.000765953 0)
(0.0431717 2.08629 4.1705e-19)
(0.145157 1.78384 0)
(0.0173288 2.20293 6.31703e-19)
(0.0522977 1.88984 -5.28738e-19)
(0.165169 1.09742 -2.86595e-19)
(0.0475164 0.963465 0)
(0.120064 0.958809 0)
(0.00806187 0.804505 0)
(0.0233863 0.576927 0)
(-0.00347401 2.25225 -6.18053e-22)
(0.0174222 2.02597 0)
(-0.00455077 2.25191 -2.17039e-20)
(0.00334402 2.0303 3.05892e-20)
(-0.000787239 0.772047 0)
(-0.00283967 0.760976 0)
(0.0102977 0.52674 0)
(-0.00594976 0.7492 0)
(0.00651671 0.465375 0)
(0.938482 0.0134886 0)
(0.854719 -0.0118977 0)
(0.927937 0.00461075 0)
(0.845344 -0.0128344 0)
(0.812189 -0.00224034 0)
(0.898368 0.0230208 0)
(0.872397 0.0285233 0)
(0.788299 -0.00537476 0)
(0.0104064 3.06718 -9.10785e-21)
(0.0149565 3.05934 0)
(0.0123685 2.97034 0)
(0.0075785 2.87657 0)
(0.898898 3.97941 0)
(1.1938 3.37467 9.41106e-19)
(0.0820251 3.09298 0)
(-0.0165152 2.9196 0)
(-0.00988845 1.39133 0)
(-0.0289221 1.69328 0)
(-0.0183319 1.52658 0)
(-0.0301249 2.5605 -1.18087e-20)
(-0.0135494 2.2497 0)
(-0.0192635 2.39759 0)
(0.000456082 1.95626 8.92717e-22)
(-0.00417534 2.24804 -1.46145e-20)
(-0.00512163 2.21228 -1.18957e-20)
(-0.00485526 1.94218 0)
(0.415191 0.119619 5.27736e-19)
(0.34375 -0.00732575 -5.17598e-19)
(0.233114 1.58556 0)
(0.286305 0.749574 -3.24343e-19)
(0.178912 1.68484 -1.07786e-18)
(0.241702 1.21436 1.07906e-18)
(0.901798 0.00602606 0)
(0.967146 0.0105598 0)
(0.974996 0.0098007 0)
(0.923088 0.00592241 0)
(-0.0129352 0.757961 0)
(-0.00372884 0.756792 0)
(-0.0038484 0.446688 0)
(0.173262 0.153405 6.07819e-19)
(0.135874 0.140307 -7.18378e-19)
(0.138715 0.0987804 0)
(1.10117 0.0885137 2.4642e-20)
(1.08494 0.0412003 0)
(1.01522 0.042972 0)
(0.910746 -0.00223562 0)
(0.452853 0.096654 0)
(0.516413 0.0699374 -2.3929e-18)
(0.382916 -0.0100278 9.00188e-19)
(0.0106833 2.97693 8.07537e-19)
(-0.0333848 2.86142 4.53433e-20)
(0.0082061 3.05308 -1.92066e-20)
(0.0158745 3.04328 7.18671e-19)
(-0.0118739 2.99999 3.18243e-20)
(-0.0122694 2.95233 -1.2837e-22)
(-0.0150704 3.01324 -5.93744e-19)
(0.0145128 3.02641 4.18721e-19)
(0.00760917 3.03498 -6.80517e-19)
(0.934255 0.00193847 0)
(0.939191 -0.00125551 0)
(0.847542 -0.0111393 0)
(0.956475 0.0116213 0)
(0.942635 0.0130862 0)
(0.881809 0.00563372 0)
(0.91606 0.0183188 0)
(0.925524 0.0150768 0)
(0.83819 0.00151665 0)
(0.674665 1.41902 1.50254e-20)
(0.692769 1.52975 0)
(0.121223 0.303308 6.87704e-20)
(0.205825 0.646235 5.44977e-19)
(0.238479 0.692986 -3.19185e-19)
(0.219692 0.511852 6.32644e-19)
(0.333709 0.819476 1.57413e-18)
(0.129705 0.231587 3.78043e-19)
(0.317174 0.172887 7.17939e-19)
(0.282728 0.17905 1.85925e-19)
(0.242493 0.0560374 3.55682e-19)
(1.18002 0.439505 8.08837e-20)
(1.20778 0.243197 7.93678e-20)
(0.00749371 2.24484 2.46238e-19)
(0.0383604 1.95103 0)
(0.970603 0.0325615 0)
(0.945223 0.0188928 0)
(0.868868 -0.0155275 0)
(0.0121547 3.07453 0)
(0.0167579 2.94394 1.27396e-18)
(0.013933 2.95683 0)
(0.00587608 2.85013 -1.26422e-18)
(0.00957349 3.08965 3.11456e-19)
(0.0116886 3.08364 0)
(0.713422 1.82683 -1.71907e-19)
(1.2384 2.63254 5.81294e-19)
(0.698205 2.00508 -1.40242e-18)
(0.0223621 2.97589 -7.06032e-19)
(0.0409179 2.9987 0)
(-0.0383067 2.87924 0)
(-0.00553963 2.23095 -1.28856e-20)
(-0.00401565 2.25229 2.54421e-20)
(0.000702091 1.99139 -7.43505e-21)
(0.264655 1.39495 1.03843e-18)
(0.278238 0.549242 -7.1361e-19)
(0.0718345 2.00158 7.57439e-19)
(0.120363 1.87334 -9.1385e-19)
(0.206569 1.53012 1.05111e-19)
(0.00511026 3.12035 -1.89714e-18)
(0.0150376 3.12042 2.08455e-18)
(-0.00514555 2.98081 8.65173e-19)
(-0.00108344 2.97503 -8.30912e-19)
(-0.0177151 2.87749 -8.81211e-19)
(0.0118701 3.10083 -2.31672e-18)
(0.00560635 3.1055 2.32485e-18)
(0.258279 0.689617 0)
(0.210942 0.653489 -1.15529e-18)
(0.0710081 0.213243 5.07996e-19)
(0.342786 0.937177 1.12063e-18)
(0.19455 0.274299 -1.72575e-18)
(1.18944 0.173514 5.14935e-20)
(1.2045 0.301067 0)
(1.18502 0.119696 4.35741e-21)
(-0.00173031 2.26151 -1.35856e-21)
(0.00251543 2.24868 0)
(0.0289979 1.98595 0)
(0.313671 1.31446 -3.7048e-19)
(0.352748 1.16399 -8.02668e-19)
(0.226334 0.383777 1.43314e-18)
(1.00643 -0.0096994 0)
(1.00774 -0.00779589 4.87442e-19)
(-0.029871 1.3211 0)
(-0.0360914 1.32614 0)
(1.00245 0.00328822 1.36039e-21)
(1.00321 0.00782899 1.00055e-18)
(-0.0213398 2.54574 1.49585e-20)
(-0.0252444 2.58863 0)
(0.0414216 3.17266 5.06985e-19)
(0.376427 3.54657 0)
(1.14898 0.686225 -5.61821e-20)
(1.01189 0.0107262 -2.81168e-21)
(1.02081 -0.0090772 0)
(1.00159 0.000260713 1.56142e-22)
(0.107094 1.36486 0)
(0.142488 2.59275 0)
(0.0224987 1.31573 0)
(-0.0033499 2.63649 1.33552e-20)
(-0.0224019 2.5854 2.52715e-21)
(0.997627 0.0274811 2.69035e-21)
(1.06258 0.00557763 0)
(1.09903 0.027947 0)
(-0.0280724 1.73826 0)
(-0.0171556 2.58736 0)
(-0.00578479 1.31556 0)
(0.298048 1.48365 -1.74403e-19)
(1.0115 -0.00907719 0)
(1.0097 -0.0129993 0)
(1.00229 0.000951706 6.24757e-19)
(1.00548 -0.00492686 -7.35818e-19)
(1.00113 -0.000871525 0)
(-0.0141233 1.45849 0)
(-0.00662177 1.37405 0)
(-0.0101438 1.41762 0)
(-0.010061 1.30331 0)
(-0.0210263 1.29332 0)
(-0.0111861 1.27498 0)
(1.0355 -0.00444239 0)
(1.01909 0.0150161 -8.9395e-22)
(0.806 1.30107 2.72889e-19)
(1.00238 0.000373924 -6.23399e-19)
(1.00338 0.00447159 7.44542e-19)
(1.00128 0.00210469 0)
(1.01121 0.00966062 6.21291e-19)
(1.00692 0.00750587 -7.56196e-19)
(1.00721 0.0111822 0)
(-0.0223708 2.61599 0)
(-0.0255247 2.59614 -2.43876e-20)
(-0.0225827 2.60981 1.71097e-20)
(1.23796 0.270133 5.37875e-19)
(1.16198 0.087996 0)
(0.0447102 3.09067 -9.98439e-19)
(0.0512525 2.87257 -7.06005e-20)
(0.103654 3.20126 1.33704e-18)
(0.122382 3.21359 -2.90312e-19)
(0.143492 3.25894 0)
(0.0231935 3.1377 2.75166e-19)
(0.0616436 3.16184 9.9462e-19)
(0.0620644 3.17868 -5.14391e-19)
(0.0272906 3.12933 0)
(0.60635 0.286675 0)
(0.547501 0.316754 0)
(1.12967 0.717523 1.30962e-19)
(1.09676 0.852566 -1.19464e-19)
(1.18877 0.604721 0)
(1.21772 0.538338 0)
(1.01578 0.012038 -1.15425e-18)
(1.01474 0.0127955 1.45125e-18)
(1.02563 -0.00877792 0)
(1.02396 -0.0103433 0)
(1.00668 0.00302847 0)
(1.01092 0.00419937 0)
(1.00431 0.00219191 0)
(1.00947 0.00640605 0)
(1.00692 0.00505362 0)
(1.00448 0.0053074 0)
(0.0965254 1.36241 0)
(0.0797686 1.33618 0)
(0.131665 1.40992 0)
(0.135141 1.4072 0)
(0.14889 2.61655 0)
(0.189712 2.68358 -4.15997e-19)
(0.109049 2.67802 0)
(0.0816246 2.67659 1.69065e-19)
(0.0273547 2.6808 -1.66868e-19)
(0.0158575 1.32198 0)
(0.0168333 1.25334 0)
(0.0168288 1.33678 0)
(0.0336534 1.28243 0)
(-0.00152555 1.99267 1.61418e-20)
(-0.0220828 2.61341 -2.11354e-20)
(-0.0100489 2.67867 -6.28899e-21)
(-0.0206915 2.69093 0)
(-0.023624 2.62005 -2.71202e-22)
(-0.0223171 2.61547 2.07182e-20)
(0.00636733 1.99088 -1.0834e-20)
(-0.00965598 2.40672 2.83561e-20)
(-0.0150403 2.42893 7.12994e-21)
(1.00947 0.0389744 1.17161e-18)
(1.00509 0.0175826 -1.45924e-18)
(1.00248 0.0448595 -1.19853e-18)
(0.974881 0.0317503 1.50943e-18)
(1.0642 0.0088404 0)
(1.04955 -0.00660001 0)
(1.09191 0.0364972 0)
(1.07516 0.0144322 0)
(1.07383 0.000477736 0)
(1.14028 0.077529 0)
(1.11429 0.0447365 0)
(1.11688 0.0369236 0)
(-0.0255938 2.43811 2.26842e-21)
(-0.0153636 2.01769 0)
(-0.016356 2.22127 0)
(-0.0194295 2.60803 -1.26609e-20)
(-0.0168104 2.61842 3.6049e-22)
(0.00314859 1.57594 -4.44826e-20)
(-0.00475647 1.50133 4.54198e-20)
(-0.0165545 1.39176 0)
(-0.0206386 1.39773 0)
(-0.0266593 1.39149 0)
(-0.00402793 1.31769 0)
(0.00739635 1.24483 0)
(0.378147 1.50592 2.90011e-19)
(0.426392 1.51032 1.52246e-19)
(0.597009 2.47076 -2.52866e-19)
(0.388251 2.56008 7.23386e-19)
(0.352683 2.06348 6.92152e-20)
(1.02063 -0.00805006 0)
(1.01576 -0.00939041 0)
(1.01482 -0.0132425 0)
(1.00767 -0.000614293 0)
(1.0049 -0.000652684 0)
(1.00798 -0.00452498 0)
(1.00953 -0.00349999 0)
(1.01461 -0.00435783 0)
(1.01985 0.0160502 1.13277e-18)
(1.01742 0.0147395 -1.43255e-18)
(1.02025 0.0182793 -1.14246e-18)
(1.01791 0.0167739 1.4266e-18)
(0.760727 1.34805 0)
(0.70044 1.38226 2.38699e-19)
(0.868472 1.22898 9.36458e-20)
(0.905099 1.18775 -1.24285e-19)
(1.16695 2.61857 2.81605e-19)
(0.766843 0.123621 5.84983e-19)
(1.16959 0.104944 0)
(1.21056 0.197785 -4.35944e-19)
(1.19143 0.153395 -1.81131e-20)
(1.01475 0.162944 0)
(0.0802784 3.02072 3.58463e-19)
(0.0844773 2.90407 -1.18149e-18)
(0.0299803 2.36318 7.48965e-19)
(0.135505 -0.169678 -3.54715e-19)
(0.344411 3.44985 -2.46062e-19)
(0.194371 3.34255 0)
(0.225279 3.40053 3.20525e-19)
(0.225019 3.07906 -1.2438e-18)
(0.258304 3.1987 0)
(0.00657122 3.12251 5.15939e-20)
(0.0166781 3.13133 -5.94349e-19)
(0.015745 3.12708 8.74771e-19)
(0.0333396 3.14015 0)
(0.0314426 3.14959 0)
(1.26164 2.58392 0)
(0.532231 0.801536 -5.27364e-19)
(1.01739 1.02444 -4.39238e-21)
(0.982171 1.07653 0)
(0.851435 0.962361 -1.09601e-19)
(1.07411 0.901411 2.67761e-20)
(0.378384 0.342015 -8.70971e-19)
(0.676613 0.310263 -2.27697e-20)
(0.60436 0.220534 4.02154e-19)
(0.572545 0.342415 2.97166e-20)
(0.473835 0.309857 -1.19343e-18)
(0.637149 0.316288 0)
(0.695963 0.414208 6.74548e-19)
(0.698614 0.42013 0)
(0.609383 0.337082 0)
(0.547959 0.263462 0)
(0.78659 0.648033 3.99516e-19)
(1.24744 0.301583 -4.39407e-19)
(1.23853 0.433605 0)
(1.24109 0.389822 0)
(0.713765 0.184344 6.06571e-19)
(0.836292 0.547903 -3.788e-19)
(0.756831 0.510427 6.74361e-19)
(0.957241 0.437472 -6.91729e-19)
(1.01859 0.0145871 7.67798e-19)
(1.0172 0.0136076 -7.75966e-19)
(1.01606 0.0141938 0)
(1.03686 -0.00465609 0)
(1.03031 -0.0077644 -7.27886e-19)
(1.02848 -0.0106564 7.20359e-19)
(1.02476 0.0107224 0)
(1.0228 0.01478 0)
(1.01265 0.00459422 0)
(1.01455 0.00910173 0)
(1.01624 0.00411234 0)
(1.01548 0.00285418 0)
(0.0643605 1.35454 0)
(0.0651823 1.31632 0)
(0.141722 1.40597 5.08199e-20)
(0.271436 1.47679 8.31205e-20)
(0.163794 1.44755 1.81783e-19)
(0.190973 1.45225 -2.95454e-19)
(0.149642 1.41481 0)
(0.13502 1.58519 -8.34087e-20)
(0.136314 1.57646 0)
(0.354369 2.02013 -1.0074e-19)
(0.319355 2.35456 6.22862e-19)
(0.194542 1.4592 7.26965e-20)
(0.267749 1.38421 2.33258e-20)
(0.199568 1.38221 -1.90148e-20)
(0.281724 1.32405 -8.72682e-20)
(0.249381 1.58069 0)
(0.262554 1.62787 9.59865e-20)
(0.0250572 2.27041 -1.58794e-20)
(0.0352277 2.67564 0)
(0.0650416 2.41444 9.37607e-20)
(0.0601143 2.43601 0)
(0.0673411 2.6945 -1.87693e-19)
(0.0409988 2.7092 0)
(0.0227923 1.43092 4.30977e-20)
(0.0331842 1.48951 0)
(0.0290811 1.39416 0)
(0.0195607 1.39692 -4.98792e-20)
(-0.00120792 2.66375 -2.00977e-21)
(0.0225546 2.69855 1.90486e-19)
(0.00632302 2.73367 1.083e-21)
(-0.000911727 1.83889 -8.62043e-21)
(-0.00520815 1.69061 -8.2335e-21)
(0.0113272 1.30528 0)
(0.0156629 1.23115 0)
(0.0352578 1.58316 -1.46931e-20)
(0.035154 1.45956 -3.53636e-20)
(0.0305477 1.53091 3.97786e-20)
(0.0412761 1.61018 0)
(-0.028383 2.27196 9.2188e-20)
(-0.0305104 2.55488 -3.88973e-20)
(-0.0181509 2.45281 5.08976e-21)
(-0.00592193 1.8565 1.04543e-20)
(-0.0267969 2.50788 5.7279e-21)
(-0.0229283 2.44845 -4.28044e-21)
(1.01809 0.0214546 -7.7383e-19)
(1.0141 0.0276623 7.78679e-19)
(1.01293 0.016689 0)
(1.0121 0.0699955 1.06614e-18)
(0.990545 0.0568817 -1.22978e-18)
(0.950305 0.0535018 1.3765e-18)
(1.01338 0.115511 -1.44905e-19)
(1.04371 -0.00482099 0)
(1.05185 -0.000650632 6.97284e-19)
(1.04006 -0.0082521 -6.96898e-19)
(1.07169 0.0426744 -4.136e-20)
(1.06463 0.0282136 3.57131e-19)
(1.06437 0.0643581 0)
(1.05404 0.0536095 -1.28612e-19)
(1.03229 0.0440524 0)
(1.02533 0.0393148 0)
(1.02765 0.0134972 0)
(1.02399 0.0159913 0)
(1.04059 0.0331731 2.64394e-19)
(1.03932 0.0284175 -5.85284e-19)
(1.05275 0.0378958 -2.79771e-19)
(1.04818 0.0378365 -3.08718e-19)
(1.07754 0.068905 5.90687e-19)
(1.10104 0.0546709 0)
(1.10798 0.0930162 0)
(-0.0249869 2.27926 5.97731e-20)
(-0.0255152 2.02476 2.25881e-21)
(-0.0211508 2.03381 0)
(-0.0273308 2.45017 -5.95207e-20)
(-0.0241109 2.40814 -4.43107e-21)
(-0.0313556 2.47926 7.25308e-21)
(-0.0209588 2.62804 -1.75044e-20)
(-0.0243634 2.57053 6.70197e-22)
(-0.0232414 2.52311 -6.10134e-21)
(-0.0160806 2.62173 1.3678e-20)
(-0.0205331 2.62364 -1.52817e-20)
(-0.00676743 1.4938 -1.38512e-22)
(6.15246e-05 1.62494 -4.0414e-20)
(0.365611 1.44332 -1.24079e-19)
(0.364664 1.3729 1.68715e-20)
(0.642057 1.43115 -2.313e-19)
(0.517451 1.5029 -1.4832e-19)
(0.572402 1.46168 0)
(0.609322 2.42994 2.17049e-19)
(0.668164 2.43696 3.39846e-19)
(0.420358 2.52246 8.67526e-20)
(0.403256 2.55253 -6.2041e-19)
(0.50341 2.49354 5.75093e-19)
(0.547357 2.48556 0)
(0.48815 2.53271 -5.59406e-19)
(0.25627 2.60762 1.13701e-18)
(0.366218 2.57022 -7.44091e-20)
(0.287536 2.66629 -1.60559e-18)
(0.968244 2.39629 7.16229e-19)
(0.848917 2.39744 0)
(1.01146 0.00134347 2.53291e-20)
(1.01533 -0.00525217 -2.06792e-20)
(1.0177 -0.00403465 -3.78081e-19)
(1.01554 -0.00111159 3.76689e-19)
(1.01308 0.00178284 0)
(0.630125 1.29954 0)
(0.674226 1.18798 0)
(0.788512 1.10958 0)
(0.661937 1.14249 0)
(1.19756 2.6344 5.09591e-20)
(1.09048 2.38544 0)
(0.823045 2.1844 3.53258e-21)
(0.824515 2.44563 0)
(0.91848 2.53433 -4.32646e-19)
(0.950255 2.48381 2.8894e-19)
(0.791904 0.159986 0)
(0.748781 0.137836 1.58954e-19)
(0.915879 0.156489 9.24361e-19)
(0.824162 0.135989 -3.47551e-19)
(0.774957 0.0843789 -1.06581e-18)
(1.08648 0.240258 -8.50898e-19)
(0.987198 0.307423 -8.62262e-21)
(0.928585 0.341442 8.27831e-19)
(1.01821 0.252927 6.97674e-19)
(0.936827 0.199189 -1.22168e-18)
(0.894796 0.211922 1.53341e-19)
(0.933213 0.303464 -3.20062e-19)
(0.909976 0.216236 0)
(1.00083 0.202293 5.98137e-19)
(1.05671 0.2138 0)
(1.05103 0.223659 0)
(1.12401 0.12198 2.70502e-19)
(1.06514 0.18974 -1.05616e-20)
(1.07921 0.241857 -1.54434e-19)
(1.11379 0.207291 0)
(1.02329 0.0483427 5.9902e-19)
(1.03824 0.0624848 7.44734e-19)
(1.03273 0.046214 -5.94249e-19)
(1.04219 0.0683988 -4.99317e-19)
(1.01483 0.0743011 -7.54988e-19)
(0.989309 0.167381 0)
(0.992219 0.107575 0)
(0.961005 0.0671422 -4.8851e-19)
(0.905385 0.0990402 1.92959e-19)
(1.03973 0.115072 6.89899e-19)
(1.07564 0.134111 -7.91778e-19)
(1.06949 0.176345 7.11313e-19)
(1.03641 0.15343 0)
(1.08561 0.11974 0)
(1.05756 0.109927 -3.24359e-19)
(1.04415 0.106651 -5.61181e-19)
(0.591606 1.10118 1.15717e-19)
(0.620831 1.42056 -2.0891e-20)
(1.14738 2.72606 -2.45447e-19)
(1.19977 3.1089 2.52156e-21)
(1.2559 2.73521 -1.29228e-19)
(1.29647 2.70654 2.00896e-20)
(1.27247 2.33013 -3.75828e-20)
(1.18767 3.01478 -7.31047e-20)
(1.20682 2.97178 2.22468e-19)
(1.18172 3.2628 -1.23198e-19)
(1.40037 2.97858 1.52996e-19)
(1.41218 2.91636 0)
(0.566951 0.825094 -4.77565e-20)
(0.222725 1.21642 4.84063e-19)
(0.506409 0.399329 5.57572e-19)
(0.387817 0.160199 6.38195e-19)
(0.509472 0.340446 6.74067e-19)
(0.54568 0.441463 -1.09042e-18)
(0.550347 0.433988 8.95201e-19)
(0.490673 0.353488 -3.39955e-19)
(0.395919 0.291603 7.70075e-19)
(0.738822 0.245567 -3.48788e-19)
(0.700322 0.273349 0)
(0.65347 0.195422 7.98134e-21)
(0.737189 0.502166 3.66983e-19)
(0.701297 0.474501 -1.33413e-18)
(0.630205 0.44557 1.88212e-20)
(0.628922 0.421704 0)
(0.707848 0.714985 3.78402e-19)
(0.826328 0.794144 4.1806e-19)
(0.761864 0.84384 -4.87114e-19)
(0.894526 0.815585 -1.55969e-19)
(0.92874 0.857476 -3.69781e-20)
(0.936479 0.865172 3.79248e-20)
(0.874703 0.672858 -6.7973e-19)
(0.945747 0.719325 1.45014e-19)
(0.9983 0.723184 0)
(0.995922 0.698943 -1.87706e-19)
(1.03027 0.331118 2.16161e-19)
(1.1549 0.331537 2.62881e-19)
(1.07144 0.278332 3.48225e-19)
(0.9935 0.375401 -4.28777e-19)
(1.04837 0.478751 0)
(1.1324 0.420706 0)
(0.89698 0.414881 1.6505e-21)
(0.847186 0.303244 0)
(0.888326 0.292827 3.92724e-19)
(0.908361 0.338056 6.38481e-21)
(0.973725 0.483459 1.93601e-18)
(0.904579 0.543318 4.98515e-19)
(0.926122 0.49619 -5.31244e-19)
(0.847457 0.474743 5.65184e-19)
(0.81836 0.44974 3.55209e-19)
(0.794507 0.419158 -3.48302e-19)
(1.02808 -0.000399302 6.24851e-19)
(1.02036 0.000427819 0)
(1.019 0.00127009 4.07666e-19)
(1.02253 -0.000896101 -9.22877e-19)
(1.02251 0.00443608 4.49604e-19)
(1.02007 0.0114604 -9.40917e-19)
(1.02084 0.0112289 0)
(1.01978 0.0119741 -1.95968e-19)
(1.0165 0.00769959 4.91114e-19)
(1.0167 0.010814 -2.46528e-19)
(1.01732 0.0104762 1.80419e-19)
(0.0284939 1.32848 0)
(0.0313458 1.36511 0)
(0.0445615 1.33538 0)
(0.048989 1.29096 0)
(0.0828412 1.38008 -4.22125e-20)
(0.0860903 1.35622 4.62303e-21)
(0.071473 1.55249 -6.53922e-23)
(0.091731 1.38361 -4.03743e-20)
(0.0395285 1.46934 3.32282e-20)
(0.0436033 1.46583 -2.64667e-20)
(0.0669447 1.37443 -2.67106e-20)
(0.0550846 1.37886 6.11247e-20)
(0.048266 1.35683 1.01325e-20)
(0.0400926 1.37987 5.83624e-21)
(0.103903 2.38434 -1.02237e-19)
(0.0930614 2.4294 0)
(0.140193 2.02689 9.91611e-20)
(0.117593 1.70212 3.53731e-20)
(0.226763 2.00858 -8.24864e-20)
(0.193864 2.44411 0)
(0.259909 2.37723 -6.45834e-19)
(0.315023 2.36856 4.56213e-19)
(0.246604 1.99521 -2.04332e-19)
(0.13332 2.16226 1.49234e-19)
(0.108185 2.28094 0)
(0.0176111 1.86663 -1.33367e-20)
(-0.00676441 2.39172 -3.37916e-20)
(0.00177395 2.14313 0)
(0.00415695 2.45407 -1.54863e-20)
(0.0263609 2.29722 1.70787e-20)
(0.0114835 1.41051 -7.96242e-21)
(0.0111117 1.39618 1.37443e-19)
(0.0106821 1.40193 -4.38532e-20)
(0.0163715 1.40306 -3.96619e-20)
(0.0218417 1.43414 0)
(0.00905405 1.38539 0)
(-0.000193956 1.29893 -5.17142e-20)
(0.00961791 1.37221 1.45482e-20)
(0.0112614 1.37346 0)
(0.00600037 1.29283 -3.89028e-20)
(0.0139038 1.22149 7.87148e-20)
(1.04223 0.0146431 0)
(1.04868 0.0101446 -6.52183e-20)
(1.03894 0.0237688 -4.71622e-19)
(1.04934 0.0227732 0)
(1.05438 0.0220746 0)
(1.03621 0.0126379 -6.76478e-21)
(1.03024 0.0129615 7.57834e-19)
(1.03188 0.0170541 9.20732e-19)
(1.0256 0.0208126 0)
(1.02199 0.0213675 0)
(1.03545 0.0256036 4.70421e-19)
(1.02546 0.0277055 0)
(1.0234 0.0278558 0)
(-0.0196014 2.02643 0)
(-0.00448239 1.65239 -1.41596e-21)
(-0.00783945 1.75918 -2.70138e-20)
(0.000896384 1.3836 0)
(-0.00495382 1.55291 -1.98544e-20)
(-0.011923 1.46266 1.39252e-20)
(-0.00530436 1.3969 0)
(0.407583 1.64823 0)
(0.361359 1.31206 -2.47281e-20)
(0.27832 1.34815 0)
(0.431295 1.31665 -4.29289e-20)
(0.464343 1.46862 0)
(0.450662 1.41286 4.28154e-20)
(1.04075 2.68089 -1.52833e-20)
(0.983255 2.41605 -9.00022e-19)
(0.94439 2.21184 1.01929e-18)
(0.865051 2.38981 2.41017e-19)
(0.854629 2.49806 0)
(0.922341 2.4943 0)
(0.952085 2.38971 0)
(0.928557 2.37922 -9.33781e-19)
(0.694569 2.46566 -3.79135e-19)
(0.803053 2.44933 -9.76088e-20)
(0.810513 2.42755 7.35856e-20)
(0.705677 2.409 0)
(0.809837 2.40311 0)
(0.771249 2.41904 -3.66964e-19)
(0.767961 2.4773 0)
(0.626121 1.07125 0)
(0.519308 0.876009 -5.48317e-19)
(0.523721 0.943604 -3.17096e-20)
(0.507081 1.08556 0)
(0.492902 0.995309 8.40366e-19)
(0.793218 0.883612 -1.34214e-19)
(0.798935 1.01483 0)
(0.778423 0.995587 1.86426e-19)
(0.669127 1.021 0)
(0.661992 0.930361 0)
(1.16525 2.76174 -2.20363e-19)
(1.14052 2.81999 -8.97225e-20)
(0.926572 2.34612 7.42723e-20)
(0.903025 2.32666 -7.58191e-20)
(1.13468 2.73992 0)
(1.08657 2.70823 9.11287e-20)
(1.1027 2.50278 -2.99272e-19)
(1.00391 2.26002 -2.86576e-20)
(0.503234 1.34856 0)
(0.522966 1.0909 -1.01993e-19)
(0.59222 1.18544 0)
(0.862299 0.224233 0)
(0.771375 0.175599 0)
(0.695864 0.140485 0)
(0.863071 0.223465 -6.04318e-19)
(0.760942 0.219518 3.63707e-19)
(0.922085 0.0817411 -4.00019e-19)
(0.939475 0.13275 0)
(0.911949 0.143389 1.72357e-19)
(0.849569 0.102137 6.9077e-19)
(0.809591 0.0690637 -4.32057e-19)
(1.1007 3.35554 -6.78696e-19)
(1.16705 3.27842 0)
(1.11951 3.44063 -1.57694e-18)
(0.659738 3.58598 1.31389e-18)
(1.03067 3.08328 1.21239e-19)
(0.530207 0.801045 5.70103e-19)
(0.514032 0.772378 0)
(0.365079 0.423359 -1.46432e-19)
(0.47102 0.646003 8.58445e-19)
(0.53323 0.400353 -1.9784e-19)
(0.512729 0.474598 2.30003e-19)
(0.682754 0.53062 4.76889e-19)
(0.72757 0.561902 0)
(0.649745 0.580055 0)
(0.623745 0.536325 0)
(1.00559 0.607118 9.46846e-20)
(0.958039 0.585926 -4.82369e-19)
(0.969857 0.60104 3.67049e-19)
(1.03405 0.538095 -3.57768e-19)
(1.0796 0.508875 0)
(1.08332 0.595755 -9.39056e-20)
(0.876615 0.407101 -7.90335e-19)
(0.867445 0.397146 -1.01296e-18)
(0.805682 0.390259 6.22888e-19)
(0.81017 0.352397 -6.45565e-19)
(0.852738 0.313361 -5.06132e-19)
(0.804002 0.313883 6.21246e-19)
(1.02657 0.00648568 -4.70564e-19)
(1.0262 0.00661043 9.48266e-19)
(1.02985 0.000753519 6.05582e-19)
(1.03403 0.0014409 -7.27213e-19)
(1.03375 0.0114581 0)
(1.0298 0.0116575 -1.18566e-18)
(0.0845992 1.65091 1.14393e-20)
(0.0534726 1.59336 0)
(0.0958216 1.70109 5.97109e-20)
(0.107892 1.67824 -5.28586e-20)
(0.0659259 1.55046 1.21151e-22)
(0.050693 1.54521 0)
(0.00372054 1.68923 0)
(-0.00543773 1.49799 9.91683e-21)
(-0.00640402 1.43949 -8.90154e-21)
(-0.00877833 1.54945 3.89263e-21)
(-0.00331522 1.88755 1.36987e-20)
(-0.0143459 1.94272 -4.63531e-21)
(0.496038 1.3756 -2.56134e-19)
(0.498176 1.37239 2.79985e-19)
(0.446752 1.30751 -8.41503e-21)
(0.429994 1.30179 7.53732e-21)
(0.620201 1.30522 0)
(0.548581 1.39973 1.16326e-19)
(0.54919 1.40143 -1.13311e-19)
(0.4808 1.29232 8.10504e-21)
(0.5225 1.25062 0)
(0.587446 1.21763 0)
(0.668658 2.42895 5.58226e-19)
(0.66359 2.45466 1.28087e-18)
(0.718971 2.47158 -8.80844e-19)
(0.619992 2.44445 -2.02301e-19)
(0.558817 2.5397 2.76085e-19)
(0.498917 2.50499 -7.1579e-19)
(0.992108 2.39387 -5.74118e-19)
(1.02579 2.41172 0)
(0.950414 2.19608 -6.31833e-19)
(1.05703 2.68915 0)
(1.05624 2.67138 0)
(0.610478 2.3016 2.12025e-20)
(1.12289 3.07606 8.77781e-20)
(1.00315 2.97567 -1.40162e-19)
(0.329888 0.830457 0)
(0.336712 0.724514 -3.03392e-19)
(0.535437 0.654156 -3.08906e-19)
(0.374631 2.1464 0)
(0.407224 2.74708 -8.53063e-20)
(0.41821 2.48412 0)
(0.715256 0.67768 -8.08193e-19)
(0.776715 0.680806 1.12923e-18)
(0.788965 0.650833 -1.06997e-18)
(0.688984 0.642045 -1.02736e-19)
(0.751096 0.599564 -4.22218e-19)
(0.976901 2.76077 -6.64884e-20)
(1.01646 2.76496 -2.05453e-19)
(0.562475 2.22394 4.1605e-19)
(0.612872 1.74526 -3.33184e-19)
(0.711345 1.86472 -4.88731e-19)
(0.981965 2.40107 -1.36752e-19)
(0.981002 2.35554 3.59868e-19)
(0.656645 1.77974 3.29235e-20)
(0.463471 1.31118 1.72714e-19)
)
;

boundaryField
{
    wall-4
    {
        type            noSlip;
    }
    velocity-inlet-5
    {
        type            fixedValue;
        value           uniform (1 0 0);
    }
    velocity-inlet-6
    {
        type            fixedValue;
        value           uniform (0 3 0);
    }
    pressure-outlet-7
    {
        type            zeroGradient;
    }
    wall-8
    {
        type            noSlip;
    }
    frontAndBackPlanes
    {
        type            empty;
    }
}


// ************************************************************************* //
