/*--------------------------------*- C++ -*----------------------------------*\
  =========                 |
  \\      /  F ield         | OpenFOAM: The Open Source CFD Toolbox
   \\    /   O peration     | Website:  https://openfoam.org
    \\  /    A nd           | Version:  6
     \\/     M anipulation  |
\*---------------------------------------------------------------------------*/
FoamFile
{
    version     2.0;
    format      ascii;
    class       volScalarField;
    location    "15";
    object      p;
}
// * * * * * * * * * * * * * * * * * * * * * * * * * * * * * * * * * * * * * //

dimensions      [0 2 -2 0 0 0 0];

internalField   nonuniform List<scalar> 
918
(
0.18259
0.948272
0.00691879
0.182098
0.000470455
0.91658
-0.847384
0.371582
0.1631
-0.229467
0.0162123
0.156318
0.773406
0.541108
-1.53512
0.0124278
0.32442
-0.725976
0.16068
0.00559005
0.437376
0.170427
0.172847
0.163514
0.220467
0.509715
0.650869
0.00164444
-0.00324734
-0.00262307
0.00272894
-0.00139487
0.00271911
0.799733
0.851664
0.874743
0.13472
-0.0375292
-0.728186
-0.792012
-0.767537
-0.902031
0.359449
0.362427
-0.530669
0.373469
0.387171
0.150123
0.162325
0.163143
0.165175
0.163528
0.165031
0.247379
-0.288655
-0.369745
-0.147122
-0.107126
0.0658148
0.0150727
0.00426962
0.0244507
0.0237086
0.0925407
0.152479
0.150344
0.163271
0.172241
0.888447
0.862122
0.888048
0.799296
0.816682
0.750332
0.723392
0.562989
0.586206
0.524436
0.514373
-2.00833
-2.9718
-0.944213
-0.655049
0.00187546
0.0185133
0.0231781
0.312031
0.31459
0.320709
0.334199
0.74954
-0.716008
-0.840072
0.160696
0.159406
0.169243
0.17042
0.165312
0.165506
0.0130428
0.0208984
-0.000846729
0.00360426
0.00373675
0.420845
0.42019
0.16321
0.160625
0.180824
0.204359
0.194755
-0.0709629
0.232965
0.249984
0.348816
0.51008
0.500162
0.511272
0.626245
0.593136
0.682683
0.703911
0.00771217
0.00198619
0.00926568
0.0067514
0.00914942
0.129166
0.122639
0.144089
0.135996
0.137604
-0.12669
-0.274992
0.0357612
0.0510148
-0.645826
-0.694466
-0.787
-0.814773
-0.876284
0.133512
0.349136
0.352763
-0.539025
-0.464696
-0.600655
-0.403545
-0.469889
0.141057
0.148057
0.144531
0.157907
0.152354
0.154133
0.166406
0.163486
0.165161
0.28194
0.365407
0.18728
0.181829
-0.605584
-0.447653
-0.555389
-0.0611393
-0.0463845
0.0749528
0.0848331
0.0580478
0.0540593
-0.0127239
0.00617141
-0.00354012
0.0234872
0.0240429
0.0859514
0.0745557
0.101009
0.106695
0.145025
0.14497
0.146719
0.146957
0.67446
0.696622
0.703542
0.680276
-3.96592
-6.62889
-0.295631
-0.128181
0.00185965
0.0030007
0.00104617
0.00166599
0.00365839
0.0014077
0.0320265
0.0320051
0.0275049
0.0316788
0.299215
0.303027
0.709109
0.702544
0.686948
0.655275
0.150251
0.151843
0.157044
0.153152
0.0232811
0.0227975
0.0248456
0.385955
0.404402
0.400465
-0.107171
-0.196535
-0.0226288
0.00626366
0.288743
0.267193
0.288745
0.410558
0.450691
0.719704
0.744712
0.728531
0.741837
0.792981
0.815916
0.780907
0.110632
0.119567
0.114632
0.149174
0.146373
0.146915
0.144663
0.143954
0.141517
-0.3885
-0.763424
0.0886119
0.0916389
0.0781974
0.0771553
0.220995
0.326897
0.326447
0.338929
0.336381
-0.356086
-0.406894
0.158164
0.145017
0.0320639
0.0611469
0.0466434
0.650374
0.611481
0.65909
0.634518
0.59996
0.623086
-0.699292
-2.49056
-1.46819
0.287946
0.082511
0.177697
0.0507321
0.0347019
0.044522
0.676999
0.726144
0.441822
0.574309
0.549767
0.480703
0.51008
0.566298
0.496303
0.531241
0.566498
0.544855
0.0969934
0.0913343
0.0820389
0.41399
0.474604
-0.231919
-0.295523
-0.332681
0.0932285
0.12439
0.118917
0.694862
0.543879
0.643678
0.161819
0.162028
0.0116682
0.0210977
0.164861
0.1647
0.0056845
0.00780585
0.193929
-1.32444
-0.210971
0.155093
0.145677
0.160939
-0.278936
0.286949
0.0138222
0.0791126
0.0544521
0.153943
0.102742
0.0652009
0.00716879
0.0179464
0.0138187
-0.521887
0.159429
0.15716
0.160467
0.161677
0.162564
0.00856768
0.0104303
0.00719866
0.0118603
0.010512
0.00843523
0.129506
0.142527
-0.513624
0.160564
0.162604
0.162375
0.156741
0.161179
0.159386
0.0146272
0.00980728
0.0092065
-0.126907
0.000229181
0.39684
0.487837
0.331459
0.155734
-0.149357
0.321576
0.3814
0.296335
0.441217
0.331262
0.349671
-0.154804
-0.301075
-0.155338
-0.21619
0.15242
0.150675
0.142618
0.139975
0.155803
0.153683
0.15851
0.15617
0.158897
0.159975
-0.188079
-0.127348
-0.342211
-0.415811
0.250721
0.394115
0.192468
0.179765
0.122624
0.0183256
0.0213649
0.0132161
0.0118113
0.0430309
0.0559244
0.0743659
0.0583734
0.0492207
0.0384482
0.0423869
0.0496474
0.0525971
0.148766
0.146054
0.152354
0.160057
0.110443
0.111883
0.0845201
0.0993884
0.0908274
0.0365985
0.0660476
0.0450709
0.0074334
0.00766962
0.00532511
0.0217571
0.0264194
0.0134758
0.0108671
0.013707
0.0106345
0.0100116
0.0166535
0.0207555
-0.524351
-0.599269
0.637049
0.574901
-0.531108
0.148917
0.15288
0.150419
0.155424
0.158362
0.158911
0.157003
0.154039
0.143341
0.145913
0.140299
0.141941
-0.457516
-0.580582
-0.40928
-0.481177
-0.204427
0.274202
0.00835712
-0.0440649
-0.0543754
0.15745
0.335507
0.303489
0.414319
0.416331
-0.759583
-0.329316
-0.677093
-0.132529
-0.144453
0.415514
0.462235
0.483461
0.43723
0.388492
-0.381844
0.157179
-0.38517
-0.354604
-0.177856
-0.267411
0.377625
0.311943
0.320799
0.338074
0.36441
0.32681
0.310041
0.304659
0.333061
0.340426
0.142989
-0.0877892
-0.12506
-0.16793
0.29687
0.18105
0.234423
0.144448
0.147069
0.149946
0.149436
0.134333
0.138533
0.135007
0.140806
0.143696
0.150959
0.151713
0.147442
0.149144
-0.0839114
-0.0542806
-0.315844
-0.510009
-0.450958
-0.51911
-0.444261
-0.365565
-0.216958
-0.432541
-0.0415989
-0.541164
-0.577782
-0.542275
-0.609087
-0.455365
-0.511859
0.0781323
0.141612
0.121264
0.145976
0.167936
0.166819
0.0299359
0.034095
0.0123943
0.0197154
0.0743613
0.0808668
0.0911949
0.0366586
0.0371711
0.0222562
0.0222176
0.0292561
0.0141041
0.0241709
0.0317928
0.0197845
0.0223522
0.0263927
0.0290684
0.034756
0.0377946
0.141316
0.143507
0.142396
0.156214
0.164702
0.178657
0.152621
0.128091
0.119565
0.121856
0.100515
0.10608
0.105418
0.115474
0.133174
0.14003
0.138096
0.139569
0.1273
0.128548
0.113284
0.118064
0.0998482
0.0843889
0.0734472
0.0165101
0.0105308
0.0135807
0.0141566
0.01027
0.0118135
0.0371629
0.030015
0.0341526
0.0299615
0.0331508
0.0172534
0.0170848
-0.511269
-0.509
-0.555152
-0.569543
-0.637023
0.509596
0.626719
0.445708
0.217041
0.186988
0.453836
0.606636
0.324142
0.384086
0.478397
0.0917163
0.42227
0.153081
0.153
0.150819
0.149652
0.150787
-0.377336
-0.282413
-0.257249
-0.21145
-0.0894756
0.0110748
-0.0679284
-0.160601
-0.0239896
0.028317
0.271652
0.286008
0.225495
0.2519
0.250937
0.0763866
0.155055
0.1984
0.150058
0.205418
0.234844
0.191254
0.226041
0.16069
0.120571
0.115057
0.0618065
0.0946567
0.0748363
0.0509045
0.143261
0.124445
0.133233
0.125386
0.143923
0.17532
0.170159
0.189046
0.207113
0.131772
0.0877637
0.10254
0.128084
0.087563
0.101075
0.117789
-0.193432
-0.289525
-0.157497
-0.461182
-0.355107
-0.319518
-0.357126
-0.431207
-0.132135
-0.75505
-0.683667
-1.36999
0.0963995
0.506312
0.339707
0.353701
0.361435
0.337115
0.343782
0.368195
0.379604
0.28633
0.303669
0.305786
0.264748
0.297501
0.308107
0.312232
0.125254
0.0553965
0.0336424
-0.00439562
-0.140081
-0.104896
0.0715298
0.0114684
-0.0555154
-0.0513237
0.113479
-4.54187e-05
0.0651631
0.106231
0.0550124
-0.00575845
0.198568
0.257406
0.244901
0.217017
0.134042
0.152479
0.172228
0.208972
0.235951
0.268653
0.141193
0.144692
0.14588
0.144382
0.140325
0.143707
0.14454
0.145811
0.146263
0.148914
0.148281
0.00631875
0.000553649
-0.0293731
-0.00465165
-0.149453
-0.179272
-0.190562
-0.202557
0.00577779
-0.0149689
-0.0989413
-0.0591147
-0.0290984
-0.0131189
0.0400426
0.0508636
-0.0640655
-0.0907928
-0.198041
0.0538627
0.112569
-0.0250588
-0.223364
-0.120443
-0.0253187
0.0452567
0.0656047
0.0585885
0.05894
0.0583822
0.0283126
0.0249942
0.0256241
0.0298653
0.0291685
0.0236179
0.0221352
0.0233961
0.0238832
0.0230379
0.0226792
0.128036
0.121674
0.124148
0.11842
0.117725
0.129996
0.133736
0.13505
0.139249
0.141217
0.133553
0.137407
0.140613
0.0256619
0.020664
0.0224131
0.022479
0.021143
0.0195533
0.0195132
-0.160641
-0.462747
-0.434321
-0.42931
-0.504727
-0.46861
0.136084
0.046134
0.082039
0.280648
0.14829
0.0214675
0.080159
0.215891
-0.0162473
0.121972
-0.0119072
0.482591
0.359569
0.502777
0.173787
-0.130379
0.00514311
0.0260939
-0.126667
-0.0334055
-0.0310304
-0.151721
-0.114465
-0.091949
-0.0175721
-0.124113
-0.15646
-0.390708
-0.224623
-0.094713
-0.111313
0.0148041
0.0634329
-0.11631
-0.208147
-0.254803
0.254868
0.278143
0.292044
0.260762
0.283957
0.213005
0.202576
0.219956
0.231629
0.224823
-1.01596
-0.607102
-1.82019
-1.24761
-0.78356
0.128673
0.107081
0.35574
0.267439
0.344959
0.33042
0.27775
0.243291
0.256826
0.292185
-0.00286513
0.102151
0.0635041
0.0867784
0.0151366
-0.0614958
0.221989
0.223004
0.248777
0.274784
0.248041
0.276816
0.136789
0.137106
0.139499
0.137049
0.133668
0.135372
0.0104858
0.0139621
-0.0480015
-0.0772266
-0.0986941
-0.0611861
0.0288245
0.0272835
0.0238583
0.0238135
0.0280767
0.0303836
-0.173767
-0.230324
-0.370251
-0.257957
-0.374509
-0.451351
-0.466739
-0.38437
-0.273846
-0.281525
-0.00391526
0.274368
0.113932
0.228489
-0.0844832
0.063116
0.088479
0.0639456
0.0893788
-0.00163369
0.0957396
-0.391009
-0.565505
-0.6363
0.422409
0.375428
0.172093
-0.0943119
-0.182816
0.121729
0.15972
0.128156
0.161151
0.209242
0.203737
-0.38346
-0.287226
-0.227298
0.0817901
-0.154676
-0.124815
-0.139532
0.0190117
-0.0320841
)
;

boundaryField
{
    wall-4
    {
        type            zeroGradient;
    }
    velocity-inlet-5
    {
        type            zeroGradient;
    }
    velocity-inlet-6
    {
        type            zeroGradient;
    }
    pressure-outlet-7
    {
        type            fixedValue;
        value           uniform 0;
    }
    wall-8
    {
        type            zeroGradient;
    }
    frontAndBackPlanes
    {
        type            empty;
    }
}


// ************************************************************************* //
