/*--------------------------------*- C++ -*----------------------------------*\
  =========                 |
  \\      /  F ield         | OpenFOAM: The Open Source CFD Toolbox
   \\    /   O peration     | Website:  https://openfoam.org
    \\  /    A nd           | Version:  6
     \\/     M anipulation  |
\*---------------------------------------------------------------------------*/
FoamFile
{
    version     2.0;
    format      ascii;
    class       volVectorField;
    location    "15";
    object      U;
}
// * * * * * * * * * * * * * * * * * * * * * * * * * * * * * * * * * * * * * //

dimensions      [0 1 -1 0 0 0 0];

internalField   nonuniform List<vector> 
918
(
(0.98511 -0.00061292 0)
(0.00529057 2.96628 0)
(-0.00549034 1.63322 0)
(0.979705 0.00181468 0)
(-0.000462185 1.59278 5.36735e-22)
(-0.00703647 2.94853 -1.94926e-18)
(0.85218 1.15414 7.52788e-19)
(0.486898 0.214091 -8.1193e-21)
(0.999917 -0.000364312 0)
(0.023521 1.06314 0)
(-0.00395681 1.30827 0)
(0.811766 -0.0075452 0)
(0.0101414 2.93142 0)
(0.00238688 2.79444 0)
(-0.000208983 3.20307 1.15791e-18)
(-0.00441957 1.5039 -1.44198e-20)
(0.588386 0.085671 5.00565e-19)
(0.191919 1.13706 6.63636e-19)
(0.965458 0.00764636 0)
(-0.00186391 1.45804 0)
(0.182748 0.271729 -4.30384e-19)
(1.00141 -0.00462145 0)
(0.999842 -0.00899144 0)
(0.975078 -0.0066681 0)
(0.736479 -0.013601 0)
(0.0242664 2.63817 0)
(-0.0129338 2.91189 6.68497e-19)
(-0.0135338 1.66057 0)
(-0.0138865 1.76218 0)
(-0.0127083 1.65692 0)
(-0.00121266 1.81382 0)
(-0.000517826 1.6086 -4.24796e-22)
(-0.00291372 1.51288 0)
(-0.0222658 2.98757 -6.8438e-23)
(-0.0165569 3.00552 1.51564e-18)
(0.00230063 3.00068 0)
(0.871612 -0.00557873 0)
(0.345963 0.888732 -6.21483e-20)
(0.858339 1.16977 -1.10334e-18)
(0.982334 1.0505 1.00207e-18)
(0.716011 1.25408 -1.74053e-19)
(0.743413 1.21139 9.9543e-19)
(0.518842 0.295459 7.92206e-21)
(0.517298 0.189631 0)
(1.19845 0.54241 0)
(0.478545 0.31544 3.73064e-20)
(0.435971 0.215918 -3.8715e-20)
(0.921726 -0.00441651 0)
(1.00034 -0.000199341 0)
(0.999909 0.000287557 0)
(1.00375 -0.00727958 0)
(1.00079 -0.00122024 0)
(1.00004 -0.000141857 0)
(0.074387 1.57722 -4.71333e-19)
(-0.0092678 1.15052 0)
(0.0505279 0.972933 0)
(-0.0267866 1.25326 0)
(0.0052513 1.15622 0)
(-0.00846511 1.57667 0)
(-0.00649303 1.48629 0)
(0.00234287 1.31062 0)
(-0.0170913 1.51175 0)
(-0.0107968 1.32881 0)
(0.888489 0.000763309 0)
(0.895058 0.0106338 0)
(0.825987 0.000106308 0)
(0.886424 0.0156405 0)
(0.794428 -0.00784347 0)
(0.0140262 3.00015 7.14446e-19)
(0.0113123 3.00562 0)
(0.00650749 3.00402 0)
(0.0119438 2.99692 7.98187e-24)
(0.0083728 2.95868 -1.06184e-18)
(0.0123037 2.98294 0)
(0.00891917 2.90458 0)
(0.021264 2.93121 1.46023e-24)
(0.00384756 2.82396 0)
(0.0264203 2.91842 0)
(-0.00151575 2.74318 0)
(0.311527 3.60465 0)
(-0.123341 3.68818 0)
(0.153737 3.29345 -1.07772e-18)
(0.00689208 3.02329 0)
(-0.0118379 1.79382 0)
(-0.00534017 1.63928 1.42249e-20)
(-0.00664695 1.52226 -2.30779e-20)
(0.647881 0.155415 -1.72417e-19)
(0.608907 0.0535007 -1.65442e-19)
(0.612447 0.187394 -5.17221e-19)
(0.558972 0.121327 -3.47248e-19)
(0.288658 1.02383 0)
(0.253857 1.2363 -6.46043e-19)
(0.339296 1.22474 1.06437e-18)
(0.988797 0.00968312 0)
(0.945551 0.00948373 0)
(1.00026 0.000824051 0)
(1.00242 0.00923309 0)
(1.00305 0.00958486 -8.3949e-19)
(0.991984 0.0091645 6.35006e-19)
(-0.0128281 1.57649 0)
(-0.00896569 1.44219 0)
(-0.0171494 1.66678 0)
(-0.0145616 1.61031 0)
(-0.000460495 1.48188 0)
(0.248785 0.288668 1.33073e-19)
(0.291394 0.264692 0)
(0.993477 -0.00722276 0)
(0.953077 -0.00645226 0)
(0.862128 0.0186698 0)
(0.827592 0.0382606 0)
(0.772293 -0.00596768 0)
(1.02602 -0.00477427 0)
(0.781577 0.0481835 0)
(0.657898 -0.020134 6.37507e-19)
(-0.0394716 2.86311 3.82744e-19)
(0.0353007 2.91259 0)
(0.0446974 2.8899 0)
(0.00244201 2.69905 0)
(-0.00847884 2.98624 6.23146e-19)
(-0.0144905 2.89493 0)
(-0.0110005 2.99162 -1.95262e-18)
(-0.0118623 2.92971 6.69619e-19)
(-0.0105686 1.81246 0)
(-0.00899589 1.80759 0)
(-0.00198696 1.63819 -2.76062e-22)
(-0.00326494 1.61017 0)
(-0.00538807 1.50583 0)
(0.933168 -0.00299196 0)
(0.864635 -0.00445867 0)
(0.870207 0.0120754 0)
(0.943771 -0.00205949 0)
(0.88979 -0.00485861 0)
(0.472617 1.09233 6.57883e-20)
(0.524347 1.17453 0)
(0.301649 0.805445 -1.35823e-22)
(0.247237 0.674144 0)
(0.968306 1.06349 -2.95829e-19)
(1.08245 0.876968 6.00196e-19)
(0.448469 1.29253 0)
(0.605306 1.30643 0)
(0.573761 1.23241 0)
(0.129115 0.0818452 -8.18906e-20)
(0.549385 0.261638 0)
(0.53032 0.161032 1.00823e-19)
(1.04315 0.922193 0)
(1.11588 0.763197 0)
(1.14811 0.696974 -5.2707e-19)
(1.17581 0.604459 0)
(1.23249 0.393089 4.92546e-20)
(0.954971 -0.00420826 0)
(0.961367 -0.0044853 0)
(0.903918 -0.00384155 0)
(0.983935 -0.00736571 0)
(0.975589 -0.00597153 0)
(0.936952 -0.0047542 0)
(1.00032 0.00284772 0)
(1.00091 0.00119865 0)
(1.00006 0.000716532 0)
(0.0628696 1.7739 2.64441e-19)
(0.103978 1.52609 0)
(0.0337341 1.78406 3.91796e-19)
(0.0386193 1.60055 -3.34506e-19)
(0.105826 1.14514 -5.47702e-19)
(0.025087 1.09524 0)
(0.159267 0.977686 0)
(-0.0089381 1.35694 0)
(0.0122179 1.22991 0)
(-0.0113356 1.71067 -1.04207e-21)
(-0.0076871 1.60605 0)
(-0.00734728 1.69197 -4.88239e-20)
(-0.00522515 1.56503 9.42398e-20)
(-0.0134803 1.42312 0)
(-0.00537175 1.46533 0)
(0.000871133 1.26909 0)
(-0.019174 1.5341 0)
(-0.0133586 1.36186 0)
(0.963725 0.0164726 0)
(0.910222 0.00678394 0)
(0.946196 0.0102955 0)
(0.878546 0.00233431 0)
(0.828697 -0.00526664 0)
(0.915502 0.00120288 0)
(0.906564 0.00658137 0)
(0.826813 -0.00495431 0)
(0.0107955 3.06698 -6.26208e-21)
(0.0145011 3.05983 0)
(0.0126366 2.97034 0)
(0.00773069 2.87618 0)
(0.899118 4.00339 0)
(1.19413 3.39244 1.0288e-18)
(0.0841574 3.10442 0)
(-0.0147878 2.92601 0)
(-0.0123893 1.79376 0)
(-0.0128803 1.7921 0)
(-0.0125453 1.7926 0)
(-0.00490145 1.80292 3.28179e-21)
(-0.0110398 1.7992 0)
(-0.0066208 1.79641 0)
(-0.00249412 1.54117 1.17626e-21)
(-0.00385703 1.66914 2.78541e-20)
(-0.00607623 1.6561 2.35982e-20)
(-0.00454548 1.52829 0)
(0.675888 0.114206 2.52838e-19)
(0.622335 0.0227493 -2.47388e-19)
(0.172773 1.4584 0)
(0.352632 0.78944 -2.20235e-19)
(0.119889 1.52781 -7.48823e-19)
(0.238522 1.21981 7.47114e-19)
(0.909324 0.0114228 0)
(0.968765 0.0117619 0)
(0.975729 0.0120329 0)
(0.927312 0.00922533 0)
(-0.0199577 1.55096 0)
(-0.0187225 1.56205 0)
(-0.0124634 1.40065 0)
(0.443386 0.327877 3.39688e-19)
(0.371638 0.301911 -4.15455e-19)
(0.390608 0.243672 0)
(1.14288 0.0868078 -8.77261e-21)
(1.13134 0.0412408 0)
(1.05883 0.0353893 0)
(0.97307 0.00646332 0)
(0.677789 0.0749113 0)
(0.709069 0.0373613 -1.04031e-18)
(0.618074 -0.00673287 4.08257e-19)
(0.0117031 2.97813 4.6741e-19)
(-0.0324794 2.86354 4.69225e-20)
(0.00844661 3.05317 -1.34604e-20)
(0.0152033 3.04371 5.14011e-19)
(-0.0119895 3.00012 2.23014e-20)
(-0.0120833 2.95245 -9.069e-23)
(-0.0150196 3.01339 -4.29024e-19)
(0.0137846 3.02705 3.00127e-19)
(0.00735945 3.03431 -4.80273e-19)
(0.942192 0.00862713 0)
(0.937793 0.00330447 0)
(0.864993 0.000633665 0)
(0.958693 0.0131791 0)
(0.946996 0.0144871 0)
(0.891178 0.00932056 0)
(0.92141 0.004062 0)
(0.931291 0.013806 0)
(0.843107 0.0028064 0)
(0.656396 1.4104 3.21269e-19)
(0.680646 1.526 0)
(0.187338 0.358279 1.27811e-20)
(0.150028 0.486887 1.01907e-19)
(0.20732 0.615246 -5.5769e-20)
(0.179727 0.509583 1.02008e-19)
(0.305393 0.654382 5.2568e-19)
(0.139318 0.139459 2.02852e-19)
(0.591381 0.217975 3.73274e-19)
(0.571948 0.240401 9.13217e-20)
(0.551447 0.146321 1.8529e-19)
(1.2219 0.450665 3.49621e-19)
(1.24175 0.247818 3.6341e-19)
(0.0204471 1.77244 1.58177e-19)
(0.0272418 1.61565 0)
(1.01122 0.0293103 0)
(0.979811 0.0205133 0)
(0.935583 0.000934924 0)
(0.011529 3.07456 0)
(0.017076 2.94335 8.53143e-19)
(0.0142747 2.95646 0)
(0.0059914 2.84959 -8.46737e-19)
(0.00892296 3.08944 2.0407e-19)
(0.0122928 3.08292 0)
(0.702388 1.82736 -2.53973e-19)
(1.2374 2.64342 8.44333e-19)
(0.6894 2.00879 -1.66865e-18)
(0.0236637 2.97909 -3.53376e-19)
(0.0432459 3.00577 0)
(-0.0364478 2.8834 0)
(-5.00369e-05 1.6637 -3.95299e-21)
(-0.00169041 1.67168 -6.37782e-20)
(0.000496432 1.54912 -6.95113e-21)
(0.230326 1.29936 6.89482e-19)
(0.327148 0.500174 -4.7533e-19)
(0.0659233 1.70567 5.17421e-19)
(0.105327 1.63457 -6.27001e-19)
(0.151872 1.39314 7.24228e-20)
(0.00437927 3.12027 -1.19953e-18)
(0.0189673 3.11932 1.28991e-18)
(-0.00468368 2.98072 5.52209e-19)
(4.57206e-05 2.97572 -5.00635e-19)
(-0.0175265 2.87902 -5.62432e-19)
(0.0127683 3.09952 -1.49321e-18)
(0.00543037 3.10643 1.4593e-18)
(0.182829 0.543254 0)
(0.110559 0.45045 -2.04951e-19)
(0.141765 0.140902 8.91637e-20)
(0.306648 0.773768 5.84957e-19)
(0.22043 0.189093 -8.90218e-19)
(1.2281 0.168914 -8.21889e-20)
(1.23643 0.305906 0)
(1.22203 0.111064 1.47443e-19)
(-0.00613895 1.74724 -1.28161e-21)
(0.00809044 1.76607 0)
(0.00497712 1.60728 0)
(0.306187 1.17556 -2.36704e-19)
(0.357862 1.02051 -5.15317e-19)
(0.241987 0.310053 8.56439e-19)
(1.00625 -0.0108096 0)
(1.0075 -0.00777692 1.54025e-19)
(-0.0101927 1.80146 0)
(-0.017285 1.81019 0)
(1.00252 0.00343666 1.44821e-21)
(1.00324 0.00759844 3.15319e-19)
(-0.00552877 1.8066 -4.28807e-21)
(-0.00381596 1.80509 0)
(0.0465904 3.18076 1.75852e-19)
(0.385645 3.56968 0)
(1.06988 0.684956 7.89897e-20)
(1.01063 0.0100768 -2.25132e-21)
(1.01837 -0.0141205 0)
(1.00172 0.000166013 5.16514e-23)
(-0.18816 1.33545 0)
(-0.0927381 2.27901 0)
(-0.0393166 1.75948 0)
(-0.0462735 1.89194 6.57913e-20)
(-0.0245825 1.84451 4.14856e-20)
(1.00311 0.00925768 1.89742e-21)
(1.04615 0.0143752 0)
(1.0794 0.0312903 0)
(-0.0129956 1.7928 0)
(-0.0113729 1.81675 0)
(-0.0230214 1.79535 0)
(0.28591 1.24415 -4.61304e-19)
(1.00916 -0.00910849 0)
(1.0105 -0.0135776 0)
(1.00238 0.000154728 1.92785e-19)
(1.00603 -0.00591931 -2.30144e-19)
(1.00099 -0.000987536 0)
(-0.0147954 1.79171 0)
(-0.0124646 1.79433 0)
(-0.0125297 1.79468 0)
(-0.0201109 1.79795 0)
(-0.0163273 1.79443 0)
(-0.0197304 1.79773 0)
(1.01969 -0.00461982 0)
(1.02256 0.0127939 -1.5724e-21)
(0.763279 1.29182 5.56877e-19)
(1.00293 0.000369088 -1.92778e-19)
(1.00421 0.00414418 2.35611e-19)
(1.00131 0.00192966 0)
(1.01097 0.00954529 1.8395e-19)
(1.00728 0.0090013 -2.35987e-19)
(1.00847 0.0104825 0)
(-0.00926362 1.8174 0)
(-0.00646879 1.81277 1.2201e-20)
(-0.00723897 1.81142 -8.34783e-21)
(1.18683 0.262309 -1.79568e-19)
(1.12127 0.0836581 0)
(0.0547779 3.09004 -5.55335e-19)
(0.0540509 2.86639 -4.23566e-20)
(0.113538 3.20407 6.9765e-19)
(0.12984 3.217 -6.80042e-20)
(0.150543 3.27096 0)
(0.025094 3.13894 1.35903e-19)
(0.0679981 3.1633 5.50066e-19)
(0.0678757 3.18278 -2.5796e-19)
(0.0294798 3.12843 0)
(0.697247 0.335965 0)
(0.639505 0.401732 0)
(1.06721 0.711478 -2.94652e-19)
(1.03113 0.864958 4.47601e-19)
(1.12587 0.597732 0)
(1.1591 0.551437 0)
(1.0145 0.00975606 -3.46028e-19)
(1.01359 0.00893828 4.31464e-19)
(1.02131 -0.01395 0)
(1.01564 -0.0200988 0)
(1.00777 0.00181859 0)
(1.01029 0.00252449 0)
(1.00393 0.00311821 0)
(1.00917 0.00752543 0)
(1.00714 0.0051106 0)
(1.00435 0.005131 0)
(-0.174408 1.37646 0)
(-0.174349 1.41544 0)
(-0.156002 1.29432 0)
(-0.0502968 1.28327 0)
(-0.113152 2.38338 0)
(0.032482 2.40078 -2.75425e-19)
(-0.0861311 2.277 0)
(-0.0576911 2.16862 1.22694e-19)
(-0.0376392 1.9978 -1.24025e-19)
(-0.0339952 1.7654 0)
(-0.0240465 1.77434 0)
(-0.0548482 1.73905 0)
(-0.0465376 1.70126 0)
(-0.0876274 1.84012 -3.60321e-20)
(-0.0381034 1.85838 5.17691e-20)
(-0.0446034 1.88872 6.4841e-20)
(-0.0336651 1.8725 0)
(-0.0183303 1.84462 -9.31367e-20)
(-0.00903123 1.8352 -4.81036e-20)
(-0.0812732 1.83156 2.86345e-20)
(-0.0522016 1.84215 -6.79305e-20)
(-0.0594762 1.86047 -8.50805e-20)
(1.011 0.0169409 3.39396e-19)
(1.01134 0.00755143 -4.15058e-19)
(1.00583 0.0182802 -3.60309e-19)
(0.994918 0.0152557 4.60139e-19)
(1.04201 0.0219674 0)
(1.04023 0.00898569 0)
(1.06178 0.0372283 0)
(1.05216 0.0237333 0)
(1.05736 0.0138238 0)
(1.10378 0.0742635 0)
(1.0803 0.0524707 0)
(1.09917 0.0400485 0)
(-0.00961801 1.80814 -1.45218e-21)
(-0.0134804 1.79768 0)
(-0.0105052 1.8018 0)
(-0.0114315 1.82052 1.36838e-20)
(-0.0110705 1.82098 -6.36794e-22)
(-0.0174953 1.79272 1.39058e-20)
(-0.0172037 1.79336 -1.40942e-20)
(-0.0203213 1.79582 0)
(-0.0171106 1.79622 0)
(-0.0163561 1.79612 0)
(-0.0239631 1.79564 0)
(-0.0255602 1.79169 0)
(0.435447 1.34864 9.12864e-19)
(0.391666 1.40804 3.31678e-19)
(0.645572 2.43883 -1.55253e-19)
(0.292048 2.54814 3.91126e-19)
(0.55849 2.29292 -1.81375e-19)
(1.01863 -0.0099474 0)
(1.01676 -0.00942612 0)
(1.0182 -0.0130678 0)
(1.00872 -0.000659634 0)
(1.00463 -0.000996456 0)
(1.00747 -0.00445935 0)
(1.01082 -0.00499311 0)
(1.01241 -0.0048603 0)
(1.02139 0.0123568 3.24732e-19)
(1.01226 0.0133319 -4.21866e-19)
(1.02534 0.0104274 -3.27968e-19)
(1.02311 0.0104239 4.10986e-19)
(0.741236 1.31197 0)
(0.651426 1.37878 6.54785e-19)
(0.856076 1.21116 3.87986e-19)
(0.862035 1.21074 -5.15027e-19)
(1.13204 2.62418 -5.99645e-19)
(0.831595 0.114075 2.47792e-19)
(1.12685 0.0959181 0)
(1.166 0.173031 1.48758e-19)
(1.15233 0.158393 6.45675e-21)
(0.973293 0.130006 0)
(0.1034 3.03439 -1.2251e-19)
(0.100754 2.90546 -6.25064e-19)
(0.0505587 2.3536 4.21689e-19)
(0.160074 0.0764156 -1.96792e-19)
(0.352179 3.46451 -4.9952e-19)
(0.201658 3.35226 0)
(0.229228 3.41861 6.50684e-19)
(0.238735 3.08974 -1.20773e-19)
(0.274514 3.20908 0)
(0.00684744 3.12235 2.93522e-20)
(0.0173712 3.13139 -3.61392e-19)
(0.016126 3.12704 5.31914e-19)
(0.0362051 3.14031 0)
(0.0346753 3.15089 0)
(1.25121 2.59189 0)
(0.501696 0.829003 -1.94463e-19)
(0.950648 1.03718 -2.2055e-19)
(0.95004 1.06479 0)
(0.805646 0.955859 7.53814e-20)
(1.02212 0.905131 2.66442e-20)
(0.43281 0.459859 -4.89604e-19)
(0.719958 0.326529 -2.58021e-20)
(0.710962 0.297587 1.94442e-19)
(0.638345 0.422899 1.57153e-20)
(0.578069 0.419481 -6.52692e-19)
(0.697513 0.34908 0)
(0.695786 0.433847 3.34786e-19)
(0.697506 0.431302 0)
(0.682275 0.397314 0)
(0.67666 0.35063 0)
(0.718446 0.61834 8.50867e-20)
(1.18667 0.284501 1.35085e-19)
(1.17396 0.420128 0)
(1.1729 0.396198 0)
(0.768561 0.22189 2.91724e-19)
(0.762509 0.518932 -1.59914e-19)
(0.698701 0.491305 2.54967e-19)
(0.896042 0.405423 -2.08139e-19)
(1.016 0.00958469 2.27291e-19)
(1.01638 0.00840456 -2.36031e-19)
(1.00951 0.00755207 0)
(1.01854 -0.00827375 0)
(1.0192 -0.0152172 -2.04087e-19)
(1.01054 -0.0225114 2.01753e-19)
(1.03382 0.0069602 0)
(1.028 0.0119661 0)
(1.01336 0.00492725 0)
(1.01387 0.0078185 0)
(1.01814 -0.000155198 0)
(1.01533 -0.00110075 0)
(-0.161928 1.49064 0)
(-0.130414 1.53992 0)
(-0.185391 1.23947 2.76287e-19)
(0.270539 1.25287 2.75907e-19)
(0.0309621 1.22224 6.00164e-19)
(0.162091 1.21387 -9.65752e-19)
(-0.039391 1.28363 0)
(-0.303761 1.96786 4.89548e-19)
(-0.339839 1.89062 0)
(0.471175 2.35639 2.68736e-19)
(0.297143 2.52196 1.47155e-19)
(-0.168467 1.82297 -4.32154e-19)
(0.276028 1.14311 2.93543e-19)
(0.0137121 1.24281 -2.32421e-19)
(0.361151 1.17041 7.18539e-19)
(0.142137 1.83222 0)
(0.326952 1.87161 -5.42625e-19)
(-0.164144 1.9603 -1.83338e-20)
(-0.0412578 2.03293 0)
(-0.181236 2.08246 8.60447e-20)
(-0.145897 2.00733 0)
(-0.0512816 2.13744 -1.36969e-19)
(-0.03484 2.06137 0)
(-0.0861791 1.78412 -2.57251e-20)
(-0.113144 1.80427 0)
(-0.109452 1.73833 0)
(-0.0906814 1.75918 2.90244e-20)
(-0.0519882 1.91209 -7.77942e-21)
(-0.0405564 1.97656 1.37438e-19)
(-0.0404835 1.94816 9.87767e-22)
(-0.0437925 1.81695 2.45313e-20)
(-0.0571525 1.80973 1.50758e-20)
(-0.0248161 1.78076 0)
(-0.0239423 1.7823 0)
(-0.163686 1.86983 4.66664e-20)
(-0.154768 1.75023 2.5267e-20)
(-0.14387 1.81336 -3.85977e-20)
(-0.22214 1.88434 0)
(-0.0157028 1.8123 -4.85961e-20)
(-0.0159434 1.8193 2.27715e-20)
(-0.0163516 1.81876 -7.28334e-21)
(-0.0371104 1.81571 -2.93572e-20)
(-0.0183374 1.82827 -1.15479e-20)
(-0.0211908 1.8369 5.97232e-20)
(1.02461 0.00812285 -2.19676e-19)
(1.02049 0.0120493 2.24977e-19)
(1.02002 0.00636857 0)
(0.999243 0.0434551 3.18423e-19)
(0.995531 0.0315742 -3.86009e-19)
(0.970221 0.0268332 4.50821e-19)
(0.990753 0.0834063 -4.15438e-20)
(1.0226 -0.00146081 0)
(1.0309 0.00860681 1.81122e-19)
(1.02449 0.00107532 -1.76337e-19)
(1.03964 0.0408669 -9.41587e-21)
(1.04321 0.0263544 8.31712e-20)
(1.031 0.0561044 0)
(1.02453 0.0462156 -3.29402e-20)
(1.02208 0.0238562 0)
(1.01997 0.0232363 0)
(1.03548 0.00977974 0)
(1.03026 0.00954526 0)
(1.02955 0.0245262 6.79849e-20)
(1.03076 0.0193608 -1.57626e-19)
(1.03213 0.0289378 -6.61511e-20)
(1.03343 0.031286 -8.00211e-20)
(1.02621 0.0570624 1.34012e-19)
(1.05681 0.053466 0)
(1.04763 0.0856309 0)
(-0.015892 1.81287 -1.94387e-20)
(-0.0144119 1.80216 -1.72251e-21)
(-0.0160657 1.80132 0)
(-0.0108627 1.814 2.07243e-20)
(-0.0101249 1.80928 3.06737e-21)
(-0.00957226 1.81302 -3.3224e-21)
(-0.00842374 1.83246 4.01618e-20)
(-0.0158536 1.82339 -2.65429e-21)
(-0.015385 1.82436 1.28027e-20)
(-0.0101325 1.8256 -2.11432e-20)
(-0.00891841 1.82745 2.51467e-20)
(-0.0204142 1.7935 5.04508e-22)
(-0.0197943 1.79551 2.28365e-20)
(0.531881 1.24254 -4.76169e-19)
(0.543593 1.32804 -6.43663e-19)
(0.640921 1.41588 -6.31497e-19)
(0.527082 1.44396 -3.19842e-19)
(0.52357 1.45215 0)
(0.624213 2.4262 1.06966e-19)
(0.699863 2.39133 2.24287e-19)
(0.402423 2.54961 1.10174e-19)
(0.321356 2.65264 -6.5768e-20)
(0.488165 2.61388 1.43707e-19)
(0.53579 2.47962 0)
(0.553076 2.47224 -3.35209e-19)
(0.0585412 2.51695 7.16385e-19)
(0.235512 2.54685 -3.84487e-20)
(0.184568 2.51617 -8.85098e-19)
(0.937502 2.35723 9.07815e-20)
(0.837437 2.34106 0)
(1.0109 -0.000471543 7.52708e-21)
(1.01288 -0.00424624 -6.4171e-21)
(1.01397 -0.00626635 -1.1078e-19)
(1.01373 -0.00717055 1.11701e-19)
(1.01322 -0.00255006 0)
(0.655242 1.28079 0)
(0.636324 1.1653 0)
(0.751983 1.06226 0)
(0.623888 1.11335 0)
(1.17106 2.64393 3.94317e-20)
(1.04222 2.36442 0)
(0.790338 2.2892 -2.49305e-21)
(0.832608 2.47337 0)
(0.898029 2.56536 4.53686e-21)
(0.905628 2.52028 -3.08145e-21)
(0.826364 0.123737 0)
(0.802549 0.148715 7.47624e-20)
(0.9047 0.126764 3.63712e-19)
(0.863874 0.108688 -1.50563e-19)
(0.859509 0.0789204 -4.44633e-19)
(1.02153 0.216134 -1.5545e-19)
(0.943308 0.262449 -1.07424e-20)
(0.891522 0.285363 3.15386e-19)
(0.976105 0.212417 2.26126e-19)
(0.924576 0.165553 -4.46004e-19)
(0.884925 0.1805 5.97054e-20)
(0.908492 0.272836 -1.06961e-19)
(0.883394 0.196178 0)
(0.976355 0.17593 2.08998e-19)
(1.00312 0.168517 0)
(1.00608 0.190891 0)
(1.07226 0.0973055 4.89825e-20)
(1.01248 0.149239 -1.00792e-20)
(1.00782 0.221601 -3.38393e-20)
(1.03979 0.182713 0)
(1.01409 0.0224325 1.67938e-19)
(1.01992 0.0409148 1.94163e-19)
(1.01956 0.0269119 -1.66929e-19)
(1.01298 0.0453658 -1.308e-19)
(1.00191 0.047096 -2.25183e-19)
(0.977132 0.13308 0)
(0.984238 0.07994 0)
(0.970433 0.0473679 -1.64487e-19)
(0.929292 0.0597747 7.07662e-20)
(0.996939 0.081902 1.84995e-19)
(1.02058 0.0964415 -1.61916e-19)
(1.01629 0.133422 1.5689e-19)
(1.00026 0.121276 0)
(1.0305 0.0927861 0)
(1.01736 0.0767337 -7.2356e-20)
(1.01661 0.0754551 -1.46391e-19)
(0.569583 1.10638 -1.34321e-19)
(0.619105 1.52665 2.32434e-19)
(1.13101 2.77893 1.3662e-19)
(1.19169 3.13726 -7.63481e-20)
(1.23431 2.75403 6.00256e-19)
(1.28413 2.72205 -3.07997e-19)
(1.25104 2.32462 -3.1564e-20)
(1.1775 3.045 2.50141e-19)
(1.18961 3.00313 -2.8788e-19)
(1.17373 3.28606 -2.54206e-19)
(1.39506 2.99714 3.14709e-19)
(1.40835 2.93287 0)
(0.523827 0.840527 -6.71011e-21)
(0.251318 1.25882 2.63086e-19)
(0.476331 0.546315 3.15488e-19)
(0.334091 0.321309 3.69441e-19)
(0.569013 0.442173 3.64062e-19)
(0.536981 0.511505 -5.74098e-19)
(0.539895 0.519199 4.76312e-19)
(0.517127 0.483394 -1.9033e-19)
(0.493523 0.429149 4.41737e-19)
(0.775503 0.252458 -1.61984e-19)
(0.741087 0.292757 0)
(0.743782 0.248744 1.19222e-20)
(0.686538 0.524341 1.6987e-19)
(0.65245 0.50225 -6.29548e-19)
(0.61869 0.497053 2.36144e-20)
(0.636258 0.47988 0)
(0.656899 0.740127 1.07869e-19)
(0.736696 0.778211 3.89937e-20)
(0.696285 0.843362 -5.37621e-20)
(0.801927 0.788338 -1.45205e-21)
(0.87318 0.838303 2.06661e-20)
(0.873529 0.842583 -2.12139e-20)
(0.795527 0.636929 -1.46981e-19)
(0.877116 0.702189 1.35156e-21)
(0.939428 0.709141 0)
(0.929639 0.680786 1.29427e-20)
(0.971348 0.310368 4.10342e-20)
(1.08032 0.297876 -4.10858e-20)
(1.00296 0.263378 6.28782e-20)
(0.943252 0.338788 -1.04072e-19)
(0.974661 0.425195 0)
(1.05335 0.394713 0)
(0.880101 0.343303 8.67774e-21)
(0.831309 0.277233 0)
(0.835053 0.268797 1.71011e-19)
(0.889419 0.282995 1.25416e-21)
(0.88715 0.414017 5.69789e-19)
(0.816812 0.49097 1.4464e-19)
(0.837398 0.438595 -2.03067e-19)
(0.795278 0.420357 2.15867e-19)
(0.776047 0.411243 1.54346e-19)
(0.77762 0.40379 -1.50403e-19)
(1.02071 -0.0102238 1.76516e-19)
(1.0213 -0.00996111 0)
(1.01962 -0.0100843 1.19951e-19)
(1.01999 -0.0110761 -2.63923e-19)
(1.0314 -0.00127651 1.29496e-19)
(1.02902 0.00774736 -2.74517e-19)
(1.02662 0.0116461 0)
(1.02393 0.0136352 -5.75314e-20)
(1.02171 0.00196705 1.43427e-19)
(1.01858 0.01048 -7.30819e-20)
(1.0234 0.0107055 5.44221e-20)
(-0.076264 1.6796 0)
(-0.119551 1.72029 0)
(-0.110699 1.60136 0)
(-0.0775496 1.62788 0)
(-0.291688 1.64553 -3.05235e-19)
(-0.280564 1.47824 9.62158e-20)
(-0.339241 1.9034 7.06886e-20)
(-0.420314 1.65899 -1.86643e-19)
(-0.197859 1.75298 2.22586e-21)
(-0.213616 1.74532 -3.46946e-21)
(-0.253186 1.62379 5.28456e-20)
(-0.228722 1.63253 1.09247e-19)
(-0.167359 1.65664 8.6966e-21)
(-0.161308 1.69334 6.52219e-22)
(-0.208295 2.14115 -8.89881e-20)
(-0.2245 2.23197 0)
(-0.318792 2.22821 -4.61727e-20)
(-0.360583 1.97442 -3.76837e-20)
(-0.0321773 2.262 7.92481e-20)
(-0.0323059 2.56286 0)
(0.0717765 2.53846 -8.1349e-20)
(0.138265 2.56548 5.78612e-20)
(-0.186676 2.27784 1.78865e-19)
(-0.277657 2.26212 -1.50654e-19)
(-0.205451 2.44266 0)
(-0.128399 1.8688 -7.0329e-20)
(-0.0981441 1.87254 -1.2619e-19)
(-0.105919 1.85511 0)
(-0.102183 1.93487 -2.54498e-21)
(-0.145326 1.93575 4.03816e-20)
(-0.044065 1.78631 4.94519e-21)
(-0.0314408 1.78971 -7.60913e-20)
(-0.0324976 1.79524 1.9795e-20)
(-0.0487939 1.79309 2.79841e-20)
(-0.0702829 1.79201 0)
(-0.0295218 1.79542 0)
(-0.0267828 1.79018 2.43551e-20)
(-0.0275134 1.79459 -7.77146e-21)
(-0.02809 1.79537 0)
(-0.0257067 1.78584 1.81737e-20)
(-0.0250657 1.7861 -3.61389e-20)
(1.03023 0.0188313 0)
(1.03595 0.0200393 -1.6769e-20)
(1.0357 0.0202568 -1.24808e-19)
(1.03577 0.0222399 0)
(1.03503 0.024309 0)
(1.03707 0.0129213 -5.65327e-21)
(1.03602 0.0115966 2.10297e-19)
(1.03266 0.0123785 2.54261e-19)
(1.03025 0.0108449 0)
(1.02488 0.00933728 0)
(1.02938 0.0184393 1.26988e-19)
(1.02349 0.0140818 0)
(1.02453 0.012083 0)
(-0.0193106 1.81293 0)
(-0.021005 1.79651 1.84043e-21)
(-0.0199355 1.80595 1.14687e-20)
(-0.0272483 1.79543 0)
(-0.0227994 1.79866 1.52661e-20)
(-0.023414 1.7956 -7.83111e-21)
(-0.0258121 1.7943 0)
(0.569626 1.59141 0)
(0.569542 1.32426 9.79415e-19)
(0.485932 1.41346 0)
(0.586816 1.32878 -1.09604e-18)
(0.54529 1.36094 0)
(0.590927 1.32361 5.02212e-19)
(1.0241 2.6911 -2.36483e-21)
(0.95847 2.37416 -1.1303e-19)
(0.867792 2.10767 1.82324e-19)
(0.854512 2.32754 8.56781e-20)
(0.860519 2.49432 0)
(0.891668 2.50716 0)
(0.911611 2.34847 0)
(0.904179 2.31499 -3.08702e-19)
(0.741392 2.47224 1.03122e-20)
(0.835486 2.47128 -1.4481e-20)
(0.824696 2.4507 1.15236e-20)
(0.711521 2.37174 0)
(0.797863 2.34615 0)
(0.76874 2.36914 -1.99361e-19)
(0.805923 2.47064 0)
(0.58133 1.05138 0)
(0.503346 0.900227 2.62522e-20)
(0.510842 0.949595 2.96449e-21)
(0.497252 1.06409 0)
(0.502763 0.998578 -3.8574e-20)
(0.72428 0.871702 2.72727e-20)
(0.756862 0.999821 0)
(0.73705 0.981687 -9.10179e-20)
(0.642432 0.988917 0)
(0.601207 0.926291 0)
(1.138 2.80044 8.93963e-20)
(1.11372 2.86382 1.5419e-19)
(0.90854 2.41759 -3.40176e-19)
(0.889277 2.39265 5.42232e-20)
(1.10222 2.76633 0)
(1.05241 2.73617 -6.53202e-20)
(1.0678 2.49472 -2.814e-20)
(0.94395 2.21035 -2.26936e-20)
(0.468672 1.42829 0)
(0.472734 1.0928 1.17944e-19)
(0.523823 1.16852 0)
(0.848183 0.214754 0)
(0.805976 0.164491 0)
(0.775456 0.188184 0)
(0.835425 0.224393 -2.69183e-19)
(0.786051 0.224956 1.70104e-19)
(0.930255 0.0571772 -1.40903e-19)
(0.937513 0.105115 0)
(0.92611 0.112082 6.79228e-20)
(0.884854 0.0764149 2.80807e-19)
(0.884799 0.0607393 -1.71971e-19)
(1.09926 3.37651 -9.60271e-19)
(1.16151 3.30084 0)
(1.12276 3.4628 -2.07912e-18)
(0.664063 3.61052 1.75636e-18)
(1.04239 3.12254 4.57756e-19)
(0.505761 0.835929 1.60832e-19)
(0.49398 0.813024 0)
(0.386749 0.563414 -7.23342e-20)
(0.401259 0.69019 3.16146e-19)
(0.496396 0.546937 -1.00624e-19)
(0.49415 0.560791 1.12681e-19)
(0.632453 0.555177 2.27243e-19)
(0.648743 0.576471 0)
(0.586392 0.630372 0)
(0.559658 0.571795 0)
(0.921128 0.581836 -6.33985e-20)
(0.852537 0.523788 -1.38207e-19)
(0.888685 0.574146 3.10543e-20)
(0.919966 0.481467 -9.61382e-20)
(0.992446 0.45691 0)
(1.01676 0.568202 7.93168e-21)
(0.830146 0.368355 -3.31787e-19)
(0.822804 0.35898 -3.94914e-19)
(0.814507 0.364848 2.61404e-19)
(0.793297 0.339715 -3.08249e-19)
(0.825408 0.292256 -2.25976e-19)
(0.79753 0.295232 2.77065e-19)
(1.03602 -0.000116773 -1.34697e-19)
(1.03647 0.00186707 2.74826e-19)
(1.02283 -0.00371474 1.67523e-19)
(1.02664 -0.000842735 -2.01294e-19)
(1.03171 0.0158221 0)
(1.03541 0.0114041 -3.31099e-19)
(-0.245594 1.91212 2.88763e-20)
(-0.255466 1.8735 0)
(-0.336525 1.96422 -1.14382e-19)
(-0.337856 1.95779 1.23792e-19)
(-0.338517 1.89607 -1.27027e-19)
(-0.330364 1.90225 0)
(-0.0302341 1.81364 0)
(-0.0277824 1.80298 -8.54087e-21)
(-0.0256114 1.8003 7.65589e-21)
(-0.0243332 1.80106 2.10842e-21)
(-0.0217175 1.81198 -1.51517e-20)
(-0.0227774 1.8137 9.52584e-21)
(0.494302 1.43019 3.91943e-19)
(0.50162 1.4162 -4.18941e-19)
(0.55005 1.3288 4.95021e-19)
(0.586505 1.37178 -2.4333e-20)
(0.635494 1.29355 0)
(0.581612 1.37303 5.87371e-19)
(0.599662 1.38205 -5.85484e-19)
(0.545502 1.30802 -4.85312e-19)
(0.534181 1.28208 0)
(0.534526 1.23868 0)
(0.807873 2.4908 -1.53556e-20)
(0.733729 2.4869 4.73438e-19)
(0.803645 2.47761 -3.21694e-19)
(0.706284 2.48505 -9.79311e-20)
(0.651976 2.67035 -2.05455e-21)
(0.499118 2.67275 -9.12581e-20)
(0.962313 2.34362 -1.03173e-19)
(0.991577 2.38281 0)
(0.875622 2.10819 -1.20136e-19)
(1.02422 2.7156 0)
(1.0181 2.69241 0)
(0.624871 2.33402 3.93719e-19)
(1.12225 3.09835 4.68164e-19)
(1.01921 3.01019 -5.7258e-19)
(0.337824 0.930821 0)
(0.368752 0.848201 -1.18827e-19)
(0.546018 0.753306 -3.73956e-20)
(0.398574 2.18877 0)
(0.417006 2.76491 -3.20073e-19)
(0.431322 2.50406 0)
(0.649758 0.690331 -2.26528e-19)
(0.69853 0.670741 3.23731e-19)
(0.699784 0.644602 -3.2324e-19)
(0.608685 0.662801 -3.57257e-20)
(0.675553 0.618193 -1.51501e-19)
(0.982097 2.78873 -3.54563e-19)
(1.01756 2.79579 3.05827e-19)
(0.58715 2.28376 -2.08165e-19)
(0.616873 1.75833 9.36949e-20)
(0.70932 1.93717 1.43885e-19)
(0.976183 2.45338 -6.90172e-20)
(0.975726 2.43228 -1.78708e-19)
(0.666869 1.86951 -6.13977e-21)
(0.463689 1.38242 -1.06476e-19)
)
;

boundaryField
{
    wall-4
    {
        type            noSlip;
    }
    velocity-inlet-5
    {
        type            fixedValue;
        value           uniform (1 0 0);
    }
    velocity-inlet-6
    {
        type            fixedValue;
        value           uniform (0 3 0);
    }
    pressure-outlet-7
    {
        type            zeroGradient;
    }
    wall-8
    {
        type            noSlip;
    }
    frontAndBackPlanes
    {
        type            empty;
    }
}


// ************************************************************************* //
