/*--------------------------------*- C++ -*----------------------------------*\
  =========                 |
  \\      /  F ield         | OpenFOAM: The Open Source CFD Toolbox
   \\    /   O peration     | Website:  https://openfoam.org
    \\  /    A nd           | Version:  6
     \\/     M anipulation  |
\*---------------------------------------------------------------------------*/
FoamFile
{
    version     2.0;
    format      ascii;
    class       volScalarField;
    location    "9";
    object      Ma;
}
// * * * * * * * * * * * * * * * * * * * * * * * * * * * * * * * * * * * * * //

dimensions      [0 0 0 0 0 0 0];

internalField   nonuniform List<scalar> 
5250
(
2.99972
2.99926
2.99785
2.99554
2.98806
2.97552
2.93735
2.86236
2.67973
2.25959
1.4832
0.384322
0.0979566
0.114297
0.307748
0.363069
0.337503
0.280744
0.223447
0.188144
0.158378
0.124108
0.0884829
0.0571049
0.0408848
2.99972
2.99926
2.99786
2.99556
2.9881
2.9756
2.93754
2.8628
2.68069
2.26148
1.48667
0.388606
0.0958257
0.12255
0.313427
0.366632
0.340212
0.284232
0.229096
0.195288
0.166552
0.13407
0.102129
0.0767406
0.0654994
2.99972
2.99927
2.99788
2.99559
2.98818
2.97578
2.93796
2.86378
2.68283
2.26576
1.4952
0.399127
0.0901422
0.137186
0.322161
0.372431
0.345358
0.291202
0.240365
0.209901
0.183939
0.155537
0.129821
0.111537
0.10403
2.99973
2.99928
2.9979
2.99564
2.98831
2.97606
2.93863
2.86535
2.6863
2.27272
1.5094
0.416144
0.0837612
0.15652
0.333604
0.380816
0.353857
0.302765
0.257436
0.231301
0.209282
0.185964
0.166531
0.153796
0.148841
2.99973
2.99929
2.99793
2.99571
2.98849
2.97644
2.93957
2.86746
2.69114
2.28236
1.52942
0.439475
0.0814095
0.179544
0.347401
0.391337
0.365198
0.318127
0.278846
0.257465
0.239857
0.221704
0.207705
0.199216
0.19626
2.99974
2.9993
2.99798
2.99579
2.98872
2.97692
2.94077
2.87016
2.69723
2.29551
1.55264
0.470174
0.0885831
0.205873
0.363401
0.403817
0.379255
0.337152
0.304309
0.28789
0.275053
0.262045
0.253219
0.248897
0.24801
2.99974
2.99932
2.99803
2.9959
2.98901
2.97751
2.94222
2.87353
2.70453
2.31205
1.58175
0.508253
0.108827
0.235552
0.381197
0.4181
0.396047
0.359748
0.333451
0.322204
0.314631
0.307557
0.304629
0.305267
0.307904
2.99975
2.99934
2.99809
2.99603
2.98935
2.97821
2.94395
2.87753
2.71328
2.33186
1.61694
0.554025
0.142158
0.267709
0.398005
0.433193
0.414921
0.385451
0.365854
0.360118
0.358519
0.358187
0.363034
0.372545
0.383149
2.99976
2.99937
2.99816
2.99618
2.98974
2.97903
2.94597
2.8822
2.72339
2.3552
1.65789
0.608022
0.186918
0.301872
0.4142
0.448928
0.435505
0.413415
0.400733
0.401071
0.406259
0.414702
0.431567
0.45616
0.489613
2.99977
2.9994
2.99824
2.99635
2.9902
2.97997
2.9483
2.8876
2.73495
2.38227
1.70486
0.669881
0.241294
0.337817
0.429895
0.464877
0.457107
0.442976
0.437277
0.443253
0.455967
0.477367
0.512402
0.566359
0.667447
2.99978
2.99943
2.99834
2.99655
2.99073
2.98107
2.95103
2.89379
2.74878
2.41263
1.76241
0.739565
0.304771
0.373449
0.444236
0.479894
0.479185
0.472838
0.473449
0.484985
0.507483
0.545173
0.60299
0.696996
0.845641
2.9998
2.99947
2.99845
2.99679
2.99136
2.98238
2.95435
2.90087
2.76628
2.4462
1.83825
0.819841
0.377277
0.403226
0.457559
0.49478
0.500293
0.500059
0.506179
0.523904
0.557692
0.609124
0.680642
0.787928
0.929898
2.99982
2.99952
2.99858
2.99706
2.99208
2.98388
2.95801
2.90932
2.78525
2.48714
1.92406
0.920063
0.457006
0.426988
0.471696
0.508473
0.519341
0.524487
0.535888
0.560258
0.602078
0.658714
0.731941
0.826655
0.936023
2.99984
2.99957
2.99873
2.99736
2.99288
2.98554
2.96217
2.91878
2.8063
2.53745
2.02028
1.04793
0.546864
0.448001
0.481159
0.51763
0.536398
0.547085
0.563586
0.592179
0.6353
0.690308
0.757994
0.838816
0.924905
2.99986
2.99962
2.99889
2.99769
2.99377
2.98739
2.96687
2.92941
2.83022
2.59681
2.13429
1.21696
0.649658
0.471221
0.494225
0.531076
0.555385
0.569797
0.588607
0.617618
0.658392
0.707961
0.769078
0.836791
0.909459
2.99988
2.99968
2.99906
2.99804
2.99472
2.98935
2.97195
2.94086
2.8566
2.66278
2.26815
1.43202
0.76739
0.515169
0.526904
0.557701
0.582183
0.594919
0.612176
0.638427
0.675815
0.719901
0.773622
0.832507
0.89369
2.9999
2.99973
2.99922
2.99837
2.99561
2.99119
2.97672
2.95166
2.88097
2.72823
2.39763
1.70089
0.887989
0.569768
0.572568
0.595884
0.618285
0.626901
0.638439
0.659196
0.690826
0.729463
0.775362
0.826665
0.879524
2.99992
2.99978
2.99934
2.99864
2.9963
2.99263
2.98024
2.95978
2.89846
2.77038
2.48451
1.85544
0.995825
0.608901
0.600135
0.625085
0.649437
0.658892
0.666918
0.682094
0.70657
0.739015
0.777537
0.821528
0.867171
2.99993
2.99981
2.99945
2.99886
2.99689
2.99382
2.98333
2.96631
2.9136
2.80736
2.55989
1.99629
1.15997
0.687494
0.61395
0.635768
0.661281
0.679572
0.690192
0.703237
0.722431
0.749027
0.781319
0.817525
0.85663
2.99995
2.99985
2.99955
2.99906
2.99744
2.99491
2.98623
2.97233
2.92858
2.84086
2.63675
2.14161
1.35895
0.781522
0.619676
0.636456
0.663743
0.690153
0.704919
0.718361
0.735633
0.758533
0.785814
0.815961
0.848869
2.99996
2.99988
2.99963
2.99923
2.99792
2.99586
2.98881
2.97763
2.94147
2.87493
2.70265
2.32197
1.61286
0.888686
0.64291
0.647992
0.673255
0.702522
0.71828
0.731012
0.746642
0.766235
0.789401
0.815352
0.843687
2.99997
2.9999
2.9997
2.99938
2.9983
2.99662
2.99086
2.98181
2.95197
2.89906
2.75367
2.44981
1.8104
0.975352
0.656333
0.652205
0.680227
0.710046
0.729678
0.742504
0.756324
0.772523
0.792481
0.815326
0.840082
2.99997
2.99992
2.99976
2.99949
2.99861
2.99725
2.99251
2.98516
2.96055
2.9167
2.79913
2.52617
1.99717
1.08801
0.693539
0.645715
0.672967
0.70407
0.730159
0.746366
0.760499
0.776557
0.794818
0.815444
0.83758
2.99998
2.99994
2.99981
2.99959
2.99888
2.99777
2.99392
2.98799
2.96794
2.93264
2.83533
2.60538
2.16447
1.28097
0.782864
0.639148
0.657145
0.686521
0.718138
0.739786
0.75729
0.774731
0.793508
0.81333
0.834059
2.99999
2.99995
2.99985
2.99967
2.99911
2.99823
2.99518
2.99047
2.97459
2.94713
2.86896
2.6891
2.33265
1.56642
0.908994
0.661552
0.657193
0.679617
0.711504
0.736417
0.75477
0.772095
0.79046
0.809602
0.82925
3
2.99996
2.99989
2.9997
2.99938
2.99832
2.99666
2.99097
2.98187
2.95238
2.8983
2.75186
2.44461
1.78976
0.987062
0.665054
0.64774
0.673737
0.707665
0.735365
0.754268
0.770604
0.787562
0.805538
0.824033
3
2.99997
2.99991
2.99975
2.99949
2.9986
2.99726
2.99245
2.98518
2.96016
2.91615
2.79687
2.5198
1.98314
1.07985
0.679034
0.62361
0.652214
0.688735
0.723147
0.746391
0.76437
0.781525
0.799112
0.817
3
2.99997
2.99993
2.9998
2.99959
2.99886
2.99777
2.99386
2.98795
2.96781
2.93181
2.83243
2.59458
2.14821
1.25127
0.747686
0.593686
0.6159
0.6552
0.699073
0.729008
0.750809
0.769967
0.788571
0.806909
3
2.99998
2.99995
2.99984
2.99966
2.99908
2.99819
2.99504
2.99026
2.97392
2.94543
2.86402
2.67518
2.30456
1.51675
0.84997
0.593072
0.599852
0.636889
0.683735
0.716368
0.738928
0.75816
0.776786
0.795209
3
2.99999
2.99995
2.99988
2.99968
2.99935
2.99823
2.9965
2.99051
2.98092
2.94979
2.89147
2.7361
2.40268
1.71258
0.905404
0.580836
0.58057
0.620741
0.669925
0.706411
0.729966
0.748545
0.766107
0.783541
3
2.99999
2.99996
2.99989
2.99976
2.99935
2.99871
2.99645
2.99309
2.98092
2.96183
2.90053
2.77647
2.48421
1.86136
1.00702
0.573145
0.549573
0.592384
0.644803
0.688563
0.716851
0.737051
0.754466
0.771198
3
2.99999
2.99997
2.9999
2.9998
2.99943
2.99888
2.99687
2.99399
2.98312
2.96691
2.91194
2.80581
2.5488
1.97153
1.13322
0.603398
0.506641
0.547375
0.605957
0.661602
0.697268
0.72052
0.738802
0.75558
3
2.99999
2.99997
2.99992
2.99983
2.99951
2.99904
2.99734
2.99486
2.98582
2.97166
2.92591
2.82937
2.6086
2.07273
1.26999
0.640828
0.452089
0.492617
0.563711
0.632014
0.673498
0.698508
0.717217
0.734243
3
2.99999
2.99998
2.99993
2.99985
2.99957
2.99917
2.99766
2.99553
2.98739
2.97546
2.93433
2.85576
2.65935
2.19891
1.43336
0.678397
0.407107
0.45533
0.540868
0.614815
0.65528
0.677413
0.6938
0.709593
3
3
2.99998
2.99994
2.99987
2.99963
2.99927
2.99798
2.99609
2.98907
2.97856
2.94212
2.87669
2.70005
2.3153
1.58501
0.719931
0.390013
0.447652
0.537213
0.612324
0.649424
0.666452
0.678446
0.691131
3
3
2.99998
2.99995
2.99987
2.99973
2.99925
2.99852
2.99592
2.99194
2.97831
2.95445
2.88426
2.7267
2.38531
1.69616
0.783563
0.375577
0.436897
0.524835
0.605057
0.643288
0.658536
0.668179
0.678826
3.00001
3
2.99999
2.99995
2.9999
2.9997
2.99941
2.99835
2.9968
2.99101
2.98227
2.95224
2.89567
2.74658
2.40126
1.73299
0.783712
0.361018
0.406845
0.492236
0.576254
0.619766
0.638462
0.649921
0.661439
3.00001
3
2.99999
2.99996
2.99991
2.99973
2.99946
2.99848
2.99706
2.99169
2.9836
2.95596
2.90193
2.76205
2.42977
1.79127
0.836363
0.381017
0.38515
0.462629
0.542386
0.589442
0.612035
0.626176
0.639383
3.00001
3
2.99999
2.99997
2.9999
2.9998
2.99943
2.99888
2.99688
2.99377
2.98317
2.96404
2.90664
2.77472
2.48262
1.83087
0.938372
0.420155
0.384575
0.447075
0.519954
0.56726
0.59185
0.607247
0.620842
3.00001
3
2.99999
2.99997
2.99993
2.9998
2.99959
2.99887
2.99769
2.99402
2.98623
2.96581
2.91377
2.79722
2.47862
1.90869
0.959192
0.439028
0.36418
0.422232
0.493646
0.544865
0.572465
0.589071
0.60276
3.00001
3
2.99999
2.99998
2.99993
2.99984
2.99956
2.99911
2.99761
2.99494
2.98685
2.96866
2.9214
2.80093
2.54472
1.92144
1.0503
0.468876
0.348252
0.397939
0.469858
0.527029
0.55795
0.575072
0.588287
3.00001
3
3
2.99998
2.99994
2.99984
2.99967
2.99912
2.99811
2.99521
2.98844
2.97153
2.92652
2.82455
2.54066
2.02967
1.09249
0.496044
0.311048
0.363243
0.445896
0.513153
0.548271
0.566123
0.579399
3.00001
3
3
2.99998
2.99994
2.99987
2.99965
2.99928
2.99813
2.99576
2.9895
2.97374
2.9362
2.83175
2.61474
2.03492
1.20035
0.50742
0.258597
0.323217
0.428807
0.508136
0.546614
0.56437
0.577439
3.00001
3
3
2.99998
2.99995
2.99985
2.9997
2.99917
2.99834
2.99554
2.99042
2.97527
2.93959
2.85255
2.62306
2.20058
1.30756
0.565311
0.236913
0.319484
0.447128
0.534409
0.571175
0.584106
0.592769
3.00001
3
3
2.99998
2.99995
2.99985
2.9997
2.99913
2.99833
2.99515
2.99074
2.97394
2.94608
2.86173
2.66753
2.28137
1.48005
0.599546
0.214266
0.315673
0.459144
0.551586
0.586461
0.595453
0.600801
3.00001
3
3
2.99998
2.99995
2.99985
2.99971
2.99916
2.99839
2.99534
2.9911
2.97492
2.94874
2.86737
2.68844
2.3089
1.54578
0.576528
0.143091
0.276792
0.437262
0.538814
0.578682
0.590336
0.597262
3.00001
3
3
2.99998
2.99995
2.99986
2.99972
2.99919
2.99844
2.99549
2.99139
2.97567
2.9504
2.87051
2.69611
2.32232
1.56163
0.581328
0.117303
0.256044
0.418911
0.525106
0.57052
0.586639
0.59601
3.00001
3
3
2.99998
2.99996
2.99987
2.99973
2.99924
2.99852
2.9958
2.99175
2.97746
2.95141
2.87538
2.69624
2.3254
1.56949
0.585661
0.115956
0.24993
0.408692
0.515712
0.564656
0.584374
0.595776
3.00001
3
3
2.99999
2.99995
2.9999
2.99971
2.99941
2.99839
2.99674
2.99142
2.98056
2.95079
2.87682
2.71074
2.29074
1.53668
0.526795
0.0653077
0.214684
0.384303
0.49271
0.544301
0.566483
0.579235
3.00001
3
3
2.99998
2.99996
2.99987
2.99974
2.99926
2.99856
2.99589
2.99192
2.97784
2.95205
2.87676
2.69867
2.33002
1.5756
0.594216
0.119839
0.244744
0.397865
0.50653
0.558948
0.581351
0.593954
1.01623
1.04603
0.794051
0.383089
0.15996
0.194796
0.286223
0.356351
0.394962
0.410291
0.41381
0.412221
0.408233
0.406099
0.40455
0.403143
0.400801
0.39658
0.389335
0.379669
0.367866
0.354445
0.339499
0.323095
0.304976
0.285142
0.263704
0.241037
0.217519
0.193356
0.168771
0.143891
0.11864
0.0935843
0.0683964
0.0438312
0.0236797
0.0247253
0.04695
0.0678856
0.0887504
0.111721
0.134501
0.157614
0.180119
0.202486
0.223722
0.244697
0.26656
0.28907
0.310881
0.33198
0.352607
0.372812
0.392641
0.412126
0.431293
0.450097
0.468651
0.486909
0.504959
0.522753
0.540403
0.557813
0.57508
0.592133
0.608961
0.625633
0.642026
0.658234
0.674158
0.689824
0.705171
0.720215
0.734902
0.749228
0.76315
0.776654
0.789676
0.802219
0.814162
0.825524
0.836129
0.845915
0.854746
0.862368
0.868684
0.87327
0.875939
0.877358
0.878346
0.878473
0.876725
0.872055
0.864392
0.856346
0.847482
0.840276
0.834112
0.838
1.03583
1.02209
0.868316
0.632089
0.547225
0.434556
0.331613
0.246844
0.174037
0.117046
0.0729676
0.0310921
0.0329946
0.0477609
0.0640966
0.0751622
0.0776492
0.0654199
0.0583657
0.0495906
0.0409622
0.0302041
0.0223454
0.0249621
0.0385072
0.0542158
0.0707696
0.0881571
0.10639
0.125383
0.145191
0.165547
0.185852
0.206442
0.227337
0.24799
0.268772
0.288555
0.307885
0.326294
0.344998
0.363803
0.382746
0.401616
0.420478
0.439105
0.45716
0.474615
0.492318
0.51079
0.529199
0.547
0.56427
0.581264
0.597946
0.614321
0.630477
0.646319
0.66202
0.677496
0.69282
0.708021
0.723013
0.737955
0.752697
0.767373
0.781915
0.7963
0.810565
0.824635
0.838515
0.852191
0.865627
0.878776
0.891725
0.904235
0.91659
0.928413
0.939996
0.95103
0.961667
0.971659
0.981095
0.989725
0.997489
1.00428
1.0097
1.01377
1.01582
1.01692
1.01759
1.01762
1.01591
1.01177
1.0047
0.997585
0.989362
0.982937
0.977001
0.980432
1.00691
1.01745
0.968605
0.894497
0.836725
0.776445
0.714853
0.654363
0.599991
0.549883
0.504068
0.467266
0.430006
0.401877
0.383209
0.369851
0.362149
0.353145
0.347529
0.344158
0.344744
0.349122
0.356316
0.365701
0.376457
0.387998
0.400168
0.413004
0.426397
0.440248
0.454258
0.468435
0.482628
0.497321
0.512152
0.52741
0.54245
0.557391
0.571777
0.585917
0.59994
0.614034
0.628233
0.642406
0.656595
0.670801
0.684592
0.697807
0.711058
0.725108
0.739491
0.753523
0.76713
0.780561
0.79378
0.806878
0.819785
0.832579
0.84522
0.857782
0.870222
0.882641
0.894936
0.907272
0.919477
0.931746
0.943872
0.956047
0.968033
0.980048
0.991816
1.00357
1.01505
1.02644
1.03754
1.04849
1.05911
1.0695
1.07957
1.08925
1.09861
1.10739
1.11576
1.12336
1.13027
1.13622
1.14105
1.14452
1.14623
1.14703
1.14753
1.14746
1.14586
1.14219
1.13593
1.1295
1.12196
1.11602
1.11004
1.1128
0.988454
1.02351
1.02921
1.01216
0.990477
0.966242
0.940204
0.910288
0.877452
0.842038
0.806084
0.774128
0.747538
0.727443
0.71322
0.704144
0.699566
0.697782
0.697616
0.697711
0.698901
0.701706
0.705594
0.710109
0.714804
0.719484
0.724169
0.728857
0.733416
0.737915
0.742591
0.747715
0.75345
0.759609
0.766269
0.773313
0.780495
0.787637
0.794624
0.801588
0.808744
0.816237
0.824201
0.83252
0.841357
0.850576
0.85991
0.868832
0.877891
0.887846
0.898507
0.909294
0.919786
0.930225
0.940597
0.951011
0.961397
0.971789
0.982175
0.992541
1.00293
1.01331
1.02372
1.03415
1.04459
1.0551
1.06556
1.0761
1.08657
1.09707
1.10749
1.11784
1.12812
1.13821
1.14826
1.15797
1.16766
1.17692
1.18609
1.19478
1.20324
1.21116
1.21864
1.22552
1.23162
1.23703
1.2412
1.24429
1.24557
1.24616
1.24638
1.24617
1.24436
1.24096
1.23515
1.22939
1.22211
1.21651
1.21014
1.21206
0.972694
1.01722
1.04588
1.05657
1.06115
1.05891
1.05318
1.04367
1.02983
1.01251
0.993728
0.975845
0.96055
0.948384
0.939318
0.93301
0.928933
0.9275
0.926671
0.9257
0.924848
0.924828
0.92635
0.928425
0.930766
0.933053
0.935128
0.93704
0.938711
0.940127
0.941416
0.942727
0.944103
0.945586
0.946964
0.948255
0.949501
0.950813
0.952355
0.954224
0.956656
0.959796
0.96351
0.967794
0.972826
0.978525
0.984667
0.990542
0.99662
1.00353
1.01147
1.01979
1.02807
1.03626
1.04456
1.05294
1.06146
1.07011
1.07883
1.08774
1.09663
1.10578
1.11482
1.12417
1.1334
1.14288
1.15229
1.16186
1.1714
1.18098
1.19058
1.20007
1.20963
1.21892
1.22831
1.23733
1.24638
1.25506
1.26363
1.27186
1.27986
1.28749
1.2946
1.30125
1.30702
1.31217
1.31601
1.31878
1.31984
1.32032
1.32042
1.32008
1.31805
1.31479
1.30951
1.30398
1.29716
1.29161
1.28504
1.28621
0.953838
1.00105
1.03784
1.06365
1.08101
1.0939
1.10152
1.10604
1.10657
1.10318
1.09781
1.09122
1.08445
1.07861
1.07392
1.07039
1.06791
1.06703
1.06713
1.06744
1.06723
1.0668
1.06675
1.06711
1.0675
1.06788
1.06812
1.06799
1.06754
1.06694
1.06602
1.06505
1.06391
1.06293
1.06192
1.06116
1.0606
1.06029
1.06031
1.06067
1.06131
1.06257
1.06444
1.06685
1.06994
1.07363
1.07784
1.08183
1.08608
1.09101
1.09712
1.10377
1.11059
1.11737
1.12429
1.13134
1.13856
1.14596
1.15348
1.1612
1.16901
1.17705
1.18518
1.19354
1.20199
1.21066
1.21941
1.2283
1.2373
1.24629
1.25544
1.26442
1.27355
1.28242
1.29134
1.30001
1.30862
1.31701
1.32523
1.33311
1.34067
1.34779
1.3544
1.3605
1.36584
1.37049
1.37408
1.37644
1.37736
1.37778
1.3779
1.37742
1.37529
1.37216
1.36743
1.3624
1.35622
1.35093
1.34446
1.3453
0.933331
0.980716
1.01967
1.05095
1.07545
1.09685
1.11325
1.12619
1.13567
1.14241
1.14582
1.14807
1.1482
1.14794
1.14817
1.14854
1.14892
1.14979
1.15024
1.15158
1.15291
1.15345
1.15332
1.15325
1.15297
1.15258
1.15209
1.15127
1.14987
1.14794
1.14575
1.14341
1.14102
1.13871
1.13651
1.13456
1.13274
1.13125
1.12989
1.12898
1.12829
1.12826
1.12861
1.12953
1.13121
1.1335
1.13618
1.13892
1.14182
1.14552
1.15025
1.15583
1.16161
1.16763
1.17372
1.18015
1.18668
1.19361
1.20062
1.20801
1.21546
1.22323
1.23107
1.23917
1.24734
1.25571
1.2642
1.27277
1.28152
1.2902
1.2991
1.30785
1.31674
1.32551
1.33429
1.34297
1.35146
1.35981
1.36783
1.37566
1.38298
1.39005
1.39641
1.40238
1.40743
1.41184
1.41511
1.41718
1.41786
1.41819
1.4182
1.41747
1.41522
1.41182
1.40743
1.40251
1.39696
1.3918
1.38555
1.38586
0.913955
0.958714
0.997618
1.03159
1.05915
1.08295
1.10382
1.12267
1.1383
1.15099
1.16077
1.16841
1.17428
1.17887
1.18282
1.18644
1.18963
1.19259
1.19502
1.19695
1.19901
1.20123
1.20307
1.20426
1.20455
1.20433
1.20374
1.20267
1.20092
1.19875
1.19618
1.19337
1.19046
1.18747
1.18462
1.18185
1.17938
1.17715
1.1752
1.17366
1.17246
1.17164
1.17149
1.1718
1.17277
1.17442
1.17642
1.17853
1.1808
1.18384
1.18781
1.19275
1.1979
1.20343
1.20901
1.21491
1.22092
1.22726
1.23374
1.24054
1.24749
1.25471
1.26212
1.26973
1.27757
1.28555
1.29378
1.30208
1.31061
1.31915
1.32781
1.33653
1.3452
1.35393
1.36242
1.37095
1.37912
1.38728
1.39495
1.40253
1.4095
1.41623
1.42224
1.42778
1.43247
1.43642
1.43933
1.44092
1.4414
1.4416
1.44153
1.4406
1.4382
1.43486
1.43076
1.42633
1.42136
1.4168
1.41091
1.41117
0.896749
0.937157
0.974451
1.00853
1.03823
1.06408
1.08695
1.10665
1.1243
1.14026
1.15421
1.16632
1.17627
1.1846
1.19181
1.19818
1.20392
1.20911
1.21375
1.21781
1.22149
1.22494
1.22782
1.23047
1.23264
1.23343
1.23337
1.23281
1.23145
1.22961
1.22718
1.22457
1.22167
1.21871
1.2157
1.21281
1.21001
1.20752
1.20523
1.20337
1.20179
1.20079
1.20011
1.20021
1.20081
1.20208
1.2037
1.20541
1.20733
1.20994
1.21349
1.21786
1.22266
1.22773
1.2331
1.23865
1.24452
1.25054
1.25692
1.26344
1.27029
1.27726
1.28456
1.29196
1.29967
1.30745
1.31551
1.32367
1.33197
1.34043
1.34889
1.35751
1.36597
1.37457
1.38293
1.39134
1.39943
1.40743
1.41504
1.4224
1.42927
1.4357
1.44151
1.44668
1.45108
1.45461
1.45716
1.45837
1.45871
1.45887
1.45874
1.45768
1.45514
1.45224
1.4484
1.44488
1.4405
1.43692
1.43152
1.43208
0.88338
0.918511
0.952873
0.985097
1.01498
1.04154
1.0653
1.08653
1.10542
1.12222
1.13715
1.15036
1.16239
1.1733
1.18321
1.19217
1.2005
1.20814
1.21535
1.22188
1.22791
1.23335
1.23808
1.24205
1.24503
1.24721
1.24894
1.24964
1.24939
1.24831
1.24665
1.24469
1.24226
1.23965
1.2368
1.23398
1.23116
1.22858
1.22625
1.22418
1.22263
1.22128
1.22062
1.22037
1.22083
1.22188
1.22326
1.22475
1.22649
1.22884
1.23212
1.23609
1.24061
1.24536
1.25054
1.25586
1.26157
1.2674
1.27362
1.27996
1.28666
1.29348
1.30062
1.30789
1.31541
1.32311
1.33096
1.33903
1.34716
1.3555
1.36379
1.37222
1.38057
1.38894
1.39721
1.40536
1.41333
1.42106
1.4285
1.43557
1.44221
1.44829
1.45378
1.45852
1.46252
1.46556
1.46763
1.46848
1.46876
1.46883
1.46856
1.4673
1.46481
1.46233
1.45907
1.45626
1.45268
1.44991
1.44521
1.44613
0.873703
0.904446
0.935146
0.964905
0.99305
1.01917
1.04289
1.0644
1.0837
1.10106
1.11675
1.13097
1.14398
1.15596
1.16711
1.17766
1.1878
1.19749
1.20674
1.21532
1.22316
1.23012
1.23633
1.24165
1.24632
1.25016
1.25327
1.25573
1.25754
1.25905
1.25901
1.25795
1.25649
1.25457
1.25215
1.24949
1.24688
1.24432
1.24206
1.23995
1.23843
1.23697
1.23633
1.23588
1.23626
1.23719
1.23842
1.23974
1.24136
1.24353
1.24659
1.25032
1.25454
1.2591
1.26403
1.26926
1.2748
1.28059
1.28664
1.29294
1.29944
1.30621
1.31312
1.32031
1.32762
1.3352
1.34291
1.35083
1.35887
1.367
1.37524
1.38347
1.39178
1.39998
1.40817
1.41613
1.42398
1.43145
1.43869
1.44543
1.45176
1.45742
1.46251
1.46677
1.4703
1.47285
1.47441
1.47498
1.47524
1.47528
1.47481
1.47343
1.47114
1.46905
1.46653
1.46443
1.46176
1.45974
1.45596
1.45744
0.866477
0.893654
0.920992
0.948018
0.974058
0.998851
1.02186
1.04308
1.06231
1.07986
1.09572
1.11036
1.12388
1.13668
1.14887
1.16068
1.17211
1.18311
1.19361
1.20344
1.21257
1.22093
1.2287
1.23582
1.2424
1.2484
1.25374
1.25825
1.2619
1.26449
1.26626
1.26753
1.26701
1.26592
1.26439
1.26214
1.25982
1.2574
1.25528
1.25325
1.25179
1.25035
1.24972
1.24919
1.24954
1.2504
1.25155
1.25282
1.2543
1.25638
1.2592
1.26274
1.26667
1.27106
1.27577
1.28088
1.28626
1.29197
1.29788
1.30408
1.31046
1.31709
1.3239
1.33092
1.33814
1.34553
1.35316
1.36086
1.3688
1.37673
1.38487
1.39292
1.40109
1.4091
1.4171
1.42485
1.43247
1.43969
1.44662
1.45303
1.45896
1.46419
1.46877
1.47251
1.47546
1.47746
1.4785
1.47884
1.47905
1.47903
1.47831
1.47692
1.47501
1.47344
1.4717
1.47037
1.46864
1.46737
1.46461
1.46677
0.86101
0.885249
0.909678
0.934053
0.957825
0.980837
1.00263
1.02311
1.04201
1.05945
1.07543
1.09027
1.10414
1.11737
1.1301
1.14248
1.15456
1.16628
1.17767
1.18864
1.19917
1.20924
1.21888
1.22809
1.2368
1.24477
1.25204
1.25828
1.26356
1.26778
1.27083
1.27289
1.27417
1.27457
1.27417
1.27303
1.27137
1.26937
1.26751
1.26573
1.26434
1.26303
1.26243
1.26192
1.26228
1.2631
1.26423
1.26549
1.26693
1.2689
1.27159
1.27491
1.27867
1.28283
1.28739
1.29233
1.29763
1.30319
1.30908
1.31513
1.32149
1.32798
1.33475
1.34165
1.34879
1.35608
1.36354
1.37113
1.37885
1.38669
1.39456
1.4025
1.41038
1.4182
1.42588
1.43336
1.44057
1.44744
1.45389
1.45983
1.46519
1.4699
1.47386
1.47703
1.47936
1.48078
1.48142
1.48169
1.4818
1.48161
1.48061
1.47943
1.47811
1.47726
1.47635
1.47587
1.47508
1.47467
1.47294
1.47579
0.855549
0.877611
0.899849
0.922026
0.943844
0.965086
0.985565
1.00505
1.02341
1.04054
1.0565
1.07143
1.08552
1.09903
1.11211
1.12491
1.13754
1.14995
1.16232
1.17446
1.1865
1.19822
1.2096
1.22055
1.2308
1.24037
1.249
1.25665
1.26327
1.26879
1.27329
1.27674
1.2792
1.28087
1.28182
1.28225
1.28196
1.28088
1.27967
1.27832
1.27715
1.27606
1.27556
1.27518
1.27557
1.27637
1.27754
1.27877
1.2802
1.28202
1.28457
1.28769
1.29128
1.29524
1.2996
1.30435
1.30947
1.31493
1.32065
1.32664
1.33283
1.33925
1.34586
1.35268
1.35967
1.36685
1.3741
1.38156
1.38906
1.39671
1.40436
1.41207
1.41968
1.42723
1.43457
1.4417
1.44849
1.45492
1.46086
1.46628
1.47102
1.47511
1.47839
1.48092
1.48261
1.48347
1.48385
1.48407
1.4841
1.4836
1.48261
1.4818
1.48129
1.48096
1.48108
1.48127
1.48155
1.48189
1.48136
1.48496
0.849397
0.869881
0.890508
0.911053
0.931307
0.951094
0.970311
0.988799
1.00647
1.0232
1.03906
1.05406
1.06839
1.08217
1.09559
1.1088
1.12193
1.1351
1.14836
1.16162
1.17496
1.18795
1.20072
1.21276
1.22423
1.23482
1.2445
1.2533
1.2611
1.26799
1.27392
1.27894
1.28312
1.28636
1.28881
1.29044
1.29164
1.29227
1.29232
1.29174
1.291
1.29024
1.28987
1.28961
1.28994
1.29071
1.2918
1.29301
1.29431
1.29601
1.29829
1.30124
1.3046
1.30836
1.31248
1.31701
1.32191
1.32716
1.33268
1.33847
1.34446
1.35071
1.35713
1.36377
1.37057
1.37749
1.38456
1.39174
1.39903
1.40642
1.41382
1.42126
1.42859
1.43584
1.44286
1.44962
1.45603
1.46199
1.46745
1.47229
1.47645
1.4799
1.48254
1.48444
1.4855
1.48602
1.48629
1.48637
1.48608
1.4853
1.4848
1.48439
1.48461
1.48511
1.48586
1.48686
1.48806
1.48927
1.49002
1.49395
0.843017
0.862236
0.881526
0.900744
0.919739
0.938341
0.956507
0.974107
0.991143
1.00749
1.02314
1.03811
1.05245
1.06643
1.08012
1.09384
1.10762
1.12167
1.13583
1.1502
1.16445
1.17852
1.19207
1.20504
1.21732
1.22876
1.23946
1.24931
1.25838
1.26666
1.27414
1.28078
1.28655
1.29152
1.29553
1.29873
1.30116
1.303
1.30413
1.30489
1.30509
1.30487
1.30468
1.30449
1.30472
1.30531
1.30624
1.30735
1.30856
1.31008
1.3122
1.31491
1.31808
1.32156
1.32542
1.32962
1.33422
1.33917
1.34441
1.34992
1.35565
1.36163
1.3678
1.37422
1.38073
1.38745
1.39424
1.40121
1.40826
1.41538
1.42257
1.4297
1.43679
1.44371
1.45041
1.45681
1.46278
1.46832
1.47324
1.4775
1.48105
1.4838
1.48579
1.487
1.48757
1.48788
1.48798
1.48773
1.48707
1.48659
1.48631
1.48673
1.48753
1.48861
1.4901
1.49177
1.4939
1.49595
1.49738
1.50149
0.835187
0.853508
0.871859
0.890147
0.908246
0.925995
0.943368
0.960314
0.976829
0.992834
1.0083
1.02324
1.03775
1.05199
1.06618
1.08046
1.09499
1.10977
1.12476
1.13982
1.15482
1.16952
1.18373
1.1974
1.21042
1.22278
1.23448
1.24547
1.25583
1.26543
1.27431
1.28244
1.28971
1.29616
1.30175
1.30639
1.31021
1.3133
1.31572
1.31731
1.31837
1.31916
1.31948
1.31958
1.31967
1.32007
1.32078
1.32172
1.32275
1.32403
1.32584
1.32832
1.33116
1.33441
1.33792
1.34186
1.34612
1.35079
1.35572
1.36097
1.36644
1.37219
1.37815
1.3843
1.3906
1.39702
1.40357
1.41023
1.41697
1.42379
1.4306
1.4374
1.44406
1.45055
1.45676
1.4626
1.46803
1.47288
1.47716
1.48067
1.48351
1.4855
1.48682
1.48745
1.48777
1.48794
1.48765
1.48699
1.48654
1.4864
1.48695
1.48784
1.48918
1.49065
1.49283
1.4954
1.4985
1.50117
1.50303
1.50701
0.825178
0.843294
0.86123
0.878996
0.896523
0.913768
0.930683
0.947289
0.963502
0.979312
0.99467
1.00965
1.02433
1.03891
1.05352
1.06838
1.08349
1.0989
1.11446
1.1301
1.14559
1.16084
1.17566
1.19001
1.20384
1.2171
1.22979
1.24184
1.25326
1.26399
1.27401
1.28328
1.29177
1.29944
1.3062
1.3122
1.31727
1.32159
1.32517
1.3279
1.32982
1.33115
1.33198
1.33259
1.33296
1.33326
1.33378
1.33452
1.33536
1.33637
1.33791
1.34001
1.34261
1.34551
1.34876
1.35235
1.35635
1.36071
1.36542
1.37041
1.3757
1.38124
1.38702
1.39296
1.39906
1.40526
1.41159
1.41799
1.42446
1.43097
1.43742
1.44382
1.45003
1.45604
1.46167
1.46696
1.47169
1.47587
1.47932
1.48207
1.48406
1.48532
1.486
1.48629
1.48642
1.48601
1.48518
1.48466
1.48453
1.485
1.48599
1.4871
1.48883
1.49099
1.49419
1.49751
1.5012
1.50444
1.50672
1.51073
0.813574
0.831694
0.849489
0.866972
0.884092
0.900954
0.917544
0.933908
0.949965
0.965704
0.981108
0.996264
1.01127
1.0263
1.04147
1.0569
1.07257
1.08848
1.1045
1.12051
1.13638
1.15208
1.16741
1.18237
1.1968
1.21076
1.22409
1.2369
1.24907
1.26063
1.27157
1.2818
1.29137
1.30015
1.3082
1.31537
1.32161
1.32694
1.33143
1.33529
1.33827
1.34048
1.34205
1.34318
1.34392
1.34442
1.34489
1.34539
1.34596
1.34672
1.34782
1.3494
1.35145
1.35394
1.35681
1.36006
1.36375
1.3678
1.37226
1.377
1.38211
1.38742
1.39303
1.39872
1.40464
1.41056
1.41667
1.42272
1.42891
1.43498
1.44109
1.447
1.45278
1.45822
1.4633
1.46795
1.47203
1.47552
1.47828
1.48034
1.48161
1.48231
1.48262
1.48266
1.48206
1.48104
1.48028
1.48006
1.48045
1.48122
1.48248
1.48398
1.48648
1.48949
1.49341
1.49728
1.5015
1.50539
1.50809
1.51206
0.801096
0.81867
0.836124
0.853451
0.8706
0.887533
0.904216
0.920605
0.936691
0.952483
0.968011
0.983384
0.998701
1.01412
1.02974
1.0456
1.06171
1.07795
1.09428
1.11057
1.12679
1.14279
1.15848
1.17376
1.18861
1.20299
1.2169
1.23027
1.24315
1.25541
1.2671
1.27812
1.28849
1.29812
1.30703
1.31512
1.32244
1.32893
1.3346
1.33958
1.34381
1.3471
1.34963
1.35148
1.35282
1.35367
1.35424
1.35468
1.35512
1.35568
1.35643
1.35753
1.35902
1.36102
1.36337
1.36625
1.36948
1.37319
1.37724
1.3817
1.3865
1.39161
1.39695
1.40251
1.40822
1.41407
1.41999
1.42598
1.4319
1.43781
1.44349
1.449
1.45418
1.45903
1.46345
1.46734
1.47062
1.47324
1.4751
1.47637
1.477
1.47741
1.47735
1.47658
1.47544
1.47446
1.47413
1.47435
1.47509
1.47596
1.47749
1.47953
1.48271
1.48624
1.49048
1.49469
1.49918
1.50345
1.50639
1.5102
0.788062
0.805111
0.822229
0.839335
0.856332
0.873167
0.889777
0.906144
0.92224
0.938111
0.953807
0.969441
0.985142
1.001
1.01708
1.03336
1.0498
1.06636
1.08294
1.09949
1.11588
1.1321
1.14802
1.16358
1.17877
1.19354
1.20787
1.22172
1.23507
1.24789
1.26015
1.27185
1.2829
1.29336
1.30311
1.3122
1.32054
1.32813
1.33488
1.34083
1.34602
1.3504
1.35386
1.3565
1.35839
1.35972
1.36074
1.36148
1.36208
1.36261
1.36327
1.36408
1.36527
1.36679
1.36876
1.37113
1.37398
1.37728
1.38102
1.38518
1.3897
1.39457
1.39969
1.40507
1.41059
1.41627
1.422
1.42778
1.43351
1.43915
1.4446
1.4498
1.45459
1.45893
1.46267
1.46585
1.46834
1.47006
1.47121
1.47185
1.47216
1.47188
1.47079
1.46966
1.46841
1.46787
1.46791
1.46843
1.46919
1.47024
1.47213
1.47465
1.47816
1.48183
1.48617
1.49042
1.49499
1.4993
1.50238
1.50597
0.772247
0.788987
0.805852
0.822724
0.839558
0.856225
0.872734
0.889039
0.905205
0.921229
0.937216
0.953188
0.969272
0.985472
1.00186
1.0184
1.0351
1.05188
1.0687
1.08547
1.10213
1.1186
1.13481
1.15066
1.1661
1.18112
1.19565
1.20976
1.22333
1.23646
1.24905
1.26111
1.27262
1.28353
1.29388
1.30358
1.3127
1.3211
1.32888
1.33587
1.3422
1.34784
1.35263
1.35657
1.35972
1.36215
1.36386
1.36505
1.36584
1.36645
1.36702
1.36771
1.3686
1.36988
1.37154
1.37367
1.37624
1.37927
1.38273
1.38657
1.39078
1.39528
1.40008
1.40509
1.41027
1.41562
1.42102
1.42648
1.43189
1.43719
1.44229
1.44706
1.45143
1.45529
1.4585
1.46108
1.46281
1.46395
1.46462
1.46484
1.46426
1.46285
1.46149
1.46008
1.45925
1.4591
1.4594
1.45996
1.46083
1.46223
1.46458
1.46749
1.47119
1.47495
1.47942
1.48364
1.48838
1.49263
1.49593
1.49931
0.751296
0.768429
0.785581
0.802637
0.819541
0.836253
0.852778
0.869135
0.885349
0.901503
0.917631
0.933852
0.950171
0.966697
0.983384
1.00028
1.0173
1.0344
1.05149
1.06849
1.08531
1.10189
1.11816
1.13406
1.14955
1.16466
1.17936
1.19367
1.20759
1.22109
1.23416
1.2468
1.259
1.27073
1.28197
1.2927
1.30284
1.31237
1.3212
1.32928
1.33654
1.34307
1.34884
1.35364
1.35757
1.36069
1.3631
1.3649
1.36623
1.3673
1.36816
1.36906
1.37003
1.3713
1.37283
1.37477
1.37711
1.37983
1.38299
1.38646
1.39033
1.39442
1.39886
1.40347
1.4083
1.41326
1.4183
1.42339
1.42841
1.4333
1.43797
1.44224
1.44608
1.44929
1.45185
1.45363
1.45481
1.45546
1.45555
1.45452
1.45307
1.45113
1.44961
1.44832
1.44781
1.44784
1.4482
1.4488
1.44984
1.45177
1.45449
1.45774
1.46151
1.46547
1.46994
1.47425
1.47893
1.4831
1.48643
1.48957
0.726161
0.743238
0.7604
0.777512
0.79451
0.811417
0.828195
0.844909
0.861542
0.8782
0.894893
0.911737
0.928727
0.945909
0.963226
0.98064
0.998074
1.01545
1.03272
1.04981
1.0667
1.08333
1.09974
1.1158
1.13158
1.147
1.16213
1.17689
1.1913
1.20535
1.21903
1.23232
1.24521
1.25769
1.26969
1.28123
1.29215
1.30258
1.31223
1.32124
1.32942
1.33684
1.34343
1.34923
1.35415
1.35828
1.36171
1.36445
1.3667
1.36849
1.37006
1.37141
1.37277
1.37416
1.3757
1.37742
1.37937