/*--------------------------------*- C++ -*----------------------------------*\
  =========                 |
  \\      /  F ield         | OpenFOAM: The Open Source CFD Toolbox
   \\    /   O peration     | Website:  https://openfoam.org
    \\  /    A nd           | Version:  6
     \\/     M anipulation  |
\*---------------------------------------------------------------------------*/
FoamFile
{
    version     2.0;
    format      ascii;
    class       volScalarField;
    location    "9";
    object      p;
}
// * * * * * * * * * * * * * * * * * * * * * * * * * * * * * * * * * * * * * //

dimensions      [1 -1 -2 0 0 0 0];

internalField   nonuniform List<scalar> 
5250
(
1.00011
1.00063
1.00162
1.00426
1.00916
1.02381
1.04843
1.13607
1.26888
1.82639
2.92345
6.74132
14.7285
13.6623
11.9765
11.336
11.3877
11.6015
11.9125
12.0836
12.1775
12.2587
12.3336
12.3922
12.4259
1.00011
1.00063
1.00161
1.00425
1.00913
1.02373
1.04827
1.13562
1.26793
1.82379
2.91686
6.72097
14.6829
13.6191
11.9432
11.3184
11.3761
11.5969
11.9032
12.0708
12.1654
12.2489
12.325
12.3837
12.4188
1.00011
1.00062
1.0016
1.00422
1.00906
1.02356
1.04793
1.13466
1.26575
1.81827
2.90148
6.67383
14.5804
13.5332
11.8766
11.2764
11.3417
11.5708
11.867
12.0272
12.1216
12.2072
12.2842
12.3427
12.3795
1.00011
1.00061
1.00158
1.00417
1.00896
1.02329
1.04739
1.13314
1.26222
1.80949
2.87634
6.59728
14.4213
13.4127
11.7864
11.2124
11.2833
11.5169
11.7991
11.9496
12.0414
12.1261
12.2017
12.2584
12.2958
1.00011
1.0006
1.00156
1.0041
1.00882
1.02292
1.04664
1.13103
1.25761
1.79647
2.84238
6.49025
14.2058
13.2572
11.6739
11.1293
11.204
11.4377
11.7035
11.8425
11.9297
12.0109
12.0833
12.1371
12.1746
1.00011
1.00059
1.00153
1.00402
1.00864
1.02245
1.0457
1.1283
1.25206
1.77898
2.79967
6.35074
13.9322
13.0663
11.5403
11.0292
11.1051
11.3328
11.578
11.7028
11.7823
11.8565
11.9225
11.9713
12.0098
1.0001
1.00058
1.00149
1.00392
1.00842
1.02187
1.04458
1.12489
1.24551
1.75712
2.74723
6.18012
13.597
12.837
11.3911
10.9151
10.9882
11.2017
11.4216
11.5279
11.5936
11.6527
11.7049
11.7433
11.7814
1.0001
1.00056
1.00144
1.0038
1.00816
1.02118
1.04323
1.12084
1.23769
1.73119
2.68503
5.97968
13.1955
12.5577
11.2452
10.791
10.8549
11.0431
11.2326
11.3154
11.3604
11.3906
11.4127
11.4221
11.4473
1.0001
1.00054
1.00139
1.00365
1.00786
1.02038
1.04167
1.11612
1.22871
1.70106
2.61331
5.75032
12.7254
12.2269
11.1055
10.6602
10.7084
10.8598
11.0134
11.0646
11.0735
11.0597
11.0197
10.9517
10.9188
1.00009
1.00051
1.00132
1.00349
1.00751
1.01945
1.03987
1.11068
1.21849
1.6666
2.53194
5.4939
12.1871
11.8493
10.9694
10.527
10.5535
10.6569
10.7672
10.7753
10.7456
10.6579
10.4865
10.2359
9.92712
1.00009
1.00049
1.00125
1.0033
1.0071
1.01838
1.03772
1.10451
1.20596
1.62866
2.43513
5.21498
11.5803
11.4334
10.8455
10.3983
10.3939
10.4432
10.5004
10.4766
10.3832
10.1728
9.80046
9.13464
7.60171
1.00008
1.00045
1.00117
1.00307
1.00661
1.01711
1.03507
1.09754
1.18982
1.58676
2.31908
4.9057
10.8826
11.0514
10.7279
10.2845
10.2208
10.2412
10.2383
10.1808
10.0108
9.6655
9.12565
8.29514
6.83905
1.00007
1.00041
1.00107
1.00281
1.00606
1.01566
1.03216
1.08935
1.17192
1.53974
2.17736
4.55469
10.0395
10.8124
10.5936
10.1845
10.066
10.0532
10.0128
9.89848
9.65152
9.24163
8.67019
7.90113
6.88267
1.00007
1.00037
1.00096
1.00253
1.00545
1.01405
1.0289
1.07994
1.1538
1.48084
2.03779
4.12995
9.04384
10.6643
10.5032
10.1333
9.94166
9.88353
9.80217
9.63835
9.3557
8.95767
8.43842
7.80023
7.0257
1.00006
1.00033
1.00084
1.00221
1.00476
1.01226
1.02525
1.06937
1.13405
1.41307
1.88648
3.64312
7.85557
10.6523
10.5036
10.1058
9.82491
9.71847
9.61273
9.42836
9.1519
8.78653
8.33423
7.80733
7.21192
1.00005
1.00028
1.00071
1.00187
1.00405
1.01036
1.02136
1.05807
1.11271
1.34074
1.72338
3.12239
6.47118
10.6906
10.5358
10.1036
9.72852
9.57414
9.45518
9.27189
9.01372
8.68305
8.28748
7.8327
7.34552
1.00004
1.00023
1.0006
1.00156
1.00337
1.00858
1.01773
1.04739
1.09359
1.27219
1.57418
2.64851
5.16151
10.5653
10.4933
10.1284
9.66661
9.46024
9.33202
9.156
8.91697
8.61847
8.27156
7.88185
7.46314
1.00003
1.00019
1.0005
1.00131
1.00283
1.00719
1.01488
1.03971
1.07717
1.23182
1.45281
2.43552
4.46087
9.94533
10.3291
10.093
9.6296
9.3757
9.23182
9.06646
8.84797
8.5796
8.27314
7.93134
7.56961
1.00003
1.00016
1.00042
1.0011
1.00237
1.00603
1.0125
1.03322
1.06515
1.1939
1.37202
2.20835
3.82311
8.64661
10.1076
9.98616
9.65072
9.33765
9.16006
9.00128
8.80383
8.56268
8.28422
7.98468
7.66938
1.00002
1.00013
1.00035
1.00091
1.00196
1.00497
1.0103
1.0273
1.05341
1.15981
1.29614
1.98983
3.23199
7.21932
10.0991
10.01
9.71178
9.34313
9.12628
8.965
8.78416
8.56567
8.31263
8.04738
7.76829
1.00002
1.00011
1.00028
1.00074
1.0016
1.00404
1.00842
1.02197
1.04425
1.12467
1.24265
1.75099
2.68749
5.64003
10.1131
10.0875
9.84415
9.38111
9.13002
8.9625
8.78777
8.58213
8.35862
8.11879
7.86665
1.00002
1.00009
1.00023
1.0006
1.00131
1.0033
1.00688
1.01786
1.03616
1.10001
1.19888
1.59193
2.33419
4.73643
9.76407
10.0716
9.87987
9.46444
9.15452
8.97229
8.80522
8.62034
8.4165
8.19571
7.96449
1.00001
1.00007
1.00019
1.00049
1.00107
1.00269
1.00561
1.01459
1.02941
1.08284
1.15642
1.49655
2.06907
4.15773
8.81787
9.97997
9.86416
9.55238
9.2108
9.00448
8.84535
8.67609
8.48508
8.27825
8.06319
1.00001
1.00006
1.00015
1.0004
1.00086
1.00218
1.00454
1.01183
1.02372
1.06746
1.12338
1.40891
1.82274
3.55496
7.37199
9.95474
9.90394
9.67725
9.30974
9.07127
8.90334
8.73884
8.55828
8.36469
8.16429
1.00001
1.00005
1.00012
1.00032
1.00069
1.00174
1.00362
1.00938
1.01884
1.05304
1.09665
1.3185
1.61541
2.93403
5.71382
10.0002
10.0587
9.87769
9.48661
9.17361
8.9737
8.80696
8.63613
8.45587
8.26967
1.00001
1.00004
1.00011
1.00024
1.00061
1.00129
1.00327
1.00674
1.01781
1.03557
1.10072
1.19752
1.59968
2.34767
4.75631
9.71615
10.2127
10.0377
9.64186
9.28121
9.05412
8.88458
8.72241
8.55365
8.37958
1.00001
1.00003
1.00009
1.0002
1.0005
1.00106
1.00269
1.00555
1.01464
1.02918
1.08367
1.15594
1.50339
2.08552
4.19095
8.89095
10.2117
10.0972
9.78625
9.40218
9.15055
8.97433
8.81655
8.65669
8.49237
1
1.00002
1.00007
1.00016
1.00041
1.00086
1.00219
1.00451
1.01192
1.02345
1.06895
1.12178
1.42274
1.82926
3.64205
7.54631
10.2866
10.2315
9.9825
9.54699
9.25914
9.07154
8.91565
8.76227
8.60562
1
1.00002
1.00006
1.00013
1.00033
1.0007
1.00178
1.00366
1.00963
1.01901
1.05507
1.09791
1.33437
1.63658
3.04461
5.99165
10.5419
10.5201
10.258
9.73698
9.38338
9.1724
9.01447
8.86575
8.71532
1
1.00002
1.00004
1.00012
1.00025
1.00064
1.00134
1.00343
1.00699
1.01877
1.0369
1.10791
1.20537
1.65242
2.45449
5.10626
10.4096
10.6966
10.4545
9.93089
9.5145
9.27094
9.1056
8.96003
8.8158
1
1.00001
1.00004
1.00009
1.00023
1.0005
1.00126
1.00262
1.00681
1.01374
1.03809
1.07147
1.22842
1.42471
2.44492
4.37268
9.91031
10.7623
10.566
10.1099
9.65477
9.3711
9.18952
9.04419
8.9065
1
1.00001
1.00004
1.00008
1.0002
1.00043
1.0011
1.00228
1.00594
1.012
1.03305
1.06283
1.19797
1.36288
2.25446
3.87336
8.91569
10.859
10.7193
10.3219
9.80014
9.46377
9.26305
9.1189
8.98909
1
1.00001
1.00003
1.00007
1.00018
1.00037
1.00094
1.00195
1.00507
1.01013
1.02854
1.0515
1.17475
1.29861
2.09577
3.42363
7.8764
11.1209
10.9891
10.5364
9.90322
9.51824
9.31347
9.1813
9.06458
1
1.00001
1.00003
1.00006
1.00015
1.00033
1.00082
1.00171
1.00442
1.00895
1.02453
1.04637
1.14687
1.25954
1.9182
3.00841
6.76687
11.6121
11.3753
10.6904
9.94418
9.53744
9.34778
9.23595
9.13405
1
1.00001
1.00002
1.00005
1.00013
1.00028
1.00072
1.00149
1.00386
1.00782
1.02127
1.04136
1.12417
1.22993
1.76649
2.68962
5.85945
11.8747
11.611
10.8155
9.98439
9.55845
9.38338
9.29099
9.20209
1
1.00001
1.00002
1.00005
1.00011
1.00027
1.00057
1.00146
1.00298
1.00795
1.01555
1.04582
1.08115
1.27884
1.53052
2.73475
5.28567
11.7197
11.5527
10.9254
10.0545
9.60426
9.43445
9.35369
9.2728
1
1.00001
1.00002
1.00004
1.00011
1.00023
1.00058
1.00121
1.00316
1.0064
1.01761
1.03368
1.1048
1.18808
1.6486
2.42128
5.2065
11.243
11.3254
10.9228
10.1288
9.67981
9.50378
9.42298
9.34464
1
1.00001
1.00002
1.00004
1.0001
1.00021
1.00053
1.00111
1.00291
1.00588
1.01633
1.03066
1.09871
1.1727
1.61251
2.32121
4.96087
10.7802
11.2268
10.9063
10.2351
9.78972
9.59425
9.50022
9.41728
1
1.00001
1.00001
1.00004
1.00008
1.0002
1.00043
1.00111
1.00227
1.00614
1.01194
1.03624
1.06267
1.23043
1.40147
2.49087
4.46268
10.3628
11.2348
10.9531
10.3532
9.90918
9.69031
9.5785
9.48903
1
1
1.00001
1.00003
1.00008
1.00016
1.00041
1.00084
1.0023
1.00424
1.0138
1.02247
1.08619
1.13792
1.54752
2.1387
4.49767
9.86616
11.2438
11.0133
10.4759
10.0141
9.76804
9.6418
9.55025
1
1
1.00001
1.00003
1.00006
1.00016
1.00033
1.00088
1.00175
1.00506
1.00898
1.03151
1.05045
1.20143
1.33917
2.32904
4.0172
9.41957
11.3387
11.1396
10.6306
10.1197
9.83563
9.69678
9.60653
1
1
1.00001
1.00002
1.00006
1.00013
1.00033
1.00067
1.00189
1.00336
1.01156
1.01835
1.07357
1.11443
1.47833
1.94383
4.05933
8.83246
11.5375
11.3418
10.789
10.2
9.87788
9.73473
9.65143
1
1
1.00001
1.00002
1.00005
1.00013
1.00027
1.00072
1.00137
1.00424
1.00709
1.02622
1.04082
1.16995
1.27317
2.15162
3.50257
8.27992
11.946
11.6676
10.9338
10.2343
9.87893
9.74398
9.67536
1
1
1.00001
1.00002
1.00006
1.00012
1.0003
1.00062
1.00165
1.00321
1.00969
1.01636
1.06154
1.09515
1.3903
1.72588
3.48582
7.34931
12.5833
12.1609
11.1163
10.2533
9.8594
9.73543
9.68333
1
1
1.00001
1.00002
1.00006
1.00012
1.0003
1.00064
1.00167
1.0034
1.00931
1.01797
1.05517
1.09476
1.34453
1.65456
3.13004
6.39482
13.2961
12.694
11.3254
10.2953
9.85081
9.72492
9.68094
1
1
1.00001
1.00002
1.00005
1.00012
1.0003
1.00062
1.00161
1.00329
1.00894
1.01739
1.05219
1.09259
1.31988
1.63263
2.98625
6.21242
13.5103
12.8823
11.4369
10.3465
9.86367
9.72194
9.67355
1
1
1.00001
1.00002
1.00005
1.00011
1.00029
1.0006
1.00156
1.00317
1.00865
1.01682
1.05066
1.08937
1.31262
1.60823
2.95375
6.08105
13.4862
12.8986
11.5143
10.4201
9.90666
9.73321
9.66754
1
1
1.00001
1.00002
1.00005
1.00011
1.00027
1.00056
1.00147
1.00299
1.00825
1.01569
1.04957
1.08386
1.3114
1.59445
2.9446
6.03591
13.4151
12.8738
11.5596
10.4842
9.95375
9.75086
9.66462
1
1
1.00001
1.00002
1.00004
1.00011
1.00023
1.00059
1.00119
1.00329
1.00603
1.01981
1.03194
1.12491
1.20259
1.79274
2.72166
6.21772
13.375
12.8324
11.5316
10.5081
9.97865
9.75861
9.65912
1
1
1.00001
1.00002
1.00005
1.0001
1.00026
1.00055
1.00143
1.00291
1.00808
1.01536
1.04887
1.0826
1.30859
1.58777
2.93122
5.98874
13.3474
12.8578
11.6225
10.5451
9.98666
9.75543
9.65175
4.2773
3.20177
3.39262
4.11686
4.16669
4.04342
3.89827
3.78859
3.73539
3.71617
3.71182
3.71426
3.72199
3.7263
3.72838
3.73147
3.73861
3.75288
3.7767
3.80895
3.84788
3.89184
3.94026
3.99305
4.05051
4.11244
4.17778
4.24506
4.31282
4.38002
4.44593
4.50966
4.57094
4.62893
4.68275
4.73221
4.77708
4.81886
4.8587
4.89519
4.92599
4.94995
4.96862
4.98216
4.99174
4.99707
4.99841
4.99689
4.99194
4.98157
4.96661
4.94823
4.92602
4.89976
4.86964
4.836
4.79915
4.75948
4.71731
4.67308
4.62715
4.5799
4.53161
4.48255
4.43288
4.38276
4.3323
4.28153
4.23054
4.17935
4.12804
4.07666
4.02533
3.97416
3.92333
3.87304
3.82351
3.77499
3.72778
3.68219
3.63856
3.59727
3.55872
3.5234
3.49184
3.46471
3.44278
3.42697
3.41848
3.41851
3.4195
3.42296
3.43158
3.4501
3.48278
3.52159
3.56272
3.60266
3.6375
3.66549
4.84971
3.91028
3.98402
4.22166
4.12482
3.99643
3.8874
3.80919
3.767
3.75148
3.74712
3.74345
3.7421
3.73538
3.73056
3.72844
3.73054
3.74304
3.76741
3.79991
3.83867
3.88212
3.92987
3.98182
4.03862
4.10065
4.16636
4.23404
4.30241
4.37014
4.43645
4.50066
4.56238
4.62074
4.67509
4.72535
4.77135
4.81378
4.85325
4.88932
4.9201
4.9446
4.96361
4.97754
4.98711
4.99245
4.99344
4.99221
4.98783
4.97784
4.96158
4.94275
4.92065
4.89461
4.86471
4.83126
4.79463
4.75518
4.71324
4.66923
4.6235
4.57641
4.52824
4.47927
4.42968
4.37962
4.3292
4.2785
4.22758
4.17649
4.12528
4.07404
4.02286
3.97186
3.92121
3.87109
3.82175
3.77339
3.72634
3.68088
3.63736
3.59614
3.55766
3.52236
3.49082
3.46367
3.44169
3.42582
3.41754
3.41762
3.41872
3.42233
3.43102
3.44948
3.4817
3.52052
3.56216
3.60297
3.63887
3.67049
5.77315
5.0306
4.75555
4.56495
4.3236
4.12688
3.97584
3.86576
3.78903
3.74714
3.72496
3.71599
3.71856
3.72128
3.72255
3.72571
3.73384
3.75084
3.7752
3.80758
3.84631
3.88968
3.93753
3.98929
4.04539
4.10635
4.1711
4.23778
4.30532
4.37226
4.43737
4.5005
4.56093
4.61812
4.67146
4.7209
4.76643
4.80847
4.84727
4.88259
4.91314
4.93808
4.95753
4.97192
4.98161
4.98687
4.98733
4.98625
4.98245
4.97342
4.95619
4.93626
4.91378
4.88784
4.85816
4.82494
4.78853
4.74932
4.70764
4.66387
4.61836
4.57145
4.52343
4.47457
4.42506
4.37508
4.32472
4.2741
4.22326
4.1723
4.12124
4.0702
4.01925
3.96852
3.91816
3.86836
3.81931
3.77127
3.72451
3.67931
3.63603
3.59502
3.55673
3.52159
3.49018
3.46312
3.44122
3.42541
3.41748
3.41767
3.41899
3.42286
3.43178
3.45043
3.48178
3.52019
3.56215
3.60392
3.64097
3.677
6.26546
5.62007
5.18786
4.89472
4.63513
4.39892
4.19228
4.03192
3.91697
3.8506
3.82072
3.80846
3.80237
3.79552
3.78791
3.78363
3.78498
3.79064
3.80454
3.83289
3.87042
3.91258
3.95854
4.00852
4.06235
4.12027
4.18177
4.24542
4.30955
4.37359
4.43624
4.49786
4.55618
4.6112
4.6632
4.71161
4.75638
4.79758
4.83538
4.86958
4.89953
4.92445
4.94423
4.95895
4.96896
4.97421
4.97434
4.97343
4.97024
4.96249
4.94646
4.92505
4.90161
4.87561
4.84632
4.81359
4.77766
4.73891
4.69769
4.65435
4.60924
4.56267
4.51497
4.46637
4.4171
4.36732
4.31718
4.26677
4.21618
4.16547
4.11473
4.06403
4.01348
3.96318
3.91329
3.86396
3.81541
3.76784
3.72156
3.6768
3.63395
3.59335
3.55545
3.52068
3.48959
3.46283
3.44121
3.42559
3.41827
3.41855
3.42008
3.42429
3.43366
3.45298
3.48286
3.52015
3.56176
3.60417
3.64212
3.68272
6.59132
6.01612
5.55705
5.20809
4.92307
4.6766
4.45941
4.27948
4.14221
4.04732
3.98469
3.94199
3.91016
3.88437
3.86397
3.8502
3.84805
3.85076
3.85995
3.88101
3.91723
3.95825
4.00145
4.0475
4.09673
4.14929
4.20517
4.26353
4.32276
4.3826
4.44175
4.49925
4.55469
4.60731
4.65692
4.7033
4.74634
4.78598
4.82229
4.85516
4.88423
4.90882
4.92875
4.9437
4.9543
4.95968
4.95963
4.95878
4.95596
4.94911
4.93476
4.91281
4.88838
4.86197
4.83282
4.80053
4.7651
4.72685
4.68612
4.64324
4.59853
4.55235
4.50498
4.4567
4.40771
4.35822
4.30834
4.25823
4.20795
4.1576
4.10726
4.05701
4.00696
3.9572
3.9079
3.85917
3.81126
3.76433
3.71867
3.67453
3.63228
3.59229
3.55498
3.52083
3.49035
3.46422
3.44322
3.4281
3.42168
3.42206
3.42382
3.42844
3.43842
3.4586
3.48706
3.52252
3.56272
3.60487
3.64257
3.6872
6.83238
6.33542
5.89578
5.53507
5.23675
4.97927
4.75264
4.55808
4.39846
4.27479
4.18056
4.11058
4.05925
4.02047
3.99172
3.97136
3.96097
3.96129
3.96442
3.9735
3.99332
4.02486
4.06136
4.10068
4.1426
4.18781
4.23581
4.2861
4.33877
4.39245
4.44625
4.4993
4.55101
4.60053
4.64756
4.69172
4.73284
4.7708
4.80557
4.83708
4.86502
4.88902
4.90864
4.92376
4.93438
4.9401
4.94016
4.93941
4.93687
4.93074
4.91785
4.89642
4.87168
4.84484
4.81564
4.78362
4.74868
4.71097
4.67076
4.62842
4.58425
4.53859
4.4917
4.44388
4.39534
4.34629
4.29686
4.24719
4.1974
4.14756
4.0978
4.04815
3.99878
3.94973
3.90119
3.85326
3.80613
3.76004
3.71524
3.67201
3.63068
3.59159
3.55515
3.52187
3.49229
3.46707
3.44707
3.43286
3.42776
3.42825
3.43026
3.43533
3.44608
3.46661
3.49397
3.52733
3.5651
3.60574
3.64178
3.68908
7.0273
6.59897
6.20313
5.85434
5.54885
5.28516
5.0559
4.85361
4.67843
4.53258
4.41483
4.32186
4.25152
4.19638
4.15376
4.12131
4.09836
4.08572
4.08322
4.08479
4.09059
4.10438
4.13066
4.16115
4.19567
4.23337
4.2732
4.31553
4.36024
4.40695
4.45449
4.50213
4.5492
4.59494
4.63881
4.68028
4.71909
4.755
4.78792
4.81784
4.84431
4.86723
4.88631
4.90115
4.91142
4.91754
4.91782
4.91711
4.91474
4.90914
4.8973
4.87699
4.85263
4.82574
4.79648
4.76465
4.73012
4.69297
4.6534
4.6117
4.56814
4.52307
4.47676
4.4295
4.3815
4.33299
4.28412
4.23502
4.18584
4.13663
4.08756
4.03866
3.99008
3.94188
3.89425
3.84734
3.80129
3.75628
3.71253
3.67035
3.63004
3.59202
3.55668
3.5246
3.4963
3.4724
3.45379
3.44088
3.4375
3.4381
3.44035
3.44583
3.45737
3.47795
3.50423
3.53532
3.56992
3.60781
3.64099
3.68922
7.19551
6.82282
6.46781
6.14223
5.84982
5.58804
5.3513
5.14091
4.95812
4.80131
4.66851
4.5581
4.46875
4.39705
4.33976
4.29433
4.25922
4.23437
4.21953
4.21196
4.21212
4.21413
4.2205
4.2346
4.25809
4.28489
4.31516
4.34838
4.38475
4.42346
4.46398
4.50543
4.54716
4.58848
4.62871
4.66724
4.70357
4.73736
4.7684
4.79655
4.82163
4.84353
4.86158
4.87571
4.8858
4.89193
4.8923
4.89166
4.88947
4.88428
4.87329
4.85413
4.83061
4.80409
4.77497
4.74332
4.70913
4.67248
4.63353
4.59249
4.54964
4.50525
4.45963
4.41303
4.36571
4.31786
4.26967
4.22127
4.17281
4.12438
4.07611
4.0281
3.9805
3.93343
3.88693
3.84115
3.7962
3.75233
3.70973
3.66878
3.62977
3.59312
3.55927
3.52876
3.50213
3.47995
3.46308
3.45189
3.45033
3.45103
3.45347
3.45932
3.47157
3.49204
3.51707
3.54562
3.57658
3.61084
3.64041
3.68747
7.34424
7.01712
6.69896
6.39756
6.11997
5.86471
5.63262
5.4238
5.23593
5.069
4.9241
4.80134
4.69932
4.61458
4.54422
4.48601
4.43827
4.40029
4.37166
4.35112
4.33749
4.32841
4.32575
4.32692
4.33142
4.34198
4.36151
4.38438
4.41114
4.44194
4.47515
4.51007
4.5461
4.58256
4.61874
4.65392
4.68749
4.71896
4.74801
4.77436
4.79788
4.81837
4.83574
4.84879
4.85833
4.86418
4.86456
4.86397
4.86189
4.85693
4.84646
4.8284
4.80595
4.78016
4.75148
4.72017
4.68637
4.65022
4.61189
4.57155
4.52946
4.48584
4.44101
4.39519
4.34866
4.30159
4.25419
4.2066
4.15897
4.11145
4.06419
4.01732
3.97087
3.92494
3.87959
3.83499
3.79128
3.74871
3.70752
3.66807
3.63063
3.59568
3.56368
3.53511
3.51052
3.49047
3.47569
3.46673
3.46674
3.46756
3.47025
3.47657
3.48968
3.50958
3.53283
3.55845
3.58547
3.61554
3.64097
3.68519
7.48029
7.18925
6.90235
6.62549
6.36302
6.11872
5.89334
5.68669
5.49881
5.33034
5.18134
5.05093
4.93741
4.83986
4.75678
4.68624
4.62648
4.57596
4.53392
4.49957
4.47205
4.45041
4.43429
4.42296
4.41698
4.41746
4.4202
4.42748
4.44258
4.46375
4.4877
4.51549
4.54524
4.57622
4.60798
4.63947
4.66999
4.69894
4.72587
4.75044
4.77239
4.79154
4.80784
4.82039
4.82902
4.83443
4.83468
4.83411
4.83212
4.82731
4.8172
4.80012
4.77879
4.75396
4.726
4.69523
4.66193
4.62631
4.58859
4.54895
4.50763
4.46485
4.42088
4.37594
4.33028
4.2841
4.23758
4.19091
4.14428
4.09787
4.05176
4.00604
3.96076
3.91602
3.87193
3.82866
3.78638
3.74533
3.70579
3.66808
3.63249
3.59955
3.5697
3.54342
3.52123
3.50368
3.49126
3.4853
3.48555
3.48678
3.49005
3.49723
3.51147
3.52986
3.55061
3.57284
3.59572
3.62137
3.64247
3.68243
7.60691
7.34408
7.08318
6.82867
6.58419
6.35283
6.13615
5.93507
5.75012
5.58166
5.42965
5.29369
5.17297
5.06673
4.97357
4.89182
4.81993
4.7567
4.70148
4.65381
4.61304
4.57843
4.54941
4.52559
4.50705
4.49407
4.48565
4.48496
4.48643
4.4915
4.50308
4.52282
4.5449
4.56894
4.59569
4.62333
4.65072
4.67705
4.7018
4.72455
4.74496
4.76285
4.77809
4.7902
4.79805
4.80296
4.80307
4.80248
4.80051
4.79578
4.78593
4.76976
4.74955
4.72579
4.69875
4.66873
4.63608
4.60108
4.56401
4.52509
4.48456
4.44266
4.3996
4.35562
4.31092
4.26571
4.22018
4.1746
4.12913
4.0839
4.03899
3.99447
3.95045
3.90702
3.86434
3.82255
3.78188
3.74255
3.70487
3.6691
3.63572
3.60511
3.57776
3.55413
3.53469
3.51996
3.51019
3.50725
3.50767
3.50926
3.51317
3.52153
3.53595
3.55261
3.57035
3.5888
3.60735
3.62841
3.64541
3.67974
7.72708
7.48717
7.24842
7.014
6.78675
6.56918
6.36302
6.16946
5.98918
5.82259
5.66976
5.53055
5.40444
5.29074
5.18843
5.09638
5.0135
4.93882
4.87168
4.81165
4.75835
4.71126
4.66991
4.634
4.60329
4.5779
4.55768
4.54329
4.534
4.53155
4.53265
4.53686
4.54685
4.56489
4.58233
4.6049
4.62874
4.65235
4.67493
4.69589
4.71486
4.73161
4.74596
4.75757
4.76493
4.76949
4.76948
4.7689
4.76694
4.76231
4.7527
4.73748
4.71837
4.69572
4.66972
4.64065
4.60883
4.57459
4.53825
4.5001
4.46039
4.41938
4.37727
4.33429
4.29061
4.24646
4.20209
4.15771
4.11348
4.06947
4.02581
3.98258
3.93992
3.89793
3.85679
3.81666
3.77777
3.74037
3.70481
3.67129
3.64036
3.61241
3.58791
3.56726
3.5509
3.53921
3.53242
3.53196
3.53254
3.53453
3.53922
3.54897
3.56259
3.57692
3.59125
3.60565
3.61986
3.63618
3.64957
3.67694
7.84422
7.62377
7.40424
7.18776
6.97644
6.77229
6.57688
6.39138
6.2165
6.05269
5.90014
5.75883
5.62848
5.50862
5.39861
5.29773
5.2052
5.12026
5.0423
4.971
4.90616
4.8474
4.7944
4.74676
4.70446
4.66745
4.63583
4.60968
4.58897
4.57418
4.56438
4.56084
4.56174
4.56542
4.57429
4.58787
4.60519
4.62509
4.645
4.66399
4.6816
4.69738
4.71102
4.72216
4.72925
4.73368
4.73366
4.73307
4.73119
4.72679
4.71769
4.70336
4.68528
4.66373
4.63887
4.61091
4.58012
4.54682
4.51136
4.47406
4.43524
4.39515
4.35403
4.31207
4.26948
4.2265
4.18339
4.14029
4.09733
4.05464
4.01232
3.9705
3.92931
3.8889
3.84945
3.81115
3.77424
3.73903
3.70575
3.67486
3.64673
3.62179
3.60046
3.58311
3.5701
3.56158
3.5583
3.55856
3.55967
3.56255
3.56877
3.57944
3.59096
3.6022
3.61277
3.62311
3.63303
3.6445
3.65425
3.6745
7.96141
7.75783
7.55502
7.35428
7.15715
6.96519
6.77975
6.60188
6.43228
6.27144
6.11961
5.9769
5.84324
5.71839
5.60202
5.49364
5.39275
5.29878
5.21128
5.12993
5.05469
4.98531
4.92149
4.86318
4.8102
4.76246
4.71996
4.68277
4.65095
4.62464
4.60392
4.58886
4.57885
4.57462
4.57523
4.57794
4.58459
4.59809
4.61299
4.62909
4.64508
4.65988
4.67287
4.68363
4.69061
4.69511
4.69515
4.69462
4.69291
4.68889
4.68056
4.66715
4.65009
4.62967
4.60603
4.57932
4.54975
4.51759
4.48319
4.44689
4.40903
4.36993
4.32983
4.28894
4.24752
4.20583
4.16402
4.12226
4.08065
4.03935
3.99848
3.95819
3.91862
3.87994
3.84235
3.80609
3.77141
3.73866
3.708
3.67999
3.655
3.63341
3.61558
3.60182
3.59233
3.58716
3.58678
3.58732
3.5891
3.59327
3.60172
3.61125
3.61989
3.62779
3.63443
3.64082
3.64659
3.653
3.65899
3.67196
8.08113
7.89189
7.70317
7.51579
7.33078
7.14933
6.97256
6.80141
6.63655
6.47849
6.32757
6.184
6.04785
5.91909
5.79757
5.68302
5.5751
5.47346
5.37774
5.28762
5.2031
5.12411
5.05063
4.98245
4.91947
4.86163
4.80892
4.76136
4.719
4.68198
4.65035
4.62416
4.60358
4.58862
4.57892
4.57463
4.57481
4.57678
4.58212
4.59319
4.60595
4.61904
4.6312
4.64145
4.64855
4.65333
4.65372
4.65327
4.65175
4.64818
4.64077
4.62845
4.61252
4.59332
4.571
4.54569
4.51752
4.4867
4.45353
4.41839
4.38164
4.34363
4.3046
4.26488
4.22474
4.18437
4.14394
4.10358
4.06343
4.02364
3.98435
3.94573
3.90793
3.87117
3.83567
3.80167
3.76949
3.7394
3.71177
3.68701
3.66549
3.64758
3.63354
3.62357
3.6177
3.61612
3.61651
3.61789
3.62121
3.62797
3.63623
3.64328
3.64866
3.65304
3.65622
3.65877
3.66035
3.66128
3.66347
3.66941
8.20309
8.02574
7.84868
7.67238
7.49748
7.32485
7.15543
6.99001
6.8293
6.67379
6.52389
6.3799
6.242
6.11029
5.98471
5.86516
5.75142
5.64329
5.5405
5.44281
5.35018
5.26276
5.1805
5.10331
5.03115
4.96398
4.90178
4.84456
4.79237
4.7452
4.70325
4.66678
4.63572
4.61019
4.59024
4.57577
4.56716
4.56087
4.56112
4.56282
4.56733
4.57652
4.58626
4.59547
4.60264
4.60773
4.60904
4.60868
4.60741
4.6044
4.59811
4.58702
4.57232
4.55443
4.53356
4.5098
4.48319
4.45389
4.42216
4.38837
4.35289
4.31608
4.27828
4.23986
4.20106
4.16209
4.1231
4.08424
4.04565
4.0075
3.96995
3.93315
3.89733
3.86269
3.8295
3.79805
3.76869
3.74156
3.71729
3.69614
3.67846
3.66453
3.65452
3.64845
3.64637
3.64666
3.64787
3.65088
3.65708
3.66448
3.67071
3.67458
3.677
3.67793
3.67765
3.67649
3.67368
3.66815
3.66681
3.66839
8.32562
8.15809
7.99057
7.82335
7.65678
7.49149
7.32823
7.16774
7.01067
6.85755
6.70882
6.56481
6.42577
6.29185
6.16312
6.03954
5.92103
5.80747
5.69868
5.59449
5.49488
5.40003
5.30998
5.22472
5.14425
5.06855
4.99763
4.93148
4.87015
4.81369
4.76221
4.71586
4.67481
4.63908
4.6089
4.58431
4.56565
4.55152
4.54124
4.53642
4.53654
4.53769
4.54084
4.54731
4.55346
4.5583
4.56071
4.56051
4.55961
4.55733
4.55244
4.5427
4.52926
4.51278
4.4935
4.47143
4.44652
4.4189
4.3888
4.35655
4.32253
4.28713
4.25075
4.21376
4.17642
4.13894
4.10149
4.06424
4.02736
3.991
3.95534
3.92058
3.88693
3.85467
3.82407
3.79546
3.76919
3.7455
3.7249
3.7077
3.69416
3.68447
3.67862
3.67657
3.67688
3.67815
3.68135
3.68786
3.69514
3.70073
3.7039
3.70473
3.70443
3.70319
3.69993
3.69308
3.68365
3.67427
3.66834
3.66934
8.44677
8.28712
8.12737
7.96761
7.80797
7.64889
7.49096
7.33482
7.18109
7.03029
6.88287
6.73917
6.59949
6.46401
6.33285
6.20607
6.08364
5.96554
5.85167
5.74196
5.63633
5.53498
5.43807
5.34565
5.25774
5.17435
5.09549
5.0212
4.9515
4.88646
4.82619
4.77075
4.72034
4.6752
4.63533
4.60074
4.57168
4.54867
4.52976
4.51548
4.50691
4.50191
4.50113
4.50163
4.50317
4.5064
4.509
4.50895
4.50842
4.50677
4.503
4.49518
4.48319
4.46838
4.45086
4.43056
4.40745
4.38161
4.35328
4.32275
4.2904
4.25663
4.22188
4.18649
4.15074
4.11487
4.07911
4.04362
4.00858
3.97418
3.94061
3.90809
3.87688
3.84727
3.81957
3.7942
3.77124
3.75142
3.73491
3.72199
3.71284
3.70754
3.70598
3.70639
3.70798
3.7118
3.71938
3.72702
3.73269
3.73533
3.73525
3.73459
3.73258
3.72789
3.71838
3.70628
3.69288
3.68058
3.67026
3.67101
8.56308
8.41035
8.2573
8.1039
7.95026
7.79662
7.64346
7.49135
7.34083
7.19239
7.04646
6.90339
6.76348
6.62694
6.49396
6.36462
6.23898
6.1171
5.99894
5.88449
5.77374
5.66683
5.56398
5.46528
5.37077
5.2805
5.19448
5.11276
5.03538
4.9624
4.89393
4.83005
4.7709
4.71662
4.66742
4.62363
4.58535
4.55264
4.52578
4.50192
4.48413
4.47145
4.4633
4.45841
4.45602
4.45577
4.4558
4.45564
4.45501
4.45345
4.4501
4.44348
4.43381
4.42116
4.40559
4.38715
4.3659
4.34196
4.31555
4.28693
4.25647
4.22456
4.19164
4.15803
4.12406
4.08999
4.05607
4.02249
3.98948
3.95723
3.92596
3.89592
3.86741
3.84074
3.81629
3.79448
3.77538
3.75965
3.74754
3.73914
3.73462
3.73399
3.7346
3.73673
3.74162
3.75064
3.75915
3.76532
3.76794
3.76779
3.7669
3.76442
3.75893
3.74793
3.73412
3.71856
3.70213
3.68721
3.67262
3.67306
8.67038
8.52415
8.37772
8.2307
8.08282
7.93435
7.78574
7.6375
7.49014
7.34412
7.19985
7.05768
6.91789
6.78074
6.64643
6.51514
6.38697
6.26192
6.14015
6.02169
5.90654
5.79486
5.68689
5.58272
5.48239
5.38596
5.29348
5.20501
5.12061
5.04036
4.96436
4.89273
4.82558
4.76307
4.70539
4.65269
4.60518
4.56306
4.52659
4.49587
4.46835
4.44734
4.43138
4.41978
4.41183
4.40683
4.40381
4.40171
4.39989
4.39763
4.39439
4.3893
4.38157
4.37098
4.35746
4.34105
4.32184
4.29997
4.27564
4.24912
4.22075
4.19093
4.16004
4.12844
4.09645
4.06438
4.03249
4.00103
3.97023
3.94034
3.9116
3.88433
3.85882
3.83541
3.81459
3.7965
3.78178
3.77063
3.76329
3.75946
3.75964
3.76076
3.76385
3.77049
3.78072
3.79059
3.79775
3.80085
3.80073
3.79987
3.79741
3.79183
3.78052
3.76573
3.74867
3.73036
3.71126
3.69397
3.67546
3.6755
8.76875
8.62983
8.48982
8.34853
8.20594
8.06232
7.91807
7.77364
7.62948
7.486
7.34357
7.20255
7.06322
6.92588
6.79071
6.65794
6.52769
6.40016
6.2754
6.1535
6.03453
5.91868
5.80619
5.69716
5.59165
5.48971
5.3914
5.29681
5.20603
5.11916
5.0363
4.95757
4.88309
4.81299
4.74745
4.68664
4.63076
4.58007
4.53468
4.49498
4.46029
4.42983
4.40577
4.38687
4.37242
4.36185
4.3542
4.34878
4.34476
4.34132
4.33767
4.33303
4.32662
4.3178
4.30634
4.2921
4.27513
4.25552
4.23347
4.20924
4.18317
4.15565
4.12702
4.09766
4.06789
4.03805
4.00842
3.97929
3.95093
3.92364
3.89773
3.87352
3.85139
3.83171
3.81496
3.80108
3.79089
3.78454
3.78212
3.7825
3.78423
3.78872
3.79796
3.8095
3.82076
3.82923
3.8337
3.83364
3.83291
3.83068
3.82556
3.81503
3.79978
3.78193
3.76227
3.74158
3.72015
3.70067
3.67948
3.67772
8.85968
8.72791
8.59385
8.45779
8.32005
8.18096
8.04086
7.90015
7.75918
7.61833
7.47792
7.33828
7.19973
7.06252
6.92692
6.79313
6.66136
6.53178
6.40451
6.27969
6.15745
6.0379
5.92133
5.80794
5.69777
5.59087
5.48731
5.38719
5.29062
5.19773
5.10863
5.02347
4.94234
4.86537
4.79271
4.72452
4.66101
4.60238
4.54884
4.50059
4.45811
4.41972
4.38703
4.35998
4.33815
4.32103
4.30804
4.29841
4.29121
4.28559
4.28065
4.27564
4.2697
4.26215
4.25247
4.24037
4.22571
4.20853
4.18895
4.16722
4.14367
4.11866
4.09255
4.06569
4.03843
4.01108
3.98398
3.95745
3.93182
3.90742
3.88462
3.86379
3.84534
3.82976
3.81718
3.8081
3.80284
3.80187
3.80256
3.8051
3.8112
3.82327
3.83648
3.84907
3.85912
3.86526
3.86616
3.86563
3.8638
3.85936
3.85001
3.83506
3.81705
3.7968
3.77496
3.75219
3.7288
3.70735
3.68428
3.68015
8.94496
8.82013
8.69146
8.56004
8.42658
8.29158
8.15529
8.01802
7.88006
7.74174
7.60336
7.46522
7.3276
7.1908
7.05504
6.92057
6.78762
6.65637
6.527
6.39968
6.27456
6.15174
6.03154
5.91423
5.79986
5.68848
5.58018
5.47506
5.37325
5.27488
5.18008
5.08894
5.00163
4.9183
4.8391
4.76419
4.69374
4.62794
4.567
4.51113
4.46051
4.41572
4.37448
4.33961
4.31023
4.28606
4.26672
4.25167
4.24014
4.23129
4.22424
4.21807
4.21192
4.20498
4.19662
4.18637
4.17393
4.1592
4.14223
4.1232
4.10239
4.08014
4.05681
4.0327
4.00818
3.98359
3.95929
3.93565
3.91304
3.89188
3.87256
3.85552
3.84123
3.83017
3.82231
3.81814
3.81827
3.81953
3.82333
3.83175
3.84555
3.86071
3.87495
3.88681
3.89485
3.89764
3.89734
3.89603
3.89259
3.88507
3.87078
3.85299
3.8327
3.81044
3.78673
3.76223
3.73719
3.71404
3.68954
3.68305
9.02383
8.90526
8.78155
8.65474
8.52566
8.39465
8.26201
8.12801
7.99291
7.857
7.72058
7.58393
7.44732
7.31102
7.17527
7.04034
6.90644
6.77381
6.64265
6.51313
6.38545
6.25971
6.13624
6.01533
5.8971
5.7816
5.66897
5.55932
5.45278
5.34949
5.24959
5.1532
5.06047
4.97153
4.88651
4.80558
4.72887
4.6566
4.58893
4.52609
4.46824
4.4157
4.36824
4.32568
4.2888
4.25741
4.23129
4.21006
4.1932
4.17999
4.16962
4.1612
4.15385
4.1467
4.13898
4.13013
4.1197
4.10739
4.09313
4.07699
4.0592
4.04001
4.01974
3.99868
3.97719
3.95565
3.93447
3.91406
3.89484
3.87729
3.86187
3.84906
3.83935
3.8329
3.83041
3.83084
3.8329
3.83832
3.84969
3.86493
3.88164
3.89773
3.91155
3.92189
3.92741
3.9274
3.92672
3.92437
3.91873
3.90687
3.88932
3.86916
3.84691
3.82295
3.7977
3.77175
3.7453
3.72066
3.695
3.68636
9.0993
8.98561
8.86606
8.74328
8.61814
8.49089
8.3617
8.23076
8.09832
7.96466
7.83006
7.69478
7.55912
7.42334
7.2877
7.15244
7.01781
6.88404
6.75135
6.61995
6.49003
6.36173
6.23533
6.11115
5.98938
5.87015
5.7536
5.63985
5.52906
5.42135
5.31686
5.21573
5.11807
5.02404
4.93375
4.84737
4.76503
4.68691
4.61319
4.54406
4.47972
4.42034
4.36639
4.31661
4.2727
4.23426
4.2013
4.17356
4.15071
4.13231
4.11761
4.10587
4.09627
4.08797
4.08017
4.07214
4.0633
4.0532
4.04166
4.02858
4.01403
3.99818
3.98124
3.96352
3.94539
3.92725
3.90956
3.89274
3.87733
3.86381
3.85277
3.84466
3.83982
3.83892
3.83974
3.84279
3.85002
3.86459
3.88135
3.89933
3.91705
3.93303
3.94578
3.95413
3.9564
3.95598
3.95437
3.95021
3.9413