/*--------------------------------*- C++ -*----------------------------------*\
  =========                 |
  \\      /  F ield         | OpenFOAM: The Open Source CFD Toolbox
   \\    /   O peration     | Website:  https://openfoam.org
    \\  /    A nd           | Version:  6
     \\/     M anipulation  |
\*---------------------------------------------------------------------------*/
FoamFile
{
    version     2.0;
    format      ascii;
    class       surfaceScalarField;
    location    "9";
    object      phi;
}
// * * * * * * * * * * * * * * * * * * * * * * * * * * * * * * * * * * * * * //

dimensions      [1 0 -1 0 0 0 0];

internalField   nonuniform List<scalar> 
10325
(
0.00840001
7.04214e-10
0.0084
4.40791e-09
0.00839999
1.33808e-08
0.00839995
3.56219e-08
0.00839987
8.01926e-08
0.00839964
1.91941e-07
0.00839921
4.01368e-07
0.00839798
1.00523e-06
0.00839527
2.26474e-06
0.0083884
6.50476e-06
0.00836934
1.65964e-05
0.00828313
7.92276e-05
0.00785816
0.000409282
0.00728639
0.000559292
0.00667026
0.000598926
0.00606173
0.000593116
0.005446
0.000599791
0.00485097
0.000587779
0.00423906
0.000615977
0.00357664
0.000654303
0.0028627
0.000679227
0.00215848
0.000695039
0.00145171
0.000712657
0.000733086
0.000731843
0.000737436
0.00840001
1.4791e-09
0.0084
9.2774e-09
0.00839999
2.80172e-08
0.00839994
7.49383e-08
0.00839985
1.68202e-07
0.00839961
4.06843e-07
0.00839913
8.48198e-07
0.00839778
2.13599e-06
0.0083946
4.98538e-06
0.008387
1.37543e-05
0.00836421
3.69399e-05
0.00826065
0.000175845
0.0077885
0.000865804
0.00724163
0.00109375
0.006676
0.00114745
0.00609978
0.00115399
0.00550311
0.00118064
0.00489454
0.00118916
0.00426545
0.0012491
0.00359393
0.00131833
0.00287298
0.00136586
0.00215982
0.00139904
0.00144642
0.0014319
0.000729929
0.00146158
0.00147183
0.00840001
2.31224e-09
0.0084
1.45032e-08
0.00839999
4.37503e-08
0.00839994
1.17203e-07
0.00839984
2.63205e-07
0.00839958
6.38784e-07
0.00839906
1.33452e-06
0.00839762
3.36781e-06
0.0083942
7.9417e-06
0.00838585
2.17589e-05
0.00836096
5.9439e-05
0.00825022
0.000279722
0.00777098
0.00132958
0.00722133
0.00163116
0.00667408
0.00167778
0.00612036
0.00169254
0.00554304
0.00174235
0.0049387
0.00178666
0.00430697
0.00188511
0.00363111
0.00198769
0.00290338
0.00205969
0.00217917
0.00211391
0.00145373
0.00216269
0.000727328
0.00220135
0.00220405
0.00840001
3.17477e-09
0.0084
1.98882e-08
0.00839998
6.00366e-08
0.00839994
1.60581e-07
0.00839984
3.61812e-07
0.00839957
8.7283e-07
0.00839904
1.84038e-06
0.00839755
4.64129e-06
0.00839455
1.05801e-05
0.0083848
3.09898e-05
0.00836079
8.13966e-05
0.00824884
0.000384697
0.00777219
0.00179094
0.00722314
0.0021681
0.00668934
0.00219505
0.00615551
0.00221187
0.00559623
0.00228668
0.00500619
0.00237048
0.0043807
0.00251512
0.00370816
0.00265504
0.00297598
0.00275786
0.00224251
0.00283766
0.00149614
0.00291505
0.000745494
0.00296549
0.00295335
0.00840001
4.03987e-09
0.0084
2.53092e-08
0.00839999
7.63977e-08
0.00839994
2.04334e-07
0.00839984
4.59532e-07
0.00839957
1.1103e-06
0.00839907
2.32458e-06
0.00839754
5.95606e-06
0.00839485
1.3086e-05
0.00838451
4.03306e-05
0.00836081
0.00010379
0.00824874
0.00048965
0.00778379
0.00224114
0.00723908
0.00270154
0.00671582
0.00270273
0.00620105
0.00271236
0.00566463
0.00280804
0.00509297
0.00293551
0.00448353
0.00312883
0.00382355
0.00331161
0.00309494
0.00345424
0.00235064
0.00357184
0.00158158
0.00368816
0.000796169
0.00376435
0.00375451
0.00840001
4.9451e-09
0.0084
3.09846e-08
0.00839998
9.34564e-08
0.00839994
2.50126e-07
0.00839983
5.60841e-07
0.00839955
1.36088e-06
0.00839905
2.81731e-06
0.00839745
7.34669e-06
0.00839465
1.57485e-05
0.00838439
4.95821e-05
0.00835987
0.000127102
0.00825404
0.000588199
0.00780499
0.00267613
0.00726143
0.00323469
0.00675261
0.00319646
0.00626279
0.00318811
0.00575431
0.00330187
0.00520827
0.00347576
0.00462201
0.00371968
0.00398154
0.00395031
0.00325758
0.00414519
0.0025076
0.00431046
0.00171902
0.00448025
0.00087943
0.00461904
0.00463981
0.00840001
5.89567e-09
0.0084
3.69326e-08
0.00839998
1.11414e-07
0.00839993
2.9806e-07
0.00839982
6.68779e-07
0.00839954
1.61971e-06
0.00839898
3.36145e-06
0.00839741
8.71444e-06
0.00839429
1.87244e-05
0.00838443
5.84687e-05
0.00836016
0.000150154
0.00826361
0.000677833
0.00783467
0.00309136
0.00727322
0.0037859
0.00681173
0.00364341
0.00635363
0.0036327
0.00587607
0.00376516
0.00535891
0.0039868
0.0048039
0.0042794
0.00419396
0.00456086
0.00349357
0.00481552
0.00274116
0.00505092
0.00191482
0.00530966
0.00100663
0.00554124
0.00565117
0.00840001
6.8888e-09
0.0084
4.31538e-08
0.00839998
1.30212e-07
0.00839993
3.48201e-07
0.00839982
7.80715e-07
0.00839952
1.88962e-06
0.00839896
3.91009e-06
0.00839732
1.01474e-05
0.00839431
2.15977e-05
0.00838434
6.74695e-05
0.00836073
0.000172654
0.0082735
0.000758496
0.00788133
0.00346998
0.00734908
0.00430772
0.00689762
0.00408195
0.00646708
0.00405082
0.00602658
0.00419248
0.00555211
0.00445598
0.00504065
0.00479615
0.00447182
0.00513136
0.00380691
0.00545551
0.00307483
0.00576566
0.00224434
0.00613973
0.00123593
0.00656551
0.00689201
0.00840001
7.99284e-09
0.0084
5.00712e-08
0.00839998
1.51159e-07
0.00839992
4.03963e-07
0.0083998
9.05306e-07
0.00839947
2.18836e-06
0.00839885
4.51646e-06
0.00839709
1.17109e-05
0.00839387
2.46774e-05
0.00838345
7.6938e-05
0.00835992
0.000195221
0.00828067
0.000831531
0.0079361
0.00380133
0.00744893
0.00478596
0.00700501
0.00451299
0.00660349
0.00444002
0.00620432
0.00457885
0.00578499
0.00486944
0.00533329
0.00524898
0.00482873
0.00563701
0.00426225
0.00600559
0.00359912
0.00640686
0.00277939
0.0069552
0.00170787
0.00765102
0.00860534
0.00840001
9.32984e-09
0.0084
5.84469e-08
0.00839998
1.76574e-07
0.0083999
4.71636e-07
0.00839975
1.06047e-06
0.00839936
2.55133e-06
0.00839853
5.32619e-06
0.00839659
1.34652e-05
0.00839179
2.93296e-05
0.0083814
8.63782e-05
0.00834929
0.000226646
0.00827694
0.000898012
0.00796303
0.00410265
0.00751253
0.00522699
0.00711715
0.00489531
0.00676173
0.00478427
0.00641132
0.00491686
0.00605556
0.00521837
0.00568551
0.00561743
0.00531474
0.00600852
0.00487007
0.00643815
0.00431494
0.00694142
0.00366364
0.00759724
0.00276724
0.00856291
0.0113776
0.00840001
1.09343e-08
0.0084
6.84436e-08
0.00839997
2.06837e-07
0.00839989
5.51993e-07
0.00839969
1.25109e-06
0.00839924
2.97923e-06
0.00839814
6.40787e-06
0.00839603
1.53888e-05
0.00838935
3.58607e-05
0.0083778
9.69515e-05
0.00833924
0.000265136
0.0082479
0.000983779
0.00788643
0.00445221
0.00759203
0.00551135
0.00723799
0.00523836
0.00693955
0.00507085
0.00662469
0.00522146
0.00637028
0.00546494
0.00612868
0.00585607
0.00588668
0.00625177
0.00560602
0.0067043
0.00531217
0.00721872
0.00513702
0.0077565
0.00550557
0.0081936
0.00792255
0.00896864
0.00840001
1.24233e-08
0.0084
7.78526e-08
0.00839997
2.34827e-07
0.00839989
6.28441e-07
0.00839973
1.41325e-06
0.00839927
3.4105e-06
0.00839853
7.1294e-06
0.00839597
1.77885e-05
0.00839154
4.0119e-05
0.00837982
0.000107846
0.00833008
0.000313999
0.00822712
0.00108258
0.00777154
0.00489611
0.0076779
0.00559489
0.00733894
0.00556729
0.00707692
0.00532147
0.00688251
0.00540653
0.00670728
0.00563275
0.00660684
0.00595161
0.00650555
0.00635603
0.00640352
0.00679894
0.00641891
0.00718807
0.0066687
0.00749394
0.00729047
0.0075657
0.00695397
0.00826156
0.00840001
1.38766e-08
0.0084
8.6887e-08
0.00839998
2.62287e-07
0.0083999
7.00896e-07
0.00839973
1.58008e-06
0.00839933
3.79204e-06
0.00839845
7.98849e-06
0.00839597
2.01212e-05
0.00839353
4.24159e-05
0.0083743
0.000126299
0.00836271
0.000324697
0.00822979
0.00121181
0.00785187
0.00526286
0.00756749
0.00587034
0.00738575
0.00573889
0.00726194
0.00543375
0.00716078
0.00549685
0.00706902
0.00571533
0.00700544
0.00600838
0.00701452
0.00635253
0.00711017
0.00670086
0.00733976
0.00695012
0.00771228
0.00710461
0.008235
0.00702859
0.00648158
0.00870164
0.00840002
1.52567e-08
0.00840001
9.54784e-08
0.00839998
2.87826e-07
0.00839991
7.70118e-07
0.00839975
1.73827e-06
0.00839934
4.17856e-06
0.00839848
8.83109e-06
0.00839615
2.23191e-05
0.00839226
4.62242e-05
0.00837804
0.000139788
0.0083517
0.000350126
0.00827361
0.00128731
0.00801607
0.0055088
0.0077177
0.00615939
0.00759369
0.00585286
0.0074723
0.00554362
0.00739938
0.00555792
0.0073516
0.00575285
0.00736093
0.00599288
0.00746783
0.00624585
0.00769402
0.00647913
0.00801221
0.00662608
0.00840663
0.00669589
0.00887024
0.00654703
0.00617477
0.00915862
0.00840002
1.59452e-08
0.00840001
9.97347e-08
0.0084
2.99891e-07
0.00839996
8.04298e-07
0.00839988
1.81628e-06
0.00839966
4.38545e-06
0.0083992
9.27916e-06
0.00839793
2.3463e-05
0.0083954
4.86679e-05
0.00839004
0.000144454
0.00837654
0.000362843
0.00838848
0.00127181
0.00857019
0.00531705
0.00819838
0.00652276
0.00794399
0.00609809
0.00774953
0.00572627
0.0076846
0.00561247
0.00769464
0.00573549
0.00775956
0.00592032
0.0079153
0.00608598
0.0081588
0.00623843
0.00849
0.00629495
0.00887698
0.00629969
0.00928357
0.00612371
0.0058194
0.00961938
0.00840002
1.49368e-08
0.00840003
9.33931e-08
0.00840005
2.80732e-07
0.0084001
7.52531e-07
0.00840021
1.69767e-06
0.00840049
4.09407e-06
0.00840111
8.63341e-06
0.00840256
2.19023e-05
0.00840733
4.38268e-05
0.00841893
0.000132211
0.00846153
0.000319389
0.00861441
0.0011182
0.00991363
0.00400711
0.00914019
0.00728702
0.00844587
0.00678326
0.00820574
0.00595553
0.00807191
0.00573693
0.00806944
0.00573218
0.00815163
0.00582972
0.0083167
0.0059149
0.00856386
0.00599298
0.00887167
0.00598878
0.00924024
0.0059309
0.00958333
0.00576546
0.00547227
0.00991178
0.00840002
1.22753e-08
0.00840004
7.6889e-08
0.00840009
2.3281e-07
0.00840022
6.19777e-07
0.00840051
1.39783e-06
0.00840128
3.31348e-06
0.00840292
6.98086e-06
0.00840803
1.66913e-05
0.00841522
3.65488e-05
0.00845929
8.75936e-05
0.00853041
0.000247579
0.00900369
0.000643666
0.0107283
0.00227652
0.0100688
0.00793605
0.00953389
0.00730774
0.00888481
0.00659568
0.0086212
0.00599327
0.00853629
0.00581215
0.00857021
0.00579249
0.00869769
0.00578471
0.00891738
0.00577345
0.0091906
0.00571695
0.00951843
0.0056046
0.00983791
0.00543888
0.00516936
0.0101296
0.00840003
1.04179e-08
0.00840004
6.51219e-08
0.00840007
1.97455e-07
0.00840016
5.23738e-07
0.00840038
1.18267e-06
0.0084009
2.7772e-06
0.00840201
5.85302e-06
0.00840459
1.40132e-05
0.00841286
2.82033e-05
0.00842335
7.65871e-05
0.00849446
0.00017578
0.00857436
0.000562098
0.00914593
0.00169957
0.00992978
0.00713986
0.00981184
0.00741654
0.00933483
0.00706326
0.00913485
0.00618598
0.00902011
0.00591939
0.00900984
0.00579728
0.00908422
0.00570754
0.00924994
0.0056084
0.00947679
0.00549226
0.00975589
0.00532852
0.0100394
0.00515149
0.00490001
0.0103017
0.00840003
9.29531e-09
0.00840003
5.8071e-08
0.00840005
1.75484e-07
0.00840011
4.66953e-07
0.00840023
1.0551e-06
0.0084005
2.49302e-06
0.00840106
5.26755e-06
0.00840242
1.25627e-05
0.00840439
2.61439e-05
0.0084134
6.70504e-05
0.0084302
0.000158479
0.00850199
0.000488189
0.00880724
0.00138999
0.00957023
0.00636253
0.00956447
0.00741464
0.00964533
0.00697451
0.0094413
0.00638374
0.00937852
0.00597933
0.0093874
0.00578535
0.00944934
0.00564087
0.00957096
0.0054847
0.00975767
0.00531112
0.00997078
0.00511996
0.0102103
0.00491423
0.00466632
0.0104423
0.00840003
8.09625e-09
0.00840003
5.05299e-08
0.00840006
1.52556e-07
0.00840011
4.06066e-07
0.00840025
9.16061e-07
0.00840055
2.17076e-06
0.00840126
4.54389e-06
0.00840262
1.11087e-05
0.00840727
2.14042e-05
0.00841013
6.36556e-05
0.00844655
0.000121614
0.00846964
0.000463129
0.00869194
0.00116458
0.00976454
0.00527488
0.00979596
0.00737852
0.00971258
0.00705182
0.00962219
0.00647079
0.00962328
0.00597779
0.00966956
0.00574045
0.00975307
0.00555735
0.009873
0.00536426
0.0100323
0.00515612
0.0102024
0.00495796
0.0103993
0.00472415
0.00447332
0.0105949
0.00840003
6.65286e-09
0.00840004
4.15615e-08
0.00840006
1.25855e-07
0.00840013
3.34139e-07
0.00840029
7.55191e-07
0.00840067
1.77404e-06
0.00840144
3.74161e-06
0.00840365
8.81001e-06
0.00840676
1.81717e-05
0.00842296
4.69431e-05
0.00844737
9.66652e-05
0.0085941
0.000314222
0.00897741
0.000778865
0.01112
0.00311441
0.0104048
0.00809037
0.0102381
0.00721496
0.00999724
0.00671282
0.00991362
0.00606638
0.00995871
0.00570119
0.0100402
0.00547898
0.010145
0.00526072
0.0102699
0.00503568
0.0104261
0.00480973
0.0105938
0.00456525
0.00431157
0.0107623
0.00840003
5.43647e-09
0.00840004
3.39775e-08
0.00840006
1.03034e-07
0.00840012
2.7315e-07
0.00840025
6.18154e-07
0.00840056
1.44407e-06
0.00840122
3.06534e-06
0.00840287
7.07748e-06
0.00840604
1.48926e-05
0.0084178
3.47958e-05
0.00843076
8.32048e-05
0.00853698
0.000206318
0.00874163
0.000574079
0.00984179
0.0020054
0.0105122
0.00740944
0.010437
0.00728837
0.0103248
0.00682551
0.0102366
0.00616179
0.0102413
0.00570467
0.0103196
0.0054095
0.0104047
0.00517844
0.0105098
0.00493562
0.0106434
0.00468369
0.0107864
0.00443065
0.00417482
0.0109313
0.00840003
4.56165e-09
0.00840003
2.85042e-08
0.00840005
8.638e-08
0.00840009
2.29146e-07
0.00840019
5.18646e-07
0.0084004
1.21382e-06
0.00840087
2.57485e-06
0.00840191
5.96572e-06
0.00840422
1.24846e-05
0.00840857
3.00932e-05
0.00842521
6.60946e-05
0.0084539
0.000176243
0.00853765
0.000488449
0.00888192
0.00165631
0.0099736
0.00630045
0.0101562
0.00710666
0.0103229
0.00666121
0.0103344
0.00615942
0.0104012
0.00565039
0.0105058
0.00531519
0.010626
0.00506702
0.0107432
0.00482221
0.0108601
0.00456859
0.0109828
0.00431159
0.00405577
0.0111074
0.00840003
3.88411e-09
0.00840003
2.40493e-08
0.00840004
7.36295e-08
0.00840008
1.92524e-07
0.00840015
4.42215e-07
0.00840033
1.02312e-06
0.00840068
2.20451e-06
0.00840151
5.06615e-06
0.0084032
1.07119e-05
0.0084067
2.62395e-05
0.0084174
5.51546e-05
0.00843533
0.000156846
0.00851613
0.000406475
0.00874759
0.00141957
0.00977365
0.0052586
0.0100023
0.00688579
0.0101691
0.00650078
0.0102571
0.00608024
0.0104114
0.00551057
0.0105782
0.00516402
0.0107431
0.0049133
0.0108914
0.00467815
0.0110248
0.00443724
0.0111498
0.00418834
0.00393866
0.0112696
0.00840003
2.02665e-09
0.00840003
2.22327e-08
0.00840006
4.63115e-08
0.00840008
1.72996e-07
0.00840024
2.74104e-07
0.00840032
9.30072e-07
0.00840124
1.26653e-06
0.00840148
4.76575e-06
0.00840686
5.24462e-06
0.0084062
2.65583e-05
0.00844358
1.74782e-05
0.00843517
0.000163807
0.00867197
0.000167743
0.00911784
0.000972688
0.0111975
0.00315306
0.010636
0.00746007
0.0105746
0.00657916
0.010578
0.00609208
0.0106044
0.00550015
0.0107163
0.00506694
0.0108654
0.00477522
0.0110189
0.00453182
0.0111632
0.0042961
0.0112952
0.00405732
0.00381727
0.0114167
0.00840003
2.40549e-09
0.00840004
1.32354e-08
0.00840004
4.50082e-08
0.0084001
1.07869e-07
0.0084001
2.7103e-07
0.00840046
5.64462e-07
0.00840035
1.35707e-06
0.00840239
2.69645e-06
0.00840086
6.67166e-06
0.00841437
1.29499e-05
0.00839756
3.38471e-05
0.00848853
7.23854e-05
0.00844817
0.000206691
0.00889598
0.000524544
0.0101249
0.00191899
0.0107398
0.00684145
0.0107788
0.00655012
0.0107615
0.00612151
0.0107969
0.00547904
0.0108921
0.00498446
0.0110218
0.00465477
0.0111625
0.00439685
0.0113023
0.00415964
0.0114339
0.00392608
0.00369411
0.0115556
0.00840003
2.04376e-09
0.00840003
1.13493e-08
0.00840004
3.72028e-08
0.00840005
9.2069e-08
0.0084001
2.24207e-07
0.00840017
4.86779e-07
0.00840039
1.12512e-06
0.00840071
2.36254e-06
0.00840184
5.47388e-06
0.0084031
1.16221e-05
0.00840945
2.72413e-05
0.00841906
6.25058e-05
0.00846829
0.000156646
0.0085261
0.000465729
0.00894294
0.00150067
0.0100394
0.00573831
0.0103791
0.00621744
0.0105948
0.00591534
0.0107538
0.00533127
0.0109155
0.00483201
0.0110808
0.00449508
0.0112405
0.00423987
0.0113907
0.00401078
0.0115292
0.00378767
0.00356661
0.0116549
0.00840003
1.67818e-09
0.00840003
9.38815e-09
0.00840004
3.01877e-08
0.00840005
7.59983e-08
0.00840009
1.81749e-07
0.00840018
4.01925e-07
0.00840038
9.1139e-07
0.00840079
1.94852e-06
0.00840175
4.47225e-06
0.00840398
9.35951e-06
0.00840753
2.35079e-05
0.008422
4.80096e-05
0.00843555
0.000142519
0.008539
0.000362224
0.00873743
0.00130186
0.00966929
0.00480318
0.010025
0.00587097
0.0103194
0.00562915
0.0105648
0.0050926
0.0108007
0.00459793
0.0110255
0.00427031
0.0112311
0.00403407
0.0114138
0.00382702
0.0115745
0.00362486
0.00342277
0.0117154
0.00840003
1.67749e-09
0.00840003
5.24105e-09
0.00840004
2.75029e-08
0.00840007
4.49723e-08
0.00840008
1.65671e-07
0.00840025
2.27314e-07
0.00840031
8.51547e-07
0.00840127
9.79287e-07
0.00840134
4.38839e-06
0.00840702
3.66158e-06
0.00840515
2.52825e-05
0.00844491
8.27507e-06
0.00842621
0.000160899
0.00867522
0.000113412
0.00906845
0.00090865
0.0109662
0.00290123
0.0106036
0.00624754
0.0106364
0.00560832
0.0106925
0.00504365
0.0108414
0.0044478
0.0110315
0.00407764
0.0112282
0.0038347
0.0114144
0.00363848
0.0115842
0.00345289
0.00326791
0.0117367
0.00840003
4.72368e-10
0.00840003
6.75846e-09
0.00840004
1.18182e-08
0.00840004
5.24202e-08
0.00840013
7.02058e-08
0.00840008
2.82619e-07
0.00840061
3.19546e-07
0.00840014
1.44615e-06
0.00840324
1.28361e-06
0.00839918
7.70579e-06
0.0084204
4.06437e-06
0.00838092
4.77093e-05
0.00853409
7.72419e-06
0.00834777
0.000299639
0.00896946
0.000288953
0.0101546
0.00171644
0.0105443
0.00586705
0.0107567
0.00539561
0.0108308
0.00496722
0.0109231
0.004351
0.0110765
0.00391823
0.0112481
0.00365729
0.0114152
0.00346626
0.0115714
0.00329161
0.00311827
0.0117158
0.00840003
6.88408e-10
0.00840003
3.77763e-09
0.00840003
1.29631e-08
0.00840005
3.08409e-08
0.00840005
7.79965e-08
0.00840017
1.61143e-07
0.0084001
3.88463e-07
0.00840079
7.63804e-07
0.0084002
1.88251e-06
0.00840437
3.56588e-06
0.00839885
9.6044e-06
0.00843011
1.66115e-05
0.00838301
5.48639e-05
0.0085779
0.000105409
0.0084636
0.000403832
0.00909635
0.00108612
0.0100598
0.00491037
0.0103315
0.00511603
0.0105985
0.00469142
0.0108311
0.00410927
0.011035
0.00370654
0.0112184
0.00346694
0.0113831
0.00329411
0.0115328
0.00313474
0.00297409
0.0116725
0.00840003
6.27767e-10
0.00840003
3.4721e-09
0.00840003
1.13918e-08
0.00840003
2.81727e-08
0.00840005
6.88949e-08
0.00840006
1.50064e-07
0.0084001
3.47643e-07
0.00840014
7.38569e-07
0.00840034
1.6938e-06
0.00840031
3.63265e-06
0.00840187
8.10964e-06
0.00839955
1.90957e-05
0.00841368
4.08772e-05
0.00841243
0.000107311
0.00850758
0.000309129
0.00870446
0.000891332
0.00932772
0.00429264
0.00977183
0.00466252
0.01021
0.00424288
0.010579
0.00373249
0.0108555
0.00342417
0.0110742
0.00324166
0.0112598
0.00310079
0.0114247
0.00296296
0.00281879
0.0115742
0.00840003
5.14154e-10
0.00840003
2.87094e-09
0.00840003
9.38841e-09
0.00840004
2.32591e-08
0.00840005
5.62245e-08
0.00840008
1.2148e-07
0.00840016
2.78617e-07
0.00840033
5.73445e-07
0.00840071
1.34487e-06
0.00840173
2.63916e-06
0.00840292
6.99357e-06
0.00841043
1.18732e-05
0.0084097
4.1555e-05
0.00844172
7.67325e-05
0.0084517
0.00029939
0.00858301
0.000762091
0.0091437
0.00373798
0.00944967
0.0043428
0.00994507
0.00373616
0.01027
0.003398
0.0105409
0.00314574
0.0107815
0.00299481
0.0109973
0.00287985
0.0111917
0.00276416
0.00263958
0.0113675
0.00840003
4.4372e-10
0.00840003
2.5013e-09
0.00840003
7.93581e-09
0.00840004
2.02106e-08
0.00840005
4.75065e-08
0.00840006
1.06395e-07
0.00840011
2.35106e-07
0.00840018
5.11337e-07
0.00840043
1.11934e-06
0.00840068
2.41945e-06
0.00840217
5.56679e-06
0.00840323
1.09751e-05
0.00841275
3.21567e-05
0.00842583
6.41475e-05
0.00849278
0.000232318
0.00865707
0.000594132
0.00976737
0.00263507
0.0098966
0.00420242
0.00996112
0.00366191
0.0101203
0.00323214
0.0103137
0.0029463
0.0105122
0.00279051
0.0107074
0.00267941
0.0108952
0.00257052
0.0024551
0.0110727
0.00840003
5.37625e-10
0.00840003
1.232e-09
0.00840003
8.43557e-09
0.00840004
1.09982e-08
0.00840004
5.0882e-08
0.00840009
5.49764e-08
0.00840006
2.64586e-07
0.00840035
2.30344e-07
0.00840011
1.37266e-06
0.00840176
7.8281e-07
0.00839978
7.57453e-06
0.00841057
2.54303e-07
0.00839446
4.82517e-05
0.00847893
-2.01301e-05
0.00844071
0.000269974
0.00884688
0.000187415
0.0100725
0.00140648
0.0103422
0.0039234
0.0101828
0.00381365
0.0102195
0.00319051
0.0103064
0.00285468
0.0104325
0.00265817
0.0105743
0.00252998
0.010721
0.00241396
0.00229826
0.0108643
0.00840003
4.84635e-11
0.00840003
2.05177e-09
0.00840004
2.30177e-09
0.00840003
1.56115e-08
0.00840007
1.308e-08
0.00840004
8.3257e-08
0.00840026
4.80051e-08
0.00840007
4.21073e-07
0.00840136
9.32534e-08
0.00839992
2.23539e-06
0.00840824
-7.17095e-07
0.00839412
1.43367e-05
0.0084574
-1.48411e-05
0.00834047
9.63783e-05
0.00867524
-6.49391e-05
0.00846466
0.000397156
0.00928038
0.000585346
0.0101216
0.00307309
0.0102541
0.00367582
0.0102308
0.00321051
0.0102814
0.00279889
0.0103874
0.00254597
0.0105148
0.00239388
0.0106417
0.00227431
0.0021602
0.0107633
0.00840003
2.18703e-10
0.00840003
1.22108e-09
0.00840003
4.05106e-09
0.00840003
9.90312e-09
0.00840002
2.40538e-08
0.00840006
5.1075e-08
0.00839999
1.16671e-07
0.00840017
2.38e-07
0.00839973
5.42109e-07
0.00840088
1.08848e-06
0.00839768
2.47059e-06
0.00840671
5.34898e-06
0.00838019
1.14498e-05
0.00845071
2.59398e-05
0.00831623
6.82839e-05
0.00853647
0.000176677
0.00847241
0.000642921
0.00890165
0.00263072
0.00956503
0.0030076
0.00975253
0.00302012
0.00993209
0.00261448
0.0101114
0.00235725
0.0102836
0.00220563
0.0104377
0.00209816
0.00199934
0.0105729
0.00840003
3.84996e-10
0.00840003
8.13865e-10
0.00840003
5.99965e-09
0.00840003
7.32208e-09
0.00840002
3.63531e-08
0.00840003
3.60234e-08
0.00839996
1.9065e-07
0.00840006
1.4347e-07
0.0083996
9.99627e-07
0.00840031
3.80146e-07
0.008397
5.76875e-06
0.00840473
-2.34831e-06
0.00837681
3.91103e-05
0.0084437
-4.08686e-05
0.00828725
0.000223257
0.00853607
-7.25892e-05
0.00833363
0.000837671
0.00855579
0.00239294
0.00888381
0.00266543
0.00930586
0.00258767
0.00954948
0.0023604
0.00977515
0.00211764
0.00998107
0.00197968
0.0101606
0.00189226
0.00181419
0.0103154
0.00840003
1.12107e-10
0.00840003
1.95121e-09
0.00840003
2.89746e-09
0.00840002
1.50508e-08
0.00840004
1.73115e-08
0.0084
8.38703e-08
0.00840011
7.82183e-08
0.0083998
4.5201e-07
0.00840056
2.39046e-07
0.00839826
2.67806e-06
0.00840465
-6.11971e-07
0.00838589
1.63132e-05
0.00844186
-1.67611e-05
0.0083019
9.83904e-05
0.00864128
-0.00011648
0.00812952
0.000436295
0.00875576
0.000204977
0.0087797
0.00235246
0.00889078
0.00253663
0.00907066
0.00238874
0.00933521
0.00207902
0.00957271
0.00186464
0.00977959
0.00175189
0.00995868
0.00168556
0.00162509
0.0101148
0.00840003
2.89293e-10
0.00840003
5.56208e-10
0.00840003
4.62804e-09
0.00840004
5.09521e-09
0.00840003
2.81289e-08
0.00840009
2.27468e-08
0.00840002
1.49852e-07
0.00840041
6.02851e-08
0.00839978
8.61288e-07
0.00840286
-4.00528e-07
0.00839614
6.03994e-06
0.00841909
-6.60212e-06
0.00836352
3.84187e-05
0.00851404
-5.24104e-05
0.00817205
0.000224012
0.00872779
-0.000122191
0.00813788
0.00078852
0.00830475
0.00216685
0.00853634
0.00228438
0.00880247
0.00210016
0.00908601
0.00177041
0.00933324
0.00158878
0.00954002
0.00151467
0.00971853
0.00147415
0.00143064
0.00987843
0.00840003
5.51292e-11
0.00840003
1.35213e-09
0.00840003
1.68102e-09
0.00840003
1.04231e-08
0.00840004
9.83336e-09
0.00840001
5.95741e-08
0.00840011
3.85852e-08
0.00839983
3.38325e-07
0.00840066
2.23989e-08
0.00839796
2.25744e-06
0.00840576
-1.82949e-06
0.00838412
1.48418e-05
0.00844029
-1.80088e-05
0.00829674
9.01162e-05
0.00863277
-0.000112584
0.00804802
0.000459069
0.00864917
0.000180356
0.00839262
0.00240269
0.00838008
0.00227473
0.0086495
0.00180465
0.00894355
0.00144509
0.00918497
0.00131292
0.00938189
0.00128242
0.00955411
0.00126726
0.00123803
0.00971396
0.00840003
1.87187e-10
0.00840003
1.67302e-10
0.00840003
2.83528e-09
0.00840004
1.79485e-09
0.00840003
1.76565e-08
0.00840008
6.66628e-09
0.00840001
1.01686e-07
0.00840036
-1.27479e-08
0.00839964
7.10973e-07
0.00840257
-6.87529e-07
0.00839545
5.16595e-06
0.00841656
-6.32972e-06
0.00836399
3.40381e-05
0.00849905
-4.52878e-05
0.00816998
0.00021461
0.00875873
-0.000132149
0.00808517
0.000848062
0.00809197
0.00236459
0.00817507
0.00217401
0.00852074
0.00143256
0.00882207
0.00110799
0.00906176
0.00103297
0.00926121
0.00104576
0.00944496
0.00105386
0.00103797
0.0096227
0.00840003
-6.17561e-11
0.00840003
5.11146e-10
0.00840003
-4.58923e-10
0.00840003
3.67933e-09
0.00840005
-3.31186e-09
0.00840003
2.09095e-08
0.00840016
-2.76698e-08
0.0084
1.35759e-07
0.00840097
-2.78016e-07
0.00839906
1.16851e-06
0.00840657
-2.41079e-06
0.00839005
9.96085e-06
0.00844111
-1.72364e-05
0.00832314
7.16602e-05
0.00861954
-8.24603e-05
0.00801616
0.000468012
0.00857546
0.00028483
0.00812814
0.00277521
0.00815087
0.00214602
0.00850787
0.00105289
0.00882058
0.000759005
0.00905423
0.000761605
0.0092603
0.000812018
0.00946137
0.000835412
0.000830621
0.00965755
0.00840003
-3.57862e-12
0.00840003
-1.95579e-11
0.00840003
5.16189e-11
0.00840003
-1.37214e-10
0.00840003
6.48274e-11
0.00840005
-2.30721e-09
0.00840002
-2.13882e-09
0.00840017
-2.5207e-08
0.00839986
-5.92842e-10
0.00840123
-2.38573e-07
0.00839815
5.3318e-07
0.00840974
-1.72325e-06
0.00838439
7.50114e-06
0.00845449
9.61823e-07
0.00830751
6.19097e-05
0.00868329
9.06551e-05
0.00833428
0.000632272
0.00890826
0.00214131
0.00913202
0.00191376
0.00927618
0.00089707
0.009376
0.000644902
0.00949032
0.0006316
0.00963095
0.000659903
0.00977988
0.000681463
0.000680649
0.00992961
0.00840003
2.95475e-11
0.00840003
1.59894e-10
0.00840003
5.20804e-10
0.00840003
1.26734e-09
0.00840002
3.16379e-09
0.00840001
6.7911e-09
0.00839998
1.66225e-08
0.00839991
3.47948e-08
0.00839978
8.82322e-08
0.00839933
1.86916e-07
0.00839935
4.97364e-07
0.00839646
1.02593e-06
0.00840023
3.35645e-06
0.00839851
5.92277e-06
0.00842538
2.84705e-05
0.00847568
5.48195e-05
0.00881931
0.000263293
0.0101569
0.000785166
0.0102868
0.00175276
0.00998733
0.00116909
0.00981012
0.000792283
0.00977807
0.00064016
0.0098345
0.000592191
0.00993174
0.00058425
0.000574999
0.0100452
0.00840003
4.30976e-11
0.00840003
2.41048e-10
0.00840003
7.9026e-10
0.00840003
1.96408e-09
0.00840003
4.77037e-09
0.00840002
1.04144e-08
0.00840001
2.39572e-08
0.00839998
5.07178e-08
0.00839992
1.15951e-07
0.00839983
2.42186e-07
0.00839964
5.57077e-07
0.00839932
1.15516e-06
0.00839915
2.71364e-06
0.00839934
5.86635e-06
0.00841082
1.33892e-05
0.00842329
3.97585e-05
0.00859078
8.98699e-05
0.0089354
0.00039682
0.00950862
0.00111436
0.00959369
0.00104343
0.00958896
0.000778002
0.00962729
0.000601004
0.0097192
0.000511402
0.00984649
0.000477489
0.000461975
0.00998598
0.00840003
6.14072e-11
0.00840003
3.49748e-10
0.00840003
1.04778e-09
0.00840003
2.81856e-09
0.00840003
6.36711e-09
0.00840002
1.54059e-08
0.0084
3.25707e-08
0.00839997
7.8704e-08
0.00839989
1.58298e-07
0.0083997
3.95106e-07
0.00839942
6.86621e-07
0.00839827
2.10331e-06
0.00839814
2.03545e-06
0.00839322
1.00291e-05
0.00840103
2.9955e-06
0.00839741
3.78021e-05
0.00846449
1.71116e-05
0.00863295
0.000186227
0.00902121
0.000653681
0.00924924
0.000792346
0.00939123
0.000654168
0.00952097
0.00050785
0.00966766
0.000407579
0.00982492
0.000362582
0.000344294
0.00998206
0.00840003
1.30458e-10
0.00840003
4.31201e-12
0.00840003
1.77894e-09
0.00840003
3.96471e-10
0.00840003
1.10549e-08
0.00840004
1.60495e-09
0.0084
6.31372e-08
0.00840007
-2.10234e-09
0.00839983
3.68139e-07
0.00840036
-1.77584e-07
0.00839843
2.46613e-06
0.00840368
-3.21941e-06
0.00838752
1.72602e-05
0.00843274
-3.52247e-05
0.00831814
0.000114754
0.00857283
-0.00022201
0.00832101
0.000263531
0.00867562
-0.000210635
0.00889438
0.000355009
0.00912447
0.000546176
0.00925893
0.00055826
0.00945103
0.000374696
0.0096396
0.000280898
0.00981476
0.000243681
0.000229175
0.00997797
0.00840003
-8.83182e-11
0.00840003
2.35524e-10
0.00840003
-9.96503e-10
0.00840003
1.55103e-09
0.00840005
-6.46868e-09
0.00840004
8.27596e-09
0.00840014
-4.16272e-08
0.00840007
4.65436e-08
0.00840069
-2.74423e-07
0.00840006
3.67612e-07
0.0084045
-2.08253e-06
0.00839688
3.99891e-06
0.00842942
-1.56686e-05
0.0083538
3.85737e-05
0.00857333
-0.000106192
0.00810132
0.000245058
0.00858069
-0.000220982
0.00797505
0.000371822
0.00798777
0.000258679
0.00828575
0.000229767
0.00881679
8.31471e-05
0.00913793
0.000125092
0.00936081
0.000124694
0.00954423
0.000114981
0.000108064
0.0097093
0.00840003
0.00840003
0.00840003
0.00840003
0.00840002
0.00840003
0.00839998
0.00840002
0.00839971
0.00840003
0.00839779
0.00840175
0.00838506
0.0084238
0.00831446
0.00855518
0.0083284
0.00865878
0.0088335
0.00905061
0.00919638
0.00940681
0.00961015
0.00978862
0.00994779
0.00525642
0.00371607
0.00314834
0.00211308
0.00147626
0.00167877
-0.00048381
0.00196255
-0.000968609
0.000489449
-0.00153297
0.000568147
-0.00194917
0.00042043
-0.00221334
0.000270015
-0.00236486
0.000158566
-0.00243212
7.45995e-05
-0.00245169
2.69967e-05
-0.00244302
-1.14531e-06
-0.00242201
-1.29296e-05
-0.00240954
-4.14391e-06
-0.00240065
-7.83917e-08
-0.00239264
6.3421e-07
-0.00238033
-4.41659e-06
-0.00236096
-1.23951e-05
-0.00232838
-2.69741e-05
-0.00228444
-3.94859e-05
-0.00223044
-5.07165e-05
-0.00216786
-6.04866e-05
-0.00209683
-7.03116e-05
-0.00201624
-8.13074e-05
-0.0019248
-9.3594e-05
-0.00182045
-0.000107852
-0.00170341
-0.000121563
-0.00157464
-0.000134101
-0.00143597
-0.000144577
-0.00128822
-0.000153954
-0.00113243
-0.000162062
-0.00097009
-0.0001688
-0.000799153
-0.000177205
-0.000623093
-0.000182267
-0.000442545
-0.000187098
-0.000255138
-0.000194113
-6.19357e-05
-0.000200232
0.000143031
-0.000212256
0.000351158
-0.000215587
0.000557806
-0.000213593
0.000756658
-0.000204727
0.000953335
-0.000201138
0.00114594
-0.000194915
0.00133714
-0.000191514
0.00152397
-0.000185264
0.00170848
-0.00018058
0.00188749
-0.000173671
0.00206319
-0.000169755
0.00223829
-0.000168482
0.00241294
-0.000167416
0.00258139
-0.000161551
0.00274369
-0.000155851
0.00289944
-0.000150764
0.00304816
-0.000145776
0.00319027
-0.00014095
0.00332617
-0.0001361
0.00345557
-0.000131199
0.00357867
-0.000126143
0.00369597
-0.000121027
0.00380772
-0.000115791
0.00391421
-0.000110512
0.00401587
-0.000105173
0.00411298
-9.99363e-05
0.0042055
-9.46982e-05
0.0042938
-8.96755e-05
0.00437731
-8.47499e-05
0.00445659
-8.00392e-05
0.00453146
-7.55353e-05
0.00460183
-7.11991e-05
0.0046679
-6.70801e-05
0.00472937
-6.31085e-05
0.0047863
-5.92942e-05
0.00483868
-5.55978e-05
0.00488664
-5.20013e-05
0.00493023
-4.84906e-05
0.00496964
-4.50363e-05
0.00500508