/*--------------------------------*- C++ -*----------------------------------*\
  =========                 |
  \\      /  F ield         | OpenFOAM: The Open Source CFD Toolbox
   \\    /   O peration     | Website:  https://openfoam.org
    \\  /    A nd           | Version:  6
     \\/     M anipulation  |
\*---------------------------------------------------------------------------*/
FoamFile
{
    version     2.0;
    format      ascii;
    class       volScalarField;
    location    "9";
    object      T;
}
// * * * * * * * * * * * * * * * * * * * * * * * * * * * * * * * * * * * * * //

dimensions      [0 0 0 1 0 0 0];

internalField   nonuniform List<scalar> 
5250
(
1.00013
1.00032
1.00097
1.00191
1.00536
1.01069
1.02778
1.06327
1.14666
1.38815
2.03288
2.77473
2.75431
2.79319
2.74525
2.72668
2.74279
2.75877
2.76581
2.77215
2.80056
2.82871
2.82801
2.8083
2.79526
1.00013
1.00032
1.00096
1.00191
1.00534
1.01065
1.02769
1.06306
1.14617
1.387
2.02921
2.77359
2.75499
2.79129
2.74395
2.72594
2.74265
2.75779
2.7645
2.7704
2.79806
2.82616
2.82538
2.8052
2.79305
1.00013
1.00031
1.00096
1.00189
1.0053
1.01057
1.02751
1.06261
1.14507
1.38441
2.02007
2.77131
2.75659
2.78671
2.74104
2.72426
2.74112
2.75638
2.76272
2.76814
2.79508
2.82321
2.82269
2.80224
2.78835
1.00013
1.00031
1.00095
1.00187
1.00525
1.01045
1.02721
1.06189
1.14326
1.38024
2.0048
2.76783
2.75916
2.78007
2.73751
2.72142
2.73762
2.7527
2.75839
2.76301
2.78859
2.81843
2.81803
2.79722
2.7826
1.00013
1.00031
1.00093
1.00184
1.00516
1.01028
1.02679
1.0609
1.1408
1.37456
1.98224
2.76398
2.76249
2.77135
2.73258
2.71776
2.73338
2.74806
2.7532
2.75654
2.77941
2.80871
2.80862
2.78979
2.77554
1.00013
1.0003
1.00091
1.0018
1.00506
1.01007
1.02626
1.05962
1.13781
1.3665
1.96013
2.74997
2.76556
2.76239
2.72588
2.71303
2.72822
2.74216
2.74601
2.7477
2.76669
2.79877
2.80044
2.77816
2.76095
1.00012
1.00029
1.00089
1.00176
1.00493
1.00981
1.02562
1.05799
1.13432
1.35638
1.93254
2.73179
2.76667
2.75496
2.7168
2.70601
2.72001
2.73398
2.73771
2.73798
2.75232
2.78059
2.78251
2.76433
2.74427
1.00012
1.00028
1.00086
1.0017
1.00478
1.00949
1.02486
1.05607
1.13014
1.34438
1.89946
2.7086
2.76585
2.74799
2.7089
2.69786
2.71044
2.72224
2.72499
2.72341
2.73381
2.76303
2.76471
2.74107
2.71685
1.00011
1.00027
1.00083
1.00164
1.00461
1.00913
1.02397
1.05382
1.12537
1.33031
1.86223
2.67779
2.76256
2.73716
2.70233
2.68981
2.69939
2.70967
2.70983
2.70707
2.71027
2.73329
2.73471
2.70996
2.67034
1.00011
1.00026
1.00079
1.00156
1.0044
1.00871
1.02295
1.05122
1.11996
1.3141
1.82081
2.63918
2.75531
2.72076
2.69969
2.68293
2.68934
2.69541
2.69531
2.68922
2.6872
2.69936
2.69528
2.65739
2.56885
1.0001
1.00025
1.00075
1.00148
1.00416
1.00822
1.02175
1.04832
1.1133
1.29693
1.767
2.58924
2.74351
2.69945
2.69292
2.67842
2.68036
2.68017
2.67827
2.66625
2.65762
2.65484
2.64082
2.5849
2.42885
1.0001
1.00023
1.0007
1.00138
1.00388
1.00766
1.02024
1.04517
1.10446
1.27946
1.69146
2.52846
2.72404
2.68727
2.68113
2.66925
2.67137
2.67123
2.66622
2.64923
2.62857
2.61057
2.58478
2.52935
2.40456
1.00009
1.00021
1.00064
1.00126
1.00356
1.007
1.01862
1.04131
1.09523
1.25861
1.61646
2.44117
2.69286
2.68891
2.67175
2.65332
2.65411
2.65375
2.64936
2.63388
2.60321
2.57458
2.53492
2.49613
2.41399
1.00008
1.00019
1.00057
1.00113
1.00321
1.00627
1.0168
1.03686
1.08564
1.2306
1.54432
2.34276
2.64516
2.68498
2.66933
2.65206
2.64131
2.63832
2.63176
2.6176
2.58703
2.55294
2.50818
2.46885
2.41499
1.00007
1.00016
1.0005
1.00099
1.00281
1.00546
1.01474
1.03186
1.075
1.19772
1.46566
2.20624
2.5856
2.67751
2.66414
2.64901
2.63432
2.62259
2.61196
2.59914
2.57123
2.54636
2.49774
2.46489
2.4175
1.00006
1.00014
1.00043
1.00084
1.00238
1.0046
1.01251
1.02653
1.06331
1.16253
1.37861
2.03643
2.50094
2.65578
2.64923
2.63953
2.62441
2.61489
2.59807
2.58467
2.55435
2.53386
2.49295
2.4575
2.42382
1.00005
1.00012
1.00036
1.0007
1.00198
1.0038
1.01042
1.02147
1.05288
1.12816
1.30257
1.77903
2.44973
2.61773
2.61479
2.61119
2.60329
2.59961
2.58872
2.5763
2.54847
2.52431
2.49155
2.45516
2.42546
1.00004
1.0001
1.0003
1.00058
1.00167
1.00317
1.00889
1.01784
1.04498
1.10914
1.24843
1.65565
2.43823
2.60016
2.59729
2.58884
2.5757
2.57392
2.56989
2.56208
2.54446
2.51928
2.4923
2.4578
2.42809
1.00003
1.00008
1.00025
1.00049
1.00141
1.00266
1.00752
1.01486
1.03834
1.09083
1.2068
1.56139
2.34213
2.56345
2.59712
2.58196
2.57099
2.55897
2.55151
2.54349
2.53397
2.51478
2.49106
2.46455
2.43478
1.00003
1.00007
1.00021
1.0004
1.00116
1.00219
1.00621
1.01218
1.03154
1.07498
1.16555
1.4707
2.17153
2.49658
2.59911
2.58293
2.57208
2.55439
2.54415
2.53276
2.52185
2.5062
2.48551
2.46412
2.43937
1.00002
1.00006
1.00017
1.00033
1.00094
1.00178
1.00506
1.00975
1.0262
1.05725
1.13668
1.35012
1.94243
2.4101
2.5802
2.57208
2.56385
2.54522
2.53529
2.52602
2.51602
2.50267
2.48393
2.46437
2.44224
1.00002
1.00005
1.00014
1.00027
1.00077
1.00145
1.00414
1.0079
1.0216
1.04551
1.11338
1.27309
1.76335
2.35891
2.57429
2.57103
2.55364
2.5369
2.52317
2.51477
2.50533
2.49736
2.48287
2.46534
2.44611
1.00002
1.00004
1.00011
1.00022
1.00063
1.00118
1.00339
1.00645
1.01764
1.03791
1.08962
1.23641
1.57158
2.28939
2.55921
2.57819
2.55852
2.54196
2.52156
2.50843
2.49781
2.4869
2.47691
2.46338
2.44736
1.00001
1.00003
1.00009
1.00018
1.00051
1.00096
1.00276
1.00522
1.01429
1.03067
1.07242
1.19677
1.444
2.12389
2.50201
2.59564
2.57335
2.56127
2.53656
2.51719
2.50082
2.48775
2.47496
2.4625
2.44799
1.00001
1.00002
1.00007
1.00014
1.00041
1.00076
1.00218
1.00413
1.01133
1.02395
1.05743
1.15284
1.33658
1.87869
2.3945
2.57684
2.57281
2.55998
2.54136
2.52284
2.50754
2.49306
2.47798
2.46408
2.44993
1
1.00002
1.00005
1.00014
1.00027
1.00076
1.00144
1.00408
1.00792
1.0213
1.04614
1.1142
1.27704
1.7808
2.33208
2.56455
2.57466
2.56018
2.54204
2.52274
2.50833
2.49543
2.48186
2.46786
2.45387
1
1.00002
1.00004
1.00012
1.00022
1.00064
1.00118
1.00343
1.00645
1.01785
1.03827
1.09079
1.2398
1.58626
2.29379
2.56347
2.58876
2.5684
2.55143
2.52946
2.51348
2.50102
2.48846
2.47532
2.46188
1
1.00002
1.00003
1.00009
1.00018
1.00052
1.00096
1.00279
1.00526
1.01427
1.03127
1.07346
1.20442
1.45363
2.14548
2.52264
2.61845
2.59217
2.57393
2.54414
2.52356
2.50807
2.49415
2.48066
2.46738
1
1.00001
1.00003
1.00008
1.00015
1.00042
1.00078
1.00225
1.00424
1.01159
1.02485
1.05952
1.16103
1.35359
1.91395
2.43577
2.61543
2.60798
2.58902
2.55972
2.53714
2.52059
2.50571
2.49116
2.47668
1
1.00001
1.00003
1.00005
1.00015
1.00028
1.0008
1.00151
1.00429
1.00837
1.02237
1.0498
1.12122
1.30318
1.85579
2.38033
2.6059
2.60685
2.58955
2.56544
2.54339
2.52857
2.51613
2.50377
2.49098
1
1.00001
1.00002
1.00005
1.0001
1.0003
1.00055
1.00162
1.00298
1.00864
1.01702
1.04419
1.10724
1.24998
1.66022
2.44613
2.61718
2.61955
2.59566
2.57278
2.54785
2.5316
2.52017
2.51051
2.50044
1
1.00001
1.00002
1.00005
1.00009
1.00026
1.00048
1.00143
1.00259
1.0077
1.01464
1.0393
1.09242
1.21338
1.58173
2.3797
2.60248
2.6508
2.62023
2.59384
2.55872
2.53702
2.52404
2.5144
2.50528
1
1.00001
1.00001
1.00004
1.00008
1.00023
1.00041
1.00122
1.00222
1.00639
1.01268
1.03223
1.08213
1.17994
1.5212
2.27076
2.57204
2.67964
2.64786
2.62221
2.58254
2.55584
2.53906
2.5266
2.51568
1
1.00001
1.00001
1.00004
1.00007
1.0002
1.00036
1.00107
1.00192
1.00576
1.01084
1.0291
1.06805
1.15599
1.43476
2.12662
2.54163
2.69412
2.66357
2.63332
2.59174
2.56795
2.55444
2.54425
2.53435
1
1.00001
1.00001
1.00003
1.00006
1.00017
1.00031
1.00093
1.00169
1.00498
1.0094
1.02597
1.05709
1.13833
1.35727
1.98701
2.51384
2.69496
2.6577
2.63202
2.59055
2.5691
2.55968
2.55345
2.54705
1
1
1.00001
1.00002
1.00006
1.00012
1.00034
1.00064
1.00185
1.00352
1.00963
1.02071
1.05083
1.13322
1.31078
1.76905
2.59881
2.71496
2.66206
2.63796
2.59332
2.57072
2.56233
2.55805
2.5535
1
1
1.00001
1.00002
1.00005
1.00014
1.00026
1.00076
1.00138
1.00409
1.0078
1.02118
1.0485
1.11469
1.30764
1.82392
2.5124
2.73065
2.68027
2.65761
2.61271
2.58679
2.5762
2.57136
2.56759
1
1
1.00001
1.00002
1.00004
1.00013
1.00023
1.0007
1.00127
1.00378
1.00725
1.01935
1.04581
1.10683
1.29274
1.76604
2.47916
2.71039
2.70278
2.66803
2.62963
2.60285
2.59074
2.58532
2.58161
1
1
1.00001
1.00002
1.00005
1.00009
1.00026
1.00049
1.00142
1.00273
1.00742
1.01641
1.04033
1.11078
1.24894
1.68902
2.53803
2.7029
2.70432
2.67884
2.64601
2.61829
2.60275
2.59459
2.58939
1
1
1.00001
1.00002
1.00003
1.0001
1.00018
1.00051
1.00103
1.00255
1.00636
1.01426
1.04136
1.08796
1.27037
1.64674
2.40297
2.6942
2.71849
2.6935
2.66667
2.64077
2.62643
2.61794
2.61164
1
1
1.00001
1.00001
1.00004
1.00007
1.0002
1.00039
1.00105
1.00228
1.00556
1.01465
1.03331
1.09838
1.21144
1.633
2.46165
2.67371
2.72207
2.69838
2.67615
2.64899
2.63405
2.6264
2.62085
1
1
1
1.00001
1.00003
1.00008
1.00015
1.00039
1.00085
1.00201
1.00539
1.01174
1.03534
1.07517
1.238
1.54591
2.28935
2.66736
2.74266
2.71488
2.69429
2.66509
2.64997
2.6429
2.6369
1
1
1.00001
1.00001
1.00003
1.00006
1.00016
1.00032
1.0008
1.00194
1.00435
1.0124
1.02635
1.08332
1.17151
1.56366
2.34188
2.654
2.74765
2.7229
2.69549
2.66359
2.64785
2.64122
2.63598
1
1
1
1.00001
1.00002
1.00007
1.00013
1.00038
1.00073
1.00195
1.00436
1.01035
1.02875
1.06353
1.19295
1.4172
2.10606
2.64167
2.7691
2.74437
2.70472
2.66254
2.64341
2.63657
2.63162
1
1
1
1.00001
1.00002
1.00007
1.00013
1.0004
1.00072
1.00224
1.00404
1.01169
1.02469
1.06084
1.16512
1.3735
1.92576
2.65452
2.7691
2.74361
2.70033
2.6588
2.64355
2.64012
2.63697
1
1
1
1.00001
1.00002
1.00007
1.00013
1.00039
1.0007
1.00215
1.00388
1.01131
1.02329
1.05897
1.15192
1.36064
1.85812
2.70508
2.78583
2.75856
2.71794
2.67256
2.65335
2.64739
2.64233
1
1
1
1.00001
1.00002
1.00007
1.00012
1.00038
1.00067
1.00208
1.00375
1.01097
1.02254
1.05753
1.14852
1.35133
1.84885
2.72282
2.79693
2.77118
2.72963
2.67936
2.65412
2.64345
2.63622
1
1
1
1.00001
1.00002
1.00006
1.00012
1.00035
1.00064
1.00192
1.00363
1.00993
1.02239
1.05449
1.15008
1.34906
1.85108
2.72031
2.80595
2.78007
2.74248
2.69147
2.66201
2.64712
2.63734
1
1
1
1.00001
1.00002
1.00005
1.00014
1.00026
1.00072
1.00145
1.00368
1.009
1.02073
1.05966
1.13003
1.38069
2.02451
2.64656
2.78343
2.77133
2.73479
2.68459
2.65508
2.64082
2.63263
1
1
1
1.00001
1.00002
1.00006
1.00011
1.00034
1.00062
1.00187
1.00356
1.00976
1.02211
1.05384
1.14889
1.34589
1.84715
2.71426
2.80668
2.78196
2.74715
2.6918
2.65788
2.64098
2.63094
2.34784
2.3512
2.59484
2.85955
3.18912
3.13775
3.13184
3.09391
3.07946
3.07157
3.0698
3.07013
3.07122
3.07149
3.07177
3.07279
3.07354
3.07535
3.07799
3.08035
3.0837
3.08659
3.09052
3.09339
3.09709
3.09946
3.10229
3.10383
3.1048
3.10514
3.10439
3.10215
3.10032
3.09941
3.09768
3.09472
3.09255
3.08845
3.08353
3.07687
3.07259
3.06454
3.05946
3.04946
3.044
3.03418
3.02636
3.01706
3.00838
2.99819
2.98839
2.97799
2.96695
2.956
2.945
2.93359
2.92157
2.91
2.89777
2.88576
2.87331
2.86124
2.84855
2.83641
2.8239
2.81174
2.79999
2.78788
2.77638
2.76453
2.75299
2.74138
2.73003
2.71866
2.70752
2.6965
2.68575
2.67521
2.66513
2.65525
2.64608
2.6371
2.629
2.62154
2.61483
2.60949
2.60494
2.60236
2.60107
2.60121
2.60178
2.60256
2.60498
2.6094
2.61861
2.62476
2.63535
2.64049
2.64847
2.64605
2.30722
2.31427
2.43706
2.64352
2.7583
2.93031
3.06934
3.13563
3.17469
3.19197
3.25447
3.37142
3.36099
3.32949
3.31699
3.30693
3.29961
3.29175
3.29021
3.28486
3.27966
3.27086
3.26181
3.25136
3.23779
3.2233
3.20754
3.19131
3.17262
3.15532
3.13916
3.11848
3.10139
3.08321
3.0613
3.04361
3.02012
3.00408
2.98257
2.96791
2.95026
2.93496
2.91944
2.90506
2.88952
2.87547
2.8616
2.84739
2.83276
2.81893
2.8055
2.79153
2.77795
2.76368
2.74955
2.73569
2.72144
2.70786
2.69371
2.6799
2.66608
2.65221
2.63911
2.62566
2.61299
2.60016
2.58759
2.57535
2.56308
2.55115
2.53939
2.52775
2.51632
2.50525
2.49393
2.48359
2.47254
2.46275
2.4525
2.44326
2.43406
2.4259
2.41801
2.41122
2.40531
2.40016
2.39682
2.39415
2.39408
2.39447
2.39565
2.39679
2.39979
2.40413
2.41344
2.41909
2.42957
2.43458
2.44242
2.44016
2.35058
2.32172
2.36412
2.41433
2.46497
2.5172
2.59301
2.6788
2.75367
2.81446
2.87132
2.91692
2.95907
2.99293
3.00074
3.00714
3.01829
3.04045
3.07187
3.10472
3.11853
3.11737
3.11204
3.1007
3.08224
3.05839
3.03107
3.00044
2.96918
2.93851
2.91122
2.88559
2.86206
2.83547
2.80929
2.77952
2.75174
2.72336
2.69821
2.67462
2.65379
2.63512
2.61811
2.60327
2.58982
2.57758
2.56696
2.55721
2.5471
2.53663
2.52708
2.51753
2.5083
2.49855
2.48889
2.47888
2.46903
2.45897
2.44906
2.43901
2.42921
2.41921
2.40968
2.3998
2.39049
2.38073
2.37156
2.36193
2.35294
2.34343
2.3346
2.32527
2.31648
2.30733
2.29859
2.2896
2.281
2.27234
2.2639
2.25582
2.24769
2.24044
2.23314
2.22693
2.22118
2.21645
2.21287
2.21041
2.20977
2.20992
2.21046
2.21114
2.21343
2.21697
2.22445
2.2296
2.23846
2.24324
2.25074
2.24921
2.37911
2.34112
2.32384
2.33287
2.34578
2.36174
2.38041
2.40715
2.43832
2.47034
2.50386
2.53182
2.55399
2.56909
2.57824
2.58002
2.57827
2.57423
2.56812
2.56284
2.55818
2.55334
2.55004
2.5483
2.54757
2.5468
2.5455
2.5438
2.54279
2.54259
2.54203
2.54013
2.53594
2.5301
2.52206
2.51249
2.50272
2.49362
2.48589
2.47917
2.47305
2.46731
2.46142
2.45595
2.4498
2.44379
2.43743
2.43204
2.42603
2.41858
2.41145
2.40416
2.39709
2.38936
2.38156
2.37331
2.36499
2.35646
2.34782
2.33922
2.33053
2.32198
2.31343
2.30494
2.29665
2.28823
2.28013
2.2718
2.26376
2.25551
2.24741
2.23928
2.23108
2.22315
2.21485
2.20721
2.19895
2.19157
2.18366
2.17663
2.16938
2.16297
2.15676
2.15118
2.14653
2.14215
2.13948
2.13718
2.13718
2.13751
2.13847
2.1393
2.14213
2.14552
2.15292
2.1575
2.16646
2.17108
2.17926
2.17904
2.38161
2.35612
2.32563
2.31722
2.30277
2.30022
2.30036
2.3031
2.31017
2.32065
2.33316
2.34515
2.35449
2.36126
2.36536
2.36532
2.36423
2.36074
2.35697
2.35313
2.34933
2.34747
2.34354
2.34048
2.33807
2.33662
2.33621
2.33641
2.33739
2.33946
2.34243
2.34561
2.34875
2.3516
2.35519
2.35952
2.36442
2.36938
2.37369
2.37717
2.37924
2.37962
2.37938
2.37863
2.37656
2.37381
2.3698
2.3665
2.36264
2.35745
2.35155
2.34585
2.33991
2.33384
2.32719
2.32038
2.31318
2.3057
2.29813
2.29002
2.28231
2.27387
2.26621
2.25774
2.25011
2.24185
2.23422
2.22623
2.21856
2.2108
2.20303
2.19553
2.1876
2.18036
2.17239
2.16528
2.15753
2.15047
2.14309
2.13622
2.12937
2.12288
2.11696
2.11121
2.10673
2.10231
2.09973
2.09754
2.09751
2.09777
2.09868
2.09949
2.10251
2.1056
2.11204
2.11698
2.12489
2.12966
2.13741
2.13769
2.38374
2.36393
2.33988
2.31913
2.30371
2.2873
2.27818
2.2683
2.26169
2.2603
2.25972
2.2602
2.26119
2.26115
2.26064
2.25958
2.25726
2.25349
2.24957
2.24618
2.2435
2.2412
2.23951
2.23811
2.23755
2.23763
2.23822
2.23978
2.2422
2.24505
2.24916
2.25357
2.25889
2.26386
2.26928
2.27399
2.27829
2.28204
2.2849
2.28707
2.28914
2.28998
2.28987
2.28938
2.28803
2.28637
2.28354
2.28137
2.27856
2.27495
2.27008
2.26547
2.26042
2.25542
2.24991
2.24423
2.23834
2.23218
2.22601
2.21955
2.21315
2.2064
2.19977
2.19277
2.18592
2.17873
2.17166
2.16446
2.15716
2.15007
2.14255
2.13562
2.12812
2.12129
2.11406
2.10734
2.10048
2.09396
2.08745
2.08133
2.07538
2.06982
2.06474
2.05998
2.05604
2.05248
2.05004
2.0484
2.04825
2.04842
2.04883
2.04952
2.05217
2.05468
2.05967
2.06377
2.07015
2.07456
2.08129
2.08124
2.39007
2.36465
2.34594
2.32984
2.31661
2.29526
2.27947
2.2658
2.25466
2.24389
2.23753
2.2288
2.22428
2.21999
2.21408
2.20881
2.20449
2.19888
2.19545
2.19031
2.18586
2.18251
2.18033
2.17825
2.17728
2.17723
2.17757
2.17871
2.18138
2.1857
2.19073
2.19621
2.20184
2.20732
2.21266
2.21744
2.22221
2.22623
2.23039
2.23358
2.23695
2.23892
2.24086
2.24229
2.24241
2.24215
2.24147
2.24045
2.23924
2.23668
2.23329
2.2292
2.22503
2.22011
2.21516
2.20932
2.20361
2.19696
2.19056
2.18335
2.17647
2.16899
2.16185
2.15437
2.14716
2.13984
2.13256
2.12548
2.11813
2.11126
2.10389
2.09706
2.08978
2.08284
2.07574
2.0687
2.06182
2.05488
2.04832
2.04167
2.0357
2.0296
2.02453
2.0194
2.01552
2.01182
2.00955
2.00793
2.0079
2.00811
2.00853
2.00952
2.01216
2.01549
2.01997
2.0247
2.03022
2.03522
2.04147
2.04241
2.39779
2.36892
2.34955
2.33108
2.32052
2.30925
2.29613
2.27817
2.26154
2.24677
2.23511
2.22446
2.21492
2.20635
2.19803
2.18982
2.18254
2.17532
2.16909
2.16378
2.15838
2.15342
2.14915
2.14516
2.14314
2.1428
2.14329
2.14469
2.14766
2.15144
2.156
2.16103
2.16608
2.1714
2.1763
2.18124
2.18564
2.18974
2.1936
2.19681
2.19973
2.20245
2.20409
2.20551
2.20602
2.20588
2.20549
2.20466
2.2037
2.20146
2.19871
2.19474
2.19098
2.18626
2.18177
2.17653
2.17146
2.16577
2.16016
2.15405
2.14797
2.14158
2.13513
2.12858
2.12183
2.11518
2.1082
2.10147
2.0944
2.08758
2.08062
2.07366
2.06689
2.05987
2.05337
2.04647
2.04023
2.03357
2.02773
2.02146
2.01615
2.01059
2.00599
2.00149
1.99797
1.9949
1.99288
1.9919
1.99199
1.99237
1.99283
1.99401
1.99676
2
2.00417
2.00848
2.01351
2.01794
2.02385
2.0248
2.40849
2.37968
2.35756
2.33737
2.32288
2.3118
2.30063
2.29137
2.28047
2.26688
2.25222
2.23673
2.22313
2.21108
2.20005
2.18991
2.18043
2.17157
2.16327
2.1557
2.14883
2.14219
2.13703
2.13262
2.1291
2.12829
2.12863
2.12966
2.13196
2.13459
2.13834
2.14195
2.14601
2.14991
2.15393
2.15776
2.16172
2.16521
2.16879
2.1718
2.17478
2.17684
2.17912
2.18012
2.1807
2.1806
2.18029
2.17965
2.17876
2.17689
2.17428
2.17099
2.16718
2.16307
2.15845
2.15376
2.14848
2.14323
2.13736
2.1316
2.1253
2.1192
2.11261
2.10633
2.09959
2.09316
2.08639
2.07979
2.07312
2.06634
2.05979
2.05289
2.04647
2.03955
2.0332
2.02641
2.02016
2.01367
2.00769
2.00171
1.99626
1.99105
1.98643
1.9823
1.97886
1.97615
1.97428
1.97358
1.97368
1.97403
1.97445
1.97569
1.97867
1.9811
1.98535
1.98837
1.99318
1.99634
2.00207
2.00251
2.41569
2.3918
2.36896
2.34959
2.33191
2.31904
2.30836
2.29889
2.28987
2.28048
2.27039
2.25998
2.24805
2.23523
2.22213
2.20946
2.19692
2.18522
2.17365
2.16299
2.153
2.14416
2.13699
2.13158
2.12809
2.1263
2.12509
2.12524
2.1259
2.12743
2.1294
2.13106
2.13349
2.13586
2.1388
2.14168
2.14494
2.14796
2.15093
2.15393
2.15611
2.15874
2.1602
2.16176
2.16218
2.16213
2.16188
2.1613
2.16033
2.15877
2.1563
2.15344
2.14972
2.146
2.1415
2.13714
2.13204
2.12709
2.12143
2.11591
2.1098
2.10385
2.09749
2.09126
2.08484
2.0784
2.072
2.06539
2.05904
2.05236
2.04606
2.03946
2.03313
2.02667
2.02033
2.01407
2.00789
2.00186
1.99602
1.99042
1.98512
1.9803
1.97588
1.97218
1.96899
1.96675
1.96521
1.96486
1.96497
1.96537
1.96587
1.96724
1.97016
1.97219
1.97593
1.97835
1.98249
1.98499
1.9903
1.9904
2.42016
2.3988
2.37802
2.35889
2.34201
2.32759
2.31633
2.30692
2.29908
2.29171
2.284
2.27572
2.26637
2.25608
2.24487
2.23283
2.21991
2.20681
2.19368
2.18148
2.17056
2.16151
2.15393
2.14811
2.14294
2.13892
2.13516
2.13174
2.1293
2.12572
2.12437
2.12434
2.12466
2.12558
2.1274
2.12986
2.13241
2.13527
2.13786
2.14079
2.14267
2.14539
2.14644
2.14833
2.14872
2.14872
2.14849
2.14807
2.1472
2.14586
2.14363
2.14086
2.13749
2.13386
2.12974
2.12537
2.12058
2.11555
2.11022
2.10462
2.09891
2.09289
2.087
2.08076
2.07473
2.0684
2.0622
2.05581
2.04943
2.04306
2.03659
2.03025
2.02375
2.01751
2.01107
2.00502
1.99882
1.9931
1.98733
1.98214
1.97704
1.97266
1.96852
1.96525
1.96239
1.96053
1.95934
1.95915
1.95925
1.95955
1.96024
1.96173
1.96444
1.96631
1.96934
1.97134
1.97467
1.97668
1.98125
1.98075
2.42566
2.40557
2.38631
2.36784
2.35134
2.33634
2.32419
2.31403
2.30644
2.29983
2.29432
2.28819
2.28158
2.27335
2.26379
2.25266
2.24058
2.22812
2.21587
2.20455
2.19411
2.18483
2.17602
2.16774
2.1595
2.1513
2.14326
2.13593
2.12928
2.12431
2.12079
2.11718
2.11696
2.11725
2.11811
2.12022
2.12245
2.1253
2.12768
2.13054
2.13232
2.135
2.13595
2.13791
2.13823
2.13822
2.13802
2.13754
2.13691
2.13561
2.13376
2.13103
2.12808
2.12455
2.12079
2.11647
2.11196
2.10699
2.10191
2.09643
2.0909
2.08511
2.07929
2.07334
2.06731
2.0613
2.05504
2.04899
2.04255
2.03645
2.02993
2.02381
2.01736
2.01126
2.00498
1.99905
1.99303
1.98748
1.98195
1.97696
1.9722
1.96811
1.96442
1.96152
1.95917
1.95772
1.95696
1.95698
1.95711
1.95741
1.9584
1.95985
1.96217
1.96377
1.96609
1.96758
1.97002
1.97149
1.97518
1.97399
2.42976
2.41129
2.39366
2.37654
2.3611
2.34668
2.33441
2.32383
2.31576
2.30928
2.30437
2.29973
2.2949
2.28895
2.28169
2.27307
2.26326
2.25283
2.24185
2.23071
2.21929
2.20759
2.19551
2.18302
2.17037
2.15839
2.14694
2.13709
2.12861
2.1218
2.11698
2.11366
2.11168
2.11118
2.11155
2.11282
2.11459
2.11707
2.11933
2.1218
2.12363
2.12602
2.12688
2.12872
2.12889
2.12882
2.12854
2.12795
2.12726
2.12605
2.12421
2.12172
2.11888
2.11563
2.11194
2.10783
2.10325
2.09848
2.09324
2.088
2.08231
2.07669
2.07071
2.06486
2.05877
2.05276
2.04664
2.04053
2.03439
2.0282
2.02207
2.01589
2.00985
2.00384
1.99799
1.99231
1.98683
1.98161
1.9767
1.97214
1.96802
1.96436
1.96129
1.95881
1.95702
1.95597
1.95558
1.95559
1.95581
1.95614
1.95748
1.95864
1.96038
1.96135
1.96287
1.96361
1.96514
1.96581
1.96859
1.96668
2.43252
2.41601
2.39982
2.38432
2.37002
2.35695
2.34512
2.335
2.32663
2.32024
2.31541
2.31149
2.30776
2.30335
2.29787
2.29099
2.28256
2.27294
2.26156
2.24921
2.23524
2.22045
2.20496
2.18922
2.17426
2.16007
2.14753
2.13673
2.12779
2.12082
2.11544
2.11176
2.10947
2.10794
2.10758
2.10778
2.10833
2.10997
2.11157
2.11343
2.11495
2.11681
2.11744
2.11878
2.11874
2.11855
2.11801
2.11737
2.11652
2.11544
2.1136
2.11132
2.10857
2.10554
2.10204
2.09805
2.09365
2.08883
2.08381
2.07851
2.07306
2.06737
2.06159
2.05563
2.04972
2.04363
2.03774
2.03163
2.02574
2.01963
2.01373
2.00773
2.00196
1.9962
1.99072
1.98535
1.98033
1.97554
1.97116
1.96711
1.96362
1.96051
1.95808
1.95614
1.9549
1.9543
1.9541
1.95413
1.95427
1.95485
1.95602
1.95695
1.95767
1.95855
1.95873
1.95907
1.95934
1.95956
1.96101
1.95822
2.43549
2.42052
2.40552
2.39124
2.37811
2.36629
2.35562
2.34634
2.33845
2.3322
2.32717
2.32316
2.31937
2.31539
2.31051
2.30421
2.29614
2.2859
2.27343
2.25906
2.24271
2.2259
2.20825
2.19177
2.17591
2.16181
2.14952
2.13887
2.13012
2.12285
2.11705
2.11245
2.10868
2.10607
2.10409
2.10299
2.10222
2.10222
2.10239
2.10321
2.10417
2.10533
2.10571
2.10661
2.10652
2.1062
2.10569
2.10497
2.10432
2.10325
2.10173
2.0995
2.09698
2.09408
2.09079
2.087
2.08277
2.07817
2.07337
2.06829
2.0631
2.05762
2.05208
2.04638
2.04063
2.03493
2.02916
2.02342
2.01767
2.01187
2.00617
2.00038
1.99483
1.98927
1.984
1.97892
1.97411
1.96969
1.96561
1.96201
1.95891
1.95629
1.95433
1.95285
1.95208
1.95171
1.95157
1.95162
1.95196
1.95289
1.95326
1.95414
1.95412
1.95401
1.95377
1.95332
1.95277
1.95218
1.95203
1.94936
2.43971
2.42547
2.4115
2.39824
2.38604
2.37525
2.36555
2.35714
2.34966
2.34342
2.33832
2.33415
2.33058
2.32652
2.3216
2.31455
2.30536
2.29327
2.27902
2.26246
2.24501
2.22686
2.20938
2.19283
2.17765
2.16428
2.15228
2.14197
2.13288
2.125
2.11806
2.11208
2.10711
2.10277
2.09957
2.09687
2.09514
2.09371
2.0931
2.09275
2.09282
2.09325
2.09353
2.0942
2.0942
2.09404
2.09364
2.09302
2.09234
2.09139
2.0898
2.0877
2.08522
2.08256
2.0795
2.07609
2.07219
2.06797
2.06349
2.05883
2.05402
2.04895
2.04379
2.03837
2.03305
2.02751
2.02211
2.01656
2.01102
2.00546
1.99982
1.99431
1.98876
1.98342
1.97825
1.97329
1.96872
1.96443
1.96067
1.95741
1.9547
1.95263
1.95111
1.95021
1.94986
1.9496
1.94961
1.94987
1.95056
1.95094
1.95161
1.95137
1.95086
1.95033
1.9493
1.94838
1.94707
1.94583
1.94512
1.9426
2.44843
2.43486
2.42142
2.40851
2.39658
2.38613
2.37687
2.36871
2.36136
2.35498
2.34955
2.34486
2.3404
2.3354
2.32894
2.32041
2.30928
2.29565
2.27986
2.26264
2.24478
2.22706
2.21019
2.1944
2.17996
2.16683
2.15486
2.14415
2.13426
2.12542
2.11744
2.11021
2.10398
2.09848
2.09376
2.09001
2.08697
2.08468
2.08281
2.08168
2.08111
2.08073
2.0808
2.08097
2.08135
2.08133
2.08113
2.0807
2.08015
2.07934
2.07799
2.07596
2.07382
2.0712
2.06846
2.06512
2.06157
2.05752
2.05337
2.04893
2.04436
2.03954
2.03455
2.02947
2.02434
2.01923
2.01411
2.00896
2.00381
1.99858
1.99344
1.98826
1.98325
1.97834
1.97367
1.96931
1.9652
1.96165
1.9584
1.95588
1.95372
1.95235
1.95134
1.95094
1.95071
1.95045
1.95067
1.95126
1.95148
1.95173
1.95117
1.95058
1.94943
1.94866
1.94704
1.94556
1.9433
1.94171
1.94062
1.9383
2.45438
2.44153
2.42898
2.41691
2.40572
2.39552
2.38635
2.37787
2.37032
2.36357
2.35774
2.35239
2.34703
2.34081
2.33305
2.32296
2.31063
2.29593
2.27975
2.26246
2.24509
2.22802
2.21178
2.19645
2.18213
2.16882
2.15649
2.14513
2.13467
2.12512
2.11638
2.10855
2.10144
2.09522
2.08998
2.08526
2.08135
2.07797
2.07532
2.07347
2.07241
2.07176
2.07164
2.0717
2.0719
2.07203
2.07194
2.07166
2.07118
2.07057
2.06926
2.06752
2.06531
2.06292
2.06015
2.05706
2.0535
2.04964
2.04545
2.04111
2.0365
2.03172
2.02676
2.02178
2.01675
2.0118
2.00684
2.00193
1.99705
1.99215
1.9874
1.98265
1.97817
1.97375
1.96976
1.96592
1.96264
1.95967
1.95737
1.95553
1.95428
1.95355
1.95314
1.95308
1.95283
1.95313
1.95392
1.95413
1.9542
1.95378
1.95278
1.95205
1.95056
1.94929
1.94658
1.94444
1.94158
1.93955
1.93791
1.93531
2.46246
2.44882
2.43615
2.42451
2.41429
2.40484
2.39612
2.38775
2.38005
2.37297
2.36652
2.36025
2.35364
2.34591
2.33657
2.32519
2.31189
2.29692
2.28091
2.26436
2.24788
2.23158
2.21594
2.20094
2.18696
2.17372
2.16157
2.15006
2.13945
2.12949
2.12016
2.11161
2.10357
2.09639
2.08971
2.0839
2.07909
2.07512
2.07217
2.06955
2.06763
2.06637
2.0656
2.06512
2.06496
2.065
2.06507
2.06506
2.06496
2.06464
2.06406
2.06297
2.06133
2.05919
2.05665
2.05373
2.0503
2.04653
2.04232
2.03799
2.03326
2.02852
2.02348
2.01866
2.01365
2.00901
2.00416
1.99973
1.99507
1.9908
1.98634
1.98224
1.97812
1.97436
1.97084
1.96763
1.96488
1.96245
1.96064
1.95923
1.9585
1.95816
1.95815
1.95805
1.95851
1.95945
1.96005
1.9601
1.95965
1.95894
1.95757
1.95647
1.95417
1.952
1.94844
1.94567
1.94208
1.93927
1.93707
1.93427
2.47795
2.46447
2.45122
2.43842
2.42639
2.41521
2.40494
2.39567
2.38733
2.3798
2.37288
2.36598
2.35862
2.35005
2.33994
2.32809
2.31466
2.30012
2.28479
2.26921
2.25346
2.23808
2.22314
2.20888
2.19524
2.18226
2.16978
2.15799
2.14665
2.13605
2.12597
2.11668
2.10801
2.10016
2.09297
2.08668
2.08099
2.07599
2.07157
2.0677
2.06444
2.06201
2.06022
2.05906
2.05824
2.058
2.05806
2.05826
2.05838
2.05833
2.0581
2.05749
2.05654
2.05485
2.05295
2.05025
2.04734
2.04377
2.04001
2.03576
2.03126
2.02646
2.02158
2.01658
2.01162
2.00663
2.00178
1.99696
1.99244
1.98798
1.984
1.9802
1.97683
1.97372
1.9709
1.96853
1.9666
1.9651
1.96428
1.96357
1.96349
1.96333
1.96335
1.96395
1.96484
1.96567
1.9657
1.96543
1.9645
1.96375
1.96218
1.96076
1.95787
1.95522
1.95151
1.94845
1.9447
1.94165
1.93926
1.93662
2.48928
2.47681
2.46377
2.45079
2.43841
2.42684
2.41629
2.40675
2.39826
2.39051
2.3832
2.37572
2.36742
2.35792
2.34694
2.3346
2.32118
2.30683
2.29206
2.27697
2.26198
2.24712
2.2326
2.21844
2.20467
2.19137
2.17852
2.16623
2.15447
2.14332
2.13281
2.12287
2.11371
2.10506
2.0972
2.08982
2.08317
2.07708
2.07174
2.06699
2.06304
2.05966
2.05711
2.05531
2.05434
2.05382
2.05333
2.05303
2.05274
2.05255
2.05217
2.05171
2.05077
2.04958
2.04784
2.04572
2.04302
2.03983
2.03617
2.03209
2.02768
2.02297
2.01813
2.0131
2.00814
2.00313
1.99828
1.99348
1.98887
1.98445
1.98032
1.97648
1.97315
1.97026
1.96809
1.96635
1.96512
1.96459
1.96425
1.96428
1.96431
1.96458
1.96572
1.96635
1.96755
1.9677
1.96759
1.96698
1.96614
1.96538
1.96383
1.96223
1.95933
1.9569
1.95344
1.95072
1.94719
1.94449
1.94218
1.94006
2.49572
2.48556
2.47449
2.46325
2.45206
2.44165
2.43191
2.42306
2.41469
2.40679
2.39878
2.39054
2.38142
2.3714
2.36014
2.34779
2.3344
2.32019
2.30539
2.29026
2.275
2.25984
2.24495
2.23049
2.21662
2.20333
2.19078
2.17874
2.16749
2.15665
2.14646
2.13681
2.12775
2.11928
2.11122
2.10376
2.09652
2.0899
2.08346
2.07758
2.07205
2.067
2.06258
2.05887
2.05584
2.05349
2.052
2.05111
2.05076
2.05051
2.05029
2.04983
2.04915
2.04787
2.04618
2.0439
2.04114
2.03792
2.03429
2.0304
2.02623
2.02193
2.01745
2.01294
2.00843
2.00384
1.99938
1.99486
1.99051
1.98626
1.98223
1.97857
1.97526
1.97244
1.97036
1.9687
1.96794
1.9676
1.96765
1.96778
1.96839
1.96991
1.97091
1.9722
1.97271
1.97263
1.97224
1.97159
1.97078
1.96981
1.96802
1.96618
1.96321
1.96095
1.95742
1.95506
1.95134
1.94904
1.94646
1.94484
2.50483
2.49418
2.48347
2.47304
2.46307
2.45386
2.44541
2.43762
2.43036
2.42316
2.41582
2.40772
2.3988
2.38851
2.37707
2.36423
2.35043
2.33575
2.32067
2.3054
2.29035
2.27561
2.26143
2.24781
2.23482
2.2223
2.21027
2.19862
2.18728
2.17632
2.16568
2.15532
2.14519
2.13528
2.12567
2.11632
2.10741
2.09893
2.09105
2.08389
2.07745
2.07177
2.06683
2.06284
2.05968
2.0573
2.05553
2.05424
2.05329
2.05237
2.05159
2.05053
2.04939
2.04771
2.04578
2.04331
2.0405
2.0374
2.03393
2.03042
2.02658
2.02284
2.01882
2.01492
2.01086
2.00683
2.0028
1.9987
1.99469
1.99075
1.98691
1.98352
1.98038
1.97793
1.97608
1.97496
1.97438
1.97446
1.97467
1.97602
1.97717
1.97932
1.98056
1.98182
1.98211
1.98201
1.98152
1.98083
1.97997
1.97847
1.97642
1.97401
1.97105
1.96837
1.96495
1.96243
1.95891
1.95686
1.95434
1.95325
2.52389
2.51317
2.50299
2.49326
2.48409
2.47523
2.4669
2.45874
2.45086
2.44264
2.43403
2.42436
2.41364
2.40163
2.38861
2.37471
2.3603
2.34566
2.33099
2.31655
2.30231
2.28848
2.27484
2.26162
2.24853
2.23577
2.22313
2.21078
2.19861
2.18669
2.17499
2.16348
2.15224
2.14119
2.13058
2.12023
2.11064
2.10133
2.09307
2.08536
2.07865
2.07268
2.06773
2.06345
2.06
2.05715
2.05465
2.05264
2.0507
2.04903
2.04716
2.04543
2.04341
2.04137
2.03913
2.03687
2.0346
2.03224
2.02981
2.02724
2.0245
2.02166
2.01858
2.01542
2.01209
2.00857
2.00523
2.00169
1.99849
1.99553
1.99272
1.99071
1.98882
1.98771
1.98701
1.98702
1.98731
1.98781
1.98989
1.99199
1.99438
1.99672
1.99843
2.00002
2.00033
2.00019
1.99992
1.99921
1.99769
1.99562
1.99311
1.9902
1.98709
1.9838
1.98027
1.97678
1.97299
1.96936
1.96652
1.96357
2.54011
2.53266
2.52506
2.5172
2.50926
2.5008
2.49212
2.48277
2.47309
2.46266
2.45175
2.44014
2.42791
2.41506
2.40157
2.38764
2.37324
2.35872
2.34401
2.32947
2.31495
2.30072
2.28655
2.27268
2.25894
2.2455
2.23229
2.2194
2.20679
2.1945
2.18254
2.17091
2.15968
2.1488
2.13841
2.12837
2.11894
2.10993
2.1016
2.09371
2.08659
2.08
2.07397
2.06843
2.0633
2.0587
2.05462
2.05101
2.0477
2.04484
2.04243
2.04036
2.03859
2.03706
2.03555
2.03416
2.03256
2.03102
2.02937
2.02735
2.02543
2.02294
2.02062
2.01782
2.01503
2.01202
2.009
2.00611
2.00329
2.00099
1.99881
1.99761
1.99662
1.99651
1.99672
1.99723
1.9984
2.00085
2.00359
2.00647
2.00931
2.01186
2.01382
2.01516
2.01533
2.01522
2.01485
2.01387
2.01176
2.00891
2.00546
2.00196
1.99769
1.99365
1.98879
1.98432
1.97941
1.97481
1.97146
1.96758
2.54777