/*--------------------------------*- C++ -*----------------------------------*\
  =========                 |
  \\      /  F ield         | OpenFOAM: The Open Source CFD Toolbox
   \\    /   O peration     | Website:  https://openfoam.org
    \\  /    A nd           | Version:  6
     \\/     M anipulation  |
\*---------------------------------------------------------------------------*/
FoamFile
{
    version     2.0;
    format      ascii;
    class       volVectorField;
    location    "9";
    object      U;
}
// * * * * * * * * * * * * * * * * * * * * * * * * * * * * * * * * * * * * * //

dimensions      [0 1 -1 0 0 0 0];

internalField   nonuniform List<vector> 
5250
(
(2.99991 7.57186e-08 0)
(2.99973 4.8576e-07 0)
(2.99929 1.51001e-06 0)
(2.9984 4.12704e-06 0)
(2.99604 9.51948e-06 0)
(2.99137 2.32745e-05 0)
(2.97786 4.93982e-05 0)
(2.95152 0.000122758 0)
(2.86951 0.00026803 0)
(2.66224 0.000687731 0)
(2.11473 0.00159101 0)
(0.640167 0.00465339 0)
(-0.162195 0.0110238 0)
(0.190238 0.0172882 0)
(0.50941 0.0223298 0)
(0.598995 0.0251144 0)
(0.558296 0.027041 0)
(0.465469 0.0278576 0)
(0.370417 0.0297148 0)
(0.311547 0.0326599 0)
(0.262575 0.0360877 0)
(0.204913 0.0397596 0)
(0.142227 0.0437329 0)
(0.0825106 0.0484741 0)
(0.0402986 0.0552127 0)
(2.99991 2.34755e-07 0)
(2.99973 1.51067e-06 0)
(2.9993 4.68962e-06 0)
(2.9984 1.28631e-05 0)
(2.99606 2.96511e-05 0)
(2.9914 7.29983e-05 0)
(2.97793 0.000154948 0)
(2.95168 0.000386371 0)
(2.86992 0.000865555 0)
(2.66335 0.00217193 0)
(2.11776 0.00518608 0)
(0.647007 0.0152354 0)
(-0.155197 0.0348074 0)
(0.198228 0.0512484 0)
(0.515336 0.0631132 0)
(0.601408 0.0687315 0)
(0.558794 0.0720617 0)
(0.46636 0.0728177 0)
(0.373248 0.0760225 0)
(0.314741 0.0811995 0)
(0.264827 0.0865049 0)
(0.206135 0.0911457 0)
(0.142908 0.0951155 0)
(0.0821912 0.0988163 0)
(0.0390548 0.102261 0)
(2.99991 4.07654e-07 0)
(2.99973 2.62869e-06 0)
(2.9993 8.15535e-06 0)
(2.99841 2.24316e-05 0)
(2.99609 5.17348e-05 0)
(2.99146 0.000128021 0)
(2.97809 0.000272383 0)
(2.95206 0.000680877 0)
(2.87083 0.00155446 0)
(2.6659 0.00385695 0)
(2.12509 0.00941109 0)
(0.663854 0.0277544 0)
(-0.136378 0.0616426 0)
(0.211896 0.086865 0)
(0.523076 0.104285 0)
(0.604145 0.113464 0)
(0.559079 0.119871 0)
(0.467438 0.123442 0)
(0.37768 0.130285 0)
(0.320195 0.139407 0)
(0.269277 0.148516 0)
(0.209277 0.15653 0)
(0.145054 0.162883 0)
(0.0825518 0.16747 0)
(0.0377251 0.169567 0)
(2.99991 5.89976e-07 0)
(2.99974 3.80427e-06 0)
(2.99931 1.18103e-05 0)
(2.99843 3.24865e-05 0)
(2.99613 7.5103e-05 0)
(2.99156 0.000185525 0)
(2.97834 0.000397137 0)
(2.95267 0.000994453 0)
(2.87228 0.0022353 0)
(2.67006 0.00575638 0)
(2.13712 0.0138171 0)
(0.691111 0.0410358 0)
(-0.106796 0.0891776 0)
(0.230597 0.122197 0)
(0.532863 0.14394 0)
(0.608424 0.156463 0)
(0.561359 0.166329 0)
(0.471239 0.173962 0)
(0.385379 0.185175 0)
(0.329158 0.198685 0)
(0.277576 0.212339 0)
(0.216484 0.224951 0)
(0.150965 0.235287 0)
(0.0857937 0.242491 0)
(0.0377593 0.245395 0)
(2.99991 7.75734e-07 0)
(2.99974 4.99944e-06 0)
(2.99932 1.55234e-05 0)
(2.99846 4.26722e-05 0)
(2.99619 9.86713e-05 0)
(2.99169 0.000243394 0)
(2.97868 0.000520823 0)
(2.95348 0.00131661 0)
(2.87436 0.00286109 0)
(2.67587 0.00779298 0)
(2.15321 0.0182204 0)
(0.728578 0.0547813 0)
(-0.067468 0.117288 0)
(0.253719 0.157998 0)
(0.544171 0.183479 0)
(0.613819 0.198585 0)
(0.565532 0.211474 0)
(0.477768 0.223279 0)
(0.396148 0.239041 0)
(0.341459 0.257159 0)
(0.289652 0.275689 0)
(0.227881 0.293471 0)
(0.160928 0.308657 0)
(0.0925519 0.319612 0)
(0.0398656 0.324529 0)
(2.99992 9.66084e-07 0)
(2.99975 6.22596e-06 0)
(2.99933 1.93208e-05 0)
(2.99849 5.3124e-05 0)
(2.99627 0.000122541 0)
(2.99186 0.000303137 0)
(2.97912 0.000643064 0)
(2.95447 0.00165238 0)
(2.87708 0.00349465 0)
(2.68337 0.00985516 0)
(2.17364 0.0227941 0)
(0.776651 0.0687669 0)
(-0.0180081 0.146208 0)
(0.281324 0.194773 0)
(0.55702 0.222951 0)
(0.620338 0.239974 0)
(0.571919 0.255576 0)
(0.48769 0.271775 0)
(0.41077 0.292503 0)
(0.357797 0.315771 0)
(0.306147 0.339978 0)
(0.244148 0.36411 0)
(0.175714 0.385601 0)
(0.103132 0.401832 0)
(0.0440121 0.409738 0)
(2.99992 1.16562e-06 0)
(2.99975 7.51216e-06 0)
(2.99935 2.33086e-05 0)
(2.99852 6.40988e-05 0)
(2.99637 0.000147733 0)
(2.99206 0.000365873 0)
(2.97966 0.000773525 0)
(2.95567 0.00199885 0)
(2.88044 0.00419069 0)
(2.69267 0.0119086 0)
(2.19871 0.0275069 0)
(0.835982 0.0825083 0)
(0.0425585 0.175941 0)
(0.313379 0.233775 0)
(0.571342 0.261435 0)
(0.628285 0.2798 0)
(0.5812 0.298074 0)
(0.501929 0.319209 0)
(0.430232 0.345404 0)
(0.379481 0.374482 0)
(0.328868 0.405343 0)
(0.267471 0.437583 0)
(0.19762 0.468144 0)
(0.119351 0.493311 0)
(0.0510977 0.507502 0)
(2.99992 1.37461e-06 0)
(2.99976 8.85682e-06 0)
(2.99937 2.74819e-05 0)
(2.99857 7.55442e-05 0)
(2.99648 0.000174094 0)
(2.99231 0.000430786 0)
(2.98031 0.000910482 0)
(2.95709 0.00235084 0)
(2.88443 0.004914 0)
(2.70369 0.0139544 0)
(2.22824 0.0322018 0)
(0.906744 0.0959123 0)
(0.11547 0.206304 0)
(0.348499 0.274756 0)
(0.582942 0.298812 0)
(0.636597 0.317825 0)
(0.593306 0.338546 0)
(0.520855 0.36491 0)
(0.455136 0.396972 0)
(0.407481 0.432601 0)
(0.359462 0.471357 0)
(0.300771 0.513834 0)
(0.231394 0.557517 0)
(0.147372 0.598925 0)
(0.065069 0.628177 0)
(2.99992 1.60011e-06 0)
(2.99977 1.03055e-05 0)
(2.9994 3.19739e-05 0)
(2.99862 8.78343e-05 0)
(2.99661 0.000202262 0)
(2.99259 0.000500025 0)
(2.98107 0.00105422 0)
(2.95874 0.00272331 0)
(2.88905 0.00565402 0)
(2.71641 0.0160552 0)
(2.2621 0.036949 0)
(0.988977 0.108967 0)
(0.201077 0.236828 0)
(0.386775 0.315961 0)
(0.592164 0.33609 0)
(0.645231 0.35464 0)
(0.608178 0.376956 0)
(0.544593 0.408082 0)
(0.486001 0.446055 0)
(0.443097 0.488994 0)
(0.400192 0.535878 0)
(0.348342 0.590527 0)
(0.28531 0.654169 0)
(0.199286 0.724 0)
(0.0958803 0.794316 0)
(2.99993 1.86257e-06 0)
(2.99978 1.19934e-05 0)
(2.99942 3.7224e-05 0)
(2.99869 0.000102188 0)
(2.99677 0.000235656 0)
(2.99291 0.000580741 0)
(2.98194 0.00123096 0)
(2.96062 0.00313656 0)
(2.89434 0.00661662 0)
(2.73083 0.0182362 0)
(2.30008 0.0426437 0)
(1.0814 0.121972 0)
(0.29799 0.267624 0)
(0.428255 0.356497 0)
(0.600122 0.372531 0)
(0.654236 0.389593 0)
(0.625661 0.412886 0)
(0.573141 0.447685 0)
(0.523446 0.491301 0)
(0.486533 0.540041 0)
(0.452103 0.595219 0)
(0.416334 0.664675 0)
(0.372595 0.754207 0)
(0.304997 0.871416 0)
(0.173944 1.05552 0)
(2.99993 2.17884e-06 0)
(2.99979 1.40358e-05 0)
(2.99945 4.36245e-05 0)
(2.99876 0.000119739 0)
(2.99694 0.000277859 0)
(2.9933 0.000680283 0)
(2.98293 0.00147295 0)
(2.96287 0.0036226 0)
(2.90031 0.00802994 0)
(2.74749 0.0207623 0)
(2.34221 0.050075 0)
(1.18211 0.137126 0)
(0.404196 0.302417 0)
(0.471136 0.393071 0)
(0.605336 0.406202 0)
(0.663098 0.420871 0)
(0.645168 0.446334 0)
(0.60576 0.481948 0)
(0.565652 0.529507 0)
(0.537284 0.581769 0)
(0.51829 0.644836 0)
(0.508749 0.728167 0)
(0.509324 0.837125 0)
(0.543005 0.980252 0)
(0.580701 1.18308 0)
(2.99994 2.51145e-06 0)
(2.99981 1.61916e-05 0)
(2.99949 5.03157e-05 0)
(2.99884 0.000138282 0)
(2.99715 0.0003209 0)
(2.99377 0.000787652 0)
(2.98408 0.00170529 0)
(2.96565 0.00418459 0)
(2.90715 0.00942423 0)
(2.76686 0.0235738 0)
(2.39001 0.0592097 0)
(1.29418 0.156743 0)
(0.516309 0.348077 0)
(0.510587 0.419792 0)
(0.609523 0.435661 0)
(0.673023 0.447759 0)
(0.665937 0.474498 0)
(0.639221 0.509272 0)
(0.610968 0.556639 0)
(0.593907 0.611897 0)
(0.595306 0.680548 0)
(0.614938 0.768409 0)
(0.654351 0.877086 0)
(0.747581 1.00569 0)
(0.885786 1.13781 0)
(2.99994 2.82781e-06 0)
(2.99982 1.82313e-05 0)
(2.99953 5.66202e-05 0)
(2.99894 0.000155677 0)
(2.99739 0.000360392 0)
(2.99429 0.000887379 0)
(2.98542 0.00190515 0)
(2.96878 0.00478505 0)
(2.91483 0.0103144 0)
(2.79013 0.0272316 0)
(2.44534 0.0661681 0)
(1.42602 0.181546 0)
(0.63179 0.404048 0)
(0.542013 0.443235 0)
(0.619648 0.458792 0)
(0.684331 0.466573 0)
(0.687984 0.492472 0)
(0.671963 0.527706 0)
(0.657179 0.573537 0)
(0.655125 0.630518 0)
(0.673996 0.699559 0)
(0.713538 0.779729 0)
(0.774607 0.870649 0)
(0.878787 0.966165 0)
(1.0213 1.03534 0)
(2.99995 3.13246e-06 0)
(2.99984 2.01998e-05 0)
(2.99958 6.27656e-05 0)
(2.99905 0.000172642 0)
(2.99766 0.000400504 0)
(2.99487 0.000985159 0)
(2.98694 0.00212688 0)
(2.97208 0.00539266 0)
(2.92398 0.0111999 0)
(2.81466 0.0314219 0)
(2.50958 0.0717184 0)
(1.59041 0.208152 0)
(0.756029 0.468485 0)
(0.563183 0.470861 0)
(0.627912 0.472982 0)
(0.695409 0.476445 0)
(0.712602 0.502154 0)
(0.706752 0.538658 0)
(0.703964 0.583398 0)
(0.714891 0.637851 0)
(0.744365 0.700039 0)
(0.793002 0.766605 0)
(0.861535 0.835964 0)
(0.961533 0.901419 0)
(1.0864 0.941079 0)
(2.99995 3.35488e-06 0)
(2.99986 2.1666e-05 0)
(2.99963 6.73415e-05 0)
(2.99917 0.000185697 0)
(2.99796 0.000431711 0)
(2.99552 0.00106572 0)
(2.98864 0.0023107 0)
(2.9757 0.00588229 0)
(2.93441 0.0121909 0)
(2.84174 0.034462 0)
(2.58268 0.0781962 0)
(1.79301 0.229214 0)
(0.897002 0.535398 0)
(0.581493 0.506363 0)
(0.64095 0.489814 0)
(0.714534 0.486381 0)
(0.74382 0.509208 0)
(0.744891 0.544615 0)
(0.749285 0.586091 0)
(0.767806 0.633969 0)
(0.802597 0.685863 0)
(0.854229 0.739284 0)
(0.922515 0.791405 0)
(1.01244 0.837207 0)
(1.1206 0.862434 0)
(2.99996 3.32048e-06 0)
(2.99988 2.14618e-05 0)
(2.99969 6.67151e-05 0)
(2.99929 0.000184236 0)
(2.99827 0.000428694 0)
(2.99621 0.00106067 0)
(2.99047 0.0023025 0)
(2.97961 0.00588766 0)
(2.9456 0.0121075 0)
(2.87081 0.0344172 0)
(2.66197 0.078261 0)
(2.0307 0.22873 0)
(1.07363 0.565769 0)
(0.635959 0.548084 0)
(0.677704 0.52556 0)
(0.750418 0.507783 0)
(0.786919 0.519871 0)
(0.790307 0.54854 0)
(0.795597 0.583669 0)
(0.8156 0.623115 0)
(0.851186 0.664918 0)
(0.901942 0.706884 0)
(0.967081 0.746158 0)
(1.04702 0.779071 0)
(1.13985 0.797866 0)
(2.99997 2.92589e-06 0)
(2.9999 1.88662e-05 0)
(2.99974 5.86325e-05 0)
(2.99941 0.000161232 0)
(2.99857 0.000374312 0)
(2.99686 0.000919023 0)
(2.99219 0.00198852 0)
(2.98316 0.0049813 0)
(2.95613 0.0104721 0)
(2.89766 0.0276501 0)
(2.73561 0.0664037 0)
(2.26186 0.175378 0)
(1.3078 0.470436 0)
(0.74059 0.548933 0)
(0.7424 0.553221 0)
(0.799691 0.536344 0)
(0.841017 0.536525 0)
(0.844924 0.554762 0)
(0.846973 0.58121 0)
(0.863536 0.611392 0)
(0.89566 0.643442 0)
(0.941965 0.675219 0)
(1.00098 0.704207 0)
(1.0717 0.727499 0)
(1.15189 0.7412 0)
(2.99997 2.44e-06 0)
(2.99992 1.56733e-05 0)
(2.99978 4.87215e-05 0)
(2.99951 0.000133095 0)
(2.9988 0.000308388 0)
(2.99736 0.000747157 0)
(2.99345 0.00161206 0)
(2.98605 0.00392056 0)
(2.96291 0.00833371 0)
(2.91757 0.0206475 0)
(2.77556 0.0499929 0)
(2.38433 0.121569 0)
(1.52028 0.326554 0)
(0.804884 0.562312 0)
(0.771446 0.583362 0)
(0.826069 0.573712 0)
(0.879111 0.55992 0)
(0.893 0.565668 0)
(0.896496 0.582513 0)
(0.910046 0.603178 0)
(0.937602 0.625458 0)
(0.977999 0.647611 0)
(1.02983 0.667987 0)
(1.0914 0.683831 0)
(1.16027 0.692577 0)
(2.99998 2.11958e-06 0)
(2.99993 1.36151e-05 0)
(2.99982 4.2359e-05 0)
(2.99959 0.000115735 0)
(2.99899 0.000268776 0)
(2.99779 0.000650306 0)
(2.99452 0.001408 0)
(2.98826 0.00342791 0)
(2.9689 0.00711314 0)
(2.93203 0.0183994 0)
(2.81184 0.0409491 0)
(2.492 0.110868 0)
(1.75384 0.274642 0)
(0.918276 0.606937 0)
(0.777652 0.611717 0)
(0.82619 0.60086 0)
(0.888159 0.579172 0)
(0.922189 0.575624 0)
(0.934842 0.584395 0)
(0.949335 0.597177 0)
(0.974249 0.611007 0)
(1.01023 0.624763 0)
(1.05557 0.637537 0)
(1.10853 0.646789 0)
(1.16745 0.650948 0)
(2.99998 1.86996e-06 0)
(2.99994 1.20271e-05 0)
(2.99985 3.7425e-05 0)
(2.99966 0.000102513 0)
(2.99917 0.000238328 0)
(2.99818 0.000579456 0)
(2.99549 0.00125389 0)
(2.99037 0.00308493 0)
(2.9744 0.00632412 0)
(2.94538 0.0171477 0)
(2.84643 0.0356761 0)
(2.59497 0.106988 0)
(1.98638 0.254056 0)
(1.05421 0.643032 0)
(0.775908 0.629299 0)
(0.820404 0.610915 0)
(0.88906 0.585412 0)
(0.939282 0.578299 0)
(0.962135 0.581813 0)
(0.979775 0.589104 0)
(1.004 0.597243 0)
(1.03719 0.605166 0)
(1.0775 0.611397 0)
(1.12348 0.615117 0)
(1.17436 0.615327 0)
(2.99998 1.58584e-06 0)
(2.99995 1.01918e-05 0)
(2.99988 3.17145e-05 0)
(2.99972 8.67664e-05 0)
(2.99932 0.000201601 0)
(2.99851 0.000489052 0)
(2.99636 0.00105605 0)
(2.9921 0.00259217 0)
(2.97974 0.00526678 0)
(2.95604 0.014579 0)
(2.88128 0.0285031 0)
(2.6965 0.0901235 0)
(2.23811 0.209128 0)
(1.25242 0.578655 0)
(0.826585 0.619059 0)
(0.840069 0.611785 0)
(0.901774 0.590696 0)
(0.96046 0.577642 0)
(0.987697 0.576603 0)
(1.0068 0.579817 0)
(1.0304 0.583846 0)
(1.06051 0.587085 0)
(1.09618 0.588435 0)
(1.1369 0.588019 0)
(1.18152 0.585162 0)
(2.99999 1.29986e-06 0)
(2.99996 8.34416e-06 0)
(2.9999 2.59704e-05 0)
(2.99977 7.08668e-05 0)
(2.99945 0.000164751 0)
(2.99879 0.000396947 0)
(2.99704 0.00086217 0)
(2.99356 0.00206024 0)
(2.98367 0.00437039 0)
(2.96426 0.0108459 0)
(2.90549 0.0233728 0)
(2.76343 0.0624394 0)
(2.39952 0.147501 0)
(1.44067 0.410523 0)
(0.876839 0.583166 0)
(0.855743 0.601118 0)
(0.909374 0.595506 0)
(0.97232 0.577586 0)
(1.00849 0.571266 0)
(1.02992 0.570682 0)
(1.05237 0.570635 0)
(1.07983 0.569533 0)
(1.11233 0.567468 0)
(1.14913 0.564215 0)
(1.18895 0.559192 0)
(2.99999 1.07501e-06 0)
(2.99997 6.90013e-06 0)
(2.99992 2.14802e-05 0)
(2.99981 5.85858e-05 0)
(2.99955 0.000136303 0)
(2.99901 0.000327763 0)
(2.99758 0.000714396 0)
(2.99476 0.00169323 0)
(2.98654 0.00363069 0)
(2.97146 0.00865687 0)
(2.9218 0.0196817 0)
(2.80854 0.0474008 0)
(2.50097 0.116713 0)
(1.61705 0.308575 0)
(0.938055 0.592467 0)
(0.843319 0.60314 0)
(0.894953 0.598137 0)
(0.963065 0.576701 0)
(1.01288 0.564261 0)
(1.04141 0.5593 0)
(1.06556 0.556058 0)
(1.09292 0.552469 0)
(1.12436 0.548241 0)
(1.15894 0.543028 0)
(1.19548 0.536428 0)
(2.99999 9.08096e-07 0)
(2.99997 5.83855e-06 0)
(2.99993 1.81638e-05 0)
(2.99985 4.96558e-05 0)
(2.99964 0.000115583 0)
(2.9992 0.00027918 0)
(2.99804 0.000608283 0)
(2.99576 0.00145462 0)
(2.98906 0.00310136 0)
(2.97727 0.0076994 0)
(2.93615 0.0163969 0)
(2.84987 0.0432908 0)
(2.59889 0.10388 0)
(1.84475 0.286256 0)
(1.0635 0.634327 0)
(0.822318 0.619784 0)
(0.867911 0.598329 0)
(0.939841 0.569076 0)
(1.00322 0.549271 0)
(1.04146 0.541272 0)
(1.0702 0.537453 0)
(1.09922 0.533733 0)
(1.13075 0.528929 0)
(1.16432 0.522784 0)
(1.19895 0.515229 0)
(2.99999 6.35529e-07 0)
(2.99998 5.09838e-06 0)
(2.99995 1.37591e-05 0)
(2.99988 4.26571e-05 0)
(2.99971 8.70693e-05 0)
(2.99936 0.00024117 0)
(2.99844 0.000447217 0)
(2.99664 0.0012801 0)
(2.99138 0.00217081 0)
(2.98219 0.00714517 0)
(2.95016 0.0101954 0)
(2.88698 0.0423652 0)
(2.69583 0.0715322 0)
(2.13198 0.253587 0)
(1.28189 0.579022 0)
(0.870009 0.608964 0)
(0.876654 0.585383 0)
(0.934121 0.556612 0)
(1.00131 0.532824 0)
(1.04675 0.521987 0)
(1.07751 0.517167 0)
(1.10581 0.513188 0)
(1.13581 0.50816 0)
(1.16764 0.501709 0)
(1.20035 0.493825 0)
(2.99999 4.76546e-07 0)
(2.99998 3.88862e-06 0)
(2.99996 1.03706e-05 0)
(2.9999 3.2416e-05 0)
(2.99977 6.53107e-05 0)
(2.99945 0.000182087 0)
(2.99881 0.000332043 0)
(2.99706 0.000957829 0)
(2.99364 0.00158524 0)
(2.98366 0.0052841 0)
(2.96439 0.00696415 0)
(2.90457 0.030887 0)
(2.76217 0.0455974 0)
(2.38267 0.164796 0)
(1.44832 0.41773 0)
(0.902728 0.565127 0)
(0.873737 0.562868 0)
(0.929074 0.546753 0)
(0.999653 0.523178 0)
(1.05153 0.508415 0)
(1.08482 0.500206 0)
(1.11251 0.494156 0)
(1.14073 0.487973 0)
(1.17052 0.480893 0)
(1.20116 0.472713 0)
(3 4.78386e-07 0)
(2.99999 2.73582e-06 0)
(2.99997 9.20983e-06 0)
(2.99992 2.34619e-05 0)
(2.99981 5.86351e-05 0)
(2.99955 0.000130762 0)
(2.99902 0.000310406 0)
(2.99758 0.000667871 0)
(2.99478 0.0015945 0)
(2.98646 0.00342305 0)
(2.97141 0.00817043 0)
(2.92101 0.0189304 0)
(2.80534 0.0446811 0)
(2.49512 0.113532 0)
(1.60872 0.294482 0)
(0.934299 0.555936 0)
(0.837045 0.553257 0)
(0.896046 0.538194 0)
(0.973975 0.51152 0)
(1.03862 0.493995 0)
(1.08 0.483575 0)
(1.11117 0.475959 0)
(1.14025 0.468764 0)
(1.16965 0.461079 0)
(1.19933 0.452621 0)
(3 4.00185e-07 0)
(2.99999 2.28728e-06 0)
(2.99997 7.71914e-06 0)
(2.99993 1.96604e-05 0)
(2.99985 4.93028e-05 0)
(2.99963 0.000110151 0)
(2.9992 0.000262291 0)
(2.99803 0.0005654 0)
(2.99579 0.00135439 0)
(2.9889 0.00288869 0)
(2.97728 0.00716801 0)
(2.93458 0.0153513 0)
(2.84716 0.0401846 0)
(2.58815 0.098376 0)
(1.81335 0.266184 0)
(1.03274 0.586251 0)
(0.78721 0.550639 0)
(0.845522 0.518058 0)
(0.932438 0.485294 0)
(1.01253 0.467012 0)
(1.06365 0.458026 0)
(1.09981 0.451948 0)
(1.13129 0.445914 0)
(1.16179 0.439111 0)
(1.19181 0.431389 0)
(3 3.60804e-07 0)
(2.99999 1.63795e-06 0)
(2.99998 6.5034e-06 0)
(2.99994 1.43474e-05 0)
(2.99988 4.14765e-05 0)
(2.9997 7.91938e-05 0)
(2.99935 0.000222464 0)
(2.99841 0.000391252 0)
(2.99659 0.0011768 0)
(2.9911 0.00184454 0)
(2.98178 0.0067195 0)
(2.948 0.00835376 0)
(2.88224 0.040744 0)
(2.68047 0.0625881 0)
(2.08483 0.237859 0)
(1.21535 0.531647 0)
(0.799193 0.530303 0)
(0.832068 0.496052 0)
(0.914455 0.46254 0)
(1.00154 0.43996 0)
(1.05695 0.429972 0)
(1.0935 0.424884 0)
(1.12408 0.420388 0)
(1.15363 0.415082 0)
(1.18284 0.408696 0)
(3 2.31154e-07 0)
(2.99999 1.32213e-06 0)
(2.99998 4.44546e-06 0)
(2.99996 1.1304e-05 0)
(2.99989 2.8165e-05 0)
(2.99976 6.2558e-05 0)
(2.99943 0.000147842 0)
(2.99876 0.000314319 0)
(2.9969 0.000755362 0)
(2.99336 0.00154791 0)
(2.98259 0.00407376 0)
(2.96257 0.00780353 0)
(2.89709 0.0228716 0)
(2.74231 0.0523612 0)
(2.32903 0.135996 0)
(1.34139 0.389803 0)
(0.805501 0.479914 0)
(0.810968 0.470102 0)
(0.892477 0.448646 0)
(0.986 0.423278 0)
(1.04965 0.409173 0)
(1.08878 0.402363 0)
(1.11873 0.397831 0)
(1.14672 0.393111 0)
(1.17439 0.387453 0)
(3 1.24807e-07 0)
(2.99999 1.1389e-06 0)
(2.99998 2.84382e-06 0)
(2.99996 9.43738e-06 0)
(2.99991 1.79137e-05 0)
(2.99979 5.30011e-05 0)
(2.99954 9.07783e-05 0)
(2.99887 0.000278014 0)
(2.99754 0.000432096 0)
(2.99377 0.00148542 0)
(2.98692 0.00197761 0)
(2.9639 0.00861664 0)
(2.92153 0.00904763 0)
(2.77697 0.0488358 0)
(2.39714 0.0760476 0)
(1.55547 0.247124 0)
(0.812578 0.446591 0)
(0.770595 0.444254 0)
(0.85255 0.428977 0)
(0.952514 0.402989 0)
(1.02847 0.387586 0)
(1.07521 0.380581 0)
(1.10781 0.376595 0)
(1.13588 0.37256 0)
(1.16278 0.367524 0)
(3 1.41516e-07 0)
(2.99999 8.09267e-07 0)
(2.99999 2.72587e-06 0)
(2.99997 6.95414e-06 0)
(2.99992 1.73908e-05 0)
(2.99982 3.89179e-05 0)
(2.99959 9.21964e-05 0)
(2.99901 0.000199773 0)
(2.99785 0.000472569 0)
(2.99458 0.00101659 0)
(2.98854 0.00243702 0)
(2.9686 0.00526621 0)
(2.93257 0.0129306 0)
(2.80743 0.0296276 0)
(2.47824 0.0799488 0)
(1.73726 0.194653 0)
(0.862822 0.450629 0)
(0.707967 0.42332 0)
(0.792158 0.396929 0)
(0.902683 0.370913 0)
(0.995209 0.35993 0)
(1.05178 0.356649 0)
(1.08832 0.354824 0)
(1.11739 0.351926 0)
(1.14431 0.347577 0)
(3 1.2278e-07 0)
(3 7.02364e-07 0)
(2.99999 2.36907e-06 0)
(2.99997 6.03906e-06 0)
(2.99993 1.51227e-05 0)
(2.99984 3.38082e-05 0)
(2.99965 8.0248e-05 0)
(2.99915 0.000173197 0)
(2.99818 0.000412255 0)
(2.99534 0.000875715 0)
(2.99043 0.00215047 0)
(2.97268 0.0044911 0)
(2.94323 0.0118439 0)
(2.83347 0.0254071 0)
(2.55535 0.0744415 0)
(1.90558 0.176652 0)
(0.922146 0.453737 0)
(0.630067 0.388189 0)
(0.72388 0.344317 0)
(0.852414 0.326565 0)
(0.961916 0.326017 0)
(1.02508 0.329443 0)
(1.06267 0.331003 0)
(1.0913 0.329758 0)
(1.11789 0.326426 0)
(3 1.02991e-07 0)
(3 5.89881e-07 0)
(2.99999 1.98441e-06 0)
(2.99997 5.04777e-06 0)
(2.99994 1.25709e-05 0)
(2.99986 2.79492e-05 0)
(2.9997 6.58597e-05 0)
(2.99926 0.000140232 0)
(2.9984 0.000333493 0)
(2.99597 0.000686367 0)
(2.99153 0.00178104 0)
(2.97671 0.00322015 0)
(2.95131 0.0105715 0)
(2.85918 0.0194244 0)
(2.63301 0.0674758 0)
(2.08455 0.154388 0)
(0.993535 0.427311 0)
(0.561915 0.361611 0)
(0.674393 0.312117 0)
(0.826223 0.296143 0)
(0.943798 0.298179 0)
(1.00525 0.303511 0)
(1.03847 0.306214 0)
(1.06358 0.305767 0)
(1.08817 0.303277 0)
(3 1.05515e-07 0)
(3 4.22848e-07 0)
(2.99999 1.84485e-06 0)
(2.99998 3.76221e-06 0)
(2.99995 1.17729e-05 0)
(2.99988 2.07425e-05 0)
(2.99974 6.33567e-05 0)
(2.99936 0.000102008 0)
(2.9986 0.0003341 0)
(2.9965 0.000473692 0)
(2.99252 0.00184864 0)
(2.98007 0.0018227 0)
(2.95763 0.0114877 0)
(2.88074 0.00798122 0)
(2.69657 0.0648911 0)
(2.23214 0.0969318 0)
(1.09475 0.323176 0)
(0.55059 0.326769 0)
(0.65987 0.311691 0)
(0.82118 0.291985 0)
(0.942957 0.286583 0)
(1.0006 0.2869 0)
(1.02699 0.28668 0)
(1.04608 0.28468 0)
(1.06647 0.281542 0)
(3 6.30166e-08 0)
(3 3.61365e-07 0)
(2.99999 1.2114e-06 0)
(2.99998 3.08001e-06 0)
(2.99995 7.61648e-06 0)
(2.9999 1.69079e-05 0)
(2.99976 3.93608e-05 0)
(2.99947 8.42262e-05 0)
(2.99868 0.000195082 0)
(2.99719 0.000411614 0)
(2.99261 0.000959507 0)
(2.98488 0.00207 0)
(2.95665 0.00480389 0)
(2.90263 0.0106374 0)
(2.73078 0.02666 0)
(2.25507 0.0644706 0)
(1.25261 0.16296 0)
(0.55951 0.26441 0)
(0.647272 0.29861 0)
(0.801367 0.290581 0)
(0.932955 0.281049 0)
(0.993858 0.275783 0)
(1.01843 0.272041 0)
(1.03447 0.268196 0)
(1.05211 0.26406 0)
(3 2.87259e-08 0)
(3 3.46664e-07 0)
(2.99999 7.38358e-07 0)
(2.99998 2.80716e-06 0)
(2.99996 4.51241e-06 0)
(2.9999 1.54578e-05 0)
(2.99979 2.12089e-05 0)
(2.99947 7.92189e-05 0)
(2.99886 8.76714e-05 0)
(2.99711 0.000415932 0)
(2.99388 0.000270557 0)
(2.98333 0.00254537 0)
(2.96505 -0.000230272 0)
(2.89976 0.0148635 0)
(2.74588 0.00120788 0)
(2.33978 0.0555142 0)
(1.23836 0.0978763 0)
(0.55241 0.225252 0)
(0.607517 0.273068 0)
(0.751712 0.280808 0)
(0.891458 0.269997 0)
(0.962096 0.260728 0)
(0.992547 0.254934 0)
(1.01156 0.250772 0)
(1.0307 0.246937 0)
(3 6.49101e-08 0)
(3 2.35218e-07 0)
(2.99999 1.10779e-06 0)
(2.99998 2.10575e-06 0)
(2.99996 7.04549e-06 0)
(2.99991 1.13779e-05 0)
(2.9998 3.77788e-05 0)
(2.99952 5.37227e-05 0)
(2.99895 0.000198823 0)
(2.99733 0.00022935 0)
(2.9944 0.00110334 0)
(2.98441 0.000653573 0)
(2.96764 0.00688519 0)
(2.90584 0.000439112 0)
(2.76236 0.0369882 0)
(2.38034 0.0247916 0)
(1.31077 0.126716 0)
(0.584712 0.22713 0)
(0.582085 0.249209 0)
(0.71031 0.257844 0)
(0.844232 0.246695 0)
(0.921179 0.236147 0)
(0.957824 0.230265 0)
(0.980836 0.227263 0)
(1.00238 0.224981 0)
(3 5.34489e-08 0)
(3 3.06231e-07 0)
(2.99999 1.03688e-06 0)
(2.99999 2.65473e-06 0)
(2.99997 6.67246e-06 0)
(2.99992 1.5126e-05 0)
(2.99982 3.56677e-05 0)
(2.9996 7.9693e-05 0)
(2.99899 0.000176183 0)
(2.99785 0.000429763 0)
(2.9942 0.000800738 0)
(2.98825 0.00201374 0)
(2.96467 0.00372668 0)
(2.92435 0.00866513 0)
(2.77442 0.0172468 0)
(2.37904 0.0431797 0)
(1.49168 0.0985867 0)
(0.655811 0.216916 0)
(0.590781 0.225695 0)
(0.695329 0.227923 0)
(0.817524 0.216804 0)
(0.894064 0.207774 0)
(0.932822 0.20383 0)
(0.956891 0.202747 0)
(0.978385 0.202043 0)
(3 4.31588e-08 0)
(3 2.76815e-07 0)
(2.99999 8.65833e-07 0)
(2.99999 2.36263e-06 0)
(2.99997 5.54362e-06 0)
(2.99993 1.32432e-05 0)
(2.99985 2.94322e-05 0)
(2.99962 6.73785e-05 0)
(2.99922 0.000149719 0)
(2.99783 0.00031814 0)
(2.99571 0.000767538 0)
(2.98688 0.00144591 0)
(2.97341 0.00322695 0)
(2.91763 0.00716616 0)
(2.79362 0.0158942 0)
(2.44906 0.0363508 0)
(1.48384 0.0951607 0)
(0.688528 0.212648 0)
(0.562465 0.210185 0)
(0.662714 0.202499 0)
(0.784148 0.186924 0)
(0.867131 0.179071 0)
(0.910555 0.177785 0)
(0.936193 0.178815 0)
(0.957426 0.179418 0)
(3 3.70325e-08 0)
(3 2.12222e-07 0)
(3 7.14376e-07 0)
(2.99999 1.82673e-06 0)
(2.99997 4.5482e-06 0)
(2.99994 1.02459e-05 0)
(2.99986 2.38412e-05 0)
(2.99969 5.22821e-05 0)
(2.99919 0.000117975 0)
(2.99834 0.000254258 0)
(2.99513 0.000591887 0)
(2.99033 0.00118968 0)
(2.96965 0.0029868 0)
(2.93546 0.00624372 0)
(2.80081 0.0153937 0)
(2.455 0.0429528 0)
(1.64517 0.0944465 0)
(0.732359 0.226825 0)
(0.538099 0.201446 0)
(0.62916 0.177367 0)
(0.752374 0.157277 0)
(0.844322 0.151321 0)
(0.892541 0.152869 0)
(0.918896 0.155554 0)
(0.93938 0.15681 0)
(3 2.6054e-08 0)
(3 1.68561e-07 0)
(3 5.24988e-07 0)
(2.99999 1.45147e-06 0)
(2.99998 3.41301e-06 0)
(2.99995 8.38905e-06 0)
(2.99988 1.86289e-05 0)
(2.99969 4.40089e-05 0)
(2.99938 0.000103716 0)
(2.99821 0.000227117 0)
(2.99648 0.000506711 0)
(2.98892 0.00127231 0)
(2.97778 0.00261301 0)
(2.92877 0.00691528 0)
(2.82683 0.0160132 0)
(2.52328 0.0386119 0)
(1.64947 0.107918 0)
(0.772272 0.24479 0)
(0.480943 0.184517 0)
(0.582137 0.139041 0)
(0.721988 0.120074 0)
(0.828981 0.120724 0)
(0.883371 0.127423 0)
(0.910749 0.132554 0)
(0.931177 0.134616 0)
(3 1.34864e-08 0)
(3 7.65118e-08 0)
(3 2.56368e-07 0)
(2.99999 6.43471e-07 0)
(2.99998 1.62182e-06 0)
(2.99995 3.44394e-06 0)
(2.99988 8.77599e-06 0)
(2.99975 1.65849e-05 0)
(2.99933 5.42512e-05 0)
(2.99866 7.41774e-05 0)
(2.99599 0.000361107 0)
(2.99211 0.000628183 0)
(2.97462 0.00235638 0)
(2.94736 0.00495893 0)
(2.83004 0.0165601 0)
(2.54416 0.0468188 0)
(1.83333 0.114748 0)
(0.770827 0.298596 0)
(0.386987 0.184341 0)
(0.522919 0.104949 0)
(0.699183 0.082309 0)
(0.824691 0.0873278 0)
(0.884063 0.0978216 0)
(0.911174 0.104981 0)
(0.931259 0.108079 0)
(3 -7.02483e-09 0)
(3 4.75995e-08 0)
(3 -4.92196e-08 0)
(2.99999 3.23513e-07 0)
(2.99998 -4.51036e-07 0)
(2.99995 1.67898e-06 0)
(2.99989 -4.16228e-06 0)
(2.99973 1.05014e-05 0)
(2.99942 -3.85479e-05 0)
(2.99846 9.97777e-05 0)
(2.99693 -0.000251897 0)
(2.99063 0.00100804 0)
(2.98153 -0.00120125 0)
(2.94175 0.00944178 0)
(2.86496 -0.00182213 0)
(2.61896 0.0620663 0)
(1.89455 0.106858 0)
(0.860901 0.32103 0)
(0.350346 0.180776 0)
(0.521839 0.0883254 0)
(0.732719 0.0621027 0)
(0.869501 0.0660876 0)
(0.925537 0.0759253 0)
(0.944823 0.0827561 0)
(0.957761 0.0858748 0)
(3 2.79219e-09 0)
(3 1.64655e-08 0)
(3 5.26559e-08 0)
(2.99999 1.30574e-07 0)
(2.99998 2.95669e-07 0)
(2.99995 5.49956e-07 0)
(2.99989 1.27453e-06 0)
(2.99973 1.3946e-06 0)
(2.9994 7.91452e-06 0)
(2.99849 -3.31575e-06 0)
(2.99677 0.000114088 0)
(2.99126 -5.03071e-05 0)
(2.98221 0.00134206 0)
(2.94749 0.00151742 0)
(2.87931 0.0115293 0)
(2.67358 0.0227241 0)
(2.05181 0.0922878 0)
(0.949008 0.23143 0)
(0.32473 0.147239 0)
(0.515427 0.0879317 0)
(0.751584 0.0662019 0)
(0.897131 0.0639128 0)
(0.951122 0.0676412 0)
(0.964894 0.0712066 0)
(0.972876 0.0731715 0)
(3 7.81085e-09 0)
(3 4.47883e-08 0)
(3 1.5168e-07 0)
(2.99999 3.87326e-07 0)
(2.99998 9.80604e-07 0)
(2.99995 2.20309e-06 0)
(2.99989 5.36219e-06 0)
(2.99973 1.17169e-05 0)
(2.99942 2.89364e-05 0)
(2.99854 6.25636e-05 0)
(2.99688 0.000160312 0)
(2.99169 0.000327275 0)
(2.98287 0.000957089 0)
(2.95069 0.00173479 0)
(2.88543 0.00602875 0)
(2.69322 0.0120726 0)
(2.10678 0.0367654 0)
(0.944364 0.0854277 0)
(0.222435 0.0869623 0)
(0.452376 0.0818529 0)
(0.717171 0.0730011 0)
(0.878374 0.0659982 0)
(0.940548 0.0624492 0)
(0.95855 0.0614904 0)
(0.968917 0.0614159 0)
(3 1.12364e-08 0)
(3 6.41691e-08 0)
(3 2.17343e-07 0)
(2.99999 5.53412e-07 0)
(2.99998 1.39643e-06 0)
(2.99995 3.14228e-06 0)
(2.9999 7.49386e-06 0)
(2.99974 1.64345e-05 0)
(2.99944 3.84407e-05 0)
(2.99859 8.36005e-05 0)
(2.99699 0.00018627 0)
(2.99194 0.000429868 0)
(2.98345 0.000793811 0)
(2.95192 0.0019987 0)
(2.88939 0.00309146 0)
(2.6996 0.00811828 0)
(2.12335 0.0136044 0)
(0.958513 0.0374851 0)
(0.186119 0.0620064 0)
(0.41946 0.0756804 0)
(0.688554 0.0700235 0)
(0.857482 0.0593234 0)
(0.928044 0.0512702 0)
(0.952602 0.0477049 0)
(0.966579 0.0466867 0)
(3 2.06295e-08 0)
(3 4.49307e-08 0)
(3 3.24972e-07 0)
(2.99999 4.55919e-07 0)
(2.99998 2.16252e-06 0)
(2.99996 2.66175e-06 0)
(2.9999 1.26599e-05 0)
(2.99976 1.35499e-05 0)
(2.99947 7.37458e-05 0)
(2.99866 5.21607e-05 0)
(2.99717 0.000459676 0)
(2.9922 -1.33964e-05 0)
(2.98426 0.00277608 0)
(2.95268 -0.00242817 0)
(2.89146 0.0138925 0)
(2.7009 -0.0114571 0)
(2.1352 0.0251666 0)
(0.965931 0.00616812 0)
(0.191743 0.031022 0)
(0.413889 0.0484939 0)
(0.674772 0.0524859 0)
(0.844811 0.0459604 0)
(0.920434 0.0392964 0)
(0.950095 0.0358847 0)
(0.966909 0.0347078 0)
(3 4.53089e-09 0)
(3 2.60187e-08 0)
(3 8.61896e-08 0)
(2.99999 2.17824e-07 0)
(2.99998 5.26015e-07 0)
(2.99996 1.15142e-06 0)
(2.9999 2.56754e-06 0)
(2.99979 5.36292e-06 0)
(2.99947 1.1552e-05 0)
(2.99891 2.34801e-05 0)
(2.99692 4.92256e-05 0)
(2.99394 9.66531e-05 0)
(2.9812 0.00020024 0)
(2.96138 0.000373752 0)
(2.88158 0.000776654 0)
(2.69168 0.00170873 0)
(2.18645 0.0034541 0)
(0.856942 0.0100011 0)
(0.106594 0.0225661 0)
(0.35603 0.0311547 0)
(0.634881 0.0286737 0)
(0.806933 0.024023 0)
(0.886662 0.0207272 0)
(0.920363 0.019289 0)
(0.939637 0.0189282 0)
(3 -9.49603e-09 0)
(3 1.87413e-08 0)
(3 -1.10587e-07 0)
(2.99999 8.86647e-08 0)
(2.99998 -8.05876e-07 0)
(2.99996 3.69867e-07 0)
(2.9999 -5.57954e-06 0)
(2.99976 1.81889e-06 0)
(2.99949 -3.88178e-05 0)
(2.99869 2.29924e-05 0)
(2.99723 -0.000299252 0)
(2.99232 0.00038229 0)
(2.9845 -0.00215552 0)
(2.95317 0.00398668 0)
(2.89258 -0.0118265 0)
(2.70306 0.0163006 0)
(2.14131 -0.0173874 0)
(0.978873 0.0138175 0)
(0.200107 0.0162668 0)
(0.407879 0.0165277 0)
(0.659381 0.00880308 0)
(0.831023 0.00602616 0)
(0.911235 0.00545236 0)
(0.94474 0.00549717 0)
(0.963385 0.00563824 0)
(1.07103 1.1303 0)
(1.23956 1.01789 0)
(0.94665 0.860193 0)
(0.229611 0.605753 0)
(-0.282976 0.0390546 0)
(-0.345054 0.000116924 0)
(-0.505824 -0.0266839 0)
(-0.625995 -0.0318002 0)
(-0.692675 -0.0240602 0)
(-0.718963 -0.0124234 0)
(-0.725029 0.000520111 0)
(-0.722157 0.0135379 0)
(-0.715002 0.024495 0)
(-0.710985 0.0322051 0)
(-0.708131 0.0357193 0)
(-0.705743 0.0364283 0)
(-0.701785 0.0351205 0)
(-0.694733 0.0319671 0)
(-0.682473 0.0282113 0)
(-0.665886 0.0249008 0)
(-0.645618 0.0218584 0)
(-0.622429 0.0187735 0)
(-0.596637 0.0153437 0)
(-0.568143 0.0114586 0)
(-0.536666 0.00708424 0)
(-0.501993 0.00243109 0)
(-0.464466 -0.00202168 0)
(-0.424607 -0.00610445 0)
(-0.383152 -0.00981707 0)
(-0.340465 -0.0131901 0)
(-0.296913 -0.0163268 0)
(-0.252699 -0.0192961 0)
(-0.207731 -0.0220444 0)
(-0.162924 -0.0245031 0)
(-0.11731 -0.0270084 0)
(-0.0711948 -0.0296101 0)
(-0.0259947 -0.0325323 0)
(0.0247604 -0.0357073 0)
(0.0737984 -0.036753 0)
(0.113687 -0.0354226 0)
(0.151947 -0.0333731 0)
(0.192955 -0.0319139 0)
(0.233271 -0.0305154 0)
(0.273662 -0.0293831 0)
(0.312988 -0.0281811 0)
(0.351672 -0.0270131 0)
(0.388343 -0.0257416 0)
(0.424299 -0.0249078 0)
(0.461683 -0.0246303 0)
(0.499936 -0.0244146 0)
(0.536905 -0.0234475 0)
(0.572454 -0.0224066 0)
(0.606976 -0.0215249 0)
(0.640639 -0.0207358 0)
(0.673513 -0.0199779 0)
(0.705613 -0.0192255 0)
(0.736959 -0.0184762 0)