/*--------------------------------*- C++ -*----------------------------------*\
  =========                 |
  \\      /  F ield         | OpenFOAM: The Open Source CFD Toolbox
   \\    /   O peration     | Website:  https://openfoam.org
    \\  /    A nd           | Version:  6
     \\/     M anipulation  |
\*---------------------------------------------------------------------------*/
FoamFile
{
    version     2.0;
    format      ascii;
    class       volScalarField;
    location    "6";
    object      Ma;
}
// * * * * * * * * * * * * * * * * * * * * * * * * * * * * * * * * * * * * * //

dimensions      [0 0 0 0 0 0 0];

internalField   nonuniform List<scalar> 
5250
(
2.99988
2.99968
2.99907
2.99807
2.99479
2.98949
2.97227
2.9415
2.85753
2.66686
2.27112
1.43747
0.376251
0.13081
0.0982571
0.297836
0.351094
0.318421
0.256808
0.198288
0.160619
0.129539
0.0965025
0.062748
0.0434366
2.99988
2.99969
2.99908
2.99808
2.99481
2.98953
2.97237
2.94173
2.85804
2.66812
2.27342
1.44216
0.381262
0.128331
0.108881
0.304821
0.355357
0.32186
0.261369
0.205755
0.170223
0.140751
0.11047
0.082269
0.0687468
2.99988
2.99969
2.99908
2.9981
2.99486
2.98962
2.9726
2.94223
2.85914
2.67092
2.27862
1.45367
0.39384
0.121091
0.127326
0.315518
0.362395
0.328448
0.270604
0.220564
0.189499
0.163759
0.138733
0.117846
0.108861
2.99989
2.99969
2.9991
2.99812
2.99492
2.98976
2.97296
2.94302
2.8609
2.67545
2.28709
1.4726
0.414228
0.111945
0.151022
0.329241
0.372604
0.33932
0.28579
0.242644
0.216905
0.195905
0.17663
0.161795
0.156034
2.99989
2.9997
2.99911
2.99816
2.99502
2.98995
2.97345
2.94412
2.86336
2.68179
2.29903
1.49931
0.442426
0.105368
0.178743
0.345783
0.385613
0.354009
0.305886
0.269969
0.249677
0.233362
0.219238
0.209295
0.205919
2.99989
2.99971
2.99914
2.99821
2.99514
2.9902
2.97409
2.94553
2.8665
2.69003
2.31449
1.53459
0.479562
0.107813
0.210353
0.365056
0.401142
0.372148
0.33038
0.301644
0.287041
0.275889
0.266784
0.260968
0.259899
2.99989
2.99972
2.99916
2.99826
2.99529
2.9905
2.97485
2.94727
2.87029
2.69994
2.3335
1.5748
0.527481
0.126267
0.245849
0.387029
0.419384
0.393995
0.359637
0.337963
0.328828
0.323225
0.320118
0.320047
0.322532
2.9999
2.99973
2.99919
2.99833
2.99546
2.99087
2.97573
2.94936
2.87476
2.71099
2.35655
1.61333
0.587009
0.162496
0.284138
0.407838
0.438868
0.418844
0.392584
0.378639
0.375779
0.376661
0.381373
0.389779
0.400591
2.9999
2.99974
2.99923
2.9984
2.99566
2.99129
2.97677
2.95181
2.88003
2.72393
2.38386
1.65951
0.658653
0.214656
0.325036
0.427723
0.459741
0.446443
0.429236
0.422543
0.426419
0.435906
0.453062
0.477677
0.510797
2.99991
2.99975
2.99927
2.99849
2.9959
2.99178
2.978
2.95455
2.88624
2.73882
2.41526
1.7148
0.739221
0.280152
0.367394
0.446596
0.481237
0.476518
0.468935
0.469839
0.480649
0.502009
0.538227
0.592625
0.69502
2.99992
2.99977
2.99932
2.99859
2.99617
2.99233
2.97942
2.95764
2.89343
2.75597
2.45109
1.77919
0.829579
0.358553
0.405878
0.464019
0.502727
0.507168
0.507453
0.516086
0.537655
0.575199
0.635075
0.733014
0.885912
2.99992
2.99979
2.99938
2.99871
2.99649
2.99298
2.98109
2.96127
2.90194
2.77604
2.49415
1.85883
0.940875
0.445935
0.435858
0.486425
0.525513
0.537281
0.544762
0.561479
0.594566
0.647461
0.72129
0.835045
0.989812
2.99993
2.99981
2.99945
2.99885
2.99685
2.99373
2.98303
2.96549
2.91168
2.80027
2.54483
1.95685
1.08003
0.542985
0.465887
0.505335
0.545904
0.566591
0.581868
0.60647
0.646729
0.705738
0.784616
0.887445
1.01198
2.99994
2.99984
2.99952
2.999
2.99727
2.99458
2.98529
2.97029
2.92353
2.82645
2.60778
2.06633
1.24199
0.646448
0.494608
0.524386
0.567011
0.597116
0.619016
0.648134
0.690195
0.746923
0.822378
0.911574
1.0146
2.99995
2.99986
2.99959
2.99916
2.99769
2.99541
2.98755
2.97498
2.93482
2.85707
2.66671
2.22004
1.45181
0.763131
0.536161
0.557655
0.598192
0.632824
0.656681
0.686606
0.728167
0.780248
0.847064
0.923031
1.00958
2.99996
2.99989
2.99967
2.9993
2.9981
2.99622
2.98978
2.97959
2.94626
2.88633
2.72473
2.38421
1.69504
0.886503
0.594288
0.610006
0.643959
0.676683
0.697817
0.722786
0.761164
0.808031
0.867819
0.933215
1.00524
2.99997
2.99991
2.99973
2.99943
2.99844
2.99691
2.9916
2.98328
2.95574
2.90636
2.77326
2.47839
1.88257
0.98448
0.642879
0.650219
0.685288
0.718766
0.738976
0.759932
0.791892
0.833583
0.885325
0.944285
1.00554
2.99998
2.99993
2.99978
2.99954
2.99874
2.9975
2.99319
2.98653
2.96408
2.92421
2.81616
2.56037
2.07201
1.16144
0.746087
0.684493
0.71219
0.742082
0.769376
0.791362
0.820376
0.856639
0.90114
0.952757
1.0073
2.99998
2.99995
2.99983
2.99964
2.99901
2.99803
2.99463
2.98941
2.97166
2.9408
2.85407
2.65119
2.25337
1.41109
0.888094
0.725488
0.736088
0.761573
0.792346
0.817604
0.845286
0.879614
0.918029
0.962364
1.00994
2.99999
2.99996
2.99987
2.99973
2.99925
2.9985
2.99592
2.99203
2.97841
2.95631
2.89005
2.74949
2.44612
1.80143
1.07332
0.803283
0.783911
0.796807
0.821069
0.846308
0.871096
0.901404
0.936073
0.974995
1.01593
2.99999
2.99997
2.9999
2.99979
2.99943
2.99887
2.9969
2.994
2.98349
2.96746
2.91477
2.81272
2.57019
2.01876
1.24772
0.86934
0.820223
0.833126
0.854482
0.879236
0.901616
0.926749
0.955988
0.989846
1.02586
3
2.99998
2.99993
2.99985
2.99958
2.99916
2.9977
2.99555
2.98774
2.97588
2.93694
2.85965
2.67527
2.22774
1.5074
0.994661
0.862358
0.864214
0.881966
0.907747
0.930598
0.95317
0.97733
1.00571
1.03693
3
2.99999
2.99995
2.99989
2.9997
2.99939
2.99834
2.99678
2.99111
2.98274
2.95356
2.90402
2.76387
2.47646
1.86439
1.17374
0.928417
0.902678
0.91378
0.935532
0.959667
0.980198
1.00177
1.02508
1.05166
3
2.99999
2.99997
2.99993
2.99979
2.99957
2.99882
2.99773
2.99371
2.98788
2.96708
2.93266
2.83286
2.61372
2.16604
1.3812
1.01367
0.937347
0.941604
0.95897
0.982639
1.00386
1.02364
1.04441
1.06714
3
3
2.99998
2.99995
2.99985
2.99971
2.99919
2.99843
2.99566
2.99167
2.97717
2.95425
2.88314
2.73368
2.40898
1.74772
1.1874
0.997397
0.97918
0.988836
1.00801
1.02875
1.04751
1.06563
1.08535
3.00001
3
2.99999
2.99996
2.99992
2.99977
2.99954
2.99874
2.99755
2.99327
2.98684
2.96469
2.92684
2.81577
2.60038
2.07386
1.39827
1.08327
1.01873
1.01848
1.03128
1.0507
1.06881
1.08583
1.10316
3.00001
3
3
2.99998
2.99995
2.99985
2.9997
2.99915
2.99839
2.99549
2.99149
2.97645
2.9534
2.87967
2.72832
2.40082
1.72898
1.24505
1.07538
1.05379
1.05986
1.07414
1.09164
1.10724
1.12161
3.00001
3
3
2.99999
2.99997
2.9999
2.9998
2.99945
2.99896
2.99708
2.99455
2.98457
2.97072
2.92121
2.83254
2.61001
2.1193
1.46782
1.16193
1.09619
1.09027
1.09704
1.11122
1.12656
1.13838
3.00001
3.00001
3
3
2.99998
2.99994
2.99988
2.99966
2.99935
2.99818
2.9966
2.9904
2.98183
2.9506
2.89668
2.74756
2.425
1.81112
1.31705
1.14579
1.12113
1.11912
1.12826
1.14052
1.147
3.00001
3.00001
3
3
2.99999
2.99997
2.99992
2.99984
2.99956
2.99914
2.99772
2.99551
2.98836
2.97478
2.93657
2.8477
2.65306
2.19104
1.55554
1.2305
1.15537
1.14333
1.14307
1.14721
1.1461
3.00001
3.00001
3.00001
3
3
2.99998
2.99996
2.99988
2.99977
2.99936
2.99879
2.99661
2.99363
2.98232
2.96482
2.90782
2.79567
2.52994
2.01182
1.43027
1.20873
1.16771
1.15379
1.1434
1.12729
3.00001
3.00001
3.00001
3
3
2.99999
2.99998
2.99994
2.99987
2.99964
2.99932
2.99813
2.99646
2.99058
2.9802
2.949
2.87734
2.71376
2.3038
1.71061
1.29418
1.17772
1.14099
1.11227
1.07317
3.00001
3.00001
3.00001
3.00001
3
3
2.99999
2.99996
2.99992
2.99977
2.99956
2.99872
2.9977
2.99313
2.98772
2.9641
2.93068
2.81781
2.61305
2.10569
1.5224
1.23128
1.11796
1.03356
0.965453
3.00001
3.00001
3.00001
3.00001
3.00001
3
3
2.99998
2.99996
2.99987
2.99975
2.99927
2.99869
2.99606
2.99302
2.9792
2.96126
2.89212
2.77672
2.45932
1.94555
1.34853
1.05128
0.89406
0.839571
3.00001
3.00001
3.00001
3.00001
3.00001
3.00001
3
3
2.99998
2.99995
2.9999
2.99974
2.99943
2.99869
2.99669
2.9921
2.978
2.94191
2.84665
2.62634
2.1282
1.43951
0.884253
0.680387
0.699685
3.00001
3.00001
3.00001
3.00001
3.00001
3.00001
3
3
3
2.99998
2.99996
2.99988
2.99977
2.99918
2.99818
2.994
2.98314
2.95419
2.87404
2.69316
2.28006
1.60371
0.794387
0.469193
0.543917
3.00001
3.00001
3.00001
3.00001
3.00001
3.00001
3.00001
3
3
2.99999
2.99998
2.99994
2.99985
2.99967
2.99858
2.99778
2.98805
2.96509
2.89123
2.71264
2.29349
1.55446
0.64791
0.282562
0.386234
3.00001
3.00001
3.00001
3.00001
3.00001
3.00001
3.00001
3.00001
3
3
2.99998
2.99995
2.99988
2.99974
2.99879
2.99814
2.98921
2.96752
2.89659
2.72254
2.31988
1.56906
0.647527
0.233989
0.312466
3.00001
3.00001
3.00001
3.00001
3.00001
3.00001
3.00001
3
3
2.99999
2.99997
2.99993
2.99983
2.99957
2.99922
2.99656
2.99536
2.9712
2.91743
2.74982
2.39969
1.64944
0.742072
0.251138
0.291032
3.00001
3.00001
3.00001
3.00001
3.00001
3.00001
3.00001
3
2.99999
2.99998
2.99994
2.99986
2.99966
2.9993
2.99806
2.99677
2.98772
2.97111
2.9032
2.74592
2.36582
1.62108
0.704046
0.238593
0.268816
3.00001
3.00001
3.00001
3.00001
3.00001
3.00001
3.00001
3
3
2.99999
2.99996
2.9999
2.99976
2.99943
2.99881
2.99644
2.99463
2.97305
2.92849
2.77356
2.44869
1.70328
0.801854
0.284466
0.275525
3.00001
3.00001
3.00001
3.00001
3.00001
3.00001
3.00001
3
3
2.99998
2.99994
2.99983
2.99957
2.99912
2.99737
2.99528
2.98575
2.97
2.91976
2.78067
2.43276
1.68795
0.788626
0.296187
0.260253
3.00001
3.00001
3.00001
3.00001
3.00001
3.00001
3.00001
3
3
2.99999
2.99997
2.99992
2.99981
2.99952
2.99905
2.99709
2.99544
2.97803
2.95249
2.81198
2.52105
1.79347
0.912873
0.348591
0.234582
3.00001
3.00001
3.00001
3.00001
3.00001
3.00001
3.00001
3.00001
3
3
2.99998
2.99994
2.99985
2.99965
2.99911
2.99807
2.99334
2.9864
2.93636
2.81777
2.50708
1.91244
0.99906
0.421583
0.220076
3.00001
3.00001
3.00001
3.00001
3.00001
3.00001
3.00001
3
3
2.99999
2.99997
2.99989
2.99979
2.9993
2.99874
2.99602
2.99207
2.976
2.94339
2.84073
2.60404
2.07953
1.21899
0.503726
0.199453
3.00001
3.00001
3.00001
3.00001
3.00001
3.00001
3.00001
3
3
2.99999
2.99997
2.99989
2.99979
2.99931
2.99876
2.99607
2.99263
2.9771
2.95188
2.85938
2.67312
2.21333
1.44063
0.550426
0.14498
3.00001
3.00001
3.00001
3.00001
3.00001
3.00001
3.00001
3
3
2.99999
2.99997
2.9999
2.99981
2.99937
2.99888
2.9964
2.99327
2.97881
2.95592
2.86923
2.69785
2.27041
1.5105
0.578131
0.120682
3.00001
3.00001
3.00001
3.00001
3.00001
3.00001
3.00001
3.00001
3
3
2.99999
2.99995
2.99988
2.99973
2.99918
2.99877
2.99478
2.99322
2.96388
2.89014
2.69527
2.2833
1.51757
0.593995
0.129026
3.00001
3.00001
3.00001
3.00001
3.00001
3.00001
3.00001
3.00001
3
3
2.99999
2.99996
2.99989
2.99971
2.99937
2.99794
2.99675
2.98603
2.98302
2.90477
2.7278
2.23134
1.48015
0.482521
0.0457626
3.00001
3.00001
3.00001
3.00001
3.00001
3.00001
3.00001
3.00001
3
3
2.99999
2.99996
2.9999
2.99977
2.99916
2.99906
2.99491
2.99503
2.9659
2.89523
2.70115
2.29724
1.5376
0.622162
0.147138
1.0869
1.18004
1.03487
0.623087
0.344159
0.177615
0.153438
0.244709
0.313018
0.361067
0.39952
0.437804
0.477783
0.515475
0.550052
0.579722
0.606055
0.629472
0.653217
0.676976
0.698018
0.710815
0.716951
0.719102
0.713544
0.698999
0.674651
0.644355
0.609049
0.572136
0.534059
0.496151
0.458712
0.422412
0.387513
0.353909
0.321269
0.289657
0.258936
0.228663
0.19846
0.168321
0.138795
0.109658
0.0812181
0.0532239
0.0279687
0.0248919
0.036946
0.0594031
0.0833098
0.106874
0.130171
0.152965
0.175491
0.197498
0.218688
0.239166
0.259642
0.280508
0.301389
0.321887
0.342027
0.361791
0.381372
0.400667
0.419886
0.438838
0.457744
0.476414
0.495061
0.5135
0.531898
0.550135
0.568263
0.58636
0.60426
0.622193
0.639976
0.657741
0.675326
0.692995
0.710383
0.727777
0.745052
0.762129
0.779141
0.79597
0.812559
0.829169
0.845168
0.861358
0.876737
0.892164
0.906774
0.920883
0.934086
0.945517
0.954683
0.960725
1.12185
1.15249
1.01551
0.767639
0.471718
0.357263
0.276836
0.19968
0.126757
0.0643501
0.0982341
0.153615
0.205227
0.25002
0.288175
0.319499
0.345181
0.369834
0.396021
0.422323
0.447183
0.462958
0.467736
0.465896
0.456403
0.437866
0.410519
0.376892
0.340355
0.303163
0.266753
0.231453
0.197527
0.164671
0.133449
0.103147
0.074823
0.0494729
0.0338465
0.042155
0.0635029
0.0827332
0.105425
0.128655
0.152055
0.17508
0.197605
0.218939
0.239549
0.260357
0.281289
0.301992
0.322457
0.342584
0.362475
0.381934
0.400771
0.418864
0.436979
0.455407
0.473982
0.492221
0.510074
0.527737
0.545133
0.562423
0.579577
0.596538
0.613474
0.630232
0.646918
0.663554
0.680035
0.696452
0.712772
0.728946
0.745046
0.761095
0.776996
0.792895
0.808704
0.824373
0.840074
0.855468
0.870979
0.886135
0.901288
0.916328
0.931023
0.945906
0.960131
0.974813
0.988722
1.00299
1.01641
1.0295
1.04157
1.05218
1.06044
1.06581
1.10182
1.1358
1.08984
0.977935
0.834349
0.737838
0.663598
0.588877
0.510911
0.430314
0.354034
0.290536
0.232178
0.177408
0.126705
0.0808285
0.0553064
0.0801175
0.110264
0.138354
0.165816
0.187311
0.188647
0.172538
0.161986
0.14426
0.117981
0.0950267
0.0780937
0.0747636
0.0869307
0.105307
0.124276
0.144954
0.167116
0.189518
0.212096
0.234659
0.25699
0.278405
0.298816
0.318569
0.338329
0.357831
0.37724
0.396035
0.414517
0.432128
0.44943
0.466372
0.483337
0.499954
0.516415
0.532567
0.548624
0.564357
0.579558
0.594148
0.608652
0.623549
0.638761
0.653677
0.668548
0.683158
0.697825
0.712363
0.726862
0.741431
0.755914
0.770493
0.785056
0.799682
0.81429
0.829015
0.843553
0.858317
0.87277
0.887504
0.901893
0.916562
0.930894
0.945407
0.959599
0.973953
0.98779
1.002
1.01533
1.02935
1.04224
1.05617
1.06886
1.08247
1.09473
1.10758
1.11926
1.13068
1.14126
1.1501
1.15743
1.1611
1.09608
1.1418
1.14797
1.10702
1.04081
0.978995
0.925663
0.871294
0.809763
0.745972
0.682549
0.622934
0.567468
0.511402
0.458425
0.405641
0.354426
0.308146
0.267329
0.230601
0.19788
0.171915
0.157098
0.158733
0.180108
0.207707
0.240866
0.275262
0.306234
0.333104
0.356269
0.376627
0.395611
0.413939
0.432189
0.450056
0.468043
0.485567
0.503026
0.519661
0.535894
0.551385
0.566857
0.581968
0.597072
0.6116
0.625998
0.639776
0.65332
0.666468
0.6797
0.692615
0.705554
0.718165
0.730944
0.743355
0.755576
0.766928
0.778253
0.789625
0.80146
0.813141
0.824661
0.836138
0.847426
0.858839
0.870114
0.881599
0.892987
0.904598
0.915966
0.927625
0.93899
0.950838
0.96238
0.974518
0.986332
0.998677
1.0108
1.0233
1.03576
1.04852
1.06133
1.07437
1.08732
1.10053
1.11361
1.12707
1.14025
1.15353
1.16659
1.17947
1.19223
1.20448
1.21632
1.22743
1.23747
1.246
1.25264
1.25522
1.0878
1.1437
1.17206
1.17266
1.14895
1.11823
1.08744
1.05369
1.015
0.970939
0.926448
0.880894
0.835821
0.78951
0.742541
0.696117
0.648844
0.604629
0.564564
0.52784
0.496675
0.472004
0.459668
0.463506
0.480556
0.505254
0.534382
0.563923
0.591196
0.613525
0.630118
0.643534
0.655631
0.667287
0.678848
0.690615
0.702397
0.714096
0.725574
0.73667
0.747368
0.757607
0.767672
0.777504
0.787213
0.796642
0.806068
0.815074
0.824103
0.832936
0.84192
0.850693
0.859712
0.868659
0.877801
0.886827
0.895685
0.904027
0.912235
0.920748
0.929724
0.938936
0.948174
0.957453
0.966779
0.976228
0.985772
0.995478
1.00526
1.01523
1.02528
1.03549
1.04578
1.05622
1.06675
1.07742
1.08829
1.09911
1.11034
1.12119
1.13251
1.14326
1.15441
1.16525
1.17665
1.18786
1.19957
1.21083
1.22263
1.23375
1.24544
1.2563
1.26789
1.27845
1.28982
1.29988
1.31024
1.31887
1.32621
1.33072
1.07722
1.13597
1.17719
1.19794
1.20212
1.1946
1.18289
1.16668
1.14631
1.12126
1.09354
1.06349
1.03138
0.997833
0.962218
0.92408
0.885904
0.845968
0.808233
0.771296
0.739502
0.714892
0.701805
0.705768
0.722916
0.749296
0.780428
0.810348
0.837165
0.857791
0.871534
0.878973
0.884017
0.887746
0.891643
0.896055
0.90087
0.905937
0.910947
0.915753
0.920295
0.924583
0.928802
0.932997
0.937347
0.941785
0.946317
0.950891
0.955603
0.960311
0.965314
0.970438
0.975932
0.981593
0.987568
0.993797
1.00012
1.00616
1.01209
1.01841
1.02519
1.03242
1.03981
1.04742
1.05515
1.06305
1.07106
1.07935
1.08768
1.09636
1.105
1.11403
1.12313
1.1325
1.14209
1.15177
1.16177
1.17181
1.18221
1.19259
1.20342
1.21426
1.2257
1.23692
1.24851
1.25986
1.27134
1.28281
1.29426
1.30579
1.31726
1.32844
1.33961
1.3499
1.36033
1.36947
1.37853
1.38584
1.39212
1.39449
1.06857
1.12589
1.1717
1.20378
1.22359
1.23245
1.2358
1.2339
1.22762
1.2178
1.20329
1.18668
1.16658
1.14416
1.11864
1.0895
1.05741
1.02169
0.986005
0.950785
0.918668
0.892728
0.880863
0.886716
0.904795
0.932374
0.964041
0.995555
1.02193
1.04243
1.05616
1.06217
1.06266
1.05868
1.0541
1.0502
1.04754
1.04603
1.04511
1.04489
1.04483
1.04488
1.04507
1.04548
1.04624
1.04727
1.04868
1.05042
1.05252
1.05495
1.05781
1.06106
1.06471
1.06875
1.07319
1.07801
1.08317
1.08821
1.0932
1.09838
1.10406
1.11016
1.11653
1.12311
1.12992
1.1369
1.14403
1.15126
1.15865
1.16624
1.17398
1.18196
1.19015
1.19855
1.2073
1.21607
1.22536
1.23439
1.2441
1.25352
1.26368
1.2734
1.28375
1.29372
1.30431
1.31446
1.32516
1.33531
1.346
1.3561
1.367
1.3771
1.38835
1.39835
1.40959
1.41913
1.42934
1.43761
1.44498
1.44937
1.06334
1.11615
1.16343
1.20007
1.22861
1.24842
1.26163
1.27058
1.27472
1.27571
1.27241
1.26549
1.25589
1.24144
1.22427
1.19932
1.17138
1.13903
1.10529
1.06852
1.03093
1.00697
1.00104
1.00955
1.02804
1.05731
1.09251
1.12582
1.15107
1.16943
1.18324
1.19098
1.19205
1.18846
1.18064
1.17128
1.1627
1.15542
1.15008
1.14594
1.14292
1.14038
1.13842
1.13668
1.13547
1.1344
1.13394
1.13371
1.13404
1.13474
1.13591
1.13747
1.13957
1.14203
1.14493
1.14831
1.1521
1.15594
1.15964
1.16355
1.1678
1.17258
1.17764
1.18309
1.1888
1.19483
1.20111
1.20775
1.21462
1.22179
1.22922
1.23693
1.2449
1.25301
1.26151
1.26993
1.27901
1.28776
1.29743
1.3064
1.3163
1.32558
1.33566
1.34529
1.35548
1.36536
1.3756
1.38566
1.39587
1.40598
1.41589
1.42588
1.43529
1.44495
1.45372
1.46268
1.47056
1.47806
1.48409
1.48748
1.06033
1.10854
1.15415
1.19349
1.22547
1.25202
1.27215
1.28816
1.29967
1.30794
1.31221
1.31297
1.30945
1.30066
1.28582
1.26394
1.23743
1.20753
1.16873
1.12616
1.09013
1.07446
1.0757
1.08682
1.10975
1.14237
1.17936
1.2119
1.23858
1.25707
1.26987
1.27934
1.28362
1.28335
1.27883
1.27128
1.26112
1.25003
1.23999
1.23136
1.22443
1.21865
1.21411
1.21013
1.20684
1.20386
1.20147
1.19939
1.19794
1.19681
1.19639
1.19629
1.19683
1.19776
1.19913
1.20099
1.20336
1.20616
1.20889
1.2118
1.21499
1.21883
1.22308
1.22773
1.23268
1.23805
1.24367
1.24968
1.25588
1.26241
1.26915
1.27609
1.28344
1.29082
1.29887
1.30681
1.31557
1.32402
1.33313
1.34199
1.35135
1.36054
1.3701
1.37963
1.38932
1.39918
1.4089
1.41899
1.42879
1.43889
1.44892
1.45871
1.46896
1.4783
1.48845
1.49717
1.50651
1.51388
1.52089
1.52425
1.05973
1.10381
1.14564
1.18499
1.21914
1.24833
1.27281
1.29349
1.30993
1.32282
1.33192
1.33628
1.33584
1.32749
1.31161
1.29116
1.26433
1.22762
1.18228
1.14063
1.11781
1.11279
1.1194
1.13663
1.16487
1.20023
1.23455
1.26517
1.29109
1.31122
1.32578
1.33568
1.34309
1.34714
1.34629
1.34211
1.33589
1.32657
1.31456
1.30213
1.29056
1.28073
1.2725
1.2657
1.2601
1.2553
1.25125
1.24768
1.24473
1.24217
1.24025
1.23864
1.23792
1.23747
1.23787
1.23882
1.24031
1.24237
1.24473
1.24704
1.24966
1.25281
1.25653
1.26067
1.2651
1.26998
1.27514
1.28074
1.28664
1.29285
1.29944
1.30617
1.31345
1.32071
1.32869
1.33647
1.34492
1.35304
1.3619
1.3704
1.37965
1.38855
1.39808
1.40736
1.41702
1.42656
1.43629
1.44593
1.45575
1.46535
1.47522
1.48475
1.49444
1.50383
1.51302
1.52208
1.53043
1.53851
1.54488
1.54939
1.06411
1.10315
1.14132
1.17803
1.2115
1.24183
1.2679
1.29054
1.30956
1.3246
1.33537
1.34038
1.33723
1.32616
1.30996
1.28682
1.25149
1.20625
1.16465
1.13946
1.13198
1.13575
1.14884
1.17262
1.20486
1.23723
1.26767
1.29492
1.31899
1.33947
1.35624
1.36941
1.37856
1.38507
1.38915
1.38955
1.38669
1.38203
1.37429
1.36358
1.35044
1.33759
1.32573
1.31566
1.30716
1.30023
1.29452
1.28975
1.2858
1.28239
1.27965
1.27745
1.27583
1.27493
1.27445
1.2748
1.27564
1.27707
1.27899
1.28104
1.28316
1.2857
1.28877
1.29249
1.29648
1.3009
1.30569
1.31083
1.31645
1.32227
1.32863
1.33505
1.34209
1.34915
1.35687
1.36447
1.37277
1.38085
1.38962
1.39805
1.40712
1.41588
1.42512
1.43426
1.44356
1.4531
1.46245
1.4723
1.48174
1.49164
1.50118
1.51091
1.52045
1.52982
1.53911
1.5477
1.55619
1.56315
1.56953
1.57253
1.07024
1.10524
1.1396
1.17335
1.20501
1.23424
1.26033
1.28274
1.30138
1.31509
1.32307
1.32248
1.31393
1.30085
1.27951
1.24521
1.20215
1.16453
1.14199
1.13521
1.13816
1.14926
1.17034
1.19866
1.22781
1.25561
1.28167
1.30575
1.32795
1.34818
1.36612
1.38189
1.39462
1.40466
1.41138
1.41565
1.41767
1.41659
1.41312
1.40788
1.39916
1.38741
1.37403
1.36129
1.34948
1.33966
1.33118
1.32469
1.31908
1.31487
1.31112
1.30834
1.3059
1.30423
1.30305
1.30246
1.30256
1.30337
1.30473
1.3065
1.30837
1.31042
1.31301
1.31625
1.31995
1.32406
1.32851
1.33337
1.33866
1.34423
1.35033
1.3565
1.36337
1.37017
1.37771
1.38506
1.3932
1.40109
1.40978
1.41819
1.42727
1.43611
1.44538
1.45455
1.46388
1.47326
1.48264
1.49212
1.50159
1.51111
1.5206
1.53005
1.5393
1.54852
1.55726
1.56591
1.57376
1.58105
1.58686
1.59061
1.07986
1.11019
1.14095
1.17117
1.20012
1.22671
1.25064
1.27039
1.28555
1.29366
1.29359
1.28624
1.27353
1.25143
1.21729
1.17825
1.14672
1.12999
1.12612
1.12965
1.14101
1.16101
1.18606
1.21145
1.23591
1.25934
1.28179
1.30347
1.32431
1.34421
1.36291
1.38017
1.39554
1.40898
1.41986
1.42833
1.43361
1.43659
1.43752
1.43645
1.43334
1.42724
1.41792
1.4057
1.39298
1.38052
1.3698
1.36044
1.35317
1.3471
1.34265
1.3389
1.33618
1.334
1.3324
1.33159
1.33103
1.33152
1.3325
1.33405
1.336
1.33788
1.34009
1.34286
1.34636
1.35026
1.35454
1.3591
1.36417
1.36943
1.37531
1.38118
1.38787
1.39438
1.40173
1.40883
1.41675
1.42437
1.43271
1.44076
1.44941
1.4579
1.46678
1.47573
1.48477
1.49405
1.50317
1.5126
1.52182
1.53127
1.54052
1.54989
1.55897
1.56801
1.5766
1.58481
1.59238
1.59889
1.60433
1.60737
1.09199
1.11793
1.14461
1.17092
1.19593
1.21857
1.23766
1.25173
1.25811
1.25703
1.24943
1.23507
1.21015
1.17632
1.14286
1.11915
1.10917
1.10934
1.1144
1.12737
1.14749
1.16983
1.19189
1.21292
1.2333
1.25343
1.27353
1.29371
1.31372
1.33347
1.35258
1.37087
1.38796
1.40369
1.41755
1.42963
1.43926
1.44674
1.45112
1.45354
1.45431
1.45342
1.45022
1.44375
1.43402
1.42211
1.41014
1.3986
1.3887
1.38041
1.374
1.36901
1.36535
1.36247
1.36058
1.35894
1.3583
1.35791
1.3585
1.35959
1.36121
1.36302
1.36489
1.36714
1.3701
1.37363
1.37769
1.38189
1.38673
1.39164
1.39731
1.4029
1.40932
1.41553
1.42262
1.42944
1.43717
1.44463
1.45287
1.46091
1.46948
1.47798
1.4867
1.49556
1.50438
1.51352
1.52241
1.5317
1.54067
1.54994
1.55894
1.56803
1.57683
1.58544
1.59367
1.60137
1.60837
1.61446
1.61922
1.62218
1.10668
1.12882
1.15078
1.17199
1.19122
1.20725
1.218
1.22089
1.21678
1.20747
1.18986
1.16194
1.1296
1.10305
1.08792
1.08374
1.08677
1.09575
1.11132
1.13113
1.15105
1.17043
1.18863
1.20653
1.22418
1.24243
1.26099
1.28027
1.29961
1.31925
1.33846
1.35741
1.37548
1.39279
1.40875
1.4236
1.43646
1.44793
1.4569
1.46402
1.46804
1.47052
1.4717
1.47119
1.46775
1.46124
1.45147
1.44034
1.42892
1.41865
1.40963
1.40258
1.39694
1.39295
1.38994
1.38798
1.38665
1.38597
1.38597
1.38668
1.3879
1.38955
1.3914
1.39332
1.39586
1.39899
1.40291
1.40693
1.41161
1.41624
1.42168
1.42695
1.4331
1.439
1.44576
1.4523
1.45961
1.46677
1.47456
1.48226
1.49043
1.49859
1.50695
1.51555
1.52403
1.53295
1.54159
1.5506
1.55937
1.56829
1.57707
1.58574
1.59423
1.60241
1.61011
1.61728
1.62353
1.62898
1.63268
1.63503
1.12117
1.13949
1.15658
1.17166
1.18298
1.18796
1.1866
1.1787
1.16488
1.14195
1.11149
1.08244
1.06292
1.05545
1.05665
1.06239
1.07526
1.09375
1.1127
1.13111
1.14805
1.16425
1.17983
1.19587
1.21213
1.22944
1.24712
1.26584
1.28464
1.30412
1.32327
1.34268
1.36139
1.37991
1.39736
1.41416
1.42953
1.44395
1.45643
1.46765
1.47648
1.48342
1.48745
1.49036
1.4919
1.49172
1.48793
1.48071
1.47096
1.46022
1.44956
1.43995
1.43184
1.42554
1.42082
1.41774
1.4155
1.41461
1.41393
1.41438
1.41526
1.41665
1.41842
1.42009
1.42213
1.42454
1.42806
1.43177
1.43625
1.44059
1.44577
1.45082
1.45665
1.46235
1.46873
1.47505
1.48198
1.48887
1.4963
1.50374
1.51154
1.51946
1.52753
1.53579
1.54405
1.55256
1.56091
1.56955
1.57797
1.58653
1.59489
1.6032
1.61109
1.6188
1.62571
1.63213
1.63741
1.64195
1.64434
1.64611
1.13514
1.14751
1.15778
1.16381
1.16323
1.15633
1.14448
1.12404
1.09506
1.06447
1.04112
1.02871
1.02635
1.0305
1.04133
1.05843
1.07752
1.09585
1.11274
1.12813
1.14259
1.15669
1.17094
1.18587
1.20149
1.21815
1.23543
1.25365
1.27214
1.29129
1.31035
1.32981
1.3488
1.36791
1.38623
1.40435
1.42143
1.43793
1.45305
1.46718
1.47948
1.49029
1.4986
1.50513
1.50915
1.51285
1.51436
1.51404
1.50981
1.50198
1.49238
1.48179
1.47175
1.46293
1.45587
1.4506
1.44717
1.44483
1.44392
1.44348
1.4441
1.44518
1.4468
1.44847
1.4503
1.45231
1.45538
1.45877
1.46307
1.46716
1.47212
1.47681
1.48241
1.48764
1.49378
1.49958
1.50623
1.51263
1.51973
1.52663
1.53408
1.54148
1.5491
1.55704
1.56472
1.57303
1.58085
1.58912
1.5971
1.6051
1.61301
1.62057
1.62799
1.63477
1.64089
1.64629
1.65048
1.65365
1.65453
1.65555
1.14644
1.1508
1.14972
1.14264
1.13097
1.11122
1.08293
1.04981
1.02129
1.0038
0.997961
0.999992
1.0082
1.02336
1.043
1.06222
1.07998
1.0959
1.11021
1.1236
1.13663
1.14984
1.16357
1.17799
1.19334
1.20941
1.22646
1.24397
1.26236
1.28086
1.30011
1.3191
1.33863
1.35759
1.37678
1.39524
1.41361
1.43106
1.44804
1.46392
1.47891
1.4925
1.50485
1.51515
1.52341
1.5298
1.53459
1.53846
1.54003
1.53942
1.53458
1.52643
1.5167
1.50659
1.49713
1.48924
1.4831
1.47891
1.47617
1.47502
1.4746
1.47538
1.47665
1.47831
1.47995
1.4817
1.48421
1.48715
1.49106
1.49494
1.49957
1.50404
1.50931
1.51434
1.52013
1.52572
1.53193
1.53805
1.54462
1.55127
1.55809
1.56523
1.57228
1.57976
1.58707
1.59472
1.60221
1.60991
1.61735
1.62489
1.63197
1.63907
1.6453
1.65146
1.65612
1.66057
1.66306
1.66462
1.66389
1.66421
1.14737
1.14044
1.1281
1.10914
1.08042
1.04374
1.0092
0.985173
0.973848
0.972613
0.977547
0.990987
1.01067
1.03089
1.04987
1.06671
1.08167
1.09524
1.108
1.12039
1.13283
1.14569
1.15914
1.17339
1.18841
1.20426
1.22076
1.23794
1.25566
1.27387
1.29249
1.31129
1.3304
1.34941
1.36864
1.3875
1.40644
1.42471
1.44296
1.46014
1.47723
1.49277
1.50808
1.52123
1.53376
1.54358
1.5518
1.55845
1.56388
1.56744
1.56876
1.56722
1.56159
1.55272
1.54287
1.53268
1.52363
1.51624
1.51095
1.50748
1.50595
1.50536
1.5063
1.50761
1.50922
1.51076
1.51283
1.51551
1.51889
1.52269
1.52694
1.5313
1.5362
1.5411
1.54652
1.5519
1.55773
1.56354
1.56974
1.57599
1.5825
1.5892
1.59593
1.60295
1.60993
1.61704
1.62428
1.63123
1.63846
1.64502
1.6518
1.65766
1.6634
1.66783
1.67184
1.67418
1.67539
1.67447
1.67257
1.67279
1.13343
1.11505
1.08674
1.04735
1.00488
0.971635
0.952507
0.947076
0.949659
0.960543
0.9787
1.00002
1.02082
1.03953
1.05597
1.07043
1.0834
1.09557
1.10747
1.11952
1.13193
1.14488
1.15839
1.17254
1.18728
1.20273
1.21877
1.23544
1.25263
1.27029
1.2884
1.30682
1.32562
1.34451
1.36368
1.38273
1.40186
1.42072
1.43948
1.45775
1.47575
1.49299
1.50972
1.5254
1.54023
1.5533
1.56527
1.57464
1.58274
1.58942
1.59437
1.59686
1.59746
1.59485
1.58803
1.57834
1.56783
1.55776
1.54919
1.54269
1.5384
1.53621
1.53547
1.5363
1.53774
1.53907
1.54081
1.54304
1.54606
1.5496
1.55357
1.55773
1.56228
1.56701
1.57211
1.57729
1.58277
1.58832
1.59407
1.60001
1.60603
1.61234
1.61864
1.62524
1.63175
1.63851
1.64505
1.6519
1.65805
1.66466
1.66998
1.67566
1.67968
1.68352
1.68547
1.68665
1.68532
1.6831
1.67989
1.67954
1.10148
1.06357
1.01533
0.968872
0.938825
0.926084
0.924701
0.931593
0.947854
0.970488
0.992639
1.01299
1.03086
1.04646
1.06029
1.07302
1.08504
1.09692
1.1088
1.12098
1.13357
1.14663
1.16018
1.17424
1.18883
1.20396
1.21963
1.23581
1.25249
1.26964
1.28725
1.30525
1.32358
1.34219
1.36101
1.37999
1.39906
1.4181
1.43711
1.45589
1.47447
1.49264
1.5103
1.52749
1.5437
1.55925
1.57336
1.58615
1.59712
1.6061
1.6141
1.62016
1.62475
1.62611
1.62591
1.6215
1.61349
1.60339
1.59251
1.58298
1.575
1.56964
1.56645
1.56534
1.56596
1.56722
1.5685
1.57031
1.57295
1.57624
1.58009
1.58403
1.58834
1.5928
1.59762
1.60253
1.60769
1.61291
1.6183
1.62383
1.62944
1.63521
1.6411
1.64703
1.65317
1.65921
1.66532
1.67126
1.67712
1.68231
1.68747
1.69124
1.69472
1.69627
1.69714
1.69558
1.69288
1.68923
1.68259
1.6805
1.02563
0.975416
0.936217
0.912439
0.906195
0.909618
0.923207
0.944292
0.967204
0.988736
1.00821
1.02519
1.04002
1.05335
1.06556
1.07737
1.08902
1.10084
1.11292
1.12532
1.13813
1.15126
1.16484
1.17873
1.19311
1.20781
1.22306
1.2387
1.25489
1.27149
1.28857
1.30604
1.32385
1.34205
1.3604
1.37914
1.39784
1.41687
1.43571
1.45473
1.4735
1.49219
1.51044
1.52852
1.54568
1.56277
1.57828
1.59364
1.60691
1.61941
1.62934
1.63845
1.64608
1.65178
1.65485
1.65564
1.65392
1.64771
1.63834
1.62748
1.61698
1.6076
1.60084
1.59639
1.59458
1.59469
1.59578
1.59699
1.5989
1.6019
1.60551
1.60961
1.61357
1.61802
1.62246
1.62728
1.63213
1.63716
1.64234
1.64747
1.65293
1.6582
1.66382
1.66932
1.67492
1.68045
1.68597
1.69098
1.69615
1.70016
1.70406
1.70664
1.7081
1.70823
1.70648
1.70389
1.69946
1.6929
1.68153
1.67635
0.914727
0.887517
0.880475
0.884548
0.898171
0.919944
0.944255
0.9674
0.988382
1.00653
1.02224
1.03585
1.04813
1.05983
1.07129
1.08281
1.09457
1.10655
1.11891
1.13148
1.14443
1.15752
1.17098
1.18462
1.19866
1.21296
1.22774
1.24288
1.25855
1.27459
1.29113
1.30802
1.32536
1.34304
1.36103
1.37938
1.39784
1.41668
1.43542
1.45447
1.47328
1.49219
1.51088
1.52927
1.54757
1.56518
1.5826
1.59894
1.61457
1.62894
1.64179
1.65304
1.66238
1.67106
1.6777
1.68199
1.68305
1.6827
1.67884
1.67085
1.65979
1.64805
1.63744
1.62883
1.62323
1.62022
1.61976
1.62062
1.62166
1.62363
1.62676
1.63074
1.63503
1.63933
1.64391
1.64853
1.65338
1.65836
1.66338
1.66862
1.67374
1.67908
1.68428
1.68964
1.69485
1.70005
1.70491
1.70957
1.7134
1.7169
1.7191
1.72044
1.71999
1.71809
1.71529
1.7103
1.70218
1.6915
1.6777
1.67198
0.82883
0.837574
0.857894
0.886748
0.915966
0.942641
0.96647
0.987228
1.00493
1.02007
1.03331
1.04549
1.05712
1.06844
1.07999
1.09165
1.10376
1.11595
1.12852
1.14112
1.15401
1.16694
1.18015
1.19349
1.20717
1.22108
1.2354
1.25002
1.26517
1.28063
1.29665
1.31294
1.32979
1.34684
1.36441
1.38211
1.40027
1.41852
1.43712
1.45581
1.47466
1.49347
1.51222
1.53081
1.54913
1.56708
1.58457
1.60152
1.61784
1.63327
1.64791
1.66105
1.67297
1.68265
1.69165
1.69883
1.70394
1.70553
1.70538
1.70289
1.69655
1.68609
1.67427
1.66241
1.65226
1.64525
1.64092
1.63984
1.64029
1.6413
1.64337
1.64653
1.65099
1.65557
1.66043
1.66525
1.67029
1.67536
1.68065
1.68585
1.69124
1.6964
1.70172
1.70677
1.71186
1.71654
1.72108
1.72475
1.72809
1.73015
1.73137
1.73096
1.72929
1.7263
1.72054