/*--------------------------------*- C++ -*----------------------------------*\
  =========                 |
  \\      /  F ield         | OpenFOAM: The Open Source CFD Toolbox
   \\    /   O peration     | Website:  https://openfoam.org
    \\  /    A nd           | Version:  6
     \\/     M anipulation  |
\*---------------------------------------------------------------------------*/
FoamFile
{
    version     2.0;
    format      ascii;
    class       volScalarField;
    location    "6";
    object      p;
}
// * * * * * * * * * * * * * * * * * * * * * * * * * * * * * * * * * * * * * //

dimensions      [1 -1 -2 0 0 0 0];

internalField   nonuniform List<scalar> 
5250
(
1.00005
1.00027
1.0007
1.00184
1.00398
1.01022
1.02108
1.05734
1.11204
1.33655
1.7195
3.11496
6.80836
15.0794
13.8818
12.1415
11.5095
11.5743
11.8101
12.0928
12.2439
12.3322
12.4056
12.4648
12.5029
1.00005
1.00027
1.0007
1.00184
1.00396
1.01018
1.02099
1.05711
1.11161
1.33517
1.71658
3.10602
6.78298
15.0266
13.833
12.1022
11.4895
11.5616
11.8053
12.083
12.2305
12.3197
12.3954
12.4556
12.4957
1.00005
1.00027
1.00069
1.00182
1.00393
1.01009
1.02082
1.05662
1.11071
1.33213
1.71008
3.08562
6.72359
14.9066
13.7346
12.0229
11.4403
11.5214
11.7743
12.0414
12.1814
12.271
12.3496
12.411
12.4535
1.00005
1.00026
1.00068
1.0018
1.00388
1.00995
1.02054
1.05583
1.10929
1.32726
1.6996
3.05259
6.62744
14.7194
13.5942
11.9166
11.3642
11.4515
11.7087
11.9607
12.0912
12.1785
12.2572
12.3182
12.3615
1.00005
1.00026
1.00067
1.00176
1.00381
1.00977
1.02016
1.05474
1.1073
1.32048
1.68496
3.0065
6.49421
14.4643
13.4127
11.7849
11.2649
11.3557
11.6109
11.8461
11.9661
12.0494
12.1255
12.1832
12.2256
1.00005
1.00025
1.00065
1.00172
1.00371
1.00953
1.01967
1.05333
1.10477
1.31171
1.66611
2.94725
6.32257
14.1371
13.1882
11.6288
11.145
11.2357
11.4819
11.6954
11.8011
11.8762
11.9465
12.0002
12.0437
1.00004
1.00025
1.00063
1.00167
1.0036
1.00923
1.01907
1.05163
1.10156
1.30152
1.64136
2.88198
6.10538
13.7338
12.9193
11.4516
11.0065
11.0917
11.3181
11.5046
11.5913
11.6513
11.7069
11.7485
11.7901
1.00004
1.00024
1.00061
1.0016
1.00347
1.00888
1.01835
1.04966
1.09733
1.29086
1.60775
2.82088
5.83385
13.248
12.591
11.2802
10.8547
10.926
11.1177
11.27
11.3288
11.3614
11.3867
11.3977
11.4249
1.00004
1.00023
1.00058
1.00153
1.00331
1.00847
1.01752
1.04735
1.0924
1.2783
1.56946
2.74786
5.52655
12.6753
12.1944
11.1228
10.6925
10.74
10.8804
10.9907
11.0098
10.9973
10.9577
10.8866
10.85
1.00004
1.00021
1.00055
1.00145
1.00313
1.008
1.01655
1.0447
1.087
1.26313
1.53058
2.65298
5.20069
12.0132
11.7376
10.975
10.5232
10.5357
10.6091
10.6635
10.6393
10.554
10.3794
10.117
9.78909
1.00004
1.0002
1.00051
1.00135
1.00292
1.00746
1.01545
1.04167
1.08107
1.24521
1.4903
2.5373
4.8544
11.2659
11.2437
10.8439
10.3606
10.3013
10.3237
10.3115
10.2292
10.0202
9.6271
8.9331
7.3255
1.00003
1.00018
1.00047
1.00124
1.00267
1.00683
1.01416
1.03813
1.07401
1.22462
1.44213
2.4053
4.45047
10.3602
10.936
10.6578
10.1947
10.0638
10.0373
9.96536
9.78915
9.43497
8.86418
7.98218
6.40672
1.00003
1.00016
1.00042
1.00111
1.00239
1.00611
1.01267
1.03399
1.06626
1.2002
1.38692
2.25454
3.99152
9.29695
10.7066
10.5009
10.0617
9.84744
9.75789
9.6176
9.35201
8.92869
8.31277
7.47979
6.37338
1.00003
1.00014
1.00037
1.00096
1.00208
1.00529
1.01097
1.02933
1.05675
1.17444
1.31966
2.09554
3.49444
8.06206
10.5695
10.3949
9.95343
9.63356
9.47356
9.28609
8.98469
8.55005
7.9764
7.25954
6.4058
1.00002
1.00012
1.00031
1.00081
1.00176
1.00448
1.00929
1.02461
1.04881
1.14282
1.27074
1.88107
2.99614
6.64704
10.5286
10.3484
9.85593
9.42393
9.20199
8.99122
8.6883
8.27581
7.76259
7.15351
6.47341
1.00002
1.0001
1.00026
1.00067
1.00146
1.00368
1.00768
1.02002
1.0405
1.11281
1.2238
1.67339
2.51934
5.20738
10.3335
10.2172
9.76503
9.23225
8.95498
8.73286
8.44503
8.06341
7.60572
7.08151
6.51204
1.00001
1.00008
1.00021
1.00055
1.00119
1.00302
1.0063
1.01642
1.03313
1.09279
1.18023
1.55311
2.23308
4.54131
9.61542
9.85289
9.58509
9.04985
8.73446
8.50641
8.23686
7.88856
7.47718
7.01936
6.53169
1.00001
1.00007
1.00017
1.00045
1.00097
1.00244
1.00508
1.01325
1.02662
1.07566
1.13973
1.45851
1.94741
3.89477
8.14012
9.40623
9.27326
8.92277
8.56566
8.31658
8.05903
7.7404
7.36827
6.962
6.53276
1.00001
1.00005
1.00013
1.00035
1.00076
1.00192
1.004
1.01041
1.0209
1.05922
1.10829
1.35718
1.7112
3.20537
6.49526
9.20512
9.13864
8.87206
8.46201
8.17373
7.91377
7.61825
7.28198
6.91462
6.53064
1.00001
1.00004
1.0001
1.00027
1.00058
1.00146
1.00306
1.00785
1.0159
1.0435
1.08179
1.25406
1.49437
2.50491
4.53191
8.90256
9.05808
8.85683
8.43812
8.08066
7.79814
7.51441
7.20383
6.87106
6.52526
1.00001
1.00003
1.00008
1.0002
1.00044
1.00111
1.00232
1.00592
1.01206
1.03247
1.06246
1.19056
1.3517
2.17712
3.64844
7.90699
8.86414
8.74737
8.41466
8.00006
7.69073
7.41604
7.12998
6.82693
6.51365
1
1.00002
1.00006
1.00015
1.00033
1.00082
1.00172
1.00439
1.00893
1.02407
1.04553
1.14241
1.25147
1.87162
2.8887
6.13023
8.55283
8.52538
8.34274
7.95269
7.60187
7.32472
7.05958
6.78334
6.49756
1
1.00002
1.00004
1.00011
1.00024
1.0006
1.00125
1.00318
1.00649
1.01714
1.03392
1.09576
1.18629
1.55935
2.21989
4.23209
8.0011
8.40453
8.27136
7.94646
7.55644
7.26094
7.00509
6.7509
6.48957
1
1.00001
1.00003
1.00008
1.00017
1.00042
1.00089
1.00225
1.00459
1.01206
1.02379
1.0678
1.12468
1.39986
1.82177
3.39209
6.71048
8.17162
8.12471
7.92899
7.5523
7.22765
6.96569
6.7241
6.48237
1
1.00001
1.00002
1.00005
1.00012
1.00029
1.00062
1.00156
1.00318
1.0083
1.01641
1.04625
1.08426
1.27211
1.52223
2.59708
4.72251
7.70467
7.98767
7.87261
7.57973
7.23036
6.95106
6.71054
6.48295
1
1.00001
1.00002
1.00003
1.00009
1.00018
1.00046
1.00095
1.00243
1.00492
1.01308
1.02565
1.07255
1.14212
1.41763
1.90608
3.44367
6.61073
7.76886
7.73699
7.57536
7.24903
6.95581
6.71198
6.48854
1
1
1.00001
1.00002
1.00006
1.00012
1.00031
1.00064
1.00161
1.00326
1.00855
1.01669
1.04758
1.08537
1.28008
1.52189
2.61993
4.71184
7.28746
7.61302
7.52785
7.29953
6.98205
6.72451
6.50621
1
1
1.00001
1.00002
1.00004
1.00008
1.0002
1.00041
1.00104
1.00211
1.00548
1.01086
1.02969
1.05583
1.172
1.30851
2.01295
3.15934
6.23706
7.39626
7.39207
7.29293
7.05435
6.76528
6.54963
1
1
1
1.00001
1.00002
1.00005
1.00013
1.00026
1.00065
1.00132
1.00341
1.00676
1.01839
1.03447
1.1059
1.18562
1.62342
2.26749
4.2966
6.86679
7.28903
7.24997
7.11752
6.8543
6.6447
1
1
1
1.00001
1.00001
1.00003
1.00007
1.00017
1.00034
1.00086
1.00168
1.00457
1.00811
1.02621
1.04061
1.15803
1.2467
1.91789
2.86172
5.68825
7.0421
7.19246
7.14572
7.01681
6.84171
1
1
1
1
1.00001
1.00002
1.00005
1.00009
1.00023
1.00047
1.00121
1.00241
1.00643
1.01223
1.03585
1.06347
1.20725
1.38758
2.14708
3.49756
6.41321
7.11138
7.22311
7.21844
7.2273
1
1
1
1
1.00001
1.00001
1.00003
1.00006
1.00014
1.00027
1.00069
1.00134
1.00367
1.00639
1.02114
1.03087
1.13071
1.1842
1.77604
2.47056
4.87742
6.77499
7.33303
7.55185
7.78475
1
1
1
1
1
1.00001
1.00002
1.00003
1.00009
1.00017
1.00045
1.00089
1.00235
1.00459
1.01265
1.02371
1.07098
1.13051
1.40774
1.82528
3.20962
5.83389
7.40715
8.25388
8.91644
1
1
1
1
1
1
1.00001
1.00002
1.00005
1.0001
1.00026
1.00051
1.00135
1.00264
1.00724
1.01359
1.04051
1.07204
1.23236
1.44321
2.30223
3.82573
7.34361
9.72303
10.7342
1
1
1
1
1
1
1
1.00001
1.00002
1.00004
1.00011
1.0002
1.00061
1.00089
1.00352
1.00449
1.02368
1.02802
1.16839
1.22013
2.07021
3.07051
6.80946
11.565
12.1124
1
1
1
1
1
1
1
1.00001
1.00001
1.00002
1.00004
1.00013
1.00019
1.0008
1.00108
1.00639
1.00806
1.04867
1.06642
1.32747
1.58568
3.03456
5.7989
12.5137
12.5812
1
1
1
1
1
1
1
1
1.00001
1.00001
1.00003
1.00006
1.00016
1.00028
1.00098
1.00129
1.01174
1.01307
1.11649
1.1473
1.82395
2.6031
6.04214
12.4754
12.4114
1
1
1
1
1
1
1
1
1
1.00001
1.00002
1.00004
1.00013
1.00023
1.00079
1.00102
1.01035
1.01143
1.11019
1.14081
1.78551
2.54207
5.89159
12.3003
12.1753
1
1
1
1
1
1
1
1
1.00001
1.00001
1.00003
1.00007
1.00014
1.00038
1.00077
1.00204
1.00216
1.02781
1.03136
1.26803
1.40029
2.83525
5.30829
12.1316
12.0198
1
1
1
1
1
1
1
1
1.00001
1.00002
1.00006
1.0001
1.00027
1.00046
1.00128
1.00174
1.00968
1.01031
1.0974
1.12528
1.71968
2.43828
5.55845
11.8562
11.8163
1
1
1
1
1
1
1
1
1.00001
1.00002
1.00004
1.00011
1.00018
1.00056
1.00092
1.00283
1.0032
1.02539
1.02809
1.24513
1.35275
2.72579
5.00353
11.6353
11.7361
1
1
1
1
1
1
1
1
1.00001
1.00002
1.00007
1.00012
1.00041
1.00068
1.00208
1.00293
1.01163
1.01432
1.08671
1.11692
1.65051
2.30051
5.21032
11.2791
11.6817
1
1
1
1
1
1
1
1
1.00001
1.00001
1.00003
1.00009
1.00014
1.00048
1.00069
1.0026
1.00322
1.01797
1.01941
1.2059
1.28201
2.5728
4.57415
10.9489
11.8374
1
1
1
1
1
1
1
1
1.00001
1.00001
1.00003
1.00005
1.00016
1.00025
1.00092
1.00141
1.00545
1.00671
1.06678
1.0785
1.55109
2.03639
4.54088
10.1587
12.1749
1
1
1
1
1
1
1
1
1.00001
1.00001
1.00004
1.00008
1.00023
1.00044
1.00133
1.00238
1.00852
1.01292
1.06168
1.08797
1.43823
1.87615
3.93181
8.97215
12.9763
1
1
1
1
1
1
1
1
1.00001
1.00001
1.00004
1.00008
1.00022
1.00044
1.0013
1.00239
1.00792
1.01308
1.05246
1.07948
1.3563
1.66243
3.35668
6.94976
14.018
1
1
1
1
1
1
1
1
1.00001
1.00001
1.00004
1.00007
1.0002
1.0004
1.00117
1.00216
1.00716
1.01186
1.0476
1.07201
1.32513
1.57878
3.16351
6.24817
13.9849
1
1
1
1
1
1
1
1
1
1.00001
1.00002
1.00004
1.00013
1.00022
1.00068
1.00139
1.00329
1.00336
1.03702
1.03912
1.32497
1.50789
3.12265
6.05773
13.5667
1
1
1
1
1
1
1
1
1
1.00001
1.00002
1.00005
1.00008
1.00028
1.00047
1.00155
1.00334
1.00763
1.01097
1.09021
1.09292
1.89507
2.65739
6.46115
13.3057
1
1
1
1
1
1
1
1
1
1.00001
1.00002
1.00003
1.00011
1.0002
1.00057
1.00132
1.00245
1.00295
1.03255
1.0335
1.31517
1.48734
3.06202
5.87602
13.1435
3.8333
2.42874
2.4553
2.75564
3.67007
3.79181
3.70448
3.61008
3.52622
3.46298
3.4009
3.3286
3.25377
3.18187
3.1171
3.06039
3.01073
2.9629
2.91331
2.8611
2.82624
2.81121
2.80714
2.81106
2.84019
2.89576
2.97481
3.07133
3.17833
3.29011
3.40323
3.5154
3.62454
3.72896
3.82803
3.92208
4.01167
4.09684
4.17793
4.25595
4.33171
4.40419
4.47147
4.5335
4.59028
4.64219
4.68924
4.73241
4.77313
4.8072
4.83499
4.85743
4.8745
4.88674
4.89404
4.89689
4.89637
4.89356
4.88664
4.87351
4.85576
4.83477
4.81108
4.78489
4.75617
4.72504
4.6914
4.65547
4.61717
4.57674
4.53414
4.48957
4.44303
4.39466
4.3445
4.29263
4.23917
4.18418
4.12783
4.07021
4.01153
3.95191
3.89157
3.83067
3.76939
3.70789
3.64632
3.58484
3.52359
3.46276
3.40247
3.34303
3.28459
3.22758
3.17231
3.11945
3.06991
3.02511
2.98728
2.96065
4.32194
3.08765
3.09161
3.31126
3.82602
3.78855
3.69193
3.60347
3.53248
3.46955
3.40198
3.32222
3.24229
3.1681
3.10381
3.04979
3.00515
2.95928
2.91212
2.86691
2.82828
2.80906
2.80303
2.80646
2.83451
2.88931
2.96795
3.06461
3.17197
3.28317
3.39524
3.50627
3.61442
3.71818
3.81656
3.91007
3.99911
4.08354
4.16334
4.2406
4.31709
4.39109
4.45907
4.52176
4.57916
4.63183
4.67976
4.72388
4.7646
4.79925
4.82762
4.85057
4.86821
4.88093
4.8887
4.8918
4.89146
4.88931
4.88337
4.87093
4.85289
4.83175
4.80808
4.78195
4.75332
4.72221
4.68861
4.65266
4.61439
4.57396
4.53141
4.48687
4.44041
4.39211
4.34205
4.29029
4.23693
4.18206
4.12581
4.06829
4.00968
3.95014
3.88987
3.82902
3.76779
3.70633
3.64479
3.58336
3.52213
3.46135
3.40108
3.34167
3.28324
3.22627
3.17103
3.11815
3.06848
3.02341
2.98515
2.95755
5.12687
4.21881
3.85598
3.86368
3.90527
3.85041
3.71497
3.58762
3.50554
3.44198
3.37988
3.30393
3.22801
3.15899
3.10024
3.04847
3.00267
2.95356
2.90381
2.85885
2.82022
2.79511
2.78584
2.79144
2.81995
2.87269
2.94952
3.04499
3.15125
3.26206
3.37449
3.48768
3.59777
3.70257
3.80162
3.89591
3.9857
4.0713
4.15271
4.23135
4.30783
4.3814
4.4496
4.51264
4.57043
4.62356
4.67191
4.71622
4.75627
4.79103
4.81981
4.8431
4.86108
4.87408
4.8821
4.88526
4.88495
4.8832
4.87825
4.86727
4.84914
4.8278
4.80404
4.77794
4.74939
4.71833
4.68478
4.64884
4.61059
4.57015
4.52764
4.48314
4.43674
4.38853
4.33856
4.28693
4.2337
4.17896
4.12281
4.06541
4.00688
3.94744
3.88724
3.82648
3.76529
3.70391
3.6424
3.58107
3.51986
3.45917
3.39899
3.33978
3.2815
3.22463
3.1694
3.11645
3.06658
3.0211
2.98232
2.95313
5.53334
4.79028
4.30832
4.09823
4.01754
3.92315
3.77359
3.62625
3.52686
3.45001
3.378
3.29655
3.21881
3.14899
3.08958
3.0374
2.99144
2.94439
2.89654
2.85414
2.82115
2.80001
2.79272
2.79811
2.8209
2.87147
2.94651
3.03807
3.13902
3.24774
3.35881
3.47003
3.57873
3.68292
3.78182
3.8762
3.96618
4.05217
4.13413
4.21302
4.28913
4.36225
4.43082
4.49448
4.55293
4.60663
4.65553
4.70016
4.74026
4.77541
4.8049
4.82893
4.84757
4.86118
4.86978
4.87332
4.87306
4.87165
4.86763
4.85857
4.84126
4.82016
4.79639
4.77029
4.7418
4.71084
4.67741
4.64157
4.60342
4.56309
4.52068
4.47631
4.43006
4.38204
4.33229
4.2809
4.2279
4.1734
4.11747
4.06027
4.00194
3.94268
3.88265
3.82201
3.76096
3.69966
3.63823
3.57699
3.51602
3.45554
3.39561
3.33644
3.27828
3.22136
3.16614
3.11304
3.06296
3.01698
2.97776
2.94643
5.77352
5.13504
4.64131
4.32352
4.14551
4.01036
3.86568
3.71551
3.58998
3.4895
3.40306
3.31744
3.23654
3.16343
3.10039
3.04628
2.99957
2.95439
2.91166
2.87589
2.85144
2.83832
2.83763
2.84335
2.86277
2.90547
2.96808
3.04283
3.12905
3.22064
3.32183
3.43036
3.53977
3.64584
3.74711
3.8434
3.93486
4.022
4.10508
4.18476
4.26128
4.3346
4.40377
4.46822
4.52757
4.58198
4.63153
4.67654
4.71691
4.75245
4.78263
4.80746
4.82692
4.84132
4.85069
4.8549
4.85472
4.85362
4.85042
4.84311
4.82817
4.80817
4.78494
4.7591
4.73083
4.70012
4.66698
4.63143
4.59357
4.55349
4.51134
4.46722
4.42123
4.37347
4.32399
4.27286
4.22014
4.16586
4.1102
4.05321
3.99517
3.93612
3.87637
3.81596
3.75523
3.69429
3.63337
3.57246
3.51182
3.45148
3.39178
3.33272
3.27477
3.21792
3.16285
3.10967
3.05946
3.013
2.97287
2.94028
5.92724
5.37528
4.90797
4.55551
4.31099
4.13226
3.97458
3.82405
3.6882
3.5702
3.46399
3.36962
3.28289
3.20432
3.13584
3.0786
3.03278
2.9947
2.96588
2.94628
2.94137
2.94478
2.95547
2.97235
2.98873
3.01097
3.04191
3.08131
3.13186
3.19379
3.26654
3.36739
3.47757
3.58891
3.69738
3.79941
3.89455
3.98369
4.06805
4.14816
4.22475
4.29798
4.36742
4.43252
4.49282
4.54828
4.59882
4.64456
4.68555
4.72174
4.75282
4.77869
4.79928
4.81481
4.82536
4.8309
4.83095
4.83023
4.82778
4.82197
4.80987
4.79167
4.76967
4.74456
4.71672
4.68637
4.65358
4.61842
4.58093
4.54123
4.49942
4.45563
4.40996
4.36252
4.31336
4.26252
4.2101
4.15609
4.10072
4.04402
3.98629
3.92755
3.86827
3.80839
3.74817
3.68755
3.62684
3.56607
3.50556
3.44535
3.38582
3.32694
3.26922
3.21255
3.15768
3.10458
3.0544
3.00766
2.96722
2.93339
6.02979
5.54717
5.11742
4.76178
4.48656
4.27306
4.09481
3.93592
3.79039
3.66033
3.54437
3.4416
3.34939
3.2675
3.19802
3.1427
3.10382
3.08147
3.07839
3.0826
3.09777
3.1313
3.16448
3.17864
3.17904
3.17642
3.1682
3.15971
3.16424
3.18375
3.23047
3.294
3.38387
3.49417
3.61318
3.72718
3.83269
3.92914
4.01772
4.09944
4.17665
4.25001
4.3197
4.38551
4.44699
4.50383
4.55577
4.60273
4.64488
4.68219
4.71453
4.74169
4.76369
4.78069
4.79277
4.79987
4.80126
4.80073
4.79887
4.79433
4.7848
4.76894
4.7489
4.72525
4.69841
4.66877
4.63658
4.60198
4.56505
4.5259
4.48462
4.44132
4.39614
4.34914
4.30041
4.24993
4.19786
4.14417
4.08919
4.03294
3.9759
3.91791
3.85928
3.79986
3.74001
3.67967
3.61927
3.55879
3.49862
3.43875
3.3796
3.32102
3.26365
3.20725
3.15261
3.09967
3.04953
3.00265
2.9616
2.92732
6.09675
5.67081
5.27845
4.93586
4.64938
4.41576
4.22021
4.04966
3.89598
3.75702
3.63407
3.52356
3.42736
3.34388
3.27829
3.23282
3.21589
3.21901
3.23303
3.26881
3.34278
3.41727
3.45153
3.44961
3.43749
3.405
3.33678
3.26688
3.22182
3.22149
3.23116
3.26161
3.32488
3.4032
3.50511
3.62184
3.7382
3.84824
3.94781
4.03738
4.11884
4.19402
4.26415
4.33006
4.39186
4.44947
4.50261
4.55102
4.59451
4.63324
4.66723
4.69601
4.71967
4.73846
4.75239
4.76141
4.76495
4.76469
4.76346
4.76021
4.75317
4.73983
4.72212
4.70052
4.67534
4.64698
4.61577
4.58198
4.54578
4.5073
4.46666
4.42397
4.37935
4.33286
4.2846
4.23449
4.18281
4.12959
4.07536
4.0199
3.96359
3.90614
3.84795
3.78892
3.72944
3.66951
3.60949
3.54945
3.48967
3.43026
3.37145
3.31341
3.25635
3.20045
3.14618
3.09373
3.04392
2.99732
2.95624
2.92191
6.1433
5.76232
5.40325
5.07944
4.79518
4.55161
4.34435
4.16429
4.00401
3.86011
3.73191
3.6182
3.52268
3.44432
3.39096
3.37467
3.38044
3.40266
3.45698
3.56923
3.70071
3.7828
3.78507
3.77233
3.73165
3.64113
3.51442
3.40404
3.32462
3.28024
3.27739
3.28484
3.30958
3.36474
3.43287
3.51859
3.61858
3.73296
3.84301
3.94587
4.03873
4.12172
4.19621
4.26406
4.32653
4.38449
4.43818
4.48767
4.5327
4.57322
4.60919
4.6401
4.66595
4.68706
4.70328
4.71474
4.72113
4.72205
4.72147
4.71946
4.71468
4.70473
4.68927
4.66999
4.64703
4.62053
4.59081
4.55822
4.52301
4.48542
4.4456
4.40368
4.3598
4.31393
4.26621
4.21663
4.1657
4.11337
4.05993
4.00516
3.94939
3.89248
3.83481
3.77634
3.71741
3.6581
3.59862
3.53918
3.47992
3.42106
3.36277
3.30519
3.24867
3.19326
3.13952
3.08756
3.03825
2.99209
2.95132
2.91725
6.17451
5.82988
5.50026
5.19399
4.91941
4.67735
4.46442
4.27857
4.11427
3.96851
3.84028
3.73027
3.64199
3.58192
3.56548
3.57322
3.60199
3.67167
3.81573
3.99668
4.12793
4.15738
4.14413
4.09964
3.99947
3.84253
3.69108
3.56342
3.46481
3.39614
3.35706
3.34865
3.35291
3.36875
3.40657
3.4693
3.53434
3.61405
3.71178
3.81896
3.9234
4.01948
4.10539
4.18148
4.24901
4.30965
4.36476
4.41524
4.46144
4.50348
4.54133
4.57467
4.60334
4.62724
4.64599
4.66017
4.66978
4.67389
4.67373
4.67273
4.66986
4.66348
4.65069
4.63382
4.61328
4.58906
4.56132
4.53039
4.49656
4.46013
4.42136
4.38038
4.33736
4.29219
4.24522
4.19656
4.14655
4.09503
4.04229
3.98815
3.933
3.87672
3.81971
3.76192
3.70366
3.64503
3.58623
3.52746
3.46884
3.41062
3.35298
3.29606
3.2402
3.18551
3.13247
3.08132
3.03277
2.98749
2.94743
2.91415
6.19562
5.88146
5.57741
5.29119
5.02804
4.79106
4.58036
4.39371
4.22963
4.08645
3.96538
3.86902
3.8048
3.79366
3.80404
3.84064
3.92706
4.10337
4.31507
4.47674
4.52856
4.51645
4.47219
4.37011
4.19901
4.02644
3.87258
3.74216
3.63577
3.55248
3.49115
3.45153
3.43002
3.43075
3.43735
3.45752
3.50182
3.54916
3.61143
3.68681
3.78387
3.88405
3.98148
4.07078
4.15002
4.21942
4.28035
4.33425
4.38252
4.42612
4.46554
4.50089
4.53199
4.55865
4.58089
4.59781
4.61054
4.61832
4.62075
4.62038
4.61884
4.61491
4.60646
4.59199
4.57373
4.55189
4.52646
4.49757
4.46552
4.43058
4.39313
4.3533
4.31125
4.26705
4.22116
4.17353
4.12444
4.07375
4.02179
3.96843
3.91407
3.85859
3.80238
3.74542
3.68798
3.63019
3.57218
3.51423
3.45639
3.39897
3.34207
3.28596
3.23086
3.17704
3.12488
3.07473
3.02731
2.98322
2.94436
2.91259
6.20759
5.91993
5.64041
5.3735
5.1244
4.89675
4.69238
4.5119
4.35596
4.22592
4.12607
4.06165
4.06114
4.0755
4.12285
4.2305
4.44048
4.66678
4.83166
4.88507
4.87228
4.82516
4.71809
4.54587
4.36921
4.20699
4.06328
3.93778
3.82926
3.73652
3.65875
3.5961
3.54866
3.51703
3.49936
3.50033
3.50715
3.52671
3.56692
3.60684
3.66406
3.7407
3.83374
3.92875
4.01959
4.10239
4.17539
4.23846
4.293
4.34055
4.38252
4.41981
4.45294
4.48201
4.50702
4.52779
4.54354
4.55469
4.56121
4.56247
4.56187
4.5598
4.55482
4.54441
4.52844
4.5089
4.48594
4.45945
4.42958
4.39657
4.36081
4.32243
4.2817
4.23881
4.19416
4.14765
4.0996
4.04988
3.99889
3.94646
3.89303
3.8385
3.78321
3.72721
3.67071
3.61388
3.55682
3.49981
3.4429
3.38641
3.33045
3.2753
3.22118
3.16845
3.11742
3.0686
3.02255
2.98019
2.94297
2.91311
6.22317
5.95628
5.69616
5.4475
5.21422
5.00014
4.80882
4.64325
4.50758
4.40787
4.35375
4.35812
4.38354
4.45209
4.5986
4.82468
5.04771
5.19237
5.22397
5.20751
5.15222
5.03189
4.86393
4.69406
4.53693
4.39412
4.26397
4.14472
4.03524
3.93522
3.84489
3.76503
3.69632
3.63984
3.59604
3.56603
3.54927
3.55035
3.5574
3.57651
3.60491
3.64275
3.70123
3.77929
3.86685
3.9568
4.04186
4.11841
4.18504
4.24202
4.29042
4.3319
4.36785
4.39931
4.42679
4.45033
4.46993
4.48423
4.49429
4.49953
4.49954
4.49879
4.49622
4.49016
4.47768
4.46028
4.43965
4.4156
4.3881
4.35727
4.32351
4.28687
4.24779
4.20645
4.1632
4.11798
4.07116
4.02262
3.97277
3.92151
3.86922
3.81584
3.76169
3.70683
3.65144
3.59573
3.53976
3.48384
3.42801
3.3726
3.31772
3.26372
3.21079
3.15936
3.10976
3.06258
3.01839
2.97835
2.94322
2.91571
6.23608
5.98958
5.74822
5.51879
5.30501
5.11146
4.94373
4.80896
4.7145
4.68076
4.691
4.73103
4.82704
5.02187
5.25232
5.44601
5.55545
5.55258
5.52611
5.45643
5.31509
5.15409
4.99614
4.85043
4.71618
4.59028
4.47009
4.35444
4.24316
4.137
4.03691
3.9441
3.8596
3.78451
3.71965
3.66592
3.62375
3.59479
3.57799
3.57881
3.58483
3.59922
3.62549
3.66268
3.72313
3.80148
3.88551
3.97022
4.04977
4.12045
4.18087
4.23156
4.27399
4.30983
4.34045
4.36668
4.38903
4.40696
4.41986
4.42861
4.43243
4.43223
4.43105
4.42769
4.42021
4.40567
4.38733
4.36564
4.34057
4.31212
4.28061
4.24606
4.20898
4.16945
4.12789
4.08425
4.03894
3.99186
3.94344
3.89359
3.84267
3.79068
3.73787
3.68436
3.63027
3.57586
3.52115
3.4665
3.41191
3.35777
3.30419
3.25154
3.20007
3.15024
3.10245
3.05734
3.01554
2.97849
2.94533
2.92177
6.25246
6.0248
5.80537
5.59818
5.41069
5.24956
5.12492
5.04314
5.0405
5.05962
5.12133
5.25906
5.48356
5.70342
5.85391
5.90246
5.88925
5.83992
5.73111
5.57935
5.42554
5.28061
5.14752
5.0239
4.90565
4.78972
4.67438
4.55959
4.44592
4.33476
4.22728
4.1249
4.02864
3.93966
3.85873
3.78684
3.72455
3.67284
3.63214
3.60425
3.58831
3.5892
3.59356
3.60535
3.63038
3.67227
3.7336
3.81011
3.89173
3.97184
4.04564
4.11012
4.16456
4.20954
4.24654
4.27707
4.3024
4.32343
4.33944
4.35099
4.35841
4.36083
4.36046
4.35884
4.3546
4.3454
4.32956
4.30996
4.28713
4.26104
4.23185
4.1996
4.16474
4.1273
4.0877
4.04594
4.00243
3.95713
3.91043
3.86229
3.81304
3.76271
3.71149
3.65957
3.607
3.5541
3.50085
3.44764
3.3945
3.34182
3.28976
3.23871
3.189
3.14114
3.09555
3.05306
3.01443
2.98036
2.95052
2.93239
6.27387
6.0679
5.87514
5.70175
5.55679
5.45027
5.40237
5.4115
5.45204
5.55111
5.75129
5.97603
6.16101
6.26009
6.2558
6.22413
6.1439
5.99253
5.83725
5.68817
5.55319
5.43112
5.31727
5.20703
5.09686
4.98506
4.87102
4.75553
4.63945
4.52437
4.4114
4.30205
4.19718
4.09801
4.00519
3.91969
3.84202
3.77304
3.71328
3.66347
3.6246
3.59787
3.58518
3.58529
3.58789
3.598
3.62204
3.66973
3.73332
3.80807
3.8864
3.96229
4.03112
4.0901
4.13873
4.17778
4.20887
4.23362
4.25335
4.26738
4.27763
4.2836
4.28471
4.28415
4.28208
4.27689
4.26594
4.2485
4.2277
4.20379
4.17692
4.14703
4.1145
4.07936
4.042
4.00245
3.96109
3.91792
3.87329
3.82721
3.77996
3.73159
3.68228
3.63221
3.58144
3.53028
3.47873
3.4272
3.37575
3.32478
3.27453
3.22541
3.17783
3.13238
3.08952
3.05044
3.01533
2.98528
2.96015
2.94828
6.31047
6.13355
5.97818
5.85721
5.77961
5.78125
5.80569
5.87947
6.03994
6.27301
6.48548
6.62398
6.64977
6.62945
6.56324
6.42392
6.2598
6.09823
5.9524
5.82381
5.70826
5.60074
5.49625
5.39111
5.28318
5.17181
5.05719
4.94027
4.82207
4.70399
4.58712
4.47277
4.3618
4.25527
4.1538
4.05825
3.96906
3.887
3.81247
3.74635
3.68902
3.64183
3.60506
3.581
3.57179
3.56585
3.56802
3.57853
3.60433
3.65674
3.72151
3.79645
3.87288
3.94503
4.00862
4.06137
4.10335
4.13581
4.16065
4.17913
4.19189
4.20038
4.20488
4.20483
4.20402
4.20126
4.19484
4.18143
4.16265
4.14079
4.11611
4.08851
4.05833
4.02558
3.99065
3.95355
3.91464
3.87391
3.83171
3.78802
3.74312
3.69705
3.64996
3.60206
3.55336
3.50424
3.45468
3.40511
3.35564
3.3067
3.2586
3.21181
3.16684
3.12433
3.08491
3.0503
3.01886
2.99459
2.97542
2.97035
6.38143
6.2498
6.15958
6.13496
6.15112
6.21141
6.34969
6.59025
6.83078
7.00755
7.07923
7.06666
7.01278
6.88988
6.70963
6.53063
6.36661
6.22278
6.09711
5.98495
5.88039
5.77865
5.67628
5.57105
5.462
5.34908
5.2329
5.11425
4.99427
4.87388
4.75432
4.6364
4.5212
4.4093
4.30162
4.19858
4.10084
4.00887
3.92309
3.84419
3.77245
3.70857
3.65363
3.60863
3.57412
3.55479
3.54149
3.53524
3.53811
3.5506
3.57968
3.63673
3.70351
3.77816
3.85209
3.91956
3.97705
4.02305
4.05806
4.08371
4.10168
4.11311
4.12006
4.12201
4.12168
4.12023
4.11634
4.10783
4.09168
4.07202
4.04951
4.02414
3.99622
3.96584
3.93339
3.89887
3.8626
3.8246
3.78511
3.74417
3.70195
3.65856
3.61405
3.56866
3.52241
3.47565
3.42844
3.38117
3.33407
3.28756
3.24206
3.19813
3.15637
3.11744
3.08271
3.05226
3.02669
3.00916
2.99843
2.99863
6.52188
6.47145
6.48276
6.53167
6.65228
6.89678
7.17579
7.41044
7.54349
7.53955
7.50206
7.40314
7.20823
7.0072
6.81652
6.64795
6.5032
6.37763
6.26516
6.16021
6.05819
5.95587
5.85124
5.74322
5.63145
5.51619
5.39803
5.27776
5.15622
5.03429
4.91287
4.79263
4.67444
4.55879
4.4465
4.33786
4.23367
4.13398
4.0397
3.95066
3.868
3.79153
3.72238
3.66102
3.60851
3.56617
3.53563
3.5172
3.50036
3.49542
3.49972
3.51538
3.55045
3.61026
3.67865
3.75228
3.82328
3.88587
3.93688
3.97569
4.00314
4.02125
4.0315
4.03637
4.03636
4.03567
4.03328
4.02751
4.01542
3.99792
3.97759
3.95445
3.92875
3.90068
3.87061
3.83866
3.80507
3.7699
3.73333
3.69538
3.65616
3.61574
3.57417
3.53165
3.48824
3.44423
3.39979
3.35525
3.31097
3.26741
3.2251
3.18471
3.14686
3.11261
3.08346
3.0581
3.04046
3.0314
3.03044
3.03209
6.81313
6.84342
6.94195
7.16019
7.49598
7.81094
8.01646
8.06878
8.04313
7.9547
7.76688
7.53949
7.31587
7.1163
6.94443
6.79686
6.6683
6.55272
6.44441
6.33925
6.2343
6.12778
6.01872
5.90673
5.79173
5.67402
5.55406
5.43246
5.30984
5.18682
5.06404
4.94209
4.82166
4.70321
4.58742
4.47466
4.36546
4.26007
4.15903
4.0625
3.97107
3.88503
3.80471
3.73072
3.66399
3.60497
3.55518
3.51541
3.48869
3.46682
3.45037
3.45072
3.45707
3.4758
3.51618
3.57806
3.64879
3.72116
3.78829
3.84489
3.88828
3.91853
3.93762
3.94718
3.9496
3.9492
3.94758
3.94348
3.93474
3.91949
3.90113
3.88013
3.85661
3.83078
3.80299
3.77345
3.74243
3.71005
3.67642
3.64157
3.60553
3.56834
3.53003
3.49075
3.45058
3.40977
3.36854
3.32728
3.28637
3.24645
3.20804
3.17208
3.13895
3.11115
3.08733
3.0702
3.06252
3.06307
3.06633
3.07606
7.28455
7.43912
7.76327
8.17199
8.49537
8.64352
8.63032
8.56097
8.39495
8.13209
7.87361
7.63615
7.42899
7.2521
7.10043
6.96742
6.84667
6.73298
6.62266
6.51303
6.40258
6.29058
6.17668
6.0608
5.9429
5.82313
5.70175
5.57913
5.45569
5.33188
5.2082
5.08511
4.96313
4.84272
4.72429
4.60827
4.4951
4.38513
4.2787
4.17616
4.07787
3.98413
3.89522
3.81162
3.73367
3.66216
3.59775
3.54157
3.49426
3.45914
3.43131
3.40966
3.39574
3.39769
3.40733
3.43121
3.48015
3.54356
3.61523
3.68505
3.7463
3.79484
3.8292
3.8503
3.86018
3.86104
3.86025
3.85765
3.85157
3.83901
3.82175
3.80233
3.78076
3.75704
3.73139
3.70408
3.67543
3.64564
3.61482
3.583
3.55017
3.51633
3.48151
3.44577
3.40923
3.37208
3.33461
3.29721
3.26044
3.22491
3.19143
3.16074
3.13392
3.11306
3.0967
3.09111
3.0922
3.09726
3.11074
3.14148
8.12456
8.5572
8.96679
9.23975
9.27574
9.22803
9.08507
8.79821
8.502
8.21762
7.96545
7.75097
7.56898
7.41218
7.27347
7.14619
7.02559
6.9083
6.79233
6.67641
6.56
6.4428
6.32476
6.20576
6.0858
5.96475
5.8426
5.71944
5.59555
5.47119
5.34677
5.22266
5.0993
4.97715
4.85657
4.73803
4.62174
4.50817
4.39748
4.29006
4.18613
4.08612
3.99034
3.89914
3.81265
3.73149
3.65599
3.58706
3.52523
3.4721
3.42797
3.39643
3.36634
3.34427
3.33783
3.34149
3.35458
3.38426
3.44075
3.50614
3.57593
3.64133
3.69541
3.73471
3.759
3.77023
3.77066
3.76952
3.76589
3.7577
3.74179
3.723
3.70252
3.68041
3.65663
3.63137
3.60489
3.57744
3.54918
3.52015
3.49039
3.45986
3.42861
3.39663
3.36404
3.331
3.29787
3.26506
3.23331
3.20322
3.17582
3.15154
3.13325
3.11983
3.11567
3.11728
3.12368
3.1397
3.1723
3.23404
9.51533
9.91476
10.0261
9.98163
9.83395
9.52852
9.18828
8.85508
8.55563
8.29737
8.07757
7.89047
7.72799
7.58215
7.44711
7.31841
7.19319
7.06981
6.94751
6.82588
6.70482
6.58409
6.46356
6.34293
6.22202
6.10045
5.97803
5.85465
5.73046
5.60563
5.48052
5.35544
5.23085
5.10711
4.98462
4.86376
4.74477
4.62808
4.51382
4.40246
4.29409
4.18914
4.08776
3.99021
3.89672
3.80752
3.72331
3.64444
3.57154
3.50532
3.4467
3.3962
3.35715
3.32223
3.29453
3.2747
3.27543
3.28158
3.29917
3.33681
3.39613
3.46393
3.53119
3.58999
3.63477
3.66337
3.67748
3.67804
3.67673
3.6724
3.66271
3.64488
3.6244
3.60277
3.58014
3.55649
3.53191
3.50655
3.48053
3.45399
3.427
3.39961
3.37184
3.3437
3.31527
3.28675
3.25855
3.23122
3.20552
3.18213
3.16192
3.14606
3.13623
3.13546
3.13795
3.14679
3.1677
3.2108
3.25664
3.33139
10.9731
10.9198
10.7318
10.3379
9.91468
9.5287
9.18684
8.88274
8.62217
8.40154
8.21209
8.04501
7.89277
7.74987
7.61236
7.47819
7.34656
7.21707
7.08964
6.9641
6.84029
6.71779
6.5962
6.47497
6.3537
6.23195
6.10948
5.98598
5.86153
5.73622
5.61041
5.48437
5.35855
5.23328
5.10901
4.98601
4.86464
4.74512
4.62774
4.51277
4.40053
4.29127
4.18519
4.0825
3.98351
3.88845
3.79741
3.71083
3.62907
3.55257
3.48219
3.41832
3.36274
3.31647
3.27777
3.24268
3.21679
3.20625
3.20852
3.21813
3.24153
3.28944
3.35051
3.41767
3.48013
3.53007
3.56377
3.58114
3.58369
3.58243
3.57809
3.56804
3.54879
3.52684
3.50424
3.48133
3.45805
3.43433
3.41021
3.3858
3.36128
3.33673
3.31225
3.28785
3.26369
3.24002
3.21744
3.19651
3.17808
3.16256
3.15105
3.14582
3.14655
3.1513
3.16445
3.19299
3.24069
3.30149
3.35142
3.42578
11.9247
11.4346
10.7835
10.2813
9.85866
9.49567
9.18966
8.93132
8.71497
8.52803
8.3599
8.20311
8.05307
7.90727
7.7647
7.62514
7.48874
7.3555
7.22539
7.09807
6.97315
6.84997
6.72795
6.60639
6.48479
6.36267
6.23976
6.11583
5.9908
5.86477
5.73797
5.61074
5.48344
5.35645
5.23012
5.10482
4.98094
4.85881
4.73871
4.62085
4.50536
4.39239
4.2822
4.17502
4.07112
3.97071
3.87397
3.78112
3.69248
3.60832
3.52917
3.45539
3.38776
3.32711
3.27462
3.23131
3.19051
3.15863
3.13584
3.13604
3.14037
3.15409
3.18442
3.24005
3.30386
3.36745
3.42155
3.46059
3.48214
3.48826
3.48729
3.48334
3.47378
3.45411
3.43137
3.40818
3.38517
3.36231
3.33952
3.31689
3.29454
3.27258
3.25115
3.23034
3.21053
3.19208
3.17595
3.16234
3.15247
3.14554
3.14579
3.14841
3.15696
3.17624
3.21536
3.26803
3.32899
3.39712
3.44576
3.51172
12.1761
11.3356
10.6455
10.1293
9.74397
9.451
9.21251
9.00982
8.83274
8.66916
8.51172
8.35729
8.20515
8.05571
7.90973
7.76751
7.62912
7.49448
7.3633
7.23507
7.10922
6.98509
6.86204
6.73943
6.61671
6.49345
6.36934
6.24424
6.11813
5.991
5.86296
5.73432
5.60538
5.47653
5.34815
5.22059
5.09422
4.96931
4.84621
4.72513
4.60629
4.4899
4.37614
4.26517
4.15719
4.05235
3.95084
3.85283
3.75851
3.66812
3.58194
3.5003
3.42367
3.35261
3.288
3.23041
3.18223
3.13756
3.09863
3.07127
3.0603
3.06214
3.07026
3.09067
3.13315
3.19128
3.25465
3.31232
3.35602
3.38219
3.39273
3.39215
3.38886
3.38019
3.362
3.33909
3.31547
3.29245
3.27029
3.24901
3.22855
3.20894
3.19034
3.17301