/*--------------------------------*- C++ -*----------------------------------*\
  =========                 |
  \\      /  F ield         | OpenFOAM: The Open Source CFD Toolbox
   \\    /   O peration     | Website:  https://openfoam.org
    \\  /    A nd           | Version:  6
     \\/     M anipulation  |
\*---------------------------------------------------------------------------*/
FoamFile
{
    version     2.0;
    format      ascii;
    class       surfaceScalarField;
    location    "6";
    object      phi;
}
// * * * * * * * * * * * * * * * * * * * * * * * * * * * * * * * * * * * * * //

dimensions      [1 0 -1 0 0 0 0];

internalField   nonuniform List<scalar> 
10325
(
0.00840002
3.63542e-10
0.00840002
2.27138e-09
0.00840001
6.89895e-09
0.00839999
1.82987e-08
0.00839995
4.134e-08
0.00839984
9.73121e-08
0.00839964
2.05284e-07
0.00839907
4.98446e-07
0.00839804
1.01797e-06
0.00839488
2.87062e-06
0.00838805
6.86817e-06
0.00836407
2.28804e-05
0.00826718
9.30762e-05
0.00778103
0.000479595
0.00714275
0.000635769
0.00646126
0.00068039
0.00579025
0.000670416
0.00511657
0.000673178
0.00445746
0.000658771
0.00377369
0.000683508
0.00305145
0.000721976
0.00230396
0.000747283
0.00154566
0.000758167
0.000774459
0.00077108
0.000774325
0.00840002
7.59485e-10
0.00840002
4.75095e-09
0.00840001
1.43766e-08
0.00839999
3.82439e-08
0.00839994
8.62228e-08
0.00839982
2.04283e-07
0.00839961
4.29818e-07
0.00839898
1.05815e-06
0.00839783
2.14e-06
0.00839425
6.17683e-06
0.00838627
1.48707e-05
0.00835766
5.0402e-05
0.0082403
0.000206633
0.00769914
0.00101419
0.00709058
0.0012418
0.00647069
0.0012992
0.00583768
0.00130286
0.00518287
0.0013275
0.00450492
0.00133639
0.00379805
0.00139015
0.00306587
0.00145382
0.00231354
0.00149951
0.00154883
0.00152276
0.00077989
0.00153978
0.00155426
0.00840002
1.18802e-09
0.00840002
7.43037e-09
0.00840001
2.24639e-08
0.00839999
5.98267e-08
0.00839994
1.34911e-07
0.00839981
3.20548e-07
0.00839957
6.74816e-07
0.00839889
1.66977e-06
0.00839763
3.37332e-06
0.00839373
9.80433e-06
0.00838495
2.36756e-05
0.00835348
8.07341e-05
0.00822952
0.000326889
0.00768103
0.00155571
0.00706526
0.00185552
0.00646685
0.00189645
0.00585954
0.00190951
0.00522585
0.00196073
0.00454855
0.00201316
0.00383717
0.00210144
0.00309565
0.00219506
0.00233218
0.00226258
0.0015555
0.00229928
0.000773038
0.00232202
0.00232673
0.00840002
1.63893e-09
0.00840002
1.02498e-08
0.00840001
3.09711e-08
0.00839998
8.25356e-08
0.00839993
1.86159e-07
0.0083998
4.42912e-07
0.00839955
9.3292e-07
0.00839884
2.31205e-06
0.00839751
4.67373e-06
0.00839345
1.3589e-05
0.00838428
3.28664e-05
0.00835146
0.000112396
0.00822855
0.000446191
0.00768287
0.00209422
0.00706803
0.00246836
0.0064837
0.00247974
0.00589646
0.00249623
0.00527967
0.00257709
0.00461592
0.00267636
0.00390621
0.0028111
0.00316603
0.00293498
0.00239539
0.00303313
0.0015939
0.00310047
0.000786615
0.00312954
0.00311289
0.00840002
2.0987e-09
0.00840002
1.31248e-08
0.00840001
3.96468e-08
0.00839998
1.05687e-07
0.00839993
2.38367e-07
0.00839979
5.67554e-07
0.00839954
1.19524e-06
0.00839882
2.96962e-06
0.00839749
5.96797e-06
0.00839332
1.74854e-05
0.0083842
4.20056e-05
0.00835077
0.000144681
0.0082344
0.000559041
0.00770064
0.00262086
0.00708722
0.00307979
0.00651509
0.00305092
0.00594919
0.00306181
0.00535724
0.00316844
0.00471355
0.00331991
0.00401434
0.00350976
0.00327158
0.00367732
0.00249542
0.00380927
0.00168598
0.00390966
0.000843176
0.00397224
0.00395619
0.00840002
2.55568e-09
0.00840002
1.59933e-08
0.00840001
4.83077e-08
0.00839998
1.28848e-07
0.00839993
2.90454e-07
0.00839979
6.9248e-07
0.00839954
1.4576e-06
0.00839884
3.60487e-06
0.00839737
7.40707e-06
0.0083938
2.07916e-05
0.00838311
5.27203e-05
0.00835945
0.000167152
0.00824832
0.00066689
0.00773781
0.00312395
0.00712482
0.0036901
0.00656101
0.0036144
0.00601978
0.00360295
0.00545531
0.00373261
0.00483448
0.00394061
0.00416223
0.00418158
0.00343611
0.00440327
0.00265009
0.00459512
0.0018066
0.00475294
0.000919254
0.00485932
0.00487552
0.00840002
3.02496e-09
0.00840002
1.89548e-08
0.00840001
5.72393e-08
0.00839998
1.52861e-07
0.00839993
3.44373e-07
0.00839979
8.22993e-07
0.00839952
1.73278e-06
0.00839885
4.21501e-06
0.00839697
9.26381e-06
0.0083945
2.30219e-05
0.00838056
6.67607e-05
0.00837257
0.000174252
0.00826355
0.000773086
0.00778283
0.00359826
0.00715217
0.00431748
0.00664266
0.00412238
0.0061348
0.00411035
0.00560401
0.00426318
0.00500869
0.00453553
0.00435737
0.00483255
0.00365152
0.00510901
0.00287611
0.00537035
0.00201411
0.00561491
0.00104527
0.00582774
0.00592038
0.00840002
3.53739e-09
0.00840002
2.21636e-08
0.00840001
6.69287e-08
0.00839998
1.78714e-07
0.00839992
4.02624e-07
0.00839977
9.61738e-07
0.00839949
2.02402e-06
0.00839873
4.92185e-06
0.00839726
1.07565e-05
0.00839317
2.68646e-05
0.00838424
7.60668e-05
0.00835434
0.000202795
0.00828418
0.000842244
0.00785044
0.00402491
0.00724329
0.00492038
0.00675571
0.00460877
0.00628322
0.00458254
0.00578983
0.0047569
0.00524431
0.00508101
0.00463555
0.00544137
0.0039593
0.00578519
0.00320499
0.00612433
0.00232644
0.00649307
0.00127315
0.00688057
0.007193
0.00840002
4.09777e-09
0.00840002
2.56417e-08
0.00840001
7.752e-08
0.00839998
2.0655e-07
0.00839991
4.66104e-07
0.00839976
1.10698e-06
0.00839947
2.33509e-06
0.00839868
5.65397e-06
0.00839749
1.20134e-05
0.00839267
3.14559e-05
0.00838875
8.06148e-05
0.00834646
0.000243353
0.00830418
0.000884719
0.00793868
0.00438304
0.00739823
0.00545653
0.00691552
0.00509007
0.00647365
0.00502378
0.00602334
0.00520685
0.00552464
0.00557929
0.00497863
0.00598733
0.00439283
0.00637103
0.00372062
0.00679633
0.00287143
0.00734224
0.00173593
0.00801559
0.0089284
0.00840002
4.73212e-09
0.00840002
2.95946e-08
0.00840001
8.95307e-08
0.00839997
2.38257e-07
0.0083999
5.37936e-07
0.00839973
1.27342e-06
0.00839941
2.68656e-06
0.00839853
6.49194e-06
0.00839722
1.34856e-05
0.00839213
3.63738e-05
0.00838698
8.69598e-05
0.00834636
0.000281292
0.00829994
0.000934159
0.00797251
0.00470321
0.00748974
0.005934
0.00708926
0.00548862
0.00671403
0.00539835
0.0062943
0.005626
0.00589539
0.00597754
0.00546613
0.00641642
0.00498886
0.00684822
0.00442801
0.00735701
0.00374455
0.00802537
0.002788
0.00897191
0.0117161
0.00840002
5.48927e-09
0.00840002
3.4331e-08
0.0084
1.03776e-07
0.00839996
2.76425e-07
0.00839988
6.24242e-07
0.00839967
1.48025e-06
0.00839927
3.12508e-06
0.0083982
7.53794e-06
0.00839608
1.58129e-05
0.00839066
4.16547e-05
0.0083776
0.000101496
0.00833917
0.000316548
0.00824516
0.00103199
0.00777566
0.00516765
0.00773937
0.00596254
0.00726567
0.00595993
0.00691483
0.00574863
0.00661031
0.00593008
0.00632582
0.00626139
0.00606149
0.00668005
0.00573525
0.00717422
0.00539109
0.00770125
0.0052036
0.00821272
0.00555493
0.00862023
0.00819064
0.00908016
0.00840002
6.28825e-09
0.00840002
3.93287e-08
0.0084
1.18784e-07
0.00839996
3.16787e-07
0.00839988
7.15531e-07
0.00839965
1.70144e-06
0.00839923
3.58962e-06
0.008398
8.74735e-06
0.00839633
1.78161e-05
0.00838948
4.83205e-05
0.00837776
0.000115428
0.00833438
0.000355166
0.00827072
0.0011013
0.00792772
0.0055021
0.00764269
0.00624162
0.00738992
0.00621042
0.00715765
0.00598078
0.00695882
0.00612875
0.0067644
0.00645551
0.00658549
0.00685848
0.00645895
0.00730028
0.00646016
0.00769988
0.00669113
0.00798187
0.00733212
0.00797926
0.00732727
0.00819545
0.00840002
7.00906e-09
0.00840002
4.38015e-08
0.00840001
1.31875e-07
0.00839997
3.52618e-07
0.00839989
7.9717e-07
0.00839969
1.90429e-06
0.00839927
4.03376e-06
0.00839824
9.75581e-06
0.00839545
2.06191e-05
0.00839211
5.14262e-05
0.00837539
0.00013333
0.00835605
0.000369888
0.00833212
0.0011314
0.00815444
0.00566933
0.0078325
0.00655851
0.00763022
0.00641078
0.00745151
0.00615977
0.00729906
0.00628093
0.00716393
0.00658993
0.00709174
0.00692992
0.00715256
0.00723901
0.00736766
0.00748488
0.00772082
0.00762863
0.00823365
0.00746631
0.00689523
0.00866558
0.00840002
7.09821e-09
0.00840002
4.427e-08
0.00840002
1.33628e-07
0.00840002
3.55847e-07
0.00840001
8.05021e-07
0.0084
1.90783e-06
0.00840001
4.03404e-06
0.00839985
9.87052e-06
0.00840152
1.89594e-05
0.00839509
5.75826e-05
0.00841638
0.000112464
0.00835667
0.000429275
0.0083947
0.00109622
0.00860195
0.00545148
0.00826153
0.00689739
0.00801217
0.00665996
0.00780223
0.00637048
0.00768409
0.0063992
0.00763018
0.00664366
0.00764146
0.006918
0.00774771
0.00713159
0.00799888
0.00723308
0.00836194
0.00726603
0.00878616
0.00704246
0.00659319
0.00908841
0.00840003
6.80588e-09
0.00840003
4.24742e-08
0.00840003
1.27853e-07
0.00840005
3.4144e-07
0.00840008
7.69879e-07
0.00840014
1.83896e-06
0.00840032
3.84182e-06
0.00840069
9.44149e-06
0.0084009
1.86855e-05
0.00840436
5.3762e-05
0.00841242
0.000104155
0.00845147
0.00038916
0.00857932
0.000969491
0.00968368
0.00433365
0.00911824
0.00746205
0.00856225
0.00721587
0.00826397
0.00667003
0.0081207
0.00654288
0.0080925
0.00667185
0.00815443
0.00685614
0.00828278
0.00700265
0.00850288
0.00701211
0.00880665
0.00696088
0.00914282
0.00670592
0.00630293
0.00943302
0.00840003
5.88426e-09
0.00840003
3.67729e-08
0.00840005
1.11389e-07
0.00840009
2.95827e-07
0.00840019
6.70174e-07
0.00840045
1.57222e-06
0.00840094
3.34226e-06
0.00840254
7.77758e-06
0.00840483
1.63589e-05
0.00841862
3.96729e-05
0.00843246
9.00933e-05
0.00856954
0.000251137
0.00888818
0.000649675
0.0107804
0.00243784
0.0101233
0.00811491
0.00943303
0.0079055
0.00891346
0.00719038
0.00863614
0.00682037
0.00854711
0.00676013
0.00858997
0.00681267
0.00872129
0.00687104
0.00891664
0.0068164
0.00917154
0.00670559
0.00942094
0.00645581
0.00606792
0.00965544
0.00840003
5.15081e-09
0.00840003
3.2197e-08
0.00840005
9.74716e-08
0.00840008
2.5895e-07
0.00840016
5.8617e-07
0.00840035
1.37562e-06
0.00840076
2.92031e-06
0.00840169
6.79249e-06
0.00840375
1.42471e-05
0.00840923
3.39038e-05
0.00842017
7.88549e-05
0.00847132
0.000198675
0.00854818
0.000574281
0.0090299
0.00195121
0.00986731
0.00726947
0.00988547
0.00788274
0.00937144
0.00770482
0.00909596
0.00709774
0.00898228
0.00687428
0.00898618
0.0068084
0.00908497
0.00677144
0.00924438
0.00665656
0.00946155
0.00648768
0.00967168
0.0062454
0.00589268
0.00984621
0.00840003
4.5501e-09
0.00840003
2.84264e-08
0.00840004
8.60127e-08
0.00840007
2.28648e-07
0.00840014
5.1755e-07
0.00840029
1.21717e-06
0.00840062
2.57895e-06
0.00840131
6.03206e-06
0.008403
1.25267e-05
0.00840549
3.1173e-05
0.00841913
6.47399e-05
0.00842793
0.000188627
0.00852264
0.000477801
0.00876608
0.00170626
0.00958301
0.00643917
0.00963035
0.00783251
0.00957271
0.00776174
0.00938158
0.00729037
0.00930015
0.0069565
0.00931287
0.00679566
0.00939079
0.00669205
0.00950442
0.00654134
0.00966704
0.00632388
0.0098465
0.00606519
0.00574283
0.00999597
0.00840003
3.98989e-09
0.00840003
2.48841e-08
0.00840004
7.50562e-08
0.00840007
1.99812e-07
0.00840014
4.51343e-07
0.00840028
1.0675e-06
0.00840061
2.24738e-06
0.00840125
5.34037e-06
0.00840289
1.08719e-05
0.00840531
2.8425e-05
0.00841514
5.4503e-05
0.00842957
0.000173544
0.00849718
0.000408781
0.00866976
0.00152799
0.0100553
0.00502916
0.0100184
0.00786839
0.00985363
0.00792711
0.00965502
0.00749089
0.0095945
0.00701714
0.00961307
0.00677639
0.00968876
0.00661557
0.00977993
0.00644942
0.00988429
0.00621794
0.0100047
0.00594363
0.00562352
0.0101232
0.00840003
3.19808e-09
0.00840003
1.9978e-08
0.00840005
6.05516e-08
0.00840009
1.60567e-07
0.00840018
3.63381e-07
0.0084004
8.49483e-07
0.00840085
1.7965e-06
0.00840202
4.15689e-06
0.00840441
8.57115e-06
0.00841164
2.09114e-05
0.0084265
4.18717e-05
0.00848629
0.000112804
0.00863405
0.000276501
0.00931233
0.000809626
0.0118722
0.00249678
0.0111154
0.00862197
0.0108247
0.00821479
0.0102701
0.00804309
0.0100468
0.007239
0.009966
0.00685642
0.00997733
0.00660361
0.010036
0.00639043
0.0101094
0.00614446
0.0101841
0.00586828
0.0055527
0.0102541
0.00840003
2.55007e-09
0.00840003
1.59294e-08
0.00840005
4.82889e-08
0.00840008
1.27999e-07
0.00840015
2.89787e-07
0.00840032
6.76174e-07
0.00840068
1.43354e-06
0.00840152
3.29148e-06
0.00840325
6.83804e-06
0.0084079
1.60965e-05
0.00841586
3.36284e-05
0.00844265
8.53896e-05
0.00852531
0.000192877
0.00870607
0.000624824
0.00946455
0.00173913
0.0111323
0.00694047
0.0110725
0.00827085
0.0109529
0.00816129
0.0105345
0.00765715
0.0103619
0.00702883
0.0103005
0.00666485
0.0102986
0.00639176
0.0103298
0.00611271
0.0103742
0.00582353
0.00551111
0.0104154
0.00840003
2.02721e-09
0.00840003
1.26471e-08
0.00840004
3.83096e-08
0.00840007
1.01487e-07
0.00840013
2.29618e-07
0.00840027
5.35596e-07
0.00840057
1.13278e-06
0.00840124
2.60484e-06
0.0084027
5.36738e-06
0.00840567
1.30034e-05
0.00841457
2.46991e-05
0.00842485
7.4295e-05
0.00848296
0.000134902
0.00858144
0.00052452
0.00904076
0.00127659
0.0109596
0.00500242
0.0111657
0.00806476
0.0111264
0.00820065
0.0109415
0.00784494
0.010715
0.0072553
0.0105998
0.00677903
0.0105553
0.00643606
0.0105402
0.00612788
0.0105479
0.00581607
0.00549868
0.0105604
0.00840003
1.56162e-09
0.00840003
9.75299e-09
0.00840004
2.95726e-08
0.00840006
7.8343e-08
0.00840012
1.77319e-07
0.00840024
4.13265e-07
0.00840049
8.75526e-07
0.00840108
2.00502e-06
0.00840228
4.15598e-06
0.0084055
9.7e-06
0.00841003
2.0086e-05
0.00843546
4.83992e-05
0.00845923
0.00011075
0.0086929
0.000289088
0.00917132
0.000794115
0.0115704
0.00259815
0.0117264
0.0078996
0.0116373
0.00828779
0.0113832
0.00809655
0.0111103
0.00752894
0.0109476
0.00694083
0.0108658
0.0065169
0.0108168
0.00617622
0.0107849
0.00584793
0.00552298
0.0107609
0.00840003
1.18008e-09
0.00840003
7.34144e-09
0.00840004
2.24135e-08
0.00840006
5.88523e-08
0.0084001
1.34127e-07
0.0084002
3.09254e-07
0.00840042
6.60201e-07
0.00840092
1.4909e-06
0.00840194
3.11677e-06
0.00840438
7.15684e-06
0.00840963
1.47793e-05
0.00842139
3.62456e-05
0.00845588
7.48734e-05
0.00853359
0.0002102
0.00878642
0.00053582
0.00949606
0.00188699
0.011497
0.00587412
0.0117249
0.00805579
0.0116785
0.00813934
0.0113889
0.00781776
0.0112528
0.00707834
0.0111369
0.00663457
0.0110647
0.00624879
0.0110126
0.00590086
0.00556593
0.0109699
0.00840003
7.2832e-10
0.00840003
5.89455e-09
0.00840004
1.49235e-08
0.00840005
4.64056e-08
0.0084001
8.92003e-08
0.00840016
2.45034e-07
0.00840038
4.31132e-07
0.00840066
1.19764e-06
0.0084018
1.96307e-06
0.00840305
5.85798e-06
0.00840901
8.73866e-06
0.00841447
3.04262e-05
0.00845112
3.8422e-05
0.00848658
0.000172157
0.00874739
0.000276424
0.00950742
0.00111458
0.0119618
0.00339465
0.0121931
0.00782115
0.012182
0.00815265
0.0119834
0.00801714
0.0116379
0.00742502
0.0114726
0.00680062
0.011365
0.00635845
0.011284
0.00598136
0.00562826
0.0112219
0.00840003
6.46423e-10
0.00840003
3.57742e-09
0.00840004
1.19858e-08
0.00840005
2.90936e-08
0.00840007
7.18927e-08
0.00840016
1.52157e-07
0.00840023
3.56434e-07
0.0084007
7.23924e-07
0.00840093
1.70819e-06
0.00840337
3.39077e-06
0.0084037
8.28895e-06
0.00841774
1.62558e-05
0.00841404
4.16156e-05
0.00849656
8.83667e-05
0.00853505
0.000235615
0.009019
0.000630519
0.0103767
0.00202992
0.0121724
0.00600905
0.0122783
0.00804619
0.0123017
0.00799507
0.0119875
0.00774109
0.0117744
0.0070178
0.0116397
0.00649401
0.0115416
0.00608136
0.00571257
0.0114569
0.00840003
4.5729e-10
0.00840003
2.55572e-09
0.00840003
8.36702e-09
0.00840004
2.07317e-08
0.00840006
5.00337e-08
0.00840011
1.08342e-07
0.00840021
2.464e-07
0.00840042
5.14692e-07
0.00840094
1.16624e-06
0.00840191
2.39996e-06
0.00840454
5.56509e-06
0.00840954
1.11745e-05
0.00842255
2.8184e-05
0.00845661
5.38333e-05
0.00853142
0.000158627
0.00880314
0.000356586
0.00959748
0.00123032
0.0122262
0.00335703
0.0126672
0.00759975
0.0126734
0.00799062
0.012491
0.00792539
0.0121624
0.00734843
0.011967
0.00669277
0.01183
0.00621856
0.0058254
0.0117166
0.00840003
3.16858e-10
0.00840003
1.77633e-09
0.00840003
5.78724e-09
0.00840004
1.44098e-08
0.00840005
3.45822e-08
0.00840009
7.52468e-08
0.00840016
1.69964e-07
0.00840032
3.57128e-07
0.00840067
8.0136e-07
0.0084014
1.66183e-06
0.00840313
3.77256e-06
0.00840648
7.77138e-06
0.00841617
1.81861e-05
0.00843234
3.74305e-05
0.00849386
9.60477e-05
0.00863998
0.000208274
0.00919369
0.000672327
0.0108208
0.00171932
0.0127108
0.00569312
0.0127691
0.00793379
0.0128747
0.00782198
0.0126398
0.00758576
0.0123393
0.00699514
0.0121393
0.00641808
0.00595043
0.0120109
0.00840003
2.3666e-10
0.00840003
1.11693e-09
0.00840003
4.16113e-09
0.00840004
9.20899e-09
0.00840005
2.48478e-08
0.00840007
4.80589e-08
0.00840012
1.23327e-07
0.00840025
2.26739e-07
0.00840046
5.92385e-07
0.00840107
1.04123e-06
0.00840195
2.86666e-06
0.00840502
4.66945e-06
0.00840851
1.45206e-05
0.00842619
1.96222e-05
0.00844269
7.8536e-05
0.00855916
9.13863e-05
0.00877251
0.000455312
0.00958197
0.00090565
0.0124048
0.00284653
0.013091
0.00724476
0.0129997
0.00790896
0.0129401
0.00764687
0.0126969
0.00723838
0.0124625
0.00665041
0.00610277
0.0123014
0.00840003
1.09003e-10
0.00840003
8.19468e-10
0.00840003
2.17626e-09
0.00840004
6.5e-09
0.00840005
1.29444e-08
0.00840006
3.36791e-08
0.00840012
6.1577e-08
0.00840019
1.5894e-07
0.00840051
2.74236e-07
0.00840081
7.40454e-07
0.00840249
1.18277e-06
0.00840352
3.57866e-06
0.00841325
4.80013e-06
0.00841358
1.90372e-05
0.00847212
2.00183e-05
0.00845247
0.00010997
0.00877856
0.000128673
0.00899802
0.000683092
0.0102236
0.00161186
0.0127925
0.00466284
0.0131592
0.00754057
0.0131965
0.00759508
0.0131202
0.00730757
0.01288
0.00687439
0.00627464
0.0126843
0.00840003
8.14617e-11
0.00840003
4.53061e-10
0.00840003
1.5108e-09
0.00840003
3.67722e-09
0.00840004
8.98722e-09
0.00840005
1.90102e-08
0.00840007
4.375e-08
0.00840014
8.88307e-08
0.00840021
2.04215e-07
0.00840054
4.06901e-07
0.00840077
9.51702e-07
0.00840246
1.88761e-06
0.00840275
4.47685e-06
0.00841284
8.94743e-06
0.0084108
2.1664e-05
0.00847729
4.42622e-05
0.00849132
0.000111667
0.00891157
0.000265792
0.00976391
0.00075667
0.0124167
0.00198133
0.0135097
0.0064383
0.0134183
0.00767715
0.0133625
0.00733047
0.0132411
0.0069663
0.00641305
0.0130594
0.00840003
4.81668e-11
0.00840003
2.72826e-10
0.00840003
8.90948e-10
0.00840003
2.21304e-09
0.00840004
5.24565e-09
0.00840004
1.12942e-08
0.00840006
2.49061e-08
0.0084001
5.15242e-08
0.00840019
1.11762e-07
0.00840037
2.27172e-07
0.00840083
4.96993e-07
0.00840173
9.77946e-07
0.00840386
2.30369e-06
0.00840876
4.04524e-06
0.00841824
1.19353e-05
0.00844475
1.77015e-05
0.00848561
6.96556e-05
0.00864189
0.000107639
0.00891442
0.000480822
0.00981919
0.00106149
0.012643
0.00358804
0.0134159
0.00688285
0.0135069
0.00719708
0.0135553
0.00685371
0.00622838
0.0136512
0.00840003
3.13602e-11
0.00840003
1.76185e-10
0.00840003
5.76058e-10
0.00840003
1.42731e-09
0.00840003
3.416e-09
0.00840004
7.36061e-09
0.00840005
1.65175e-08
0.00840006
3.42687e-08
0.0084001
7.62675e-08
0.00840017
1.5606e-07
0.00840031
3.50366e-07
0.00840058
7.10996e-07
0.00840123
1.62179e-06
0.00840198
3.27233e-06
0.00840612
7.64546e-06
0.00840818
1.54735e-05
0.00843894
3.80438e-05
0.00846364
8.13843e-05
0.00871928
0.000221613
0.00921911
0.000552666
0.0109662
0.00182887
0.013214
0.00459625
0.0136456
0.00663849
0.013879
0.00648521
0.00576864
0.0141572
0.00840003
2.0694e-11
0.00840003
1.15428e-10
0.00840003
3.77336e-10
0.00840003
9.35147e-10
0.00840003
2.25934e-09
0.00840003
4.89583e-09
0.00840004
1.11715e-08
0.00840005
2.34378e-08
0.00840007
5.31779e-08
0.00840012
1.11306e-07
0.00840021
2.50333e-07
0.00840038
5.39704e-07
0.0084008
1.16302e-06
0.00840143
2.61909e-06
0.0084035
5.33499e-06
0.00840657
1.22514e-05
0.00842026
2.29754e-05
0.00844585
5.49207e-05
0.00856286
9.75479e-05
0.00883785
0.0002739
0.00998616
0.000651154
0.012892
0.00163407
0.0140046
0.0053835
0.014523
0.00572615
0.00507468
0.0150379
0.00840003
1.17634e-11
0.00840003
6.04991e-11
0.00840003
2.11827e-10
0.00840003
4.95543e-10
0.00840003
1.24522e-09
0.00840003
2.53483e-09
0.00840004
5.96071e-09
0.00840005
1.15124e-08
0.00840008
2.73809e-08
0.00840014
4.92035e-08
0.00840026
1.29195e-07
0.00840059
1.97405e-07
0.0084011
6.31077e-07
0.00840298
7.01709e-07
0.00840488
3.14559e-06
0.00841557
1.46566e-06
0.00842037
1.63107e-05
0.00847591
-1.00057e-06
0.00847532
8.73808e-05
0.00874584
-2.53383e-06
0.00891407
0.000443642
0.00980832
0.000671628
0.0125997
0.00231978
0.0140753
0.00408603
0.00399039
0.0151272
0.00840003
4.41107e-12
0.00840003
3.11165e-11
0.00840003
8.74519e-11
0.00840003
2.47858e-10
0.00840003
5.1408e-10
0.00840003
1.24678e-09
0.00840004
2.36138e-09
0.00840004
5.63148e-09
0.00840006
9.84019e-09
0.00840009
2.55771e-08
0.00840018
3.71435e-08
0.00840026
1.19041e-07
0.00840074
1.35484e-07
0.00840042
6.33509e-07
0.00840334
5.08599e-07
0.00839915
4.82505e-06
0.00841555
-1.73893e-07
0.00838153
2.88219e-05
0.00848911
-2.04008e-05
0.00832964
0.000135743
0.00884184
-8.40014e-05
0.00907686
0.000373711
0.0105797
0.000597611
0.012198
0.00222396
0.00287706
0.0132937
0.00840003
1.52142e-12
0.00840003
8.9742e-12
0.00840003
2.97624e-11
0.00840003
7.34037e-11
0.00840003
1.69969e-10
0.00840003
3.5222e-10
0.00840003
7.39508e-10
0.00840004
1.43617e-09
0.00840004
2.9548e-09
0.00840006
5.50562e-09
0.00840008
1.19248e-08
0.00840018
2.0868e-08
0.00840023
5.0898e-08
0.00840071
8.67648e-08
0.00840089
2.60159e-07
0.00840332
4.14688e-07
0.00840096
1.89455e-06
0.00842483
3.10355e-06
0.0083884
1.00401e-05
0.00850396
1.61542e-05
0.00833924
5.70269e-05
0.00856935
0.000109055
0.00861012
0.00044205
0.0092423
0.00134491
0.00184452
0.0101354
0.00840003
2.7104e-14
0.00840003
-2.68736e-12
0.00840003
-1.75726e-12
0.00840003
-2.15227e-11
0.00840003
-2.67466e-11
0.00840003
-1.7048e-10
0.00840003
-2.85186e-10
0.00840003
-1.2468e-09
0.00840004
-2.18241e-09
0.00840005
-7.95623e-09
0.00840007
-1.24391e-08
0.00840013
-4.64934e-08
0.00840021
-5.61836e-08
0.00840046
-2.39163e-07
0.00840095
-2.19647e-07
0.00840097
-1.39232e-06
0.00839809
4.5042e-06
0.00841179
-1.1612e-05
0.00836921
4.81733e-05
0.0084684
-8.71129e-05
0.00824761
0.000258687
0.0084717
-0.000157077
0.00814749
0.000696336
0.00823031
0.00104249
0.00139846
0.00855137
0.00840003
-1.1817e-12
0.00840003
-7.7128e-12
0.00840003
-2.11813e-11
0.00840003
-6.59366e-11
0.00840003
-1.56533e-10
0.00840003
-4.64642e-10
0.00840003
-1.07932e-09
0.00840003
-2.95878e-09
0.00840004
-6.94702e-09
0.00840005
-1.59656e-08
0.00840008
-4.09054e-08
0.00840012
-7.2075e-08
0.00840029
-2.1585e-07
0.00840046
-2.90004e-07
0.00840081
-9.92625e-07
0.00840142
-7.02032e-07
0.00841779
-7.45307e-06
0.00838933
7.75804e-06
0.00849121
-5.03634e-05
0.00827793
0.000110871
0.00873686
-0.000214388
0.00807491
0.000467718
0.00879603
-0.000122469
0.0083965
0.00127393
0.00152687
0.00813497
0.00840003
7.31837e-13
0.00840003
4.69565e-12
0.00840003
1.28169e-11
0.00840003
4.01684e-11
0.00840003
9.55848e-11
0.00840003
2.89114e-10
0.00840003
6.80755e-10
0.00840003
1.83141e-09
0.00840001
4.53002e-09
0.00840004
8.69331e-09
0.00839996
2.73523e-08
0.00840003
2.28907e-08
0.00839991
1.34734e-07
0.00839973
2.34251e-09
0.00839983
5.13205e-07
0.00840156
-7.46551e-07
0.00839415
4.5089e-06
0.00841527
-9.49327e-06
0.008318
4.5323e-05
0.00853613
-8.71578e-05
0.00805394
0.000285307
0.00867343
-0.000224171
0.00778816
0.000740928
0.00751064
0.00135538
0.00151038
0.00740415
0.00840003
-1.24722e-14
0.00840003
4.33362e-12
0.00840003
4.00508e-12
0.00840003
3.43123e-11
0.00840003
2.10562e-11
0.00840003
1.8648e-10
0.00840003
9.00675e-12
0.00840003
8.60207e-10
0.00840004
-1.36408e-09
0.00840004
3.24608e-09
0.00840009
-2.24048e-08
0.00840012
2.2125e-09
0.0084005
-1.91855e-07
0.00840087
-1.51173e-07
0.00840267
-1.01701e-06
0.00840551
-9.20756e-07
0.00842089
-6.32127e-06
0.00840299
3.47844e-06
0.00849784
-3.5596e-05
0.00829854
0.000108637
0.00876062
-0.000182186
0.00801962
0.000496036
0.00865369
4.31874e-05
0.00779195
0.00200829
0.0019203
0.00736642
0.00840003
1.2553e-12
0.00840003
3.48137e-12
0.00840003
1.98874e-11
0.00840003
2.98528e-11
0.00840003
1.30204e-10
0.00840003
1.75666e-10
0.00840003
8.08451e-10
0.00840003
1.02496e-09
0.00840001
5.54103e-09
0.0084
6.18079e-09
0.00839993
4.19456e-08
0.0083999
4.41599e-08
0.00839971
2.81565e-07
0.00840051
3.57755e-07
0.00839821
1.46083e-06
0.00840232
1.82667e-06
0.00838536
7.5241e-06
0.00840688
4.75612e-06
0.00832637
4.98413e-05
0.00852359
-4.71857e-05
0.00798574
0.000283135
0.00853045
-0.000141578
0.00760058
0.000903023
0.00701421
0.00221624
0.00184927
0.00712881
0.00840003
3.03204e-14
0.00840003
3.03076e-12
0.00840003
2.4943e-12
0.00840003
2.31666e-11
0.00840003
1.86415e-11
0.00840003
1.43818e-10
0.00840003
1.19685e-10
0.00840003
9.06281e-10
0.00840003
6.88013e-10
0.00840003
6.28399e-09
0.00840007
2.54735e-09
0.00840007
4.4092e-08
0.00840035
9.16529e-09
0.00840065
2.65418e-07
0.00840209
4.81714e-08
0.00840459
1.30555e-06
0.00841583
-3.99037e-08
0.00840307
8.91064e-06
0.00849826
-2.54004e-05
0.0083224
9.53205e-05
0.00869927
-0.000148199
0.00804982
0.000421551
0.00842931
0.000365291
0.00710874
0.00316534
0.00229762
0.00686609
0.00840003
-7.53905e-13
0.00840003
-3.79448e-12
0.00840003
-1.2007e-11
0.00840003
-2.96875e-11
0.00840003
-7.87915e-11
0.00840003
-1.82558e-10
0.00840003
-4.76864e-10
0.00840003
-1.10429e-09
0.00840004
-2.76024e-09
0.00840005
-6.86299e-09
0.00840006
-1.45238e-08
0.00840015
-4.0457e-08
0.0084002
-7.69617e-08
0.00840076
-2.1518e-07
0.0084011
-4.20175e-07
0.00840349
-1.00103e-06
0.0084054
-2.58647e-06
0.00842134
-5.98472e-06
0.00837796
1.04269e-06
0.00848664
-1.23166e-05
0.00819467
8.69946e-05
0.00847977
0.000138938
0.00770283
0.000937718
0.00689713
0.00336304
0.00212507
0.00744905
0.00840003
-1.96573e-13
0.00840003
-1.07219e-12
0.00840003
-3.47067e-12
0.00840003
-8.73206e-12
0.00840003
-2.15793e-11
0.00840003
-4.94289e-11
0.00840003
-1.14917e-10
0.00840003
-2.60029e-10
0.00840003
-5.78554e-10
0.00840002
-1.29931e-09
0.00840001
-2.761e-09
0.00839997
-5.93659e-09
0.00839989
-1.18531e-08
0.00839968
-2.58496e-08
0.0083992
-3.61505e-08
0.00839824
-1.11996e-07
0.00839464
1.07118e-07
0.00839063
-4.33207e-07
0.00837431
3.74602e-06
0.00835857
6.38364e-06
0.00830653
4.73814e-05
0.00820216
0.000160256
0.00823404
0.000560624
0.00799119
0.00244623
0.00211646
0.00873088
0.00840003
4.85213e-13
0.00840003
2.67793e-12
0.00840003
8.80033e-12
0.00840003
2.19262e-11
0.00840003
5.46546e-11
0.00840003
1.22254e-10
0.00840003
2.92154e-10
0.00840003
6.40271e-10
0.00840003
1.51959e-09
0.00840002
3.30465e-09
0.00840001
7.80684e-09
0.00839999
1.68398e-08
0.00839992
3.9688e-08
0.0083998
8.39075e-08
0.00839943
2.00276e-07
0.00839883
4.15855e-07
0.00839691
1.00629e-06
0.00839382
2.20323e-06
0.008384
5.98924e-06
0.00837464
1.11091e-05
0.00834498
3.25099e-05
0.00835918
7.56994e-05
0.00851195
0.000240218
0.00916135
0.000876752
0.00199518
0.00957306
0.00840003
1.21059e-12
0.00840003
6.34401e-12
0.00840003
2.06219e-11
0.00840003
5.07624e-11
0.00840003
1.3062e-10
0.00840003
2.92312e-10
0.00840003
7.32157e-10
0.00840003
1.60443e-09
0.00840003
4.02726e-09
0.00840002
8.75044e-09
0.00840001
2.16515e-08
0.00839997
4.79836e-08
0.0083999
1.0863e-07
0.00839972
2.4524e-07
0.00839927
5.75881e-07
0.00839858
1.02577e-06
0.00839544
3.55773e-06
0.00838943
7.8476e-06
0.00837942
1.16736e-05
0.00835438
3.23417e-05
0.00834786
1.74909e-05
0.00829358
8.84396e-05
0.00836303
6.6719e-05
0.00858627
0.000360951
0.00117099
0.00914342
0.00840003
7.89015e-13
0.00840003
2.76506e-12
0.00840003
1.32746e-11
0.00840003
2.34966e-11
0.00840003
7.90387e-11
0.00840003
1.1874e-10
0.00840003
3.9448e-10
0.00840003
5.18371e-10
0.00840003
1.89562e-09
0.00840004
1.86104e-09
0.00840005
9.52502e-09
0.00840009
1.84187e-09
0.0084001
5.2523e-08
0.0084003
-1.99515e-08
0.00840084
2.15576e-07
0.00840248
5.37089e-08
0.00840439
3.42132e-07
0.00841644
-1.95357e-06
0.00840412
1.98773e-05
0.00846196
-2.67521e-05
0.00826178
0.000204307
0.00866021
-0.000345321
0.00819085
0.000466663
0.00869329
-0.000325361
0.000522077
0.00901746
0.00840003
1.83082e-13
0.00840003
2.71162e-12
0.00840003
4.30524e-12
0.00840003
2.01697e-11
0.00840003
2.29177e-11
0.00840003
1.03156e-10
0.00840003
8.04571e-11
0.00840003
4.77748e-10
0.00840003
1.28964e-10
0.00840003
2.3324e-09
0.00840004
-1.40814e-09
0.00840002
1.4806e-08
0.00840008
-1.80523e-08
0.00840004
7.76448e-08
0.00840045
-5.43805e-08
0.00839968
2.02241e-07
0.00839648
6.32595e-07
0.00839879
3.91558e-06
0.00844813
-1.39046e-05
0.00835827
3.8191e-05
0.0087653
-0.000177734
0.00798971
0.000414704
0.00874197
-0.000347652
0.00755591
0.000689232
0.000420461
0.00734849
0.00840003
0.00840003
0.00840003
0.00840003
0.00840003
0.00840003
0.00840003
0.00840003
0.00840003
0.00840003
0.00840003
0.00840004
0.00840002
0.00840014
0.00840005
0.00840008
0.00840233
0.00840026
0.00838562
0.00843154
0.00824276
0.00863224
0.00823801
0.00879352
0.00897131
0.00533856
0.00374136
0.00351577
0.00182239
0.00219176
0.00132344
0.00123336
0.000957233
-9.87656e-05
0.00132844
-0.000696643
0.000593974
-0.0012251
0.000524793
-0.00164675
0.000417657
-0.0019655
0.000314333
-0.00216807
0.000198183
-0.00233322
0.000161005
-0.0025027
0.000165764
-0.00266201
0.000155683
-0.00280163
0.000135681
-0.00292017
0.000114499
-0.00301883
9.43749e-05
-0.00309971
7.64723e-05
-0.00317005
6.5807e-05
-0.00322876
5.45511e-05
-0.00327199
3.91016e-05
-0.00331902
4.19405e-05
-0.00336545
4.07567e-05
-0.00339943
2.77987e-05
-0.00341605
8.75118e-06
-0.00341577
-1.06335e-05
-0.00339514
-3.33662e-05
-0.00335044
-5.86267e-05
-0.00328162
-8.42673e-05
-0.00319068
-0.000106017
-0.00308258
-0.000123511
-0.00295951
-0.000137304
-0.00282406
-0.000149407
-0.0026775
-0.000158873
-0.00252372
-0.0001652
-0.00236637
-0.000168412
-0.00220332
-0.000172426
-0.00203714
-0.000174867
-0.00186546
-0.00017964
-0.00169137
-0.000181169
-0.00151396
-0.000184694
-0.00132884
-0.000191744
-0.00113374
-0.000201542
-0.000937142
-0.00020265
-0.000738254
-0.000204611
-0.000538212
-0.000205658
-0.000333243
-0.000210402
-0.000120896
-0.000217621
0.0001031
-0.000229048
0.00031445
-0.000216295
0.000520751
-0.000211288
0.000722385
-0.000206696
0.000919176
-0.000201583
0.00111214
-0.000197465
0.00130044
-0.00019247
0.00148477
-0.000187838
0.00166406
-0.000182317
0.0018366
-0.000175591
0.00200385
-0.000169584
0.00216803
-0.000164763
0.00233097
-0.000161597
0.00248952
-0.000156085
0.00264327
-0.000150111
0.0027921
-0.000144137
0.00293613
-0.000137973
0.00307556
-0.00013219
0.00321025
-0.000126241
0.0033404
-0.000120785