/*--------------------------------*- C++ -*----------------------------------*\
  =========                 |
  \\      /  F ield         | OpenFOAM: The Open Source CFD Toolbox
   \\    /   O peration     | Website:  https://openfoam.org
    \\  /    A nd           | Version:  6
     \\/     M anipulation  |
\*---------------------------------------------------------------------------*/
FoamFile
{
    version     2.0;
    format      ascii;
    class       volScalarField;
    location    "6";
    object      T;
}
// * * * * * * * * * * * * * * * * * * * * * * * * * * * * * * * * * * * * * //

dimensions      [0 0 0 1 0 0 0];

internalField   nonuniform List<scalar> 
5250
(
1.00006
1.00014
1.00042
1.00083
1.00235
1.00454
1.01237
1.0262
1.06306
1.15998
1.37843
1.98426
2.80444
2.75335
2.80102
2.75111
2.73182
2.75061
2.76239
2.77694
2.78454
2.78947
2.7938
2.79654
2.79834
1.00006
1.00014
1.00042
1.00082
1.00234
1.00452
1.01232
1.02609
1.06283
1.15931
1.37706
1.97945
2.80341
2.75314
2.80027
2.74919
2.73087
2.74942
2.76147
2.77502
2.78241
2.7871
2.79094
2.79355
2.79523
1.00006
1.00014
1.00041
1.00081
1.00232
1.00449
1.01222
1.02586
1.06235
1.15782
1.37397
1.96717
2.80119
2.7535
2.79711
2.74533
2.72883
2.7471
2.75957
2.7728
2.77936
2.78409
2.78809
2.79049
2.79072
1.00006
1.00013
1.00041
1.0008
1.00229
1.00442
1.01207
1.02549
1.06159
1.15542
1.36895
1.94718
2.79721
2.75587
2.78853
2.74064
2.7252
2.74283
2.75507
2.76792
2.77494
2.77894
2.78075
2.78415
2.78564
1.00005
1.00013
1.0004
1.00079
1.00225
1.00434
1.01185
1.02498
1.06052
1.15207
1.3619
1.91939
2.79112
2.75914
2.77733
2.73514
2.72048
2.73688
2.74857
2.75829
2.76443
2.77153
2.77437
2.77318
2.77383
1.00005
1.00013
1.00039
1.00077
1.00219
1.00423
1.01157
1.02432
1.05917
1.14771
1.35286
1.88297
2.78181
2.76203
2.7619
2.72697
2.71518
2.73098
2.74213
2.75216
2.75359
2.75589
2.75978
2.76264
2.76183
1.00005
1.00012
1.00038
1.00075
1.00213
1.0041
1.01124
1.02351
1.05752
1.14268
1.34126
1.84589
2.76865
2.76561
2.75111
2.71143
2.70298
2.71926
2.72799
2.73973
2.74354
2.7443
2.74436
2.74127
2.74057
1.00005
1.00012
1.00037
1.00072
1.00205
1.00394
1.01086
1.02257
1.0555
1.13764
1.32581
1.82117
2.75157
2.76144
2.74323
2.70247
2.69304
2.70567
2.71555
2.72021
2.72195
2.72251
2.7208
2.71941
2.71171
1.00005
1.00011
1.00035
1.00068
1.00196
1.00375
1.01041
1.02147
1.05312
1.1317
1.30792
1.79093
2.72064
2.75544
2.72929
2.69189
2.68025
2.68961
2.69724
2.70546
2.70404
2.69802
2.68938
2.67469
2.66011
1.00005
1.00011
1.00033
1.00065
1.00185
1.00354
1.00987
1.02023
1.05033
1.1245
1.28865
1.75416
2.67331
2.74323
2.71108
2.69091
2.66976
2.67395
2.67246
2.67489
2.67418
2.66791
2.64837
2.61848
2.5515
1.00004
1.0001
1.00031
1.0006
1.00173
1.0033
1.00924
1.01882
1.04713
1.11596
1.26782
1.71161
2.60434
2.72662
2.67712
2.67906
2.66498
2.66436
2.66151
2.65359
2.63621
2.62465
2.59395
2.52537
2.39209
1.00004
1.00009
1.00028
1.00055
1.00159
1.00302
1.0085
1.01719
1.04333
1.1062
1.2431
1.65795
2.52409
2.69072
2.68124
2.6549
2.64382
2.64388
2.6416
2.63225
2.6098
2.57413
2.53828
2.46951
2.32662
1.00003
1.00008
1.00025
1.00049
1.00143
1.0027
1.00764
1.01527
1.03906
1.09436
1.21484
1.59123
2.41685
2.64028
2.67395
2.65302
2.63088
2.62189
2.61708
2.60632
2.58391
2.53924
2.47801
2.42503
2.31527
1.00003
1.00007
1.00022
1.00043
1.00124
1.00233
1.00663
1.01313
1.03359
1.08255
1.17883
1.52327
2.2872
2.57845
2.65898
2.64436
2.62231
2.60287
2.5903
2.57613
2.55696
2.52522
2.45534
2.4037
2.31286
1.00003
1.00006
1.00019
1.00036
1.00105
1.00197
1.00562
1.01097
1.02896
1.06648
1.1523
1.41617
2.09061
2.50315
2.64086
2.62731
2.61184
2.58541
2.5679
2.54528
2.51816
2.495
2.44152
2.39729
2.32208
1.00002
1.00005
1.00015
1.0003
1.00086
1.00162
1.00463
1.00888
1.02415
1.05151
1.12722
1.31084
1.87487
2.40446
2.60027
2.58437
2.57916
2.56525
2.54925
2.5327
2.49578
2.47169
2.42135
2.38301
2.33011
1.00002
1.00004
1.00013
1.00025
1.00071
1.00133
1.00381
1.00727
1.01983
1.04244
1.1028
1.25951
1.67966
2.36696
2.57921
2.56507
2.5488
2.52965
2.51858
2.50749
2.48141
2.4537
2.41189
2.36449
2.32372
1.00001
1.00003
1.0001
1.0002
1.00057
1.00107
1.00309
1.00585
1.01602
1.03457
1.08121
1.22032
1.51005
2.22545
2.52649
2.55284
2.52944
2.51617
2.49401
2.48367
2.46141
2.44022
2.40745
2.36336
2.32059
1.00001
1.00003
1.00008
1.00016
1.00045
1.00084
1.00244
1.00459
1.01264
1.02687
1.06407
1.17199
1.38633
2.02271
2.4228
2.5318
2.51764
2.50542
2.47991
2.4614
2.44168
2.41398
2.39134
2.35848
2.32141
1.00001
1.00002
1.00006
1.00012
1.00034
1.00064
1.00186
1.00344
1.00974
1.01952
1.04874
1.11971
1.27341
1.67646
2.29803
2.46919
2.47943
2.4767
2.46644
2.44595
2.42911
2.40261
2.37624
2.34618
2.31712
1.00001
1.00002
1.00005
1.00009
1.00026
1.00049
1.00141
1.00258
1.00751
1.01437
1.03799
1.08878
1.2018
1.54934
2.22387
2.42831
2.45382
2.44026
2.43399
2.4193
2.40507
2.38579
2.36381
2.33528
2.30729
1
1.00001
1.00003
1.00007
1.00019
1.00036
1.00105
1.00191
1.00557
1.01066
1.02775
1.06628
1.1473
1.41707
2.03075
2.34603
2.43521
2.42874
2.41429
2.39451
2.38172
2.36419
2.3491
2.32708
2.30189
1
1.00001
1.00003
1.00005
1.00014
1.00026
1.00076
1.00138
1.00406
1.00751
1.02102
1.04333
1.10901
1.25842
1.72514
2.1872
2.389
2.3999
2.39107
2.37536
2.35555
2.34018
2.32288
2.30774
2.28702
1
1.00001
1.00002
1.00004
1.0001
1.00019
1.00054
1.00098
1.00288
1.00526
1.01484
1.03052
1.07487
1.18943
1.45584
2.02986
2.33028
2.37953
2.3751
2.36269
2.3442
2.32636
2.30947
2.29313
2.27547
1
1
1.00001
1.00002
1.00007
1.00013
1.00037
1.00068
1.00199
1.00361
1.01032
1.02057
1.05202
1.12837
1.29767
1.72072
2.18223
2.33923
2.34436
2.33706
2.32278
2.30721
2.29021
2.27544
2.25898
1
1
1.00001
1.00002
1.00004
1.00011
1.0002
1.00058
1.00106
1.00307
1.00574
1.01595
1.03277
1.0849
1.19113
1.54886
2.00149
2.27162
2.31858
2.31833
2.30952
2.29373
2.27886
2.26399
2.24882
1
1
1
1.00001
1.00003
1.00007
1.00013
1.00039
1.00069
1.00208
1.00369
1.01068
1.02096
1.05375
1.13176
1.30187
1.74577
2.12624
2.2696
2.28507
2.28157
2.27402
2.26029
2.24784
2.23599
1
1
1
1.00001
1.00002
1.00005
1.00009
1.00025
1.00045
1.00135
1.00235
1.0071
1.01291
1.03552
1.07893
1.18414
1.47561
2.00785
2.2007
2.25196
2.25779
2.25362
2.24441
2.23322
2.22229
1
1
1
1.00001
1.00001
1.00003
1.00005
1.00016
1.00028
1.00084
1.00146
1.00441
1.00799
1.02217
1.04786
1.11579
1.29414
1.77297
2.06301
2.20744
2.22336
2.23311
2.22959
2.2219
2.21983
1
1
1
1
1.00001
1.00001
1.00004
1.00007
1.0002
1.00037
1.00103
1.002
1.00503
1.01167
1.02702
1.07424
1.15995
1.44759
1.95652
2.14574
2.19426
2.2022
2.20694
2.20852
2.21192
1
1
1
1
1
1.00001
1.00002
1.00006
1.0001
1.0003
1.00052
1.00156
1.00278
1.008
1.01582
1.04139
1.09677
1.23202
1.54177
2.01595
2.16855
2.18927
2.19793
2.20844
2.22462
1
1
1
1
1
1.00001
1.00001
1.00003
1.00006
1.00017
1.0003
1.00085
1.00157
1.00409
1.00919
1.02143
1.06004
1.12906
1.38041
1.84331
2.10409
2.19154
2.21861
2.2367
2.27057
1
1
1
1
1
1
1.00001
1.00002
1.00004
1.00011
1.00019
1.0006
1.00099
1.00322
1.00534
1.01663
1.03118
1.0851
1.18557
1.54153
1.90402
2.1577
2.24278
2.31322
2.36724
1
1
1
1
1
1
1
1.00001
1.00002
1.00006
1.00011
1.00034
1.00057
1.00185
1.00303
1.00966
1.01727
1.05004
1.10449
1.28424
1.56716
2.08387
2.28948
2.427
2.47391
1
1
1
1
1
1
1
1.00001
1.00001
1.00003
1.00005
1.00011
1.00027
1.00053
1.0016
1.00304
1.01085
1.0237
1.07765
1.17599
1.50157
2.1242
2.41052
2.57421
2.55911
1
1
1
1
1
1
1
1
1.00001
1.00001
1.00002
1.00006
1.00008
1.00041
1.00065
1.00297
1.0069
1.02242
1.05632
1.15444
1.39769
1.83458
2.59786
2.75363
2.69091
1
1
1
1
1
1
1
1
1
1.00001
1.00001
1.00003
1.00007
1.00013
1.00079
1.00047
1.00623
1.01327
1.0554
1.13228
1.39118
2.08123
2.49074
2.78573
2.74653
1
1
1
1
1
1
1
1
1
1.00001
1.00001
1.00003
1.00006
1.0001
1.00068
1.00037
1.00568
1.01225
1.05258
1.12811
1.37178
2.07822
2.48449
2.77208
2.7577
1
1
1
1
1
1
1
1
1
1.00001
1.00002
1.00003
1.00007
1.0002
1.0003
1.00195
1.00071
1.01515
1.03271
1.13068
1.30456
1.82383
2.652
2.81995
2.81338
1
1
1
1
1
1
1
1
1.00001
1.00001
1.00003
1.00006
1.00015
1.00028
1.00095
1.00097
1.00617
1.01004
1.0491
1.11511
1.34023
2.01526
2.45484
2.77147
2.79489
1
1
1
1
1
1
1
1
1
1.00001
1.00002
1.00005
1.0001
1.00026
1.00047
1.00182
1.00121
1.01416
1.02702
1.11819
1.27046
1.79211
2.61273
2.81938
2.82044
1
1
1
1
1
1
1
1
1
1.00001
1.00003
1.00007
1.0002
1.00035
1.00124
1.00178
1.00695
1.01152
1.03971
1.09671
1.29931
1.96531
2.38207
2.80022
2.82431
1
1
1
1
1
1
1
1
1
1.00001
1.00002
1.00004
1.00008
1.00023
1.00037
1.00143
1.00136
1.01206
1.01467
1.09933
1.22547
1.74489
2.54791
2.84149
2.82804
1
1
1
1
1
1
1
1
1
1.00001
1.00001
1.00003
1.00007
1.00015
1.00042
1.00075
1.00355
1.0034
1.03307
1.07993
1.26396
1.69698
2.26686
2.85768
2.84921
1
1
1
1
1
1
1
1
1
1.00001
1.00002
1.00006
1.00009
1.00033
1.00056
1.00181
1.00365
1.01037
1.02738
1.07159
1.20129
1.55495
2.07772
2.87946
2.8562
1
1
1
1
1
1
1
1
1
1.00001
1.00002
1.00006
1.00009
1.00033
1.00054
1.00182
1.00331
1.01024
1.02257
1.06387
1.1633
1.44491
1.92675
2.83034
2.83685
1
1
1
1
1
1
1
1
1
1.00001
1.00002
1.00005
1.00009
1.0003
1.00049
1.00167
1.00302
1.00949
1.02058
1.05916
1.15068
1.39841
1.88454
2.79045
2.8302
1
1
1
1
1
1
1
1
1
1
1.00001
1.00002
1.00006
1.00012
1.0004
1.00047
1.00297
1.00127
1.01876
1.04627
1.15919
1.39052
1.8998
2.76254
2.81665
1
1
1
1
1
1
1
1
1
1
1.00001
1.00002
1.00005
1.00014
1.00026
1.001
1.00128
1.00797
1.00313
1.05172
1.11603
1.44977
2.13822
2.62834
2.76447
1
1
1
1
1
1
1
1
1
1
1.00001
1.00002
1.00005
1.0001
1.00042
1.00033
1.003
1.00044
1.01804
1.04365
1.15632
1.38049
1.8857
2.73154
2.79485
2.28187
2.23518
2.38611
2.76535
2.85251
2.92461
2.94306
2.92899
2.90563
2.89407
2.87653
2.86507
2.84644
2.83337
2.81553
2.80524
2.79099
2.78343
2.77005
2.76185
2.75178
2.74765
2.74614
2.74722
2.75856
2.76714
2.78868
2.80568
2.82982
2.84841
2.8695
2.88651
2.90284
2.91702
2.92933
2.9387
2.94979
2.95586
2.96398
2.96878
2.97212
2.97479
2.97548
2.9757
2.9742
2.97305
2.9705
2.96833
2.96266
2.95853
2.95298
2.94904
2.94244
2.93757
2.93075
2.92433
2.91782
2.91115
2.90411
2.89684
2.88867
2.8806
2.87181
2.86374
2.85459
2.84651
2.83698
2.82867
2.81898
2.81031
2.8003
2.79109
2.78098
2.77122
2.76133
2.75057
2.74057
2.72928
2.71833
2.70666
2.69559
2.68294
2.67154
2.65913
2.64656
2.63434
2.62149
2.60872
2.59631
2.58249
2.57105
2.55685
2.54564
2.53204
2.52076
2.50904
2.49762
2.4887
2.48041
2.47538
2.23232
2.18712
2.34933
2.51032
2.74793
2.85421
2.91921
2.97336
3.02361
3.01527
2.98319
2.9927
3.00128
3.01011
3.01335
3.01671
3.01864
3.01876
3.0156
3.01381
3.00907
3.00719
3.00836
3.01787
3.02247
3.03661
3.04694
3.06352
3.07292
3.08647
3.09266
3.09762
3.09975
3.10026
3.09655
3.09009
3.08462
3.08038
3.07255
3.06598
3.05706
3.04993
3.03829
3.02953
3.01796
3.00853
2.99606
2.98624
2.97453
2.96255
2.94827
2.93431
2.91907
2.90405
2.88782
2.87253
2.85632
2.84136
2.82531
2.80991
2.7938
2.77801
2.76313
2.74773
2.73326
2.7186
2.70426
2.6909
2.67706
2.6641
2.65118
2.63814
2.62586
2.61363
2.60172
2.59047
2.57935
2.5682
2.55765
2.5467
2.53588
2.52546
2.5143
2.50438
2.49311
2.48317
2.47247
2.46158
2.45162
2.43969
2.43009
2.41732
2.4075
2.39475
2.38429
2.37284
2.36248
2.35324
2.34585
2.34059
2.25933
2.2112
2.25011
2.35376
2.44236
2.52839
2.60872
2.69364
2.77519
2.87401
2.91617
2.95111
2.98571
3.00912
3.03346
3.06946
3.0446
3.04568
3.07894
3.09522
3.10332
3.10998
3.11985
3.13069
3.13965
3.14458
3.1452
3.14409
3.14141
3.1351
3.12673
3.11701
3.10562
3.09697
3.08249
3.07143
3.05772
3.04519
3.03081
3.01781
3.00315
2.98967
2.97491
2.96205
2.94631
2.93356
2.91795
2.9055
2.89076
2.87801
2.86356
2.85095
2.8376
2.82499
2.81111
2.79785
2.7843
2.77099
2.75727
2.7432
2.72828
2.71418
2.69867
2.68394
2.668
2.65269
2.63752
2.62181
2.60671
2.59098
2.57542
2.55956
2.54394
2.52776
2.5129
2.49691
2.48292
2.46755
2.45427
2.43963
2.4269
2.41327
2.40128
2.38843
2.37799
2.36561
2.35713
2.34518
2.33823
2.32671
2.32053
2.30995
2.3043
2.2951
2.28923
2.28235
2.27587
2.27178
2.2668
2.2669
2.25643
2.22147
2.204
2.24366
2.29451
2.341
2.38578
2.43472
2.4918
2.55854
2.6337
2.71053
2.76857
2.83678
2.88303
2.94611
2.975
2.98951
3.0147
3.04075
3.06173
3.07873
3.08001
3.07752
3.07175
3.0667
3.05762
3.04103
3.02097
3.00105
2.98089
2.96219
2.94371
2.92659
2.90756
2.89065
2.87006
2.85203
2.83097
2.81271
2.79219
2.77455
2.75524
2.73811
2.71956
2.70401
2.68707
2.67246
2.6576
2.64482
2.631
2.61919
2.60672
2.59604
2.58374
2.57343
2.56183
2.55292
2.54329
2.53537
2.52652
2.51842
2.51058
2.50236
2.49494
2.48675
2.47946
2.47117
2.46365
2.45514
2.44818
2.43988
2.43333
2.42447
2.41734
2.40739
2.39924
2.38867
2.37936
2.36837
2.35764
2.34564
2.33345
2.32023
2.3074
2.29355
2.2807
2.2667
2.25399
2.24072
2.22811
2.21589
2.20369
2.19273
2.18231
2.17315
2.16578
2.16036
2.15682
2.15981
2.25948
2.21731
2.19384
2.18904
2.20964
2.23386
2.25701
2.28552
2.31605
2.35589
2.39522
2.44421
2.4916
2.5454
2.60035
2.65466
2.72105
2.77891
2.82515
2.86795
2.89647
2.92567
2.94212
2.94299
2.93262
2.91162
2.88073
2.84918
2.81697
2.78804
2.76422
2.7428
2.72261
2.70289
2.68434
2.66544
2.64717
2.62949
2.61261
2.59666
2.58136
2.56753
2.5542
2.54225
2.53106
2.52142
2.51133
2.50321
2.49452
2.48699
2.47893
2.47257
2.46524
2.45865
2.45137
2.4452
2.43888
2.43341
2.42811
2.42261
2.41667
2.41025
2.40372
2.39693
2.38997
2.38262
2.37516
2.36736
2.35964
2.35155
2.34355
2.33525
2.32707
2.3186
2.3102
2.30162
2.29254
2.28408
2.27427
2.26635
2.25681
2.24976
2.24134
2.23467
2.22633
2.21904
2.20989
2.20227
2.19262
2.18519
2.17542
2.16816
2.15782
2.15026
2.13907
2.13097
2.12014
2.1122
2.10449
2.09912
2.26966
2.22436
2.1905
2.17366
2.16763
2.17429
2.18218
2.1955
2.21072
2.2316
2.25435
2.28
2.31003
2.34181
2.37711
2.41847
2.45689
2.50594
2.54663
2.59224
2.6273
2.65964
2.67621
2.67481
2.66217
2.6378
2.60296
2.57124
2.53721
2.51259
2.49027
2.47624
2.46357
2.45403
2.44512
2.43687
2.42948
2.42261
2.41697
2.41246
2.40891
2.40627
2.40399
2.40222
2.40026
2.39849
2.39685
2.39552
2.39399
2.39313
2.39166
2.39054
2.38858
2.38669
2.38413
2.3815
2.37833
2.37525
2.37234
2.36865
2.36473
2.35989
2.35482
2.34912
2.34329
2.33706
2.33086
2.32395
2.3175
2.3101
2.30344
2.29577
2.28832
2.28025
2.27182
2.26348
2.25436
2.24549
2.23562
2.22607
2.21523
2.20495
2.19301
2.18206
2.16992
2.15879
2.14733
2.13604
2.12483
2.11333
2.10197
2.09142
2.08067
2.07233
2.06305
2.05688
2.04972
2.04565
2.04151
2.04297
2.27601
2.23083
2.19524
2.1703
2.15249
2.14625
2.14174
2.14296
2.14791
2.15418
2.16695
2.17877
2.19624
2.21511
2.23741
2.26433
2.29315
2.32835
2.36161
2.39938
2.43008
2.4562
2.4729
2.46864
2.45361
2.42757
2.39982
2.36845
2.34338
2.32262
2.30797
2.30114
2.29768
2.30097
2.30495
2.30969
2.31376
2.31697
2.32082
2.32348
2.32619
2.32882
2.33132
2.33348
2.33494
2.33625
2.337
2.33732
2.33711
2.33652
2.33519
2.33346
2.33119
2.3284
2.32502
2.32138
2.31699
2.31256
2.30814
2.30363
2.29871
2.2934
2.28777
2.28193
2.27584
2.26967
2.26355
2.25763
2.25174
2.24574
2.23983
2.23365
2.22733
2.22079
2.2135
2.20672
2.19855
2.19178
2.18308
2.17601
2.16679
2.15924
2.14967
2.14154
2.13148
2.12294
2.11272
2.10429
2.0941
2.08571
2.07473
2.066
2.05359
2.04456
2.0315
2.02274
2.01108
2.0032
1.99525
1.99025
2.27677
2.23707
2.19807
2.1722
2.14854
2.13284
2.12283
2.1147
2.11216
2.10994
2.11257
2.11851
2.12475
2.13813
2.14957
2.17384
2.19472
2.22475
2.2546
2.28518
2.32226
2.34285
2.35282
2.3462
2.3319
2.30779
2.27835
2.2499
2.22869
2.21345
2.20341
2.19726
2.19797
2.20205
2.21025
2.22022
2.22875
2.23687
2.24243
2.24731
2.25058
2.25377
2.2559
2.25808
2.25916
2.26073
2.26106
2.26178
2.26159
2.26118
2.26025
2.25925
2.25747
2.2556
2.25327
2.2505
2.2474
2.24426
2.24141
2.23819
2.23512
2.23151
2.22771
2.22326
2.21867
2.21362
2.20836
2.20247
2.19643
2.18998
2.18335
2.17638
2.16916
2.16212
2.15439
2.14755
2.13907
2.13236
2.12315
2.11647
2.10703
2.09985
2.09031
2.08239
2.07292
2.06451
2.05509
2.0463
2.03707
2.02819
2.01987
2.01121
2.00409
1.99598
1.99
1.98288
1.97778
1.9722
1.96813
1.96599
2.27864
2.24224
2.20423
2.17308
2.14986
2.12778
2.11269
2.09956
2.09136
2.08448
2.08166
2.08074
2.08365
2.09184
2.10309
2.12168
2.14545
2.16925
2.20387
2.23842
2.27281
2.28782
2.28821
2.28
2.26169
2.23739
2.20596
2.17969
2.15708
2.14194
2.13197
2.12536
2.12278
2.12333
2.12812
2.13475
2.14321
2.15289
2.1616
2.16927
2.17516
2.1807
2.18456
2.18845
2.19138
2.19446
2.19663
2.19893
2.20028
2.20184
2.20221
2.20301
2.2029
2.20281
2.20252
2.20185
2.2009
2.19921
2.19771
2.19575
2.1938
2.19114
2.18812
2.18451
2.18067
2.17624
2.17173
2.16664
2.16161
2.15621
2.15079
2.14543
2.13939
2.13395
2.12698
2.12114
2.11333
2.10689
2.09871
2.09167
2.08337
2.07582
2.06738
2.05921
2.05069
2.04178
2.03336
2.02392
2.01535
2.00597
1.99676
1.98814
1.97818
1.97046
1.96028
1.95336
1.94407
1.93853
1.93178
1.92974
2.28232
2.24651
2.21402
2.1805
2.15298
2.12989
2.11074
2.09357
2.08098
2.07095
2.064
2.06174
2.06219
2.06991
2.08467
2.10241
2.12625
2.15725
2.19575
2.23397
2.25502
2.26149
2.25667
2.24262
2.22177
2.19238
2.16313
2.13695
2.11462
2.09849
2.08644
2.07927
2.07365
2.07021
2.07095
2.07485
2.08068
2.08849
2.09903
2.10976
2.12035
2.12923
2.13687
2.14337
2.1487
2.15354
2.15761
2.16148
2.16467
2.16786
2.17024
2.17303
2.17426
2.17616
2.17666
2.1766
2.17616
2.17528
2.17381
2.17249
2.17065
2.16843
2.16576
2.16246
2.15903
2.15498
2.15083
2.14604
2.14107
2.13578
2.13003
2.12452
2.11799
2.11229
2.1051
2.09922
2.09174
2.08581
2.07799
2.07168
2.06338
2.0564
2.04778
2.04004
2.03134
2.02307
2.01436
2.00597
1.99712
1.98886
1.97986
1.9717
1.963
1.95487
1.94693
1.9388
1.93171
1.92404
1.91861
1.91349
2.27716
2.2462
2.21656
2.18647
2.15976
2.13451
2.11414
2.09597
2.08059
2.06865
2.05978
2.05617
2.05888
2.06962
2.0848
2.10502
2.13529
2.17548
2.213
2.23646
2.24464
2.24216
2.23123
2.21434
2.18715
2.15946
2.13288
2.10988
2.08962
2.07284
2.05933
2.04866
2.04168
2.03651
2.03372
2.03339
2.03661
2.0403
2.04716
2.05589
2.06753
2.07854
2.08903
2.09779
2.10553
2.11181
2.1171
2.12172
2.12551
2.12912
2.13196
2.13446
2.13653
2.13765
2.13899
2.13908
2.13891
2.1384
2.13744
2.13633
2.13515
2.13344
2.13153
2.1288
2.12591
2.12246
2.11865
2.11457
2.10975
2.10512
2.09947
2.09441
2.08815
2.08266
2.07582
2.06994
2.06253
2.05632
2.04853
2.04215
2.03424
2.0275
2.0196
2.01216
2.00441
1.99609
1.98837
1.97935
1.97144
1.96232
1.95415
1.94538
1.93698
1.9288
1.92048
1.9134
1.90576
1.90065
1.89492
1.89347
2.27524
2.24533
2.21828
2.19065
2.16523
2.14127
2.11996
2.10219
2.08713
2.07664
2.07062
2.07125
2.08037
2.0927
2.11158
2.14069
2.17881
2.21277
2.23413
2.24121
2.23928
2.23044
2.21479
2.19151
2.16652
2.14275
2.12045
2.10032
2.08197
2.06541
2.05116
2.03811
2.02822
2.02007
2.01507
2.01202
2.01079
2.01183
2.01533
2.02001
2.02749
2.0373
2.04909
2.06
2.0709
2.07941
2.08774
2.09349
2.09944
2.1033
2.10761
2.11045
2.11367
2.11578
2.11774
2.1193
2.1202
2.12022
2.11997
2.11935
2.11855
2.11744
2.11578
2.11363
2.11111
2.10799
2.10456
2.10066
2.09624
2.09177
2.08642
2.08156
2.07541
2.07019
2.06341
2.05785
2.05053
2.04449
2.03662
2.02996
2.02174
2.01448
2.00624
1.99845
1.99036
1.98225
1.97423
1.96598
1.95778
1.94947
1.9412
1.93291
1.925
1.91689
1.90959
1.90194
1.89538
1.88889
1.88394
1.88037
2.2672
2.24274
2.21765
2.19313
2.16943
2.14819
2.12832
2.11278
2.10026
2.09474
2.09541
2.10301
2.1152
2.13436
2.16483
2.19961
2.22809
2.24455
2.24875
2.24629
2.23753
2.2221
2.20145
2.18024
2.15952
2.13955
2.12067
2.1026
2.08555
2.0694
2.05438
2.04044
2.02818
2.01707
2.00834
2.00117
1.99714
1.99505
1.99466
1.99572
1.99851
2.00395
2.01146
2.02235
2.03304
2.04418
2.05321
2.06194
2.06817
2.07423
2.07821
2.08235
2.0851
2.08769
2.08983
2.09084
2.09252
2.09244
2.09215
2.09158
2.09044
2.08944
2.08794
2.08612
2.08362
2.08073
2.07728
2.07375
2.06946
2.06538
2.06021
2.05575
2.04974
2.04488
2.03826
2.033
2.02598
2.02039
2.01325
2.00735
2.00014
1.99364
1.9863
1.97893
1.97146
1.96344
1.95589
1.94761
1.93987
1.93151
1.92361
1.9153
1.90748
1.89948
1.89213
1.88503
1.87852
1.87322
1.86846
1.86622
2.25633
2.23689
2.21558
2.19427
2.17389
2.15554
2.13998
2.12867
2.12399
2.12535
2.1333
2.14704
2.16818
2.1981
2.22957
2.25098
2.26143
2.26173
2.25774
2.248
2.23169
2.21323
2.19506
2.17799
2.16125
2.1445
2.12779
2.11099
2.09459
2.0784
2.06289
2.04801
2.03417
2.02124
2.01016
2.00015
1.99261
1.98624
1.98315
1.98133
1.98127
1.98209
1.98494
1.99063
1.99853
2.009
2.01911
2.02945
2.03801
2.04561
2.05139
2.05623
2.05974
2.06302
2.06497
2.06757
2.06845
2.07006
2.07006
2.06988
2.06931
2.06853
2.06762
2.06628
2.06434
2.06207
2.05892
2.05602
2.05191
2.04835
2.04327
2.03916
2.03336
2.02887
2.02252
2.01757
2.01066
2.00507
1.99778
1.99149
1.98411
1.9772
1.96992
1.96248
1.95525
1.9473
1.94005
1.93182
1.9244
1.91618
1.90855
1.90054
1.89297
1.88548
1.87839
1.87178
1.86573
1.86054
1.85636
1.85366
2.24215
2.22494
2.20867
2.19268
2.17815
2.16553
2.15755
2.15571
2.16027
2.16987
2.18545
2.2094
2.23727
2.26132
2.2765
2.28146
2.27933
2.27247
2.26099
2.24452
2.22822
2.21164
2.19698
2.18225
2.1684
2.15341
2.13862
2.1226
2.10704
2.0907
2.07525
2.05959
2.04505
2.03074
2.01796
2.00548
1.99541
1.98558
1.97859
1.97225
1.96946
1.9674
1.9667
1.96702
1.97
1.97518
1.98359
1.99285
2.00286
2.01156
2.01979
2.02595
2.03148
2.03528
2.03869
2.04095
2.04291
2.0444
2.04531
2.04536
2.04514
2.04466
2.04369
2.04268
2.04074
2.0387
2.03563
2.0329
2.02887
2.02563
2.02072
2.01699
2.01146
2.0073
2.00138
1.99671
1.99051
1.98527
1.97878
1.97296
1.96625
1.95983
1.95312
1.94597
1.93923
1.93149
1.9245
1.9166
1.90927
1.90149
1.89394
1.88643
1.87903
1.87189
1.86523
1.85889
1.85351
1.8487
1.84544
1.84321
2.23326
2.21693
2.20324
2.19134
2.18329
2.18124
2.18316
2.19191
2.20554
2.22462
2.25249
2.28047
2.29786
2.30542
2.3049
2.30096
2.29192
2.27664
2.26134
2.24592
2.23243
2.2189
2.2066
2.19324
2.18057
2.16613
2.15231
2.13651
2.12159
2.10505
2.0897
2.07311
2.05791
2.04205
2.02781
2.01351
2.00103
1.98863
1.97865
1.96881
1.96164
1.95517
1.9522
1.94967
1.94897
1.94907
1.95249
1.95862
1.96721
1.9766
1.98605
1.9946
2.00211
2.00804
2.01287
2.0159
2.01887
2.01976
2.02165
2.02167
2.02156
2.02122
2.02042
2.01982
2.01845
2.01717
2.01449
2.01237
2.00858
2.00571
2.00106
1.99742
1.99224
1.98806
1.98265
1.97802
1.97232
1.96722
1.96119
1.95554
1.94928
1.94301
1.93656
1.92982
1.92319
1.91602
1.90929
1.90185
1.89491
1.88748
1.88036
1.87305
1.86631
1.85941
1.85355
1.84772
1.84325
1.839
1.83682
1.8349
2.22494
2.21473
2.2053
2.19956
2.19956
2.20663
2.21809
2.23644
2.26216
2.28915
2.30998
2.32374
2.32728
2.3243
2.31687
2.30299
2.28757
2.2733
2.25995
2.24791
2.23651
2.22537
2.21415
2.20211
2.18973
2.17593
2.16202
2.14664
2.13166
2.11542
2.09995
2.08333
2.06785
2.05144
2.03646
2.02086
2.00676
1.99254
1.98012
1.96802
1.95811
1.94903
1.94292
1.93714
1.93495
1.93177
1.93144
1.9317
1.93542
1.94252
1.95075
1.96019
1.96901
1.97691
1.98331
1.98831
1.99145
1.99421
1.99513
1.99651
1.99634
1.99601
1.99524
1.99458
1.99334
1.99212
1.98952
1.98768
1.9841
1.98153
1.97707
1.9739
1.96888
1.9654
1.96013
1.95628
1.95076
1.94641
1.94067
1.93585
1.92997
1.92449
1.91867
1.91222
1.90654
1.89939
1.89343
1.88636
1.87988
1.87318
1.86643
1.86009
1.85354
1.84772
1.84232
1.83745
1.8338
1.83064
1.82969
1.82837
2.21576
2.21221
2.21306
2.22074
2.22997
2.24846
2.27114
2.29982
2.3266
2.34355
2.34897
2.34782
2.34224
2.3323
2.31653
2.30096
2.28642
2.27367
2.26268
2.25235
2.24231
2.23194
2.22104
2.20961
2.19711
2.18422
2.16989
2.15569
2.13988
2.12479
2.10794
2.09242
2.0753
2.05981
2.04321
2.02813
2.01246
1.99826
1.98399
1.97114
1.95882
1.94797
1.93769
1.9297
1.92296
1.91785
1.9146
1.91126
1.91063
1.91104
1.9152
1.92206
1.9304
1.93895
1.9472
1.954
1.95958
1.96337
1.96631
1.96753
1.96878
1.96834
1.96782
1.96698
1.96605
1.96491
1.96268
1.96105
1.95811
1.95569
1.95171
1.94868
1.94408
1.94062
1.93576
1.93191
1.92697
1.92274
1.9178
1.91305
1.90816
1.90278
1.89782
1.89199
1.88667
1.88058
1.87487
1.86858
1.86275
1.85642
1.85079
1.8446
1.83969
1.83396
1.83038
1.82597
1.82403
1.82201
1.82236
1.8218
2.21766
2.22373
2.23409
2.25057
2.27237
2.30433
2.33472
2.3539
2.36604
2.36822
2.36466
2.35548
2.34
2.32401
2.30936
2.29677
2.28533
2.27484
2.26488
2.25533
2.24592
2.23608
2.22571
2.2143
2.2022
2.18912
2.17557
2.16125
2.14642
2.1311
2.11532
2.09962
2.08334
2.06762
2.05118
2.03562
2.0194
2.00447
1.9888
1.97501
1.96022
1.94804
1.93461
1.92459
1.91354
1.90604
1.89908
1.89386
1.88962
1.8868
1.88601
1.88726
1.89192
1.89967
1.90796
1.91693
1.92482
1.93153
1.93637
1.93992
1.9414
1.94281
1.94209
1.94161
1.94062
1.93963
1.93781
1.93582
1.93355
1.93086
1.92748
1.92429
1.92022
1.91667
1.91229
1.90847
1.90398
1.89997
1.89539
1.89105
1.88638
1.88151
1.87676
1.87148
1.86637
1.86099
1.85527
1.85009
1.84402
1.83914
1.83328
1.8288
1.82369
1.82023
1.81639
1.81458
1.81289
1.81346
1.81464
1.81409
2.22865
2.2464
2.27212
2.30523
2.34098
2.36908
2.38846
2.39104
2.38898
2.38091
2.36764
2.3509
2.33362
2.31814
2.3047
2.29327
2.28355
2.27462
2.26588
2.25676
2.24723
2.23705
2.22637
2.21504
2.20322
2.19059
2.1774
2.16347
2.14911
2.13431
2.119
2.10349
2.08742
2.07147
2.05496
2.03893
2.02258
2.00679
1.99088
1.97576
1.96056
1.94643
1.93245
1.91967
1.90727
1.89703
1.88689
1.87979
1.87326
1.86848
1.86455
1.86313
1.86318
1.86553
1.87156
1.88006
1.88924
1.898
1.90546
1.91121
1.91515
1.91718
1.9184
1.91788
1.91691
1.91616
1.9146
1.9128
1.91063
1.9082
1.90514
1.90204
1.89845
1.89491
1.89093
1.88721
1.88315
1.87928
1.87529
1.87118
1.86714
1.86265
1.85836
1.8535
1.84892
1.84373
1.83896
1.8333
1.82887
1.82297
1.81922
1.81389
1.81096
1.80704
1.80565
1.80364
1.80453
1.80584
1.80805
1.80758
2.25111
2.28518
2.32831
2.37218
2.39813
2.41033
2.41424
2.40941
2.39823
2.37821
2.35911
2.34226
2.32819
2.31612
2.30546
2.29535
2.28608
2.27673
2.26768
2.25829
2.2485
2.2382
2.22736
2.21592
2.20391
2.19128
2.17813
2.16447
2.15032
2.13566
2.12054
2.10506
2.08928
2.07334
2.05722
2.04103
2.02478
2.00868
1.99259
1.97686
1.96132
1.94627
1.93177
1.91759
1.90462
1.89185
1.88074
1.8706
1.86192
1.85526
1.84895
1.84499
1.84108
1.84106
1.84125
1.84529
1.85204
1.86035
1.8698
1.87761
1.88473
1.88922
1.89215
1.89334
1.89291
1.89196
1.89098
1.88928
1.88712
1.88482
1.88182
1.87894
1.87559
1.87236
1.86876
1.86537
1.86174
1.85832
1.85478
1.85122
1.8477
1.84399
1.84016
1.83632
1.83204
1.8279
1.82341
1.819
1.81432
1.81048
1.80583
1.80311
1.79953
1.79848
1.79677
1.79778
1.79973
1.80201
1.80721
1.80771
2.30881
2.35407
2.38578
2.41495
2.42002
2.41893
2.41188
2.39716
2.37834
2.3626
2.34722
2.33361
2.32183
2.31117
2.30201
2.29299
2.28431
2.27537
2.26615
2.25668
2.24655
2.23623
2.22514
2.21389
2.20184
2.18962
2.1766
2.16332
2.14929
2.13497
2.12011
2.10495
2.08958
2.07374
2.05811
2.04188
2.02621
2.00987
1.99423
1.97813
1.96258
1.94695
1.932
1.91692
1.90335
1.889
1.8772
1.86425
1.85433
1.84386
1.83649
1.82902
1.82349
1.81889
1.81666
1.81645
1.81784
1.82311
1.83058
1.83968
1.84806
1.85609
1.86156
1.86558
1.86712
1.8671
1.86611
1.86505
1.86332
1.86079
1.85819
1.85489
1.8522
1.84879
1.84585
1.84246
1.83934
1.83616
1.83289
1.82999
1.82652
1.82363
1.82005
1.81677
1.81319
1.80961
1.80577
1.8026
1.79845
1.79591
1.79256
1.79062
1.78932
1.78875
1.79004
1.79157
1.79497
1.7992
1.80782
1.81141
2.41058
2.4344
2.43597
2.43349
2.42498
2.40856
2.38958
2.37233
2.35594
2.34244
2.33085
2.32153
2.3135
2.30543
2.29749
2.28935
2.28086
2.27226
2.26295
2.25358
2.24343
2.23332
2.22251
2.21166
2.20007
2.18832
2.17575
2.16289
2.1492
2.13531
2.1207
2.10595
2.09068
2.07516
2.05946
2.04333
2.02748
2.01099
1.99515
1.97867
1.96293
1.94684
1.93119
1.91595
1.9005
1.88612
1.87133
1.85809
1.84519
1.83356
1.8235
1.81444
1.80762
1.80063
1.7959
1.7924
1.79224
1.79262
1.79595
1.80259
1.81187
1.82175
1.8305
1.83778
1.84227
1.84486
1.84521
1.84432
1.84343
1.84161
1.83915
1.83618
1.83293
1.82992
1.82664
1.82362
1.82048
1.81735
1.81443
1.81122
1.80843
1.80526
1.80239
1.79911
1.79603
1.79266
1.78961
1.78632
1.78391
1.78113
1.77975
1.77847
1.7787
1.78018
1.78208
1.78587
1.7916
1.79946
1.81021
1.81408
2.491
2.48575
2.47244
2.44705
2.42018
2.39429
2.37204
2.3535
2.3377
2.32445
2.31344
2.30362
2.29472
2.28717
2.27938
2.27208
2.26377
2.25582
2.24686
2.2382
2.2287
2.21938
2.20938
2.19933
2.1886
2.17762
2.16583
2.15376
2.14075
2.12759
2.11349
2.09941
2.08445
2.06967
2.0541
2.03888
2.02296
2.00736
1.99122
1.97519
1.95895
1.94289
1.927
1.91133
1.8961
1.88135
1.86718
1.85356
1.84052
1.82836
1.81662
1.80646
1.79678
1.7898
1.78275
1.77786
1.77395
1.77375
1.77426
1.77662
1.78187
1.79094
1.80047
1.81015
1.81857
1.82397
1.82771
1.82829
1.82783
1.8269
1.82491
1.82265
1.81916
1.8159
1.81231
1.80906
1.80565
1.8025
1.79915
1.79623
1.79299
1.79027
1.78717
1.78448
1.7814
1.77874
1.77571
1.77357
1.77099
1.76977
1.76855
1.76879
1.76999
1.77196
1.77625
1.78207
1.79194
1.80118
1.81164
1.81499
2.52829
2.50187
2.46425
2.43256
2.40637
2.38356
2.36388
2.34745
2.33393
2.32235
2.31159
2.30133
2.29115
2.28145
2.27188
2.26268
2.25354
2.24482
2.236
2.22743
2.21843
2.20947
2.19986
2.1902
2.17985
2.16932
2.15817
2.14661
2.13451
2.12174
2.10852
2.09455
2.0802
2.0652
2.04994
2.03413
2.01827
2.00212
1.98616
1.97023
1.95463
1.93918
1.92396
1.90902
1.89435
1.88006
1.86609
1.85263
1.8395
1.82718
1.81511
1.8045
1.79403
1.78561
1.77768
1.7715
1.76601
1.76161
1.7607
1.76138
1.76339
1.76804
1.77517
1.78523
1.7947
1.80392
1.81063
1.81498
1.81662
1.81658
1.81567
1.81371
1.81143
1.80758
1.80409
1.80014
1.79654
1.79266
1.78899
1.78535
1.78194
1.77874
1.77562
1.77283
1.77009
1.76768
1.76575
1.76397
1.763
1.76244
1.76264
1.76371
1.76628
1.77058
1.77796
1.78753
1.79766
1.80636
1.81574
1.81777
2.63846
2.56238
2.50029
2.45545
2.423
2.39893
2.37945
2.36281
2.34863
2.33586
2.32413
2.31283
2.3015
2.29003
2.27847
2.26736
2.25651
2.24618
2.23618
2.22654
2.21684
2.20722
2.19733
2.18722
2.17671
2.16569
2.15423
2.14216
2.1297
2.1166
2.10313
2.08904
2.07466
2.05985
2.04485
2.0297
2.01452
1.99935
1.98426
1.96927
1.95441
1.93968
1.92514
1.91079
1.89667
1.88279
1.86927
1.85598
1.84319
1.8307
1.81882
1.80753
1.79695
1.78732
1.77879
1.77155
1.76567
1.76046
1.75662
1.75485
1.75523
1.75727
1.76149
1.7667
1.77632
1.78622
1.79671
1.80407
1.80977
1.81208
1.81277
1.8119
1.81031
1.80769
1.80423
1.80018
1.79586
1.79158
1.78728
1.78303
1.77902
1.77488
1.77144
1.76768
1.76506
1.76222
1.76074
1.75906
1.75895
1.75866
1.75966
1.76264
1.76774
1.77622
1.7857
1.79624
1.80647
1.81405
1.8214
1.82228
2.71453
2.64362
2.57589
2.52118
2.47595