/*--------------------------------*- C++ -*----------------------------------*\
  =========                 |
  \\      /  F ield         | OpenFOAM: The Open Source CFD Toolbox
   \\    /   O peration     | Website:  https://openfoam.org
    \\  /    A nd           | Version:  6
     \\/     M anipulation  |
\*---------------------------------------------------------------------------*/
FoamFile
{
    version     2.0;
    format      ascii;
    class       volVectorField;
    location    "6";
    object      U;
}
// * * * * * * * * * * * * * * * * * * * * * * * * * * * * * * * * * * * * * //

dimensions      [0 1 -1 0 0 0 0];

internalField   nonuniform List<vector> 
5250
(
(2.99996 3.90886e-08 0)
(2.99988 2.50459e-07 0)
(2.99969 7.797e-07 0)
(2.9993 2.12519e-06 0)
(2.9983 4.9278e-06 0)
(2.99626 1.19004e-05 0)
(2.99059 2.56702e-05 0)
(2.97977 6.30808e-05 0)
(2.94623 0.000128681 0)
(2.87226 0.000347428 0)
(2.66644 0.000758569 0)
(2.02487 0.00211974 0)
(0.630062 0.00557276 0)
(-0.216668 0.012961 0)
(0.163232 0.0199375 0)
(0.493326 0.025873 0)
(0.579564 0.0291216 0)
(0.527167 0.0313526 0)
(0.425601 0.0322917 0)
(0.328635 0.0343906 0)
(0.265357 0.0377097 0)
(0.212349 0.041424 0)
(0.154802 0.045322 0)
(0.0920336 0.0504046 0)
(0.0436202 0.0581117 0)
(2.99996 1.20749e-07 0)
(2.99988 7.75303e-07 0)
(2.9997 2.41133e-06 0)
(2.99931 6.58722e-06 0)
(2.9983 1.52666e-05 0)
(2.99628 3.7024e-05 0)
(2.99062 7.98187e-05 0)
(2.97985 0.00019793 0)
(2.94645 0.000402199 0)
(2.87279 0.00110265 0)
(2.6678 0.00242873 0)
(2.02901 0.00688085 0)
(0.638098 0.0182827 0)
(-0.208978 0.0408549 0)
(0.172418 0.0589033 0)
(0.500189 0.0724806 0)
(0.581958 0.0785718 0)
(0.527358 0.0819522 0)
(0.426444 0.0824089 0)
(0.331892 0.0856009 0)
(0.269015 0.0908453 0)
(0.214615 0.0956799 0)
(0.15557 0.0992828 0)
(0.0912603 0.102853 0)
(0.0421036 0.106948 0)
(2.99996 2.09398e-07 0)
(2.99988 1.34646e-06 0)
(2.9997 4.18594e-06 0)
(2.99931 1.14579e-05 0)
(2.99832 2.65597e-05 0)
(2.99631 6.46559e-05 0)
(2.99071 0.000139445 0)
(2.98002 0.00034836 0)
(2.94692 0.000706667 0)
(2.87396 0.00195986 0)
(2.6709 0.00434888 0)
(2.03882 0.0124444 0)
(0.658319 0.0332704 0)
(-0.187426 0.0724278 0)
(0.187845 0.100303 0)
(0.508836 0.119937 0)
(0.584381 0.129905 0)
(0.526955 0.13663 0)
(0.427125 0.140132 0)
(0.336512 0.147144 0)
(0.274595 0.156217 0)
(0.21834 0.164281 0)
(0.157206 0.170142 0)
(0.0908475 0.174642 0)
(0.0402611 0.177344 0)
(2.99996 3.03957e-07 0)
(2.99989 1.9556e-06 0)
(2.9997 6.07983e-06 0)
(2.99932 1.66595e-05 0)
(2.99834 3.86375e-05 0)
(2.99636 9.42405e-05 0)
(2.99083 0.000203431 0)
(2.98028 0.000509718 0)
(2.94767 0.00103468 0)
(2.87584 0.00287962 0)
(2.67593 0.00641274 0)
(2.0548 0.0183894 0)
(0.69105 0.0490467 0)
(-0.153393 0.10491 0)
(0.208733 0.141529 0)
(0.519277 0.16563 0)
(0.588353 0.179413 0)
(0.5288 0.190196 0)
(0.43083 0.198513 0)
(0.344555 0.210345 0)
(0.283691 0.223771 0)
(0.225793 0.235944 0)
(0.16242 0.245711 0)
(0.0933651 0.253308 0)
(0.0399422 0.257342 0)
(2.99996 4.01875e-07 0)
(2.99989 2.58643e-06 0)
(2.99971 8.04107e-06 0)
(2.99933 2.20462e-05 0)
(2.99837 5.11418e-05 0)
(2.99643 0.000124872 0)
(2.99101 0.000269629 0)
(2.98065 0.000677109 0)
(2.94872 0.00137181 0)
(2.87847 0.00383227 0)
(2.68296 0.00854482 0)
(2.07702 0.0244741 0)
(0.736264 0.0651815 0)
(-0.107315 0.138261 0)
(0.234709 0.183425 0)
(0.531393 0.211304 0)
(0.59376 0.227979 0)
(0.533175 0.242312 0)
(0.437988 0.255614 0)
(0.356024 0.27254 0)
(0.29619 0.290864 0)
(0.236962 0.307864 0)
(0.171737 0.322268 0)
(0.100008 0.333879 0)
(0.0421567 0.340352 0)
(2.99996 5.00445e-07 0)
(2.99989 3.22193e-06 0)
(2.99972 1.00147e-05 0)
(2.99935 2.747e-05 0)
(2.99841 6.37027e-05 0)
(2.99651 0.000155714 0)
(2.99124 0.000336111 0)
(2.98112 0.000843107 0)
(2.95007 0.00172701 0)
(2.88185 0.00472214 0)
(2.69201 0.010876 0)
(2.10558 0.0296554 0)
(0.79567 0.0816338 0)
(-0.0477401 0.172701 0)
(0.26634 0.226434 0)
(0.545187 0.257255 0)
(0.600569 0.276096 0)
(0.540345 0.293683 0)
(0.449224 0.312254 0)
(0.371896 0.334827 0)
(0.313298 0.358773 0)
(0.253015 0.381768 0)
(0.185643 0.402443 0)
(0.109939 0.419595 0)
(0.0461111 0.429451 0)
(2.99997 6.00037e-07 0)
(2.99989 3.8658e-06 0)
(2.99972 1.20106e-05 0)
(2.99937 3.29719e-05 0)
(2.99846 7.64148e-05 0)
(2.99662 0.000187156 0)
(2.99151 0.000404036 0)
(2.98171 0.00100292 0)
(2.95168 0.00215165 0)
(2.88613 0.00543034 0)
(2.70245 0.0137196 0)
(2.13933 0.0326827 0)
(0.872182 0.0981456 0)
(0.0256105 0.208415 0)
(0.303711 0.272104 0)
(0.561164 0.302064 0)
(0.609352 0.322639 0)
(0.551399 0.343618 0)
(0.465969 0.368382 0)
(0.393551 0.397548 0)
(0.33645 0.428313 0)
(0.275886 0.458907 0)
(0.2069 0.488284 0)
(0.126211 0.514643 0)
(0.0533033 0.531271 0)
(2.99997 7.05592e-07 0)
(2.9999 4.54763e-06 0)
(2.99973 1.41262e-05 0)
(2.99939 3.87971e-05 0)
(2.99852 8.99014e-05 0)
(2.99675 0.000220392 0)
(2.99184 0.000475979 0)
(2.98245 0.00117297 0)
(2.95345 0.00258822 0)
(2.89153 0.00622417 0)
(2.71337 0.0164727 0)
(2.17688 0.0366014 0)
(0.967059 0.113701 0)
(0.11299 0.245253 0)
(0.344109 0.32103 0)
(0.574615 0.345429 0)
(0.619614 0.36711 0)
(0.566876 0.391543 0)
(0.489264 0.423255 0)
(0.422504 0.459868 0)
(0.367988 0.498948 0)
(0.308728 0.539385 0)
(0.239774 0.581579 0)
(0.153876 0.624079 0)
(0.0673599 0.656215 0)
(2.99997 8.20942e-07 0)
(2.9999 5.28678e-06 0)
(2.99975 1.643e-05 0)
(2.99942 4.50711e-05 0)
(2.99859 0.000104525 0)
(2.9969 0.000255448 0)
(2.99221 0.00055224 0)
(2.98331 0.00135851 0)
(2.95553 0.00295083 0)
(2.89773 0.00729443 0)
(2.72622 0.0182647 0)
(2.22041 0.0437504 0)
(1.07896 0.12697 0)
(0.217725 0.282059 0)
(0.388474 0.370717 0)
(0.584371 0.388564 0)
(0.63101 0.410277 0)
(0.586919 0.437715 0)
(0.519657 0.476343 0)
(0.45973 0.521235 0)
(0.409813 0.568977 0)
(0.355904 0.621282 0)
(0.292925 0.682808 0)
(0.2058 0.753617 0)
(0.0983119 0.827279 0)
(2.99997 9.49401e-07 0)
(2.99991 6.10716e-06 0)
(2.99976 1.89899e-05 0)
(2.99945 5.20052e-05 0)
(2.99867 0.000120696 0)
(2.99707 0.000293715 0)
(2.99265 0.000635434 0)
(2.98427 0.00155957 0)
(2.95798 0.0033064 0)
(2.9043 0.00849612 0)
(2.74169 0.0197169 0)
(2.27056 0.0520003 0)
(1.20059 0.139319 0)
(0.337278 0.318661 0)
(0.436835 0.418461 0)
(0.592807 0.430433 0)
(0.644215 0.450856 0)
(0.6118 0.482563 0)
(0.557712 0.525954 0)
(0.505868 0.578424 0)
(0.463469 0.634816 0)
(0.423565 0.702095 0)
(0.379275 0.789524 0)
(0.311301 0.907034 0)
(0.176572 1.09605 0)
(2.99997 1.09902e-06 0)
(2.99991 7.06968e-06 0)
(2.99978 2.19863e-05 0)
(2.99949 6.02128e-05 0)
(2.99875 0.000139815 0)
(2.99726 0.000340082 0)
(2.99314 0.000736307 0)
(2.98534 0.00180514 0)
(2.96082 0.0038108 0)
(2.91136 0.00984968 0)
(2.75977 0.0223974 0)
(2.3269 0.0605013 0)
(1.32951 0.157131 0)
(0.465599 0.365722 0)
(0.485092 0.453546 0)
(0.596686 0.469897 0)
(0.659128 0.48896 0)
(0.640617 0.524339 0)
(0.600433 0.569947 0)
(0.560285 0.626775 0)
(0.531606 0.692421 0)
(0.517062 0.775254 0)
(0.515975 0.883152 0)
(0.549718 1.02699 0)
(0.590393 1.23646 0)
(2.99997 1.26633e-06 0)
(2.99992 8.15221e-06 0)
(2.9998 2.53512e-05 0)
(2.99953 6.95187e-05 0)
(2.99886 0.0001615 0)
(2.99749 0.000393727 0)
(2.99372 0.000852798 0)
(2.98661 0.00210161 0)
(2.96413 0.0043977 0)
(2.91969 0.0114483 0)
(2.7807 0.0261674 0)
(2.39244 0.0696769 0)
(1.48395 0.179763 0)
(0.596072 0.42399 0)
(0.528452 0.479684 0)
(0.6129 0.502518 0)
(0.677797 0.520302 0)
(0.672759 0.557315 0)
(0.645974 0.605518 0)
(0.621972 0.665572 0)
(0.613582 0.738986 0)
(0.626615 0.828516 0)
(0.663992 0.937907 0)
(0.760798 1.06919 0)
(0.905125 1.20838 0)
(2.99998 1.42974e-06 0)
(2.99993 9.21835e-06 0)
(2.99982 2.86729e-05 0)
(2.99958 7.88327e-05 0)
(2.99898 0.000183487 0)
(2.99776 0.000449131 0)
(2.9944 0.000976383 0)
(2.98803 0.00241055 0)
(2.96798 0.00508887 0)
(2.92937 0.0129444 0)
(2.80473 0.0305385 0)
(2.46721 0.0781449 0)
(1.66716 0.199271 0)
(0.736476 0.485839 0)
(0.564547 0.511534 0)
(0.631831 0.527513 0)
(0.699656 0.542686 0)
(0.709726 0.58136 0)
(0.696592 0.633106 0)
(0.689196 0.695429 0)
(0.698879 0.769614 0)
(0.731573 0.85411 0)
(0.791022 0.948576 0)
(0.899431 1.04922 0)
(1.05223 1.12422 0)
(2.99998 1.51683e-06 0)
(2.99994 9.77413e-06 0)
(2.99984 3.04173e-05 0)
(2.99964 8.35867e-05 0)
(2.99912 0.000194725 0)
(2.99806 0.000475916 0)
(2.99516 0.00103556 0)
(2.98973 0.00256643 0)
(2.97221 0.00527246 0)
(2.94075 0.0142743 0)
(2.83119 0.0309338 0)
(2.54873 0.0889515 0)
(1.86603 0.214556 0)
(0.880274 0.550121 0)
(0.593024 0.54663 0)
(0.652198 0.549347 0)
(0.726515 0.56147 0)
(0.753058 0.600788 0)
(0.751464 0.654104 0)
(0.755586 0.715026 0)
(0.777632 0.78316 0)
(0.821339 0.856855 0)
(0.889249 0.932624 0)
(0.993396 1.00526 0)
(1.12851 1.05229 0)
(2.99998 1.49498e-06 0)
(2.99995 9.62734e-06 0)
(2.99987 2.99596e-05 0)
(2.99969 8.22791e-05 0)
(2.99925 0.000191459 0)
(2.99836 0.000467903 0)
(2.99593 0.00101199 0)
(2.99124 0.00252876 0)
(2.977 0.00504765 0)
(2.95047 0.0146821 0)
(2.86244 0.0282883 0)
(2.64025 0.0935912 0)
(2.08792 0.216904 0)
(1.05356 0.589719 0)
(0.643303 0.587641 0)
(0.690255 0.583595 0)
(0.767864 0.587353 0)
(0.806045 0.621012 0)
(0.810966 0.670586 0)
(0.819867 0.726448 0)
(0.847131 0.78585 0)
(0.894894 0.847396 0)
(0.963566 0.907394 0)
(1.05823 0.960524 0)
(1.17471 0.993401 0)
(2.99999 1.36446e-06 0)
(2.99996 8.78167e-06 0)
(2.99989 2.7326e-05 0)
(2.99975 7.49316e-05 0)
(2.99938 0.000174355 0)
(2.99864 0.000424481 0)
(2.99668 0.000919641 0)
(2.99278 0.0022515 0)
(2.98161 0.00468371 0)
(2.9597 0.0124475 0)
(2.89275 0.0254544 0)
(2.72867 0.0757911 0)
(2.31418 0.177106 0)
(1.27926 0.503105 0)
(0.753186 0.592507 0)
(0.760143 0.619548 0)
(0.824751 0.623951 0)
(0.869195 0.647396 0)
(0.876567 0.687732 0)
(0.884621 0.735236 0)
(0.910877 0.785033 0)
(0.957205 0.835197 0)
(1.02191 0.88274 0)
(1.10617 0.922881 0)
(1.2065 0.948131 0)
(2.99999 1.1865e-06 0)
(2.99997 7.62369e-06 0)
(2.99991 2.37292e-05 0)
(2.99979 6.48394e-05 0)
(2.99949 0.000150965 0)
(2.99889 0.000364241 0)
(2.99728 0.000794457 0)
(2.99409 0.00189352 0)
(2.98489 0.0040548 0)
(2.96737 0.00979425 0)
(2.91223 0.0220546 0)
(2.7809 0.054798 0)
(2.43623 0.132797 0)
(1.47158 0.358468 0)
(0.833712 0.609005 0)
(0.80312 0.662922 0)
(0.859577 0.676822 0)
(0.915993 0.68398 0)
(0.933468 0.709923 0)
(0.944036 0.746227 0)
(0.968772 0.785842 0)
(1.01169 0.825505 0)
(1.07054 0.862773 0)
(1.14442 0.893669 0)
(1.23075 0.913659 0)
(2.99999 1.04305e-06 0)
(2.99997 6.70409e-06 0)
(2.99993 2.08678e-05 0)
(2.99983 5.70575e-05 0)
(2.99959 0.000132866 0)
(2.9991 0.000321 0)
(2.9978 0.000699915 0)
(2.99524 0.00167276 0)
(2.98772 0.00357451 0)
(2.9743 0.00874738 0)
(2.92822 0.0192163 0)
(2.82796 0.0487808 0)
(2.5434 0.118489 0)
(1.70278 0.32018 0)
(0.985456 0.659721 0)
(0.839342 0.701131 0)
(0.876567 0.717351 0)
(0.935811 0.714051 0)
(0.972083 0.728937 0)
(0.991778 0.756157 0)
(1.01805 0.787491 0)
(1.05855 0.818633 0)
(1.11215 0.847398 0)
(1.17735 0.8713 0)
(1.2519 0.887318 0)
(2.99999 9.18227e-07 0)
(2.99998 5.9054e-06 0)
(2.99994 1.83841e-05 0)
(2.99987 5.03459e-05 0)
(2.99968 0.000117243 0)
(2.99929 0.000284363 0)
(2.99827 0.000618461 0)
(2.99626 0.00149393 0)
(2.99037 0.00315791 0)
(2.98002 0.00812036 0)
(2.94403 0.0164517 0)
(2.86974 0.0473137 0)
(2.65099 0.107413 0)
(1.98253 0.311636 0)
(1.18462 0.712421 0)
(0.888041 0.737529 0)
(0.902229 0.741687 0)
(0.956204 0.734026 0)
(1.00492 0.739622 0)
(1.03303 0.760421 0)
(1.06108 0.78657 0)
(1.0991 0.812223 0)
(1.148 0.835136 0)
(1.20631 0.853872 0)
(1.27155 0.86657 0)
(2.99999 7.72856e-07 0)
(2.99998 4.96746e-06 0)
(2.99996 1.54644e-05 0)
(2.9999 4.23039e-05 0)
(2.99975 9.84656e-05 0)
(2.99946 0.000238338 0)
(2.99869 0.000517512 0)
(2.99716 0.00124711 0)
(2.99287 0.00262401 0)
(2.98501 0.0067511 0)
(2.95961 0.013407 0)
(2.90915 0.0383842 0)
(2.75895 0.0869306 0)
(2.31954 0.245137 0)
(1.50709 0.613231 0)
(1.02588 0.735419 0)
(0.977517 0.753725 0)
(1.00273 0.752984 0)
(1.04854 0.750548 0)
(1.08037 0.764643 0)
(1.10692 0.786098 0)
(1.14013 0.807641 0)
(1.1828 0.826505 0)
(1.23383 0.841412 0)
(1.29101 0.851354 0)
(3 6.18046e-07 0)
(2.99999 3.96621e-06 0)
(2.99997 1.23477e-05 0)
(2.99992 3.36727e-05 0)
(2.99981 7.83563e-05 0)
(2.99959 0.000188316 0)
(2.99901 0.000409655 0)
(2.99785 0.000970812 0)
(2.99466 0.00205816 0)
(2.98868 0.00504162 0)
(2.9696 0.0103876 0)
(2.93479 0.0269466 0)
(2.81695 0.0605123 0)
(2.50763 0.160974 0)
(1.81529 0.408512 0)
(1.13564 0.738591 0)
(1.02644 0.772827 0)
(1.03996 0.782465 0)
(1.08449 0.775259 0)
(1.12444 0.778385 0)
(1.15207 0.792359 0)
(1.18117 0.808645 0)
(1.21767 0.823152 0)
(1.26163 0.834491 0)
(1.31125 0.841899 0)
(3 4.92153e-07 0)
(2.99999 3.15769e-06 0)
(2.99997 9.83352e-06 0)
(2.99994 2.68088e-05 0)
(2.99986 6.24143e-05 0)
(2.9997 0.000149857 0)
(2.99927 0.000326439 0)
(2.99841 0.000771107 0)
(2.99604 0.00163969 0)
(2.9917 0.00399418 0)
(2.97739 0.00816329 0)
(2.95281 0.0221611 0)
(2.86518 0.0446321 0)
(2.64837 0.13695 0)
(2.12369 0.323019 0)
(1.31718 0.765547 0)
(1.07029 0.815748 0)
(1.06855 0.819834 0)
(1.1058 0.809436 0)
(1.15433 0.800375 0)
(1.18958 0.804674 0)
(1.21837 0.814561 0)
(1.25066 0.824401 0)
(1.28897 0.832043 0)
(1.33225 0.83674 0)
(3 3.85873e-07 0)
(2.99999 2.47532e-06 0)
(2.99998 7.70898e-06 0)
(2.99996 2.10108e-05 0)
(2.9999 4.89101e-05 0)
(2.99978 0.000117376 0)
(2.99947 0.000255586 0)
(2.99885 0.000603336 0)
(2.99717 0.00128147 0)
(2.99391 0.00312684 0)
(2.98443 0.00631874 0)
(2.96621 0.0172826 0)
(2.9104 0.0345445 0)
(2.77614 0.103434 0)
(2.4367 0.242751 0)
(1.61111 0.646162 0)
(1.18202 0.813658 0)
(1.1223 0.834229 0)
(1.13949 0.83551 0)
(1.18371 0.823268 0)
(1.2242 0.818949 0)
(1.25377 0.822475 0)
(1.28272 0.8281 0)
(1.31596 0.832584 0)
(1.35369 0.83482 0)
(3 2.9479e-07 0)
(2.99999 1.89083e-06 0)
(2.99999 5.88626e-06 0)
(2.99997 1.60319e-05 0)
(2.99993 3.73046e-05 0)
(2.99984 8.93887e-05 0)
(2.99962 0.0001947 0)
(2.99918 0.000457912 0)
(2.998 0.00097482 0)
(2.99573 0.00232972 0)
(2.989 0.00490011 0)
(2.97704 0.0121345 0)
(2.93688 0.0262057 0)
(2.84974 0.067842 0)
(2.60851 0.161479 0)
(1.91804 0.43984 0)
(1.3247 0.799751 0)
(1.16961 0.850115 0)
(1.16997 0.85847 0)
(1.2053 0.848546 0)
(1.25064 0.836303 0)
(1.28476 0.832886 0)
(1.31316 0.833988 0)
(1.34279 0.835596 0)
(1.37581 0.835726 0)
(3 2.05193e-07 0)
(3 1.45754e-06 0)
(2.99999 4.24576e-06 0)
(2.99998 1.22396e-05 0)
(2.99995 2.68524e-05 0)
(2.99989 6.81883e-05 0)
(2.99974 0.000138934 0)
(2.99944 0.000349837 0)
(2.99862 0.00068437 0)
(2.99706 0.00178616 0)
(2.99248 0.00333715 0)
(2.98445 0.00952655 0)
(2.95713 0.0165315 0)
(2.90334 0.0534807 0)
(2.74214 0.106049 0)
(2.26853 0.33122 0)
(1.60158 0.71533 0)
(1.26729 0.849135 0)
(1.22096 0.870054 0)
(1.23558 0.87092 0)
(1.27499 0.857046 0)
(1.31295 0.847302 0)
(1.34241 0.843169 0)
(1.36975 0.841246 0)
(1.39886 0.839193 0)
(3 1.47813e-07 0)
(3 1.0417e-06 0)
(2.99999 3.04985e-06 0)
(2.99999 8.75123e-06 0)
(2.99997 1.92879e-05 0)
(2.99992 4.86956e-05 0)
(2.99983 9.98322e-05 0)
(2.9996 0.000249323 0)
(2.99913 0.000492714 0)
(2.99784 0.00126839 0)
(2.99539 0.00241073 0)
(2.98822 0.00671465 0)
(2.97438 0.0117056 0)
(2.93262 0.0375229 0)
(2.83716 0.0699779 0)
(2.57196 0.215526 0)
(1.90393 0.536928 0)
(1.40308 0.834877 0)
(1.27556 0.882726 0)
(1.26969 0.890322 0)
(1.29664 0.88031 0)
(1.33558 0.865105 0)
(1.36767 0.855983 0)
(1.39503 0.850388 0)
(1.4218 0.84571 0)
(3 1.18672e-07 0)
(3 6.79488e-07 0)
(3 2.28204e-06 0)
(2.99999 5.81013e-06 0)
(2.99998 1.44405e-05 0)
(2.99995 3.21611e-05 0)
(2.99989 7.55235e-05 0)
(2.99973 0.000162178 0)
(2.99942 0.000380708 0)
(2.99859 0.000804807 0)
(2.997 0.00193394 0)
(2.99229 0.00403812 0)
(2.98417 0.0100979 0)
(2.95597 0.0216819 0)
(2.90197 0.055477 0)
(2.73607 0.133358 0)
(2.25562 0.36178 0)
(1.65152 0.753951 0)
(1.36115 0.878597 0)
(1.31493 0.899138 0)
(1.32368 0.900418 0)
(1.35615 0.885756 0)
(1.39111 0.870832 0)
(1.419 0.861543 0)
(1.44363 0.853706 0)
(3 8.32369e-08 0)
(3 4.76623e-07 0)
(3 1.60043e-06 0)
(2.99999 4.07114e-06 0)
(2.99999 1.01043e-05 0)
(2.99997 2.2487e-05 0)
(2.99993 5.26175e-05 0)
(2.99983 0.000112963 0)
(2.99962 0.000263144 0)
(2.99909 0.000556157 0)
(2.99806 0.0013188 0)
(2.99514 0.00273108 0)
(2.98982 0.0068477 0)
(2.97259 0.0136428 0)
(2.94196 0.037505 0)
(2.83901 0.0804951 0)
(2.56403 0.230895 0)
(2.00488 0.55349 0)
(1.49564 0.856834 0)
(1.37151 0.908283 0)
(1.35813 0.916132 0)
(1.3743 0.907465 0)
(1.40762 0.888823 0)
(1.43889 0.873979 0)
(1.46211 0.861447 0)
(3 5.95146e-08 0)
(3 3.19672e-07 0)
(3 1.1214e-06 0)
(3 2.74917e-06 0)
(2.99999 7.08042e-06 0)
(2.99998 1.51933e-05 0)
(2.99995 3.70074e-05 0)
(2.99989 7.62755e-05 0)
(2.99976 0.000186357 0)
(2.99943 0.000374628 0)
(2.99879 0.000939952 0)
(2.99698 0.00182614 0)
(2.99371 0.00487582 0)
(2.9831 0.00876459 0)
(2.96506 0.0266543 0)
(2.90191 0.0453445 0)
(2.75443 0.153063 0)
(2.38915 0.32793 0)
(1.73141 0.762039 0)
(1.446 0.89838 0)
(1.39517 0.920932 0)
(1.39615 0.920639 0)
(1.42042 0.905873 0)
(1.45182 0.884544 0)
(1.47392 0.86487 0)
(3 3.71659e-08 0)
(3 2.12898e-07 0)
(3 7.13815e-07 0)
(3 1.81482e-06 0)
(2.99999 4.49153e-06 0)
(2.99999 9.98134e-06 0)
(2.99997 2.32538e-05 0)
(2.99994 4.98455e-05 0)
(2.99986 0.000115394 0)
(2.9997 0.000243687 0)
(2.99925 0.000570633 0)
(2.99849 0.00119228 0)
(2.99586 0.00287276 0)
(2.99207 0.00586661 0)
(2.97593 0.015219 0)
(2.95134 0.0309547 0)
(2.8561 0.0849837 0)
(2.6278 0.209853 0)
(2.11586 0.507296 0)
(1.57924 0.868865 0)
(1.43802 0.927988 0)
(1.41791 0.931787 0)
(1.42797 0.918956 0)
(1.45228 0.893024 0)
(1.47146 0.860378 0)
(3 2.04789e-08 0)
(3 1.38491e-07 0)
(3 4.15289e-07 0)
(3 1.15816e-06 0)
(3 2.5971e-06 0)
(2.99999 6.32019e-06 0)
(2.99998 1.31771e-05 0)
(2.99996 3.13572e-05 0)
(2.99992 6.3298e-05 0)
(2.9998 0.000153047 0)
(2.99957 0.000298662 0)
(2.99894 0.000767812 0)
(2.99778 0.00137539 0)
(2.99422 0.00411817 0)
(2.98816 0.00654976 0)
(2.96729 0.0232909 0)
(2.92757 0.037457 0)
(2.80506 0.131461 0)
(2.48035 0.296733 0)
(1.91127 0.686283 0)
(1.54709 0.880234 0)
(1.46394 0.917625 0)
(1.44736 0.911633 0)
(1.45033 0.885296 0)
(1.45594 0.84097 0)
(3 1.39377e-08 0)
(3 7.99589e-08 0)
(3 2.67051e-07 0)
(3 6.78406e-07 0)
(3 1.66634e-06 0)
(3 3.68791e-06 0)
(2.99999 8.4984e-06 0)
(2.99998 1.81039e-05 0)
(2.99995 4.13952e-05 0)
(2.99988 8.68654e-05 0)
(2.99976 0.0002009 0)
(2.9994 0.000417762 0)
(2.9988 0.000992186 0)
(2.99668 0.00202136 0)
(2.99385 0.00511974 0)
(2.98041 0.0101721 0)
(2.96232 0.0277452 0)
(2.88295 0.0594645 0)
(2.70166 0.165797 0)
(2.28837 0.396487 0)
(1.7022 0.791609 0)
(1.49462 0.897682 0)
(1.44311 0.897629 0)
(1.42692 0.854988 0)
(1.41232 0.787608 0)
(3 8.5508e-09 0)
(3 4.90932e-08 0)
(3 1.63658e-07 0)
(3 4.15175e-07 0)
(3 1.01509e-06 0)
(3 2.24042e-06 0)
(2.99999 5.11963e-06 0)
(2.99999 1.08588e-05 0)
(2.99997 2.44969e-05 0)
(2.99993 5.10278e-05 0)
(2.99984 0.000116129 0)
(2.99961 0.000235917 0)
(2.99918 0.000564039 0)
(2.99793 0.00107 0)
(2.99568 0.00294263 0)
(2.98863 0.00508545 0)
(2.97596 0.0167727 0)
(2.9351 0.0298642 0)
(2.8434 0.100988 0)
(2.60445 0.227725 0)
(2.01622 0.589697 0)
(1.59403 0.854547 0)
(1.42878 0.872749 0)
(1.36191 0.785037 0)
(1.32317 0.675071 0)
(3 5.59691e-09 0)
(3 3.20625e-08 0)
(3 1.07493e-07 0)
(3 2.73233e-07 0)
(3 6.76124e-07 0)
(3 1.50232e-06 0)
(3 3.50219e-06 0)
(2.99999 7.52286e-06 0)
(2.99998 1.74337e-05 0)
(2.99996 3.71594e-05 0)
(2.99991 8.63783e-05 0)
(2.99978 0.000185452 0)
(2.99953 0.000428776 0)
(2.99882 0.000928976 0)
(2.99754 0.00213927 0)
(2.99354 0.00459528 0)
(2.9867 0.0105742 0)
(2.96349 0.0229554 0)
(2.9177 0.0530825 0)
(2.78415 0.126128 0)
(2.41513 0.314736 0)
(1.83543 0.648652 0)
(1.39718 0.760381 0)
(1.23621 0.641701 0)
(1.20909 0.530939 0)
(3 3.48985e-09 0)
(3 1.93772e-08 0)
(3 6.6325e-08 0)
(3 1.65718e-07 0)
(3 4.16743e-07 0)
(3 9.11168e-07 0)
(3 2.15972e-06 0)
(3 4.54859e-06 0)
(2.99999 1.078e-05 0)
(2.99998 2.22012e-05 0)
(2.99996 5.39002e-05 0)
(2.9999 0.000108434 0)
(2.99982 0.000270285 0)
(2.99947 0.000518819 0)
(2.99908 0.00134976 0)
(2.99664 0.00226485 0)
(2.9941 0.00646711 0)
(2.97655 0.00920646 0)
(2.95494 0.0302664 0)
(2.84774 0.0442804 0)
(2.60355 0.149957 0)
(2.07863 0.28459 0)
(1.24894 0.570035 0)
(0.983463 0.473779 0)
(1.03803 0.418713 0)
(3 1.7391e-09 0)
(3 9.97805e-09 0)
(3 3.31629e-08 0)
(3 8.39981e-08 0)
(3 2.04112e-07 0)
(3 4.48586e-07 0)
(3 1.01508e-06 0)
(3 2.1344e-06 0)
(3 4.76294e-06 0)
(2.99999 9.73002e-06 0)
(2.99998 2.22396e-05 0)
(2.99996 4.28159e-05 0)
(2.99989 0.000106598 0)
(2.9998 0.000187795 0)
(2.99914 0.000530496 0)
(2.99843 0.000932399 0)
(2.9934 0.00246127 0)
(2.98711 0.00424665 0)
(2.95384 0.0105711 0)
(2.8936 0.018982 0)
(2.69511 0.0495198 0)
(2.16898 0.117557 0)
(1.25564 0.250469 0)
(0.730886 0.268317 0)
(0.840154 0.300388 0)
(3 6.37866e-10 0)
(3 4.28414e-09 0)
(3 1.27878e-08 0)
(3 3.51104e-08 0)
(3 7.74454e-08 0)
(3 1.8283e-07 0)
(3 3.68778e-07 0)
(3 8.49278e-07 0)
(3 1.60502e-06 0)
(3 3.93563e-06 0)
(2.99999 6.54544e-06 0)
(2.99997 1.86286e-05 0)
(2.99995 2.69185e-05 0)
(2.99986 0.000102056 0)
(2.99976 0.000124649 0)
(2.99848 0.00081185 0)
(2.99733 0.000410691 0)
(2.98468 0.00508425 0)
(2.97022 -0.000957822 0)
(2.88639 0.0215437 0)
(2.70512 -0.00774215 0)
(2.24199 0.0495614 0)
(1.02158 0.0442418 0)
(0.459304 0.107031 0)
(0.611769 0.188296 0)
(3 1.66498e-10 0)
(3 6.44426e-10 0)
(3 2.74445e-09 0)
(3 4.97344e-09 0)
(3 1.39556e-08 0)
(3 1.65522e-08 0)
(3 4.34582e-08 0)
(3 4.36339e-09 0)
(3 5.86767e-08 0)
(3 -3.60098e-07 0)
(2.99999 -1.57366e-07 0)
(2.99998 -3.2967e-06 0)
(2.99996 -6.66627e-07 0)
(2.99988 -1.86634e-05 0)
(2.99981 7.24056e-06 0)
(2.99868 -0.000126438 0)
(2.99768 0.00102173 0)
(2.98564 -0.000987846 0)
(2.97174 0.00983447 0)
(2.89166 -0.00548755 0)
(2.71662 0.0511764 0)
(2.26188 0.0192623 0)
(1.01502 0.10699 0)
(0.370583 0.120172 0)
(0.494083 0.158522 0)
(3 -1.24143e-10 0)
(3 -1.23817e-09 0)
(3 -3.25012e-09 0)
(3 -1.21802e-08 0)
(3 -2.80694e-08 0)
(3 -9.32547e-08 0)
(3 -2.15361e-07 0)
(3 -6.49968e-07 0)
(3 -1.50846e-06 0)
(2.99999 -3.97651e-06 0)
(2.99999 -9.38133e-06 0)
(2.99997 -2.16321e-05 0)
(2.99994 -5.12829e-05 0)
(2.99986 -0.000107192 0)
(2.99966 -0.000246556 0)
(2.99947 -0.000476202 0)
(2.99641 -0.000724359 0)
(2.99361 -0.00125494 0)
(2.96475 -0.000362957 0)
(2.92397 0.000532363 0)
(2.74085 0.00792605 0)
(2.22746 0.0203778 0)
(1.2072 0.0552414 0)
(0.409168 0.102153 0)
(0.468549 0.136943 0)
(3 -4.83699e-11 0)
(3 -3.44072e-10 0)
(3 -1.04593e-09 0)
(3 -3.24699e-09 0)
(3 -8.11967e-09 0)
(3 -2.30376e-08 0)
(3 -5.47981e-08 0)
(3 -1.516e-07 0)
(3 -3.39864e-07 0)
(2.99999 -9.86142e-07 0)
(2.99998 -1.92844e-06 0)
(2.99994 -6.62853e-06 0)
(2.99988 -1.14377e-05 0)
(2.99971 -3.81261e-05 0)
(2.99947 -6.32536e-05 0)
(2.99822 -0.000193094 0)
(2.99691 -0.000382257 0)
(2.98597 -0.000176324 0)
(2.97362 2.36331e-05 0)
(2.89966 0.0026454 0)
(2.73885 0.00852906 0)
(2.30119 0.0203244 0)
(1.10159 0.0574572 0)
(0.378565 0.12024 0)
(0.424032 0.148865 0)
(3 7.73466e-11 0)
(3 1.01673e-09 0)
(3 2.23276e-09 0)
(3 9.37822e-09 0)
(3 1.71028e-08 0)
(3 6.46699e-08 0)
(3 1.11194e-07 0)
(3 3.96748e-07 0)
(3 5.93309e-07 0)
(2.99999 1.94371e-06 0)
(2.99998 1.73807e-06 0)
(2.99997 5.02883e-06 0)
(2.99991 -4.09809e-06 0)
(2.99982 -2.03729e-05 0)
(2.99951 -7.68051e-05 0)
(2.99917 -0.000282234 0)
(2.99644 -0.000388323 0)
(2.99402 -0.00109905 0)
(2.96778 0.000607561 0)
(2.93287 0.00236342 0)
(2.76 0.0119676 0)
(2.27989 0.035045 0)
(1.29391 0.0755364 0)
(0.448282 0.164888 0)
(0.426342 0.179838 0)
(3 1.33629e-10 0)
(3 8.7765e-10 0)
(3 2.73105e-09 0)
(3 7.65593e-09 0)
(3 1.81302e-08 0)
(3 4.49625e-08 0)
(3 1.00545e-07 0)
(3 2.39136e-07 0)
(3 5.1597e-07 0)
(2.99999 1.19737e-06 0)
(2.99998 2.35549e-06 0)
(2.99994 5.7919e-06 0)
(2.99986 1.05221e-05 0)
(2.99964 2.46861e-05 0)
(2.99922 5.33326e-05 0)
(2.99793 0.000105404 0)
(2.9961 0.000124021 0)
(2.98706 0.00114287 0)
(2.97716 0.00205305 0)
(2.912 0.00712524 0)
(2.77297 0.0170543 0)
(2.36605 0.0360825 0)
(1.21286 0.102266 0)
(0.447561 0.212938 0)
(0.389711 0.198543 0)
(3 1.3823e-10 0)
(3 7.72144e-10 0)
(3 2.7526e-09 0)
(3 7.15421e-09 0)
(3 2.00405e-08 0)
(3 4.68544e-08 0)
(3 1.33694e-07 0)
(3 3.04897e-07 0)
(3 9.5092e-07 0)
(3 2.11598e-06 0)
(2.99999 7.18607e-06 0)
(2.99997 1.60645e-05 0)
(2.99993 5.0696e-05 0)
(2.99986 0.000121073 0)
(2.99959 0.000298407 0)
(2.99923 0.000669263 0)
(2.99747 0.00162124 0)
(2.99592 0.00324491 0)
(2.97406 0.00593648 0)
(2.9483 0.0103825 0)
(2.79075 0.0205647 0)
(2.36847 0.052804 0)
(1.45183 0.124287 0)
(0.507557 0.296088 0)
(0.323356 0.225972 0)
(3 -7.78004e-11 0)
(3 -1.28894e-10 0)
(3 -1.20804e-09 0)
(3 -1.48612e-09 0)
(3 -8.52742e-09 0)
(3 -9.95446e-09 0)
(3 -5.42237e-08 0)
(3 -5.98746e-08 0)
(3 -3.36306e-07 0)
(3 -3.13629e-07 0)
(2.99999 -2.08624e-06 0)
(2.99998 -1.21007e-06 0)
(2.99995 -1.30079e-05 0)
(2.99986 -5.07522e-06 0)
(2.99973 -8.34178e-05 0)
(2.9992 -3.1413e-05 0)
(2.99864 -0.000608584 0)
(2.99146 -5.13198e-06 0)
(2.98451 -0.00506002 0)
(2.9282 0.00862874 0)
(2.81856 -0.0135788 0)
(2.49043 0.0655114 0)
(1.49748 0.141975 0)
(0.596825 0.389486 0)
(0.285484 0.237687 0)
(3 -1.02196e-10 0)
(3 -5.78914e-10 0)
(3 -2.05561e-09 0)
(3 -5.38125e-09 0)
(3 -1.47358e-08 0)
(3 -3.50603e-08 0)
(3 -9.25031e-08 0)
(3 -2.18319e-07 0)
(3 -5.56174e-07 0)
(2.99999 -1.37055e-06 0)
(2.99999 -3.12769e-06 0)
(2.99996 -8.16417e-06 0)
(2.99992 -1.74665e-05 0)
(2.99979 -4.49575e-05 0)
(2.99957 -9.58381e-05 0)
(2.99872 -0.000223178 0)
(2.99752 -0.000532173 0)
(2.99138 -0.00130582 0)
(2.98341 0.000273327 0)
(2.94064 -0.000720734 0)
(2.85403 0.020628 0)
(2.59256 0.0534932 0)
(1.74905 0.167871 0)
(0.736855 0.433214 0)
(0.252833 0.222932 0)
(3 3.10347e-11 0)
(3 1.72888e-10 0)
(3 5.77626e-10 0)
(3 1.44495e-09 0)
(3 3.72353e-09 0)
(3 8.41218e-09 0)
(3 2.13126e-08 0)
(3 4.73591e-08 0)
(3 1.22811e-07 0)
(2.99999 2.70976e-07 0)
(2.99999 7.2207e-07 0)
(2.99996 1.57788e-06 0)
(2.99992 4.31722e-06 0)
(2.99979 9.10141e-06 0)
(2.99957 2.7213e-05 0)
(2.99878 5.13479e-05 0)
(2.99757 0.000197719 0)
(2.9923 0.000314157 0)
(2.985 0.00170953 0)
(2.94927 0.00297941 0)
(2.88309 0.0132993 0)
(2.66026 0.0369725 0)
(1.99737 0.0965209 0)
(0.880165 0.287766 0)
(0.177509 0.167687 0)
(3 1.82334e-10 0)
(3 1.02842e-09 0)
(3 3.55764e-09 0)
(3 9.16366e-09 0)
(3 2.42304e-08 0)
(3 5.61064e-08 0)
(3 1.43099e-07 0)
(3 3.24299e-07 0)
(3 8.26164e-07 0)
(2.99999 1.85614e-06 0)
(2.99999 4.68424e-06 0)
(2.99997 1.06021e-05 0)
(2.99993 2.53618e-05 0)
(2.99981 5.72615e-05 0)
(2.99961 0.000141252 0)
(2.99889 0.000272422 0)
(2.99777 0.000853604 0)
(2.99291 0.00196152 0)
(2.98617 0.00366337 0)
(2.95287 0.00818652 0)
(2.89395 0.0102079 0)
(2.68474 0.0240356 0)
(2.0732 0.0402026 0)
(0.960804 0.097569 0)
(0.161544 0.122976 0)
(3 2.14999e-10 0)
(3 1.04134e-09 0)
(3 3.97997e-09 0)
(3 9.28148e-09 0)
(3 2.64544e-08 0)
(3 5.50328e-08 0)
(3 1.51287e-07 0)
(3 3.0355e-07 0)
(3 8.44969e-07 0)
(3 1.62563e-06 0)
(2.99999 4.71613e-06 0)
(2.99998 8.25651e-06 0)
(2.99996 2.57294e-05 0)
(2.9999 4.04718e-05 0)
(2.99977 0.000133536 0)
(2.99946 0.000203717 0)
(2.99923 0.000696913 0)
(2.99511 0.00111541 0)
(2.99153 0.00560707 0)
(2.95624 0.00275321 0)
(2.9017 0.0309532 0)
(2.69246 -0.00745144 0)
(2.09087 0.0593211 0)
(0.987034 0.0215928 0)
(0.206605 0.0648463 0)
(3 1.04521e-10 0)
(3 5.99963e-10 0)
(3 1.96894e-09 0)
(3 4.9786e-09 0)
(3 1.18984e-08 0)
(3 2.61874e-08 0)
(3 5.70355e-08 0)
(3 1.19314e-07 0)
(3 2.43696e-07 0)
(3 4.91643e-07 0)
(2.99999 9.31529e-07 0)
(2.99999 1.78038e-06 0)
(2.99996 3.56462e-06 0)
(2.99991 4.58098e-06 0)
(2.99976 1.49419e-05 0)
(2.99943 1.55767e-05 0)
(2.99866 0.000106588 0)
(2.99791 0.000184446 0)
(2.98767 0.000672776 0)
(2.97893 0.00115434 0)
(2.8817 0.0022305 0)
(2.68666 0.0040045 0)
(2.16435 0.00939931 0)
(0.781963 0.0218749 0)
(0.0632959 0.0422256 0)
(3 1.9685e-11 0)
(3 2.91918e-10 0)
(3 5.50028e-10 0)
(3 2.32864e-09 0)
(3 3.20725e-09 0)
(3 1.26089e-08 0)
(3 1.30529e-08 0)
(3 6.12184e-08 0)
(3 3.38713e-08 0)
(3 3.08416e-07 0)
(2.99999 -9.66889e-08 0)
(2.99998 2.0048e-06 0)
(2.99996 -1.88173e-06 0)
(2.99991 1.07937e-05 0)
(2.99978 -3.16142e-06 0)
(2.99955 3.26595e-05 0)
(2.99939 0.000127626 0)
(2.99568 0.000774059 0)
(2.99252 -0.00202446 0)
(2.95774 0.00520021 0)
(2.90451 -0.0229033 0)
(2.699 0.0244766 0)
(2.11111 -0.0372316 0)
(1.02801 0.0231918 0)
(0.244593 0.0260996 0)
(1.12939 1.19171 0)
(1.3885 1.08837 0)
(1.29604 0.935787 0)
(0.744538 0.720603 0)
(-0.10798 0.571145 0)
(-0.302478 0.027738 0)
(-0.262025 0.025131 0)
(-0.41849 0.016155 0)
(-0.533425 0.0122635 0)
(-0.61407 0.0146243 0)
(-0.677388 0.0168656 0)
(-0.740856 0.0168748 0)
(-0.80596 0.0142125 0)
(-0.867619 0.0100472 0)
(-0.922945 0.00541913 0)
(-0.970965 0.00120585 0)
(-1.01249 -0.00196266 0)
(-1.05018 -0.00346734 0)
(-1.08717 -0.00432967 0)
(-1.12504 -0.00444223 0)
(-1.1579 -0.00237496 0)
(-1.17824 -0.00122409 0)
(-1.18809 -0.0013466 0)
(-1.19189 -0.00208025 0)
(-1.18511 -0.00294774 0)
(-1.16275 -0.00423494 0)
(-1.12661 -0.00571119 0)
(-1.07928 -0.00710386 0)
(-1.02451 -0.00806157 0)
(-0.965569 -0.00840858 0)
(-0.904632 -0.00844998 0)
(-0.842903 -0.00843077 0)
(-0.781493 -0.0084197 0)
(-0.721399 -0.00844526 0)
(-0.663182 -0.00854901 0)
(-0.606627 -0.008859 0)
(-0.551698 -0.00932309 0)
(-0.497895 -0.010054 0)
(-0.445649 -0.0111721 0)
(-0.393766 -0.0132609 0)
(-0.341754 -0.0162624 0)
(-0.289676 -0.0192078 0)
(-0.238484 -0.0210825 0)
(-0.187762 -0.0229693 0)
(-0.137807 -0.0250625 0)
(-0.0874751 -0.0277498 0)
(-0.0370215 -0.0308717 0)
(0.0258504 -0.034219 0)
(0.0562846 -0.0295985 0)
(0.0982315 -0.0281133 0)
(0.14054 -0.0272696 0)
(0.1816 -0.0265553 0)
(0.221776 -0.0259563 0)
(0.260944 -0.0253369 0)
(0.29941 -0.0247282 0)
(0.336878 -0.0240329 0)
(0.372834 -0.0231951 0)
(0.407451 -0.0223878 0)
(0.441933 -0.0217191 0)
(0.476953 -0.0212522 0)
(0.511827 -0.0206163 0)
(0.545955 -0.0198849 0)
(0.579298 -0.0190961 0)
(0.611969 -0.0182873 0)
(0.644109 -0.0174982 0)
(0.675782 -0.0167206 0)
(0.707046 -0.0159731 0)
(0.737907 -0.0152374 0)
(0.768405 -0.0145312 0)
(0.798536 -0.0138377 0)
(0.828333 -0.013168 0)
(0.857788 -0.01251 0)
(0.886926 -0.0118702 0)
(0.915736 -0.0112418 0)
(0.944235 -0.0106282 0)
(0.972415 -0.0100295 0)
(1.00029 -0.00944211 0)
(1.02785 -0.00887085 0)
(1.05512 -0.00830947 0)
(1.08208 -0.00776059 0)
(1.10874 -0.0072205 0)
(1.13508 -0.00669247 0)
(1.16109 -0.00617344 0)