/*--------------------------------*- C++ -*----------------------------------*\
  =========                 |
  \\      /  F ield         | OpenFOAM: The Open Source CFD Toolbox
   \\    /   O peration     | Website:  https://openfoam.org
    \\  /    A nd           | Version:  6
     \\/     M anipulation  |
\*---------------------------------------------------------------------------*/
FoamFile
{
    version     2.0;
    format      ascii;
    class       surfaceScalarField;
    location    "30";
    object      phi;
}
// * * * * * * * * * * * * * * * * * * * * * * * * * * * * * * * * * * * * * //

dimensions      [0 3 -1 0 0 0 0];

internalField   nonuniform List<scalar> 
1300
(
3.75095
5.62643
-4.67065
3.75095
-5.03709
5.62643
-4.35532
4.35532
-1.08324
1.08324
1.87649
1.87446
-2.76807
2.76807
-2.23827
2.23827
-2.57335
2.57335
-5.24797
5.24797
-5.06887
5.06887
4.72012
-4.72012
-4.64987
4.64987
-1.42495
1.42495
-3.76022
3.76022
3.17327
-3.17327
-2.49173
2.49173
-0.311279
0.311279
-0.554058
4.30501
3.1969
3.1969
-2.09394
2.09394
-4.87174
4.87174
6.22263
-6.22263
6.56197
-6.56197
-1.89132
-3.32515
1.56294
-10.0875
-3.47415
-3.47415
-8.44102
8.44102
-2.81459
2.81184
2.94349
-2.94349
-1.73524
1.73524
-4.34998
-0.00533745
-4.34998
4.32938
0.0259357
4.32938
-1.1955
0.112259
-1.1955
3.90969
-3.90969
0.922942
0.160297
0.922942
3.06641
-3.06641
-1.87687
3.75337
1.87408
-1.87208
6.17709
-1.87887
3.75333
-5.95753
5.95753
-2.97031
0.202243
-2.97031
2.52811
0.239959
2.52811
-6.71383
6.71383
-2.23657
-0.0017078
-2.23657
2.22542
0.0128558
2.22542
2.87176
-2.87176
-2.66021
0.0868615
-2.66021
2.45847
0.114884
2.45847
0.353477
5.27295
-5.97991
8.79174
-5.27295
0.0249788
5.2103
0.037672
5.2103
-5.10506
0.036197
-5.10506
5.01225
0.0566105
5.01225
4.81539
-0.0952671
4.81539
-4.83394
0.113819
-4.83394
-2.87575
-5.07164
-5.40388
0.754004
-5.40388
-1.42745
0.00249908
-1.42745
1.39036
0.0345923
1.39036
-3.58327
3.58327
-4.09169
0.331478
-4.09169
3.12818
0.0450927
3.12818
1.86813
1.88283
5.61908
-5.61908
2.44581
-2.31343
-0.1783
-2.31343
-2.73494
-3.82703
2.73494
-0.243208
-0.570513
0.259234
-0.570513
3.15691
0.0399892
3.15691
2.3142
0.14427
-2.3142
0.220262
3.23705
-3.23705
1.44912
0.644818
1.44912
-5.56076
5.56076
4.96001
0.0522416
-4.96001
0.0882767
6.15716
0.0654753
6.15716
-6.20791
-0.0147211
-6.20791
1.82583
-5.15098
-4.01262
3.88147
0.768407
-3.88147
0.407321
2.91303
0.0304576
2.91303
-2.92358
2.92358
-2.98201
0.0385195
-2.98201
-2.16261
0.427367
-2.16261
1.41493
0.320317
1.41493
-4.22791
-0.122071
-4.22791
-4.23589
0.144199
4.23589
0.0934895
1.01968
-1.01968
-1.26769
0.0721962
-1.26769
-4.03717
-0.190742
4.03717
-0.127483
-3.83426
-0.075428
-3.83426
-3.02049
0.0384767
3.02049
0.0459235
3.11174
0.0451666
-3.11174
0.0453308
-1.87092
3.75375
-1.88003
3.75411
-5.58996
-0.367571
-5.58996
6.27022
-0.312688
6.27022
3.34478
0.41544
-3.34478
0.374463
2.32665
0.201458
2.32665
-6.70261
-0.0112197
-6.70261
6.68641
0.0274249
6.68641
2.23253
0.0941245
-2.23253
-0.00403706
2.23241
-0.00699707
2.23241
2.88755
-0.015793
2.88755
-2.87022
-0.00153861
-2.87022
2.80437
-2.80437
2.73668
0.0676852
-2.73668
0.0764692
-11.1237
11.109
-0.036214
-11.0875
5.17409
5.17409
4.27099
0.544397
4.27099
-5.02237
0.188429
-5.02237
2.10338
-6.116
4.79743
-7.67318
4.89454
-14.982
3.48343
-8.55506
6.3763
-6.3763
6.01171
0.364593
-6.01171
0.607833
-1.43455
0.00709795
-1.43455
-2.97736
-0.605905
-2.97736
4.24162
-0.658351
4.24162
-3.02934
3.02934
-3.07741
0.0480735
3.07741
0.0507623
2.22245
0.00996772
-2.22245
-0.0909818
0.744085
0.178857
-0.744085
0.173572
3.45936
-0.222311
3.45936
-3.04277
-0.194279
-3.04277
-1.44623
0.0116795
1.44623
0.00289032
-5.80917
0.248406
-5.80917
-11.1815
0.0940421
-11.1439
-6.11387
-6.11387
2.32715
11.1189
-2.88904
0.0188233
2.88904
0.0239881
2.97787
0.0514727
-2.97787
0.0542871
-2.86582
0.0614492
2.86582
0.0577632
-2.53488
0.37227
-2.53488
-1.01475
1.01475
-1.17897
0.164216
1.17897
0.235956
1.28214
-0.262462
1.28214
1.33952
0.050842
-1.33952
0.0718244
-3.77539
-0.0588642
-3.77539
6.50277
-0.232554
6.50277
-2.93159
-0.11118
2.93159
-0.0440373
-0.0349588
11.144
-5.13913
0.0340675
5.13913
-11.2094
11.2435
-3.24562
0.710737
3.24562
1.02537
5.28736
0.273395
-5.28736
0.264997
6.57981
0.106595
-6.57981
0.20351
-2.47519
-0.502174
-2.47519
-4.98679
-0.603169
4.98679
-0.745168
-11.4827
-0.201613
11.6843
-11.4261
6.01078
0.146382
-6.01078
11.3899
-0.944298
-0.0753791
0.944298
0.0704565
1.61117
-0.329027
1.61117
3.67751
-0.218156
-3.67751
-0.0978785
-6.61646
-0.0861537
6.61646
-0.113689
-2.03629
-0.4389
2.03629
-0.425122
-4.26711
4.3071
1.90998
-1.30087
-3.85011
-5.1279
1.85425
1.8995
4.30006
-9.71685
-5.26516
-9.30953
7.21457
-6.94957
-9.36967
9.27441
7.63071
-7.70613
-5.77818
5.82894
6.48355
-6.43763
1.8795
1.87386
7.96414
-7.7619
-15.7424
15.3749
7.37479
-7.3765
15.825
-15.8363
-17.8005
17.9071
-5.72532
5.81219
-6.72026
6.71873
-6.90843
6.86439
-1.75614
-5.91704
13.272
-12.518
6.80516
-6.98346
-8.56382
8.89529
3.38471
0.922393
3.42987
-1.88197
3.76147
-1.87137
3.78135
4.39544
-6.15158
1.72056
-5.57067
3.46227
3.34289
-3.21906
-1.90884
-5.92168
5.95214
-5.81712
5.87488
8.96421
-8.96955
-1.88538
3.75924
-1.86874
3.76824
-3.42339
-2.3548
3.37829
0.921762
7.48928
5.78276
-8.25768
-1.05184
-7.80895
7.5908
-8.07497
7.8807
-0.44082
5.83787
-5.39705
4.43092
-1.65089
7.48875
5.56368
5.75211
5.86056
-5.58717
1.08901
-6.48606
-6.39778
-2.59254
2.66474
2.56112
-2.40082
5.96316
1.66755
5.83567
-5.61307
-2.09306
-5.67194
3.82066
2.00828
3.86873
4.07983
2.40372
4.11831
3.03036
-3.03555
0.00518919
-3.0589
6.08926
0.723689
-5.41369
-4.49193
4.94992
3.01422
5.18988
-5.57557
-2.18633
-5.2011
-9.58592
-6.1565
-10.1891
10.1624
5.21249
9.84967
-11.9851
11.8714
4.4687
2.9061
4.48155
-4.89544
-2.48106
-4.89947
11.6325
-2.5171
-9.11543
-10.2972
-7.5033
10.2698
5.55529
10.8588
7.0483
11.0623
4.39739
7.23514
-9.95268
2.44938
-3.86684
-1.85849
-3.79037
3.69166
2.12052
3.80655
-4.21338
-2.50689
-4.19455
-4.27561
-2.63282
4.2914
2.42732
-4.36028
-3.7147
4.47146
2.39293
4.98811
-10.2533
3.56695
-9.48399
-9.3342
-3.18383
-8.72636
5.44546
1.78329
-7.22875
-0.706124
8.18564
-4.84275
6.2768
-4.06434
-2.91912
-4.15532
-6.86857
-1.69525
-6.72437
-8.97118
8.469
-9.24783
8.58948
12.7457
-5.71416
-7.03153
-3.96665
-2.47098
3.92132
-0.491445
-3.71135
3.71654
0.0501236
3.83147
4.75386
4.26242
-3.88453
-1.9326
-3.83024
3.82905
2.04584
3.8905
6.73707
2.22714
6.76301
-6.43205
-2.53749
-6.55412
9.14628
-8.71891
2.91417
-2.90249
5.24472
2.63598
-5.02241
-2.78655
6.21963
-3.11592
-3.10371
-12.365
10.8659
1.49915
-4.87625
-0.445338
-0.134059
-5.58959
-3.78008
5.47577
0.276337
11.1422
7.36212
-5.51509
5.76349
6.16921
6.22146
-0.176324
5.9245
-5.21376
5.35544
-2.49019
-2.86525
5.31276
-5.5035
-1.24137
-5.34801
4.10664
0.332175
1.7704
-1.51116
-2.04152
-0.551024
-1.96969
1.50272
1.0584
1.68158
0.942201
1.72254
-2.94348
0.56603
2.37745
-2.00128
-1.83479
-3.6371
-1.02672
4.66382
5.53426
2.05654
-5.43638
-0.235557
2.76661
-2.73202
-0.820566
-2.81654
2.07689
-2.89746
-3.48791
-1.85561
5.34353
-3.36938
-0.460861
3.3179
0.550831
-3.82593
-2.09575
3.78741
0.3309
-3.12532
6.18981
-3.06449
-5.05792
2.5301
3.55915
4.53839
-4.79195
2.44782
2.34413
-1.2328
4.24871
0.941162
4.45017
-6.89807
4.71174
5.70622
3.18908
-6.12166
0.920555
-5.97752
8.38694
-7.21885
-1.16809
3.90752
4.47942
7.15067
5.59502
-5.74956
12.9002
-1.01941
-6.19944
6.99693
-3.80785
4.72363
-8.53148
-10.3187
4.11921
-9.31717
11.0458
-1.72867
-3.60361
-8.38152
12.9208
-1.2356
-11.6852
8.61408
-4.30985
-4.41901
8.72887
-6.82696
6.90008
-2.0226
-4.87747
-10.1358
-5.7005
10.2219
1.64953
-10.2697
12.719
-3.03452
3.52121
0.96034
3.51422
3.30999
-5.43057
2.12057
3.51696
-5.53957
2.12381
-7.55438
-7.61003
13.2231
-5.61302
-10.7939
-10.0552
-0.738639
2.53218
10.1869
-9.58048
7.3547
2.22578
3.3053
0.5852
-3.37298
-0.417387
0.281147
4.53599
-4.81714
4.0877
4.23197
3.33172
1.20428
3.84483
2.10731
-3.86882
-0.325735
-4.14758
1.51476
-1.72025
-3.64377
5.15853
-4.06963
0.425852
-2.72681
-3.51491
6.24172
-4.5853
3.03967
3.15014
5.08551
-4.90934
1.39443
-2.40064
-2.5087
2.6752
-4.39545
1.93536
3.22317
4.3283
0.6136
7.30788
5.91518
-9.09117
-0.392824
11.6979
-10.6461
2.6812
8.3811
-10.0359
-0.0193255
-8.74569
0.657247
-5.49999
-6.5715
5.0889
-6.78415
-3.44258
6.1953
0.567703
-6.28879
-0.435576
-6.07529
-2.89589
-6.51419
-3.07416
-6.17367
-8.82372
-1.68943
-7.13429
6.77957
-6.69211
-3.49697
7.43728
1.1522
-7.46305
7.38767
-7.54335
7.21433
0.0940896
3.62245
4.35651
1.88553
-2.38965
4.27518
-5.01806
7.2452
-8.55289
3.53482
4.05378
-6.59127
-4.49911
5.07609
4.07019
5.39641
9.0022
-10.5136
1.51138
-10.8198
12.1583
-1.33845
-16.6299
5.81005
-7.62767
2.64998
0.264194
2.65708
0.669425
2.41324
-3.08266
-2.23307
-2.23018
-2.33917
-3.43224
5.7714
1.13172
-3.35842
2.2267
-3.47944
4.61116
0.0333031
-3.39172
5.22747
-2.81423
5.49166
-3.44614
2.04552
3.40541
5.73089
-2.32548
4.36336
-1.72738
1.85542
-4.1809
-1.57682
-2.98116
5.10168
-3.26056
3.68641
-0.284538
3.97095
-4.0689
0.952983
-0.737184
3.49478
3.71504
4.31473
-3.11045
2.96989
-4.69727
-1.21101
-4.08367
-0.860501
-0.218044
-3.87429
4.09234
6.08639
-6.30444
-5.3143
9.58068
-4.26638
7.73645
-5.46698
-2.26947
-4.31622
-4.40269
3.94395
1.98054
9.71699
0.177672
-5.64465
-5.03609
-4.01071
3.22394
2.1315
-1.93522
3.43437
2.06928
-0.298887
0.56553
1.11605
1.86318
-1.29765
0.22154
1.64164
-1.28962
2.00609
0.76052
-2.05693
0.0872396
-1.34044
3.41734
1.03701
-2.0954
0.797755
1.01092
-3.50111
4.80188
-2.51672
-2.28516
5.8128
1.15612
-3.67284
4.19189
-3.85971
2.36178
-3.3885
-1.31106
-5.17077
-3.50323
-2.4998
4.7265
-3.2716
5.32814
1.23859
-5.09258
6.33117
-3.52063
1.66502
-3.0636
3.82412
-1.09053
-1.97308
2.85497
2.48856
-2.98159
0.165051
-0.12662
2.33764
-2.46426
-0.559822
-2.5611
-4.57284
4.90374
-2.10605
4.55388
2.16912
-1.91457
6.46844
1.81107
-3.72564
-3.24684
-3.70771
-1.38151
3.15687
-0.59253
-4.30694
-5.47
4.21282
0.237353
-6.85424
7.70724
-0.853002
-3.84002
-0.871725
4.77924
-6.05392
0.51435
-3.93011
3.77714
4.7183
4.95565
-11.4476
-0.237566
-6.23513
1.11495
-7.35008
5.59437
-3.64286
7.76207
-10.4096
6.9126
-9.25738
6.59398
-0.756094
6.24612
-4.12554
2.86931
-8.56981
-6.92029
5.55416
-2.64807
6.5145
-3.04628
9.56078
-6.0808
4.91852
4.64226
-0.868754
-3.28657
-5.15613
4.28738
-0.237614
3.2766
4.97734
-2.87003
4.6516
2.25073
-4.65138
-2.14472
-6.49205
1.84068
-3.34191
-1.91521
3.75588
3.1703
3.7555
1.24718
-3.33811
8.31352
-9.05216
-2.7005
-3.871
4.92259
-0.635208
3.49653
-7.36753
-2.00347
4.84624
-0.763475
-4.08276
0.867925
-4.31051
1.65081
-5.96132
5.13333
-5.56891
2.22785
-9.85552
-5.2352
-5.16475
-2.26551
-5.27785
-7.65741
5.3919
-1.84736
5.54031
-8.66088
7.89741
-3.49739
8.88929
-5.46323
-1.05095
5.88836
1.32597
10.2153
0.116027
-4.61514
-1.93696
3.87085
-1.93389
1.28697
-3.75826
0.112588
2.44919
3.3636
-6.55583
-0.0354375
-4.65058
-3.92144
7.99164
5.65923
11.7456
1.23205
9.19592
-1.20428
10.428
4.19212
4.42808
-3.06533
4.57671
1.027
4.56183
-0.827013
2.87253
1.83007
1.83256
0.899453
2.29818
1.41686
3.25117
0.168503
-2.06168
4.65801
-8.66872
-0.986642
-8.12432
1.15008
5.42145
-4.27136
3.0344
-0.902898
1.10051
0.0746045
-1.64476
1.57016
-2.79064
-1.94365
-0.302009
-1.57022
2.36798
1.84711
-2.06597
-0.724673
0.267874
-3.7711
3.12062
-2.95557
-0.467015
5.86416
-2.73756
0.273303
-1.07254
-2.2878
-2.83882
2.75158
6.17471
0.293738
3.11022
5.19748
3.10173
0.231697
3.947
-5.67567
-3.60737
-5.91323
-0.318864
4.46038
1.52098
8.66588
6.16324
5.52803
-1.83949
-10.8917
6.57183
-1.99513
5.23338
-1.15062
-4.8107
5.00728
2.23792
-5.57499
0.00607605
-4.80462
-6.79975
-0.500857
8.39827
-9.71441
8.66345
5.76756
1.36673
-4.4389
-0.725845
4.27468
0.153395
10.5814
-0.896733
-7.19238
8.08912
-4.52471
3.53807
0.763981
2.67039
2.33414
1.43124
-5.76114
-10.0325
-1.86504
-1.63607
-4.1502
0.513626
-2.36074
6.11342
-2.57535
3.84395
5.51377
6.61428
-2.07208
-4.23236
6.33845
-2.4945
4.11977
)
;

boundaryField
{
    wall-4
    {
        type            calculated;
        value           uniform 0;
    }
    velocity-inlet-5
    {
        type            calculated;
        value           uniform -3.75095;
    }
    velocity-inlet-6
    {
        type            calculated;
        value           uniform -5.62643;
    }
    pressure-outlet-7
    {
        type            calculated;
        value           nonuniform List<scalar> 8(4.67065 5.03709 5.21648 8.52453 7.94738 5.83844 6.90082 8.37796);
    }
    wall-8
    {
        type            calculated;
        value           uniform 0;
    }
    frontAndBackPlanes
    {
        type            empty;
        value           nonuniform 0();
    }
}


// ************************************************************************* //
