/*--------------------------------*- C++ -*----------------------------------*\
  =========                 |
  \\      /  F ield         | OpenFOAM: The Open Source CFD Toolbox
   \\    /   O peration     | Website:  https://openfoam.org
    \\  /    A nd           | Version:  6
     \\/     M anipulation  |
\*---------------------------------------------------------------------------*/
FoamFile
{
    version     2.0;
    format      ascii;
    class       volVectorField;
    location    "30";
    object      U;
}
// * * * * * * * * * * * * * * * * * * * * * * * * * * * * * * * * * * * * * //

dimensions      [0 1 -1 0 0 0 0];

internalField   nonuniform List<vector> 
918
(
(0.985035 -0.000710184 0)
(0.00533601 2.96625 0)
(-0.0609919 1.22653 0)
(0.979571 0.00195569 0)
(0.0169727 1.30518 1.46335e-19)
(-0.00708202 2.94856 -2.2906e-18)
(0.827475 1.14733 5.80798e-19)
(0.375499 0.145937 -1.20157e-20)
(0.999917 -0.000263545 0)
(0.0852955 0.793739 0)
(-0.00449302 0.619056 0)
(0.7381 -0.0104759 0)
(0.0102096 2.93156 0)
(0.0036888 2.79392 0)
(-0.000755543 3.19273 9.85415e-19)
(-0.115312 1.44612 8.50807e-20)
(0.441961 0.0401 7.72847e-19)
(0.237122 1.1724 5.11769e-19)
(0.964495 0.0066422 0)
(-0.0346841 0.712077 0)
(0.109711 0.204656 -5.7165e-19)
(1.00188 -0.00452934 0)
(0.999859 -0.00894414 0)
(0.975157 -0.00606777 0)
(0.612579 -0.0462497 0)
(0.0230536 2.64324 0)
(-0.0123494 2.91202 8.17232e-19)
(-0.122868 1.08819 0)
(-0.187533 1.37624 0)
(-0.0812845 1.16643 0)
(-0.069285 2.32025 0)
(0.0814524 1.41742 -1.15352e-19)
(0.025921 1.00007 0)
(-0.0221612 2.9876 -8.17388e-23)
(-0.0165076 3.0055 1.78006e-18)
(0.00230044 3.0006 0)
(0.870697 -0.00912738 0)
(0.376293 0.921069 5.68845e-20)
(0.830088 1.15874 -7.99288e-19)
(0.967902 1.01303 7.63732e-19)
(0.694312 1.24292 -1.34595e-19)
(0.706278 1.2158 7.64796e-19)
(0.406694 0.243083 1.1723e-20)
(0.398454 0.129739 0)
(1.15476 0.52037 0)
(0.368136 0.248934 5.36719e-20)
(0.33835 0.156502 -5.57002e-20)
(0.920261 -0.00682078 0)
(1.00026 7.085e-05 0)
(0.999909 0.000317186 0)
(1.00372 -0.00729675 0)
(1.00089 -0.000934883 0)
(1.0001 -1.58074e-05 0)
(0.0952341 1.79755 -4.68404e-19)
(0.0324536 0.944331 0)
(0.110813 0.855414 0)
(0.0390914 0.869348 0)
(0.040703 0.710677 0)
(0.0152558 2.00235 0)
(-0.00653701 0.763885 0)
(-0.001968 0.605628 0)
(-0.0146117 0.756652 0)
(-0.020745 0.613888 0)
(0.838142 -0.0124155 0)
(0.852011 0.0272523 0)
(0.769911 -0.00254164 0)
(0.828516 0.0366982 0)
(0.703568 -0.0158532 0)
(0.0139527 3.0002 8.46058e-19)
(0.0111821 3.00591 0)
(0.00628735 3.0039 0)
(0.0119069 2.99709 9.54568e-24)
(0.00828132 2.95874 -1.25745e-18)
(0.012229 2.98295 0)
(0.0090054 2.90476 0)
(0.0214011 2.9317 1.86291e-24)
(0.00404355 2.82368 0)
(0.0257478 2.91841 0)
(-0.00132667 2.7444 0)
(0.310571 3.59352 0)
(-0.122871 3.67691 0)
(0.152792 3.28396 -9.17142e-19)
(0.00634044 3.01612 0)
(-0.290025 2.12536 0)
(-0.12087 1.65681 -8.01947e-20)
(-0.111737 1.67211 5.25671e-20)
(0.513485 0.136704 -2.6614e-19)
(0.443746 0.0093846 -2.56426e-19)
(0.491585 0.162526 -8.05088e-19)
(0.42617 0.0584697 -5.34819e-19)
(0.253969 0.955581 0)
(0.339747 1.30862 -5.13899e-19)
(0.424379 1.2033 8.40337e-19)
(0.988008 0.00807024 0)
(0.943563 0.00597572 0)
(1.00029 0.000675228 0)
(1.00254 0.0090742 0)
(1.00317 0.00887931 -1.78747e-18)
(0.992124 0.00953202 1.35076e-18)
(-0.0283868 0.799314 0)
(-0.00815951 0.644066 0)
(-0.118429 1.07181 0)
(-0.0386549 0.857192 0)
(-0.019409 0.786047 0)
(0.147611 0.216269 1.77161e-19)
(0.196105 0.192827 0)
(0.993615 -0.00769609 0)
(0.953992 -0.00646315 0)
(0.783378 0.045503 0)
(0.726256 0.0520588 0)
(0.661345 -0.0279066 0)
(0.960564 -0.00257055 0)
(0.667207 0.0500102 0)
(0.496659 -0.0399856 1.07219e-18)
(-0.0407885 2.86178 5.79211e-19)
(0.0340704 2.91383 0)
(0.0428194 2.89149 0)
(0.00372918 2.7008 0)
(-0.00879556 2.98656 7.74582e-19)
(-0.0143354 2.89491 0)
(-0.0109445 2.99195 -2.40043e-18)
(-0.0116455 2.9298 8.19185e-19)
(-0.284242 1.37953 0)
(-0.288981 1.55313 0)
(-0.0638402 1.4482 5.06125e-21)
(0.010186 1.336 0)
(-0.0301647 1.17718 0)
(0.9378 -0.00542857 0)
(0.855079 -0.00994932 0)
(0.864639 0.0068064 0)
(0.948782 -0.00641915 0)
(0.882708 -0.00763088 0)
(0.501279 1.1222 -7.89582e-20)
(0.549111 1.19319 0)
(0.336819 0.853817 1.72082e-20)
(0.280026 0.719393 0)
(0.927837 1.04894 -2.19831e-19)
(1.04328 0.848664 4.39618e-19)
(0.401151 1.34524 0)
(0.552774 1.30652 0)
(0.587791 1.24871 0)
(0.0878766 0.164023 -2.06522e-19)
(0.431271 0.222009 0)
(0.401333 0.115524 1.52651e-19)
(1.00537 0.902791 0)
(1.07426 0.74384 0)
(1.10425 0.677041 -3.67121e-19)
(1.1334 0.588025 0)
(1.18822 0.377451 4.5948e-20)
(0.956967 -0.00713737 0)
(0.9625 -0.00805865 0)
(0.900381 -0.00714382 0)
(0.983878 -0.00812611 0)
(0.97429 -0.00799501 0)
(0.936401 -0.00652562 0)
(1.0002 0.00249658 0)
(1.00079 0.00126322 0)
(0.999988 0.000789038 0)
(0.0389294 2.06042 2.73255e-19)
(0.149979 1.74396 0)
(0.0153665 2.17839 3.51359e-19)
(0.0540876 1.85327 -2.56451e-19)
(0.168961 1.14893 -4.22228e-19)
(0.0581356 1.0137 0)
(0.12043 1.01178 0)
(0.0304883 0.826811 0)
(0.0400906 0.635854 0)
(-0.0155815 2.18906 1.12166e-21)
(0.02261 2.00085 0)
(-0.0225477 2.15576 7.73086e-20)
(0.0146456 2.01455 -1.60686e-19)
(0.0115016 0.786535 0)
(-0.0166339 0.771358 0)
(0.00467535 0.601094 0)
(-0.0145731 0.753409 0)
(-0.0279192 0.621497 0)
(0.933762 0.0116815 0)
(0.847727 -0.0121154 0)
(0.92529 0.00431678 0)
(0.842127 -0.00990029 0)
(0.815143 0.00285849 0)
(0.903047 0.0189179 0)
(0.880299 0.0232918 0)
(0.791108 0.00082687 0)
(0.0102827 3.06779 -7.68772e-21)
(0.0148435 3.05914 0)
(0.0124332 2.97031 0)
(0.00759544 2.8767 0)
(0.901943 3.99277 0)
(1.19777 3.3862 9.86241e-19)
(0.0834016 3.09757 0)
(-0.0152596 2.92189 0)
(-0.357132 1.61736 0)
(-0.363341 2.04865 0)
(-0.34066 1.83919 0)
(-0.165725 2.35471 -7.93636e-20)
(-0.264979 2.27413 0)
(-0.205525 2.2308 0)
(-0.0305076 1.9552 -1.86077e-21)
(-0.08143 2.007 -7.03501e-20)
(-0.118585 1.85472 -5.63646e-20)
(-0.0964887 1.85353 0)
(0.527333 0.108709 3.99445e-19)
(0.443586 -0.00712427 -3.92036e-19)
(0.233509 1.56275 0)
(0.282064 0.697383 -2.6494e-19)
(0.178201 1.65704 -8.89179e-19)
(0.24079 1.16726 8.89455e-19)
(0.902346 0.00653391 0)
(0.96737 0.0102554 0)
(0.975163 0.00964982 0)
(0.92337 0.00620988 0)
(0.00283441 0.751115 0)
(-0.0136695 0.764255 0)
(-0.0217091 0.62442 0)
(0.319025 0.237942 4.89465e-19)
(0.260065 0.227981 -5.81098e-19)
(0.277398 0.170618 0)
(1.08697 0.0892485 8.57421e-21)
(1.07058 0.0425178 0)
(1.00059 0.0426987 0)
(0.898268 -0.000602756 0)
(0.547916 0.0854122 0)
(0.594348 0.0610889 -1.72552e-18)
(0.458855 -0.0171016 6.56952e-19)
(0.0111743 2.97777 6.43191e-19)
(-0.0323129 2.86262 4.75406e-20)
(0.00854472 3.05303 -1.63586e-20)
(0.0156548 3.04348 6.17341e-19)
(-0.0117921 2.99997 2.71018e-20)
(-0.0123461 2.95233 -1.09701e-22)
(-0.0150453 3.0133 -5.12066e-19)
(0.0142201 3.02673 3.59515e-19)
(0.00755391 3.03465 -5.80383e-19)
(0.932416 0.00160659 0)
(0.937876 -0.00126504 0)
(0.84491 -0.00926158 0)
(0.956962 0.011174 0)
(0.94358 0.0123715 0)
(0.88268 0.00671242 0)
(0.918893 0.0160335 0)
(0.927065 0.0138292 0)
(0.840172 0.00490233 0)
(0.675916 1.4235 1.6587e-19)
(0.69448 1.53496 0)
(0.129123 0.335028 4.58851e-20)
(0.180868 0.619183 3.59997e-19)
(0.227825 0.682152 -2.10129e-19)
(0.23384 0.541298 4.08499e-19)
(0.30928 0.766135 1.11972e-18)
(0.116502 0.208653 2.88239e-19)
(0.477167 0.191732 5.71718e-19)
(0.449983 0.211753 1.45193e-19)
(0.414209 0.0915808 2.84734e-19)
(1.17815 0.43944 1.98766e-19)
(1.19915 0.2418 2.04422e-19)
(0.000650665 2.21826 1.10132e-19)
(0.048664 1.92233 0)
(0.959154 0.0310068 0)
(0.936114 0.0163924 0)
(0.859905 -0.0141244 0)
(0.0124743 3.07436 0)
(0.0168894 2.94415 1.06432e-18)
(0.013956 2.9568 0)
(0.00582818 2.84985 -1.0559e-18)
(0.00943595 3.09113 2.57955e-19)
(0.0114214 3.08346 0)
(0.715939 1.83347 -2.14305e-19)
(1.24226 2.64188 7.17906e-19)
(0.70079 2.01247 -1.5403e-18)
(0.0226781 2.97681 -5.34587e-19)
(0.0416718 3.00068 0)
(-0.0379926 2.88032 0)
(-0.0285045 2.12885 2.08955e-21)
(-0.0415116 2.07521 1.51619e-19)
(-0.00729367 1.99556 3.43422e-21)
(0.2607 1.35403 8.55648e-19)
(0.248549 0.471484 -5.88458e-19)
(0.0681759 1.97436 5.9545e-19)
(0.121351 1.84626 -7.34199e-19)
(0.209862 1.49342 9.76787e-20)
(0.00833364 3.11908 -1.40874e-18)
(0.0159362 3.11998 1.551e-18)
(-0.00504331 2.98011 7.13955e-19)
(-0.000435444 2.97503 -6.729e-19)
(-0.0181407 2.87808 -7.27187e-19)
(0.0125322 3.0987 -1.90429e-18)
(0.00486652 3.10746 1.93062e-18)
(0.22543 0.643156 0)
(0.187368 0.621712 -7.646e-19)
(0.0700675 0.209262 3.37051e-19)
(0.329128 0.876443 8.67044e-19)
(0.177786 0.246443 -1.33018e-18)
(1.17747 0.173898 -1.03649e-20)
(1.19663 0.300494 0)
(1.17285 0.119856 6.79945e-20)
(-0.0130931 2.20622 6.07606e-22)
(-0.0057166 2.21155 0)
(0.0366376 1.95874 0)
(0.310128 1.28356 -3.05356e-19)
(0.342494 1.09978 -6.55097e-19)
(0.204321 0.348721 1.14988e-18)
(1.00643 -0.00975493 0)
(1.00776 -0.00782476 3.27568e-19)
(-0.279895 1.3826 0)
(-0.263557 1.2126 0)
(1.00243 0.00335101 1.4169e-21)
(1.00335 0.00811587 6.73512e-19)
(-0.172179 2.387 9.85993e-20)
(-0.180898 2.42815 0)
(0.0431131 3.17439 3.46788e-19)
(0.379961 3.55477 0)
(1.10624 0.687469 6.25617e-21)
(1.01195 0.0110518 -2.66894e-21)
(1.0208 -0.00923839 0)
(1.00161 0.000212932 1.5217e-22)
(0.107219 1.36343 0)
(0.139567 2.59682 0)
(0.0388089 1.28772 0)
(-0.00584288 2.6284 -9.51943e-20)
(-0.0266529 2.57658 -8.1646e-20)
(1.00321 0.0238006 2.57193e-21)
(1.06077 0.00324601 0)
(1.08863 0.0180736 0)
(-0.34828 2.0477 0)
(-0.224794 2.54298 0)
(-0.0719587 1.05817 0)
(0.273553 1.47592 -3.1076e-19)
(1.01143 -0.00915628 0)
(1.00968 -0.0131221 0)
(1.00232 0.000872516 4.20055e-19)
(1.0055 -0.0049623 -4.94441e-19)
(1.00113 -0.000951818 0)
(-0.364675 1.80862 0)
(-0.324796 1.41192 0)
(-0.341198 1.63986 0)
(-0.0816263 1.02715 0)
(-0.167574 1.06671 0)
(-0.0901255 0.973922 0)
(1.03465 -0.00546065 0)
(1.02007 0.0148139 -1.00052e-21)
(0.774042 1.29962 4.06867e-19)
(1.00228 0.000328081 -4.18716e-19)
(1.00344 0.00475237 5.01324e-19)
(1.00132 0.00212465 0)
(1.01156 0.00967768 4.1495e-19)
(1.00713 0.00748731 -5.08533e-19)
(1.00753 0.0114675 0)
(-0.232172 2.56431 0)
(-0.21687 2.52318 -2.56606e-19)
(-0.239791 2.49292 1.85383e-19)
(1.21089 0.270223 1.96439e-19)
(1.14361 0.0844619 0)
(0.0475164 3.09064 -7.79129e-19)
(0.0513424 2.87014 -5.65101e-20)
(0.106659 3.20221 1.02625e-18)
(0.125291 3.215 -1.82922e-19)
(0.147611 3.26306 0)
(0.023072 3.13787 2.07313e-19)
(0.0630037 3.16227 7.7476e-19)
(0.0637069 3.17967 -3.89216e-19)
(0.0273984 3.12904 0)
(0.658721 0.310281 0)
(0.594949 0.372407 0)
(1.09422 0.715412 -6.35364e-20)
(1.05884 0.856112 1.37528e-19)
(1.14973 0.606784 0)
(1.18179 0.541047 0)
(1.01578 0.0120493 -7.68317e-19)
(1.01476 0.0127738 9.64451e-19)
(1.0254 -0.00892884 0)
(1.02366 -0.0105935 0)
(1.00639 0.00253297 0)
(1.0109 0.00412929 0)
(1.00463 0.00205424 0)
(1.00959 0.00654921 0)
(1.00715 0.00518581 0)
(1.00456 0.00531841 0)
(0.0980042 1.35667 0)
(0.0833864 1.3285 0)
(0.129667 1.4059 0)
(0.123858 1.41674 0)
(0.15165 2.61873 0)
(0.193967 2.67909 -3.03967e-19)
(0.110926 2.67752 0)
(0.0836693 2.67837 5.99659e-20)
(0.029857 2.67913 2.74649e-20)
(0.0522222 1.2684 0)
(0.0500821 1.17344 0)
(0.0199849 1.32483 0)
(0.0144451 1.27568 0)
(-0.0269194 1.99141 1.137e-19)
(-0.0366044 2.60195 -1.27424e-19)
(-0.01612 2.66949 -1.51256e-19)
(-0.0250129 2.67125 0)
(-0.0531745 2.60579 2.34974e-19)
(-0.0436902 2.59506 1.38707e-19)
(-0.028062 1.9911 -8.63415e-20)
(-0.0337427 2.42502 1.70824e-19)
(-0.0176152 2.43104 1.71555e-19)
(1.01186 0.0341089 7.72776e-19)
(1.0073 0.016825 -9.62195e-19)
(1.00622 0.0395768 -7.94966e-19)
(0.983294 0.0270135 1.0063e-18)
(1.06165 0.00619371 0)
(1.04833 -0.00749435 0)
(1.08679 0.0268646 0)
(1.06985 0.0089206 0)
(1.06674 -0.000400574 0)
(1.12467 0.0691673 0)
(1.1006 0.036375 0)
(1.10145 0.0303125 0)
(-0.209158 2.43791 2.13955e-20)
(-0.348805 2.29172 0)
(-0.272317 2.31774 0)
(-0.195847 2.59701 -1.159e-19)
(-0.133598 2.54956 1.73467e-21)
(-0.287144 1.9713 -3.46264e-19)
(-0.313174 1.82388 3.42653e-19)
(-0.132104 1.36599 0)
(-0.262308 1.38987 0)
(-0.304292 1.42651 0)
(-0.0120862 1.05501 0)
(-0.0331207 0.955671 0)
(0.370366 1.49538 5.73632e-19)
(0.405329 1.50609 2.45259e-19)
(0.604187 2.46805 -1.99208e-19)
(0.394467 2.56384 5.61506e-19)
(0.354025 2.08614 5.12979e-21)
(1.0203 -0.00814091 0)
(1.01561 -0.00945231 0)
(1.01474 -0.0135419 0)
(1.00745 -0.00101872 0)
(1.00501 -0.000815057 0)
(1.00801 -0.00460746 0)
(1.00951 -0.00383718 0)
(1.01444 -0.00456162 0)
(1.02074 0.0154487 7.4692e-19)
(1.01793 0.0145353 -9.50179e-19)
(1.02123 0.017453 -7.51603e-19)
(1.01857 0.0156375 9.40781e-19)
(0.738709 1.34096 0)
(0.667791 1.3849 4.28954e-19)
(0.846383 1.21588 2.27622e-19)
(0.874742 1.19503 -3.02025e-19)
(1.16806 2.6244 -1.43561e-19)
(0.809014 0.107532 4.2717e-19)
(1.14799 0.098752 0)
(1.18539 0.1935 -1.58695e-19)
(1.16549 0.156032 -6.30074e-21)
(1.01413 0.141017 0)
(0.0900266 3.02766 1.23453e-19)
(0.0910556 2.90627 -9.10937e-19)
(0.0400832 2.36433 5.87321e-19)
(0.13679 -0.0349188 -2.81989e-19)
(0.347905 3.45728 -3.69326e-19)
(0.197987 3.34815 0)
(0.227858 3.40754 4.81087e-19)
(0.231663 3.0856 -6.97403e-19)
(0.265175 3.20505 0)
(0.00620208 3.12257 4.07459e-20)
(0.0176212 3.13115 -4.77125e-19)
(0.0160264 3.12699 7.02245e-19)
(0.0337176 3.14 0)
(0.031769 3.14998 0)
(1.26385 2.59207 0)
(0.521818 0.83416 -3.69861e-19)
(0.982082 1.03287 -1.03226e-19)
(0.959287 1.063 0)
(0.819332 0.951039 -2.58787e-20)
(1.04213 0.89391 2.79227e-20)
(0.405407 0.401461 -7.00781e-19)
(0.712632 0.324922 -2.48143e-20)
(0.691701 0.266612 3.13013e-19)
(0.608734 0.400723 2.34958e-20)
(0.525591 0.38208 -9.52916e-19)
(0.673936 0.335028 0)
(0.695788 0.426932 5.34176e-19)
(0.697135 0.42801 0)
(0.649445 0.379196 0)
(0.61475 0.316893 0)
(0.750739 0.641698 2.49438e-19)
(1.21443 0.295298 -1.66433e-19)
(1.19855 0.432279 0)
(1.20943 0.391573 0)
(0.769943 0.194868 4.70433e-19)
(0.810063 0.545498 -2.80288e-19)
(0.7373 0.510466 4.79861e-19)
(0.923746 0.416781 -4.87374e-19)
(1.0192 0.014108 5.09857e-19)
(1.01741 0.0134272 -5.15276e-19)
(1.01623 0.0140683 0)
(1.03605 -0.00535761 0)
(1.02983 -0.00818561 -4.77222e-19)
(1.02781 -0.0111027 4.7218e-19)
(1.02487 0.00986136 0)
(1.02321 0.0137071 0)
(1.01247 0.00426378 0)
(1.01452 0.0088495 0)
(1.01592 0.0038558 0)
(1.01506 0.00262438 0)
(0.07726 1.34495 0)
(0.0724406 1.31244 0)
(0.154362 1.38189 2.12699e-19)
(0.252283 1.47016 1.64226e-19)
(0.147217 1.44544 3.59822e-19)
(0.173116 1.4518 -5.8911e-19)
(0.152815 1.3917 0)
(0.114599 1.58182 8.44367e-20)
(0.125149 1.55997 0)
(0.347069 2.04901 -7.46565e-21)
(0.342741 2.36006 4.1823e-19)
(0.164597 1.45225 -7.37457e-20)
(0.253909 1.36256 1.12966e-19)
(0.178024 1.37237 -9.21905e-20)
(0.274493 1.29524 1.28766e-19)
(0.23772 1.5757 0)
(0.252829 1.62623 -6.7446e-20)
(0.0262553 2.28752 5.34072e-20)
(0.0341565 2.67899 0)
(0.0652268 2.42286 -6.10806e-20)
(0.0485722 2.44634 0)
(0.0678482 2.69109 -6.76035e-20)
(0.0441383 2.70753 0)
(0.0437763 1.44758 2.07634e-19)
(0.00975115 1.48676 0)
(0.0180816 1.4008 0)
(0.0422007 1.4013 -2.25266e-19)
(-0.00755659 2.65766 -9.08162e-21)
(0.0186884 2.70808 -5.19393e-20)
(0.00121207 2.72733 -4.84413e-22)
(0.0521618 1.89914 -1.37916e-19)
(-0.00227478 1.6609 -5.18699e-20)
(0.0471167 1.15696 0)
(0.0399499 1.04603 0)
(0.0182155 1.58058 -2.52024e-19)
(0.0211336 1.45423 -2.47854e-19)
(0.0290627 1.52035 3.14781e-19)
(0.0285708 1.61145 0)
(-0.202052 2.4755 6.53952e-19)
(-0.208057 2.60716 -2.79941e-19)
(-0.131642 2.56713 5.94219e-20)
(0.00362536 1.93102 1.66723e-19)
(-0.087151 2.53315 6.71403e-20)
(-0.0432487 2.46973 -2.00408e-19)
(1.01967 0.0202757 -5.10304e-19)
(1.01605 0.0252612 5.1357e-19)
(1.01322 0.0158509 0)
(1.01595 0.0594274 7.06039e-19)
(0.996661 0.0493511 -8.26961e-19)
(0.964056 0.0455757 9.33144e-19)
(1.01612 0.0997716 -9.55094e-20)
(1.0427 -0.00539652 0)
(1.05051 -0.0019312 4.47972e-19)
(1.03932 -0.00908105 -4.47909e-19)
(1.0672 0.0341308 -2.58675e-20)
(1.06243 0.0194587 2.25504e-19)
(1.06187 0.0507051 0)
(1.05598 0.040841 -8.21649e-20)
(1.03252 0.037393 0)
(1.02753 0.0342934 0)
(1.02761 0.0127328 0)
(1.02425 0.0152882 0)
(1.03966 0.0276416 1.69881e-19)
(1.03831 0.024164 -3.79883e-19)
(1.05185 0.0303165 -1.77812e-19)
(1.0483 0.0297384 -1.97768e-19)
(1.07458 0.0544958 3.69179e-19)
(1.08953 0.0435466 0)
(1.09421 0.0861509 0)
(-0.214595 2.48865 3.28017e-19)
(-0.293141 2.30713 3.11954e-20)
(-0.282045 2.35251 0)
(-0.244533 2.51552 -3.05931e-19)
(-0.243123 2.47057 -5.09372e-20)
(-0.223546 2.51357 6.03975e-20)
(-0.0737904 2.60361 -1.12362e-19)
(-0.124615 2.58566 1.12525e-20)
(-0.085918 2.54425 -4.55892e-20)
(-0.117937 2.59726 7.44786e-20)
(-0.0683558 2.5744 -9.20256e-20)
(-0.10989 1.65167 -3.42095e-21)
(-0.176364 2.01439 -4.69982e-19)
(0.367882 1.41493 -2.73053e-19)
(0.360726 1.34521 -2.10101e-19)
(0.623836 1.42664 -4.14241e-19)
(0.502941 1.49395 -2.36385e-19)
(0.542463 1.46329 0)
(0.60373 2.44292 1.59129e-19)
(0.66546 2.43004 2.77626e-19)
(0.420899 2.52977 8.34545e-20)
(0.397555 2.56071 -3.91865e-19)
(0.502735 2.50818 4.01814e-19)
(0.557576 2.48254 0)
(0.495101 2.53451 -4.39635e-19)
(0.261295 2.59777 8.5472e-19)
(0.365456 2.57035 -6.15191e-20)
(0.288737 2.65784 -1.24156e-18)
(0.952457 2.39863 4.65598e-19)
(0.841491 2.39859 0)
(1.01118 0.000657843 1.68925e-20)
(1.01526 -0.00541273 -1.3728e-20)
(1.01748 -0.00392644 -2.50184e-19)
(1.01517 -0.00146262 2.50303e-19)
(1.01258 0.0010342 0)
(0.616249 1.28157 0)
(0.65254 1.16887 0)
(0.754638 1.08756 0)
(0.638886 1.12801 0)
(1.19711 2.64221 4.93404e-20)
(1.09067 2.38866 0)
(0.831733 2.21 6.36674e-22)
(0.828555 2.47102 0)
(0.919287 2.55584 -1.93786e-19)
(0.952373 2.50538 1.29609e-19)
(0.825669 0.132492 0)
(0.791799 0.132545 1.19996e-19)
(0.923865 0.128743 6.57146e-19)
(0.852374 0.111078 -2.5642e-19)
(0.826686 0.0677446 -7.64416e-19)
(1.06534 0.22463 -5.24092e-19)
(0.968105 0.271032 -8.70592e-21)
(0.908507 0.309962 5.89173e-19)
(1.00783 0.223531 4.75945e-19)
(0.936936 0.172441 -8.54651e-19)
(0.896771 0.18095 1.10889e-19)
(0.919171 0.283167 -2.19846e-19)
(0.904474 0.192569 0)
(0.997776 0.177294 4.13912e-19)
(1.04418 0.189348 0)
(1.03809 0.198373 0)
(1.10531 0.113004 1.64689e-19)
(1.05829 0.169681 -1.03161e-20)
(1.05841 0.232201 -9.67874e-20)
(1.09704 0.200802 0)
(1.02462 0.0411923 3.9211e-19)
(1.04184 0.051912 4.79111e-19)
(1.03364 0.0384025 -3.89245e-19)
(1.04576 0.0566685 -3.22155e-19)
(1.01764 0.0629593 -4.99951e-19)
(0.99083 0.143508 0)
(0.996213 0.0906688 0)
(0.970729 0.0551276 -3.32228e-19)
(0.922593 0.0802625 1.34924e-19)
(1.04341 0.100195 4.47991e-19)
(1.06983 0.121118 -4.9205e-19)
(1.06644 0.157298 4.47712e-19)
(1.03844 0.134605 0)
(1.07967 0.103175 0)
(1.06068 0.0925415 -2.01616e-19)
(1.04838 0.0918421 -3.61777e-19)
(0.595655 1.12243 -6.69459e-21)
(0.628259 1.44241 1.00523e-19)
(1.14938 2.73672 -7.86349e-20)
(1.20071 3.11741 -3.42024e-20)
(1.25687 2.74312 2.22458e-19)
(1.29851 2.7148 -1.39784e-19)
(1.27453 2.33673 -3.68428e-20)
(1.18874 3.02325 7.29189e-20)
(1.20755 2.98018 -5.41749e-21)
(1.18274 3.27174 -1.87762e-19)
(1.4029 2.98821 2.31902e-19)
(1.41506 2.92754 0)
(0.550069 0.85203 -2.88064e-20)
(0.2384 1.23424 3.79199e-19)
(0.488003 0.47848 4.49376e-19)
(0.357584 0.2424 5.15453e-19)
(0.543433 0.406581 5.34789e-19)
(0.545411 0.490552 -8.49495e-19)
(0.547723 0.489798 6.96733e-19)
(0.506772 0.426632 -2.72616e-19)
(0.447536 0.367249 6.20671e-19)
(0.784274 0.245603 -2.66263e-19)
(0.7468 0.289959 0)
(0.730866 0.227048 1.06846e-20)
(0.717667 0.519623 2.77702e-19)
(0.681689 0.492625 -1.01653e-18)
(0.627974 0.488012 2.27824e-20)
(0.642989 0.460878 0)
(0.679622 0.741785 2.48235e-19)
(0.787692 0.785925 2.41114e-19)
(0.72402 0.83966 -2.83363e-19)
(0.851579 0.79975 -8.15975e-20)
(0.895717 0.841949 -1.05065e-20)
(0.901814 0.849452 1.07745e-20)
(0.838995 0.661356 -4.17452e-19)
(0.911335 0.712979 7.59101e-20)
(0.964592 0.716439 0)
(0.958984 0.692097 -9.12927e-20)
(1.01051 0.308682 1.36805e-19)
(1.12538 0.312864 1.18319e-19)
(1.04534 0.267496 2.14456e-19)
(0.962647 0.351116 -2.7936e-19)
(1.00779 0.462856 0)
(1.09274 0.41295 0)
(0.875408 0.380245 1.13222e-20)
(0.842204 0.290836 0)
(0.867581 0.269691 2.90801e-19)
(0.888064 0.308528 6.67773e-21)
(0.916699 0.437095 1.36124e-18)
(0.851246 0.514502 3.40931e-19)
(0.872271 0.460825 -4.02225e-19)
(0.804784 0.450763 4.26309e-19)
(0.796679 0.435168 2.66554e-19)
(0.784477 0.407478 -2.61711e-19)
(1.02763 -0.000614831 4.11341e-19)
(1.02028 0.000146546 0)
(1.01883 0.000944572 2.6926e-19)
(1.02231 -0.0015885 -6.08261e-19)
(1.02248 0.00413053 2.96651e-19)
(1.02022 0.0107825 -6.20739e-19)
(1.02111 0.010436 0)
(1.02024 0.0110895 -1.29825e-19)
(1.01648 0.00728276 3.2546e-19)
(1.01682 0.0102502 -1.63323e-19)
(1.01742 0.00980931 1.19509e-19)
(0.0399907 1.33132 0)
(0.0270764 1.37376 0)
(0.0556985 1.33356 0)
(0.0265377 1.29711 0)
(0.0938736 1.36269 -3.65278e-19)
(0.0960661 1.33892 1.02009e-19)
(0.0683792 1.50246 8.47162e-20)
(0.110518 1.34808 -1.31141e-19)
(0.0291976 1.46507 2.55739e-19)
(0.0377833 1.45884 -1.98928e-19)
(0.0751353 1.35518 -2.71997e-20)
(0.0596223 1.36305 2.60664e-19)
(0.0486792 1.34217 3.92519e-20)
(0.0282445 1.37416 3.45458e-20)
(0.107534 2.39552 6.8825e-20)
(0.0968686 2.43293 0)
(0.145203 2.04389 2.53379e-20)
(0.13432 1.71128 -3.65683e-20)
(0.212428 2.0394 -2.34258e-20)
(0.211326 2.44983 0)
(0.251188 2.40347 -3.63143e-19)
(0.296859 2.4027 2.59689e-19)
(0.248691 2.00897 -4.6926e-20)
(0.140874 2.17748 5.8424e-20)
(0.114464 2.29573 0)
(0.0242083 1.88235 2.56601e-19)
(-0.0151517 2.41289 2.09348e-19)
(-0.0301619 2.1561 0)
(-0.00872079 2.47134 -1.0994e-20)
(0.020601 2.32227 -1.14638e-19)
(0.0786742 1.43959 -4.10204e-20)
(0.117694 1.37841 7.06403e-19)
(0.0933767 1.42822 -2.35497e-19)
(0.0740909 1.45468 -1.9553e-19)
(0.0705112 1.46742 0)
(0.0918143 1.4008 0)
(-0.0306372 1.05971 -3.21675e-19)
(0.0703584 1.31252 9.79723e-20)
(0.10852 1.34777 0)
(0.0291961 1.05721 -2.16379e-19)
(0.0118624 0.932734 4.53549e-19)
(1.04073 0.0128057 0)
(1.04694 0.00871716 -4.19059e-20)
(1.03915 0.0213163 -3.04977e-19)
(1.04774 0.0199203 0)
(1.05328 0.0189479 0)
(1.03538 0.0107814 -6.31203e-21)
(1.03068 0.0114631 4.93996e-19)
(1.03148 0.0153116 5.99731e-19)
(1.02628 0.0193307 0)
(1.02312 0.0203793 0)
(1.03508 0.0226499 3.04749e-19)
(1.0253 0.0256217 0)
(1.02523 0.0248762 0)
(-0.0183643 2.20688 0)
(-0.113894 2.0413 1.55284e-20)
(-0.0720614 2.13477 -1.46056e-19)
(0.0374788 1.31921 0)
(0.0518212 1.75246 -1.97905e-19)
(0.039337 1.50075 1.64847e-19)
(0.0128864 1.29151 0)
(0.408756 1.68419 0)
(0.349499 1.28145 3.56605e-19)
(0.282549 1.33713 0)
(0.417379 1.28904 -4.96313e-19)
(0.461421 1.45118 0)
(0.441981 1.38896 2.35983e-19)
(1.03581 2.69824 -9.69512e-21)
(0.970733 2.42097 -5.86e-19)
(0.924699 2.19715 6.66618e-19)
(0.855444 2.392 1.72542e-19)
(0.851716 2.51659 0)
(0.91846 2.51288 0)
(0.936069 2.39332 0)
(0.913549 2.37889 -6.65177e-19)
(0.698807 2.49384 -1.71287e-19)
(0.804837 2.47842 -5.18303e-20)
(0.813877 2.45377 3.934e-20)
(0.70098 2.40631 0)
(0.803942 2.40114 0)
(0.766659 2.41459 -2.90485e-19)
(0.770897 2.49775 0)
(0.60471 1.06424 0)
(0.522811 0.89811 -2.93105e-19)
(0.524821 0.958866 -1.63032e-20)
(0.508392 1.10438 0)
(0.494583 1.01742 4.53954e-19)
(0.757897 0.875146 -6.07393e-20)
(0.770567 1.00779 0)
(0.744202 0.979777 6.12384e-20)
(0.640476 1.01957 0)
(0.63509 0.935412 0)
(1.16551 2.77092 -7.43474e-20)
(1.14154 2.82983 2.29602e-20)
(0.930327 2.36178 -1.22042e-19)
(0.904566 2.34072 -1.44211e-20)
(1.13409 2.74989 0)
(1.08549 2.71974 1.73926e-20)
(1.10065 2.50966 -1.78217e-19)
(1.00071 2.25808 -2.85857e-20)
(0.505986 1.3704 0)
(0.522088 1.10023 5.90418e-21)
(0.569485 1.16669 0)
(0.882037 0.19736 0)
(0.813772 0.161399 0)
(0.753211 0.153254 0)
(0.878644 0.207694 -4.5532e-19)
(0.806095 0.210233 2.75678e-19)
(0.933492 0.0671838 -2.78571e-19)
(0.945619 0.113288 0)
(0.920621 0.118118 1.21867e-19)
(0.875972 0.0831069 4.90337e-19)
(0.851969 0.0559217 -3.04994e-19)
(1.1047 3.36615 -8.19707e-19)
(1.16891 3.28892 0)
(1.12469 3.45085 -1.81201e-18)
(0.663308 3.59592 1.52462e-18)
(1.03469 3.09744 2.81349e-19)
(0.522343 0.834464 3.79056e-19)
(0.51197 0.805975 0)
(0.380289 0.507962 -1.12088e-19)
(0.4529 0.687245 6.01579e-19)
(0.514523 0.484825 -1.53484e-19)
(0.505355 0.525464 1.75505e-19)
(0.667645 0.556144 3.63355e-19)
(0.699996 0.581845 0)
(0.629453 0.624275 0)
(0.597655 0.574965 0)
(0.962584 0.604767 2.09488e-20)
(0.900776 0.553989 -3.28854e-19)
(0.929756 0.592282 2.03816e-19)
(0.973421 0.502242 -2.47117e-19)
(1.03037 0.487872 0)
(1.04262 0.595923 -4.55569e-20)
(0.8332 0.394855 -6.01247e-19)
(0.829841 0.391546 -7.44594e-19)
(0.802301 0.384602 4.7035e-19)
(0.797911 0.354262 -5.01264e-19)
(0.837048 0.306198 -3.82573e-19)
(0.803868 0.306272 4.69389e-19)
(1.02637 0.00585549 -3.08453e-19)
(1.0261 0.0059925 6.22701e-19)
(1.02946 0.000328019 3.96216e-19)
(1.03346 0.000900227 -4.76238e-19)
(1.03385 0.0104924 0)
(1.0295 0.00969106 -7.7308e-19)
(0.0682531 1.66101 -3.35499e-20)
(0.0359163 1.59559 0)
(0.111039 1.69913 -2.49303e-19)
(0.0932538 1.6795 2.27761e-19)
(0.05365 1.52657 -1.52323e-19)
(0.0557563 1.53022 0)
(0.10838 1.81127 0)
(0.0735198 1.6058 8.27332e-20)
(0.096611 1.45943 -7.3733e-20)
(0.0692147 1.66578 2.38993e-20)
(0.0179088 2.08994 1.43517e-19)
(0.0208139 2.07564 -5.1531e-20)
(0.493722 1.38464 9.29953e-20)
(0.497084 1.38379 -9.66356e-20)
(0.428057 1.28666 2.41345e-19)
(0.42661 1.30131 -1.01395e-20)
(0.610223 1.29189 0)
(0.539606 1.37947 3.36663e-19)
(0.54174 1.38678 -3.27369e-19)
(0.457975 1.261 -2.31315e-19)
(0.504003 1.22558 0)
(0.572513 1.20028 0)
(0.673898 2.4567 2.52635e-19)
(0.665754 2.47755 9.00236e-19)
(0.723864 2.49153 -6.17511e-19)
(0.626797 2.46629 -1.5538e-19)
(0.555065 2.56686 1.75026e-19)
(0.494899 2.52475 -4.77144e-19)
(0.983201 2.39406 -3.72185e-19)
(1.02252 2.4156 0)
(0.938535 2.18412 -4.16678e-19)
(1.05464 2.69971 0)
(1.05486 2.68485 0)
(0.619297 2.31951 1.99035e-19)
(1.12574 3.09116 2.74908e-19)
(1.0084 2.99036 -3.41946e-19)
(0.337574 0.882893 0)
(0.355737 0.792972 -2.16769e-19)
(0.544727 0.715094 -1.82961e-19)
(0.384866 2.16678 0)
(0.412211 2.75514 -1.98091e-19)
(0.424072 2.49478 0)
(0.681763 0.704802 -5.27227e-19)
(0.736751 0.69466 7.37253e-19)
(0.743545 0.659348 -7.3585e-19)
(0.666578 0.669317 -7.06525e-20)
(0.721142 0.621703 -2.94881e-19)
(0.982383 2.77382 -2.0825e-19)
(1.01781 2.77612 2.4504e-20)
(0.572728 2.24606 1.1659e-19)
(0.620704 1.76272 -1.28314e-19)
(0.718564 1.88008 -2.28358e-19)
(0.985899 2.413 -1.14906e-19)
(0.983902 2.36895 1.30842e-19)
(0.666495 1.79872 1.60813e-20)
(0.474127 1.3294 5.95949e-20)
)
;

boundaryField
{
    wall-4
    {
        type            noSlip;
    }
    velocity-inlet-5
    {
        type            fixedValue;
        value           uniform (1 0 0);
    }
    velocity-inlet-6
    {
        type            fixedValue;
        value           uniform (0 3 0);
    }
    pressure-outlet-7
    {
        type            zeroGradient;
    }
    wall-8
    {
        type            noSlip;
    }
    frontAndBackPlanes
    {
        type            empty;
    }
}


// ************************************************************************* //
