/*--------------------------------*- C++ -*----------------------------------*\
  =========                 |
  \\      /  F ield         | OpenFOAM: The Open Source CFD Toolbox
   \\    /   O peration     | Website:  https://openfoam.org
    \\  /    A nd           | Version:  6
     \\/     M anipulation  |
\*---------------------------------------------------------------------------*/
FoamFile
{
    version     2.0;
    format      ascii;
    class       volScalarField;
    location    "10";
    object      Ma;
}
// * * * * * * * * * * * * * * * * * * * * * * * * * * * * * * * * * * * * * //

dimensions      [0 0 0 0 0 0 0];

internalField   nonuniform List<scalar> 
5250
(
2.9997
2.99921
2.99772
2.99525
2.98731
2.97386
2.9335
2.85297
2.65935
2.21766
1.39741
0.300009
0.177139
0.080191
0.297426
0.360619
0.336185
0.281092
0.223315
0.186088
0.156492
0.125026
0.091298
0.0592844
0.0416769
2.9997
2.99922
2.99772
2.99526
2.98735
2.97394
2.93369
2.85341
2.66028
2.21946
1.40082
0.304048
0.174604
0.0894711
0.303549
0.364569
0.3392
0.284881
0.229427
0.1939
0.16535
0.135329
0.104644
0.0780214
0.0655197
2.9997
2.99922
2.99774
2.9953
2.98743
2.97411
2.9341
2.85435
2.66241
2.22355
1.40933
0.314078
0.16702
0.104968
0.312619
0.370755
0.344624
0.292093
0.241057
0.209112
0.183281
0.15681
0.131676
0.11206
0.103613
2.99971
2.99923
2.99776
2.99535
2.98755
2.9744
2.93476
2.85587
2.66586
2.23025
1.42356
0.33021
0.155719
0.124548
0.324312
0.379509
0.353419
0.303834
0.258412
0.23092
0.208993
0.187177
0.167795
0.153906
0.148401
2.99971
2.99924
2.9978
2.99542
2.98773
2.97479
2.93568
2.858
2.67071
2.23973
1.44356
0.352261
0.14218
0.147312
0.338218
0.390451
0.365132
0.319365
0.280021
0.257499
0.239713
0.222842
0.208711
0.199184
0.195863
2.99972
2.99926
2.99784
2.99551
2.98796
2.9753
2.93685
2.86082
2.67699
2.25213
1.46923
0.380421
0.128666
0.172881
0.35392
0.403374
0.379515
0.338463
0.305355
0.288077
0.275151
0.26316
0.254263
0.248929
0.24774
2.99972
2.99928
2.99789
2.99562
2.98825
2.97591
2.93827
2.86435
2.68415
2.26779
1.50041
0.415138
0.119445
0.200908
0.37156
0.418189
0.3965
0.36078
0.334366
0.322352
0.314672
0.308508
0.305283
0.305398
0.307855
2.99973
2.9993
2.99795
2.99574
2.98858
2.97661
2.93998
2.86832
2.69298
2.28638
1.53547
0.456659
0.120918
0.231298
0.390878
0.434436
0.415378
0.385747
0.366312
0.360336
0.358573
0.359293
0.364252
0.372646
0.383204
2.99974
2.99932
2.99802
2.99589
2.98896
2.97741
2.94195
2.87284
2.70295
2.30844
1.57489
0.505854
0.138108
0.264444
0.411664
0.451778
0.436211
0.413064
0.400804
0.40111
0.4059
0.415418
0.432722
0.457226
0.489967
2.99975
2.99935
2.9981
2.99605
2.9894
2.97831
2.94419
2.87798
2.71424
2.33377
1.62013
0.562779
0.172078
0.300097
0.430888
0.468911
0.457816
0.442497
0.43752
0.443299
0.455663
0.478613
0.514082
0.567637
0.668203
2.99976
2.99938
2.99819
2.99624
2.98989
2.97933
2.94669
2.88377
2.72672
2.3627
1.67051
0.628175
0.220717
0.337168
0.447319
0.485207
0.479805
0.47239
0.473593
0.484621
0.507278
0.54602
0.605144
0.700343
0.847578
2.99978
2.99941
2.99829
2.99644
2.99045
2.98047
2.9495
2.89028
2.7407
2.39518
1.72724
0.700981
0.280912
0.374689
0.461387
0.500207
0.501863
0.500947
0.507131
0.524181
0.557762
0.609816
0.68209
0.79199
0.935791
2.99979
2.99945
2.99841
2.99669
2.99109
2.9818
2.95289
2.89748
2.75842
2.42951
1.80184
0.782448
0.352617
0.40892
0.472387
0.513038
0.521116
0.524645
0.53584
0.561228
0.60265
0.659351
0.732656
0.829294
0.942614
2.99981
2.9995
2.99854
2.99696
2.99181
2.98332
2.95661
2.90596
2.77767
2.47004
1.88799
0.877706
0.432629
0.432813
0.484434
0.524201
0.537069
0.54544
0.561956
0.592283
0.63692
0.690873
0.758702
0.839311
0.929439
2.99983
2.99955
2.99869
2.99727
2.99262
2.98501
2.96081
2.91555
2.79913
2.51879
1.98554
0.998885
0.520954
0.452821
0.491504
0.530872
0.551286
0.564839
0.585037
0.616137
0.658623
0.708266
0.769188
0.836812
0.91112
2.99985
2.99961
2.99885
2.9976
2.99352
2.98687
2.96551
2.92621
2.82289
2.57771
2.09679
1.15854
0.620817
0.471456
0.498748
0.538656
0.565812
0.582847
0.604094
0.633584
0.672383
0.71719
0.771229
0.83023
0.892748
2.99988
2.99967
2.99902
2.99796
2.99449
2.98887
2.97067
2.93785
2.84955
2.64406
2.22901
1.36306
0.737976
0.507395
0.522094
0.557425
0.585776
0.601669
0.621223
0.647691
0.683039
0.722818
0.769272
0.821194
0.874705
2.9999
2.99972
2.99919
2.99831
2.99544
2.99084
2.97579
2.9496
2.87624
2.71582
2.37427
1.65282
0.867152
0.565781
0.568337
0.593343
0.617681
0.628695
0.642029
0.66301
0.692506
0.728211
0.76815
0.812433
0.858542
2.99992
2.99977
2.99932
2.99859
2.99616
2.99234
2.97951
2.95808
2.89467
2.76109
2.46485
1.82356
0.959776
0.590914
0.592842
0.620396
0.647352
0.658208
0.667038
0.681952
0.70443
0.734233
0.768032
0.805082
0.844363
2.99993
2.99981
2.99943
2.99881
2.99676
2.99356
2.9826
2.96473
2.9097
2.79756
2.53872
1.95305
1.10345
0.653765
0.60476
0.630056
0.658093
0.6771
0.687486
0.700127
0.717896
0.741784
0.76938
0.79997
0.832934
2.99994
2.99984
2.99953
2.99902
2.99731
2.99466
2.98552
2.97083
2.92485
2.83042
2.61602
2.08866
1.28854
0.739972
0.604603
0.626068
0.656484
0.683962
0.698628
0.712033
0.728711
0.74841
0.77109
0.796895
0.82494
2.99995
2.99987
2.99961
2.99919
2.99779
2.9956
2.98809
2.97609
2.93756
2.86456
2.68157
2.26165
1.52178
0.839524
0.616943
0.627604
0.656765
0.688569
0.706166
0.719498
0.734222
0.751477
0.77194
0.794819
0.819562
2.99996
2.9999
2.99968
2.99934
2.99819
2.99641
2.99026
2.98058
2.94872
2.89185
2.73671
2.41271
1.74341
0.933608
0.631634
0.63047
0.659654
0.692851
0.71343
0.725673
0.738366
0.754208
0.7731
0.793959
0.816255
2.99997
2.99992
2.99974
2.99946
2.99851
2.99704
2.99195
2.98398
2.95753
2.90982
2.78259
2.49208
1.91972
1.01531
0.643761
0.619047
0.650322
0.684773
0.710612
0.726188
0.740091
0.755785
0.773938
0.793656
0.814418
2.99998
2.99993
2.99979
2.99956
2.99879
2.99758
2.99343
2.98683
2.96532
2.92526
2.81983
2.56505
2.07579
1.18342
0.712302
0.600456
0.626504
0.662095
0.696087
0.717653
0.734917
0.752283
0.771104
0.790886
0.811225
2.99999
2.99994
2.99985
2.99958
2.99914
2.99767
2.99538
2.98747
2.97463
2.93436
2.85199
2.65701
2.19669
1.41825
0.794758
0.589492
0.604011
0.639173
0.679445
0.706194
0.726194
0.745201
0.764897
0.785124
0.805492
2.99999
2.99995
2.99988
2.99965
2.99929
2.99805
2.99618
2.98951
2.97922
2.94475
2.88306
2.71691
2.3635
1.66619
0.876051
0.588947
0.595535
0.630454
0.673256
0.70266
0.722688
0.740866
0.759624
0.779111
0.798693
3
2.99996
2.9999
2.99971
2.99941
2.99837
2.99679
2.99115
2.98252
2.95301
2.90118
2.7572
2.44843
1.80974
0.920568
0.566496
0.567602
0.611054
0.657913
0.693349
0.71686
0.735976
0.754399
0.773151
0.791905
3
2.99997
2.99992
2.99976
2.99951
2.99865
2.99733
2.99267
2.98534
2.96118
2.91481
2.7954
2.50553
1.95016
1.03034
0.5911
0.53331
0.574318
0.62529
0.670812
0.70132
0.723805
0.743504
0.762582
0.781337
3
2.99998
2.99992
2.99983
2.99953
2.99905
2.99743
2.99483
2.98635
2.97078
2.92671
2.82227
2.59617
2.02971
1.1928
0.640709
0.494048
0.526687
0.584571
0.642702
0.680663
0.706377
0.727364
0.747061
0.766244
3
2.99998
2.99994
2.99983
2.99966
2.99905
2.99812
2.99487
2.98969
2.97309
2.93974
2.85344
2.63736
2.22679
1.36694
0.715336
0.466098
0.4961
0.563466
0.629989
0.6702
0.695102
0.714868
0.733699
0.752356
3
2.99998
2.99995
2.99985
2.9997
2.99916
2.99835
2.99538
2.99105
2.97519
2.9498
2.87237
2.70452
2.34881
1.62014
0.791381
0.46042
0.496054
0.564904
0.633627
0.671934
0.693224
0.709652
0.726063
0.743028
3
2.99998
2.99996
2.99987
2.99973
2.99925
2.99853
2.99588
2.99205
2.97781
2.95566
2.88502
2.73944
2.4088
1.72689
0.830769
0.429141
0.472746
0.543998
0.619061
0.661231
0.683298
0.699411
0.7153
0.73178
3
2.99999
2.99996
2.99988
2.99976
2.99932
2.99867
2.99627
2.9928
2.97977
2.95981
2.89398
2.76384
2.45157
1.80014
0.904309
0.434782
0.445759
0.515652
0.589638
0.637763
0.664107
0.682137
0.698636
0.715277
3
2.99999
2.99997
2.9999
2.99979
2.9994
2.99882
2.9967
2.99355
2.98205
2.96368
2.90452
2.78121
2.4935
1.86341
0.974802
0.457826
0.419547
0.480917
0.554159
0.608486
0.640327
0.661157
0.67867
0.695614
3
2.99999
2.99997
2.99993
2.99979
2.99957
2.99882
2.99761
2.99369
2.98647
2.96588
2.91682
2.80443
2.50331
1.95477
1.00832
0.480375
0.382037
0.437842
0.513744
0.576293
0.613654
0.636585
0.654461
0.671351
3
2.99999
2.99998
2.99992
2.99983
2.99953
2.99907
2.99742
2.99486
2.9861
2.97037
2.92387
2.81476
2.57672
1.98497
1.13534
0.5137
0.345339
0.395553
0.479695
0.551553
0.592219
0.614912
0.631807
0.648005
3
2.99999
2.99998
2.99993
2.99985
2.99958
2.99917
2.99768
2.99541
2.98756
2.97351
2.93209
2.83415
2.61977
2.06922
1.24857
0.549105
0.303605
0.358368
0.46036
0.540504
0.581294
0.601466
0.615961
0.630606
3
3
2.99998
2.99995
2.99985
2.99969
2.99916
2.99831
2.99554
2.99046
2.97583
2.94132
2.85889
2.64076
2.23134
1.39358
0.622164
0.304088
0.370173
0.484356
0.566949
0.602765
0.615748
0.624115
0.634157
3.00001
3
2.99998
2.99995
2.99988
2.99967
2.99933
2.99814
2.9963
2.98995
2.97894
2.94512
2.87009
2.69262
2.27381
1.519
0.618726
0.263051
0.353968
0.483773
0.572645
0.608852
0.619908
0.626077
0.634376
3
3
2.99998
2.99996
2.99987
2.99974
2.99927
2.99855
2.99604
2.99191
2.97889
2.95158
2.88021
2.7028
2.34147
1.61313
0.661713
0.24015
0.339026
0.469366
0.563455
0.602225
0.613441
0.619028
0.627011
3.00001
3
2.99999
2.99995
2.9999
2.9997
2.99941
2.99837
2.99673
2.99132
2.98126
2.9522
2.88302
2.72586
2.33413
1.62606
0.649699
0.217381
0.31568
0.444748
0.5423
0.585265
0.599358
0.606613
0.615635
3
3
2.99998
2.99996
2.99988
2.99975
2.9993
2.99862
2.99619
2.99238
2.97971
2.95559
2.88763
2.72723
2.38525
1.67252
0.721996
0.251747
0.323897
0.435996
0.532983
0.578005
0.593847
0.601824
0.610901
3.00001
3
2.99999
2.99995
2.99989
2.9997
2.9994
2.99832
2.99673
2.99087
2.98173
2.9515
2.88978
2.73621
2.36916
1.6814
0.709129
0.255489
0.31615
0.422569
0.518326
0.565966
0.58474
0.594525
0.604438
3.00001
3
2.99999
2.99995
2.99989
2.99969
2.99939
2.99827
2.99668
2.99053
2.98165
2.94936
2.89324
2.73692
2.38927
1.70381
0.722482
0.271379
0.315664
0.410644
0.504123
0.553189
0.574265
0.585721
0.596581
3.00001
3
2.99999
2.99995
2.99989
2.9997
2.9994
2.99829
2.99673
2.99067
2.98193
2.95017
2.89506
2.74119
2.39877
1.72144
0.744093
0.288716
0.317347
0.404131
0.495657
0.546022
0.568689
0.581062
0.592234
3.00001
3
2.99999
2.99995
2.9999
2.9997
2.99941
2.99833
2.9968
2.99086
2.98232
2.95111
2.89699
2.74576
2.4065
1.73985
0.760304
0.300087
0.317015
0.400283
0.490012
0.541787
0.56558
0.578447
0.589648
3.00001
3
2.99999
2.99996
2.9999
2.99972
2.99944
2.99844
2.99696
2.99153
2.98303
2.95499
2.89742
2.75421
2.40714
1.74599
0.781693
0.307485
0.315103
0.397019
0.487343
0.540941
0.565626
0.578514
0.589423
3
3
2.99999
2.99996
2.99989
2.99977
2.99936
2.99874
2.99649
2.99304
2.98115
2.96007
2.89679
2.75406
2.43524
1.76546
0.851151
0.345476
0.34435
0.42038
0.507837
0.561426
0.585869
0.598031
0.60811
3.00001
3
2.99999
2.99996
2.99991
2.99973
2.99946
2.99849
2.99706
2.99183
2.98349
2.9563
2.89899
2.75865
2.41289
1.7637
0.798249
0.31468
0.311866
0.393365
0.48477
0.541158
0.567356
0.580569
0.591444
1.02268
1.06141
0.817244
0.441557
0.15525
0.186828
0.279681
0.354753
0.398929
0.417415
0.422482
0.419286
0.413845
0.406931
0.407807
0.407483
0.406629
0.40297
0.394661
0.382658
0.368023
0.351324
0.332669
0.312013
0.289462
0.265685
0.240922
0.21529
0.189194
0.16282
0.136144
0.10943
0.0827465
0.0567349
0.0338158
0.025713
0.0465167
0.0622021
0.0839214
0.107743
0.131603
0.155085
0.17824
0.201042
0.223311
0.244458
0.265099
0.286692
0.308908
0.330417
0.35123
0.371588
0.391611
0.411311
0.430663
0.449755
0.46854
0.48707
0.505261
0.523156
0.540714
0.55796
0.574885
0.59149
0.607775
0.623722
0.63935
0.654595
0.669533
0.684049
0.698228
0.711983
0.725323
0.738238
0.750634
0.762554
0.773867
0.784563
0.79455
0.803689
0.811952
0.819102
0.825106
0.829657
0.832775
0.834079
0.834462
0.834474
0.833594
0.831045
0.825458
0.818056
0.809361
0.801052
0.792428
0.785
0.778114
0.773327
0.769909
0.774342
1.04432
1.03819
0.888913
0.675215
0.586172
0.474994
0.371359
0.285638
0.213867
0.148569
0.103528
0.0732347
0.0108487
0.0398887
0.0508887
0.0662087
0.0702789
0.0582174
0.0501555
0.0430218
0.0334359
0.0268227
0.0310478
0.0456375
0.0584743
0.0759514
0.095208
0.115006
0.135544
0.156772
0.178155
0.199614
0.221115
0.24259
0.263936
0.284722
0.30448
0.323553
0.342993
0.362723
0.382426
0.401943
0.421206
0.440276
0.458894
0.476812
0.49412
0.511861
0.530253
0.548434
0.566094
0.58344
0.600562
0.617504
0.634322
0.650955
0.667373
0.683537
0.699472
0.715188
0.730682
0.745974
0.761036
0.775907
0.790513
0.804906
0.819009
0.832816
0.846334
0.859509
0.872331
0.884825
0.896818
0.908457
0.919482
0.929995
0.939848
0.948985
0.95744
0.965038
0.971864
0.977702
0.98252
0.986184
0.98854
0.989426
0.989502
0.989363
0.988486
0.986258
0.981211
0.974826
0.966737
0.959372
0.95122
0.944741
0.93829
0.934191
0.930492
0.934024
1.01521
1.03028
0.988057
0.920621
0.866997
0.807018
0.748372
0.691192
0.641039
0.593965
0.549087
0.508792
0.470755
0.435537
0.411348
0.397446
0.389633
0.381167
0.373209
0.367169
0.366389
0.370908
0.378736
0.388381
0.39924
0.411295
0.424218
0.437764
0.451873
0.466427
0.481133
0.495816
0.510366
0.524872
0.539247
0.553456
0.567248
0.580858
0.594452
0.608255
0.622058
0.635855
0.649538
0.663191
0.676666
0.689715
0.70244
0.715462
0.729279
0.743309
0.757009
0.770346
0.783528
0.796586
0.809554
0.822437
0.835185
0.847876
0.860451
0.873024
0.88552
0.898032
0.910445
0.922847
0.935089
0.947277
0.959278
0.97121
0.98296
0.994605
1.00607
1.0174
1.0285
1.03946
1.05008
1.06053
1.07054
1.0801
1.08924
1.0975
1.10515
1.11189
1.11733
1.12191
1.12483
1.12609
1.12659
1.12671
1.12589
1.12382
1.11886
1.11289
1.10516
1.09808
1.09031
1.08414
1.07799
1.07417
1.07041
1.07342
0.996756
1.03518
1.04415
1.0305
1.0111
0.987988
0.964405
0.939176
0.911736
0.881134
0.847208
0.815568
0.788193
0.766038
0.750694
0.740881
0.73588
0.733367
0.731147
0.72777
0.724682
0.723824
0.724622
0.726511
0.728802
0.731621
0.734978
0.738854
0.743132
0.747815
0.752826
0.75812
0.763715
0.769621
0.775892
0.782322
0.788807
0.795378
0.802225
0.809484
0.817158
0.825189
0.833535
0.842219
0.851105
0.859835
0.868386
0.87721
0.886901
0.897157
0.907398
0.917527
0.927631
0.937737
0.947829
0.957926
0.967926
0.977857
0.987669
0.997438
1.00721
1.01704
1.02694
1.03689
1.04688
1.05685
1.06678
1.07663
1.08641
1.09608
1.10563
1.11506
1.12437
1.13355
1.14263
1.1516
1.16039
1.16898
1.17731
1.18535
1.19267
1.19949
1.20578
1.21086
1.21467
1.21755
1.22005
1.22194
1.22263
1.22153
1.21864
1.21433
1.20798
1.20158
1.19376
1.18762
1.18064
1.1763
1.17147
1.17257
0.977492
1.02616
1.05698
1.07112
1.07608
1.07573
1.07204
1.06551
1.05509
1.04129
1.0247
1.00819
0.993634
0.98195
0.973802
0.968259
0.965252
0.963673
0.963168
0.961264
0.958048
0.955132
0.953141
0.951536
0.949923
0.948217
0.94646
0.944732
0.943148
0.941846
0.940838
0.940232
0.940013
0.940211
0.940851
0.941809
0.943137
0.944796
0.946943
0.949651
0.953002
0.956904
0.961429
0.966552
0.972077
0.97771
0.983266
0.989269
0.996135
1.00389
1.01182
1.01986
1.02795
1.03624
1.04467
1.05335
1.06219
1.07133
1.08063
1.09019
1.09984
1.10962
1.11942
1.12915
1.13873
1.14805
1.15715
1.166
1.17454
1.18289
1.19093
1.19873
1.20628
1.21358
1.22057
1.22748
1.2341
1.24052
1.24692
1.25293
1.25858
1.26398
1.26878
1.2728
1.27606
1.27833
1.28065
1.28223
1.2838
1.28436
1.28289
1.27988
1.27599
1.27163
1.26668
1.26215
1.25779
1.25378
1.25028
1.2505
0.954592
1.00598
1.04585
1.07408
1.09369
1.1072
1.11668
1.12263
1.12535
1.12471
1.12141
1.11638
1.11126
1.10667
1.10372
1.10205
1.10148
1.10155
1.1021
1.10274
1.10211
1.09985
1.09691
1.09386
1.09051
1.08694
1.08298
1.07884
1.07456
1.0704
1.06642
1.06274
1.05942
1.05659
1.05417
1.0523
1.05083
1.04994
1.04956
1.04975
1.05068
1.05228
1.05452
1.05745
1.06086
1.06447
1.06808
1.07215
1.07701
1.08282
1.08901
1.0955
1.10217
1.10909
1.1162
1.12359
1.13119
1.13906
1.14713
1.15542
1.16381
1.17231
1.1808
1.18934
1.1978
1.20642
1.21491
1.22361
1.23214
1.24076
1.24914
1.25737
1.26539
1.27297
1.28038
1.28726
1.29371
1.29966
1.30501
1.3098
1.31409
1.31771
1.32085
1.32325
1.32502
1.32584
1.32688
1.32807
1.32865
1.32847
1.32721
1.3247
1.32118
1.31736
1.31322
1.3094
1.3056
1.30296
1.29972
1.30151
0.92949
0.979257
1.02187
1.0562
1.08399
1.10652
1.1246
1.13926
1.15083
1.15932
1.16525
1.16883
1.1712
1.1729
1.17485
1.17712
1.17975
1.18226
1.18396
1.18532
1.18634
1.18656
1.18473
1.18137
1.17743
1.17311
1.1683
1.16321
1.15774
1.15221
1.14663
1.14123
1.13612
1.13136
1.12712
1.12328
1.12004
1.11722
1.11505
1.11344
1.11254
1.11231
1.11281
1.11408
1.11597
1.11811
1.12039
1.12309
1.12665
1.13112
1.13617
1.14162
1.14739
1.15343
1.15975
1.16634
1.17322
1.18036
1.18776
1.19539
1.20328
1.21139
1.21973
1.22825
1.23687
1.24564
1.25434
1.26314
1.27176
1.28031
1.28871
1.29679
1.3047
1.31214
1.31917
1.32568
1.33168
1.33695
1.34169
1.34583
1.3492
1.35185
1.35391
1.35519
1.35569
1.35577
1.35584
1.35617
1.35639
1.35551
1.35364
1.35145
1.34867
1.34533
1.34183
1.33858
1.33567
1.33344
1.33078
1.33287
0.905797
0.951376
0.992685
1.02908
1.0602
1.08697
1.11048
1.13076
1.14858
1.16329
1.17551
1.18553
1.19376
1.20067
1.20692
1.21258
1.21795
1.2226
1.2264
1.22911
1.23097
1.23201
1.23246
1.23136
1.2284
1.22419
1.21948
1.21427
1.20869
1.20277
1.19674
1.19076
1.18488
1.17932
1.1741
1.16941
1.16514
1.16149
1.15834
1.15587
1.15403
1.15294
1.15258
1.15298
1.15412
1.15565
1.15724
1.15933
1.16217
1.16597
1.17031
1.1752
1.18041
1.18599
1.1918
1.19794
1.2043
1.21097
1.21784
1.22503
1.2324
1.24007
1.24786
1.25587
1.26399
1.27223
1.2806
1.28897
1.29739
1.30576
1.31405
1.32228
1.3303
1.33808
1.34559
1.3526
1.3591
1.3651
1.37023
1.37439
1.37793
1.38053
1.3819
1.38237
1.3815
1.38015
1.37904
1.37794
1.37635
1.37422
1.37157
1.36866
1.36563
1.36263
1.35955
1.35656
1.35403
1.35213
1.34989
1.35255
0.885149
0.925644
0.964237
0.999767
1.03206
1.061
1.08698
1.11031
1.13094
1.14969
1.1662
1.18072
1.19333
1.20432
1.2139
1.22264
1.23033
1.23729
1.24299
1.24775
1.2513
1.25376
1.25507
1.25565
1.25532
1.25309
1.24938
1.24475
1.23973
1.23416
1.2285
1.22259
1.21682
1.21108
1.20573
1.20062
1.19608
1.19192
1.18844
1.18541
1.18316
1.18146
1.18059
1.18042
1.18102
1.18201
1.18316
1.1847
1.18704
1.19025
1.19412
1.1985
1.20333
1.20854
1.21408
1.21989
1.22597
1.23231
1.23892
1.24577
1.25286
1.26016
1.26766
1.27534
1.28319
1.29118
1.29929
1.30751
1.31581
1.32416
1.33247
1.34065
1.34863
1.35645
1.36402
1.3711
1.37769
1.38381
1.38904
1.39314
1.39652
1.39907
1.40037
1.40031
1.399
1.3969
1.3948
1.39271
1.39007
1.38689
1.38352
1.38021
1.37706
1.37401
1.37112
1.36858
1.36666
1.36542
1.36334
1.36657
0.86781
0.90332
0.93824
0.971821
1.0033
1.03276
1.05981
1.08495
1.10789
1.129
1.14802
1.16523
1.1805
1.19438
1.2067
1.21786
1.22772
1.23664
1.24419
1.25079
1.256
1.26031
1.26324
1.2652
1.26592
1.26628
1.26521
1.26248
1.25857
1.25395
1.24895
1.2437
1.23837
1.23305
1.22782
1.2229
1.21825
1.21409
1.21036
1.20725
1.20464
1.20277
1.20147
1.20102
1.20124
1.20196
1.2028
1.20403
1.20598
1.2088
1.21229
1.2163
1.22081
1.22574
1.23103
1.23662
1.24251
1.24867
1.25508
1.26173
1.2686
1.2757
1.28299
1.29044
1.29802
1.30573
1.31356
1.32148
1.32944
1.33742
1.34542
1.35339
1.36124
1.36892
1.37641
1.38354
1.39017
1.3964
1.40209
1.40662
1.4099
1.41239
1.4139
1.41386
1.41252
1.41042
1.40806
1.4051
1.40139
1.39726
1.39306
1.38905
1.38555
1.38255
1.37995
1.37763
1.37593
1.37556
1.3739
1.37784
0.854828
0.885822
0.916948
0.947719
0.977463
1.00594
1.03296
1.05837
1.08229
1.10451
1.1252
1.14416
1.16163
1.17741
1.19185
1.20476
1.21656
1.22701
1.2365
1.24461
1.25172
1.25756
1.26239
1.26597
1.26847
1.26983
1.27041
1.27029
1.2688
1.26589
1.2621
1.2578
1.25329
1.24861
1.24388
1.23937
1.23498
1.23106
1.22739
1.22436
1.22169
1.21977
1.21834
1.21769
1.21774
1.21832
1.21901
1.22002
1.22169
1.2242
1.22743
1.23119
1.23543
1.24013
1.24523
1.25066
1.25639
1.26238
1.26864
1.27513
1.28185
1.28877
1.29588
1.30316
1.31057
1.31808
1.32568
1.33333
1.34102
1.34869
1.35632
1.36391
1.37139
1.37872
1.38584
1.39269
1.39905
1.40489
1.41039
1.41525
1.41875
1.42105
1.42255
1.42271
1.4216
1.41968
1.41749
1.41425
1.41009
1.40548
1.40084
1.3965
1.39288
1.39004
1.38781
1.38591
1.38461
1.38486
1.38369
1.38831
0.845783
0.873172
0.901
0.928975
0.956578
0.983497
1.00954
1.03444
1.05823
1.08069
1.10192
1.12169
1.14018
1.15716
1.17291
1.18722
1.20044
1.21233
1.22326
1.23293
1.24162
1.24909
1.25561
1.261
1.26533
1.26862
1.27077
1.27201
1.27239
1.27213
1.27045
1.26766
1.26427
1.26067
1.25668
1.25273
1.24882
1.24524
1.24188
1.23901
1.2365
1.23456
1.23315
1.23237
1.23231
1.23278
1.2334
1.23427
1.23574
1.23803
1.24108
1.24465
1.2487
1.25321
1.25812
1.26339
1.26897
1.27481
1.2809
1.28721
1.29374
1.30048
1.3074
1.31449
1.3217
1.32904
1.33644
1.34388
1.35133
1.35875
1.36613
1.37343
1.38062
1.38761
1.39435
1.40081
1.4068
1.41218
1.4172
1.42179
1.42519
1.42723
1.4285
1.42852
1.42762
1.42581
1.42376
1.42031
1.41612
1.41157
1.40708
1.40302
1.39983
1.39754
1.39586
1.39455
1.39395
1.39484
1.39399
1.3988
0.839766
0.86427
0.889343
0.914743
0.940176
0.96529
0.989949
1.01384
1.03694
1.05903
1.08013
1.10007
1.1189
1.1365
1.15296
1.16822
1.18241
1.19546
1.20756
1.21858
1.2287
1.23765
1.24582
1.25279
1.25902
1.26402
1.26821
1.27125
1.27338
1.27451
1.2749
1.27464
1.27307
1.27074
1.26801
1.26483
1.2615
1.25838
1.25539
1.25277
1.25044
1.24858
1.2472
1.24635
1.24619
1.24658
1.24717
1.24794
1.24925
1.25134
1.25421
1.25761
1.26149
1.26582
1.27058
1.2757
1.28114
1.28685
1.2928
1.29898
1.30535
1.31192
1.31867
1.32557
1.33262
1.33974
1.34693
1.35415
1.36137
1.36853
1.37562
1.38261
1.38945
1.39607
1.40241
1.40845
1.41399
1.41893
1.42353
1.42773
1.43075
1.43243
1.43335
1.43321
1.43229
1.4306
1.42826
1.42468
1.42054
1.41632
1.41233
1.40896
1.40654
1.40503
1.40396
1.40333
1.40342
1.40462
1.40392
1.4086
0.836064
0.85846
0.881308
0.904538
0.927892
0.95121
0.974221
0.996864
1.01884
1.04023
1.06072
1.08047
1.09917
1.11704
1.13382
1.14973
1.16457
1.1786
1.1916
1.20387
1.21514
1.22556
1.23507
1.24367
1.25145
1.25818
1.26412
1.26896
1.27293
1.27591
1.2779
1.279
1.27944
1.27916
1.27796
1.2761
1.27362
1.2711
1.26853
1.26625
1.26414
1.26243
1.26113
1.26029
1.26009
1.26041
1.261
1.26171
1.26288
1.26477
1.26745
1.27068
1.27439
1.27855
1.28312
1.28808
1.29336
1.29893
1.30474
1.31077
1.31699
1.32339
1.32995
1.33667
1.34351
1.35042
1.35739
1.36439
1.37137
1.37829
1.38508
1.39175
1.39822
1.40442
1.41032
1.41589
1.42089
1.42528
1.42937
1.43298
1.43535
1.43662
1.43712
1.43682
1.43567
1.43425
1.43155
1.42811
1.42435
1.4207
1.41744
1.41491
1.41331
1.41257
1.41207
1.41222
1.41282
1.41433
1.4138
1.41834
0.832017
0.853201
0.874656
0.896347
0.918128
0.939935
0.961502
0.982859
1.0037
1.02415
1.0439
1.06311
1.0815
1.09927
1.11614
1.13237
1.14767
1.16238
1.17618
1.18941
1.20174
1.21341
1.22419
1.23422
1.24343
1.25174
1.25932
1.26583
1.27166
1.2763
1.28019
1.28299
1.28495
1.286
1.28651
1.28641
1.2854
1.28378
1.28191
1.28003
1.27823
1.27672
1.27555
1.27475
1.27451
1.27477
1.27533
1.27598
1.27698
1.27864
1.28107
1.2841
1.28758
1.29148
1.2958
1.3005
1.30554
1.31088
1.31648
1.3223
1.3283
1.33448
1.34081
1.34726
1.35383
1.36048
1.36719
1.37394
1.38068
1.38733
1.39386
1.40022
1.40634
1.41213
1.4176
1.42265
1.42705
1.43087
1.43445
1.43738
1.43904
1.43988
1.43999
1.43947
1.43836
1.43657
1.43378
1.43051
1.42724
1.42423
1.42175
1.42009
1.41928
1.41921
1.41933
1.42039
1.42144
1.42338
1.42317
1.42778
0.826027
0.846638
0.867344
0.888121
0.90893
0.929699
0.950309
0.97069
0.990737
1.0104
1.0296
1.04831
1.06647
1.08405
1.10104
1.11741
1.13315
1.14828
1.16277
1.17668
1.18991
1.20257
1.21438
1.22564
1.23599
1.24575
1.2546
1.26272
1.26998
1.27633
1.28187
1.2864
1.29005
1.29279
1.2946
1.29567
1.29616
1.29617
1.29534
1.29393
1.29253
1.29111
1.29
1.28917
1.28873
1.28887
1.2893
1.2898
1.29054
1.29188
1.29397
1.29671
1.29987
1.30344
1.30741
1.31178
1.31651
1.32156
1.32688
1.33244
1.3382
1.34412
1.35018
1.35636
1.36263
1.36898
1.3754
1.38186
1.38829
1.39462
1.40084
1.4069
1.41267
1.41808
1.42318
1.4278
1.43167
1.43504
1.43811
1.44032
1.44138
1.44179
1.44168
1.44092
1.43981
1.4376
1.43489
1.43207
1.42946
1.42712
1.42556
1.4248
1.42473
1.42523
1.42609
1.42795
1.42943
1.4317
1.43199
1.43687
0.818578
0.838473
0.858451
0.878436
0.898472
0.918445
0.938334
0.958056
0.977529
0.996734
1.01556
1.03404
1.05205
1.06967
1.08675
1.1034
1.11947
1.1351
1.15013
1.16471
1.17869
1.19216
1.20492
1.21712
1.22857
1.23942
1.24947
1.25886
1.26741
1.27516
1.28205
1.28801
1.2931
1.29713
1.30032
1.3026
1.30416
1.30506
1.30531
1.30519
1.30441
1.3033
1.30225
1.30139
1.30088
1.30078
1.30111
1.30151
1.30209
1.30315
1.30496
1.30745
1.31035
1.31364
1.31734
1.32144
1.32592
1.33074
1.33585
1.3412
1.34675
1.35248
1.35832
1.36425
1.37026
1.37633
1.38244
1.38859
1.3947
1.40066
1.40649
1.41217
1.4175
1.42239
1.42698
1.43108
1.43438
1.43718
1.43966
1.44121
1.4418
1.44197
1.44171
1.44103
1.43947
1.43716
1.43506
1.43282
1.43099
1.42957
1.42877
1.42879
1.42943
1.43046
1.43199
1.43431
1.43603
1.43816
1.43901
1.44395
0.810932
0.82996
0.849091
0.868236
0.887467
0.906659
0.925831
0.944877
0.963791
0.982499
1.00097
1.01918
1.03706
1.05462
1.0718
1.0886
1.10498
1.12095
1.13647
1.15157
1.16619
1.18031
1.19387
1.20685
1.21921
1.23098
1.24206
1.25249
1.26218
1.27111
1.27925
1.28651
1.293
1.2985
1.30326
1.30687
1.30975
1.31195
1.31335
1.31405
1.31427
1.31424
1.31379
1.31317
1.31275
1.31268
1.31296
1.31338
1.31389
1.31484
1.31649
1.31874
1.32141
1.32445
1.32793
1.33181
1.33606
1.34064
1.34551
1.35063
1.35592
1.3614
1.36698
1.37263
1.37836
1.38413
1.38988
1.39564
1.40134
1.40684
1.41218
1.41738
1.42216
1.4265
1.43055
1.43404
1.43671
1.43896
1.44071
1.44153
1.44178
1.44173
1.44131
1.44016
1.43816
1.43649
1.43464
1.43324
1.43207
1.43121
1.43091
1.43148
1.43275
1.43444
1.4364
1.43885
1.44076
1.44278
1.44384
1.44859
0.800176
0.818975
0.837762
0.856545
0.875356
0.894165
0.91294
0.931636
0.950213
0.968634
0.986867
1.00488
1.02265
1.04015
1.05736
1.07424
1.0908
1.107
1.12284
1.13829
1.15334
1.16799
1.18213
1.19577
1.20885
1.22139
1.23335
1.24469
1.25541
1.26546
1.27483
1.28346
1.29131
1.29831
1.30448
1.30974
1.31415
1.31765
1.3205
1.32256
1.32381
1.32456
1.32486
1.32499
1.32492
1.32489
1.32511
1.32545
1.3259
1.32676
1.32815
1.33008
1.33241
1.33512
1.33826
1.34176
1.34565
1.34986
1.35438
1.35917
1.36415
1.36931
1.37459
1.37993
1.38534
1.39077
1.39614
1.4015
1.40676
1.41178
1.41664
1.42127
1.42543
1.42918
1.43261
1.43535
1.43739
1.43905
1.44012
1.44047
1.44054
1.44024
1.43932
1.43763
1.43619
1.43461
1.43348
1.43258
1.43179
1.43117
1.43131
1.43258
1.43442
1.43652
1.43877
1.44141
1.44364
1.44578
1.44688
1.45137
0.785369
0.804313
0.823122
0.841831
0.860511
0.879161
0.897779
0.916336
0.934809
0.953163
0.971371
0.989407
1.00724
1.02486
1.04222
1.05931
1.07611
1.0926
1.10876
1.12459
1.14007
1.15521
1.16992
1.18418
1.19798
1.21128
1.22409
1.23634
1.24806
1.25915
1.26963
1.27942
1.28848
1.29676
1.3042
1.3108
1.31645
1.32122
1.32518
1.32842
1.33077
1.33245
1.33349
1.33414
1.33446
1.33465
1.33485
1.33512
1.33552
1.33619
1.33725
1.33875
1.34068
1.34302
1.34578
1.3489
1.35242
1.35627
1.36043
1.36488
1.36953
1.37436
1.37932
1.38434
1.38942
1.39451
1.39952
1.4045
1.40935
1.41389
1.41825
1.42235
1.4259
1.42905
1.43186
1.43395
1.43534
1.43639
1.43699
1.43723
1.43694
1.43609
1.43468
1.43339
1.43215
1.43112
1.43042
1.42979
1.42917
1.42894
1.42984
1.43171
1.43385
1.43623
1.43883
1.44175
1.44431
1.44665
1.44785
1.45197
0.771105
0.789749
0.808262
0.826699
0.845106
0.863503
0.881894
0.900252
0.918569
0.936801
0.954942
0.972946
0.990805
1.00848
1.02597
1.04323
1.06026
1.07703
1.09353
1.10973
1.12565
1.14122
1.15649
1.17131
1.18574
1.19971
1.21322
1.22624
1.23876
1.25072
1.26211
1.27286
1.28297
1.2923
1.30092
1.30866
1.31559
1.32156
1.32671
1.33107
1.33461
1.33723
1.33914
1.34051
1.34139
1.34201
1.34242
1.34282
1.34328
1.34392
1.34482
1.34609
1.34774
1.34981
1.35225
1.35508
1.35828
1.3618
1.36565
1.36975
1.37406
1.37856
1.38316
1.38783
1.39257
1.39724
1.40186
1.40644
1.41079
1.41483
1.41869
1.42208
1.42492
1.42738
1.42937
1.43056
1.43131
1.43173
1.4321
1.43171
1.43073
1.42947
1.42803
1.42717
1.42626
1.42575
1.42523
1.4248
1.42446
1.42488
1.42645
1.42862
1.43099
1.43364
1.4366
1.43975
1.44262
1.44517
1.44647
1.45021
0.760484
0.778099
0.795733
0.81342
0.831178
0.849011
0.866898
0.884827
0.902764
0.920688
0.938562
0.956371
0.974072
0.991661
1.00909
1.02636
1.04344
1.06032
1.07696
1.09339
1.10956
1.12546
1.1411
1.15638
1.17129
1.18581
1.1999
1.21357
1.22677
1.23949
1.25167
1.26329
1.27429
1.28464
1.2943
1.3032
1.31132
1.3186
1.325
1.33054
1.33533
1.33921
1.3423
1.34462
1.34634
1.34757
1.34849
1.34925
1.34996
1.35073
1.35166
1.35287
1.35439
1.35625
1.35848
1.36106
1.36399
1.36725
1.37077
1.37455
1.37853
1.38265
1.3869
1.39122
1.39552
1.3998
1.40405
1.40813
1.41197
1.41558
1.41872
1.42136
1.42359
1.42531
1.42633
1.42689
1.42723
1.42726
1.42663
1.42531
1.42388
1.42228
1.42117
1.42013
1.41944
1.41874
1.41818
1.41768
1.4177
1.41891
1.42102
1.42345
1.42617
1.42934
1.4327
1.43621
1.43939
1.44229
1.44378
1.44741
0.748793
0.766
0.783221
0.800487
0.817833
0.835271
0.852786
0.870376
0.888014
0.905676
0.923345
0.940975
0.958549
0.976039
0.993429
1.01069
1.0278
1.04475
1.06151
1.07808
1.09444
1.11058
1.1265
1.14212
1.1574
1.17236
1.18693
1.20112
1.2149
1.22824
1.24109
1.25346
1.26525
1.27648
1.28706
1.29697
1.30614
1.31456
1.3221
1.32878
1.3347
1.33986
1.34413
1.34759
1.35033
1.35246
1.35406
1.3553
1.35631
1.35723
1.35818
1.35927
1.36059
1.36218
1.36411
1.36637
1.36896
1.37184
1.37502
1.37844
1.38204
1.38582
1.38971
1.39363
1.39757
1.40151
1.40526
1.40885
1.4122
1.41508
1.41759
1.4197
1.42117
1.42215
1.42258
1.42268
1.42243
1.42138
1.4198
1.4177
1.416
1.41416
1.41311
1.41195
1.41121
1.4105
1.40987
1.40954
1.41045
1.41239
1.41482
1.4176
1.42087
1.42442
1.42813
1.43197
1.4354
1.4387
1.44042
1.44403
0.732296
0.749382
0.766563
0.783807
0.80115
0.818587
0.836101
0.853672
0.871287
0.888906
0.906532
0.924123
0.941677
0.959148
0.976539
0.993803
1.01095
1.02795
1.04479
1.06146
1.07796
1.09428
1.11041
1.12632
1.14195
1.15728
1.17229
1.18695
1.20127
1.21518
1.22866
1.24169
1.2542
1.26618
1.27758
1.28835
1.29849
1.30789
1.31655
1.3244
1.33141
1.33762
1.34302
1.34749
1.35115
1.35405
1.35632