/*--------------------------------*- C++ -*----------------------------------*\
  =========                 |
  \\      /  F ield         | OpenFOAM: The Open Source CFD Toolbox
   \\    /   O peration     | Website:  https://openfoam.org
    \\  /    A nd           | Version:  6
     \\/     M anipulation  |
\*---------------------------------------------------------------------------*/
FoamFile
{
    version     2.0;
    format      ascii;
    class       volScalarField;
    location    "10";
    object      p;
}
// * * * * * * * * * * * * * * * * * * * * * * * * * * * * * * * * * * * * * //

dimensions      [1 -1 -2 0 0 0 0];

internalField   nonuniform List<scalar> 
5250
(
1.00012
1.00067
1.00172
1.00454
1.00975
1.02543
1.05164
1.1453
1.28988
1.88091
3.07965
7.21047
15.4748
14.0531
12.1608
11.4312
11.4707
11.6661
11.9641
12.1316
12.2285
12.3109
12.3837
12.4388
12.4718
1.00012
1.00067
1.00172
1.00453
1.00972
1.02535
1.05148
1.14486
1.28893
1.87831
3.07306
7.18965
15.4315
14.0126
12.1272
11.4126
11.4585
11.6612
11.955
12.1187
12.216
12.3005
12.375
12.4306
12.4655
1.00012
1.00066
1.0017
1.0045
1.00966
1.02518
1.05112
1.14393
1.2867
1.87288
3.05743
7.1409
15.335
13.9337
12.0602
11.3686
11.4225
11.6343
11.9188
12.0747
12.1713
12.258
12.3341
12.3904
12.4278
1.00012
1.00065
1.00169
1.00445
1.00956
1.02492
1.05055
1.14246
1.28301
1.8643
3.03155
7.06174
15.1861
13.8243
11.9696
11.3015
11.3616
11.579
11.8508
11.9966
12.09
12.176
12.2513
12.3066
12.345
1.00012
1.00064
1.00166
1.00439
1.00941
1.02454
1.04975
1.14041
1.27776
1.85255
2.99495
6.95253
14.9847
13.6831
11.8578
11.2142
11.2787
11.4976
11.7546
11.8891
11.9771
12.0599
12.1324
12.1851
12.2237
1.00011
1.00063
1.00163
1.0043
1.00923
1.02405
1.04875
1.13773
1.27085
1.83782
2.94731
6.81417
14.729
13.5066
11.7276
11.1084
11.1748
11.3902
11.6289
11.7489
11.8277
11.903
11.9693
12.0177
12.0573
1.00011
1.00062
1.00159
1.00419
1.00901
1.02346
1.04763
1.13429
1.26372
1.81741
2.89234
6.64495
14.4167
13.296
11.5785
10.9856
11.051
11.2566
11.4721
11.5733
11.637
11.6976
11.7501
11.7878
11.826
1.00011
1.0006
1.00154
1.00407
1.00875
1.02277
1.0463
1.13029
1.25575
1.79196
2.83045
6.44516
14.0462
13.0509
11.4114
10.8494
10.9109
11.0993
11.2842
11.3596
11.3988
11.4322
11.4547
11.4633
11.4885
1.0001
1.00058
1.00149
1.00394
1.00846
1.02199
1.04477
1.12571
1.24678
1.76256
2.75954
6.21607
13.6148
12.7695
11.2303
10.7038
10.7577
10.9202
11.0665
11.1081
11.1106
11.0977
11.0572
10.9878
10.953
1.0001
1.00056
1.00143
1.00378
1.00812
1.0211
1.04303
1.12051
1.23669
1.72932
2.67972
5.96059
13.1182
12.439
11.0574
10.5565
10.5963
10.7206
10.8201
10.8184
10.7831
10.6889
10.5164
10.2655
9.94991
1.00009
1.00053
1.00137
1.0036
1.00775
1.02011
1.0411
1.11466
1.22564
1.69207
2.59141
5.68007
12.5524
12.0498
10.9107
10.4149
10.4318
10.506
10.5516
10.5219
10.4191
10.1965
9.82257
9.15153
7.59973
1.00009
1.0005
1.00129
1.0034
1.00733
1.01899
1.03892
1.1081
1.21331
1.65084
2.49432
5.37704
11.9212
11.6168
10.7822
10.2877
10.2623
10.2918
10.2877
10.224
10.0433
9.68372
9.14079
8.30403
6.82888
1.00008
1.00047
1.0012
1.00317
1.00683
1.0177
1.03622
1.10098
1.19717
1.60723
2.37934
5.05575
11.2253
11.1613
10.6837
10.1879
10.0923
10.0923
10.06
9.9434
9.68279
9.25875
8.68076
7.9051
6.87346
1.00008
1.00043
1.0011
1.00291
1.00627
1.01623
1.03327
1.09276
1.17893
1.56001
2.23655
4.7066
10.402
10.8445
10.5666
10.1075
9.96139
9.92626
9.84954
9.68274
9.37963
8.97084
8.44677
7.8032
7.01709
1.00007
1.00038
1.00099
1.00262
1.00564
1.01459
1.02997
1.08334
1.15969
1.50352
2.08678
4.29446
9.42877
10.6628
10.4745
10.0676
9.85788
9.77571
9.66429
9.466
9.17544
8.80133
8.34611
7.81316
7.20985
1.00006
1.00034
1.00087
1.0023
1.00496
1.01279
1.02631
1.07271
1.14002
1.43547
1.93578
3.80792
8.27116
10.6225
10.4683
10.0658
9.76806
9.63895
9.51148
9.31373
9.04295
8.7041
8.30567
7.84631
7.35505
1.00005
1.00029
1.00074
1.00196
1.00422
1.01085
1.02235
1.06119
1.11834
1.36175
1.77035
3.27879
6.91822
10.6833
10.5195
10.079
9.6984
9.52814
9.3951
9.20777
8.9589
8.65496
8.30598
7.90893
7.48732
1.00004
1.00024
1.00062
1.00162
1.00351
1.00894
1.01846
1.04957
1.09736
1.28606
1.60128
2.73537
5.33986
10.6843
10.5645
10.1472
9.67594
9.45367
9.31274
9.13625
8.90625
8.63139
8.31711
7.97497
7.6124
1.00004
1.0002
1.00052
1.00136
1.00294
1.00749
1.01548
1.04143
1.08073
1.24117
1.4807
2.48378
4.65004
10.2359
10.4524
10.1672
9.67644
9.40579
9.25173
9.08695
8.87816
8.63251
8.34725
8.04948
7.73577
1.00003
1.00017
1.00044
1.00114
1.00248
1.00631
1.01306
1.03489
1.06817
1.20453
1.39345
2.27967
4.02011
9.13965
10.2442
10.096
9.71233
9.39819
9.2157
9.06023
8.8753
8.64633
8.39785
8.13546
7.85949
1.00003
1.00014
1.00036
1.00095
1.00206
1.00523
1.01084
1.02892
1.05606
1.17121
1.31392
2.06863
3.42048
7.73714
10.2151
10.1144
9.79331
9.41964
9.21789
9.06329
8.88742
8.68349
8.46656
8.2317
7.98352
1.00002
1.00012
1.0003
1.00078
1.0017
1.00431
1.00895
1.02359
1.04714
1.13579
1.25999
1.83125
2.87504
6.2298
10.2782
10.219
9.9416
9.4894
9.24393
9.0857
8.92592
8.7514
8.55219
8.3347
8.10555
1.00002
1.00009
1.00025
1.00064
1.00139
1.00352
1.00734
1.01913
1.03871
1.10763
1.21392
1.64074
2.44419
5.02121
10.1245
10.3103
10.0919
9.63208
9.31585
9.14313
8.99969
8.83397
8.64367
8.43735
8.22152
1.00001
1.00008
1.0002
1.00053
1.00114
1.0029
1.00604
1.01579
1.03181
1.08978
1.17202
1.53731
2.19061
4.44212
9.4873
10.2882
10.1296
9.75803
9.42218
9.22664
9.07715
8.91579
8.73278
8.53498
8.32914
1.00001
1.00006
1.00017
1.00043
1.00094
1.00238
1.00494
1.01298
1.02586
1.07476
1.1366
1.454
1.94364
3.87034
8.179
10.3004
10.2103
9.92237
9.54879
9.31958
9.15697
8.9957
8.81774
8.62679
8.42915
1.00001
1.00005
1.00015
1.00033
1.00084
1.00178
1.00454
1.00933
1.02517
1.0484
1.14886
1.27334
1.92242
3.07899
6.80276
10.466
10.4133
10.1544
9.70483
9.41944
9.23425
9.06907
8.89501
8.71095
8.52194
1.00001
1.00004
1.00012
1.00027
1.0007
1.00148
1.00377
1.00777
1.02058
1.04108
1.11708
1.22821
1.704
2.5774
5.36669
10.6435
10.6785
10.4237
9.89724
9.5289
9.30912
9.13676
8.96601
8.789
8.6085
1.00001
1.00003
1.0001
1.00023
1.00058
1.00124
1.00316
1.00653
1.01732
1.03462
1.09882
1.19129
1.596
2.32906
4.84231
10.2718
10.7355
10.5187
10.0416
9.63378
9.38057
9.19765
9.03
8.8613
8.69063
1.00001
1.00003
1.00008
1.00019
1.00048
1.00103
1.00263
1.00543
1.01455
1.0284
1.08534
1.15478
1.52015
2.1284
4.34478
9.39324
10.7476
10.5925
10.1944
9.74702
9.45435
9.25679
9.09196
8.9327
8.77249
1
1.00003
1.00006
1.00017
1.00037
1.00093
1.00194
1.0051
1.01015
1.02926
1.05214
1.18039
1.31257
2.16647
3.61443
8.33356
10.8916
10.7731
10.3948
9.86346
9.52086
9.31148
9.15253
9.0034
8.85282
1
1.00002
1.00006
1.00013
1.00034
1.00073
1.00185
1.00381
1.01026
1.01947
1.06101
1.10384
1.37605
1.72496
3.3613
6.98874
11.2975
11.1455
10.6277
9.95623
9.56155
9.35021
9.20408
9.06767
8.92722
1
1.00002
1.00005
1.00012
1.0003
1.00064
1.00164
1.00339
1.00891
1.01789
1.0505
1.09403
1.30231
1.60316
2.85657
5.65223
11.6583
11.4635
10.8482
10.0476
9.60142
9.38748
9.25342
9.12872
8.99727
1
1.00002
1.00005
1.00011
1.00027
1.00057
1.00145
1.00302
1.00791
1.01593
1.04458
1.08347
1.2669
1.51984
2.67036
5.13011
11.4389
11.3985
10.9724
10.1366
9.65272
9.42779
9.29888
9.18361
9.06088
1
1.00001
1.00004
1.00009
1.00024
1.00051
1.00131
1.00273
1.00715
1.01444
1.04032
1.07643
1.24229
1.46282
2.55039
4.70673
10.8822
11.2876
10.9573
10.2569
9.74937
9.49404
9.3532
9.23853
9.12094
1
1.00001
1.00004
1.00008
1.00021
1.00046
1.00117
1.00242
1.00639
1.01285
1.03645
1.06755
1.22389
1.41047
2.44052
4.37687
10.2275
11.2533
10.9841
10.382
9.86124
9.56913
9.40731
9.28868
9.17499
1
1.00001
1.00003
1.00008
1.00017
1.00043
1.0009
1.00236
1.00467
1.01357
1.02369
1.08365
1.13716
1.52224
2.08102
4.34698
9.54191
11.2773
11.0583
10.5119
9.95324
9.62159
9.44406
9.32631
9.21896
1
1.00001
1.00003
1.00007
1.00017
1.00036
1.00092
1.0019
1.0051
1.01002
1.0299
1.0522
1.18897
1.32276
2.22878
3.76787
8.86607
11.4328
11.2193
10.6392
10.0064
9.64028
9.46322
9.35631
9.25825
1
1.00001
1.00003
1.00006
1.00015
1.00032
1.00082
1.0017
1.00455
1.00893
1.02673
1.04631
1.16911
1.28287
2.10309
3.42286
8.06307
11.7964
11.5083
10.7469
10.0069
9.62163
9.45739
9.36845
9.28394
1
1.00001
1.00002
1.00006
1.00012
1.00031
1.00064
1.00167
1.0033
1.00959
1.01663
1.05937
1.09449
1.37014
1.70636
3.32286
6.96175
12.3356
11.9245
10.8884
10.008
9.59291
9.44723
9.38053
9.30971
1
1.00001
1.00002
1.00005
1.00012
1.00026
1.00066
1.00137
1.00365
1.00725
1.02109
1.03771
1.13101
1.22602
1.81917
2.80199
6.25087
12.7242
12.2245
11.0003
10.0239
9.58467
9.44703
9.39384
9.33306
1
1.00001
1.00002
1.00005
1.0001
1.00026
1.00055
1.00143
1.00289
1.00806
1.01474
1.04884
1.08067
1.30164
1.57748
2.86811
5.77908
12.6662
12.2198
11.0822
10.0693
9.60334
9.46138
9.41564
9.36018
1
1.00001
1.00002
1.00004
1.00011
1.00023
1.00059
1.00121
1.00323
1.00627
1.01882
1.03226
1.11757
1.19622
1.73371
2.59567
5.7594
12.4144
12.0952
11.1074
10.1292
9.64979
9.4937
9.44175
9.3857
1
1.00001
1.00002
1.00005
1.0001
1.00025
1.00053
1.00136
1.00277
1.00754
1.01439
1.04474
1.07655
1.27855
1.51658
2.76465
5.36884
12.1802
11.9637
11.1836
10.2157
9.71457
9.5361
9.47138
9.41106
1
1.00001
1.00002
1.00004
1.00011
1.00023
1.00059
1.00123
1.00323
1.0065
1.01826
1.03364
1.11116
1.19293
1.6895
2.50564
5.47734
11.9015
11.7953
11.1652
10.2691
9.77188
9.57707
9.49943
9.43372
1
1.00001
1.00002
1.00004
1.00011
1.00024
1.0006
1.00126
1.00329
1.00668
1.0183
1.03563
1.10763
1.1982
1.66708
2.47076
5.38559
11.6864
11.654
11.1563
10.316
9.82455
9.61629
9.52606
9.45417
1
1.00001
1.00002
1.00004
1.00011
1.00023
1.0006
1.00124
1.00325
1.00659
1.01803
1.0351
1.10589
1.19454
1.65572
2.44132
5.30317
11.5174
11.5782
11.1695
10.3661
9.87066
9.64837
9.5474
9.47052
1
1.00001
1.00002
1.00004
1.00011
1.00023
1.00058
1.00121
1.00318
1.00645
1.01767
1.03435
1.10407
1.19016
1.64591
2.41094
5.2324
11.367
11.5514
11.1684
10.4004
9.89819
9.665
9.55874
9.481
1
1.00001
1.00002
1.00004
1.0001
1.00022
1.00055
1.00115
1.00302
1.00605
1.01704
1.03117
1.10373
1.17804
1.64057
2.39292
5.1596
11.2773
11.5753
11.1976
10.4324
9.91267
9.66741
9.55835
9.48222
1
1.00001
1.00002
1.00004
1.00009
1.00023
1.00048
1.00125
1.00256
1.0069
1.01343
1.04031
1.07061
1.25219
1.45558
2.62358
4.84197
11.2232
11.6367
11.2601
10.4841
9.93673
9.67657
9.56387
9.48885
1
1.00001
1.00002
1.00004
1.0001
1.00021
1.00053
1.00111
1.00292
1.00583
1.01662
1.02999
1.10226
1.17293
1.63285
2.36477
5.09039
11.1434
11.5944
11.2294
10.4732
9.93143
9.67135
9.55981
9.48681
4.24168
3.11528
3.27675
3.98792
4.04354
3.94026
3.81225
3.7065
3.655
3.63811
3.63675
3.65368
3.67466
3.68989
3.69448
3.69537
3.69888
3.71269
3.74183
3.78333
3.83261
3.88754
3.9482
4.01464
4.08608
4.1601
4.23531
4.31099
4.38593
4.45895
4.52953
4.59715
4.66105
4.72068
4.77572
4.82669
4.87547
4.92263
4.96153
4.99264
5.01745
5.03668
5.05052
5.05908
5.06263
5.06207
5.05875
5.05019
5.03455
5.01577
4.99434
4.96995
4.94257
4.91238
4.87963
4.8445
4.80729
4.76813
4.72727
4.68486
4.64109
4.59612
4.55011
4.50322
4.45562
4.40744
4.35886
4.31003
4.26112
4.21232
4.1638
4.11575
4.0684
4.02194
3.97664
3.93273
3.89053
3.85034
3.8125
3.77744
3.7456
3.71752
3.69375
3.67507
3.66181
3.65505
3.65499
3.65587
3.65903
3.66699
3.68398
3.71406
3.74877
3.78492
3.82093
3.85517
3.88609
3.91215
3.93188
3.94535
4.81399
3.82131
3.87489
4.09365
4.0033
3.89034
3.79522
3.72412
3.68818
3.67421
3.67733
3.69079
3.69499
3.70207
3.69415
3.68806
3.68679
3.69918
3.72974
3.77246
3.82171
3.87591
3.93562
4.00149
4.07368
4.14778
4.22322
4.29934
4.37464
4.44814
4.5194
4.58768
4.65225
4.71255
4.76843
4.82024
4.86914
4.91526
4.95441
4.98598
5.01109
5.03051
5.04452
5.05322
5.05675
5.05627
5.05355
5.0461
5.03068
5.01096
4.98907
4.96475
4.9376
4.90761
4.87501
4.84002
4.8029
4.76387
4.72313
4.68083
4.63717
4.59231
4.54643
4.49966
4.45218
4.40414
4.35568
4.30697
4.25819
4.2095
4.16109
4.11316
4.0659
4.01955
3.97434
3.93052
3.88839
3.84826
3.8105
3.77549
3.74369
3.71563
3.69194
3.67317
3.65993
3.65348
3.65358
3.65463
3.65799
3.66607
3.68305
3.71273
3.74745
3.78394
3.82046
3.85512
3.88655
3.91324
3.93382
3.94953
5.7437
4.96571
4.65184
4.45196
4.22252
4.04246
3.90395
3.79886
3.72411
3.67866
3.66355
3.66563
3.67423
3.68907
3.69268
3.69306
3.69726
3.71114
3.74055
3.78139
3.82963
3.88267
3.94088
4.00503
4.07498
4.14791
4.22236
4.29732
4.37172
4.44463
4.51513
4.58271
4.64676
4.70672
4.76244
4.81413
4.8624
4.907
4.94589
4.97795
5.00348
5.02306
5.0371
5.04575
5.04907
5.04862
5.04634
5.04002
5.02629
5.0055
4.98276
4.95825
4.93126
4.90151
4.86909
4.83425
4.79727
4.75837
4.71775
4.67561
4.6321
4.58741
4.54168
4.49508
4.44773
4.39981
4.3515
4.30295
4.25432
4.20578
4.15752
4.10974
4.06263
4.01643
3.97137
3.92772
3.88574
3.84576
3.80816
3.77329
3.74163
3.7137
3.69005
3.67151
3.65839
3.65251
3.65269
3.65395
3.65755
3.66592
3.6832
3.71195
3.74619
3.78294
3.82006
3.8553
3.88735
3.91468
3.93618
3.95479
6.24106
5.57189
5.11295
4.80431
4.55305
4.33517
4.14183
3.98385
3.86514
3.79335
3.76734
3.76639
3.76796
3.7689
3.76655
3.76021
3.75769
3.76122
3.77444
3.80495
3.8528
3.90421
3.95858
4.0179
4.08296
4.15198
4.22324
4.29563
4.36785
4.43824
4.50685
4.57307
4.63618
4.69555
4.7509
4.80226
4.84974
4.89319
4.93159
4.96391
4.98989
5.00983
5.02406
5.03281
5.03604
5.03564
5.0337
5.02836
5.01658
4.99585
4.9725
4.94753
4.92048
4.89094
4.85884
4.82432
4.78762
4.74899
4.70863
4.66676
4.62353
4.57913
4.5337
4.48739
4.44035
4.39274
4.34472
4.29647
4.24813
4.19988
4.1519
4.1044
4.05758
4.01165
3.96687
3.9235
3.8818
3.84211
3.80479
3.77023
3.73884
3.71117
3.68779
3.66951
3.6568
3.6515
3.65183
3.65335
3.65737
3.66624
3.68407
3.71188
3.74439
3.78119
3.81862
3.85437
3.88703
3.91519
3.9376
3.95966
6.57864
5.98887
5.50847
5.14558
4.85964
4.6185
4.40894
4.234
4.09758
4.00265
3.94459
3.91124
3.889
3.87126
3.85563
3.8419
3.83538
3.83683
3.84381
3.86218
3.90034
3.94761
3.99728
4.04996
4.10717
4.16868
4.23352
4.3005
4.36828
4.43537
4.50147
4.56544
4.6267
4.68456
4.73878
4.78909
4.83545
4.87768
4.91529
4.94745
4.97367
4.99396
5.00839
5.01724
5.02032
5.01992
5.01815
5.01343
5.00312
4.98361
4.96035
4.93496
4.90762
4.87811
4.84627
4.8121
4.77578
4.73751
4.6975
4.65596
4.61306
4.56897
4.52387
4.47787
4.43113
4.38387
4.33619
4.28827
4.24028
4.19241
4.14483
4.09774
4.05134
4.00586
3.96154
3.91865
3.87744
3.83827
3.80148
3.76746
3.73663
3.70952
3.68671
3.66892
3.65683
3.65249
3.65295
3.65473
3.65915
3.66857
3.68712
3.71329
3.7446
3.78051
3.81716
3.8531
3.88604
3.91489
3.93774
3.96301
6.83437
6.32714
5.87646
5.50327
5.19725
4.93936
4.71746
4.52835
4.3722
4.25014
4.16021
4.09672
4.05212
4.0193
3.99373
3.97331
3.95912
3.95358
3.95469
3.96019
3.97485
4.00552
4.04502
4.08976
4.13855
4.19137
4.24804
4.30784
4.36972
4.4326
4.49464
4.5556
4.61449
4.6705
4.72318
4.77222
4.81739
4.85848
4.89533
4.92713
4.95336
4.97401
4.98894
4.99817
5.00139
5.00102
4.99937
4.99505
4.98569
4.96767
4.94515
4.91978
4.89222
4.8626
4.83087
4.79698
4.76101
4.72312
4.6835
4.64234
4.59983
4.55614
4.51142
4.46588
4.41963
4.37286
4.32568
4.27828
4.23081
4.18347
4.13641
4.08985
4.04402
3.99909
3.95537
3.91312
3.87264
3.83424
3.79819
3.76486
3.73482
3.7085
3.68641
3.66935
3.65801
3.65504
3.65563
3.65768
3.66255
3.67273
3.69167
3.71646
3.74641
3.78014
3.81521
3.85044
3.88292
3.91227
3.93481
3.9632
7.04827
6.61333
6.20952
5.85276
5.54394
5.27842
5.04837
4.84789
4.67576
4.53219
4.41704
4.32756
4.25923
4.20648
4.16454
4.1302
4.1027
4.08321
4.07169
4.0705
4.07277
4.08116
4.10071
4.13551
4.17576
4.22047
4.26898
4.32089
4.37554
4.43213
4.48907
4.5462
4.60192
4.65543
4.70607
4.75342
4.79714
4.83698
4.8727
4.90385
4.92995
4.95075
4.96595
4.97553
4.97906
4.97873
4.97722
4.97328
4.96476
4.94822
4.92689
4.90212
4.87471
4.84511
4.81346
4.77983
4.74423
4.70679
4.66764
4.62697
4.58494
4.54174
4.49754
4.4525
4.40676
4.36051
4.31387
4.26703
4.22013
4.17338
4.12696
4.08107
4.03597
3.99188
3.94907
3.90772
3.86812
3.83065
3.79554
3.76309
3.73412
3.70883
3.68782
3.67207
3.66125
3.66003
3.6608
3.66318
3.66842
3.67929
3.69825
3.72213
3.75011
3.7812
3.81425
3.8477
3.87891
3.90818
3.92941
3.96138
7.23745
6.86282
6.50435
6.17421
5.878
5.61363
5.37825
5.16892
4.98531
4.82746
4.69311
4.58121
4.48967
4.41513
4.35401
4.30322
4.26117
4.22795
4.20359
4.18795
4.17999
4.18061
4.18474
4.19636
4.221
4.25534
4.29524
4.33892
4.38568
4.435
4.48639
4.53765
4.58898
4.63909
4.68708
4.73232
4.77434
4.81279
4.84737
4.87774
4.90349
4.92424
4.93985
4.95
4.95403
4.95378
4.9525
4.94902
4.9414
4.92608
4.90603
4.8822
4.8553
4.82592
4.7944
4.76094
4.72564
4.6886
4.6499
4.60972
4.5682
4.52553
4.48186
4.43739
4.39224
4.3466
4.30061
4.25444
4.20825
4.16224
4.11663
4.07166
4.02753
3.98441
3.94254
3.90216
3.86352
3.82714
3.79304
3.76216
3.73437
3.71018
3.69067
3.67625
3.66738
3.66719
3.66796
3.67045
3.67622
3.68812
3.7067
3.72938
3.7554
3.78345
3.81368
3.84437
3.87382
3.90188
3.92224
3.95649
7.41161
7.08525
6.76666
6.46431
6.18369
5.92639
5.69222
5.48082
5.29028
5.11951
4.9692
4.83888
4.72774
4.63398
4.55443
4.48687
4.4296
4.38208
4.34388
4.31448
4.2934
4.28024
4.27644
4.27795
4.28409
4.29872
4.32763
4.36158
4.4002
4.4421
4.48632
4.53164
4.57767
4.62332
4.66772
4.71015
4.74998
4.78674
4.82
4.84941
4.87458
4.89515
4.91082
4.92141
4.92633
4.92617
4.92509
4.92201
4.91517
4.90125
4.88241
4.85969
4.83362
4.80474
4.77353
4.74033
4.70533
4.66868
4.63047
4.59082
4.54989
4.50783
4.4648
4.42098
4.37652
4.33158
4.28631
4.24088
4.19551
4.15043
4.10583
4.06189
4.01877
3.97669
3.93589
3.89667
3.85928
3.82422
3.79158
3.76226
3.73605
3.71371
3.69574
3.68303
3.67628
3.67644
3.67748
3.68038
3.68678
3.69973
3.71747
3.73869
3.76236
3.78706
3.8139
3.84155
3.86868
3.89494
3.91358
3.94925
7.57432
7.28552
6.99967
6.72266
6.45903
6.2116
5.98144
5.76896
5.57372
5.39561
5.23508
5.09211
4.96571
4.85484
4.75852
4.6752
4.60337
4.54206
4.49067
4.44858
4.41511
4.38977
4.37259
4.36273
4.36285
4.36535
4.3735
4.39149
4.42012
4.45338
4.49004
4.52895
4.56858
4.6088
4.64872
4.68752
4.72451
4.75908
4.79071
4.81893
4.84334
4.86355
4.87926
4.89007
4.89597
4.89595
4.89515
4.89257
4.88659
4.87427
4.85652
4.8349
4.80982
4.7817
4.75103
4.71822
4.68358
4.64732
4.60958
4.57048
4.53016
4.48875
4.44641
4.4033
4.35958
4.3154
4.27093
4.22639
4.18203
4.13801
4.09448
4.05162
4.00963
3.96873
3.92921
3.89133
3.85545
3.82188
3.79114
3.76324
3.73937
3.71879
3.70323
3.69181
3.68748
3.6878
3.68913
3.69254
3.6998
3.71325
3.73006
3.74924
3.77032
3.79235
3.81479
3.83895
3.86337
3.88746
3.90455
3.93921
7.72698
7.46625
7.20585
6.94991
6.70206
6.46509
6.24075
6.03002
5.83342
5.65127
5.48394
5.33157
5.19407
5.07097
4.9618
4.86551
4.78104
4.70728
4.64366
4.58964
4.54449
4.50757
4.47859
4.45717
4.44359
4.43689
4.43744
4.44087
4.4503
4.47015
4.49711
4.52833
4.56089
4.59534
4.6304
4.66505
4.69864
4.7305
4.76005
4.78673
4.81012
4.82978
4.84537
4.85646
4.86303
4.86349
4.86289
4.86078
4.85569
4.84505
4.82832
4.80775
4.78375
4.75658
4.72666
4.69443
4.66028
4.6245
4.58727
4.54876
4.50908
4.46838
4.42679
4.38447
4.34156
4.29822
4.25471
4.21124
4.16798
4.12508
4.0827
4.04105
4.00033
3.9608
3.92274
3.88645
3.85228
3.82054
3.79172
3.76602
3.74406
3.7262
3.71273
3.70327
3.70125
3.7017
3.7033
3.70721
3.71541
3.72887
3.74443
3.76145
3.77968
3.79843
3.81693
3.83749
3.85823
3.87994
3.89549
3.92738
7.86927
7.629
7.38791
7.14888
6.91473
6.68792
6.47038
6.26342
6.068
5.88472
5.7141
5.55647
5.41203
5.28065
5.16208
5.05568
4.96074
4.87637
4.80189
4.73677
4.68053
4.63249
4.59216
4.55918
4.53342
4.51471
4.50276
4.49761
4.49839
4.50223
4.512
4.53207
4.55709
4.58325
4.61254
4.64275
4.67265
4.70141
4.72845
4.7532
4.77524
4.7941
4.80938
4.82063
4.82763
4.82898
4.82853
4.82682
4.82254
4.81346
4.79786
4.77839
4.75551
4.72941
4.70042
4.66898
4.63549
4.60031
4.56367
4.52579
4.4868
4.44684
4.40605
4.36456
4.32253
4.28018
4.23776
4.19543
4.15333
4.11164
4.07053
4.03022
3.99094
3.95295
3.91656
3.88206
3.84985
3.8202
3.79357
3.7703
3.75069
3.73553
3.72447
3.71721
3.71708
3.71766
3.7196
3.72414
3.73345
3.74628
3.76015
3.77471
3.78994
3.80532
3.81979
3.83698
3.85409
3.87202
3.88593
3.91472
7.99988
7.77486
7.54878
7.32365
7.10158
6.88464
6.67465
6.47303
6.28087
6.09895
5.92791
5.76814
5.61995
5.48338
5.3583
5.24435
5.14104
5.04771
4.96368
4.88848
4.82181
4.76308
4.71184
4.66766
4.63037
4.59982
4.5759
4.55856
4.54723
4.54271
4.54354
4.54742
4.55705
4.5767
4.59577
4.62052
4.64622
4.6716
4.69588
4.71844
4.73887
4.7567
4.77148
4.78271
4.79004
4.79231
4.792
4.79065
4.78712
4.77952
4.76518
4.74689
4.72517
4.7002
4.67229
4.64181
4.60916
4.57473
4.53881
4.50162
4.46337
4.42421
4.38426
4.34366
4.30263
4.2614
4.22015
4.17903
4.13819
4.09782
4.05812
4.01931
3.98164
3.94539
3.91087
3.8784
3.84841
3.82106
3.797
3.77635
3.75946
3.74706
3.73842
3.7342
3.73445
3.7355
3.73818
3.74392
3.7539
3.76537
3.777
3.78888
3.8011
3.81291
3.82351
3.8376
3.85061
3.86429
3.87647
3.90177
8.11886
7.90614
7.69257
7.47952
7.26853
7.0613
6.85944
6.66431
6.47697
6.29829
6.12885
5.96915
5.81942
5.67985
5.55035
5.43077
5.3207
5.21973
5.12725
5.0429
4.96647
4.89758
4.83583
4.7809
4.73256
4.6907
4.65523
4.62617
4.60329
4.58672
4.57604
4.57203
4.57292
4.57685
4.58638
4.60131
4.62025
4.64136
4.66238
4.68247
4.70112
4.71772
4.73177
4.74279
4.75023
4.75342
4.75324
4.75222
4.74938
4.74307
4.73026
4.71323
4.69273
4.66899
4.64227
4.61292
4.5813
4.54778
4.5127
4.47632
4.43887
4.40054
4.36147
4.32186
4.28195
4.24192
4.20191
4.16209
4.12262
4.08371
4.04555
4.00841
3.97253
3.93823
3.90581
3.87564
3.84814
3.82335
3.80212
3.78431
3.77048
3.76078
3.75472
3.75342
3.75381
3.75531
3.75891
3.76631
3.77586
3.78554
3.79462
3.80378
3.81291
3.82108
3.82813
3.83879
3.84739
3.85718
3.8674
3.88877
8.22865
8.02662
7.82418
7.62217
7.42169
7.22409
7.03071
6.84277
6.66121
6.48684
6.3202
6.16179
6.01185
5.87057
5.73794
5.61391
5.49821
5.39058
5.29057
5.1979
5.11242
5.034
4.96236
4.89727
4.83851
4.78592
4.73953
4.69922
4.66517
4.6373
4.61557
4.60006
4.59004
4.58638
4.58716
4.59044
4.59824
4.61283
4.62861
4.64562
4.66213
4.67726
4.69035
4.70092
4.7083
4.71223
4.71215
4.71141
4.70914
4.70391
4.69312
4.67733
4.65808
4.63567
4.61031
4.58226
4.55186
4.51943
4.48533
4.44988
4.41333
4.3759
4.33781
4.29931
4.2606
4.22182
4.18315
4.14473
4.10676
4.06944
4.03299
3.9977
3.96382
3.93169
3.90162
3.87403
3.84916
3.82736
3.8092
3.79442
3.78388
3.77689
3.77378
3.77394
3.77482
3.77722
3.78251
3.79069
3.7989
3.80635
3.81281
3.81922
3.82528
3.82983
3.83366
3.84022
3.84451
3.85075
3.85869
3.87556
8.33119
8.13954
7.94773
7.75629
7.56601
7.37791
7.19313
7.0126
6.83714
6.66745
6.50408
6.34745
6.19785
6.05547
5.92039
5.79261
5.67202
5.55848
5.45174
5.35155
5.25784
5.17071
5.08996
5.01547
4.94704
4.88461
4.82808
4.77747
4.73281
4.69412
4.66144
4.63489
4.61428
4.59967
4.59035
4.58711
4.58754
4.59007
4.59644
4.60901
4.62199
4.63515
4.64701
4.6569
4.66423
4.66856
4.66867
4.66816
4.66642
4.66223
4.65342
4.63891
4.62099
4.60007
4.57628
4.54976
4.52076
4.48961
4.45668
4.42229
4.38678
4.35038
4.3134
4.2761
4.23866
4.20123
4.16398
4.12708
4.09074
4.05516
4.0206
3.98735
3.95569
3.92597
3.89853
3.87382
3.85186
3.83327
3.81839
3.80687
3.79963
3.79553
3.79526
3.7957
3.79739
3.80139
3.80885
3.81612
3.82235
3.82732
3.83134
3.83494
3.83785
3.83952
3.83997
3.84135
3.84249
3.84511
3.85024
3.86171
8.42705
8.24564
8.06454
7.88381
7.70383
7.52526
7.34889
7.17559
7.0061
6.84106
6.68096
6.52623
6.37716
6.23399
6.09686
5.96588
5.84104
5.72232
5.6096
5.50276
5.40177
5.30683
5.21786
5.13481
5.05755
4.98604
4.92018
4.85998
4.80549
4.75677
4.71386
4.6768
4.64576
4.62069
4.60128
4.58749
4.57923
4.57437
4.57483
4.57709
4.58258
4.59241
4.60186
4.61071
4.61774
4.62235
4.62301
4.62266
4.62135
4.61803
4.61097
4.59788
4.58145
4.56222
4.54019
4.51539
4.48801
4.45834
4.42677
4.39365
4.35932
4.32412
4.2884
4.2524
4.21632
4.18032
4.1446
4.10934
4.07476
4.04109
4.0086
3.9776
3.94839
3.92134
3.8968
3.87507
3.85645
3.84133
3.82982
3.82182
3.81777
3.81676
3.81715
3.81864
3.82228
3.82936
3.83627
3.84173
3.84562
3.84821
3.85001
3.85081
3.85054
3.84928
3.84614
3.84283
3.84076
3.84114
3.84292
3.84859
8.51947
8.34842
8.17756
8.00676
7.83616
7.66625
7.49764
7.33104
7.1671
7.00638
6.84937
6.69648
6.54805
6.40435
6.2656
6.13197
6.00357
5.88047
5.76267
5.65014
5.54287
5.4411
5.34489
5.25423
5.16904
5.08928
5.0149
4.94589
4.8823
4.82419
4.77163
4.72468
4.6834
4.64784
4.61842
4.59487
4.57727
4.56386
4.55498
4.55133
4.55162
4.55315
4.55697
4.56369
4.56937
4.57378
4.57517
4.57495
4.57398
4.57137
4.56568
4.55414
4.53943
4.52206
4.50192
4.47898
4.45338
4.42541
4.39543
4.36381
4.33091
4.29713
4.26282
4.22824
4.19362
4.15918
4.1251
4.09162
4.05896
4.02737
3.99717
3.96865
3.94215
3.91804
3.89675
3.87828
3.86318
3.85171
3.8437
3.83928
3.83835
3.83872
3.8402
3.84384
3.85112
3.85827
3.8636
3.86681
3.86858
3.86894
3.86866
3.86745
3.8643
3.85782
3.85048
3.84415
3.8389
3.83672
3.83714
3.83974
8.61115
8.44935
8.28747
8.12537
7.96304
7.80078
7.63904
7.47838
7.31936
7.16251
7.00829
6.85714
6.70942
6.56545
6.42551
6.28983
6.15859
6.03193
5.90994
5.79265
5.68007
5.57243
5.46992
5.37255
5.28029
5.19312
5.11102
5.03398
4.96203
4.89522
4.83366
4.77747
4.7268
4.68177
4.64244
4.60889
4.58136
4.56003
4.54206
4.52968
4.52206
4.51799
4.51803
4.5187
4.52048
4.52376
4.52525
4.52509
4.52428
4.52208
4.51722
4.50747
4.49484
4.47947
4.46129
4.44029
4.41663
4.39056
4.36241
4.33252
4.3013
4.26918
4.23648
4.2035
4.17052
4.13777
4.1055
4.07396
4.04342
4.01413
3.98644
3.96067
3.93716
3.91632
3.89828
3.88359
3.87219
3.8645
3.86012
3.85933
3.85981
3.86153
3.86563
3.87333
3.8811
3.88692
3.89005
3.89121
3.89111
3.89045
3.88842
3.8838
3.87493
3.86532
3.8552
3.84625
3.83825
3.83257
3.83166
3.83306
8.70019
8.5466
8.39263
8.23817
8.08309
7.92753
7.77183
7.61645
7.46187
7.30858
7.15704
7.00769
6.86092
6.71707
6.57647
6.43937
6.30601
6.17657
6.05119
5.92997
5.81291
5.70023
5.59222
5.48894
5.39039
5.29659
5.20754
5.12324
5.04375
4.96909
4.8994
4.83477
4.7754
4.72142
4.67293
4.6301
4.59299
4.5618
4.5365
4.51447
4.49854
4.48744
4.48067
4.47667
4.47484
4.47471
4.47456
4.4741
4.47297
4.47055
4.46578
4.45824
4.44776
4.43439
4.41819
4.39924
4.37768
4.35371
4.32764
4.29977
4.27052
4.2403
4.20943
4.17827
4.14711
4.11625
4.08598
4.05657
4.02834
4.00158
3.97665
3.9539
3.93366
3.91638
3.90197
3.89107
3.88356
3.87966
3.8792
3.87979
3.88193
3.8869
3.89554
3.90414
3.91073
3.91447
3.91535
3.91517
3.91433
3.91201
3.90681
3.89688
3.88503
3.87307
3.86063
3.84878
3.83811
3.82953
3.82579
3.82692
8.78307
8.6372
8.49056
8.34305
8.19448
8.04492
7.89463
7.74403
7.59357
7.4437
7.29487
7.14751
7.00201
6.85873
6.718
6.58011
6.44531
6.31382
6.18581
6.06141
5.9407
5.82378
5.71099
5.60252
5.49844
5.39877
5.30352
5.21272
5.12641
5.04466
4.96755
4.8952
4.82777
4.76544
4.70837
4.65672
4.61065
4.57029
4.53581
4.5065
4.48165
4.46295
4.4489
4.43888
4.43212
4.42785
4.42513
4.42301
4.42075
4.41785
4.41353
4.40723
4.39842
4.38692
4.37274
4.35592
4.33657
4.31487
4.29105
4.26544
4.2384
4.21031
4.18152
4.1524
4.1233
4.09455
4.06649
4.03946
4.01379
3.98982
3.96795
3.94851
3.93189
3.91817
3.90789
3.90098
3.89734
3.89739
3.89823
3.90101
3.90717
3.91711
3.92653
3.93439
3.93895
3.9403
3.94013
3.93933
3.93712
3.93215
3.9221
3.90928
3.89522
3.88095
3.86616
3.85182
3.83858
3.8275
3.82047
3.82135
8.86045
8.72118
8.58091
8.43948
8.2966
8.15233
8.00691
7.86072
7.71416
7.56765
7.42161
7.27643
7.13249
6.99016
6.84974
6.71156
6.57587
6.44292
6.3129
6.18598
6.06229
5.94188
5.82507
5.71219
5.60332
5.49851
5.39779
5.30122
5.20883
5.12071
5.03693
4.95763
4.88294
4.81301
4.74802
4.68816
4.63364
4.58466
4.5414
4.5042
4.47155
4.44429
4.42264
4.40596
4.39353
4.38449
4.37801
4.37321
4.36925
4.36541
4.36093
4.35514
4.34748
4.33759
4.3253
4.31056
4.29343
4.27405
4.25261
4.22941
4.20477
4.17904
4.15259
4.12578
4.09901
4.07265
4.04709
4.0227
3.99989
3.97904
3.96053
3.94472
3.93198
3.92218
3.91592
3.913
3.91319
3.91451
3.91825
3.92624
3.93719
3.94797
3.95678
3.96299
3.96541
3.96532
3.96469
3.96282
3.95849
3.94948
3.93626
3.92125
3.90516
3.88866
3.87166
3.85514
3.83955
3.8263
3.81584
3.81649
8.93154
8.79889
8.66456
8.5286
8.39081
8.25125
8.1102
7.968
7.82502
7.68166
7.5383
7.39531
7.25305
7.11183
6.97199
6.83383
6.69764
6.56366
6.43212
6.30321
6.17707
6.05379
5.93364
5.81699
5.70397
5.59468
5.48916
5.38749
5.28972
5.19594
5.10623
5.02071
4.93952
4.86281
4.79075
4.72354
4.66139
4.60452
4.55316
4.50751
4.46785
4.43212
4.40262
4.37862
4.35959
4.34496
4.33398
4.32569
4.31924
4.31379
4.30855
4.30276
4.29579
4.28712
4.27645
4.26361
4.2486
4.23148
4.21244
4.19172
4.1696
4.14641
4.1225
4.09824
4.07405
4.05036
4.02761
4.0062
3.9866
3.96918
3.95436
3.94249
3.93362
3.92825
3.92627
3.92665
3.92851
3.93334
3.9434
3.95572
3.96771
3.97793
3.98557
3.99
3.99024
3.98985
3.98847
3.98503
3.97762
3.9647
3.9497
3.9326
3.91475
3.89608
3.87723
3.85878
3.84108
3.82587
3.81209
3.8125
8.9974
8.87016
8.7406
8.60917
8.47591
8.34081
8.20402
8.06579
7.92643
7.78625
7.64559
7.5048
7.36423
7.22424
7.08516
6.94728
6.81089
6.67625
6.5436
6.41315
6.28507
6.15951
6.0366
5.91672
5.80014
5.68697
5.57728
5.47113
5.36861
5.26981
5.17483
5.08377
4.99676
4.91396
4.83554
4.76166
4.69257
4.62846
4.56958
4.51616
4.46843
4.42632
4.38881
4.35753
4.33167
4.3108
4.29434
4.28163
4.27178
4.26392
4.25721
4.25085
4.24406
4.23623
4.22689
4.21576
4.20273
4.1878
4.1711
4.15285
4.1333
4.11274
4.09151
4.07
4.04864
4.02787
4.0082
3.99011
3.97403
3.96041
3.94965
3.94196
3.93726
3.93646
3.93713
3.93971
3.94585
3.95827
3.97193
3.98528
3.99709
4.00646
4.01283
4.01488
4.01464
4.01365
4.01106
4.00538
3.9939
3.97873
3.96232
3.94332
3.92381
3.90345
3.8829
3.86267
3.84305
3.826
3.80923
3.80936
9.05704
8.93507
8.81023
8.68319
8.55405
8.42286
8.28975
8.15496
8.01873
7.88136
7.74318
7.6045
7.46566
7.32699
7.1888
7.0514
6.91506
6.78006
6.64665
6.51505
6.38545
6.25803
6.13287
6.01032
5.89073
5.77423
5.66092
5.55089
5.44424
5.34107
5.24146
5.14554
5.05342
4.96524
4.88117
4.80137
4.72606
4.65545
4.58979
4.52932
4.47426
4.42497
4.38055
4.34195
4.30904
4.28162
4.25928
4.2415
4.22758
4.21666
4.20788
4.20035
4.19326
4.18585
4.17752
4.16787
4.15665
4.1438
4.12937
4.11353
4.09651
4.07857
4.06007
4.04139
4.02301
4.00544
3.98917
3.97472
3.96254
3.95305
3.94659
3.94298
3.94307
3.94424
3.94793
3.95623
3.9698
3.98502
3.99999
4.01359
4.02505
4.03351
4.03831