/*--------------------------------*- C++ -*----------------------------------*\
  =========                 |
  \\      /  F ield         | OpenFOAM: The Open Source CFD Toolbox
   \\    /   O peration     | Website:  https://openfoam.org
    \\  /    A nd           | Version:  6
     \\/     M anipulation  |
\*---------------------------------------------------------------------------*/
FoamFile
{
    version     2.0;
    format      ascii;
    class       surfaceScalarField;
    location    "10";
    object      phi;
}
// * * * * * * * * * * * * * * * * * * * * * * * * * * * * * * * * * * * * * //

dimensions      [1 0 -1 0 0 0 0];

internalField   nonuniform List<scalar> 
10325
(
0.00840001
6.94172e-10
0.0084
4.34735e-09
0.00839999
1.32081e-08
0.00839992
3.51619e-08
0.00839989
7.9451e-08
0.00839949
1.8953e-07
0.00839968
4.02116e-07
0.00839735
1.00012e-06
0.00839792
2.26294e-06
0.00838478
6.56009e-06
0.00837335
1.66715e-05
0.00826943
8.61391e-05
0.00782514
0.000423358
0.00726148
0.000555292
0.00666311
0.00059417
0.00606696
0.000592993
0.0054607
0.000603756
0.00486429
0.000593588
0.00424136
0.000619796
0.00357921
0.000659423
0.00288776
0.00068946
0.00217923
0.000705737
0.00146314
0.00071382
0.000732792
0.00072838
0.000730186
0.00840001
1.46065e-09
0.0084
9.16898e-09
0.00839998
2.77455e-08
0.00839992
7.41241e-08
0.00839988
1.67835e-07
0.00839946
4.01216e-07
0.00839957
8.67034e-07
0.00839714
2.11525e-06
0.00839717
5.05783e-06
0.00838329
1.38628e-05
0.00836775
3.74527e-05
0.00824321
0.000192941
0.00775177
0.000893847
0.00721837
0.0010803
0.00667303
0.0011353
0.00611186
0.00115101
0.00552615
0.00118695
0.00491646
0.0012005
0.00427564
0.0012575
0.0036053
0.00132706
0.00291025
0.00138251
0.00219493
0.00141826
0.00146736
0.00143918
0.000738296
0.00145537
0.00146569
0.00840001
2.29807e-09
0.0084
1.44296e-08
0.00839998
4.36184e-08
0.00839991
1.16736e-07
0.00839986
2.64672e-07
0.00839942
6.34504e-07
0.00839949
1.37942e-06
0.00839694
3.3531e-06
0.00839667
8.18425e-06
0.00838191
2.19745e-05
0.00836401
6.06761e-05
0.00823189
0.000307386
0.00773265
0.00137205
0.00719938
0.00160509
0.00667438
0.00165604
0.0061376
0.00168467
0.00557293
0.00174916
0.00496704
0.0018036
0.0043245
0.001897
0.00364884
0.00199993
0.00294718
0.00208209
0.00222284
0.00213984
0.00148092
0.00217872
0.000732618
0.00220175
0.00219561
0.00840001
3.18055e-09
0.0084
1.99827e-08
0.00839998
6.03697e-08
0.00839991
1.61764e-07
0.00839986
3.66976e-07
0.0083994
8.81228e-07
0.00839945
1.92184e-06
0.00839683
4.6534e-06
0.00839645
1.15089e-05
0.00838122
3.03797e-05
0.00836251
8.49014e-05
0.00823222
0.000420073
0.00773625
0.00184683
0.00720283
0.00212977
0.00669378
0.00216085
0.00617835
0.00219706
0.00563159
0.00229366
0.00504025
0.00239222
0.00440153
0.00253251
0.00373172
0.00266705
0.00302557
0.00278646
0.00228768
0.00287513
0.00152982
0.00293401
0.000758398
0.00297097
0.00295139
0.00840001
4.09084e-09
0.0084
2.5734e-08
0.00839998
7.76674e-08
0.00839991
2.08604e-07
0.00839985
4.72166e-07
0.00839939
1.14215e-06
0.00839946
2.45619e-06
0.00839681
5.97326e-06
0.00839629
1.50942e-05
0.00838144
3.81507e-05
0.00836202
0.000109991
0.00823917
0.000525563
0.00775566
0.0023079
0.00722309
0.00265472
0.00672841
0.00265065
0.00623102
0.0026912
0.00570481
0.00281687
0.00513269
0.00296194
0.0045111
0.00315142
0.00384572
0.00332928
0.00314676
0.00348338
0.00239911
0.00362019
0.00161423
0.00371746
0.000808843
0.00377429
0.00375728
0.00840001
5.00488e-09
0.0084
3.14178e-08
0.00839998
9.45585e-08
0.00839991
2.54027e-07
0.00839986
5.68134e-07
0.00839942
1.39295e-06
0.00839946
2.86121e-06
0.00839672
7.43731e-06
0.00839755
1.70247e-05
0.00838049
4.86079e-05
0.00836461
0.000131071
0.00824719
0.000626335
0.00778466
0.00274723
0.00726166
0.0031702
0.00677683
0.00313116
0.00629639
0.0031686
0.00579407
0.00331683
0.00524482
0.00350835
0.00464989
0.00374383
0.00400738
0.00396941
0.00331094
0.00417772
0.00256431
0.00436364
0.00175307
0.00452581
0.000888731
0.00463728
0.00464386
0.00840001
5.85163e-09
0.0084
3.6679e-08
0.00839998
1.10525e-07
0.00839992
2.96114e-07
0.00839985
6.62974e-07
0.00839943
1.61425e-06
0.00839931
3.33388e-06
0.00839674
8.69355e-06
0.0083966
1.89702e-05
0.00838258
5.88517e-05
0.00836556
0.000150464
0.00825867
0.000718515
0.00782445
0.00315755
0.00731135
0.00367513
0.00683861
0.00359954
0.00638125
0.00362308
0.00590858
0.00378721
0.00539498
0.00401948
0.00482819
0.00430714
0.00421411
0.00458066
0.00354103
0.00484912
0.00279052
0.00511216
0.00195813
0.00535552
0.00102088
0.0055707
0.00566153
0.00840001
6.70122e-09
0.0084
4.19863e-08
0.00839998
1.26653e-07
0.00839991
3.38884e-07
0.00839984
7.60589e-07
0.00839942
1.84245e-06
0.00839926
3.8309e-06
0.00839678
9.91982e-06
0.00839584
2.14709e-05
0.00838377
6.71345e-05
0.00836295
0.000172035
0.00826852
0.000800768
0.00786659
0.00353611
0.00736369
0.00416748
0.00690677
0.00405246
0.00648099
0.00404663
0.0060485
0.00421766
0.00558042
0.00448583
0.00506369
0.00482115
0.00449132
0.00515051
0.00385564
0.00548282
0.0031357
0.00583018
0.0022793
0.00621002
0.00124756
0.00660123
0.0069067
0.00840001
7.59682e-09
0.0084
4.75933e-08
0.00839998
1.4358e-07
0.00839991
3.84064e-07
0.00839983
8.61869e-07
0.0083994
2.08592e-06
0.00839921
4.33343e-06
0.00839668
1.12071e-05
0.00839554
2.41341e-05
0.00838368
7.51808e-05
0.00836342
0.000192909
0.00828273
0.000869762
0.00791166
0.00388373
0.00739982
0.00466711
0.00699467
0.00445404
0.00661447
0.00442525
0.00622709
0.00460368
0.0058078
0.00490302
0.00534877
0.00527762
0.00484215
0.00565464
0.00430262
0.00602055
0.00366052
0.00647012
0.00283658
0.00703139
0.00171928
0.00771647
0.0086239
0.00840001
8.56294e-09
0.0084
5.36442e-08
0.00839998
1.61873e-07
0.00839991
4.32772e-07
0.00839982
9.69812e-07
0.00839937
2.34655e-06
0.00839914
4.84808e-06
0.00839655
1.25879e-05
0.00839544
2.66795e-05
0.00838338
8.34436e-05
0.00836371
0.000212879
0.00829364
0.000928719
0.00796377
0.00418937
0.00746913
0.00514765
0.00710569
0.00481461
0.00677247
0.00475729
0.00644472
0.00493058
0.00608784
0.00525894
0.00570708
0.00565626
0.00533685
0.00602256
0.00490434
0.00645075
0.00437693
0.00699657
0.00372653
0.0076798
0.00278956
0.00865134
0.0114116
0.00840001
9.70796e-09
0.0084
6.08257e-08
0.00839998
1.83685e-07
0.00839989
4.90823e-07
0.00839978
1.09971e-06
0.00839928
2.65756e-06
0.00839891
5.47853e-06
0.00839612
1.41961e-05
0.00839433
2.97862e-05
0.00838131
9.26802e-05
0.00836069
0.000233549
0.00829731
0.00098142
0.0080242
0.00443774
0.00760192
0.00555604
0.00724195
0.00517138
0.00695681
0.00504085
0.00667148
0.0052145
0.00640462
0.00552436
0.00615049
0.00590901
0.00589
0.00628141
0.00562483
0.00671416
0.00537306
0.00724511
0.00523211
0.00781957
0.00559138
0.00829062
0.00797423
0.00902719
0.00840001
1.12268e-08
0.0084
7.02352e-08
0.00839997
2.12302e-07
0.00839987
5.66041e-07
0.00839969
1.283e-06
0.00839912
3.04921e-06
0.00839826
6.56017e-06
0.00839554
1.57759e-05
0.00839005
3.64458e-05
0.00837823
0.000100743
0.00834322
0.000268189
0.00827951
0.00103452
0.00802515
0.00466753
0.00765129
0.00591667
0.00736878
0.00545182
0.007145
0.00526364
0.00692244
0.00543513
0.00675117
0.00569366
0.00663961
0.00601911
0.00651274
0.00640695
0.00641337
0.00681236
0.00646249
0.00719496
0.00675991
0.00751929
0.00742135
0.00762812
0.00701984
0.00837461
0.00840001
1.26329e-08
0.0084
7.91597e-08
0.00839997
2.38872e-07
0.00839987
6.38871e-07
0.00839972
1.43721e-06
0.00839912
3.46196e-06
0.00839861
7.25476e-06
0.00839519
1.8005e-05
0.00839185
4.08879e-05
0.00837841
0.000109804
0.00833042
0.000318673
0.00824575
0.00110805
0.00784205
0.00504578
0.00781278
0.0059313
0.00748846
0.00577616
0.00728378
0.00546788
0.00718964
0.00552762
0.00712793
0.0057534
0.00708079
0.00606419
0.00706873
0.00641691
0.0071362
0.00674269
0.00737095
0.00695891
0.00777628
0.00711337
0.00835939
0.00704321
0.0065349
0.00884308
0.00840001
1.40938e-08
0.0084
8.82693e-08
0.00839997
2.66294e-07
0.00839987
7.12058e-07
0.0083997
1.60266e-06
0.00839912
3.85655e-06
0.00839846
8.08368e-06
0.00839499
2.02833e-05
0.00839288
4.40874e-05
0.0083731
0.000125121
0.00835067
0.000340448
0.00822469
0.00122476
0.007834
0.00540567
0.00771414
0.00604486
0.00754914
0.00593935
0.00744162
0.00557482
0.00738187
0.00558606
0.00735219
0.00578144
0.00738135
0.00603308
0.00749436
0.0063023
0.00771297
0.00652194
0.00803105
0.00663894
0.00844305
0.00669986
0.00895292
0.00653297
0.00618867
0.00929797
0.00840002
1.54324e-08
0.0084
9.65873e-08
0.00839997
2.91333e-07
0.00839988
7.78955e-07
0.00839972
1.75737e-06
0.00839917
4.21945e-06
0.00839852
8.90805e-06
0.00839502
2.25299e-05
0.00839384
4.65202e-05
0.00837222
0.000141903
0.00835838
0.000353889
0.0082459
0.00132392
0.00794388
0.00567431
0.0077266
0.00625906
0.00767648
0.00598853
0.00762846
0.00562375
0.00761053
0.00560301
0.00763167
0.00575833
0.00771327
0.00594914
0.0078972
0.00611632
0.00815921
0.00625797
0.00849843
0.00629772
0.00890465
0.00629141
0.00933864
0.00609756
0.00580402
0.00972231
0.00840002
1.63189e-08
0.00840001
1.02101e-07
0.00839999
3.07168e-07
0.00839992
8.23571e-07
0.0083998
1.85994e-06
0.00839935
4.48827e-06
0.00839887
9.49826e-06
0.00839619
2.40266e-05
0.00839374
4.99031e-05
0.00838194
0.00014889
0.00836031
0.000374588
0.0083379
0.00133367
0.0083264
0.00564713
0.00806641
0.00651979
0.00797035
0.00608574
0.00786721
0.00572775
0.00785844
0.00561151
0.0079287
0.00568714
0.00805306
0.00582315
0.00824678
0.00592084
0.00851011
0.00599257
0.00883639
0.00596932
0.0092296
0.00589488
0.00960389
0.00572074
0.00542877
0.00997697
0.00840002
1.5698e-08
0.00840002
9.82332e-08
0.00840003
2.94659e-07
0.00840003
7.9227e-07
0.00840009
1.78657e-06
0.00840008
4.33792e-06
0.00840049
9.14569e-06
0.00839997
2.3468e-05
0.0084033
4.72156e-05
0.00840346
0.00014412
0.00842198
0.000354788
0.00848681
0.00125706
0.00939331
0.00469637
0.00886825
0.00704501
0.00835383
0.00660156
0.00822986
0.00585265
0.0081817
0.00565905
0.00824352
0.005624
0.00837891
0.0056862
0.00857653
0.00572155
0.00883227
0.005735
0.00911923
0.00568005
0.00947207
0.00554008
0.00981462
0.0053754
0.00509903
0.0101414
0.00840002
1.2776e-08
0.00840004
8.00489e-08
0.00840009
2.42295e-07
0.00840021
6.45532e-07
0.00840053
1.45666e-06
0.00840128
3.45792e-06
0.00840315
7.29102e-06
0.00840823
1.75787e-05
0.0084182
3.77059e-05
0.00846375
9.49873e-05
0.00856311
0.000254762
0.00908898
0.000724619
0.0113141
0.00244982
0.0101597
0.00818516
0.00942279
0.0073304
0.0089104
0.00636488
0.00871157
0.00585709
0.00867496
0.00565912
0.00874932
0.00561005
0.00890117
0.0055674
0.00912702
0.00550671
0.00939389
0.00541029
0.00968342
0.00524825
0.00998985
0.0050663
0.00480613
0.0102797
0.00840003
1.0597e-08
0.00840004
6.62855e-08
0.00840007
2.01085e-07
0.00840017
5.3334e-07
0.00840041
1.20397e-06
0.00840092
2.82723e-06
0.00840225
5.9554e-06
0.00840493
1.42084e-05
0.00841378
2.91532e-05
0.00842922
7.62652e-05
0.00849692
0.000185751
0.0086668
0.000548264
0.00931697
0.00177683
0.0100004
0.00746939
0.0100246
0.0072973
0.00939613
0.00699066
0.00924664
0.00600544
0.00915851
0.00574619
0.00917138
0.00559463
0.00926066
0.00547594
0.00942573
0.00533918
0.00965693
0.00517587
0.00988884
0.00501315
0.0101539
0.00479819
0.00454447
0.0104127
0.00840003
9.38305e-09
0.00840003
5.86519e-08
0.00840005
1.77211e-07
0.00840009
4.71758e-07
0.00840022
1.06571e-06
0.00840042
2.51988e-06
0.00840104
5.32379e-06
0.00840191
1.26688e-05
0.00840479
2.67193e-05
0.00841082
6.66827e-05
0.00843313
0.000163774
0.00848389
0.000488313
0.00880596
0.00143668
0.00964997
0.0065692
0.00963679
0.00730244
0.00977035
0.00685408
0.00954272
0.00623305
0.00951526
0.00577326
0.00953904
0.00556876
0.00961577
0.00539612
0.00974787
0.00520421
0.0099098
0.00501064
0.0101073
0.0048122
0.0103254
0.00457694
0.00432082
0.0105461
0.00840003
8.12874e-09
0.00840003
5.07444e-08
0.00840005
1.53389e-07
0.0084001
4.07859e-07
0.00840023
9.21011e-07
0.00840047
2.17604e-06
0.00840121
4.57121e-06
0.00840204
1.11637e-05
0.00840791
2.12499e-05
0.00840641
6.45361e-05
0.00844692
0.000123727
0.00845104
0.000473315
0.00866732
0.00120708
0.00955678
0.00562357
0.0096959
0.00716485
0.00975677
0.00679464
0.00969126
0.00629969
0.00970969
0.0057541
0.00979684
0.00547982
0.00990786
0.00528251
0.0100318
0.00507803
0.0101662
0.00487351
0.010337
0.0046386
0.0105198
0.00439194
0.0041343
0.0107049
0.00840003
6.84321e-09
0.00840003
4.27945e-08
0.00840005
1.29264e-07
0.0084001
3.4437e-07
0.00840023
7.77294e-07
0.00840048
1.84167e-06
0.00840115
3.86464e-06
0.00840248
9.29396e-06
0.00840504
1.88397e-05
0.00841512
5.13686e-05
0.00843716
0.000102108
0.00853937
0.000361076
0.00883703
0.00089965
0.0105761
0.00381777
0.010166
0.00757768
0.010011
0.00695471
0.00994849
0.00636929
0.00994281
0.00576047
0.0100293
0.00539153
0.010144
0.00516514
0.0102625
0.00495704
0.0104096
0.00472441
0.0105646
0.00448255
0.0107243
0.00423171
0.00397565
0.0108834
0.00840003
5.53244e-09
0.00840003
3.46107e-08
0.00840006
1.0499e-07
0.00840011
2.78477e-07
0.00840024
6.30814e-07
0.00840054
1.47468e-06
0.00840122
3.13591e-06
0.00840286
7.24303e-06
0.00840639
1.52742e-05
0.00841951
3.60423e-05
0.00843672
8.4541e-05
0.00856865
0.000221251
0.0088839
0.000584009
0.0105035
0.00216141
0.0105068
0.00755115
0.0104798
0.00697498
0.0103498
0.00649697
0.0102863
0.00582511
0.0103128
0.00536389
0.0104019
0.00507461
0.0105227
0.0048363
0.0106549
0.00459306
0.0107929
0.00434625
0.0109319
0.00409502
0.00384244
0.0110684
0.00840003
4.63567e-09
0.00840003
2.87035e-08
0.00840005
8.83454e-08
0.00840008
2.29878e-07
0.00840017
5.30714e-07
0.00840037
1.21483e-06
0.00840082
2.6514e-06
0.00840174
5.93428e-06
0.00840406
1.30082e-05
0.00840877
2.91806e-05
0.00842261
7.06715e-05
0.00846643
0.000168696
0.00854802
0.000509542
0.00900044
0.0016782
0.0100604
0.00643885
0.0102327
0.00679082
0.0103323
0.00639047
0.0103913
0.00576412
0.0104809
0.00527266
0.0106034
0.00495166
0.0107386
0.00470277
0.010874
0.00446171
0.0110075
0.00421882
0.0111363
0.00397266
0.00372683
0.0112588
0.00840003
2.44273e-09
0.00840003
2.85824e-08
0.00840006
5.7061e-08
0.00840006
2.22247e-07
0.00840024
3.37061e-07
0.00840019
1.20946e-06
0.00840127
1.54305e-06
0.00840051
6.3747e-06
0.00840753
6.0386e-06
0.00839645
3.83707e-05
0.00845169
1.59327e-05
0.00836543
0.000247052
0.00863588
0.000234652
0.00879652
0.0014972
0.00957487
0.00559329
0.00994477
0.00641148
0.0101627
0.00616618
0.0103094
0.00561449
0.0104798
0.0050998
0.010662
0.00477021
0.0108384
0.00452921
0.0110011
0.00430507
0.0111504
0.00407776
0.0112872
0.0038453
0.00361167
0.011412
0.00840003
3.13099e-09
0.00840004
1.71371e-08
0.00840003
5.8416e-08
0.00840011
1.39504e-07
0.00840008
3.53249e-07
0.00840054
7.3231e-07
0.00840018
1.79017e-06
0.00840303
3.50511e-06
0.00839912
9.25405e-06
0.0084221
1.58951e-05
0.00837861
5.53168e-05
0.00853684
9.04353e-05
0.00835733
0.000401778
0.00890218
0.000938236
0.0101911
0.00422642
0.010099
0.00649876
0.0101603
0.00609911
0.0103
0.00547485
0.0104806
0.00492291
0.0106768
0.00458207
0.0108737
0.0043421
0.0110579
0.00413088
0.0112248
0.00391979
0.0113756
0.0037041
0.00348544
0.0115112
0.00840003
2.53846e-09
0.00840003
1.4168e-08
0.00840004
4.64216e-08
0.00840006
1.15003e-07
0.00840012
2.78514e-07
0.00840023
6.03258e-07
0.00840055
1.3839e-06
0.00840111
2.88943e-06
0.00840313
6.70425e-06
0.00840513
1.38879e-05
0.00842341
3.41021e-05
0.00843823
7.53933e-05
0.00861587
0.000214756
0.00899596
0.000549423
0.0110716
0.00211326
0.0106308
0.0068896
0.0107139
0.00601239
0.0106413
0.00554765
0.0106778
0.00489517
0.0108083
0.00446315
0.01097
0.00419281
0.0111336
0.0039797
0.0112896
0.00377546
0.0114347
0.00356962
0.00336098
0.0115687
0.00840003
2.1875e-09
0.00840003
1.22745e-08
0.00840003
3.93724e-08
0.00840005
9.94564e-08
0.00840007
2.36531e-07
0.00840013
5.26171e-07
0.00840026
1.17771e-06
0.00840053
2.55808e-06
0.00840117
5.58614e-06
0.00840223
1.28107e-05
0.00840789
2.58915e-05
0.00841366
6.9053e-05
0.00846742
0.000151639
0.00858163
0.000437523
0.00914404
0.00151858
0.0100939
0.00587457
0.0103513
0.00575736
0.0105319
0.00537561
0.0106849
0.00475764
0.0108528
0.00431191
0.0110249
0.00403532
0.0111899
0.0038277
0.0113444
0.0036326
0.0114883
0.00343588
0.00323651
0.0116217
0.00840003
2.4532e-09
0.00840003
7.53731e-09
0.00840003
3.99933e-08
0.00840006
6.45037e-08
0.00840004
2.43844e-07
0.00840022
3.27818e-07
0.00840003
1.29179e-06
0.00840114
1.40061e-06
0.00839923
7.01235e-06
0.00840794
4.05394e-06
0.0083874
4.41378e-05
0.00845461
9.42416e-07
0.00832863
0.000268868
0.00860528
0.000151246
0.00868697
0.00141576
0.00932201
0.00516035
0.00974278
0.00533865
0.0101222
0.00500689
0.0104312
0.00446388
0.0106936
0.00406194
0.0109182
0.00381986
0.0111171
0.00363687
0.0112966
0.0034615
0.0114595
0.00328131
0.00309665
0.0116074
0.00840003
6.74054e-10
0.00840003
9.80837e-09
0.00840005
1.68957e-08
0.00840003
7.62716e-08
0.00840017
9.98061e-08
0.00840005
4.18516e-07
0.00840088
4.4187e-07
0.00839987
2.23606e-06
0.00840542
1.49977e-06
0.00839448
1.38775e-05
0.00844067
-5.80683e-07
0.00834118
9.44638e-05
0.00862196
-9.43518e-06
0.00814822
0.00061079
0.00871785
0.000824732
0.00909002
0.00470798
0.00937245
0.00508168
0.00980154
0.00460174
0.0101805
0.00410654
0.0104876
0.00376589
0.0107485
0.00356507
0.0109772
0.0034126
0.0111803
0.00326212
0.0113623
0.00310272
0.00293619
0.0115261
0.00840003
9.00344e-10
0.00840003
4.92731e-09
0.00840003
1.70329e-08
0.00840007
4.02345e-08
0.00840005
1.02751e-07
0.00840025
2.08723e-07
0.00840012
5.16801e-07
0.00840137
9.72303e-07
0.00839982
2.70933e-06
0.00841004
3.9709e-06
0.00839009
1.69297e-05
0.00846677
2.11188e-05
0.00833149
0.000114827
0.00873441
0.000206326
0.00852425
0.00101697
0.00975038
0.00337719
0.00982953
0.00505051
0.00999315
0.00447725
0.010206
0.00391891
0.0104422
0.00354809
0.0106792
0.00334223
0.0109019
0.00319979
0.0111058
0.00306457
0.0112904
0.0029216
0.00277111
0.0114574
0.00840003
7.30875e-10
0.00840003
4.06718e-09
0.00840003
1.33471e-08
0.00840004
3.30164e-08
0.00840005
8.02715e-08
0.00840008
1.73587e-07
0.00840014
4.00926e-07
0.00840025
8.33538e-07
0.00840073
1.95521e-06
0.00840076
4.01155e-06
0.00840628
1.00179e-05
0.00840751
2.07327e-05
0.00845744
5.74668e-05
0.00851018
0.00015231
0.00907244
0.000447454
0.0108019
0.00160465
0.0107931
0.00503813
0.0105417
0.00472865
0.0105255
0.00394602
0.0106132
0.00347411
0.0107672
0.00320029
0.0109431
0.00303234
0.0111172
0.00289519
0.0112822
0.00275905
0.0026184
0.011436
0.00840003
6.09581e-10
0.00840003
3.41646e-09
0.00840003
1.11963e-08
0.00840003
2.77836e-08
0.00840004
6.69834e-08
0.00840006
1.45055e-07
0.0084001
3.29712e-07
0.00840022
6.8658e-07
0.00840043
1.56461e-06
0.00840127
3.19524e-06
0.00840243
7.77556e-06
0.00840923
1.49063e-05
0.00841942
4.2455e-05
0.00846819
0.000102081
0.00861044
0.000296255
0.00914049
0.00103728
0.00995491
0.00418933
0.010443
0.00422395
0.0103883
0.00400194
0.0104884
0.0033846
0.0106496
0.00304161
0.0108326
0.00284927
0.0110169
0.00271359
0.0111917
0.00258839
0.00246038
0.0113539
0.00840003
6.08212e-10
0.00840003
3.43653e-09
0.00840003
1.08642e-08
0.00840003
2.78372e-08
0.00840002
6.51755e-08
0.00840001
1.47511e-07
0.00839999
3.23042e-07
0.00839994
7.17122e-07
0.00839982
1.52662e-06
0.00839961
3.44146e-06
0.00839946
6.97613e-06
0.00839762
1.75893e-05
0.00840382
3.18764e-05
0.00840715
0.000100101
0.00846594
0.000228307
0.00868846
0.000793071
0.00930876
0.00352777
0.00967154
0.00384843
0.010036
0.00363433
0.0102201
0.0032055
0.0104201
0.00284482
0.0106255
0.0026462
0.0108213
0.00251993
0.0110037
0.00240892
0.00229496
0.0111723
0.00840003
8.96534e-10
0.00840003
2.12742e-09
0.00840003
1.40503e-08
0.00840003
1.8761e-08
0.00840001
8.644e-08
0.00840005
9.57362e-08
0.00839988
4.69167e-07
0.00840019
3.9602e-07
0.00839897
2.58204e-06
0.00840163
8.25557e-07
0.00839169
1.59557e-05
0.00841815
-7.93567e-06
0.00834864
9.66676e-05
0.00851854
-6.82744e-05
0.0082682
0.00046659
0.00863703
0.000410084
0.00885123
0.00326953
0.00916944
0.00353125
0.00951593
0.00328998
0.0098569
0.00287025
0.0101339
0.00257129
0.0103693
0.00241173
0.0105798
0.00230936
0.0107732
0.00221572
0.00211667
0.0109519
0.00840003
1.06756e-10
0.00840003
3.44065e-09
0.00840004
4.19123e-09
0.00840003
2.64305e-08
0.00840009
2.35587e-08
0.00840003
1.44121e-07
0.00840041
8.21804e-08
0.00839997
7.72987e-07
0.00840252
5.93676e-08
0.00839801
4.85429e-06
0.0084186
-3.56444e-06
0.00837195
3.56006e-05
0.0085057
-3.35e-05
0.0082016
0.000226093
0.00870836
-4.31271e-05
0.00816094
0.000943057
0.00823717
0.003143
0.00858908
0.00318923
0.00902079
0.00286998
0.00943248
0.00246633
0.00975002
0.00225547
0.0100029
0.00215649
0.0102244
0.00208421
0.0104278
0.00200926
0.00192587
0.0106171
0.00840003
3.84839e-10
0.00840003
2.12257e-09
0.00840003
7.09147e-09
0.00840003
1.72992e-08
0.00840001
4.29806e-08
0.00840006
9.1741e-08
0.0083999
2.17825e-07
0.00840021
4.46018e-07
0.00839902
1.08097e-06
0.00840186
2.14874e-06
0.00839156
5.60849e-06
0.00841864
1.06501e-05
0.00834627
3.2427e-05
0.00850981
6.65576e-05
0.00821101
0.00024046
0.00847979
0.000654677
0.00827579
0.00328633
0.00835513
0.00313414
0.00878872
0.00245374
0.00916881
0.00209343
0.00946698
0.0019554
0.00970342
0.0019158
0.00991953
0.00186471
0.0101209
0.00180556
0.00173601
0.0103089
0.00840003
6.04935e-10
0.00840003
1.32492e-09
0.00840003
9.35392e-09
0.00840003
1.17762e-08
0.00840001
5.78551e-08
0.00840004
6.03564e-08
0.00839992
3.19158e-07
0.00840011
2.46665e-07
0.00839924
1.8205e-06
0.00840109
3.83895e-07
0.00839359
1.21434e-05
0.00841309
-6.80294e-06
0.00836075
7.90222e-05
0.00848067
-4.87002e-05
0.00823684
0.000469443
0.00842355
0.000456204
0.00839873
0.00323706
0.00846633
0.00311028
0.00880813
0.00213598
0.00909555
0.00180525
0.00932259
0.00171712
0.00953189
0.00169538
0.00972456
0.0016636
0.00991008
0.00161482
0.00155279
0.0100905
0.00840003
1.65809e-11
0.00840003
2.14035e-09
0.00840004
1.77026e-09
0.00840003
1.62966e-08
0.00840008
9.55002e-09
0.00840004
8.97793e-08
0.00840033
2.32658e-08
0.00840003
4.92151e-07
0.008402
-1.14609e-07
0.00839882
3.17339e-06
0.00841502
-3.11882e-06
0.00838094
2.45365e-05
0.00849235
-2.75451e-05
0.00827389
0.000157853
0.00879129
-4.71045e-05
0.008513
0.000718184
0.0096197
0.00203806
0.00977212
0.00300641
0.00969855
0.00224726
0.00966322
0.00185091
0.00972557
0.00165154
0.00982532
0.00158811
0.00994003
0.00154351
0.0100604
0.001492
0.00142751
0.0101852
0.00840003
3.51059e-10
0.00840003
1.85827e-10
0.00840003
5.23866e-09
0.00840004
2.58617e-09
0.00840001
3.25338e-08
0.00840009
1.08614e-08
0.00839992
1.82393e-07
0.0084004
1.13718e-08
0.00839913
1.06515e-06
0.00840285
-4.6735e-07
0.0083916
7.54504e-06
0.00842638
-9.02897e-06
0.00834177
5.34221e-05
0.00856892
-6.54462e-05
0.00823523
0.000275991
0.0088716
7.48731e-05
0.00970736
0.00117078
0.0100025
0.00270659
0.00985086
0.00240211
0.00981915
0.00187882
0.00983805
0.00162329
0.00991341
0.00150224
0.0100111
0.0014383
0.0101145
0.00138363
0.00131639
0.0102222
0.00840003
-7.83768e-11
0.00840003
1.30412e-09
0.00840003
-2.66776e-10
0.00840003
9.59429e-09
0.00840006
-1.96708e-09
0.00840001
5.52089e-08
0.00840022
-2.3391e-08
0.00839989
3.20464e-07
0.00840124
-2.68307e-07
0.00839839
2.18809e-06
0.00841002
-3.59775e-06
0.00838154
1.80931e-05
0.00847142
-3.35372e-05
0.00827076
0.000129371
0.00868432
-0.000137639
0.00840062
0.000350527
0.00919292
0.000352853
0.00976973
0.00210574
0.0097922
0.00236297
0.00973146
0.0019284
0.00974886
0.00159399
0.0098223
0.00141599
0.00991852
0.00133054
0.010026
0.00126701
0.00120228
0.0101357
0.00840003
1.86636e-10
0.00840003
-6.17269e-10
0.00840003
2.33275e-09
0.00840004
-4.02184e-09
0.00840002
1.43709e-08
0.00840011
-2.54513e-08
0.00839999
8.35532e-08
0.00840049
-1.70913e-07
0.00839963
5.43744e-07
0.00840329
-1.32924e-06
0.00839448
4.71023e-06
0.00842673
-1.2159e-05
0.00834659
4.2924e-05
0.00856609
-8.44884e-05
0.00819627
0.000222146
0.00870109
-0.000152932
0.00833951
0.000691126
0.00881814
0.00159235
0.00916152
0.001996
0.00938588
0.00169493
0.00951008
0.00146409
0.00962389
0.00129571
0.00974914
0.00119849
0.00987794
0.00113194
0.00107201
0.0100043
0.00840003
-1.9785e-10
0.00840003
5.40334e-10
0.00840003
-2.33945e-09
0.00840003
3.44783e-09
0.00840005
-1.46179e-08
0.00840001
2.05111e-08
0.00840018
-8.6872e-08
0.00839986
1.31031e-07
0.00840097
-5.36949e-07
0.00839852
9.99287e-07
0.00840761
-4.02513e-06
0.00838407
1.03791e-05
0.00846377
-3.3921e-05
0.00828411
9.00376e-05
0.00866229
-0.000153535
0.00815245
0.000348949
0.00883891
-1.33704e-05
0.00909517
0.00130253
0.00933881
0.0017283
0.00936718
0.00166017
0.00946574
0.00136209
0.00958395
0.00117452
0.00971011
0.00106898
0.00983744
0.00100126
0.000944724
0.00996233
0.00840003
-2.79662e-11
0.00840003
-1.73331e-10
0.00840003
-3.4596e-10
0.00840003
-1.36691e-09
0.00840002
-2.23157e-09
0.00840005
-8.41848e-09
0.00839997
-1.28952e-08
0.00840016
-5.15295e-08
0.00839965
-6.46615e-08
0.00840103
-3.12251e-07
0.00839667
-5.62106e-09
0.00841081
-2.62599e-06
0.00837027
4.11431e-06
0.00847368
-8.7545e-06
0.00827771
3.4708e-05
0.00860472
2.39475e-05
0.00832712
0.000245287
0.00859366
0.00100182
0.00886773
0.00142978
0.00914795
0.00137494
0.00932891
0.00117959
0.00948256
0.0010191
0.00962636
0.000922027
0.00976291
0.000860234
0.000810481
0.00989326
0.00840003
2.66789e-11
0.00840003
1.43555e-10
0.00840003
4.68746e-10
0.00840003
1.13973e-09
0.00840002
2.83766e-09
0.0084
6.08901e-09
0.00839997
1.45835e-08
0.00839989
3.02462e-08
0.00839971
7.38441e-08
0.0083993
1.52155e-07
0.00839859
3.89601e-07
0.00839575
8.49935e-07
0.00839574
2.13176e-06
0.00838381
5.938e-06
0.00839508
1.69299e-05
0.00836816
5.00534e-05
0.00838775
0.000209943
0.00843771
0.00091796
0.00869796
0.00114485
0.00895619
0.00111154
0.0091746
0.000958605
0.009356
0.000835442
0.00951638
0.000759838
0.0096644
0.000710495
0.00067008
0.00980391
0.00840003
6.08837e-11
0.00840003
3.40783e-10
0.00840003
1.11334e-09
0.00840003
2.77157e-09
0.00840002
6.70084e-09
0.00840001
1.46535e-08
0.00839999
3.34808e-08
0.00839994
7.08043e-08
0.00839981
1.61071e-07
0.00839967
3.33834e-07
0.00839895
7.70785e-07
0.00839882
1.55967e-06
0.00839506
3.82974e-06
0.00839552
7.80284e-06
0.00838479
2.06259e-05
0.00838541
5.1818e-05
0.00839081
0.000187148
0.00845156
0.00082108
0.00867465
0.000900201
0.00890053
0.000880613
0.00912008
0.000740291
0.00930852
0.000647384
0.00947213
0.000595213
0.00962069
0.000560971
0.000530863
0.00975944
0.00840003
1.02735e-10
0.00840003
5.81967e-10
0.00840003
1.69909e-09
0.00840003
4.66034e-09
0.00840002
1.04011e-08
0.00840001
2.59243e-08
0.00839998
5.42345e-08
0.00839991
1.37543e-07
0.00839975
2.67784e-07
0.00839939
7.33387e-07
0.00839877
1.03175e-06
0.00839626
4.66084e-06
0.00839612
1.88511e-06
0.00838631
1.98773e-05
0.00839085
8.84351e-06
0.00837581
6.85542e-05
0.00839017
0.000156582
0.00844128
0.000731368
0.00863183
0.000697468
0.00888428
0.000621743
0.00909813
0.000526047
0.0092829
0.000462828
0.00944499
0.000432711
0.00959391
0.000412692
0.00039257
0.00973339
0.00840003
2.27683e-10
0.00840003
-2.34341e-10
0.00840003
3.0011e-09
0.00840003
-1.05988e-09
0.00840002
1.83474e-08
0.00840006
-8.40027e-09
0.0084
1.02066e-07
0.00840021
-7.45604e-08
0.00839984
5.8735e-07
0.00840131
-6.79478e-07
0.008398
3.95002e-06
0.00841139
-7.82549e-06
0.00837702
3.37854e-05
0.00847109
-7.07968e-05
0.00823904
0.000232963
0.0085576
-0.000248227
0.00826943
0.000428353
0.00842721
0.000535213
0.00866537
0.000449223
0.0089058
0.000377877
0.00912228
0.000312285
0.00929897
0.000288311
0.00945535
0.000277603
0.00960136
0.000268661
0.00025719
0.00973952
0.00840003
-1.3663e-10
0.00840003
7.44967e-10
0.00840003
-1.33703e-09
0.00840003
5.19489e-09
0.00840005
-8.44138e-09
0.00840001
3.00108e-08
0.00840016
-5.37122e-08
0.00839989
1.77786e-07
0.00840085
-3.64946e-07
0.00839885
1.16221e-06
0.00840605
-3.0128e-06
0.00838707
1.01112e-05
0.00845247
-2.94179e-05
0.00829404
8.23112e-05
0.00873535
-0.000204519
0.00814691
0.000327635
0.00887155
-0.000308625
0.00914998
0.000214227
0.00931223
0.000279995
0.00942865
0.000260308
0.00954549
0.00019984
0.00967364
0.000163423
0.0098045
0.000150413
0.00993533
0.000143759
0.000136865
0.0100621
0.00840003
0.00840003
0.00840003
0.00840003
0.00840002
0.00840005
0.00839999
0.00840017
0.00839975
0.00840097
0.00839755
0.00840868
0.00837665
0.00846278
0.0082499
0.00857788
0.00825501
0.00842778
0.0087028
0.00896385
0.00916931
0.00933645
0.00949085
0.00964112
0.00978498
0.00532071
0.00370606
0.00324522
0.00207614
0.00162356
0.00162293
-0.000418642
0.00204236
-0.000905312
0.000485096
-0.00146599
0.00055897
-0.00189103
0.000424405
-0.00217247
0.000280156
-0.00234569
0.000170865
-0.0024516
0.000103327
-0.0024821
2.79206e-05
-0.00246919
-1.61662e-05
-0.00246459
-8.5061e-06
-0.00243061
-3.90142e-05
-0.00242386
-1.27934e-05
-0.00242234
-7.98348e-06
-0.00241798
-1.10843e-05
-0.00240338
-2.14051e-05
-0.00236644
-4.37489e-05
-0.00231174
-6.1479e-05
-0.00224437
-7.42439e-05
-0.0021667
-8.44454e-05
-0.00207696
-9.64897e-05
-0.00197417
-0.000109236
-0.00185535
-0.000125121
-0.00172449
-0.000136741
-0.00158321
-0.000146871
-0.00143072
-0.000157978
-0.00126845
-0.000167475
-0.00109878
-0.00017477
-0.000920822
-0.000182842
-0.000735961
-0.00018961
-0.000545105
-0.000195585
-0.000348138
-0.000201576
-0.000143632
-0.000209066
7.30665e-05
-0.000221436
0.000300239
-0.000231996
0.000517359
-0.000221822
0.00072851
-0.000215955
0.000936409
-0.000212562
0.00114125
-0.000209398
0.00134238
-0.000205749
0.00153946
-0.000201723
0.00173192
-0.000196996
0.00191895
-0.000191309
0.00209977
-0.000184773
0.00227612
-0.000179982
0.00245062
-0.000177784
0.00262351
-0.000175706
0.00279102
-0.000169969
0.00295203
-0.000163288
0.00310693
-0.000156774
0.00325598
-0.000150551
0.0033988
-0.000144412
0.00353568
-0.000138292
0.00366708
-0.000132362
0.00379296
-0.000126519
0.00391317
-0.000120839
0.00402731
-0.000115123
0.00413544
-0.000109483
0.00423747
-0.000103883
0.00433365
-9.8376e-05
0.00442404
-9.29648e-05
0.00450879
-8.76442e-05
0.00458796
-8.24406e-05
0.00466175
-7.73327e-05
0.00473011
-7.23545e-05
0.00479337
-6.74733e-05
0.00485162
-6.27454e-05
0.00490499
-5.81136e-05
0.00495391
-5.36279e-05
0.00499831
-4.92611e-05
0.00503873
-4.50256e-05
0.00507509
-4.0929e-05
0.00510774
-3.6965e-05
0.00513691
-3.31534e-05