/*--------------------------------*- C++ -*----------------------------------*\
  =========                 |
  \\      /  F ield         | OpenFOAM: The Open Source CFD Toolbox
   \\    /   O peration     | Website:  https://openfoam.org
    \\  /    A nd           | Version:  6
     \\/     M anipulation  |
\*---------------------------------------------------------------------------*/
FoamFile
{
    version     2.0;
    format      ascii;
    class       volScalarField;
    location    "10";
    object      T;
}
// * * * * * * * * * * * * * * * * * * * * * * * * * * * * * * * * * * * * * //

dimensions      [0 0 0 1 0 0 0];

internalField   nonuniform List<scalar> 
5250
(
1.00014
1.00034
1.00103
1.00204
1.00569
1.01143
1.02947
1.06764
1.15721
1.41375
2.13096
2.77389
2.73913
2.80089
2.74959
2.72629
2.74243
2.75426
2.77038
2.77985
2.78526
2.79052
2.79644
2.79842
2.80497
1.00014
1.00034
1.00102
1.00203
1.00567
1.0114
1.02938
1.06743
1.15673
1.41264
2.12698
2.77348
2.73931
2.8006
2.74809
2.72534
2.7422
2.75325
2.76869
2.77782
2.78302
2.78813
2.79358
2.79573
2.80248
1.00014
1.00034
1.00102
1.00202
1.00564
1.01132
1.0292
1.067
1.15561
1.41017
2.11701
2.77296
2.73993
2.79941
2.74505
2.72338
2.74065
2.75161
2.76672
2.77535
2.78062
2.78589
2.79059
2.79235
2.79932
1.00014
1.00033
1.00101
1.002
1.00558
1.0112
1.0289
1.06632
1.15378
1.40613
2.10054
2.77224
2.74101
2.79747
2.74116
2.72027
2.73693
2.74809
2.76165
2.77137
2.7751
2.78028
2.78613
2.78621
2.79141
1.00014
1.00033
1.00099
1.00197
1.0055
1.01102
1.02849
1.06536
1.15119
1.40041
2.07803
2.77067
2.74308
2.79359
2.73654
2.71653
2.73224
2.74358
2.75513
2.76243
2.76927
2.77203
2.77763
2.77934
2.78438
1.00013
1.00032
1.00097
1.00193
1.0054
1.0108
1.02798
1.0641
1.14783
1.3929
2.05056
2.76695
2.74796
2.78339
2.73188
2.71229
2.72753
2.73705
2.74933
2.75407
2.75711
2.76242
2.76415
2.7651
2.77069
1.00013
1.00031
1.00095
1.00188
1.00528
1.01052
1.02736
1.06242
1.14429
1.38334
2.0164
2.76185
2.75388
2.77047
2.7256
2.70662
2.72035
2.72889
2.73824
2.74473
2.74644
2.7483
2.75217
2.74916
2.75224
1.00013
1.0003
1.00092
1.00183
1.00513
1.01021
1.02661
1.06052
1.13994
1.3721
1.97929
2.75084
2.7596
2.75733
2.71834
2.7005
2.71427
2.72077
2.7273
2.7289
2.72983
2.72913
2.72684
2.72752
2.72479
1.00012
1.00029
1.00089
1.00176
1.00495
1.00985
1.02574
1.05835
1.13512
1.35865
1.94073
2.7297
2.76202
2.74822
2.70654
2.69112
2.70203
2.71081
2.71564
2.7155
2.71163
2.70828
2.70119
2.68595
2.67636
1.00012
1.00028
1.00086
1.00169
1.00476
1.00945
1.02475
1.05589
1.1297
1.34334
1.89759
2.70209
2.76123
2.74104
2.69676
2.68141
2.69019
2.69415
2.69886
2.69582
2.68981
2.67636
2.66129
2.63334
2.5733
1.00011
1.00027
1.00082
1.00161
1.00454
1.009
1.02366
1.0531
1.12383
1.3259
1.85202
2.66418
2.75717
2.72838
2.6902
2.67204
2.67924
2.67972
2.68122
2.67656
2.66572
2.64545
2.60918
2.54792
2.42455
1.00011
1.00025
1.00077
1.00152
1.00429
1.00849
1.02243
1.04997
1.11728
1.30658
1.80184
2.61913
2.74721
2.71115
2.68985
2.66552
2.66561
2.6648
2.65954
2.6527
2.63872
2.60964
2.56646
2.49189
2.3727
1.0001
1.00024
1.00072
1.00142
1.004
1.00791
1.02089
1.04674
1.10837
1.28811
1.72691
2.55739
2.73394
2.68321
2.68083
2.66458
2.66052
2.65677
2.64819
2.62722
2.60991
2.57844
2.52881
2.47259
2.37514
1.00009
1.00022
1.00066
1.0013
1.00368
1.00725
1.01924
1.04288
1.0989
1.26752
1.64758
2.47959
2.70312
2.69144
2.66395
2.65098
2.64974
2.64659
2.63787
2.61867
2.58608
2.55876
2.50524
2.46172
2.38632
1.00008
1.00019
1.00059
1.00117
1.00332
1.0065
1.01739
1.03843
1.08881
1.24142
1.56926
2.38128
2.66259
2.6866
2.66606
2.64567
2.63524
2.631
2.62258
2.60832
2.57561
2.55007
2.49771
2.46067
2.4017
1.00007
1.00017
1.00052
1.00103
1.00292
1.00569
1.01534
1.0334
1.07825
1.20839
1.4912
2.25426
2.60649
2.68086
2.66519
2.64598
2.62887
2.61789
2.60572
2.59412
2.56857
2.54712
2.50209
2.4623
2.41754
1.00006
1.00015
1.00044
1.00087
1.00248
1.00482
1.01307
1.02797
1.06641
1.17258
1.40353
2.09279
2.52937
2.66479
2.65565
2.64064
2.62046
2.6113
2.59301
2.58067
2.55391
2.5365
2.50749
2.46841
2.43257
1.00005
1.00012
1.00037
1.00072
1.00206
1.00396
1.01084
1.02244
1.05493
1.1348
1.31586
1.82366
2.45529
2.6242
2.62291
2.6177
2.60558
2.60076
2.58783
2.57511
2.55277
2.52681
2.50409
2.47273
2.44119
1.00004
1.0001
1.00031
1.00061
1.00174
1.0033
1.00921
1.01861
1.04671
1.11337
1.26092
1.67582
2.45427
2.61395
2.60854
2.59724
2.58008
2.57752
2.57274
2.56509
2.55045
2.52664
2.50414
2.47783
2.44959
1.00004
1.00009
1.00026
1.00051
1.00147
1.00277
1.00785
1.01559
1.04005
1.09579
1.2182
1.5909
2.38529
2.58809
2.60782
2.59202
2.57834
2.56442
2.5592
2.54904
2.54104
2.52524
2.50514
2.48349
2.45965
1.00003
1.00007
1.00022
1.00042
1.00122
1.0023
1.00653
1.01289
1.03308
1.08055
1.17521
1.508
2.23737
2.5325
2.61503
2.59563
2.58359
2.56328
2.55422
2.54377
2.53202
2.51921
2.50408
2.48614
2.46601
1.00002
1.00006
1.00018
1.00035
1.001
1.00189
1.00539
1.01046
1.02785
1.06263
1.14588
1.38945
2.02442
2.45498
2.60799
2.59471
2.58356
2.56172
2.55101
2.54225
2.53108
2.51903
2.50427
2.4884
2.47027
1.00002
1.00005
1.00015
1.00029
1.00082
1.00154
1.00441
1.00845
1.02307
1.04891
1.12168
1.29447
1.82924
2.37644
2.58922
2.58731
2.57418
2.55653
2.5429
2.53646
2.5286
2.51843
2.50482
2.49037
2.47426
1.00002
1.00004
1.00012
1.00023
1.00068
1.00127
1.00365
1.00697
1.019
1.04103
1.09788
1.25327
1.64221
2.34365
2.59383
2.59719
2.57838
2.56151
2.54432
2.53439
2.5247
2.51505
2.50248
2.48912
2.47442
1.00001
1.00003
1.0001
1.00019
1.00055
1.00104
1.00297
1.00575
1.01535
1.03428
1.0793
1.21814
1.51068
2.2024
2.54935
2.62169
2.59814
2.58188
2.55753
2.54256
2.52929
2.51748
2.50413
2.49039
2.47556
1.00001
1.00003
1.00007
1.00019
1.00037
1.00105
1.00199
1.00564
1.01123
1.02889
1.06981
1.15697
1.43543
2.10938
2.47435
2.62013
2.60784
2.59567
2.5714
2.55375
2.53908
2.52475
2.50988
2.49491
2.47945
1.00001
1.00003
1.00006
1.00016
1.00031
1.00089
1.00164
1.00477
1.00907
1.02487
1.05334
1.13102
1.32455
1.90697
2.41221
2.61431
2.60741
2.59374
2.5723
2.55426
2.54174
2.52924
2.5161
2.50187
2.48769
1
1.00002
1.00005
1.00013
1.00026
1.00075
1.00138
1.00403
1.00761
1.02116
1.04489
1.11126
1.27624
1.75956
2.40361
2.63415
2.62707
2.59764
2.57555
2.55508
2.54106
2.52889
2.517
2.50398
2.49094
1
1.00002
1.00004
1.00011
1.00021
1.00062
1.00115
1.00332
1.00644
1.01713
1.03937
1.09083
1.24928
1.61327
2.33478
2.61716
2.6555
2.62651
2.6006
2.57162
2.55252
2.53793
2.5248
2.51146
2.49833
1.00001
1.00001
1.00004
1.00008
1.00021
1.00041
1.00116
1.00226
1.00601
1.01326
1.03134
1.08637
1.18358
1.55945
2.3352
2.57572
2.66148
2.63595
2.6113
2.57683
2.55495
2.54016
2.52818
2.51644
2.50464
1
1.00001
1.00003
1.00008
1.00015
1.00043
1.00081
1.00232
1.00456
1.01169
1.02798
1.06364
1.18268
1.40034
2.0755
2.56764
2.69128
2.66657
2.63319
2.59069
2.56272
2.5453
2.53219
2.52023
2.50865
1
1.00001
1.00002
1.00007
1.00013
1.00039
1.00071
1.00211
1.00387
1.01123
1.02257
1.05677
1.14284
1.3326
1.81417
2.53299
2.69277
2.66524
2.63745
2.59343
2.56588
2.54921
2.5371
2.52553
2.51397
1
1.00001
1.00002
1.00006
1.00012
1.00034
1.00063
1.00189
1.00344
1.01009
1.01984
1.05133
1.12513
1.29613
1.73987
2.56297
2.71106
2.66786
2.6509
2.6117
2.58424
2.56863
2.55554
2.54211
2.52855
1
1.00001
1.00002
1.00006
1.00011
1.00031
1.00057
1.00171
1.00311
1.00922
1.01788
1.04749
1.11285
1.27001
1.69352
2.55208
2.70453
2.69234
2.65791
2.62264
2.59577
2.58065
2.56936
2.55827
2.54644
1
1.00001
1.00002
1.00005
1.00009
1.00027
1.00051
1.00151
1.00279
1.00811
1.01628
1.04217
1.1056
1.24387
1.65843
2.51628
2.69894
2.70555
2.67551
2.64144
2.6089
2.58942
2.57667
2.56563
2.55461
1
1.00001
1.00002
1.00004
1.0001
1.00019
1.00054
1.00105
1.00277
1.00613
1.01439
1.03955
1.08501
1.25593
1.60539
2.36496
2.68524
2.72673
2.69824
2.66901
2.63498
2.61265
2.59836
2.58687
2.57568
1
1.00001
1.00001
1.00004
1.00007
1.00022
1.0004
1.00117
1.00225
1.00614
1.01348
1.0326
1.09043
1.1943
1.58766
2.38456
2.6508
2.72523
2.69904
2.6729
2.6372
2.61551
2.60326
2.59404
2.58495
1
1.00001
1.00001
1.00003
1.00007
1.00019
1.00036
1.00105
1.00201
1.00549
1.01206
1.02892
1.08076
1.17151
1.53161
2.30227
2.64733
2.73223
2.70742
2.67127
2.63371
2.61409
2.60463
2.59745
2.58979
1
1
1.00001
1.00002
1.00007
1.00013
1.00038
1.00074
1.00195
1.00432
1.01015
1.02779
1.06077
1.18187
1.40131
2.02603
2.62192
2.75041
2.72182
2.67683
2.63135
2.60995
2.60219
2.59661
2.5903
1
1
1.00001
1.00003
1.00005
1.00015
1.00029
1.00084
1.00161
1.00447
1.0095
1.02367
1.06197
1.14038
1.38821
2.03902
2.58909
2.74707
2.71369
2.67404
2.62772
2.60799
2.6022
2.59832
2.59259
1
1
1.00001
1.00002
1.00006
1.00012
1.00033
1.00063
1.00177
1.0036
1.00907
1.02256
1.05195
1.1468
1.33911
1.82504
2.66745
2.75967
2.71685
2.68102
2.63335
2.61285
2.60768
2.60567
2.60149
1
1
1.00001
1.00002
1.00005
1.00014
1.00026
1.00074
1.00143
1.0038
1.00853
1.02027
1.05607
1.12315
1.35221
1.92211
2.59841
2.76083
2.71595
2.68887
2.64013
2.61699
2.6096
2.60645
2.60158
1
1
1.00001
1.00002
1.00006
1.00011
1.00032
1.0006
1.00172
1.00336
1.00888
1.02042
1.04885
1.13436
1.3092
1.78936
2.66857
2.76857
2.72206
2.69824
2.65059
2.62607
2.61669
2.61208
2.60625
1
1
1.00001
1.00003
1.00005
1.00014
1.00026
1.00077
1.00141
1.00413
1.00813
1.02118
1.0519
1.11909
1.32836
1.87196
2.56182
2.75701
2.71943
2.69799
2.65416
2.62918
2.61878
2.61413
2.60895
1
1
1.00001
1.00003
1.00005
1.00014
1.00026
1.0008
1.00143
1.00434
1.00802
1.02283
1.04919
1.12022
1.3128
1.85636
2.55131
2.75216
2.72049
2.70005
2.65825
2.63354
2.62186
2.61598
2.60954
1
1
1.00001
1.00003
1.00005
1.00014
1.00026
1.00078
1.00141
1.00428
1.0079
1.02245
1.04836
1.11813
1.30759
1.83857
2.53715
2.74848
2.72701
2.70522
2.66264
2.63655
2.62389
2.61742
2.61054
1
1
1.00001
1.00002
1.00005
1.00014
1.00025
1.00077
1.00138
1.00419
1.00773
1.02202
1.0475
1.11572
1.30381
1.81775
2.52672
2.74422
2.73222
2.70577
2.66673
2.64011
2.62737
2.62015
2.61312
1
1
1.00001
1.00002
1.00005
1.00013
1.00024
1.00072
1.00132
1.00383
1.00756
1.0196
1.0483
1.11038
1.30618
1.81167
2.52231
2.74186
2.73398
2.70689
2.66773
2.63991
2.62663
2.61925
2.61246
1
1
1.00001
1.00002
1.00005
1.0001
1.00029
1.00055
1.00159
1.00305
1.00835
1.01819
1.04501
1.12064
1.27839
1.73104
2.60381
2.73884
2.73356
2.70429
2.66489
2.63596
2.62196
2.61392
2.60637
1
1
1.00001
1.00002
1.00004
1.00013
1.00023
1.00069
1.00128
1.00368
1.00738
1.01891
1.04773
1.10797
1.30389
1.79172
2.51124
2.74134
2.73725
2.70907
2.67064
2.6419
2.62799
2.62004
2.61245
2.34004
2.33907
2.59691
2.80697
3.16062
3.0975
3.08845
3.05004
3.03374
3.0212
3.01773
3.01774
3.01718
3.01903
3.01325
3.01191
3.00922
3.00836
3.00832
3.01083
3.01269
3.01617
3.01905
3.02276
3.02645
3.02965
3.03318
3.03621
3.03832
3.03974
3.04003
3.03991
3.0383
3.03578
3.03355
3.02935
3.023
3.01663
3.01246
3.00732
3.00089
2.99426
2.98746
2.98037
2.97283
2.96506
2.95648
2.94792
2.93844
2.92858
2.91896
2.90928
2.89928
2.88925
2.87973
2.86963
2.85959
2.84897
2.83877
2.82856
2.81876
2.80911
2.79965
2.79034
2.78115
2.77216
2.76314
2.75457
2.74572
2.73744
2.72892
2.7207
2.71256
2.70436
2.69658
2.68862
2.68113
2.67378
2.66676
2.66047
2.65448
2.64962
2.64526
2.64255
2.6404
2.64041
2.64089
2.64157
2.64319
2.64597
2.65253
2.65798
2.66751
2.67358
2.68317
2.68857
2.69671
2.69995
2.70514
2.70201
2.28598
2.2874
2.4296
2.60276
2.73017
2.87021
3.00065
3.07411
3.13038
3.19248
3.23557
3.32773
3.38418
3.27058
3.23247
3.21419
3.20091
3.19176
3.18231
3.17289
3.16219
3.14815
3.13589
3.11904
3.10361
3.08782
3.06849
3.05202
3.03744
3.01773
2.99794
2.97939
2.96196
2.94496
2.92715
2.90885
2.89021
2.87306
2.85642
2.84007
2.82359
2.80681
2.79052
2.77403
2.75894
2.74405
2.73036
2.71654
2.70214
2.68726
2.6725
2.65736
2.64225
2.62723
2.61191
2.59679
2.5821
2.56819
2.55487
2.54205
2.52973
2.51772
2.50615
2.49473
2.48385
2.47313
2.46295
2.45322
2.44383
2.43497
2.4266
2.41844
2.41132
2.40427
2.3985
2.39326
2.38905
2.38588
2.38325
2.38167
2.38028
2.37966
2.37941
2.37968
2.38053
2.38219
2.38418
2.38584
2.38805
2.39087
2.39759
2.40247
2.41257
2.41831
2.4292
2.43449
2.44426
2.44789
2.45567
2.45493
2.32056
2.29491
2.33556
2.38714
2.43212
2.49099
2.5538
2.63212
2.69721
2.76661
2.82543
2.88786
2.9453
2.99639
3.03623
3.05839
3.07588
3.08641
3.08695
3.08354
3.07518
3.05649
3.0327
3.00516
2.97511
2.94392
2.91298
2.88246
2.85153
2.82081
2.79234
2.76665
2.74447
2.72426
2.7056
2.687
2.66952
2.65239
2.63718
2.62272
2.60989
2.59777
2.58681
2.57628
2.56631
2.55649
2.54654
2.53629
2.52527
2.51413
2.50313
2.49295
2.48309
2.47372
2.46465
2.45577
2.44732
2.43877
2.43046
2.4217
2.41291
2.40353
2.39417
2.38432
2.3747
2.3647
2.35496
2.34483
2.3348
2.32443
2.31401
2.30325
2.29249
2.28125
2.2703
2.25882
2.24783
2.23719
2.22663
2.21772
2.20914
2.20172
2.19656
2.19157
2.18918
2.18922
2.19009
2.19157
2.1947
2.19869
2.20763
2.21502
2.22685
2.23518
2.24695
2.25398
2.26385
2.26793
2.27515
2.27434
2.34086
2.30302
2.29032
2.3021
2.31521
2.33488
2.35499
2.37928
2.40758
2.43752
2.47185
2.50358
2.53395
2.55887
2.57878
2.59574
2.60744
2.61295
2.61681
2.61728
2.61604
2.61191
2.6056
2.59592
2.58589
2.57521
2.56407
2.5526
2.54198
2.53205
2.52274
2.51415
2.50617
2.49859
2.49065
2.48304
2.47597
2.46953
2.46343
2.45743
2.45143
2.44547
2.43949
2.43332
2.42698
2.4208
2.4149
2.40901
2.4025
2.39564
2.38854
2.38156
2.37471
2.36815
2.36207
2.35633
2.35135
2.3469
2.34312
2.33957
2.33594
2.33196
2.32742
2.32243
2.31693
2.31115
2.30514
2.29895
2.29254
2.28601
2.27929
2.27225
2.26486
2.25704
2.24853
2.23927
2.22948
2.21904
2.20806
2.19658
2.18593
2.17509
2.16391
2.15451
2.14655
2.13886
2.13129
2.12551
2.12269
2.12316
2.12557
2.1295
2.13848
2.14672
2.16061
2.16998
2.18461
2.19254
2.20411
2.21005
2.35266
2.3163
2.28839
2.27635
2.27022
2.26929
2.27185
2.27631
2.28559
2.29684
2.31166
2.32607
2.33939
2.35089
2.35884
2.36582
2.36932
2.37276
2.37347
2.37537
2.3772
2.37883
2.37927
2.37927
2.37925
2.37932
2.37952
2.3799
2.38045
2.38081
2.38117
2.38125
2.38127
2.38115
2.38067
2.38029
2.37964
2.37896
2.37786
2.37639
2.37426
2.37188
2.36876
2.365
2.36085
2.35631
2.35213
2.34728
2.34192
2.3355
2.32914
2.32263
2.31628
2.30961
2.303
2.29593
2.28877
2.28086
2.27275
2.26392
2.25502
2.24585
2.23689
2.2284
2.22062
2.21389
2.20802
2.20301
2.19895
2.19536
2.1925
2.19007
2.18795
2.186
2.18433
2.1819
2.17941
2.17637
2.17198
2.16732
2.16203
2.15553
2.14868
2.14188
2.13445
2.12743
2.11926
2.11318
2.10594
2.09935
2.09618
2.09589
2.09683
2.09856
2.10272
2.10684
2.1124
2.11942
2.12567
2.13348
2.36798
2.33103
2.29907
2.27585
2.25894
2.2477
2.23941
2.23423
2.23145
2.23181
2.23433
2.23883
2.24282
2.24729
2.2498
2.25192
2.25292
2.25345
2.25357
2.25359
2.25411
2.25593
2.2584
2.26061
2.26336
2.26597
2.26912
2.27223
2.27552
2.27865
2.2817
2.2844
2.28691
2.28888
2.29069
2.2918
2.29278
2.29297
2.29277
2.29231
2.29094
2.28905
2.2867
2.28387
2.28081
2.27746
2.27443
2.27087
2.26702
2.26216
2.25721
2.25186
2.24651
2.24086
2.23521
2.22929
2.2233
2.21696
2.21052
2.20384
2.19723
2.19065
2.1845
2.17841
2.17285
2.16688
2.1614
2.15513
2.14942
2.14317
2.1375
2.13203
2.12682
2.12254
2.1183
2.11509
2.11238
2.11021
2.10872
2.10758
2.10638
2.10541
2.10379
2.10205
2.09923
2.09684
2.09276
2.0876
2.08296
2.07812
2.07403
2.07218
2.07218
2.07253
2.07414
2.07577
2.07905
2.08106
2.08538
2.08648
2.38985
2.35251
2.31879
2.29242
2.26947
2.24973
2.2345
2.22234
2.21274
2.20592
2.20069
2.19799
2.19587
2.19481
2.19325
2.19178
2.18989
2.18819
2.18723
2.18626
2.18619
2.18607
2.18773
2.19058
2.19401
2.19753
2.20171
2.20582
2.21053
2.21505
2.21977
2.22419
2.22838
2.23237
2.23573
2.23904
2.2415
2.24392
2.24556
2.24691
2.24753
2.24772
2.24728
2.2462
2.24464
2.24283
2.24091
2.23868
2.23576
2.23205
2.22781
2.22324
2.21837
2.21334
2.20809
2.20264
2.19695
2.19108
2.18497
2.17871
2.17211
2.16526
2.15802
2.15054
2.14303
2.13521
2.12787
2.12025
2.11327
2.10647
2.10002
2.09445
2.08915
2.08499
2.08157
2.07911
2.07742
2.07704
2.07722
2.07789
2.07932
2.08114
2.08266
2.08415
2.08487
2.08454
2.08353
2.08081
2.07679
2.07352
2.07101
2.06815
2.06612
2.06524
2.06498
2.06489
2.065
2.06534
2.06675
2.0655
2.40745
2.37344
2.34264
2.31428
2.29053
2.27007
2.25075
2.23421
2.21808
2.20569
2.19563
2.18738
2.18067
2.17518
2.16998
2.16566
2.16124
2.15783
2.15479
2.15304
2.15169
2.15143
2.15146
2.15252
2.15516
2.15904
2.16296
2.16737
2.17202
2.17694
2.18196
2.18688
2.1917
2.19614
2.20043
2.20401
2.20749
2.21017
2.21263
2.21431
2.21558
2.21607
2.21593
2.21533
2.21398
2.21207
2.21041
2.20807
2.20545
2.2018
2.19788
2.19336
2.18879
2.18385
2.17895
2.17374
2.16853
2.16303
2.15756
2.15169
2.14586
2.13955
2.13335
2.1268
2.12024
2.11355
2.10665
2.09985
2.09297
2.08622
2.07965
2.07307
2.06683
2.06091
2.05533
2.05067
2.0468
2.04355
2.04188
2.04185
2.04232
2.04386
2.04694
2.05051
2.05517
2.05932
2.06217
2.064
2.06549
2.06615
2.06643
2.06644
2.06607
2.06511
2.06433
2.06392
2.063
2.06228
2.06153
2.05728
2.42017
2.39051
2.36163
2.33504
2.31023
2.28824
2.26819
2.24993
2.23472
2.21973
2.2065
2.19444
2.18381
2.17457
2.16699
2.15969
2.1537
2.14793
2.14362
2.13961
2.13696
2.13488
2.134
2.13379
2.13402
2.13589
2.13879
2.14285
2.1467
2.15135
2.15568
2.16055
2.16493
2.1696
2.17359
2.17772
2.18101
2.18434
2.1867
2.18908
2.19039
2.19165
2.19187
2.19172
2.19091
2.18972
2.18835
2.18671
2.18445
2.18146
2.17783
2.17383
2.16945
2.16482
2.15996
2.155
2.14992
2.14471
2.13933
2.1338
2.12814
2.12238
2.11646
2.11039
2.10414
2.09774
2.09117
2.08437
2.07738
2.07024
2.06308
2.05613
2.04946
2.04292
2.03668
2.0313
2.02663
2.02251
2.01997
2.01956
2.01994
2.0211
2.02393
2.0285
2.03418
2.04063
2.04654
2.05145
2.05604
2.06006
2.06318
2.06534
2.06652
2.06687
2.06654
2.06566
2.06352
2.06113
2.05954
2.05282
2.43403
2.40759
2.38145
2.35563
2.33174
2.30854
2.28783
2.2678
2.25005
2.2332
2.21836
2.20467
2.19306
2.18187
2.17215
2.16295
2.15518
2.1477
2.14189
2.13626
2.13239
2.12858
2.12651
2.12436
2.12398
2.12321
2.12398
2.12608
2.12901
2.13271
2.13658
2.14077
2.14501
2.14917
2.15338
2.15715
2.16089
2.16401
2.16698
2.16923
2.1713
2.17253
2.17356
2.17358
2.17331
2.17245
2.17153
2.17023
2.16836
2.16585
2.16273
2.15914
2.15512
2.15075
2.14616
2.14137
2.13637
2.13118
2.12586
2.12046
2.11494
2.10928
2.1035
2.09767
2.09179
2.08582
2.0797
2.07343
2.06708
2.06059
2.0539
2.04709
2.04034
2.03368
2.0271
2.02096
2.01553
2.01038
2.00579
2.00333
2.00314
2.00368
2.00524
2.00903
2.01435
2.02077
2.02748
2.03485
2.04255
2.04974
2.05623
2.06156
2.06514
2.0669
2.06706
2.0666
2.0648
2.06045
2.05783
2.04879
2.44443
2.4213
2.3982
2.37468
2.35195
2.32983
2.30864
2.28871
2.26956
2.25198
2.2352
2.22011
2.20582
2.19327
2.18136
2.17114
2.16135
2.15313
2.14519
2.13883
2.13286
2.12827
2.12422
2.12146
2.11943
2.11841
2.11801
2.11803
2.11918
2.12151
2.12447
2.12798
2.1316
2.13535
2.13923
2.14274
2.14641
2.14933
2.15246
2.15462
2.15691
2.1582
2.15944
2.15974
2.15967
2.15905
2.15832
2.15728
2.15572
2.15363
2.15083
2.14753
2.14379
2.13967
2.13521
2.13049
2.12559
2.1205
2.11523
2.10982
2.10431
2.09871
2.093
2.08721
2.08139
2.07558
2.06972
2.0638
2.05779
2.05177
2.04572
2.03959
2.03342
2.02731
2.02123
2.01528
2.00994
2.00515
2.00029
1.99602
1.99426
1.99437
1.99518
1.99759
2.00175
2.00759
2.01367
2.02165
2.03062
2.03966
2.04824
2.05571
2.06104
2.06386
2.06439
2.064
2.06225
2.05688
2.05349
2.04274
2.45142
2.43079
2.41002
2.38859
2.36735
2.34649
2.326
2.3065
2.2875
2.26973
2.25257
2.23682
2.22172
2.20816
2.19519
2.18379
2.17286
2.16346
2.15442
2.14685
2.13969
2.1339
2.12862
2.12444
2.12109
2.11849
2.11701
2.11602
2.11608
2.11633
2.11791
2.12009
2.12305
2.12587
2.12922
2.13234
2.13564
2.13841
2.14126
2.14346
2.14558
2.14705
2.14821
2.14881
2.14886
2.14842
2.14782
2.14699
2.14554
2.14359
2.14095
2.1378
2.13419
2.1302
2.12587
2.12125
2.1164
2.11138
2.10623
2.10095
2.09555
2.09004
2.08445
2.07879
2.07307
2.06731
2.06152
2.0557
2.04987
2.04404
2.03822
2.03236
2.02647
2.02071
2.01507
2.00953
2.00451
2.00021
1.99585
1.99141
1.98893
1.98882
1.98938
1.99139
1.99455
1.99998
2.00551
2.01378
2.02282
2.03222
2.04125
2.04905
2.05446
2.0571
2.05742
2.05676
2.05441
2.04815
2.04475
2.03409
2.45746
2.43922
2.42041
2.401
2.38122
2.36166
2.34205
2.32319
2.30463
2.28704
2.26999
2.25403
2.23879
2.22468
2.21135
2.19915
2.18766
2.17732
2.16751
2.15892
2.15068
2.14388
2.13716
2.13203
2.12686
2.12328
2.11982
2.1177
2.116
2.11524
2.11522
2.11543
2.11674
2.11868
2.12094
2.12341
2.12626
2.12869
2.13127
2.13332
2.13534
2.13687
2.13803
2.13881
2.13898
2.13864
2.13809
2.13736
2.13602
2.13416
2.1316
2.12855
2.12504
2.1211
2.11678
2.11215
2.10728
2.10225
2.09707
2.09177
2.08639
2.08091
2.07536
2.06974
2.06405
2.05835
2.05263
2.04691
2.04121
2.03557
2.03
2.02443
2.01889
2.01351
2.00828
2.00315
1.99854
1.99456
1.9904
1.98605
1.98361
1.9835
1.98403
1.98586
1.98891
1.99379
1.99978
2.0081
2.01719
2.02639
2.03495
2.04193
2.04638
2.04814
2.04811
2.04702
2.04422
2.03819
2.03542
2.0259
2.45925
2.44291
2.42622
2.4088
2.39113
2.37313
2.35533
2.33738
2.32017
2.3029
2.28674
2.27066
2.25583
2.24126
2.22795
2.215
2.20328
2.19191
2.18172
2.17185
2.16305
2.15478
2.1473
2.14063
2.13439
2.12934
2.1245
2.12092
2.1178
2.1155
2.11395
2.11307
2.11278
2.11297
2.114
2.11534
2.11747
2.11937
2.1216
2.12334
2.12517
2.12652
2.12757
2.12831
2.12839
2.1281
2.12748
2.12675
2.12547
2.12369
2.12124
2.11826
2.11481
2.11094
2.10667
2.10206
2.09717
2.0921
2.08689
2.08158
2.0762
2.07075
2.06524
2.05966
2.05404
2.0484
2.04273
2.03706
2.03143
2.02592
2.02055
2.01523
2.01004
2.00509
2.00029
1.99562
1.9916
1.98819
1.98443
1.98064
1.97893
1.979
1.9797
1.98142
1.98502
1.98892
1.99543
2.00317
2.01164
2.02004
2.02753
2.03325
2.03657
2.03744
2.03724
2.03553
2.03281
2.0271
2.02503
2.01674
2.46068
2.44522
2.4295
2.41339
2.3972
2.38063
2.36441
2.34786
2.33201
2.31593
2.30074
2.28548
2.27123
2.25702
2.24392
2.23084
2.21895
2.20701
2.19627
2.1855
2.17585
2.16635
2.15784
2.14974
2.14232
2.13573
2.12941
2.12438
2.11928
2.11573
2.11225
2.11007
2.10824
2.10734
2.10678
2.10673
2.10742
2.10856
2.11002
2.11138
2.11281
2.11391
2.11476
2.11539
2.11543
2.11517
2.11457
2.11387
2.11277
2.11113
2.10894
2.10616
2.10296
2.09935
2.09535
2.09098
2.08632
2.08145
2.07641
2.07127
2.06606
2.06081
2.0555
2.05016
2.04477
2.03932
2.0338
2.02824
2.02268
2.01724
2.01194
2.00675
2.00178
1.99716
1.99268
1.98849
1.98515
1.98222
1.97876
1.97576
1.97496
1.97518
1.97616
1.97817
1.98144
1.98591
1.99228
1.99967
2.00745
2.01496
2.02128
2.02564
2.02789
2.02806
2.02767
2.02496
2.02244
2.01669
2.01505
2.00745
2.46406
2.4487
2.43311
2.41743
2.40164
2.38574
2.36996
2.35428
2.33888
2.32371
2.3089
2.29441
2.28029
2.2666
2.2533
2.24048
2.22813
2.21619
2.20482
2.19372
2.18334
2.1731
2.16388
2.15462
2.14655
2.13846
2.13144
2.12475
2.11876
2.11358
2.10877
2.10497
2.10173
2.09925
2.09756
2.09642
2.096
2.09586
2.09646
2.09769
2.09874
2.10006
2.10097
2.10177
2.10233
2.10228
2.10198
2.10161
2.10102
2.0998
2.0981
2.09582
2.09313
2.09002
2.08649
2.08257
2.07834
2.07383
2.0691
2.06423
2.05927
2.05428
2.04924
2.04415
2.03903
2.03386
2.02858
2.0232
2.01786
2.01263
2.00743
2.0023
1.99744
1.99293
1.98845
1.98442
1.98139
1.97855
1.97531
1.97311
1.97288
1.97326
1.97426
1.97673
1.97959
1.98457
1.99056
1.99727
2.00403
2.01055
2.01525
2.01815
2.01935
2.01917
2.01831
2.01487
2.01238
2.00697
2.0055
1.99817
2.47261
2.4576
2.44217
2.42682
2.4112
2.39569
2.38011
2.36459
2.34927
2.33402
2.31918
2.30443
2.29021
2.2761
2.26262
2.24924
2.23655
2.22398
2.21212
2.20036
2.18934
2.17846
2.16842
2.15855
2.14955
2.14076
2.13283
2.12523
2.11842
2.11217
2.10668
2.10201
2.09791
2.09502
2.09268
2.0911
2.09007
2.08953
2.08966
2.0899
2.0908
2.09199
2.09315
2.09415
2.09482
2.09527
2.09516
2.09495
2.09455
2.09369
2.09224
2.09022
2.08781
2.08492
2.08161
2.07786
2.07377
2.06939
2.06474
2.05996
2.05509
2.05013
2.04517
2.04022
2.03524
2.03025
2.02521
2.02005
2.01492
2.00998
2.00508
2.00014
1.9956
1.99152
1.98739
1.98365
1.98096
1.97847
1.9756
1.97402
1.97397
1.97429
1.9754
1.97713
1.98036
1.98522
1.98998
1.99584
2.00128
2.00601
2.00945
2.01114
2.01147
2.01115
2.01002
2.00672
2.00447
2.0004
1.99897
1.99245
2.47704
2.46333
2.44913
2.43504
2.42059
2.40625
2.39167
2.37718
2.36257
2.34803
2.33353
2.31914
2.30494
2.29092
2.27718
2.26368
2.25053
2.23765
2.22518
2.21299
2.20126
2.1899
2.17906
2.16866
2.15883
2.14941
2.14065
2.13232
2.12465
2.11763
2.11122
2.10568
2.10054
2.0964
2.0924
2.08984
2.08767
2.086
2.08502
2.08455
2.08463
2.08471
2.08513
2.08579
2.08622
2.08632
2.08609
2.08569
2.08526
2.08429
2.08279
2.08091
2.07858
2.07583
2.07249
2.06882
2.06477
2.06049
2.05599
2.05131
2.04662
2.04183
2.03704
2.03231
2.02755
2.0228
2.01813
2.01341
2.00873
2.00433
1.99998
1.9955
1.9915
1.98787
1.98413
1.98091
1.97872
1.97649
1.97437
1.97366
1.97374
1.97426
1.97524
1.97727
1.98112
1.98456
1.98934
1.99368
1.998
2.00192
2.00468
2.00567
2.0057
2.00529
2.00427
2.00165
1.99986
1.99673
1.99547
1.9899
2.48478
2.47115
2.45729
2.44337
2.42928
2.4151
2.40086
2.38662
2.3724
2.35825
2.34417
2.33019
2.31632
2.30264
2.28908
2.27579
2.26266
2.24985
2.23727
2.225
2.21305
2.20141
2.19022
2.17937
2.16903
2.15908
2.14956
2.14058
2.13198
2.1239
2.11628
2.10919
2.10266
2.09683
2.09159
2.08711
2.08309
2.08017
2.07765
2.07571
2.07478
2.07396
2.07372
2.07364
2.07366
2.07367
2.07347
2.07319
2.07281
2.0719
2.07071
2.06912
2.06713
2.06475
2.06186
2.05869
2.05511
2.05131
2.04725
2.04295
2.03859
2.03411
2.02959
2.02515
2.02067
2.01626
2.012
2.0077
2.00348
1.99962
1.99574
1.99185
1.98854
1.98544
1.98221
1.97976
1.97804
1.97613
1.97467
1.97437
1.97445
1.97497
1.97619
1.97896
1.98147
1.98534
1.98889
1.99252
1.99626
2
2.00244
2.00304
2.00295
2.00244
2.00151
1.99922
1.99752
1.99481
1.99374
1.98895
2.49231
2.4798
2.46695
2.45393
2.44057
2.427
2.41319
2.39922
2.38514
2.371
2.35686
2.34273
2.32868
2.3147
2.3009
2.28726
2.27386
2.26069
2.24781
2.23517
2.22281
2.2107
2.19891
2.18743
2.1763
2.16553
2.15505
2.1451
2.1354
2.12631
2.1176
2.10947
2.10193
2.09503
2.0889
2.08344
2.0789
2.07499
2.07195
2.06944
2.06772
2.0664
2.06575
2.06542
2.06538
2.06543
2.06549
2.06546
2.06535
2.06501
2.06434
2.06321
2.06173
2.05982
2.05745
2.05477
2.05165
2.04829
2.0446
2.04066
2.03663
2.03245
2.02821
2.02404
2.01983
2.01568
2.01173
2.00773
2.00383
2.00036
1.99689
1.99341
1.99061
1.98794
1.98515
1.98318
1.9819
1.98035
1.97925
1.97872
1.97893
1.9796
1.98124
1.983
1.98554
1.98863
1.99159
1.99476
1.99839
2.00183
2.00356
2.00375
2.00363
2.00304
2.00191
1.99959
1.99775
1.99529
1.99426
1.99029
2.49695
2.48521
2.47334
2.46126
2.44893
2.43631
2.42336
2.41018
2.39671
2.38311
2.36932
2.35548
2.34157
2.32767
2.31379
2.29999
2.28629
2.27274
2.25937
2.24623
2.23324
2.22062
2.20812
2.19608
2.18432
2.17295
2.16197
2.15139
2.14122
2.13153
2.12228
2.11362
2.10541
2.09798
2.09103
2.08497
2.07953
2.07498
2.07104
2.0678
2.06518
2.06343
2.0623
2.06148
2.06112
2.06084
2.06078
2.06065
2.06048
2.06006
2.05944
2.05842
2.05711
2.05536
2.05325
2.05075
2.0479
2.04478
2.04133
2.0377
2.03397
2.03006
2.02617
2.0223
2.01837
2.01467
2.01105
2.00731
2.00391
2.00089
1.99772
1.99508
1.99305
1.991
1.98911
1.98828
1.98745
1.98671
1.98568
1.98583
1.98641
1.9872
1.98894
1.98998
1.99235
1.99455
1.99721
2.00007
2.00354
2.00635
2.00735
2.00739
2.00719
2.00644
2.00489
2.00253
2.00039
1.9981
1.99711
1.99391
2.5023
2.49053
2.47888
2.4672
2.45544
2.44351
2.43141
2.41906
2.40649
2.3937
2.38076
2.36763
2.35444
2.34112
2.32782
2.31448
2.30118
2.2879
2.27474
2.26163
2.24872
2.23595
2.22336
2.21104
2.19903
2.18727
2.1759
2.16481
2.15412
2.14382
2.13396
2.12452
2.11565
2.10729
2.09946
2.09231
2.08572
2.07984
2.07461
2.07015
2.06626
2.06319
2.06065
2.0588
2.05744
2.05653
2.05577
2.05509
2.05438
2.05359
2.05266
2.05143
2.04993
2.04812
2.04599
2.04352
2.04074
2.03768
2.03446
2.03104
2.0275
2.02394
2.02034
2.01675
2.01331
2.00995
2.00652
2.00332
2.00037
1.99748
1.99519
1.9934
1.99178
1.9905
1.98997
1.98958
1.98904
1.98875
1.98911
1.99015
1.99099
1.99273
1.99393
1.99616
1.99852
2.00148
2.00444
2.00795
2.01134
2.01297
2.01313
2.01295
2.01227
2.01054
2.00827
2.00535
2.00281
2.00018
1.99896
1.99575
2.51492
2.50131
2.48822
2.47553
2.46305
2.45065
2.43828
2.4258
2.41321
2.40051
2.38764
2.37473
2.36176
2.34875
2.33569
2.32264
2.30958
2.29656
2.2836
2.27069
2.25788
2.24519
2.23262
2.22024
2.2081
2.19612
2.18447
2.17304
2.16192
2.15113
2.14071
2.13061
2.12103
2.11181
2.10316
2.095
2.08746
2.08045
2.07427
2.06873
2.0638
2.05942
2.05571
2.05262
2.0501
2.04805
2.04648
2.04527
2.04424
2.04332
2.04237
2.04132
2.04007
2.03858
2.03678
2.03465
2.03222
2.02954
2.0266
2.02348
2.02029
2.01699
2.01363
2.01041
2.0072
2.00392
2.00102
1.9982
1.99557
1.99358
1.99178
1.99018
1.98929
1.98861
1.98848
1.98857
1.98885
1.98988
1.99109
1.99339
1.99493
1.99765
1.99919
2.00238
2.00524
2.00833
2.01175
2.01542
2.01734
2.01762
2.01729
2.01651
2.01467
2.01222
2.00928
2.00581
2.00292
1.99979
1.99825
1.99481
2.53413
2.52199
2.50924
2.49616
2.48274
2.46916
2.45554
2.44195
2.42838
2.41494
2.40151
2.38819
2.37487
2.36168
2.3485
2.33546
2.32241
2.3095
2.29658
2.28378
2.27093
2.25816
2.24537
2.23263
2.22005
2.20755
2.19527
2.18317
2.17127
2.15969
2.14843
2.13754
2.12713
2.11715
2.10765
2.09874
2.09026
2.08244
2.0752
2.06861
2.06269
2.05757
2.05305
2.04938
2.04641
2.04412
2.04231
2.04098
2.03998
2.03912
2.03832
2.03748
2.03649
2.03527
2.03376
2.03197
2.0299
2.02754
2.02496
2.0222
2.01926
2.01625
2.01323
2.01017
2.00712
2.0043
2.00155
1.99898
1.99687
1.99504
1.99336
1.99247
1.9918
1.99147
1.99144
1.99174
1.993
1.9943
1.99674
1.99886
2.00175
2.00455
2.0079
2.01157
2.01472
2.01814
2.02174
2.02347
2.02346
2.0231
2.02154
2.01997
2.01652
2.01353
2.00944
2.00572
2.00228
1.99866
1.99699
1.99345
2.54316
2.53144
2.5198
2.50811
2.49632
2.48399
2.47138
2.45835
2.44526
2.43195
2.41874
2.40536
2.39213
2.37882
2.36568
2.35248
2.33942
2.32623
2.31307
2.29982
2.28652
2.27318
2.25989
2.24658
2.23353
2.22063
2.20806
2.19585
2.18395
2.1725
2.16137
2.15056
2.14011
2.12989
2.11996
2.11043
2.10115
2.09242
2.08418
2.07653
2.06957
2.06334
2.05778
2.05298
2.04906
2.04577
2.04319
2.04118
2.03962
2.03834
2.03728
2.03632
2.03532
2.03414
2.0328
2.03126
2.02945
2.02741
2.0252
2.02275
2.02024
2.01759
2.01478
2.01207
2.0094
2.00664
2.00442
2.00233
2.00031
1.99895
1.99792
1.99711
1.99709
1.99713
1.9978
1.99924
2.0017
2.00408
2.00768
2.01059
2.01466
2.01795
2.02185
2.02453
2.02757
2.03044
2.03131
2.03113
2.02999