/*--------------------------------*- C++ -*----------------------------------*\
  =========                 |
  \\      /  F ield         | OpenFOAM: The Open Source CFD Toolbox
   \\    /   O peration     | Website:  https://openfoam.org
    \\  /    A nd           | Version:  6
     \\/     M anipulation  |
\*---------------------------------------------------------------------------*/
FoamFile
{
    version     2.0;
    format      ascii;
    class       volVectorField;
    location    "10";
    object      U;
}
// * * * * * * * * * * * * * * * * * * * * * * * * * * * * * * * * * * * * * //

dimensions      [0 1 -1 0 0 0 0];

internalField   nonuniform List<vector> 
5250
(
(2.99991 7.4639e-08 0)
(2.99971 4.79002e-07 0)
(2.99925 1.48996e-06 0)
(2.99829 4.07102e-06 0)
(2.99578 9.42512e-06 0)
(2.9908 2.29355e-05 0)
(2.97639 4.94196e-05 0)
(2.94787 0.000121264 0)
(2.86075 0.000265984 0)
(2.63682 0.000683313 0)
(2.03991 0.0015929 0)
(0.499642 0.00471617 0)
(-0.292971 0.0107989 0)
(0.133159 0.016736 0)
(0.4927 0.0218963 0)
(0.594912 0.0249303 0)
(0.556071 0.0270666 0)
(0.465657 0.0280006 0)
(0.370492 0.0298775 0)
(0.308518 0.0328405 0)
(0.258658 0.0361404 0)
(0.205095 0.0394422 0)
(0.14649 0.0430086 0)
(0.0868793 0.0478264 0)
(0.0429832 0.0549959 0)
(2.99991 2.31692e-07 0)
(2.99972 1.49151e-06 0)
(2.99925 4.63604e-06 0)
(2.9983 1.27027e-05 0)
(2.9958 2.94843e-05 0)
(2.99083 7.18764e-05 0)
(2.97647 0.000156999 0)
(2.94804 0.000380954 0)
(2.86116 0.000867283 0)
(2.63793 0.00215665 0)
(2.04297 0.00522534 0)
(0.506115 0.0155375 0)
(-0.286969 0.0340658 0)
(0.141349 0.0493909 0)
(0.49941 0.0616724 0)
(0.597994 0.0680343 0)
(0.557074 0.0719345 0)
(0.467029 0.0729973 0)
(0.374048 0.076305 0)
(0.312689 0.0816291 0)
(0.261836 0.0867836 0)
(0.2069 0.0908503 0)
(0.147377 0.0941841 0)
(0.0863982 0.0977436 0)
(0.0415492 0.101509 0)
(2.99991 4.04148e-07 0)
(2.99972 2.60776e-06 0)
(2.99926 8.10335e-06 0)
(2.99831 2.22626e-05 0)
(2.99582 5.17972e-05 0)
(2.99089 0.000126605 0)
(2.97662 0.000279456 0)
(2.94842 0.000673208 0)
(2.86206 0.00157963 0)
(2.64047 0.00382567 0)
(2.05054 0.00956097 0)
(0.522235 0.0284185 0)
(-0.269816 0.0602607 0)
(0.154533 0.0834519 0)
(0.507888 0.101608 0)
(0.601487 0.112091 0)
(0.557859 0.119527 0)
(0.468465 0.123702 0)
(0.379048 0.13074 0)
(0.31899 0.140016 0)
(0.266953 0.148803 0)
(0.21025 0.155876 0)
(0.149419 0.161427 0)
(0.0865045 0.166077 0)
(0.0398651 0.16871 0)
(2.99991 5.89075e-07 0)
(2.99972 3.80534e-06 0)
(2.99926 1.18245e-05 0)
(2.99833 3.25381e-05 0)
(2.99587 7.57939e-05 0)
(2.99099 0.000185642 0)
(2.97686 0.000411608 0)
(2.94904 0.000988338 0)
(2.8635 0.00235729 0)
(2.64463 0.00561032 0)
(2.06314 0.0142388 0)
(0.548198 0.0419518 0)
(-0.242686 0.0869986 0)
(0.172186 0.117247 0)
(0.51841 0.139854 0)
(0.606622 0.154276 0)
(0.560711 0.165705 0)
(0.472548 0.174319 0)
(0.387126 0.185867 0)
(0.328638 0.199441 0)
(0.275758 0.212529 0)
(0.217452 0.223879 0)
(0.15505 0.233245 0)
(0.0896416 0.240752 0)
(0.0398902 0.244711 0)
(2.99991 7.81838e-07 0)
(2.99972 5.05709e-06 0)
(2.99928 1.5708e-05 0)
(2.99835 4.33173e-05 0)
(2.99593 0.000100822 0)
(2.99113 0.00024837 0)
(2.9772 0.000546902 0)
(2.94992 0.00131853 0)
(2.86549 0.00319074 0)
(2.65046 0.0074052 0)
(2.08086 0.0190458 0)
(0.58372 0.0554564 0)
(-0.206076 0.113949 0)
(0.193977 0.151643 0)
(0.530498 0.177785 0)
(0.613124 0.195491 0)
(0.565621 0.210561 0)
(0.479368 0.223683 0)
(0.398105 0.239888 0)
(0.341418 0.258065 0)
(0.288129 0.275879 0)
(0.228648 0.29219 0)
(0.164708 0.306375 0)
(0.0962317 0.317816 0)
(0.0418995 0.324129 0)
(2.99991 9.77993e-07 0)
(2.99973 6.32478e-06 0)
(2.99929 1.96175e-05 0)
(2.99838 5.41615e-05 0)
(2.99601 0.000125169 0)
(2.99131 0.000311464 0)
(2.97764 0.000665884 0)
(2.95108 0.00166501 0)
(2.86803 0.00386738 0)
(2.65797 0.00942876 0)
(2.10376 0.0235891 0)
(0.62903 0.0689331 0)
(-0.159737 0.141336 0)
(0.219935 0.186596 0)
(0.54371 0.215803 0)
(0.620882 0.236264 0)
(0.57272 0.254637 0)
(0.489298 0.272274 0)
(0.412593 0.29346 0)
(0.358066 0.316771 0)
(0.304993 0.340168 0)
(0.244717 0.362518 0)
(0.179121 0.382906 0)
(0.106668 0.399952 0)
(0.0459219 0.409808 0)
(2.99991 1.16732e-06 0)
(2.99974 7.53608e-06 0)
(2.99931 2.33588e-05 0)
(2.99842 6.43955e-05 0)
(2.99611 0.000148094 0)
(2.99152 0.000369197 0)
(2.97819 0.000775783 0)
(2.95239 0.00199988 0)
(2.87127 0.00435084 0)
(2.66724 0.0116854 0)
(2.1304 0.0276902 0)
(0.68498 0.082323 0)
(-0.103355 0.169137 0)
(0.250248 0.221816 0)
(0.558387 0.253947 0)
(0.629992 0.27649 0)
(0.582288 0.297676 0)
(0.502949 0.319746 0)
(0.431493 0.346337 0)
(0.379688 0.375557 0)
(0.327691 0.405667 0)
(0.267592 0.435853 0)
(0.200526 0.465064 0)
(0.123005 0.4912 0)
(0.0531788 0.50795 0)
(2.99992 1.34971e-06 0)
(2.99974 8.70232e-06 0)
(2.99933 2.69912e-05 0)
(2.99847 7.42678e-05 0)
(2.99622 0.000171054 0)
(2.99176 0.000424233 0)
(2.97883 0.000896236 0)
(2.95383 0.00231168 0)
(2.87522 0.00489804 0)
(2.67815 0.0137608 0)
(2.15997 0.0318462 0)
(0.751353 0.0954905 0)
(-0.0373141 0.197373 0)
(0.284837 0.257644 0)
(0.574497 0.292019 0)
(0.640291 0.315757 0)
(0.594386 0.339147 0)
(0.520827 0.365501 0)
(0.455779 0.397775 0)
(0.407819 0.433599 0)
(0.358443 0.471703 0)
(0.300434 0.511904 0)
(0.233765 0.554209 0)
(0.150832 0.596662 0)
(0.0672282 0.628969 0)
(2.99992 1.53736e-06 0)
(2.99975 9.90789e-06 0)
(2.99935 3.07426e-05 0)
(2.99852 8.45283e-05 0)
(2.99635 0.000194905 0)
(2.99204 0.00048221 0)
(2.97957 0.00102177 0)
(2.95546 0.00262931 0)
(2.87976 0.0055394 0)
(2.69069 0.0156621 0)
(2.19368 0.0361937 0)
(0.828734 0.108153 0)
(0.039575 0.226088 0)
(0.323908 0.295412 0)
(0.59208 0.328799 0)
(0.651778 0.352773 0)
(0.609317 0.377988 0)
(0.543499 0.408816 0)
(0.486215 0.447039 0)
(0.443618 0.489995 0)
(0.399398 0.535942 0)
(0.347752 0.588592 0)
(0.28719 0.650626 0)
(0.202786 0.721378 0)
(0.0982272 0.795521 0)
(2.99992 1.73753e-06 0)
(2.99976 1.11943e-05 0)
(2.99938 3.47313e-05 0)
(2.99858 9.54527e-05 0)
(2.9965 0.000219917 0)
(2.99235 0.00054392 0)
(2.9804 0.00114928 0)
(2.9573 0.00296487 0)
(2.88488 0.00619364 0)
(2.70483 0.0175722 0)
(2.23141 0.0405131 0)
(0.917256 0.120186 0)
(0.128728 0.255325 0)
(0.366146 0.335839 0)
(0.607258 0.363221 0)
(0.663552 0.386364 0)
(0.627075 0.413068 0)
(0.571318 0.44846 0)
(0.523364 0.492658 0)
(0.486987 0.540933 0)
(0.452009 0.59512 0)
(0.416217 0.6632 0)
(0.37388 0.750692 0)
(0.30807 0.868092 0)
(0.176754 1.05722 0)
(2.99992 1.96452e-06 0)
(2.99977 1.26502e-05 0)
(2.99941 3.92429e-05 0)
(2.99865 0.000107763 0)
(2.99666 0.000248023 0)
(2.9927 0.000612725 0)
(2.98134 0.00129061 0)
(2.95933 0.00332994 0)
(2.8906 0.00690223 0)
(2.72052 0.0195535 0)
(2.27293 0.0449138 0)
(1.01683 0.131736 0)
(0.231011 0.28452 0)
(0.410462 0.376415 0)
(0.617475 0.396252 0)
(0.674868 0.416674 0)
(0.647301 0.444739 0)
(0.603857 0.483052 0)
(0.564914 0.531264 0)
(0.537332 0.582994 0)
(0.519202 0.64529 0)
(0.509508 0.727396 0)
(0.510058 0.833855 0)
(0.545176 0.975953 0)
(0.585206 1.18292 0)
(2.99993 2.25095e-06 0)
(2.99979 1.44944e-05 0)
(2.99944 4.50372e-05 0)
(2.99872 0.000123563 0)
(2.99685 0.00028622 0)
(2.99309 0.000701264 0)
(2.98238 0.0015093 0)
(2.9616 0.00375335 0)
(2.89695 0.00813619 0)
(2.73773 0.0217435 0)
(2.31796 0.0509247 0)
(1.12529 0.143866 0)
(0.343608 0.314197 0)
(0.456663 0.414825 0)
(0.624496 0.427333 0)
(0.686104 0.442931 0)
(0.669323 0.472632 0)
(0.638293 0.511178 0)
(0.609492 0.559018 0)
(0.593462 0.613735 0)
(0.596774 0.681734 0)
(0.616704 0.768199 0)
(0.655163 0.874525 0)
(0.74874 1.0012 0)
(0.889202 1.1345 0)
(2.99993 2.56545e-06 0)
(2.9998 1.6532e-05 0)
(2.99948 5.13813e-05 0)
(2.99881 0.000141096 0)
(2.99706 0.00032744 0)
(2.99357 0.00080217 0)
(2.98356 0.00173804 0)
(2.96441 0.00425455 0)
(2.90402 0.00955909 0)
(2.75726 0.0240677 0)
(2.36707 0.0597696 0)
(1.24109 0.159319 0)
(0.464437 0.352465 0)
(0.502012 0.443459 0)
(0.625337 0.455167 0)
(0.696085 0.465618 0)
(0.692008 0.493576 0)
(0.670826 0.530349 0)
(0.654195 0.576528 0)
(0.653469 0.632841 0)
(0.675099 0.701513 0)
(0.715792 0.780126 0)
(0.776211 0.868861 0)
(0.880101 0.962228 0)
(1.02369 1.03073 0)
(2.99994 2.87371e-06 0)
(2.99982 1.85276e-05 0)
(2.99952 5.75306e-05 0)
(2.99891 0.000158177 0)
(2.99731 0.000365937 0)
(2.9941 0.000901343 0)
(2.98491 0.00193217 0)
(2.9676 0.00482611 0)
(2.91176 0.0105845 0)
(2.78073 0.0271837 0)
(2.42243 0.0677515 0)
(1.37017 0.181189 0)
(0.585883 0.40333 0)
(0.539293 0.461887 0)
(0.631011 0.476431 0)
(0.704303 0.482085 0)
(0.712853 0.506098 0)
(0.703021 0.541414 0)
(0.699247 0.58658 0)
(0.712166 0.641438 0)
(0.74468 0.703233 0)
(0.794609 0.768049 0)
(0.863111 0.834937 0)
(0.963204 0.89798 0)
(1.08872 0.936016 0)
(2.99995 3.17472e-06 0)
(2.99984 2.04704e-05 0)
(2.99957 6.359e-05 0)
(2.99902 0.000174879 0)
(2.99758 0.000405232 0)
(2.99469 0.000997225 0)
(2.98644 0.00214617 0)
(2.97103 0.00542819 0)
(2.92076 0.011404 0)
(2.80623 0.0313474 0)
(2.48621 0.0730696 0)
(1.52733 0.207862 0)
(0.711695 0.464863 0)
(0.564402 0.482003 0)
(0.637331 0.48771 0)
(0.711742 0.488913 0)
(0.7342 0.5117 0)
(0.735297 0.546569 0)
(0.74219 0.588874 0)
(0.763679 0.637942 0)
(0.801241 0.689398 0)
(0.854339 0.74116 0)
(0.923234 0.790822 0)
(1.01373 0.833923 0)
(1.12243 0.856671 0)
(2.99995 3.41395e-06 0)
(2.99986 2.20392e-05 0)
(2.99962 6.84902e-05 0)
(2.99914 0.000188734 0)
(2.99788 0.00043845 0)
(2.99534 0.00108123 0)
(2.98815 0.00234095 0)
(2.97466 0.00595858 0)
(2.93122 0.0123123 0)
(2.83336 0.034902 0)
(2.55926 0.0789071 0)
(1.72398 0.231416 0)
(0.849735 0.531525 0)
(0.579915 0.509481 0)
(0.64481 0.497173 0)
(0.724177 0.493249 0)
(0.76012 0.51364 0)
(0.76866 0.546337 0)
(0.780935 0.583986 0)
(0.806681 0.624992 0)
(0.846442 0.666915 0)
(0.899639 0.70766 0)
(0.96618 0.744796 0)
(1.04709 0.775128 0)
(1.14058 0.791106 0)
(2.99996 3.4425e-06 0)
(2.99988 2.22709e-05 0)
(2.99968 6.92095e-05 0)
(2.99926 0.000191393 0)
(2.9982 0.000445387 0)
(2.99605 0.0011051 0)
(2.99001 0.00239933 0)
(2.97863 0.00616525 0)
(2.94261 0.0127034 0)
(2.8629 0.0363237 0)
(2.63942 0.0829309 0)
(1.95677 0.243443 0)
(1.01221 0.594086 0)
(0.614653 0.5552 0)
(0.669111 0.525519 0)
(0.75061 0.507037 0)
(0.794703 0.51731 0)
(0.806331 0.543261 0)
(0.818955 0.574454 0)
(0.844624 0.607622 0)
(0.883475 0.64107 0)
(0.934199 0.672683 0)
(0.996499 0.700616 0)
(1.06944 0.721729 0)
(1.15078 0.732723 0)
(2.99997 3.06157e-06 0)
(2.9999 1.97698e-05 0)
(2.99973 6.14222e-05 0)
(2.99939 0.00016929 0)
(2.99851 0.000393261 0)
(2.99674 0.00096974 0)
(2.99186 0.00210016 0)
(2.98251 0.00531055 0)
(2.95415 0.0110974 0)
(2.89291 0.0300468 0)
(2.72261 0.0712302 0)
(2.22343 0.195513 0)
(1.25723 0.515378 0)
(0.726883 0.55827 0)
(0.737599 0.550602 0)
(0.801278 0.528699 0)
(0.846579 0.526693 0)
(0.856522 0.542527 0)
(0.864187 0.56558 0)
(0.884896 0.590699 0)
(0.919092 0.616019 0)
(0.964847 0.639539 0)
(1.02065 0.660167 0)
(1.08493 0.674564 0)
(1.15572 0.680946 0)
(2.99997 2.51309e-06 0)
(2.99991 1.61473e-05 0)
(2.99978 5.01818e-05 0)
(2.99949 0.00013713 0)
(2.99875 0.000317676 0)
(2.99727 0.000770187 0)
(2.9932 0.00166097 0)
(2.98547 0.00404964 0)
(2.96149 0.00857217 0)
(2.91332 0.0214015 0)
(2.76732 0.0515808 0)
(2.35726 0.126689 0)
(1.46451 0.340594 0)
(0.782983 0.547422 0)
(0.769048 0.570408 0)
(0.829188 0.558658 0)
(0.885688 0.544767 0)
(0.903273 0.548429 0)
(0.910366 0.562088 0)
(0.926447 0.578454 0)
(0.954767 0.594981 0)
(0.994471 0.610842 0)
(1.04298 0.623953 0)
(1.09821 0.632416 0)
(1.15909 0.634764 0)
(2.99998 2.14827e-06 0)
(2.99993 1.38012e-05 0)
(2.99981 4.29247e-05 0)
(2.99957 0.000117281 0)
(2.99895 0.000272228 0)
(2.9977 0.000658802 0)
(2.99427 0.0014256 0)
(2.98775 0.00345916 0)
(2.96739 0.00728473 0)
(2.92842 0.0182481 0)
(2.80171 0.0422965 0)
(2.46103 0.107943 0)
(1.68179 0.275528 0)
(0.874358 0.584518 0)
(0.774313 0.59515 0)
(0.829376 0.584029 0)
(0.894848 0.562038 0)
(0.930489 0.556668 0)
(0.945642 0.561538 0)
(0.961629 0.569865 0)
(0.987155 0.578884 0)
(1.02193 0.587492 0)
(1.06344 0.593283 0)
(1.11092 0.595961 0)
(1.16321 0.594463 0)
(2.99998 1.88289e-06 0)
(2.99994 1.21088e-05 0)
(2.99984 3.76736e-05 0)
(2.99964 0.000103152 0)
(2.99913 0.0002398 0)
(2.99809 0.00058243 0)
(2.99525 0.00126153 0)
(2.98991 0.00309786 0)
(2.97282 0.0063533 0)
(2.94215 0.0171065 0)
(2.83571 0.0361974 0)
(2.56267 0.106351 0)
(1.91049 0.254507 0)
(0.996629 0.62723 0)
(0.762377 0.612117 0)
(0.815816 0.593148 0)
(0.890243 0.566491 0)
(0.942579 0.557361 0)
(0.96731 0.557648 0)
(0.987391 0.560998 0)
(1.01277 0.564668 0)
(1.04406 0.566556 0)
(1.08065 0.566627 0)
(1.12247 0.564681 0)
(1.16817 0.559971 0)
(2.99998 1.6098e-06 0)
(2.99995 1.03529e-05 0)
(2.99987 3.22034e-05 0)
(2.99971 8.81922e-05 0)
(2.99928 0.000204918 0)
(2.99843 0.000498169 0)
(2.99612 0.00107547 0)
(2.9916 0.00266137 0)
(2.97817 0.00533528 0)
(2.95286 0.015222 0)
(2.87035 0.0293768 0)
(2.6642 0.0956056 0)
(2.15379 0.222176 0)
(1.16882 0.60342 0)
(0.785691 0.612646 0)
(0.818834 0.592899 0)
(0.892097 0.564403 0)
(0.955675 0.548873 0)
(0.986636 0.546492 0)
(1.00826 0.547239 0)
(1.03218 0.546854 0)
(1.06102 0.544758 0)
(1.09496 0.54159 0)
(1.133 0.536944 0)
(1.1739 0.530259 0)
(2.99999 1.33064e-06 0)
(2.99996 8.55495e-06 0)
(2.99989 2.66104e-05 0)
(2.99976 7.27845e-05 0)
(2.99941 0.000169239 0)
(2.99871 0.000409821 0)
(2.99684 0.000889024 0)
(2.99313 0.00214838 0)
(2.98253 0.00452172 0)
(2.9617 0.011603 0)
(2.89832 0.0242729 0)
(2.74418 0.0691737 0)
(2.35239 0.161686 0)
(1.36345 0.460825 0)
(0.840484 0.571471 0)
(0.83445 0.576302 0)
(0.897234 0.561338 0)
(0.966677 0.541084 0)
(1.00522 0.532741 0)
(1.02718 0.529715 0)
(1.04933 0.526743 0)
(1.07656 0.523035 0)
(1.10834 0.518324 0)
(1.14341 0.512304 0)
(1.18062 0.50463 0)
(2.99999 1.09328e-06 0)
(2.99997 7.02483e-06 0)
(2.99991 2.18456e-05 0)
(2.9998 5.96195e-05 0)
(2.99952 0.000138776 0)
(2.99894 0.000333799 0)
(2.9974 0.000729481 0)
(2.99435 0.00172377 0)
(2.98548 0.00371813 0)
(2.9689 0.00877368 0)
(2.91551 0.0200439 0)
(2.78944 0.0483335 0)
(2.45732 0.116745 0)
(1.52222 0.31434 0)
(0.872236 0.560496 0)
(0.819842 0.568459 0)
(0.881775 0.559389 0)
(0.956114 0.535692 0)
(1.0066 0.5211 0)
(1.03562 0.513795 0)
(1.06015 0.508874 0)
(1.08754 0.503847 0)
(1.11845 0.498 0)
(1.15183 0.491076 0)
(1.18663 0.482833 0)
(2.99999 7.61074e-07 0)
(2.99997 6.30401e-06 0)
(2.99993 1.66753e-05 0)
(2.99984 5.26666e-05 0)
(2.99961 0.000105395 0)
(2.99913 0.000298581 0)
(2.99786 0.000539777 0)
(2.99539 0.00159591 0)
(2.98798 0.00258359 0)
(2.97495 0.00903572 0)
(2.92947 0.0120358 0)
(2.83054 0.0524686 0)
(2.54985 0.0870721 0)
(1.73218 0.289785 0)
(0.971263 0.591707 0)
(0.786407 0.571668 0)
(0.847166 0.549633 0)
(0.928022 0.520181 0)
(0.992954 0.503243 0)
(1.03172 0.495008 0)
(1.0612 0.489823 0)
(1.09075 0.484741 0)
(1.12236 0.478798 0)
(1.1555 0.471744 0)
(1.18926 0.463442 0)
(2.99999 5.99288e-07 0)
(2.99998 5.022e-06 0)
(2.99994 1.31934e-05 0)
(2.99986 4.19717e-05 0)
(2.99969 8.34362e-05 0)
(2.99925 0.000238198 0)
(2.99835 0.00042682 0)
(2.99589 0.00127764 0)
(2.99128 0.00206508 0)
(2.97644 0.00727572 0)
(2.94983 0.00983445 0)
(2.85761 0.0427529 0)
(2.63074 0.0760129 0)
(2.04493 0.247168 0)
(1.09493 0.603344 0)
(0.764484 0.571013 0)
(0.816128 0.534178 0)
(0.901331 0.498037 0)
(0.979107 0.477931 0)
(1.02594 0.470119 0)
(1.05901 0.46637 0)
(1.08993 0.462717 0)
(1.12194 0.457917 0)
(1.15493 0.451718 0)
(1.18806 0.444096 0)
(2.99999 6.09581e-07 0)
(2.99998 3.4855e-06 0)
(2.99995 1.17321e-05 0)
(2.99988 2.98725e-05 0)
(2.99974 7.46756e-05 0)
(2.99938 0.000166131 0)
(2.99863 0.000395612 0)
(2.99662 0.000843691 0)
(2.99269 0.0020788 0)
(2.98114 0.00415013 0)
(2.95892 0.0116664 0)
(2.88932 0.023136 0)
(2.71919 0.0714058 0)
(2.2946 0.169941 0)
(1.2732 0.479831 0)
(0.793798 0.525998 0)
(0.815481 0.509643 0)
(0.892749 0.483666 0)
(0.976601 0.460649 0)
(1.02902 0.449692 0)
(1.06279 0.444929 0)
(1.0924 0.44148 0)
(1.12278 0.437276 0)
(1.15424 0.431723 0)
(1.18597 0.424735 0)
(3 5.08138e-07 0)
(2.99998 2.9065e-06 0)
(2.99996 9.78715e-06 0)
(2.9999 2.49023e-05 0)
(2.99978 6.21428e-05 0)
(2.99948 0.000138531 0)
(2.99885 0.000326982 0)
(2.99716 0.000703505 0)
(2.99385 0.00165212 0)
(2.98409 0.0035747 0)
(2.96557 0.00831354 0)
(2.90646 0.0187518 0)
(2.76563 0.045945 0)
(2.39822 0.106455 0)
(1.3971 0.291611 0)
(0.78741 0.474688 0)
(0.782676 0.483508 0)
(0.863948 0.472772 0)
(0.95541 0.449457 0)
(1.01932 0.435085 0)
(1.05946 0.4282 0)
(1.09092 0.423897 0)
(1.12098 0.419351 0)
(1.15138 0.413632 0)
(1.18185 0.40661 0)
(3 4.98971e-07 0)
(2.99999 2.22538e-06 0)
(2.99997 8.96986e-06 0)
(2.99992 1.9568e-05 0)
(2.99982 5.75757e-05 0)
(2.99956 0.000108391 0)
(2.99905 0.000313008 0)
(2.99762 0.000535271 0)
(2.99493 0.00167784 0)
(2.98643 0.00242874 0)
(2.97161 0.00954618 0)
(2.91957 0.0105551 0)
(2.79994 0.053193 0)
(2.47592 0.0723599 0)
(1.55393 0.252725 0)
(0.82651 0.480947 0)
(0.730174 0.471294 0)
(0.812756 0.453602 0)
(0.9132 0.427629 0)
(0.992882 0.413981 0)
(1.04339 0.408399 0)
(1.07962 0.404999 0)
(1.1113 0.400887 0)
(1.14201 0.395352 0)
(1.17229 0.388478 0)
(3 3.36244e-07 0)
(2.99999 1.92077e-06 0)
(2.99997 6.4865e-06 0)
(2.99994 1.653e-05 0)
(2.99985 4.15383e-05 0)
(2.99966 9.29069e-05 0)
(2.99916 0.00022207 0)
(2.9982 0.000479501 0)
(2.9953 0.00115158 0)
(2.9904 0.00248556 0)
(2.97221 0.00609896 0)
(2.94158 0.013405 0)
(2.82422 0.0336843 0)
(2.53298 0.0918268 0)
(1.80977 0.217106 0)
(0.888957 0.51682 0)
(0.66213 0.459568 0)
(0.746918 0.416318 0)
(0.861261 0.38803 0)
(0.959133 0.380073 0)
(1.01955 0.379773 0)
(1.05987 0.379632 0)
(1.0932 0.377436 0)
(1.12478 0.373209 0)
(1.15566 0.367402 0)
(3 1.6928e-07 0)
(2.99999 1.59313e-06 0)
(2.99998 3.90726e-06 0)
(2.99994 1.32214e-05 0)
(2.99987 2.45908e-05 0)
(2.99969 7.49677e-05 0)
(2.99933 0.000123581 0)
(2.99833 0.000403172 0)
(2.99649 0.000579417 0)
(2.9904 0.00234226 0)
(2.98058 0.00243665 0)
(2.94278 0.0150906 0)
(2.86812 0.0152565 0)
(2.63351 0.0908891 0)
(1.95984 0.19269 0)
(1.0251 0.512876 0)
(0.625891 0.439239 0)
(0.713137 0.384337 0)
(0.842882 0.354357 0)
(0.952122 0.348808 0)
(1.0138 0.35113 0)
(1.05133 0.352841 0)
(1.08174 0.351971 0)
(1.11128 0.348889 0)
(1.14084 0.344194 0)
(3 1.7539e-07 0)
(2.99999 1.00173e-06 0)
(2.99998 3.36757e-06 0)
(2.99995 8.56357e-06 0)
(2.99989 2.13834e-05 0)
(2.99973 4.73597e-05 0)
(2.99941 0.000113024 0)
(2.99854 0.000237957 0)
(2.99683 0.000602844 0)
(2.99185 0.00112677 0)
(2.9829 0.0035655 0)
(2.95276 0.00629558 0)
(2.89114 0.0219747 0)
(2.711 0.0482035 0)
(2.17715 0.148224 0)
(1.19729 0.390968 0)
(0.645512 0.392612 0)
(0.71844 0.373733 0)
(0.849542 0.346304 0)
(0.963706 0.335383 0)
(1.0234 0.333352 0)
(1.05556 0.33292 0)
(1.08073 0.331249 0)
(1.10625 0.328004 0)
(1.13283 0.323479 0)
(3 1.44127e-07 0)
(2.99999 8.23688e-07 0)
(2.99998 2.76953e-06 0)
(2.99996 7.04155e-06 0)
(2.9999 1.75455e-05 0)
(2.99976 3.90172e-05 0)
(2.99947 9.21201e-05 0)
(2.9987 0.00019683 0)
(2.99718 0.000468738 0)
(2.99278 0.00097918 0)
(2.98482 0.00247912 0)
(2.95813 0.00492019 0)
(2.90574 0.0135192 0)
(2.74218 0.0318049 0)
(2.27651 0.0774449 0)
(1.3126 0.214417 0)
(0.622493 0.334326 0)
(0.684136 0.35804 0)
(0.81477 0.347328 0)
(0.944475 0.329943 0)
(1.01343 0.320697 0)
(1.04841 0.316414 0)
(1.07328 0.313308 0)
(1.09762 0.309694 0)
(1.1229 0.305188 0)
(3 1.30938e-07 0)
(2.99999 7.48816e-07 0)
(2.99998 2.51768e-06 0)
(2.99996 6.39981e-06 0)
(2.99991 1.59225e-05 0)
(2.99978 3.54637e-05 0)
(2.99952 8.31365e-05 0)
(2.99882 0.000178644 0)
(2.99744 0.000415839 0)
(2.99346 0.000879467 0)
(2.98615 0.00208427 0)
(2.9619 0.00434249 0)
(2.9156 0.0105132 0)
(2.76267 0.0248348 0)
(2.34188 0.058357 0)
(1.43668 0.151557 0)
(0.64214 0.314492 0)
(0.648835 0.337612 0)
(0.769665 0.338145 0)
(0.9005 0.317671 0)
(0.981765 0.303219 0)
(1.0249 0.296217 0)
(1.05353 0.292616 0)
(1.07929 0.289474 0)
(1.10508 0.285662 0)
(3 1.61791e-07 0)
(2.99999 6.34433e-07 0)
(2.99999 2.82522e-06 0)
(2.99996 5.69442e-06 0)
(2.99992 1.83075e-05 0)
(2.99981 3.18285e-05 0)
(2.99958 0.000101442 0)
(2.99895 0.000156966 0)
(2.99772 0.000554957 0)
(2.99411 0.000662431 0)
(2.98769 0.00320339 0)
(2.96512 0.00192706 0)
(2.92432 0.0176362 0)
(2.78095 0.00811821 0)
(2.39839 0.0791019 0)
(1.54175 0.11857 0)
(0.688768 0.302166 0)
(0.615461 0.312146 0)
(0.723217 0.309436 0)
(0.852556 0.290362 0)
(0.94294 0.277161 0)
(0.993949 0.271607 0)
(1.02651 0.269456 0)
(1.05362 0.267552 0)
(1.07982 0.264762 0)
(3 1.07874e-07 0)
(3 6.1665e-07 0)
(2.99999 2.08059e-06 0)
(2.99997 5.30757e-06 0)
(2.99993 1.33006e-05 0)
(2.99984 2.98585e-05 0)
(2.99961 7.06489e-05 0)
(2.99917 0.000154135 0)
(2.99782 0.000358113 0)
(2.9956 0.000789742 0)
(2.98713 0.00176124 0)
(2.97393 0.0039893 0)
(2.92118 0.00888251 0)
(2.80533 0.0214148 0)
(2.47627 0.0493182 0)
(1.54505 0.131376 0)
(0.727088 0.301639 0)
(0.561102 0.28833 0)
(0.665843 0.271877 0)
(0.800193 0.253235 0)
(0.902593 0.245833 0)
(0.961114 0.245166 0)
(0.996304 0.245632 0)
(1.02372 0.244961 0)
(1.0497 0.24294 0)
(3 5.28565e-08 0)
(3 5.92019e-07 0)
(2.99999 1.31165e-06 0)
(2.99997 4.84644e-06 0)
(2.99994 8.0958e-06 0)
(2.99985 2.73196e-05 0)
(2.99967 3.85749e-05 0)
(2.99917 0.000147134 0)
(2.99821 0.000157144 0)
(2.99524 0.00088169 0)
(2.99032 0.000358745 0)
(2.97113 0.00592224 0)
(2.93927 0.000641359 0)
(2.81573 0.0339402 0)
(2.50095 0.0266979 0)
(1.74747 0.141531 0)
(0.770381 0.325612 0)
(0.502844 0.268614 0)
(0.609182 0.226256 0)
(0.755758 0.209482 0)
(0.870517 0.210856 0)
(0.932965 0.216544 0)
(0.967349 0.220378 0)
(0.993219 0.221357 0)
(1.01829 0.220283 0)
(3 1.06421e-07 0)
(3 4.01454e-07 0)
(2.99999 1.84288e-06 0)
(2.99998 3.6357e-06 0)
(2.99994 1.20497e-05 0)
(2.99986 2.05051e-05 0)
(2.9997 6.80884e-05 0)
(2.99926 0.00010213 0)
(2.9984 0.000387811 0)
(2.99574 0.000429843 0)
(2.99137 0.0024481 0)
(2.97418 0.00120733 0)
(2.94633 0.0152124 0)
(2.83552 0.00739038 0)
(2.55941 0.085325 0)
(1.88982 0.132703 0)
(0.810235 0.376467 0)
(0.424325 0.26794 0)
(0.557062 0.193362 0)
(0.732299 0.1728 0)
(0.858902 0.178067 0)
(0.920948 0.187506 0)
(0.951219 0.193474 0)
(0.973253 0.195623 0)
(0.995836 0.195373 0)
(3 6.68258e-08 0)
(3 3.81377e-07 0)
(2.99999 1.29163e-06 0)
(2.99998 3.29257e-06 0)
(2.99995 8.31621e-06 0)
(2.99989 1.86447e-05 0)
(2.99973 4.48367e-05 0)
(2.99941 9.68209e-05 0)
(2.99846 0.000236852 0)
(2.99691 0.00048924 0)
(2.99089 0.00132246 0)
(2.98189 0.00252842 0)
(2.94445 0.00788573 0)
(2.87082 0.0155607 0)
(2.64086 0.0530882 0)
(1.97902 0.13479 0)
(0.945051 0.348983 0)
(0.434799 0.255495 0)
(0.581143 0.187718 0)
(0.774802 0.166326 0)
(0.904245 0.167724 0)
(0.958125 0.173942 0)
(0.977276 0.177587 0)
(0.989795 0.178126 0)
(1.00521 0.176806 0)
(3 3.95288e-08 0)
(3 2.53459e-07 0)
(2.99999 7.87004e-07 0)
(2.99998 2.14641e-06 0)
(2.99995 4.95509e-06 0)
(2.99989 1.19931e-05 0)
(2.99976 2.54269e-05 0)
(2.9994 6.27394e-05 0)
(2.99871 0.000123485 0)
(2.99661 0.00035271 0)
(2.99305 0.000611175 0)
(2.97977 0.00211748 0)
(2.95768 0.00391598 0)
(2.87537 0.0130396 0)
(2.67887 0.0300218 0)
(2.1673 0.086733 0)
(0.963987 0.248763 0)
(0.377854 0.217513 0)
(0.55201 0.187859 0)
(0.772681 0.169658 0)
(0.91341 0.165425 0)
(0.969059 0.166448 0)
(0.985907 0.167244 0)
(0.995406 0.166236 0)
(1.00819 0.16397 0)
(3 2.93189e-08 0)
(3 1.66431e-07 0)
(2.99999 5.67634e-07 0)
(2.99998 1.45211e-06 0)
(2.99996 3.7199e-06 0)
(2.9999 8.42518e-06 0)
(2.99976 2.0659e-05 0)
(2.99949 4.5495e-05 0)
(2.99869 0.000110395 0)
(2.99729 0.000252798 0)
(2.99236 0.00057705 0)
(2.98467 0.00134047 0)
(2.95407 0.00315281 0)
(2.89438 0.00718347 0)
(2.70948 0.018166 0)
(2.17876 0.0456972 0)
(1.07442 0.116594 0)
(0.363154 0.16515 0)
(0.528761 0.180779 0)
(0.749119 0.17163 0)
(0.899666 0.16321 0)
(0.96038 0.158997 0)
(0.978145 0.156599 0)
(0.987286 0.15409 0)
(0.999954 0.151139 0)
(3 1.16401e-08 0)
(3 7.49576e-08 0)
(2.99999 2.3267e-07 0)
(2.99998 6.36659e-07 0)
(2.99996 1.4697e-06 0)
(2.9999 3.57546e-06 0)
(2.99979 7.5273e-06 0)
(2.99947 1.883e-05 0)
(2.99887 3.64027e-05 0)
(2.99699 0.000113387 0)
(2.99394 0.000157088 0)
(2.98196 0.000754278 0)
(2.96274 0.00126761 0)
(2.88883 0.00442901 0)
(2.71419 0.0126935 0)
(2.25422 0.0254941 0)
(1.04421 0.0801381 0)
(0.331788 0.142752 0)
(0.489971 0.174877 0)
(0.70994 0.166864 0)
(0.867465 0.154699 0)
(0.935409 0.14634 0)
(0.95781 0.141564 0)
(0.969511 0.138435 0)
(0.983681 0.135584 0)
(3 -1.20575e-09 0)
(3 -6.72158e-09 0)
(2.99999 -2.71495e-08 0)
(2.99998 -7.4861e-08 0)
(2.99996 -2.31235e-07 0)
(2.99991 -6.65303e-07 0)
(2.99977 -1.65273e-06 0)
(2.99951 -5.3151e-06 0)
(2.99876 -6.64869e-06 0)
(2.99739 -4.26285e-05 0)
(2.99289 4.26738e-05 0)
(2.98561 -0.000181566 0)
(2.95732 0.000751497 0)
(2.90466 0.0010581 0)
(2.7292 0.00678312 0)
(2.2372 0.0187385 0)
(1.17823 0.0532715 0)
(0.40152 0.119344 0)
(0.51093 0.156578 0)
(0.699536 0.1535 0)
(0.856056 0.141851 0)
(0.927289 0.132193 0)
(0.952268 0.126366 0)
(0.964872 0.122841 0)
(0.9789 0.120013 0)
(3 -2.42799e-08 0)
(3 3.0312e-08 0)
(2.99999 -2.95045e-07 0)
(2.99998 1.23639e-07 0)
(2.99996 -1.999e-06 0)
(2.9999 7.0865e-07 0)
(2.99978 -1.25143e-05 0)
(2.99946 5.64619e-06 0)
(2.99884 -7.90592e-05 0)
(2.99703 6.47202e-05 0)
(2.99382 -0.000543826 0)
(2.98259 0.000860144 0)
(2.96382 -0.00381012 0)
(2.89454 0.00776095 0)
(2.73051 -0.0155628 0)
(2.30036 0.0238947 0)
(1.13489 0.0162119 0)
(0.415845 0.0838792 0)
(0.505915 0.125924 0)
(0.681183 0.133235 0)
(0.835025 0.125708 0)
(0.910203 0.117032 0)
(0.93971 0.111172 0)
(0.955207 0.107548 0)
(0.970662 0.104781 0)
(3 -1.38412e-10 0)
(3 -3.57966e-10 0)
(2.99999 -4.05396e-09 0)
(2.99998 -9.25423e-09 0)
(2.99996 -5.29146e-08 0)
(2.9999 -1.68831e-07 0)
(2.99978 -5.26457e-07 0)
(2.99946 -1.90198e-06 0)
(2.99881 -3.26257e-06 0)
(2.99701 -1.52137e-05 0)
(2.99358 2.37413e-05 0)
(2.98282 -0.000182191 0)
(2.96355 0.000618138 0)
(2.89676 0.000320728 0)
(2.73756 0.00524403 0)
(2.32137 0.012736 0)
(1.15345 0.0356585 0)
(0.442589 0.0824631 0)
(0.508784 0.110534 0)
(0.665111 0.113707 0)
(0.815009 0.106414 0)
(0.892285 0.0986592 0)
(0.925151 0.0934313 0)
(0.943037 0.090223 0)
(0.959708 0.0878452 0)
(3 9.41478e-09 0)
(3 5.3951e-08 0)
(2.99999 1.82229e-07 0)
(2.99998 4.65237e-07 0)
(2.99996 1.16777e-06 0)
(2.9999 2.61666e-06 0)
(2.99978 6.22969e-06 0)
(2.99946 1.34869e-05 0)
(2.99883 3.21384e-05 0)
(2.99705 6.84499e-05 0)
(2.99368 0.000166324 0)
(2.9831 0.000354178 0)
(2.96423 0.000870231 0)
(2.89857 0.00197556 0)
(2.74298 0.00496902 0)
(2.33412 0.012276 0)
(1.18476 0.0328929 0)
(0.472991 0.0733674 0)
(0.516576 0.0882159 0)
(0.658542 0.0902328 0)
(0.804417 0.0839943 0)
(0.883121 0.0784539 0)
(0.918121 0.0750551 0)
(0.937233 0.0729323 0)
(0.95423 0.0711646 0)
(3 1.75924e-08 0)
(3 1.0036e-07 0)
(2.99999 3.42218e-07 0)
(2.99998 8.73903e-07 0)
(2.99996 2.22811e-06 0)
(2.9999 5.05949e-06 0)
(2.99979 1.22041e-05 0)
(2.99948 2.73838e-05 0)
(2.99886 6.40248e-05 0)
(2.99711 0.000146721 0)
(2.99382 0.000294964 0)
(2.98341 0.00086565 0)
(2.96499 0.00113565 0)
(2.90027 0.00344552 0)
(2.74784 0.00541249 0)
(2.3457 0.0114965 0)
(1.20816 0.0308077 0)
(0.493289 0.0615435 0)
(0.519953 0.0650468 0)
(0.655234 0.0648197 0)
(0.797945 0.0599502 0)
(0.878459 0.0571358 0)
(0.915033 0.0561804 0)
(0.934665 0.0556954 0)
(0.951587 0.0549544 0)
(3 3.55268e-08 0)
(3 4.80097e-08 0)
(2.99999 5.25953e-07 0)
(2.99998 5.34794e-07 0)
(2.99996 3.44404e-06 0)
(2.99991 2.92388e-06 0)
(2.9998 1.98211e-05 0)
(2.9995 1.28241e-05 0)
(2.99892 0.000114066 0)
(2.99724 3.57706e-05 0)
(2.99428 0.000692375 0)
(2.9838 -0.000241889 0)
(2.96656 0.00474121 0)
(2.90222 -0.00430593 0)
(2.75097 0.0244637 0)
(2.35005 -0.00519968 0)
(1.24038 0.0517968 0)
(0.504929 0.0654326 0)
(0.517857 0.0572528 0)
(0.65139 0.0485812 0)
(0.794931 0.0409559 0)
(0.878089 0.037922 0)
(0.915939 0.0373735 0)
(0.935528 0.0372857 0)
(0.951975 0.0368616 0)
(3 9.79005e-09 0)
(3 5.62252e-08 0)
(2.99999 1.88082e-07 0)
(2.99998 4.78411e-07 0)
(2.99996 1.17811e-06 0)
(2.99992 2.62513e-06 0)
(2.99979 6.02561e-06 0)
(2.99955 1.30888e-05 0)
(2.99887 2.88447e-05 0)
(2.99759 6.33136e-05 0)
(2.99356 0.000126841 0)
(2.98686 0.000302284 0)
(2.96126 0.000509105 0)
(2.91545 0.00124521 0)
(2.75342 0.00230048 0)
(2.32279 0.00625945 0)
(1.37336 0.0146819 0)
(0.570732 0.0339665 0)
(0.568337 0.0335836 0)
(0.690596 0.0312299 0)
(0.828557 0.0275896 0)
(0.911138 0.0259756 0)
(0.948317 0.0256843 0)
(0.966533 0.0255674 0)
(0.981423 0.0251555 0)
(3 -1.46906e-08 0)
(3 7.10613e-08 0)
(2.99999 -1.21471e-07 0)
(2.99998 4.97617e-07 0)
(2.99996 -8.32071e-07 0)
(2.99991 2.99342e-06 0)
(2.99981 -5.72356e-06 0)
(2.99952 1.87989e-05 0)
(2.99896 -4.16605e-05 0)
(2.99731 0.000131376 0)
(2.99448 -0.00036987 0)
(2.98412 0.00119996 0)
(2.96736 -0.00357227 0)
(2.90374 0.00790414 0)
(2.75515 -0.0192944 0)
(2.36074 0.0163593 0)
(1.26478 -0.0223424 0)
(0.520965 -0.00720521 0)
(0.515968 -0.00134491 0)
(0.647442 0.0029586 0)
(0.7922 0.00451716 0)
(0.879576 0.00524446 0)
(0.919725 0.00586313 0)
(0.939716 0.00630883 0)
(0.955931 0.00651915 0)
(1.0817 1.13019 0)
(1.26364 1.01902 0)
(0.994502 0.863367 0)
(0.355061 0.649007 0)
(-0.273611 0.0362791 0)
(-0.3288 -0.00284729 0)
(-0.490352 -0.0337015 0)
(-0.618067 -0.0428584 0)
(-0.693858 -0.0368777 0)
(-0.725078 -0.0256806 0)
(-0.733782 -0.0141102 0)
(-0.728366 -0.00105856 0)
(-0.718766 0.0109016 0)
(-0.706846 0.0172262 0)
(-0.707577 0.0213523 0)
(-0.706868 0.0209716 0)
(-0.70515 0.0180786 0)
(-0.698805 0.0134325 0)
(-0.684468 0.00831688 0)
(-0.663965 0.00404472 0)
(-0.638779 0.000480092 0)
(-0.61014 -0.00297658 0)
(-0.577986 -0.00664401 0)
(-0.542363 -0.0105945 0)
(-0.503353 -0.0146627 0)
(-0.46209 -0.0181526 0)
(-0.41904 -0.0214726 0)
(-0.374331 -0.0245613 0)
(-0.328648 -0.0272987 0)
(-0.282302 -0.0298378 0)
(-0.235178 -0.0322262 0)
(-0.187681 -0.034325 0)
(-0.139585 -0.0363209 0)
(-0.0910756 -0.0384305 0)
(-0.0423704 -0.0409099 0)
(0.00895774 -0.0438478 0)
(0.0671605 -0.0450623 0)
(0.0997326 -0.0415334 0)
(0.140276 -0.0392245 0)
(0.183004 -0.0376862 0)
(0.225053 -0.0363915 0)
(0.266047 -0.0351402 0)
(0.306203 -0.0339055 0)
(0.345535 -0.0326416 0)
(0.383757 -0.0312727 0)
(0.419881 -0.0298419 0)
(0.454921 -0.0286378 0)
(0.491442 -0.0279204 0)
(0.528812 -0.0274669 0)
(0.564821 -0.0265385 0)
(0.599537 -0.0253643 0)
(0.633339 -0.0242012 0)
(0.666404 -0.0231228 0)
(0.698786 -0.0221121 0)
(0.730518 -0.0211418 0)