/*--------------------------------*- C++ -*----------------------------------*\
  =========                 |
  \\      /  F ield         | OpenFOAM: The Open Source CFD Toolbox
   \\    /   O peration     | Website:  https://openfoam.org
    \\  /    A nd           | Version:  6
     \\/     M anipulation  |
\*---------------------------------------------------------------------------*/
FoamFile
{
    version     2.0;
    format      ascii;
    class       volScalarField;
    location    "7.5";
    object      Ma;
}
// * * * * * * * * * * * * * * * * * * * * * * * * * * * * * * * * * * * * * //

dimensions      [0 0 0 0 0 0 0];

internalField   nonuniform List<scalar> 
5250
(
2.99988
2.99967
2.99903
2.99798
2.99454
2.98898
2.97095
2.93854
2.85094
2.64947
2.23849
1.36404
0.310666
0.188708
0.0743503
0.290259
0.348867
0.316748
0.255157
0.196445
0.158989
0.128299
0.0956078
0.0621153
0.0429347
2.99988
2.99967
2.99903
2.99799
2.99456
2.98902
2.97105
2.93877
2.85145
2.65072
2.24074
1.36856
0.315433
0.186123
0.0860155
0.297424
0.353321
0.32032
0.259849
0.204032
0.168726
0.139599
0.109593
0.0815743
0.0680183
2.99988
2.99967
2.99904
2.99801
2.99461
2.98911
2.97128
2.93927
2.85254
2.65352
2.24587
1.37992
0.327601
0.177785
0.10517
0.308179
0.360527
0.326974
0.269068
0.218828
0.187945
0.16253
0.13766
0.116818
0.107766
2.99988
2.99968
2.99905
2.99803
2.99467
2.98925
2.97163
2.94006
2.85429
2.65808
2.25429
1.39898
0.347437
0.165376
0.128822
0.322125
0.370986
0.337941
0.284152
0.240831
0.215258
0.194438
0.175195
0.160357
0.1545
2.99988
2.99968
2.99907
2.99807
2.99477
2.98944
2.97213
2.94116
2.85673
2.66445
2.26613
1.42577
0.374725
0.150976
0.155941
0.33884
0.384233
0.352736
0.304014
0.267729
0.247633
0.231645
0.217564
0.207441
0.203919
2.99989
2.99969
2.99909
2.99811
2.99489
2.98969
2.97276
2.94258
2.85988
2.67263
2.28148
1.46005
0.409527
0.137993
0.186168
0.357621
0.400013
0.370799
0.328435
0.299206
0.284635
0.273431
0.264375
0.258632
0.257421
2.99989
2.9997
2.99912
2.99817
2.99504
2.98999
2.97354
2.9443
2.86374
2.68265
2.30039
1.50232
0.452197
0.132542
0.219352
0.378752
0.417922
0.391943
0.356279
0.334691
0.325946
0.320562
0.317245
0.316847
0.319225
2.99989
2.99971
2.99915
2.99823
2.99521
2.99035
2.97445
2.94634
2.86823
2.69465
2.32265
1.55349
0.50585
0.142011
0.256147
0.40274
0.43826
0.416289
0.38809
0.373999
0.371627
0.372625
0.377463
0.385806
0.396106
2.9999
2.99972
2.99919
2.99831
2.99541
2.99076
2.97546
2.94874
2.87332
2.70753
2.34876
1.60056
0.570174
0.172076
0.296471
0.426957
0.459629
0.443125
0.423345
0.417377
0.421663
0.4312
0.447444
0.471584
0.504245
2.9999
2.99974
2.99923
2.99839
2.99563
2.99124
2.97662
2.95147
2.87918
2.72192
2.37911
1.6514
0.648147
0.221668
0.338831
0.447388
0.481388
0.471868
0.461796
0.462896
0.473969
0.495233
0.531394
0.583963
0.683532
2.99991
2.99975
2.99927
2.99849
2.99589
2.99177
2.97795
2.95447
2.88595
2.73826
2.41335
1.71166
0.735295
0.287612
0.382216
0.465793
0.502885
0.502714
0.501737
0.509201
0.528551
0.565167
0.624558
0.72032
0.867328
2.99992
2.99977
2.99933
2.9986
2.99618
2.99237
2.97948
2.95779
2.89365
2.75671
2.45177
1.78081
0.832193
0.368062
0.421373
0.482142
0.523745
0.532541
0.537855
0.552785
0.583952
0.634368
0.70687
0.816483
0.961614
2.99992
2.99979
2.99939
2.99873
2.99652
2.99305
2.98124
2.96163
2.9026
2.77788
2.49711
1.8646
0.94889
0.458505
0.451188
0.503336
0.54476
0.559901
0.571819
0.594488
0.633891
0.691087
0.765501
0.861689
0.973838
2.99993
2.99982
2.99945
2.99887
2.9969
2.99382
2.98326
2.96597
2.91271
2.80316
2.54985
1.96729
1.09438
0.558372
0.480389
0.520634
0.563196
0.586752
0.604936
0.632275
0.674269
0.72936
0.800411
0.882782
0.972085
2.99994
2.99984
2.99953
2.99902
2.99733
2.9947
2.98558
2.9709
2.92497
2.82989
2.61476
2.08155
1.26219
0.663894
0.508922
0.538989
0.582163
0.614345
0.637099
0.665467
0.705765
0.755568
0.818127
0.888441
0.963814
2.99995
2.99987
2.99961
2.99918
2.99775
2.99553
2.98787
2.97561
2.93638
2.86092
2.6744
2.23936
1.48143
0.781486
0.551366
0.572448
0.611841
0.645836
0.669353
0.695508
0.732546
0.776932
0.830097
0.889553
0.953856
2.99996
2.99989
2.99968
2.99932
2.99816
2.99633
2.99005
2.98014
2.94756
2.88937
2.73036
2.39953
1.71389
0.904013
0.606831
0.620836
0.653184
0.684211
0.703671
0.724265
0.755206
0.793575
0.839701
0.889972
0.943687
2.99997
2.99991
2.99974
2.99945
2.99849
2.99701
2.99187
2.98381
2.95709
2.90906
2.78015
2.48994
1.90998
1.00838
0.659107
0.657066
0.689249
0.718749
0.736718
0.752628
0.776387
0.807332
0.845834
0.888626
0.932999
2.99998
2.99993
2.99979
2.99956
2.99879
2.9976
2.99344
2.98701
2.96537
2.92685
2.82208
2.57317
2.09838
1.19512
0.765468
0.687297
0.711006
0.736149
0.758226
0.773674
0.79287
0.817671
0.849224
0.884402
0.919403
2.99998
2.99995
2.99984
2.99965
2.99905
2.99812
2.99484
2.98984
2.97268
2.94319
2.8594
2.66485
2.2797
1.45439
0.906936
0.727993
0.731486
0.750552
0.773978
0.790035
0.805949
0.826494
0.850581
0.87623
0.902404
2.99999
2.99996
2.99988
2.99974
2.99928
2.99856
2.99607
2.99233
2.97913
2.95787
2.89332
2.75873
2.46091
1.83142
1.08577
0.800221
0.770662
0.778594
0.794345
0.807348
0.818639
0.83275
0.848009
0.864566
0.883198
2.99999
2.99997
2.99991
2.9998
2.99945
2.99891
2.99701
2.99421
2.98403
2.96851
2.91741
2.81755
2.58171
2.03583
1.26293
0.864242
0.79703
0.802636
0.81371
0.824371
0.830088
0.834807
0.840987
0.850669
0.863861
3
2.99998
2.99993
2.99985
2.99959
2.99919
2.99777
2.99567
2.98803
2.97648
2.93786
2.86378
2.6816
2.24677
1.5279
0.980137
0.826073
0.818446
0.825357
0.832367
0.832571
0.829853
0.830231
0.835931
0.846173
3
2.99999
2.99995
2.99989
2.9997
2.99941
2.99836
2.99682
2.99119
2.98285
2.95369
2.90425
2.76189
2.47797
1.85035
1.14452
0.872824
0.833127
0.830252
0.829806
0.826105
0.8211
0.8195
0.824197
0.834119
3
2.99999
2.99997
2.99993
2.99979
2.99957
2.99882
2.99771
2.99367
2.98767
2.96655
2.93054
2.8284
2.60031
2.12847
1.33897
0.941318
0.835879
0.818882
0.814321
0.81115
0.808323
0.808869
0.815425
0.826994
3
3
2.99998
2.99994
2.99987
2.99964
2.99929
2.99805
2.99621
2.98955
2.97933
2.94499
2.88141
2.71476
2.3456
1.65974
1.04802
0.836546
0.800421
0.797545
0.79643
0.796836
0.801457
0.811127
0.824994
3.00001
3
2.99999
2.99996
2.99991
2.99974
2.99948
2.99855
2.99722
2.99212
2.98487
2.95808
2.91425
2.78335
2.51694
1.93191
1.16504
0.830123
0.763307
0.764285
0.769327
0.779303
0.79339
0.809177
0.826511
3.00001
3
2.99999
2.99997
2.99994
2.99981
2.99963
2.99895
2.99798
2.99426
2.989
2.96963
2.93696
2.83876
2.61633
2.17469
1.33712
0.866607
0.714495
0.712794
0.729053
0.753218
0.779851
0.803926
0.825907
3.00001
3
3
2.99998
2.99995
2.99986
2.99972
2.99922
2.99849
2.99571
2.99175
2.97713
2.95268
2.87842
2.71813
2.36546
1.69621
0.957748
0.676541
0.667393
0.694209
0.73139
0.768517
0.79903
0.824328
3.00001
3
3
2.99999
2.99996
2.99992
2.99976
2.99952
2.99862
2.99732
2.99236
2.98481
2.95807
2.90714
2.76678
2.45449
1.80496
0.968419
0.606556
0.588797
0.633375
0.687036
0.741184
0.781852
0.812058
3.00001
3.00001
3
2.99999
2.99998
2.99992
2.99984
2.99955
2.99912
2.99753
2.99507
2.98642
2.96981
2.92063
2.80354
2.54524
1.92816
1.09299
0.581807
0.500868
0.551996
0.623441
0.695433
0.746703
0.78208
3.00001
3.00001
3
2.99999
2.99998
2.99993
2.99986
2.9996
2.99924
2.9978
2.99572
2.98828
2.97438
2.93303
2.83284
2.60824
2.03605
1.22535
0.58547
0.406741
0.467473
0.564343
0.651549
0.706719
0.7426
3.00001
3.00001
3
3
2.99998
2.99994
2.99988
2.99964
2.9993
2.99794
2.99612
2.9887
2.97756
2.93946
2.85774
2.6616
2.17563
1.40589
0.605842
0.339086
0.417339
0.534625
0.623451
0.673757
0.705458
3.00001
3.00001
3
3
2.99999
2.99995
2.99989
2.99967
2.99937
2.99813
2.99648
2.9895
2.97996
2.94287
2.87829
2.69449
2.29025
1.53669
0.615672
0.279116
0.381698
0.506593
0.591119
0.636079
0.66401
3.00001
3.00001
3
3
2.99999
2.99996
2.99991
2.99973
2.99946
2.99841
2.99694
2.99108
2.98209
2.95039
2.88663
2.71827
2.33252
1.59409
0.644458
0.261795
0.364216
0.476329
0.556737
0.598707
0.62423
3.00001
3.00001
3
3
2.99999
2.99998
2.99992
2.99983
2.9995
2.99899
2.99704
2.99385
2.98237
2.96031
2.89293
2.7397
2.38877
1.68368
0.758939
0.304806
0.368771
0.454326
0.533157
0.574741
0.597622
3.00001
3.00001
3.00001
3
3
2.99998
2.99995
2.99983
2.99965
2.99899
2.99778
2.99372
2.98532
2.95958
2.89988
2.75067
2.39469
1.70839
0.757829
0.312747
0.345625
0.424613
0.504255
0.54916
0.573187
3.00001
3.00001
3.00001
3
3
2.99998
2.99996
2.99987
2.9997
2.99917
2.99801
2.99459
2.98647
2.96345
2.90631
2.76672
2.42316
1.76439
0.811449
0.343808
0.331703
0.399766
0.478506
0.529132
0.55665
3.00001
3.00001
3.00001
3
3
2.99999
2.99997
2.99991
2.99978
2.99936
2.99849
2.99565
2.98916
2.96922
2.92059
2.78509
2.49811
1.82007
0.926307
0.384941
0.323644
0.376536
0.457551
0.516174
0.54715
3.00001
3.00001
3.00001
3
3
2.99999
2.99997
2.99993
2.99979
2.99949
2.99852
2.99644
2.98937
2.97297
2.92236
2.80719
2.49223
1.90235
0.969365
0.416145
0.296596
0.350103
0.445513
0.515494
0.548301
3.00001
3.00001
3.00001
3.00001
3
2.99999
2.99998
2.99993
2.99984
2.99953
2.99903
2.99672
2.99267
2.97595
2.9409
2.82298
2.58672
1.94391
1.08947
0.447479
0.255793
0.314338
0.434719
0.515488
0.547942
3.00001
3.00001
3.00001
3
3
2.99999
2.99998
2.99993
2.99982
2.9996
2.99884
2.99737
2.99176
2.97935
2.93936
2.84407
2.58979
2.08435
1.2233
0.507812
0.237204
0.313654
0.450533
0.532971
0.560651
3.00001
3.00001
3.00001
3
3
2.99999
2.99997
2.99993
2.99981
2.99954
2.9989
2.99711
2.99309
2.98046
2.95105
2.86225
2.6693
2.16027
1.37469
0.511011
0.18494
0.289645
0.446803
0.530385
0.556978
3.00001
3.00001
3.00001
3
3
2.99999
2.99996
2.99988
2.99977
2.99931
2.99867
2.9961
2.99225
2.97831
2.95161
2.87217
2.68831
2.28737
1.53467
0.589622
0.183087
0.298615
0.44492
0.530824
0.56254
3.00001
3.00001
3.00001
3
3
2.99998
2.99996
2.99987
2.99975
2.99925
2.9986
2.99578
2.99217
2.97683
2.95405
2.87422
2.71514
2.33155
1.59926
0.652314
0.193366
0.30163
0.431554
0.525621
0.565962
3.00001
3.00001
3.00001
3
3
2.99998
2.99996
2.99987
2.99975
2.99926
2.99862
2.99585
2.99234
2.97731
2.95573
2.87761
2.7293
2.35377
1.64245
0.703803
0.208908
0.295612
0.414115
0.514465
0.561149
3.00001
3.00001
3.00001
3
3
2.99998
2.99996
2.99988
2.99976
2.99928
2.99866
2.99598
2.99258
2.97795
2.95706
2.88085
2.73656
2.37052
1.66654
0.736774
0.225774
0.293328
0.402941
0.504849
0.554933
3.00001
3.00001
3.00001
3
3
2.99999
2.99997
2.99989
2.99978
2.99935
2.99877
2.99635
2.99305
2.98
2.95865
2.8869
2.73631
2.37758
1.67275
0.743481
0.241991
0.296334
0.398377
0.497437
0.548052
3.00001
3.00001
3.00001
3
3
2.99999
2.99997
2.99993
2.9998
2.99957
2.99894
2.99747
2.99393
2.98414
2.96077
2.89352
2.74437
2.34689
1.64389
0.672282
0.20166
0.258016
0.363477
0.460877
0.511927
3.00001
3.00001
3.00001
3
3
2.99999
2.99997
2.9999
2.99979
2.99938
2.99882
2.99649
2.99327
2.98059
2.95956
2.88896
2.73943
2.38495
1.6838
0.761172
0.260316
0.301324
0.394756
0.489723
0.539636
1.03582
1.05494
0.774515
0.308027
0.210414
0.250647
0.336975
0.39258
0.42328
0.44551
0.468257
0.491602
0.512794
0.527992
0.534488
0.535397
0.533578
0.531082
0.527358
0.521103
0.511319
0.498083
0.48203
0.463898
0.444083
0.422913
0.400716
0.377578
0.353726
0.329322
0.304585
0.279776
0.254606
0.228751
0.202384
0.175658
0.14935
0.123134
0.0971275
0.0715492
0.0463875
0.0242633
0.0201078
0.0427322
0.0649108
0.0859524
0.108344
0.131286
0.15394
0.175798
0.196692
0.218288
0.240867
0.263032
0.28461
0.305673
0.326455
0.346963
0.367248
0.387181
0.406948
0.426441
0.445717
0.464758
0.483584
0.502248
0.520692
0.538905
0.55703
0.574928
0.59265
0.610384
0.627714
0.645238
0.662312
0.67957
0.696365
0.71338
0.729826
0.746556
0.762672
0.779069
0.794815
0.810917
0.826172
0.841984
0.856731
0.872113
0.88637
0.901072
0.914784
0.928537
0.941438
0.953941
0.965328
0.975963
0.98467
0.992102
0.996292
1.00166
1.06047
1.03654
0.852637
0.565119
0.435811
0.314941
0.20582
0.115777
0.0454914
0.107023
0.160723
0.203871
0.237878
0.257821
0.260931
0.254819
0.248604
0.246259
0.242345
0.235572
0.22494
0.211666
0.196235
0.178937
0.160432
0.140729
0.120158
0.0989508
0.0773869
0.0562224
0.0375004
0.0290451
0.0403611
0.0592422
0.0789076
0.0984624
0.119484
0.141088
0.162505
0.184171
0.205645
0.226993
0.247858
0.26795
0.287495
0.306896
0.32662
0.346289
0.365952
0.384999
0.403428
0.421842
0.441153
0.460618
0.479394
0.497875
0.515904
0.534009
0.551546
0.569333
0.586429
0.603831
0.620552
0.637545
0.653909
0.670593
0.686555
0.703016
0.718605
0.734803
0.750124
0.766088
0.781228
0.797059
0.812031
0.827683
0.842449
0.857805
0.872343
0.887374
0.901629
0.916336
0.930265
0.944673
0.958238
0.972287
0.985521
0.999104
1.01211
1.02501
1.03767
1.04966
1.06162
1.07239
1.08298
1.09189
1.10004
1.10581
1.10962
1.11329
1.04276
1.03996
0.96881
0.859917
0.77847
0.691685
0.604476
0.522175
0.44307
0.362444
0.297237
0.2447
0.203015
0.168011
0.140246
0.121599
0.100082
0.0805634
0.0852776
0.100994
0.112395
0.123008
0.136214
0.150713
0.166263
0.182541
0.199506
0.216918
0.234844
0.253111
0.271645
0.290395
0.308728
0.32663
0.344172
0.361447
0.37906
0.396355
0.413698
0.430904
0.447864
0.464771
0.481186
0.497252
0.512842
0.528398
0.543884
0.55955
0.575094
0.590448
0.604964
0.619553
0.63472
0.650524
0.665861
0.680904
0.695722
0.71046
0.725195
0.739828
0.754496
0.768927
0.783459
0.797706
0.812137
0.826232
0.840509
0.854381
0.868506
0.882252
0.896352
0.910094
0.924122
0.937728
0.951582
0.964972
0.97871
0.9919
1.00554
1.01853
1.03203
1.04482
1.05813
1.07085
1.08401
1.09663
1.10959
1.12187
1.13456
1.14629
1.15853
1.16956
1.18095
1.19098
1.20098
1.2092
1.21688
1.22204
1.22533
1.22848
1.03451
1.06035
1.04746
1.01007
0.969912
0.925218
0.871821
0.810377
0.748175
0.687627
0.634652
0.59099
0.554435
0.524978
0.500803
0.482571
0.471031
0.46256
0.460459
0.461666
0.463786
0.467185
0.4726
0.480314
0.489468
0.49977
0.510485
0.521924
0.534071
0.5469
0.560027
0.573261
0.586167
0.598822
0.610888
0.622942
0.634679
0.646516
0.6582
0.669881
0.681374
0.692834
0.703917
0.714916
0.725612
0.736304
0.747075
0.757951
0.769064
0.779931
0.790448
0.800699
0.811746
0.8233
0.83516
0.846516
0.857953
0.869144
0.880519
0.891759
0.90317
0.914536
0.925996
0.937506
0.948974
0.960592
0.972056
0.983733
0.995211
1.0069
1.01839
1.03008
1.04164
1.05337
1.06505
1.07685
1.0886
1.10046
1.1122
1.12415
1.13598
1.14825
1.16018
1.17248
1.18429
1.19644
1.20815
1.21995
1.23151
1.24279
1.25399
1.26458
1.27497
1.28457
1.29355
1.30147
1.30805
1.31306
1.31529
1.31868
1.02575
1.06617
1.08241
1.07953
1.06658
1.04629
1.01837
0.981848
0.941122
0.901309
0.866511
0.837103
0.813837
0.795072
0.78107
0.770346
0.763615
0.760239
0.760301
0.763477
0.767438
0.770151
0.771798
0.774218
0.777634
0.781518
0.785923
0.790931
0.796377
0.801949
0.807581
0.813176
0.818616
0.823895
0.829025
0.834189
0.839393
0.844858
0.850403
0.856255
0.862146
0.868278
0.874329
0.880545
0.886683
0.893055
0.899561
0.906443
0.913657
0.920988
0.928064
0.935201
0.942834
0.951466
0.960466
0.969637
0.97857
0.987839
0.996931
1.00653
1.01592
1.02585
1.03551
1.04567
1.05552
1.06588
1.07591
1.08645
1.09669
1.10736
1.1178
1.12858
1.13922
1.1501
1.16089
1.17188
1.18276
1.19396
1.20506
1.21651
1.22755
1.23885
1.24973
1.26082
1.27164
1.28246
1.29332
1.3038
1.31469
1.32477
1.33543
1.34496
1.3549
1.3635
1.37205
1.37883
1.3849
1.3885
1.39019
1.39275
1.01297
1.05777
1.08742
1.10183
1.10598
1.10154
1.08942
1.07054
1.04806
1.02555
1.00609
0.991483
0.981438
0.975338
0.97223
0.970969
0.971412
0.972871
0.974169
0.97612
0.979432
0.98188
0.98296
0.982143
0.98165
0.981448
0.981439
0.981463
0.981461
0.981404
0.981418
0.981455
0.981514
0.981653
0.981916
0.982379
0.983163
0.984282
0.985731
0.987572
0.989814
0.992353
0.995222
0.998205
1.0016
1.00506
1.00905
1.01322
1.01811
1.02299
1.02795
1.03283
1.03835
1.04467
1.05176
1.05906
1.06647
1.07403
1.08174
1.08973
1.09788
1.10635
1.11492
1.12382
1.1327
1.14194
1.15111
1.16064
1.17009
1.17985
1.1896
1.19955
1.20954
1.21965
1.22984
1.2402
1.25071
1.26135
1.27191
1.28262
1.2932
1.30399
1.31461
1.32536
1.33601
1.34656
1.35719
1.36735
1.37782
1.38745
1.39747
1.40641
1.41551
1.42345
1.43092
1.43705
1.44173
1.44454
1.44525
1.44817
0.995983
1.04029
1.07336
1.09606
1.10942
1.11513
1.1144
1.10851
1.09943
1.09091
1.08387
1.08088
1.08091
1.08411
1.08871
1.09444
1.09979
1.10505
1.1087
1.11171
1.11419
1.11738
1.11948
1.1197
1.11784
1.11565
1.11345
1.11108
1.10871
1.10617
1.10375
1.1013
1.09897
1.09677
1.09462
1.0928
1.091
1.0897
1.08851
1.08789
1.08748
1.08764
1.0881
1.08898
1.09021
1.09181
1.09389
1.09639
1.09957
1.10303
1.10655
1.11017
1.11431
1.11926
1.125
1.13115
1.13756
1.14419
1.15103
1.15814
1.16551
1.17317
1.18106
1.1892
1.19753
1.20606
1.2148
1.22366
1.2328
1.24192
1.25139
1.26071
1.27045
1.27998
1.29004
1.2998
1.3099
1.31972
1.3298
1.33973
1.34983
1.35982
1.36998
1.37995
1.39017
1.4
1.41022
1.4198
1.42981
1.43901
1.44845
1.45702
1.46547
1.47288
1.47952
1.48475
1.48841
1.48989
1.48992
1.49313
0.976821
1.01593
1.04835
1.07229
1.08981
1.10112
1.10852
1.11222
1.1141
1.11622
1.11978
1.12565
1.13383
1.14357
1.15439
1.16499
1.17515
1.18377
1.19084
1.19589
1.19972
1.20238
1.2051
1.20684
1.20661
1.2044
1.20145
1.19824
1.19463
1.19101
1.18715
1.18332
1.17937
1.17547
1.17159
1.1679
1.16435
1.16124
1.15836
1.15612
1.1542
1.1529
1.15195
1.15155
1.15151
1.15198
1.15288
1.15427
1.1563
1.15881
1.16135
1.16412
1.16732
1.17136
1.17613
1.18151
1.18727
1.19341
1.19977
1.2064
1.21325
1.22038
1.22778
1.23542
1.24336
1.25144
1.25988
1.26832
1.27723
1.28599
1.29529
1.30432
1.31398
1.32332
1.3331
1.34257
1.35242
1.36209
1.37201
1.38184
1.39184
1.40176
1.41184
1.42177
1.43187
1.44169
1.45168
1.46126
1.47092
1.48001
1.48901
1.49725
1.50514
1.51187
1.51771
1.52182
1.52416
1.52463
1.52415
1.52746
0.95485
0.987551
1.01634
1.0399
1.05874
1.07385
1.08579
1.09662
1.10693
1.11764
1.12921
1.14195
1.15588
1.1705
1.18525
1.19952
1.21266
1.2243
1.2339
1.24146
1.24714
1.25128
1.25421
1.25657
1.25823
1.25846
1.25682
1.25396
1.25049
1.24662
1.24245
1.23819
1.23377
1.22926
1.22469
1.22023
1.21588
1.21177
1.20793
1.20455
1.20156
1.19915
1.19723
1.19585
1.19498
1.19456
1.19468
1.19533
1.19655
1.19835
1.20016
1.20231
1.20471
1.20805
1.21191
1.21661
1.22161
1.22722
1.23295
1.23918
1.24549
1.25233
1.25924
1.26668
1.27417
1.28212
1.29016
1.29854
1.30708
1.31583
1.32483
1.33393
1.34324
1.35246
1.36194
1.37132
1.38093
1.39048
1.40019
1.40989
1.41967
1.42948
1.43931
1.44911
1.45899
1.46864
1.47845
1.48784
1.49726
1.50619
1.51473
1.52279
1.52981
1.536
1.54049
1.54343
1.54411
1.54397
1.5428
1.54591
0.929494
0.955979
0.980643
1.00316
1.02316
1.04146
1.05839
1.07468
1.09076
1.10695
1.12374
1.14109
1.1586
1.17614
1.19323
1.20959
1.22473
1.23842
1.25031
1.2602
1.26821
1.27456
1.27948
1.28315
1.28579
1.28772
1.28883
1.2883
1.28614
1.28314
1.27958
1.27561
1.27145
1.267
1.26243
1.25775
1.2532
1.24865
1.24448
1.24046
1.23706
1.23398
1.23157
1.22959
1.22817
1.22723
1.22681
1.22692
1.2277
1.22894
1.23047
1.23215
1.23429
1.23717
1.24075
1.24496
1.24969
1.25493
1.26056
1.26654
1.27285
1.27943
1.28635
1.29349
1.30099
1.30864
1.3167
1.32478
1.33336
1.34184
1.35089
1.35966
1.36897
1.378
1.38749
1.39678
1.40637
1.41591
1.42558
1.43526
1.44503
1.45473
1.46457
1.47423
1.48394
1.49355
1.50287
1.51224
1.52101
1.52965
1.53759
1.54494
1.55125
1.55622
1.55962
1.56079
1.56074
1.56032
1.55814
1.5606
0.903377
0.924761
0.946213
0.967689
0.988744
1.00955
1.0301
1.05048
1.07064
1.0907
1.1105
1.13009
1.14938
1.16832
1.18659
1.2041
1.22048
1.23561
1.24925
1.26122
1.27148
1.2801
1.28729
1.29311
1.29781
1.3013
1.30376
1.30523
1.30598
1.30524
1.30312
1.30011
1.29672
1.29305
1.28894
1.28469
1.28016
1.27587
1.27147
1.26748
1.26376
1.26039
1.25767
1.2552
1.25353
1.25215
1.25154
1.25128
1.25185
1.25296
1.25434
1.25591
1.2578
1.26042
1.26365
1.26754
1.27192
1.2769
1.28228
1.28811
1.29424
1.30067
1.30742
1.31439
1.32175
1.32926
1.33721
1.34519
1.35367
1.36207
1.37088
1.37954
1.38862
1.39753
1.40684
1.41598
1.42544
1.43485
1.44438
1.454
1.46354
1.47327
1.48282
1.49245
1.50197
1.51129
1.52056
1.52932
1.53793
1.54581
1.55327
1.55961
1.56477
1.56841
1.56992
1.57007
1.56959
1.56798
1.5635
1.56466
0.879816
0.898118
0.918055
0.939173
0.960996
0.983166
1.00547
1.02772
1.04974
1.07143
1.09264
1.11337
1.13345
1.15297
1.17171
1.18973
1.20679
1.22293
1.23782
1.25157
1.26376
1.27457
1.28392
1.292
1.29877
1.30444
1.30896
1.31246
1.31478
1.31611
1.31672
1.31603
1.31407
1.31138
1.3086
1.30517
1.30127
1.29742
1.29332
1.28972
1.28592
1.28282
1.2798
1.27738
1.27545
1.27395
1.27314
1.27269
1.27307
1.27402
1.27531
1.27673
1.27847
1.28083
1.28382
1.28743
1.29151
1.29622
1.30135
1.30698
1.31291
1.31921
1.32581
1.33267
1.3399
1.34726
1.35512
1.36298
1.37137
1.37961
1.3883
1.39694
1.40582
1.41482
1.42386
1.43308
1.44231
1.45166
1.46109
1.47048
1.48004
1.48942
1.49895
1.5083
1.5176
1.52679
1.53559
1.54424
1.55218
1.5598
1.56629
1.57182
1.57571
1.57775
1.5781
1.57782
1.57645
1.57301
1.56611
1.56466
0.860308
0.877567
0.897042
0.918103
0.940188
0.962802
0.985553
1.00816
1.03038
1.05217
1.07339
1.09411
1.11422
1.13382
1.15277
1.17112
1.18873
1.20557
1.22151
1.23646
1.25032
1.26294
1.27434
1.28452
1.29347
1.3013
1.30795
1.3135
1.31792
1.32125
1.3234
1.32475
1.32534
1.3249
1.32354
1.32168
1.31903
1.31596
1.31263
1.30954
1.30621
1.30345
1.30052
1.29832
1.29618
1.29476
1.29367
1.29318
1.29332
1.29416
1.29544
1.29682
1.2985
1.30065
1.30348
1.30685
1.31077
1.3152
1.32017
1.32557
1.33144
1.33763
1.34418
1.351
1.35813
1.36553
1.3732
1.38109
1.38916
1.39738
1.40579
1.41427
1.42298
1.4317
1.44063
1.4496
1.45866
1.46782
1.47695
1.48624
1.49539
1.50469
1.51376
1.52289
1.53176
1.54042
1.5488
1.55658
1.56401
1.5704
1.57589
1.57976
1.58189
1.58232
1.58207
1.58073
1.57745
1.57135
1.56254
1.56031
0.84812
0.865164
0.884495
0.90518
0.926725
0.948571
0.970445
0.99212
1.01344
1.03437
1.0548
1.07485
1.09441
1.11363
1.13236
1.15073
1.16857
1.18589
1.20258
1.21852
1.23371
1.24786
1.261
1.27301
1.28397
1.29376
1.30255
1.31017
1.31681
1.32231
1.32675
1.3301
1.33238
1.3338
1.33462
1.33472
1.33389
1.33246
1.33028
1.32801
1.32541
1.3231
1.32057
1.31857
1.31653
1.31516
1.31395
1.31345
1.31336
1.31408
1.31529
1.31675
1.31838
1.32047
1.32313
1.32646
1.33019
1.33454
1.33926
1.34454
1.3502
1.35626
1.36272
1.36935
1.37643
1.38359
1.39119
1.39884
1.40674
1.41483
1.42298
1.43142
1.43983
1.44845
1.45714
1.46586
1.47478
1.48357
1.49263
1.50149
1.51052
1.51938
1.52821
1.53688
1.54527
1.55343
1.56096
1.56819
1.57444
1.57988
1.58372
1.58598
1.58649
1.58627
1.58508
1.58171
1.57583
1.568
1.55924
1.55736
0.842456
0.860102
0.879352
0.899418
0.919922
0.940484
0.960902
0.981051
1.00089
1.02044
1.03969
1.0587
1.07746
1.09603
1.11439
1.1325
1.15039
1.16788
1.18504
1.20161
1.21773
1.23302
1.24755
1.26108
1.27369
1.28526
1.29581
1.30532
1.31382
1.32123
1.32775
1.33314
1.33767
1.34113
1.34378
1.34548
1.34689
1.34757
1.34737
1.34644
1.34502
1.34352
1.34172
1.34018
1.33856
1.33744
1.33643
1.33601
1.33592
1.33652
1.3377
1.33923
1.34088
1.34283
1.34535
1.34842
1.35207
1.35611
1.36069
1.36569
1.37111
1.37701
1.38315
1.38975
1.39651
1.40364
1.41096
1.41841
1.42614
1.4339
1.44195
1.45003
1.45828
1.46666
1.47501
1.48361
1.49204
1.50073
1.50924
1.51791
1.52645
1.53494
1.54333
1.55139
1.55929
1.56654
1.57346
1.57951
1.58474
1.58847
1.59061
1.59108
1.59081
1.58953
1.5864
1.58014
1.57216
1.56469
1.55727
1.55637
0.841629
0.859855
0.878646
0.897723
0.916686
0.935607
0.954204
0.972711
0.990926
1.0091
1.02711
1.04515
1.06313
1.08114
1.09912
1.11703
1.13486
1.15248
1.16988
1.18693
1.20358
1.21974
1.23521
1.24997
1.26383
1.27691
1.28895
1.30028
1.31046
1.32003
1.32838
1.33607
1.3426
1.34841
1.3531
1.35705
1.36003
1.36236
1.36415
1.3654
1.36577
1.36539
1.3646
1.36374
1.36264
1.36185
1.36101
1.36064
1.36042
1.36085
1.36176
1.36318
1.36468
1.36652
1.36861
1.37146
1.37475
1.3786
1.3829
1.38761
1.39284
1.39838
1.40444
1.41075
1.41742
1.42429
1.4313
1.43857
1.44592
1.45354
1.46124
1.46912
1.47714
1.48518
1.49344
1.50159
1.50997
1.51818
1.52653
1.53472
1.54288
1.55094
1.55867
1.56629
1.57322
1.57982
1.58561
1.5906
1.59417
1.59613
1.59652
1.59616
1.59481
1.59128
1.58544
1.57717
1.56921
1.5632
1.55752
1.55792
0.844878
0.863493
0.881787
0.899661
0.91707
0.934204
0.951092
0.967896
0.984644
1.00152
1.01845
1.0356
1.05283
1.07029
1.08779
1.10541
1.12299
1.14053
1.15793
1.17515
1.1921
1.20873
1.22489
1.24049
1.25545
1.26971
1.28323
1.29598
1.30788
1.31905
1.32924
1.33868
1.34716
1.35485
1.36154
1.36746
1.37234
1.3765
1.37994
1.38274
1.38469
1.38619
1.38686
1.38689
1.38656
1.38613
1.38551
1.38518
1.38491
1.38518
1.3858
1.38693
1.38845
1.38997
1.39192
1.39426
1.3973
1.40083
1.40485
1.40935
1.41425
1.41961
1.4254
1.43151
1.43801
1.44461
1.45149
1.45846
1.46565
1.47298
1.48047
1.48814
1.49587
1.50378
1.51167
1.51973
1.52771
1.53576
1.54373
1.55156
1.55933
1.56672
1.574
1.5806
1.58682
1.59228
1.59693
1.60029
1.60201
1.60227
1.60177
1.60027
1.59656
1.59037
1.58199
1.57425
1.56727
1.56339
1.55949
1.56085
0.846552
0.86591
0.883973
0.90106
0.917373
0.933304
0.948958
0.964714
0.980486
0.996562
1.01282
1.02942
1.04624
1.06333
1.08057
1.09794
1.11536
1.1328
1.15017
1.16743
1.18451
1.20139
1.21795
1.2341
1.24977
1.26488
1.27938
1.29323
1.30638
1.31883
1.3305
1.34154
1.35164
1.36106
1.36957
1.3773
1.38409
1.39001
1.39504
1.39957
1.40319
1.40586
1.40773
1.40926
1.41007
1.41028
1.41015
1.40994
1.40968
1.40974
1.41008
1.41088
1.41208
1.41354
1.41509
1.41706
1.41958
1.42273
1.42636
1.43054
1.4351
1.44021
1.44567
1.45164
1.45782
1.46425
1.4709
1.4777
1.48475
1.4919
1.49927
1.50671
1.51433
1.52199
1.52975
1.53753
1.54528
1.55304
1.5606
1.56815
1.57528
1.58226
1.58859
1.59441
1.59955
1.60378
1.60689
1.60822
1.60831
1.60763
1.60579
1.60202
1.59505
1.58704
1.57855
1.57229
1.56726
1.56526
1.56298
1.56512
0.846336
0.865903
0.883595
0.900107
0.915818
0.931224
0.946493
0.961841
0.977374
0.993144
1.0092
1.0255
1.04208
1.05887
1.07588
1.09302
1.11025
1.12754
1.1448
1.16202
1.17915
1.19611
1.21288
1.22932
1.24543
1.26109
1.27629
1.29097
1.30509
1.31862
1.3315
1.34373
1.3552
1.36601
1.37601
1.38525
1.39369
1.40123
1.40785
1.41367
1.41886
1.42314
1.42636
1.42875
1.43045
1.43176
1.43251
1.43278
1.43275
1.43277
1.4329
1.43338
1.43428
1.43551
1.43686
1.4384
1.44045
1.44309
1.4464
1.45012
1.45441
1.45915
1.46434
1.47002
1.47589
1.48216
1.4885
1.4952
1.50197
1.50902
1.51619
1.52347
1.53093
1.53837
1.54595
1.55345
1.56098
1.56834
1.5756
1.58257
1.58924
1.59544
1.60096
1.60588
1.60989
1.61281
1.61396
1.61392
1.61309
1.61123
1.60675
1.60026
1.59126
1.58336
1.57631
1.57195
1.56903
1.56843
1.56757
1.57051
0.836152
0.856661
0.875002
0.892131
0.90857
0.92461
0.9406
0.956596
0.972742
0.988969
1.00539
1.0219
1.03862
1.05541
1.07237
1.0894
1.10654
1.12368
1.14088
1.158
1.17513
1.19209
1.20898
1.22557
1.24196
1.25796
1.27363
1.28887
1.30363
1.31792
1.33164
1.34485
1.35745
1.36949
1.38082
1.39142
1.40126
1.41017
1.41826
1.42534
1.4317
1.43748
1.44223
1.44594
1.44881
1.45095
1.45244
1.4535
1.45425
1.45459
1.45474
1.45501
1.45555
1.45645
1.45757
1.45886
1.46039
1.46263
1.46548
1.46891
1.47289
1.47724
1.48229
1.4875
1.49332
1.49918
1.50554
1.51199
1.51877
1.52571
1.53276
1.54002
1.54722
1.5546
1.56189
1.56914
1.57636
1.58327
1.59014
1.59641
1.6025
1.60762
1.61229
1.61588
1.61859
1.61931
1.61909
1.61812
1.61592
1.61144
1.60398
1.59546
1.58696
1.58027
1.57535
1.57293
1.57185
1.57229
1.57264
1.57596
0.809271
0.832411
0.853412
0.873096
0.892062
0.910421
0.92834
0.945889
0.963294
0.980565
0.997817
1.015
1.03221
1.04939
1.06664
1.08387
1.10117
1.11843
1.13572
1.15295
1.17014
1.18725
1.20425
1.22107
1.23766
1.25396
1.26995
1.28559
1.30083
1.31568
1.33005
1.34398
1.35737
1.37021
1.38247
1.39407
1.40501
1.41521
1.42466
1.43318
1.44074
1.44754
1.45369
1.45879
1.4628
1.46595
1.46837
1.4701
1.47128
1.47197
1.47253
1.47282
1.47306
1.47355
1.47432
1.47519
1.47636
1.47798
1.48027
1.48338
1.48684
1.49107
1.49555
1.50078
1.50615
1.51212
1.51824
1.5248
1.53157
1.53855
1.54581
1.55303
1.5605
1.56786
1.5752
1.58256
1.58946
1.59647
1.6027
1.60878
1.6139
1.61838
1.62189
1.62441
1.625
1.62463
1.62349
1.62116
1.61596
1.60819
1.59936
1.59101
1.58405
1.57914
1.57653
1.57546
1.57615
1.57707
1.57794
1.58145
0.770738
0.795992
0.820091
0.843286
0.865442
0.886741
0.907537
0.927657
0.947193
0.966253
0.98494
1.00331
1.02144
1.03937
1.05718
1.07487
1.0925
1.11004
1.12754
1.14494
1.16229
1.17952
1.19665
1.21364
1.23037
1.24685
1.26304
1.27896
1.29453
1.30978
1.32462
1.33906
1.35305
1.36656
1.37955
1.39198
1.40375
1.41489
1.42521
1.4348
1.44351
1.45128
1.45843
1.46488
1.47029
1.47467
1.47807
1.4806
1.48235
1.48346
1.4841
1.48441
1.48457
1.48479
1.48515
1.48567
1.48643
1.48757
1.48935
1.49183
1.49494
1.4986
1.50283
1.50757
1.51283
1.51849
1.52462
1.53105
1.53786
1.5449
1.55218
1.55965
1.56717
1.57477
1.58226
1.58966
1.59676
1.60353
1.60978
1.61528
1.61998
1.62363
1.62641
1.62731
1.62722
1.6264
1.62399
1.61864
1.6106
1.60212
1.59396
1.58732
1.58234
1.57992
1.57884
1.57966
1.5808
1.58239
1.58392
1.58753
0.731908
0.757345
0.782577
0.807311
0.831393
0.854603
0.876997
0.898828
0.920175
0.941047
0.961399
0.981359
1.00093
1.02015
1.0391
1.05774
1.07616
1.09435
1.11236
1.13023
1.14793
1.16555
1.18298
1.20032
1.21741
1.23424
1.25078
1.26703
1.28297
1.29858
1.31383
1.32872
1.34321
1.35725
1.37088
1.38393
1.39651
1.40841
1.4197
1.43025
1.44003
1.44892
1.45694
1.4642
1.47068
1.47601
1.48036
1.48373
1.48624
1.48795
1.48905
1.48962
1.48991
1.49006
1.4902
1.49053
1.49106
1.4919
1.49326
1.49517
1.49781
1.50103
1.50487
1.50929
1.51424
1.51975
1.52569
1.53209
1.5388
1.54585
1.55311
1.56059
1.56812
1.5757
1.58321
1.5905
1.59753
1.60402
1.60992
1.61483
1.61886
1.62167
1.62315
1.62341
1.62281
1.62026
1.61488
1.60729
1.59913
1.59148
1.58516
1.58046
1.57813
1.57718
1.57809
1.57941
1.58108
1.58363
1.58587
1.5896
0.688658
0.71366
0.739217
0.764803
0.790069
0.814796
0.838804
0.862196
0.884918
0.907055
0.928643
0.949717
0.970342
0.990472
1.01029
1.02975
1.04902
1.06801
1.08681
1.1054
1.12379
1.14204
1.16011
1.17801
1.19575
1.21315
1.23025
1.24704
1.2635
1.27969
1.29543
1.31093
1.32593
1.34059
1.3548
1.36848
1.38173
1.39433
1.40638
1.41775
1.42835
1.43821
1.44714
1.45525
1.46264
1.46917
1.47454
1.47895
1.4824
1.48494
1.48673
1.48789
1.48858
1.48896
1.48924
1.48954
1.49002
1.49072
1.49186
1.4934
1.49562
1.49839
1.50184
1.50586