/*--------------------------------*- C++ -*----------------------------------*\
  =========                 |
  \\      /  F ield         | OpenFOAM: The Open Source CFD Toolbox
   \\    /   O peration     | Website:  https://openfoam.org
    \\  /    A nd           | Version:  6
     \\/     M anipulation  |
\*---------------------------------------------------------------------------*/
FoamFile
{
    version     2.0;
    format      ascii;
    class       volScalarField;
    location    "7.5";
    object      p;
}
// * * * * * * * * * * * * * * * * * * * * * * * * * * * * * * * * * * * * * //

dimensions      [1 -1 -2 0 0 0 0];

internalField   nonuniform List<scalar> 
5250
(
1.00005
1.00028
1.00074
1.00193
1.00417
1.01072
1.0221
1.06031
1.1174
1.35544
1.76047
3.24711
7.18675
15.6314
14.1598
12.2813
11.5979
11.6592
11.8931
12.1772
12.3282
12.4155
12.488
12.5466
12.5842
1.00005
1.00028
1.00073
1.00193
1.00416
1.01068
1.02202
1.06009
1.11697
1.35406
1.75756
3.2381
7.16097
15.581
14.1129
12.2425
11.5774
11.6461
11.8883
12.1676
12.3148
12.4031
12.4779
12.5378
12.5774
1.00005
1.00028
1.00073
1.00191
1.00412
1.01059
1.02185
1.05959
1.11608
1.351
1.75103
3.21732
7.0998
15.4674
14.0207
12.1641
11.527
11.6052
11.8573
12.1264
12.2663
12.355
12.4326
12.4937
12.5359
1.00005
1.00028
1.00072
1.00189
1.00407
1.01046
1.02157
1.0588
1.11466
1.34605
1.74044
3.18337
6.99986
15.2911
13.8928
12.0578
11.4488
11.5341
11.7916
12.0462
12.1767
12.2636
12.3418
12.4025
12.4455
1.00005
1.00027
1.0007
1.00185
1.004
1.01027
1.02119
1.0577
1.11268
1.33918
1.72566
3.13606
6.86177
15.0515
13.7271
11.9262
11.3463
11.4362
11.6943
11.9332
12.0529
12.1353
12.2112
12.2691
12.3116
1.00005
1.00027
1.00069
1.00181
1.00391
1.01003
1.02069
1.05629
1.11014
1.33038
1.7067
3.07568
6.68715
14.7451
13.518
11.7725
11.2213
11.312
11.5641
11.7832
11.8897
11.9648
12.0352
12.0888
12.1318
1.00005
1.00026
1.00067
1.00176
1.00379
1.00973
1.02009
1.05458
1.10703
1.31966
1.68353
3.00242
6.47713
14.3676
13.2662
11.5956
11.0763
11.164
11.4013
11.5947
11.6813
11.7412
11.7979
11.8407
11.8826
1.00004
1.00025
1.00064
1.00169
1.00366
1.00939
1.01939
1.05255
1.10344
1.30694
1.65647
2.9171
6.22904
13.9142
12.9724
11.396
10.914
10.9941
11.2055
11.3645
11.4234
11.4564
11.483
11.4952
11.5231
1.00004
1.00024
1.00062
1.00162
1.00351
1.00899
1.01857
1.05027
1.09871
1.29435
1.6189
2.84269
5.9244
13.3808
12.629
11.1901
10.7409
10.8059
10.9765
11.0896
11.1086
11.098
11.0623
10.9951
10.9607
1.00004
1.00023
1.00059
1.00154
1.00333
1.00853
1.01764
1.0477
1.09319
1.28046
1.57574
2.76262
5.58032
12.7589
12.2056
11.0233
10.5655
10.6029
10.7135
10.769
10.7462
10.6651
10.4975
10.2417
9.92635
1.00004
1.00021
1.00055
1.00145
1.00313
1.00802
1.01659
1.04481
1.08732
1.26386
1.53321
2.65934
5.22323
12.0472
11.7217
10.8766
10.3906
10.3861
10.4239
10.4184
10.3461
10.1504
9.76787
9.09092
7.5298
1.00004
1.0002
1.00051
1.00134
1.00291
1.00744
1.0154
1.04155
1.08099
1.2446
1.49018
2.53507
4.85215
11.2507
11.2037
10.7555
10.2359
10.1394
10.1341
10.0844
9.9273
9.59081
9.02986
8.17927
6.67989
1.00003
1.00018
1.00047
1.00122
1.00265
1.00678
1.01404
1.03783
1.07354
1.22298
1.43934
2.3969
4.42888
10.3078
10.871
10.5809
10.0853
9.92135
9.86741
9.75279
9.51323
9.09797
8.50268
7.71267
6.68549
1.00003
1.00016
1.00041
1.00109
1.00236
1.00603
1.0125
1.03354
1.06558
1.19747
1.38301
2.23835
3.95527
9.20116
10.6413
10.4311
9.97372
9.72675
9.61012
9.44372
9.16053
8.74459
8.19831
7.52941
6.7416
1.00002
1.00014
1.00036
1.00094
1.00203
1.00518
1.01076
1.02877
1.05574
1.17112
1.31377
2.07464
3.44553
7.93031
10.5176
10.3407
9.88772
9.54129
9.36499
9.17414
8.88939
8.50116
8.02413
7.46772
6.85542
1.00002
1.00012
1.0003
1.00079
1.00172
1.00437
1.00907
1.024
1.04775
1.13905
1.26467
1.85647
2.93973
6.4768
10.4701
10.2972
9.81574
9.37053
9.1452
8.94888
8.68248
8.33442
7.91775
7.44868
6.94086
1.00002
1.0001
1.00025
1.00065
1.00142
1.00358
1.00748
1.0195
1.03955
1.10981
1.21915
1.6555
2.4815
5.12
10.2279
10.1563
9.7479
9.22447
8.95626
8.76196
8.52251
8.2145
7.85279
7.45463
7.02358
1.00001
1.00008
1.0002
1.00053
1.00116
1.00293
1.0061
1.01592
1.03213
1.09025
1.17429
1.53893
2.1982
4.45061
9.44627
9.81323
9.58417
9.1041
8.80347
8.61173
8.40227
8.13615
7.82823
7.47851
7.11774
1.00001
1.00006
1.00016
1.00043
1.00093
1.00235
1.0049
1.01279
1.02568
1.07323
1.13452
1.44503
1.91023
3.80292
7.92122
9.43544
9.3297
9.03313
8.70984
8.50902
8.32368
8.10104
7.83681
7.53491
7.24173
1.00001
1.00005
1.00013
1.00034
1.00073
1.00185
1.00386
1.01002
1.02016
1.05693
1.10453
1.34301
1.68253
3.11309
6.25553
9.26874
9.24186
9.04385
8.7041
8.47533
8.30145
8.10908
7.8769
7.64446
7.41274
1.00001
1.00004
1.0001
1.00026
1.00056
1.00141
1.00295
1.00758
1.01538
1.04193
1.08014
1.24389
1.48424
2.45365
4.4678
8.9007
9.22398
9.07123
8.73731
8.48688
8.31556
8.14825
7.97239
7.80723
7.63238
1.00001
1.00003
1.00008
1.0002
1.00043
1.00107
1.00224
1.00573
1.01168
1.03151
1.06042
1.18602
1.34023
2.15302
3.58995
7.82714
9.12098
9.04101
8.8079
8.53218
8.36901
8.24698
8.14745
8.03163
7.89447
1
1.00002
1.00006
1.00015
1.00032
1.0008
1.00168
1.00429
1.00874
1.02351
1.04517
1.1383
1.2486
1.84978
2.85162
6.04933
8.89839
9.00993
8.89276
8.64668
8.50046
8.44424
8.38731
8.29865
8.17631
1
1.00002
1.00004
1.00011
1.00024
1.00059
1.00124
1.00315
1.00644
1.01709
1.03387
1.0957
1.18855
1.56218
2.23766
4.33793
8.3672
9.06114
9.01233
8.88057
8.76658
8.72342
8.67624
8.58625
8.45485
1
1.00001
1.00003
1.00008
1.00017
1.00043
1.00089
1.00227
1.00465
1.01231
1.02431
1.0699
1.12944
1.41512
1.87973
3.53389
7.15726
9.05511
9.23943
9.19754
9.10695
9.04373
8.97574
8.86448
8.70904
1
1.00001
1.00002
1.00005
1.00013
1.00028
1.00071
1.00147
1.00378
1.00765
1.02072
1.04015
1.12032
1.22192
1.73092
2.59397
5.29343
8.9712
9.63395
9.59498
9.49853
9.39142
9.27505
9.12197
8.93278
1
1.00001
1.00002
1.00004
1.0001
1.00021
1.00052
1.00108
1.0028
1.00568
1.01528
1.03003
1.08698
1.16609
1.52028
2.12419
4.17343
8.42607
9.93367
9.95672
9.89764
9.76142
9.56434
9.35199
9.12587
1
1
1.00001
1.00003
1.00007
1.00015
1.00038
1.00079
1.00204
1.00414
1.01119
1.02155
1.06555
1.11368
1.40539
1.79297
3.50588
7.17137
10.2181
10.432
10.3361
10.1108
9.81267
9.53897
9.28322
1
1
1.00001
1.00002
1.00005
1.00011
1.00028
1.00059
1.00152
1.00309
1.00835
1.01618
1.04845
1.08559
1.29245
1.57289
2.75944
5.21429
10.5306
11.0336
10.8616
10.4757
10.0462
9.70023
9.41565
1
1
1.00001
1.00002
1.00004
1.00009
1.00019
1.0005
1.00103
1.00275
1.00551
1.01566
1.02939
1.09528
1.16997
1.59499
2.29762
4.80198
10.1784
11.2885
11.1386
10.7494
10.2247
9.82031
9.52197
1
1
1.00001
1.00001
1.00003
1.00006
1.00016
1.00034
1.00091
1.00182
1.00516
1.00947
1.03172
1.05123
1.20624
1.34043
2.34633
4.05454
9.47303
11.4966
11.3647
10.9581
10.3334
9.88689
9.59872
1
1
1
1.00001
1.00003
1.00006
1.00014
1.0003
1.00078
1.00157
1.00437
1.00808
1.02682
1.04274
1.17652
1.27956
2.17877
3.56633
8.52973
11.8961
11.6966
11.0942
10.3471
9.89727
9.64787
1
1
1
1.00001
1.00002
1.00005
1.00013
1.00027
1.00071
1.00145
1.00395
1.00771
1.02311
1.03983
1.14966
1.24217
1.98331
3.13176
7.40646
12.4912
12.1206
11.1728
10.3322
9.8978
9.68718
1
1
1
1.00001
1.00002
1.00004
1.00012
1.00024
1.00064
1.00132
1.00359
1.00715
1.02056
1.03881
1.12627
1.22473
1.81429
2.78252
6.31011
12.7922
12.3092
11.1716
10.319
9.90617
9.71724
1
1
1
1.00001
1.00002
1.00004
1.0001
1.00021
1.00055
1.00113
1.00312
1.00614
1.01845
1.03281
1.1173
1.19805
1.75308
2.62822
5.93379
12.5468
12.1853
11.1839
10.3437
9.92975
9.73867
1
1
1
1.00001
1.00001
1.00003
1.00007
1.00018
1.00038
1.00107
1.00214
1.0065
1.0118
1.04143
1.06814
1.27097
1.48775
2.77996
5.29098
12.1067
11.9413
11.2784
10.4205
9.96424
9.752
1
1
1
1
1.00001
1.00002
1.00006
1.00013
1.00038
1.00074
1.00235
1.00414
1.01543
1.02449
1.10366
1.16532
1.66633
2.41568
5.31437
11.5585
11.6706
11.2527
10.4557
9.98151
9.75155
1
1
1
1
1.00001
1.00002
1.00005
1.00011
1.00032
1.00058
1.00209
1.0034
1.01411
1.02129
1.09713
1.14989
1.63122
2.31782
5.08542
11.0976
11.5778
11.215
10.4811
9.98911
9.74362
1
1
1
1
1.00001
1.00002
1.00003
1.0001
1.00018
1.00065
1.00106
1.00443
1.00669
1.03166
1.04613
1.22307
1.36582
2.51764
4.52962
10.6939
11.6137
11.2629
10.533
9.99394
9.72926
1
1
1
1
1.00001
1.00001
1.00004
1.00006
1.00022
1.00037
1.00148
1.00229
1.01067
1.01561
1.07902
1.11896
1.54295
2.12167
4.53646
10.1306
11.6927
11.3517
10.5823
9.97521
9.69539
1
1
1
1
1
1.00001
1.00002
1.00007
1.00013
1.00045
1.00072
1.00314
1.00466
1.02387
1.03412
1.18171
1.28474
2.30251
3.95763
9.56912
11.9471
11.5462
10.6383
9.9407
9.65564
1
1
1
1
1.00001
1.00001
1.00003
1.00006
1.00018
1.0003
1.00113
1.00173
1.00816
1.01188
1.06257
1.09368
1.43189
1.89215
3.82237
8.63676
12.4207
11.9103
10.7506
9.94788
9.65433
1
1
1
1
1.00001
1.00001
1.00003
1.00008
1.00015
1.00047
1.00076
1.00289
1.0043
1.01972
1.02774
1.1423
1.21312
2.0029
3.15377
7.66676
13.0635
12.3598
10.8936
10.0094
9.69243
1
1
1
1
1.00001
1.00002
1.00004
1.00009
1.00024
1.00048
1.00133
1.00263
1.00785
1.01408
1.05002
1.0809
1.3243
1.62703
3.06137
6.31126
13.4112
12.6813
11.1586
10.1798
9.78107
1
1
1
1
1.00001
1.00002
1.00005
1.0001
1.00025
1.00052
1.00141
1.00283
1.00798
1.01523
1.04749
1.08334
1.29851
1.56902
2.94254
5.82356
13.1959
12.6788
11.4332
10.3903
9.89263
1
1
1
1
1.00001
1.00002
1.00005
1.0001
1.00025
1.00052
1.00139
1.0028
1.00781
1.01499
1.04571
1.08162
1.28442
1.53579
2.86865
5.52493
12.8344
12.5537
11.6345
10.5707
10.0087
1
1
1
1
1.00001
1.00002
1.00004
1.00009
1.00024
1.0005
1.00135
1.00271
1.00755
1.01451
1.04427
1.07896
1.2766
1.51268
2.82217
5.35065
12.5408
12.3982
11.7069
10.6827
10.1066
1
1
1
1
1.00001
1.00002
1.00004
1.00009
1.00022
1.00046
1.00124
1.00247
1.00704
1.01318
1.04274
1.07195
1.27552
1.49185
2.80698
5.29422
12.3062
12.2355
11.6844
10.733
10.1795
1
1
1
1
1.00001
1.00001
1.00003
1.00008
1.00016
1.00044
1.00075
1.00258
1.00388
1.01621
1.02262
1.10938
1.15891
1.72217
2.49646
5.61278
12.1738
12.1259
11.5735
10.7254
10.2122
1
1
1
1
1.00001
1.00002
1.00004
1.00008
1.00021
1.00044
1.00118
1.00237
1.00679
1.01271
1.04172
1.06997
1.27153
1.4827
2.78284
5.22274
12.1204
12.1139
11.6331
10.7525
10.2291
4.16126
3.15091
3.38809
4.15248
4.20961
4.05868
3.9279
3.84324
3.79541
3.74379
3.6868
3.62864
3.57502
3.54425
3.53113
3.52724
3.52693
3.53029
3.53777
3.55404
3.58241
3.62185
3.66962
3.72377
3.78299
3.84626
3.91269
3.98154
4.05196
4.12318
4.19429
4.26467
4.33476
4.40488
4.47362
4.53974
4.60169
4.6591
4.71213
4.76054
4.80419
4.84282
4.87787
4.91033
4.93987
4.96426
4.98199
4.99361
5.00003
5.00156
4.99996
4.99444
4.98277
4.96622
4.94627
4.92308
4.89644
4.86629
4.83284
4.79622
4.75661
4.71416
4.66912
4.62159
4.57186
4.52005
4.46647
4.41127
4.35475
4.29709
4.23858
4.17935
4.11972
4.05974
3.9997
3.93966
3.87984
3.8203
3.76117
3.70249
3.64432
3.5867
3.52962
3.47311
3.41719
3.36192
3.3073
3.25345
3.20045
3.14851
3.09777
3.04854
3.00119
2.9562
2.91421
2.87606
2.84282
2.81597
2.79637
2.7888
4.69675
3.83064
3.94271
4.25565
4.17959
4.04495
3.95024
3.88658
3.82096
3.75313
3.68221
3.61499
3.55809
3.52741
3.51712
3.51679
3.52409
3.53095
3.5378
3.55201
3.57902
3.61811
3.66543
3.71888
3.77729
3.8398
3.90557
3.97379
4.04348
4.11382
4.18402
4.25334
4.32274
4.39348
4.46286
4.52964
4.59193
4.64984
4.7034
4.75219
4.79639
4.83586
4.8714
4.90371
4.93265
4.95679
4.97478
4.98678
4.99339
4.99491
4.9937
4.98905
4.9782
4.96056
4.94025
4.91711
4.89066
4.86072
4.8275
4.79106
4.7517
4.7095
4.66475
4.61753
4.56812
4.51665
4.4634
4.40853
4.3523
4.29491
4.23661
4.17757
4.11804
4.05817
3.99816
3.93817
3.87834
3.81881
3.75967
3.70099
3.64282
3.58522
3.52815
3.47167
3.41577
3.36056
3.30599
3.25219
3.19927
3.14739
3.09678
3.04766
3.00049
2.95561
2.9138
2.87579
2.84279
2.81623
2.79691
2.79084
5.55352
4.84504
4.64935
4.52702
4.28258
4.09082
3.95444
3.85415
3.77998
3.73107
3.67457
3.6164
3.56759
3.5383
3.52675
3.52688
3.52944
3.52996
3.53241
3.5439
3.57143
3.61181
3.65915
3.7124
3.77081
3.83349
3.89956
3.96817
4.03828
4.10918
4.1802
4.25109
4.32156
4.39194
4.46086
4.5271
4.58911
4.64669
4.69984
4.74832
4.79223
4.83138
4.86654
4.8981
4.92606
4.94943
4.96721
4.9792
4.98568
4.98673
4.98567
4.98167
4.97199
4.95351
4.93222
4.90869
4.88227
4.85253
4.81956
4.78343
4.74436
4.7025
4.65813
4.61136
4.56242
4.51145
4.4587
4.40431
4.34855
4.29156
4.23362
4.17485
4.11552
4.05577
3.99585
3.93587
3.87606
3.81649
3.75735
3.69862
3.64045
3.58282
3.52576
3.46927
3.41343
3.35825
3.30383
3.25019
3.1975
3.14577
3.09541
3.04651
2.99964
2.95509
2.91371
2.8762
2.84386
2.81823
2.79982
2.79644
5.97087
5.35319
4.99064
4.74357
4.4911
4.23802
4.05182
3.93256
3.84976
3.78798
3.72361
3.65969
3.60594
3.5681
3.54674
3.53668
3.53438
3.53591
3.5417
3.55538
3.5816
3.61845
3.66441
3.71663
3.77388
3.83542
3.90047
3.96815
4.03757
4.10786
4.17826
4.24801
4.31735
4.38606
4.45348
4.5184
4.57968
4.63669
4.6893
4.73733
4.78086
4.81995
4.85496
4.88595
4.9131
4.93577
4.95331
4.96525
4.97167
4.97227
4.97135
4.96794
4.95956
4.94224
4.91982
4.89539
4.86877
4.83926
4.80662
4.77087
4.73228
4.69098
4.64718
4.60107
4.55279
4.50255
4.45049
4.39682
4.34171
4.28535
4.22791
4.16961
4.11062
4.05117
3.99146
3.93167
3.87197
3.81253
3.75346
3.69483
3.63667
3.57913
3.52222
3.46599
3.41034
3.35535
3.30109
3.24762
3.19514
3.14368
3.09365
3.04513
2.99877
2.95483
2.91418
2.8776
2.84646
2.82234
2.80595
2.80517
6.23119
5.67793
5.2629
4.95987
4.70482
4.47191
4.27274
4.12957
4.03146
3.95231
3.87781
3.80584
3.74134
3.68834
3.64969
3.62423
3.60946
3.60217
3.60155
3.6046
3.61545
3.64057
3.68286
3.73264
3.78709
3.84568
3.90803
3.97336
4.04072
4.10937
4.17826
4.24672
4.31451
4.38131
4.44663
4.50954
4.56923
4.62496
4.67643
4.72349
4.76612
4.80433
4.83845
4.86861
4.8948
4.91666
4.93375
4.94562
4.9521
4.95249
4.95166
4.94873
4.94152
4.92634
4.90378
4.87869
4.85171
4.82234
4.79017
4.7551
4.71717
4.67659
4.63351
4.58815
4.54065
4.49122
4.43996
4.38711
4.33273
4.27708
4.22022
4.16244
4.10386
4.04475
3.98529
3.92572
3.8662
3.80691
3.74797
3.68963
3.63181
3.57456
3.51781
3.4617
3.40618
3.35135
3.29731
3.24409
3.19199
3.14095
3.09151
3.04367
2.99817
2.95524
2.91584
2.88086
2.85182
2.83013
2.81794
2.81846
6.42348
5.94127
5.53895
5.22199
4.9633
4.74353
4.55891
4.41413
4.30364
4.21154
4.12438
4.03682
3.95064
3.87108
3.80312
3.74932
3.70932
3.6837
3.67123
3.67139
3.6753
3.68762
3.71528
3.76073
3.81245
3.86767
3.92608
3.98731
4.05077
4.11569
4.18117
4.24657
4.31141
4.3752
4.43751
4.49771
4.55517
4.60919
4.65937
4.70538
4.74708
4.78442
4.81764
4.84689
4.87218
4.8933
4.90995
4.92174
4.92837
4.92872
4.92797
4.92535
4.91901
4.90568
4.88428
4.8593
4.83205
4.8026
4.77069
4.73615
4.69893
4.65911
4.61685
4.57233
4.52569
4.47714
4.42676
4.37476
4.3212
4.26628
4.21012
4.15292
4.09488
4.03621
3.97716
3.91794
3.85885
3.80009
3.74167
3.68365
3.62602
3.56889
3.51226
3.45627
3.40095
3.34637
3.2927
3.2399
3.18835
3.13798
3.08937
3.04255
2.9983
2.95683
2.91934
2.88681
2.86079
2.84281
2.83599
2.83697
6.58923
6.1789
5.81827
5.51704
5.26931
5.06236
4.88745
4.74312
4.62153
4.51347
4.40857
4.30215
4.19411
4.09085
3.99728
3.91815
3.85558
3.81109
3.78357
3.77019
3.77035
3.77359
3.78395
3.80759
3.84974
3.89891
3.95169
4.00722
4.06503
4.12461
4.18521
4.24613
4.30689
4.36691
4.42575
4.48286
4.53773
4.58969
4.63827
4.68304
4.72385
4.76016
4.79253
4.8209
4.84535
4.86565
4.88183
4.89345
4.90024
4.9007
4.9
4.89762
4.89195
4.88007
4.86049
4.83652
4.80956
4.78018
4.74849
4.7144
4.67786
4.63885
4.59746
4.55384
4.50812
4.46048
4.41103
4.3599
4.30722
4.25308
4.19768
4.14113
4.08373
4.02561
3.96726
3.90877
3.8504
3.79208
3.73397
3.67612
3.61868
3.56173
3.50536
3.44964
3.39471
3.34055
3.28743
3.23526
3.18448
3.13505
3.08757
3.04221
2.99954
2.96026
2.92547
2.89643
2.87459
2.86218
2.86047
2.86185
6.75809
6.41542
6.10635
5.84039
5.61476
5.42181
5.25467
5.10958
4.97712
4.85051
4.72426
4.59599
4.46685
4.34144
4.22518
4.12274
4.03727
3.97083
3.92347
3.89289
3.87685
3.87435
3.87655
3.88452
3.90326
3.94039
3.98398
4.03195
4.08283
4.13571
4.18987
4.24466
4.29995
4.35514
4.40976
4.46326
4.51513
4.56475
4.6116
4.65511
4.69495
4.73071
4.76244
4.79018
4.81393
4.83364
4.84944
4.86097
4.86797
4.86876
4.86813
4.86597
4.86086
4.8502
4.83254
4.81015
4.7841
4.75517
4.7238
4.69013
4.65416
4.6159
4.57537
4.53266
4.4879
4.44119
4.39268
4.34244
4.29064
4.2373
4.1827
4.12688
4.0703
4.01313
3.95571
3.89795
3.84009
3.78215
3.72438
3.66684
3.60973
3.55312
3.49715
3.44185
3.38742
3.33385
3.28141
3.2301
3.18032
3.13217
3.08624
3.04278
3.00237
2.96607
2.93499
2.91068
2.89453
2.88965
2.89035
2.89349
6.95161
6.67278
6.41566
6.18633
5.98436
5.80513
5.64208
5.48717
5.33665
5.18808
5.03951
4.88995
4.74163
4.59845
4.46484
4.34478
4.24121
4.1562
4.09054
4.04302
4.01126
3.99309
3.98612
3.98705
3.99166
4.00392
4.02966
4.06482
4.10557
4.1496
4.19573
4.24349
4.29171
4.34104
4.39068
4.43999
4.48841
4.53538
4.58029
4.6225
4.66146
4.69671
4.72802
4.75537
4.77875
4.7983
4.81373
4.82524
4.83242
4.83373
4.83316
4.83122
4.82661
4.81701
4.8011
4.78048
4.75581
4.72782
4.69706
4.66392
4.62852
4.59096
4.55124
4.50943
4.46559
4.41984
4.37226
4.32294
4.272
4.2195
4.16574
4.11094
4.05548
3.99932
3.94269
3.88558
3.82828
3.77086
3.71357
3.6565
3.59985
3.54371
3.48824
3.43351
3.37971
3.32689
3.27532
3.22511
3.17662
3.13015
3.08624
3.04502
3.00771
2.97528
2.94906
2.93068
2.92236
2.92284
2.92518
2.93213
7.1828
6.95865
6.74525
6.54535
6.35842
6.18132
6.00988
5.84033
5.67162
5.50273
5.33372
5.16723
5.00573
4.85175
4.70804
4.57737
4.46183
4.36293
4.28163
4.21764
4.16919
4.13431
4.11111
4.09722
4.09214
4.09326
4.09828
4.11088
4.13666
4.168
4.20399
4.24322
4.28372
4.32611
4.3699
4.41422
4.4585
4.5022
4.5447
4.58526
4.62318
4.65787
4.68894
4.7162
4.73959
4.75914
4.77486
4.78635
4.79381
4.79571
4.79524
4.79352
4.78943
4.78088
4.76648
4.74757
4.72451
4.6978
4.66799
4.63556
4.60079
4.56388
4.52489
4.48389
4.44095
4.3961
4.34945
4.301
4.25093
4.19936
4.14672
4.09307
4.03865
3.98338
3.92756
3.8712
3.81459
3.75782
3.70113
3.64465
3.58857
3.53302
3.47818
3.42416
3.37116
3.31932
3.26887
3.22008
3.17329
3.12902
3.08747
3.04943
3.01607
2.98864
2.96865
2.95784
2.95791
2.95981
2.96597
2.98137
7.45024
7.26452
7.07799
6.89206
6.70702
6.52232
6.33723
6.15161
5.96631
5.78267
5.60258
5.42773
5.25974
5.10057
4.95186
4.81524
4.69191
4.58279
4.48857
4.4095
4.3448
4.29309
4.25292
4.22277
4.20151
4.1876
4.1814
4.18226
4.18652
4.19743
4.21989
4.24752
4.28006
4.31317
4.34943
4.38777
4.42717
4.46687
4.50622
4.5444
4.58072
4.61452
4.64526
4.6726
4.69629
4.71623
4.73232
4.74456
4.75228
4.75499
4.75461
4.75313
4.74956
4.74206
4.72898
4.71164
4.69023
4.66501
4.63642
4.60494
4.57095
4.53473
4.49646
4.45623
4.41412
4.37014
4.32437
4.27678
4.22769
4.17728
4.12584
4.0733
4.01991
3.96563
3.91074
3.85527
3.79948
3.7435
3.68755
3.63179
3.57642
3.52162
3.46757
3.41445
3.36247
3.31185
3.26286
3.21584
3.17127
3.12962
3.09103
3.05709
3.0288
3.00766
2.99532
2.99365
2.99527
3.00099
3.01486
3.04548
7.73963
7.57085
7.39135
7.20375
7.01054
6.81398
6.61615
6.41898
6.22437
6.03412
5.8498
5.67265
5.50361
5.34365
5.19352
5.05392
4.9254
4.80854
4.70373
4.61148
4.53185
4.46414
4.40741
4.3607
4.32308
4.29362
4.27166
4.25669
4.24892
4.24948
4.25287
4.26203
4.2812
4.30703
4.33232
4.36238
4.39577
4.43078
4.46619
4.50109
4.535
4.56723
4.59725
4.62451
4.64858
4.66916
4.686
4.69912
4.70764
4.71145
4.71118
4.70998
4.70697
4.7006
4.68877
4.67286
4.65302
4.62938
4.6022
4.5719
4.53887
4.50348
4.46596
4.42648
4.38516
4.34199
4.29703
4.2504
4.20246
4.15325
4.10297
4.05157
3.99926
3.94607
3.89218
3.83771
3.78286
3.72778
3.67269
3.61779
3.56329
3.5094
3.45634
3.40433
3.35363
3.30453
3.25736
3.21261
3.1709
3.13213
3.09772
3.06886
3.04693
3.0335
3.03048
3.03183
3.03681
3.04905
3.07437
3.12557
8.02617
7.85469
7.66758
7.46981
7.26588
7.0597
6.85441
6.65245
6.45564
6.26529
6.08226
5.9071
5.74006
5.58138
5.43121
5.28979
5.15736
5.03427
4.92084
4.81742
4.72453
4.64219
4.57005
4.50756
4.45415
4.40924
4.37229
4.34286
4.3206
4.3057
4.29696
4.29726
4.29992
4.30766
4.32434
4.34323
4.36665
4.39544
4.4256
4.45627
4.4869
4.51674
4.54535
4.57201
4.59621
4.61739
4.63513
4.64939
4.65905
4.6645
4.66441
4.66358
4.66124
4.65611
4.64573
4.63113
4.61279
4.59071
4.56505
4.5361
4.50424
4.46983
4.43317
4.39449
4.35394
4.31151
4.26741
4.22188
4.17511
4.12712
4.07802
4.02784
3.97671
3.9247
3.87195
3.81859
3.76481
3.71078
3.65671
3.60284
3.54939
3.49663
3.44478
3.39417
3.34507
3.29788
3.25303
3.21125
3.17256
3.13778
3.10861
3.08615
3.072
3.06797
3.06917
3.07389
3.08592
3.11184
3.14805
3.2079
8.29085
8.10409
7.90298
7.69395
7.48215
7.2715
7.06485
6.86406
6.67021
6.48383
6.30504
6.13379
5.96982
5.81297
5.66308
5.52017
5.38436
5.25591
5.13514
5.02233
4.91812
4.82301
4.73713
4.66032
4.59234
4.53287
4.48153
4.43794
4.40179
4.37286
4.35101
4.33626
4.32709
4.32716
4.32909
4.33513
4.34778
4.36506
4.38681
4.41173
4.43781
4.46424
4.49049
4.51576
4.53941
4.56073
4.57918
4.59449
4.60571
4.61274
4.61421
4.61367
4.61188
4.60775
4.59928
4.58611
4.56924
4.54874
4.52467
4.49724
4.46674
4.43352
4.39789
4.36012
4.32036
4.27876
4.23568
4.19129
4.14571
4.09896
4.05111
4.00222
3.95236
3.90163
3.85013
3.798
3.74543
3.69258
3.63972
3.58705
3.53488
3.48346
3.43313
3.38422
3.33713
3.29234
3.25051
3.21216
3.17719
3.14778
3.12502
3.11036
3.10564
3.10674
3.11125
3.12279
3.14751
3.19046
3.22854
3.28611
8.52264
8.31756
8.10349
7.88696
7.67245
7.46275
7.25972
7.06415
6.8762
6.69567
6.52211
6.35502
6.19389
6.03837
5.88825
5.7435
5.60427
5.47081
5.34354
5.2227
5.10894
5.00296
4.90521
4.81582
4.73484
4.66214
4.59749
4.54066
4.49136
4.44926
4.41429
4.38633
4.36491
4.35049
4.34126
4.33986
4.34114
4.34517
4.35437
4.37129
4.39011
4.41156
4.43421
4.45696
4.47907
4.4997
4.51821
4.53416
4.54673
4.55533
4.55934
4.55909
4.55794
4.55498
4.5487
4.53711
4.52181
4.50295
4.48057
4.4548
4.42587
4.39407
4.35969
4.32301
4.28419
4.24364
4.2017
4.15851
4.11417
4.06872
4.0222
3.97467
3.92618
3.87683
3.82669
3.77595
3.72472
3.67326
3.62177
3.57055
3.51989
3.47013
3.42165
3.37487
3.33031
3.2886
3.25066
3.21582
3.18632
3.16345
3.14858
3.14341
3.14446
3.14892
3.16053
3.1855
3.22643
3.2735
3.30796
3.35743
8.72124
8.49964
8.27726
8.059
7.84738
7.64362
7.44791
7.26002
7.07929
6.90499
6.73629
6.57252
6.41314
6.25784
6.10652
5.95925
5.8163
5.678
5.5448
5.41708
5.29528
5.18015
5.07231
4.97214
4.8798
4.79536
4.71869
4.64971
4.58804
4.53363
4.48631
4.4459
4.41213
4.38494
4.36397
4.34939
4.34013
4.33659
4.33705
4.33985
4.34697
4.36147
4.37817
4.39679
4.4161
4.43492
4.45261
4.46849
4.4819
4.49165
4.4981
4.49927
4.49868
4.49675
4.49234
4.48333
4.46983
4.45274
4.4322
4.40826
4.38111
4.35095
4.31807
4.28268
4.24514
4.20594
4.16532
4.12346
4.08046
4.03638
3.99127
3.94519
3.89818
3.85031
3.80169
3.75245
3.70278
3.65287
3.60302
3.55349
3.50466
3.45692
3.41073
3.36663
3.32525
3.28768
3.25334
3.22384
3.20114
3.18635
3.18109
3.18216
3.18675
3.19859
3.22403
3.26623
3.3113
3.35433
3.38171
3.42067
8.89287
8.66102
8.43648
8.22198
8.01768
7.82259
7.63593
7.45631
7.28242
7.11323
6.94785
6.78572
6.62646
6.47001
6.31642
6.16599
6.01906
5.87608
5.73752
5.60382
5.47531
5.35261
5.23638
5.12709
5.02502
4.93032
4.84303
4.76307
4.69034
4.62468
4.5659
4.51383
4.46829
4.42916
4.39629
4.3696
4.34885
4.33434
4.3247
4.31763
4.31803
4.3203
4.32613
4.33809
4.35227
4.36757
4.3833
4.3982
4.41167
4.42209
4.43006
4.43392
4.4337
4.4326
4.42978
4.42373
4.41248
4.39754
4.3791
4.35724
4.33206
4.3038
4.27267
4.23893
4.20308
4.16549
4.12643
4.08607
4.04456
4.00197
3.95838
3.91384
3.86841
3.82216
3.77519
3.72765
3.67971
3.63161
3.58364
3.53614
3.48952
3.44425
3.40092
3.36015
3.32309
3.28964
3.26037
3.23798
3.22349
3.21846
3.2196
3.22444
3.23683
3.26339
3.3062
3.35283
3.39435
3.42873
3.44725
3.47609
9.03883
8.80657
8.58798
8.38275
8.18902
8.00484
7.82734
7.65474
7.48568
7.3193
7.15499
6.99252
6.83181
6.67304
6.5165
6.3626
6.21178
6.06452
5.92128
5.78249
5.64846
5.51962
5.39658
5.27981
5.16964
5.06628
4.96983
4.88028
4.79759
4.72168
4.65221
4.58926
4.53268
4.48229
4.43797
4.39969
4.36742
4.34103
4.32119
4.30488
4.29228
4.286
4.28616
4.28766
4.29192
4.3009
4.31254
4.32471
4.33697
4.34754
4.35602
4.36205
4.36327
4.36276
4.36109
4.35723
4.34929
4.33685
4.32079
4.30123
4.27829
4.25217
4.22308
4.1914
4.15759
4.12196
4.08475
4.04614
4.0063
3.96536
3.92342
3.88055
3.83683
3.79234
3.7472
3.70155
3.65559
3.60958
3.56383
3.51875
3.47482
3.43262
3.39285
3.35651
3.32429
3.29569
3.2738
3.25993
3.2554
3.25666
3.26185
3.27505
3.30316
3.347
3.39443
3.43726
3.47043
3.49427
3.50458
3.52403
9.16762
8.94411
8.73912
8.54787
8.36619
8.19102
8.02003
7.85154
7.68442
7.51829
7.35303
7.18873
7.02566
6.86417
6.70471
6.54771
6.39364
6.24293
6.096
5.95321
5.81487
5.68124
5.55283
5.43005
5.31325
5.20264
5.09836
5.00044
4.90888
4.82364
4.74462
4.67169
4.60476
4.54377
4.48861
4.43926
4.39573
4.35804
4.32621
4.30074
4.27833
4.26001
4.24905
4.2423
4.24127
4.2421
4.24486
4.25098
4.26015
4.26906
4.27737
4.28399
4.28766
4.28753
4.28674
4.28455
4.27978
4.27029
4.25693
4.23996
4.21953
4.19586
4.16921
4.13999
4.10859
4.07524
4.04017
4.00358
3.96565
3.92656
3.88643
3.84539
3.80354
3.761
3.7179
3.67438
3.6307
3.58711
3.54401
3.50184
3.46121
3.42282
3.38761
3.35692
3.32935
3.30817
3.2951
3.29164
3.29309
3.29879
3.31305
3.34314
3.38832
3.43645
3.4801
3.51416
3.53691
3.5503
3.55498
3.565
9.28475
9.08042
8.89371
8.71634
8.54415
8.37445
8.2059
8.03795
7.87041
7.70309
7.53616
7.36991
7.20479
7.04124
6.87975
6.7207
6.56452
6.41155
6.26214
6.11656
5.97509
5.8379
5.70538
5.57791
5.45578
5.33916
5.22823
5.12306
5.02366
4.93005
4.84215
4.75992
4.68321
4.61217
4.5468
4.48706
4.43294
4.38444
4.34157
4.30431
4.27348
4.24499
4.22183
4.20523
4.19407
4.18696
4.18407
4.18446
4.18604
4.1898
4.19628
4.20191
4.20646
4.20792
4.20761
4.20648
4.20374
4.19794
4.18752
4.17327
4.15554
4.13462
4.11081
4.08446
4.05582
4.02507
3.99244
3.95814
3.92238
3.88536
3.84727
3.80828
3.76852
3.72816
3.68735
3.64629
3.60523
3.56451
3.52457
3.48596
3.44941
3.41581
3.3867
3.36088
3.34064
3.3288
3.32662
3.32834
3.33477
3.35061
3.38364
3.42973
3.47862
3.52274
3.55746
3.58062
3.59304
3.59757
3.59871
3.60206
9.39022
9.21271
9.04449
8.87766
8.71018
8.54203
8.37332
8.20451
8.03581
7.86735
7.69945
7.53249
7.36688
7.203
7.04122
6.88185
6.72521
6.57154
6.42109
6.27406
6.13066
5.99106
5.85547
5.72432
5.59787
5.47625
5.35959
5.248
5.14156
5.04032
4.9443
4.85351
4.76798
4.68767
4.61259
4.54278
4.47823
4.41898
4.36524
4.31727
4.27502
4.23926
4.20523
4.1772
4.1558
4.13953
4.12797
4.12067
4.11649
4.11652
4.11713
4.11877
4.12212
4.12463
4.1246
4.12416
4.12277
4.11953
4.11277
4.10123
4.08641
4.06861
4.04799
4.02481
3.99919
3.97133
3.94141
3.90968
3.87636
3.84169
3.80591
3.76922
3.73184
3.69396
3.65577
3.61754
3.57954
3.54225
3.50612
3.47192
3.44039
3.41322
3.38978
3.37122
3.36047
3.36019
3.36228
3.36972
3.38757
3.42413
3.47128
3.52033
3.56474
3.59988
3.62355
3.63581
3.63899
3.63854
3.63682
3.63717
9.47739
9.32508
9.17059
9.0105
8.84615
8.67933
8.51165
8.34375
8.17626
8.00915
7.84275
7.67746
7.5136
7.35145
7.19128
7.03333
6.87779
6.72482
6.57458
6.42721
6.28287
6.14171
6.00383
5.86963
5.7395
5.61353
5.4918
5.37444
5.26156
5.15329
5.04973
4.95095
4.857
4.76792
4.68378
4.60463
4.53054
4.46162
4.39792
4.33956
4.28666
4.23939
4.1981
4.15909
4.12653
4.10019
4.07947
4.06386
4.05262
4.04555
4.04138
4.03958
4.03967
4.04
4.04
4.03978
4.03899
4.03702
4.03282
4.02441
4.01296
3.99857
3.98139
3.96156
3.93918
3.91442
3.88747
3.85856
3.82796
3.79592
3.76274
3.72866
3.69395
3.65888
3.62369
3.58872
3.55436
3.52112
3.48967
3.46077
3.43587
3.41541
3.39905
3.39062
3.39102
3.39412
3.40343
3.42425
3.46497
3.51263
3.56166
3.60589
3.64123
3.66531
3.67794
3.68022
3.67943
3.67664
3.66996
3.66775
9.54476
9.40718
9.26012
9.10483
8.94468
8.78209
8.61839
8.45452
8.29091
8.12826
7.96672
7.80633
7.64715
7.48926
7.33286
7.17812
7.02514
6.874
6.72486
6.5779
6.43321
6.29095
6.15118
6.01419
5.88051
5.75038
5.62386
5.50107
5.38215
5.26731
5.15668
5.05043
4.94866
4.85145
4.75893
4.67111
4.58813
4.51003
4.43691
4.36889
4.30612
4.24875
4.1972
4.15086
4.10744
4.071
4.04047
4.01556
3.99594
3.9812
3.97075
3.96388
3.95969
3.95748
3.95628
3.95533
3.95435
3.95263
3.94972
3.94431
3.93617
3.92519
3.91145
3.89504
3.87603
3.85457
3.83083
3.80504
3.77746
3.74839
3.71814
3.68703
3.65537
3.6235
3.59177
3.56058
3.5305
3.50206
3.47618
3.45384
3.43681
3.42339
3.41777
3.41874
3.42322
3.43515
3.46072
3.50278
3.55223
3.60156
3.64569
3.68103
3.70556
3.71878
3.72111
3.72027
3.71739
3.71074
3.69693
3.69265
9.58742
9.45699
9.31587
9.16715
9.01432
8.85939
8.70346
8.54726
8.39133
8.23597
8.08123
7.92707
7.77349
7.62056
7.46838
7.31705
7.16682
7.01782
6.8702
6.72402
6.57938
6.43638
6.29513
6.15571
6.0187
5.88461
5.75358
5.62572
5.50123
5.38032
5.26317
5.15003
5.04103
4.93635
4.8361
4.74034
4.64921
4.56273
4.48103
4.40419
4.33235
4.26569
4.20435
4.1489
4.09788
4.05076
4.01069
3.97653
3.94812
3.92522
3.90746
3.89431
3.88505
3.87891
3.87505
3.87246
3.87069
3.86885
3.86656
3.86295
3.85736
3.84941
3.83894
3.82592
3.81035
3.79232
3.77199
3.74957
3.72532
3.69956
3.67261
3.64485
3.61667
3.58849
3.56078
3.53407
3.50909
3.48648
3.46741
3.4535
3.44313
3.44101
3.44267
3.44887
3.464
3.49525
3.53942
3.58931
3.63871
3.68287
3.7183
3.74336
3.75734
3.76031
3.75952
3.75686
3.75068
3.7382
3.71901
3.714
9.61007
9.48451
9.35057
9.21047
9.0671
8.92202
8.776
8.62949
8.48272
8.33576
8.18856
8.04109
7.89337
7.7455
7.59756
7.44968
7.30225
7.15528
7.00899
6.86341
6.71874
6.57499
6.43237
6.29081
6.15082
6.01304
5.87781
5.74528
5.61572
5.48932
5.36632
5.247
5.13153
5.02015
4.91297
4.81011
4.71168
4.6177
4.52831
4.44354
4.36353
4.28843
4.21843
4.15373
4.09497
4.03993
3.99023
3.9469
3.90958
3.8782
3.85257
3.83236
3.81706
3.80595
3.79829
3.79313
3.78968
3.78712
3.78482
3.78208
3.77822
3.77267
3.76504
3.75514
3.74288
3.72829
3.71144
3.69259
3.67194
3.64985
3.62663
3.60274
3.57857
3.55469
3.53168
3.51023
3.49116
3.47521
3.46466
3.45791
3.45837
3.46146
3.47036
3.48994
3.52703
3.5726
3.62287
3.67224
3.71632
3.75214
3.77792
3.79321
3.79718
3.79654
3.79423
3.78874
3.7773
3.76121
3.73958
3.73394
9.62127
9.50269
9.37846
9.24873
9.1157
8.98076
8.84461
8.70748
8.56937
8.43016
8.2898
8.14825
8.00559
7.86197
7.71765
7.57286
7.4277
7.28248
7.13735
6.99245
6.84787
6.70373
6.56012