/*--------------------------------*- C++ -*----------------------------------*\
  =========                 |
  \\      /  F ield         | OpenFOAM: The Open Source CFD Toolbox
   \\    /   O peration     | Website:  https://openfoam.org
    \\  /    A nd           | Version:  6
     \\/     M anipulation  |
\*---------------------------------------------------------------------------*/
FoamFile
{
    version     2.0;
    format      ascii;
    class       surfaceScalarField;
    location    "7.5";
    object      phi;
}
// * * * * * * * * * * * * * * * * * * * * * * * * * * * * * * * * * * * * * //

dimensions      [1 0 -1 0 0 0 0];

internalField   nonuniform List<scalar> 
10325
(
0.00840002
3.6135e-10
0.00840002
2.25799e-09
0.00840001
6.85945e-09
0.00839998
1.81955e-08
0.00839994
4.11126e-08
0.00839981
9.68053e-08
0.00839957
2.04277e-07
0.00839891
4.96899e-07
0.00839776
1.01611e-06
0.00839415
2.88192e-06
0.00838634
6.9251e-06
0.0083633
2.30086e-05
0.00825249
9.95594e-05
0.00774714
0.000489246
0.00711086
0.000630323
0.00643808
0.000670289
0.00577253
0.000664115
0.00510166
0.000669565
0.00444485
0.000655545
0.00376252
0.000681059
0.00304182
0.000719433
0.00229544
0.000745111
0.00153804
0.000756196
0.000770477
0.000766402
0.000769327
0.00840002
7.56157e-10
0.00840002
4.73129e-09
0.00840001
1.43164e-08
0.00839998
3.8095e-08
0.00839993
8.58814e-08
0.00839979
2.03649e-07
0.00839953
4.28436e-07
0.00839881
1.05885e-06
0.00839755
2.13845e-06
0.00839347
6.23773e-06
0.00838443
1.50752e-05
0.00835625
5.11492e-05
0.00822098
0.000223628
0.00766062
0.00103347
0.00706114
0.00122384
0.00645104
0.00127787
0.00582471
0.00128902
0.00517305
0.00131993
0.00449637
0.00133092
0.00379173
0.00138448
0.00305975
0.00145013
0.00230856
0.00149502
0.00154512
0.00151846
0.000775957
0.00153444
0.00154432
0.00840002
1.18442e-09
0.00840002
7.40999e-09
0.00840001
2.23982e-08
0.00839998
5.96795e-08
0.00839992
1.34555e-07
0.00839978
3.20123e-07
0.0083995
6.73657e-07
0.00839872
1.67619e-06
0.00839734
3.37406e-06
0.00839291
9.94838e-06
0.00838297
2.41148e-05
0.00835158
8.2497e-05
0.00820838
0.000355766
0.00764013
0.00158551
0.00703912
0.00181882
0.00645071
0.00186376
0.00585038
0.00188794
0.00522018
0.00194884
0.00454355
0.00200628
0.00383217
0.00209459
0.00309312
0.00218786
0.00233029
0.00225681
0.00155493
0.00229244
0.000772891
0.00231496
0.00231591
0.00840002
1.63448e-09
0.00840002
1.02252e-08
0.00840001
3.08929e-08
0.00839998
8.23607e-08
0.00839992
1.85728e-07
0.00839977
4.42418e-07
0.00839947
9.31441e-07
0.00839867
2.32076e-06
0.00839723
4.67365e-06
0.00839267
1.37857e-05
0.00838244
3.34496e-05
0.00835012
0.00011477
0.00821126
0.000483815
0.00764756
0.00213289
0.00704514
0.00241489
0.0064721
0.00243419
0.0058926
0.00246611
0.00527871
0.00256158
0.00461784
0.00266598
0.00390719
0.00280428
0.00316305
0.00293043
0.00239094
0.00302705
0.00159337
0.00308899
0.000788715
0.00311832
0.00310313
0.00840002
2.09524e-09
0.00840002
1.31067e-08
0.00840001
3.95922e-08
0.00839998
1.05572e-07
0.00839992
2.38124e-07
0.00839976
5.6736e-07
0.00839946
1.1951e-06
0.00839865
2.97416e-06
0.00839718
6.00109e-06
0.00839263
1.76218e-05
0.00838245
4.27352e-05
0.00835038
0.000146686
0.00822289
0.000600986
0.00767558
0.00266294
0.00706992
0.00301527
0.00651215
0.00298902
0.00595144
0.00302529
0.00535606
0.00315569
0.00470861
0.00331172
0.00401184
0.00349984
0.00327548
0.00366659
0.00249818
0.00380297
0.00168141
0.00390448
0.000839025
0.00396013
0.00394092
0.00840002
2.55843e-09
0.00840002
1.60024e-08
0.00840001
4.83305e-08
0.00839998
1.28884e-07
0.00839992
2.90749e-07
0.00839976
6.92743e-07
0.00839946
1.45979e-06
0.00839865
3.62683e-06
0.00839718
7.33301e-06
0.0083927
2.13966e-05
0.00838264
5.19091e-05
0.00835097
0.000178099
0.00823574
0.000706416
0.00771366
0.0031671
0.0071142
0.00360948
0.00656541
0.00353529
0.00602401
0.00356538
0.00546053
0.00371799
0.00483505
0.00393603
0.00415713
0.00417567
0.00342534
0.00439634
0.00264479
0.00458225
0.00180883
0.00473889
0.000919246
0.00484785
0.00485874
0.00840002
3.01029e-09
0.00840002
1.88292e-08
0.00840001
5.6878e-08
0.00839998
1.51649e-07
0.00839992
3.42025e-07
0.00839977
8.14746e-07
0.00839948
1.71541e-06
0.00839867
4.27763e-06
0.00839735
8.51104e-06
0.0083927
2.53392e-05
0.00838364
6.00856e-05
0.00835204
0.000209394
0.00825273
0.000796378
0.00776035
0.00364114
0.00717185
0.0041921
0.00663011
0.00407431
0.00611431
0.00408
0.00558131
0.00424976
0.00499902
0.00451704
0.00435214
0.00482139
0.00364708
0.00509939
0.00286594
0.00536199
0.00200155
0.00560209
0.0010411
0.00580692
0.00589786
0.00840002
3.45969e-09
0.00840002
2.16783e-08
0.00840001
6.54509e-08
0.00839998
1.74808e-07
0.00839992
3.93679e-07
0.00839976
9.4134e-07
0.00839946
1.97992e-06
0.00839875
4.84245e-06
0.00839661
1.04997e-05
0.00839453
2.67274e-05
0.00837767
7.60245e-05
0.00838147
0.000205442
0.00827307
0.00089586
0.00782258
0.00407271
0.00723459
0.00477249
0.00672457
0.00458313
0.00624818
0.00455627
0.00575541
0.00474208
0.00521258
0.00505856
0.00460898
0.00542378
0.00393638
0.00577055
0.00318996
0.00610702
0.0023169
0.00647319
0.00126249
0.00685908
0.00715928
0.00840002
3.95102e-09
0.00840002
2.47539e-08
0.00840001
7.47388e-08
0.00839998
1.99574e-07
0.00839991
4.49508e-07
0.00839975
1.07406e-06
0.00839943
2.25976e-06
0.00839864
5.49376e-06
0.00839686
1.20522e-05
0.00839305
2.9893e-05
0.00838204
8.57388e-05
0.00836054
0.00022543
0.00829231
0.000953843
0.00788123
0.00446535
0.00726464
0.0053783
0.00684833
0.00499828
0.00642791
0.00497648
0.00598685
0.00518314
0.00549679
0.00554784
0.0049527
0.00596641
0.00436773
0.00635382
0.00369021
0.00678301
0.00284462
0.0073174
0.00172309
0.00797935
0.00888008
0.00840002
4.48649e-09
0.00840002
2.80727e-08
0.00840001
8.4848e-08
0.00839997
2.26084e-07
0.00839991
5.09964e-07
0.00839974
1.21164e-06
0.0083994
2.55371e-06
0.00839855
6.19388e-06
0.00839724
1.31242e-05
0.00839199
3.44771e-05
0.00838794
8.84136e-05
0.00834537
0.000266648
0.00831478
0.000974702
0.00798234
0.00477867
0.00747406
0.00587721
0.00703606
0.0054351
0.00665357
0.00535804
0.00626537
0.00556968
0.0058433
0.00596841
0.00540762
0.00640062
0.00494527
0.00681438
0.00440463
0.00732132
0.00371445
0.00800481
0.00274975
0.00894192
0.0116279
0.00840002
5.08846e-09
0.00840002
3.18169e-08
0.0084
9.62459e-08
0.00839997
2.56083e-07
0.00839989
5.78119e-07
0.00839971
1.36825e-06
0.00839934
2.88607e-06
0.00839839
6.97707e-06
0.00839688
1.44579e-05
0.00839148
3.91337e-05
0.00838568
9.33026e-05
0.00834695
0.000302828
0.00831029
0.00100425
0.00802813
0.0050412
0.00758691
0.00630826
0.0072342
0.00578674
0.00693058
0.00566097
0.00657506
0.00592309
0.00627424
0.00626745
0.00600137
0.00667172
0.00567731
0.0071369
0.00535005
0.00764646
0.00517163
0.00817996
0.00549744
0.00861348
0.0082345
0.00888775
0.00840002
5.80534e-09
0.00840002
3.62999e-08
0.0084
1.097e-07
0.00839996
2.92188e-07
0.00839987
6.59563e-07
0.00839964
1.56431e-06
0.00839919
3.29979e-06
0.00839804
7.9586e-06
0.00839557
1.67287e-05
0.00839013
4.37848e-05
0.00837499
0.000107468
0.00834298
0.000332072
0.00825592
0.00108452
0.0078598
0.00541745
0.00786445
0.00629258
0.00742606
0.00622513
0.00712917
0.00595696
0.00694143
0.0061085
0.00677077
0.00643563
0.00659314
0.00684727
0.00643848
0.00728855
0.00640796
0.00767498
0.00664038
0.00794519
0.00727604
0.00797323
0.00737618
0.00812891
0.00840002
6.53883e-09
0.00840002
4.08608e-08
0.0084
1.23449e-07
0.00839996
3.28913e-07
0.00839987
7.43291e-07
0.00839963
1.76392e-06
0.00839916
3.72575e-06
0.00839787
9.07153e-06
0.00839604
1.83158e-05
0.00838853
5.04309e-05
0.00837625
0.000118488
0.00833464
0.000371075
0.00827391
0.00113747
0.00797125
0.00569713
0.00777599
0.00648397
0.00755851
0.00644134
0.00736994
0.00614442
0.00722624
0.00624997
0.00711006
0.00654896
0.00705839
0.0068957
0.00710434
0.00723851
0.00730162
0.00747403
0.00763475
0.00760987
0.0081254
0.00747961
0.00691633
0.00858082
0.00840002
7.17212e-09
0.00840002
4.48082e-08
0.00840001
1.34883e-07
0.00839997
3.60673e-07
0.00839988
8.15601e-07
0.00839966
1.94848e-06
0.00839921
4.12912e-06
0.00839812
9.96505e-06
0.00839499
2.12127e-05
0.00839203
5.24333e-05
0.00837282
0.000136235
0.00836167
0.000379536
0.00833776
0.00115342
0.00823125
0.00577677
0.00797378
0.00673958
0.00782328
0.00659122
0.00767215
0.00629514
0.00756659
0.00635361
0.00751219
0.00660021
0.0075421
0.00686196
0.00768535
0.00709085
0.00795083
0.00720379
0.00830968
0.00724659
0.00871513
0.00706858
0.00664465
0.00898231
0.00840003
7.11119e-09
0.00840002
4.43831e-08
0.00840002
1.33983e-07
0.00840002
3.56998e-07
0.00840002
8.07734e-07
0.00840002
1.91563e-06
0.00840005
4.04946e-06
0.00839989
9.92367e-06
0.00840192
1.89963e-05
0.00839521
5.80905e-05
0.00841815
0.000112339
0.00836189
0.000432424
0.00840658
0.00110224
0.00872121
0.00543285
0.00842954
0.00703083
0.00819827
0.0068224
0.00801461
0.00647777
0.007938
0.00642741
0.00793232
0.00660204
0.00800414
0.00678577
0.00815833
0.00693162
0.00840463
0.00695186
0.00874213
0.00690321
0.00910176
0.00670167
0.00635064
0.00938869
0.00840003
6.7111e-09
0.00840003
4.19081e-08
0.00840003
1.2625e-07
0.00840005
3.37065e-07
0.00840009
7.60231e-07
0.00840015
1.8139e-06
0.00840037
3.7895e-06
0.00840081
9.28155e-06
0.00840117
1.84481e-05
0.00840571
5.25155e-05
0.00841538
0.000101646
0.00846743
0.0003767
0.00863063
0.000933163
0.00989453
0.00413507
0.00931268
0.0076114
0.00874555
0.0073886
0.00846296
0.00675892
0.00834401
0.00654283
0.00834359
0.00659793
0.00843004
0.00669403
0.00858841
0.00676773
0.00880228
0.00673103
0.0090756
0.00662204
0.00938538
0.00638142
0.00606449
0.00966175
0.00840003
5.82773e-09
0.00840003
3.64163e-08
0.00840005
1.10264e-07
0.00840008
2.92933e-07
0.00840017
6.63912e-07
0.0084004
1.55797e-06
0.00840082
3.319e-06
0.00840224
7.70637e-06
0.00840415
1.63142e-05
0.00841695
3.89507e-05
0.00842683
9.07002e-05
0.00855615
0.000244445
0.00884669
0.000639818
0.0105777
0.00238986
0.0100847
0.00808835
0.00965285
0.00781302
0.00906051
0.00734851
0.00881354
0.00678535
0.00874905
0.00665623
0.00879933
0.00663652
0.00893818
0.0066211
0.00913526
0.00652553
0.00937269
0.00637626
0.00963182
0.00611317
0.00581931
0.00986535
0.00840003
5.07286e-09
0.00840003
3.17059e-08
0.00840004
9.5975e-08
0.00840008
2.55001e-07
0.00840016
5.77364e-07
0.00840033
1.35544e-06
0.00840073
2.87936e-06
0.00840159
6.69807e-06
0.00840364
1.40689e-05
0.00840831
3.35601e-05
0.00842062
7.73735e-05
0.00846588
0.00019586
0.00853542
0.000571665
0.00899267
0.00191841
0.00990261
0.00714664
0.00985029
0.00785181
0.00950935
0.00768078
0.00923319
0.00705668
0.00913133
0.00675102
0.0091457
0.00661265
0.00924668
0.00650989
0.00940614
0.00635289
0.00962471
0.00614344
0.00983589
0.00588986
0.00559601
0.0100453
0.00840003
4.43448e-09
0.00840003
2.76985e-08
0.00840004
8.37676e-08
0.00840007
2.22692e-07
0.00840014
5.03752e-07
0.00840028
1.18568e-06
0.00840062
2.50636e-06
0.0084013
5.88546e-06
0.00840306
1.21376e-05
0.00840533
3.0643e-05
0.00841942
6.23412e-05
0.00842626
0.000186277
0.0085329
0.000461108
0.00877483
0.00166773
0.0096353
0.00625029
0.00967945
0.00779745
0.009626
0.00772659
0.00947677
0.00719942
0.00940593
0.00681226
0.00942441
0.00658214
0.0095093
0.00641217
0.00964681
0.00620122
0.00984028
0.00593601
0.0100126
0.00570132
0.00538245
0.0102097
0.00840003
3.80803e-09
0.00840003
2.37764e-08
0.00840004
7.17698e-08
0.00840007
1.91092e-07
0.00840014
4.31885e-07
0.00840028
1.02074e-06
0.0084006
2.15069e-06
0.00840127
5.09818e-06
0.00840286
1.039e-05
0.00840577
2.70991e-05
0.00841615
5.12559e-05
0.00843436
0.000165317
0.00851183
0.000379742
0.00873947
0.00143114
0.0103153
0.00463269
0.0100835
0.00801693
0.00995622
0.00784294
0.00973653
0.00741135
0.00970309
0.00683458
0.00971244
0.00655704
0.00978979
0.00631711
0.00991229
0.00606192
0.0100344
0.00579619
0.0101946
0.00551978
0.00518414
0.0103705
0.00840003
3.04008e-09
0.00840003
1.89951e-08
0.00840005
5.7556e-08
0.00840008
1.52715e-07
0.00840016
3.457e-07
0.00840036
8.0896e-07
0.00840077
1.71292e-06
0.00840183
3.96319e-06
0.00840389
8.20266e-06
0.00841062
1.97895e-05
0.00842185
4.09348e-05
0.00847893
0.000104606
0.00859313
0.00026982
0.00925629
0.000748553
0.0114993
0.00238118
0.0111153
0.00836887
0.0107177
0.00822317
0.010333
0.00778086
0.0100896
0.00706437
0.0100419
0.00658982
0.0100791
0.00626198
0.0101545
0.00596714
0.0102459
0.00568147
0.0103959
0.00534499
0.00499686
0.0105589
0.00840003
2.40354e-09
0.00840003
1.50152e-08
0.00840004
4.55228e-08
0.00840007
1.20654e-07
0.00840014
2.73198e-07
0.0084003
6.37224e-07
0.00840064
1.35079e-06
0.00840141
3.1001e-06
0.00840308
6.43104e-06
0.00840715
1.5263e-05
0.00841657
3.09777e-05
0.00843628
8.27209e-05
0.00852454
0.000178781
0.00866095
0.000603586
0.00937309
0.00165103
0.0110162
0.00667599
0.0109856
0.00823076
0.0108045
0.00794075
0.0105136
0.00733622
0.0103934
0.00668947
0.0103802
0.00625462
0.0104061
0.00591639
0.010507
0.0055537
0.0106404
0.00518605
0.0048215
0.0107925
0.00840003
1.89312e-09
0.00840003
1.18223e-08
0.00840004
3.58327e-08
0.00840006
9.49567e-08
0.00840012
2.14932e-07
0.00840024
5.01392e-07
0.00840051
1.06139e-06
0.0084011
2.43875e-06
0.0084024
5.03571e-06
0.00840518
1.20902e-05
0.00841227
2.35301e-05
0.00842431
6.84247e-05
0.00847639
0.000125
0.00858902
0.000483217
0.00906297
0.00116455
0.01102
0.00465823
0.0110787
0.00813867
0.0110829
0.00790606
0.0108532
0.00753651
0.0106959
0.00682167
0.010653
0.00626867
0.010697
0.00584235
0.010789
0.0054312
0.0109112
0.00504027
0.00466613
0.0110489
0.00840003
1.46845e-09
0.00840003
9.12989e-09
0.00840004
2.78866e-08
0.00840006
7.3208e-08
0.0084001
1.67184e-07
0.00840021
3.86036e-07
0.00840042
8.26844e-07
0.00840092
1.87206e-06
0.00840194
3.93342e-06
0.00840464
9.03716e-06
0.00840872
1.9056e-05
0.0084307
4.46153e-05
0.00844776
0.000106083
0.0086573
0.000266644
0.00907408
0.000735818
0.0112062
0.00249529
0.0115101
0.00777079
0.011242
0.00813788
0.0111408
0.00759967
0.0110276
0.00690131
0.0109968
0.00626366
0.0110467
0.00576155
0.0111364
0.00531786
0.011249
0.00491334
0.00453673
0.0113694
0.00840003
8.82999e-10
0.00840003
7.58145e-09
0.00840004
1.84238e-08
0.00840005
5.95152e-08
0.00840011
1.10099e-07
0.00840016
3.15977e-07
0.00840044
5.30899e-07
0.00840068
1.5618e-06
0.00840212
2.40469e-06
0.00840302
7.79524e-06
0.00841106
1.05757e-05
0.0084117
4.22633e-05
0.00846976
4.54501e-05
0.0084729
0.000255463
0.00878143
0.000414879
0.00952997
0.00171754
0.0113405
0.00586091
0.0113468
0.00809067
0.0113392
0.0075776
0.0113048
0.0069025
0.0113116
0.00623002
0.0113812
0.00566831
0.0114858
0.00519886
0.0116018
0.00478985
0.0044212
0.0117166
0.00840003
7.96668e-10
0.00840003
4.41442e-09
0.00840004
1.48452e-08
0.00840006
3.59447e-08
0.00840007
8.89171e-08
0.00840019
1.87366e-07
0.00840026
4.39056e-07
0.0084009
8.8576e-07
0.00840106
2.09402e-06
0.00840456
4.11359e-06
0.00840408
1.0221e-05
0.00842633
1.93204e-05
0.00841183
5.53372e-05
0.00856218
0.000101459
0.00859659
0.000362823
0.00941268
0.000872924
0.0118794
0.00325711
0.0117375
0.00818156
0.0116982
0.00759628
0.0116528
0.00692549
0.0116732
0.00619478
0.0117596
0.00556905
0.0118676
0.00508582
0.0119746
0.00468301
0.00432798
0.0120716
0.00840003
5.85488e-10
0.00840003
3.26299e-09
0.00840003
1.07018e-08
0.00840004
2.65004e-08
0.00840006
6.42686e-08
0.0084001
1.39266e-07
0.0084002
3.19071e-07
0.00840038
6.67566e-07
0.00840081
1.52635e-06
0.0084016
3.15032e-06
0.00840379
7.3039e-06
0.00840681
1.53977e-05
0.00842311
3.5451e-05
0.00843514
8.4252e-05
0.00857877
0.00020212
0.0088738
0.000584266
0.0101203
0.00193609
0.0114374
0.0067502
0.0116255
0.0073596
0.011811
0.00671638
0.0119621
0.00602767
0.0121005
0.00542394
0.0122372
0.00495121
0.0123536
0.00457278
0.00424257
0.0124465
0.00840003
4.14555e-10
0.00840003
2.33158e-09
0.00840003
7.55473e-09
0.00840004
1.89177e-08
0.00840005
4.5115e-08
0.00840009
9.88156e-08
0.00840016
2.21611e-07
0.00840032
4.69214e-07
0.00840066
1.04705e-06
0.00840145
2.19357e-06
0.00840294
5.03253e-06
0.0084074
1.02264e-05
0.00841349
2.62492e-05
0.00844005
5.08529e-05
0.00846659
0.000161997
0.00864887
0.000373643
0.00904099
0.00149499
0.0109687
0.00463809
0.0114543
0.00681917
0.0117644
0.00640263
0.0120303
0.00574664
0.0122597
0.00519383
0.0124631
0.00475723
0.0126231
0.00442336
0.00413451
0.0127379
0.00840003
3.64604e-10
0.00840003
1.44029e-09
0.00840003
6.16165e-09
0.00840004
1.19528e-08
0.00840004
3.69155e-08
0.00840007
6.13581e-08
0.00840009
1.8575e-07
0.00840026
2.78252e-07
0.00840031
9.07355e-07
0.0084012
1.17697e-06
0.00840131
4.50722e-06
0.00840635
4.32621e-06
0.00840421
2.48417e-05
0.00844395
1.05461e-05
0.00845632
0.000140245
0.00872056
0.000101543
0.00949708
0.000676851
0.0119671
0.00203242
0.0118338
0.0067417
0.0120908
0.00611089
0.0122406
0.00558001
0.0124642
0.00498314
0.0126763
0.0045623
0.0128445
0.00426622
0.00401452
0.0129695
0.00840003
1.26833e-10
0.00840003
1.2892e-09
0.00840003
2.77594e-09
0.00840003
1.01736e-08
0.00840005
1.67549e-08
0.00840004
5.52684e-08
0.00840013
8.06611e-08
0.00840006
2.82351e-07
0.00840055
3.56652e-07
0.00839993
1.46417e-06
0.00840282
1.37981e-06
0.00839768
8.26455e-06
0.00841707
2.92796e-06
0.00837335
4.95771e-05
0.00850263
-1.53245e-06
0.00829683
0.000285893
0.00875575
0.000187744
0.00926341
0.00143851
0.0105101
0.00523765
0.0111662
0.00540765
0.0117239
0.00501456
0.0121858
0.00455606
0.0125322
0.00424542
0.0127815
0.00403238
0.00383506
0.0129674
0.00840003
8.4188e-11
0.00840003
4.74933e-10
0.00840003
1.6654e-09
0.00840004
3.98645e-09
0.00840004
1.00844e-08
0.00840007
2.06011e-08
0.00840007
5.01702e-08
0.00840022
9.61899e-08
0.00840018
2.4899e-07
0.00840109
4.46999e-07
0.00840052
1.32989e-06
0.00840552
2.15239e-06
0.00839816
7.48788e-06
0.00843094
1.23658e-05
0.00837167
4.45755e-05
0.00855727
8.55076e-05
0.00838012
0.000320666
0.00883233
0.000879552
0.00944581
0.00430741
0.010117
0.00472469
0.0109077
0.00423997
0.0115087
0.00398091
0.0119517
0.00381986
0.0123099
0.00368776
0.00354835
0.0126075
0.00840003
6.26059e-11
0.00840003
3.5506e-10
0.00840003
1.15259e-09
0.00840003
2.85264e-09
0.00840003
6.69238e-09
0.00840003
1.42507e-08
0.00840004
3.11007e-08
0.00840005
6.2855e-08
0.0084001
1.38179e-07
0.00840016
2.69598e-07
0.00840037
6.91801e-07
0.00840111
1.01837e-06
0.00840115
4.62841e-06
0.00840594
5.85481e-06
0.00840267
3.22981e-05
0.00841191
5.78835e-05
0.00839764
0.000287451
0.00844508
0.000722589
0.00878469
0.00358266
0.00950059
0.00410313
0.0102665
0.00357022
0.010819
0.00349399
0.0112717
0.00340935
0.0116775
0.00331423
0.00321897
0.0120381
0.00840003
6.25147e-11
0.00840003
3.5267e-10
0.00840003
1.15318e-09
0.00840003
2.85998e-09
0.00840003
6.82439e-09
0.00840002
1.46773e-08
0.00840001
3.27992e-08
0.0084
6.77237e-08
0.00839995
1.50036e-07
0.00839986
3.02432e-07
0.00839972
6.88259e-07
0.008399
1.30301e-06
0.00839837
3.59115e-06
0.00840089
5.1286e-06
0.00839163
2.45705e-05
0.00841817
3.71526e-05
0.00845459
0.000194702
0.00858709
0.000476639
0.0093744
0.00230497
0.00986756
0.00379857
0.0101012
0.00347804
0.0103972
0.0032653
0.0107733
0.00308496
0.0111522
0.00298516
0.00290795
0.0115122
0.00840003
7.59402e-11
0.00840003
4.2708e-10
0.00840003
1.36455e-09
0.00840003
3.44514e-09
0.00840003
8.14756e-09
0.00840002
1.81216e-08
0.0084
4.01569e-08
0.00839997
8.71476e-08
0.00839988
1.88428e-07
0.00839972
4.10699e-07
0.00839929
8.55488e-07
0.00839838
1.95433e-06
0.00839693
3.574e-06
0.00839085
9.69997e-06
0.00839278
1.42627e-05
0.00837594
4.47362e-05
0.00845041
9.0234e-05
0.00856734
0.000280384
0.00961331
0.00112874
0.00970593
0.00355493
0.00958157
0.00353327
0.00983167
0.0030238
0.0101688
0.00279573
0.0105146
0.00269427
0.00261674
0.0108557
0.00840003
1.09836e-10
0.00840003
3.88734e-10
0.00840003
1.79233e-09
0.00840003
3.21644e-09
0.00840002
1.10252e-08
0.00840002
1.69245e-08
0.00839999
5.84609e-08
0.00839999
7.71297e-08
0.00839983
2.99671e-07
0.00839988
2.95884e-07
0.00839894
1.54004e-06
0.00839988
6.83266e-07
0.00839382
8.28857e-06
0.00840546
-3.08568e-06
0.00836473
4.84564e-05
0.00844981
-4.57048e-05
0.00826303
0.00025467
0.00854512
-1.97911e-05
0.00845069
0.00108529
0.00891413
0.00289367
0.00906806
0.00329966
0.00932353
0.00281096
0.00960851
0.0025702
0.00991811
0.00244166
0.00236152
0.0102196
0.00840003
3.0425e-11
0.00840003
3.81875e-10
0.00840003
7.33487e-10
0.00840003
3.04232e-09
0.00840003
4.32725e-09
0.00840003
1.69111e-08
0.00840005
1.92816e-08
0.00839998
9.03243e-08
0.00840017
6.64739e-08
0.00839963
5.1616e-07
0.00840076
3.77147e-08
0.00839736
2.99217e-06
0.00840492
-2.01195e-06
0.00838124
1.74699e-05
0.00844368
-2.28918e-05
0.0082688
0.000118072
0.00861517
-0.000116093
0.00817513
0.000384625
0.00886015
0.000287431
0.00895561
0.00261415
0.00912353
0.0030356
0.00911481
0.0028693
0.00930406
0.00245989
0.00955063
0.00226146
0.00216898
0.00978936
0.00840003
4.09556e-11
0.00840003
2.26908e-10
0.00840003
7.64866e-10
0.00840003
1.88113e-09
0.00840003
4.68228e-09
0.00840003
1.02589e-08
0.0084
2.36996e-08
0.00840002
5.22759e-08
0.00839986
1.11925e-07
0.00839992
2.55015e-07
0.00839891
5.13878e-07
0.00839961
1.13519e-06
0.0083932
2.37341e-06
0.00840108
4.86646e-06
0.00836185
1.12431e-05
0.00844096
2.34701e-05
0.00824744
6.38657e-05
0.0084714
0.000151148
0.00810568
0.000584546
0.00808909
0.00244063
0.00834617
0.00272403
0.00862792
0.00260172
0.00889509
0.00225948
0.00914156
0.00207162
0.001977
0.00937066
0.00840003
5.51374e-11
0.00840003
1.88146e-10
0.00840003
9.09077e-10
0.00840003
1.5264e-09
0.00840003
6.01902e-09
0.00840003
7.39054e-09
0.0084
3.53794e-08
0.0084
2.85462e-08
0.00839983
2.0505e-07
0.0083999
4.09323e-08
0.00839877
1.23687e-06
0.00839961
-4.10677e-07
0.00839281
7.59461e-06
0.00840084
-5.92233e-06
0.00836043
4.6003e-05
0.00842424
-4.80204e-05
0.00822271
0.000246805
0.00844978
-7.47577e-05
0.00808149
0.000879722
0.00784136
0.00247276
0.00800106
0.00255885
0.00831602
0.00230607
0.00861162
0.0020142
0.00887687
0.00184324
0.00176322
0.00910513
0.00840003
8.33267e-12
0.00840003
1.61504e-10
0.00840003
2.20931e-10
0.00840003
1.38505e-09
0.00840003
8.5922e-10
0.00840003
9.30386e-09
0.00840006
2.94354e-10
0.00839999
5.59778e-08
0.0084002
-2.30139e-08
0.0083997
3.52076e-07
0.00840115
-2.89079e-07
0.00839758
2.34174e-06
0.00840772
-2.82159e-06
0.00838196
1.60813e-05
0.00844959
-2.26853e-05
0.008273
0.000115223
0.0086287
-0.000118521
0.00806942
0.000446848
0.00857514
0.000292222
0.00801937
0.00280007
0.00793134
0.00267626
0.00814003
0.0021404
0.0084859
0.00173703
0.00876435
0.00160362
0.00153554
0.00899663
0.00840003
1.32395e-11
0.00840003
-1.25221e-11
0.00840003
2.09539e-10
0.00840003
-7.98338e-11
0.00840003
1.80808e-09
0.00840004
-1.38641e-09
0.00840001
1.49104e-08
0.00840007
-1.01547e-08
0.00839989
1.11156e-07
0.00840027
-6.84439e-08
0.00839898
8.24867e-07
0.0084017
-6.20613e-07
0.00839168
5.93629e-06
0.0084125
-5.62516e-06
0.00834163
4.07984e-05
0.00849528
-4.37287e-05
0.00810515
0.00024625
0.00862824
-7.9682e-05
0.00792116
0.000922272
0.0075958
0.00282482
0.00780801
0.00256514
0.00819723
0.0018449
0.00852156
0.00148557
0.00877959
0.00135587
0.00129802
0.00899925
0.00840003
-1.41362e-11
0.00840003
2.13912e-12
0.00840003
-2.10208e-10
0.00840003
-4.63155e-12
0.00840003
-1.43359e-09
0.00840003
9.53663e-10
0.00840005
-1.03335e-08
0.00840002
1.59095e-08
0.00840018
-6.60008e-08
0.00839991
1.54574e-07
0.00840106
-4.23926e-07
0.00839864
1.37085e-06
0.00840693
-2.92951e-06
0.00838642
1.12269e-05
0.00844571
-2.1077e-05
0.00829091
9.11836e-05
0.00861566
-9.87293e-05
0.00803145
0.000447348
0.00841221
0.000442484
0.00760253
0.00327151
0.00774813
0.00264557
0.00823512
0.00158039
0.00857963
0.00122883
0.00879241
0.00112155
0.00106137
0.00899039
0.00840003
-6.28539e-12
0.00840003
-1.29817e-10
0.00840003
-1.81356e-10
0.00840003
-1.01999e-09
0.00840003
-1.02158e-09
0.00840004
-5.8701e-09
0.00840003
-2.74902e-09
0.00840008
-3.669e-08
0.0084
1.64812e-08
0.00840034
-2.25665e-07
0.00839958
2.76378e-07
0.00840199
-1.29696e-06
0.00839411
3.0216e-06
0.008412
-7.43255e-06
0.00835145
2.72991e-05
0.00846845
-4.05999e-05
0.00815206
0.000185836
0.00858615
-4.28239e-05
0.00811785
0.000825225
0.00814128
0.00266045
0.00861969
0.00254742
0.00888865
0.00160668
0.0089241
0.00126967
0.00902734
0.00100717
0.000892026
0.00918068
0.00840003
-4.00218e-11
0.00840003
-1.22611e-10
0.00840003
-6.35231e-10
0.00840003
-1.03995e-09
0.00840003
-4.02684e-09
0.00840003
-5.79809e-09
0.00840005
-2.29122e-08
0.00840004
-2.7203e-08
0.00840019
-1.3432e-07
0.00840005
-9.53995e-08
0.00840102
-7.34434e-07
0.00839976
-1.16109e-07
0.00840625
-3.80032e-06
0.00839427
3.39146e-06
0.00843951
-2.01761e-05
0.00833569
4.92246e-05
0.00859069
-8.50068e-05
0.0081603
0.000316972
0.00855303
0.000216222
0.00867176
0.0019627
0.00894582
0.00269307
0.00886998
0.00194026
0.00893218
0.00126135
0.00904546
0.000921113
0.000776028
0.00917607
0.00840003
-1.58789e-11
0.00840003
-9.07834e-11
0.00840003
-2.8467e-10
0.00840003
-7.40196e-10
0.00840003
-1.71214e-09
0.00840002
-3.95175e-09
0.00840001
-8.46223e-09
0.0084
-1.93546e-08
0.0083999
-3.88115e-08
0.00839989
-9.30775e-08
0.00839927
-1.60596e-07
0.00839951
-4.28339e-07
0.00839575
-4.50561e-07
0.00840119
-1.97014e-06
0.00837607
1.26247e-06
0.00842913
-5.33204e-06
0.0083005
2.52323e-05
0.00853434
4.11801e-05
0.00846844
0.000215435
0.00933934
0.00083144
0.00942618
0.00253905
0.0091942
0.00217236
0.00920258
0.0013308
0.00928053
0.000899323
0.000702742
0.00937381
0.00840003
-2.98637e-12
0.00840003
-1.82387e-11
0.00840003
-5.8323e-11
0.00840003
-1.46533e-10
0.00840003
-3.10165e-10
0.00840002
-6.3798e-10
0.00840002
-1.09903e-09
0.0084
-2.02891e-09
0.00839995
-2.33018e-09
0.00839985
-3.3846e-09
0.00839964
5.9339e-09
0.00839915
1.8524e-08
0.00839827
1.31952e-07
0.00839566
2.73168e-07
0.00839316
1.45587e-06
0.00838379
2.65765e-06
0.00838559
1.27515e-05
0.0083628
3.83742e-05
0.00842713
0.000118137
0.00859999
0.000481031
0.0091422
0.00182123
0.00931996
0.00195849
0.00940397
0.00132127
0.00947466
0.00088586
0.00065713
0.00954671
0.00840003
5.45519e-12
0.00840003
2.9871e-11
0.00840003
9.87458e-11
0.00840003
2.4609e-10
0.00840003
6.17203e-10
0.00840003
1.37895e-09
0.00840002
3.29913e-09
0.00840001
7.17519e-09
0.00839998
1.69188e-08
0.00839993
3.61084e-08
0.00839981
8.43704e-08
0.0083996
1.76512e-07
0.00839903
4.14011e-07
0.0083982
8.34581e-07
0.00839585
2.09481e-06
0.00839233
4.04804e-06
0.00838648
1.11378e-05
0.00837462
2.72326e-05
0.00839148
8.27584e-05
0.00846843
0.000274181
0.00885358
0.00124704
0.00923634
0.00147435
0.00941995
0.00116034
0.00951765
0.000824897
0.000605057
0.00959406
0.00840003
1.3656e-11
0.00840003
7.63539e-11
0.00840003
2.37835e-10
0.00840003
6.21979e-10
0.00840003
1.47802e-09
0.00840003
3.48378e-09
0.00840002
7.86416e-09
0.00840001
1.8307e-08
0.00839998
4.00955e-08
0.00839991
9.45959e-08
0.00839976
1.9489e-07
0.00839942
4.77296e-07
0.00839875
8.56632e-07
0.00839696
2.39837e-06
0.00839493
2.76988e-06
0.00838639
1.12222e-05
0.0083861
4.44499e-06
0.00836299
4.03963e-05
0.00839983
1.58037e-05
0.00842241
0.000165237
0.00875919
0.000736917
0.00913781
0.000985598
0.00936136
0.000921704
0.00950286
0.000692731
0.000509883
0.00961194
0.00840003
2.77437e-11
0.00840003
5.04242e-11
0.00840003
4.0518e-10
0.00840003
4.56198e-10
0.00840003
2.58038e-09
0.00840003
2.75008e-09
0.00840002
1.51986e-08
0.00840002
1.48141e-08
0.00839997
9.13271e-08
0.0084
5.9045e-08
0.0083996
5.61697e-07
0.00839994
1.01812e-07
0.00839742
3.18091e-06
0.00840119
-1.57988e-06
0.00838521
1.75502e-05
0.00842169
-2.64991e-05
0.00830914
0.000111233
0.00857453
-0.000234644
0.00822041
0.000346828
0.00859764
-0.000287555
0.00877797
0.000417802
0.00904523
0.000613638
0.00924545
0.000680013
0.00943244
0.000501834
0.000364266
0.00959248
0.00840003
-1.77567e-11
0.00840003
5.85859e-12
0.00840003
-2.20589e-10
0.00840003
3.37583e-12
0.00840004
-1.47839e-09
0.00840004
-3.53039e-10
0.00840006
-9.83137e-09
0.00840008
-3.56229e-09
0.00840023
-6.67284e-08
0.00840029
-8.39549e-09
0.00840129
-4.53432e-07
0.00840122
1.18417e-07
0.00840709
-2.73595e-06
0.00840262
2.50051e-06
0.00843618
-1.62354e-05
0.00837656
3.04929e-05
0.00858705
-0.000101336
0.00807928
0.000261493
0.00870005
-0.000284535
0.00784956
0.000492374
0.00781514
0.000308337
0.00805453
0.000265126
0.00850292
0.000181336
0.0088063
0.000195059
0.000167166
0.00900856
0.00840003
0.00840003
0.00840003
0.00840003
0.00840003
0.00840003
0.00840002
0.00840001
0.00839994
0.00839993
0.00839944
0.00839953
0.00839662
0.00839895
0.00838157
0.00841103
0.00830398
0.0085566
0.00824901
0.00866912
0.00883859
0.00901427
0.00913959
0.0093392
0.00951527
0.00505479
0.00382903
0.002853
0.0021933
0.00108764
0.00175498
-0.000645718
0.00172697
-0.00130786
0.000654174
-0.00189985
0.000584333
-0.00229215
0.000386264
-0.00253716
0.000240004
-0.0026418
0.000100645
-0.00274029
9.53722e-05
-0.00283818
9.51434e-05
-0.00292295
8.25029e-05
-0.00298711
6.20816e-05
-0.00303177
4.33019e-05
-0.00305547
2.28273e-05
-0.00306246
6.48152e-06
-0.00305217
-1.08243e-05
-0.00303624
-1.63243e-05
-0.00301785
-1.84664e-05
-0.00299174
-2.58115e-05
-0.00295227
-3.89493e-05
-0.00289891
-5.23438e-05
-0.00283434
-6.33351e-05
-0.00275996
-7.31607e-05
-0.00267597
-8.23951e-05
-0.00258333
-9.12419e-05
-0.00248238
-9.98364e-05
-0.00237233
-0.000108767
-0.00225425
-0.000116958
-0.0021275
-0.000125409
-0.00199357
-0.000132702
-0.00185403
-0.000139073
-0.00170689
-0.000146757
-0.00154964
-0.000157183
-0.00138328
-0.000166796
-0.00120767
-0.000176178
-0.00102907
-0.000179349
-0.000847473
-0.000182586
-0.00066149
-0.000187085
-0.000472795
-0.000189709
-0.000280372
-0.000193362
-8.2011e-05
-0.000198931
0.000123741
-0.000206159
0.000335228
-0.000211713
0.000544416
-0.00020906
0.000746166
-0.000201261
0.000942089
-0.000194899
0.00113411
-0.000190517
0.0013216
-0.000185304
0.001504
-0.000179985
0.00168084
-0.000174648
0.00185668
-0.000173294
0.00203292
-0.000173759
0.00220388
-0.000168419
0.00236986
-0.000163563
0.00253011
-0.000158418
0.00268526
-0.000153599
0.00283493
-0.000148445
0.00297894
-0.000143803
0.00311655
-0.000138453
0.00324914
-0.000133857
0.00337548
-0.000128549
0.00349623
-0.000123714
0.00361077
-0.000118329
0.00371999
-0.000113222
0.00382355
-0.000107742
0.00392113
-0.000102387
0.0040133
-9.66489e-05
0.00410061