/*--------------------------------*- C++ -*----------------------------------*\
  =========                 |
  \\      /  F ield         | OpenFOAM: The Open Source CFD Toolbox
   \\    /   O peration     | Website:  https://openfoam.org
    \\  /    A nd           | Version:  6
     \\/     M anipulation  |
\*---------------------------------------------------------------------------*/
FoamFile
{
    version     2.0;
    format      ascii;
    class       volVectorField;
    location    "7.5";
    object      U;
}
// * * * * * * * * * * * * * * * * * * * * * * * * * * * * * * * * * * * * * //

dimensions      [0 1 -1 0 0 0 0];

internalField   nonuniform List<vector> 
5250
(
(2.99996 3.88529e-08 0)
(2.99988 2.48949e-07 0)
(2.99968 7.75002e-07 0)
(2.99927 2.11245e-06 0)
(2.99822 4.89826e-06 0)
(2.99608 1.18309e-05 0)
(2.99011 2.55185e-05 0)
(2.9788 6.27796e-05 0)
(2.94337 0.000127984 0)
(2.865 0.000346928 0)
(2.64664 0.000756194 0)
(1.96163 0.00213062 0)
(0.520175 0.00563453 0)
(-0.312395 0.0126977 0)
(0.123049 0.0194365 0)
(0.481346 0.0253243 0)
(0.576394 0.0286852 0)
(0.524867 0.0309999 0)
(0.423216 0.0319602 0)
(0.325844 0.0340594 0)
(0.262861 0.037388 0)
(0.210465 0.0411004 0)
(0.153464 0.0449868 0)
(0.0911535 0.0499722 0)
(0.0431807 0.0574604 0)
(2.99996 1.20156e-07 0)
(2.99988 7.71595e-07 0)
(2.99968 2.3996e-06 0)
(2.99927 6.55638e-06 0)
(2.99822 1.51937e-05 0)
(2.9961 3.68664e-05 0)
(2.99015 7.94548e-05 0)
(2.97887 0.000197523 0)
(2.94359 0.000400462 0)
(2.86552 0.00110566 0)
(2.648 0.00243121 0)
(1.96581 0.00696115 0)
(0.527801 0.0186376 0)
(-0.305758 0.040047 0)
(0.132286 0.0571591 0)
(0.488639 0.0707863 0)
(0.579228 0.0773409 0)
(0.52539 0.0810528 0)
(0.424358 0.0816341 0)
(0.329423 0.0848283 0)
(0.266852 0.0900903 0)
(0.21303 0.0949322 0)
(0.154478 0.0985312 0)
(0.0906004 0.10202 0)
(0.0417649 0.105877 0)
(2.99996 2.08654e-07 0)
(2.99988 1.34202e-06 0)
(2.99968 4.17153e-06 0)
(2.99928 1.14227e-05 0)
(2.99824 2.64735e-05 0)
(2.99613 6.45088e-05 0)
(2.99023 0.000139058 0)
(2.97904 0.000348838 0)
(2.94406 0.000704711 0)
(2.8667 0.00197523 0)
(2.65115 0.00437701 0)
(1.9759 0.012686 0)
(0.547347 0.0342037 0)
(-0.285866 0.0710623 0)
(0.147155 0.0968006 0)
(0.49769 0.116837 0)
(0.58219 0.127723 0)
(0.525322 0.135086 0)
(0.425218 0.138849 0)
(0.334203 0.145924 0)
(0.27262 0.155004 0)
(0.216989 0.163001 0)
(0.156316 0.168751 0)
(0.0903414 0.173109 0)
(0.0400678 0.175644 0)
(2.99996 3.03092e-07 0)
(2.99988 1.95057e-06 0)
(2.99969 6.06318e-06 0)
(2.99929 1.66204e-05 0)
(2.99826 3.85383e-05 0)
(2.99618 9.4099e-05 0)
(2.99036 0.000203 0)
(2.9793 0.000511 0)
(2.94482 0.00103231 0)
(2.86861 0.00290666 0)
(2.65629 0.00646569 0)
(1.99251 0.0187857 0)
(0.579283 0.0504994 0)
(-0.254009 0.10281 0)
(0.16714 0.136233 0)
(0.508963 0.161092 0)
(0.586978 0.176276 0)
(0.527622 0.188024 0)
(0.429126 0.196644 0)
(0.342424 0.208508 0)
(0.281832 0.221996 0)
(0.224425 0.234196 0)
(0.161501 0.243849 0)
(0.0928694 0.251192 0)
(0.0398183 0.254959 0)
(2.99996 4.01025e-07 0)
(2.99988 2.58148e-06 0)
(2.99969 8.02457e-06 0)
(2.9993 2.20067e-05 0)
(2.99829 5.1045e-05 0)
(2.99625 0.000124721 0)
(2.99054 0.000269233 0)
(2.97967 0.000677771 0)
(2.94588 0.00137175 0)
(2.87127 0.00385595 0)
(2.66346 0.00859364 0)
(2.01555 0.0249027 0)
(0.623331 0.0665545 0)
(-0.210758 0.134861 0)
(0.191855 0.176613 0)
(0.521981 0.205161 0)
(0.593321 0.223875 0)
(0.532376 0.239695 0)
(0.436159 0.253478 0)
(0.353701 0.270351 0)
(0.294356 0.288549 0)
(0.235692 0.305445 0)
(0.170786 0.319735 0)
(0.0993042 0.331151 0)
(0.0418719 0.33737 0)
(2.99996 5.00369e-07 0)
(2.99989 3.22138e-06 0)
(2.9997 1.00143e-05 0)
(2.99932 2.74695e-05 0)
(2.99833 6.37354e-05 0)
(2.99633 0.00015576 0)
(2.99077 0.000336446 0)
(2.98014 0.000846085 0)
(2.94723 0.00171646 0)
(2.87468 0.00480674 0)
(2.67263 0.0107288 0)
(2.04472 0.0309501 0)
(0.67952 0.0822195 0)
(-0.155949 0.167508 0)
(0.221243 0.217969 0)
(0.536056 0.249637 0)
(0.60113 0.271128 0)
(0.539876 0.290572 0)
(0.447065 0.309651 0)
(0.36901 0.332203 0)
(0.310888 0.356109 0)
(0.251227 0.378912 0)
(0.184393 0.399237 0)
(0.109255 0.416062 0)
(0.0458983 0.425667 0)
(2.99996 5.98756e-07 0)
(2.99989 3.85474e-06 0)
(2.99971 1.1983e-05 0)
(2.99934 3.28692e-05 0)
(2.99838 7.62541e-05 0)
(2.99644 0.000186357 0)
(2.99104 0.000402377 0)
(2.98072 0.00101355 0)
(2.94889 0.00204462 0)
(2.87883 0.00575427 0)
(2.68379 0.0128182 0)
(2.07989 0.0367967 0)
(0.748295 0.0979145 0)
(-0.0888985 0.20125 0)
(0.255708 0.260087 0)
(0.551448 0.294742 0)
(0.610241 0.318177 0)
(0.55034 0.340718 0)
(0.462482 0.365178 0)
(0.389645 0.394073 0)
(0.333394 0.424793 0)
(0.273493 0.455297 0)
(0.204936 0.48436 0)
(0.12486 0.510215 0)
(0.0528353 0.526418 0)
(2.99996 6.95661e-07 0)
(2.99989 4.48141e-06 0)
(2.99972 1.39242e-05 0)
(2.99936 3.82214e-05 0)
(2.99844 8.85876e-05 0)
(2.99657 0.000216929 0)
(2.99137 0.00046807 0)
(2.98139 0.00116949 0)
(2.95084 0.00245373 0)
(2.8837 0.00643681 0)
(2.69684 0.0156116 0)
(2.12095 0.0395622 0)
(0.834208 0.113616 0)
(-0.00638051 0.235909 0)
(0.297029 0.303634 0)
(0.569507 0.339224 0)
(0.621291 0.363865 0)
(0.564636 0.389253 0)
(0.483817 0.419605 0)
(0.417084 0.455745 0)
(0.363744 0.494595 0)
(0.305332 0.534695 0)
(0.236998 0.576368 0)
(0.151896 0.618186 0)
(0.0664817 0.649665 0)
(2.99997 7.9681e-07 0)
(2.9999 5.13583e-06 0)
(2.99973 1.59522e-05 0)
(2.99939 4.38157e-05 0)
(2.9985 0.000101505 0)
(2.99671 0.000248926 0)
(2.99174 0.000537273 0)
(2.98223 0.00132694 0)
(2.9529 0.00291389 0)
(2.88985 0.0070615 0)
(2.70973 0.0186016 0)
(2.16423 0.0417252 0)
(0.938003 0.12851 0)
(0.0879458 0.271986 0)
(0.342209 0.351703 0)
(0.588184 0.380942 0)
(0.634356 0.406195 0)
(0.583565 0.434684 0)
(0.512399 0.471884 0)
(0.453209 0.516302 0)
(0.404397 0.563608 0)
(0.351147 0.615295 0)
(0.28865 0.675967 0)
(0.202419 0.745697 0)
(0.0966765 0.817743 0)
(2.99997 9.07212e-07 0)
(2.9999 5.84275e-06 0)
(2.99975 1.81562e-05 0)
(2.99942 4.981e-05 0)
(2.99858 0.00011548 0)
(2.99688 0.000282318 0)
(2.99216 0.000609988 0)
(2.9832 0.00150156 0)
(2.95521 0.00326223 0)
(2.89683 0.00804982 0)
(2.72397 0.0202667 0)
(2.21257 0.0481378 0)
(1.06107 0.14071 0)
(0.200727 0.308253 0)
(0.389786 0.401589 0)
(0.599885 0.420681 0)
(0.648442 0.445358 0)
(0.607495 0.476892 0)
(0.548984 0.520874 0)
(0.498046 0.573213 0)
(0.456458 0.628573 0)
(0.416956 0.694218 0)
(0.373149 0.780169 0)
(0.305587 0.896022 0)
(0.172811 1.08144 0)
(2.99997 1.02951e-06 0)
(2.99991 6.62239e-06 0)
(2.99976 2.0591e-05 0)
(2.99945 5.63879e-05 0)
(2.99866 0.000130838 0)
(2.99706 0.000318419 0)
(2.99264 0.00068855 0)
(2.98424 0.00169153 0)
(2.9579 0.00357765 0)
(2.90403 0.0092162 0)
(2.74088 0.0213812 0)
(2.26744 0.0563501 0)
(1.19368 0.151297 0)
(0.329474 0.343822 0)
(0.441171 0.448623 0)
(0.609108 0.459402 0)
(0.664124 0.481012 0)
(0.636228 0.517052 0)
(0.592307 0.564635 0)
(0.551052 0.620933 0)
(0.521948 0.684724 0)
(0.507653 0.765123 0)
(0.506782 0.871045 0)
(0.538843 1.01199 0)
(0.57679 1.21674 0)
(2.99997 1.17131e-06 0)
(2.99992 7.53435e-06 0)
(2.99978 2.34317e-05 0)
(2.99949 6.41669e-05 0)
(2.99876 0.000148971 0)
(2.99728 0.000362345 0)
(2.99317 0.000784224 0)
(2.98539 0.00192279 0)
(2.96096 0.00405891 0)
(2.91161 0.0104798 0)
(2.76032 0.0238645 0)
(2.32798 0.0642903 0)
(1.3324 0.167005 0)
(0.467378 0.388198 0)
(0.492304 0.481872 0)
(0.612519 0.495942 0)
(0.681309 0.514118 0)
(0.668602 0.551842 0)
(0.636754 0.599698 0)
(0.609896 0.657949 0)
(0.60051 0.728664 0)
(0.61421 0.816379 0)
(0.651136 0.923568 0)
(0.742526 1.05096 0)
(0.877734 1.1844 0)
(2.99997 1.32726e-06 0)
(2.99992 8.5412e-06 0)
(2.9998 2.65667e-05 0)
(2.99954 7.28165e-05 0)
(2.99887 0.00016918 0)
(2.99752 0.000412035 0)
(2.99378 0.00089266 0)
(2.98673 0.00219864 0)
(2.96444 0.00458642 0)
(2.92043 0.0119909 0)
(2.78232 0.0272908 0)
(2.39673 0.0730865 0)
(1.49459 0.187719 0)
(0.606351 0.444199 0)
(0.53879 0.504535 0)
(0.62781 0.525827 0)
(0.699764 0.541152 0)
(0.701775 0.577338 0)
(0.683735 0.626001 0)
(0.673271 0.685998 0)
(0.682366 0.7578 0)
(0.715702 0.840372 0)
(0.773238 0.931996 0)
(0.874352 1.02864 0)
(1.01446 1.09972 0)
(2.99998 1.47422e-06 0)
(2.99993 9.50201e-06 0)
(2.99982 2.95631e-05 0)
(2.99959 8.12512e-05 0)
(2.999 0.000189194 0)
(2.99779 0.000462696 0)
(2.99448 0.00100659 0)
(2.98819 0.00248178 0)
(2.96846 0.00523771 0)
(2.93038 0.0133596 0)
(2.80746 0.031332 0)
(2.47476 0.0810451 0)
(1.68458 0.205497 0)
(0.75392 0.503708 0)
(0.578028 0.530941 0)
(0.646848 0.54667 0)
(0.720404 0.559192 0)
(0.738246 0.59534 0)
(0.733342 0.64505 0)
(0.736216 0.703548 0)
(0.757555 0.769829 0)
(0.800748 0.840641 0)
(0.8657 0.912765 0)
(0.962374 0.981319 0)
(1.08463 1.02509 0)
(2.99998 1.53576e-06 0)
(2.99994 9.89838e-06 0)
(2.99984 3.08037e-05 0)
(2.99965 8.46768e-05 0)
(2.99914 0.000197324 0)
(2.9981 0.000482511 0)
(2.99527 0.00105026 0)
(2.98994 0.0026024 0)
(2.97279 0.00536177 0)
(2.94201 0.0145034 0)
(2.83468 0.0313798 0)
(2.55849 0.0907467 0)
(1.88854 0.218821 0)
(0.901964 0.565568 0)
(0.608398 0.563308 0)
(0.667706 0.565999 0)
(0.746003 0.574812 0)
(0.779216 0.609487 0)
(0.78408 0.657653 0)
(0.794505 0.711505 0)
(0.822177 0.768913 0)
(0.868842 0.827244 0)
(0.93378 0.883158 0)
(1.02083 0.931994 0)
(1.12603 0.961366 0)
(2.99998 1.48619e-06 0)
(2.99995 9.57155e-06 0)
(2.99987 2.9781e-05 0)
(2.9997 8.17853e-05 0)
(2.99927 0.000190299 0)
(2.9984 0.00046499 0)
(2.99604 0.00100538 0)
(2.99146 0.00251075 0)
(2.97762 0.00501262 0)
(2.95176 0.0145694 0)
(2.86635 0.027963 0)
(2.65149 0.0926632 0)
(2.1161 0.214941 0)
(1.08493 0.588853 0)
(0.666643 0.59756 0)
(0.708774 0.597119 0)
(0.786198 0.597906 0)
(0.828713 0.625125 0)
(0.837814 0.667101 0)
(0.849587 0.713787 0)
(0.877776 0.761589 0)
(0.923489 0.808366 0)
(0.984891 0.851574 0)
(1.06253 0.88719 0)
(1.15323 0.909018 0)
(2.99999 1.34819e-06 0)
(2.99996 8.67728e-06 0)
(2.99989 2.70004e-05 0)
(2.99975 7.40338e-05 0)
(2.9994 0.000172306 0)
(2.99868 0.000419323 0)
(2.99677 0.000909259 0)
(2.99297 0.0022203 0)
(2.98212 0.00464231 0)
(2.9607 0.0121934 0)
(2.89563 0.0251949 0)
(2.73644 0.0737651 0)
(2.33156 0.172459 0)
(1.30786 0.491391 0)
(0.774258 0.597326 0)
(0.774799 0.627814 0)
(0.836845 0.6313 0)
(0.884555 0.646924 0)
(0.895197 0.67827 0)
(0.904234 0.715461 0)
(0.928587 0.753193 0)
(0.96976 0.789299 0)
(1.0249 0.821471 0)
(1.09332 0.847436 0)
(1.17172 0.862854 0)
(2.99999 1.17204e-06 0)
(2.99997 7.53224e-06 0)
(2.99991 2.34461e-05 0)
(2.9998 6.40875e-05 0)
(2.99951 0.000149294 0)
(2.99893 0.000360353 0)
(2.99737 0.00078729 0)
(2.99428 0.00187485 0)
(2.98535 0.00403297 0)
(2.96847 0.00967831 0)
(2.91478 0.0220138 0)
(2.78742 0.0539839 0)
(2.45179 0.131707 0)
(1.50437 0.354715 0)
(0.858216 0.617443 0)
(0.814751 0.666568 0)
(0.865981 0.67796 0)
(0.921799 0.677979 0)
(0.942185 0.694421 0)
(0.952425 0.719743 0)
(0.973384 0.746703 0)
(1.00907 0.772074 0)
(1.05782 0.794181 0)
(1.11738 0.811809 0)
(1.18394 0.820548 0)
(2.99999 1.02224e-06 0)
(2.99997 6.57069e-06 0)
(2.99993 2.04511e-05 0)
(2.99984 5.59262e-05 0)
(2.99961 0.000130222 0)
(2.99914 0.000314781 0)
(2.99788 0.000685941 0)
(2.99542 0.0016424 0)
(2.98816 0.00350281 0)
(2.97529 0.00864204 0)
(2.93059 0.0187749 0)
(2.83466 0.0483607 0)
(2.55923 0.117237 0)
(1.74169 0.318796 0)
(1.01457 0.667345 0)
(0.84643 0.701054 0)
(0.879143 0.712301 0)
(0.934877 0.702464 0)
(0.97084 0.706333 0)
(0.988199 0.721354 0)
(1.00869 0.73905 0)
(1.04042 0.755304 0)
(1.08388 0.769228 0)
(1.13508 0.777806 0)
(1.19056 0.779178 0)
(2.99999 8.86241e-07 0)
(2.99998 5.7002e-06 0)
(2.99994 1.77409e-05 0)
(2.99987 4.85837e-05 0)
(2.99969 0.000113115 0)
(2.99932 0.000274377 0)
(2.99834 0.000596176 0)
(2.99641 0.00144154 0)
(2.99077 0.00303787 0)
(2.98081 0.00786384 0)
(2.94636 0.0156847 0)
(2.87552 0.0460203 0)
(2.66646 0.10257 0)
(2.02881 0.302135 0)
(1.22192 0.697063 0)
(0.899791 0.730717 0)
(0.905029 0.729911 0)
(0.950025 0.71732 0)
(0.993974 0.712483 0)
(1.01747 0.718829 0)
(1.03777 0.728935 0)
(1.06636 0.738194 0)
(1.10329 0.744203 0)
(1.14542 0.743651 0)
(1.19151 0.737234 0)
(2.99999 7.36314e-07 0)
(2.99998 4.73376e-06 0)
(2.99996 1.47339e-05 0)
(2.9999 4.03144e-05 0)
(2.99976 9.3856e-05 0)
(2.99948 0.000227211 0)
(2.99874 0.000493771 0)
(2.99727 0.00118866 0)
(2.99315 0.00250603 0)
(2.98546 0.00641443 0)
(2.9612 0.0128059 0)
(2.91202 0.0362581 0)
(2.76765 0.0824607 0)
(2.34486 0.230285 0)
(1.53637 0.584378 0)
(1.02853 0.726045 0)
(0.970543 0.735544 0)
(0.990226 0.729688 0)
(1.02689 0.718428 0)
(1.04975 0.716966 0)
(1.06713 0.719541 0)
(1.08947 0.720881 0)
(1.11728 0.716785 0)
(1.15004 0.707657 0)
(1.18775 0.694222 0)
(3 5.85302e-07 0)
(2.99999 3.75691e-06 0)
(2.99997 1.16958e-05 0)
(2.99993 3.19056e-05 0)
(2.99982 7.42652e-05 0)
(2.99961 0.00017856 0)
(2.99905 0.000388728 0)
(2.99793 0.00092107 0)
(2.99484 0.00195608 0)
(2.98909 0.00477996 0)
(2.97049 0.00991217 0)
(2.93703 0.0255372 0)
(2.82186 0.0580375 0)
(2.52179 0.152891 0)
(1.84031 0.392024 0)
(1.13138 0.732911 0)
(1.00273 0.753465 0)
(1.01551 0.748954 0)
(1.04979 0.730578 0)
(1.07676 0.718691 0)
(1.09181 0.711136 0)
(1.1062 0.701094 0)
(1.12517 0.686809 0)
(1.15091 0.670067 0)
(1.18226 0.651352 0)
(3 4.6198e-07 0)
(2.99999 2.96434e-06 0)
(2.99998 9.23023e-06 0)
(2.99994 2.51637e-05 0)
(2.99987 5.85864e-05 0)
(2.99971 0.000140646 0)
(2.99929 0.000306396 0)
(2.99845 0.000723364 0)
(2.99615 0.0015379 0)
(2.99185 0.00374856 0)
(2.97805 0.00762026 0)
(2.9539 0.0209321 0)
(2.86886 0.0414684 0)
(2.65891 0.129509 0)
(2.14722 0.305299 0)
(1.31152 0.739237 0)
(1.03133 0.787976 0)
(1.02732 0.772817 0)
(1.05781 0.747841 0)
(1.08897 0.720712 0)
(1.10386 0.69863 0)
(1.11346 0.676846 0)
(1.12795 0.654765 0)
(1.14968 0.632714 0)
(1.17749 0.61102 0)
(3 3.61438e-07 0)
(2.99999 2.31991e-06 0)
(2.99998 7.22116e-06 0)
(2.99996 1.96885e-05 0)
(2.9999 4.58315e-05 0)
(2.99978 0.000110035 0)
(2.99948 0.000239734 0)
(2.99886 0.000565806 0)
(2.9972 0.00120332 0)
(2.99396 0.00292021 0)
(2.98453 0.00597965 0)
(2.96615 0.016005 0)
(2.91043 0.0322246 0)
(2.77638 0.0955819 0)
(2.43446 0.222731 0)
(1.58618 0.605774 0)
(1.12096 0.776701 0)
(1.05293 0.775067 0)
(1.06698 0.748764 0)
(1.09116 0.711997 0)
(1.10691 0.677954 0)
(1.11625 0.648516 0)
(1.12949 0.621891 0)
(1.14993 0.597557 0)
(1.17654 0.575379 0)
(3 2.52829e-07 0)
(3 1.84157e-06 0)
(2.99999 5.28208e-06 0)
(2.99997 1.5469e-05 0)
(2.99993 3.3476e-05 0)
(2.99984 8.66116e-05 0)
(2.99962 0.000173703 0)
(2.99918 0.000448296 0)
(2.99798 0.000858808 0)
(2.99567 0.00231669 0)
(2.98878 0.00421767 0)
(2.97643 0.0123967 0)
(2.93504 0.0216332 0)
(2.84272 0.0708993 0)
(2.59119 0.139153 0)
(1.87526 0.423721 0)
(1.23695 0.763444 0)
(1.05813 0.776671 0)
(1.05752 0.736299 0)
(1.08023 0.692812 0)
(1.10061 0.651785 0)
(1.11495 0.617902 0)
(1.13097 0.589742 0)
(1.15298 0.565824 0)
(1.18034 0.545147 0)
(3 1.80599e-07 0)
(3 1.31842e-06 0)
(2.99999 3.77283e-06 0)
(2.99998 1.10557e-05 0)
(2.99995 2.38361e-05 0)
(2.99988 6.16263e-05 0)
(2.99974 0.000122923 0)
(2.99938 0.000316798 0)
(2.99865 0.000602832 0)
(2.99664 0.00162553 0)
(2.99284 0.00292921 0)
(2.98096 0.00875175 0)
(2.95962 0.014469 0)
(2.8867 0.0489793 0)
(2.71461 0.0985355 0)
(2.26153 0.289566 0)
(1.43164 0.686034 0)
(1.07188 0.757809 0)
(1.03889 0.717033 0)
(1.06521 0.672063 0)
(1.09153 0.626766 0)
(1.11355 0.588971 0)
(1.13536 0.560658 0)
(1.1609 0.538576 0)
(1.18998 0.520304 0)
(3 1.4861e-07 0)
(3 8.50658e-07 0)
(2.99999 2.85716e-06 0)
(2.99998 7.27415e-06 0)
(2.99996 1.80831e-05 0)
(2.99991 4.02714e-05 0)
(2.99981 9.45927e-05 0)
(2.99954 0.00020306 0)
(2.99901 0.00047687 0)
(2.99753 0.00100714 0)
(2.99469 0.00242242 0)
(2.98616 0.00507317 0)
(2.97028 0.0127936 0)
(2.91892 0.0273016 0)
(2.79986 0.0727941 0)
(2.48662 0.177118 0)
(1.66017 0.474866 0)
(1.10157 0.701176 0)
(1.00148 0.681532 0)
(1.03083 0.638613 0)
(1.06529 0.594553 0)
(1.10108 0.558312 0)
(1.13537 0.533436 0)
(1.16811 0.515236 0)
(1.20069 0.500269 0)
(3 1.07525e-07 0)
(3 6.1505e-07 0)
(3 2.0679e-06 0)
(2.99999 5.26028e-06 0)
(2.99997 1.30918e-05 0)
(2.99994 2.91645e-05 0)
(2.99986 6.85531e-05 0)
(2.99967 0.000147412 0)
(2.99928 0.000345841 0)
(2.9982 0.00073299 0)
(2.99619 0.0017527 0)
(2.98973 0.00369251 0)
(2.97914 0.00911098 0)
(2.93864 0.0196788 0)
(2.85661 0.0513102 0)
(2.61333 0.120826 0)
(1.89342 0.338782 0)
(1.16882 0.688818 0)
(0.933598 0.660172 0)
(0.968255 0.60208 0)
(1.02265 0.554482 0)
(1.07881 0.522205 0)
(1.12901 0.503198 0)
(1.17089 0.490793 0)
(1.20799 0.480505 0)
(3 8.37757e-08 0)
(3 4.18749e-07 0)
(3 1.54569e-06 0)
(2.99999 3.61643e-06 0)
(2.99998 9.77114e-06 0)
(2.99995 1.98623e-05 0)
(2.9999 5.1277e-05 0)
(2.99975 9.81382e-05 0)
(2.99946 0.000259473 0)
(2.99865 0.000468191 0)
(2.99713 0.00132987 0)
(2.99238 0.0021363 0)
(2.98434 0.00736535 0)
(2.9553 0.00944457 0)
(2.89744 0.0425427 0)
(2.72665 0.0657192 0)
(2.23014 0.241099 0)
(1.38196 0.538053 0)
(0.914499 0.59183 0)
(0.918759 0.556492 0)
(0.984404 0.519355 0)
(1.05905 0.490649 0)
(1.12331 0.47574 0)
(1.17279 0.4679 0)
(1.21302 0.46148 0)
(3 5.28397e-08 0)
(3 3.01942e-07 0)
(3 1.01721e-06 0)
(2.99999 2.59308e-06 0)
(2.99999 6.47755e-06 0)
(2.99997 1.4509e-05 0)
(2.99992 3.41583e-05 0)
(2.99983 7.41084e-05 0)
(2.99957 0.000172265 0)
(2.99906 0.000370338 0)
(2.99755 0.000850874 0)
(2.99487 0.00185369 0)
(2.98543 0.00420425 0)
(2.96941 0.00900529 0)
(2.91027 0.0205748 0)
(2.77372 0.0519465 0)
(2.40557 0.108249 0)
(1.45248 0.309536 0)
(0.852128 0.494951 0)
(0.821426 0.494691 0)
(0.907554 0.477138 0)
(1.00597 0.4567 0)
(1.0929 0.448899 0)
(1.15532 0.446697 0)
(1.20143 0.443735 0)
(3 2.26892e-08 0)
(3 1.89793e-07 0)
(3 4.98865e-07 0)
(3 1.58285e-06 0)
(2.99999 3.15919e-06 0)
(2.99997 8.93329e-06 0)
(2.99994 1.63271e-05 0)
(2.99986 4.71581e-05 0)
(2.99969 8.06968e-05 0)
(2.9992 0.000252494 0)
(2.99835 0.00038857 0)
(2.99522 0.00145622 0)
(2.99057 0.00163513 0)
(2.96985 0.00886752 0)
(2.93686 0.00699895 0)
(2.80377 0.048212 0)
(2.46099 0.0616024 0)
(1.67946 0.218034 0)
(0.829384 0.456287 0)
(0.698553 0.434875 0)
(0.799807 0.413315 0)
(0.925674 0.405309 0)
(1.03914 0.410919 0)
(1.11546 0.417366 0)
(1.16752 0.418964 0)
(3 1.57834e-08 0)
(3 9.04157e-08 0)
(3 3.00649e-07 0)
(3 7.5947e-07 0)
(2.99999 1.8546e-06 0)
(2.99998 4.04128e-06 0)
(2.99995 9.35761e-06 0)
(2.99987 1.9322e-05 0)
(2.99973 4.64255e-05 0)
(2.9993 9.17986e-05 0)
(2.99855 0.000254554 0)
(2.9959 0.000437963 0)
(2.992 0.00161061 0)
(2.97422 0.00280673 0)
(2.9475 0.0105842 0)
(2.83118 0.0219853 0)
(2.5418 0.0744256 0)
(1.86179 0.180294 0)
(0.835983 0.461853 0)
(0.553456 0.385027 0)
(0.687898 0.34213 0)
(0.852447 0.347424 0)
(0.986893 0.365625 0)
(1.06884 0.379009 0)
(1.12193 0.384426 0)
(3 1.3453e-08 0)
(3 7.75087e-08 0)
(3 2.57947e-07 0)
(3 6.54141e-07 0)
(2.99999 1.59118e-06 0)
(2.99998 3.49261e-06 0)
(2.99995 7.94445e-06 0)
(2.99989 1.6624e-05 0)
(2.99975 3.78183e-05 0)
(2.99937 7.64236e-05 0)
(2.99863 0.000190882 0)
(2.99638 0.00032126 0)
(2.99262 0.00118834 0)
(2.97779 0.00159958 0)
(2.95479 0.00833463 0)
(2.85909 0.0140508 0)
(2.62835 0.0630283 0)
(2.0561 0.144127 0)
(0.900115 0.411864 0)
(0.453698 0.335001 0)
(0.618896 0.300229 0)
(0.815621 0.312754 0)
(0.953188 0.3308 0)
(1.02808 0.343063 0)
(1.07496 0.348848 0)
(3 1.48868e-08 0)
(3 8.56088e-08 0)
(3 2.87215e-07 0)
(3 7.30617e-07 0)
(2.99999 1.80474e-06 0)
(2.99998 4.00584e-06 0)
(2.99996 9.2907e-06 0)
(2.9999 1.98856e-05 0)
(2.99977 4.56095e-05 0)
(2.99943 9.60246e-05 0)
(2.99875 0.000221195 0)
(2.99675 0.00045776 0)
(2.9931 0.00109954 0)
(2.98059 0.00212186 0)
(2.95915 0.00614706 0)
(2.87877 0.0112507 0)
(2.68657 0.0389303 0)
(2.19649 0.0882294 0)
(0.956847 0.259227 0)
(0.381576 0.264531 0)
(0.565499 0.278894 0)
(0.776532 0.294725 0)
(0.910564 0.306027 0)
(0.979185 0.313069 0)
(1.02122 0.317187 0)
(3 1.99748e-08 0)
(3 9.26026e-08 0)
(3 3.6437e-07 0)
(3 8.16991e-07 0)
(2.99999 2.36502e-06 0)
(2.99998 4.60344e-06 0)
(2.99997 1.2924e-05 0)
(2.99991 2.31673e-05 0)
(2.99981 6.76842e-05 0)
(2.99951 0.000108114 0)
(2.99893 0.000348336 0)
(2.99712 0.00044715 0)
(2.99407 0.00178961 0)
(2.9823 0.00136331 0)
(2.96336 0.00959581 0)
(2.88834 0.00272735 0)
(2.71195 0.0483929 0)
(2.2485 0.0423866 0)
(1.01713 0.174724 0)
(0.359043 0.247881 0)
(0.529478 0.288373 0)
(0.729849 0.284553 0)
(0.862327 0.282045 0)
(0.928567 0.283187 0)
(0.967808 0.285902 0)
(3 1.50809e-08 0)
(3 8.58229e-08 0)
(3 2.90719e-07 0)
(3 7.44401e-07 0)
(3 1.88118e-06 0)
(2.99999 4.28128e-06 0)
(2.99997 1.01372e-05 0)
(2.99994 2.25407e-05 0)
(2.99984 5.08348e-05 0)
(2.99965 0.000115946 0)
(2.99903 0.000233863 0)
(2.99799 0.000552844 0)
(2.99386 0.000982083 0)
(2.9876 0.00224564 0)
(2.96018 0.00401533 0)
(2.91142 0.00864864 0)
(2.73514 0.0192463 0)
(2.24952 0.047247 0)
(1.23061 0.116912 0)
(0.450866 0.235234 0)
(0.541386 0.282746 0)
(0.697694 0.27368 0)
(0.83108 0.262931 0)
(0.897312 0.259472 0)
(0.932279 0.260235 0)
(3 7.67489e-09 0)
(3 6.51285e-08 0)
(3 1.68568e-07 0)
(3 5.44747e-07 0)
(3 1.05701e-06 0)
(2.99999 3.13522e-06 0)
(2.99998 5.30743e-06 0)
(2.99994 1.71642e-05 0)
(2.99988 2.33859e-05 0)
(2.99965 9.67282e-05 0)
(2.99929 7.99058e-05 0)
(2.99775 0.000537313 0)
(2.99555 9.38256e-05 0)
(2.985 0.00296889 0)
(2.96917 -0.00147215 0)
(2.90238 0.0150291 0)
(2.74816 -0.0073792 0)
(2.33765 0.0508829 0)
(1.19613 0.0729595 0)
(0.477174 0.208842 0)
(0.51542 0.253001 0)
(0.65438 0.257587 0)
(0.790594 0.247693 0)
(0.862941 0.242394 0)
(0.899937 0.241604 0)
(3 1.0332e-08 0)
(3 4.71784e-08 0)
(3 1.89063e-07 0)
(3 4.1474e-07 0)
(3 1.28372e-06 0)
(2.99999 2.31848e-06 0)
(2.99998 7.47634e-06 0)
(2.99995 1.15854e-05 0)
(2.9999 4.22012e-05 0)
(2.9997 4.83248e-05 0)
(2.9994 0.000242116 0)
(2.99798 0.000159843 0)
(2.99604 0.0014285 0)
(2.98613 0.000242349 0)
(2.97175 0.00841482 0)
(2.90839 -9.07489e-05 0)
(2.76442 0.043255 0)
(2.37684 0.026627 0)
(1.26608 0.132375 0)
(0.520956 0.232476 0)
(0.493943 0.243973 0)
(0.617515 0.238615 0)
(0.754646 0.224474 0)
(0.837241 0.219165 0)
(0.88043 0.219476 0)
(3 6.82435e-09 0)
(3 3.89399e-08 0)
(3 1.31876e-07 0)
(3 3.48235e-07 0)
(3 8.59818e-07 0)
(2.99999 2.1165e-06 0)
(2.99999 4.77901e-06 0)
(2.99997 1.12942e-05 0)
(2.99991 2.58789e-05 0)
(2.99981 5.51336e-05 0)
(2.99938 0.000141585 0)
(2.99878 0.00028113 0)
(2.99557 0.000753411 0)
(2.99131 0.00145918 0)
(2.9685 0.00386726 0)
(2.93221 0.00780087 0)
(2.78063 0.0193338 0)
(2.37702 0.0469063 0)
(1.47229 0.112199 0)
(0.589627 0.250758 0)
(0.480254 0.243801 0)
(0.584975 0.218343 0)
(0.726588 0.19669 0)
(0.820449 0.191751 0)
(0.868496 0.193175 0)
(3 2.31946e-09 0)
(3 1.60372e-08 0)
(3 4.75198e-08 0)
(3 1.4497e-07 0)
(3 3.08185e-07 0)
(2.99999 9.19711e-07 0)
(2.99999 1.86799e-06 0)
(2.99997 5.66427e-06 0)
(2.99994 1.15454e-05 0)
(2.99979 3.75284e-05 0)
(2.99958 7.69121e-05 0)
(2.9985 0.000243388 0)
(2.99706 0.000483435 0)
(2.98894 0.00150098 0)
(2.97758 0.00297112 0)
(2.92273 0.00829172 0)
(2.80257 0.0190295 0)
(2.46179 0.0449965 0)
(1.48159 0.123264 0)
(0.634091 0.278809 0)
(0.433695 0.238856 0)
(0.550861 0.188537 0)
(0.715407 0.16457 0)
(0.826428 0.163007 0)
(0.877172 0.165756 0)
(3 -9.6414e-11 0)
(3 -1.19771e-09 0)
(3 -6.90669e-10 0)
(3 -1.08084e-08 0)
(3 3.76347e-08 0)
(3 -4.8672e-08 0)
(2.99999 5.11078e-07 0)
(2.99998 8.50727e-07 0)
(2.99993 5.88096e-06 0)
(2.99987 1.29099e-05 0)
(2.99955 5.73405e-05 0)
(2.99912 0.000120503 0)
(2.99667 0.000459443 0)
(2.99352 0.000928684 0)
(2.97483 0.00316094 0)
(2.94724 0.00657638 0)
(2.81635 0.0204847 0)
(2.48319 0.0537646 0)
(1.68286 0.136618 0)
(0.665339 0.341143 0)
(0.350914 0.244459 0)
(0.496778 0.16168 0)
(0.699763 0.135321 0)
(0.828165 0.134572 0)
(0.87986 0.136542 0)
(3 -2.19575e-09 0)
(3 -1.39467e-08 0)
(3 -4.40643e-08 0)
(3 -1.17078e-07 0)
(3 -2.88436e-07 0)
(3 -5.9167e-07 0)
(2.99999 -1.583e-06 0)
(2.99997 -2.66639e-06 0)
(2.99994 -6.06616e-06 0)
(2.99983 -9.41612e-06 0)
(2.99967 -1.76167e-05 0)
(2.99884 1.07331e-05 0)
(2.99776 3.63862e-05 0)
(2.99139 0.00054108 0)
(2.98276 0.00118136 0)
(2.93947 0.00600873 0)
(2.84765 0.0139604 0)
(2.57973 0.0503273 0)
(1.77723 0.148206 0)
(0.766016 0.367313 0)
(0.322232 0.232614 0)
(0.500701 0.147175 0)
(0.729644 0.124633 0)
(0.861123 0.119207 0)
(0.904896 0.115807 0)
(3 -4.97898e-09 0)
(3 -2.84141e-08 0)
(3 -9.74485e-08 0)
(3 -2.52936e-07 0)
(3 -6.48529e-07 0)
(2.99999 -1.52683e-06 0)
(2.99999 -3.54359e-06 0)
(2.99997 -8.79983e-06 0)
(2.99993 -1.77532e-05 0)
(2.99986 -4.65265e-05 0)
(2.99957 -7.67784e-05 0)
(2.99917 -0.000213776 0)
(2.99714 -0.000186031 0)
(2.99455 -0.000601371 0)
(2.97995 0.00088064 0)
(2.95935 0.00159736 0)
(2.86014 0.0137147 0)
(2.62858 0.0423904 0)
(2.0188 0.11596 0)
(0.778384 0.345744 0)
(0.219037 0.216958 0)
(0.454817 0.154604 0)
(0.723098 0.125754 0)
(0.858137 0.107896 0)
(0.90022 0.09764 0)
(3 -6.01048e-09 0)
(3 -2.47823e-08 0)
(3 -1.07546e-07 0)
(3 -2.27268e-07 0)
(3 -7.21673e-07 0)
(2.99999 -1.34144e-06 0)
(2.99998 -4.19376e-06 0)
(2.99996 -6.97215e-06 0)
(2.99991 -2.43532e-05 0)
(2.99978 -3.20129e-05 0)
(2.99953 -0.000132119 0)
(2.99875 -0.000116185 0)
(2.99742 -0.000655122 0)
(2.99238 -2.34046e-06 0)
(2.98479 -0.00284251 0)
(2.95205 0.00485142 0)
(2.88839 -0.00831995 0)
(2.68831 0.0421195 0)
(2.10125 0.0474954 0)
(0.951711 0.219704 0)
(0.235219 0.195927 0)
(0.463314 0.179232 0)
(0.71981 0.134538 0)
(0.859529 0.101554 0)
(0.909752 0.0848025 0)
(3 -2.0284e-09 0)
(3 -1.16914e-08 0)
(3 -3.89013e-08 0)
(3 -9.84991e-08 0)
(3 -2.38563e-07 0)
(2.99999 -5.24411e-07 0)
(2.99998 -1.16532e-06 0)
(2.99996 -2.46072e-06 0)
(2.99991 -5.15097e-06 0)
(2.99977 -1.07757e-05 0)
(2.9995 -1.98989e-05 0)
(2.99871 -4.33607e-05 0)
(2.99726 -4.08335e-05 0)
(2.99254 -0.000164538 0)
(2.98463 0.000375855 0)
(2.95465 0.000114902 0)
(2.89725 0.00498102 0)
(2.70853 0.0138773 0)
(2.16201 0.0347604 0)
(1.07289 0.111822 0)
(0.276157 0.16951 0)
(0.468773 0.178775 0)
(0.699463 0.132862 0)
(0.852779 0.0977151 0)
(0.916158 0.0784641 0)
(3 2.6545e-10 0)
(3 1.4058e-09 0)
(3 5.28538e-09 0)
(3 1.39642e-08 0)
(3 4.29634e-08 0)
(2.99999 1.06893e-07 0)
(2.99998 3.1515e-07 0)
(2.99996 7.57168e-07 0)
(2.99991 2.15255e-06 0)
(2.99977 4.9663e-06 0)
(2.9995 1.38381e-05 0)
(2.99874 3.06798e-05 0)
(2.99731 8.69704e-05 0)
(2.99277 0.000179168 0)
(2.98503 0.00057813 0)
(2.95641 0.00107977 0)
(2.90266 0.00369367 0)
(2.71976 0.0094833 0)
(2.2037 0.0232768 0)
(1.15741 0.066532 0)
(0.32501 0.129073 0)
(0.468012 0.148528 0)
(0.67365 0.118755 0)
(0.836128 0.0911627 0)
(0.908905 0.0721537 0)
(3 2.05485e-09 0)
(3 1.1647e-08 0)
(3 3.97652e-08 0)
(3 1.01634e-07 0)
(3 2.61428e-07 0)
(2.99999 5.95376e-07 0)
(2.99998 1.45435e-06 0)
(2.99996 3.22231e-06 0)
(2.99991 7.72353e-06 0)
(2.99978 1.68627e-05 0)
(2.99952 3.95934e-05 0)
(2.99878 8.52077e-05 0)
(2.99739 0.000190144 0)
(2.99298 0.000428138 0)
(2.98547 0.000797325 0)
(2.95757 0.0020075 0)
(2.90598 0.00294965 0)
(2.72706 0.0078339 0)
(2.22664 0.0145064 0)
(1.20822 0.0349387 0)
(0.367288 0.0865443 0)
(0.474057 0.109755 0)
(0.657775 0.0992407 0)
(0.821428 0.0813869 0)
(0.899054 0.064515 0)
(3 4.45133e-09 0)
(3 1.53847e-08 0)
(3 7.69159e-08 0)
(3 1.48692e-07 0)
(3 5.29146e-07 0)
(2.99999 9.34025e-07 0)
(2.99998 3.21891e-06 0)
(2.99996 5.39103e-06 0)
(2.99992 1.95021e-05 0)
(2.9998 2.8075e-05 0)
(2.99956 0.000118033 0)
(2.99886 0.000127247 0)
(2.99761 0.000658448 0)
(2.99331 0.000363771 0)
(2.9865 0.00337573 0)
(2.95841 -0.000965544 0)
(2.90869 0.0153045 0)
(2.72952 -0.0119641 0)
(2.23818 0.0356522 0)
(1.21854 0.00120671 0)
(0.401943 0.0430306 0)
(0.487496 0.0637867 0)
(0.654396 0.0704904 0)
(0.812185 0.0621307 0)
(0.889352 0.0501881 0)
(3 1.07381e-09 0)
(3 6.12807e-09 0)
(3 2.04619e-08 0)
(3 5.18547e-08 0)
(3 1.27643e-07 0)
(2.99999 2.82758e-07 0)
(2.99999 6.4972e-07 0)
(2.99997 1.38265e-06 0)
(2.99993 3.09851e-06 0)
(2.99986 6.45342e-06 0)
(2.9996 1.41671e-05 0)
(2.99924 2.8964e-05 0)
(2.99758 6.18578e-05 0)
(2.99546 0.000123671 0)
(2.9841 0.00025378 0)
(2.96854 0.000498127 0)
(2.89514 0.000983104 0)
(2.72862 0.00208452 0)
(2.28277 0.00486518 0)
(1.07632 0.0129128 0)
(0.334353 0.0318278 0)
(0.425934 0.0392254 0)
(0.599156 0.0401185 0)
(0.754511 0.0350806 0)
(0.832095 0.028491 0)
(3 -1.90921e-09 0)
(3 -9.18962e-10 0)
(3 -2.79701e-08 0)
(3 -2.40332e-08 0)
(3 -2.14377e-07 0)
(2.99999 -2.25152e-07 0)
(2.99999 -1.52969e-06 0)
(2.99996 -1.70173e-06 0)
(2.99992 -1.08894e-05 0)
(2.99981 -9.52747e-06 0)
(2.99958 -7.56732e-05 0)
(2.99891 -3.71313e-05 0)
(2.99769 -0.000464229 0)
(2.99348 7.01794e-05 0)
(2.98685 -0.00262265 0)
(2.95907 0.00287313 0)
(2.91014 -0.0129355 0)
(2.73297 0.0179489 0)
(2.2485 -0.0257654 0)
(1.24383 0.020891 0)
(0.433286 0.021827 0)
(0.499097 0.0207971 0)
(0.651921 0.0141584 0)
(0.801772 0.0113288 0)
(0.87647 0.00907723 0)
(1.06966 1.16687 0)
(1.22479 1.05472 0)
(0.879008 0.891795 0)
(-0.0432439 0.526017 0)
(-0.37077 0.0210798 0)
(-0.440634 -0.00126235 0)
(-0.590032 -0.00836068 0)
(-0.684346 -0.0001117 0)
(-0.736249 0.0149389 0)
(-0.773039 0.0238027 0)
(-0.811278 0.0271714 0)
(-0.849754 0.0260669 0)
(-0.885221 0.0221859 0)
(-0.91011 0.0173203 0)
(-0.920832 0.0124088 0)
(-0.922379 0.00827629 0)
(-0.919353 0.00518759 0)
(-0.915163 0.00450005 0)
(-0.908925 0.0049285 0)
(-0.898565 0.00520619 0)
(-0.882322 0.0049551 0)
(-0.860285 0.00445841 0)
(-0.83356 0.00402395 0)
(-0.803161 0.00359138 0)
(-0.769842 0.00306817 0)
(-0.734119 0.00240148 0)
(-0.69639 0.00159966 0)
(-0.656926 0.000706744 0)
(-0.616116 -0.000254753 0)
(-0.574179 -0.00137301 0)
(-0.531616 -0.0027799 0)
(-0.488709 -0.00467203 0)
(-0.444977 -0.0072967 0)
(-0.400011 -0.0105048 0)
(-0.3539 -0.013521 0)
(-0.307055 -0.0160615 0)
(-0.260817 -0.0180979 0)
(-0.214589 -0.0201404 0)
(-0.168512 -0.0220761 0)
(-0.122831 -0.0239146 0)
(-0.0768322 -0.0259604 0)
(-0.0314408 -0.0284396 0)
(0.0157667 -0.0313826 0)
(0.066793 -0.033174 0)
(0.108392 -0.0325166 0)
(0.146531 -0.0307596 0)
(0.186251 -0.0292962 0)
(0.22645 -0.0281974 0)
(0.265885 -0.0271713 0)
(0.303652 -0.0260824 0)
(0.33967 -0.0251367 0)
(0.37667 -0.0246929 0)
(0.415187 -0.0247169 0)
(0.452893 -0.0240463 0)
(0.489363 -0.0232063 0)
(0.52486 -0.0223622 0)
(0.559708 -0.0215456 0)
(0.593917 -0.0207432 0)
(0.627531 -0.0199635 0)
(0.660525 -0.0191851 0)
(0.69298 -0.0184276 0)
(0.724826 -0.017667 0)
(0.75614 -0.0169098 0)
(0.786899 -0.0161503 0)
(0.817147 -0.0153897 0)
(0.846867 -0.0146286 0)