/*--------------------------------*- C++ -*----------------------------------*\
  =========                 |
  \\      /  F ield         | OpenFOAM: The Open Source CFD Toolbox
   \\    /   O peration     | Website:  https://openfoam.org
    \\  /    A nd           | Version:  6
     \\/     M anipulation  |
\*---------------------------------------------------------------------------*/
FoamFile
{
    version     2.0;
    format      ascii;
    class       surfaceScalarField;
    location    "71";
    object      phi;
}
// * * * * * * * * * * * * * * * * * * * * * * * * * * * * * * * * * * * * * //

dimensions      [0 3 -1 0 0 0 0];

internalField   nonuniform List<scalar> 
1300
(
3.75095
5.62643
-3.33335
3.75095
-7.76338
5.62643
-4.27177
4.27177
-0.394365
0.394365
1.87649
1.87446
-2.42771
2.42771
-1.79515
1.79515
-2.52913
2.52913
-5.24797
5.24797
-5.06913
5.06913
4.7001
-4.7001
-6.3363
6.3363
-0.963406
0.963406
-3.5746
3.5746
3.17248
-3.17248
-1.89945
1.89945
0.0443335
-0.0443335
-0.554084
4.30504
3.19687
3.19687
-1.9822
1.9822
-4.87399
4.87399
6.22199
-6.22199
5.24968
-5.24968
-1.91634
-2.49473
1.80133
-11.496
-5.96205
-5.96205
-8.44103
8.44103
-2.8146
2.81183
2.9472
-2.9472
-1.72616
1.72616
-4.28785
0.0160827
-4.28785
4.24263
0.0291372
4.24263
-0.495946
0.101581
-0.495946
3.94647
-3.94647
0.304799
0.0895653
0.304799
3.06728
-3.06728
-1.87686
3.75334
1.8741
-1.87209
6.17713
-1.87886
3.75332
-6.0781
6.0781
-2.67461
0.246899
-2.67461
2.19622
0.231487
2.19622
-6.88873
6.88873
-1.82494
0.0297883
-1.82494
1.79855
-0.00339709
1.79855
2.88808
-2.88808
-2.62986
0.100733
-2.62986
2.38366
0.145461
2.38366
0.353485
5.27295
-5.97991
8.79175
-5.27295
0.0249794
5.21035
0.0376168
5.21035
-5.10538
0.0362527
-5.10538
5.01379
0.0553318
5.01379
4.78956
-0.0894536
4.78956
-4.8195
0.1194
-4.8195
-3.3612
-4.07459
-6.49666
0.160366
-6.49666
-1.02899
0.0655824
-1.02899
0.856231
0.107175
0.856231
-3.72743
3.72743
-3.93149
0.356891
-3.93149
3.12745
0.0450258
3.12745
1.86812
1.88283
5.61907
-5.61907
2.4466
-1.83943
-0.0600201
-1.83943
-1.97321
-3.27647
1.97321
-0.0737624
-0.172837
0.21717
-0.172837
3.15711
0.0397555
3.15711
2.23425
0.149418
-2.23425
0.252041
3.30049
-3.30049
1.32199
0.660216
1.32199
-5.55919
5.55919
4.96177
0.0520232
-4.96177
0.087785
6.15708
0.0649037
6.15708
-6.20746
-0.0145272
-6.20746
2.48689
-4.98162
-2.65034
6.14925
0.18705
-6.14925
0.187198
2.91876
0.0284397
2.91876
-2.91942
2.91942
-2.98419
0.0369938
-2.98419
-2.14864
0.422478
-2.14864
1.41187
0.314293
1.41187
-4.20256
-0.0852938
-4.20256
-4.08941
0.157914
4.08941
0.153223
1.11733
-1.11733
-0.605053
0.109107
-0.605053
-4.0507
-0.151851
4.0507
-0.104238
-3.8873
-0.0591637
-3.8873
-3.02189
0.0376958
3.02189
0.0453917
3.1121
0.0450145
-3.1121
0.0448212
-1.87099
3.75382
-1.87996
3.75406
-5.69728
-0.380819
-5.69728
6.35865
-0.280548
6.35865
3.10094
0.473661
-3.10094
0.426329
2.01799
0.178239
2.01799
-6.86195
-0.0267812
-6.86195
6.89497
-0.00623396
6.89497
1.8954
0.122587
-1.8954
0.0704623
1.81301
-0.0144605
1.81301
2.91574
-0.0276631
2.91574
-2.88182
-0.00626053
-2.88182
2.79106
-2.79106
2.71619
0.0748769
-2.71619
0.086329
-11.1242
11.1096
-0.0362517
-11.0879
5.1741
5.1741
4.24398
0.545578
4.24398
-5.01568
0.196179
-5.01568
2.66535
-5.31569
3.10058
-6.46177
4.67589
-16.1719
4.296
-8.37059
6.74605
-6.74605
6.62835
0.117695
-6.62835
0.131693
-1.13302
0.10403
-1.13302
-3.12555
-0.601882
-3.12555
4.36517
-0.637731
4.36517
-3.02769
3.02769
-3.07641
0.0487142
3.07641
0.0510436
1.81798
-0.00496991
-1.81798
-0.0214529
0.218075
0.0867243
-0.218075
0.0452382
3.52226
-0.221774
3.52226
-3.09629
-0.2042
-3.09629
-1.22596
0.0929466
1.22596
0.0960237
-5.80715
0.247962
-5.80715
-11.1814
0.09354
-11.1438
-6.11392
-6.11392
2.3271
11.1189
-2.89712
0.0153032
2.89712
0.0216383
2.97525
0.0524457
-2.97525
0.055831
-2.85839
0.0673261
2.85839
0.0610269
-2.51665
0.368009
-2.51665
-1.02631
1.02631
-1.17457
0.14826
1.17457
0.237294
1.41727
-0.299944
1.41727
0.738893
0.117338
-0.738893
0.13384
-3.83313
-0.0541727
-3.83313
6.59807
-0.239421
6.59807
-2.96731
-0.128983
2.96731
-0.0515662
-0.0349232
11.1446
-5.13917
0.0337964
5.13917
-11.2095
11.2433
-3.22228
0.70563
3.22228
1.0217
5.28511
0.274078
-5.28511
0.269428
6.83598
0.0589821
-6.83598
0.0899349
-2.63528
-0.490277
-2.63528
-5.09657
-0.600714
5.09657
-0.731402
-11.4815
-0.203268
11.6848
-11.4262
6.01042
0.146665
-6.01042
11.3899
-0.995375
-0.121954
0.995375
0.030937
1.75666
-0.339386
1.75666
3.73879
-0.216524
-3.73879
-0.0943429
-6.75344
-0.108512
6.75344
-0.155369
-2.18548
-0.449795
2.18548
-0.428821
-4.26738
4.30714
1.90975
-2.33459
-2.64703
-5.61106
1.85525
1.89857
4.30185
-10.1627
-6.00922
-9.97552
7.21499
-6.94556
-9.32813
9.23868
7.92759
-7.98675
-5.77748
5.82853
6.48463
-6.43924
1.87942
1.87392
8.06211
-7.81521
-15.6725
15.2917
7.58328
-7.5535
15.8273
-15.8541
-17.8711
17.9301
-5.69838
5.79911
-6.74253
6.73627
-6.97938
6.92781
-2.79857
-3.6632
13.1324
-12.9721
8.58642
-8.64644
-8.67163
9.02853
3.3846
0.922533
3.42962
-1.8818
3.76123
-1.87152
3.78127
2.75012
-5.54869
2.56557
-5.2126
4.37005
4.21637
-4.29628
-1.31478
-5.92858
5.95702
-5.80878
5.86981
9.17236
-9.15628
-1.88498
3.7589
-1.86908
3.76765
-3.42305
-2.35443
3.37802
0.923828
8.07652
5.05592
-8.26357
-1.71195
-8.02415
7.80763
-8.21618
8.01198
-0.436884
5.83795
-5.40106
4.4371
-1.65357
7.49151
5.56143
5.7576
5.86074
-5.58666
1.08482
-6.48588
-6.3981
-2.28965
2.39876
2.18221
-2.09264
6.1394
1.78819
6.03517
-5.8039
-2.18286
-5.85807
3.81987
2.00866
3.86858
4.08209
2.40254
4.11979
3.02965
-3.0367
0.00705128
-3.05925
6.08889
0.722202
-5.41368
-4.48985
4.98993
3.07217
5.22142
-5.59173
-2.22348
-5.1654
-9.56333
-6.10922
-10.164
10.0891
5.20263
9.80855
-11.961
11.8056
4.86432
2.71896
4.86092
-4.96246
-2.59103
-4.892
11.6834
-2.65102
-9.03243
-10.3324
-7.53868
10.3387
5.48861
10.9775
6.95257
11.0675
4.42857
7.25488
-9.91718
2.3785
-3.86402
-1.83436
-3.77769
3.6558
2.14331
3.80127
-4.2188
-2.52374
-4.20349
-4.29492
-2.68446
4.32258
2.41369
-4.41687
-3.79931
4.54586
2.38196
4.05564
-10.0649
4.31494
-7.97814
-9.20902
-3.76306
-9.07732
3.54716
2.60067
-6.14784
-2.00153
8.52891
-4.31255
7.21414
-5.19786
-3.44858
-5.21931
-6.96161
-1.71002
-6.8037
-8.92903
8.43875
-9.22325
8.58552
12.5215
-5.63773
-6.88375
-3.96699
-2.47224
3.92217
-0.492554
-3.71004
3.71709
0.0511855
3.83246
4.75499
4.26243
-3.88192
-1.92686
-3.82609
3.82094
2.04887
3.88826
6.8447
2.32767
6.87383
-6.60775
-2.54853
-6.69304
9.10394
-8.68146
2.79332
-2.70037
5.37455
2.63743
-5.15278
-2.87137
6.23711
-3.21246
-3.02465
-12.3456
10.7975
1.54814
-4.85413
-0.417025
-0.461359
-5.57038
-3.75775
5.45098
0.306624
11.1041
7.34636
-5.51532
5.76328
6.16946
6.22148
-0.176617
5.89194
-5.18631
5.27119
-2.71323
-2.55797
5.47305
-5.6249
-1.21999
-5.54366
4.32367
0.410261
1.51217
-1.295
-1.78753
-0.502116
-1.65369
1.21221
0.969996
1.29894
0.947555
1.4512
-2.92232
0.539861
2.38245
-1.97476
-1.55278
-3.80335
-1.15409
4.95744
5.72884
2.07879
-5.63449
-0.223576
2.56846
-2.46128
-0.8223
-2.98105
2.23469
-3.05699
-3.47106
-1.93954
5.4106
-3.3686
-0.457494
3.31615
0.552429
-3.82812
-2.10046
3.79113
0.32866
-3.12892
6.19031
-3.06139
-5.05578
2.52896
3.55993
4.53762
-4.78998
2.44916
2.34082
-1.23005
4.25924
0.962182
4.43748
-7.06696
4.84348
5.73511
3.29341
-6.20878
1.04338
-6.02358
8.54718
-7.39402
-1.15316
4.08825
4.45893
7.01645
5.50502
-5.68362
12.7001
-1.15876
-6.23526
7.18234
-3.88893
4.86552
-8.75445
-10.3705
4.13528
-9.20465
11.0672
-1.86253
-3.60792
-8.35309
12.8126
-1.21605
-11.5965
8.59251
-4.34245
-4.393
8.73545
-6.99346
6.98403
-1.99646
-4.98757
-10.1505
-5.70358
10.259
1.54664
-9.94259
12.3211
-2.6877
4.16137
0.699558
4.1469
3.36091
-5.48311
2.1222
3.63255
-5.62901
2.06017
-7.54327
-6.75679
12.0984
-5.34157
-10.5198
-9.54778
-0.972063
2.55217
9.76892
-9.50474
7.43996
2.06478
3.29776
0.590501
-3.37264
-0.405046
0.239036
4.51035
-4.74939
4.0403
4.18972
3.21807
1.29229
3.84931
2.10771
-3.87095
-0.332547
-4.1685
1.48404
-1.75481
-3.69353
5.17757
-4.06134
0.367804
-2.74621
-3.49268
6.2389
-4.58057
3.03632
3.15399
5.08519
-4.9135
1.42082
-2.39045
-2.52305
2.64052
-4.39533
2.00033
3.17724
4.38229
0.582979
5.90746
6.1909
-8.50814
0.529992
11.2468
-9.53487
2.47794
8.58951
-9.9179
0.370114
-8.70721
0.977525
-5.29007
-5.17031
5.21947
-6.92949
-3.53498
6.24846
0.625374
-6.40168
-0.402012
-6.06626
-2.86277
-6.51605
-3.06007
-6.16317
-8.74369
-1.67369
-7.06999
6.76506
-6.6898
-3.47424
7.42121
1.16431
-7.48101
7.35905
-7.5395
7.20011
0.0949157
3.62218
4.35735
1.88511
-2.39213
4.27724
-5.07091
7.39858
-8.73928
3.66836
4.23292
-6.78145
-4.50636
5.06029
4.04365
5.37459
8.92272
-10.3761
1.45334
-10.6513
11.9903
-1.33908
-16.4313
5.78008
-7.50863
2.4206
0.372716
2.52463
0.54509
2.50323
-3.04832
-2.15528
-2.05926
-2.44097
-3.4964
5.93737
1.0645
-3.47098
2.40648
-3.57322
4.63772
-0.067552
-3.40343
5.19407
-2.69083
5.56678
-3.64078
1.926
3.54628
5.8444
-2.29813
4.42168
-1.78425
1.9461
-4.24422
-1.55031
-2.95535
5.09866
-3.28354
3.65134
-0.349272
4.00062
-4.04581
0.833346
-0.827742
3.36198
3.61402
4.33235
-3.04006
2.93652
-4.72077
-1.3077
-4.13779
-0.960553
-0.183965
-3.78491
3.96887
6.00533
-6.18929
-5.28265
9.52563
-4.24299
7.70416
-5.43999
-2.26417
-4.29262
-4.38885
3.92461
1.96733
9.67149
0.179576
-5.61957
-5.00673
-3.98503
3.09165
2.17955
-1.74443
3.29257
2.20578
-0.693613
0.393258
0.905678
1.76525
-1.37199
0.344084
1.42117
-0.950916
1.70737
0.861087
-1.82471
0.171017
-1.29616
3.53085
1.0863
-2.05629
0.684302
0.891541
-3.60477
5.08147
-2.72676
-2.35471
5.97301
1.14517
-3.87193
4.39849
-3.98823
2.4422
-3.59629
-1.42973
-5.41796
-3.62977
-2.48765
4.89413
-3.44972
5.52852
1.42307
-5.30494
6.72802
-3.63134
1.6918
-3.06133
3.92241
-1.00639
-2.05494
2.88041
2.53019
-3.13177
0.150717
-0.251359
2.42117
-2.67253
-0.635824
-2.61058
-4.576
4.90466
-2.10377
4.55293
2.17347
-1.91759
6.47052
1.80769
-3.72528
-3.24809
-3.70558
-1.38446
3.15315
-0.591321
-4.30068
-5.57889
4.17809
0.259386
-7.05826
7.92617
-0.86791
-3.98609
-0.85739
4.94564
-6.10052
0.471505
-4.04035
3.88582
4.848
5.10739
-11.3661
-0.230473
-6.16342
1.09961
-7.26304
5.55854
-3.51949
7.65477
-10.3449
6.87064
-9.18057
6.50161
-0.761426
6.25453
-4.13233
2.7779
-8.48149
-6.93485
5.55684
-2.83787
6.2564
-3.20987
9.46626
-5.89757
5.34953
4.11673
-1.05145
-4.16786
-5.32361
4.27216
0.0259237
4.17283
4.98705
-2.87934
4.6545
2.26457
-4.65502
-2.13076
-6.488
1.83298
-3.334
-1.92218
3.75516
3.16301
3.75351
1.23211
-3.34846
7.23972
-8.21178
-1.89814
-3.27217
5.29884
-1.02669
3.4398
-6.71197
-1.85027
4.74913
-0.728759
-4.02037
0.888603
-4.42358
1.6722
-6.09578
5.25729
-5.65931
2.25446
-9.76309
-5.22655
-5.19561
-2.27957
-5.25993
-7.57925
5.29968
-1.79918
5.55987
-8.51782
7.78906
-3.47253
8.77221
-5.46258
-1.05348
5.8914
1.30872
10.0809
0.160644
-4.667
-1.93987
3.73681
-1.79693
1.15177
-3.62427
0.112542
2.48894
3.48407
-6.81261
0.0311586
-4.63584
-3.91064
7.95429
5.61499
11.6203
1.24427
9.14111
-1.18682
10.3854
4.18777
4.42506
-3.00796
4.4613
0.960915
4.62928
-0.89319
2.81919
1.63144
1.69703
0.764258
2.30121
1.31281
3.13455
0.0862313
-1.97303
4.63427
-8.6193
-0.985301
-8.07372
1.16496
5.42871
-4.26375
2.87809
-0.698542
1.08115
-0.17047
-1.21223
1.3827
-2.72844
-1.90585
-0.48468
-1.65428
2.33859
1.87656
-1.85391
-0.874529
0.33209
-3.96186
3.2642
-3.11348
-0.583297
6.14472
-2.89156
0.219033
-1.19976
-2.39155
-2.89367
2.72265
6.17425
0.29627
3.11287
5.20093
3.10047
0.221139
3.82201
-5.68454
-3.72126
-5.91501
-0.356471
4.58917
1.75247
8.01646
5.8692
4.84251
-1.86946
-10.0812
6.50727
-2.04597
5.16819
-1.14783
-4.94795
5.07307
2.32551
-5.69844
0.0391381
-4.90882
-6.95479
-0.480864
8.26992
-9.60006
8.54659
5.68382
1.38618
-4.43872
-0.756893
4.29046
0.134606
10.52
-0.910603
-7.05934
7.96995
-4.51811
3.53281
0.67737
2.6152
2.06007
1.36153
-5.69781
-9.96156
-2.06324
-1.54153
-4.41794
0.539496
-2.41606
6.07246
-2.53965
3.80829
5.4303
6.51145
-2.04812
-4.14117
6.29111
-2.48282
4.02863
)
;

boundaryField
{
    wall-4
    {
        type            calculated;
        value           uniform 0;
    }
    velocity-inlet-5
    {
        type            calculated;
        value           uniform -3.75095;
    }
    velocity-inlet-6
    {
        type            calculated;
        value           uniform -5.62643;
    }
    pressure-outlet-7
    {
        type            calculated;
        value           nonuniform List<scalar> 8(3.33335 7.76338 4.41107 9.69471 7.43579 5.13723 5.76593 8.97189);
    }
    wall-8
    {
        type            calculated;
        value           uniform 0;
    }
    frontAndBackPlanes
    {
        type            empty;
        value           nonuniform 0();
    }
}


// ************************************************************************* //
