/*--------------------------------*- C++ -*----------------------------------*\
  =========                 |
  \\      /  F ield         | OpenFOAM: The Open Source CFD Toolbox
   \\    /   O peration     | Website:  https://openfoam.org
    \\  /    A nd           | Version:  6
     \\/     M anipulation  |
\*---------------------------------------------------------------------------*/
FoamFile
{
    version     2.0;
    format      ascii;
    class       volVectorField;
    location    "71";
    object      U;
}
// * * * * * * * * * * * * * * * * * * * * * * * * * * * * * * * * * * * * * //

dimensions      [0 1 -1 0 0 0 0];

internalField   nonuniform List<vector> 
918
(
(0.985049 -0.000714921 0)
(0.00534177 2.96624 0)
(-0.00257205 0.880451 0)
(0.979575 0.00196182 0)
(-0.0137687 2.06572 3.26789e-20)
(-0.00709603 2.94855 -2.56422e-18)
(0.817907 1.12039 4.50476e-19)
(0.119695 0.0721136 -1.39454e-20)
(0.999922 -0.00024459 0)
(0.0907458 0.661627 0)
(0.00923408 0.389181 0)
(0.735324 -0.00513371 0)
(0.0102075 2.93157 0)
(0.00338073 2.79437 0)
(-0.00226913 3.17993 8.3277e-19)
(-0.0138453 1.92722 1.98945e-20)
(0.295173 0.0385709 9.70839e-19)
(0.232629 1.1081 3.56801e-19)
(0.964349 0.00674326 0)
(-0.000660293 0.396625 0)
(0.0182806 0.0443212 -6.51127e-19)
(1.00183 -0.00456 0)
(0.999851 -0.00892687 0)
(0.975167 -0.006052 0)
(0.591994 0.0106553 0)
(0.0213431 2.64391 0)
(-0.0123452 2.91192 9.37963e-19)
(-0.00575957 0.933407 0)
(-0.0311035 1.16901 0)
(-0.00387324 0.903234 0)
(-0.0224679 2.59279 0)
(-0.00471011 2.11624 -2.6102e-20)
(-0.00987111 1.90007 0)
(-0.0221493 2.98761 -9.23991e-23)
(-0.0164899 3.0055 1.99238e-18)
(0.00231118 3.00059 0)
(0.871938 -0.00975647 0)
(0.375605 0.915059 1.59666e-19)
(0.816812 1.1387 -5.67776e-19)
(0.949409 1.00458 5.75775e-19)
(0.679693 1.2215 -1.0325e-19)
(0.693076 1.18251 5.88414e-19)
(0.149823 0.130412 1.36039e-20)
(0.147765 0.0749711 0)
(1.16443 0.531679 0)
(0.122522 0.110564 6.16468e-20)
(0.0969796 0.0597547 -6.39723e-20)
(0.920552 -0.00704772 0)
(1.00027 5.8083e-05 0)
(0.999908 0.000320512 0)
(1.0037 -0.00728093 0)
(1.00088 -0.000947381 0)
(1.00011 -6.11159e-06 0)
(0.0923601 1.84568 -7.36538e-19)
(0.0313693 0.854962 0)
(0.126171 0.751381 0)
(0.0181329 0.797671 0)
(0.0532635 0.579303 0)
(0.00434173 2.03072 0)
(-0.00821531 0.71802 0)
(0.00539713 0.407443 0)
(-0.00613028 0.715276 0)
(0.0139276 0.389512 0)
(0.843571 -0.0156361 0)
(0.839001 0.0312494 0)
(0.760473 -0.00201491 0)
(0.79846 0.037816 0)
(0.70223 0.00530516 0)
(0.0139545 3.0002 9.51616e-19)
(0.0111791 3.00601 0)
(0.00625904 3.00388 0)
(0.0118761 2.99712 1.08072e-23)
(0.00827614 2.95872 -1.41434e-18)
(0.0121877 2.98287 0)
(0.00901317 2.90489 0)
(0.0210748 2.93134 2.19077e-24)
(0.00413616 2.82432 0)
(0.0261987 2.91888 0)
(-0.000685412 2.74525 0)
(0.306031 3.57527 0)
(-0.122298 3.65807 0)
(0.149392 3.27072 -7.75042e-19)
(0.00331989 3.00793 0)
(-0.0298507 1.98995 0)
(-0.00733795 2.17931 -1.96214e-20)
(-0.00966014 1.93946 1.96139e-20)
(0.350784 0.138993 -3.37286e-19)
(0.317304 0.00930042 -3.27877e-19)
(0.30421 0.155913 -1.00776e-18)
(0.258896 0.0577786 -6.55372e-19)
(0.264139 1.02264 0)
(0.331732 1.23907 -3.69097e-19)
(0.413121 1.15031 6.0899e-19)
(0.987729 0.00815421 0)
(0.943249 0.00578564 0)
(1.00028 0.000671739 0)
(1.00254 0.00906622 0)
(1.00311 0.00898969 -2.58981e-18)
(0.992136 0.00942115 1.95699e-18)
(-0.0207434 0.736874 0)
(0.00227385 0.405124 0)
(-0.0513714 1.01849 0)
(-0.0305514 0.790773 0)
(-0.00943827 0.397888 0)
(-0.0389231 0.109028 2.02044e-19)
(0.0524806 0.0618648 0)
(0.993625 -0.00769327 0)
(0.954049 -0.00648427 0)
(0.744729 0.0273378 0)
(0.670234 0.0277896 0)
(0.660798 0.0230088 0)
(0.979861 -0.00270948 0)
(0.589318 0.0664085 0)
(0.4513 -0.0194377 1.47832e-18)
(-0.0406373 2.8605 7.32975e-19)
(0.0335968 2.91447 0)
(0.0427493 2.89246 0)
(0.00308149 2.70208 0)
(-0.00868536 2.98627 8.97109e-19)
(-0.0141568 2.89464 0)
(-0.0110996 2.9916 -2.76314e-18)
(-0.011615 2.92948 9.41158e-19)
(-0.0442867 1.34475 0)
(-0.0150797 1.37301 0)
(-0.00783192 2.14098 7.44418e-22)
(-0.00774 2.10012 0)
(-0.0172986 1.91093 0)
(0.938881 -0.00520177 0)
(0.857289 -0.0111483 0)
(0.863388 0.0046053 0)
(0.949671 -0.00614112 0)
(0.883677 -0.00808958 0)
(0.499157 1.11505 -2.03035e-19)
(0.546429 1.1849 0)
(0.337532 0.849706 3.1252e-20)
(0.281958 0.714221 0)
(0.917608 1.0347 -1.62902e-19)
(1.04018 0.845056 3.28196e-19)
(0.391367 1.3175 0)
(0.542389 1.27294 0)
(0.596061 1.20011 0)
(0.103697 0.18151 -2.93886e-19)
(0.174257 0.145122 0)
(0.16981 0.089301 1.8212e-19)
(1.00338 0.899113 0)
(1.07931 0.747406 0)
(1.10883 0.682651 -2.64582e-19)
(1.14565 0.593854 0)
(1.20158 0.391328 4.71218e-20)
(0.957505 -0.00709856 0)
(0.962727 -0.00810951 0)
(0.900916 -0.00737044 0)
(0.983929 -0.00812358 0)
(0.974427 -0.00803189 0)
(0.936545 -0.00656978 0)
(1.0002 0.00250467 0)
(1.00077 0.00123915 0)
(1 0.000761365 0)
(0.0437604 2.08828 4.11452e-19)
(0.143472 1.79012 0)
(0.0190785 2.20447 6.18168e-19)
(0.0521799 1.89337 -5.16053e-19)
(0.166757 1.08413 -2.92869e-19)
(0.0498802 0.939002 0)
(0.12107 0.938532 0)
(0.00532312 0.759955 0)
(0.0264973 0.507801 0)
(-0.00331989 2.25809 -4.24289e-22)
(0.0191337 2.03599 0)
(-0.00485219 2.25907 -9.61312e-21)
(0.00286848 2.04273 6.46693e-21)
(-0.00481493 0.734044 0)
(-0.00933055 0.71973 0)
(0.00930803 0.447211 0)
(-0.0175553 0.715955 0)
(0.00718501 0.39361 0)
(0.939466 0.0138446 0)
(0.856343 -0.0115779 0)
(0.92864 0.00486503 0)
(0.846218 -0.0127786 0)
(0.811377 -0.00269182 0)
(0.898206 0.0226052 0)
(0.873937 0.0257557 0)
(0.785241 -0.00324555 0)
(0.0102823 3.06725 -8.84763e-21)
(0.015235 3.05906 0)
(0.0123258 2.97034 0)
(0.00756747 2.87659 0)
(0.895824 3.96945 0)
(1.18988 3.36566 9.38898e-19)
(0.0809056 3.0905 0)
(-0.0175772 2.91823 0)
(-0.0156707 1.3993 0)
(-0.0352123 1.69647 0)
(-0.0239556 1.53171 0)
(-0.0329946 2.55302 -1.41386e-20)
(-0.0176794 2.24731 0)
(-0.0223974 2.39248 0)
(-0.000865158 1.96867 2.55789e-22)
(-0.00527936 2.25351 -2.4894e-20)
(-0.00632916 2.21715 -2.01352e-20)
(-0.00597809 1.95302 0)
(0.390296 0.118829 5.17539e-19)
(0.353475 0.000992056 -5.07595e-19)
(0.233779 1.59174 0)
(0.287883 0.766487 -3.1923e-19)
(0.176556 1.69108 -1.0517e-18)
(0.24374 1.22646 1.05226e-18)
(0.901687 0.00588146 0)
(0.96705 0.0106707 0)
(0.974902 0.00985287 0)
(0.922994 0.00587482 0)
(-0.0185816 0.725586 0)
(-0.0195197 0.72923 0)
(0.000937108 0.39711 0)
(0.0972466 0.1007 5.67585e-19)
(0.081396 0.0827543 -6.71206e-19)
(0.0598636 0.0531569 0)
(1.10709 0.0904648 2.30615e-20)
(1.09075 0.0425873 0)
(1.01875 0.0437101 0)
(0.913813 -0.001529 0)
(0.439488 0.0952571 0)
(0.500262 0.0769966 -2.36433e-18)
(0.394799 4.28827e-05 8.85718e-19)
(0.0106632 2.97701 7.78645e-19)
(-0.0331855 2.86128 4.56506e-20)
(0.00814858 3.05343 -1.86774e-20)
(0.0157562 3.04315 6.99764e-19)
(-0.0118787 3.00004 3.09555e-20)
(-0.0122694 2.9523 -1.24872e-22)
(-0.0150421 3.0133 -5.78486e-19)
(0.0144892 3.02645 4.08409e-19)
(0.00759922 3.03502 -6.63816e-19)
(0.934728 0.00213826 0)
(0.939515 -0.00111382 0)
(0.848153 -0.0111757 0)
(0.956316 0.0118384 0)
(0.942317 0.0134744 0)
(0.881686 0.00530701 0)
(0.915152 0.0191991 0)
(0.924951 0.0156877 0)
(0.837836 0.000573604 0)
(0.671842 1.41347 2.36138e-20)
(0.689854 1.52395 0)
(0.11874 0.292319 6.6392e-20)
(0.213078 0.653973 5.24859e-19)
(0.240284 0.693339 -3.08362e-19)
(0.214942 0.496393 6.11765e-19)
(0.340211 0.83213 1.55682e-18)
(0.13518 0.236925 3.74756e-19)
(0.258924 0.17038 6.95197e-19)
(0.213228 0.164242 1.79257e-19)
(0.218692 0.0799999 3.41443e-19)
(1.193 0.44652 1.01749e-19)
(1.21824 0.245835 9.98735e-20)
(0.00914267 2.24616 2.40162e-19)
(0.0398022 1.95761 0)
(0.972917 0.0330448 0)
(0.946811 0.0192451 0)
(0.871159 -0.0152016 0)
(0.0123984 3.07485 0)
(0.0168597 2.94401 1.2353e-18)
(0.0139775 2.95693 0)
(0.0058416 2.8499 -1.22599e-18)
(0.00903251 3.09031 3.01637e-19)
(0.011833 3.08294 0)
(0.709645 1.82008 -1.72769e-19)
(1.2343 2.62475 5.83771e-19)
(0.694411 1.99809 -1.40113e-18)
(0.022232 2.97638 -6.75814e-19)
(0.0403133 2.99838 0)
(-0.0383213 2.879 0)
(-0.00608235 2.23811 -1.26715e-20)
(-0.00485805 2.25858 4.7789e-20)
(-0.000354274 2.0042 -6.98042e-21)
(0.268533 1.40347 1.01372e-18)
(0.287172 0.570121 -6.96113e-19)
(0.0720924 2.00561 7.42415e-19)
(0.123077 1.87413 -8.97913e-19)
(0.208704 1.54028 1.04074e-19)
(0.00582773 3.12039 -1.67599e-18)
(0.0129923 3.12079 1.84449e-18)
(-0.00520282 2.98058 8.38619e-19)
(-0.00159383 2.97517 -8.0293e-19)
(-0.0176159 2.87722 -8.54168e-19)
(0.0122048 3.10055 -2.24076e-18)
(0.00554043 3.10523 2.27252e-18)
(0.267174 0.698818 0)
(0.218454 0.65966 -1.11925e-18)
(0.0743221 0.212591 4.9255e-19)
(0.346723 0.952168 1.10851e-18)
(0.199645 0.2814 -1.70706e-18)
(1.19753 0.175988 4.42025e-20)
(1.21497 0.305119 0)
(1.193 0.121203 1.31344e-20)
(-0.00107498 2.26598 -1.20718e-21)
(0.00371711 2.25097 0)
(0.0312515 1.99352 0)
(0.313577 1.31884 -3.64312e-19)
(0.354133 1.17836 -7.90304e-19)
(0.233101 0.392549 1.41346e-18)
(1.00644 -0.00968282 0)
(1.00774 -0.00778458 4.75955e-19)
(-0.0389138 1.32709 0)
(-0.0472357 1.33147 0)
(1.00244 0.00327225 1.34153e-21)
(1.0032 0.00781323 9.7719e-19)
(-0.0241371 2.53932 1.79141e-20)
(-0.0273284 2.58191 0)
(0.0403184 3.17276 4.77916e-19)
(0.37431 3.54098 0)
(1.15803 0.692678 -4.67737e-20)
(1.0118 0.0106504 -2.83761e-21)
(1.02086 -0.00900694 0)
(1.00158 0.000281608 1.56833e-22)
(0.118952 1.37432 0)
(0.140824 2.58671 0)
(0.0192962 1.32575 0)
(-0.000434836 2.63403 -2.18616e-21)
(-0.0215328 2.58231 -8.58129e-21)
(0.997013 0.0303408 2.38043e-21)
(1.063 0.00587442 0)
(1.10016 0.0285406 0)
(-0.0335931 1.74374 0)
(-0.0193729 2.58274 0)
(-0.0130102 1.3186 0)
(0.309009 1.48948 -1.77383e-19)
(1.01152 -0.00905729 0)
(1.00971 -0.0129858 0)
(1.00227 0.000937824 6.09609e-19)
(1.00548 -0.0049124 -7.18561e-19)
(1.00113 -0.000863115 0)
(-0.0218461 1.46522 0)
(-0.0104755 1.38664 0)
(-0.0168181 1.42685 0)
(-0.0156844 1.30557 0)
(-0.0282724 1.29536 0)
(-0.0214389 1.27492 0)
(1.03565 -0.00430391 0)
(1.0188 0.0151462 -9.44589e-22)
(0.81149 1.31085 2.8691e-19)
(1.00243 0.000384549 -6.09139e-19)
(1.00339 0.00444984 7.27201e-19)
(1.00126 0.00209439 0)
(1.0111 0.0096303 6.06662e-19)
(1.00685 0.00745333 -7.38566e-19)
(1.00714 0.011122 0)
(-0.0243183 2.61036 0)
(-0.0274919 2.58982 -3.01809e-20)
(-0.0244269 2.60378 2.12521e-20)
(1.24189 0.273091 5.02302e-19)
(1.16355 0.0891809 0)
(0.0441194 3.09101 -9.56325e-19)
(0.0519116 2.87352 -6.7751e-20)
(0.103301 3.20181 1.27743e-18)
(0.121547 3.21383 -2.71189e-19)
(0.141293 3.25731 0)
(0.0229312 3.13789 2.62623e-19)
(0.0613756 3.16187 9.52568e-19)
(0.0615444 3.17895 -4.91284e-19)
(0.0274411 3.12927 0)
(0.566901 0.291303 0)
(0.511969 0.307387 0)
(1.13995 0.724025 1.01531e-19)
(1.10503 0.860203 -8.07181e-20)
(1.19765 0.60977 0)
(1.22455 0.544288 0)
(1.01571 0.0120236 -1.12682e-18)
(1.01469 0.0127561 1.41673e-18)
(1.02574 -0.00872991 0)
(1.02408 -0.0102961 0)
(1.00678 0.00320891 0)
(1.01089 0.00420912 0)
(1.00423 0.00221146 0)
(1.00937 0.00635155 0)
(1.00685 0.0050413 0)
(1.0044 0.00526421 0)
(0.108174 1.37411 0)
(0.0958459 1.33409 0)
(0.141835 1.41982 0)
(0.147819 1.403 0)
(0.152359 2.60979 0)
(0.191749 2.67554 -4.08373e-19)
(0.106302 2.66935 0)
(0.0801678 2.67076 1.65345e-19)
(0.027409 2.67627 -1.60029e-19)
(0.0126544 1.32561 0)
(0.0193098 1.25635 0)
(0.0235098 1.3379 0)
(0.0374916 1.27639 0)
(-0.0012222 1.99596 3.49092e-20)
(-0.0213363 2.6105 -3.71351e-20)
(-0.00679885 2.67627 -2.71068e-20)
(-0.0189121 2.68896 0)
(-0.0234503 2.61674 2.79369e-20)
(-0.0220069 2.61221 3.67158e-20)
(0.00585078 1.99272 -2.67297e-20)
(-0.00973048 2.40184 4.98203e-20)
(-0.0146759 2.42605 3.07286e-20)
(1.01037 0.0405026 1.14532e-18)
(1.00444 0.019763 -1.42324e-18)
(1.0041 0.0459302 -1.16914e-18)
(0.974503 0.0381523 1.47145e-18)
(1.06465 0.00919749 0)
(1.04989 -0.00645081 0)
(1.09264 0.0376833 0)
(1.07579 0.0149942 0)
(1.07455 0.000590507 0)
(1.14137 0.0795343 0)
(1.1157 0.0462289 0)
(1.11892 0.0374734 0)
(-0.0295156 2.4342 3.38321e-21)
(-0.0201208 2.02219 0)
(-0.0204921 2.22104 0)
(-0.0214186 2.60355 -1.83615e-20)
(-0.0181801 2.61433 5.77613e-22)
(-0.00165202 1.5863 -5.37104e-20)
(-0.0108115 1.50887 5.48645e-20)
(-0.0212218 1.39964 0)
(-0.0252265 1.40553 0)
(-0.0320451 1.39677 0)
(-0.00966444 1.32025 0)
(0.00110613 1.24457 0)
(0.385644 1.51385 2.97536e-19)
(0.434217 1.51787 1.56713e-19)
(0.591886 2.46735 -2.4362e-19)
(0.386336 2.56089 6.95789e-19)
(0.349771 2.05179 6.69984e-20)
(1.0207 -0.00800701 0)
(1.01579 -0.00936101 0)
(1.01484 -0.0132167 0)
(1.00772 -0.000562584 0)
(1.00486 -0.000677797 0)
(1.00799 -0.00447753 0)
(1.00954 -0.00344279 0)
(1.01465 -0.00428779 0)
(1.01954 0.0162449 1.10592e-18)
(1.01717 0.0147265 -1.3986e-18)
(1.01993 0.0186186 -1.11495e-18)
(1.01735 0.016653 1.39704e-18)
(0.767931 1.35777 0)
(0.706735 1.39309 2.53496e-19)
(0.875079 1.23872 1.08042e-19)
(0.912442 1.19805 -1.43393e-19)
(1.1648 2.61273 2.53118e-19)
(0.747606 0.132809 5.7423e-19)
(1.17177 0.107703 0)
(1.21428 0.201727 -4.07738e-19)
(1.19539 0.154131 -1.6954e-20)
(1.01252 0.167235 0)
(0.0768843 3.01838 3.36574e-19)
(0.0825772 2.90264 -1.12442e-18)
(0.0249448 2.35868 7.1187e-19)
(0.147574 -0.249462 -3.23974e-19)
(0.342269 3.44488 -2.55783e-19)
(0.192848 3.33974 0)
(0.223735 3.39635 3.33187e-19)
(0.222051 3.07632 -1.18265e-18)
(0.254997 3.19527 0)
(0.00704718 3.12237 4.96691e-20)
(0.0171718 3.13115 -5.72546e-19)
(0.0164395 3.12701 8.42693e-19)
(0.0335533 3.14006 0)
(0.0314924 3.14975 0)
(1.25795 2.57667 0)
(0.5353 0.789064 -5.16871e-19)
(1.02523 1.03365 -1.86419e-20)
(0.99076 1.08662 0)
(0.859566 0.969644 -1.0159e-19)
(1.08339 0.909135 2.65375e-20)
(0.331991 0.3068 -8.01633e-19)
(0.650775 0.322752 -2.20921e-20)
(0.536339 0.219555 3.85134e-19)
(0.544496 0.322777 2.7956e-20)
(0.428733 0.274275 -1.11893e-18)
(0.608194 0.322409 0)
(0.694482 0.427415 6.44319e-19)
(0.697492 0.433827 0)
(0.579228 0.329163 0)
(0.489957 0.254177 0)
(0.799493 0.65414 3.85913e-19)
(1.25323 0.306892 -4.08395e-19)
(1.24608 0.438659 0)
(1.24636 0.394353 0)
(0.686727 0.188049 5.8788e-19)
(0.848112 0.557714 -3.63636e-19)
(0.768986 0.521053 6.49336e-19)
(0.966183 0.452734 -6.51967e-19)
(1.01836 0.0146658 7.49597e-19)
(1.01705 0.0136362 -7.56617e-19)
(1.01597 0.0141427 0)
(1.03705 -0.0045258 0)
(1.03045 -0.00769794 -7.09503e-19)
(1.02866 -0.0105789 7.02125e-19)
(1.02474 0.0110031 0)
(1.02269 0.0151175 0)
(1.0127 0.00471021 0)
(1.01456 0.00910164 0)
(1.01638 0.00423329 0)
(1.01555 0.00292299 0)
(0.0777286 1.36225 0)
(0.0813223 1.30519 0)
(0.153829 1.42279 5.87164e-20)
(0.276866 1.48567 8.64539e-20)
(0.176401 1.45716 1.94045e-19)
(0.212632 1.45519 -3.13937e-19)
(0.161975 1.43327 0)
(0.142101 1.58406 -8.75427e-20)
(0.138688 1.58184 0)
(0.345449 2.00579 -9.75374e-20)
(0.323413 2.33634 5.53041e-19)
(0.194941 1.46507 7.62894e-20)
(0.275318 1.39954 2.75999e-20)
(0.205325 1.39949 -2.25113e-20)
(0.289177 1.33824 -7.81304e-20)
(0.261025 1.57828 0)
(0.265923 1.62615 8.90076e-20)
(0.0220494 2.25292 -1.45041e-20)
(0.0386494 2.66911 0)
(0.0628075 2.40525 9.71055e-20)
(0.058286 2.42914 0)
(0.067529 2.68793 -1.83568e-19)
(0.0426231 2.70344 0)
(0.0231708 1.45689 5.79069e-20)
(0.0322922 1.51444 0)
(0.0295709 1.4172 0)
(0.0183141 1.42709 -6.61693e-20)
(0.00268061 2.66132 9.57532e-22)
(0.0268084 2.69253 1.83459e-19)
(0.0104202 2.73323 9.62384e-22)
(0.00171741 1.84623 -2.0607e-20)
(-0.00491697 1.69934 -1.57388e-20)
(0.00883093 1.30622 0)
(0.0169236 1.22484 0)
(0.0406215 1.59593 -9.26522e-21)
(0.0408547 1.47469 -5.29375e-20)
(0.0271335 1.55292 5.55548e-20)
(0.0512124 1.61989 0)
(-0.0304647 2.27164 1.16765e-19)
(-0.0337914 2.55104 -4.94238e-20)
(-0.0199012 2.45051 8.22836e-21)
(-0.00543456 1.86211 2.49709e-20)
(-0.0272278 2.50533 1.13942e-20)
(-0.0224784 2.4467 -2.58907e-20)
(1.01802 0.0220664 -7.57358e-19)
(1.01444 0.0285012 7.60983e-19)
(1.01195 0.0174695 0)
(1.01138 0.0705004 1.03992e-18)
(0.99083 0.0598908 -1.19401e-18)
(0.950955 0.0552546 1.33653e-18)
(1.01318 0.116668 -1.41763e-19)
(1.04399 -0.00466703 0)
(1.05219 -0.000407253 6.79264e-19)
(1.04028 -0.00818661 -6.78879e-19)
(1.07237 0.043709 -4.02288e-20)
(1.06499 0.0289146 3.4763e-19)
(1.06408 0.065605 0)
(1.0543 0.0549206 -1.25267e-19)
(1.03265 0.0443589 0)
(1.02594 0.0397256 0)
(1.02761 0.0137116 0)
(1.02401 0.01622 0)
(1.04012 0.0336444 2.57517e-19)
(1.0395 0.0286218 -5.70327e-19)
(1.0533 0.0388472 -2.7233e-19)
(1.04813 0.0387337 -3.00579e-19)
(1.07787 0.0703543 5.74085e-19)
(1.10182 0.0563548 0)
(1.10862 0.0953245 0)
(-0.0282606 2.27821 6.96687e-20)
(-0.0302107 2.02813 3.5008e-21)
(-0.0253918 2.03795 0)
(-0.0299631 2.44692 -6.93632e-20)
(-0.0275059 2.40546 -6.74301e-21)
(-0.0342012 2.47437 8.89598e-21)
(-0.0212904 2.62458 -3.11891e-20)
(-0.0262497 2.56703 1.63808e-21)
(-0.0246866 2.52033 -1.06496e-20)
(-0.0171554 2.61795 2.06949e-20)
(-0.0211374 2.62004 -2.3825e-20)
(-0.0107546 1.50571 -4.39486e-22)
(-0.00521595 1.63413 -5.2928e-20)
(0.37689 1.44942 -1.28376e-19)
(0.371566 1.38064 8.33112e-21)
(0.648554 1.44111 -2.45277e-19)
(0.524705 1.51095 -1.52421e-19)
(0.578427 1.4696 0)
(0.608068 2.42354 2.14081e-19)
(0.667183 2.43312 3.34375e-19)
(0.420753 2.51829 9.45997e-20)
(0.403478 2.54019 -5.8753e-19)
(0.500599 2.47976 5.48928e-19)
(0.553783 2.47754 0)
(0.486319 2.5281 -5.41371e-19)
(0.258489 2.59088 1.11563e-18)
(0.362542 2.56918 -6.08153e-20)
(0.279061 2.6542 -1.56222e-18)
(0.970803 2.39116 7.01364e-19)
(0.848923 2.39184 0)
(1.01144 0.001388 2.47106e-20)
(1.01538 -0.00517733 -2.01834e-20)
(1.01776 -0.00392246 -3.68922e-19)
(1.01562 -0.00104279 3.67637e-19)
(1.01312 0.00184335 0)
(0.636868 1.30306 0)
(0.679375 1.18817 0)
(0.794093 1.11885 0)
(0.667004 1.14564 0)
(1.19573 2.62814 5.12919e-20)
(1.0886 2.38022 0)
(0.818193 2.16892 3.40206e-21)
(0.821666 2.43253 0)
(0.916483 2.52291 -4.20774e-19)
(0.947939 2.47235 2.80917e-19)
(0.781957 0.16367 0)
(0.728696 0.143575 1.55871e-19)
(0.909578 0.163993 9.06971e-19)
(0.819442 0.146064 -3.38824e-19)
(0.756766 0.0925443 -1.05227e-18)
(1.08833 0.24593 -8.22532e-19)
(0.986226 0.31664 -9.97661e-21)
(0.930409 0.352706 7.99544e-19)
(1.01485 0.260031 6.80551e-19)
(0.933478 0.207369 -1.19639e-18)
(0.890445 0.219978 1.50024e-19)
(0.930363 0.31814 -3.12709e-19)
(0.905889 0.22347 0)
(1.00099 0.207617 5.85215e-19)
(1.05633 0.217495 0)
(1.0529 0.228509 0)
(1.12568 0.124809 2.6202e-19)
(1.06612 0.194904 -1.08275e-20)
(1.08018 0.247922 -1.50017e-19)
(1.1138 0.211637 0)
(1.02345 0.0488398 5.83207e-19)
(1.03698 0.0628591 7.25803e-19)
(1.03272 0.0466003 -5.78532e-19)
(1.04166 0.0691509 -4.86663e-19)
(1.01481 0.0751411 -7.37274e-19)
(0.984731 0.170773 0)
(0.988093 0.109124 0)
(0.962427 0.074349 -4.76067e-19)
(0.897301 0.100758 1.90943e-19)
(1.03888 0.116771 6.73562e-19)
(1.07597 0.136579 -7.67852e-19)
(1.07076 0.181541 6.9056e-19)
(1.03563 0.15847 0)
(1.08608 0.122438 0)
(1.05727 0.112784 -3.15114e-19)
(1.0425 0.108582 -5.47191e-19)
(0.587771 1.08472 1.11821e-19)
(0.612373 1.40157 -1.45478e-20)
(1.14516 2.71868 -2.37366e-19)
(1.19774 3.10313 9.09427e-22)
(1.25358 2.72874 -1.0633e-19)
(1.29327 2.69955 1.14954e-20)
(1.2688 2.32316 -3.80682e-20)
(1.18542 3.00863 -6.62653e-20)
(1.20492 2.96562 2.11541e-19)
(1.17953 3.25658 -1.25154e-19)
(1.39714 2.97107 1.56211e-19)
(1.40864 2.90724 0)
(0.573726 0.815475 -4.69045e-20)
(0.208945 1.21129 4.67946e-19)
(0.519326 0.345403 5.17115e-19)
(0.405355 0.109044 5.86796e-19)
(0.47961 0.301084 6.33643e-19)
(0.548756 0.416295 -1.03168e-18)
(0.556176 0.401762 8.49747e-19)
(0.471853 0.301843 -3.18823e-19)
(0.340693 0.242891 7.21528e-19)
(0.722304 0.253989 -3.39016e-19)
(0.672538 0.285405 0)
(0.604479 0.195753 7.77811e-21)
(0.739841 0.507577 3.51658e-19)
(0.709615 0.479457 -1.27471e-18)
(0.635193 0.434326 1.46568e-20)
(0.622344 0.413169 0)
(0.719644 0.715678 3.65681e-19)
(0.836141 0.798876 4.00831e-19)
(0.77364 0.848849 -4.67289e-19)
(0.904056 0.820832 -1.47806e-19)
(0.938824 0.864102 -3.38207e-20)
(0.946366 0.871474 3.46888e-20)
(0.882765 0.6779 -6.5354e-19)
(0.95514 0.724636 1.37413e-19)
(1.00937 0.728293 0)
(1.00818 0.704099 -1.75104e-19)
(1.03143 0.340889 2.05845e-19)
(1.1586 0.340805 2.46595e-19)
(1.07458 0.283669 3.36295e-19)
(0.999586 0.387959 -4.12049e-19)
(1.0571 0.488345 0)
(1.13887 0.428861 0)
(0.902994 0.42643 -5.1017e-22)
(0.847719 0.323118 0)
(0.892298 0.313381 3.82769e-19)
(0.913594 0.351494 3.01022e-21)
(0.987608 0.497144 1.82023e-18)
(0.920351 0.555679 4.69248e-19)
(0.942844 0.514131 -4.97408e-19)
(0.861093 0.491649 5.30537e-19)
(0.827167 0.466766 3.38772e-19)
(0.803251 0.443826 -3.32146e-19)
(1.02818 -0.000379584 6.09459e-19)
(1.02043 0.000579288 0)
(1.01907 0.0013966 3.97799e-19)
(1.02265 -0.000700033 -9.00454e-19)
(1.02255 0.00459091 4.38676e-19)
(1.02002 0.0116385 -9.18193e-19)
(1.02074 0.0114449 0)
(1.01967 0.0122021 -1.91212e-19)
(1.01656 0.0078035 4.79258e-19)
(1.01668 0.0109153 -2.40497e-19)
(1.01727 0.0106169 1.75956e-19)
(0.0353412 1.33564 0)
(0.0378134 1.39454 0)
(0.0548804 1.34003 0)
(0.0588946 1.27794 0)
(0.0886014 1.40185 -6.58156e-20)
(0.0928189 1.37538 1.31858e-20)
(0.0830345 1.57526 2.76895e-21)
(0.103552 1.40947 -4.33288e-20)
(0.0436949 1.48752 4.83792e-20)
(0.0484602 1.48307 -3.81895e-20)
(0.0754861 1.3974 -2.67366e-20)
(0.0632284 1.40063 7.53165e-20)
(0.0571283 1.38046 1.23542e-20)
(0.0450618 1.39831 8.0432e-21)
(0.0997957 2.37225 -1.07193e-19)
(0.0933458 2.41943 0)
(0.148369 2.0182 1.02522e-19)
(0.132341 1.70038 3.54822e-20)
(0.218923 2.01523 -8.304e-20)
(0.199227 2.43562 0)
(0.215289 2.40032 -6.54213e-19)
(0.32892 2.35917 4.32326e-19)
(0.248055 1.97976 -2.26947e-19)
(0.138812 2.14488 1.56165e-19)
(0.112321 2.25041 0)
(0.015212 1.85604 -2.97799e-20)
(-0.00469083 2.37626 -1.02458e-20)
(0.00407933 2.13414 0)
(0.00576721 2.43864 -1.68813e-20)
(0.022277 2.27465 2.59683e-20)
(0.00868517 1.43294 -1.1625e-20)
(0.00617696 1.41199 1.9241e-19)
(0.0051049 1.42071 -6.27442e-20)
(0.0175382 1.42977 -5.44647e-20)
(0.02047 1.46007 0)
(0.00361105 1.40244 0)
(-0.00364285 1.30511 -7.0945e-20)
(-0.000767817 1.38862 2.0251e-20)
(0.00417069 1.38942 0)
(0.00430561 1.29645 -5.40544e-20)
(0.0119503 1.21653 1.08538e-19)
(1.04244 0.0150871 0)
(1.04898 0.0105651 -6.3515e-20)
(1.03911 0.024682 -4.59212e-19)
(1.0496 0.0234877 0)
(1.05463 0.0226318 0)
(1.03626 0.0130873 -6.75984e-21)
(1.03002 0.0135601 7.4138e-19)
(1.03185 0.0175002 8.97597e-19)
(1.02566 0.0211198 0)
(1.02221 0.0216434 0)
(1.03546 0.0259936 4.58573e-19)
(1.02559 0.0282845 0)
(1.02353 0.0282053 0)
(-0.0201394 2.03039 0)
(-0.00975138 1.6621 -2.33106e-21)
(-0.0084419 1.76725 -3.22101e-20)
(-0.00534246 1.3961 0)
(-0.00933704 1.56485 -2.99498e-20)
(-0.0155555 1.47368 1.83146e-20)
(-0.0106735 1.40906 0)
(0.403551 1.62624 0)
(0.365283 1.31851 -1.11834e-20)
(0.275323 1.34557 0)
(0.434886 1.31663 -5.88181e-20)
(0.472899 1.47632 0)
(0.457301 1.41722 4.96212e-20)
(1.04057 2.67191 -1.48926e-20)
(0.985292 2.41032 -8.81139e-19)
(0.947923 2.21081 9.87342e-19)
(0.865599 2.38395 2.3871e-19)
(0.853011 2.48853 0)
(0.921882 2.48328 0)
(0.954583 2.38422 0)
(0.930625 2.3749 -9.23214e-19)
(0.691444 2.45261 -3.65259e-19)
(0.80051 2.43651 -9.48997e-20)
(0.807826 2.4145 7.15096e-20)
(0.704394 2.4045 0)
(0.809776 2.39815 0)
(0.77043 2.41463 -3.62386e-19)
(0.765868 2.46691 0)
(0.630277 1.06689 0)
(0.51559 0.859258 -5.42586e-19)
(0.521951 0.931241 -3.14281e-20)
(0.501804 1.07113 0)
(0.488807 0.979424 8.30999e-19)
(0.801888 0.886405 -1.28312e-19)
(0.805491 1.02134 0)
(0.786412 1.00412 1.74694e-19)
(0.675274 1.02089 0)
(0.667124 0.924342 0)
(1.16357 2.75534 -2.1058e-19)
(1.13872 2.81351 -8.27672e-20)
(0.923126 2.33582 6.34099e-20)
(0.899811 2.31682 -7.22662e-20)
(1.13322 2.73331 0)
(1.08521 2.70111 8.67958e-20)
(1.10138 2.49667 -2.89432e-19)
(1.00311 2.25643 -2.83495e-20)
(0.497286 1.33031 0)
(0.517126 1.07766 -9.85017e-20)
(0.594195 1.18212 0)
(0.851117 0.230329 0)
(0.756423 0.176947 0)
(0.661056 0.142498 0)
(0.855127 0.230918 -6.03471e-19)
(0.744486 0.225019 3.54652e-19)
(0.917337 0.0893652 -3.9375e-19)
(0.92351 0.135507 0)
(0.901825 0.149783 1.70983e-19)
(0.83489 0.109502 6.84525e-19)
(0.792828 0.0763575 -4.27936e-19)
(1.09671 3.3479 -6.78472e-19)
(1.16449 3.27131 0)
(1.11498 3.43283 -1.57937e-18)
(0.656599 3.57875 1.31548e-18)
(1.02536 3.07652 1.26673e-19)
(0.532915 0.781299 5.5811e-19)
(0.512363 0.749465 0)
(0.350388 0.360682 -1.41991e-19)
(0.487721 0.628502 8.4109e-19)
(0.551075 0.346603 -1.85754e-19)
(0.519323 0.453821 2.21253e-19)
(0.690402 0.524165 4.53579e-19)
(0.736626 0.560489 0)
(0.665663 0.563845 0)
(0.649885 0.530657 0)
(1.01701 0.612705 8.46654e-20)
(0.972016 0.595088 -4.54571e-19)
(0.981962 0.607145 3.45725e-19)
(1.0462 0.549757 -3.34846e-19)
(1.09107 0.519466 0)
(1.09307 0.601648 -8.73441e-20)
(0.887322 0.421543 -7.54731e-19)
(0.875909 0.408434 -9.69521e-19)
(0.799232 0.407284 5.95006e-19)
(0.814237 0.376649 -6.17349e-19)
(0.856503 0.33503 -4.85162e-19)
(0.800696 0.338555 5.94287e-19)
(1.02656 0.00670725 -4.58946e-19)
(1.02619 0.00682656 9.24606e-19)
(1.02995 0.000961046 5.90454e-19)
(1.03417 0.0015833 -7.08927e-19)
(1.03399 0.0120027 0)
(1.02967 0.0120674 -1.16099e-18)
(0.0812505 1.64736 1.09942e-20)
(0.0667107 1.60736 0)
(0.107954 1.70396 4.84263e-20)
(0.114242 1.6772 -4.25028e-20)
(0.072877 1.57211 -5.06012e-21)
(0.0659907 1.57563 0)
(0.00737604 1.7004 0)
(-0.00856149 1.51501 1.59176e-20)
(-0.00740033 1.45538 -1.43083e-20)
(-0.012289 1.56238 2.9207e-21)
(-0.00146538 1.89409 2.36974e-20)
(-0.0138574 1.94873 -9.21798e-21)
(0.493565 1.36119 -2.41545e-19)
(0.496057 1.35621 2.64427e-19)
(0.449069 1.30904 1.16601e-21)
(0.42819 1.29164 6.65113e-21)
(0.628409 1.31109 0)
(0.555837 1.40465 1.27202e-19)
(0.556925 1.40783 -1.2387e-19)
(0.484633 1.2965 -1.12472e-21)
(0.525808 1.25016 0)
(0.590287 1.21605 0)
(0.665243 2.41603 5.37851e-19)
(0.660729 2.44617 1.24685e-18)
(0.716284 2.46111 -8.57778e-19)
(0.61531 2.43306 -1.96604e-19)
(0.556648 2.52612 2.66472e-19)
(0.497361 2.49234 -6.86074e-19)
(0.99313 2.3891 -5.56162e-19)
(1.0252 2.40675 0)
(0.952001 2.19461 -6.08684e-19)
(1.05604 2.68223 0)
(1.05494 2.6634 0)
(0.601798 2.28911 1.62567e-20)
(1.11904 3.06906 8.55203e-20)
(0.996754 2.96639 -1.3414e-19)
(0.321667 0.795722 0)
(0.320362 0.675741 -2.98718e-19)
(0.526608 0.611 -3.00352e-19)
(0.364391 2.13126 0)
(0.403485 2.74408 -8.91642e-20)
(0.412996 2.47856 0)
(0.728214 0.682344 -7.78862e-19)
(0.795078 0.690379 1.08445e-18)
(0.800286 0.657599 -1.03774e-18)
(0.701104 0.64041 -9.88882e-20)
(0.760103 0.599115 -4.07886e-19)
(0.970898 2.75256 -6.47715e-20)
(1.01407 2.75915 -1.96452e-19)
(0.5524 2.20596 4.22101e-19)
(0.604658 1.73417 -3.36132e-19)
(0.703729 1.85288 -4.7947e-19)
(0.977361 2.39299 -1.36137e-19)
(0.977412 2.34608 3.50985e-19)
(0.64662 1.76301 3.23969e-20)
(0.452995 1.29621 1.67874e-19)
)
;

boundaryField
{
    wall-4
    {
        type            noSlip;
    }
    velocity-inlet-5
    {
        type            fixedValue;
        value           uniform (1 0 0);
    }
    velocity-inlet-6
    {
        type            fixedValue;
        value           uniform (0 3 0);
    }
    pressure-outlet-7
    {
        type            zeroGradient;
    }
    wall-8
    {
        type            noSlip;
    }
    frontAndBackPlanes
    {
        type            empty;
    }
}


// ************************************************************************* //
