/*--------------------------------*- C++ -*----------------------------------*\
  =========                 |
  \\      /  F ield         | OpenFOAM: The Open Source CFD Toolbox
   \\    /   O peration     | Website:  https://openfoam.org
    \\  /    A nd           | Version:  6
     \\/     M anipulation  |
\*---------------------------------------------------------------------------*/
FoamFile
{
    version     2.0;
    format      ascii;
    class       volScalarField;
    location    "22";
    object      p;
}
// * * * * * * * * * * * * * * * * * * * * * * * * * * * * * * * * * * * * * //

dimensions      [0 2 -2 0 0 0 0];

internalField   nonuniform List<scalar> 
918
(
0.206788
0.971715
0.0095878
0.206608
-0.00242092
0.939798
-0.833009
0.38584
0.187791
-0.458308
-0.234572
0.180722
0.796735
0.563746
-1.51542
-0.0228331
0.345447
-0.715705
0.185461
-0.00269266
0.448844
0.194657
0.197068
0.187747
0.244792
0.528668
0.673329
0.000499528
-0.000281413
-0.00389197
0.000459958
-0.0120978
-0.0133666
0.822944
0.874875
0.897991
0.155721
-0.0174808
-0.711064
-0.769955
-0.742257
-0.875887
0.374834
0.377156
-0.503758
0.38477
0.398291
0.173824
0.187073
0.187917
0.189387
0.188065
0.189438
0.159528
-0.458907
-0.50018
-0.456619
-0.462075
-0.186012
-0.287863
-0.339323
-0.194507
-0.150233
0.110854
0.177982
0.174765
0.184431
0.193502
0.911889
0.885562
0.911549
0.822594
0.840034
0.773649
0.746524
0.585917
0.608992
0.546811
0.536115
-1.9894
-2.95803
-0.923566
-0.632711
0.000173075
-0.029362
-0.0338689
0.330619
0.331014
0.342572
0.355969
0.706449
-0.703399
-0.853617
0.185843
0.18439
0.194004
0.194954
0.189877
0.189936
0.000272181
-0.00539382
-0.0133266
0.000909904
-0.00529984
0.43382
0.428794
0.18721
0.18475
0.204064
0.228102
0.216509
-0.0523785
0.255124
0.272926
0.373809
0.531376
0.520667
0.532028
0.648646
0.615788
0.705411
0.726972
0.0107281
0.00353775
-0.0245179
-0.0175073
-0.0229664
0.152113
0.146665
0.170176
0.159287
0.162201
-0.112358
-0.264552
0.062802
0.084704
-0.622765
-0.67081
-0.798607
-0.780077
-0.868208
0.206656
0.37031
0.370927
-0.523987
-0.44132
-0.576748
-0.380876
-0.441534
0.165798
0.171076
0.167815
0.182392
0.176679
0.179072
0.191165
0.188306
0.189864
0.177979
0.30132
0.0910196
0.0810302
-0.585009
-0.504763
-0.571599
-0.456245
-0.452834
-0.169071
-0.149944
-0.187658
-0.18935
-0.445688
-0.392319
-0.415794
-0.111024
-0.0777964
0.102579
0.0922765
0.120864
0.126956
0.167951
0.170158
0.172564
0.17139
0.69747
0.720163
0.726533
0.70291
-3.95826
-6.63519
-0.271873
-0.104001
0.000544917
0.00278938
0.00229749
0.00571271
0.00117703
-0.000984505
-0.137095
-0.107515
-0.0481713
-0.0684379
0.321932
0.323414
0.660563
0.68669
0.662505
0.639009
0.174941
0.177154
0.181799
0.178777
-0.0444757
-0.0141993
-0.0283789
0.398655
0.414732
0.411044
-0.0911691
-0.176218
-0.00566067
0.0231033
0.312066
0.284629
0.305325
0.435219
0.474665
0.743609
0.768325
0.751946
0.765124
0.816174
0.839108
0.804239
0.132151
0.142974
0.137408
0.173918
0.171397
0.172759
0.167313
0.169373
0.167329
-0.379052
-0.757516
0.143328
0.151773
0.121143
0.127596
0.285771
0.368664
0.35418
0.36226
0.364412
-0.330503
-0.384723
0.00599032
-0.0468842
0.0500251
0.0816875
0.0657821
0.672769
0.633789
0.681443
0.656905
0.621821
0.645277
-0.694929
-2.48967
-1.4672
0.313513
0.10892
0.203651
-0.169833
-0.176127
-0.169979
0.690942
0.725827
0.362895
0.534391
0.49901
0.503944
0.532978
0.589226
0.519686
0.554903
0.588971
0.568172
0.176506
0.145042
0.150323
0.45023
0.513544
-0.210595
-0.281242
-0.310457
-0.133664
-0.0741929
-0.10669
0.689701
0.5762
0.646068
0.185238
0.186106
0.00742233
0.00651264
0.189811
0.189645
0.00436
-0.0053373
0.222507
-1.29811
-0.196459
0.17894
0.169089
0.185711
-0.410143
0.0422681
-0.295977
-0.250838
-0.127335
0.176223
0.121689
0.0860445
0.00621208
-0.00990982
-0.0138436
-0.512273
0.182879
0.181369
0.185204
0.186088
0.186839
0.00470419
0.00432185
0.00372912
-0.0078447
-0.00129846
-0.000434155
0.151395
0.168568
-0.502786
0.18532
0.187416
0.187199
0.181048
0.18624
0.184696
-0.00535476
-0.00585054
-0.0184901
-0.106295
0.0182092
0.42028
0.506033
0.360275
0.184995
-0.124546
0.34744
0.405683
0.323525
0.463631
0.357079
0.366409
-0.13768
-0.276911
-0.134835
-0.190824
0.176399
0.175566
0.166902
0.164358
0.180796
0.178667
0.18338
0.180419
0.183327
0.184624
-0.391395
-0.438552
-0.41146
-0.464283
0.0634929
0.278233
-0.0704327
0.0345947
-0.117449
-0.263477
-0.199873
-0.38268
-0.411324
-0.575097
-0.174368
-0.226951
-0.255305
-0.0328298
-0.153834
-0.386647
-0.237361
-0.284288
0.170176
0.169869
0.176582
0.183331
0.129731
0.132101
0.103599
0.120418
0.106703
0.0548347
0.0843905
0.062192
0.00467332
0.00862542
0.00399207
-0.00747822
-0.0231137
0.00183375
0.00625358
0.0101865
-0.00233784
-0.00178543
-0.0167145
-0.0139287
-0.488915
-0.594034
0.636023
0.586464
-0.228883
0.172496
0.178679
0.17566
0.180212
0.183261
0.183722
0.181405
0.178408
0.168729
0.170239
0.166556
0.166717
-0.44922
-0.554346
-0.381986
-0.453256
-0.192024
0.296716
0.0261621
-0.0238328
-0.0382777
0.174692
0.372926
0.332231
0.428543
0.431652
-0.739339
-0.307085
-0.657487
-0.108728
-0.128887
0.439851
0.485482
0.505558
0.46016
0.41291
-0.373085
0.188582
-0.371921
-0.330804
-0.14791
-0.245468
0.397778
0.33788
0.34508
0.358789
0.380232
0.348194
0.326077
0.322575
0.351625
0.358887
0.167393
-0.0751741
-0.108583
-0.158766
0.322893
0.199528
0.251287
0.179531
0.171458
0.174213
0.17287
0.156042
0.162138
0.158468
0.163749
0.167054
0.175804
0.175898
0.171732
0.173727
-0.435664
-0.434274
-0.406666
-0.446923
-0.458736
-0.495417
-0.425734
-0.18463
-0.223553
-0.0944556
0.0484138
-0.228702
-0.401203
-0.365074
-0.342762
-0.126193
-0.151187
-0.334502
-0.126472
-0.161029
-0.219466
-0.031157
-0.0190555
-0.469033
-0.550983
-0.527921
-0.464962
-0.254897
-0.211949
-0.175296
-0.181613
-0.316346
-0.161527
-0.101123
-0.48191
-0.555316
-0.541649
-0.464214
-0.000286589
-0.00704479
-0.0208824
-0.0730028
-0.0466828
-0.0586122
0.166978
0.167855
0.169081
0.18023
0.190983
0.20634
0.173372
0.14874
0.141872
0.143986
0.119326
0.127856
0.123067
0.137055
0.156837
0.163203
0.161705
0.164057
0.148942
0.149361
0.137863
0.142071
0.116941
0.101496
0.0925008
0.000717487
0.00391957
0.000752435
-0.00796361
0.00632879
0.00193028
-0.058925
-0.0206841
-0.0335819
-0.0271082
-0.0813723
0.00916248
0.00448916
-0.416479
-0.348585
-0.511232
-0.546185
-0.60606
0.542552
0.659021
0.477884
0.270052
0.262086
0.493331
0.583878
0.258181
0.428389
0.45415
0.187356
0.463479
0.176865
0.176218
0.173838
0.173413
0.174561
-0.354451
-0.258936
-0.227804
-0.184614
-0.0710311
0.0356722
-0.047895
-0.163711
-0.0228221
0.00949561
0.290121
0.30525
0.248379
0.275439
0.27269
0.0961905
0.173658
0.212529
0.166359
0.229188
0.261135
0.208318
0.251618
0.179067
0.136131
0.13053
0.079876
0.114298
0.0952496
0.0692526
0.168171
0.148199
0.157503
0.150515
0.168083
0.195921
0.193835
0.214385
0.229224
0.15232
0.108456
0.122907
0.14768
0.109902
0.123785
0.142085
-0.178312
-0.271255
-0.115975
-0.438302
-0.338579
-0.303444
-0.342473
-0.401307
-0.0964428
-0.736036
-0.672167
-1.36241
0.124447
0.543317
0.362986
0.380612
0.378495
0.357033
0.364604
0.387664
0.395476
0.314225
0.328775
0.333872
0.282843
0.317718
0.327836
0.333985
0.157954
0.0774262
0.0714276
0.0157092
-0.113797
-0.0800808
0.0943689
0.0353635
-0.0294058
-0.0328622
0.139223
0.0155168
0.0862385
0.137498
0.0798855
0.0137665
0.226932
0.284087
0.271154
0.238672
0.156606
0.17167
0.199234
0.239595
0.260281
0.290992
0.162768
0.169376
0.170319
0.167479
0.166165
0.168641
0.168384
0.170944
0.171797
0.174185
0.173387
-0.47146
-0.514191
-0.445621
-0.458901
-0.397936
-0.372849
-0.296921
-0.355197
-0.487219
-0.449212
-0.430974
-0.443521
-0.465958
-0.48555
-0.20739
-0.211521
-0.197131
-0.246189
-0.043856
0.106172
0.151907
0.038182
-0.0936977
-0.0665817
0.0212005
-0.452445
-0.399799
-0.53663
-0.37509
-0.392346
-0.283529
-0.219491
-0.231038
-0.310025
-0.352588
-0.152592
-0.0267069
-0.0499875
-0.0751717
-0.0565315
-0.0348748
0.151564
0.146408
0.145312
0.139566
0.13922
0.1514
0.156217
0.157818
0.162698
0.164392
0.156649
0.161374
0.164017
-0.0221062
0.00705927
0.00734938
-0.0362903
-0.00616578
0.00107613
-0.0130101
-0.231407
-0.322833
-0.294311
-0.348607
-0.459843
-0.404935
0.131138
0.117006
0.131722
0.330942
0.186265
0.0949303
0.178004
0.288006
-0.0867093
0.118081
-0.0514487
0.516285
0.40966
0.553492
0.199571
-0.106069
0.0445725
0.0592752
-0.100912
0.0182292
0.00306384
-0.117961
-0.0797936
-0.0657754
0.0135415
-0.0985202
-0.124948
-0.363784
-0.190878
-0.0697131
-0.0897938
0.044435
0.102108
-0.0987432
-0.18405
-0.231845
0.281638
0.299668
0.313319
0.286485
0.308818
0.233447
0.225993
0.24513
0.253838
0.245457
-1.00414
-0.593938
-1.80226
-1.21275
-0.760721
0.152769
0.134371
0.392895
0.301104
0.375087
0.357674
0.29791
0.262612
0.280322
0.314893
0.0108317
0.11572
0.0791862
0.0989115
0.0357179
-0.0403158
0.25217
0.249861
0.276968
0.301102
0.274613
0.302274
0.162147
0.16162
0.160294
0.157697
0.156232
0.158313
-0.340047
-0.416491
-0.271538
-0.291159
-0.343773
-0.393827
-0.0376174
-0.0605334
-0.0473294
-0.0354739
-0.00438404
-0.0306293
-0.184384
-0.244517
-0.330962
-0.289872
-0.347649
-0.426111
-0.432973
-0.345971
-0.246171
-0.265276
0.0324963
0.311715
0.140168
0.30599
0.0859489
0.194569
0.123987
0.10272
0.138193
0.0161655
0.100618
-0.36834
-0.546941
-0.612958
0.453962
0.405847
0.195778
-0.0690853
-0.168012
0.14202
0.184432
0.148453
0.184365
0.231087
0.225657
-0.362529
-0.256355
-0.210732
0.0993366
-0.0975115
-0.0762493
-0.0862998
0.0649332
0.0393958
)
;

boundaryField
{
    wall-4
    {
        type            zeroGradient;
    }
    velocity-inlet-5
    {
        type            zeroGradient;
    }
    velocity-inlet-6
    {
        type            zeroGradient;
    }
    pressure-outlet-7
    {
        type            fixedValue;
        value           uniform 0;
    }
    wall-8
    {
        type            zeroGradient;
    }
    frontAndBackPlanes
    {
        type            empty;
    }
}


// ************************************************************************* //
