/*--------------------------------*- C++ -*----------------------------------*\
  =========                 |
  \\      /  F ield         | OpenFOAM: The Open Source CFD Toolbox
   \\    /   O peration     | Website:  https://openfoam.org
    \\  /    A nd           | Version:  6
     \\/     M anipulation  |
\*---------------------------------------------------------------------------*/
FoamFile
{
    version     2.0;
    format      ascii;
    class       volVectorField;
    location    "22";
    object      U;
}
// * * * * * * * * * * * * * * * * * * * * * * * * * * * * * * * * * * * * * //

dimensions      [0 1 -1 0 0 0 0];

internalField   nonuniform List<vector> 
918
(
(0.984984 -0.000755737 0)
(0.00531094 2.96626 0)
(-0.0187954 1.55811 0)
(0.979597 0.00190582 0)
(-0.0026864 1.54612 1.05102e-20)
(-0.00705797 2.94854 -2.00025e-18)
(0.842539 1.16796 7.28813e-19)
(0.419527 0.161646 -8.47847e-21)
(0.999918 -0.000275537 0)
(0.0800768 0.751627 0)
(-0.0551356 0.877721 0)
(0.75446 -0.0105779 0)
(0.0101907 2.93152 0)
(0.00281759 2.79441 0)
(-0.00020046 3.20369 1.13922e-18)
(-0.000546451 1.42868 2.44979e-20)
(0.515593 0.0581593 5.34752e-19)
(0.222342 1.14797 6.48853e-19)
(0.964954 0.0068161 0)
(-0.000907079 1.25242 0)
(0.152772 0.241219 -4.44194e-19)
(1.00206 -0.00446679 0)
(0.999958 -0.0088708 0)
(0.975272 -0.00623378 0)
(0.667569 -0.0346266 0)
(0.0241382 2.64014 0)
(-0.0125936 2.9122 6.90241e-19)
(-0.0283388 1.57996 0)
(-0.0364534 1.72616 0)
(-0.0292336 1.57127 0)
(-0.0067688 1.86163 0)
(0.00416643 1.57071 -8.3119e-21)
(0.000167387 1.43908 0)
(-0.0222363 2.98758 -7.04243e-23)
(-0.0165332 3.00551 1.5549e-18)
(0.00230237 3.00065 0)
(0.872127 -0.00718452 0)
(0.365493 0.911055 -5.15524e-20)
(0.843642 1.17989 -1.06856e-18)
(0.982104 1.02644 9.80548e-19)
(0.705232 1.26709 -1.68089e-19)
(0.711857 1.25165 9.50111e-19)
(0.459262 0.261496 8.27196e-21)
(0.453424 0.147194 0)
(1.1714 0.524386 0)
(0.417748 0.274157 3.84445e-20)
(0.379897 0.180258 -3.98962e-20)
(0.920573 -0.00595707 0)
(1.00031 5.94485e-05 0)
(0.999912 0.000311917 0)
(1.00353 -0.00747402 0)
(1.00093 -0.00111489 0)
(1.00012 -6.11183e-05 0)
(0.0847292 1.8149 -2.85069e-19)
(0.0315766 0.903891 0)
(0.124251 0.850124 0)
(0.0405126 0.84367 0)
(0.0408104 0.67567 0)
(-0.0469972 1.59558 0)
(-0.0638673 0.924874 0)
(-0.0331287 0.744525 0)
(-0.0570428 1.06592 0)
(-0.0437904 1.00673 0)
(0.841477 -0.00660204 0)
(0.86077 0.0161434 0)
(0.775086 -0.00166152 0)
(0.850115 0.0215679 0)
(0.734862 -0.0145054 0)
(0.0139985 3.00017 7.34218e-19)
(0.0112575 3.00574 0)
(0.0064197 3.00397 0)
(0.0118986 2.99698 8.21688e-24)
(0.00835318 2.9587 -1.09123e-18)
(0.0122017 2.98297 0)
(0.0089155 2.90477 0)
(0.0211006 2.93133 1.52028e-24)
(0.00395735 2.82417 0)
(0.0263142 2.91853 0)
(-0.000910127 2.74349 0)
(0.312798 3.60685 0)
(-0.123284 3.69076 0)
(0.15443 3.29469 -1.06033e-18)
(0.00815115 3.02367 0)
(-0.0311954 1.83337 0)
(0.0133674 1.61044 -2.41657e-20)
(0.00238777 1.42529 3.74278e-20)
(0.582743 0.137952 -1.83708e-19)
(0.527973 0.0222004 -1.74717e-19)
(0.562227 0.163864 -5.52455e-19)
(0.517507 0.0887388 -3.7274e-19)
(0.254143 0.926122 0)
(0.308751 1.29226 -6.46573e-19)
(0.376516 1.27765 1.06639e-18)
(0.988321 0.00813827 0)
(0.944073 0.00617225 0)
(1.00029 0.000701532 0)
(1.00252 0.00912515 0)
(1.00311 0.00900149 -9.64484e-19)
(0.992107 0.00951663 7.29029e-19)
(-0.0173459 1.42123 0)
(-0.0154051 1.23617 0)
(-0.0344891 1.58609 0)
(-0.0220647 1.4775 0)
(-0.00359352 1.29448 0)
(0.202041 0.250061 1.37179e-19)
(0.243234 0.22528 0)
(0.993676 -0.0073881 0)
(0.953948 -0.00639109 0)
(0.81658 0.0273595 0)
(0.779903 0.0377594 0)
(0.705899 -0.0238631 0)
(0.993624 0.00104692 0)
(0.727113 0.0493294 0)
(0.577249 -0.030593 6.88116e-19)
(-0.0401448 2.86271 4.1336e-19)
(0.034592 2.91317 0)
(0.0437771 2.89058 0)
(0.00307019 2.69989 0)
(-0.00842008 2.98662 6.45039e-19)
(-0.0143724 2.89504 0)
(-0.0109241 2.99179 -2.01779e-18)
(-0.0117005 2.92984 6.91691e-19)
(-0.0357116 1.81134 0)
(-0.0309187 1.81112 0)
(0.0059853 1.58606 6.43724e-22)
(0.00691683 1.56295 0)
(-0.00405384 1.43722 0)
(0.937022 -0.00334861 0)
(0.856988 -0.00788869 0)
(0.867462 0.00938064 0)
(0.948402 -0.00485151 0)
(0.882469 -0.00712121 0)
(0.491523 1.11364 5.23324e-20)
(0.541141 1.18899 0)
(0.322486 0.837768 1.9731e-21)
(0.266607 0.704778 0)
(0.942261 1.06264 -2.86571e-19)
(1.0596 0.856967 5.80156e-19)
(0.474681 1.36694 0)
(0.553412 1.34293 0)
(0.580714 1.26192 0)
(0.0903819 0.136952 -1.14023e-19)
(0.486673 0.243197 0)
(0.467792 0.1476 1.0686e-19)
(1.02047 0.912625 0)
(1.08745 0.750929 0)
(1.11749 0.685428 -5.06461e-19)
(1.15001 0.591973 0)
(1.20546 0.384899 4.81028e-20)
(0.956267 -0.00708181 0)
(0.962809 -0.00776769 0)
(0.899526 -0.0069841 0)
(0.983965 -0.0077205 0)
(0.974304 -0.00756667 0)
(0.936438 -0.00602377 0)
(1.0002 0.00247855 0)
(1.00088 0.00132749 0)
(0.999965 0.000782698 0)
(0.0406973 2.03573 1.66984e-19)
(0.174779 1.73345 0)
(-0.0081404 2.10667 2.05132e-19)
(0.0162126 1.87646 -1.22458e-19)
(0.123742 1.14398 -5.38142e-19)
(0.0821834 1.00933 0)
(0.179602 0.988262 0)
(0.0127838 0.78804 0)
(-0.00324205 0.636757 0)
(-0.0541625 1.85474 2.70439e-21)
(-0.0531577 1.74646 0)
(0.00730492 1.74299 1.64146e-19)
(-0.0230667 1.46308 -3.19857e-19)
(-0.00592623 0.771801 0)
(-0.0321945 0.82284 0)
(-0.0175558 0.658528 0)
(-0.0496503 1.19382 0)
(-0.0321278 1.1022 0)
(0.9318 0.0155784 0)
(0.86018 -0.00211094 0)
(0.920118 0.0061927 0)
(0.842209 -0.00826932 0)
(0.819619 0.00435704 0)
(0.906445 0.0154806 0)
(0.885715 0.0181801 0)
(0.794108 0.00112861 0)
(0.0104997 3.06716 -6.47244e-21)
(0.0148638 3.05968 0)
(0.0124722 2.97046 0)
(0.00753444 2.87652 0)
(0.90359 4.00793 0)
(1.19993 3.39819 1.02868e-18)
(0.0847142 3.10437 0)
(-0.0141754 2.92592 0)
(-0.0392505 1.80084 0)
(-0.043307 1.82568 0)
(-0.0356388 1.81064 0)
(-0.014246 1.85079 4.18441e-21)
(-0.0357243 1.84561 0)
(-0.0230885 1.83983 0)
(0.0229484 1.4386 -3.01843e-20)
(0.0456201 1.6379 -1.07111e-19)
(0.0264037 1.62159 -3.80627e-20)
(0.00847501 1.42517 0)
(0.597422 0.10831 2.71968e-19)
(0.526696 5.12165e-05 -2.654e-19)
(0.241991 1.53428 0)
(0.285094 0.659223 -2.15265e-19)
(0.181218 1.62087 -7.17808e-19)
(0.266115 1.15132 7.1802e-19)
(0.903997 0.00775874 0)
(0.967748 0.0106668 0)
(0.975587 0.00990688 0)
(0.924215 0.00710771 0)
(-0.0426217 1.30116 0)
(-0.0291285 1.37792 0)
(-0.0270698 1.18012 0)
(0.363226 0.28314 3.5248e-19)
(0.309987 0.264225 -4.29342e-19)
(0.323979 0.207633 0)
(1.11888 0.0894474 -7.12658e-21)
(1.10545 0.042633 0)
(1.02821 0.0433453 0)
(0.930035 0.00899913 0)
(0.616868 0.0840997 0)
(0.665239 0.0608843 -1.11535e-18)
(0.539573 -0.0122281 4.32855e-19)
(0.011516 2.97759 4.93913e-19)
(-0.0330888 2.86295 4.62354e-20)
(0.00830802 3.05306 -1.38983e-20)
(0.0154568 3.04355 5.28875e-19)
(-0.0119024 3.00005 2.30256e-20)
(-0.0122097 2.95243 -9.35299e-23)
(-0.0150068 3.01336 -4.41405e-19)
(0.0139925 3.0269 3.09433e-19)
(0.00745769 3.03447 -4.95923e-19)
(0.928707 0.00209896 0)
(0.935223 -0.000354303 0)
(0.847306 -0.0066981 0)
(0.957471 0.010949 0)
(0.944114 0.0126805 0)
(0.884488 0.0082607 0)
(0.921956 0.0143041 0)
(0.928692 0.0129164 0)
(0.845056 0.00576032 0)
(0.669973 1.42236 3.1056e-19)
(0.691041 1.53594 0)
(0.175069 0.357375 2.0483e-20)
(0.156206 0.54817 1.62274e-19)
(0.230999 0.657395 -9.00308e-20)
(0.196041 0.547648 1.63157e-19)
(0.29621 0.710523 6.69229e-19)
(0.112415 0.177752 2.09493e-19)
(0.547884 0.206543 4.01705e-19)
(0.519671 0.237013 9.91644e-20)
(0.495568 0.127681 2.01099e-19)
(1.19596 0.441677 3.2713e-19)
(1.22384 0.239866 3.43801e-19)
(-0.0629676 2.11581 4.07098e-20)
(-0.0316036 1.9043 0)
(0.976183 0.0336007 0)
(0.943141 0.0219174 0)
(0.883534 -0.00184339 0)
(0.0119335 3.07489 0)
(0.0169928 2.94377 8.8372e-19)
(0.0141325 2.95685 0)
(0.00581302 2.84994 -8.77016e-19)
(0.00914941 3.08985 2.118e-19)
(0.0119549 3.08341 0)
(0.712904 1.83676 -2.53232e-19)
(1.24419 2.65016 8.42351e-19)
(0.698799 2.0172 -1.66738e-18)
(0.0234657 2.97826 -3.81362e-19)
(0.0430324 3.00454 0)
(-0.0369986 2.88292 0)
(0.0593516 1.6717 7.89555e-21)
(0.0626811 1.66627 2.89853e-19)
(0.0404789 1.43505 -2.74862e-21)
(0.26256 1.32461 6.95586e-19)
(0.248255 0.445076 -4.79284e-19)
(0.0786429 1.93842 4.46788e-19)
(0.125358 1.81464 -5.72831e-19)
(0.220375 1.47668 9.25599e-20)
(0.0043509 3.12038 -1.25524e-18)
(0.017431 3.11987 1.35967e-18)
(-0.00473442 2.98098 5.75888e-19)
(-0.00035196 2.97543 -5.25801e-19)
(-0.0177806 2.87852 -5.86557e-19)
(0.0123809 3.10037 -1.5543e-18)
(0.00555113 3.10585 1.53091e-18)
(0.197117 0.588848 0)
(0.15625 0.557945 -3.37198e-19)
(0.0726832 0.183144 1.51513e-19)
(0.318008 0.815468 6.31992e-19)
(0.174588 0.219309 -9.63304e-19)
(1.20761 0.172455 -7.34402e-20)
(1.22145 0.299011 0)
(1.20506 0.117578 1.37645e-19)
(-0.0439831 1.9927 2.12052e-21)
(-0.0481944 2.07126 0)
(-0.025847 1.85525 0)
(0.30798 1.23407 -2.41862e-19)
(0.325076 1.04089 -5.13389e-19)
(0.204452 0.320766 8.82828e-19)
(1.00638 -0.010297 0)
(1.00771 -0.00767853 1.76063e-19)
(-0.0394109 1.79047 0)
(-0.0454443 1.79821 0)
(1.00251 0.00354502 1.52972e-21)
(1.00321 0.00789221 3.62735e-19)
(-0.0193997 1.86241 -5.43527e-21)
(-0.0136565 1.86884 0)
(0.0463048 3.17813 2.05203e-19)
(0.385017 3.56793 0)
(1.08915 0.683281 7.21737e-20)
(1.01254 0.0112016 -2.47986e-21)
(1.02103 -0.00935122 0)
(1.00168 7.08945e-05 6.16893e-23)
(0.16286 1.30895 0)
(0.174519 2.58916 0)
(-0.207058 1.12665 0)
(-0.21882 2.64123 -2.10326e-19)
(-0.210794 2.35062 -5.53847e-20)
(1.00903 0.0203294 3.36948e-21)
(1.04772 0.00317433 0)
(1.07797 0.0292335 0)
(-0.0486433 1.8255 0)
(-0.0385454 1.94981 0)
(-0.0821644 1.70911 0)
(0.281712 1.46147 -4.39256e-19)
(1.01118 -0.0087377 0)
(1.00985 -0.0138097 0)
(1.00226 0.000421518 2.22567e-19)
(1.00598 -0.00533858 -2.65316e-19)
(1.00124 -0.000956382 0)
(-0.0631177 1.80604 0)
(-0.0466325 1.78564 0)
(-0.0489228 1.7988 0)
(-0.0690065 1.71817 0)
(-0.0428217 1.75635 0)
(-0.050466 1.74936 0)
(1.03242 -0.00917033 0)
(1.01927 0.0121334 -1.12602e-21)
(0.75998 1.30797 5.44306e-19)
(1.00273 0.000284904 -2.24681e-19)
(1.00371 0.00496482 2.69546e-19)
(1.00116 0.00192334 0)
(1.0118 0.00981596 2.1829e-19)
(1.00713 0.00777227 -2.72986e-19)
(1.0076 0.0118474 0)
(-0.0359109 1.94386 0)
(-0.0269649 1.90237 -1.09438e-20)
(-0.0233997 1.90721 1.03803e-20)
(1.19757 0.270011 -1.37733e-19)
(1.1313 0.0923976 0)
(0.0516855 3.08949 -5.8998e-19)
(0.0528913 2.86756 -4.43107e-20)
(0.110894 3.20288 7.55069e-19)
(0.127655 3.21624 -8.74968e-20)
(0.152051 3.26928 0)
(0.0248313 3.13856 1.47613e-19)
(0.066384 3.16261 5.84736e-19)
(0.0665149 3.18139 -2.79205e-19)
(0.028956 3.12852 0)
(0.655617 0.331648 0)
(0.60589 0.376559 0)
(1.07981 0.710554 -2.68263e-19)
(1.04209 0.854832 4.08491e-19)
(1.13581 0.600747 0)
(1.16206 0.534854 0)
(1.01563 0.012027 -4.00914e-19)
(1.01454 0.0126182 5.01592e-19)
(1.02529 -0.00953231 0)
(1.02385 -0.0108862 0)
(1.00686 0.00265032 0)
(1.01025 0.00360564 0)
(1.00433 0.00173251 0)
(1.00984 0.00652421 0)
(1.00751 0.00473247 0)
(1.00477 0.00520871 0)
(0.139194 1.31674 0)
(0.108804 1.21059 0)
(0.177545 1.40632 0)
(0.126938 1.39294 0)
(0.137293 2.58704 0)
(0.198045 2.64084 -2.03629e-19)
(0.111315 2.65458 0)
(0.0920293 2.645 -1.13391e-21)
(-0.000405727 2.70489 1.97219e-19)
(-0.177195 1.19259 0)
(-0.188129 1.2141 0)
(-0.167614 1.12847 0)
(-0.101715 0.998743 0)
(-0.299507 2.31719 3.645e-19)
(-0.24399 2.47545 -1.98524e-19)
(-0.215451 2.63473 -2.55404e-19)
(-0.20702 2.56408 0)
(-0.194899 2.33377 1.12258e-19)
(-0.127772 2.24077 1.26734e-19)
(-0.346964 2.28519 -3.30457e-19)
(-0.309181 2.4096 2.67685e-19)
(-0.294233 2.49694 3.45978e-19)
(1.01808 0.0288088 3.94709e-19)
(1.01202 0.0177831 -4.88905e-19)
(1.01007 0.0307901 -4.15581e-19)
(0.993214 0.0208662 5.3357e-19)
(1.04851 0.00471853 0)
(1.0365 -0.0114225 0)
(1.0713 0.0389983 0)
(1.05519 0.0126176 0)
(1.05392 0.00514968 0)
(1.11189 0.0765836 0)
(1.08705 0.0489316 0)
(1.09335 0.0426973 0)
(-0.0421541 1.86677 -9.25628e-22)
(-0.063526 1.84655 0)
(-0.0450365 1.8496 0)
(-0.0492893 1.99237 -4.5978e-21)
(-0.0390105 2.01235 8.77207e-22)
(-0.113896 1.81433 4.76182e-21)
(-0.0775305 1.80482 -4.83455e-21)
(-0.0974451 1.74723 0)
(-0.0744741 1.77373 0)
(-0.0662427 1.77907 0)
(-0.108601 1.6709 0)
(-0.0816972 1.60838 0)
(0.374323 1.49008 8.30982e-19)
(0.379041 1.50251 3.22384e-19)
(0.604405 2.44854 -1.61327e-19)
(0.392152 2.5382 4.28953e-19)
(0.350796 2.10005 -5.43868e-20)
(1.0205 -0.00858219 0)
(1.01515 -0.00951883 0)
(1.01458 -0.0138528 0)
(1.00786 -0.00102968 0)
(1.00451 -0.0010999 0)
(1.00724 -0.00474481 0)
(1.01036 -0.00317202 0)
(1.01377 -0.00459502 0)
(1.02024 0.01425 3.82838e-19)
(1.01632 0.012888 -4.8581e-19)
(1.02123 0.0159499 -3.84702e-19)
(1.01677 0.0137862 4.79792e-19)
(0.729781 1.34734 0)
(0.656192 1.39441 6.14607e-19)
(0.838048 1.21642 3.6429e-19)
(0.860679 1.2029 -4.83341e-19)
(1.15632 2.62856 -5.60643e-19)
(0.826713 0.115707 2.76212e-19)
(1.13685 0.102009 0)
(1.17292 0.187567 1.12261e-19)
(1.15705 0.162335 5.23793e-21)
(0.990556 0.127672 0)
(0.0980164 3.03197 -8.79255e-20)
(0.0963689 2.90561 -6.70599e-19)
(0.0459646 2.35833 4.43697e-19)
(0.148752 0.0329361 -2.11722e-19)
(0.351277 3.46748 -4.85597e-19)
(0.200816 3.35418 0)
(0.231398 3.41866 6.32544e-19)
(0.23722 3.09016 -2.09925e-19)
(0.272368 3.21126 0)
(0.00712364 3.12238 3.10924e-20)
(0.0173378 3.13139 -3.78565e-19)
(0.0162477 3.12711 5.57188e-19)
(0.0355825 3.14017 0)
(0.0339333 3.15048 0)
(1.26124 2.59867 0)
(0.504326 0.839186 -2.22789e-19)
(0.970303 1.04126 -2.09223e-19)
(0.952306 1.06438 0)
(0.799461 0.943401 5.86427e-20)
(1.03216 0.892443 3.0006e-20)
(0.445821 0.425727 -5.19136e-19)
(0.704151 0.338536 -2.45855e-20)
(0.68725 0.29197 2.1129e-19)
(0.619188 0.39595 1.65686e-20)
(0.554464 0.384225 -6.8261e-19)
(0.668926 0.353354 0)
(0.698039 0.423608 3.43757e-19)
(0.695071 0.424347 0)
(0.645957 0.38484 0)
(0.621242 0.343147 0)
(0.751073 0.60803 1.07406e-19)
(1.20056 0.2882 1.07569e-19)
(1.18144 0.426495 0)
(1.19838 0.390023 0)
(0.773659 0.201785 3.17157e-19)
(0.812227 0.535623 -1.69468e-19)
(0.742768 0.497736 2.76858e-19)
(0.909204 0.419523 -2.48296e-19)
(1.0184 0.0135474 2.61107e-19)
(1.01695 0.0133732 -2.6919e-19)
(1.01561 0.0138155 0)
(1.03369 -0.00753228 0)
(1.02951 -0.009342 -2.38028e-19)
(1.02792 -0.0111505 2.35411e-19)
(1.0261 0.00788259 0)
(1.02489 0.0133501 0)
(1.01217 0.00412452 0)
(1.01423 0.00899492 0)
(1.01569 0.00340862 0)
(1.0147 0.00216277 0)
(0.131505 1.18693 0)
(0.0873775 1.02704 0)
(0.179555 1.42695 3.97029e-19)
(0.259454 1.46479 2.55731e-19)
(0.180382 1.45358 5.75071e-19)
(0.189182 1.44646 -9.33785e-19)
(0.164746 1.42997 0)
(0.145978 1.58659 2.25849e-19)
(0.156227 1.57828 0)
(0.342162 2.05848 7.91614e-20)
(0.322568 2.36751 2.32097e-19)
(0.13586 1.48471 -1.97545e-19)
(0.257976 1.38216 1.97569e-19)
(0.173196 1.40341 -1.59068e-19)
(0.275666 1.31567 3.50151e-19)
(0.226789 1.58311 0)
(0.249791 1.64686 -2.34938e-19)
(0.0384813 2.41712 1.53152e-19)
(-0.0112501 2.70717 0)
(0.0898787 2.43441 -2.03725e-19)
(0.0602632 2.50511 0)
(0.0846701 2.6609 -4.26849e-22)
(0.024109 2.71169 0)
(-0.294606 1.48587 4.89977e-19)
(-0.264039 1.65314 0)
(-0.136692 1.30714 0)
(-0.220954 1.27259 -5.52345e-19)
(-0.204939 2.68576 -8.87289e-20)
(-0.0878536 2.75994 -3.00328e-19)
(-0.158151 2.72135 -1.68737e-21)
(-0.441609 2.08996 -9.19297e-20)
(-0.440301 2.03545 -1.34722e-19)
(-0.171637 1.30608 0)
(-0.132719 1.3469 0)
(0.03831 1.81095 -6.92008e-19)
(-0.0116424 1.43903 -7.59773e-19)
(-0.0764336 1.63116 9.63301e-19)
(0.17768 1.81234 0)
(-0.120935 1.91817 6.83481e-22)
(-0.0978448 1.9732 -5.19394e-21)
(-0.124343 2.01402 4.05469e-21)
(-0.411598 1.97338 1.11355e-19)
(-0.211046 2.16781 1.40686e-20)
(-0.240762 2.22408 -6.85928e-20)
(1.0207 0.0183456 -2.61264e-19)
(1.01747 0.0236385 2.61097e-19)
(1.01204 0.0172005 0)
(1.00679 0.0499075 3.78303e-19)
(0.994444 0.0334717 -4.49415e-19)
(0.966916 0.0333188 5.12864e-19)
(1.00719 0.0871861 -4.84475e-20)
(1.03792 -0.00888946 0)
(1.0396 -0.00688464 2.10417e-19)
(1.0322 -0.0151064 -2.12101e-19)
(1.0594 0.0428077 -1.13372e-20)
(1.05432 0.0280788 1.02066e-19)
(1.05703 0.0587163 0)
(1.04968 0.0484736 -3.9032e-20)
(1.03678 0.0329114 0)
(1.03253 0.0248621 0)
(1.02926 0.0110933 0)
(1.02676 0.0127107 0)
(1.04689 0.0281778 8.08997e-20)
(1.04592 0.0185228 -1.84992e-19)
(1.04975 0.0292467 -8.02608e-20)
(1.04837 0.0299856 -9.46221e-20)
(1.06332 0.0620789 1.60257e-19)
(1.07922 0.0536033 0)
(1.07877 0.0944082 0)
(-0.113326 1.90867 4.92904e-21)
(-0.0803732 1.85173 -8.39932e-22)
(-0.0933878 1.86483 0)
(-0.0729079 1.91397 -4.93297e-21)
(-0.0504107 1.87507 1.6883e-21)
(-0.059337 1.89406 7.8524e-22)
(-0.104759 2.20537 -1.29052e-19)
(-0.127442 2.06793 2.13329e-21)
(-0.155815 2.11958 -1.68245e-20)
(-0.0574358 2.08943 4.02624e-20)
(-0.0628934 2.11284 -4.51508e-20)
(-0.15324 1.77419 -7.35508e-22)
(-0.143859 1.82209 7.62744e-21)
(0.397628 1.40131 -4.29313e-19)
(0.374958 1.35387 -4.37302e-19)
(0.621135 1.43606 -5.9226e-19)
(0.50848 1.49745 -3.20424e-19)
(0.530352 1.47463 0)
(0.604504 2.4237 1.18556e-19)
(0.673436 2.40364 2.19268e-19)
(0.410691 2.51356 7.84683e-20)
(0.396458 2.56066 -1.76125e-19)
(0.502897 2.51497 2.36448e-19)
(0.552783 2.46445 0)
(0.487976 2.51068 -3.40282e-19)
(0.250637 2.57815 5.9463e-19)
(0.360163 2.54957 -6.75735e-20)
(0.286297 2.63086 -9.09518e-19)
(0.938399 2.38437 2.02357e-19)
(0.834012 2.37912 0)
(1.01054 0.000975131 8.75822e-21)
(1.01546 -0.00575432 -7.24031e-21)
(1.01801 -0.00450546 -1.30165e-19)
(1.01509 -0.00105153 1.29515e-19)
(1.01246 0.00135219 0)
(0.608782 1.28368 0)
(0.630739 1.16579 0)
(0.742411 1.0827 0)
(0.617335 1.12666 0)
(1.18805 2.64786 4.59974e-20)
(1.07538 2.38304 0)
(0.821858 2.24409 -2.05312e-21)
(0.830228 2.48449 0)
(0.914913 2.56699 1.30964e-20)
(0.945309 2.51762 -8.80455e-21)
(0.844917 0.136958 0)
(0.808327 0.151346 8.01436e-20)
(0.926628 0.130813 3.99969e-19)
(0.861601 0.101726 -1.64394e-19)
(0.844822 0.0678105 -4.85463e-19)
(1.03765 0.215072 -1.97066e-19)
(0.942932 0.265515 -7.67114e-21)
(0.916206 0.303593 3.39906e-19)
(0.981136 0.209602 2.49404e-19)
(0.929599 0.168515 -4.96033e-19)
(0.893647 0.179258 6.652e-20)
(0.919367 0.29098 -1.1743e-19)
(0.896248 0.193267 0)
(0.974105 0.158537 2.33532e-19)
(1.01635 0.176727 0)
(1.01055 0.187422 0)
(1.09217 0.112378 6.15725e-20)
(1.02692 0.161736 -1.00103e-20)
(1.03148 0.223039 -4.0894e-20)
(1.08343 0.198048 0)
(1.0237 0.0322032 1.9772e-19)
(1.04072 0.0533486 2.31423e-19)
(1.03752 0.0343718 -1.96201e-19)
(1.03689 0.0571546 -1.56472e-19)
(1.01957 0.0580492 -2.66294e-19)
(0.970742 0.131717 0)
(0.980946 0.0787858 0)
(0.965799 0.0449677 -1.85721e-19)
(0.933594 0.0628852 7.98504e-20)
(1.02725 0.0890066 2.17715e-19)
(1.04688 0.116902 -2.00643e-19)
(1.04095 0.150085 1.90242e-19)
(1.0176 0.121154 0)
(1.05868 0.102549 0)
(1.04111 0.0921309 -8.56708e-20)
(1.03551 0.0855883 -1.73353e-19)
(0.575765 1.11006 -1.21178e-19)
(0.620596 1.48055 2.16961e-19)
(1.1421 2.75687 9.74031e-20)
(1.19754 3.13013 -7.08487e-20)
(1.2495 2.7524 5.67402e-19)
(1.29501 2.72391 -2.94295e-19)
(1.26812 2.33863 -3.46155e-20)
(1.18483 3.03665 2.23585e-19)
(1.20107 2.99348 -2.42515e-19)
(1.17981 3.2837 -2.48805e-19)
(1.40216 2.9989 3.06166e-19)
(1.4149 2.9384 0)
(0.532453 0.863257 -9.89023e-21)
(0.258135 1.2458 2.85807e-19)
(0.491858 0.523461 3.3228e-19)
(0.356366 0.298449 3.90704e-19)
(0.565722 0.412548 3.81781e-19)
(0.566722 0.492072 -5.90441e-19)
(0.568509 0.494903 4.87774e-19)
(0.531486 0.453728 -2.0022e-19)
(0.489614 0.387488 4.58242e-19)
(0.786732 0.237726 -1.76565e-19)
(0.741504 0.30084 0)
(0.730079 0.23596 1.18602e-20)
(0.726936 0.507255 1.8148e-19)
(0.683458 0.477853 -6.68561e-19)
(0.648776 0.475447 2.35208e-20)
(0.646622 0.449337 0)
(0.665392 0.728818 1.28193e-19)
(0.758519 0.768758 7.18511e-20)
(0.690117 0.815722 -8.96814e-20)
(0.828052 0.782443 -1.12239e-20)
(0.878011 0.835366 1.63379e-20)
(0.88501 0.842696 -1.67601e-20)
(0.822443 0.646708 -1.81771e-19)
(0.890089 0.697057 1.0443e-20)
(0.946541 0.706339 0)
(0.941569 0.685929 3.58472e-21)
(0.977467 0.301152 5.88013e-20)
(1.10744 0.298685 -2.74417e-20)
(1.01843 0.253956 8.01884e-20)
(0.947055 0.346281 -1.31107e-19)
(0.983622 0.441225 0)
(1.06652 0.39648 0)
(0.867862 0.387147 1.11869e-20)
(0.830216 0.290193 0)
(0.854794 0.276319 1.88366e-19)
(0.871657 0.306356 9.30757e-21)
(0.90916 0.436056 6.79658e-19)
(0.849415 0.508726 1.63069e-19)
(0.85973 0.455739 -2.34004e-19)
(0.798635 0.445403 2.4818e-19)
(0.79225 0.43918 1.68897e-19)
(0.762078 0.409733 -1.65975e-19)
(1.02784 -0.00138496 2.07129e-19)
(1.01987 -3.32694e-05 0)
(1.01836 0.00082118 1.37784e-19)
(1.02291 -0.000671451 -3.09539e-19)
(1.02129 0.00350962 1.50636e-19)
(1.02059 0.010245 -3.16978e-19)
(1.02148 0.0100275 0)
(1.02034 0.011793 -6.67176e-20)
(1.01615 0.00777817 1.67726e-19)
(1.01675 0.0104952 -8.49481e-20)
(1.01783 0.00964172 6.21018e-20)
(-0.0682066 1.05844 0)
(-0.059016 1.22852 0)
(0.0262353 1.06283 0)
(-0.0215411 0.964025 0)
(0.20666 1.35368 -8.48352e-19)
(0.202585 1.32148 2.64666e-19)
(0.209997 1.51004 1.90088e-19)
(0.216542 1.3875 -2.28315e-19)
(0.123318 1.50891 6.95504e-19)
(0.159578 1.47082 -5.23924e-19)
(0.244048 1.33222 -2.69579e-20)
(0.205226 1.25935 5.99125e-19)
(0.125729 1.1939 8.7037e-20)
(0.0846146 1.19742 8.79016e-20)
(0.118655 2.39361 2.19544e-19)
(0.107823 2.43126 0)
(0.14419 2.06649 -3.98917e-20)
(0.189 1.75772 -1.12582e-19)
(0.200832 2.04163 2.53027e-20)
(0.212447 2.44777 0)
(0.247429 2.40542 -1.5311e-19)
(0.291903 2.40619 1.08754e-19)
(0.24265 2.00231 9.20393e-20)
(0.132317 2.17118 -6.82147e-21)
(0.112232 2.30403 0)
(-0.0241534 2.21463 6.91277e-19)
(-0.205862 2.6149 6.26888e-19)
(-0.167917 2.50536 0)
(-0.0329738 2.62134 -3.23339e-20)
(0.0181662 2.47637 -3.22684e-19)
(-0.331437 1.41167 -4.62006e-20)
(-0.278712 1.44509 6.69847e-19)
(-0.31339 1.5222 -1.47854e-19)
(-0.388572 1.51736 -2.75178e-19)
(-0.358472 1.46076 0)
(-0.299836 1.50928 0)
(-0.138434 1.56828 -3.75762e-20)
(-0.224714 1.59371 1.35029e-20)
(-0.276171 1.52444 0)
(-0.170529 1.43569 -3.7915e-20)
(-0.103092 1.49212 6.39713e-20)
(1.03768 0.00282932 0)
(1.03899 0.000785623 -1.94627e-20)
(1.04628 0.0138713 -1.4559e-19)
(1.05026 0.0129501 0)
(1.04579 0.0101286 0)
(1.04036 0.00263323 -6.51099e-21)
(1.034 0.00434545 2.43494e-19)
(1.03667 0.00905327 2.92989e-19)
(1.02875 0.0162551 0)
(1.02761 0.0187119 0)
(1.04078 0.0192636 1.47786e-19)
(1.03264 0.0224937 0)
(1.02914 0.0218891 0)
(-0.244056 1.94635 0)
(-0.176754 1.82909 1.03194e-21)
(-0.19269 1.91045 -2.60777e-22)
(-0.19986 1.64457 0)
(-0.230587 1.78547 -1.35414e-20)
(-0.179854 1.752 -2.20564e-21)
(-0.171809 1.69668 0)
(0.419916 1.68494 0)
(0.35264 1.28885 7.25017e-19)
(0.275757 1.3479 0)
(0.424102 1.2775 -9.2391e-19)
(0.481304 1.44123 0)
(0.443553 1.37588 4.22521e-19)
(1.02857 2.7027 -3.91319e-21)
(0.958004 2.40791 -2.55248e-19)
(0.899323 2.16565 2.82005e-19)
(0.847251 2.37259 1.06581e-19)
(0.850215 2.52011 0)
(0.912952 2.51785 0)
(0.92255 2.37848 0)
(0.900377 2.35861 -3.98133e-19)
(0.703295 2.5084 1.63172e-20)
(0.808701 2.49177 -1.02184e-20)
(0.816308 2.4669 7.81418e-21)
(0.691898 2.38856 0)
(0.79707 2.37869 0)
(0.761111 2.39211 -2.18737e-19)
(0.776176 2.50061 0)
(0.570421 1.06041 0)
(0.500402 0.906813 -3.87001e-20)
(0.501251 0.966472 -6.46268e-22)
(0.483939 1.08934 0)
(0.475386 1.0106 6.47905e-20)
(0.729051 0.860468 1.21838e-20)
(0.749475 0.997341 0)
(0.72515 0.974566 -6.54331e-20)
(0.615341 1.0151 0)
(0.603119 0.932452 0)
(1.15623 2.78531 7.04122e-20)
(1.13158 2.84613 1.35229e-19)
(0.92188 2.3861 -3.12797e-19)
(0.897072 2.3598 4.51265e-20)
(1.12313 2.75989 0)
(1.07463 2.72942 -5.43414e-20)
(1.08833 2.50839 -5.25464e-20)
(0.983262 2.24329 -2.74548e-20)
(0.48858 1.37347 0)
(0.495028 1.08664 1.06624e-19)
(0.549944 1.16042 0)
(0.864161 0.205035 0)
(0.821124 0.175695 0)
(0.77173 0.16875 0)
(0.861251 0.211348 -2.95225e-19)
(0.807936 0.209494 1.84521e-19)
(0.940416 0.0551316 -1.64676e-19)
(0.951042 0.103494 0)
(0.919827 0.110284 7.48363e-20)
(0.887754 0.0710897 3.06168e-19)
(0.877406 0.0532417 -1.87634e-19)
(1.10482 3.37839 -9.4973e-19)
(1.16695 3.30006 0)
(1.12676 3.46449 -2.04375e-18)
(0.665158 3.61055 1.72874e-18)
(1.03857 3.0963 4.39183e-19)
(0.511308 0.85489 1.85676e-19)
(0.500468 0.822688 0)
(0.399515 0.556722 -7.92018e-20)
(0.455423 0.695091 3.62371e-19)
(0.519044 0.531845 -1.07985e-19)
(0.518437 0.545715 1.23571e-19)
(0.678739 0.534948 2.42286e-19)
(0.699515 0.555987 0)
(0.640939 0.62418 0)
(0.605233 0.562267 0)
(0.949232 0.599206 -5.46338e-20)
(0.898086 0.545989 -1.56006e-19)
(0.921642 0.582237 4.5739e-20)
(0.96413 0.501963 -1.11426e-19)
(1.00903 0.473526 0)
(1.02474 0.583701 2.77529e-21)
(0.821795 0.3996 -3.76749e-19)
(0.818073 0.389661 -4.49623e-19)
(0.781893 0.391022 2.95375e-19)
(0.77768 0.356613 -3.36472e-19)
(0.822565 0.308092 -2.4839e-19)
(0.784361 0.311268 3.05389e-19)
(1.02598 0.0038528 -1.54362e-19)
(1.02594 0.00342891 3.13049e-19)
(1.0302 -0.00130628 1.96362e-19)
(1.03117 -0.00122552 -2.36405e-19)
(1.03275 0.000788227 0)
(1.031 0.0011231 -3.82169e-19)
(0.181031 1.7822 -1.04502e-19)
(0.163502 1.73582 0)
(0.190196 1.77793 -5.82833e-19)
(0.192128 1.75492 5.47456e-19)
(0.198262 1.61245 -3.49792e-19)
(0.265746 1.62938 0)
(-0.403105 1.96226 0)
(-0.362406 1.72347 1.78711e-20)
(-0.30777 1.70964 -1.61815e-20)
(-0.260898 1.80138 -1.5097e-22)
(-0.269446 1.96693 1.12326e-20)
(-0.317229 1.97876 -1.13652e-20)
(0.485377 1.38275 4.16073e-19)
(0.493685 1.379 -4.44668e-19)
(0.431831 1.28193 4.72858e-19)
(0.427329 1.29731 -2.67617e-20)
(0.600358 1.29112 0)
(0.536451 1.37129 5.52651e-19)
(0.541937 1.39054 -5.34659e-19)
(0.463209 1.25578 -4.47872e-19)
(0.497309 1.22705 0)
(0.559347 1.20023 0)
(0.680394 2.47187 -2.40988e-20)
(0.671295 2.48127 5.34906e-19)
(0.730418 2.49555 -3.66132e-19)
(0.63733 2.47307 -1.13458e-19)
(0.557572 2.5813 8.00113e-20)
(0.495368 2.53538 -2.52717e-19)
(0.969301 2.3789 -1.54231e-19)
(1.01175 2.40797 0)
(0.913027 2.15312 -1.91859e-19)
(1.04339 2.7094 0)
(1.04245 2.69321 0)
(0.628295 2.33801 3.71019e-19)
(1.12233 3.08603 4.49424e-19)
(1.01296 3.00056 -5.42947e-19)
(0.349877 0.922181 0)
(0.380943 0.846989 -1.31174e-19)
(0.553649 0.761362 -5.22178e-20)
(0.404062 2.19375 0)
(0.420402 2.75886 -3.07805e-19)
(0.433305 2.50456 0)
(0.668827 0.676738 -2.7002e-19)
(0.720389 0.658495 3.75493e-19)
(0.737199 0.630994 -3.74422e-19)
(0.670312 0.646586 -4.02086e-20)
(0.718693 0.5939 -1.69533e-19)
(0.980758 2.78455 -3.40425e-19)
(1.01467 2.78277 2.58271e-19)
(0.588082 2.28416 -1.80156e-19)
(0.620958 1.77317 7.58165e-20)
(0.713357 1.90716 5.1668e-20)
(0.979923 2.43252 -8.51566e-20)
(0.977019 2.39728 -1.11863e-19)
(0.671823 1.84838 -1.71653e-21)
(0.467068 1.35185 -6.55287e-20)
)
;

boundaryField
{
    wall-4
    {
        type            noSlip;
    }
    velocity-inlet-5
    {
        type            fixedValue;
        value           uniform (1 0 0);
    }
    velocity-inlet-6
    {
        type            fixedValue;
        value           uniform (0 3 0);
    }
    pressure-outlet-7
    {
        type            zeroGradient;
    }
    wall-8
    {
        type            noSlip;
    }
    frontAndBackPlanes
    {
        type            empty;
    }
}


// ************************************************************************* //
