/*--------------------------------*- C++ -*----------------------------------*\
  =========                 |
  \\      /  F ield         | OpenFOAM: The Open Source CFD Toolbox
   \\    /   O peration     | Website:  https://openfoam.org
    \\  /    A nd           | Version:  6
     \\/     M anipulation  |
\*---------------------------------------------------------------------------*/
FoamFile
{
    version     2.0;
    format      ascii;
    class       volScalarField;
    location    "83";
    object      p;
}
// * * * * * * * * * * * * * * * * * * * * * * * * * * * * * * * * * * * * * //

dimensions      [0 2 -2 0 0 0 0];

internalField   nonuniform List<scalar> 
918
(
0.527839
1.21778
0.0066814
0.527757
-0.0116477
1.18516
-0.512649
0.622113
0.508995
-0.126685
-0.0884753
0.511581
1.04285
0.809819
-1.17559
-0.0247809
0.623186
-0.425009
0.50706
-0.0856239
0.638235
0.515666
0.51813
0.508914
0.571986
0.762705
0.920236
-0.00282917
0.0110857
0.00599695
-0.013059
-0.0335492
-0.0305595
1.06828
1.12019
1.14343
0.47544
0.308591
-0.407659
-0.462721
-0.439865
-0.529062
0.622833
0.624013
-0.237409
0.621555
0.620828
0.494659
0.50839
0.509228
0.510345
0.509257
0.510534
0.393187
-0.134318
-0.161908
-0.11128
-0.110496
0.0234125
-0.0900562
-0.0913366
-0.0864421
-0.0866171
0.424355
0.506157
0.502766
0.515818
0.524442
1.15794
1.13172
1.15781
1.06818
1.08573
1.01976
0.992637
0.831042
0.854305
0.792885
0.779048
-1.62865
-2.57031
-0.601325
-0.327405
-0.0106588
-0.0262793
-0.0249866
0.619067
0.621053
0.621372
0.623615
1.02085
-0.397102
-0.469655
0.507601
0.506129
0.515194
0.516099
0.511065
0.511063
-0.083588
-0.0840035
-0.0692876
-0.0831508
-0.0811243
0.618774
0.619793
0.508348
0.505789
0.532876
0.557059
0.545004
0.241053
0.581786
0.59768
0.627178
0.77286
0.759516
0.772148
0.895809
0.863481
0.952127
0.973921
0.0140267
-0.00161809
-0.0261
-0.0233483
-0.0242091
0.471171
0.464723
0.492985
0.479071
0.482122
0.2144
0.0650368
0.390393
0.413775
-0.331912
-0.382633
-0.466451
-0.464948
-0.57244
0.595158
0.625345
0.62469
-0.248754
-0.176194
-0.304404
-0.11837
-0.175905
0.485589
0.491856
0.487923
0.503336
0.497495
0.499923
0.512462
0.509645
0.511239
0.445212
0.56931
0.317578
0.282312
-0.284609
-0.180117
-0.264776
-0.102784
-0.10078
0.033375
0.0634929
0.0109762
-0.00111951
-0.0955193
-0.0924182
-0.0948118
-0.0863371
-0.0861525
0.415773
0.40268
0.43563
0.443176
0.49237
0.493881
0.498372
0.496374
0.944129
0.967005
0.972868
0.949059
-3.54213
-6.16314
0.0137656
0.171562
-0.00982769
-0.011304
-0.000297968
-0.0103099
-0.00104514
-0.00291594
-0.0355911
-0.0352294
-0.0281518
-0.0295122
0.616169
0.617823
0.990939
1.01911
0.960743
0.937132
0.496962
0.49884
0.503459
0.500345
-0.0855471
-0.0845975
-0.0860869
0.61978
0.619116
0.61918
0.199535
0.110236
0.292933
0.324287
0.613116
0.60197
0.611694
0.686955
0.725732
0.990322
1.01424
0.998397
1.01068
1.06148
1.08437
1.04981
0.449681
0.46064
0.454892
0.495839
0.493643
0.49459
0.491352
0.492133
0.490902
-0.0457908
-0.415676
0.462919
0.463971
0.456373
0.459012
0.682068
0.76566
0.621031
0.623535
0.623904
-0.0661995
-0.113405
0.234805
0.206565
0.354574
0.38938
0.371091
0.919289
0.879109
0.927466
0.902637
0.867367
0.891984
-0.351359
-2.10809
-1.10627
0.568689
0.373114
0.464174
-0.018181
-0.0353172
-0.0314834
1.01034
1.05081
0.632602
0.816985
0.771671
0.748649
0.775167
0.837792
0.770492
0.805201
0.835825
0.811943
0.544448
0.473501
0.492003
0.840592
0.895645
0.0722404
-0.00751478
-0.0303777
0.0891819
0.16534
0.130368
1.02866
0.947997
1.00946
0.506032
0.506986
-0.0193089
-0.0437024
0.511112
0.510823
-0.0232509
-0.0141431
0.479586
-0.941909
0.0728576
0.500662
0.490234
0.507108
-0.107375
0.298186
-0.091667
0.00219735
-0.0286769
0.502215
0.436747
0.394265
-0.0091357
-0.0342106
-0.0794591
-0.221426
0.50377
0.502126
0.506496
0.507311
0.508092
-0.0295671
-0.0289883
-0.02004
-0.0712627
-0.0642132
-0.0758778
0.470305
0.490678
-0.203583
0.506793
0.508901
0.508593
0.502829
0.507752
0.506394
-0.0257895
-0.0288267
-0.0309712
0.179011
0.321105
0.662158
0.736391
0.611536
0.445626
0.155614
0.599588
0.651247
0.576794
0.706976
0.622989
0.618904
0.139745
-0.00420384
0.144217
0.0773401
0.497478
0.496931
0.48775
0.484617
0.501947
0.499624
0.504822
0.502075
0.505248
0.506387
-0.061048
-0.0909487
-0.108807
-0.152829
0.25825
0.522585
0.213458
0.267653
0.150573
-0.0840425
-0.0834111
-0.0870133
-0.0908872
-0.048664
-0.047888
-0.00427472
0.00700435
-0.00974272
-0.0356703
-0.0569877
-0.0491152
-0.0586374
0.495095
0.494759
0.500191
0.509066
0.446405
0.450127
0.416346
0.435171
0.421268
0.361068
0.390924
0.368017
-0.0200894
-0.0108243
-0.011883
-0.0353588
-0.0344995
-0.0556539
-0.0479879
-0.0473648
-0.0434518
-0.0478519
-0.0738742
-0.0810068
-0.185734
-0.305876
0.94048
0.855966
0.128461
0.493649
0.499329
0.496489
0.501252
0.504447
0.505071
0.502633
0.499118
0.490738
0.492213
0.488911
0.490027
-0.141154
-0.251773
-0.0828507
-0.159824
0.137149
0.603643
0.328353
0.272878
0.2582
0.485978
0.679274
0.586037
0.639334
0.610571
-0.404114
-0.00672353
-0.339133
0.20635
0.202093
0.689268
0.730861
0.748319
0.705138
0.661648
-0.0324652
0.535811
-0.0875272
-0.0355776
0.157073
0.0378434
0.596946
0.609191
0.615643
0.611639
0.617203
0.616105
0.60427
0.593872
0.615214
0.619689
0.478605
0.207279
0.163505
0.11766
0.609744
0.500908
0.550775
0.469159
0.493141
0.495539
0.494516
0.475113
0.482492
0.478141
0.485396
0.489121
0.496427
0.496611
0.492403
0.494356
-0.0843582
-0.0923543
-0.0735258
-0.135232
-0.13958
-0.183097
-0.0945501
0.0760448
0.0240775
0.224347
0.354584
0.0520223
-0.0636543
-0.0474458
0.00484049
0.158738
0.166725
0.0439925
0.153925
0.108545
0.100926
0.20489
0.214816
-0.0578554
-0.0648242
-0.06474
-0.0709652
-0.0207711
0.103795
0.0725382
-0.0363528
-0.0427367
-0.0815031
-0.084004
-0.00573461
-0.0471816
-0.0392455
-0.0110481
-0.0634651
-0.0380432
-0.0288049
-0.0375005
-0.0375432
-0.0369033
0.489665
0.491319
0.491599
0.500968
0.512879
0.527693
0.493924
0.467693
0.458688
0.461796
0.434789
0.444067
0.439263
0.455148
0.47678
0.485285
0.483356
0.486089
0.468065
0.469778
0.455069
0.459698
0.42873
0.409979
0.399755
-0.0594601
-0.0264857
-0.0402176
-0.052087
-0.026541
-0.0358024
-0.0370423
-0.0180763
-0.0377305
-0.0324025
-0.0422367
-0.0479008
-0.0482608
-0.0884512
-0.00673283
-0.190873
-0.238434
-0.292185
0.866164
1.00569
0.780125
0.569588
0.57741
0.811765
0.91682
0.525214
0.695966
0.736255
0.562425
0.852252
0.497617
0.497195
0.495048
0.494214
0.495225
-0.0282798
0.0755272
0.0853198
0.14585
0.261482
0.366533
0.300956
0.187332
0.319528
0.344151
0.601337
0.606874
0.56738
0.588215
0.589169
0.395928
0.476387
0.514426
0.471863
0.546394
0.579345
0.525235
0.568221
0.488834
0.438697
0.429917
0.384966
0.419582
0.400686
0.374993
0.489369
0.466092
0.476932
0.467001
0.489216
0.514387
0.514829
0.535631
0.555544
0.467613
0.413276
0.430392
0.459277
0.415125
0.432703
0.454856
0.175659
0.0777646
0.240332
-0.0872672
-0.00312806
0.0377739
-0.00575412
-0.0468774
0.259835
-0.376323
-0.322815
-0.997489
0.484267
0.817528
0.540446
0.552206
0.615914
0.605157
0.614043
0.615047
0.618327
0.597254
0.604923
0.609454
0.575705
0.596911
0.588763
0.596631
0.482863
0.3831
0.386576
0.317662
0.178345
0.220465
0.411736
0.342957
0.267909
0.260012
0.43704
0.302298
0.382347
0.430594
0.354013
0.290255
0.51607
0.565749
0.557865
0.530429
0.407846
0.441118
0.442166
0.492191
0.535676
0.560238
0.483937
0.490262
0.491167
0.488425
0.486806
0.489947
0.490249
0.492547
0.492677
0.495277
0.494769
-0.0816531
-0.0673292
-0.0802977
-0.0886405
-0.0248905
-0.034038
-0.0100732
-0.0317703
-0.0388011
-0.034886
-0.0518485
-0.0685566
-0.0655963
-0.0550632
0.061102
0.0808636
0.0759164
0.0342557
0.222222
0.396887
0.461719
0.330775
0.179973
0.195801
0.282201
0.0189134
0.00753411
-0.00782839
0.0652272
0.0526311
-0.0698272
-0.0749288
-0.0694199
-0.0568927
-0.0504864
-0.0715873
-0.0766174
-0.0662317
-0.0726339
-0.079439
-0.082194
0.469349
0.46225
0.465876
0.458263
0.456431
0.473403
0.47809
0.479071
0.484644
0.487227
0.476721
0.482548
0.486742
-0.0388732
-0.0558483
-0.0556
-0.0595073
-0.0556026
-0.0531804
-0.0570289
0.114093
0.0204405
0.056689
-0.0144337
-0.141247
-0.0820758
0.488501
0.481784
0.469117
0.707252
0.542881
0.462201
0.561542
0.682274
0.262094
0.4609
0.296531
0.872212
0.780124
0.924874
0.540347
0.242034
0.413814
0.421779
0.26266
0.387389
0.326126
0.202169
0.237618
0.273213
0.35713
0.241934
0.221384
-0.0215624
0.160616
0.269554
0.251652
0.377817
0.434125
0.252842
0.168268
0.1143
0.580334
0.597369
0.60616
0.576511
0.598754
0.55915
0.548086
0.565212
0.573117
0.568073
-0.631881
-0.220381
-1.42
-0.836917
-0.385012
0.51178
0.51596
0.734461
0.635176
0.64098
0.623278
0.572534
0.548156
0.587724
0.598749
0.306991
0.391434
0.379369
0.354339
0.300504
0.243087
0.514038
0.524507
0.545925
0.574577
0.550804
0.579079
0.482722
0.482575
0.481214
0.477453
0.47594
0.479272
0.0119331
-0.0118401
0.0199813
0.00743291
-0.0146584
-0.0151286
-0.0465796
-0.058159
-0.0594759
-0.0554526
-0.0442103
-0.0425942
0.161209
0.0986453
0.0098357
0.0512071
-0.0155156
-0.0954677
-0.0996571
-0.00830215
0.0918925
0.0730681
0.377202
0.64393
0.469766
0.635587
0.435693
0.534388
0.451431
0.424702
0.451941
0.357912
0.448645
0.0473436
-0.155375
-0.210094
0.806445
0.769068
0.54745
0.307011
0.186251
0.475279
0.496395
0.457334
0.483585
0.532763
0.516915
0.0161415
0.100953
0.192323
0.496789
0.26932
0.288423
0.278192
0.445909
0.413826
)
;

boundaryField
{
    wall-4
    {
        type            zeroGradient;
    }
    velocity-inlet-5
    {
        type            zeroGradient;
    }
    velocity-inlet-6
    {
        type            zeroGradient;
    }
    pressure-outlet-7
    {
        type            fixedValue;
        value           uniform 0;
    }
    wall-8
    {
        type            zeroGradient;
    }
    frontAndBackPlanes
    {
        type            empty;
    }
}


// ************************************************************************* //
