/*--------------------------------*- C++ -*----------------------------------*\
  =========                 |
  \\      /  F ield         | OpenFOAM: The Open Source CFD Toolbox
   \\    /   O peration     | Website:  https://openfoam.org
    \\  /    A nd           | Version:  6
     \\/     M anipulation  |
\*---------------------------------------------------------------------------*/
FoamFile
{
    version     2.0;
    format      ascii;
    class       surfaceScalarField;
    location    "83";
    object      phi;
}
// * * * * * * * * * * * * * * * * * * * * * * * * * * * * * * * * * * * * * //

dimensions      [0 3 -1 0 0 0 0];

internalField   nonuniform List<scalar> 
1300
(
3.75095
5.62643
-3.3283
3.75095
-7.7539
5.62643
-4.28378
4.28378
-0.375924
0.375924
1.8765
1.87446
-2.42996
2.42996
-1.7078
1.7078
-2.52517
2.52517
-5.24796
5.24796
-5.06903
5.06903
4.69545
-4.69545
-6.33904
6.33904
-0.961622
0.961622
-3.57916
3.57916
3.1724
-3.1724
-1.81778
1.81778
0.108629
-0.108629
-0.554079
4.30503
3.19687
3.19687
-1.99068
1.99068
-4.87503
4.87503
6.222
-6.222
5.23462
-5.23462
-1.90632
-2.51633
1.79309
-11.4616
-5.96082
-5.96082
-8.44099
8.44099
-2.81456
2.81187
2.94736
-2.94736
-1.71981
1.71981
-4.30227
0.0184903
-4.30227
4.25302
0.0307638
4.25302
-0.494317
0.118393
-0.494317
3.96152
-3.96152
0.274504
0.10142
0.274504
3.06734
-3.06734
-1.87685
3.75335
1.8741
-1.8721
6.17713
-1.87885
3.75331
-6.05585
6.05585
-2.6787
0.248739
-2.6787
2.19541
0.234551
2.19541
-6.89594
6.89594
-1.7689
0.061101
-1.7689
1.70761
0.000188255
1.70761
2.8887
-2.8887
-2.62529
0.100126
-2.62529
2.38764
0.137524
2.38764
0.353406
5.27302
-5.97984
8.7917
-5.27302
0.0250659
5.2103
0.0376586
5.2103
-5.10542
0.036397
-5.10542
5.01382
0.0552082
5.01382
4.78313
-0.0876819
4.78313
-4.8163
0.120848
-4.8163
-3.35776
-4.08144
-6.50054
0.161502
-6.50054
-1.03235
0.0707231
-1.03235
0.856048
0.105574
0.856048
-3.73249
3.73249
-3.93808
0.358929
-3.93808
3.12736
0.0450395
3.12736
1.86812
1.88284
5.61907
-5.61907
2.44667
-1.73242
-0.0853646
-1.73242
-1.91187
-3.32275
1.91187
-0.0940876
-0.114923
0.223552
-0.114923
3.15713
0.0397416
3.15713
2.23777
0.149878
-2.23777
0.247082
3.30347
-3.30347
1.32439
0.666293
1.32439
-5.5586
5.5586
4.96222
0.0515965
-4.96222
0.0871945
6.15706
0.0649394
6.15706
-6.2074
-0.0145939
-6.2074
2.48313
-4.99945
-2.67446
6.15023
0.188814
-6.15023
0.189409
2.91898
0.028376
2.91898
-2.91844
2.91844
-2.98431
0.036957
-2.98431
-2.14203
0.422225
-2.14203
1.40617
0.313636
1.40617
-4.21903
-0.0832386
-4.21903
-4.09713
0.159049
4.09713
0.155884
1.11976
-1.11976
-0.607205
0.112889
-0.607205
-4.06728
-0.151749
4.06728
-0.10576
-3.8998
-0.0617269
-3.8998
-3.02197
0.0376586
3.02197
0.0453637
3.11213
0.0449998
-3.11213
0.0447979
-1.87099
3.75383
-1.87996
3.75406
-5.6894
-0.366446
-5.6894
6.3645
-0.308647
6.3645
3.10275
0.476407
-3.10275
0.424045
2.01163
0.183781
2.01163
-6.86869
-0.0272468
-6.86869
6.90273
-0.00679219
6.90273
1.87169
0.139947
-1.87169
0.102786
1.70052
0.00709388
1.70052
2.91654
-0.0278392
2.91654
-2.88226
-0.0064482
-2.88226
2.7891
-2.7891
2.7128
0.0762916
-2.7128
0.0875095
-11.1242
11.1096
-0.0361676
-11.088
5.17413
5.17413
4.2363
0.546832
4.2363
-5.0139
0.197598
-5.0139
2.66727
-5.34174
3.11966
-6.47743
4.6727
-16.1343
4.28352
-8.36496
6.75202
-6.75202
6.63351
0.118517
-6.63351
0.132964
-1.14196
0.10961
-1.14196
-3.13005
-0.602437
-3.13005
4.36642
-0.633935
4.36642
-3.02742
3.02742
-3.07627
0.0488484
3.07627
0.0510899
1.69665
0.00387127
-1.69665
-0.0357694
0.17578
0.0987242
-0.17578
0.0608571
3.52707
-0.223597
3.52707
-3.09827
-0.205197
-3.09827
-1.23146
0.0895024
1.23146
0.0929342
-5.8072
0.248596
-5.8072
-11.1816
0.0935605
-11.1439
-6.11384
-6.11384
2.32715
11.1189
-2.89744
0.0151845
2.89744
0.0215397
2.97468
0.052742
-2.97468
0.0562359
-2.85696
0.0678685
2.85696
0.0614762
-2.50972
0.367686
-2.50972
-1.02308
1.02308
-1.16954
0.146452
1.16954
0.236636
1.4217
-0.301943
1.4217
0.736484
0.119564
-0.736484
0.129279
-3.84297
-0.0568311
-3.84297
6.60148
-0.236987
6.60148
-2.96873
-0.129543
2.96873
-0.0521878
-0.0348175
11.1444
-5.13931
0.0338897
5.13931
-11.2093
11.2432
-3.21465
0.704927
3.21465
1.02166
5.28404
0.274561
-5.28404
0.270141
6.84307
0.0596639
-6.84307
0.0910435
-2.63931
-0.490741
-2.63931
-5.10452
-0.584881
5.10452
-0.738102
-11.4818
-0.20295
11.6847
-11.4265
6.01015
0.14691
-6.01015
11.3901
-0.994979
-0.124783
0.994979
0.028105
1.7614
-0.339697
1.7614
3.74606
-0.218995
-3.74606
-0.0969034
-6.75997
-0.108725
6.75997
-0.158483
-2.18984
-0.449468
2.18984
-0.428438
-4.2674
4.30714
1.90973
-2.32072
-2.67873
-5.64347
1.85528
1.89854
4.30196
-10.1431
-5.99125
-9.95367
7.21474
-6.9446
-9.31892
9.23124
7.94646
-8.00819
-5.77729
5.82838
6.48479
-6.43942
1.87948
1.87387
8.07293
-7.82419
-15.6824
15.316
7.6317
-7.5706
15.8222
-15.8495
-17.8595
17.9192
-5.70437
5.80449
-6.74315
6.7367
-6.98042
6.92823
-2.79404
-3.68339
13.1133
-12.9518
8.61786
-8.70322
-8.6834
9.04233
3.38462
0.922514
3.42962
-1.88177
3.76126
-1.87154
3.78127
2.77454
-5.56858
2.5672
-5.24593
4.39611
4.22175
-4.30202
-1.34145
-5.92891
5.95729
-5.80894
5.87041
9.19172
-9.17323
-1.88499
3.75886
-1.86908
3.76762
-3.42289
-2.3544
3.37785
0.92411
8.06059
5.05272
-8.24941
-1.70426
-8.03232
7.81332
-8.21852
8.01332
-0.436098
5.83815
-5.40205
4.43893
-1.65388
7.49203
5.56086
5.75846
5.86064
-5.58608
1.08396
-6.48601
-6.39881
-2.22897
2.34186
2.10608
-2.00466
6.15687
1.78959
6.05111
-5.81349
-2.1947
-5.87032
3.81969
2.00869
3.86854
4.08224
2.40255
4.1199
3.02949
-3.03682
0.00732518
-3.05936
6.08886
0.722037
-5.41377
-4.48966
4.99245
3.08048
5.227
-5.59836
-2.22584
-5.17431
-9.58916
-6.09329
-10.174
10.1272
5.18885
9.8185
-11.9429
11.7844
4.87768
2.75402
4.87787
-4.98176
-2.58884
-4.87898
11.6826
-2.65534
-9.02722
-10.3275
-7.53201
10.3343
5.48793
10.9687
6.9505
11.0597
4.42534
7.25721
-9.91327
2.38126
-3.866
-1.83836
-3.77849
3.6618
2.1427
3.79932
-4.21901
-2.52414
-4.20383
-4.29536
-2.68506
4.3232
2.4135
-4.41769
-3.80083
4.54723
2.381
4.05938
-10.0506
4.30559
-7.98897
-9.19833
-3.75348
-9.06537
3.5766
2.59549
-6.17208
-1.99198
8.57937
-4.35762
7.23792
-5.20533
-3.4979
-5.2411
-6.97406
-1.70934
-6.81501
-8.91688
8.42614
-9.20897
8.57504
12.5055
-5.63269
-6.87282
-3.96704
-2.47239
3.92224
-0.492617
-3.71004
3.71736
0.0512197
3.83249
4.75501
4.26239
-3.88225
-1.92669
-3.82601
3.82096
2.04946
3.88882
6.85903
2.33269
6.88979
-6.62477
-2.54846
-6.70801
9.09037
-8.66815
2.79637
-2.70687
5.38001
2.63332
-5.15641
-2.87591
6.23742
-3.21188
-3.02554
-12.3495
10.7872
1.56237
-4.8575
-0.418566
-0.527195
-5.56613
-3.75279
5.44528
0.313179
11.1003
7.34754
-5.51485
5.76344
6.16986
6.22145
-0.177362
5.88218
-5.17726
5.27113
-2.73604
-2.53509
5.48573
-5.63748
-1.22228
-5.56241
4.34013
0.41363
1.46386
-1.24031
-1.74733
-0.48164
-1.61805
1.13654
0.969545
1.23526
0.960533
1.38133
-2.92623
0.50494
2.42129
-1.96569
-1.49972
-3.82286
-1.1505
4.97336
5.73833
2.075
-5.64142
-0.2289
2.54716
-2.44159
-0.840867
-2.98199
2.2253
-3.06617
-3.46343
-1.95075
5.41418
-3.36871
-0.457304
3.31597
0.552572
-3.82825
-2.10067
3.79129
0.328606
-3.12909
6.19037
-3.06128
-5.05578
2.52898
3.55988
4.53767
-4.78991
2.44928
2.34063
-1.23003
4.25875
0.968247
4.44253
-7.07622
4.85038
5.74128
3.30105
-6.21768
1.04337
-6.03285
8.553
-7.41285
-1.14014
4.09207
4.46093
7.02926
5.47625
-5.67364
12.7029
-1.16638
-6.24647
7.19923
-3.89818
4.87308
-8.77125
-10.3493
4.10285
-9.20784
11.0859
-1.87803
-3.59221
-8.35068
12.8
-1.23084
-11.5692
8.58766
-4.34983
-4.42331
8.77314
-7.00517
7.01214
-1.98634
-5.0258
-10.1473
-5.70216
10.256
1.52838
-9.96794
12.3492
-2.71073
4.16339
0.714478
4.17049
3.36193
-5.47706
2.11513
3.64324
-5.62958
2.04948
-7.52654
-6.75516
12.0957
-5.34049
-10.5086
-9.54298
-0.965659
2.54845
9.80075
-9.49895
7.43012
2.06883
3.29763
0.591199
-3.37392
-0.404575
0.23275
4.51014
-4.74289
4.03207
4.18195
3.21736
1.29278
3.8496
2.10769
-3.87113
-0.332694
-4.16886
1.4838
-1.75535
-3.69396
5.17776
-4.06179
0.367832
-2.74329
-3.49212
6.23542
-4.58166
3.03596
3.15441
5.08542
-4.91366
1.42154
-2.39049
-2.52317
2.64025
-4.3956
2.00133
3.17643
4.38233
0.581493
5.91473
6.18092
-8.51022
0.521242
11.2336
-9.52938
2.47917
8.58055
-9.90929
0.366305
-8.69906
0.976108
-5.33372
-5.19598
5.23059
-6.93993
-3.54066
6.2564
0.633385
-6.41229
-0.402724
-6.05925
-2.85763
-6.50872
-3.05666
-6.15232
-8.7303
-1.67139
-7.05891
6.75475
-6.6768
-3.49724
7.41491
1.16013
-7.47258
7.34779
-7.53009
7.19039
0.0950664
3.6223
4.35745
1.88507
-2.39226
4.27733
-5.07957
7.41227
-8.7617
3.68213
4.25144
-6.7999
-4.51026
5.05204
4.03834
5.36567
8.91057
-10.3586
1.44806
-10.6305
11.9712
-1.34068
-16.404
5.77346
-7.49343
2.40557
0.390805
2.51518
0.550548
2.48687
-3.03742
-2.15632
-2.06339
-2.44549
-3.49373
5.93923
1.05619
-3.47602
2.41983
-3.56385
4.62004
-0.0789705
-3.39705
5.17364
-2.68677
5.56445
-3.64282
1.92162
3.55065
5.84254
-2.29189
4.41965
-1.78633
1.94999
-4.24188
-1.54374
-2.95367
5.09637
-3.28174
3.64958
-0.353477
4.00305
-4.04525
0.833374
-0.827889
3.35406
3.60114
4.33238
-3.0396
2.93504
-4.72137
-1.30684
-4.13988
-0.963451
-0.180525
-3.776
3.95652
5.99403
-6.17455
-5.27677
9.51541
-4.23864
7.69505
-5.4343
-2.26075
-4.28488
-4.38327
3.91719
1.96499
9.66004
0.178534
-5.61283
-4.99872
-3.97706
3.0839
2.18724
-1.71378
3.27615
2.24097
-0.777117
0.399096
0.836164
1.75879
-1.35969
0.343285
1.4155
-0.897021
1.67802
0.869143
-1.79758
0.179526
-1.34047
3.56577
1.08082
-2.05036
0.690673
0.889963
-3.62601
5.10655
-2.73993
-2.36663
5.99652
1.14622
-3.88615
4.41618
-4.00255
2.45396
-3.60446
-1.43219
-5.43474
-3.64515
-2.48122
4.90105
-3.458
5.533
1.43762
-5.3041
6.74172
-3.62647
1.67571
-3.05951
3.92866
-0.993574
-2.06594
2.87208
2.54211
-3.14247
0.16048
-0.270393
2.41614
-2.68653
-0.650031
-2.61572
-4.57621
4.90482
-2.10367
4.55295
2.17366
-1.91779
6.47074
1.80752
-3.72531
-3.24826
-3.70556
-1.38468
3.15299
-0.569839
-4.30914
-5.59564
4.16919
0.273341
-7.07142
7.93415
-0.862733
-3.99094
-0.859444
4.95151
-6.0959
0.466317
-4.04642
3.88773
4.85598
5.12932
-11.3341
-0.235133
-6.14523
1.08999
-7.23522
5.55092
-3.55904
7.66189
-10.304
6.80676
-9.14386
6.52175
-0.713472
6.2478
-4.13267
2.77941
-8.48157
-6.95319
5.59272
-2.8387
6.3072
-3.22371
9.53091
-5.93444
5.37782
4.15309
-1.06152
-4.17957
-5.37261
4.31108
0.00521471
4.1757
4.98725
-2.87955
4.65455
2.26519
-4.65568
-2.13041
-6.48847
1.83279
-3.33405
-1.92252
3.7553
3.1629
3.7541
1.23214
-3.34952
7.2548
-8.22046
-1.91431
-3.28167
5.35761
-1.04653
3.47401
-6.75568
-1.85971
4.73987
-0.724313
-4.01556
0.892816
-4.43347
1.67419
-6.10766
5.26575
-5.66847
2.25449
-9.74792
-5.21809
-5.18998
-2.2779
-5.25219
-7.56712
5.28922
-1.79366
5.55413
-8.50201
7.7777
-3.46921
8.75843
-5.45592
-1.05281
5.88435
1.30604
10.0645
0.168159
-4.67842
-1.94222
3.72018
-1.77796
1.14168
-3.60784
0.112339
2.49631
3.50021
-6.83643
0.0365369
-4.64189
-3.90684
7.94518
5.60856
11.6026
1.24396
9.12955
-1.18437
10.3735
4.18131
4.41794
-3.00152
4.44958
0.955008
4.63714
-0.896185
2.81781
1.61899
1.68972
0.751869
2.2895
1.31164
3.12287
0.0854547
-1.97793
4.62998
-8.60705
-0.982854
-8.06021
1.17103
5.43126
-4.26023
2.85438
-0.667137
1.07642
-0.202086
-1.13837
1.34046
-2.73718
-1.91549
-0.499988
-1.66713
2.3578
1.89864
-1.85781
-0.879364
0.327389
-3.97254
3.27707
-3.11659
-0.574484
6.16724
-2.88769
0.201157
-1.21198
-2.41457
-2.89621
2.71668
6.17433
0.296411
3.11305
5.20123
3.10056
0.221007
3.8105
-5.68853
-3.71604
-5.92366
-0.372741
4.57877
1.76914
8.03161
5.92223
4.8757
-1.87998
-10.1004
6.50157
-2.05199
5.16089
-1.14533
-4.96233
5.07813
2.33413
-5.71152
0.0430507
-4.91928
-6.97127
-0.478724
8.25643
-9.58574
8.53293
5.67531
1.38361
-4.43151
-0.758475
4.28505
0.132888
10.5064
-0.914759
-7.03678
7.95154
-4.5165
3.53364
0.673023
2.60312
2.01348
1.34635
-5.69044
-9.95066
-2.073
-1.553
-4.43963
0.533728
-2.43237
6.06531
-2.53167
3.80456
5.41988
6.49629
-2.04759
-4.12696
6.28623
-2.48167
4.01462
)
;

boundaryField
{
    wall-4
    {
        type            calculated;
        value           uniform 0;
    }
    velocity-inlet-5
    {
        type            calculated;
        value           uniform -3.75095;
    }
    velocity-inlet-6
    {
        type            calculated;
        value           uniform -5.62643;
    }
    pressure-outlet-7
    {
        type            calculated;
        value           nonuniform List<scalar> 8(3.3283 7.7539 4.42264 9.66854 7.4392 5.15759 5.78694 8.95623);
    }
    wall-8
    {
        type            calculated;
        value           uniform 0;
    }
    frontAndBackPlanes
    {
        type            empty;
        value           nonuniform 0();
    }
}


// ************************************************************************* //
