/*--------------------------------*- C++ -*----------------------------------*\
  =========                 |
  \\      /  F ield         | OpenFOAM: The Open Source CFD Toolbox
   \\    /   O peration     | Website:  https://openfoam.org
    \\  /    A nd           | Version:  6
     \\/     M anipulation  |
\*---------------------------------------------------------------------------*/
FoamFile
{
    version     2.0;
    format      ascii;
    class       volVectorField;
    location    "83";
    object      U;
}
// * * * * * * * * * * * * * * * * * * * * * * * * * * * * * * * * * * * * * //

dimensions      [0 1 -1 0 0 0 0];

internalField   nonuniform List<vector> 
918
(
(0.985049 -0.00071583 0)
(0.00535684 2.96623 0)
(-0.00386467 0.878757 0)
(0.979575 0.00196159 0)
(-0.0141069 2.06322 3.31867e-20)
(-0.00711571 2.94856 -2.53906e-18)
(0.821141 1.12293 4.53087e-19)
(0.1114 0.0803464 -1.38868e-20)
(0.999922 -0.000244841 0)
(0.0913179 0.667644 0)
(0.0159752 0.360275 0)
(0.733077 0.00546535 0)
(0.0102312 2.93157 0)
(0.00335725 2.79436 0)
(-0.00261009 3.17702 8.33912e-19)
(-0.0137314 1.92896 2.39867e-20)
(0.295874 0.0449838 9.72513e-19)
(0.233971 1.10961 3.5895e-19)
(0.964325 0.00674289 0)
(-0.0039015 0.363829 0)
(0.0550926 -0.0599494 -6.35126e-19)
(1.00183 -0.0045592 0)
(0.999851 -0.00892552 0)
(0.97517 -0.00605152 0)
(0.593059 0.0271939 0)
(0.0208485 2.64476 0)
(-0.0122985 2.91182 9.27417e-19)
(-0.00765647 0.929924 0)
(-0.0344613 1.17151 0)
(-0.0054462 0.899311 0)
(-0.0238313 2.58587 0)
(-0.00501432 2.11385 -2.6507e-20)
(-0.0100931 1.90039 0)
(-0.0221083 2.98762 -9.14197e-23)
(-0.0164657 3.00549 1.97225e-18)
(0.00231603 3.00055 0)
(0.871992 -0.00976249 0)
(0.373844 0.911854 1.60414e-19)
(0.819901 1.14176 -5.70708e-19)
(0.952057 1.00862 5.79419e-19)
(0.682381 1.22466 -1.03733e-19)
(0.695909 1.18437 5.90836e-19)
(0.139079 0.129344 1.35455e-20)
(0.148436 0.0867747 0)
(1.16892 0.533311 0)
(0.106513 0.10697 6.09749e-20)
(0.0851672 0.0626679 -6.3282e-20)
(0.920571 -0.00704715 0)
(1.00027 5.46601e-05 0)
(0.999907 0.000321247 0)
(1.0037 -0.0072793 0)
(1.00088 -0.000948184 0)
(1.00011 -5.06054e-06 0)
(0.0864888 1.83962 -7.4577e-19)
(0.0331798 0.850285 0)
(0.12758 0.758926 0)
(0.0190985 0.792806 0)
(0.0535466 0.582575 0)
(0.00503235 2.03412 0)
(-0.0105599 0.69272 0)
(0.0109152 0.395218 0)
(-0.0149864 0.689276 0)
(0.00644558 0.357424 0)
(0.843803 -0.015626 0)
(0.841271 0.026951 0)
(0.757277 0.00387668 0)
(0.799257 0.0295868 0)
(0.701804 0.0178076 0)
(0.0139264 3.00023 9.42055e-19)
(0.0111337 3.0062 0)
(0.00615912 3.0038 0)
(0.0118741 2.99721 1.06953e-23)
(0.00823559 2.95872 -1.40012e-18)
(0.0121938 2.98278 0)
(0.00902925 2.90492 0)
(0.0210768 2.93139 2.16135e-24)
(0.00407061 2.82435 0)
(0.0261077 2.91883 0)
(-0.000639815 2.74524 0)
(0.304716 3.5708 0)
(-0.122166 3.65341 0)
(0.148496 3.26767 -7.76097e-19)
(0.00270787 3.00612 0)
(-0.0323884 1.99072 0)
(-0.00751241 2.17899 -2.36575e-20)
(-0.00959084 1.94137 2.4262e-20)
(0.346277 0.138668 -3.37725e-19)
(0.321688 0.0144506 -3.28284e-19)
(0.301426 0.153002 -1.00967e-18)
(0.26121 0.0638864 -6.55067e-19)
(0.263824 1.02529 0)
(0.333595 1.24091 -3.71075e-19)
(0.415393 1.15206 6.12281e-19)
(0.987701 0.00817008 0)
(0.943214 0.00576638 0)
(1.00028 0.000672414 0)
(1.00254 0.00906679 0)
(1.0031 0.00899791 -2.59631e-18)
(0.992135 0.00941407 1.96189e-18)
(-0.0276217 0.714693 0)
(-0.00210811 0.36386 0)
(-0.0557702 1.01555 0)
(-0.0349084 0.776631 0)
(-0.0135547 0.37129 0)
(-0.0802103 0.079696 1.97522e-19)
(0.0331177 0.045573 0)
(0.993627 -0.00769134 0)
(0.954055 -0.00648473 0)
(0.743103 0.0243578 0)
(0.673963 0.0239131 0)
(0.660448 0.027197 0)
(0.980697 -0.00254211 0)
(0.583869 0.0675667 0)
(0.452046 -0.0134072 1.47946e-18)
(-0.0408763 2.86007 7.20391e-19)
(0.033687 2.91441 0)
(0.0427187 2.89267 0)
(0.00298303 2.70244 0)
(-0.00868594 2.98638 8.86172e-19)
(-0.0140293 2.89451 0)
(-0.011073 2.99164 -2.7312e-18)
(-0.0116057 2.92936 9.30582e-19)
(-0.0500517 1.34973 0)
(-0.0187224 1.37874 0)
(-0.00801738 2.1403 8.52234e-22)
(-0.00790372 2.09885 0)
(-0.0172412 1.91219 0)
(0.938935 -0.00518527 0)
(0.857363 -0.0111542 0)
(0.862955 0.00518401 0)
(0.94971 -0.00613111 0)
(0.883718 -0.0081002 0)
(0.497057 1.11157 -2.03901e-19)
(0.54444 1.18143 0)
(0.335938 0.846509 3.1317e-20)
(0.280747 0.71123 0)
(0.921372 1.03773 -1.6405e-19)
(1.04455 0.848433 3.31095e-19)
(0.393824 1.31971 0)
(0.544672 1.2754 0)
(0.598799 1.20172 0)
(0.104434 0.181478 -2.95771e-19)
(0.168171 0.142014 0)
(0.172058 0.102314 1.82105e-19)
(1.00757 0.902317 0)
(1.08353 0.750395 0)
(1.11324 0.685667 -2.6735e-19)
(1.14962 0.596373 0)
(1.20571 0.391728 4.75169e-20)
(0.957534 -0.00709082 0)
(0.96275 -0.00810508 0)
(0.900944 -0.00737713 0)
(0.983935 -0.00812034 0)
(0.97444 -0.00802807 0)
(0.936558 -0.00656868 0)
(1.0002 0.00250675 0)
(1.00078 0.00123944 0)
(1 0.00076047 0)
(0.0397449 2.08512 4.12362e-19)
(0.145177 1.78732 0)
(0.0228938 2.19712 6.3413e-19)
(0.0539263 1.89606 -5.2355e-19)
(0.167736 1.08503 -2.94636e-19)
(0.0507367 0.936186 0)
(0.122559 0.939954 0)
(0.00597292 0.755922 0)
(0.0298386 0.508101 0)
(-0.00297175 2.26042 -3.06955e-22)
(0.0208863 2.03973 0)
(-0.00458371 2.26038 -4.29748e-21)
(0.00311213 2.04524 -4.10329e-21)
(-7.02945e-05 0.72473 0)
(-0.00503276 0.704506 0)
(0.0138865 0.446117 0)
(-0.0170422 0.690861 0)
(0.0105571 0.353291 0)
(0.939629 0.0139117 0)
(0.856653 -0.011539 0)
(0.928766 0.00491258 0)
(0.846382 -0.0127841 0)
(0.810083 -0.000796615 0)
(0.898611 0.0215969 0)
(0.874986 0.0236055 0)
(0.783157 0.000198973 0)
(0.0102239 3.06759 -8.7453e-21)
(0.0152566 3.05877 0)
(0.0122864 2.97027 0)
(0.00755084 2.8767 0)
(0.893853 3.96344 0)
(1.18735 3.36012 9.36051e-19)
(0.0804046 3.08888 0)
(-0.0179618 2.91723 0)
(-0.0189202 1.40591 0)
(-0.0380019 1.70095 0)
(-0.026815 1.53735 0)
(-0.0343924 2.54712 -1.52161e-20)
(-0.0202064 2.24537 0)
(-0.0242371 2.38833 0)
(-0.000727886 1.97168 -3.93028e-23)
(-0.0053012 2.25397 -3.08616e-20)
(-0.00643087 2.21697 -2.48883e-20)
(-0.00582145 1.95531 0)
(0.389657 0.117864 5.17676e-19)
(0.362422 0.0073263 -5.0786e-19)
(0.234319 1.59183 0)
(0.288925 0.769593 -3.19208e-19)
(0.180161 1.69199 -1.04597e-18)
(0.245886 1.22597 1.04629e-18)
(0.901611 0.00587993 0)
(0.966996 0.0107298 0)
(0.974859 0.00988983 0)
(0.922949 0.00582959 0)
(-0.0194905 0.694453 0)
(-0.0260387 0.704635 0)
(0.00409231 0.350346 0)
(0.0765572 0.0902958 5.58881e-19)
(0.0593291 0.0661424 -6.55488e-19)
(0.0443761 0.0463066 0)
(1.10845 0.0909937 2.31204e-20)
(1.09208 0.0429209 0)
(1.01955 0.0439349 0)
(0.914489 -0.00126709 0)
(0.43783 0.0972407 0)
(0.49497 0.0776426 -2.36651e-18)
(0.399261 0.00241611 8.86835e-19)
(0.0104546 2.97702 7.66932e-19)
(-0.0331957 2.86118 4.57711e-20)
(0.00804317 3.05361 -1.84726e-20)
(0.0159236 3.04291 6.9047e-19)
(-0.0118133 3.00009 3.06201e-20)
(-0.0122887 2.95228 -1.23423e-22)
(-0.0150678 3.01323 -5.72219e-19)
(0.0148063 3.0261 4.05786e-19)
(0.0077041 3.03538 -6.59741e-19)
(0.934817 0.00216716 0)
(0.939585 -0.00109458 0)
(0.848265 -0.0111875 0)
(0.956252 0.011831 0)
(0.94229 0.0132978 0)
(0.881486 0.00550441 0)
(0.915327 0.0186096 0)
(0.92498 0.0153735 0)
(0.837091 0.00171858 0)
(0.669661 1.40967 2.16025e-20)
(0.68769 1.52008 0)
(0.11774 0.288536 6.65053e-20)
(0.214274 0.654058 5.25125e-19)
(0.239923 0.691305 -3.08341e-19)
(0.213159 0.491231 6.12042e-19)
(0.341376 0.834085 1.56639e-18)
(0.136224 0.237753 3.76756e-19)
(0.256261 0.166392 6.94785e-19)
(0.209603 0.161565 1.79466e-19)
(0.217913 0.0890551 3.4142e-19)
(1.19659 0.4483 1.03537e-19)
(1.22105 0.24673 1.01342e-19)
(0.00910698 2.24806 2.40381e-19)
(0.0385881 1.95986 0)
(0.973375 0.033206 0)
(0.947055 0.0193353 0)
(0.871634 -0.0150552 0)
(0.0124827 3.07436 0)
(0.0168144 2.944 1.21982e-18)
(0.0139138 2.95685 0)
(0.00580872 2.85009 -1.21049e-18)
(0.00941845 3.08994 2.9773e-19)
(0.0116806 3.08345 0)
(0.707007 1.81564 -1.71503e-19)
(1.23164 2.61988 5.79755e-19)
(0.691748 1.99357 -1.39524e-18)
(0.0219926 2.97602 -6.64521e-19)
(0.0400187 2.99764 0)
(-0.0384914 2.87833 0)
(-0.00614541 2.23916 -1.31482e-20)
(-0.00496398 2.25959 6.02377e-20)
(-0.000162267 2.00725 -7.38668e-21)
(0.26879 1.40385 1.01554e-18)
(0.288302 0.573992 -6.97351e-19)
(0.0672126 2.00506 7.28608e-19)
(0.124561 1.87539 -8.78192e-19)
(0.208819 1.5443 1.00372e-19)
(0.00583468 3.12038 -1.65205e-18)
(0.0131244 3.12073 1.8189e-18)
(-0.00526491 2.9806 8.27541e-19)
(-0.00154677 2.9751 -7.91648e-19)
(-0.017583 2.87715 -8.42885e-19)
(0.0119402 3.10072 -2.21052e-18)
(0.00564346 3.10528 2.24277e-18)
(0.268782 0.699723 0)
(0.219744 0.659701 -1.12257e-18)
(0.0747585 0.211728 4.94136e-19)
(0.347335 0.9545 1.11377e-18)
(0.200789 0.282581 -1.71526e-18)
(1.19961 0.17674 4.41362e-20)
(1.21781 0.306261 0)
(1.19505 0.121751 1.34707e-20)
(-0.000745561 2.26771 -1.13174e-21)
(0.00374032 2.251 0)
(0.0325924 1.99612 0)
(0.313273 1.3188 -3.65241e-19)
(0.354299 1.18064 -7.92692e-19)
(0.234277 0.39414 1.41851e-18)
(1.00644 -0.00967857 0)
(1.00774 -0.00778076 4.77138e-19)
(-0.0441898 1.33213 0)
(-0.0538601 1.3367 0)
(1.00244 0.00327094 1.33749e-21)
(1.0032 0.00780751 9.79659e-19)
(-0.0255323 2.53401 1.92822e-20)
(-0.028375 2.57645 0)
(0.0399695 3.17221 4.67789e-19)
(0.372689 3.53791 0)
(1.16012 0.69507 -4.62255e-20)
(1.01177 0.0106353 -2.85171e-21)
(1.02089 -0.00898707 0)
(1.00157 0.000290589 1.58629e-22)
(0.118896 1.37607 0)
(0.140143 2.58641 0)
(0.0355875 1.32635 0)
(0.000255923 2.63397 -9.67032e-21)
(-0.0220792 2.58065 -1.39102e-20)
(0.997901 0.0315315 2.68543e-21)
(1.06308 0.00592221 0)
(1.10027 0.0286408 0)
(-0.0362469 1.74817 0)
(-0.0203227 2.57902 0)
(-0.0170118 1.32512 0)
(0.309021 1.49157 -1.78441e-19)
(1.01152 -0.00904999 0)
(1.00971 -0.0129833 0)
(1.00227 0.000936473 6.11011e-19)
(1.00548 -0.00490842 -7.20365e-19)
(1.00113 -0.000860789 0)
(-0.0254458 1.47225 0)
(-0.0144329 1.39471 0)
(-0.0202843 1.43413 0)
(-0.0198827 1.31082 0)
(-0.0343549 1.3005 0)
(-0.0282526 1.27982 0)
(1.03571 -0.00428072 0)
(1.01887 0.0154043 -9.44808e-22)
(0.81342 1.31344 2.88422e-19)
(1.00245 0.000392067 -6.10727e-19)
(1.00339 0.00444493 7.2903e-19)
(1.00126 0.00209214 0)
(1.01106 0.00963176 6.08239e-19)
(1.00682 0.00745032 -7.40452e-19)
(1.00711 0.0111057 0)
(-0.0252402 2.60594 0)
(-0.0284885 2.58475 -3.38234e-20)
(-0.0253039 2.599 2.38826e-20)
(1.24293 0.274208 5.02894e-19)
(1.16389 0.0893414 0)
(0.0435325 3.09124 -9.39883e-19)
(0.0519811 2.87384 -6.66337e-20)
(0.102803 3.20166 1.25645e-18)
(0.121047 3.21366 -2.64606e-19)
(0.140223 3.25596 0)
(0.022703 3.13775 2.57993e-19)
(0.0609334 3.16188 9.36181e-19)
(0.0612111 3.17872 -4.82695e-19)
(0.027075 3.12942 0)
(0.546329 0.289258 0)
(0.4919 0.305385 0)
(1.14282 0.72686 9.96182e-20)
(1.10714 0.862435 -7.80408e-20)
(1.19993 0.6125 0)
(1.22656 0.546342 0)
(1.01569 0.0120324 -1.12974e-18)
(1.01464 0.0127749 1.42038e-18)
(1.02577 -0.00871206 0)
(1.02411 -0.0102829 0)
(1.0068 0.00326629 0)
(1.01088 0.00422148 0)
(1.0042 0.00222027 0)
(1.00933 0.00634433 0)
(1.00682 0.00504094 0)
(1.00437 0.00525755 0)
(0.1084 1.37579 0)
(0.0949622 1.33425 0)
(0.141753 1.42164 0)
(0.14668 1.40555 0)
(0.145978 2.61246 0)
(0.188012 2.68129 -3.98861e-19)
(0.0901152 2.66075 0)
(0.0829075 2.6578 1.65431e-19)
(0.0243626 2.67273 -1.62726e-19)
(0.0198798 1.33528 0)
(0.0288676 1.25333 0)
(0.0224936 1.34776 0)
(0.0485598 1.27296 0)
(-0.00210588 1.9965 4.29766e-20)
(-0.0218506 2.60895 -4.43366e-20)
(-0.00581453 2.67629 -3.87819e-20)
(-0.0189138 2.68776 0)
(-0.0242234 2.61492 4.17749e-20)
(-0.0227842 2.6104 4.55969e-20)
(0.00435091 1.99302 -3.30786e-20)
(-0.0106723 2.4008 5.94789e-20)
(-0.0149721 2.42582 4.39621e-20)
(1.01146 0.0405153 1.14662e-18)
(1.00452 0.021041 -1.42589e-18)
(1.0037 0.0473838 -1.17046e-18)
(0.975331 0.0377474 1.47403e-18)
(1.06474 0.00926988 0)
(1.04996 -0.00642336 0)
(1.0928 0.0379298 0)
(1.07591 0.0151077 0)
(1.07469 0.000576613 0)
(1.14154 0.0799714 0)
(1.11588 0.0465152 0)
(1.11924 0.0375699 0)
(-0.0314502 2.4305 3.94242e-21)
(-0.0227449 2.02447 0)
(-0.0228669 2.22016 0)
(-0.0223431 2.5999 -2.1705e-20)
(-0.0188162 2.61106 6.99822e-22)
(-0.00432787 1.59412 -5.94529e-20)
(-0.0142235 1.51625 6.07499e-20)
(-0.025103 1.40826 0)
(-0.0293523 1.41387 0)
(-0.0360793 1.40417 0)
(-0.0116671 1.32755 0)
(0.00207472 1.24544 0)
(0.386534 1.51619 3.00067e-19)
(0.43506 1.52037 1.57402e-19)
(0.591228 2.46374 -2.45398e-19)
(0.376819 2.56166 6.77889e-19)
(0.349553 2.04993 6.73777e-20)
(1.02072 -0.0079881 0)
(1.0158 -0.00934812 0)
(1.01486 -0.0132071 0)
(1.00774 -0.000547715 0)
(1.00484 -0.000684816 0)
(1.008 -0.00446487 0)
(1.00955 -0.00342953 0)
(1.01465 -0.0042692 0)
(1.0196 0.0163906 1.10863e-18)
(1.01716 0.0149227 -1.40486e-18)
(1.02 0.0188578 -1.11762e-18)
(1.0173 0.0170652 1.40033e-18)
(0.769806 1.36012 0)
(0.708497 1.39612 2.55325e-19)
(0.877765 1.24152 1.09247e-19)
(0.914376 1.20098 -1.44992e-19)
(1.16302 2.60887 2.56871e-19)
(0.751821 0.127592 5.76725e-19)
(1.17227 0.108508 0)
(1.21497 0.202747 -4.08387e-19)
(1.19639 0.154457 -1.69979e-20)
(1.01288 0.166928 0)
(0.0751453 3.01829 3.30945e-19)
(0.0813647 2.90307 -1.10299e-18)
(0.0228291 2.3611 6.98711e-19)
(0.158369 -0.270069 -3.0698e-19)
(0.340784 3.44214 -2.57424e-19)
(0.191812 3.33804 0)
(0.222587 3.39365 3.35325e-19)
(0.220112 3.07572 -1.16566e-18)
(0.252898 3.19415 0)
(0.00664336 3.12239 4.88939e-20)
(0.0168845 3.13115 -5.64138e-19)
(0.0160324 3.12697 8.3031e-19)
(0.0331506 3.1401 0)
(0.0311427 3.14962 0)
(1.25517 2.57196 0)
(0.54072 0.788539 -5.14971e-19)
(1.02736 1.03627 -1.97546e-20)
(0.993742 1.08938 0)
(0.862767 0.971113 -1.0191e-19)
(1.08647 0.911896 2.66022e-20)
(0.302439 0.304793 -7.64787e-19)
(0.636663 0.322851 -2.29002e-20)
(0.518543 0.213773 3.86685e-19)
(0.525731 0.321995 2.75622e-20)
(0.393693 0.269916 -1.10117e-18)
(0.591825 0.322157 0)
(0.682185 0.435932 6.63191e-19)
(0.691997 0.448347 0)
(0.556206 0.32572 0)
(0.456887 0.248591 0)
(0.801037 0.659452 3.83009e-19)
(1.25443 0.308244 -4.0858e-19)
(1.24777 0.440676 0)
(1.24797 0.39582 0)
(0.677766 0.19053 5.89972e-19)
(0.847726 0.561481 -3.62684e-19)
(0.768865 0.524948 6.4748e-19)
(0.965995 0.457664 -6.48149e-19)
(1.01842 0.0147539 7.53077e-19)
(1.01706 0.0136682 -7.59467e-19)
(1.01589 0.0142373 0)
(1.0371 -0.00450249 0)
(1.03049 -0.00768082 -7.11325e-19)
(1.0287 -0.0105689 7.0393e-19)
(1.02475 0.0110492 0)
(1.02269 0.0151646 0)
(1.01271 0.00475223 0)
(1.01457 0.00910469 0)
(1.01643 0.00426759 0)
(1.01557 0.00294682 0)
(0.0788491 1.36325 0)
(0.0813751 1.3049 0)
(0.153445 1.42364 5.62668e-20)
(0.277138 1.48781 8.72244e-20)
(0.176653 1.45916 1.96098e-19)
(0.212459 1.45709 -3.17194e-19)
(0.162061 1.43453 0)
(0.143981 1.58804 -7.14274e-20)
(0.141975 1.5821 0)
(0.347257 2.00065 -9.8104e-20)
(0.329795 2.33335 6.11571e-19)
(0.196496 1.46868 6.22324e-20)
(0.275922 1.40285 2.91539e-20)
(0.208224 1.40195 -2.37797e-20)
(0.289707 1.34127 -7.61547e-20)
(0.256874 1.57694 0)
(0.270337 1.62153 8.77986e-20)
(0.0203611 2.24985 -1.21165e-20)
(0.0354723 2.66693 0)
(0.0595159 2.40109 8.98941e-20)
(0.0555555 2.42578 0)
(0.0652981 2.68418 -1.984e-19)
(0.0416807 2.70242 0)
(0.0262348 1.46245 6.53126e-20)
(0.0324986 1.51821 0)
(0.0349228 1.42309 0)
(0.0265341 1.43255 -7.45338e-20)
(0.00365104 2.66074 6.15254e-21)
(0.0248204 2.6878 1.87256e-19)
(0.0106288 2.73205 9.02265e-22)
(0.00261307 1.84918 -2.76273e-20)
(-0.00496736 1.70166 -1.92684e-20)
(0.0170337 1.31586 0)
(0.0261699 1.22869 0)
(0.0412448 1.59314 -9.62321e-21)
(0.0429385 1.47402 -5.93589e-20)
(0.0271307 1.55518 6.22913e-20)
(0.05389 1.61633 0)
(-0.0320659 2.2708 1.31777e-19)
(-0.0353571 2.548 -5.58795e-20)
(-0.0210923 2.44869 1.00976e-20)
(-0.00554648 1.86491 3.34843e-20)
(-0.0287038 2.50355 1.42314e-20)
(-0.0232118 2.44581 -3.67147e-20)
(1.0183 0.0223652 -7.59613e-19)
(1.01504 0.0287783 7.62663e-19)
(1.01182 0.0182666 0)
(1.01043 0.0710381 1.05343e-18)
(0.990386 0.0616508 -1.1981e-18)
(0.949342 0.0565189 1.34116e-18)
(1.01333 0.116106 -1.42029e-19)
(1.04404 -0.00463954 0)
(1.05227 -0.000370871 6.81009e-19)
(1.04035 -0.00814905 -6.80602e-19)
(1.07239 0.0438484 -4.0337e-20)
(1.06506 0.0291012 3.48585e-19)
(1.0642 0.0658748 0)
(1.05441 0.0550834 -1.25616e-19)
(1.03232 0.0440562 0)
(1.02609 0.0392872 0)
(1.02763 0.013705 0)
(1.02405 0.0163513 0)
(1.04039 0.0338094 2.58223e-19)
(1.0393 0.0285325 -5.71797e-19)
(1.0533 0.0389254 -2.73043e-19)
(1.04824 0.038818 -3.01412e-19)
(1.07792 0.0706333 5.75607e-19)
(1.10193 0.056688 0)
(1.10865 0.0955054 0)
(-0.029994 2.27693 7.58112e-20)
(-0.0325959 2.02964 4.15659e-21)
(-0.0277126 2.03983 0)
(-0.0313046 2.44406 -7.54729e-20)
(-0.0291854 2.40257 -7.93599e-21)
(-0.0357303 2.47052 9.90559e-21)
(-0.0219009 2.6223 -3.88954e-20)
(-0.0274883 2.56442 2.17751e-21)
(-0.0258597 2.51837 -1.30676e-20)
(-0.0177368 2.615 2.47475e-20)
(-0.0216589 2.61747 -2.87388e-20)
(-0.0133068 1.52011 -1.03743e-21)
(-0.00778019 1.64137 -6.15773e-20)
(0.377754 1.4523 -1.29751e-19)
(0.37279 1.3831 6.77942e-21)
(0.64966 1.44382 -2.47025e-19)
(0.525083 1.51328 -1.52982e-19)
(0.579169 1.47229 0)
(0.607035 2.42047 2.15477e-19)
(0.666563 2.43037 3.35363e-19)
(0.421368 2.514 8.99264e-20)
(0.40161 2.53653 -6.16191e-19)
(0.500812 2.47604 5.59064e-19)
(0.553208 2.47397 0)
(0.485993 2.52441 -5.41982e-19)
(0.262878 2.58812 1.09425e-18)
(0.356644 2.56572 -6.0105e-20)
(0.279867 2.64997 -1.52886e-18)
(0.970911 2.3876 7.05403e-19)
(0.848341 2.38852 0)
(1.01143 0.00139985 2.47695e-20)
(1.01538 -0.00515763 -2.02354e-20)
(1.01778 -0.00389065 -3.6986e-19)
(1.01564 -0.00101895 3.6858e-19)
(1.01313 0.00185529 0)
(0.638181 1.30531 0)
(0.68269 1.19076 0)
(0.79772 1.12163 0)
(0.6703 1.14769 0)
(1.19405 2.62426 5.16743e-20)
(1.08674 2.37605 0)
(0.816457 2.16422 3.45511e-21)
(0.820907 2.428 0)
(0.915766 2.51857 -4.25485e-19)
(0.947161 2.46793 2.84057e-19)
(0.781985 0.171118 0)
(0.725711 0.145485 1.56071e-19)
(0.900987 0.15865 9.14015e-19)
(0.816045 0.143842 -3.41803e-19)
(0.756552 0.0924241 -1.05231e-18)
(1.08796 0.2475 -8.25685e-19)
(0.985025 0.319409 -1.02751e-20)
(0.927194 0.352019 8.01143e-19)
(1.01358 0.259416 6.81958e-19)
(0.930675 0.207696 -1.20323e-18)
(0.887889 0.221277 1.5104e-19)
(0.927405 0.316258 -3.13448e-19)
(0.903897 0.225685 0)
(1.00055 0.20992 5.88237e-19)
(1.05486 0.219178 0)
(1.05244 0.2305 0)
(1.1259 0.125466 2.62682e-19)
(1.06521 0.1956 -1.06611e-20)
(1.07966 0.249418 -1.50525e-19)
(1.11316 0.212601 0)
(1.02275 0.0489034 5.83767e-19)
(1.03676 0.0628431 7.28059e-19)
(1.0326 0.0463276 -5.79683e-19)
(1.04146 0.0693647 -4.88259e-19)
(1.01461 0.0757507 -7.44868e-19)
(0.985685 0.170398 0)
(0.988056 0.108548 0)
(0.961776 0.075043 -4.77423e-19)
(0.898495 0.100389 1.89879e-19)
(1.03923 0.117228 6.75215e-19)
(1.07611 0.137458 -7.69576e-19)
(1.07028 0.181877 6.92177e-19)
(1.03533 0.157927 0)
(1.08632 0.123711 0)
(1.05699 0.113113 -3.15939e-19)
(1.04254 0.109479 -5.48542e-19)
(0.587988 1.08078 1.14348e-19)
(0.609427 1.39738 -1.62893e-20)
(1.14397 2.71545 -2.40775e-19)
(1.19621 3.1 1.64398e-21)
(1.25174 2.72478 -1.0958e-19)
(1.29086 2.69512 1.385e-20)
(1.26587 2.31823 -3.83111e-20)
(1.18376 3.00524 -6.88962e-20)
(1.20354 2.96218 2.1579e-19)
(1.17772 3.25304 -1.23775e-19)
(1.39491 2.9666 1.55025e-19)
(1.40619 2.90166 0)
(0.57739 0.813979 -4.72139e-20)
(0.200401 1.21033 4.62625e-19)
(0.52881 0.32551 4.96161e-19)
(0.413598 0.0919132 5.63576e-19)
(0.455325 0.296875 6.23603e-19)
(0.545713 0.415592 -1.01505e-18)
(0.55664 0.396891 8.34917e-19)
(0.458897 0.292475 -3.08248e-19)
(0.298323 0.234707 7.04987e-19)
(0.711116 0.26165 -3.40457e-19)
(0.663266 0.287959 0)
(0.592347 0.196804 7.04764e-21)
(0.734074 0.51579 3.50366e-19)
(0.70464 0.4899 -1.2714e-18)
(0.632298 0.439728 1.29875e-20)
(0.617624 0.418932 0)
(0.724227 0.720368 3.63692e-19)
(0.839587 0.802527 3.99512e-19)
(0.778307 0.852891 -4.65786e-19)
(0.908193 0.823503 -1.47228e-19)
(0.942756 0.866446 -3.36699e-20)
(0.950274 0.87389 3.45302e-20)
(0.88444 0.68162 -6.52163e-19)
(0.957752 0.728231 1.36875e-19)
(1.01288 0.731429 0)
(1.01164 0.706933 -1.74254e-19)
(1.03033 0.343922 2.05155e-19)
(1.15906 0.342845 2.46821e-19)
(1.07505 0.284555 3.37528e-19)
(1.00076 0.390894 -4.11627e-19)
(1.05834 0.491039 0)
(1.13963 0.431452 0)
(0.898491 0.429479 -1.24365e-21)
(0.84722 0.321682 0)
(0.893187 0.311151 3.81614e-19)
(0.911558 0.350149 1.88014e-21)
(0.98809 0.501826 1.80977e-18)
(0.920863 0.560396 4.6702e-19)
(0.943439 0.519522 -4.93585e-19)
(0.861119 0.496845 5.26433e-19)
(0.825271 0.47127 3.36762e-19)
(0.802342 0.449653 -3.2998e-19)
(1.02822 -0.000359906 6.11008e-19)
(1.02047 0.000616627 0)
(1.01911 0.00142949 3.988e-19)
(1.02269 -0.000686327 -9.02698e-19)
(1.02257 0.00462967 4.39785e-19)
(1.02002 0.011682 -9.20533e-19)
(1.02075 0.0114976 0)
(1.01968 0.0122558 -1.91718e-19)
(1.01659 0.00783377 4.80455e-19)
(1.01669 0.0109542 -2.41318e-19)
(1.01728 0.0106639 1.76646e-19)
(0.0373537 1.337 0)
(0.0442699 1.39917 0)
(0.0558822 1.34079 0)
(0.0628437 1.27655 0)
(0.0900534 1.40371 -7.31983e-20)
(0.0941118 1.37795 1.76704e-20)
(0.0875304 1.57371 7.34462e-21)
(0.107684 1.41205 -4.10907e-20)
(0.0451815 1.48796 5.25673e-20)
(0.0497846 1.48306 -4.14405e-20)
(0.0768188 1.39917 -2.59914e-20)
(0.0643754 1.4013 7.92336e-20)
(0.0620144 1.38402 1.29097e-20)
(0.047606 1.40183 8.74226e-21)
(0.0989689 2.36592 -9.85946e-20)
(0.0861684 2.40828 0)
(0.152612 2.01091 8.77439e-20)
(0.132818 1.69647 2.75774e-20)
(0.214887 2.01296 -7.46378e-20)
(0.220238 2.4157 0)
(0.224361 2.39238 -5.95511e-19)
(0.303826 2.37098 4.45687e-19)
(0.253976 1.97844 -1.91439e-19)
(0.14767 2.14609 1.36401e-19)
(0.113141 2.2498 0)
(0.0166757 1.85019 -3.27967e-20)
(-0.00528765 2.37144 -5.35465e-21)
(0.00433739 2.12922 0)
(0.00497849 2.43329 -1.75664e-20)
(0.0216502 2.26965 2.76072e-20)
(0.0118062 1.44043 -1.3123e-20)
(0.00794216 1.42048 2.17989e-19)
(0.00648202 1.42998 -7.08703e-20)
(0.0209114 1.43885 -6.17423e-20)
(0.022913 1.46597 0)
(0.00386688 1.41378 0)
(-0.00102416 1.31251 -8.68672e-20)
(-0.00304634 1.40527 2.53902e-20)
(0.00485338 1.40371 0)
(0.0103399 1.30554 -6.69077e-20)
(0.0167226 1.2138 1.33343e-19)
(1.04246 0.0151191 0)
(1.04904 0.0105921 -6.36797e-20)
(1.03921 0.024719 -4.60528e-19)
(1.04968 0.0235445 0)
(1.05466 0.0227076 0)
(1.03636 0.0131059 -6.75487e-21)
(1.03006 0.0135801 7.43624e-19)
(1.03186 0.0175862 8.99678e-19)
(1.02565 0.0212285 0)
(1.02238 0.0217452 0)
(1.03556 0.0260423 4.59695e-19)
(1.02604 0.0283561 0)
(1.02357 0.0283336 0)
(-0.0210556 2.03202 0)
(-0.0118846 1.66934 -2.7138e-21)
(-0.0096864 1.77267 -3.52026e-20)
(-0.0093827 1.41047 0)
(-0.0105827 1.57485 -3.64152e-20)
(-0.0183045 1.48712 2.18226e-20)
(-0.0163015 1.4266 0)
(0.403187 1.6213 0)
(0.366827 1.32123 -1.0631e-20)
(0.27533 1.34604 0)
(0.43721 1.31933 -5.92448e-20)
(0.472993 1.4783 0)
(0.458597 1.42013 5.0111e-20)
(1.04022 2.66774 -1.49653e-20)
(0.985248 2.40644 -8.86092e-19)
(0.94796 2.20781 9.90359e-19)
(0.865113 2.38051 2.40107e-19)
(0.85227 2.48444 0)
(0.921473 2.47896 0)
(0.95468 2.38056 0)
(0.930556 2.37165 -9.2886e-19)
(0.690694 2.44819 -3.6959e-19)
(0.799872 2.43199 -9.5747e-20)
(0.807156 2.41003 7.21518e-20)
(0.703817 2.40151 0)
(0.809191 2.39506 0)
(0.769614 2.41174 -3.63956e-19)
(0.765201 2.46302 0)
(0.633914 1.06882 0)
(0.514922 0.853208 -5.50207e-19)
(0.522141 0.927734 -3.20426e-20)
(0.501727 1.06739 0)
(0.488986 0.974425 8.41509e-19)
(0.805687 0.888355 -1.28826e-19)
(0.808772 1.02291 0)
(0.789925 1.00606 1.75229e-19)
(0.678548 1.02194 0)
(0.670507 0.925541 0)
(1.16254 2.75208 -2.12207e-19)
(1.13772 2.81046 -8.41103e-20)
(0.921847 2.33269 6.6074e-20)
(0.898676 2.31372 -7.31075e-20)
(1.13225 2.7298 0)
(1.08434 2.69754 8.77884e-20)
(1.09992 2.49252 -2.90111e-19)
(1.0017 2.25258 -2.81264e-20)
(0.496369 1.32628 0)
(0.516647 1.07546 -1.0071e-19)
(0.596211 1.18428 0)
(0.851416 0.233322 0)
(0.755606 0.178849 0)
(0.653741 0.142261 0)
(0.862356 0.231619 -6.02229e-19)
(0.740581 0.231367 3.54693e-19)
(0.911149 0.0882147 -3.88552e-19)
(0.927306 0.139514 0)
(0.900833 0.148071 1.7084e-19)
(0.839089 0.110277 6.83122e-19)
(0.796639 0.0785946 -4.29131e-19)
(1.09405 3.34364 -6.73961e-19)
(1.16249 3.26747 0)
(1.11208 3.42837 -1.57404e-18)
(0.654491 3.57471 1.31022e-18)
(1.02229 3.07444 1.24878e-19)
(0.53419 0.774372 5.6022e-19)
(0.511961 0.741164 0)
(0.344089 0.329436 -1.40744e-19)
(0.495055 0.626692 8.38189e-19)
(0.565277 0.325636 -1.81223e-19)
(0.523734 0.45249 2.17971e-19)
(0.68894 0.528453 4.47822e-19)
(0.736339 0.565645 0)
(0.67083 0.56267 0)
(0.657811 0.534196 0)
(1.01929 0.61615 8.38455e-20)
(0.972962 0.598323 -4.52463e-19)
(0.983349 0.610575 3.44546e-19)
(1.04711 0.55352 -3.3299e-19)
(1.09285 0.522416 0)
(1.0953 0.604497 -8.69483e-20)
(0.886455 0.425974 -7.51976e-19)
(0.87322 0.411344 -9.70086e-19)
(0.799386 0.415416 5.92193e-19)
(0.814901 0.378884 -6.18362e-19)
(0.855952 0.335014 -4.85734e-19)
(0.80058 0.337909 5.94461e-19)
(1.02658 0.00675228 -4.60127e-19)
(1.02621 0.00687113 9.27068e-19)
(1.02998 0.000982467 5.91974e-19)
(1.03421 0.00161592 -7.10771e-19)
(1.03401 0.0120301 0)
(1.02972 0.0120989 -1.1646e-18)
(0.0829804 1.64666 9.76157e-21)
(0.0668816 1.60535 0)
(0.108724 1.70459 3.08044e-20)
(0.117654 1.67753 -2.56739e-20)
(0.0810386 1.57151 -1.34603e-20)
(0.0659632 1.57297 0)
(0.00764343 1.70649 0)
(-0.00794558 1.52521 1.94165e-20)
(-0.0067525 1.46806 -1.74555e-20)
(-0.013629 1.57277 3.22455e-21)
(-0.00207592 1.89713 2.91549e-20)
(-0.0143975 1.95148 -1.1511e-20)
(0.493716 1.3587 -2.4789e-19)
(0.496446 1.35332 2.71347e-19)
(0.451201 1.31143 -1.24873e-21)
(0.428561 1.29066 6.90752e-21)
(0.63109 1.3123 0)
(0.556818 1.40683 1.25379e-19)
(0.557796 1.40974 -1.22066e-19)
(0.487478 1.2998 1.20499e-21)
(0.528006 1.2521 0)
(0.592519 1.21777 0)
(0.664504 2.41171 5.44197e-19)
(0.660212 2.44218 1.25484e-18)
(0.715378 2.45735 -8.63133e-19)
(0.613969 2.42903 -1.9759e-19)
(0.555909 2.52236 2.69674e-19)
(0.496106 2.48845 -6.97316e-19)
(0.992693 2.38535 -5.57909e-19)
(1.02417 2.40285 0)
(0.951331 2.1913 -6.09076e-19)
(1.05531 2.67861 0)
(1.05417 2.65952 0)
(0.59768 2.28477 8.74364e-21)
(1.11682 3.06672 7.85573e-20)
(0.993331 2.96281 -1.25811e-19)
(0.316164 0.781247 0)
(0.312431 0.654821 -2.9967e-19)
(0.522628 0.593224 -3.01412e-19)
(0.359465 2.12609 0)
(0.400978 2.74373 -8.79191e-20)
(0.410115 2.47754 0)
(0.732443 0.688534 -7.74281e-19)
(0.798415 0.698271 1.07841e-18)
(0.801656 0.661903 -1.02272e-18)
(0.704741 0.643814 -9.81313e-20)
(0.760545 0.603932 -4.05829e-19)
(0.96787 2.74939 -5.94947e-20)
(1.01273 2.75729 -2.01826e-19)
(0.547762 2.19922 4.3519e-19)
(0.601345 1.73057 -3.44751e-19)
(0.700634 1.84937 -4.85619e-19)
(0.97522 2.39015 -1.37283e-19)
(0.975682 2.34317 3.57237e-19)
(0.642412 1.75695 3.28662e-20)
(0.449055 1.29182 1.70327e-19)
)
;

boundaryField
{
    wall-4
    {
        type            noSlip;
    }
    velocity-inlet-5
    {
        type            fixedValue;
        value           uniform (1 0 0);
    }
    velocity-inlet-6
    {
        type            fixedValue;
        value           uniform (0 3 0);
    }
    pressure-outlet-7
    {
        type            zeroGradient;
    }
    wall-8
    {
        type            noSlip;
    }
    frontAndBackPlanes
    {
        type            empty;
    }
}


// ************************************************************************* //
