/*--------------------------------*- C++ -*----------------------------------*\
  =========                 |
  \\      /  F ield         | OpenFOAM: The Open Source CFD Toolbox
   \\    /   O peration     | Website:  https://openfoam.org
    \\  /    A nd           | Version:  6
     \\/     M anipulation  |
\*---------------------------------------------------------------------------*/
FoamFile
{
    version     2.0;
    format      ascii;
    class       volScalarField;
    location    "34";
    object      p;
}
// * * * * * * * * * * * * * * * * * * * * * * * * * * * * * * * * * * * * * //

dimensions      [0 2 -2 0 0 0 0];

internalField   nonuniform List<scalar> 
918
(
0.572111
1.30781
0.00684247
0.572001
0.00562062
1.27567
-0.455228
0.74024
0.553187
-0.0684143
-0.0128728
0.549551
1.13265
0.898963
-1.14132
0.0920173
0.693655
-0.382668
0.551089
-0.0268366
0.773134
0.559928
0.562402
0.553202
0.609407
0.857243
1.01002
-0.0209324
-0.0143964
-0.00752445
0.0434466
0.0601942
0.0764381
1.1588
1.21074
1.2339
0.520407
0.350664
-0.34409
-0.397644
-0.379003
-0.479885
0.731949
0.732085
-0.143312
0.740735
0.748763
0.539113
0.552572
0.553414
0.554601
0.553449
0.554753
0.441579
-0.0734818
-0.105052
-0.0493334
-0.0402435
0.102649
-0.0172937
-0.0210697
-0.00791982
-0.00333895
0.471384
0.545625
0.542961
0.55448
0.563597
1.24799
1.2217
1.24775
1.15843
1.17601
1.10959
1.08248
0.920653
0.94458
0.883144
0.868955
-1.60762
-2.56708
-0.556272
-0.272168
-0.0253031
0.0843384
0.0860564
0.683791
0.683573
0.695321
0.704994
1.06757
-0.35186
-0.423184
0.551535
0.55008
0.559437
0.560342
0.555279
0.555299
-0.015624
-0.00767189
-0.0409497
-0.0296664
-0.028849
0.764106
0.763591
0.552655
0.550118
0.572856
0.595587
0.584717
0.298347
0.616928
0.631086
0.714053
0.861984
0.851746
0.863178
0.985639
0.953737
1.04119
1.06295
-0.043762
-0.0525943
0.0740627
0.0891781
0.0976508
0.516191
0.509871
0.536411
0.523965
0.526911
0.254456
0.102122
0.433636
0.457907
-0.259551
-0.304182
-0.411242
-0.409602
-0.520088
0.622855
0.727468
0.724942
-0.165575
-0.0874456
-0.215466
-0.0271378
-0.0852035
0.530277
0.536374
0.532544
0.547692
0.541909
0.544315
0.556691
0.553829
0.555446
0.50001
0.629596
0.359371
0.33167
-0.23063
-0.123329
-0.216094
-0.0296694
-0.0255301
0.11136
0.138134
0.093441
0.0877009
-0.0215183
-0.0192273
-0.0228854
0.00332133
0.00212107
0.463144
0.451057
0.482169
0.489312
0.534858
0.536039
0.539946
0.538107
1.0332
1.05654
1.0624
1.03843
-3.55799
-6.2154
0.0808184
0.244334
-0.0987252
-0.0748171
-0.0473346
0.0242824
-0.0162814
-0.00306127
0.0610686
0.0608441
0.0745674
0.0687712
0.674752
0.673253
1.03161
1.05679
1.01557
0.996388
0.540827
0.542794
0.547415
0.544312
0.00391571
-0.00731456
0.000618819
0.749945
0.756903
0.757312
0.259482
0.174542
0.346585
0.375956
0.663557
0.64017
0.658048
0.775513
0.815103
1.08001
1.10417
1.08808
1.10103
1.152
1.17494
1.14006
0.495478
0.506007
0.500501
0.539631
0.537204
0.538307
0.534123
0.535418
0.53386
-0.0112027
-0.387503
0.517538
0.516431
0.499577
0.507504
0.705703
0.784864
0.705187
0.716332
0.71422
0.018339
-0.0287887
0.290686
0.260331
0.404967
0.438196
0.420921
1.00898
0.969059
1.01715
0.992518
0.95665
0.981148
-0.325136
-2.10524
-1.09146
0.654373
0.453513
0.547181
0.0733672
0.0595376
0.0628297
1.05796
1.10005
0.699793
0.884103
0.839246
0.838965
0.864677
0.928839
0.860273
0.895266
0.926701
0.901206
0.57965
0.525366
0.536005
0.861683
0.919052
0.140656
0.0686373
0.0450668
0.1586
0.218904
0.188196
1.07445
0.977511
1.04531
0.550362
0.551262
-0.0513651
-0.04966
0.555335
0.555049
0.0411263
0.0888426
0.564834
-0.916328
0.155246
0.544606
0.534713
0.551287
-0.0333115
0.374497
-0.0195204
0.0852233
0.0630989
0.545503
0.482763
0.441552
-0.0789687
0.0827382
-0.0109695
-0.1726
0.548113
0.546486
0.55066
0.551528
0.55227
-0.0850449
-0.0415918
-0.0979388
-0.0334522
-0.0419034
-0.0354418
0.515374
0.533911
-0.14241
0.550939
0.553039
0.552751
0.546772
0.55179
0.550333
0.0687205
0.0760665
0.0827973
0.242746
0.371322
0.753939
0.833805
0.699827
0.529019
0.226295
0.686552
0.741031
0.663767
0.797251
0.718053
0.727268
0.217226
0.0763685
0.216344
0.153514
0.541613
0.540927
0.532239
0.529252
0.546086
0.543887
0.548912
0.54616
0.549218
0.550398
0.00365703
-0.0313965
-0.0437017
-0.0943668
0.337349
0.60048
0.267665
0.296706
0.200399
-0.00155922
-0.00559419
-0.0210362
-0.0192486
0.0376362
0.0471656
0.0834625
0.0935371
0.0785016
0.0603643
0.0340163
0.0408278
0.0290093
0.539389
0.538566
0.544132
0.552444
0.491895
0.495641
0.462107
0.481297
0.467668
0.409523
0.439776
0.417065
0.0109295
-0.0267552
-0.00571759
0.0720071
0.0720588
-0.0133404
-0.0371432
-0.0383216
-0.0453966
-0.0345885
0.00290332
0.00566475
-0.135225
-0.250346
1.00532
0.924417
0.154192
0.53808
0.543706
0.540888
0.545429
0.548597
0.549293
0.546946
0.543519
0.534211
0.535708
0.532297
0.533179
-0.0867712
-0.193894
-0.02218
-0.0922586
0.176587
0.652829
0.380662
0.329881
0.314871
0.5333
0.736891
0.67296
0.751078
0.754046
-0.366514
0.0517648
-0.29153
0.255989
0.24028
0.777992
0.820046
0.836556
0.794398
0.749877
-0.00341482
0.569327
-0.0122842
0.0321015
0.218727
0.112614
0.736056
0.696259
0.702124
0.71569
0.735228
0.711907
0.695283
0.68637
0.716648
0.72179
0.529297
0.273046
0.236277
0.187808
0.678213
0.5668
0.622361
0.544161
0.536897
0.539534
0.53835
0.520029
0.527158
0.523002
0.529462
0.532897
0.540789
0.540915
0.53696
0.538857
-0.0186494
-0.0195024
-0.0339599
-0.085191
-0.0809491
-0.122791
-0.0586167
0.138166
0.0867882
0.265629
0.40428
0.109251
-0.0195667
-0.0057232
0.0471618
0.21379
0.210942
0.0961175
0.207376
0.171291
0.16124
0.253213
0.274096
0.0110541
0.00784128
0.00564633
-0.0026432
0.0582576
0.152114
0.142705
0.0477169
0.0316034
-0.00589122
0.00115689
0.0288856
0.0190902
0.0218719
0.0476211
0.00551715
0.0572728
0.0598668
0.0514832
0.0458424
0.0458697
0.533046
0.535046
0.534936
0.543815
0.557572
0.572042
0.537116
0.512802
0.504033
0.507145
0.480563
0.489647
0.485798
0.500033
0.52124
0.529796
0.527535
0.530065
0.512831
0.514351
0.500472
0.504909
0.476929
0.458904
0.448888
-0.0139131
-0.0289502
-0.020185
-0.0097239
-0.0058121
0.00551643
0.0624849
0.0788106
0.0572983
0.0667735
0.0543201
-0.00226654
0.00082956
-0.039205
0.0381053
-0.142274
-0.189513
-0.239539
0.915641
1.04813
0.829544
0.624482
0.62875
0.864423
0.953916
0.592979
0.772246
0.804927
0.596771
0.875505
0.541997
0.54164
0.539509
0.538708
0.539711
0.0159634
0.114901
0.137235
0.18691
0.301695
0.408619
0.332833
0.218779
0.353516
0.379302
0.652748
0.663295
0.610045
0.631519
0.627631
0.451947
0.534159
0.576053
0.5256
0.594597
0.627792
0.579223
0.620202
0.538532
0.49125
0.485137
0.437151
0.471513
0.453331
0.427584
0.532817
0.510257
0.520986
0.511335
0.531937
0.555777
0.556194
0.578555
0.593485
0.514081
0.465547
0.481991
0.50806
0.46572
0.4809
0.5012
0.201897
0.107871
0.273025
-0.0607897
0.0332324
0.0693657
0.0285424
-0.018509
0.289717
-0.356977
-0.298827
-0.983662
0.509758
0.900258
0.697781
0.711253
0.73161
0.712374
0.71975
0.735549
0.74318
0.670907
0.685739
0.689302
0.650653
0.682599
0.682998
0.690356
0.530205
0.441812
0.440124
0.379082
0.247588
0.284628
0.457094
0.397133
0.331104
0.326804
0.497325
0.366629
0.441539
0.497674
0.430342
0.361063
0.58892
0.639776
0.62498
0.598947
0.511739
0.53321
0.556662
0.596512
0.621728
0.649124
0.528507
0.534608
0.535579
0.532886
0.530993
0.534021
0.534145
0.53646
0.537071
0.539588
0.538852
-0.00798968
0.00278553
-0.00788403
-0.0135842
0.0536108
0.0271171
0.0294811
-0.00391326
0.0269832
0.0280356
0.00716937
-0.00479093
0.000866398
0.0126013
0.107597
0.123638
0.128337
0.093771
0.283691
0.443553
0.509666
0.386075
0.236232
0.253008
0.330516
0.0426796
0.0633569
0.0468113
0.097294
0.0763362
0.0128021
0.00626397
0.0101393
0.0142428
0.0237249
0.0128389
0.024336
0.0250848
0.0171509
0.00576569
0.00392854
0.514181
0.507414
0.510913
0.503676
0.501942
0.518002
0.522211
0.523409
0.52873
0.530997
0.521134
0.526964
0.530648
0.0497548
0.0121873
0.0189553
0.0254125
0.0218863
0.0215074
0.0210414
0.149131
0.0549294
0.0871253
0.0220697
-0.0967684
-0.0374128
0.522322
0.519481
0.518883
0.734884
0.578067
0.494248
0.591015
0.707624
0.292728
0.499575
0.330573
0.909262
0.808758
0.953876
0.580402
0.272244
0.434426
0.448229
0.283803
0.410467
0.37556
0.252924
0.291962
0.312302
0.395822
0.280404
0.258758
0.0176562
0.195447
0.308704
0.290559
0.420116
0.478223
0.283117
0.1979
0.147
0.638979
0.655624
0.667886
0.637306
0.660325
0.595365
0.5863
0.604173
0.611529
0.605932
-0.622661
-0.211611
-1.4145
-0.822648
-0.372919
0.535434
0.52579
0.768961
0.676678
0.732372
0.717142
0.65233
0.617932
0.6491
0.677412
0.369293
0.47438
0.439527
0.451136
0.386638
0.313245
0.607929
0.608978
0.631778
0.656403
0.631269
0.659298
0.526995
0.526738
0.525821
0.522235
0.520628
0.523533
0.0669241
0.0403832
0.0719137
0.0648473
0.0516527
0.0552687
0.0418125
0.0321987
0.034274
0.0364695
0.0538877
0.0457639
0.194311
0.137446
0.0462921
0.0924641
0.0242716
-0.0562262
-0.0594116
0.0280393
0.127818
0.109315
0.41282
0.687604
0.513676
0.678661
0.470745
0.574578
0.50109
0.471703
0.503147
0.397939
0.486682
0.0389406
-0.15524
-0.21452
0.831476
0.788375
0.576774
0.322623
0.209774
0.511013
0.549206
0.508827
0.543567
0.59417
0.582585
0.0235732
0.122992
0.18536
0.494833
0.297419
0.311111
0.306266
0.46099
0.439614
)
;

boundaryField
{
    wall-4
    {
        type            zeroGradient;
    }
    velocity-inlet-5
    {
        type            zeroGradient;
    }
    velocity-inlet-6
    {
        type            zeroGradient;
    }
    pressure-outlet-7
    {
        type            fixedValue;
        value           uniform 0;
    }
    wall-8
    {
        type            zeroGradient;
    }
    frontAndBackPlanes
    {
        type            empty;
    }
}


// ************************************************************************* //
