/*--------------------------------*- C++ -*----------------------------------*\
  =========                 |
  \\      /  F ield         | OpenFOAM: The Open Source CFD Toolbox
   \\    /   O peration     | Website:  https://openfoam.org
    \\  /    A nd           | Version:  6
     \\/     M anipulation  |
\*---------------------------------------------------------------------------*/
FoamFile
{
    version     2.0;
    format      ascii;
    class       surfaceScalarField;
    location    "34";
    object      phi;
}
// * * * * * * * * * * * * * * * * * * * * * * * * * * * * * * * * * * * * * //

dimensions      [0 3 -1 0 0 0 0];

internalField   nonuniform List<scalar> 
1300
(
3.75095
5.62643
-3.29483
3.75095
-5.537
5.62643
-4.33576
4.33576
-0.996821
0.996821
1.87647
1.87448
-2.72351
2.72351
-2.14194
2.14194
-2.56212
2.56212
-5.24801
5.24801
-5.06908
5.06908
4.7191
-4.7191
-5.88765
5.88765
-1.32211
1.32211
-3.73016
3.73016
3.17322
-3.17322
-2.2993
2.2993
-0.284319
0.284319
-0.55414
4.30509
3.19681
3.19681
-2.03885
2.03885
-4.87175
4.87175
6.22241
-6.22241
4.73628
-4.73628
-1.44145
-2.54787
0.697953
-10.2655
-4.83905
-4.83905
-8.44103
8.44103
-2.8146
2.81183
2.94435
-2.94435
-1.72881
1.72881
-4.32803
-0.00772696
-4.32803
4.31242
0.0233376
4.31242
-1.08526
0.0884345
-1.08526
3.87487
-3.87487
0.860975
0.135846
0.860975
3.06662
-3.06662
-1.87688
3.75335
1.87407
-1.87206
6.17715
-1.87889
3.75338
-6.0025
6.0025
-2.93914
0.215626
-2.93914
2.53041
0.193098
2.53041
-6.76265
6.76265
-2.12923
-0.0127071
-2.12923
2.18002
-0.0380791
2.18002
2.87405
-2.87405
-2.65369
0.0915657
-2.65369
2.44102
0.121104
2.44102
0.353475
5.27296
-5.9799
8.79174
-5.27296
0.0249434
5.21037
0.0376393
5.21037
-5.10507
0.0359911
-5.10507
5.01275
0.0563259
5.01275
4.81397
-0.0948714
4.81397
-4.833
0.113902
-4.833
-3.54994
-5.27868
-6.16261
0.274952
-6.16261
-1.32206
-4.84875e-05
-1.32206
1.28303
0.039078
1.28303
-3.61804
3.61804
-4.04754
0.317378
-4.04754
3.12803
0.0451839
3.12803
1.86812
1.88283
5.61907
-5.61907
2.44586
-2.29265
-0.00665324
-2.29265
-2.33598
-2.4003
2.33598
-0.0366764
-0.53853
0.254211
-0.53853
3.15691
0.0399043
3.15691
2.28863
0.152382
-2.28863
0.249786
3.23874
-3.23874
1.37821
0.660636
1.37821
-5.56129
5.56129
4.96003
0.0527196
-4.96003
0.0882837
6.15687
0.0655418
6.15687
-6.20785
-0.0145618
-6.20785
1.84567
-4.39355
-3.06114
5.46288
0.424774
-5.46288
0.623829
2.91459
0.0297609
2.91459
-2.92191
2.92191
-2.98233
0.0379806
-2.98233
-2.1567
0.42789
-2.1567
1.40906
0.319757
1.40906
-4.20244
-0.125589
-4.20244
-4.19718
0.149644
4.19718
0.115239
1.05456
-1.05456
-1.16784
0.0825856
-1.16784
-4.01039
-0.192048
4.01039
-0.135518
-3.79286
-0.0820166
-3.79286
-3.02063
0.0382967
3.02063
0.0459936
3.11179
0.0451211
-3.11179
0.0451639
-1.87093
3.75376
-1.88002
3.75409
-5.62767
-0.374825
-5.62767
6.30071
-0.298207
6.30071
3.30769
0.422467
-3.30769
0.368554
2.3838
0.14661
2.3838
-6.74994
-0.0127081
-6.74994
6.73705
0.0255981
6.73705
2.23747
0.146335
-2.23747
0.108236
2.21361
-0.0335891
2.21361
2.89562
-0.021571
2.89562
-2.8712
-0.00284883
-2.8712
2.80091
-2.80091
2.73242
0.0684858
-2.73242
0.0787358
-11.1238
11.1092
-0.0362836
-11.0875
5.17409
5.17409
4.26762
0.54635
4.26762
-5.02175
0.18875
-5.02175
2.66128
-5.72242
4.42927
-7.97921
5.40081
-15.6663
3.89782
-9.1765
6.52825
-6.52825
6.36612
0.162126
-6.36612
0.203519
-1.33777
0.0157156
-1.33777
-3.02216
-0.595882
-3.02216
4.27932
-0.661282
4.27932
-3.02877
3.02877
-3.07715
0.0483777
3.07715
0.0508867
2.26954
-0.0559359
-2.26954
-0.0231056
0.697546
0.163429
-0.697546
0.159016
3.44208
-0.20334
3.44208
-3.0553
-0.183448
-3.0553
-1.35749
0.0197172
1.35749
0.0207224
-5.8086
0.247308
-5.8086
-11.1815
0.0939943
-11.1439
-6.11385
-6.11385
2.32717
11.1189
-2.89022
0.0190161
2.89022
0.0243734
2.97674
0.0520279
-2.97674
0.0548345
-2.86298
0.0620774
2.86298
0.058923
-2.52959
0.372888
-2.52959
-1.01646
1.01646
-1.1705
0.154039
1.1705
0.238557
1.32951
-0.274952
1.32951
1.23759
0.0454375
-1.23759
0.0697486
-3.73679
-0.056064
-3.73679
6.53122
-0.230517
6.53122
-2.94337
-0.111927
2.94337
-0.0477455
-0.0349619
11.1442
-5.13913
0.0340605
5.13913
-11.2097
11.2438
-3.24111
0.711524
3.24111
1.02651
5.28747
0.273816
-5.28747
0.265723
6.65646
0.0805944
-6.65646
0.128206
-2.52467
-0.49749
-2.52467
-5.02331
-0.604364
5.02331
-0.74399
-11.4824
-0.20196
11.6844
-11.4261
6.01056
0.14631
-6.01056
11.3901
-0.960174
-0.0943846
0.960174
0.0562847
1.66009
-0.330575
1.66009
3.64771
-0.205631
-3.64771
-0.0890785
-6.6626
-0.0873394
6.6626
-0.131378
-2.08477
-0.439899
2.08477
-0.424681
-4.26712
4.30703
1.91003
-2.08491
-2.30864
-4.48521
1.85466
1.8991
4.30052
-10.159
-5.50738
-9.53512
7.21468
-6.94896
-9.36953
9.27465
7.65423
-7.73625
-5.7786
5.82949
6.48378
-6.43778
1.87936
1.874
7.96252
-7.74689
-15.756
15.3812
7.51777
-7.53047
15.8688
-15.8815
-17.8704
17.951
-5.7136
5.80517
-6.72912
6.72627
-6.94811
6.90037
-3.30562
-4.67359
13.0469
-12.772
7.84178
-7.84844
-8.59396
8.91133
3.38464
0.92239
3.42976
-1.88206
3.76142
-1.87132
3.78135
3.09493
-6.40055
2.62748
-4.93612
3.59142
4.25036
-3.55475
-0.930463
-5.92275
5.95251
-5.81608
5.87501
8.99894
-9.00667
-1.88515
3.75914
-1.86895
3.76805
-3.42354
-2.35507
3.37835
0.922165
7.78352
5.26342
-8.2083
-1.32683
-7.84189
7.63626
-8.1271
7.94365
-0.439888
5.83743
-5.39754
4.43186
-1.65136
7.48879
5.56333
5.75208
5.86093
-5.58711
1.08803
-6.48557
-6.39729
-2.58808
2.67066
2.53118
-2.39534
5.98483
1.66941
5.84931
-5.63674
-2.09951
-5.69281
3.82065
2.00884
3.86903
4.08042
2.40336
4.11872
3.02987
-3.03587
0.00600877
-3.05841
6.08828
0.723267
-5.41348
-4.49132
5.00504
2.95747
5.19814
-5.54953
-2.19736
-5.18098
-9.61411
-6.14188
-10.2185
10.1492
5.23195
9.85101
-12.0095
11.8781
4.84915
2.66862
4.81107
-4.97775
-2.55272
-4.86952
11.6994
-2.60271
-9.09669
-10.3384
-7.53201
10.3128
5.55605
10.9338
7.01718
11.062
4.43484
7.26456
-9.99089
2.45888
-3.86704
-1.84656
-3.7883
3.67779
2.12737
3.7989
-4.2148
-2.51432
-4.19579
-4.28567
-2.66244
4.30724
2.41903
-4.3918
-3.7353
4.50373
2.39664
4.88409
-10.3915
4.29241
-8.966
-9.16836
-3.60364
-8.96484
3.78529
3.0608
-6.84608
-2.61527
8.48185
-4.23149
7.55139
-4.69101
-3.15743
-4.71411
-6.89273
-1.70123
-6.74309
-8.96619
8.4687
-9.26058
8.5993
12.6975
-5.71851
-6.97903
-3.96677
-2.47102
3.9216
-0.491845
-3.71079
3.7168
0.0506286
3.83198
4.75437
4.26252
-3.8841
-1.93198
-3.82927
3.82921
2.0458
3.89129
6.75276
2.24618
6.7761
-6.45644
-2.55023
-6.58203
9.13496
-8.70707
2.8905
-2.87078
5.27058
2.67308
-5.06724
-2.77465
6.24106
-3.14236
-3.0987
-12.3623
10.864
1.49827
-4.87351
-0.441653
-0.157334
-5.58961
-3.77991
5.47571
0.276363
11.1404
7.36048
-5.51597
5.76328
6.1684
6.22112
-0.176166
5.9197
-5.20817
5.33567
-2.47969
-2.85597
5.32885
-5.52089
-1.25318
-5.37242
4.11924
0.328415
1.76773
-1.51352
-2.01976
-0.568319
-1.95001
1.49828
1.0329
1.66171
0.952473
1.71819
-2.96992
0.588713
2.38121
-2.01745
-1.80662
-3.64562
-1.04613
4.69175
5.55687
2.07939
-5.46779
-0.225016
2.73699
-2.69791
-0.792473
-2.85314
2.10682
-2.89929
-3.53561
-1.84475
5.38035
-3.36954
-0.459732
3.31751
0.551523
-3.82621
-2.09654
3.78823
0.330483
-3.12616
6.19045
-3.06429
-5.05814
2.52904
3.55924
4.53788
-4.79126
2.44756
2.3437
-1.23202
4.27584
0.922296
4.42245
-6.90496
4.7076
5.69616
3.21517
-6.11863
0.937651
-5.96731
8.36652
-7.23441
-1.13211
3.88799
4.47854
7.12901
5.56854
-5.72858
12.8576
-1.04767
-6.18674
7.01498
-3.7998
4.7673
-8.5671
-10.3358
4.1491
-9.27759
11.0563
-1.77868
-3.61599
-8.39353
12.8936
-1.22697
-11.6666
8.62404
-4.2515
-4.27127
8.52277
-6.85421
6.82399
-1.94605
-4.87795
-10.1736
-5.70793
10.2609
1.61719
-9.83517
12.294
-2.57061
4.12089
0.690175
4.0873
3.27115
-5.40231
2.13116
3.58306
-5.5291
2.06106
-7.46337
-6.89756
12.3601
-5.46252
-10.5012
-9.6142
-0.886996
2.4803
9.81375
-9.49748
7.35492
2.14257
3.30607
0.585219
-3.37455
-0.413752
0.267059
4.52
-4.78706
4.06596
4.21834
3.29879
1.22121
3.84374
2.10877
-3.86812
-0.32767
-4.15968
1.49724
-1.74065
-3.66784
5.16508
-4.06185
0.394004
-2.73464
-3.50288
6.23752
-4.5812
3.03953
3.15092
5.08533
-4.91374
1.41086
-2.3984
-2.51535
2.65098
-4.39163
1.95797
3.20711
4.35461
0.619307
6.21051
6.14958
-9.2713
0.305302
11.413
-10.0862
2.53259
8.52941
-9.8875
0.273297
-8.69154
1.32349
-5.55498
-5.52259
5.10959
-6.81082
-3.45752
6.20009
0.576015
-6.31532
-0.427762
-6.08086
-2.88533
-6.52076
-3.07362
-6.18697
-8.8022
-1.68585
-7.11635
6.78285
-6.70905
-3.50943
7.45304
1.14626
-7.46723
7.37284
-7.54217
7.2116
0.0943846
3.62241
4.35691
1.88589
-2.39039
4.27628
-5.04085
7.28703
-8.6104
3.56955
4.07537
-6.6256
-4.53502
5.06757
4.06739
5.38732
8.98107
-10.4879
1.50687
-10.7625
12.1032
-1.34069
-16.5639
5.80138
-7.58281
2.61254
0.277952
2.62826
0.65079
2.43513
-3.08592
-2.21999
-2.19927
-2.35531
-3.47305
5.82837
1.13932
-3.39949
2.26017
-3.52329
4.6626
0.0389745
-3.43847
5.22855
-2.79342
5.5065
-3.48431
2.02219
3.44764
5.79378
-2.34614
4.38978
-1.7167
1.85793
-4.20407
-1.61512
-2.96775
5.09512
-3.26977
3.66377
-0.308063
3.97184
-4.07142
0.92906
-0.772633
3.44571
3.69549
4.31084
-3.08962
2.99193
-4.70863
-1.21214
-4.08932
-0.882212
-0.236514
-3.83359
4.0701
6.06276
-6.29927
-5.31579
9.57162
-4.25583
7.73028
-5.46694
-2.26334
-4.31106
-4.39601
3.93818
1.98152
9.7118
0.175524
-5.64246
-5.03265
-4.00614
3.22028
2.11539
-1.92798
3.42624
2.08531
-0.317579
0.543245
1.11847
1.87145
-1.32821
0.236035
1.63542
-1.27748
1.97276
0.764225
-2.0182
0.068191
-1.30799
3.41481
1.07321
-2.10611
0.777907
1.0145
-3.49419
4.8061
-2.53199
-2.27411
5.8206
1.15871
-3.6907
4.21371
-3.8853
2.37134
-3.41747
-1.31936
-5.20466
-3.53525
-2.53245
4.79263
-3.29592
5.37531
1.25702
-5.15029
6.40731
-3.55035
1.7056
-3.06475
3.82897
-1.11225
-1.95249
2.89295
2.48741
-3.01066
0.157512
-0.117708
2.34726
-2.46497
-0.552032
-2.56948
-4.57332
4.9038
-2.10632
4.55388
2.16996
-1.91523
6.46911
1.81069
-3.72592
-3.24745
-3.70719
-1.38221
3.15566
-0.55585
-4.31367
-5.4338
4.16733
0.255122
-6.80103
7.72443
-0.923395
-3.84356
-0.864043
4.75203
-5.98638
0.457278
-3.92532
3.7991
4.7214
4.97652
-11.472
-0.194635
-6.24002
1.12951
-7.36954
5.60805
-3.60146
7.75056
-10.4024
6.89297
-9.25613
6.61844
-0.751092
6.254
-4.12285
2.84268
-8.55061
-6.93342
5.45523
-2.78661
6.14541
-3.16555
9.31096
-5.73616
5.20071
4.11025
-0.765551
-3.94856
-5.28351
4.51796
-0.0828044
4.0045
4.98067
-2.8719
4.653
2.25295
-4.65135
-2.13868
-6.4911
1.83975
-3.34018
-1.91713
3.75688
3.1682
3.75342
1.24153
-3.33967
7.36825
-8.25524
-1.90572
-3.61687
5.35644
-0.838478
3.35597
-6.97284
-2.19901
4.83385
-0.745729
-4.08812
0.884664
-4.34218
1.65742
-5.99959
5.1534
-5.58116
2.2384
-9.8212
-5.22883
-5.17254
-2.27143
-5.27074
-7.62852
5.35709
-1.82715
5.54569
-8.61248
7.86675
-3.49071
8.8478
-5.46789
-1.05288
5.89257
1.31903
10.1668
0.0977448
-4.63277
-1.90174
3.83063
-1.92889
1.31854
-3.73585
0.0947888
2.46239
3.35821
-6.58163
-0.0439748
-4.67674
-3.9144
7.98179
5.65722
11.72
1.23204
9.1819
-1.20011
10.4139
4.18722
4.42577
-3.05192
4.55878
1.01818
4.58774
-0.817792
2.83998
1.81047
1.81042
0.887489
2.30418
1.39131
3.23324
0.147319
-2.05195
4.6578
-8.66394
-0.98466
-8.11759
1.15706
5.44241
-4.28535
3.01602
-0.900633
1.08713
0.0566467
-1.63467
1.57802
-2.79933
-1.95225
-0.316834
-1.58908
2.36699
1.82573
-2.05015
-0.749175
0.264669
-3.79992
3.1528
-2.99528
-0.507877
5.89943
-2.75434
0.289368
-1.04873
-2.28011
-2.84843
2.78024
6.17572
0.293382
3.11144
5.19718
3.10064
0.228745
3.93681
-5.71549
-3.52656
-5.91013
-0.302078
4.44995
1.81006
8.00369
5.92031
5.08183
-1.89101
-10.1463
6.56595
-2.00716
5.22526
-1.13714
-4.86245
5.02825
2.25878
-5.60426
0.0231032
-4.83935
-6.84651
-0.490384
8.35714
-9.67645
8.62357
5.73824
1.37811
-4.43295
-0.739597
4.27891
0.146864
10.5608
-0.913339
-7.17877
8.09211
-4.52907
3.54441
0.751471
2.67477
2.32949
1.42886
-5.74991
-10.0353
-1.86927
-1.62492
-4.14338
0.548366
-2.3741
6.10921
-2.5648
3.84587
5.52731
6.61444
-2.08021
-4.21906
6.33604
-2.49017
4.12427
)
;

boundaryField
{
    wall-4
    {
        type            calculated;
        value           uniform 0;
    }
    velocity-inlet-5
    {
        type            calculated;
        value           uniform -3.75095;
    }
    velocity-inlet-6
    {
        type            calculated;
        value           uniform -5.62643;
    }
    pressure-outlet-7
    {
        type            calculated;
        value           nonuniform List<scalar> 8(3.29483 5.537 3.98932 9.56757 8.82862 4.90681 7.09055 9.29864);
    }
    wall-8
    {
        type            calculated;
        value           uniform 0;
    }
    frontAndBackPlanes
    {
        type            empty;
        value           nonuniform 0();
    }
}


// ************************************************************************* //
