/*--------------------------------*- C++ -*----------------------------------*\
  =========                 |
  \\      /  F ield         | OpenFOAM: The Open Source CFD Toolbox
   \\    /   O peration     | Website:  https://openfoam.org
    \\  /    A nd           | Version:  6
     \\/     M anipulation  |
\*---------------------------------------------------------------------------*/
FoamFile
{
    version     2.0;
    format      ascii;
    class       volScalarField;
    location    "21";
    object      p;
}
// * * * * * * * * * * * * * * * * * * * * * * * * * * * * * * * * * * * * * //

dimensions      [0 2 -2 0 0 0 0];

internalField   nonuniform List<scalar> 
918
(
0.193079
0.959955
0.00930095
0.192889
-0.00140464
0.928123
-0.847087
0.373155
0.174069
-0.479789
-0.150211
0.166161
0.784886
0.552034
-1.52887
-0.00575736
0.332913
-0.729745
0.171657
-0.00340789
0.439531
0.180942
0.183363
0.174035
0.231589
0.516483
0.662077
-0.000632115
-0.000974733
-0.00491417
0.00385265
-0.0078414
-0.00666678
0.811276
0.863199
0.886295
0.142013
-0.028204
-0.724781
-0.783841
-0.755557
-0.89134
0.360893
0.363319
-0.5163
0.371951
0.386526
0.159935
0.173333
0.174169
0.175681
0.17437
0.175748
0.159381
-0.478416
-0.512283
-0.474779
-0.474977
-0.170707
-0.198698
-0.253994
-0.114964
-0.0858103
0.0976453
0.163707
0.161087
0.170273
0.180082
0.900126
0.873848
0.89982
0.810736
0.828239
0.761825
0.734641
0.57349
0.59733
0.536554
0.523022
-2.00233
-2.97007
-0.93724
-0.646167
0.000436795
-0.00892574
-0.0104866
0.317598
0.317863
0.329045
0.342278
0.699026
-0.71667
-0.869186
0.172029
0.170614
0.180262
0.181236
0.176152
0.176226
0.0032133
0.00372844
-0.0133174
-0.00179497
-0.00666503
0.424399
0.419276
0.173479
0.170981
0.190219
0.214578
0.202345
-0.0654945
0.241863
0.260016
0.362493
0.516463
0.50834
0.518909
0.637654
0.606003
0.6932
0.714909
0.0126335
0.0035407
-0.0129249
-0.00900509
-0.0134553
0.138337
0.132899
0.156181
0.145542
0.148461
-0.123473
-0.275671
0.0524278
0.0747059
-0.635746
-0.684327
-0.810997
-0.795026
-0.881077
0.193084
0.356277
0.356226
-0.536478
-0.453506
-0.58944
-0.392806
-0.45425
0.152141
0.157415
0.154219
0.16868
0.162749
0.165317
0.177409
0.174562
0.176119
0.171514
0.303073
0.0934161
0.0654895
-0.597441
-0.531118
-0.586047
-0.465106
-0.436995
-0.154434
-0.149184
-0.161979
-0.129338
-0.408678
-0.314669
-0.359402
-0.0578157
-0.0405448
0.0894017
0.0791849
0.107489
0.113499
0.153798
0.156015
0.158568
0.157056
0.685085
0.708239
0.714462
0.690593
-3.96929
-6.64352
-0.285351
-0.117317
0.00112212
0.00286753
0.00217559
0.00547058
0.00191292
-0.000127231
-0.0644796
-0.0462436
-0.0149039
-0.025366
0.308109
0.31015
0.648298
0.675337
0.655199
0.637504
0.161058
0.163287
0.16801
0.164918
-0.0190322
-0.000220022
-0.0101383
0.387786
0.403963
0.399948
-0.104107
-0.18949
-0.0186063
0.010118
0.298957
0.272179
0.292427
0.425332
0.46599
0.73192
0.756354
0.740207
0.753364
0.804496
0.827436
0.792354
0.118416
0.128992
0.123409
0.160041
0.157584
0.158901
0.153225
0.155262
0.153108
-0.390394
-0.768487
0.13623
0.143117
0.11189
0.11867
0.271722
0.354859
0.340676
0.346631
0.349978
-0.343431
-0.397581
0.0164756
-0.0390665
0.0365447
0.0687124
0.0525623
0.661152
0.621571
0.669362
0.644771
0.609299
0.633228
-0.705995
-2.4995
-1.47736
0.301548
0.0961227
0.191895
-0.0936595
-0.0940257
-0.0832885
0.680536
0.718743
0.347967
0.533815
0.492774
0.491776
0.517276
0.581157
0.512346
0.547167
0.579256
0.553353
0.162789
0.137644
0.138957
0.437099
0.502769
-0.223797
-0.293324
-0.324016
-0.134767
-0.0552401
-0.0873659
0.685885
0.567123
0.63916
0.171568
0.172414
0.00964914
0.0111482
0.176049
0.175918
0.00524602
3.40133e-05
0.208675
-1.31213
-0.207923
0.165178
0.155258
0.171959
-0.429325
0.0176075
-0.203636
-0.200979
-0.00428053
0.162554
0.108339
0.0735366
0.00582538
0.00152027
-0.0105381
-0.521336
0.169221
0.167693
0.171468
0.172411
0.173157
0.00536152
0.00591449
0.00467585
-0.00596175
-0.00028684
-0.00247355
0.137497
0.154562
-0.516796
0.171553
0.173657
0.173453
0.167223
0.172506
0.170878
0.00489156
0.000818828
-0.00781922
-0.119447
0.00517092
0.407535
0.49451
0.346848
0.170962
-0.138758
0.33446
0.39251
0.31009
0.450921
0.34297
0.353033
-0.148338
-0.288976
-0.148135
-0.203152
0.162691
0.161817
0.153055
0.150573
0.16713
0.165
0.16963
0.166667
0.169527
0.170834
-0.441995
-0.461817
-0.420838
-0.497467
0.0506839
0.262884
-0.104393
0.0275464
-0.128719
-0.164447
-0.118202
-0.28913
-0.329494
-0.381792
-0.0600694
-0.141415
-0.190872
0.0468109
-0.0590296
-0.259781
-0.129424
-0.200851
0.156482
0.155407
0.163238
0.169877
0.116254
0.118457
0.0904475
0.106931
0.0935876
0.0422889
0.0712725
0.0488891
0.00621922
0.00767333
0.00445838
0.0059537
0.000224926
0.00503811
0.00736477
0.00955645
8.80457e-05
0.00172217
-0.0103468
-0.00330539
-0.499896
-0.606063
0.628298
0.582054
-0.22343
0.158694
0.164925
0.161837
0.166561
0.169517
0.169942
0.167724
0.164533
0.154711
0.156509
0.152688
0.152859
-0.462571
-0.567654
-0.396301
-0.46595
-0.203341
0.282981
0.0122566
-0.0368188
-0.0513626
0.161445
0.354743
0.318393
0.418323
0.421704
-0.75467
-0.321877
-0.671895
-0.125407
-0.146548
0.428719
0.472542
0.490063
0.447004
0.400218
-0.384572
0.174315
-0.384383
-0.342965
-0.160273
-0.258259
0.387285
0.3233
0.329254
0.345599
0.368472
0.333872
0.312607
0.308809
0.338282
0.34462
0.154623
-0.0882431
-0.119814
-0.170139
0.310059
0.186773
0.238193
0.165208
0.157625
0.160398
0.158915
0.142322
0.148219
0.144614
0.149819
0.152966
0.162088
0.162149
0.157945
0.159941
-0.45474
-0.449493
-0.434868
-0.463896
-0.490101
-0.52063
-0.44468
-0.207888
-0.274103
-0.081298
0.0560616
-0.239369
-0.424527
-0.383853
-0.358275
-0.131877
-0.14609
-0.440411
-0.163733
-0.241558
-0.306789
-0.0711336
-0.0402444
-0.342022
-0.418904
-0.441532
-0.354251
-0.22583
-0.189956
-0.207678
-0.0788119
-0.158741
-0.0961869
-0.0540587
-0.492062
-0.488561
-0.476849
-0.509528
0.00717047
0.00447838
0.00183312
-0.0176068
-0.00924594
-0.00213169
0.15304
0.15313
0.154897
0.165973
0.177451
0.192481
0.160122
0.135238
0.128389
0.130328
0.105869
0.114156
0.109277
0.123118
0.142764
0.149403
0.147646
0.150014
0.135148
0.135638
0.123997
0.12826
0.103583
0.0880143
0.0797392
0.00710508
0.00554052
0.00478743
0.00286389
0.00929025
0.0080367
-0.00577833
0.00563801
-0.000362765
0.0018321
-0.0244571
0.0105106
0.0067494
-0.432547
-0.365926
-0.524576
-0.561382
-0.620993
0.533608
0.647
0.470345
0.270097
0.260194
0.482743
0.571029
0.256768
0.415136
0.451729
0.172225
0.451318
0.163231
0.162261
0.160105
0.159696
0.160847
-0.365881
-0.272071
-0.241759
-0.197498
-0.0819181
0.025341
-0.0548411
-0.172823
-0.0352533
-0.00325379
0.277022
0.291699
0.234861
0.261835
0.260431
0.0821201
0.159198
0.200248
0.152172
0.216088
0.248043
0.194375
0.238774
0.165356
0.121801
0.116159
0.0657615
0.100365
0.0813437
0.0555385
0.154184
0.13421
0.14347
0.137013
0.15373
0.182436
0.180163
0.199946
0.215498
0.139254
0.0950102
0.109259
0.134221
0.0970412
0.110933
0.129086
-0.187132
-0.279845
-0.123327
-0.455851
-0.349816
-0.315023
-0.353864
-0.413506
-0.106011
-0.75001
-0.683983
-1.37319
0.110444
0.526971
0.350668
0.368142
0.366151
0.343601
0.354117
0.37668
0.38374
0.301275
0.313392
0.320002
0.27051
0.304323
0.31435
0.320085
0.144619
0.0658737
0.0581294
0.00400854
-0.126682
-0.0923437
0.0816316
0.0230994
-0.0413641
-0.0433886
0.123986
0.00220178
0.0719768
0.123219
0.0667615
0.00123274
0.212926
0.270611
0.257296
0.225961
0.143483
0.15912
0.185919
0.225824
0.246251
0.276968
0.149088
0.155674
0.156444
0.153591
0.152567
0.154828
0.154404
0.157089
0.157978
0.160355
0.159611
-0.400921
-0.4517
-0.454992
-0.423948
-0.481368
-0.44686
-0.347133
-0.404426
-0.52821
-0.544673
-0.49855
-0.479693
-0.482645
-0.487319
-0.27735
-0.281414
-0.228477
-0.280241
-0.0596686
0.118056
0.151705
0.0334417
-0.0872876
-0.0625555
0.0419293
-0.476552
-0.320707
-0.410617
-0.329704
-0.44615
-0.167702
-0.129258
-0.146024
-0.178525
-0.228233
-0.0941636
-0.00857732
-0.023437
-0.0437708
-0.026913
-0.0123941
0.138129
0.133033
0.131192
0.125879
0.125625
0.136932
0.141876
0.143622
0.148646
0.150282
0.142563
0.147535
0.149956
0.0069334
0.00853899
0.0139497
-0.0132237
0.00183035
0.00565971
-0.00378522
-0.249365
-0.3293
-0.298849
-0.358445
-0.469893
-0.415825
0.119135
0.103016
0.123594
0.320362
0.174267
0.0837619
0.165905
0.27405
-0.103428
0.105369
-0.064298
0.505382
0.399667
0.543031
0.188175
-0.11751
0.0320947
0.0466675
-0.111955
0.006917
-0.01131
-0.131402
-0.092831
-0.0786385
-0.000388938
-0.109009
-0.133925
-0.373333
-0.19825
-0.0804023
-0.10061
0.0347328
0.0934606
-0.108995
-0.19424
-0.244843
0.269133
0.286028
0.299579
0.272541
0.295281
0.220766
0.213598
0.232361
0.241549
0.232872
-1.01398
-0.602516
-1.81381
-1.22703
-0.776764
0.137314
0.120388
0.375458
0.285785
0.360083
0.343663
0.28518
0.250736
0.266182
0.301145
-0.001791
0.104351
0.0671491
0.0871341
0.0226388
-0.0548535
0.238612
0.235856
0.263582
0.286517
0.261589
0.288197
0.148639
0.14788
0.146853
0.144104
0.142279
0.144284
-0.417053
-0.485983
-0.319972
-0.337471
-0.407845
-0.466881
0.0120817
-0.0230295
-0.0162131
-0.00704191
0.0169482
-0.000742027
-0.203258
-0.256639
-0.345338
-0.309797
-0.36306
-0.436196
-0.446616
-0.357855
-0.261163
-0.281626
0.0210124
0.304699
0.129257
0.299943
0.0798722
0.189983
0.116668
0.0949036
0.130921
0.00693418
0.0904936
-0.373413
-0.55003
-0.615591
0.434282
0.38683
0.178683
-0.082696
-0.188131
0.121109
0.170823
0.136326
0.171789
0.217485
0.212948
-0.372887
-0.273603
-0.218631
0.0847903
-0.106211
-0.0901161
-0.0943044
0.0492732
0.0280498
)
;

boundaryField
{
    wall-4
    {
        type            zeroGradient;
    }
    velocity-inlet-5
    {
        type            zeroGradient;
    }
    velocity-inlet-6
    {
        type            zeroGradient;
    }
    pressure-outlet-7
    {
        type            fixedValue;
        value           uniform 0;
    }
    wall-8
    {
        type            zeroGradient;
    }
    frontAndBackPlanes
    {
        type            empty;
    }
}


// ************************************************************************* //
