/*--------------------------------*- C++ -*----------------------------------*\
  =========                 |
  \\      /  F ield         | OpenFOAM: The Open Source CFD Toolbox
   \\    /   O peration     | Website:  https://openfoam.org
    \\  /    A nd           | Version:  6
     \\/     M anipulation  |
\*---------------------------------------------------------------------------*/
FoamFile
{
    version     2.0;
    format      ascii;
    class       surfaceScalarField;
    location    "21";
    object      phi;
}
// * * * * * * * * * * * * * * * * * * * * * * * * * * * * * * * * * * * * * //

dimensions      [0 3 -1 0 0 0 0];

internalField   nonuniform List<scalar> 
1300
(
3.75095
5.62643
-5.94748
3.75095
-5.83816
5.62643
-4.45012
4.45012
-1.23356
1.23356
1.87672
1.87423
-2.60896
2.60896
-3.41296
3.41296
-2.63884
2.63884
-5.24789
5.24789
-5.0685
5.0685
4.73653
-4.73653
-4.72783
4.72783
-1.67845
1.67845
-3.67329
3.67329
3.17487
-3.17487
-4.47546
4.47546
-0.446055
0.446055
-0.553675
4.30463
3.19728
3.19728
-2.31907
2.31907
-4.86591
4.86591
6.22255
-6.22255
8.989
-8.989
-3.04152
-3.44777
1.33282
-8.27161
-4.50534
-4.50534
-8.44106
8.44106
-2.81463
2.8118
2.94561
-2.94561
-1.70493
1.70493
-4.43037
-0.0197439
-4.43037
4.41385
0.0362671
4.41385
-1.36683
0.133272
-1.36683
3.96394
-3.96394
1.08123
0.152325
1.08123
3.0662
-3.0662
-1.87694
3.75366
1.87402
-1.87158
6.17621
-1.87938
3.7536
-5.891
5.891
-2.89374
0.284781
-2.89374
2.39205
0.216905
2.39205
-5.26967
5.26967
-2.95765
-0.455312
-2.95765
3.80499
-0.392028
3.80499
2.87981
-2.87981
-2.68522
0.0463765
-2.68522
2.57283
0.0660068
2.57283
0.353591
5.27284
-5.98002
8.79182
-5.27284
0.0249535
5.21029
0.0375978
5.21029
-5.10477
0.0362689
-5.10477
5.01134
0.0571611
5.01134
4.83383
-0.0972991
4.83383
-4.8471
0.110569
-4.8471
-3.32885
-3.51525
-4.82751
0.0996858
-4.82751
-1.67208
-0.00636553
-1.67208
1.66956
0.0088894
1.66956
-3.49956
3.49956
-4.16258
0.489293
-4.16258
3.12977
0.0450953
3.12977
1.86797
1.88299
5.61892
-5.61892
2.44405
-4.39542
-0.0800347
-4.39542
-4.58642
-4.40257
4.58642
-0.110966
-0.711131
0.265076
-0.711131
3.15718
0.0400945
3.15718
2.48593
0.0869047
-2.48593
0.166854
3.35393
-3.35393
1.67975
0.639319
1.67975
-5.56368
5.56368
4.95738
0.0539613
-4.95738
0.0914712
6.15713
0.0654192
6.15713
-6.20801
-0.0145477
-6.20801
3.32093
-6.76871
-3.47956
4.61117
0.116654
-4.61117
0.105833
2.91541
0.0302014
2.91541
-2.93114
2.93114
-2.98114
0.0355312
-2.98114
-2.14567
0.440736
-2.14567
1.36931
0.335625
1.36931
-4.29374
-0.136637
-4.29374
-4.35709
0.194507
4.35709
0.0567654
0.90299
-0.90299
-1.48151
0.114685
-1.48151
-4.09647
-0.197264
4.09647
-0.132532
-3.8967
-0.0672374
-3.8967
-3.01956
0.0384189
3.01956
0.0466384
3.11194
0.0452446
-3.11194
0.0457422
-1.87096
3.75394
-1.88
3.75401
-5.58726
-0.303735
-5.58726
6.09434
-0.203342
6.09434
3.26956
0.403725
-3.26956
0.37582
2.36067
0.0313885
2.36067
-5.53594
0.266266
-5.53594
5.04908
0.220598
5.04908
2.56997
-0.209301
-2.56997
-0.387681
4.08324
-0.278253
4.08324
2.92902
-0.0492146
2.92902
-2.86421
-0.0155963
-2.86421
2.81823
-2.81823
2.74875
0.0694863
-2.74875
0.063531
-11.1237
11.1091
-0.0362282
-11.0874
5.17406
5.17406
4.28153
0.552299
4.28153
-5.02973
0.182627
-5.02973
3.28774
-6.7673
3.49953
-6.82837
3.49508
-11.7667
3.3727
-6.88795
5.0237
-5.0237
4.92907
0.0946332
-4.92907
0.101557
-1.6809
0.00881258
-1.6809
-2.88196
-0.617598
-2.88196
4.18436
-0.684808
4.18436
-3.03266
3.03266
-3.08033
0.0476734
3.08033
0.0494376
4.27358
-0.190341
-4.27358
-0.121839
0.896316
0.184914
-0.896316
0.185185
3.57867
-0.22474
3.57867
-3.1481
-0.20583
-3.1481
-1.68667
0.00577408
1.68667
-0.00691583
-5.81056
0.246884
-5.81056
-11.1814
0.0939281
-11.1438
-6.11408
-6.11408
2.32699
11.1188
-2.88507
0.0208512
2.88507
0.0303425
2.98273
0.0499333
-2.98273
0.0515846
-2.87961
0.0613759
2.87961
0.0515335
-2.52886
0.383194
-2.52886
-0.956715
0.956715
-1.1312
0.174481
1.1312
0.23811
1.15702
-0.25403
1.15702
1.59287
0.0766922
-1.59287
0.111355
-3.84808
-0.0486275
-3.84808
6.06429
0.0300476
6.06429
-3.0089
-0.139205
3.0089
-0.0798751
-0.0350477
11.1442
-5.13901
0.0342412
5.13901
-11.2096
11.2438
-3.24819
0.719327
3.24819
1.03334
5.29127
0.272413
-5.29127
0.261537
5.0945
-0.0454285
-5.0945
0.0708017
-2.38567
-0.496293
-2.38567
-4.93669
-0.650569
4.93669
-0.752328
-11.483
-0.200793
11.6838
-11.4259
6.01136
0.145778
-6.01136
11.3896
-0.853431
-0.0495594
0.853431
0.103284
1.49341
-0.336394
1.49341
3.77423
-0.195551
-3.77423
-0.0738515
-5.90659
0.370649
5.90659
0.157702
-1.91669
-0.468973
1.91669
-0.423278
-4.2651
4.30519
1.9111
-3.25132
-3.51739
-7.65389
1.8533
1.90064
4.29736
-7.30183
-4.46485
-7.196
7.21991
-6.95838
-9.40696
9.30966
7.52216
-7.58939
-5.77813
5.82757
6.48356
-6.43693
1.87797
1.87569
7.52112
-7.23633
-15.5997
15.2959
6.97612
-7.43143
15.5264
-15.2601
-15.4232
15.3778
-5.77532
5.8217
-6.63216
6.61656
-6.84037
6.7605
-3.18456
-3.64381
9.682
-9.58232
11.4138
-11.4939
-8.42676
8.91605
3.38665
0.91855
3.43189
-1.88239
3.76036
-1.87121
3.78232
3.5168
-6.70136
3.2505
-6.76789
6.02355
5.39028
-5.91259
-1.7413
-5.89531
5.92552
-5.81642
5.86795
8.96174
-8.98149
-1.88496
3.76066
-1.86905
3.76969
-3.42209
-2.35603
3.377
0.920357
5.83847
3.84354
-5.95512
-1.24088
-7.7082
7.51265
-7.99659
7.79076
-0.448634
5.83881
-5.39017
4.41727
-1.64419
7.483
5.57572
5.75835
5.86219
-5.58978
1.09619
-6.48636
-6.39489
-2.5834
2.69808
2.59725
-2.44493
5.91298
1.60918
5.78044
-5.544
-2.0454
-5.59262
3.81874
2.00883
3.86641
4.08068
2.40289
4.1191
3.02901
-3.03597
0.00695923
-3.0587
6.08771
0.724686
-5.41473
-4.49438
4.18848
3.33264
4.40538
-5.42592
-1.81042
-5.05009
-9.41599
-6.18366
-10.0666
10.1288
5.16715
9.92543
-12.084
12.2417
5.3336
1.64252
4.94157
-4.01318
-3.41825
-4.40086
12.0342
-0.914742
-11.1195
-9.52273
-5.90051
9.30213
6.22424
8.87425
6.50357
8.94505
3.35673
8.6775
-9.58097
3.68045
-3.87648
-1.89884
-3.81295
3.73464
2.08706
3.80064
-4.15644
-2.47572
-4.13558
-4.20071
-2.63966
4.24993
2.36664
-4.30871
-3.68788
4.44791
2.31259
3.25459
-7.71944
3.63336
-7.27717
-6.92333
-2.65898
-6.82178
4.36275
2.35823
-6.72098
-2.33862
10.8478
-5.45753
9.10651
-6.8263
-4.66757
-6.94814
-6.85515
-1.57161
-6.66064
-8.87567
8.37938
-9.14897
8.46416
12.7787
-5.6782
-7.10048
-3.96665
-2.47028
3.92091
-0.489015
-3.71107
3.71803
0.0492878
3.83161
4.75016
4.26114
-3.87824
-1.93818
-3.82666
3.82715
2.0408
3.88853
6.77718
2.18456
6.81345
-6.4094
-2.57208
-6.54604
9.14573
-8.70499
2.96753
-2.96176
5.1925
2.59825
-4.96776
-2.74043
6.06573
-3.02227
-3.04346
-12.3672
10.9118
1.45537
-4.88419
-0.466919
-0.0208643
-5.60937
-3.7976
5.4988
0.259552
11.1714
7.37377
-5.51626
5.76314
6.16756
6.22152
-0.173367
5.93594
-5.21662
5.30761
-2.37439
-2.93322
5.28482
-5.48208
-1.26122
-5.25712
3.9959
0.298364
1.89131
-1.62623
-2.06431
-0.519094
-1.95295
1.58208
1.01518
1.76699
0.963865
1.73422
-2.92674
0.577438
2.3493
-1.96287
-1.86749
-3.5302
-1.03566
4.56586
5.45385
2.05879
-5.38
-0.212625
2.75125
-2.74236
-0.709986
-2.82021
2.1725
-2.88249
-3.44768
-1.93562
5.3833
-3.36585
-0.460812
3.31591
0.550499
-3.81991
-2.07541
3.78438
0.33472
-3.12562
6.20421
-3.07859
-5.0638
2.52987
3.55785
4.53869
-4.79122
2.4453
2.34592
-1.23338
3.29712
1.10826
3.32851
-7.07855
5.26813
5.75379
3.16226
-6.15752
1.10742
-5.97112
8.51163
-7.46152
-1.05011
3.65667
4.85496
7.12375
5.65493
-5.77186
12.8956
-1.18759
-6.27393
7.15871
-3.99645
4.72849
-8.72495
-10.3834
4.10949
-10.0448
12.1918
-2.14705
-3.42307
-8.66095
13.4678
-1.29453
-12.1733
8.6309
-6.08137
-3.21262
9.29399
-6.99611
6.63087
-2.96057
-3.6703
-10.2529
-5.00725
9.88221
2.35951
-9.02982
12.7103
-0.35232
5.0026
-0.0610316
4.72435
4.49176
-6.06716
1.57541
2.50436
-5.46493
2.22892
-8.29609
-5.43296
10.0357
-4.60276
-8.09194
-7.75042
-0.341518
1.49729
11.213
-8.00086
5.53251
2.46835
3.30847
0.58006
-3.37796
-0.434997
0.341319
4.48366
-4.82497
4.14196
4.22887
3.36101
1.12265
3.80675
2.11877
-3.83709
-0.298493
-4.10727
1.46761
-1.74064
-3.65458
5.12219
-4.05449
0.399911
-2.71212
-3.54348
6.25559
-4.61095
3.0592
3.14501
5.1
-4.94459
1.40111
-2.43459
-2.50999
2.65338
-4.39402
1.95418
3.16801
4.26676
0.578884
5.26754
4.76817
-7.62577
0.348606
8.61171
-7.37083
2.28097
6.66408
-7.81348
0.0630598
-6.75872
0.815367
-6.2729
-5.90561
5.18866
-6.76026
-3.53629
6.22987
0.583573
-6.28664
-0.374005
-5.9884
-2.88727
-6.45737
-3.05949
-6.08948
-8.83135
-1.6723
-7.15905
6.70708
-6.58031
-3.48625
7.33264
1.13152
-7.39414
7.34459
-7.48176
7.14536
0.0953175
3.62271
4.35646
1.88618
-2.38933
4.27551
-5.023
7.20757
-8.48163
3.45863
3.95342
-6.5255
-4.52822
5.04662
4.09911
5.38225
9.01136
-10.6046
1.59326
-10.885
12.2465
-1.36152
-16.6994
5.81434
-7.68801
2.70026
0.267275
2.70907
0.682934
2.4051
-3.08804
-2.27883
-2.28574
-2.25455
-3.33663
5.59118
1.1124
-3.27326
2.16086
-3.48145
4.59385
0.017132
-3.29039
5.19075
-2.78565
5.45803
-3.46432
1.99371
3.28008
5.54494
-2.26486
4.29724
-1.69899
1.77983
-4.04469
-1.55681
-2.99992
5.08698
-3.25567
3.65558
-0.26201
3.91759
-3.99257
0.970299
-0.631561
3.59731
3.76416
4.20205
-3.07941
2.88609
-4.58508
-1.1586
-4.00619
-0.838182
-0.321041
-3.7586
4.07964
6.0753
-6.39634
-5.36062
9.61425
-4.25364
7.74647
-5.4918
-2.25467
-4.31936
-4.38563
3.93617
1.99978
9.74625
0.166617
-5.65842
-5.05
-4.01665
3.23826
2.06935
-2.05673
3.51211
2.0776
-0.186291
0.559285
1.20771
1.93118
-1.3719
0.233338
1.69785
-1.39289
2.00398
0.747277
-2.08067
0.127717
-1.26651
3.43901
1.08279
-2.09797
0.726071
1.03234
-3.40673
4.63139
-2.40581
-2.22558
5.66373
1.15904
-3.56485
4.09808
-3.79971
2.29179
-3.32746
-1.27306
-5.07277
-3.46359
-2.44661
4.60747
-3.14457
5.20336
1.15979
-4.99074
6.15053
-3.55051
1.61489
-2.99739
3.74467
-1.04334
-1.95405
2.8043
2.579
-2.92713
0.106917
-0.122825
2.32438
-2.44721
-0.558102
-2.52097
-4.57064
4.90536
-2.10776
4.55306
2.16775
-1.9105
6.46356
1.81625
-3.72675
-3.24755
-3.70837
-1.38083
3.15787
-1.24753
-3.15334
-4.91783
3.36264
-0.0341242
-6.84564
7.07969
-0.234053
-3.513
-1.75512
5.41179
-6.24636
0.781437
-4.01744
3.06225
4.17051
4.13639
-11.6317
-0.541617
-6.46455
0.952052
-7.4166
5.80701
-3.62831
7.7378
-10.3988
6.91257
-9.2673
6.68769
-0.728911
6.80112
-5.22572
4.31836
-9.32562
-6.96611
5.85414
-4.21162
5.79311
-4.73005
10.5232
-5.08237
6.95923
3.56393
-1.74424
-5.2039
-6.28934
4.5451
0.669894
5.39424
4.93269
-2.81392
4.6342
2.23554
-4.67014
-2.15847
-6.54602
1.87588
-3.40101
-1.9084
3.78428
3.1916
3.77166
1.27429
-3.33667
7.39245
-7.73397
-2.78969
-3.11592
6.53278
-1.98768
4.40769
-7.5236
-1.86521
4.87899
-0.787605
-4.09139
0.799212
-4.3355
1.6113
-5.9468
5.14896
-5.52297
2.20464
-9.89265
-5.1895
-5.08622
-2.25146
-5.2303
-7.67459
5.42314
-1.86025
5.48433
-8.72975
7.94214
-3.5168
8.93994
-5.40766
-1.04971
5.83094
1.31443
10.2544
0.0257698
-4.55398
-1.8184
3.80427
-1.98587
1.41986
-3.73283
0.0714436
2.42692
3.23681
-6.42282
-0.102687
-4.65667
-3.89619
7.9953
5.71806
11.7934
1.18874
9.2222
-1.2269
10.4109
4.15535
4.39346
-2.99331
4.58657
1.08633
4.54496
-0.844456
2.83817
1.86462
1.85825
0.884113
2.30751
1.45666
3.2778
0.189767
-2.09597
4.67879
-8.69544
-0.979627
-8.14314
1.16652
5.49031
-4.32379
3.05975
-0.990401
1.07388
0.1349
-1.81186
1.67696
-2.79832
-1.99815
-0.300302
-1.63583
2.3619
1.80318
-2.0616
-0.73672
0.260436
-3.72403
3.06702
-2.9601
-0.381105
5.76942
-2.69606
0.248855
-1.08117
-2.27212
-2.79121
2.6635
6.1817
0.281862
3.10312
5.18722
3.11181
0.297893
3.93392
-6.08096
-4.36217
-6.62258
-0.815567
4.59622
3.1807
8.03228
6.74462
4.75695
-2.76666
-10.5006
6.62395
-2.03738
5.26243
-1.17105
-4.77575
4.9726
2.23496
-5.55618
0.0332088
-4.74254
-6.77993
-0.512639
8.45478
-9.74173
8.69202
5.80475
1.3543
-4.39018
-0.696034
4.2157
0.177754
10.5887
-0.948147
-7.24865
8.19679
-4.54216
3.56253
0.790692
2.72142
2.46765
1.47725
-5.7714
-10.0952
-1.82019
-1.58654
-4.04577
0.520084
-2.32326
6.12969
-2.56716
3.87502
5.62963
6.70352
-2.14545
-4.25089
6.39909
-2.52407
4.17944
)
;

boundaryField
{
    wall-4
    {
        type            calculated;
        value           uniform 0;
    }
    velocity-inlet-5
    {
        type            calculated;
        value           uniform -3.75095;
    }
    velocity-inlet-6
    {
        type            calculated;
        value           uniform -5.62643;
    }
    pressure-outlet-7
    {
        type            calculated;
        value           nonuniform List<scalar> 8(5.94748 5.83816 6.48929 6.93878 6.84409 6.80049 6.78727 6.86777);
    }
    wall-8
    {
        type            calculated;
        value           uniform 0;
    }
    frontAndBackPlanes
    {
        type            empty;
        value           nonuniform 0();
    }
}


// ************************************************************************* //
