/*--------------------------------*- C++ -*----------------------------------*\
  =========                 |
  \\      /  F ield         | OpenFOAM: The Open Source CFD Toolbox
   \\    /   O peration     | Website:  https://openfoam.org
    \\  /    A nd           | Version:  6
     \\/     M anipulation  |
\*---------------------------------------------------------------------------*/
FoamFile
{
    version     2.0;
    format      ascii;
    class       volScalarField;
    location    "6.5";
    object      Ma;
}
// * * * * * * * * * * * * * * * * * * * * * * * * * * * * * * * * * * * * * //

dimensions      [0 0 0 0 0 0 0];

internalField   nonuniform List<scalar> 
26250
(
3.04672
3.07686
3.10426
3.12657
3.14784
3.16437
3.18063
3.18949
3.1889
3.17135
3.12124
2.97116
2.64926
1.89186
0.865997
0.392148
0.463971
0.564481
0.621998
0.611391
0.60048
0.565976
0.485384
0.347016
0.240285
3.04671
3.07687
3.10425
3.12658
3.14783
3.16438
3.18062
3.18952
3.18894
3.17151
3.12166
2.97214
2.65135
1.89537
0.871842
0.39601
0.468221
0.569368
0.62662
0.628099
0.609171
0.570459
0.495229
0.364842
0.26143
3.04669
3.07689
3.10423
3.1266
3.14781
3.1644
3.18062
3.18961
3.18906
3.17186
3.12254
2.97385
2.65527
1.89937
0.875067
0.383387
0.459208
0.564043
0.619694
0.62046
0.598443
0.555782
0.481331
0.353419
0.250985
3.04658
3.077
3.10412
3.12671
3.14769
3.16452
3.18054
3.18988
3.18938
3.17284
3.12748
2.97741
2.66376
1.91313
0.887453
0.408409
0.479441
0.57696
0.628935
0.621231
0.601084
0.558355
0.481449
0.352307
0.249311
3.04543
3.07818
3.10287
3.128
3.14636
3.1659
3.17906
3.19107
3.18559
3.17742
3.12429
3.0041
2.64534
1.93276
0.929112
0.434408
0.499802
0.592563
0.642523
0.639524
0.617871
0.574073
0.495478
0.364916
0.260063
3.04642
3.07717
3.10393
3.12689
3.1475
3.16471
3.18044
3.19036
3.19004
3.17496
3.13539
2.98748
2.6883
1.95046
0.936706
0.457478
0.518879
0.605483
0.656567
0.655079
0.633218
0.590157
0.513085
0.383534
0.2792
3.04557
3.07804
3.10301
3.12785
3.14651
3.16578
3.17925
3.19134
3.18712
3.18021
3.12823
3.015
2.6714
1.98298
0.993454
0.492442
0.545576
0.625196
0.674296
0.674555
0.652488
0.611238
0.536845
0.410982
0.310692
3.0463
3.07729
3.10381
3.12702
3.14738
3.16486
3.18042
3.191
3.1907
3.1766
3.13736
3.00075
2.72015
2.00258
1.01581
0.517637
0.564246
0.637875
0.689395
0.692005
0.671903
0.634954
0.567075
0.449507
0.362497
3.0463
3.07729
3.10382
3.12703
3.14739
3.16487
3.18044
3.19111
3.19094
3.17772
3.13806
3.01004
2.73914
2.03718
1.07372
0.565773
0.592107
0.657511
0.709064
0.712897
0.695987
0.664403
0.608578
0.507381
0.449945
3.04755
3.07601
3.10516
3.12563
3.14879
3.16339
3.18176
3.18893
3.19188
3.18048
3.14704
3.02171
2.76651
2.07346
1.11737
0.616182
0.624642
0.680788
0.731605
0.737289
0.724322
0.701717
0.665455
0.601194
0.613165
2.96752
2.95208
2.94109
2.93522
2.92968
2.92708
2.92316
2.91891
2.90216
2.87447
2.79079
2.60763
2.21205
1.3577
0.259939
0.328782
0.0383142
0.258789
0.308697
0.249854
0.239156
0.18262
0.0761235
0.0443309
0.105778
2.96752
2.95207
2.94109
2.93521
2.92968
2.92708
2.92316
2.91892
2.90222
2.87458
2.79114
2.60817
2.2134
1.35976
0.264469
0.314392
0.0475248
0.267983
0.323511
0.291828
0.255888
0.194882
0.106196
0.0730746
0.129216
2.96752
2.95208
2.94109
2.93521
2.92968
2.92708
2.92317
2.91897
2.90237
2.87492
2.79185
2.61019
2.21667
1.36719
0.268057
0.344461
0.0654461
0.274232
0.327618
0.29763
0.261081
0.208075
0.1392
0.116014
0.13955
2.96752
2.95208
2.94109
2.93521
2.92968
2.92707
2.92319
2.91905
2.90263
2.87549
2.7931
2.61304
2.22191
1.37295
0.282932
0.305636
0.0911669
0.288351
0.330971
0.285161
0.266939
0.227386
0.180514
0.163818
0.163035
2.96755
2.95201
2.94114
2.93512
2.92975
2.92699
2.92334
2.91933
2.90409
2.87565
2.80103
2.60906
2.23713
1.38169
0.28316
0.295897
0.116477
0.30569
0.347758
0.316961
0.292181
0.260522
0.227527
0.212896
0.198112
2.96752
2.95207
2.94109
2.9352
2.92969
2.92707
2.92326
2.9193
2.90347
2.87731
2.79726
2.62382
2.24191
1.41275
0.333005
0.26743
0.143589
0.326398
0.368193
0.343939
0.322974
0.30013
0.278003
0.265257
0.244711
2.96756
2.952
2.94114
2.93512
2.92976
2.927
2.92342
2.91963
2.905
2.87797
2.80621
2.62278
2.26468
1.4432
0.353665
0.241838
0.171107
0.348486
0.391458
0.375027
0.358435
0.344858
0.332853
0.323724
0.305561
2.96752
2.95206
2.9411
2.93519
2.92971
2.92707
2.92335
2.91962
2.9047
2.87997
2.80392
2.64161
2.27703
1.49826
0.421015
0.21683
0.201299
0.372761
0.417009
0.407166
0.398459
0.394311
0.393341
0.391288
0.385555
2.96753
2.95206
2.94112
2.93519
2.92972
2.92707
2.9234
2.91982
2.90546
2.88164
2.80798
2.65288
2.29904
1.5542
0.484022
0.185757
0.237139
0.399799
0.444422
0.440915
0.441466
0.44738
0.459676
0.472819
0.495813
2.96764
2.95199
2.94119
2.93515
2.92978
2.92706
2.92346
2.92005
2.90639
2.88367
2.81419
2.65966
2.32345
1.59109
0.540185
0.177084
0.275457
0.429557
0.473885
0.476661
0.485768
0.50278
0.533929
0.573083
0.673539
2.98575
2.97019
2.95108
2.93546
2.91921
2.90725
2.89388
2.88263
2.8603
2.82428
2.72809
2.52201
2.10114
1.18877
0.0195143
0.692803
0.106134
0.181301
0.238887
0.183458
0.0933063
0.0744256
0.092316
0.0674793
0.0657377
2.98572
2.97023
2.95104
2.93549
2.91918
2.90728
2.89385
2.88267
2.86026
2.82454
2.72791
2.5237
2.10139
1.18736
0.0240313
0.686077
0.103841
0.195281
0.243025
0.177512
0.131385
0.112869
0.129921
0.113163
0.0995848
2.98575
2.97019
2.95108
2.93546
2.91921
2.90725
2.89389
2.88268
2.86048
2.82466
2.72907
2.52393
2.10511
1.1952
0.0372724
0.667409
0.108726
0.21354
0.250916
0.18896
0.16405
0.15276
0.17291
0.1664
0.146455
2.98572
2.97023
2.95104
2.93549
2.91918
2.90729
2.89386
2.88276
2.86062
2.82527
2.72983
2.52761
2.10952
1.20148
0.0508104
0.647648
0.120007
0.236069
0.266344
0.217682
0.200236
0.195921
0.218653
0.219849
0.197347
2.98568
2.97027
2.95101
2.93553
2.91914
2.90732
2.89385
2.88287
2.86087
2.82614
2.73122
2.53277
2.11703
1.2147
0.0757337
0.620399
0.137197
0.26198
0.287231
0.251619
0.23262
0.241186
0.266349
0.273876
0.25092
2.9857
2.97025
2.95102
2.93551
2.91916
2.90731
2.89388
2.88297
2.8614
2.82703
2.73416
2.53795
2.12987
1.24208
0.111266
0.584505
0.158173
0.289894
0.313781
0.289368
0.268608
0.289552
0.316964
0.330763
0.310663
2.98566
2.97029
2.95099
2.93555
2.91913
2.90735
2.89388
2.88313
2.86197
2.82844
2.73745
2.54681
2.14658
1.27694
0.153525
0.542134
0.18188
0.319119
0.34435
0.330365
0.312757
0.340937
0.371723
0.393836
0.381045
2.98567
2.97028
2.951
2.93555
2.91913
2.90736
2.89391
2.8833
2.86276
2.82998
2.74199
2.55596
2.16774
1.32116
0.202463
0.494751
0.208738
0.34969
0.377515
0.372851
0.364181
0.394196
0.431705
0.464313
0.466361
2.98562
2.97033
2.95095
2.9356
2.91909
2.90742
2.8939
2.88352
2.86355
2.8319
2.74645
2.568
2.19029
1.36898
0.261045
0.438787
0.238794
0.3813
0.412322
0.415392
0.418185
0.450426
0.496964
0.545199
0.576019
2.98571
2.97025
2.95104
2.93551
2.91917
2.90736
2.89401
2.88383
2.86468
2.83385
2.75203
2.57772
2.21452
1.42343
0.329947
0.371657
0.271598
0.413154
0.446588
0.457665
0.47172
0.508962
0.568126
0.638519
0.751415
2.96752
2.95208
2.94109
2.93522
2.92968
2.92708
2.92317
2.91896
2.90226
2.87469
2.79106
2.60784
2.21121
1.35111
0.250651
0.333924
0.0367585
0.259242
0.320523
0.300571
0.264756
0.206053
0.122288
0.057979
0.111042
2.96755
2.95201
2.94114
2.93513
2.92975
2.92699
2.92331
2.91916
2.90351
2.87419
2.79761
2.6001
2.21904
1.347
0.226551
0.382733
0.0497914
0.257639
0.302656
0.235995
0.227215
0.177279
0.0983124
0.0795082
0.117466
2.96751
2.95208
2.94108
2.93521
2.92967
2.92708
2.92319
2.91903
2.90248
2.87519
2.79207
2.61039
2.21542
1.35501
0.26049
0.324191
0.071909
0.27187
0.311361
0.258119
0.240688
0.18962
0.124797
0.122623
0.133878
2.96754
2.95202
2.94113
2.93513
2.92974
2.92699
2.92332
2.91924
2.90375
2.87493
2.79916
2.60444
2.22799
1.36037
0.257723
0.315226
0.0935393
0.288408
0.331268
0.295977
0.264016
0.217822
0.168328
0.166933
0.1625
2.96754
2.95202
2.94113
2.93513
2.92973
2.927
2.92333
2.91933
2.90397
2.87565
2.80062
2.60867
2.23659
1.37545
0.279942
0.295776
0.117707
0.305152
0.34647
0.313694
0.290304
0.254571
0.217808
0.213667
0.198321
2.96754
2.95201
2.94113
2.93513
2.92974
2.927
2.92337
2.91946
2.9044
2.87664
2.80304
2.61473
2.24875
1.40265
0.311618
0.272413
0.143301
0.324985
0.367659
0.345225
0.322537
0.297394
0.271603
0.264485
0.244279
2.96752
2.95207
2.9411
2.9352
2.9297
2.92708
2.92329
2.91943
2.90398
2.87842
2.80026
2.63144
2.25805
1.45355
0.375859
0.243438
0.171332
0.347758
0.391005
0.375043
0.358591
0.344118
0.32923
0.322343
0.304543
2.96753
2.95207
2.94111
2.9352
2.92971
2.92708
2.92334
2.91961
2.90467
2.87989
2.80397
2.64148
2.27788
1.5044
0.428425
0.204388
0.202843
0.373775
0.417394
0.407369
0.398867
0.39441
0.391471
0.389812
0.38427
2.96753
2.95206
2.94112
2.93519
2.92972
2.92707
2.9234
2.91981
2.90544
2.88162
2.80792
2.65269
2.29906
1.55414
0.483962
0.184734
0.236842
0.400648
0.444957
0.441313
0.442034
0.447863
0.458812
0.47158
0.494728
2.96759
2.95203
2.94116
2.93516
2.92975
2.92706
2.92346
2.92007
2.90637
2.88364
2.81408
2.65947
2.32313
1.59114
0.540619
0.176968
0.276148
0.430314
0.47411
0.476759
0.486055
0.503194
0.533557
0.57179
0.672699
3.04662
3.07697
3.10415
3.12668
3.14772
3.16448
3.18055
3.18975
3.1892
3.17213
3.12587
2.97204
2.65269
1.88906
0.847493
0.378507
0.455851
0.562337
0.619878
0.621027
0.603257
0.56136
0.485844
0.356953
0.255138
3.04534
3.07828
3.10278
3.1281
3.14626
3.166
3.17891
3.19098
3.18454
3.1777
3.1198
2.99704
2.62057
1.89268
0.889503
0.387334
0.464374
0.570738
0.623034
0.610489
0.597636
0.559292
0.478762
0.344217
0.24186
3.04653
3.07706
3.10405
3.12677
3.14762
3.16458
3.18047
3.18995
3.18945
3.17292
3.13055
2.9759
2.66404
1.90053
0.853258
0.387822
0.464435
0.56671
0.619972
0.608074
0.594004
0.556677
0.475173
0.338617
0.235123
3.04534
3.07828
3.10277
3.1281
3.14626
3.16599
3.17896
3.19104
3.18501
3.17652
3.11963
2.99266
2.63188
1.91546
0.909753
0.421494
0.490001
0.585969
0.636052
0.632999
0.612309
0.571955
0.492585
0.356733
0.248968
3.04543
3.07817
3.10287
3.12798
3.14638
3.16586
3.17913
3.19098
3.18574
3.17499
3.12081
2.99372
2.64332
1.9457
0.913296
0.430554
0.497611
0.590902
0.640932
0.63773
0.618384
0.578528
0.502382
0.369837
0.261913
3.04545
3.07816
3.10289
3.12797
3.14638
3.16588
3.17909
3.19111
3.18566
3.17806
3.12408
3.00265
2.65621
1.95763
0.949105
0.457644
0.518146
0.604926
0.654387
0.654361
0.633208
0.593053
0.518545
0.388116
0.281117
3.04636
3.07723
3.10389
3.12695
3.14745
3.1648
3.18046
3.19087
3.19033
3.17519
3.13327
2.99233
2.70132
1.97461
0.97779
0.483736
0.538915
0.619063
0.670154
0.671588
0.649603
0.61147
0.539597
0.41396
0.312135
3.04636
3.07724
3.10389
3.12696
3.14746
3.1648
3.1805
3.19104
3.19062
3.17628
3.13382
3.00071
2.71812
2.00173
1.0239
0.523631
0.565591
0.637739
0.689073
0.690891
0.669829
0.634613
0.568502
0.451313
0.363733
3.0463
3.07729
3.10384
3.12701
3.14742
3.16486
3.18045
3.19116
3.19094
3.1778
3.13793
3.00989
2.73891
2.03742
1.07329
0.564457
0.591366
0.657408
0.708962
0.712191
0.694069
0.664166
0.608754
0.508239
0.451046
3.04683
3.07677
3.10437
3.12646
3.14795
3.16428
3.18101
3.19048
3.19144
3.18036
3.1462
3.02153
2.7671
2.07326
1.11701
0.615665
0.624425
0.680809
0.73125
0.736676
0.723232
0.70169
0.66597
0.601154
0.614002
3.04541
3.07819
3.10286
3.12801
3.14634
3.166
3.17919
3.19248
3.19148
3.18662
3.14312
3.05043
2.75033
2.17455
1.21016
0.685135
0.671929
0.716652
0.761194
0.76788
0.759904
0.749867
0.741764
0.740951
0.801456
3.0483
3.0752
3.10596
3.12478
3.14962
3.16258
3.18268
3.18901
3.19555
3.18507
3.15695
3.04442
2.80893
2.17436
1.23533
0.733691
0.71277
0.750845
0.790283
0.800414
0.799105
0.801221
0.811911
0.842874
0.922381
3.04545
3.07815
3.1029
3.12798
3.14638
3.16598
3.17935
3.19296
3.19377
3.189
3.15408
3.07389
2.80635
2.30251
1.36571
0.806083
0.76148
0.788886
0.819404
0.832084
0.836668
0.846323
0.86738
0.910052
0.98889
3.04787
3.07566
3.1055
3.1253
3.1491
3.16319
3.18218
3.19039
3.19784
3.18956
3.16292
3.07025
2.86065
2.3158
1.42333
0.882086
0.817205
0.8319
0.853128
0.867532
0.876345
0.890375
0.915906
0.959515
1.02966
3.04768
3.07587
3.10527
3.12555
3.14882
3.16351
3.18192
3.19114
3.19945
3.1922
3.17074
3.08786
2.91673
2.41588
1.58278
0.961351
0.863454
0.866521
0.882078
0.899391
0.912827
0.931135
0.957832
1.00118
1.06126
3.04563
3.07796
3.10305
3.12783
3.14648
3.16597
3.17954
3.19424
3.19938
3.19782
3.1746
3.11777
2.93746
2.58013
1.77548
1.08515
0.919958
0.907913
0.915259
0.931834
0.948815
0.969432
0.99654
1.03652
1.09233
3.04586
3.07771
3.10329
3.12757
3.14672
3.16572
3.17984
3.19429
3.20105
3.20019
3.18247
3.13499
2.9935
2.70376
1.99812
1.24554
0.997347
0.969907
0.967884
0.979952
0.994661
1.01165
1.03526
1.06943
1.11799
3.04628
3.07733
3.10365
3.12728
3.14695
3.16553
3.1801
3.19415
3.20216
3.20151
3.18966
3.14757
3.05018
2.78071
2.2313
1.4068
1.06361
1.02248
1.02273
1.03427
1.04848
1.06135
1.07993
1.10656
1.14558
3.04626
3.07729
3.10375
3.12709
3.14722
3.16522
3.18038
3.19417
3.20321
3.20327
3.19659
3.16736
3.08665
2.8789
2.40913
1.58427
1.11642
1.04707
1.04887
1.06509
1.0856
1.10358
1.12246
1.1464
1.17751
3.04726
3.07629
3.10482
3.12599
3.14838
3.16401
3.18175
3.19291
3.20605
3.20809
3.20605
3.18077
3.12002
2.94333
2.57607
1.82527
1.22206
1.08437
1.07515
1.08703
1.10764
1.13188
1.15399
1.17883
1.20851
3.04551
3.07809
3.10295
3.12792
3.14644
3.166
3.17981
3.19502
3.20458
3.21277
3.20829
3.19365
3.14
3.01903
2.70357
2.02724
1.36025
1.1449
1.11594
1.11909
1.13442
1.15677
1.17883
1.20279
1.231
3.0464
3.07716
3.10391
3.12691
3.14744
3.16497
3.18087
3.19398
3.20611
3.21323
3.21291
3.20203
3.16873
3.07477
2.8522
2.33064
1.5505
1.21763
1.16238
1.15735
1.16795
1.18635
1.20764
1.22929
1.25338
3.04561
3.07803
3.10303
3.12778
3.14655
3.16609
3.17961
3.19536
3.20521
3.21537
3.21543
3.21132
3.18391
3.11596
2.94373
2.53187
1.82574
1.30903
1.19374
1.18317
1.19097
1.21034
1.23461
1.25691
1.27983
3.04568
3.07792
3.10311
3.12775
3.14658
3.16591
3.17988
3.1952
3.20529
3.21662
3.21936
3.21764
3.1991
3.15224
3.02064
2.75525
2.10743
1.47597
1.2574
1.22387
1.22293
1.23569
1.25669
1.27889
1.30064
3.04612
3.07747
3.10358
3.12728
3.14706
3.16542
3.18038
3.19473
3.20583
3.2167
3.22218
3.22166
3.2103
3.1788
3.08867
2.9051
2.38676
1.67524
1.34145
1.27004
1.25945
1.26369
1.27868
1.30058
1.32043
3.04651
3.07707
3.104
3.12685
3.1475
3.16495
3.18085
3.19426
3.20632
3.21652
3.22382
3.22365
3.21816
3.19556
3.13686
2.99074
2.63028
1.95155
1.44309
1.30262
1.28298
1.28562
1.2983
1.31787
1.33766
3.04568
3.07789
3.10312
3.12777
3.14656
3.16587
3.17998
3.19511
3.20552
3.21748
3.22356
3.22729
3.22378
3.20867
3.17236
3.06454
2.84157
2.27145
1.61948
1.36581
1.32031
1.31467
1.32069
1.33629
1.35527
3.04587
3.07768
3.10332
3.12765
3.14668
3.16562
3.1804
3.19458
3.20601
3.21734
3.22458
3.23098
3.22874
3.2208
3.19494
3.12354
2.96512
2.56747
1.90777
1.4621
1.35284
1.33752
1.33977
1.35124
1.3667
3.04603
3.07756
3.10348
3.12737
3.147
3.16543
3.18041
3.1947
3.20604
3.2171
3.22549
3.23248
3.23292
3.22945
3.21361
3.16686
3.05417
2.8019
2.22304
1.63933
1.41894
1.3757
1.36661
1.36712
1.37297
3.04603
3.07756
3.10349
3.12737
3.14699
3.16547
3.18035
3.19477
3.20597
3.21726
3.22545
3.23379
3.23686
3.23594
3.22563
3.19609
3.12162
2.95269
2.51139
1.86285
1.508
1.40943
1.38949
1.38433
1.37957
3.04642
3.07716
3.10391
3.12694
3.14742
3.16504
3.18078
3.19433
3.20641
3.21685
3.22592
3.23382
3.23907
3.23875
3.23322
3.21325
3.16836
3.04766
2.77153
2.18231
1.6408
1.44883
1.40547
1.39102
1.37718
3.04582
3.07777
3.10327
3.12759
3.14675
3.16572
3.1801
3.19502
3.20573
3.21753
3.22531
3.23455
3.23905
3.24178
3.23907
3.22755
3.1988
3.11985
2.94267
2.5055
1.89365
1.53419
1.42502
1.38944
1.35745
3.04596
3.07762
3.10342
3.12743
3.14691
3.16555
3.18028
3.19483
3.20594
3.21732
3.22557
3.2344
3.24005
3.24465
3.24305
3.237
3.22001
3.16738
3.05208
2.78244
2.21023
1.68037
1.46015
1.37861
1.3173
3.04609
3.07748
3.10357
3.12728
3.14707
3.16539
3.18044
3.19466
3.20611
3.21713
3.22578
3.23424
3.24057
3.24608
3.2466
3.24427
3.23335
3.20149
3.12201
2.95367
2.50882
1.87933
1.50854
1.34185
1.24735
3.04625
3.07733
3.10373
3.12712
3.14724
3.16522
3.18062
3.19449
3.20627
3.21698
3.22592
3.23414
3.24077
3.2466
3.24904
3.24783
3.24142
3.21864
3.17215
3.04351
2.75979
2.16266
1.55679
1.26617
1.14752
3.04639
3.07721
3.10385
3.12701
3.14734
3.16511
3.18072
3.19439
3.20636
3.21691
3.22598
3.23412
3.24083
3.24691
3.25044
3.25011
3.24581
3.2287
3.19675
3.08871
2.89053
2.37041
1.65637
1.15991
1.01384
3.04596
3.07765
3.1034
3.12747
3.14689
3.16558
3.18026
3.19485
3.20591
3.21738
3.22547
3.23474
3.24015
3.24779
3.25031
3.25188
3.24931
3.23634
3.20783
3.12688
2.92785
2.51011
1.71604
1.05239
0.874047
3.04616
3.07743
3.10363
3.12722
3.14713
3.16533
3.1805
3.19462
3.20614
3.21712
3.22577
3.23435
3.24064
3.24728
3.25087
3.25192
3.24948
3.23852
3.2143
3.13482
2.9655
2.53652
1.78316
0.97221
0.757989
3.0461
3.07751
3.10356
3.1273
3.14706
3.1654
3.18042
3.1947
3.20607
3.21719
3.22572
3.23439
3.24062
3.24733
3.25104
3.25284
3.25075
3.24113
3.21906
3.14672
2.9934
2.59591
1.87138
0.91466
0.655153
3.04611
3.0775
3.10354
3.12731
3.147
3.16545
3.18033
3.19475
3.20602
3.21721
3.2257
3.23443
3.24058
3.24739
3.25117
3.25352
3.25165
3.24313
3.22264
3.15624
3.0096
2.64867
1.92327
0.944214
0.592154
3.04615
3.07741
3.1036
3.12726
3.14703
3.16545
3.18034
3.19477
3.20601
3.21724
3.22566
3.23448
3.2405
3.24748
3.25129
3.25415
3.25234
3.24508
3.22418
3.16353
3.01458
2.68468
1.94664
0.968936
0.537088
3.04615
3.07748
3.10356
3.12729
3.14704
3.16537
3.18041
3.19467
3.20605
3.21717
3.22573
3.23437
3.24068
3.24734
3.25134
3.25382
3.25208
3.24385
3.22522
3.15921
3.02483
2.66223
1.96632
0.976312
0.516156
3.04608
3.07745
3.10362
3.12721
3.14713
3.16533
3.18044
3.19467
3.20606
3.2172
3.22571
3.23439
3.24071
3.24733
3.25136
3.25436
3.25262
3.24564
3.22651
3.16817
3.02782
2.70931
1.98092
0.997667
0.523329
3.04605
3.07747
3.10361
3.12719
3.14717
3.16527
3.18052
3.19461
3.20613
3.21717
3.22571
3.23447
3.24058
3.24744
3.25134
3.2543
3.25263
3.2457
3.22718
3.16939
3.0327
2.72007
1.9984
1.02221
0.534177
3.04601
3.07753
3.10354
3.12725
3.14714
3.16525
3.1806
3.19452
3.20618
3.21719
3.22566
3.23445
3.24064
3.24738
3.25131
3.25455
3.25278
3.2463
3.22725
3.17197
3.03382
2.73384
2.0103
1.03798
0.54723
3.04602
3.0775
3.10357
3.12721
3.1472
3.16521
3.18063
3.19456
3.20611
3.21729
3.22555
3.23456
3.24054
3.24744
3.2513
3.25444
3.25275
3.24618
3.22788
3.17221
3.03751
2.73469
2.02309
1.05392
0.560636
3.04605
3.07741
3.10371
3.12707
3.14734
3.16515
3.18065
3.19459
3.20611
3.21724
3.22568
3.23444
3.24062
3.2474
3.25132
3.25403
3.25239
3.2449
3.22751
3.16674
3.04086
2.70901
2.03335
1.05763
0.560836
3.04598
3.07753
3.10355
3.12723
3.14716
3.16527
3.18055
3.19462
3.20608
3.21727
3.22559
3.23457
3.24052
3.24744
3.25146
3.25461
3.25286
3.24677
3.22764
3.17368
3.03817
2.74476
2.03628
1.06825
0.583238
3.04602
3.07751
3.10361
3.12721
3.14719
3.16531
3.18047
3.19475
3.20595
3.21737
3.22556
3.23452
3.2406
3.24739
3.25136
3.25417
3.25256
3.24558
3.22788
3.17082
3.04109
2.73306
2.04239
1.06544
0.57887
3.04608
3.07746
3.10365
3.12717
3.14723
3.16526
3.18054
3.19465
3.2061
3.21718
3.22575
3.23437
3.24065
3.24739
3.25122
3.25384
3.25214
3.2446
3.22703
3.16697
3.04175
2.71561
2.04939
1.07155
0.576204
2.96807
2.9515
2.94165
2.93462
2.93028
2.92648
2.92403
2.91921
2.91042
2.88033
2.82408
2.6777
2.32209
1.64951
0.557058
0.191213
0.312059
0.457696
0.502103
0.511593
0.528949
0.559319
0.612774
0.690109
0.848933
2.96824
2.95143
2.94176
2.9346
2.93035
2.92649
2.9241
2.91945
2.91131
2.88476
2.82776
2.6968
2.34571
1.70911
0.64207
0.227786
0.352011
0.483348
0.527231
0.543484
0.569785
0.613762
0.683666
0.781081
0.931731
2.96811
2.95146
2.94168
2.93459
2.93032
2.92648
2.92428
2.92013
2.91241
2.88574
2.83615
2.70642
2.38533
1.77146
0.720419
0.286493
0.396319
0.501492
0.548047
0.571907
0.607081
0.661373
0.738306
0.836155
0.96013
2.96803
2.95163
2.94156
2.93479
2.93016
2.92671
2.92423
2.92077
2.91355
2.8924
2.84199
2.73237
2.41819
1.8469
0.855345
0.37435
0.441228
0.512887
0.564448
0.597459
0.640224
0.699487
0.77596
0.866541
0.974135
2.96784
2.95182
2.94137
2.93499
2.92994
2.92698
2.92388
2.9214
2.91259
2.89663
2.84996
2.73722
2.49138
1.89126
0.972945
0.472523
0.476948
0.528372
0.58062
0.618958
0.667268
0.727696
0.80242
0.88555
0.981489
2.96759
2.95198
2.94117
2.9351
2.92981
2.92702
2.924
2.92177
2.91583
2.89632
2.86056
2.76293
2.52204
2.05033
1.09483
0.578307
0.502845
0.544026
0.595788
0.638536
0.688551
0.747908
0.819913
0.897338
0.984412
2.96796
2.95162
2.94151
2.93477
2.93012
2.92673
2.92433
2.92173
2.91706
2.89995
2.87037
2.78559
2.5831
2.17377
1.2969
0.703062
0.535783
0.564373
0.61237
0.658442
0.708072
0.764587
0.833185
0.906041
0.985116
2.96786
2.95174
2.94139
2.93491
2.92997
2.92692
2.9241
2.92203
2.91673
2.90713
2.87791
2.81095
2.65965
2.27599
1.53848
0.836018
0.594029
0.605523
0.641061
0.684252
0.728852
0.779818
0.842652
0.912048
0.984248
2.96786
2.95173
2.9414
2.9349
2.92999
2.92691
2.92417
2.92224
2.91814
2.91063
2.88591
2.83644
2.71189
2.41774
1.80494
0.989352
0.663791
0.657037
0.680803
0.717432
0.755236
0.798879
0.853305
0.916844
0.983872
2.96801
2.95163
2.94153
2.93481
2.93011
2.92684
2.92433
2.92248
2.91959
2.91352
2.89215
2.85497
2.75044
2.50925
2.01107
1.13654
0.735909
0.698873
0.718803
0.747332
0.780994
0.819464
0.865843
0.921911
0.983185
2.96809
2.95149
2.94165
2.93463
2.93028
2.92662
2.92459
2.92224
2.92034
2.91367
2.90211
2.86572
2.78479
2.59922
2.1407
1.36117
0.848838
0.737196
0.750035
0.772412
0.804535
0.840335
0.880836
0.928793
0.983419
2.9681
2.95151
2.94165
2.93466
2.93027
2.92666
2.92458
2.92237
2.92066
2.91567
2.90688
2.87789
2.81882
2.67148
2.324
1.62352
0.995685
0.791997
0.783883
0.798649
0.827173
0.859478
0.896853
0.93884
0.986076
2.96768
2.9519
2.94125
2.93503
2.92988
2.92704
2.9242
2.92285
2.92074
2.91861
2.90973
2.89303
2.8474
2.73488
2.49648
1.95186
1.17467
0.870218
0.831807
0.837808
0.856644
0.883081
0.913959
0.950776
0.992131
2.96784
2.95173
2.94142
2.93486
2.93005
2.92686
2.9244
2.92269
2.92125
2.91921
2.91423
2.89822
2.86691
2.78438
2.57991
2.16911
1.38447
0.957351
0.868226
0.869684
0.88497
0.910081
0.934497
0.963866
0.999239
2.96776
2.95183
2.94132
2.93498
2.92994
2.92699
2.92428
2.92285
2.92116
2.91984
2.91632
2.90368
2.88208
2.81893
2.66987
2.36075
1.68384
1.10506
0.923727
0.905963
0.913597
0.933506
0.958628
0.981511
1.00881
2.96801
2.9516
2.94155
2.93477
2.93015
2.92679
2.92448
2.92269
2.92138
2.92
2.91774
2.90869
2.89427
2.84633
2.75477
2.52816
2.02493
1.31808
1.00713
0.95058
0.947785
0.958508
0.978673
1.00029
1.02208
2.96813
2.95145
2.94168
2.93461
2.9303
2.92661
2.92465
2.92251
2.92156
2.91993
2.91847
2.91237
2.90226
2.86788
2.80259
2.63847
2.24561
1.55698
1.10136
0.990221
0.980596
0.984916
0.998834
1.01704
1.03392
2.96811
2.95148
2.94165
2.93465
2.93026
2.92664
2.92464
2.92254
2.92154
2.92018
2.91913
2.91622
2.90618
2.88832
2.83798
2.7195
2.46961
1.9048
1.27813
1.05529
1.01909
1.01619
1.02305
1.03546
1.04229
2.96804
2.95156
2.94159
2.93471
2.93021
2.92672
2.92456
2.92261
2.92152
2.92021
2.91937
2.91696
2.91214
2.8958
2.8663
2.78329
2.60438
2.19732
1.50364
1.14023
1.05386
1.04409
1.04456
1.04946
1.0467
2.96801
2.95158
2.94157
2.93473
2.93019
2.92673
2.92454
2.92263
2.92151
2.92027
2.9196
2.91821
2.91493
2.90313
2.88413
2.82554
2.70192
2.42584
1.80876
1.2921
1.10789
1.07298
1.06414
1.05728
1.04454
2.96786
2.95175
2.94141
2.9349
2.93002
2.92692
2.92435
2.92283
2.92132
2.92049
2.91945
2.9187
2.91664
2.90889
2.8967
2.85637
2.77907
2.59198
2.15175
1.50724
1.18731
1.10557
1.08373
1.06331
1.03613
2.96796
2.95162
2.94152
2.93477
2.93014
2.92679
2.92448
2.9227
2.92144
2.92037
2.91959
2.91874
2.91755
2.91271
2.90451
2.87756
2.82629
2.69316
2.39147
1.7964
1.30646
1.14306
1.09842
1.06178
1.00799
2.96805
2.95154
2.9416
2.93469
2.93022
2.92671
2.92456
2.92262
2.92153
2.92029
2.9197
2.91872
2.91796
2.91504
2.90985
2.89164
2.8607
2.7672
2.58761
2.12906
1.51513
1.20737
1.10705
1.03896
0.957445
2.96803
2.95156
2.94158
2.93472
2.9302
2.92674
2.92453
2.92265
2.9215
2.92032
2.91968
2.91881
2.91828
2.91659
2.91323
2.90123
2.88086
2.82025
2.68968
2.39843
1.80116
1.31895
1.11599
0.989814
0.883404
2.96796
2.95164
2.94151
2.93479
2.93013
2.92681
2.92447
2.92271
2.92144
2.92038
2.91963
2.9189
2.91843
2.91758
2.91525
2.90716
2.89427
2.85243
2.77172
2.57326
2.12986
1.48578
1.1159
0.916282
0.804639
2.96789
2.95171
2.94144
2.93487
2.93005
2.92689
2.92439
2.9228
2.92135
2.92049
2.91952
2.91904
2.91828
2.91778
2.9159
2.91211
2.90052
2.87551
2.81597
2.66445
2.35096
1.74469
1.10726
0.821183
0.720513
2.96795
2.95164
2.9415
2.9348
2.93012
2.92682
2.92445
2.92273
2.92141
2.92042
2.91959
2.91897
2.91839
2.91784
2.91689
2.91295
2.90593
2.88379
2.83788
2.72188
2.44961
1.88926
1.09688
0.686502
0.582601
2.96793
2.95168
2.94148
2.93483
2.93009
2.92685
2.92442
2.92277
2.92138
2.92046
2.91955
2.91902
2.91834
2.91797
2.91694
2.91471
2.90689
2.89207
2.85026
2.7481
2.52632
1.96459
1.11352
0.536703
0.393867
2.96796
2.95165
2.9415
2.93482
2.93009
2.92685
2.92441
2.92278
2.92137
2.92046
2.91955
2.91902
2.91835
2.918
2.91712
2.91516
2.90771
2.8951
2.85613
2.76597
2.56434
2.0435
1.18064
0.441681
0.208253
2.96805
2.95155
2.9416
2.9347
2.9302
2.92672
2.92453
2.92264
2.9215
2.92033
2.91968
2.91888
2.91849
2.91783
2.91724
2.91461
2.91022
2.89409
2.86451
2.78084
2.57606
2.15535
1.26631
0.424558
0.109679
2.96805
2.95154
2.94159
2.9347
2.9302
2.92672
2.92454
2.92264
2.92151
2.92031
2.91969
2.91887
2.9185
2.91781
2.91732
2.91498
2.91081
2.89723
2.86727
2.79241
2.59563
2.20689
1.38963
0.414579
0.0750163
2.96802
2.95159
2.94157
2.93473
2.93018
2.92674
2.92452
2.92265
2.92148
2.92034
2.91966
2.9189
2.91847
2.91794
2.91746
2.91582
2.91067
2.8994
2.87153
2.79638
2.63877
2.211
1.43606
0.394607
0.116388
2.96803
2.95156
2.94159
2.9347
2.93021
2.92672
2.92454
2.92263
2.9215
2.92032
2.91969
2.91887
2.9185
2.91784
2.91731
2.91508
2.91123
2.89712
2.87207
2.79961
2.62875
2.26822
1.49505
0.430859
0.111872
2.96803
2.95156
2.94159
2.9347
2.93021
2.92671
2.92455
2.92263
2.92151
2.92032
2.91968
2.91888
2.91849
2.91783
2.91729
2.91502
2.91125
2.89674
2.87303
2.799
2.64085
2.2819
1.52341
0.456131
0.103049
2.96802
2.95156
2.94158
2.9347
2.93021
2.92671
2.92455
2.92263
2.92151
2.92033
2.91968
2.91887
2.9185
2.91783
2.9173
2.91512
2.91136
2.89763
2.87332
2.80299
2.63762
2.28741
1.53852
0.464458
0.100158
2.96801
2.95156
2.94159
2.9347
2.93022
2.92671
2.92456
2.92263
2.9215
2.92033
2.91968
2.91887
2.9185
2.91783
2.91733
2.91519
2.9115
2.89792
2.87431
2.80457
2.64261
2.29981
1.55461
0.490679
0.078418
2.96801
2.95156
2.94158
2.93471
2.9302
2.92674
2.92451
2.92268
2.92146
2.92036
2.91965
2.91891
2.91846
2.91793
2.91746
2.91595
2.91101
2.90073
2.87475
2.8061
2.66341
2.27012
1.55299
0.477347
0.0949588
2.968
2.95157
2.94158
2.93469
2.93021
2.92671
2.92455
2.92263
2.9215
2.92032
2.91968
2.91888
2.9185
2.91783
2.9174
2.91538
2.91165
2.90015
2.87357
2.81027
2.63983
2.30066
1.5702
0.495769
0.0717437
2.968
2.95159
2.94154
2.93475
2.93014
2.92678
2.92447
2.92271
2.92143
2.92039
2.91962
2.91894
2.91844
2.91796
2.91745
2.91592
2.91032
2.90082
2.87189
2.80624
2.65887
2.27887
1.57175
0.473425
0.0905875
2.96801
2.95158
2.94155
2.93474
2.93015
2.92678
2.92447
2.92271
2.92143
2.92039
2.91962
2.91895
2.91843
2.91797
2.91746
2.91592
2.91029
2.90072
2.8715
2.80661
2.65836
2.28285
1.57186
0.475035
0.0990768
2.98652
2.96944
2.95183
2.93471
2.92
2.90651
2.89505
2.8832
2.86809
2.82999
2.76283
2.59344
2.21549
1.47874
0.365621
0.321567
0.304726
0.443253
0.479512
0.49707
0.521903
0.567778
0.64297
0.740256
0.911267
2.98651
2.96945
2.95182
2.93472
2.91999
2.90653
2.89508
2.88339
2.86881
2.83255
2.76916
2.60793
2.24768
1.54245
0.444268
0.285551
0.338702
0.467313
0.507701
0.533201
0.56846
0.624068
0.710471
0.821722
0.985397
2.9857
2.97025
2.95102
2.93552
2.91916
2.90741
2.89414
2.88476
2.86826
2.84156
2.77162
2.62159
2.30874
1.60557
0.570352
0.264425
0.373901
0.487434
0.530251
0.562854
0.609533
0.674443
0.763564
0.871806
1.00472
2.98593
2.97003
2.95125
2.93531
2.91939
2.90721
2.89445
2.88485
2.87005
2.8452
2.78035
2.64303
2.3537
1.68103
0.670391
0.286559
0.410497
0.50265
0.54921
0.589165
0.644699
0.715003
0.800872
0.899111
1.00988
2.98571
2.97025
2.95105
2.93548
2.91927
2.90729
2.89455
2.88471
2.87159
2.84634
2.79221
2.6777
2.36661
1.80639
0.770493
0.344569
0.436099
0.506287
0.564
0.611722
0.673275
0.74573
0.826482
0.914841
1.00955
2.98647
2.96949
2.9518
2.93473
2.92001
2.90656
2.89529
2.88416
2.872
2.84594
2.80197
2.68596
2.42158
1.9054
0.883059
0.430337
0.43787
0.50807
0.575682
0.629998
0.693686
0.766253
0.844487
0.924838
1.00949
2.98668
2.96928
2.952
2.93454
2.92019
2.90639
2.8955
2.88419
2.87318
2.85018
2.81206
2.71035
2.48256
2.02539
1.06936
0.540742
0.437802
0.504729
0.583717
0.644024
0.708576
0.780346
0.856525
0.932281
1.00888
2.98665
2.9693
2.95196
2.93457
2.92016
2.90642
2.89552
2.8844
2.87444
2.85562
2.82289
2.74086
2.54795
2.17059
1.30392
0.667409
0.463233
0.515323
0.594187
0.655409
0.719208
0.788832
0.864247
0.936549
1.00763
2.98688
2.96908
2.95218
2.93436
2.92036
2.90623
2.89577
2.88437
2.87572
2.85994
2.83392
2.76614
2.61764
2.31376
1.63322
0.804658
0.520669
0.557225
0.615965
0.671326
0.729542
0.794726
0.867225
0.939096
1.00579
2.98634
2.96962
2.95165
2.93489
2.91982
2.9068
2.89518
2.88525
2.87551
2.86386
2.8367
2.78988
2.66714
2.39643
1.83411
0.911101
0.581864
0.598959
0.638932
0.689876
0.74262
0.800708
0.868033
0.937182
1.00352
2.98682
2.96914
2.95212
2.93444
2.92027
2.90637
2.89562
2.88493
2.87631
2.86566
2.84577
2.80487
2.71454
2.47581
2.03153
1.12614
0.688309
0.625324
0.658859
0.70616
0.753978
0.806456
0.86743
0.933238
0.99738
2.98667
2.9693
2.95198
2.93458
2.92014
2.90649
2.89555
2.88504
2.87669
2.86683
2.85296
2.8143
2.74519
2.56909
2.17697
1.41366
0.818631
0.656008
0.680436
0.719137
0.765898
0.813071
0.867604
0.92827
0.989726
2.98641
2.96955
2.95173
2.93482
2.91991
2.90672
2.89533
2.88533
2.87667
2.8682
2.85705
2.82899
2.77689
2.64738
2.35859
1.71958
0.977388
0.719038
0.715626
0.738405
0.778646
0.822691
0.870132
0.923163
0.981134
2.98725
2.96872
2.95253
2.93404
2.92066
2.90601
2.89602
2.88474
2.87736
2.86844
2.85964
2.84091
2.79765
2.69862
2.496
1.96339
1.14762
0.788609