/*--------------------------------*- C++ -*----------------------------------*\
  =========                 |
  \\      /  F ield         | OpenFOAM: The Open Source CFD Toolbox
   \\    /   O peration     | Website:  https://openfoam.org
    \\  /    A nd           | Version:  6
     \\/     M anipulation  |
\*---------------------------------------------------------------------------*/
FoamFile
{
    version     2.0;
    format      ascii;
    class       volScalarField;
    location    "6.5";
    object      p;
}
// * * * * * * * * * * * * * * * * * * * * * * * * * * * * * * * * * * * * * //

dimensions      [1 -1 -2 0 0 0 0];

internalField   nonuniform List<scalar> 
26250
(
0.957657
0.911022
0.875203
0.843979
0.820426
0.797085
0.782839
0.76398
0.76418
0.775323
0.785355
0.9177
1.05343
1.95661
3.73616
8.63042
8.29373
7.47352
6.88814
6.82831
6.84944
6.94832
7.20416
7.73124
8.44398
0.957656
0.91102
0.875203
0.843975
0.820431
0.797078
0.782848
0.763956
0.764151
0.775193
0.785168
0.91695
1.05191
1.95197
3.72246
8.61176
8.27344
7.4484
6.86073
6.80061
6.84512
6.97289
7.24651
7.73919
8.45713
0.95765
0.91102
0.875202
0.843971
0.820442
0.797063
0.782873
0.763891
0.764069
0.774888
0.784728
0.915538
1.04904
1.94518
3.70202
8.58752
8.22807
7.3866
6.82193
6.77599
6.83044
6.975
7.26841
7.73707
8.4468
0.95761
0.911064
0.87518
0.844005
0.820427
0.797074
0.782874
0.763774
0.763902
0.773626
0.783011
0.911407
1.04241
1.93015
3.66892
8.49008
8.15823
7.35553
6.80404
6.76899
6.81354
6.95323
7.25238
7.72585
8.43074
0.957476
0.911245
0.875068
0.844146
0.8203
0.797249
0.782639
0.76431
0.763885
0.768123
0.806168
0.845544
1.16082
1.70596
3.72616
8.32495
8.05709
7.30152
6.76476
6.72614
6.77259
6.91237
7.21435
7.69669
8.41328
0.957561
0.911115
0.875153
0.844042
0.820417
0.797072
0.782896
0.76352
0.763567
0.771424
0.780007
0.902182
1.02549
1.88311
3.54579
8.19598
7.93415
7.2528
6.7076
6.66064
6.70927
6.85106
7.15434
7.63895
8.38112
0.957489
0.911223
0.875078
0.844138
0.820292
0.797278
0.782523
0.764353
0.762945
0.766202
0.803298
0.839259
1.13919
1.64801
3.56916
7.9647
7.77533
7.15936
6.63234
6.57857
6.6273
6.76616
7.06212
7.53989
8.31186
0.957586
0.911084
0.875198
0.843963
0.820517
0.796903
0.783069
0.763029
0.762948
0.770611
0.778672
0.893647
1.00579
1.81611
3.33359
7.77117
7.59756
7.0789
6.54383
6.47841
6.52353
6.652
6.92726
7.37579
8.16402
0.95763
0.911029
0.87523
0.843905
0.820568
0.796827
0.783146
0.762908
0.762772
0.770224
0.777886
0.887874
0.993794
1.76959
3.19883
7.49835
7.3863
6.97384
6.44023
6.35812
6.39604
6.50461
6.73814
7.11173
7.8519
0.957729
0.910914
0.875269
0.843905
0.820491
0.797001
0.782899
0.763568
0.763709
0.767687
0.774267
0.877717
0.973229
1.72775
3.07126
7.20103
7.15043
6.85577
6.33437
6.22751
6.25259
6.32623
6.48253
6.7067
7.18109
1.03456
1.06945
1.09337
1.10984
1.12285
1.13228
1.14044
1.14853
1.16226
1.20436
1.26397
1.5215
1.94978
3.59925
8.00256
18.1286
16.1174
14.2328
13.6409
13.8156
13.805
13.9568
14.3476
14.8431
15.2668
1.03456
1.06945
1.09338
1.10983
1.12285
1.13228
1.14044
1.14852
1.16221
1.20424
1.2636
1.52082
1.94757
3.59384
7.98439
18.0784
16.064
14.1688
13.5625
13.6441
13.7972
13.9906
14.3511
14.7988
15.2331
1.03456
1.06945
1.09337
1.10983
1.12285
1.13227
1.14045
1.14848
1.1621
1.20384
1.263
1.5182
1.94297
3.5776
7.94083
18.0525
15.9362
14.0456
13.4705
13.5634
13.7502
13.9454
14.2894
14.682
15.1299
1.03454
1.06946
1.09336
1.10984
1.12285
1.13227
1.14045
1.1484
1.16187
1.20317
1.26179
1.51417
1.93549
3.55401
7.87496
17.8305
15.7865
13.9101
13.3971
13.5698
13.6454
13.8138
14.1396
14.4893
14.948
1.03448
1.06952
1.09332
1.1099
1.12281
1.13232
1.14037
1.14823
1.16068
1.2034
1.25219
1.5165
1.90652
3.51835
7.8097
17.5572
15.585
13.7366
13.2449
13.3839
13.4951
13.6392
13.9295
14.2402
14.7083
1.03452
1.06948
1.09336
1.10985
1.12286
1.13225
1.14046
1.14817
1.16123
1.20104
1.25815
1.50032
1.90815
3.46207
7.60635
17.266
15.3489
13.528
13.0521
13.1825
13.3044
13.4221
13.6674
13.9283
14.3966
1.03449
1.06951
1.09333
1.10988
1.12282
1.13228
1.14038
1.14794
1.16
1.20075
1.24764
1.49978
1.86846
3.398
7.43636
16.8701
15.0767
13.2858
12.8206
12.9278
13.0702
13.1558
13.3424
13.5357
13.9807
1.03454
1.06944
1.09339
1.1098
1.12291
1.13216
1.14051
1.14786
1.16035
1.19796
1.25266
1.47901
1.86142
3.3058
7.13643
16.4696
14.778
13.0204
12.559
12.6501
12.7809
12.8275
12.9406
13.0393
13.4124
1.03458
1.0694
1.09342
1.10975
1.12295
1.1321
1.14054
1.14769
1.15984
1.19606
1.24929
1.46596
1.83102
3.21249
6.83854
15.9194
14.4306
12.7354
12.2727
12.3433
12.439
12.4353
12.4458
12.3994
12.5951
1.0346
1.06937
1.09346
1.1097
1.123
1.13204
1.14057
1.14756
1.15914
1.19434
1.2411
1.45921
1.78124
3.15505
6.53019
15.308
14.0149
12.4166
11.9633
12.0093
12.0456
11.9887
11.8542
11.5486
11.3484
1.00891
1.0318
1.05927
1.08753
1.11318
1.13839
1.15845
1.18267
1.20305
1.25761
1.33507
1.6438
2.15809
4.09294
9.46684
21.2634
18.3921
16.2552
15.6645
15.8224
15.9703
16.0997
16.4565
16.8428
17.145
1.00891
1.0318
1.05927
1.08753
1.11318
1.13838
1.15846
1.18264
1.2031
1.25714
1.33581
1.64124
2.15988
4.08842
9.46184
21.1631
18.3233
16.1973
15.6415
15.8243
15.9676
16.0574
16.3965
16.7515
17.058
1.00891
1.0318
1.05927
1.08753
1.11318
1.13839
1.15845
1.18265
1.20291
1.25719
1.33404
1.64108
2.15159
4.0741
9.403
21.0241
18.1872
16.0674
15.5644
15.8001
15.916
15.9469
16.2443
16.5376
16.8469
1.0089
1.0318
1.05927
1.08753
1.11319
1.13838
1.15846
1.18259
1.20283
1.25631
1.33385
1.6358
2.14687
4.04957
9.33283
20.8579
17.9964
15.881
15.4256
15.7007
15.7929
15.7717
16.0146
16.2383
16.5418
1.0089
1.0318
1.05927
1.08752
1.1132
1.13837
1.15846
1.18252
1.20267
1.25515
1.33302
1.62858
2.13743
4.01077
9.21229
20.5823
17.7506
15.6527
15.2401
15.5497
15.6175
15.5546
15.7258
15.8721
16.1626
1.00891
1.03179
1.05928
1.08752
1.1132
1.13836
1.15845
1.18247
1.20227
1.25423
1.32983
1.62184
2.11628
3.95018
9.00962
20.2246
17.4677
15.3869
15.0027
15.3173
15.3946
15.2898
15.376
15.4349
15.6953
1.00892
1.03178
1.05929
1.0875
1.11321
1.13835
1.15843
1.1824
1.2019
1.25249
1.32709
1.61006
2.09263
3.86823
8.74899
19.8029
17.1517
15.0874
14.7202
15.0187
15.1075
14.9657
14.9539
14.9042
15.105
1.00894
1.03176
1.0593
1.08748
1.11321
1.13835
1.15838
1.18235
1.20132
1.25082
1.32242
1.59815
2.05974
3.77072
8.43666
19.3022
16.7951
14.7547
14.3968
14.6542
14.7431
14.5715
14.4546
14.2664
14.3575
1.00896
1.03173
1.05933
1.08745
1.11323
1.13832
1.15837
1.18224
1.2008
1.24842
1.31876
1.58222
2.02849
3.66279
8.094
18.7048
16.3882
14.3914
14.0405
14.2524
14.3106
14.1021
13.8602
13.4826
13.3588
1.00897
1.0317
1.05939
1.08735
1.11338
1.13812
1.15855
1.18192
1.19979
1.24646
1.312
1.5699
1.98676
3.5589
7.7357
17.9888
15.9182
14.0001
13.6584
13.8238
13.8232
13.5675
13.1636
12.5268
11.9916
1.03453
1.06947
1.09335
1.10985
1.12283
1.13229
1.14043
1.14849
1.16213
1.2041
1.26349
1.52061
1.9496
3.60115
8.03014
18.1884
16.1047
14.1833
13.5519
13.6218
13.7898
14.0033
14.3862
14.8535
15.3126
1.03447
1.06953
1.0933
1.10992
1.12278
1.13235
1.14035
1.14838
1.16111
1.20505
1.25507
1.52758
1.93072
3.59708
8.07453
18.1902
16.0276
14.1427
13.5886
13.7774
13.7785
13.9304
14.3211
14.7901
15.2413
1.0345
1.06948
1.09334
1.10987
1.12283
1.13229
1.14044
1.14842
1.16194
1.2035
1.26254
1.51696
1.94367
3.58123
7.97904
18.0053
15.937
14.0588
13.5373
13.7169
13.7327
13.8689
14.2229
14.6489
15.0921
1.03446
1.06953
1.0933
1.10992
1.12279
1.13234
1.14037
1.14831
1.16092
1.20419
1.25385
1.52222
1.91984
3.55983
7.95238
17.7904
15.778
13.9187
13.4038
13.5183
13.6349
13.7857
14.091
14.4493
14.9011
1.03445
1.06954
1.0933
1.10992
1.1228
1.13233
1.14038
1.14822
1.16075
1.20337
1.25267
1.51708
1.90886
3.52278
7.83953
17.5335
15.5728
13.74
13.2581
13.411
13.4997
13.6361
13.9014
14.1993
14.6612
1.03447
1.06952
1.09332
1.1099
1.12281
1.13231
1.14037
1.1481
1.16044
1.20226
1.25056
1.50958
1.89184
3.46894
7.66567
17.2329
15.3373
13.5304
13.0582
13.1775
13.315
13.4271
13.6497
13.8909
14.3526
1.03454
1.06944
1.09339
1.1098
1.12291
1.13217
1.1405
1.14805
1.16085
1.19977
1.2556
1.4915
1.88642
3.3917
7.38308
16.9029
15.0846
13.2949
12.8266
12.9318
13.0791
13.1598
13.3278
13.5012
13.9407
1.03457
1.06941
1.09342
1.10975
1.12294
1.13212
1.14052
1.14789
1.16038
1.19808
1.25259
1.47961
1.85994
3.30351
7.11862
16.431
14.7924
13.0318
12.5646
12.6553
12.7874
12.83
12.9279
13.0076
13.3773
1.03458
1.0694
1.09343
1.10973
1.12296
1.13208
1.14054
1.14769
1.15985
1.1961
1.24927
1.46629
1.83075
3.21379
6.83798
15.94
14.4371
12.7384
12.2758
12.347
12.4432
12.4369
12.4345
12.3708
12.5655
1.03457
1.06939
1.09344
1.10971
1.123
1.13203
1.14059
1.14752
1.15909
1.1943
1.24114
1.45942
1.7818
3.15586
6.53126
15.3088
14.0134
12.4142
11.9656
12.0131
12.0503
11.9916
11.8478
11.5235
11.3231
0.957603
0.911062
0.875169
0.84401
0.820412
0.797094
0.782853
0.763859
0.764011
0.774101
0.783761
0.915172
1.05025
1.95783
3.76191
8.67329
8.3007
7.4179
6.82948
6.77435
6.82485
6.96496
7.25646
7.73526
8.44157
0.957463
0.911258
0.875047
0.844161
0.820272
0.797283
0.782608
0.76443
0.764325
0.767811
0.809175
0.849299
1.18073
1.75459
3.86965
8.63907
8.28264
7.38593
6.842
6.80564
6.83315
6.94569
7.22059
7.73541
8.43392
0.957561
0.911104
0.875147
0.844043
0.820402
0.797108
0.782858
0.763782
0.763902
0.773001
0.782378
0.911088
1.04248
1.94193
3.73579
8.59566
8.23456
7.38314
6.83796
6.79962
6.82768
6.93755
7.20586
7.73019
8.42173
0.957434
0.911276
0.875043
0.844166
0.820299
0.797241
0.782702
0.764219
0.764433
0.767877
0.810429
0.851569
1.17566
1.73246
3.79803
8.43907
8.14542
7.34376
6.80876
6.76331
6.80478
6.92914
7.20416
7.71041
8.41941
0.957425
0.911288
0.875042
0.844176
0.820299
0.79723
0.782729
0.764062
0.764473
0.767834
0.810327
0.850712
1.16827
1.69994
3.74653
8.30161
8.03595
7.2855
6.76651
6.72719
6.76967
6.89954
7.18171
7.67185
8.40776
0.957453
0.911258
0.875058
0.844156
0.820294
0.79726
0.782613
0.764313
0.763843
0.767204
0.807337
0.845825
1.15548
1.67686
3.66948
8.14985
7.91725
7.22534
6.70566
6.66016
6.7074
6.842
7.12896
7.6115
8.37535
0.957588
0.911068
0.8752
0.843952
0.82052
0.796902
0.783069
0.763082
0.763084
0.771744
0.780548
0.900234
1.01903
1.85362
3.43947
7.99689
7.77653
7.17174
6.63104
6.57438
6.62243
6.7562
7.03882
7.51276
8.30284
0.957621
0.911028
0.875237
0.843889
0.820584
0.796801
0.783159
0.762905
0.762876
0.771332
0.779677
0.895105
1.00726
1.8152
3.32057
7.76243
7.59779
7.08879
6.54325
6.47428
6.51833
6.64211
6.90555
7.34995
8.15137
0.957623
0.911027
0.875233
0.843886
0.820584
0.796794
0.783168
0.762856
0.762783
0.770138
0.777893
0.888012
0.993865
1.77005
3.19939
7.50343
7.3902
6.97617
6.44065
6.35763
6.39409
6.49786
6.72042
7.09027
7.83638
0.957633
0.911011
0.875208
0.843948
0.82049
0.796954
0.782986
0.763085
0.76263
0.767858
0.774835
0.878021
0.973628
1.72782
3.07149
7.20097
7.14852
6.85096
6.33308
6.22782
6.25184
6.32175
6.46985
6.68926
7.16457
0.957513
0.911247
0.875013
0.844252
0.820069
0.797605
0.781915
0.764867
0.759945
0.76206
0.792099
0.818858
1.07644
1.46094
3.08052
6.80251
6.90359
6.68183
6.22473
6.09147
6.09817
6.12024
6.12418
6.04417
5.50414
0.957757
0.910908
0.875192
0.844078
0.820169
0.79753
0.78196
0.764678
0.759872
0.763759
0.769361
0.860209
0.94342
1.61101
2.78332
6.43815
6.66604
6.48402
6.10345
5.95663
5.93295
5.89649
5.80837
5.58157
4.98969
0.957484
0.911308
0.874929
0.844376
0.819897
0.797819
0.78158
0.764994
0.758528
0.760637
0.784022
0.805314
1.0334
1.3371
2.75545
5.95546
6.40574
6.27821
5.98973
5.83387
5.77469
5.7
5.56013
5.30334
4.79694
0.957691
0.911031
0.875026
0.844302
0.819838
0.797989
0.781217
0.765481
0.757007
0.760364
0.765245
0.842468
0.912411
1.46101
2.41436
5.46012
6.14747
6.07581
5.88873
5.72004
5.6288
5.52031
5.35106
5.08828
4.67231
0.957625
0.911134
0.87489
0.844507
0.819546
0.798423
0.780567
0.766216
0.755143
0.758059
0.762022
0.829088
0.888985
1.36749
2.17216
4.90126
5.92598
5.90016
5.7955
5.61971
5.49953
5.36794
5.18451
4.92965
4.57181
0.957338
0.911537
0.874627
0.844857
0.81923
0.798812
0.780056
0.76666
0.75333
0.754013
0.769345
0.782257
0.935046
1.11208
2.06452
4.16665
5.75315
5.78686
5.71796
5.55659
5.39264
5.23925
5.05305
4.80885
4.49338
0.957299
0.911585
0.874562
0.844974
0.819076
0.79905
0.779692
0.767054
0.752047
0.75241
0.764112
0.774152
0.895133
1.02803
1.77477
3.31037
5.59556
5.74141
5.67195
5.50041
5.29984
5.13007
4.94526
4.71461
4.43062
0.957333
0.91155
0.874536
0.845022
0.818963
0.799227
0.779411
0.767365
0.751305
0.751508
0.759673
0.769993
0.857424
0.960363
1.55047
2.55068
5.26625
5.65742
5.59641
5.43807
5.21512
5.03438
4.85257
4.63659
4.37875
0.957371
0.911499
0.874572
0.844962
0.819003
0.799185
0.779394
0.767395
0.750582
0.750541
0.754004
0.760935
0.829504
0.903854
1.37378
2.18281
4.6628
5.48175
5.45919
5.3592
5.14678
4.95169
4.76991
4.56916
4.33696
0.95751
0.91127
0.874791
0.844633
0.819441
0.798509
0.780398
0.765695
0.752752
0.744258
0.745287
0.76264
0.777034
0.927954
1.11242
2.00172
3.90394
5.24636
5.31452
5.25613
5.10519
4.89003
4.70333
4.51253
4.29964
0.957375
0.911428
0.87478
0.844582
0.819637
0.798148
0.780967
0.764772
0.753795
0.741526
0.743315
0.745874
0.789054
0.829661
1.10948
1.57598
3.07175
4.99829
5.22008
5.17714
5.05701
4.84368
4.65443
4.46949
4.27095
0.957449
0.911305
0.874878
0.844464
0.819771
0.797984
0.781171
0.764469
0.754024
0.740406
0.740525
0.747012
0.75431
0.834903
0.910227
1.43929
2.24845
4.53324
5.11062
5.09118
5.01051
4.83053
4.62461
4.43777
4.24898
0.957354
0.911443
0.874778
0.844587
0.819642
0.798162
0.780917
0.764826
0.753329
0.740956
0.736968
0.738513
0.757754
0.774821
0.927621
1.1271
1.99969
3.79074
4.91416
4.99481
4.94731
4.8172
4.59978
4.41099
4.23244
0.957336
0.911484
0.874713
0.844701
0.819473
0.798414
0.780541
0.765362
0.752458
0.741803
0.733633
0.734347
0.747479
0.758084
0.868581
0.989593
1.62919
2.87026
4.63197
4.91266
4.88312
4.78814
4.59435
4.40051
4.22502
0.957381
0.911434
0.874702
0.844733
0.819374
0.798582
0.780271
0.765771
0.751816
0.742504
0.731495
0.731725
0.739143
0.745851
0.821115
0.89256
1.35807
2.10213
4.07957
4.77354
4.77585
4.7297
4.60322
4.40357
4.22731
0.957418
0.911385
0.874721
0.844721
0.81936
0.798625
0.780185
0.765915
0.751558
0.742782
0.73044
0.730413
0.733642
0.738762
0.788266
0.83885
1.15886
1.6733
3.26657
4.53642
4.70659
4.67837
4.59331
4.41632
4.23751
0.957337
0.911491
0.87468
0.844762
0.81937
0.798571
0.780315
0.765661
0.751988
0.741981
0.731512
0.727487
0.729002
0.732979
0.763097
0.804147
0.995005
1.33501
2.32494
4.19143
4.62486
4.6179
4.56913
4.44747
4.26313
0.957358
0.911452
0.874718
0.84471
0.819448
0.798443
0.780519
0.765329
0.752499
0.741074
0.732668
0.723575
0.724535
0.725992
0.747666
0.770329
0.90589
1.11824
1.8686
3.44289
4.43772
4.56202
4.53715
4.46173
4.30891
0.957385
0.911413
0.874751
0.844655
0.819507
0.79837
0.780602
0.76523
0.752605
0.740956
0.732486
0.723327
0.72098
0.722264
0.734132
0.746104
0.84247
0.949995
1.49216
2.50729
4.0966
4.48757
4.48757
4.45984
4.38494
0.957392
0.911411
0.874741
0.844666
0.819476
0.798422
0.78051
0.765389
0.752333
0.741395
0.731673
0.724189
0.717404
0.717776
0.725062
0.731525
0.795686
0.852488
1.24155
1.80697
3.42711
4.32177
4.46728
4.46439
4.44802
0.957425
0.91137
0.874758
0.844656
0.819465
0.798452
0.780447
0.765494
0.75216
0.741655
0.731237
0.724652
0.715807
0.715802
0.719544
0.724281
0.76233
0.807012
1.03879
1.42101
2.54594
4.0088
4.41372
4.48945
4.53016
0.957361
0.911457
0.874714
0.844707
0.81944
0.798467
0.780453
0.765456
0.752237
0.741495
0.731496
0.724134
0.716383
0.713685
0.714891
0.71777
0.741136
0.770022
0.913241
1.14998
1.89169
3.36582
4.27717
4.54173
4.68943
0.957373
0.911438
0.874734
0.844682
0.819474
0.798419
0.780524
0.765345
0.752405
0.741225
0.731905
0.723435
0.717169
0.711019
0.711327
0.712855
0.726797
0.742507
0.839222
0.962798
1.49632
2.50874
3.99275
4.60965
4.96933
0.957396
0.911407
0.874751
0.844657
0.819493
0.798395
0.780551
0.765314
0.752444
0.741182
0.731949
0.723363
0.717113
0.710393
0.708407
0.709283
0.71737
0.725438
0.790838
0.854893
1.23462
1.82272
3.4142
4.70503
5.43533
0.957421
0.911378
0.874762
0.844643
0.819492
0.798401
0.780529
0.765356
0.752376
0.741298
0.731764
0.72365
0.716608
0.710898
0.706358
0.706778
0.711565
0.717717
0.757363
0.807265
1.04701
1.4469
2.60902
4.79475
6.10261
0.957431
0.911368
0.874763
0.844646
0.81948
0.79842
0.780497
0.765404
0.752302
0.741406
0.731603
0.72388
0.716245
0.711299
0.705143
0.705251
0.708319
0.712922
0.740542
0.782309
0.955548
1.27642
2.32341
4.67879
6.74793
0.957382
0.911436
0.874726
0.844691
0.819448
0.798452
0.780467
0.765431
0.752272
0.741432
0.731573
0.723902
0.716213
0.711281
0.704876
0.704438
0.705814
0.708675
0.732966
0.759582
0.924452
1.16987
2.17724
4.47638
7.22911
0.957396
0.911412
0.874741
0.844676
0.819462
0.798441
0.780478
0.765421
0.752282
0.741421
0.731584
0.723889
0.716226
0.711235
0.70492
0.704086
0.705272
0.70853
0.728589
0.756409
0.900354
1.1318
2.07277
4.29226
7.5859
0.957394
0.911415
0.874739
0.844675
0.819465
0.798434
0.780491
0.765404
0.75231
0.741384
0.73164
0.723807
0.716345
0.711038
0.70514
0.703345
0.704307
0.706879
0.725401
0.74921
0.880051
1.08668
1.95409
4.03076
7.88335
0.957396
0.911412
0.874741
0.844671
0.81947
0.798427
0.780502
0.765386
0.752338
0.741342
0.731704
0.723711
0.716482
0.710836
0.705362
0.702763
0.70355
0.70566
0.72307
0.742491
0.870491
1.0339
1.91368
3.6983
8.07607
0.957403
0.911401
0.874748
0.844664
0.819475
0.798421
0.78051
0.765375
0.752356
0.741312
0.731753
0.723639
0.716582
0.710695
0.705506
0.702271
0.702905
0.704513
0.721705
0.737487
0.86536
1.00456
1.86382
3.54962
8.08601
0.957401
0.911404
0.874745
0.844663
0.819478
0.798416
0.780518
0.765368
0.752364
0.741311
0.731746
0.723663
0.716541
0.71075
0.705443
0.702446
0.703137
0.705295
0.721002
0.740848
0.857172
1.01462
1.82409
3.48224
8.01353
0.957395
0.911403
0.874754
0.844656
0.819487
0.79841
0.780525
0.765359
0.752376
0.741297
0.731759
0.723649
0.716564
0.710692
0.705538
0.702132
0.70268
0.704208
0.720081
0.735224
0.85529
0.982306
1.80444
3.384
7.89378
0.95739
0.911408
0.874754
0.844657
0.81949
0.798409
0.780528
0.765355
0.752384
0.741281
0.731782
0.723617
0.716601
0.710653
0.705579
0.702093
0.702634
0.704214
0.719546
0.734637
0.851459
0.974235
1.77947
3.30968
7.76763
0.957383
0.911417
0.874748
0.844662
0.81949
0.798405
0.780534
0.765351
0.752385
0.741285
0.731775
0.723622
0.716605
0.710631
0.705618
0.701969
0.702445
0.703764
0.719352
0.733228
0.850027
0.96734
1.76454
3.25885
7.64483
0.957384
0.911413
0.874752
0.844657
0.819494
0.798403
0.780534
0.765354
0.752379
0.741292
0.73177
0.723624
0.716604
0.710638
0.705608
0.701995
0.70248
0.703906
0.718909
0.732977
0.847545
0.963053
1.7461
3.21
7.53702
0.957387
0.911403
0.874763
0.844649
0.8195
0.798403
0.78053
0.765361
0.75237
0.7413
0.731762
0.723632
0.716589
0.710676
0.705541
0.702215
0.702797
0.704704
0.719106
0.736769
0.844237
0.980037
1.72975
3.19928
7.46287
0.95738
0.911418
0.874751
0.84466
0.819491
0.798408
0.780527
0.765359
0.752374
0.741287
0.731785
0.723592
0.716644
0.710596
0.705626
0.701874
0.702333
0.703571
0.718938
0.732169
0.846245
0.959812
1.73297
3.16642
7.38451
0.957384
0.911414
0.874752
0.84466
0.819488
0.798413
0.780518
0.765372
0.752356
0.741316
0.731744
0.72365
0.716574
0.710682
0.705543
0.702142
0.702691
0.704401
0.71891
0.734567
0.844224
0.967081
1.72233
3.15954
7.34928
0.95739
0.911407
0.874754
0.844656
0.819486
0.798414
0.780514
0.765378
0.752346
0.741335
0.731716
0.723695
0.716513
0.71077
0.70546
0.702393
0.703003
0.704898
0.71939
0.736898
0.843477
0.977359
1.7139
3.15329
7.33124
1.0345
1.06947
1.09343
1.10971
1.12309
1.13184
1.14105
1.14665
1.16112
1.183
1.26466
1.37154
1.89685
2.87376
6.3932
14.565
13.5255
12.0634
11.642
11.6587
11.6357
11.4931
11.1563
10.431
8.69469
1.03456
1.0694
1.0935
1.10963
1.12319
1.1317
1.14122
1.1463
1.16051
1.17872
1.26019
1.34998
1.85916
2.75962
6.01194
13.7929
13.0223
11.7203
11.3335
11.3124
11.2308
10.9824
10.4598
9.54432
7.75654
1.03446
1.06953
1.09336
1.10981
1.12298
1.13193
1.14085
1.14607
1.159
1.17852
1.25082
1.3429
1.80734
2.6343
5.67787
12.9286
12.4666
11.4339
11.06
10.991
10.84
10.4995
9.8847
8.99203
7.61622
1.03452
1.06948
1.09336
1.10981
1.12293
1.13197
1.14077
1.14567
1.15807
1.17267
1.24307
1.31475
1.76116
2.48596
5.23249
11.9938
11.8722
11.2435
10.8267
10.6912
10.4833
10.0794
9.46808
8.66192
7.5987
1.03451
1.0695
1.09331
1.10989
1.12276
1.13228
1.14012
1.14698
1.15479
1.17967
1.20923
1.36662
1.5518
2.58686
4.61412
10.9125
11.4011
11.0637
10.6189
10.4154
10.1652
9.74959
9.17315
8.45576
7.57734
1.0344
1.0696
1.09324
1.10996
1.12278
1.13216
1.14046
1.14568
1.15547
1.17007
1.22384
1.28663
1.6323
2.15332
4.33911
9.55332
11.1011
10.8877
10.4397
10.1749
9.89362
9.48645
8.95267
8.30879
7.55444
1.03432
1.0697
1.09316
1.11009
1.12265
1.13236
1.14016
1.14597
1.15421
1.16757
1.21254
1.26848
1.55424
1.9863
3.77389
8.04344
10.9436
10.7706
10.3147
9.96472
9.65739
9.26648
8.77511
8.19275
7.53159
1.0343
1.06975
1.09307
1.11023
1.12242
1.13274
1.13953
1.14707
1.15225
1.1682
1.18774
1.28138
1.38832
1.96741
3.03706
6.48079
10.8023
10.6628
10.2093
9.77456
9.4477
9.07591
8.62342
8.09526
7.50733
1.0343
1.06976
1.09305
1.11025
1.12236
1.1328
1.1394
1.147
1.15158
1.16425
1.18237
1.25229
1.34532
1.77093
2.55759
5.08531
10.345
10.4194
10.1065
9.6038
9.26146
8.90883
8.49161
8.01174
7.48388
1.03436
1.06967
1.09314
1.11012
1.12251
1.13258
1.13961
1.14659
1.15086
1.16106
1.17707
1.23206
1.30699
1.64978
2.24462
4.38561
9.27131
10.0646
9.88353
9.45922
9.10021
8.75834
8.37304
7.93698
7.46149
1.03433
1.06967
1.09319
1.11002
1.12269
1.13229
1.14005
1.1458
1.15185
1.15791
1.1765
1.20011
1.31496
1.44724
2.17424
3.50382
7.66153
9.72294
9.639
9.34892
8.96404
8.62763
8.2701
7.87086
7.43924
1.03437
1.0696
1.09326
1.10992
1.12281
1.13213
1.14024
1.14552
1.15184
1.15675
1.17112
1.19131
1.27481
1.38414
1.90226
2.86785
5.91632
9.43557
9.47145
9.27934
8.87424
8.52731
8.18524
7.81668
7.42079
1.03437
1.06961
1.09323
1.10997
1.12275
1.13223
1.14008
1.1457
1.15118
1.15595
1.16369
1.18888
1.21841
1.37386
1.56537
2.49467
4.2793
8.79112
9.33263
9.18356
8.82575
8.4505
8.11396
7.76922
7.40825
1.03432
1.06968
1.09316
1.11006
1.12264
1.13235
1.13995
1.14576
1.15114
1.15468
1.16308
1.1747
1.22104
1.27293
1.56285
1.98265
3.67646
7.32756
9.0408
8.99462
8.77665
8.38574
8.05259
7.72911
7.40057
1.03434
1.06967
1.09316
1.11008
1.1226
1.13242
1.13986
1.14587
1.15093
1.15472
1.1609
1.17057
1.20379
1.24427
1.45286
1.73735
2.95561
5.58516
8.62748
8.82362
8.6873
8.3593
8.01348
7.70669
7.40344
1.03433
1.06968
1.09315
1.11009
1.12259
1.13244
1.13981
1.14595
1.15073
1.15491
1.15942
1.16716
1.18958
1.22377
1.35489
1.54858
2.35826
3.91893
7.79348
8.66389
8.58312
8.34155
8.00119
7.70311
7.41652
1.03429
1.06971
1.09314
1.1101
1.12259
1.13244
1.13982
1.14594
1.15071
1.15491
1.15895
1.1646
1.18062
1.20483
1.29932
1.42319
2.02133
3.07661
6.28584
8.37122
8.42199
8.30169
8.01327
7.71291
7.44989
1.03432
1.06968
1.09317
1.11007
1.12262
1.13241
1.13986
1.14592
1.15066
1.15497
1.15812
1.16325
1.17136
1.19832
1.23169
1.3963
1.61529
2.54793
4.4534
7.7734
8.31274
8.24322
8.03845
7.74583
7.5221
1.03434
1.06966
1.09319
1.11004
1.12266
1.13234
1.13994
1.14579
1.15085
1.15461
1.15859
1.16163
1.16953
1.18197
1.22421
1.2881
1.53356
1.98839
3.40783
6.51422
8.06962
8.12707
8.03754
7.82415
7.66559
1.03434
1.06966
1.09318
1.11004
1.12265
1.13235
1.13992
1.14581
1.15082
1.15461
1.15844
1.16085
1.16655
1.17562
1.20456
1.24611
1.41808
1.68527
2.68714
4.81117
7.55279
8.04799
8.02786
7.94147
7.90029
1.03436
1.06964
1.09318
1.11004
1.12264
1.13238
1.13988
1.14588
1.15072
1.15473
1.15823
1.16095
1.16479
1.1712
1.19022
1.2188
1.32986
1.48189
2.15523
3.35731
6.49743
7.856
8.03935
8.06917
8.14839
1.03433
1.06968
1.09316
1.11008
1.12262
1.13241
1.13985
1.14591
1.15068
1.15479
1.1581
1.16105
1.16398
1.16852
1.18125
1.20078
1.27352
1.37619
1.8151
2.60695
4.89623
7.40827
8.02339
8.25064
8.53829
1.03433
1.06968
1.09317
1.11007
1.12263
1.13238
1.13988
1.14586
1.15074
1.15471
1.15818
1.16092
1.16385
1.167
1.17525
1.18902
1.2333
1.30856
1.56285
2.05461
3.48196
6.43363
7.92005
8.5649
9.21802
1.03434
1.06966
1.09318
1.11005
1.12265
1.13237
1.1399
1.14584
1.15076
1.15468
1.1582
1.16086
1.1637
1.16593
1.17159
1.18057
1.21102
1.25292
1.43688
1.71057
2.75408
4.90175
7.60217
9.08628
10.2318
1.03436
1.06965
1.09319
1.11004
1.12264
1.13237
1.13989
1.14586
1.15073
1.15472
1.15815
1.16089
1.16354
1.16536
1.16938
1.17577
1.19558
1.22549
1.34129
1.50651
2.20839
3.47717
6.83363
9.88197
11.4974
1.03436
1.06965
1.09318
1.11005
1.12263
1.13238
1.13986
1.14589
1.15068
1.15479
1.15805
1.16102
1.16332
1.16573
1.16792
1.17412
1.18249
1.21826
1.25674
1.47219
1.77018
2.9536
5.38471
10.6196
12.7846
1.03435
1.06967
1.09317
1.11007
1.12261
1.13241
1.13984
1.14592
1.15065
1.15482
1.15801
1.16106
1.16328
1.16558
1.16773
1.17132
1.18222
1.19764
1.26268
1.34848
1.74989
2.49437
4.93556
10.525
13.7864
1.03436
1.06965
1.09318
1.11005
1.12263
1.1324
1.13985
1.14591
1.15066
1.15482
1.158
1.16108
1.16321
1.16571
1.16726
1.17131
1.17727
1.19967
1.22558
1.37242
1.53766
2.52456
4.3856
10.3673
14.5863
1.03435
1.06966
1.09318
1.11005
1.12263
1.13239
1.13986
1.1459
1.15067
1.1548
1.15802
1.16106
1.16323
1.16568
1.16717
1.17084
1.17651
1.19628
1.22083
1.3514
1.50169
2.38028
4.06511
9.92599
15.3586
1.03434
1.06967
1.09318
1.11006
1.12263
1.13239
1.13986
1.14589
1.15069
1.15477
1.15807
1.16098
1.16336
1.16547
1.16754
1.17014
1.17754
1.18864
1.23331
1.28895
1.585
2.05898
3.98693
9.08327
16.0969
1.03434
1.06966
1.09318
1.11005
1.12263
1.13239
1.13987
1.14588
1.1507
1.15476
1.15809
1.16096
1.16338
1.16546
1.16752
1.1698
1.17688
1.18553
1.22971
1.27388
1.5558
1.96667
3.70365
8.20173
16.6896
1.03435
1.06965
1.09319
1.11004
1.12264
1.13238
1.13988
1.14587
1.15071
1.15475
1.15809
1.16098
1.16333
1.16553
1.16712
1.17016
1.17398
1.19087
1.20712
1.31106
1.42342
2.09194
3.33838
7.74252
16.8363
1.03434
1.06966
1.09318
1.11005
1.12264
1.13238
1.13988
1.14587
1.15072
1.15474
1.15811
1.16094
1.1634
1.16543
1.16751
1.16984
1.17625
1.18611
1.22353
1.27158
1.51293
1.886
3.39663
7.33788
16.6618
1.03434
1.06967
1.09318
1.11005
1.12264
1.13238
1.13988
1.14587
1.15072
1.15473
1.15812
1.16092
1.16342
1.16541
1.16756
1.16991
1.17623
1.18632
1.22208
1.27417
1.49738
1.87663
3.31055
7.11726
16.4216
1.03434
1.06967
1.09318
1.11005
1.12264
1.13238
1.13988
1.14587
1.15072
1.15474
1.15811
1.16094
1.1634
1.16544
1.16753
1.16982
1.17607
1.18564
1.22177
1.26763
1.49957
1.85165
3.28227
6.97283
16.1848
1.03434
1.06966
1.09318
1.11005
1.12264
1.13238
1.13988
1.14587
1.15072
1.15474
1.15811
1.16094
1.16339
1.16544
1.16751
1.16976
1.17589
1.18532
1.22076
1.26562
1.49362
1.83311
3.24928
6.83754
15.981
1.03435
1.06965
1.09319
1.11004
1.12265
1.13237
1.13989
1.14587
1.15071
1.15475
1.15809
1.16097
1.16334
1.16551
1.16716
1.16997
1.17376
1.18902
1.20442
1.2975
1.3973
1.98498
3.06022
6.859
15.8463
1.03434
1.06966
1.09318
1.11005
1.12264
1.13238
1.13988
1.14588
1.1507
1.15476
1.15809
1.16096
1.16337
1.16545
1.16748
1.1695
1.17577
1.18307
1.22109
1.25749
1.49309
1.82003
3.22819
6.72843
15.6993
1.03435
1.06966
1.09318
1.11005
1.12264
1.13238
1.13987
1.14589
1.15069
1.15478
1.15805
1.16102
1.16328
1.16558
1.1671
1.1699
1.17438
1.18887
1.20713
1.29836
1.40227
1.97375
3.02954
6.78313
15.6302
1.03436
1.06965
1.09319
1.11004
1.12264
1.13238
1.13987
1.14589
1.15069
1.15478
1.15805
1.16103
1.16327
1.16559
1.16708
1.1699
1.17439
1.18894
1.20754
1.29845
1.40323
1.96996
3.02275
6.75867
15.6219
1.00892
1.03172
1.05946
1.08717
1.11378
1.13738
1.15981
1.1794
1.20247
1.2358
1.33635
1.48167
2.09478
3.28933
7.50991
17.1379
15.3728
13.5896
13.2649
13.3754
13.3207
12.98
12.3691
11.3415
9.23006
1.00891
1.03172
1.05946
1.08717
1.1138
1.13734
1.15983
1.17923
1.202
1.23364
1.32881
1.46607
2.04334
3.16151
7.09892
16.2456
14.8074
13.2065
12.8855
12.9344
12.8205
12.378
11.5631
10.3347
8.1848
1.00892
1.03173
1.05938
1.08735
1.11343
1.13802
1.15856
1.18136
1.19716
1.23784
1.29225
1.51587
1.83346
3.20287
6.46747
15.2948
14.2338
12.8719
12.5451
12.5243
12.3426
11.8121
10.9053
9.71965
8.03677
1.00892
1.03175
1.05936
1.08736
1.11341
1.13797
1.15862
1.18091
1.19668
1.23368
1.28486
1.48977
1.76786
3.05651
5.93982
14.2375
13.6168
12.6018
12.2569
12.1564
11.8969
11.3132
10.4405
9.3819
8.06037
1.00895
1.03167
1.05947
1.08714
1.11377
1.13732
1.15973
1.17869
1.20035
1.22258
1.3023
1.38849
1.86174
2.62619
5.60185
13.0082
12.9802
12.4505
12.0018
11.8149
11.5029
10.9168
10.1247
9.19495
8.11436
1.00891
1.0317
1.05949
1.08706
1.11397
1.13698
1.16021
1.17799
1.20058
1.22355
1.29154
1.38216
1.78856
2.46645
5.10155
11.5595
12.6483
12.2798
11.763
11.4975
11.1649
10.6163
9.90031
9.07516
8.15327
1.00884
1.03177
1.05945
1.08712
1.11394
1.13701
1.16015
1.17793
1.19993
1.22066
1.27947
1.3595
1.70377
2.27502
4.46035
9.90375
12.5301
12.1732
11.5567
11.2192
10.8751
10.3709
9.72426
8.98461
8.17598
1.00879
1.03183
1.05937
1.08723
1.11381
1.13717
1.15997
1.17795
1.1993
1.21663
1.2669
1.32945
1.61456
2.05647
3.7704
8.06587
12.5118
12.1083
11.3794
10.9721
10.6234
10.1598
9.57554
8.90816
8.18926
1.00875
1.03191
1.05928
1.08735
1.11365
1.13737
1.1597
1.17808
1.19851
1.21361
1.25375
1.30672
1.52768
1.84945
3.13884
6.09056
12.3228
11.9525
11.2345
10.7605
10.399
9.9708
9.44335
8.84216
8.19555
1.00878
1.03187
1.05927
1.0874
1.11349
1.1377
1.15904
1.17917
1.19591
1.21556
1.23998
1.31063
1.41554
1.82968
2.61959
5.26132
11.387
11.5059
11.1201
10.5715
10.1914
9.79833
9.32382
8.78155
8.19827
1.00877
1.03188
1.05927
1.08739
1.1135
1.13769
1.15903
1.17914
1.19553
1.21462
1.23262
1.29434
1.36116
1.71783
2.25969
4.41333
9.50329
11.1054
10.8824
10.4022
10.0097
9.64087
9.2123
8.72215
8.19763
1.00882
1.03182
1.05934
1.08729
1.11362
1.13749
1.15932
1.17861
1.19622
1.21194
1.23211
1.26621
1.37047
1.5259
2.17204
3.44658
7.485
10.9379
10.7474
10.299
9.87475
9.50775
9.11258
8.67103
8.19523
1.00883
1.0318
1.05935
1.08729
1.11361
1.13752
1.15925
1.17869
1.19584
1.21165
1.22809
1.25428
1.33066
1.44467
1.89267
2.76158
5.40424
10.5298
10.5497
10.2649
9.79268
9.39895
9.0275
8.6234
8.19461
1.00876
1.03192
1.05925
1.08741
1.1135
1.13765
1.15908
1.17892
1.1953
1.21218
1.22408
1.2519
1.2854
1.43327
1.60975
2.52207
4.25618
9.3183
10.3163