/*--------------------------------*- C++ -*----------------------------------*\
  =========                 |
  \\      /  F ield         | OpenFOAM: The Open Source CFD Toolbox
   \\    /   O peration     | Website:  https://openfoam.org
    \\  /    A nd           | Version:  6
     \\/     M anipulation  |
\*---------------------------------------------------------------------------*/
FoamFile
{
    version     2.0;
    format      ascii;
    class       surfaceScalarField;
    location    "6.5";
    object      phi;
}
// * * * * * * * * * * * * * * * * * * * * * * * * * * * * * * * * * * * * * //

dimensions      [1 0 -1 0 0 0 0];

internalField   nonuniform List<scalar> 
72625
(
0.00162356
9.61926e-11
5.87479e-05
0.00157665
7.30223e-10
4.69096e-05
0.00153805
3.98542e-10
3.85937e-05
0.00150612
1.25825e-09
3.1929e-05
0.00147905
8.02444e-11
2.70732e-05
0.00145655
1.35512e-09
2.24984e-05
0.00143681
-4.30132e-10
1.97389e-05
0.00142083
3.74045e-09
1.5972e-05
0.00140577
1.01843e-08
1.50514e-05
0.00139152
3.64186e-08
1.41992e-05
0.00138333
7.39327e-08
8.11392e-06
0.00136589
2.4244e-07
1.71188e-05
0.00138606
5.83025e-07
-2.073e-05
0.00133742
2.08959e-06
4.63418e-05
0.00160476
6.97089e-06
-0.000274701
0.00181343
2.77261e-05
-0.000237252
0.00168472
3.62518e-05
9.18978e-05
0.00148086
4.73015e-05
0.000156406
0.00137257
6.13668e-05
4.67791e-05
0.00135442
7.49419e-05
-5.69888e-05
0.00127274
7.0471e-05
1.10109e-05
0.00117121
5.30072e-05
4.83263e-05
0.00102391
3.06444e-05
0.000116417
0.000678915
3.84333e-05
0.000306349
2.58388e-05
0.000652984
0.00162356
1.22081e-09
5.87473e-05
0.00157665
2.41945e-09
4.69099e-05
0.00153805
5.57868e-10
3.85934e-05
0.00150612
2.13324e-09
3.19291e-05
0.00147905
-1.56691e-09
2.70735e-05
0.00145655
2.68257e-09
2.24977e-05
0.00143681
-3.50138e-09
1.97404e-05
0.00142084
1.05541e-08
1.59675e-05
0.00140577
2.61616e-08
1.50537e-05
0.00139153
8.83357e-08
1.417e-05
0.00138323
2.07008e-07
8.16314e-06
0.00136589
5.72085e-07
1.69421e-05
0.00138574
1.33703e-06
-2.05947e-05
0.00133801
3.81616e-06
4.58085e-05
0.00160031
1.25968e-05
-0.000268329
0.00181866
4.98817e-05
-0.000241344
0.00169069
8.24366e-05
8.12408e-05
0.00148589
0.000107394
0.000144524
0.00139905
0.000110471
3.75794e-05
0.00135495
0.000116667
2.17256e-06
0.00131341
0.000122796
-1.09987e-05
0.00124175
0.000117535
6.90368e-06
0.00107864
0.000101829
9.1702e-05
0.000730296
0.00010791
0.000278667
0.000126404
0.000629658
0.00162355
7.43956e-09
5.87458e-05
0.00157664
1.59573e-09
4.69107e-05
0.00153805
1.58756e-09
3.85929e-05
0.00150612
-1.62163e-09
3.19293e-05
0.00147905
-2.0641e-09
2.70746e-05
0.00145656
-1.77794e-10
2.24961e-05
0.00143682
-6.68691e-09
1.97438e-05
0.00142084
2.4883e-08
1.59609e-05
0.00140579
2.38603e-08
1.50473e-05
0.00139145
2.62262e-07
1.41592e-05
0.00138285
6.85869e-07
8.11329e-06
0.00136582
5.46896e-07
1.69845e-05
0.00138346
4.49379e-06
-2.07888e-05
0.00133765
3.64843e-06
4.57852e-05
0.0015883
3.0065e-05
-0.000268516
0.001781
0.000127851
-0.000271509
0.0016294
0.00015192
8.14928e-05
0.0014492
0.000151918
0.000135388
0.00137113
0.000154248
3.40506e-05
0.0013157
0.000160408
1.14263e-05
0.00128139
0.000174584
-1.77419e-05
0.00121439
0.000190326
-6.07391e-06
0.0010391
0.000195068
8.17862e-05
0.000684362
0.000196681
0.000265748
0.000217886
0.000592788
0.00162355
2.4981e-08
5.87356e-05
0.00157666
-2.37575e-08
4.69211e-05
0.00153806
1.82587e-08
3.85855e-05
0.00150614
-2.16406e-08
3.19374e-05
0.00147905
1.86929e-08
2.70684e-05
0.00145658
-3.07826e-08
2.25009e-05
0.00143679
3.7654e-08
1.97414e-05
0.00142097
-9.58296e-08
1.59482e-05
0.00140598
-2.00859e-08
1.50446e-05
0.00139106
1.21217e-06
1.39306e-05
0.00138832
-4.50715e-06
7.96013e-06
0.00135697
1.55263e-05
1.62964e-05
0.00141345
-3.04237e-05
-2.15869e-05
0.00131846
5.4772e-05
4.36819e-05
0.00160245
9.20292e-06
-0.000263523
0.00179709
0.000185819
-0.000253422
0.00166638
0.000217424
6.46049e-05
0.00146694
0.000220684
0.000130407
0.00137546
0.000219312
2.61908e-05
0.00132617
0.000240812
-3.13644e-05
0.00126174
0.000250975
-1.22135e-05
0.00118686
0.000264584
3.52037e-07
0.00101893
0.000283457
7.92689e-05
0.000657088
0.000298119
0.000260174
0.000311893
0.000562948
0.00162368
-1.57405e-08
5.86769e-05
0.00157665
2.58423e-08
4.69863e-05
0.00153815
-1.57166e-08
3.85305e-05
0.00150611
2.03188e-08
3.1995e-05
0.00147914
-2.24065e-08
2.70114e-05
0.00145651
3.34978e-08
2.25662e-05
0.00143694
-4.92349e-08
1.96638e-05
0.00142054
1.49994e-07
1.6119e-05
0.0014051
9.19525e-08
1.51002e-05
0.00139336
-6.66887e-07
1.24797e-05
0.0013686
5.82335e-06
1.56127e-05
0.00140176
-1.24844e-05
-4.69723e-06
0.00130279
4.31064e-05
2.52098e-05
0.001459
-3.87161e-05
-6.30039e-05
0.00148741
8.66991e-05
-0.000106244
0.00176812
0.000187125
-0.000282751
0.0016644
0.000262159
5.8366e-05
0.00149365
0.000262326
0.000128819
0.00141042
0.000274525
2.77728e-05
0.00135749
0.000299946
-6.4974e-06
0.00129508
0.000325204
-1.20982e-05
0.00120713
0.000348263
3.95906e-06
0.00103244
0.00037656
8.12694e-05
0.000665629
0.000408854
0.00025581
0.000431462
0.000545873
0.00162356
1.33531e-08
5.87227e-05
0.00157667
-2.19468e-08
4.69345e-05
0.00153807
1.46982e-08
3.85754e-05
0.00150616
-1.97999e-08
3.19483e-05
0.00147905
2.56283e-08
2.70602e-05
0.00145662
-4.05796e-08
2.2507e-05
0.00143675
7.44403e-08
1.97397e-05
0.00142113
-1.54115e-07
1.59273e-05
0.00140602
1.44721e-07
1.50536e-05
0.00139055
1.11477e-06
1.36566e-05
0.00139309
-4.54491e-06
7.8367e-06
0.00134957
1.55016e-05
1.54894e-05
0.00144499
-3.03429e-05
-2.22074e-05
0.0013039
6.17058e-05
4.0793e-05
0.00161918
1.60691e-05
-0.000245328
0.00180392
0.000260747
-0.000259128
0.00171372
0.000316866
3.48245e-05
0.00151534
0.000330193
0.000130186
0.0014294
0.00033303
2.71566e-05
0.00137201
0.000362854
-5.83166e-06
0.00131498
0.000397292
-1.53735e-05
0.00122829
0.000430971
3.65296e-06
0.00104835
0.000475655
8.04951e-05
0.000678435
0.000530506
0.000247941
0.000581914
0.000527725
0.00162366
-1.8091e-08
5.8684e-05
0.00157664
1.86955e-08
4.69785e-05
0.00153814
-1.94898e-08
3.85363e-05
0.00150611
2.66709e-08
3.19905e-05
0.00147915
-3.38251e-08
2.7012e-05
0.00145648
6.11171e-08
2.25725e-05
0.001437
-8.26797e-08
1.9641e-05
0.00142047
2.30316e-07
1.61639e-05
0.00140525
6.50671e-08
1.49769e-05
0.00139613
-7.49612e-07
1.2464e-05
0.00136947
5.13397e-06
1.53639e-05
0.00139959
-1.02707e-05
-4.04875e-06
0.0013043
4.1002e-05
2.45102e-05
0.00145818
-3.12275e-05
-6.20392e-05
0.00148173
8.44546e-05
-9.1824e-05
0.00176869
0.00026364
-0.000290683
0.00170356
0.000362025
1.93031e-05
0.00153792
0.000371035
0.000124484
0.00145531
0.000386634
2.87292e-05
0.00139327
0.000423506
1.07412e-06
0.00133984
0.000467424
-1.70216e-05
0.00125171
0.000513962
4.79114e-06
0.00107154
0.000577766
7.76619e-05
0.000697425
0.000667978
0.000236289
0.000775201
0.000503829
0.00162358
-8.1958e-09
5.87223e-05
0.00157666
-2.68889e-09
4.69344e-05
0.00153807
-1.94955e-09
3.8578e-05
0.00150615
4.7885e-09
3.19414e-05
0.00147904
-2.14639e-09
2.70714e-05
0.00145661
9.86338e-09
2.24869e-05
0.00143676
-2.33783e-09
1.97664e-05
0.00142111
1.35412e-08
1.58739e-05
0.00140619
5.88696e-08
1.50153e-05
0.00139147
8.03559e-08
1.37772e-05
0.00138819
1.76828e-07
8.24599e-06
0.00135973
2.45828e-06
1.56489e-05
0.00141786
2.93829e-06
-2.00363e-05
0.00132275
2.29036e-05
4.07322e-05
0.00156915
6.07869e-05
-0.000223096
0.00178361
0.000321444
-0.000273149
0.00174099
0.000415198
-1.12696e-05
0.00155369
0.000431015
0.000126988
0.0014679
0.000441972
3.01501e-05
0.00140834
0.000483589
-8.68372e-07
0.00135851
0.000535179
-1.82736e-05
0.00127199
0.000594233
5.85141e-06
0.00109473
0.000681079
7.34859e-05
0.000728815
0.000817803
0.000215664
0.00103519
0.000468475
0.00162359
-1.86184e-08
5.87287e-05
0.00157664
2.04541e-08
4.6927e-05
0.00153807
-1.04893e-08
3.85829e-05
0.00150613
3.37239e-09
3.19347e-05
0.00147905
4.53843e-09
2.70788e-05
0.0014566
-1.79242e-08
2.24783e-05
0.00143679
1.99072e-08
1.97789e-05
0.00142103
-8.33523e-08
1.58704e-05
0.00140669
-2.44286e-07
1.50395e-05
0.00139201
5.12889e-07
1.38543e-05
0.0013824
1.172e-06
8.55264e-06
0.00136687
2.3988e-06
1.55857e-05
0.00137901
8.60446e-06
-1.78642e-05
0.00134689
1.57948e-05
3.90507e-05
0.00153228
7.44963e-05
-0.000199456
0.00176584
0.000352035
-0.000265066
0.00175603
0.000469955
-4.5834e-05
0.00157325
0.000491199
0.000122326
0.00148428
0.000499668
3.10399e-05
0.00142942
0.000542392
-4.26606e-06
0.00138265
0.000598474
-1.68652e-05
0.00130183
0.000668381
6.28586e-06
0.00113088
0.000782809
6.87398e-05
0.000786451
0.000977238
0.000184548
0.00141705
0.000404184
0.00162345
5.87876e-05
4.05349e-08
0.00157667
4.68663e-05
-5.84197e-08
0.00153799
3.86273e-05
4.22645e-08
0.00150615
3.18979e-05
-5.71247e-08
0.00147899
2.70991e-05
6.28721e-08
0.00145659
2.24761e-05
-9.14408e-08
0.0014367
1.97637e-05
1.46301e-07
0.00142083
1.59657e-05
-1.80853e-07
0.00140461
1.53313e-05
6.32497e-07
0.00139032
1.35002e-05
1.29998e-06
0.00138562
8.67423e-06
-2.8226e-06
0.00135924
1.42556e-05
1.44563e-05
0.00140663
-1.71083e-05
-2.16965e-05
0.00131636
3.68364e-05
6.90535e-05
0.00153621
-0.000188253
4.25251e-05
0.00174348
-0.000257838
0.000401623
0.00177525
-6.9851e-05
0.00050717
0.00159207
0.000117812
0.000556195
0.00150353
3.36615e-05
0.000554279
0.0014571
-6.61966e-06
0.000595089
0.0014155
-1.27132e-05
0.000652415
0.00134722
5.08571e-06
0.000731164
0.00119392
5.67486e-05
0.000878847
0.000883919
0.000150073
0.00113668
0.000291753
0.00200885
0.00172978
-3.24193e-10
7.16833e-06
0.00176404
8.99528e-10
1.26514e-05
0.00178823
2.15559e-10
1.44066e-05
0.00180604
1.61081e-09
1.41167e-05
0.00181989
2.96623e-10
1.32194e-05
0.00183055
1.79825e-09
1.18425e-05
0.0018394
4.47351e-10
1.08876e-05
0.00184586
2.83995e-09
9.50745e-06
0.00185192
1.26871e-08
8.98049e-06
0.00185744
3.734e-08
8.61948e-06
0.00185792
1.22424e-07
7.51919e-06
0.00186778
2.78245e-07
6.8824e-06
0.00184321
9.03747e-07
2.87861e-06
0.00189282
2.86474e-06
-6.30783e-06
0.00176545
1.38603e-05
-0.000162316
0.00154795
0.000101159
-0.000123354
0.0013723
0.000125656
0.000140948
0.00128072
0.000181999
6.53629e-05
0.00100512
0.000255097
6.67216e-05
0.00118075
0.000432489
-0.000665715
0.000840884
0.000305459
4.47805e-05
0.000526091
0.000225055
0.000137414
0.000192217
0.000213722
0.000235889
-0.000101875
0.000275436
0.000324434
0.000165343
0.000385291
0.00172978
8.95029e-10
7.16683e-06
0.00176404
1.51836e-09
1.26533e-05
0.00178823
1.2743e-09
1.4405e-05
0.00180604
2.05392e-09
1.41183e-05
0.00181989
6.58755e-10
1.32172e-05
0.00183054
2.16934e-09
1.18452e-05
0.0018394
7.36943e-10
1.08829e-05
0.00184585
8.76393e-09
9.50857e-06
0.00185196
3.14299e-08
8.92921e-06
0.00185732
1.14549e-07
8.71202e-06
0.00185835
2.33354e-07
7.02926e-06
0.00186708
8.69372e-07
7.52878e-06
0.00184399
1.99422e-06
1.33883e-06
0.0018914
7.66513e-06
-6.57561e-06
0.00175965
3.24989e-05
-0.000156334
0.0015709
0.000115156
-6.90313e-05
0.00136963
0.00028541
0.000121841
0.00131219
0.000341586
4.1769e-05
0.00120522
0.00038386
1.52263e-05
0.00120839
0.000437202
-6.28559e-06
0.00102832
0.000472211
1.68556e-06
0.000649226
0.000494192
0.000116223
0.000249452
0.00051263
0.000191897
-1.8322e-05
0.000545733
0.000275548
0.000430499
0.0003457
0.00172978
3.93701e-09
7.16777e-06
0.00176404
1.97506e-09
1.26512e-05
0.00178822
2.67831e-09
1.44064e-05
0.00180604
1.27621e-09
1.41162e-05
0.00181989
3.445e-10
1.32199e-05
0.00183055
2.06158e-09
1.18416e-05
0.0018394
-3.1133e-10
1.08886e-05
0.00184585
1.80818e-08
9.50364e-06
0.00185189
6.49351e-08
8.97436e-06
0.00185731
2.38567e-07
8.59453e-06
0.0018577
4.45078e-07
7.51372e-06
0.00186702
1.75495e-06
6.69378e-06
0.00184212
3.31151e-06
2.72914e-06
0.00189006
1.2978e-05
-7.62983e-06
0.00175982
5.23441e-05
-0.000159262
0.0014924
0.000419694
-0.000310697
0.00132945
0.000423133
0.000105755
0.00128995
0.000483672
3.21321e-05
0.00120393
0.00050913
-5.79779e-06
0.00119512
0.000519514
-6.26787e-05
0.00101227
0.00065126
-1.45958e-05
0.000640653
0.000742354
0.000116711
0.000260798
0.000790749
0.000182868
-3.15677e-06
0.00081757
0.000257251
0.00068962
0.00032998
0.00172977
1.04637e-08
7.16465e-06
0.00176404
-5.8141e-09
1.26547e-05
0.00178822
8.73579e-09
1.44037e-05
0.00180605
-6.89041e-09
1.41195e-05
0.00181989
8.16469e-09
1.32174e-05
0.00183055
-7.53924e-09
1.18441e-05
0.0018394
1.48838e-08
1.0885e-05
0.00184582
3.69928e-08
9.50064e-06
0.00185176
2.55704e-07
8.91973e-06
0.00185713
8.4024e-08
8.69578e-06
0.00185625
2.19441e-06
7.08813e-06
0.00186638
5.44677e-07
7.29386e-06
0.0018376
8.98932e-06
1.44284e-06
0.00188353
1.85645e-05
-7.99838e-06
0.00175589
6.40559e-05
-0.000148716
0.00153412
0.000492082
-0.000106246
0.00133306
0.000590344
9.75167e-05
0.00126815
0.000645318
3.30039e-05
0.00107688
0.00071735
8.62497e-06
0.00112799
0.000930368
-0.000493968
0.000925698
0.00086685
-2.61871e-05
0.0006054
0.000951122
0.000111174
0.000255855
0.00104383
0.000174986
8.83662e-06
0.00108399
0.000240101
0.000942241
0.000318592
0.00172974
-5.85369e-09
7.1608e-06
0.00176405
8.40295e-09
1.26583e-05
0.0017882
-5.87507e-09
1.43999e-05
0.00180605
9.07447e-09
1.41245e-05
0.00181987
-9.23896e-09
1.32132e-05
0.00183057
1.29718e-08
1.18458e-05
0.00183938
-1.47418e-08
1.08819e-05
0.00184606
1.1876e-08
9.46151e-06
0.00185276
-7.75742e-08
8.74962e-06
0.00185558
5.60164e-07
9.13084e-06
0.00186966
-8.58666e-07
4.63468e-06
0.00184921
4.38335e-06
1.18032e-05
0.00188962
2.36978e-06
-8.65404e-06
0.00181372
2.54824e-05
5.79869e-06
0.00176706
0.000139032
-0.000135685
0.00150091
0.000597535
-0.000124419
0.00132694
0.00073065
9.10082e-05
0.00127491
0.000793081
3.2356e-05
0.00114106
0.000880685
-2.36572e-06
0.00113711
0.00100346
-7.63085e-05
0.000940099
0.00108927
-3.82093e-05
0.000614725
0.00118535
9.43639e-05
0.000278792
0.00129976
0.000160512
3.85442e-05
0.00135475
0.000224573
0.00121942
0.000306564
0.00172976
4.15892e-09
7.16233e-06
0.00176405
-7.2855e-09
1.26566e-05
0.00178821
4.53309e-09
1.44021e-05
0.00180606
-7.66998e-09
1.4121e-05
0.00181988
8.51041e-09
1.32177e-05
0.00183057
-8.35336e-09
1.18423e-05
0.00183938
2.00653e-08
1.08883e-05
0.00184579
4.62557e-08
9.4852e-06
0.0018516
2.687e-07
8.90085e-06
0.00185694
1.70961e-07
8.68613e-06
0.00185428
2.49352e-06
7.13857e-06
0.00186588
1.13321e-06
7.06024e-06
0.00183179
1.26198e-05
1.54443e-06
0.00187694
3.04465e-05
-9.35655e-06
0.00176533
0.000129682
-0.000125616
0.00152327
0.000758194
-0.000179747
0.00133262
0.000870347
8.46722e-05
0.00129252
0.000935012
2.75515e-05
0.00116755
0.00104193
-9.78049e-06
0.00113514
0.00120621
-0.000176862
0.000951147
0.00130477
-4.7535e-05
0.000644519
0.00141821
7.66526e-05
0.000321496
0.0015558
0.000146567
8.11989e-05
0.00163185
0.000210232
0.0015354
0.000292096
0.00172974
-9.9744e-09
7.16167e-06
0.00176405
6.20039e-09
1.26569e-05
0.0017882
-1.06466e-08
1.44013e-05
0.00180605
1.11001e-08
1.41215e-05
0.00181987
-1.35488e-08
1.32185e-05
0.00183058
1.94191e-08
1.18364e-05
0.00183936
-1.60655e-08
1.08973e-05
0.00184613
1.44522e-08
9.427e-06
0.0018526
-4.13647e-08
8.80648e-06
0.00185556
6.32329e-07
9.01987e-06
0.00186885
-5.58047e-07
5.10797e-06
0.00184944
5.32355e-06
1.11004e-05
0.00188831
5.62542e-06
-7.41791e-06
0.00181125
3.94074e-05
5.99408e-06
0.00177982
0.00018685
-0.000118804
0.00153018
0.000832959
-0.000117977
0.00134246
0.000996248
8.00615e-05
0.00131224
0.00106259
2.63314e-05
0.0012133
0.00118379
-1.48609e-05
0.0011479
0.00136123
-8.92724e-05
0.000979544
0.00150451
-4.90925e-05
0.000698878
0.00164256
6.03094e-05
0.000391518
0.00180673
0.0001331
0.000141024
0.00192045
0.000197075
0.00190468
0.000274529
0.00172976
-6.72987e-09
7.16481e-06
0.00176405
6.07566e-10
1.2653e-05
0.00178821
-4.5851e-09
1.44064e-05
0.00180605
3.46715e-09
1.41139e-05
0.00181988
-2.65709e-09
1.32276e-05
0.00183055
5.90198e-09
1.18294e-05
0.00183939
2.81671e-09
1.09039e-05
0.00184578
3.29595e-08
9.46654e-06
0.0018517
1.22554e-07
8.93053e-06
0.00185704
4.7061e-07
8.58113e-06
0.00185599
1.17143e-06
7.56658e-06
0.00186657
3.96809e-06
6.34528e-06
0.00183795
1.13998e-05
2.72523e-06
0.00188612
4.24245e-05
-1.04714e-05
0.00177662
0.00018215
-0.000110053
0.00157873
0.000982912
-0.000227426
0.00135768
0.00112665
7.8329e-05
0.00133956
0.00118252
2.44159e-05
0.00125515
0.00131344
-1.57716e-05
0.00118016
0.00150669
-7.20684e-05
0.00102356
0.00168536
-4.32822e-05
0.000774912
0.00185148
4.47423e-05
0.00048696
0.00204952
0.000117537
0.000220644
0.00221986
0.000181307
0.00234497
0.000247509
0.00172976
-5.27414e-09
7.16587e-06
0.00176403
7.43119e-09
1.26523e-05
0.00178821
-6.43065e-09
1.44068e-05
0.00180603
6.01202e-09
1.41122e-05
0.00181988
-5.59606e-09
1.32291e-05
0.00183054
2.95278e-09
1.18264e-05
0.00183941
5.40427e-09
1.09082e-05
0.00184584
7.95378e-09
9.45287e-06
0.00185192
1.7591e-07
8.9165e-06
0.00185723
4.10579e-07
8.58179e-06
0.001857
2.43184e-06
7.50587e-06
0.00186758
2.49721e-06
6.40545e-06
0.00184066
1.8294e-05
2.00864e-06
0.00190116
3.04939e-05
-9.68559e-06
0.00179807
0.000189968
-0.000105455
0.00164632
0.00102736
-0.000160122
0.00140021
0.00125388
7.21772e-05
0.00137439
0.0013039
2.60288e-05
0.00130094
0.00143182
-1.46087e-05
0.00122594
0.00163275
-5.61614e-05
0.00108663
0.00184255
-3.57016e-05
0.000880108
0.00203103
3.22235e-05
0.000634168
0.00226646
9.65727e-05
0.000353676
0.00252516
0.000158333
0.00289284
0.000209309
0.0017298
7.16559e-06
2.0651e-08
0.00176403
1.26555e-05
-1.39266e-08
0.00178824
1.44032e-05
7.5438e-09
0.00180603
1.41193e-05
-3.22651e-09
0.00181992
1.3218e-05
-1.24996e-08
0.00183053
1.18376e-05
2.79189e-08
0.00183948
1.08978e-05
-7.48983e-08
0.00184586
9.44863e-06
1.39176e-07
0.00185279
8.89764e-06
-3.19998e-07
0.00185584
8.63533e-06
2.21088e-06
0.00186337
7.038e-06
-3.47258e-06
0.00185376
7.52957e-06
1.87469e-05
0.0018727
-1.248e-06
-1.66165e-05
0.00185521
1.08878e-06
8.35086e-05
0.00182259
-0.000106985
0.000140155
0.00169402
-0.000215087
0.00111048
0.00143922
6.04391e-05
0.0013772
0.00141372
2.37545e-05
0.00142282
0.00135475
-1.41527e-05
0.00153796
0.00128539
-4.43162e-05
0.00173904
0.00118762
-3.15222e-05
0.00195816
0.00102362
2.38711e-05
0.00217515
0.000817698
7.83443e-05
0.00244948
0.000596661
0.000118235
0.00277663
0.000145927
0.00363257
0.00169387
5.30741e-10
-7.16608e-06
0.00171917
2.99246e-10
-1.2652e-05
0.00174798
5.16796e-10
-1.44041e-05
0.00177621
4.4723e-10
-1.41174e-05
0.00180265
-8.07275e-11
-1.3218e-05
0.00182633
1.55756e-09
-1.18427e-05
0.00184811
-1.75885e-09
-1.08867e-05
0.00186712
7.83315e-09
-9.50744e-06
0.00188508
-6.30243e-09
-8.9722e-06
0.00190221
1.02126e-07
-8.63771e-06
0.00191736
-9.6025e-08
-7.5238e-06
0.00193037
6.63441e-07
-6.89261e-06
0.00193622
-2.4176e-08
-3.0144e-06
0.00192126
2.40699e-06
6.06811e-06
0.00160747
7.71065e-06
0.000142266
0.00115855
0.000226908
9.45749e-05
0.00118437
0.000244336
-0.000130367
0.00102249
0.00027925
-5.28014e-05
0.000845132
0.000272505
-2.91679e-05
-5.39943e-05
0.000254368
-2.16793e-05
-0.000289722
0.000314416
-3.46477e-05
-0.000442366
0.000419115
-0.000129855
-0.000451894
0.000453311
-0.000208671
-0.000322378
0.000505256
-0.000311057
0.000459442
-0.000397165
0.00169386
3.74854e-11
-7.16248e-06
0.00171917
5.34837e-10
-1.26556e-05
0.00174798
5.93141e-10
-1.44003e-05
0.00177622
9.52512e-10
-1.41228e-05
0.00180265
9.53339e-10
-1.32132e-05
0.00182634
-6.31263e-10
-1.18457e-05
0.0018481
3.56618e-09
-1.08814e-05
0.00186709
-2.31511e-09
-9.47439e-06
0.00188477
4.17844e-08
-8.79232e-06
0.00190266
1.60379e-08
-9.11221e-06
0.00191412
4.47071e-07
-4.97585e-06
0.00193357
3.07796e-07
-1.16611e-05
0.00192452
2.80371e-06
7.49134e-06
0.00192109
7.16398e-06
-8.07678e-06
0.00160365
4.54578e-05
0.000121849
0.00112287
0.00032757
0.00030688
0.0011669
0.000427766
-0.000106754
0.00102579
0.000509335
-4.79837e-05
0.000830938
0.000532046
-5.0199e-05
-7.7572e-05
0.000503965
0.0006519
-0.000403311
0.000659982
-1.88929e-05
-0.00049889
0.000740107
-0.000109985
-0.000475852
0.000809856
-0.000188472
-0.000307121
0.000878404
-0.000267063
0.000832972
-0.000335604
0.00169386
7.69844e-10
-7.1642e-06
0.00171917
6.31679e-10
-1.26533e-05
0.00174798
6.68992e-10
-1.4403e-05
0.00177621
7.27591e-10
-1.4119e-05
0.00180265
-4.64815e-10
-1.32179e-05
0.00182633
1.48301e-09
-1.18426e-05
0.00184811
-8.33307e-10
-1.08878e-05
0.00186711
1.23452e-08
-9.50146e-06
0.00188506
2.4391e-08
-8.96284e-06
0.00190207
2.12185e-07
-8.63003e-06
0.00191737
2.19091e-07
-7.55341e-06
0.00192944
1.57676e-06
-6.74997e-06
0.00193544
2.64468e-06
-3.17194e-06
0.00191604
1.19323e-05
6.81841e-06
0.00160873
5.90318e-05
0.000132964
0.0011268
0.000439183
5.54494e-05
0.00115077
0.000610866
-0.000102415
0.00100903
0.000722853
-4.04125e-05
0.000785601
0.000777825
-2.88651e-05
-6.20395e-05
0.000828938
0.00045925
-0.000399454
0.000970499
1.15267e-05
-0.000481927
0.001048
-0.000109527
-0.000454822
0.00114587
-0.00018103
-0.000301976
0.00122478
-0.000242734
0.00116484
-0.00030457
0.00169386
4.12865e-10
-7.16073e-06
0.00171917
3.02604e-10
-1.26567e-05
0.00174797
8.9981e-11
-1.43998e-05
0.00177622
3.57414e-10
-1.41237e-05
0.00180265
-1.02016e-09
-1.3214e-05
0.00182634
1.71506e-09
-1.18453e-05
0.00184811
-1.77233e-10
-1.08827e-05
0.00186707
1.64257e-08
-9.47221e-06
0.00188476
4.63773e-08
-8.78707e-06
0.00190241
2.90316e-07
-9.05572e-06
0.00191427
4.29406e-07
-4.9763e-06
0.00193205
2.2248e-06
-1.12282e-05
0.00192414
4.52832e-06
7.40022e-06
0.00191609
1.87394e-05
-6.9328e-06
0.00160319
9.79871e-05
0.000123714
0.00113981
0.000677834
0.000114457
0.00113366
0.00080954
-9.61528e-05
0.00100087
0.000925994
-3.81645e-05
0.000781934
0.00101234
-7.72201e-06
-1.15261e-05
0.00106964
5.80458e-05
-0.000347885
0.0012502
2.96411e-05
-0.00042885
0.0013504
-0.000111097
-0.000412121
0.00147661
-0.000173325
-0.000283347
0.0015631
-0.000227807
0.00149537
-0.000296054
0.00169385
-1.48097e-09
-7.15852e-06
0.00171917
5.27853e-11
-1.266e-05
0.00174797
-1.2713e-09
-1.43979e-05
0.00177622
4.61963e-10
-1.41266e-05
0.00180265
-4.0568e-10
-1.32119e-05
0.00182634
6.92928e-10
-1.18476e-05
0.0018481
4.77113e-09
-1.08792e-05
0.00186703
1.16956e-08
-9.4707e-06
0.00188448
9.28214e-08
-8.73999e-06
0.00190272
2.67333e-07
-9.11081e-06
0.00191138
9.6722e-07
-4.56185e-06
0.00193453
2.43588e-06
-1.16475e-05
0.00191359
8.0861e-06
8.65995e-06
0.00191617
2.86256e-05
-6.85744e-06
0.00160766
0.00015503
0.000114273
0.00113853
0.00088691
0.000131702
0.0011287
0.000999207
-9.00083e-05
0.00100102
0.00112142
-3.62382e-05
0.000770893
0.00124237
-3.03777e-06
9.80792e-05
0.00137178
0.000293519
-0.000248599
0.00152272
3.50951e-05
-0.000352285
0.00164655
-9.89842e-05
-0.000356104
0.00180117
-0.000161149
-0.000252088
0.00190019
-0.000217451
0.00184009
-0.00029114
0.00169386
-2.78125e-09
-7.16077e-06
0.00171917
2.07961e-10
-1.26572e-05
0.00174797
-2.56702e-09
-1.44002e-05
0.00177622
6.99154e-10
-1.41232e-05
0.00180265
-6.89922e-10
-1.32152e-05
0.00182633
2.15382e-09
-1.18417e-05
0.00184811
4.50939e-09
-1.08891e-05
0.00186703
2.15248e-08
-9.44643e-06
0.00188473
9.08308e-08
-8.79628e-06
0.00190222
4.50801e-07
-9.00766e-06
0.00191444
9.63496e-07
-5.07449e-06
0.00193097
3.83071e-06
-1.09653e-05
0.00192375
9.57131e-06
7.21148e-06
0.00191075
3.82453e-05
-6.16454e-06
0.00162342
0.00019624
0.000119018
0.00114518
0.00106093
0.000120525
0.00113508
0.00117641
-8.36454e-05
0.00101281
0.00130308
-3.27256e-05
0.000784267
0.00145263
7.68293e-06
0.000248426
0.00164026
8.96099e-05
-0.000118118
0.00179785
4.29815e-05
-0.000257883
0.00194331
-8.12501e-05
-0.000282643
0.002119
-0.000147462
-0.000205729
0.00223701
-0.0002046
0.00220551
-0.000280167
0.00169386
-3.40678e-09
-7.16426e-06
0.00171917
5.52753e-11
-1.26535e-05
0.00174797
-2.32542e-09
-1.44046e-05
0.00177621
5.98828e-10
-1.4116e-05
0.00180265
1.10604e-09
-1.32216e-05
0.00182633
-7.66587e-11
-1.18383e-05
0.00184811
1.0762e-08
-1.08898e-05
0.00186703
1.64133e-08
-9.48857e-06
0.0018847
1.329e-07
-8.90477e-06
0.00190236
4.58037e-07
-8.67011e-06
0.00191403
1.4409e-06
-7.03431e-06
0.0019319
4.08605e-06
-7.12769e-06
0.00192252
1.25427e-05
-1.08452e-06
0.00191185
4.53072e-05
9.40183e-06
0.0016413
0.000227958
0.000118592
0.00115982
0.00121741
0.000203097
0.00115156
0.00134634
-8.28164e-05
0.00103489
0.00147291
-2.77053e-05
0.000812558
0.00164655
1.26983e-05
0.000385106
0.00189029
8.71731e-05
1.84821e-05
0.0020692
4.52162e-05
-0.000139325
0.00222399
-6.35881e-05
-0.0001819
0.00242685
-0.000133449
-0.000137796
0.0025807
-0.000192084
0.00260637
-0.000265386
0.00169386
-3.76465e-09
-7.16677e-06
0.00171916
2.71104e-09
-1.26503e-05
0.00174798
-2.51755e-09
-1.44084e-05
0.0017762
3.19328e-09
-1.41103e-05
0.00180266
2.98381e-10
-1.32287e-05
0.00182631
1.85907e-09
-1.18287e-05
0.00184812
1.04208e-08
-1.0902e-05
0.00186705
2.50401e-08
-9.47357e-06
0.00188492
1.34173e-07
-8.93947e-06
0.00190186
6.40517e-07
-8.56397e-06
0.00191706
1.32631e-06
-7.51129e-06
0.00192853
5.21222e-06
-6.35981e-06
0.00193346
1.26692e-05
-2.40906e-06
0.00190726
5.00996e-05
1.07372e-05
0.00166314
0.000241886
0.000118756
0.00117857
0.00134707
0.000123595
0.00117396
0.00151005
-8.20597e-05
0.00106536
0.00163151
-2.64771e-05
0.000861483
0.00181976
1.40271e-05
0.000512915
0.00209587
6.99658e-05
0.000176646
0.00232039
4.06548e-05
4.17711e-06
0.00248677
-4.68588e-05
-5.60829e-05
0.00272072
-0.000117381
-4.04155e-05
0.00292162
-0.000176831
0.0030522
-0.000240786
0.00169386
-1.34595e-09
-7.16618e-06
0.00171916
7.45779e-09
-1.26513e-05
0.00174798
-7.0901e-09
-1.44071e-05
0.00177619
1.29717e-08
-1.41108e-05
0.00180266
-1.40608e-08
-1.32291e-05
0.0018263
1.74727e-08
-1.1826e-05
0.00184812
1.29245e-09
-1.09075e-05
0.00186704
1.99293e-08
-9.45527e-06
0.0018847
3.11373e-07
-8.91933e-06
0.00190196
5.24495e-07
-8.58716e-06
0.00191605
2.25156e-06
-7.5034e-06
0.00193031
3.69584e-06
-6.44095e-06
0.00192921
1.76739e-05
-1.95982e-06
0.00191518
4.47858e-05
9.47179e-06
0.00169422
0.000250012
0.000106024
0.00120796
0.00143647
0.000232892
0.00119808
0.00166436
-7.35611e-05
0.00110259
0.0017786
-2.65238e-05
0.00091839
0.0019746
1.38225e-05
0.000631293
0.00227063
5.51015e-05
0.000343407
0.002537
3.43509e-05
0.000176872
0.00271761
-3.34435e-05
0.000107256
0.00298116
-9.59056e-05
0.000100349
0.0032392
-0.000154147
0.00356879
-0.000204658
0.00169385
-7.16435e-06
9.90228e-09
0.00171916
-1.26545e-05
9.58826e-10
0.00174797
-1.44019e-05
-8.87714e-09
0.00177619
-1.41192e-05
2.84843e-08
0.00180268
-1.32178e-05
-6.03414e-08
0.00182626
-1.18382e-05
1.13418e-07
0.00184824
-1.08971e-05
-1.91175e-07
0.00186676
-9.46198e-06
4.13854e-07
0.00188523
-8.92579e-06
-3.36114e-07
0.00190086
-8.62812e-06
2.13713e-06
0.00192092
-7.02995e-06
-3.73375e-06
0.00192069
-7.53679e-06
1.88938e-05
0.00195094
1.18974e-06
-1.51003e-05
0.00191563
-1.21721e-06
8.21966e-05
0.00174865
0.000106489
0.000202255
0.001252
0.000204676
0.00150953
0.00122471
-6.01309e-05
0.00181086
0.00113926
-2.36643e-05
0.0019105
0.000982684
1.33464e-05
0.00210271
0.000753694
4.33864e-05
0.00241079
0.000528421
3.0289e-05
0.00269904
0.000383163
-2.49536e-05
0.00291012
0.000330352
-7.81646e-05
0.00318876
0.000310962
-0.00011471
0.00349001
-0.000142625
0.0041629
0.00172977
1.07571e-08
-5.87367e-05
0.00176404
-7.86804e-09
-4.69195e-05
0.00178821
9.09195e-09
-3.85861e-05
0.00180604
-9.05283e-09
-3.19368e-05
0.00181988
9.54794e-09
-2.70683e-05
0.00183055
-1.03784e-08
-2.25022e-05
0.00183939
1.50236e-08
-1.97394e-05
0.00184582
2.23633e-08
-1.59557e-05
0.00185167
2.07373e-07
-1.50365e-05
0.0018571
-1.2063e-07
-1.39617e-05
0.00185567
1.77909e-06
-7.86948e-06
0.00186629
-1.01074e-06
-1.65882e-05
0.00183616
5.06431e-06
2.19932e-05
0.00188321
3.72619e-06
-4.48779e-05
0.00175356
-1.21011e-05
0.000282912
0.00158002
2.28784e-05
0.000242937
0.00137775
0.000164996
-9.39943e-05
0.00130851
0.000161396
-0.000145591
0.00122934
9.51582e-05
-4.5723e-05
0.00125649
-2.80209e-05
-2.13907e-05
0.00112962
9.42443e-05
-2.64034e-06
0.000806753
0.000208508
-1.61484e-05
0.000420088
0.000273741
-9.63949e-05
7.61224e-05
0.000316008
-0.000283723
0.000314354
-0.000635908
0.00172974
-6.1247e-09
-5.86728e-05
0.00176405
1.06188e-08
-4.69906e-05
0.00178819
-5.70705e-09
-3.8526e-05
0.00180605
1.05032e-08
-3.19993e-05
0.00181986
-9.30219e-09
-2.70062e-05
0.00183057
1.11328e-08
-2.2572e-05
0.00183937
-1.66681e-08
-1.96576e-05
0.00184606
-8.18687e-09
-1.61296e-05
0.00185274
-1.53776e-07
-1.51118e-05
0.00185553
3.31613e-07
-1.23772e-05
0.00186953
-1.3993e-06
-1.57836e-05
0.00184886
2.61009e-06
5.28989e-06
0.00189038
-2.25131e-06
-2.67791e-05
0.00181598
7.3114e-06
6.26279e-05
0.00175995
5.78236e-05
0.000106771
0.00144244
0.000339186
0.000306071
0.00131431
0.000293279
-0.000107882
0.00122845
0.000332787
-0.000134196
0.000949109
0.000359849
-3.61595e-05
0.00110498
0.000416381
5.10007e-05
0.000801133
0.000389914
-1.13725e-05
0.000528993
0.000409041
-3.90508e-05
0.000209581
0.000502221
-9.82237e-05
-4.80039e-05
0.000589767
-0.000283863
0.000538098
-0.000607894
0.00172975
9.39153e-09
-5.87272e-05
0.00176405
-6.2474e-09
-4.69287e-05
0.00178821
7.5257e-09
-3.85795e-05
0.00180605
-7.02507e-09
-3.1944e-05
0.00181988
6.67958e-09
-2.70632e-05
0.00183056
-8.02854e-09
-2.25066e-05
0.00183939
1.20816e-08
-1.97372e-05
0.0018458
2.36043e-08
-1.59501e-05
0.00185151
2.11226e-07
-1.5037e-05
0.00185703
-5.5484e-08
-1.37743e-05
0.0018539
1.88087e-06
-7.70293e-06
0.00186608
-4.71408e-07
-1.59375e-05
0.00183035
6.68808e-06
2.35578e-05
0.00187483
1.13084e-05
-4.18235e-05
0.00174812
3.41309e-05
0.000282245
0.00152311
0.000370872
0.000246453
0.00132521
0.000466102
-7.82692e-05
0.00123057
0.000512903
-0.000126539
0.000999043
0.000583925
-2.2008e-05
0.00109205
0.000729682
5.23171e-05
0.000818592
0.000667874
6.3666e-06
0.000476207
0.000662776
-2.1558e-05
0.000137531
0.000748027
-8.88604e-05
-8.26333e-05
0.000840807
-0.000274234
0.000732526
-0.000582185
0.00172973
9.62995e-10
-5.86683e-05
0.00176406
7.92717e-10
-4.69946e-05
0.00178819
-6.64928e-10
-3.8525e-05
0.00180606
-1.11247e-11
-3.20003e-05
0.00181986
-2.25664e-09
-2.70102e-05
0.00183057
1.8639e-09
-2.25649e-05
0.00183938
-2.14169e-09
-1.96751e-05
0.00184601
1.78177e-08
-1.60952e-05
0.00185255
5.56783e-08
-1.51681e-05
0.00185559
2.62494e-07
-1.24388e-05
0.00186828
4.48795e-07
-1.62219e-05
0.00185061
2.0158e-06
3.86068e-06
0.00188747
4.33767e-06
-2.71726e-05
0.00181166
1.78266e-05
6.22067e-05
0.00177147