/*--------------------------------*- C++ -*----------------------------------*\
  =========                 |
  \\      /  F ield         | OpenFOAM: The Open Source CFD Toolbox
   \\    /   O peration     | Website:  https://openfoam.org
    \\  /    A nd           | Version:  6
     \\/     M anipulation  |
\*---------------------------------------------------------------------------*/
FoamFile
{
    version     2.0;
    format      ascii;
    class       volScalarField;
    location    "6.5";
    object      T;
}
// * * * * * * * * * * * * * * * * * * * * * * * * * * * * * * * * * * * * * //

dimensions      [0 0 0 1 0 0 0];

internalField   nonuniform List<scalar> 
26250
(
0.980053
0.967447
0.95581
0.946661
0.93775
0.931085
0.924343
0.920787
0.920158
0.928664
0.945794
1.01717
1.1546
1.63213
2.56808
2.72341
2.68204
2.63997
2.5982
2.61152
2.61819
2.63735
2.67371
2.7215
2.71576
0.980058
0.967441
0.955814
0.946656
0.937755
0.931079
0.924347
0.920772
0.920145
0.928594
0.945625
1.01673
1.1535
1.62982
2.56463
2.72052
2.68018
2.63542
2.59715
2.59728
2.60954
2.63494
2.66772
2.71933
2.71032
0.980069
0.967428
0.955826
0.946644
0.937767
0.931067
0.924353
0.920731
0.920108
0.928453
0.945252
1.01598
1.15116
1.6276
2.56366
2.72711
2.68998
2.64122
2.60563
2.60498
2.61903
2.64483
2.67871
2.72815
2.71809
0.980138
0.967361
0.955899
0.946574
0.937839
0.930995
0.924407
0.920603
0.920051
0.928134
0.942778
1.01473
1.14587
1.62362
2.55374
2.71822
2.67906
2.63606
2.60133
2.609
2.62238
2.64932
2.6834
2.73599
2.73642
0.980878
0.966609
0.956664
0.945791
0.938626
0.930185
0.925246
0.919865
0.922773
0.923789
0.948694
0.99175
1.17074
1.64697
2.42609
2.69308
2.65226
2.61429
2.58267
2.58635
2.60272
2.63253
2.66982
2.72524
2.73362
0.980246
0.967252
0.956012
0.946464
0.937951
0.930882
0.924485
0.920375
0.919887
0.927339
0.939097
1.01054
1.1318
1.60413
2.51169
2.6967
2.6543
2.61412
2.57898
2.58052
2.595
2.62431
2.6599
2.71703
2.72979
0.980791
0.966697
0.956575
0.945881
0.938538
0.930266
0.92514
0.919791
0.922088
0.922585
0.947163
0.987227
1.15765
1.60452
2.36962
2.66991
2.62965
2.5997
2.56707
2.56737
2.58342
2.60939
2.64814
2.70198
2.72235
0.980321
0.967175
0.956088
0.946379
0.938028
0.930792
0.92452
0.920097
0.919623
0.926555
0.938797
1.0043
1.11561
1.56842
2.4593
2.66864
2.6272
2.5947
2.55884
2.55748
2.57402
2.59584
2.63381
2.6897
2.70646
0.980319
0.967175
0.956083
0.946377
0.938025
0.930788
0.924517
0.920052
0.919531
0.926003
0.938962
0.999747
1.10699
1.54038
2.41963
2.64416
2.62248
2.58509
2.54722
2.54403
2.55567
2.57792
2.60573
2.66436
2.6725
0.97952
0.96799
0.955258
0.947229
0.937184
0.931662
0.923713
0.921186
0.919142
0.924923
0.934793
0.995063
1.09163
1.52423
2.39159
2.62296
2.6112
2.57703
2.53964
2.53369
2.5431
2.55704
2.57369
2.61035
2.59015
1.01423
1.02101
1.02632
1.02895
1.03186
1.03302
1.03519
1.03708
1.04532
1.05827
1.09723
1.19399
1.41832
2.06381
2.83673
2.67762
2.80555
2.76662
2.76422
2.76929
2.77548
2.78977
2.82365
2.83015
2.75786
1.01423
1.02101
1.02632
1.02895
1.03186
1.03302
1.03518
1.03708
1.04529
1.05822
1.09704
1.19377
1.41738
2.06267
2.83433
2.68094
2.80275
2.7626
2.75419
2.76325
2.7743
2.78432
2.81016
2.83465
2.7637
1.01423
1.02101
1.02632
1.02895
1.03186
1.03302
1.03518
1.03706
1.04522
1.05805
1.09674
1.19257
1.41549
2.05329
2.83698
2.66714
2.80233
2.76146
2.75136
2.76041
2.77488
2.7827
2.80275
2.83262
2.76548
1.01423
1.02101
1.02632
1.02895
1.03186
1.03303
1.03517
1.03702
1.0451
1.05777
1.09617
1.19092
1.41208
2.05286
2.82701
2.68416
2.79983
2.75581
2.75113
2.75738
2.7718
2.77887
2.79397
2.8274
2.76574
1.01421
1.02106
1.02628
1.02901
1.03181
1.03309
1.03508
1.03692
1.04413
1.05836
1.09071
1.19634
1.39951
2.04832
2.82135
2.69209
2.79944
2.75186
2.74659
2.75156
2.76329
2.77181
2.78531
2.81625
2.763
1.01423
1.02101
1.02632
1.02895
1.03186
1.03303
1.03514
1.03691
1.04471
1.05687
1.0943
1.18482
1.39984
2.01472
2.81437
2.71125
2.79105
2.74151
2.73673
2.74154
2.75035
2.75662
2.76939
2.80238
2.75579
1.01421
1.02106
1.02628
1.02901
1.03181
1.03308
1.03505
1.03679
1.04373
1.05721
1.08837
1.18886
1.38271
1.98166
2.81311
2.72019
2.78795
2.73296
2.72837
2.73308
2.74135
2.74339
2.75109
2.78044
2.73904
1.01423
1.02102
1.02631
1.02896
1.03185
1.03303
1.0351
1.03677
1.04412
1.05557
1.09127
1.17513
1.37881
1.92221
2.80298
2.7176
2.78013
2.72138
2.7131
2.71593
2.72249
2.72427
2.72628
2.7527
2.71459
1.01422
1.02102
1.02631
1.02897
1.03184
1.03303
1.03507
1.03668
1.04377
1.05476
1.08945
1.16912
1.3657
1.86233
2.79077
2.7201
2.75826
2.71229
2.70375
2.70326
2.70395
2.7008
2.69815
2.71112
2.65692
1.01415
1.02106
1.02625
1.02899
1.0318
1.03305
1.03503
1.03658
1.04329
1.05404
1.08579
1.16819
1.34716
1.84322
2.78132
2.72757
2.72369
2.68957
2.68501
2.685
2.68118
2.67403
2.65661
2.65857
2.57616
1.00627
1.01275
1.02143
1.02808
1.03561
1.04071
1.04702
1.05189
1.06269
1.07983
1.12561
1.23867
1.48707
2.20243
2.88152
2.45366
2.78252
2.76328
2.76569
2.72909
2.81351
2.81224
2.81196
2.81155
2.76821
1.0063
1.01273
1.02145
1.02805
1.03563
1.04068
1.04704
1.05186
1.06275
1.07961
1.1259
1.23711
1.48725
2.2061
2.87991
2.45566
2.78154
2.76012
2.764
2.72863
2.80624
2.80795
2.80715
2.80744
2.76293
1.00627
1.01275
1.02143
1.02808
1.03561
1.04071
1.04702
1.05187
1.0626
1.07966
1.1251
1.23764
1.48428
2.19928
2.87742
2.4666
2.77853
2.75298
2.75869
2.72707
2.80174
2.80318
2.79824
2.79818
2.75549
1.0063
1.01272
1.02145
1.02805
1.03563
1.04068
1.04704
1.05182
1.06258
1.07927
1.12492
1.23501
1.48161
2.19705
2.87384
2.48581
2.78191
2.75001
2.75541
2.71694
2.79257
2.79317
2.7895
2.78986
2.74826
1.00632
1.0127
1.02148
1.02803
1.03566
1.04065
1.04706
1.05176
1.06249
1.07877
1.12442
1.23158
1.47692
2.18716
2.87028
2.50431
2.78184
2.74543
2.75104
2.71096
2.78262
2.78442
2.77503
2.77185
2.73327
1.00631
1.01271
1.02147
1.02804
1.03565
1.04066
1.04704
1.05172
1.0622
1.07841
1.12282
1.22915
1.46814
2.16134
2.8665
2.52583
2.77927
2.73797
2.74426
2.7057
2.76266
2.76861
2.76016
2.75799
2.71988
1.00633
1.01269
1.02149
1.02801
1.03567
1.04063
1.04705
1.05164
1.06194
1.07768
1.12132
1.22395
1.45741
2.12913
2.86113
2.55129
2.77413
2.72828
2.73288
2.69801
2.74051
2.75279
2.73933
2.72935
2.69021
1.00633
1.01269
1.02149
1.02801
1.03567
1.04063
1.04703
1.05156
1.06153
1.077
1.11896
1.21934
1.44338
2.08723
2.85335
2.57887
2.76718
2.7154
2.72136
2.68863
2.71203
2.73007
2.71413
2.70322
2.66131
1.00636
1.01266
1.02152
1.02798
1.0357
1.0406
1.04705
1.05145
1.06117
1.07601
1.11692
1.21228
1.42923
2.04354
2.83973
2.60928
2.75949
2.70148
2.70309
2.67626
2.6853
2.70488
2.68199
2.6583
2.60208
1.00631
1.01271
1.02146
1.02804
1.03564
1.04064
1.04698
1.05133
1.06056
1.07522
1.11391
1.20819
1.41285
1.99122
2.81454
2.64448
2.74572
2.68688
2.69011
2.65997
2.65396
2.67104
2.64547
2.60974
2.49429
1.01423
1.021
1.02632
1.02894
1.03186
1.03302
1.03518
1.03706
1.04528
1.05816
1.09711
1.19377
1.41889
2.07086
2.83909
2.66841
2.79934
2.76291
2.75066
2.76086
2.76917
2.78602
2.79984
2.83464
2.7837
1.01421
1.02105
1.02628
1.02901
1.03181
1.03309
1.0351
1.037
1.04438
1.05909
1.09226
1.2013
1.41108
2.07322
2.84615
2.65089
2.80442
2.76718
2.76374
2.77318
2.77869
2.7945
2.81064
2.8334
2.76912
1.01424
1.021
1.02633
1.02895
1.03187
1.03302
1.03517
1.03703
1.04518
1.0579
1.09668
1.19222
1.41623
2.07063
2.83263
2.67342
2.7991
2.75766
2.75789
2.76427
2.77096
2.78705
2.80821
2.82827
2.76666
1.01422
1.02105
1.02629
1.029
1.03182
1.03309
1.03509
1.03696
1.0443
1.0587
1.09159
1.1988
1.40532
2.06919
2.82715
2.68498
2.80193
2.75711
2.74917
2.75868
2.76897
2.77652
2.79958
2.82246
2.76402
1.01422
1.02105
1.02629
1.029
1.03182
1.03308
1.03509
1.03692
1.04421
1.05832
1.09097
1.1964
1.39993
2.05789
2.81804
2.69369
2.80081
2.75406
2.74638
2.75116
2.76314
2.76923
2.78893
2.81237
2.75842
1.01421
1.02105
1.02629
1.029
1.03182
1.03308
1.03507
1.03687
1.04401
1.05785
1.08984
1.19313
1.39237
2.02966
2.81268
2.71415
2.79443
2.74618
2.73916
2.74298
2.75158
2.7553
2.77138
2.80054
2.75051
1.01423
1.02101
1.02632
1.02895
1.03185
1.03303
1.03512
1.03685
1.04446
1.05635
1.09288
1.18084
1.39
1.96996
2.80922
2.71626
2.7869
2.73387
2.73055
2.73487
2.74285
2.74221
2.75028
2.77817
2.7329
1.01423
1.02101
1.02631
1.02896
1.03184
1.03303
1.0351
1.03677
1.04414
1.05563
1.0912
1.1754
1.37825
1.91315
2.80335
2.71777
2.77708
2.71905
2.71319
2.71687
2.72507
2.72519
2.72597
2.75076
2.70839
1.01422
1.02102
1.0263
1.02896
1.03184
1.03303
1.03507
1.03668
1.04378
1.05477
1.08947
1.16927
1.3656
1.86239
2.79143
2.72061
2.7564
2.70975
2.70274
2.70286
2.70446
2.70132
2.69789
2.70864
2.65019
1.01418
1.02104
1.02628
1.02898
1.03182
1.03304
1.03504
1.03657
1.04331
1.05406
1.08585
1.16828
1.34741
1.84319
2.78109
2.72761
2.7226
2.6864
2.68355
2.685
2.68186
2.67496
2.65724
2.65806
2.57023
0.980118
0.967378
0.955878
0.946593
0.937819
0.931016
0.924397
0.920658
0.920106
0.928448
0.94335
1.01722
1.15125
1.63978
2.58389
2.73224
2.693
2.64546
2.608
2.60733
2.61785
2.64489
2.675
2.7297
2.70555
0.980933
0.96655
0.956721
0.94573
0.938686
0.930126
0.925321
0.919877
0.923329
0.923381
0.950874
0.994151
1.1843
1.67852
2.45102
2.71171
2.67238
2.62905
2.59152
2.60638
2.61354
2.63838
2.66987
2.72089
2.70227
0.980176
0.967321
0.95594
0.946534
0.937882
0.930956
0.924448
0.920558
0.920065
0.928193
0.941005
1.01587
1.14371
1.63771
2.57688
2.73015
2.68902
2.64547
2.60792
2.6211
2.62937
2.65345
2.68612
2.73769
2.7296
0.980939
0.966546
0.956727
0.945731
0.938687
0.930131
0.925304
0.919852
0.923048
0.923949
0.950653
0.997463
1.1769
1.66458
2.43011
2.69649
2.65707
2.61839
2.58814
2.59206
2.60676
2.63767
2.67103
2.72977
2.72965
0.980877
0.966613
0.956663
0.945799
0.938619
0.930201
0.925216
0.919892
0.922626
0.924859
0.950009
0.997605
1.17094
1.6334
2.42177
2.69186
2.65083
2.61236
2.58108
2.58534
2.59966
2.62985
2.66379
2.72304
2.73013
0.980864
0.966622
0.956651
0.945805
0.938614
0.930196
0.925229
0.91985
0.922773
0.923379
0.948736
0.993301
1.1648
1.62712
2.39699
2.68106
2.639
2.60304
2.56898
2.56929
2.58311
2.61224
2.64761
2.70616
2.72536
0.980286
0.967211
0.956042
0.946426
0.937986
0.930828
0.924495
0.920158
0.919729
0.927119
0.940503
1.00802
1.12562
1.5856
2.48556
2.68322
2.64139
2.60292
2.56759
2.56385
2.57994
2.59965
2.6389
2.68723
2.7147
0.980284
0.967208
0.956045
0.946419
0.937982
0.930829
0.924478
0.920093
0.919612
0.92659
0.940707
1.00396
1.11761
1.56384
2.45665
2.66775
2.63058
2.59892
2.56415
2.5601
2.57622
2.59366
2.63031
2.67642
2.696
0.98032
0.967173
0.956076
0.946389
0.93801
0.930794
0.924512
0.92003
0.919543
0.925963
0.939024
0.999827
1.10713
1.54048
2.42088
2.64403
2.62238
2.5851
2.54955
2.54747
2.5636
2.57974
2.61288
2.65909
2.66215
0.979984
0.967509
0.955745
0.946724
0.937687
0.931133
0.924183
0.920403
0.919454
0.924942
0.935234
0.995109
1.09121
1.5242
2.3919
2.62309
2.61111
2.57652
2.5404
2.5343
2.54579
2.55794
2.57714
2.61627
2.58484
0.980888
0.96661
0.956665
0.945792
0.938627
0.93016
0.925184
0.919338
0.920158
0.920169
0.941022
0.972174
1.12096
1.44807
2.18756
2.57104
2.57263
2.54964
2.51924
2.51563
2.52095
2.53284
2.53149
2.52603
2.43288
0.979034
0.968503
0.954754
0.947757
0.936671
0.932173
0.923165
0.921358
0.917688
0.922996
0.930896
0.984767
1.07342
1.45836
2.2696
2.54167
2.54764
2.52498
2.4961
2.48853
2.4896
2.48837
2.4792
2.45414
2.35638
0.980862
0.966639
0.956639
0.945819
0.938599
0.930178
0.925109
0.91917
0.919082
0.919628
0.936359
0.962508
1.09513
1.35937
2.04648
2.48792
2.51659
2.4994
2.47953
2.47162
2.46894
2.46212
2.44549
2.4132
2.33442
0.979304
0.968219
0.955037
0.947453
0.936972
0.931837
0.923451
0.920735
0.916884
0.921029
0.929311
0.972736
1.05337
1.36261
2.08394
2.42293
2.46911
2.45658
2.44301
2.43512
2.43161
2.42445
2.40643
2.37697
2.32268
0.979428
0.968087
0.955174
0.947307
0.937124
0.931666
0.923597
0.920398
0.916322
0.919961
0.92615
0.965053
1.02685
1.30027
1.97812
2.37994
2.4471
2.44179
2.42712
2.40993
2.3994
2.38443
2.36841
2.33202
2.29795
0.980735
0.96676
0.956531
0.94592
0.938515
0.930227
0.924985
0.918723
0.916856
0.916371
0.92751
0.946475
1.03259
1.19162
1.71396
2.28272
2.41999
2.42066
2.41317
2.39533
2.3797
2.3561
2.33367
2.29841
2.25283
0.980585
0.966921
0.956379
0.946084
0.938363
0.930386
0.924808
0.918773
0.916144
0.9156
0.924063
0.940393
1.0064
1.12884
1.55032
2.12721
2.35414
2.36896
2.37965
2.3693
2.3583
2.33953
2.31624
2.28473
2.23757
0.980318
0.967165
0.956159
0.946262
0.938225
0.930507
0.924656
0.91889
0.915648
0.915315
0.920618
0.936657
0.979389
1.09502
1.4187
2.05976
2.28978
2.31685
2.32107
2.31384
2.3065
2.30005
2.28529
2.26577
2.22924
0.980335
0.967189
0.956097
0.946381
0.938062
0.930692
0.924489
0.918934
0.915179
0.914864
0.917851
0.92815
0.964208
1.04875
1.30329
1.93664
2.25357
2.30476
2.30197
2.28768
2.27016
2.25639
2.2423
2.22499
2.20319
0.979697
0.967823
0.955447
0.947039
0.93739
0.931381
0.923753
0.919622
0.913903
0.913386
0.912957
0.924899
0.946084
1.02884
1.20004
1.66774
2.16447
2.28339
2.28703
2.2753
2.25886
2.23601
2.21602
2.19375
2.16889
0.980823
0.966678
0.956603
0.945858
0.93856
0.930188
0.924906
0.918394
0.914881
0.911122
0.913344
0.917697
0.941985
0.987895
1.13817
1.59669
2.02978
2.22147
2.25002
2.24943
2.24053
2.22242
2.20324
2.18227
2.15671
0.980253
0.967262
0.956011
0.946466
0.937965
0.930792
0.924298
0.919003
0.914086
0.911188
0.9108
0.915865
0.927365
0.970426
1.05878
1.36146
1.94737
2.16105
2.20232
2.20789
2.19886
2.18774
2.17356
2.15866
2.1416
0.980756
0.966713
0.956553
0.945943
0.938494
0.930142
0.925026
0.918231
0.914614
0.910213
0.910353
0.910853
0.923492
0.948349
1.02681
1.22852
1.67626
2.10935
2.19488
2.19359
2.18421
2.16501
2.14328
2.12474
2.10658
0.980711
0.966787
0.956498
0.945964
0.938466
0.930254
0.924852
0.918352
0.914567
0.909725
0.908824
0.908594
0.917199
0.933681
0.993869
1.105
1.46918
1.94836
2.14641
2.1707
2.17033
2.15753
2.13649
2.11397
2.09367
0.980425
0.967072
0.956208
0.946251
0.938178
0.930555
0.924549
0.918646
0.914256
0.909801
0.907635
0.90727
0.912559
0.92339
0.964395
1.03269
1.31412
1.82848
2.06416
2.12723
2.13687
2.13436
2.12301
2.10127
2.08413
0.980179
0.967329
0.95595
0.94652
0.937911
0.930835
0.924275
0.918923
0.91397
0.909967
0.906911
0.906736
0.909154
0.917213
0.94289
0.999567
1.17731
1.63785
1.98115
2.1028
2.11758
2.1159
2.1067
2.0906
2.07374
0.980706
0.966803
0.95649
0.945956
0.938474
0.930286
0.924787
0.918418
0.91446
0.909403
0.907213
0.905332
0.906862
0.91242
0.927173
0.971129
1.0673
1.41496
1.83056
2.04891
2.08662
2.0903
2.08543
2.07284
2.05616
0.980588
0.966939
0.956372
0.946023
0.93841
0.930425
0.924553
0.918709
0.91421
0.909471
0.90685
0.903908
0.904956
0.907428
0.918447
0.946228
1.01437
1.21304
1.5978
1.97251
2.06556
2.07501
2.0728
2.06293
2.04766
0.980488
0.967015
0.956271
0.946195
0.938222
0.930539
0.92455
0.918641
0.9142
0.909622
0.906395
0.903457
0.903304
0.904103
0.911054
0.928311
0.978515
1.08422
1.39924
1.81273
2.00485
2.04207
2.0511
2.05278
2.04933
0.980485
0.967016
0.956265
0.946197
0.938225
0.930518
0.924578
0.918613
0.914222
0.909563
0.906414
0.902958
0.901801
0.901653
0.906301
0.916823
0.950027
1.01377
1.24764
1.68787
1.92203
2.00685
2.02553
2.03074
2.03811
0.980233
0.96727
0.956007
0.946459
0.937967
0.930776
0.924324
0.91887
0.913965
0.909812
0.906143
0.903039
0.900875
0.900729
0.903121
0.910604
0.929229
0.976824
1.10305
1.46838
1.82097
1.9804
2.01509
2.02671
2.03842
0.98062
0.966883
0.956401
0.946062
0.938365
0.930372
0.924723
0.918466
0.914358
0.909416
0.906511
0.902626
0.901016
0.899633
0.90081
0.904949
0.916751
0.94767
1.02245
1.25852
1.61356
1.91208
2.00418
2.03164
2.05863
0.980527
0.966975
0.956308
0.946159
0.938269
0.930472
0.92462
0.918574
0.914247
0.909526
0.906391
0.902698
0.900621
0.898577
0.899321
0.901328
0.908343
0.928487
0.978181
1.09543
1.40955
1.78081
1.97166
2.04184
2.09464
0.980445
0.967062
0.956219
0.946249
0.938178
0.930565
0.924528
0.91867
0.91415
0.909632
0.906271
0.902802
0.900388
0.898079
0.897897
0.898415
0.903167
0.914674
0.949636
1.01356
1.24281
1.67041
1.9201
2.06941
2.15368
0.980343
0.967162
0.956116
0.94635
0.938074
0.930667
0.924426
0.918768
0.914056
0.909723
0.906185
0.902875
0.900275
0.897926
0.896938
0.897163
0.899821
0.908591
0.927498
0.978754
1.10864
1.48578
1.88073
2.13369
2.2372
0.980251
0.967238
0.956042
0.946414
0.938012
0.930729
0.924365
0.918828
0.914002
0.909767
0.906148
0.902895
0.900236
0.897822
0.8964
0.896316
0.898073
0.904842
0.917013
0.961682
1.0457
1.33704
1.80895
2.23023
2.3602
0.980531
0.966958
0.95632
0.946135
0.938284
0.930454
0.924631
0.918563
0.914257
0.909501
0.906435
0.902551
0.90062
0.897354
0.896567
0.895654
0.896792
0.901635
0.913415
0.943998
1.03349
1.23982
1.76211
2.32516
2.4778
0.980403
0.967098
0.95618
0.946285
0.93814
0.930602
0.924494
0.918701
0.914125
0.909647
0.906265
0.90277
0.900349
0.897641
0.896278
0.895692
0.896678
0.900801
0.910333
0.941625
1.01477
1.22237
1.73325
2.40572
2.56963
0.980441
0.967047
0.956226
0.946241
0.938184
0.93056
0.924542
0.918654
0.914168
0.909609
0.906295
0.902744
0.900369
0.89761
0.896229
0.895334
0.896217
0.899758
0.908612
0.936941
1.00276
1.19291
1.64748
2.49424
2.6586
0.98043
0.967049
0.956236
0.946231
0.938218
0.930532
0.924591
0.91862
0.914198
0.909593
0.906309
0.902718
0.900394
0.897576
0.896188
0.895069
0.89589
0.898941
0.907376
0.932685
0.997774
1.16059
1.61335
2.50117
2.68517
0.980408
0.967107
0.956202
0.946265
0.938202
0.930532
0.924585
0.91861
0.914206
0.909577
0.906331
0.902688
0.900447
0.897522
0.89615
0.894826
0.89567
0.898071
0.907022
0.929121
0.997132
1.1384
1.5968
2.48142
2.70809
0.980409
0.967064
0.956227
0.946246
0.938194
0.930575
0.924547
0.918669
0.914179
0.909616
0.906293
0.902752
0.900345
0.897602
0.896112
0.894964
0.895702
0.898723
0.906133
0.93194
0.989735
1.1538
1.58505
2.46351
2.70019
0.980454
0.967082
0.956186
0.946295
0.938139
0.930598
0.924526
0.918667
0.914177
0.909598
0.906305
0.902741
0.900328
0.897604
0.896123
0.894732
0.895543
0.897898
0.905986
0.927372
0.991157
1.12462
1.57547
2.46885
2.69912
0.98047
0.967068
0.956192
0.946307
0.938118
0.930634
0.924484
0.9187
0.914138
0.909612
0.906302
0.902696
0.900399
0.897547
0.89613
0.894765
0.895529
0.897891
0.905659
0.926946
0.988885
1.11886
1.56339
2.45244
2.68328
0.980496
0.967029
0.956237
0.946266
0.938132
0.930647
0.924433
0.91875
0.914111
0.909604
0.906336
0.902702
0.900369
0.897579
0.896158
0.89465
0.89549
0.897591
0.905734
0.925649
0.988816
1.11084
1.55554
2.44501
2.66828
0.980493
0.967047
0.956215
0.946293
0.938095
0.930667
0.924415
0.918732
0.914145
0.909546
0.906393
0.902645
0.900425
0.897544
0.89616
0.894704
0.895484
0.897675
0.905408
0.925679
0.986963
1.11126
1.54733
2.435
2.65096
0.980474
0.967106
0.956132
0.946379
0.938015
0.930706
0.924408
0.918713
0.914147
0.909577
0.90632
0.902709
0.900376
0.897571
0.89613
0.894879
0.895576
0.898284
0.905212
0.928717
0.983047
1.12786
1.53865
2.42006
2.63734
0.980514
0.967028
0.956229
0.946281
0.938122
0.930636
0.924467
0.918694
0.914166
0.909555
0.906373
0.902636
0.900435
0.897546
0.896081
0.894644
0.895478
0.897383
0.905613
0.924965
0.986795
1.10555
1.53771
2.43346
2.62746
0.980489
0.967045
0.956195
0.946293
0.938104
0.930611
0.92451
0.91862
0.914241
0.909501
0.906388
0.902669
0.900393
0.897573
0.896119
0.894824
0.895531
0.897966
0.905244
0.926596
0.984321
1.11343
1.53286
2.4323
2.61692
0.980454
0.967075
0.956167
0.946317
0.938081
0.930639
0.92447
0.918681
0.914154
0.909608
0.906282
0.902752
0.900361
0.897572
0.896177
0.894945
0.895666
0.898381
0.905394
0.92856
0.982625
1.12449
1.52762
2.42169
2.61517
1.01386
1.0214
1.02593
1.02935
1.03145
1.03344
1.03466
1.03709
1.04112
1.05544
1.0835
1.15045
1.35733
1.85447
2.74583
2.74082
2.7186
2.67199
2.66626
2.66478
2.65749
2.64425
2.61146
2.57518
2.43618
1.01374
1.02145
1.02586
1.02937
1.03141
1.03343
1.03463
1.03699
1.04086
1.05288
1.0826
1.13961
1.34515
1.80877
2.69466
2.7368
2.70974
2.65208
2.64651
2.64327
2.6327
2.61189
2.5676
2.51278
2.37815
1.01383
1.02143
1.02591
1.02938
1.03142
1.03344
1.03454
1.03665
1.0402
1.05291
1.07759
1.13616
1.32014
1.74812
2.63394
2.72835
2.69561
2.64956
2.62717
2.62122
2.60794
2.58362
2.52992
2.47511
2.35979
1.01389
1.02132
1.026
1.02924
1.03154
1.03329
1.03461
1.0363
1.0399
1.04909
1.0759
1.12108
1.30601
1.68727
2.5258
2.70651
2.66408
2.64876
2.62335
2.60121
2.58001
2.55577
2.50325
2.45719
2.35621
1.01401
1.02119
1.02613
1.02911
1.03168
1.03312
1.03481
1.036
1.04028
1.04812
1.06839
1.12992
1.2436
1.65418
2.52289
2.65659
2.64352
2.63
2.6145
2.59515
2.55906
2.53198
2.47615
2.43729
2.35743
1.01418
1.02108
1.02626
1.02903
1.03178
1.03308
1.03479
1.03579
1.03866
1.04791
1.06577
1.10886
1.24576
1.52176
2.33507
2.63019
2.64006
2.6174
2.59675
2.58154
2.54636
2.51893
2.46159
2.42335
2.35847
1.01393
1.02132
1.02603
1.02926
1.03155
1.03329
1.03456
1.03589
1.03806
1.04634
1.06075
1.09866
1.21034
1.44051
2.12316
2.55979
2.63254
2.60946
2.58494
2.56768
2.53054
2.5042
2.4473
2.40659
2.35515
1.014
1.02124
1.0261
1.02917
1.03165
1.03318
1.03469
1.03575
1.03838
1.04304
1.05603
1.09124
1.15919
1.38617
1.99296
2.46056
2.60295
2.59237
2.5681
2.55179
2.51847
2.495
2.4453
2.3949
2.35124
1.01399
1.02125
1.02609
1.02918
1.03163
1.03319
1.03465
1.03566
1.03773
1.04123
1.05282
1.07737
1.13516
1.29722
1.7609
2.3624
2.56704
2.56221
2.54428
2.52884
2.4959
2.47433
2.43886
2.389
2.34338
1.01389
1.02132
1.02601
1.02924
1.03156
1.03323
1.03456
1.03556
1.03701
1.0398
1.05018
1.06808
1.1162
1.24794
1.5641
2.25111
2.52758
2.53881
2.52421
2.51356
2.48694
2.45948
2.43177
2.38798
2.34143
1.01384
1.02141
1.02593
1.02935
1.03145
1.03338
1.0344
1.03572
1.03665
1.03995
1.04548
1.06176
1.10467
1.18912
1.47741
2.13709
2.44272
2.51337
2.49815
2.49065
2.47408
2.44181
2.41633
2.3843
2.34213
1.01383
1.0214
1.02593
1.02933
1.03146
1.03335
1.03441
1.03565
1.03651
1.03902
1.04311
1.05662
1.0863
1.15509
1.35297
1.93884
2.33141
2.48018
2.47914
2.47293
2.46141
2.43659
2.40319
2.37366
2.34007
1.01412
1.02113
1.02621
1.02908
1.03173
1.03309
1.03468
1.03534
1.03656
1.03756
1.04179
1.05008
1.06984
1.13055
1.24522
1.60487
2.26951
2.41662
2.43394
2.43278
2.42921
2.42119
2.39866
2.36716
2.33376
1.01401
1.02125
1.02609
1.0292
1.03161
1.03322
1.03455
1.03546
1.03629
1.03728
1.0397
1.04715
1.06298
1.09919
1.21318
1.44559
2.06221
2.38396
2.41996
2.41501
2.40168
2.38745
2.38185
2.36372
2.33295
1.01407
1.02118
1.02616
1.02912
1.03169
1.03313
1.03463
1.03535
1.03636
1.037
1.03868
1.04483
1.05529
1.08344
1.16399
1.32446
1.78576
2.26867
2.39533
2.39467
2.38664
2.36952
2.34835
2.34233
2.32778
1.01389
1.02134
1.026
1.02926
1.03153
1.03327
1.03448
1.03548
1.03621
1.03698
1.03803
1.04258
1.04905
1.07198
1.11763
1.23065
1.53644
2.12464
2.332
2.36302
2.36783
2.35954
2.34176
2.32385
2.31229
1.01381
1.02144
1.0259
1.02937
1.03143
1.03339
1.03436
1.0356
1.03609
1.03706
1.03774
1.0408
1.04537
1.06166
1.09452
1.17055
1.40508
1.96974
2.26043
2.33244
2.33358
2.33346
2.32744
2.31541
2.3023
1.01383
1.02142
1.02592
1.02934
1.03146
1.03337
1.03437
1.03559
1.0361
1.03694
1.03745
1.03886
1.0437
1.05238
1.07471
1.13781
1.26165
1.62641
2.13055
2.30328
2.3105
2.31048
2.30614
2.29894
2.29906
1.01387
1.02137
1.02597
1.0293
1.0315
1.03332
1.03443
1.03553
1.03613
1.03691
1.03736
1.03859
1.04081
1.04871
1.06255
1.10176
1.19303
1.43702
1.93565
2.23893
2.29577
2.29171
2.29047
2.28545
2.28975
1.0139
1.02135
1.02598
1.02929
1.03151
1.03331
1.03445
1.03552
1.03614
1.03688
1.03726
1.03798
1.03951
1.04537
1.05411
1.08147
1.14468
1.2886
1.69909
2.09995
2.25774
2.27858
2.28289
2.28674
2.29525
1.014
1.02123
1.0261
1.02917
1.03163
1.03318
1.03458
1.03538
1.03627
1.03673
1.03738
1.03777
1.03875
1.04264
1.04812
1.06724
1.10612
1.19526
1.45904
1.97647
2.18637
2.24981
2.26436
2.28575
2.30637
1.01393
1.02132
1.02602
1.02926
1.03154
1.03327
1.03449
1.03548
1.03618
1.03682
1.03728
1.03778
1.03836
1.04078
1.0445
1.05729
1.08233
1.14513
1.31324
1.75325
2.09527
2.22617
2.2537
2.28246
2.33374
1.01387
1.02138
1.02596
1.02932
1.03149
1.03332
1.03443
1.03553
1.03612
1.03688
1.03721
1.03781
1.0382
1.03967
1.04198
1.05095
1.06482
1.11106
1.19897
1.507
1.91884
2.17933
2.25455
2.30445
2.36828
1.01388
1.02136
1.02597
1.0293
1.0315
1.0333
1.03445
1.03551
1.03614
1.03685
1.03722
1.03777
1.03806
1.03893
1.04047
1.04633
1.0559
1.08392
1.15188
1.30574
1.70224
2.08023
2.24639
2.35213
2.43827
1.01393
1.02131
1.02602
1.02925
1.03155
1.03326
1.0345
1.03546
1.03619
1.03681
1.03726
1.03771
1.03801
1.03843
1.03954
1.04359
1.04939
1.06925
1.10966
1.20658
1.47322
1.99745
2.24514
2.40511
2.49371
1.01397
1.02126
1.02607
1.02919
1.0316
1.0332
1.03455
1.0354
1.03625
1.03674
1.03734
1.03762
1.0381
1.03837
1.0393
1.04112
1.0464
1.05916
1.08472
1.16705
1.33432
1.75312
2.28206
2.49191
2.56138
1.01393
1.02131
1.02603
1.02924
1.03156
1.03325
1.0345
1.03545
1.0362
1.03679
1.03729
1.03767
1.03803
1.03836
1.03883
1.04078
1.04407
1.05428
1.07737
1.13086
1.28196
1.67248
2.3001
2.59658
2.66006
1.01395
1.02128
1.02604
1.02922
1.03157
1.03322
1.03453
1.03542
1.03623
1.03676
1.03732
1.03764
1.03807
1.03829
1.03883
1.03989
1.0436
1.05096
1.06906
1.12517
1.22532
1.6125
2.39206
2.68811
2.76445
1.01393
1.0213
1.02603
1.02923
1.03157
1.03322
1.03453
1.03542
1.03623
1.03676
1.03732
1.03764
1.03807
1.03828
1.03875
1.03967
1.04332
1.04937
1.06665
1.11534
1.20633
1.54732
2.36317
2.76334
2.82472
1.01386
1.02137
1.02596
1.02931
1.0315
1.03331
1.03445
1.03551
1.03614
1.03685
1.03723
1.03773
1.03797
1.03838
1.03868
1.04002
1.04201
1.04969
1.06431
1.10171
1.21489
1.45756
2.15583
2.81167
2.83734
1.01387
1.02138
1.02597
1.02931
1.0315
1.03331
1.03444
1.03552
1.03614
1.03686
1.03722
1.03774
1.03796
1.0384
1.03865
1.03982
1.04184
1.04785
1.06351
1.09557
1.20587
1.42261
2.02018
2.8057
2.81632
1.01389
1.02135
1.02598
1.02929
1.03151
1.0333
1.03446
1.03551
1.03616
1.03685
1.03724
1.03772
1.03798
1.03833
1.03855
1.03941
1.04174
1.04761
1.05912
1.10004
1.16795
1.43352
2.07592
2.79861
2.79285
1.01388
1.02136
1.02597
1.02931
1.0315
1.03332
1.03444
1.03552
1.03614
1.03686
1.03722
1.03774
1.03796
1.03838
1.03865
1.03979
1.04152
1.04831
1.06045
1.09307
1.18517
1.38372
1.91652
2.80818
2.78927
1.01388
1.02137
1.02597
1.02931
1.03149
1.03332
1.03444
1.03552
1.03614
1.03685
1.03723
1.03773
1.03796
1.03838
1.03866
1.03983
1.04149
1.04865
1.05958
1.09441
1.17607
1.37769
1.887
2.80106
2.77564
1.01389
1.02136
1.02597
1.02931
1.03149
1.03333
1.03443
1.03553
1.03614
1.03685
1.03723
1.03774
1.03796
1.03839
1.03866
1.03977
1.04146
1.04806
1.05981
1.09145
1.18022
1.37179
1.87687
2.79198
2.75646
1.01389
1.02136
1.02597
1.02931
1.03149
1.03332
1.03443
1.03552
1.03614
1.03685
1.03723
1.03774
1.03796
1.03839
1.03865
1.03974
1.0414
1.04793
1.0593
1.09072
1.17793
1.36312
1.86686
2.78998
2.74666
1.01389
1.02136
1.02597
1.0293
1.0315
1.0333
1.03447
1.03549
1.03617
1.03683
1.03725
1.03771
1.03799
1.03834
1.03856
1.03934
1.04162
1.04687
1.05768
1.0947
1.15541
1.39427
1.95073
2.778
2.73431
1.0139
1.02136
1.02598
1.02931
1.03149
1.03333
1.03444
1.03552
1.03614
1.03685
1.03722
1.03774
1.03796
1.03839
1.03862
1.03962
1.04146
1.04643
1.06039
1.08686
1.1813
1.36157
1.86405
2.78405
2.72192
1.0139
1.02134
1.026
1.02927
1.03154
1.03327
1.03449
1.03547
1.03619
1.03681
1.03727
1.03769
1.038
1.03832
1.03857
1.03932
1.04207
1.04658
1.05943
1.09387
1.15968
1.385
1.94285
2.77945
2.70534
1.01389
1.02135
1.02599
1.02928
1.03153
1.03327
1.03449
1.03547
1.03619
1.03681
1.03727
1.03769
1.03801
1.03831
1.03857
1.03932
1.04208
1.04659
1.05972
1.09345
1.16034
1.38148
1.94294
2.78653
2.70398
1.00576
1.01326
1.02092
1.02858
1.03508
1.04121
1.04632
1.05177
1.05869
1.07703
1.11043
1.19305
1.41727
2.02942
2.77475
2.67113
2.73756
2.66567
2.66664
2.64962
2.62733
2.63412
2.60002
2.5398
2.39038
1.00577
1.01325
1.02093
1.02858
1.03509
1.0412
1.04631
1.05168
1.05835
1.07584
1.10721
1.18555
1.39717
1.96419
2.75834
2.68395
2.7175
2.66233
2.6507
2.62801
2.59661
2.59408
2.55992
2.48807
2.32718
1.00631
1.0127
1.02147
1.02803
1.03565
1.04061
1.04693
1.05089
1.05879
1.07159
1.10413
1.18637
1.35092
1.83761
2.76674
2.70116
2.68783
2.65265
2.64209
2.61966
2.57122
2.55429
2.51872
2.4558
2.3241
1.00616
1.01286
1.02132
1.02817
1.0355
1.04075
1.04674
1.0509
1.05783
1.06975
1.0999
1.17528
1.32125
1.78944
2.7466
2.71352
2.67332
2.63519
2.62467
2.60458
2.55228
2.52431
2.48488
2.43736
2.32909
1.00631
1.0127
1.02146
1.02804
1.03561
1.04067
1.04674
1.05089
1.05728
1.06834
1.09723
1.14614
1.33524
1.69821
2.61581
2.7045
2.64684
2.63392
2.61499
2.59407
2.53713
2.49522
2.45563
2.41991
2.34122
1.0058
1.01322
1.02095
1.02856
1.03509
1.04117
1.04623
1.05132
1.05688
1.0694
1.09095
1.14556
1.29739
1.62517
2.51357
2.67642
2.65434
2.62365
2.60018
2.58231
2.53303
2.48111
2.43054
2.40279
2.34406
1.00566
1.01336
1.02081
1.02869
1.03496
1.0413
1.04608
1.05136
1.05629
1.06738
1.08586
1.13384
1.26149
1.53816
2.35295
2.62912
2.66167
2.63005
2.58823
2.56778
2.52638
2.47219
2.41422
2.38276
2.34147
1.00567
1.01334
1.02083
1.02868
1.03498
1.04128
1.04608
1.05126
1.05572
1.0646
1.08084
1.11836
1.22612
1.43776
2.16408
2.55282
2.64694
2.62645
2.58036
2.55888
2.52123
2.47253
2.4038
2.36769
2.33416
1.00552
1.0135
1.02068
1.02883
1.03483
1.04142
1.04591
1.05133
1.05507
1.06263
1.07521
1.10673
1.18795
1.34949
1.81838
2.51318
2.61548
2.60089
2.56475
2.53794
2.51235
2.47363
2.4058
2.35247
2.32313
1.00588
1.01313
1.02104
1.02846
1.0352
1.04104
1.04631
1.0508
1.05527
1.06064
1.07381
1.09655
1.15598
1.30667
1.69718
2.45488
2.59449
2.57488
2.55551
2.52708
2.49509
2.46941
2.41121
2.35382
2.30952
1.00556
1.01346
1.02072
1.02878
1.03489
1.04135
1.04599
1.05106
1.05479
1.05994
1.06879
1.09035
1.12948
1.26953
1.53052
2.2806
2.54349
2.56421
2.54696
2.5122
2.48513
2.46344
2.41921
2.36036
2.3105
1.00566
1.01335
1.02082
1.02867
1.03498
1.04125
1.04606
1.05098
1.05466
1.05931
1.06564
1.08448
1.11909
1.20597
1.44069
2.09984
2.45211
2.54768
2.53499
2.51027
2.46648
2.45072
2.41926
2.36836
2.31584
1.00584
1.01318
1.02099
1.02851
1.03515
1.04109
1.04622
1.05079
1.05472
1.05863
1.06378
1.07722
1.10311
1.16595
1.32686
1.8448
2.33132
2.50336
2.50709
2.49945
2.46514
2.43473
2.41312
2.37925
2.32525
1.00527
1.01375
1.02044
1.02905
1.03461
1.0416
1.04571
1.05124
1.05422
1.05871
1.06233
1.07187
1.09121
1.14597
1.23783
1.60213
2.31771
2.4559
2.48322
2.48032
2.46329
2.42612
2.40266
2.37691
2.34383