/*--------------------------------*- C++ -*----------------------------------*\
  =========                 |
  \\      /  F ield         | OpenFOAM: The Open Source CFD Toolbox
   \\    /   O peration     | Website:  https://openfoam.org
    \\  /    A nd           | Version:  6
     \\/     M anipulation  |
\*---------------------------------------------------------------------------*/
FoamFile
{
    version     2.0;
    format      ascii;
    class       volVectorField;
    location    "6.5";
    object      U;
}
// * * * * * * * * * * * * * * * * * * * * * * * * * * * * * * * * * * * * * //

dimensions      [0 1 -1 0 0 0 0];

internalField   nonuniform List<vector> 
26250
(
(3.01561 7.32435e-08 -0.057964)
(3.02577 3.8111e-07 -0.0597755)
(3.03427 2.79023e-07 -0.0611205)
(3.0414 9.26188e-07 -0.06228)
(3.04762 1.30112e-07 -0.0631497)
(3.05271 1.26261e-06 -0.0640282)
(3.05725 -3.35597e-07 -0.0645772)
(3.05985 3.59613e-06 -0.0654544)
(3.05822 8.5851e-06 -0.0660412)
(3.05538 3.11177e-05 -0.0677296)
(3.03464 6.18972e-05 -0.070431)
(2.99551 0.000198568 -0.0790762)
(2.8451 0.000451636 -0.0952217)
(2.41268 0.00135719 -0.143564)
(1.3662 0.00348356 -0.243715)
(0.584014 0.00701513 -0.278715)
(0.714123 0.00970386 -0.259404)
(0.881861 0.0133058 -0.25167)
(0.969371 0.0177624 -0.255339)
(0.952673 0.0243712 -0.260763)
(0.935352 0.0251532 -0.261801)
(0.880053 0.0205482 -0.264384)
(0.746848 0.0119223 -0.268311)
(0.505042 0.0100876 -0.269358)
(0.295276 0.00548778 -0.263783)
(3.01561 1.00279e-06 -0.0579643)
(3.02577 1.32349e-06 -0.0597752)
(3.03427 1.33221e-06 -0.0611208)
(3.0414 2.53241e-06 -0.0622796)
(3.04762 5.02729e-08 -0.06315)
(3.05271 3.61946e-06 -0.0640279)
(3.05725 -1.97613e-06 -0.0645772)
(3.05986 1.29354e-05 -0.0654539)
(3.05825 3.1564e-05 -0.0660397)
(3.05542 0.000107404 -0.0677256)
(3.03478 0.000211604 -0.0704144)
(2.99585 0.000604244 -0.0790508)
(2.84598 0.00133621 -0.095137)
(2.41546 0.00356145 -0.143395)
(1.37477 0.0093718 -0.243511)
(0.590847 0.0168535 -0.277951)
(0.721171 0.0251717 -0.258563)
(0.888987 0.0368885 -0.25037)
(0.976273 0.0464071 -0.253988)
(0.977517 0.0538216 -0.257312)
(0.947461 0.0561186 -0.259875)
(0.886525 0.0501015 -0.262735)
(0.763158 0.0371407 -0.265459)
(0.537897 0.0350187 -0.267223)
(0.340054 0.0332755 -0.261712)
(3.01561 6.59374e-06 -0.0579648)
(3.02577 4.66972e-08 -0.0597745)
(3.03427 3.5737e-06 -0.0611214)
(3.0414 -1.11561e-06 -0.062279)
(3.04762 -4.7974e-07 -0.0631504)
(3.0527 7.42663e-08 -0.0640275)
(3.05726 -4.09397e-06 -0.0645769)
(3.05988 2.63262e-05 -0.0654524)
(3.0583 6.77043e-05 -0.066036)
(3.05553 0.000342406 -0.067713)
(3.03504 0.000698082 -0.0703884)
(2.99646 0.0016904 -0.0789688)
(2.8473 0.00328655 -0.0949465)
(2.41893 0.00746756 -0.143067)
(1.37975 0.016791 -0.243128)
(0.567371 0.0386545 -0.278281)
(0.705311 0.0529357 -0.258788)
(0.87935 0.0648412 -0.250647)
(0.964742 0.0722937 -0.254277)
(0.964793 0.0759924 -0.25736)
(0.929383 0.080582 -0.260215)
(0.861023 0.0818504 -0.262505)
(0.737949 0.0774062 -0.264647)
(0.513827 0.07631 -0.266301)
(0.311703 0.0776572 -0.260828)
(3.01561 2.47012e-05 -0.0579683)
(3.02577 -8.55792e-06 -0.0597705)
(3.03427 1.19844e-05 -0.0611252)
(3.04139 -1.51952e-05 -0.0622746)
(3.04762 7.38069e-06 -0.0631545)
(3.0527 -2.28823e-05 -0.0640229)
(3.05728 1.58277e-05 -0.0645798)
(3.05992 -5.3582e-05 -0.0654458)
(3.05851 -3.91158e-05 -0.0660285)
(3.05595 0.001258 -0.0677098)
(3.03586 -0.00282118 -0.0702298)
(2.99819 0.0106714 -0.0788608)
(2.84984 -0.0100959 -0.0943849)
(2.43323 0.0402111 -0.14239)
(1.39702 0.0306105 -0.242194)
(0.609363 0.0761713 -0.276162)
(0.735518 0.0950385 -0.256507)
(0.89727 0.103845 -0.248231)
(0.976343 0.109309 -0.252549)
(0.963088 0.115561 -0.256885)
(0.930425 0.121651 -0.258798)
(0.861208 0.126865 -0.261101)
(0.732287 0.129374 -0.262696)
(0.503239 0.128897 -0.264056)
(0.294444 0.125609 -0.260019)
(3.01561 7.04283e-06 -0.0580038)
(3.02576 -5.48472e-07 -0.0597304)
(3.03427 3.60542e-06 -0.0611655)
(3.04139 -2.2124e-06 -0.062231)
(3.04762 -6.74227e-07 -0.0631989)
(3.05271 -3.41944e-07 -0.0639743)
(3.05723 -3.96233e-06 -0.0646311)
(3.05983 3.84882e-05 -0.0653812)
(3.05938 9.43619e-05 -0.066141)
(3.05319 0.000480693 -0.0676841)
(3.04228 0.000983167 -0.0696195)
(2.99062 0.00262798 -0.0793031)
(2.86077 0.005711 -0.0923295)
(2.47596 0.0144794 -0.147423)
(1.42758 0.037386 -0.23436)
(0.652651 0.0883775 -0.272849)
(0.764778 0.116191 -0.253281)
(0.917531 0.12785 -0.244433)
(0.9925 0.139048 -0.248637)
(0.985433 0.151922 -0.252246)
(0.94972 0.163827 -0.254585)
(0.878377 0.173379 -0.256834)
(0.745655 0.180927 -0.258258)
(0.5113 0.185124 -0.259235)
(0.295528 0.178622 -0.2562)
(3.01561 -1.82125e-06 -0.0579737)
(3.02576 1.30566e-06 -0.0597643)
(3.03427 -3.09869e-07 -0.0611313)
(3.04139 8.39735e-07 -0.0622679)
(3.04763 2.08487e-06 -0.0631609)
(3.0527 -2.57817e-06 -0.0640157)
(3.05731 1.64251e-05 -0.0645835)
(3.06 8.19734e-06 -0.0654326)
(3.05887 0.000188603 -0.066005)
(3.05668 0.00041942 -0.0676642)
(3.0376 0.00101676 -0.0699665)
(3.00215 0.0021111 -0.0784386)
(2.85845 0.00582299 -0.092994)
(2.46631 0.0167323 -0.139989)
(1.46473 0.0456138 -0.237205)
(0.691472 0.108428 -0.272929)
(0.794161 0.142344 -0.252344)
(0.935356 0.157841 -0.241975)
(1.01059 0.172805 -0.246137)
(1.00442 0.190269 -0.249599)
(0.966538 0.207298 -0.251658)
(0.894874 0.221419 -0.253332)
(0.761967 0.234848 -0.253932)
(0.523443 0.246944 -0.254352)
(0.301151 0.242654 -0.251436)
(3.01561 -3.61473e-06 -0.0579997)
(3.02576 1.08027e-06 -0.059735)
(3.03427 -5.8357e-06 -0.0611611)
(3.04139 6.51341e-06 -0.0622355)
(3.04762 -9.39974e-06 -0.0631947)
(3.05272 1.80977e-05 -0.0639766)
(3.05724 -1.03397e-05 -0.0646288)
(3.05997 7.13652e-05 -0.0653649)
(3.05972 0.000175257 -0.0661093)
(3.05387 0.000314309 -0.0675765)
(3.04367 0.000540481 -0.0694961)
(2.99464 0.00202497 -0.0787431)
(2.87282 0.00553936 -0.0910779)
(2.50766 0.0173012 -0.143456)
(1.51117 0.056817 -0.227663)
(0.746838 0.130696 -0.269445)
(0.831272 0.171239 -0.24977)
(0.960791 0.189654 -0.23885)
(1.03203 0.207765 -0.242746)
(1.0274 0.228439 -0.245916)
(0.987669 0.250529 -0.248206)
(0.916322 0.270568 -0.249083)
(0.784562 0.292473 -0.24924)
(0.542293 0.317079 -0.248509)
(0.31201 0.324321 -0.245461)
(3.01561 -2.00304e-05 -0.0579775)
(3.02576 8.65083e-06 -0.0597603)
(3.03428 -1.45568e-05 -0.0611353)
(3.04139 2.19077e-05 -0.0622639)
(3.04764 -2.20285e-05 -0.063164)
(3.0527 5.11211e-05 -0.0640131)
(3.05735 -5.14963e-05 -0.0645814)
(3.06015 0.000190002 -0.0654241)
(3.05907 0.000205442 -0.0659767)
(3.05697 -0.00050499 -0.0675415)
(3.03902 0.00411273 -0.0698473)
(3.00618 -0.00544156 -0.0776937)
(2.87154 0.0209423 -0.0915073)
(2.50426 -0.00666468 -0.136011)
(1.57492 0.064196 -0.230643)
(0.787791 0.147438 -0.269631)
(0.857888 0.196312 -0.248836)
(0.976309 0.216427 -0.236045)
(1.04962 0.238652 -0.239723)
(1.0468 0.264572 -0.242716)
(1.00814 0.292859 -0.244815)
(0.940167 0.320435 -0.244864)
(0.813652 0.353952 -0.244229)
(0.57073 0.398554 -0.242674)
(0.332671 0.434065 -0.237815)
(3.01561 -2.0401e-05 -0.0579775)
(3.02576 4.6483e-06 -0.0597603)
(3.03428 -6.05937e-06 -0.0611353)
(3.04139 3.02155e-06 -0.062264)
(3.04764 7.22406e-06 -0.0631638)
(3.0527 -8.61711e-06 -0.0640135)
(3.05736 1.92648e-05 -0.0645799)
(3.06019 -7.01086e-05 -0.0654204)
(3.05915 -0.000196423 -0.0659556)
(3.05714 0.000322571 -0.0674586)
(3.03997 0.00105117 -0.0698077)
(3.00866 0.00392007 -0.0772061)
(2.8805 0.0094316 -0.090809)
(2.52473 0.0262189 -0.133262)
(1.65321 0.0722112 -0.226211)
(0.86276 0.17587 -0.266654)
(0.896922 0.231563 -0.247631)
(0.999576 0.253313 -0.232948)
(1.07195 0.275201 -0.236312)
(1.06932 0.303779 -0.239165)
(1.03306 0.336039 -0.240457)
(0.970894 0.371068 -0.240094)
(0.856013 0.419232 -0.237821)
(0.622229 0.49323 -0.235483)
(0.376537 0.589476 -0.227559)
(3.01562 1.67129e-05 -0.057939)
(3.02578 -1.55066e-05 -0.0598022)
(3.03428 1.76996e-05 -0.0610935)
(3.0414 -3.65548e-05 -0.0623073)
(3.04763 4.29216e-05 -0.0631223)
(3.05271 -8.3415e-05 -0.0640541)
(3.0573 0.000119729 -0.0645439)
(3.05997 -0.000206748 -0.0654578)
(3.0594 0.000280127 -0.0658876)
(3.05801 0.0016696 -0.0674119)
(3.04191 -0.001018 -0.0694005)
(3.01322 0.0121195 -0.077029)
(2.88911 -0.00367096 -0.0888846)
(2.55578 0.0595422 -0.131959)
(1.71192 0.0764379 -0.222233)
(0.940381 0.204995 -0.263707)
(0.942097 0.266298 -0.245697)
(1.02701 0.294705 -0.22974)
(1.09814 0.314875 -0.232943)
(1.09698 0.344039 -0.235705)
(1.06555 0.378154 -0.236232)
(1.01353 0.420305 -0.234943)
(0.920307 0.489286 -0.230945)
(0.722073 0.609315 -0.225418)
(0.468179 0.84231 -0.212457)
(2.98855 -2.43097e-07 -0.00143173)
(2.98291 3.68486e-07 -0.00328823)
(2.97953 1.38956e-07 -0.00492941)
(2.97738 9.33782e-07 -0.00644561)
(2.97597 3.16224e-07 -0.00768242)
(2.975 1.16254e-06 -0.00889576)
(2.97412 4.46693e-07 -0.00974182)
(2.97251 1.87962e-06 -0.010808)
(2.96717 7.87106e-06 -0.0112847)
(2.957 2.30121e-05 -0.0121767)
(2.92328 7.20757e-05 -0.0137137)
(2.8493 0.000160824 -0.0167817)
(2.63429 0.000438122 -0.0237174)
(1.95009 0.00117903 -0.0379606)
(0.432901 0.00325756 -0.0652607)
(-0.534072 0.0106085 -0.0640154)
(0.0123791 0.0183931 -0.0602239)
(0.425552 0.0279615 -0.0583844)
(0.507871 0.0418086 -0.0610724)
(0.40581 0.0665894 -0.0613313)
(0.387488 0.0678136 -0.0632371)
(0.292961 0.0562246 -0.0636469)
(0.10036 0.0470708 -0.0638315)
(0.012002 0.0411801 -0.0610084)
(0.165799 0.0180156 -0.0551676)
(2.98855 3.76967e-07 -0.00143167)
(2.98291 1.14272e-06 -0.0032883)
(2.97953 1.14299e-06 -0.00492936)
(2.97738 2.34715e-06 -0.00644576)
(2.97597 1.18535e-06 -0.00768235)
(2.975 2.91534e-06 -0.00889582)
(2.97412 1.42945e-06 -0.00974185)
(2.97251 8.13115e-06 -0.0108077)
(2.96719 2.8932e-05 -0.0112869)
(2.95705 9.67289e-05 -0.0121686)
(2.92339 0.000219827 -0.0137381)
(2.84962 0.000663178 -0.016743)
(2.63502 0.00149564 -0.0237973)
(1.95251 0.00446449 -0.0379859)
(0.44025 0.0119361 -0.0654226)
(-0.510312 0.0223756 -0.0637917)
(0.0240612 0.04656 -0.0598623)
(0.436 0.0701973 -0.0580668)
(0.525687 0.0906306 -0.0607387)
(0.465619 0.121072 -0.0621842)
(0.404412 0.11908 -0.0626735)
(0.2997 0.109772 -0.0622471)
(0.130689 0.103614 -0.0622588)
(0.0158824 0.106091 -0.0602416)
(0.194966 0.071806 -0.0545589)
(2.98855 3.41882e-06 -0.00143185)
(2.98291 1.4732e-06 -0.00328827)
(2.97953 2.97563e-06 -0.00492938)
(2.97738 1.60814e-06 -0.00644582)
(2.97597 1.22532e-06 -0.00768203)
(2.975 2.12856e-06 -0.00889639)
(2.97412 1.02784e-06 -0.00974075)
(2.97253 1.65018e-05 -0.0108099)
(2.96724 6.03834e-05 -0.0112843)
(2.95716 0.000201824 -0.0121792)
(2.92373 0.000431398 -0.0137071)
(2.8504 0.00133217 -0.0167809)
(2.63715 0.00279741 -0.0236996)
(1.95871 0.00829487 -0.0378376)
(0.446223 0.0216599 -0.0652981)
(-0.556308 0.0553197 -0.062644)
(0.0200568 0.089682 -0.0596465)
(0.436191 0.118556 -0.057895)
(0.522939 0.134798 -0.0606174)
(0.469385 0.142533 -0.0623534)
(0.400257 0.158278 -0.0623355)
(0.295947 0.170724 -0.0612011)
(0.13755 0.178058 -0.0606901)
(0.0126069 0.185757 -0.0588239)
(0.175175 0.142557 -0.0533511)
(2.98855 1.08064e-05 -0.00143288)
(2.98291 7.89779e-07 -0.00328701)
(2.97953 7.8017e-06 -0.00493003)
(2.97738 -1.44499e-06 -0.00644485)
(2.97597 4.51421e-06 -0.0076826)
(2.975 -1.89072e-06 -0.00889587)
(2.97413 7.79185e-06 -0.00974087)
(2.97256 3.99439e-05 -0.0108117)
(2.96734 0.000222947 -0.0112874)
(2.95735 0.000273506 -0.012192)
(2.92428 0.00169894 -0.0137505)
(2.85154 0.00180328 -0.0167728)
(2.64019 0.00654996 -0.023769)
(1.96672 0.0147098 -0.0378771)
(0.470196 0.0312308 -0.0651484)
(-0.488261 0.0912744 -0.0632913)
(0.046053 0.132851 -0.0591624)
(0.445504 0.165549 -0.0570493)
(0.512936 0.18619 -0.059929)
(0.420964 0.20807 -0.0609662)
(0.378041 0.225337 -0.0617721)
(0.2826 0.245307 -0.0603436)
(0.137597 0.261909 -0.0592661)
(0.0110869 0.269243 -0.0571136)
(0.154609 0.216627 -0.0517998)
(2.98855 3.28857e-06 -0.00143659)
(2.98291 1.16636e-06 -0.00328203)
(2.97953 2.26004e-06 -0.00493313)
(2.97738 1.02684e-06 -0.00644111)
(2.97597 -1.52911e-07 -0.00768612)
(2.975 2.79799e-06 -0.0088911)
(2.97415 9.21067e-07 -0.00974703)
(2.97272 3.09266e-05 -0.0107962)
(2.96744 0.000114173 -0.0112836)
(2.95834 0.000393204 -0.0123074)
(2.92528 0.000855065 -0.0131695)
(2.85365 0.00272672 -0.0182043)
(2.64645 0.00608088 -0.0210882)
(1.97694 0.0186597 -0.0415215)
(0.468427 0.0523433 -0.0636364)
(-0.465469 0.122417 -0.0637014)
(0.0648963 0.174097 -0.0588092)
(0.457029 0.2124 -0.0562289)
(0.519109 0.243301 -0.0590826)
(0.444594 0.273992 -0.0607926)
(0.380748 0.295337 -0.0608944)
(0.286892 0.319844 -0.0593265)
(0.149802 0.344109 -0.0577923)
(0.0178253 0.352546 -0.0551195)
(0.140271 0.293735 -0.0498635)
(2.98855 -1.2959e-06 -0.00143444)
(2.98291 3.78679e-07 -0.00328534)
(2.97953 -1.14857e-06 -0.00493105)
(2.97738 9.7679e-07 -0.00644355)
(2.97597 -9.1551e-07 -0.00768311)
(2.975 3.7185e-06 -0.00889557)
(2.97415 2.93586e-06 -0.00973968)
(2.97266 3.96478e-05 -0.010816)
(2.96764 0.000128998 -0.0112834)
(2.95796 0.000476607 -0.0122037)
(2.92614 0.00105013 -0.0137402)
(2.85595 0.00329468 -0.0167157)
(2.65239 0.00796631 -0.0235885)
(2.00477 0.0244302 -0.0371579)
(0.550479 0.0701217 -0.0643949)
(-0.406974 0.155617 -0.0637076)
(0.0894307 0.21482 -0.0583056)
(0.471214 0.258817 -0.0551235)
(0.527866 0.298308 -0.0581112)
(0.451578 0.341745 -0.0599422)
(0.38578 0.366707 -0.059936)
(0.298155 0.395015 -0.0580985)
(0.171536 0.425987 -0.0560751)
(0.0329449 0.439644 -0.0529692)
(0.130779 0.381658 -0.0475286)
(2.98855 -4.11889e-06 -0.00143683)
(2.98291 4.86756e-07 -0.00328204)
(2.97953 -4.62851e-06 -0.00493333)
(2.97738 2.82973e-06 -0.00644072)
(2.97597 -4.32321e-06 -0.00768648)
(2.975 7.8101e-06 -0.00889001)
(2.97418 1.81904e-06 -0.00974884)
(2.97282 4.21828e-05 -0.0107929)
(2.9678 0.000155945 -0.0112902)
(2.95911 0.000559047 -0.0122991)
(2.92754 0.00124647 -0.0131101)
(2.85968 0.00411675 -0.0179866)
(2.6629 0.00983204 -0.0207267)
(2.03097 0.031104 -0.0400231)
(0.582956 0.0901015 -0.062467)
(-0.346158 0.187491 -0.064132)
(0.11703 0.25408 -0.0580606)
(0.486664 0.303496 -0.0542558)
(0.540417 0.350397 -0.0571337)
(0.468755 0.401465 -0.0590636)
(0.398166 0.436104 -0.0589235)
(0.317728 0.471255 -0.0568304)
(0.20341 0.51037 -0.0542357)
(0.059421 0.534132 -0.0505374)
(0.127333 0.487365 -0.0446921)
(2.98855 -1.23193e-05 -0.00143459)
(2.98291 2.13093e-06 -0.00328542)
(2.97953 -1.01878e-05 -0.00493041)
(2.97738 8.27276e-06 -0.00644507)
(2.97597 -9.09617e-06 -0.00768031)
(2.975 1.56147e-05 -0.00890026)
(2.97418 -5.51234e-06 -0.00973295)
(2.97278 2.93513e-05 -0.0108267)
(2.96807 4.83472e-05 -0.0112769)
(2.95888 0.000667256 -0.0121502)
(2.92905 0.000399798 -0.0136063)
(2.86354 0.00505257 -0.0164359)
(2.67363 0.00934128 -0.0229738)
(2.07666 0.0345931 -0.0350484)
(0.693841 0.106839 -0.0632833)
(-0.271561 0.223567 -0.063563)
(0.14768 0.295842 -0.0576442)
(0.504776 0.347158 -0.0530918)
(0.555864 0.399601 -0.0559668)
(0.488218 0.456691 -0.0577316)
(0.418995 0.503365 -0.0575554)
(0.346211 0.548307 -0.055392)
(0.246347 0.598649 -0.0522866)
(0.100473 0.639574 -0.0479987)
(0.133517 0.619659 -0.0415261)
(2.98856 -9.07249e-06 -0.00143386)
(2.98291 1.53971e-06 -0.00328619)
(2.97954 -7.90813e-06 -0.00493008)
(2.97738 5.03651e-06 -0.00644594)
(2.97598 -6.36248e-06 -0.0076794)
(2.975 8.3355e-06 -0.00890182)
(2.9742 8.0858e-07 -0.00973026)
(2.97286 3.97257e-05 -0.0108275)
(2.96833 0.000192859 -0.0112686)
(2.95945 0.000663346 -0.0121066)
(2.93083 0.00214891 -0.0135441)
(2.86838 0.00470369 -0.016245)
(2.68659 0.0147905 -0.0226754)
(2.12041 0.0348774 -0.0338467)
(0.79858 0.11019 -0.0627617)
(-0.159906 0.253447 -0.0636668)
(0.195685 0.337006 -0.0569608)
(0.526858 0.391468 -0.0519661)
(0.575205 0.447373 -0.0548825)
(0.512774 0.509315 -0.0564768)
(0.448475 0.568067 -0.0560984)
(0.385173 0.623943 -0.0538121)
(0.30388 0.689384 -0.0502814)
(0.165198 0.759439 -0.0452753)
(0.156375 0.792002 -0.0378064)
(2.98856 1.16992e-05 -0.00143118)
(2.98291 1.50467e-06 -0.0032886)
(2.97954 8.60746e-07 -0.00493032)
(2.97738 4.63423e-06 -0.00644369)
(2.97598 -1.28716e-05 -0.0076847)
(2.97501 2.01002e-05 -0.00889254)
(2.97421 -4.55763e-05 -0.00974075)
(2.97295 8.99449e-05 -0.0108023)
(2.96861 -9.12571e-05 -0.0112193)
(2.96054 0.00167744 -0.0121283)
(2.93238 -0.000522716 -0.0134969)
(2.87456 0.0126578 -0.0162495)
(2.69666 0.00279758 -0.0224562)
(2.15925 0.0522433 -0.0330257)
(0.892529 0.105459 -0.0620798)
(-0.0590759 0.27929 -0.0635602)
(0.246629 0.377746 -0.0560797)
(0.550072 0.437189 -0.0506046)
(0.596627 0.494095 -0.0535348)
(0.542451 0.559246 -0.0550987)
(0.485744 0.627505 -0.0544828)
(0.435508 0.695395 -0.0521096)
(0.381402 0.780744 -0.0481062)
(0.269177 0.893785 -0.0427392)
(0.209056 1.06009 -0.034586)
(2.9951 4.15554e-07 9.09963e-07)
(2.98906 4.185e-07 -4.06131e-07)
(2.98253 5.68807e-07 6.75955e-07)
(2.97637 5.29827e-07 -3.29292e-07)
(2.97072 1.08625e-07 3.32007e-07)
(2.96582 9.55857e-07 -1.20577e-07)
(2.96113 -6.51712e-07 7.79525e-08)
(2.95647 4.51297e-06 1.02348e-06)
(2.94859 -1.72701e-06 3.20042e-06)
(2.93484 6.09338e-05 6.52957e-06)
(2.89436 -3.6323e-05 1.18465e-05)
(2.80687 0.000324092 1.98508e-05)
(2.56224 6.39178e-05 3.58752e-06)
(1.7642 0.00073989 -3.18418e-05)
(0.0330994 0.0012869 -0.000275152)
(-1.08509 0.0166538 -0.000240106)
(-0.174818 0.0279651 6.63326e-05)
(0.298933 0.0383038 0.000291129)
(0.394963 0.0428111 0.000545047)
(0.300127 0.0421309 0.00116584)
(-0.143464 0.0625504 9.45326e-05)
(-0.104329 0.0685035 -0.000284867)
(-0.138553 0.069044 -0.000230109)
(-0.088171 0.0709088 -6.05642e-05)
(0.0911085 0.0605125 -0.000258874)
(2.9951 4.14903e-07 2.53249e-06)
(2.98906 5.6912e-07 -2.2607e-06)
(2.98253 7.64605e-07 1.9956e-06)
(2.97637 1.01577e-06 -2.17783e-06)
(2.97072 6.68915e-07 1.88925e-06)
(2.96582 8.45292e-07 -1.93884e-06)
(2.96113 1.18251e-06 2.43634e-06)
(2.95647 3.98027e-06 3.41071e-06)
(2.94864 2.23878e-05 2.77329e-05)
(2.93482 7.61197e-05 -1.99057e-05)
(2.89453 0.000205763 0.000206612)
(2.80698 0.000558441 -0.000150455)
(2.5627 0.00133373 0.000343529)
(1.76357 0.00381599 -5.44843e-05)
(0.0391047 0.0115397 -0.000899098)
(-1.07422 0.0440279 -0.000448991)
(-0.156754 0.0736265 0.000190564)
(0.30976 0.0964592 0.000152661)
(0.390859 0.10234 -0.00015861)
(0.277284 0.0953553 -0.000797286)
(-0.181561 0.124407 0.000115301)
(-0.124465 0.142406 0.000365349)
(-0.157185 0.150583 0.000177045)
(-0.105439 0.157588 5.03935e-05)
(0.0877922 0.140331 -4.62632e-05)
(2.9951 5.87507e-07 1.47179e-06)
(2.98906 8.21421e-07 -1.00632e-06)
(2.98253 8.66785e-07 9.876e-07)
(2.97637 1.22441e-06 -9.94755e-07)
(2.97072 3.90054e-07 6.0476e-07)
(2.96582 8.38602e-07 -6.03749e-07)
(2.96113 1.55566e-06 2.85662e-07)
(2.95649 7.11417e-06 1.40248e-06)
(2.94865 4.15147e-05 3.89425e-06)
(2.935 0.000147587 8.46619e-06)
(2.89475 0.000393018 1.12098e-05)
(2.80785 0.0010977 2.7506e-05)
(2.56467 0.00264801 -1.42521e-05)
(1.77245 0.00774332 -6.10685e-05)
(0.0588312 0.0231542 -0.000382368)
(-1.04618 0.0648281 0.000191464)
(-0.140019 0.115068 -4.01339e-06)
(0.319217 0.153732 -7.74732e-05)
(0.38089 0.169134 -0.000406525)
(0.264675 0.165283 -0.000914367)
(-0.184797 0.203104 0.000106954)
(-0.117357 0.227245 0.000462968)
(-0.157425 0.242649 0.00039243)
(-0.112879 0.254434 0.000191597)
(0.0758124 0.230987 0.000212926)
(2.9951 9.10061e-07 2.30392e-06)
(2.98906 1.17732e-06 -2.01287e-06)
(2.98253 8.58391e-07 1.73659e-06)
(2.97637 1.1744e-06 -1.94576e-06)
(2.97072 -8.79607e-07 1.5422e-06)
(2.96582 1.89071e-06 -1.74583e-06)
(2.96114 -2.91126e-07 2.0452e-06)
(2.9565 1.79211e-05 2.42368e-06)
(2.94875 4.90648e-05 2.39755e-05)
(2.93511 0.000316581 -2.5123e-05)
(2.89531 0.000431126 0.000192485)
(2.80895 0.00210782 -0.000179208)
(2.56773 0.00369196 0.000319678)
(1.78084 0.0121838 -9.80848e-05)
(0.0787447 0.0349 -0.000778967)
(-1.0168 0.0936982 0.000164861)
(-0.122272 0.158473 4.49522e-05)
(0.331158 0.208778 -5.10067e-05)
(0.374526 0.234935 -4.07423e-05)
(0.269438 0.236952 0.000305499)
(-0.172808 0.286537 6.43024e-05)
(-0.0994454 0.311972 0.000170279)
(-0.146652 0.334449 0.000287988)
(-0.113582 0.349202 0.000233689)
(0.066163 0.320399 0.000266489)
(2.9951 -7.94819e-07 9.02303e-07)
(2.98906 4.25224e-07 -6.16329e-07)
(2.98253 -9.18806e-07 5.16306e-07)
(2.97637 6.23517e-07 -5.6752e-07)
(2.97072 -1.11437e-06 2.18243e-07)
(2.96582 1.50144e-06 -2.11814e-07)
(2.96114 2.88397e-06 -1.4949e-07)
(2.95653 1.84895e-05 4.98339e-08)
(2.9489 9.06875e-05 -1.57945e-06)
(2.93533 0.000359627 5.26533e-07)
(2.89614 0.000857054 -1.17883e-05)
(2.81077 0.00267898 -1.2849e-05)
(2.57279 0.00629188 -4.7688e-05)
(1.79632 0.019386 -7.50607e-05)
(0.114652 0.0575982 -0.000302973)
(-0.972382 0.135524 9.88582e-05)
(-0.0967146 0.207385 6.49752e-05)
(0.344407 0.264218 -1.99419e-05)
(0.370076 0.300014 -8.04734e-05)
(0.270688 0.313629 -0.000161093)
(-0.130869 0.365303 -2.80809e-05)
(-0.0771895 0.394985 1.86419e-05)
(-0.127726 0.424912 0.000167366)
(-0.109008 0.442749 0.000241112)
(0.0592223 0.410587 0.000270256)
(2.9951 -3.1755e-06 1.24703e-06)
(2.98906 -4.64884e-08 -1.23177e-06)
(2.98253 -2.89975e-06 1.06893e-06)
(2.97637 5.73332e-07 -1.24121e-06)
(2.97072 -8.08795e-07 1.36327e-06)
(2.96583 1.89646e-06 -1.51667e-06)
(2.96115 6.41943e-06 2.28579e-06)
(2.95658 2.20529e-05 1.73848e-06)
(2.94904 0.000120548 2.00187e-05)
(2.93576 0.000461484 -3.00493e-05)
(2.8972 0.00119799 0.000184194)
(2.81375 0.00359911 -0.000206858)
(2.58068 0.00892363 0.000334399)
(1.82584 0.0275727 -0.000116631)
(0.169537 0.0821217 -0.00061256)
(-0.91205 0.176352 0.000140894)
(-0.067431 0.254925 6.27065e-05)
(0.35888 0.318275 -1.42427e-05)
(0.371321 0.363751 -3.72092e-05)
(0.271057 0.391262 2.9586e-05)
(-0.0696161 0.440999 -6.42299e-05)
(-0.0496674 0.479221 -3.01832e-05)
(-0.100498 0.516915 0.000106686)
(-0.0986815 0.540367 0.000223743)
(0.0550358 0.509381 0.00025647)
(2.9951 -4.59743e-06 -1.39012e-06)
(2.98906 2.12307e-08 1.85023e-06)
(2.98253 -3.86578e-06 -1.48878e-06)
(2.97637 7.25642e-07 2.32983e-06)
(2.97073 -3.14448e-07 -2.17238e-06)
(2.96583 1.57602e-06 2.8069e-06)
(2.96116 9.61761e-06 -2.9789e-06)
(2.95663 2.55312e-05 -2.7356e-06)
(2.94927 0.000146384 -2.16019e-05)
(2.93624 0.000583682 2.42714e-05)
(2.89874 0.00150252 -0.000193388)
(2.81758 0.00457187 0.000185402)
(2.59139 0.0112898 -0.00036953)
(1.86292 0.0347632 0.000107276)
(0.238575 0.102557 0.000562985)
(-0.838995 0.214318 -0.000143893)
(-0.03515 0.300888 -4.3191e-05)
(0.374777 0.370649 -5.48247e-05)
(0.378401 0.425286 -3.74609e-05)
(0.275186 0.467692 -2.45753e-05)
(-0.00352738 0.51774 -5.4914e-05)
(-0.0157244 0.565446 -2.47628e-05)
(-0.0631046 0.611989 8.9167e-05)
(-0.0802426 0.645678 0.000209973)
(0.0552103 0.62254 0.000236845)
(2.9951 -5.32984e-06 -6.92865e-07)
(2.98906 1.46879e-06 9.16843e-07)
(2.98253 -4.06353e-06 -5.91112e-07)
(2.97637 3.26496e-06 1.16502e-06)
(2.97073 -4.4509e-07 -6.29337e-07)
(2.96583 3.87452e-06 9.97908e-07)
(2.96117 1.109e-05 -3.32525e-07)
(2.95669 3.1296e-05 -5.23246e-07)
(2.94951 0.000171275 -9.03387e-07)
(2.93691 0.0006935 -2.9104e-06)
(2.9005 0.0017231 1.92453e-06)
(2.82237 0.00533468 -1.34545e-05)
(2.60429 0.0129542 3.07939e-05)
(1.90829 0.0398021 3.93051e-05)
(0.321027 0.117912 0.000193696)
(-0.753758 0.251194 0.0001744)
(0.000251201 0.347231 -7.91255e-05)
(0.392241 0.422129 -7.00567e-05)
(0.391383 0.484416 -3.50661e-05)
(0.286599 0.540025 -3.13332e-05)
(0.0609124 0.59664 -3.99452e-05)
(0.0264795 0.650786 -1.53051e-05)
(-0.0134745 0.711088 7.90859e-05)
(-0.0502042 0.761745 0.000197359)
(0.0622495 0.758247 0.00021407)
(2.9951 -3.82806e-06 -9.8947e-10)
(2.98906 5.28169e-06 1.99043e-07)
(2.98253 -6.65955e-06 -5.137e-08)
(2.97638 1.15544e-05 3.66816e-07)
(2.97073 -1.13005e-05 -1.00065e-07)
(2.96584 1.8927e-05 3.46e-07)
(2.96118 -2.97137e-06 -1.94216e-08)
(2.95676 5.24869e-05 -7.72431e-08)
(2.94982 0.000249382 -1.74017e-07)
(2.93755 0.000805216 -9.97308e-07)
(2.90257 0.00210996 2.80311e-07)
(2.82745 0.00574206 -7.46379e-06)
(2.61845 0.0144906 5.59281e-06)
(1.95653 0.0421185 -2.22781e-05)
(0.421344 0.126409 6.26629e-06)
(-0.648317 0.286458 -9.66918e-05)
(0.0387816 0.394776 -3.63081e-05)
(0.410855 0.473248 -1.86489e-05)
(0.408394 0.541076 -1.9653e-05)
(0.306034 0.606737 -2.2794e-05)
(0.123964 0.673967 -2.62611e-05)
(0.0777432 0.736701 -1.05288e-05)
(0.0520374 0.812199 7.16345e-05)
(0.0035384 0.8889 0.000183417)
(0.0789865 0.925808 0.00018662)
(2.9951 6.38729e-06 1.0399e-06)
(2.98906 8.04221e-06 -5.23773e-07)
(2.98253 -1.00066e-05 6.45522e-07)
(2.97637 2.71484e-05 -2.56892e-07)
(2.97073 -4.57606e-05 2.87424e-08)
(2.96584 7.84392e-05 2.51293e-07)
(2.9612 -0.0001096 -5.54466e-07)
(2.9569 0.000258359 1.05614e-06)
(2.95014 3.66597e-05 1.22959e-06)
(2.93849 0.00170128 8.51844e-07)
(2.90454 -0.00071602 -1.00646e-06)
(2.83333 0.0129017 -4.6589e-06)
(2.63224 0.00325006 -1.18844e-05)
(2.00786 0.0546839 -1.40035e-05)
(0.539707 0.122964 -1.24063e-05)
(-0.514705 0.31679 -3.92417e-06)
(0.0824365 0.442427 8.07017e-06)
(0.42949 0.523618 1.49368e-05)
(0.427608 0.594697 -1.52093e-05)
(0.33291 0.668071 -2.33283e-05)
(0.187887 0.745154 -2.92773e-05)
(0.141364 0.81971 -1.83764e-05)
(0.136179 0.913959 4.16433e-05)
(0.0935676 1.02725 0.000167141)
(0.115208 1.18113 0.000166292)
(2.98855 8.30036e-06 0.00143327)
(2.98291 -5.07e-07 0.00328709)
(2.97953 5.8585e-06 0.00493042)
(2.97738 -2.74043e-06 0.00644473)
(2.97597 4.48737e-06 0.00768287)
(2.975 -4.07168e-06 0.00889549)
(2.97412 7.30655e-06 0.00974143)
(2.97253 1.99502e-05 0.0108113)
(2.96721 0.000152248 0.0112898)
(2.95707 1.80716e-05 0.0122093)
(2.9234 0.00114082 0.0137573)
(2.84927 7.6573e-05 0.016849)
(2.63381 0.00268303 0.0237985)
(1.94394 0.00324824 0.0380554)
(0.417321 -0.00159332 0.0648719)
(-0.54177 -0.001111 0.0634396)
(0.007876 0.0107002 0.060049)
(0.426499 0.0177736 0.0588836)
(0.527898 0.0111867 0.0615291)
(0.495138 -0.0168549 0.0630633)
(0.435768 -0.0146678 0.0632126)
(0.33815 0.000968579 0.0627782)
(0.193841 0.0202874 0.0623179)
(0.0638639 0.0417894 0.060859)
(0.169908 0.0487946 0.0554405)
(2.98855 3.27573e-06 0.00143714)
(2.98291 1.02992e-06 0.0032817)
(2.97953 2.58134e-06 0.00493369)
(2.97738 4.28406e-07 0.00644073)
(2.97597 6.34628e-07 0.00768666)
(2.975 -1.1701e-07 0.00889044)
(2.97414 -5.46175e-07 0.0097481)
(2.97265 8.06701e-06 0.0107957)
(2.96722 3.23712e-05 0.0112823)
(2.95785 0.000111108 0.0123595)
(2.92378 0.000232249 0.0131538)
(2.84974 0.000727202 0.0183687)
(2.63587 0.00146285 0.0210686)
(1.93905 0.00421374 0.0417252)
(0.376709 0.010732 0.0636768)
(-0.618912 0.0369741 0.0623946)
(-0.0018522 0.0578045 0.0600652)
(0.418587 0.0707441 0.0588169)
(0.494695 0.0683224 0.0613925)
(0.382586 0.0651769 0.0618669)
(0.36676 0.0700772 0.0634851)
(0.276465 0.0859373 0.0633)
(0.110356 0.105166 0.0626681)
(0.00962216 0.119134 0.0602158)
(0.15483 0.106092 0.0545984)
(2.98855 2.23885e-06 0.00143439)
(2.98291 1.55978e-06 0.00328588)
(2.97953 1.78607e-06 0.00493102)
(2.97738 1.61467e-06 0.00644372)
(2.97597 -5.10593e-07 0.00768323)
(2.97499 1.41444e-06 0.00889504)
(2.97413 -1.72948e-06 0.00974116)
(2.97255 8.72533e-06 0.010813)
(2.9673 3.28145e-05 0.0112896)
(2.95723 0.000145489 0.012229)
(2.92388 0.000294279 0.0137706)
(2.8502 0.00101064 0.0168958)
(2.63636 0.00233446 0.0238507)
(1.94942 0.00746369 0.0381824)
(0.433054 0.0223136 0.0645989)
(-0.521475 0.071235 0.0629571)
(0.0277124 0.100832 0.0594869)
(0.430404 0.12343 0.0578258)
(0.494598 0.138099 0.0605345)
(0.392704 0.16184 0.0613314)
(0.361291 0.16144 0.0626836)
(0.263894 0.163353 0.0623324)
(0.0839937 0.181278 0.0617981)
(-0.0111919 0.197314 0.0588966)
(0.13804 0.166336 0.0535252)
(2.98855 7.86917e-06 0.00143787)
(2.98291 -1.67996e-07 0.00328116)
(2.97953 4.50599e-06 0.00493383)
(2.97738 -2.54834e-06 0.00644051)
(2.97597 1.4734e-06 0.00768604)
(2.975 -2.86167e-06 0.0088915)
(2.97415 4.53184e-06 0.00974535)
(2.97268 2.98759e-05 0.0108003)
(2.96733 0.000184435 0.0112735)
(2.95807 0.000190776 0.0123402)
(2.92451 0.00146922 0.0130783)
(2.85153 0.0012812 0.0182114)
(2.6411 0.00561621 0.0209219)
(1.95636 0.0131915 0.041713)
(0.427524 0.0313499 0.0634176)
(-0.504244 0.0920459 0.0637486)
(0.0454635 0.137588 0.0593146)
(0.443648 0.171023 0.0571027)
(0.509584 0.196076 0.0597233)
(0.433896 0.222735 0.0615541)
(0.367752 0.232263 0.0618116)
(0.266356 0.238954 0.0607442)
(0.0968055 0.257564 0.0601107)
(-0.00969171 0.274364 0.0572918)
(0.137669 0.226576 0.0519403)
(2.98855 -2.18772e-06 0.00143809)
(2.98291 -3.77511e-07 0.00328077)
(2.97953 -2.6154e-06 0.00493392)
(2.97738 -2.80545e-07 0.00644016)
(2.97597 -2.29782e-06 0.00768625)
(2.975 1.78539e-06 0.0088915)
(2.97415 1.30246e-06 0.00974473)
(2.97271 2.75179e-05 0.0108027)
(2.96744 9.02983e-05 0.0112691)
(2.95828 0.000343479 0.0123146)
(2.9252 0.000757388 0.0130655)
(2.8533 0.00246502 0.0180802)
(2.6462 0.0059098 0.0209104)
(1.97259 0.0183206 0.0417653)
(0.462535 0.0540109 0.0631351)
(-0.465256 0.122889 0.0639202)
(0.0647791 0.176424 0.0590174)
(0.45428 0.216568 0.0563657)
(0.513677 0.249659 0.0590259)
(0.43057 0.285768 0.0605691)
(0.371553 0.301837 0.0609087)
(0.274776 0.316901 0.0594625)
(0.120794 0.338102 0.0583382)
(-0.000767598 0.354006 0.0554401)
(0.137313 0.29519 0.0499927)
(2.98855 -1.31677e-05 0.00143749)
(2.98291 9.17069e-07 0.00328146)
(2.97953 -1.06192e-05 0.00493363)
(2.97738 6.14423e-06 0.00644056)
(2.97597 -7.80517e-06 0.00768643)
(2.975 1.24128e-05 0.00889064)
(2.97417 -3.01769e-06 0.00974718)
(2.97276 2.10104e-05 0.0107955)
(2.9676 7.90802e-06 0.0112757)
(2.95863 0.000489042 0.0123116)
(2.92621 8.31225e-05 0.0130675)
(2.85601 0.00369914 0.0180674)
(2.6534 0.00635053 0.0207951)
(1.99772 0.0246085 0.0411234)
(0.512521 0.0807275 0.0627089)
(-0.415563 0.156847 0.064179)
(0.0887712 0.214654 0.0585418)
(0.468558 0.259656 0.0553995)
(0.525219 0.301704 0.0581322)
(0.450158 0.347365 0.0600241)
(0.380219 0.371601 0.0599291)
(0.289885 0.395311 0.0581514)
(0.152442 0.421917 0.0564437)
(0.0185157 0.438996 0.0533226)
(0.133738 0.379436 0.0476492)
(2.98855 -1.42332e-05 0.00143404)
(2.98291 1.2477e-06 0.00328633)
(2.97954 -1.21557e-05 0.00493001)
(2.97738 7.5119e-06 0.00644581)
(2.97597 -9.73073e-06 0.00768029)
(2.975 1.5422e-05 0.00890015)
(2.97416 -4.09216e-06 0.00973441)
(2.97271 2.59689e-05 0.0108258)
(2.96781 3.28377e-05 0.0112872)
(2.95837 0.000587962 0.0121567)