/*--------------------------------*- C++ -*----------------------------------*\
  =========                 |
  \\      /  F ield         | OpenFOAM: The Open Source CFD Toolbox
   \\    /   O peration     | Website:  https://openfoam.org
    \\  /    A nd           | Version:  6
     \\/     M anipulation  |
\*---------------------------------------------------------------------------*/
FoamFile
{
    version     2.0;
    format      ascii;
    class       volScalarField;
    location    "39";
    object      p;
}
// * * * * * * * * * * * * * * * * * * * * * * * * * * * * * * * * * * * * * //

dimensions      [0 2 -2 0 0 0 0];

internalField   nonuniform List<scalar> 
918
(
0.557144
1.29241
0.00421551
0.55703
-0.00556231
1.26025
-0.469925
0.717054
0.538244
-0.0839509
-0.0267977
0.535723
1.11723
0.884302
-1.15252
0.00556416
0.670124
-0.393222
0.536167
0.00691366
0.753052
0.544965
0.547436
0.538228
0.595414
0.842675
0.993884
0.0143293
0.00402757
-2.42968e-06
-0.0031126
-0.0193266
-0.00708305
1.14341
1.19531
1.21846
0.505271
0.336566
-0.358012
-0.410969
-0.392969
-0.494353
0.710293
0.708841
-0.165487
0.718201
0.725834
0.524098
0.537628
0.538457
0.539641
0.538496
0.539796
0.425604
-0.0892442
-0.120141
-0.0677216
-0.0613443
0.0733524
-0.0252707
-0.0275021
-0.0247345
-0.0286935
0.455474
0.531822
0.528893
0.540653
0.550063
1.23258
1.20635
1.2324
1.1429
1.16052
1.09428
1.06725
0.906119
0.929323
0.867652
0.856147
-1.61884
-2.57803
-0.567727
-0.284024
-0.00308312
0.0134939
0.015838
0.660615
0.660091
0.671118
0.680353
1.06868
-0.362818
-0.436336
0.536631
0.535157
0.544463
0.545372
0.540318
0.540333
0.00351211
-0.00182231
0.0105269
0.00476584
0.00498131
0.744161
0.742629
0.537673
0.535137
0.558905
0.581145
0.570224
0.279659
0.60223
0.615827
0.699283
0.850468
0.837665
0.850037
0.968967
0.936946
1.0259
1.04761
0.015525
0.00410851
0.0050588
-0.00593066
0.00270209
0.501086
0.494768
0.521626
0.508826
0.51181
0.240827
0.0887228
0.419026
0.44266
-0.276801
-0.319564
-0.426057
-0.423825
-0.531101
0.608201
0.704155
0.701581
-0.1857
-0.107634
-0.233029
-0.0506559
-0.106471
0.515204
0.52133
0.517466
0.5327
0.5269
0.529312
0.541714
0.538871
0.540478
0.484495
0.615631
0.342631
0.314822
-0.246564
-0.137844
-0.231505
-0.0490227
-0.043802
0.0883006
0.114114
0.0633911
0.0555097
-0.0355399
-0.0300106
-0.0328607
-0.0283679
-0.0222779
0.447143
0.43458
0.466461
0.473857
0.520134
0.521423
0.525596
0.523746
1.01816
1.04095
1.04715
1.02332
-3.56883
-6.22637
0.0688055
0.231798
0.00265298
0.00295235
0.0029129
0.00268521
0.00522129
0.000678574
0.0188655
0.0166985
0.0152888
0.0209009
0.652548
0.651303
1.03652
1.05879
1.01274
0.988315
0.525959
0.527889
0.532508
0.529416
-0.0160776
-0.00593119
-0.0117779
0.727168
0.73661
0.734603
0.240244
0.153431
0.328638
0.358873
0.642706
0.623758
0.638918
0.759011
0.798773
1.06469
1.08872
1.07289
1.08578
1.13663
1.15953
1.12446
0.480188
0.49077
0.485186
0.524771
0.522405
0.523428
0.519331
0.52059
0.519052
-0.0243144
-0.400586
0.494056
0.496762
0.483874
0.49054
0.694323
0.778687
0.682896
0.693457
0.690881
-0.00397804
-0.0520709
0.273299
0.243604
0.388119
0.421602
0.404123
0.99354
0.954159
1.00192
0.977224
0.942071
0.965082
-0.338193
-2.11788
-1.10455
0.640328
0.440272
0.533146
0.0396384
0.0128257
0.0198809
1.04672
1.08783
0.686752
0.873415
0.828361
0.826342
0.854137
0.91096
0.843184
0.877047
0.909467
0.887215
0.562937
0.501699
0.516241
0.857246
0.914338
0.118629
0.0451046
0.0213749
0.134557
0.202408
0.170762
1.06635
0.971833
1.03885
0.535374
0.536295
0.0181197
0.0209307
0.540352
0.540081
-0.00392234
-0.00442446
0.55197
-0.926921
0.129616
0.529742
0.519678
0.536343
-0.0511948
0.356386
-0.0253136
0.0661859
0.0276021
0.531571
0.4674
0.42566
0.026913
0.00777624
0.00213637
-0.185103
0.533116
0.531478
0.535725
0.536573
0.53732
0.0152183
0.0155126
0.0156128
0.00652378
0.011683
0.00860766
0.500199
0.519195
-0.158525
0.535986
0.538069
0.537795
0.531866
0.53688
0.53543
0.0111514
-0.00710445
-0.00549518
0.222572
0.354253
0.740114
0.818717
0.686916
0.516584
0.214792
0.672833
0.727351
0.650279
0.783549
0.696014
0.70566
0.193542
0.056638
0.196508
0.131339
0.526693
0.526007
0.517244
0.514224
0.531119
0.528849
0.533983
0.531134
0.534302
0.535474
-0.00936968
-0.0460578
-0.0619195
-0.112573
0.323598
0.585297
0.249113
0.277449
0.181595
-0.0247286
-0.0242818
-0.0208379
-0.0251086
0.0165648
0.0114246
0.0572928
0.0640505
0.0427919
0.0134021
0.00833836
0.010532
0.00147901
0.525082
0.524363
0.529957
0.538163
0.47675
0.480439
0.447077
0.465821
0.452191
0.393369
0.423145
0.400611
0.0172942
0.03085
0.0139661
0.00823682
0.0114894
0.0139119
0.0173806
0.0101544
0.0139871
0.012343
0.000815504
-0.00400352
-0.148959
-0.266292
1.00334
0.919833
0.147121
0.523054
0.528692
0.525877
0.530461
0.533663
0.534347
0.531976
0.528504
0.519431
0.520945
0.51762
0.518543
-0.102032
-0.207618
-0.0386056
-0.110445
0.162692
0.632195
0.362754
0.311258
0.296532
0.516809
0.729699
0.660489
0.734137
0.735371
-0.376918
0.0411955
-0.302326
0.246984
0.231315
0.762076
0.805816
0.824793
0.780781
0.735813
-0.016382
0.558438
-0.0318206
0.013959
0.20217
0.0947357
0.718513
0.67496
0.680626
0.696418
0.714516
0.691354
0.676548
0.665222
0.695494
0.701238
0.518136
0.251716
0.213489
0.164618
0.656291
0.551809
0.606352
0.5271
0.52204
0.524621
0.523455
0.504916
0.512126
0.507922
0.514542
0.518057
0.5258
0.525961
0.521925
0.523835
-0.0380389
-0.0399601
-0.0534387
-0.0978539
-0.0991377
-0.140622
-0.0670355
0.136923
0.0829913
0.255938
0.380669
0.105459
-0.027379
-0.0119047
0.0415916
0.213604
0.207611
0.0753644
0.190045
0.148321
0.140377
0.230614
0.253797
-0.00418502
-0.00609806
-0.00947839
-0.0146761
0.0405759
0.131085
0.119833
0.0191382
0.0109825
-0.0220014
-0.0271879
0.0141022
0.00372348
0.0090203
0.0266549
-0.0483201
-0.00136799
0.0127005
0.0209678
0.0169551
0.0175094
0.518537
0.520645
0.52043
0.528934
0.543082
0.557886
0.521591
0.497602
0.488749
0.491779
0.465011
0.474318
0.469309
0.484805
0.506079
0.514979
0.512589
0.515193
0.497659
0.499368
0.48485
0.489442
0.460133
0.44244
0.432519
-0.00596559
0.0322788
0.0344822
-0.0124842
0.0238208
0.002761
0.0139411
0.0277705
0.0132417
0.01403
0.00625933
0.0115977
0.0127771
-0.0524212
0.0284674
-0.155059
-0.204112
-0.25476
0.911922
1.04391
0.824467
0.600473
0.602099
0.855952
0.967444
0.572727
0.772906
0.79235
0.581094
0.871772
0.526954
0.526596
0.524474
0.523673
0.524676
0.00138063
0.100241
0.122446
0.172791
0.286906
0.393752
0.315856
0.20676
0.341609
0.365629
0.632094
0.641485
0.59189
0.613301
0.611481
0.433232
0.514353
0.556029
0.505108
0.57639
0.609346
0.55781
0.599675
0.521113
0.472515
0.465287
0.418806
0.453408
0.435435
0.409215
0.518126
0.495447
0.506
0.496152
0.51717
0.539512
0.541017
0.564678
0.57899
0.498006
0.447426
0.464306
0.491106
0.448581
0.464603
0.485265
0.186739
0.0916617
0.25721
-0.0718657
0.0195932
0.0562631
0.0153644
-0.0318131
0.275118
-0.368328
-0.311331
-0.996137
0.498891
0.88993
0.680085
0.694076
0.712402
0.691982
0.701983
0.717873
0.725249
0.646872
0.664456
0.667314
0.633094
0.666119
0.663373
0.673401
0.517227
0.425015
0.427146
0.361924
0.230457
0.267778
0.444761
0.381527
0.312477
0.305688
0.478316
0.34674
0.422061
0.48018
0.410412
0.341102
0.572265
0.61797
0.607851
0.579742
0.484427
0.511479
0.530576
0.574324
0.602512
0.627765
0.513427
0.519662
0.520616
0.517892
0.516064
0.519124
0.519293
0.521579
0.522077
0.524593
0.523913
-0.0190731
-0.00952172
-0.0233945
-0.0267926
0.0463218
0.0204532
0.0210874
-0.0156766
0.0108369
0.0114793
-0.00556247
-0.0212192
-0.0105592
0.00123899
0.0913488
0.108542
0.122816
0.0871154
0.286504
0.428107
0.492437
0.366896
0.241686
0.259202
0.329008
0.0289995
0.0493759
0.0326626
0.0825426
0.0612253
-0.0102383
-0.0132283
-0.00838608
-0.00388586
0.00480258
-0.0116511
-0.00583223
-0.00162057
-0.0119732
-0.0195365
-0.0132396
0.499274
0.492243
0.495455
0.488013
0.48637
0.502816
0.507217
0.508502
0.513886
0.516336
0.506243
0.512056
0.515944
0.00881398
0.00236317
-0.0101593
0.0038784
0.00764058
0.0109274
0.00525574
0.137536
0.0457035
0.0791022
0.0118374
-0.110029
-0.0503459
0.506714
0.501198
0.494984
0.727015
0.567162
0.481972
0.57751
0.695969
0.282181
0.488836
0.319946
0.903354
0.802632
0.949003
0.570873
0.260114
0.421664
0.435066
0.271058
0.396117
0.363201
0.238251
0.276826
0.299307
0.382684
0.264577
0.242557
0.00110557
0.177905
0.292711
0.274044
0.404624
0.462139
0.267355
0.182563
0.132203
0.616555
0.634783
0.646652
0.619871
0.642572
0.579444
0.569485
0.586962
0.595907
0.590684
-0.634652
-0.223608
-1.42563
-0.832245
-0.381611
0.525953
0.515157
0.760071
0.66636
0.718673
0.701503
0.634243
0.599566
0.635084
0.661219
0.353712
0.453678
0.4248
0.422869
0.363973
0.297806
0.586721
0.588489
0.610827
0.635661
0.610076
0.638261
0.512017
0.511799
0.510709
0.507149
0.505669
0.508637
0.047859
0.0217707
0.0597731
0.0546848
0.0401168
0.0406941
0.0142664
0.00309689
0.00167223
0.00409216
0.0105867
0.015578
0.180018
0.123714
0.0352979
0.0798395
0.0106157
-0.0695772
-0.0720107
0.0158917
0.114578
0.0956422
0.40256
0.678981
0.50369
0.670122
0.459468
0.559594
0.479158
0.454122
0.483465
0.380861
0.469725
0.026871
-0.16844
-0.227234
0.824512
0.780796
0.568307
0.313631
0.202624
0.504051
0.534411
0.492751
0.528353
0.578413
0.564805
0.0117963
0.111961
0.174106
0.484671
0.281744
0.298444
0.291015
0.448366
0.424308
)
;

boundaryField
{
    wall-4
    {
        type            zeroGradient;
    }
    velocity-inlet-5
    {
        type            zeroGradient;
    }
    velocity-inlet-6
    {
        type            zeroGradient;
    }
    pressure-outlet-7
    {
        type            fixedValue;
        value           uniform 0;
    }
    wall-8
    {
        type            zeroGradient;
    }
    frontAndBackPlanes
    {
        type            empty;
    }
}


// ************************************************************************* //
