/*--------------------------------*- C++ -*----------------------------------*\
  =========                 |
  \\      /  F ield         | OpenFOAM: The Open Source CFD Toolbox
   \\    /   O peration     | Website:  https://openfoam.org
    \\  /    A nd           | Version:  6
     \\/     M anipulation  |
\*---------------------------------------------------------------------------*/
FoamFile
{
    version     2.0;
    format      ascii;
    class       surfaceScalarField;
    location    "39";
    object      phi;
}
// * * * * * * * * * * * * * * * * * * * * * * * * * * * * * * * * * * * * * //

dimensions      [0 3 -1 0 0 0 0];

internalField   nonuniform List<scalar> 
1300
(
3.75095
5.62643
-3.09607
3.75095
-7.47291
5.62643
-4.30502
4.30502
-0.881775
0.881775
1.87645
1.8745
-2.67226
2.67226
-2.05942
2.05942
-2.55302
2.55302
-5.24795
5.24795
-5.06984
5.06984
4.71826
-4.71826
-6.15811
6.15811
-1.20679
1.20679
-3.69942
3.69942
3.17307
-3.17307
-2.2376
2.2376
-0.245401
0.245401
-0.554103
4.30506
3.19685
3.19685
-2.0067
2.0067
-4.87316
4.87316
6.2226
-6.2226
4.96598
-4.96598
-1.86991
-2.18245
1.74188
-11.4632
-5.73104
-5.73104
-8.44101
8.44101
-2.81458
2.81185
2.94508
-2.94508
-1.73038
1.73038
-4.29228
-0.0127396
-4.29228
4.28627
0.0187451
4.28627
-0.967788
0.0860128
-0.967788
3.83145
-3.83145
0.753792
0.127983
0.753792
3.06681
-3.06681
-1.87687
3.75332
1.87408
-1.87203
6.17708
-1.87893
3.75343
-6.03861
6.03861
-2.88098
0.208717
-2.88098
2.4839
0.188354
2.4839
-6.82599
6.82599
-2.15567
0.0962499
-2.15567
2.03822
0.0211979
2.03822
2.87762
-2.87762
-2.64813
0.0951119
-2.64813
2.42445
0.128577
2.42445
0.35346
5.27297
-5.97989
8.79174
-5.27297
0.02502
5.21021
0.037739
5.21021
-5.10523
0.0353863
-5.10523
5.012
0.0578443
5.012
4.8129
-0.094639
4.8129
-4.83238
0.114121
-4.83238
-3.63513
-4.15877
-6.35003
0.191921
-6.35003
-1.2039
-0.00288711
-1.2039
1.16477
0.0420161
1.16477
-3.66151
3.66151
-4.02123
0.321811
-4.02123
3.128
0.0450626
3.128
1.86812
1.88284
5.61907
-5.61907
2.446
-2.16793
-0.0696679
-2.16793
-2.26619
-2.69978
2.26619
-0.0285963
-0.483918
0.238517
-0.483918
3.15696
0.0398935
3.15696
2.26753
0.156912
-2.26753
0.260835
3.26299
-3.26299
1.33342
0.673276
1.33342
-5.55929
5.55929
4.96079
0.0512061
-4.96079
0.087631
6.15759
0.0650065
6.15759
-6.20769
-0.014907
-6.20769
2.68294
-4.86539
-2.46392
5.93684
0.221267
-5.93684
0.205805
2.91534
0.0297365
2.91534
-2.92086
2.92086
-2.98285
0.0377699
-2.98285
-2.15852
0.428146
-2.15852
1.40976
0.320618
1.40976
-4.16273
-0.129546
-4.16273
-4.16536
0.144124
4.16536
0.120917
1.06556
-1.06556
-1.04262
0.0748337
-1.04262
-3.96722
-0.195509
3.96722
-0.135774
-3.76645
-0.0649974
-3.76645
-3.02098
0.038128
3.02098
0.0458318
3.11183
0.0451293
-3.11183
0.0450183
-1.87097
3.75381
-1.87998
3.75407
-5.65664
-0.381971
-5.65664
6.336
-0.297385
6.336
3.26502
0.434398
-3.26502
0.384048
2.3412
0.142702
2.3412
-6.81278
-0.0132144
-6.81278
6.8174
0.00859444
6.8174
2.24785
0.0933493
-2.24785
0.0921816
2.04696
-0.00873921
2.04696
2.90064
-0.0230125
2.90064
-2.87454
-0.00308577
-2.87454
2.79768
-2.79768
2.72745
0.0702368
-2.72745
0.079311
-11.124
11.1091
-0.0361929
-11.0878
5.17402
5.17402
4.26767
0.545235
4.26767
-5.02127
0.18889
-5.02127
3.03201
-5.49593
3.15167
-6.78679
4.73276
-16.196
4.31349
-8.47226
6.64369
-6.64369
6.50824
0.135448
-6.50824
0.15821
-1.24152
0.0376185
-1.24152
-3.06059
-0.600927
-3.06059
4.3071
-0.645582
4.3071
-3.02837
3.02837
-3.07693
0.0485616
3.07693
0.0510742
2.09616
-0.0491995
-2.09616
-0.0717659
0.612993
0.140799
-0.612993
0.129075
3.46746
-0.204474
3.46746
-3.07101
-0.191979
-3.07101
-1.2852
0.0436754
1.2852
0.0482264
-5.80791
0.248625
-5.80791
-11.1816
0.0938153
-11.1439
-6.11387
-6.11387
2.32714
11.1189
-2.89217
0.0176295
2.89217
0.0231771
2.9761
0.0522715
-2.9761
0.0552378
-2.86141
0.0637252
2.86141
0.0594516
-2.53132
0.372793
-2.53132
-1.01136
1.01136
-1.16944
0.158078
1.16944
0.240317
1.35323
-0.287669
1.35323
1.11446
0.0503163
-1.11446
0.0718361
-3.72723
-0.0392248
-3.72723
6.57105
-0.235051
6.57105
-2.94841
-0.122598
2.94841
-0.0477762
-0.0348445
11.144
-5.13917
0.0339443
5.13917
-11.209
11.2429
-3.24213
0.710814
3.24213
1.02554
5.28637
0.272919
-5.28637
0.265095
6.74101
0.0763892
-6.74101
0.0973209
-2.56017
-0.500414
-2.56017
-5.0546
-0.602045
5.0546
-0.747501
-11.4821
-0.20368
11.6858
-11.4243
6.01159
0.145998
-6.01159
11.3889
-0.963571
-0.101992
0.963571
0.0477922
1.68863
-0.335395
1.68863
3.66283
-0.195366
-3.66283
-0.0644008
-6.71185
-0.100929
6.71185
-0.1408
-2.11726
-0.442917
2.11726
-0.428631
-4.26718
4.30707
1.90991
-2.46925
-2.39614
-5.16903
1.85479
1.89901
4.30079
-10.1814
-6.01457
-9.97559
7.21358
-6.94848
-9.36651
9.27187
7.7079
-7.7729
-5.77823
5.8293
6.48395
-6.43811
1.87908
1.87424
7.97887
-7.77015
-15.7252
15.3432
7.57131
-7.47506
15.8935
-15.9067
-17.9276
18.004
-5.70678
5.80189
-6.73033
6.72724
-6.95961
6.91184
-3.10758
-3.67921
13.1736
-12.9816
8.37212
-8.44179
-8.62214
8.94395
3.38451
0.922565
3.42963
-1.88203
3.76111
-1.8714
3.7813
2.70172
-5.8093
2.79421
-5.19035
4.09293
4.27919
-4.06433
-1.1047
-5.92447
5.95421
-5.81425
5.8737
9.01313
-9.02587
-1.88503
3.75926
-1.86904
3.76806
-3.42357
-2.35466
3.37851
0.922287
8.0675
5.10607
-8.28877
-1.68682
-7.90948
7.71411
-8.1748
7.98283
-0.439254
5.83696
-5.39771
4.43391
-1.65173
7.4887
5.56185
5.75074
5.8601
-5.58718
1.08838
-6.48609
-6.39846
-2.53492
2.60975
2.50765
-2.37967
6.00033
1.70757
5.86456
-5.68253
-2.09037
-5.72175
3.82057
2.00873
3.86913
4.08085
2.4031
4.11897
3.02999
-3.03612
0.00613011
-3.05883
6.08882
0.723139
-5.41348
-4.4912
5.00655
2.97231
5.19491
-5.56667
-2.20348
-5.18262
-9.58883
-6.13634
-10.1909
10.1304
5.21278
9.83304
-12.0164
11.8756
4.85196
2.71934
4.87316
-4.955
-2.52006
-4.86282
11.673
-2.60893
-9.06411
-10.3691
-7.55857
10.3605
5.53303
11.0095
6.99456
11.1068
4.43391
7.23913
-9.96694
2.40837
-3.86519
-1.84159
-3.78588
3.66756
2.13434
3.79613
-4.21483
-2.5155
-4.1972
-4.2905
-2.66911
4.31352
2.41373
-4.40304
-3.77177
4.52563
2.3862
4.11649
-10.1311
4.35578
-8.03499
-9.24526
-3.73639
-9.08705
3.57955
2.54478
-6.12433
-2.22975
8.52479
-4.2456
7.42009
-5.10045
-3.34134
-5.17222
-6.91081
-1.71133
-6.76669
-8.94603
8.44561
-9.22768
8.58209
12.6495
-5.6874
-6.96215
-3.96679
-2.47132
3.92177
-0.492138
-3.71052
3.71665
0.0505955
3.8319
4.75446
4.26233
-3.88393
-1.93032
-3.82869
3.82679
2.04691
3.89051
6.77125
2.24188
6.79
-6.46243
-2.56344
-6.59197
9.13836
-8.71022
2.8753
-2.83163
5.31641
2.66642
-5.11194
-2.79754
6.2263
-3.16149
-3.06482
-12.3596
10.8583
1.50129
-4.87087
-0.436958
-0.191557
-5.58879
-3.77773
5.47466
0.276071
11.1343
7.35662
-5.51485
5.76347
6.17096
6.22217
-0.176291
5.92037
-5.20956
5.34799
-2.53643
-2.81156
5.33048
-5.52599
-1.26149
-5.41055
4.14906
0.338565
1.74268
-1.50416
-1.97107
-0.56385
-1.89923
1.47683
1.03082
1.61763
0.916145
1.69361
-2.97232
0.600048
2.37227
-2.05618
-1.77962
-3.65038
-1.09526
4.74564
5.59206
2.12205
-5.52766
-0.19409
2.67804
-2.63602
-0.753094
-2.89729
2.14211
-2.89521
-3.55969
-1.8544
5.41409
-3.36964
-0.459057
3.31736
0.551764
-3.82685
-2.09762
3.78908
0.329895
-3.12696
6.19045
-3.0635
-5.05727
2.52901
3.55981
4.53774
-4.7909
2.44832
2.34258
-1.2311
4.27625
0.918655
4.41895
-6.98062
4.77714
5.71035
3.2336
-6.14475
0.96213
-6.01849
8.37813
-7.24809
-1.13004
3.86684
4.51129
7.09218
5.55737
-5.71334
12.8055
-1.04914
-6.19895
7.06763
-3.83403
4.78387
-8.6179
-10.3412
4.14228
-9.24303
11.0495
-1.80645
-3.62602
-8.39039
12.869
-1.2076
-11.6614
8.62544
-4.21484
-4.27523
8.49007
-6.82377
6.79529
-1.96452
-4.83077
-10.1772
-5.72949
10.2782
1.59745
-9.87584
12.2842
-2.63672
4.16019
0.712976
4.15145
3.27216
-5.41884
2.14668
3.55161
-5.51613
2.05855
-7.47739
-6.83
12.202
-5.37202
-10.5664
-9.60988
-0.956501
2.54028
9.74393
-9.53484
7.45469
2.08015
3.30436
0.586156
-3.37459
-0.411289
0.25079
4.51869
-4.76948
4.04692
4.20384
3.27231
1.24638
3.84562
2.10859
-3.86879
-0.328404
-4.15904
1.48993
-1.74531
-3.68269
5.17262
-4.06249
0.3798
-2.73953
-3.50051
6.24004
-4.58112
3.03875
3.15171
5.08566
-4.91296
1.41245
-2.39524
-2.51772
2.65004
-4.39535
1.98133
3.19129
4.36753
0.595759
6.0022
6.19982
-8.54698
0.511989
11.3059
-9.61907
2.49924
8.60756
-9.95393
0.344046
-8.743
0.968277
-5.21388
-5.15605
5.13512
-6.84644
-3.48278
6.21664
0.573352
-6.33756
-0.429127
-6.07005
-2.87598
-6.51297
-3.06196
-6.16571
-8.7753
-1.67897
-7.09633
6.76664
-6.69999
-3.49089
7.44749
1.13461
-7.47522
7.37323
-7.53814
7.20275
0.094373
3.62228
4.3567
1.88538
-2.39118
4.27656
-5.06045
7.30233
-8.62609
3.56564
4.09034
-6.65379
-4.53575
5.0699
4.06846
5.39052
8.98067
-10.492
1.51132
-10.7571
12.0844
-1.32727
-16.559
5.80186
-7.5783
2.57644
0.298858
2.61406
0.621078
2.46537
-3.08645
-2.21055
-2.16232
-2.37367
-3.49089
5.86456
1.14331
-3.40877
2.26546
-3.55649
4.6998
0.0200588
-3.42883
5.22047
-2.7551
5.51933
-3.53643
1.9829
3.4712
5.8025
-2.3313
4.41838
-1.75197
1.87005
-4.20135
-1.62084
-2.96259
5.09693
-3.27745
3.65725
-0.327444
3.98469
-4.07532
0.913829
-0.803002
3.40083
3.66167
4.30766
-3.06128
2.9585
-4.71047
-1.24285
-4.11471
-0.923414
-0.230662
-3.82937
4.06003
6.06695
-6.29761
-5.31491
9.57339
-4.25848
7.73196
-5.46519
-2.26677
-4.31248
-4.39774
3.93969
1.98068
9.71265
0.176833
-5.64202
-5.03272
-4.00719
3.21147
2.13652
-1.91167
3.41296
2.10323
-0.360553
0.506115
1.11152
1.86446
-1.35834
0.263567
1.60089
-1.24059
1.92221
0.755829
-1.97252
0.0732906
-1.29035
3.43246
1.08192
-2.11274
0.754401
0.986186
-3.52261
4.84716
-2.58239
-2.26477
5.83335
1.16072
-3.74311
4.24983
-3.91127
2.39553
-3.49079
-1.34758
-5.25884
-3.55127
-2.56208
4.82753
-3.30249
5.42453
1.26784
-5.23044
6.49828
-3.58917
1.73477
-3.06869
3.82451
-1.11063
-1.95805
2.94019
2.47391
-3.05753
0.160238
-0.117342
2.37106
-2.4884
-0.524147
-2.58032
-4.57461
4.90451
-2.10504
4.55336
2.17151
-1.91576
6.46913
1.80955
-3.72531
-3.24773
-3.70678
-1.38273
3.15502
-0.574346
-4.28847
-5.40511
4.19512
0.223832
-6.8095
7.72021
-0.910705
-3.83719
-0.939954
4.80679
-5.98668
0.470543
-3.92812
3.79208
4.71074
4.93457
-11.4355
-0.225918
-6.22275
1.10238
-7.32513
5.61367
-3.57157
7.71385
-10.3686
6.87766
-9.23395
6.58382
-0.741318
6.2427
-4.09602
2.82141
-8.5509
-6.95345
5.45997
-2.74062
6.17294
-3.11273
9.28568
-5.74945
5.22194
4.06374
-1.04839
-4.12383
-5.20035
4.15197
0.0215819
4.17303
4.98185
-2.87326
4.65344
2.25741
-4.65265
-2.13794
-6.49097
1.83832
-3.33926
-1.91865
3.75697
3.167
3.75316
1.23925
-3.34187
7.27657
-8.23307
-1.90455
-3.25151
5.16503
-1.01306
3.39019
-6.64169
-1.82369
4.82068
-0.76035
-4.06033
0.866716
-4.3495
1.6644
-6.01389
5.18204
-5.61117
2.24465
-9.82296
-5.23057
-5.18278
-2.27469
-5.26345
-7.62397
5.34927
-1.82211
5.55112
-8.60011
7.83976
-3.48427
8.83354
-5.45942
-1.05355
5.88805
1.3147
10.1482
0.0947822
-4.63053
-1.90956
3.83752
-1.92796
1.30191
-3.73458
0.102934
2.46501
3.36834
-6.61407
-0.0397198
-4.67025
-3.91584
7.9843
5.65755
11.7245
1.23251
9.18548
-1.20118
10.418
4.18934
4.42966
-3.03279
4.54411
1.02723
4.59287
-0.836689
2.81959
1.77737
1.77449
0.861536
2.29943
1.36224
3.21326
0.126807
-2.03552
4.6559
-8.66309
-0.986125
-8.11785
1.15402
5.43328
-4.27926
3.0222
-0.885679
1.09424
0.0163153
-1.59021
1.57389
-2.79525
-1.95076
-0.349873
-1.61143
2.36583
1.82103
-2.01596
-0.779288
0.289221
-3.84049
3.20157
-3.04133
-0.56742
5.93086
-2.79131
0.302911
-1.05654
-2.27741
-2.84126
2.76797
6.1751
0.294028
3.1116
5.19854
3.10092
0.227659
3.91025
-5.7167
-3.56714
-5.94261
-0.328949
4.47785
1.73112
8.01281
5.79486
4.7818
-1.85989
-10.093
6.53312
-1.98901
5.20586
-1.14552
-4.86837
5.05102
2.25131
-5.62438
0.0132041
-4.85517
-6.84418
-0.493681
8.33344
-9.65456
8.60101
5.72503
1.37129
-4.44028
-0.742493
4.28221
0.147456
10.5654
-0.906997
-7.17853
8.08553
-4.52629
3.54016
0.743749
2.66921
2.31764
1.43196
-5.74657
-10.0258
-1.91147
-1.61114
-4.17624
0.569397
-2.39043
6.10781
-2.56765
3.84104
5.51788
6.61212
-2.07678
-4.22083
6.33526
-2.49422
4.1179
)
;

boundaryField
{
    wall-4
    {
        type            calculated;
        value           uniform 0;
    }
    velocity-inlet-5
    {
        type            calculated;
        value           uniform -3.75095;
    }
    velocity-inlet-6
    {
        type            calculated;
        value           uniform -5.62643;
    }
    pressure-outlet-7
    {
        type            calculated;
        value           nonuniform List<scalar> 8(3.09607 7.47291 4.05236 9.72132 7.7939 5.14686 6.18367 9.04625);
    }
    wall-8
    {
        type            calculated;
        value           uniform 0;
    }
    frontAndBackPlanes
    {
        type            empty;
        value           nonuniform 0();
    }
}


// ************************************************************************* //
