/*--------------------------------*- C++ -*----------------------------------*\
  =========                 |
  \\      /  F ield         | OpenFOAM: The Open Source CFD Toolbox
   \\    /   O peration     | Website:  https://openfoam.org
    \\  /    A nd           | Version:  6
     \\/     M anipulation  |
\*---------------------------------------------------------------------------*/
FoamFile
{
    version     2.0;
    format      ascii;
    class       volVectorField;
    location    "39";
    object      U;
}
// * * * * * * * * * * * * * * * * * * * * * * * * * * * * * * * * * * * * * //

dimensions      [0 1 -1 0 0 0 0];

internalField   nonuniform List<vector> 
918
(
(0.985047 -0.00070903 0)
(0.00533844 2.96625 0)
(-0.0072111 0.81477 0)
(0.979573 0.00195779 0)
(-0.0341412 1.99091 1.81293e-20)
(-0.00708905 2.94856 -2.70399e-18)
(0.814638 1.13694 4.11011e-19)
(0.305305 0.112924 -1.59288e-20)
(0.99992 -0.000242841 0)
(0.0831283 0.746937 0)
(0.000988333 0.526007 0)
(0.73595 -0.0158898 0)
(0.0102178 2.93154 0)
(0.00333192 2.79457 0)
(-0.000673193 3.19155 8.0731e-19)
(0.0012933 1.878 -8.92831e-21)
(0.361982 0.0270968 1.04544e-18)
(0.237599 1.14634 3.24687e-19)
(0.964478 0.00667745 0)
(-0.0015406 0.584497 0)
(0.0869374 0.180607 -7.54457e-19)
(1.00184 -0.00455969 0)
(0.999854 -0.00893408 0)
(0.975155 -0.00605981 0)
(0.598586 -0.0363843 0)
(0.0227948 2.6439 0)
(-0.0124065 2.91203 9.9868e-19)
(-0.00419784 0.884942 0)
(0.0047544 1.08231 0)
(-0.00413116 0.861731 0)
(-0.0337848 2.5923 0)
(-0.0108022 2.05936 -1.44587e-20)
(-0.0172164 1.80515 0)
(-0.022145 2.98761 -9.78484e-23)
(-0.0164987 3.00549 2.1011e-18)
(0.00230296 3.00059 0)
(0.87113 -0.00940821 0)
(0.375254 0.91838 1.77904e-19)
(0.816265 1.14727 -4.86665e-19)
(0.951013 1.0007 5.12127e-19)
(0.681838 1.23155 -9.42167e-20)
(0.693071 1.20493 5.45724e-19)
(0.335288 0.207733 1.55398e-20)
(0.315648 0.0953259 0)
(1.13099 0.5096 0)
(0.301004 0.20731 7.0923e-20)
(0.275862 0.129076 -7.35981e-20)
(0.920378 -0.00699245 0)
(1.00025 7.98128e-05 0)
(0.999909 0.000314483 0)
(1.00369 -0.00730055 0)
(1.00091 -0.000955058 0)
(1.0001 -1.87059e-05 0)
(0.0976638 1.8295 -8.07362e-19)
(0.0317093 0.91979 0)
(0.125409 0.819301 0)
(0.014186 0.873653 0)
(0.0443112 0.686605 0)
(0.0145339 2.00825 0)
(0.0163863 0.750077 0)
(0.0136751 0.562393 0)
(0.00134883 0.738042 0)
(-0.00894407 0.519693 0)
(0.839729 -0.0151587 0)
(0.843625 0.032332 0)
(0.767671 -0.00546705 0)
(0.816256 0.0430989 0)
(0.699408 -0.0185734 0)
(0.0139469 3.00021 1.00524e-18)
(0.011171 3.00598 0)
(0.00625364 3.00388 0)
(0.0119109 2.99711 1.1441e-23)
(0.00827348 2.95873 -1.49403e-18)
(0.0122322 2.98291 0)
(0.00901345 2.90469 0)
(0.0208363 2.93173 2.35945e-24)
(0.00416918 2.82406 0)
(0.02532 2.91889 0)
(-0.000653347 2.74406 0)
(0.310137 3.59177 0)
(-0.122723 3.67513 0)
(0.152681 3.28265 -7.51374e-19)
(0.0061807 3.01532 0)
(-0.00871866 2.08252 0)
(-0.020526 2.12407 8.80527e-21)
(0.00217177 1.89528 -1.42177e-20)
(0.442301 0.134763 -3.61529e-19)
(0.362479 -0.00117468 -3.48912e-19)
(0.420652 0.159616 -1.08746e-18)
(0.349572 0.0496548 -7.17292e-19)
(0.255077 0.992781 0)
(0.337889 1.27469 -3.42262e-19)
(0.414966 1.18002 5.65071e-19)
(0.987944 0.00808268 0)
(0.943446 0.0057925 0)
(1.00029 0.000675412 0)
(1.00254 0.00907338 0)
(1.00314 0.00892949 -2.74489e-18)
(0.992125 0.00949975 2.07422e-18)
(-0.0290557 0.780787 0)
(-0.0246746 0.569171 0)
(-0.00484026 0.908048 0)
(-0.011184 0.796784 0)
(-0.0213138 0.595027 0)
(0.114477 0.1912 2.33541e-19)
(0.165106 0.163936 0)
(0.993609 -0.00769879 0)
(0.953986 -0.00646468 0)
(0.764803 0.0502469 0)
(0.697926 0.0548525 0)
(0.659798 -0.0235472 0)
(0.968868 -0.00574909 0)
(0.628294 0.0610345 0)
(0.455037 -0.0334536 1.52884e-18)
(-0.04107 2.86078 8.06879e-19)
(0.0337615 2.91377 0)
(0.0424269 2.89205 0)
(0.00358257 2.70139 0)
(-0.00861068 2.98672 9.57787e-19)
(-0.0141643 2.89483 0)
(-0.0109017 2.99179 -2.94448e-18)
(-0.0117026 2.92974 1.00125e-18)
(0.0389489 1.31054 0)
(0.0549227 1.37419 0)
(-0.0145027 2.08396 4.73427e-24)
(-0.00923037 2.0506 0)
(-0.012798 1.83625 0)
(0.938189 -0.00558512 0)
(0.856 -0.0105923 0)
(0.86369 0.00598992 0)
(0.949189 -0.00640138 0)
(0.88313 -0.00791958 0)
(0.499942 1.11969 -2.2511e-19)
(0.547777 1.1911 0)
(0.335956 0.850813 3.38461e-20)
(0.279888 0.715642 0)
(0.911539 1.03776 -1.42084e-19)
(1.02379 0.838055 2.76644e-19)
(0.39964 1.33747 0)
(0.544307 1.29208 0)
(0.595438 1.22467 0)
(0.0946436 0.171308 -3.01697e-19)
(0.352009 0.203928 0)
(0.314863 0.0898195 2.0356e-19)
(0.986462 0.894124 0)
(1.05046 0.736019 0)
(1.07944 0.669665 -2.0483e-19)
(1.11193 0.578115 0)
(1.16638 0.372026 4.44539e-20)
(0.957205 -0.00723851 0)
(0.962572 -0.00820278 0)
(0.900583 -0.0073021 0)
(0.983884 -0.008154 0)
(0.97434 -0.00809262 0)
(0.936434 -0.00652948 0)
(1.0002 0.00250186 0)
(1.00077 0.00124637 0)
(0.999999 0.00077422 0)
(0.0409736 2.07797 4.47335e-19)
(0.147743 1.77429 0)
(0.0132733 2.19664 6.89503e-19)
(0.0570367 1.88024 -5.83756e-19)
(0.173674 1.12757 -2.65663e-19)
(0.0554621 0.993014 0)
(0.122597 0.990136 0)
(0.00999392 0.825565 0)
(0.03099 0.635178 0)
(-0.00928818 2.24273 -1.0999e-21)
(0.024266 2.01312 0)
(-0.0102601 2.24084 -5.17848e-20)
(0.0169263 2.00792 9.29993e-20)
(0.00456762 0.796128 0)
(0.012185 0.77597 0)
(0.0151144 0.599765 0)
(-0.0137743 0.744676 0)
(-0.000402977 0.515011 0)
(0.936681 0.0132265 0)
(0.851131 -0.0116228 0)
(0.926578 0.00439212 0)
(0.84362 -0.0122959 0)
(0.812476 0.000262408 0)
(0.900658 0.0211994 0)
(0.875908 0.0264301 0)
(0.788788 -0.002289 0)
(0.0104464 3.06747 -9.42589e-21)
(0.0147986 3.05934 0)
(0.0124306 2.97032 0)
(0.00759762 2.87663 0)
(0.901086 3.9903 0)
(1.19667 3.38385 9.42451e-19)
(0.0831998 3.09652 0)
(-0.0155617 2.92134 0)
(0.0494447 1.44598 0)
(0.00696782 1.79324 0)
(0.0365257 1.64938 0)
(-0.0321605 2.55129 -9.56907e-22)
(-0.0228207 2.28025 0)
(-0.0351547 2.41296 0)
(0.0134799 1.92783 -1.68476e-21)
(-0.0102648 2.22569 1.56086e-20)
(-0.0150704 2.17834 1.44498e-20)
(0.00102165 1.9095 0)
(0.459876 0.111521 5.46741e-19)
(0.37313 -0.0127522 -5.37021e-19)
(0.231224 1.58021 0)
(0.284183 0.735341 -3.3165e-19)
(0.178149 1.67598 -1.10226e-18)
(0.242388 1.19771 1.10311e-18)
(0.901914 0.00622126 0)
(0.967232 0.0104701 0)
(0.975115 0.00971916 0)
(0.923165 0.00602533 0)
(-0.0238135 0.748083 0)
(-0.0246802 0.75875 0)
(-0.0205361 0.53856 0)
(0.258258 0.206048 6.51974e-19)
(0.217462 0.191041 -7.74798e-19)
(0.225957 0.142485 0)
(1.09092 0.085371 2.72325e-20)
(1.07507 0.0388385 0)
(1.00932 0.0417518 0)
(0.90603 -0.00360182 0)
(0.486919 0.0876899 0)
(0.542519 0.0638709 -2.45083e-18)
(0.397786 -0.0185941 9.23256e-19)
(0.0110604 2.97715 8.45399e-19)
(-0.032904 2.8619 4.61307e-20)
(0.00840555 3.05294 -1.98552e-20)
(0.0158017 3.04344 7.43008e-19)
(-0.0118331 2.99996 3.28937e-20)
(-0.0122986 2.95233 -1.32701e-22)
(-0.0150646 3.01326 -6.12634e-19)
(0.0143515 3.02659 4.30812e-19)
(0.00757817 3.03478 -7.00338e-19)
(0.933287 0.00164767 0)
(0.9386 -0.00165143 0)
(0.846367 -0.0107616 0)
(0.956642 0.0114306 0)
(0.942977 0.0126608 0)
(0.881969 0.00599071 0)
(0.917294 0.0171015 0)
(0.926154 0.014465 0)
(0.838341 0.00320777 0)
(0.674446 1.42153 3.22374e-21)
(0.69321 1.53308 0)
(0.122654 0.307267 7.07235e-20)
(0.1971 0.632756 5.61968e-19)
(0.233632 0.68582 -3.28629e-19)
(0.218762 0.515112 6.51608e-19)
(0.326703 0.800544 1.59593e-18)
(0.122343 0.223392 3.83275e-19)
(0.397453 0.181052 7.63057e-19)
(0.382062 0.198959 1.97412e-19)
(0.334232 0.0660948 3.79055e-19)
(1.1585 0.432289 4.79643e-20)
(1.18643 0.236115 4.65765e-20)
(0.00183744 2.24069 2.73357e-19)
(0.0449459 1.94377 0)
(0.966353 0.031817 0)
(0.942181 0.0185355 0)
(0.864706 -0.0162879 0)
(0.0122589 3.07424 0)
(0.0167551 2.94397 1.32247e-18)
(0.0139689 2.95673 0)
(0.00586769 2.85005 -1.31222e-18)
(0.00964854 3.09002 3.23638e-19)
(0.0115277 3.0839 0)
(0.714429 1.83145 -1.69644e-19)
(1.24118 2.63972 5.74076e-19)
(0.699445 2.01041 -1.39973e-18)
(0.0226714 2.97616 -7.43492e-19)
(0.0416201 3.00004 0)
(-0.0380739 2.87988 0)
(-0.0116372 2.21478 -1.52505e-20)
(-0.00573623 2.2419 -2.81483e-20)
(0.0187005 1.97109 -1.1579e-20)
(0.266872 1.37877 1.05616e-18)
(0.265983 0.525095 -7.22589e-19)
(0.0691925 1.99244 7.86232e-19)
(0.122093 1.86369 -9.41176e-19)
(0.207701 1.52151 1.01855e-19)
(0.00494169 3.11978 -2.03257e-18)
(0.0188287 3.1192 2.18533e-18)
(-0.00488488 2.98069 8.99885e-19)
(-0.00020093 2.97512 -8.68562e-19)
(-0.0178729 2.87839 -9.16554e-19)
(0.0126042 3.0997 -2.40979e-18)
(0.00529796 3.1072 2.36008e-18)
(0.246426 0.670405 0)
(0.202329 0.638201 -1.18586e-18)
(0.0656191 0.209467 5.21411e-19)
(0.337673 0.915862 1.13677e-18)
(0.188475 0.264959 -1.75065e-18)
(1.17516 0.169648 6.30357e-20)
(1.18587 0.294426 0)
(1.17052 0.11732 -9.48499e-21)
(-0.00539077 2.25695 -1.77379e-21)
(-0.00192897 2.244 0)
(0.0348058 1.97654 0)
(0.310385 1.30279 -3.78784e-19)
(0.349386 1.14402 -8.1598e-19)
(0.217643 0.373229 1.45562e-18)
(1.00642 -0.00974104 0)
(1.00773 -0.00781227 5.04937e-19)
(0.0279748 1.28816 0)
(-0.00570993 1.23814 0)
(1.00245 0.00331667 1.39514e-21)
(1.00326 0.00794659 1.0359e-18)
(-0.0353747 2.54627 1.2084e-21)
(-0.0350698 2.58306 0)
(0.0430197 3.17394 5.40364e-19)
(0.379438 3.55394 0)
(1.12697 0.682878 -7.0248e-20)
(1.01201 0.01088 -2.75677e-21)
(1.02077 -0.00909866 0)
(1.0016 0.000213095 1.39415e-22)
(0.106974 1.36158 0)
(0.14483 2.59434 0)
(0.0296363 1.31118 0)
(-0.00247941 2.64156 4.58997e-20)
(-0.0254552 2.59134 2.75394e-20)
(0.999596 0.0260962 2.56198e-21)
(1.06142 0.00462618 0)
(1.09787 0.0257615 0)
(-5.37111e-05 1.81962 0)
(-0.0309057 2.58828 0)
(0.00223182 1.28133 0)
(0.286716 1.48246 -1.46489e-19)
(1.01145 -0.00910844 0)
(1.00969 -0.0130228 0)
(1.00228 0.000898979 6.47025e-19)
(1.00549 -0.00495244 -7.61967e-19)
(1.00115 -0.00088382 0)
(0.0122999 1.52814 0)
(0.0304713 1.37726 0)
(0.0359425 1.47289 0)
(0.014749 1.27105 0)
(0.00570296 1.21184 0)
(0.000249296 1.19033 0)
(1.03511 -0.0047667 0)
(1.01959 0.0150449 -9.36203e-22)
(0.783974 1.30357 2.47636e-19)
(1.00236 0.000337009 -6.46102e-19)
(1.00343 0.00454655 7.70776e-19)
(1.0013 0.0021099 0)
(1.01136 0.0096994 6.43452e-19)
(1.00701 0.00756865 -7.82947e-19)
(1.00742 0.0112767 0)
(-0.0351297 2.61366 0)
(-0.0351444 2.59402 -5.67845e-21)
(-0.0356752 2.60533 5.13419e-21)
(1.22941 0.261666 5.94942e-19)
(1.1585 0.0861344 0)
(0.0466802 3.09049 -1.05192e-18)
(0.0512618 2.87083 -7.43779e-20)
(0.105849 3.20149 1.40858e-18)
(0.124276 3.21415 -3.119e-19)
(0.146748 3.26202 0)
(0.0234544 3.1378 2.90201e-19)
(0.0627853 3.16212 1.0479e-18)
(0.0633756 3.17925 -5.42352e-19)
(0.0273262 3.1293 0)
(0.643861 0.302509 0)
(0.594152 0.350954 0)
(1.10494 0.714566 1.75948e-19)
(1.07109 0.848603 -1.80572e-19)
(1.16709 0.600958 0)
(1.19826 0.530683 0)
(1.01587 0.0120511 -1.19585e-18)
(1.0148 0.0128057 1.50362e-18)
(1.02551 -0.00886519 0)
(1.02386 -0.0103899 0)
(1.00661 0.0028463 0)
(1.01091 0.00415604 0)
(1.00443 0.00212847 0)
(1.00953 0.00650776 0)
(1.00701 0.00508019 0)
(1.00456 0.0053318 0)
(0.0941785 1.35777 0)
(0.0782524 1.34312 0)
(0.133813 1.40826 0)
(0.128493 1.4107 0)
(0.152856 2.6171 0)
(0.193114 2.6818 -4.40276e-19)
(0.110657 2.679 0)
(0.0842391 2.68056 1.92723e-19)
(0.0317633 2.68664 -1.99986e-19)
(0.0256117 1.32766 0)
(0.0204767 1.2599 0)
(0.0214904 1.32838 0)
(0.0305031 1.27631 0)
(-0.00312719 1.99302 -9.28271e-21)
(-0.0252666 2.61934 9.96938e-21)
(-0.0124802 2.6854 3.00369e-20)
(-0.0224287 2.69603 0)
(-0.0266075 2.6265 -6.05575e-20)
(-0.0242348 2.62072 -1.71451e-20)
(0.00461725 1.99193 8.25453e-21)
(-0.0152459 2.41667 -1.33757e-20)
(-0.0184926 2.43694 -3.40468e-20)
(1.01022 0.0372149 1.21146e-18)
(1.00682 0.016812 -1.51002e-18)
(1.00362 0.0429387 -1.23837e-18)
(0.978414 0.0295168 1.55854e-18)
(1.06309 0.0078979 0)
(1.04864 -0.00699181 0)
(1.09018 0.0349085 0)
(1.07392 0.0134499 0)
(1.07277 -0.000447783 0)
(1.13721 0.075056 0)
(1.112 0.0430024 0)
(1.11414 0.0357377 0)
(-0.0353677 2.44149 -3.47181e-21)
(-0.021665 2.04097 0)
(-0.0232996 2.23952 0)
(-0.0320519 2.60945 1.94489e-21)
(-0.025514 2.62023 -3.02747e-22)
(-0.00838077 1.59108 1.79413e-20)
(0.0107395 1.55121 -1.81073e-20)
(0.00904173 1.39168 0)
(0.0234204 1.40415 0)
(0.0116753 1.40644 0)
(-0.0123283 1.29213 0)
(-0.00914723 1.22876 0)
(0.376265 1.50289 2.36511e-19)
(0.419889 1.51127 1.37097e-19)
(0.599029 2.465 -2.45199e-19)
(0.384815 2.56327 7.41623e-19)
(0.35239 2.07054 7.69265e-20)
(1.02057 -0.00811256 0)
(1.0157 -0.00942718 0)
(1.0148 -0.0132445 0)
(1.00762 -0.00070863 0)
(1.00492 -0.000666653 0)
(1.00797 -0.00460271 0)
(1.00948 -0.00363022 0)
(1.01452 -0.00445391 0)
(1.02037 0.0158527 1.17329e-18)
(1.01771 0.0148267 -1.48818e-18)
(1.02087 0.0179736 -1.18252e-18)
(1.01868 0.0164372 1.48025e-18)
(0.7453 1.34687 0)
(0.679586 1.38648 2.09289e-19)
(0.850328 1.22433 6.85973e-20)
(0.882792 1.19466 -9.10163e-20)
(1.16501 2.623 3.17167e-19)
(0.792816 0.118958 6.02508e-19)
(1.16509 0.100619 0)
(1.20232 0.189158 -4.81394e-19)
(1.18298 0.150307 -2.00118e-20)
(1.01179 0.152404 0)
(0.087176 3.02484 3.82265e-19)
(0.088869 2.90542 -1.25454e-18)
(0.0369538 2.36474 7.9781e-19)
(0.134178 -0.0727386 -3.84851e-19)
(0.347051 3.45616 -2.3455e-19)
(0.19689 3.34643 0)
(0.227555 3.40649 3.05529e-19)
(0.229791 3.08316 -1.30576e-18)
(0.263818 3.20351 0)
(0.00615126 3.12277 5.40412e-20)
(0.0164319 3.1315 -6.21864e-19)
(0.0153917 3.12724 9.15263e-19)
(0.0335897 3.14031 0)
(0.0318947 3.14977 0)
(1.26244 2.59002 0)
(0.518706 0.830054 -5.39144e-19)
(0.99336 1.02838 1.78423e-20)
(0.962448 1.07096 0)
(0.828434 0.960348 -1.23663e-19)
(1.04887 0.893444 2.81169e-20)
(0.406313 0.383911 -9.50012e-19)
(0.701457 0.31989 -2.50172e-20)
(0.656708 0.243332 4.27322e-19)
(0.612649 0.372157 3.15965e-20)
(0.526193 0.347692 -1.27468e-18)
(0.666262 0.329863 0)
(0.698443 0.417043 7.38698e-19)
(0.705199 0.422609 0)
(0.645902 0.357703 0)
(0.601443 0.299659 0)
(0.763205 0.644928 4.2335e-19)
(1.23443 0.290286 -4.90272e-19)
(1.21881 0.430176 0)
(1.23048 0.377408 0)
(0.74668 0.177354 6.38524e-19)
(0.826433 0.540091 -4.01478e-19)
(0.746506 0.494166 7.11256e-19)
(0.952221 0.428639 -7.54751e-19)
(1.01897 0.014462 7.97814e-19)
(1.01739 0.0135498 -8.04427e-19)
(1.01618 0.0142139 0)
(1.03645 -0.0049722 0)
(1.03008 -0.00795255 -7.55785e-19)
(1.02825 -0.0107715 7.48038e-19)
(1.02485 0.0102864 0)
(1.02303 0.0143272 0)
(1.01243 0.0044723 0)
(1.01453 0.00903709 0)
(1.01599 0.00390969 0)
(1.01529 0.00276258 0)
(0.0619662 1.35335 0)
(0.0616556 1.31589 0)
(0.143051 1.40637 3.66944e-20)
(0.264511 1.47641 6.56483e-20)
(0.157399 1.44908 1.44361e-19)
(0.183038 1.45516 -2.34472e-19)
(0.148395 1.41102 0)
(0.12712 1.57604 -1.34541e-19)
(0.127622 1.5673 0)
(0.349164 2.02989 -1.11964e-19)
(0.333884 2.34653 6.47275e-19)
(0.178698 1.45148 1.17296e-19)
(0.264556 1.37619 1.05889e-20)
(0.18967 1.3784 -8.61884e-21)
(0.28005 1.31241 -1.24424e-19)
(0.25214 1.57627 0)
(0.254484 1.62558 1.25711e-19)
(0.0288971 2.27775 -2.70034e-20)
(0.0379302 2.68184 0)
(0.0683681 2.41769 1.27097e-19)
(0.0611273 2.43734 0)
(0.0704125 2.69657 -2.13748e-19)
(0.0448999 2.71409 0)
(0.0254677 1.41639 9.82798e-21)
(0.0343417 1.47248 0)
(0.0313775 1.38115 0)
(0.0249538 1.38322 -1.13588e-20)
(-0.00173307 2.66954 -6.77982e-21)
(0.0243265 2.70662 2.30865e-19)
(0.00772158 2.73885 1.41385e-21)
(-0.000792474 1.84061 1.50326e-20)
(-0.00786478 1.68421 3.46869e-21)
(0.0250831 1.30515 0)
(0.0104765 1.24179 0)
(0.0408912 1.57315 2.3477e-20)
(0.0332314 1.44783 8.87762e-21)
(0.0328529 1.51658 -1.41564e-20)
(0.043191 1.60146 0)
(-0.0403784 2.29497 5.9758e-20)
(-0.0478173 2.5642 -3.27617e-20)
(-0.0202055 2.46673 -1.52181e-21)
(-0.013707 1.85763 -1.82179e-20)
(-0.0309093 2.51449 -5.84135e-21)
(-0.0276808 2.45399 3.95425e-20)
(1.01882 0.0208528 -8.02589e-19)
(1.01499 0.0265667 8.05277e-19)
(1.01414 0.0165394 0)
(1.01259 0.0669732 1.10426e-18)
(0.992528 0.054207 -1.26935e-18)
(0.954699 0.0499512 1.41975e-18)
(1.01285 0.10922 -1.50562e-19)
(1.04311 -0.00515437 0)
(1.05103 -0.00115451 7.24814e-19)
(1.03958 -0.00843276 -7.24361e-19)
(1.07076 0.0402399 -4.31138e-20)
(1.0633 0.0270989 3.71597e-19)
(1.06442 0.0622831 0)
(1.05243 0.0516499 -1.3371e-19)
(1.03254 0.0421939 0)
(1.02549 0.0376402 0)
(1.02778 0.0128742 0)
(1.02425 0.0155475 0)
(1.04048 0.0318542 2.74752e-19)
(1.03909 0.0272208 -6.07497e-19)
(1.0521 0.035871 -2.91105e-19)
(1.04829 0.0356446 -3.20869e-19)
(1.07515 0.0659521 6.18219e-19)
(1.09838 0.0524328 0)
(1.10433 0.0907967 0)
(-0.0427724 2.29405 1.1683e-20)
(-0.0270426 2.03784 -4.22924e-21)
(-0.0304535 2.03952 0)
(-0.0339131 2.46365 -1.25198e-20)
(-0.0282169 2.4078 7.75463e-21)
(-0.046503 2.48606 9.0112e-22)
(-0.0252822 2.63238 1.47871e-20)
(-0.0342397 2.57601 -1.72938e-21)
(-0.0271108 2.53038 4.76811e-21)
(-0.0240298 2.62541 -5.42436e-21)
(-0.0268534 2.62746 7.73015e-21)
(-0.0164005 1.48512 -3.88846e-22)
(-0.00212397 1.62754 1.17222e-20)
(0.367441 1.43066 -9.52174e-20)
(0.363713 1.36041 4.8029e-20)
(0.630892 1.43185 -2.02486e-19)
(0.509649 1.50177 -1.32476e-19)
(0.556316 1.46619 0)
(0.602534 2.43502 2.21269e-19)
(0.666788 2.43024 3.45882e-19)
(0.420092 2.5232 9.49496e-20)
(0.397683 2.54918 -6.55244e-19)
(0.501433 2.49143 5.85637e-19)
(0.559661 2.47572 0)
(0.49276 2.53036 -5.69317e-19)
(0.261772 2.59952 1.19413e-18)
(0.366996 2.56805 -6.54034e-20)
(0.290304 2.66076 -1.66152e-18)
(0.963842 2.39467 7.31211e-19)
(0.846302 2.3931 0)
(1.01136 0.00118196 2.62643e-20)
(1.0152 -0.00535271 -2.14341e-20)
(1.01762 -0.00414435 -3.91958e-19)
(1.01543 -0.00120369 3.90615e-19)
(1.01294 0.00165385 0)
(0.620106 1.29296 0)
(0.655202 1.18002 0)
(0.765077 1.10189 0)
(0.641966 1.14051 0)
(1.19603 2.63952 5.01997e-20)
(1.08723 2.38659 0)
(0.824994 2.20323 3.71085e-21)
(0.824824 2.45555 0)
(0.917764 2.54378 -4.53194e-19)
(0.949542 2.49407 3.02845e-19)
(0.809287 0.140978 0)
(0.771327 0.133351 1.65181e-19)
(0.920101 0.147766 9.56022e-19)
(0.839427 0.125343 -3.59631e-19)
(0.803237 0.0840754 -1.09687e-18)
(1.08174 0.226442 -9.03353e-19)
(0.989187 0.285872 -7.55185e-21)
(0.926167 0.326306 8.69627e-19)
(1.01709 0.237366 7.30426e-19)
(0.935998 0.185758 -1.26967e-18)
(0.898704 0.19892 1.58867e-19)
(0.94109 0.291836 -3.34392e-19)
(0.912484 0.202249 0)
(1.00033 0.189696 6.22939e-19)
(1.05423 0.201414 0)
(1.049 0.210252 0)
(1.12138 0.116178 2.84741e-19)
(1.06279 0.177265 -1.03302e-20)
(1.07492 0.229192 -1.61978e-19)
(1.11285 0.197609 0)
(1.02361 0.0463129 6.21013e-19)
(1.03893 0.0600815 7.73542e-19)
(1.03293 0.04404 -6.15766e-19)
(1.04068 0.065198 -5.18911e-19)
(1.0151 0.0709054 -7.81791e-19)
(0.990942 0.157536 0)
(0.993454 0.101817 0)
(0.963993 0.063416 -5.03791e-19)
(0.912862 0.0933127 1.99437e-19)
(1.0361 0.108995 7.18848e-19)
(1.07339 0.127202 -8.33351e-19)
(1.06456 0.165846 7.4785e-19)
(1.03436 0.144658 0)
(1.08275 0.113446 0)
(1.05684 0.104125 -3.39628e-19)
(1.04412 0.102424 -5.85214e-19)
(0.58624 1.10962 1.22785e-19)
(0.624586 1.44098 -2.88773e-20)
(1.14682 2.73598 -2.55331e-19)
(1.19956 3.11655 4.34087e-21)
(1.25512 2.74141 -1.58135e-19)
(1.29702 2.71313 3.19082e-20)
(1.27255 2.33431 -3.69197e-20)
(1.18731 3.02236 -8.12857e-20)
(1.20587 2.97912 2.35592e-19)
(1.18183 3.27055 -1.20138e-19)
(1.40181 2.98641 1.48652e-19)
(1.41393 2.92509 0)
(0.550084 0.852521 -4.88486e-20)
(0.236795 1.22802 4.99081e-19)
(0.49565 0.460072 6.05641e-19)
(0.36982 0.222809 6.94858e-19)
(0.546717 0.376584 7.1914e-19)
(0.557272 0.474741 -1.1547e-18)
(0.557841 0.472348 9.45918e-19)
(0.511407 0.405337 -3.66134e-19)
(0.444033 0.336584 8.28906e-19)
(0.765074 0.235779 -3.64646e-19)
(0.726292 0.27683 0)
(0.698085 0.204723 1.0689e-20)
(0.732856 0.514378 3.88943e-19)
(0.690406 0.48457 -1.41409e-18)
(0.652673 0.469695 2.29768e-20)
(0.647615 0.443605 0)
(0.68719 0.73753 3.89756e-19)
(0.801931 0.790073 4.43581e-19)
(0.730582 0.839357 -5.14617e-19)
(0.869059 0.808489 -1.65637e-19)
(0.906665 0.853323 -4.20998e-20)
(0.914363 0.859916 4.31735e-20)
(0.862612 0.670977 -7.05409e-19)
(0.928827 0.721611 1.54058e-19)
(0.979564 0.725183 0)
(0.978784 0.70198 -2.02287e-19)
(1.03156 0.310639 2.31078e-19)
(1.1469 0.31329 2.89766e-19)
(1.06637 0.265369 3.70027e-19)
(0.989041 0.35836 -4.53783e-19)
(1.02817 0.465867 0)
(1.11591 0.412243 0)
(0.888186 0.398211 8.35708e-21)
(0.845474 0.287788 0)
(0.871723 0.274016 4.13696e-19)
(0.910594 0.323875 1.01249e-20)
(0.954578 0.45602 2.12799e-18)
(0.879063 0.527629 5.41956e-19)
(0.90412 0.472783 -5.87703e-19)
(0.820489 0.450666 6.22611e-19)
(0.806801 0.431077 3.77824e-19)
(0.794089 0.401232 -3.70455e-19)
(1.02797 -0.000664657 6.48107e-19)
(1.02027 0.000272319 0)
(1.01892 0.00113254 4.22874e-19)
(1.02255 -0.00104202 -9.57326e-19)
(1.02242 0.00424446 4.66064e-19)
(1.02011 0.0111587 -9.75361e-19)
(1.021 0.010911 0)
(1.01998 0.0117153 -2.03136e-19)
(1.01637 0.00754127 5.09035e-19)
(1.01673 0.0106604 -2.55976e-19)
(1.01744 0.0102393 1.87505e-19)
(0.030544 1.32054 0)
(0.0364468 1.34647 0)
(0.0433773 1.32871 0)
(0.0409352 1.28916 0)
(0.0777597 1.35756 5.25555e-20)
(0.09114 1.33239 -3.8775e-20)
(0.0502203 1.53128 -1.94376e-20)
(0.107844 1.368 -4.14193e-20)
(0.0408486 1.4564 -1.62637e-20)
(0.0443509 1.45307 1.24307e-20)
(0.0691246 1.35916 -3.75337e-20)
(0.0586611 1.36394 1.88582e-20)
(0.0477782 1.3419 3.04829e-21)
(0.0379972 1.36048 -1.12845e-21)
(0.108959 2.38928 -1.39581e-19)
(0.0987376 2.43251 0)
(0.15325 2.037 1.14887e-19)
(0.121609 1.71197 5.2987e-20)
(0.222848 2.02558 -9.84396e-20)
(0.202402 2.43945 0)
(0.251754 2.38718 -6.44155e-19)
(0.303241 2.3846 4.57551e-19)
(0.255766 1.99794 -2.5832e-19)
(0.141932 2.16234 1.75105e-19)
(0.115836 2.27243 0)
(0.0224973 1.86514 -5.15741e-20)
(-0.00836519 2.40597 -9.11007e-20)
(0.000621977 2.15066 0)
(0.00787525 2.46426 -1.46946e-20)
(0.0247448 2.30812 3.51414e-20)
(0.0181809 1.40258 -2.13151e-21)
(0.0110265 1.38718 3.42391e-20)
(0.0110939 1.39181 -1.41557e-20)
(0.0199128 1.39061 -5.82414e-21)
(0.023902 1.42019 0)
(0.00742342 1.3744 0)
(-0.00614709 1.28898 -8.74311e-21)
(-0.00972317 1.35813 1.35056e-21)
(0.00439415 1.36271 0)
(0.001333 1.29397 -1.35638e-20)
(-0.00234107 1.21619 2.17069e-20)
(1.04171 0.0137188 0)
(1.04806 0.00931335 -6.78117e-20)
(1.03897 0.0226553 -4.89772e-19)
(1.04913 0.021605 0)
(1.05376 0.0208231 0)
(1.0363 0.0117267 -6.69039e-21)
(1.03039 0.0120114 7.85266e-19)
(1.03201 0.016229 9.55138e-19)
(1.02585 0.0200788 0)
(1.0225 0.020598 0)
(1.03554 0.0244602 4.88256e-19)
(1.02597 0.0263875 0)
(1.02388 0.0266886 0)
(-0.0329166 2.03737 0)
(-2.0173e-05 1.6483 -7.58098e-21)
(-0.00966413 1.77221 -3.13699e-20)
(-0.00793654 1.36364 0)
(-0.0148678 1.5526 3.92924e-21)
(-0.00924599 1.44525 -4.88173e-21)
(-0.00235815 1.36986 0)
(0.404652 1.66342 0)
(0.355937 1.29995 -7.06553e-20)
(0.279523 1.34484 0)
(0.422924 1.30559 1.20013e-20)
(0.463656 1.46006 0)
(0.446655 1.40463 1.7932e-20)
(1.03902 2.68707 -1.56744e-20)
(0.97944 2.41603 -9.188e-19)
(0.937725 2.20541 1.04643e-18)
(0.861482 2.38621 2.44003e-19)
(0.852967 2.50389 0)
(0.920619 2.50164 0)
(0.947645 2.3879 0)
(0.924657 2.37502 -9.4796e-19)
(0.694288 2.47521 -3.9537e-19)
(0.802472 2.45903 -1.01782e-19)
(0.810517 2.43741 7.69135e-20)
(0.703209 2.40435 0)
(0.807373 2.39805 0)
(0.769568 2.41308 -3.7225e-19)
(0.768209 2.48262 0)
(0.600811 1.07172 0)
(0.515504 0.896341 -5.59403e-19)
(0.518861 0.961121 -3.25586e-20)
(0.500601 1.0958 0)
(0.487866 1.00954 8.5735e-19)
(0.763367 0.875326 -1.45712e-19)
(0.775856 1.01295 0)
(0.753173 0.991351 2.07293e-19)
(0.640127 1.02104 0)
(0.634599 0.937058 0)
(1.16402 2.76947 -2.32423e-19)
(1.13918 2.82853 -9.78796e-20)
(0.926797 2.35887 8.76024e-20)
(0.902862 2.3371 -7.98851e-20)
(1.13289 2.74679 0)
(1.08464 2.71544 9.60452e-20)
(1.10012 2.50586 -3.0943e-19)
(0.99922 2.25765 -2.83557e-20)
(0.499492 1.35678 0)
(0.516073 1.09254 -1.08207e-19)
(0.577001 1.17564 0)
(0.859262 0.210436 0)
(0.790596 0.160207 0)
(0.734097 0.136667 0)
(0.859767 0.20937 -6.35094e-19)
(0.776998 0.204312 3.81182e-19)
(0.927366 0.0781885 -4.13026e-19)
(0.944331 0.127112 0)
(0.919898 0.136434 1.77568e-19)
(0.862072 0.0995114 7.12107e-19)
(0.826537 0.0689405 -4.45736e-19)
(1.10305 3.36428 -6.76432e-19)
(1.16783 3.28683 0)
(1.12285 3.44944 -1.57388e-18)
(0.662075 3.59481 1.31086e-18)
(1.03385 3.09032 1.1755e-19)
(0.52171 0.832954 5.76794e-19)
(0.509422 0.801922 0)
(0.382621 0.489607 -1.52204e-19)
(0.467809 0.676036 8.77346e-19)
(0.522525 0.466196 -2.10862e-19)
(0.512277 0.510874 2.39838e-19)
(0.68835 0.548494 5.01029e-19)
(0.714621 0.576426 0)
(0.645209 0.612223 0)
(0.615851 0.56265 0)
(0.989604 0.61231 1.08384e-19)
(0.93479 0.571147 -5.24181e-19)
(0.955965 0.60085 3.90883e-19)
(1.01519 0.524694 -3.96202e-19)
(1.05644 0.497528 0)
(1.06074 0.593366 -1.02433e-19)
(0.850716 0.391547 -8.5064e-19)
(0.846373 0.384894 -1.08136e-18)
(0.806566 0.381897 6.68443e-19)
(0.804833 0.343863 -6.87347e-19)
(0.843066 0.298386 -5.3632e-19)
(0.803461 0.300036 6.59179e-19)
(1.02651 0.00613042 -4.88102e-19)
(1.02617 0.00623885 9.83989e-19)
(1.02979 0.000404543 6.28583e-19)
(1.0337 0.000996328 -7.5484e-19)
(1.03361 0.0105691 0)
(1.02982 0.0108227 -1.228e-18)
(0.0864004 1.66399 1.82631e-20)
(0.0476338 1.59051 0)
(0.0956604 1.7143 1.21178e-19)
(0.108566 1.69036 -1.10669e-19)
(0.0327974 1.52604 3.64726e-20)
(0.0292387 1.51487 0)
(0.00498073 1.69092 0)
(-0.00679964 1.49759 -8.00741e-22)
(-0.00615823 1.43141 7.20107e-22)
(-0.0115226 1.54591 7.55442e-22)
(-0.00602293 1.89698 -4.27297e-21)
(-0.0245463 1.94485 4.72725e-21)
(0.489575 1.37855 -2.90689e-19)
(0.492611 1.37534 3.16891e-19)
(0.43639 1.2966 -3.61459e-20)
(0.422318 1.30005 9.64161e-21)
(0.610884 1.30246 0)
(0.544183 1.39375 9.00254e-20)
(0.544706 1.39652 -8.75973e-20)
(0.469183 1.27595 3.44995e-20)
(0.507623 1.23912 0)
(0.574173 1.20739 0)
(0.668483 2.43746 5.82731e-19)
(0.662744 2.4611 1.33438e-18)
(0.719642 2.47587 -9.16641e-19)
(0.619733 2.44813 -2.0808e-19)
(0.554307 2.5461 2.83172e-19)
(0.495019 2.50713 -7.30006e-19)
(0.988268 2.39321 -5.89655e-19)
(1.02273 2.41247 0)
(0.943904 2.19004 -6.51404e-19)
(1.05482 2.69602 0)
(1.05394 2.67823 0)
(0.618326 2.31644 2.55748e-20)
(1.1239 3.0833 8.75117e-20)
(1.00706 2.98588 -1.44742e-19)
(0.337158 0.871924 0)
(0.357453 0.781051 -3.06907e-19)
(0.545463 0.706791 -3.12463e-19)
(0.385852 2.16405 0)
(0.412222 2.75215 -8.26789e-20)
(0.423896 2.49228 0)
(0.694757 0.701379 -8.31981e-19)
(0.757173 0.694239 1.16928e-18)
(0.765156 0.656004 -1.16488e-18)
(0.68319 0.661446 -1.0647e-19)
(0.737937 0.61704 -4.43959e-19)
(0.979652 2.77091 -6.62888e-20)
(1.0165 2.77318 -2.15929e-19)
(0.57249 2.24545 4.07831e-19)
(0.618211 1.76058 -3.28544e-19)
(0.714951 1.87884 -5.02063e-19)
(0.983018 2.41238 -1.38287e-19)
(0.98099 2.36912 3.71613e-19)
(0.663359 1.80242 3.35175e-20)
(0.469013 1.32619 1.79006e-19)
)
;

boundaryField
{
    wall-4
    {
        type            noSlip;
    }
    velocity-inlet-5
    {
        type            fixedValue;
        value           uniform (1 0 0);
    }
    velocity-inlet-6
    {
        type            fixedValue;
        value           uniform (0 3 0);
    }
    pressure-outlet-7
    {
        type            zeroGradient;
    }
    wall-8
    {
        type            noSlip;
    }
    frontAndBackPlanes
    {
        type            empty;
    }
}


// ************************************************************************* //
