/*--------------------------------*- C++ -*----------------------------------*\
  =========                 |
  \\      /  F ield         | OpenFOAM: The Open Source CFD Toolbox
   \\    /   O peration     | Website:  https://openfoam.org
    \\  /    A nd           | Version:  6
     \\/     M anipulation  |
\*---------------------------------------------------------------------------*/
FoamFile
{
    version     2.0;
    format      ascii;
    class       surfaceScalarField;
    location    "5.5";
    object      phi;
}
// * * * * * * * * * * * * * * * * * * * * * * * * * * * * * * * * * * * * * //

dimensions      [1 0 -1 0 0 0 0];

internalField   nonuniform List<scalar> 
10325
(
0.00840002
3.63476e-10
0.00840002
2.2704e-09
0.00840001
6.89848e-09
0.00839999
1.82895e-08
0.00839994
4.13481e-08
0.00839983
9.72026e-08
0.00839961
2.05311e-07
0.00839903
4.95624e-07
0.00839797
1.02034e-06
0.00839472
2.83892e-06
0.00838752
6.8117e-06
0.0083649
2.25362e-05
0.00826943
9.05123e-05
0.00778535
0.000475307
0.00714332
0.000638377
0.0064597
0.000682158
0.00578835
0.000670691
0.00511529
0.000672539
0.00445641
0.000658358
0.0037729
0.000682944
0.00305066
0.000721655
0.00230399
0.000746098
0.00154578
0.000757654
0.000774496
0.000770774
0.000774002
0.00840002
7.60157e-10
0.00840002
4.75374e-09
0.00840001
1.43904e-08
0.00839999
3.82635e-08
0.00839994
8.63384e-08
0.00839982
2.04272e-07
0.00839958
4.3046e-07
0.00839893
1.05351e-06
0.00839776
2.1463e-06
0.00839408
6.12035e-06
0.00838574
1.47552e-05
0.00835841
4.97345e-05
0.00824281
0.000201243
0.00770285
0.00100604
0.00709009
0.00124811
0.00646769
0.00130302
0.00583297
0.00130469
0.00517795
0.00132696
0.00450033
0.00133543
0.00379387
0.00138882
0.00306322
0.00145174
0.00230956
0.00149917
0.00154715
0.00151953
0.000779932
0.00153749
0.00155344
0.00840002
1.19035e-09
0.00840002
7.44265e-09
0.00840001
2.25074e-08
0.00839998
5.99213e-08
0.00839993
1.35236e-07
0.0083998
3.20953e-07
0.00839954
6.76699e-07
0.00839884
1.66609e-06
0.00839755
3.38605e-06
0.00839353
9.74622e-06
0.00838433
2.35646e-05
0.00835389
8.00098e-05
0.00823032
0.000320018
0.00768269
0.00154433
0.00706498
0.00186285
0.00646205
0.00190452
0.00585244
0.00191362
0.00521792
0.00196087
0.00454226
0.00201055
0.00382972
0.00210078
0.00309069
0.00219018
0.00233115
0.00225814
0.00155102
0.00229913
0.000768978
0.00231904
0.00232194
0.00840002
1.6421e-09
0.00840002
1.02663e-08
0.00840001
3.10269e-08
0.00839998
8.26599e-08
0.00839993
1.86591e-07
0.00839979
4.43494e-07
0.00839952
9.35602e-07
0.00839879
2.30763e-06
0.00839743
4.69432e-06
0.00839327
1.35127e-05
0.00838367
3.27572e-05
0.00835197
0.00011155
0.00822972
0.000437538
0.00768407
0.00208064
0.00706502
0.00247875
0.00647679
0.00249127
0.00588819
0.00250157
0.00527241
0.00257614
0.00460895
0.00267344
0.00390357
0.00280574
0.00315797
0.00293534
0.00238848
0.0030271
0.00159673
0.00309034
0.000789271
0.00312601
0.00311074
0.00840002
2.09832e-09
0.00840002
1.31185e-08
0.00840001
3.96399e-08
0.00839998
1.05625e-07
0.00839993
2.38381e-07
0.00839979
5.66979e-07
0.00839951
1.19535e-06
0.00839877
2.96318e-06
0.00839747
5.94318e-06
0.00839312
1.74678e-05
0.00838386
4.16096e-05
0.00835136
0.000143875
0.008236
0.000548266
0.00770027
0.00260695
0.00708356
0.00309225
0.00650493
0.00306856
0.00593774
0.00306811
0.00534727
0.00316594
0.00470302
0.00331701
0.00400509
0.00350277
0.00327219
0.00366765
0.0024909
0.00380804
0.00167512
0.00390584
0.000839112
0.00396155
0.00394938
0.00840002
2.55163e-09
0.00840002
1.59771e-08
0.00840001
4.82647e-08
0.00839998
1.28782e-07
0.00839993
2.90233e-07
0.00839979
6.9256e-07
0.00839951
1.45804e-06
0.00839882
3.5634e-06
0.00839705
7.66533e-06
0.00839431
1.98124e-05
0.00838009
5.54009e-05
0.00837135
0.000152512
0.00824885
0.00066629
0.00773922
0.00310681
0.00711545
0.0037119
0.00655603
0.00362734
0.00601844
0.0036059
0.00545469
0.00372963
0.00483435
0.0039374
0.00415692
0.00417998
0.00342704
0.00439663
0.00265118
0.00458275
0.0018115
0.00474472
0.000917194
0.0048556
0.00486629
0.00840002
3.04156e-09
0.00840002
1.90426e-08
0.00840001
5.75307e-08
0.00839998
1.5347e-07
0.00839992
3.45891e-07
0.00839977
8.24866e-07
0.00839948
1.73675e-06
0.00839873
4.23247e-06
0.00839717
9.13332e-06
0.0083932
2.3414e-05
0.00838284
6.51883e-05
0.00835697
0.000177557
0.00826249
0.000755627
0.00777681
0.00358316
0.00712353
0.00436005
0.00663887
0.00411115
0.00613723
0.00410736
0.00560677
0.00426013
0.00501053
0.00453297
0.00436073
0.00482979
0.00365277
0.00510489
0.00287048
0.00536527
0.00200827
0.00560646
0.00104726
0.00581563
0.00591283
0.00840002
3.57602e-09
0.00840002
2.23814e-08
0.00840001
6.76273e-08
0.00839998
1.80317e-07
0.00839991
4.06544e-07
0.00839975
9.67995e-07
0.00839943
2.03907e-06
0.00839864
4.94249e-06
0.00839698
1.07032e-05
0.00839289
2.71323e-05
0.0083829
7.45962e-05
0.00835402
0.000205634
0.00827916
0.000825638
0.00785594
0.0039968
0.00727621
0.00493446
0.00676797
0.00461936
0.00629179
0.00458388
0.00579674
0.00475525
0.00524676
0.00508269
0.0046362
0.0054393
0.00396127
0.00577871
0.00320951
0.00611619
0.00232982
0.00648607
0.0012707
0.00687526
0.00718332
0.00840002
4.16064e-09
0.00840002
2.60071e-08
0.00840001
7.86808e-08
0.00839997
2.09298e-07
0.0083999
4.72646e-07
0.00839974
1.11828e-06
0.0083994
2.36023e-06
0.00839855
5.71126e-06
0.00839737
1.18151e-05
0.00839176
3.23265e-05
0.00838915
7.68522e-05
0.00834012
0.00025333
0.00829519
0.000866851
0.00792583
0.00435642
0.00739184
0.00546338
0.00692303
0.00508677
0.00647879
0.00502791
0.00602923
0.00520474
0.00553376
0.0055782
0.00498705
0.00598664
0.00439532
0.00637078
0.003719
0.00679215
0.00287039
0.00733355
0.00173941
0.00800527
0.00892258
0.00840002
4.83182e-09
0.00840002
3.02001e-08
0.0084
9.1372e-08
0.00839997
2.43027e-07
0.00839989
5.48926e-07
0.00839969
1.29789e-06
0.00839929
2.74008e-06
0.00839832
6.59742e-06
0.00839632
1.37408e-05
0.00839138
3.68323e-05
0.00837984
8.80125e-05
0.00834861
0.000283097
0.0082687
0.000943459
0.00788856
0.00472646
0.00752975
0.00581893
0.00709376
0.00552337
0.00671209
0.00540892
0.00628531
0.00563052
0.00589689
0.00596507
0.00547513
0.00640761
0.00500116
0.00684487
0.00443686
0.00735703
0.00374771
0.00802326
0.00278793
0.00896475
0.01171
0.00840002
5.60472e-09
0.00840002
3.50294e-08
0.0084
1.05897e-07
0.00839996
2.81921e-07
0.00839987
6.36854e-07
0.00839964
1.50874e-06
0.00839917
3.18608e-06
0.008398
7.67851e-06
0.00839562
1.60304e-05
0.00838944
4.25523e-05
0.0083747
0.000102297
0.00833583
0.000320529
0.00823557
0.00103962
0.00777738
0.00517448
0.00764892
0.00594237
0.00724278
0.00592955
0.00690704
0.00574565
0.00661491
0.00592259
0.00632807
0.00625127
0.00606376
0.00667076
0.00573981
0.00716724
0.00539568
0.00770001
0.00520532
0.00821314
0.00555249
0.00861736
0.00818293
0.0090792
0.00840002
6.3899e-09
0.00840002
3.994e-08
0.0084
1.20629e-07
0.00839996
3.21605e-07
0.00839986
7.2682e-07
0.00839963
1.72724e-06
0.00839914
3.65039e-06
0.00839789
8.82217e-06
0.00839537
1.84534e-05
0.00838892
4.85036e-05
0.00837317
0.0001175
0.00833577
0.000356389
0.00826041
0.00111101
0.00793388
0.00548922
0.00762861
0.00624619
0.00737245
0.00618309
0.00716159
0.00595732
0.00696349
0.00612146
0.00676111
0.00645423
0.00657762
0.0068545
0.00645523
0.00728936
0.00646715
0.0076877
0.00669999
0.00797997
0.00733509
0.00798198
0.00732852
0.00818907
0.00840002
7.04866e-09
0.00840002
4.40272e-08
0.00840001
1.32575e-07
0.00839997
3.54403e-07
0.00839989
8.01496e-07
0.00839968
1.9146e-06
0.00839925
4.05569e-06
0.00839813
9.83222e-06
0.00839581
2.06388e-05
0.00839152
5.2268e-05
0.00837306
0.000135257
0.00835848
0.000369509
0.00832478
0.0011404
0.00819823
0.00560184
0.00787913
0.00656603
0.00767303
0.0063885
0.00747441
0.0061563
0.00731555
0.00628038
0.00717967
0.00659007
0.00710347
0.00693062
0.00715423
0.00723838
0.00736473
0.00747665
0.00772333
0.00762098
0.00824721
0.0074578
0.00690101
0.00867426
0.00840003
7.05537e-09
0.00840002
4.40142e-08
0.00840002
1.3271e-07
0.00840002
3.53963e-07
0.00840002
7.99769e-07
0.00840001
1.90441e-06
0.00840004
3.996e-06
0.00839992
9.84152e-06
0.00840146
1.90046e-05
0.00839629
5.68473e-05
0.00841981
0.000111254
0.00836575
0.000421674
0.00842992
0.00107313
0.00878465
0.00523101
0.00841774
0.00693545
0.00808864
0.00671926
0.00784642
0.0063989
0.00771754
0.00640939
0.00765804
0.00664941
0.00766637
0.00692269
0.00776501
0.00714006
0.00800323
0.0072385
0.00835443
0.00726924
0.0087744
0.00703708
0.00658626
0.00908842
0.00840003
6.55029e-09
0.00840003
4.08967e-08
0.00840004
1.23372e-07
0.00840006
3.28944e-07
0.00840011
7.43619e-07
0.00840023
1.76559e-06
0.00840048
3.72195e-06
0.00840126
8.94991e-06
0.00840182
1.83194e-05
0.00840834
4.97578e-05
0.00841961
9.94348e-05
0.0084866
0.000352642
0.00868031
0.000876564
0.0100877
0.00380496
0.00939068
0.00763573
0.00870495
0.00740743
0.00835569
0.00674935
0.00817842
0.00658637
0.0081334
0.00669365
0.00818589
0.00686929
0.00830984
0.00701591
0.00852445
0.00702384
0.00882115
0.00697271
0.00914036
0.0067176
0.00630528
0.0094208
0.00840003
5.68577e-09
0.00840003
3.55229e-08
0.00840005
1.07582e-07
0.00840009
2.85722e-07
0.00840018
6.47657e-07
0.00840041
1.51878e-06
0.00840087
3.23783e-06
0.00840224
7.50428e-06
0.00840452
1.5931e-05
0.00841606
3.78175e-05
0.00842644
8.8582e-05
0.00854143
0.000236014
0.00879645
0.000621374
0.0102917
0.00230027
0.00999626
0.00792551
0.00963636
0.00776659
0.00897905
0.00740799
0.00868581
0.0068802
0.00858664
0.00679295
0.00862071
0.00683477
0.00874642
0.00688921
0.00893665
0.00683264
0.00918901
0.00671961
0.00943624
0.00646992
0.00608255
0.00965814
0.00840003
4.95623e-09
0.00840003
3.09689e-08
0.00840005
9.37888e-08
0.00840008
2.49036e-07
0.00840016
5.63464e-07
0.00840034
1.3223e-06
0.00840076
2.80053e-06
0.00840166
6.53572e-06
0.00840389
1.3616e-05
0.00840837
3.29885e-05
0.00842182
7.47253e-05
0.0084638
0.000192413
0.00852443
0.000561698
0.00895021
0.00186775
0.00981204
0.00704997
0.00974041
0.00783393
0.0094235
0.00772343
0.00913543
0.00716876
0.00900912
0.00691906
0.00900695
0.00683657
0.00910425
0.00679151
0.00926016
0.00667606
0.0094732
0.00650541
0.00968214
0.00626008
0.00591147
0.00985199
0.00840003
4.3931e-09
0.00840003
2.74287e-08
0.00840004
8.29832e-08
0.00840007
2.20485e-07
0.00840013
4.98895e-07
0.00840027
1.173e-06
0.00840057
2.4798e-06
0.00840123
5.8154e-06
0.00840281
1.19746e-05
0.00840518
3.03224e-05
0.00841866
6.08331e-05
0.00842383
0.000185991
0.00853614
0.000447639
0.00875573
0.00164489
0.00961357
0.00617673
0.00965058
0.00779492
0.00958886
0.00778451
0.00941601
0.00734235
0.0093296
0.00700556
0.00932948
0.00683584
0.00940075
0.00671931
0.00951285
0.00656337
0.00967518
0.006342
0.00985367
0.00608044
0.00576179
0.0100022
0.00840003
3.84884e-09
0.00840003
2.40151e-08
0.00840004
7.24608e-08
0.00840007
1.92952e-07
0.00840013
4.36737e-07
0.00840026
1.0313e-06
0.00840054
2.18444e-06
0.00840117
5.14038e-06
0.00840247
1.06146e-05
0.00840555
2.6975e-05
0.00841355
5.25498e-05
0.00843605
0.000162348
0.00849926
0.000382811
0.00873817
0.00140263
0.0103429
0.00455446
0.0101295
0.00800643
0.00996623
0.00794664
0.00973264
0.00757747
0.00965647
0.00708214
0.00965825
0.00683437
0.00971217
0.00666426
0.00978716
0.006487
0.0098791
0.00624841
0.00999792
0.00595982
0.00563774
0.0101207
0.00840003
3.07412e-09
0.00840003
1.92008e-08
0.00840005
5.82074e-08
0.00840009
1.54356e-07
0.00840017
3.49509e-07
0.00840038
8.1706e-07
0.00840083
1.73066e-06
0.00840194
3.99821e-06
0.00840423
8.27771e-06
0.00841106
1.99133e-05
0.00842285
4.11727e-05
0.00847871
0.000105263
0.00859485
0.000268986
0.00923945
0.000749363
0.0114251
0.00236763
0.0111266
0.00829636
0.0108281
0.00824221
0.0103638
0.00804041
0.010107
0.00733892
0.0100161
0.00692557
0.0100177
0.00666202
0.0100707
0.00643345
0.0101309
0.00618819
0.01019
0.00590012
0.00557193
0.0102547
0.00840003
2.44611e-09
0.00840003
1.52731e-08
0.00840005
4.63225e-08
0.00840008
1.22685e-07
0.00840015
2.77804e-07
0.00840031
6.47187e-07
0.00840066
1.37148e-06
0.00840149
3.14283e-06
0.00840322
6.51247e-06
0.0084075
1.54806e-05
0.00841752
3.09907e-05
0.00843764
8.43926e-05
0.00852752
0.000178392
0.00866436
0.000609766
0.00937859
0.00164838
0.0110765
0.00658416
0.0110856
0.00822949
0.010915
0.00820801
0.0105435
0.00770925
0.0103708
0.00709613
0.0103097
0.00672163
0.0103098
0.00643123
0.0103482
0.00614832
0.01039
0.0058568
0.00553518
0.0104253
0.00840003
1.95471e-09
0.00840003
1.22003e-08
0.00840004
3.69509e-08
0.00840007
9.79733e-08
0.00840012
2.21814e-07
0.00840025
5.18079e-07
0.00840051
1.09768e-06
0.00840111
2.52539e-06
0.00840237
5.21789e-06
0.00840532
1.24205e-05
0.0084112
2.498e-05
0.00842638
6.85961e-05
0.00847486
0.000129476
0.00860384
0.00047849
0.00909025
0.00115836
0.0111245
0.0045313
0.0112509
0.00809963
0.0112312
0.0082258
0.0110095
0.007929
0.0107442
0.00736044
0.0106157
0.00684938
0.0105636
0.00648246
0.0105528
0.00615823
0.0105653
0.00584302
0.00552011
0.0105789
0.00840003
1.50934e-09
0.00840003
9.42146e-09
0.00840004
2.85661e-08
0.00840006
7.56667e-08
0.00840011
1.71325e-07
0.00840023
3.99522e-07
0.00840047
8.47473e-07
0.00840104
1.94288e-06
0.00840219
4.04462e-06
0.00840512
9.41411e-06
0.00841027
1.9725e-05
0.00843217
4.64534e-05
0.00845027
0.000110371
0.00865794
0.000270483
0.00904311
0.000766055
0.0110963
0.00248326
0.0117026
0.00748184
0.0115988
0.00832133
0.0113728
0.00814873
0.0111141
0.00761818
0.0109753
0.00698748
0.0108865
0.00656931
0.0108356
0.00620854
0.0108056
0.00587204
0.00554242
0.0107823
0.00840003
1.14113e-09
0.00840003
7.10922e-09
0.00840004
2.16738e-08
0.00840006
5.70479e-08
0.0084001
1.30011e-07
0.0084002
3.00507e-07
0.00840041
6.4126e-07
0.00840091
1.45109e-06
0.00840192
3.02305e-06
0.00840432
6.98153e-06
0.0084095
1.42632e-05
0.00841945
3.58075e-05
0.008455
7.09514e-05
0.00852441
0.000209139
0.0087693
0.000505125
0.00944526
0.00181762
0.0114904
0.0054051
0.0117315
0.00807725
0.0117198
0.00816013
0.0115183
0.00781762
0.0112824
0.00722169
0.0111767
0.00667375
0.0111033
0.00628044
0.0110548
0.0059207
0.00557892
0.0110184
0.00840003
6.91347e-10
0.00840003
5.50919e-09
0.00840004
1.41171e-08
0.00840005
4.34281e-08
0.0084001
8.44127e-08
0.00840016
2.29002e-07
0.00840039
4.08841e-07
0.00840071
1.11563e-06
0.00840186
1.87127e-06
0.00840344
5.41063e-06
0.00840925
8.388e-06
0.00841742
2.74858e-05
0.00845549
3.63424e-05
0.00850418
0.000154592
0.00878881
0.000233611
0.00961716
0.00097285
0.0122868
0.00270573
0.0125027
0.00786718
0.0123433
0.00832264
0.0120128
0.00814751
0.0117218
0.00751036
0.011541
0.00685231
0.0114181
0.00640171
0.0113263
0.00601014
0.00565237
0.0112508
0.00840003
5.95733e-10
0.00840003
3.30272e-09
0.00840004
1.10464e-08
0.00840005
2.68346e-08
0.00840007
6.61066e-08
0.00840016
1.39981e-07
0.00840023
3.26455e-07
0.00840067
6.63798e-07
0.00840096
1.55596e-06
0.00840324
3.09429e-06
0.00840407
7.49967e-06
0.00841675
1.46395e-05
0.00841472
3.80535e-05
0.00849356
7.55776e-05
0.00851081
0.000213303
0.00891781
0.000561507
0.00979686
0.00181857
0.012157
0.00548906
0.0123772
0.00810003
0.0125375
0.00798565
0.0122454
0.0078017
0.0119527
0.00714802
0.0117669
0.00658791
0.0116402
0.00613686
0.00575883
0.011533
0.00840003
4.13842e-10
0.00840003
2.3138e-09
0.00840003
7.57119e-09
0.00840004
1.87561e-08
0.00840006
4.52326e-08
0.0084001
9.7899e-08
0.0084002
2.22473e-07
0.0084004
4.64712e-07
0.00840089
1.05131e-06
0.0084018
2.16531e-06
0.00840427
4.97393e-06
0.00840863
1.0168e-05
0.00842191
2.43601e-05
0.00844868
4.93854e-05
0.0085276
0.000131653
0.0087902
0.000300876
0.00962733
0.000973125
0.0124006
0.00268852
0.0128914
0.00760093
0.0127997
0.00807608
0.0126769
0.00792394
0.012352
0.00747405
0.0121453
0.00679728
0.0119761
0.00630659
0.00590004
0.0118344
0.00840003
2.76015e-10
0.00840003
1.55235e-09
0.00840003
5.05553e-09
0.00840004
1.25984e-08
0.00840005
3.01242e-08
0.00840009
6.54992e-08
0.00840016
1.4706e-07
0.00840031
3.08477e-07
0.00840066
6.8702e-07
0.00840139
1.42006e-06
0.00840309
3.218e-06
0.00840674
6.46368e-06
0.00841493
1.59099e-05
0.00843446
2.94255e-05
0.00847593
8.91319e-05
0.00860837
0.000166332
0.00895864
0.000618436
0.0101185
0.00152109
0.0125544
0.00514581
0.012848
0.00777693
0.0129773
0.00779531
0.0128265
0.00762814
0.0125343
0.00709317
0.0123171
0.00652804
0.00605816
0.0121615
0.00840003
2.06431e-10
0.00840003
9.73974e-10
0.00840003
3.62771e-09
0.00840004
8.02136e-09
0.00840004
2.16532e-08
0.00840007
4.18189e-08
0.00840011
1.07361e-07
0.00840022
1.97083e-07
0.00840038
5.14762e-07
0.00840089
9.06491e-07
0.00840159
2.48089e-06
0.00840391
4.1119e-06
0.00840725
1.24275e-05
0.00841874
1.77808e-05
0.00844083
6.62269e-05
0.00852468
8.2086e-05
0.00876588
0.000373691
0.00957597
0.000706354
0.0124733
0.00222662
0.0131963
0.00704762
0.0131212
0.00786761
0.0131166
0.00763102
0.0127993
0.00740963
0.012593
0.00673483
0.00622507
0.0124267
0.00840003
9.32805e-11
0.00840003
7.05345e-10
0.00840003
1.86795e-09
0.00840003
5.6009e-09
0.00840005
1.111e-08
0.00840006
2.90235e-08
0.00840011
5.28389e-08
0.00840017
1.36985e-07
0.00840045
2.35664e-07
0.00840071
6.3684e-07
0.00840216
1.02422e-06
0.00840319
3.03976e-06
0.00841137
4.21031e-06
0.00841292
1.59983e-05
0.00846227
1.67727e-05
0.00844895
9.43648e-05
0.00872071
0.000100715
0.00881071
0.000613961
0.00970179
0.00132857
0.0126288
0.00410666
0.0131344
0.00735619
0.0132301
0.00753105
0.0131998
0.00743577
0.0128979
0.00703247
0.00644327
0.0126754
0.00840003
6.9983e-11
0.00840003
3.89919e-10
0.00840003
1.30026e-09
0.00840003
3.16698e-09
0.00840004
7.72891e-09
0.00840005
1.63519e-08
0.00840006
3.75279e-08
0.00840012
7.61883e-08
0.00840018
1.74444e-07
0.00840047
3.47133e-07
0.00840067
8.10456e-07
0.00840212
1.58684e-06
0.00840243
3.83743e-06
0.008411
7.38714e-06
0.00840848
1.89935e-05
0.00846613
3.64671e-05
0.00846383
0.00010186
0.00885298
0.000222505
0.00948224
0.000696157
0.0117842
0.00179327
0.0133297
0.00579783
0.0133569
0.00749915
0.0134735
0.00731471
0.0133226
0.00717923
0.00669899
0.0130628
0.00840003
4.38281e-11
0.00840003
2.46785e-10
0.00840003
8.07044e-10
0.00840003
2.00202e-09
0.00840003
4.78471e-09
0.00840004
1.03233e-08
0.00840006
2.3093e-08
0.00840008
4.80064e-08
0.00840015
1.0622e-07
0.00840028
2.17937e-07
0.0084006
4.84947e-07
0.00840119
9.87123e-07
0.00840276
2.24751e-06
0.00840571
4.40349e-06
0.00841345
1.10601e-05
0.00843024
1.98512e-05
0.00846917
6.15426e-05
0.00858698
0.000105859
0.00887279
0.000405911
0.00972418
0.000938453
0.0124367
0.00305754
0.0134092
0.00651611
0.0133988
0.00732008
0.0134969
0.0070754
0.00680221
0.0133881
0.00840003
2.8142e-11
0.00840003
1.57967e-10
0.00840003
5.16804e-10
0.00840003
1.2809e-09
0.00840003
3.07228e-09
0.00840004
6.63017e-09
0.00840004
1.49297e-08
0.00840006
3.10515e-08
0.0084001
6.9401e-08
0.00840017
1.42466e-07
0.00840033
3.21305e-07
0.00840066
6.54422e-07
0.00840138
1.49953e-06
0.00840274
3.03204e-06
0.00840655
7.11996e-06
0.00841199
1.43215e-05
0.00843744
3.54342e-05
0.00846892
7.37322e-05
0.00867004
0.000201836
0.00911547
0.000491961
0.0105226
0.0016422
0.0129781
0.00403664
0.0135084
0.00677779
0.0135031
0.00707171
0.00677661
0.013517
0.00840003
1.76485e-11
0.00840003
9.92745e-11
0.00840003
3.24115e-10
0.00840003
8.05467e-10
0.00840003
1.92691e-09
0.00840003
4.17019e-09
0.00840004
9.36069e-09
0.00840005
1.9537e-08
0.00840008
4.34713e-08
0.00840013
8.96624e-08
0.00840025
2.00798e-07
0.00840049
4.11824e-07
0.00840104
9.30769e-07
0.00840215
1.91027e-06
0.00840485
4.34245e-06
0.00841019
8.93013e-06
0.00842464
2.05682e-05
0.00845459
4.35373e-05
0.00855374
0.000100724
0.00879677
0.000247681
0.00976626
0.000666305
0.0121417
0.00164663
0.0136886
0.00520406
0.0138268
0.00691182
0.0066947
0.0138848
0.00840003
1.13729e-11
0.00840003
5.84416e-11
0.00840003
2.03862e-10
0.00840003
4.78055e-10
0.00840003
1.20974e-09
0.00840003
2.48575e-09
0.00840004
5.90571e-09
0.00840004
1.16936e-08
0.00840006
2.77048e-08
0.0084001
5.38181e-08
0.00840017
1.30411e-07
0.00840033
2.45406e-07
0.00840064
6.23813e-07
0.00840144
1.10381e-06
0.00840272
3.04267e-06
0.0084069
4.75892e-06
0.00841201
1.52525e-05
0.008438
1.81721e-05
0.00845777
7.88153e-05
0.00863597
7.3525e-05
0.00886869
0.00042503
0.00978698
0.000724242
0.0128087
0.00214142
0.0138739
0.00581222
0.00630318
0.0142126
0.00840003
4.86799e-12
0.00840003
3.28517e-11
0.00840003
9.48192e-11
0.00840003
2.62276e-10
0.00840003
5.59869e-10
0.00840003
1.32775e-09
0.00840004
2.63065e-09
0.00840004
6.02276e-09
0.00840006
1.15656e-08
0.00840008
2.66463e-08
0.00840017
4.89432e-08
0.00840029
1.19998e-07
0.00840071
1.98383e-07
0.00840126
5.54821e-07
0.00840351
7.85002e-07
0.00840537
2.8446e-06
0.00841804
2.61018e-06
0.00841973
1.57894e-05
0.00849158
7.05325e-06
0.00846921
9.21366e-05
0.00883714
5.31852e-05
0.00903251
0.000518515
0.0102251
0.000920543
0.0133689
0.00260661
0.00537008
0.014184
0.00840003
2.355e-12
0.00840003
1.36103e-11
0.00840003
4.48517e-11
0.00840003
1.105e-10
0.00840003
2.59128e-10
0.00840003
5.44815e-10
0.00840003
1.16956e-09
0.00840004
2.34278e-09
0.00840004
4.86021e-09
0.00840006
9.61382e-09
0.00840009
1.92323e-08
0.00840017
3.85437e-08
0.00840029
7.25214e-08
0.00840069
1.48414e-07
0.00840123
2.59768e-07
0.00840357
3.85854e-07
0.00840415
1.59753e-06
0.00841797
1.50758e-06
0.00840803
1.50597e-05
0.00847432
2.11761e-05
0.00844729
7.59344e-05
0.00880134
0.000154253
0.00930464
0.000392283
0.0108699
0.000982456
0.0033113
0.0127639
0.00840003
1.06959e-12
0.00840003
5.42588e-12
0.00840003
1.95693e-11
0.00840003
4.46834e-11
0.00840003
1.11585e-10
0.00840003
2.15311e-10
0.00840003
4.96445e-10
0.00840003
8.71872e-10
0.00840004
2.0633e-09
0.00840004
3.01655e-09
0.00840005
8.84635e-09
0.00840008
6.8671e-09
0.00840011
3.76265e-08
0.00840028
-2.60219e-09
0.00840036
1.37138e-07
0.00840071
-8.9013e-08
0.00840312
2.99791e-07
0.00839316
4.50101e-07
0.00843025
5.84959e-06
0.00832401
-9.53317e-06
0.00842539
7.32004e-05
0.00866298
-8.26274e-05
0.00862681
0.000405689
0.00916732
0.0003738
0.00201909
0.0102565
0.00840003
3.28226e-13
0.00840003
2.69905e-12
0.00840003
6.84892e-12
0.00840003
2.12051e-11
0.00840003
3.88705e-11
0.00840003
1.03059e-10
0.00840003
1.60856e-10
0.00840003
4.48338e-10
0.00840003
5.21385e-10
0.00840003
2.16325e-09
0.00840004
5.92317e-10
0.00840003
1.16768e-08
0.00840007
-5.68938e-09
0.00839999
5.87505e-08
0.00840021
-4.49044e-08
0.00839975
2.10378e-07
0.0083994
-4.61116e-10
0.00840132
-3.66774e-07
0.00840708
-3.4028e-06
0.00838034
1.56139e-05
0.00849907
-3.35693e-05
0.00821298
0.00018559
0.00877605
-0.000180898
0.00851254
0.000599329
0.000339125
0.0100752
0.00840003
2.44546e-13
0.00840003
8.93581e-13
0.00840003
4.26284e-12
0.00840003
7.60398e-12
0.00840003
2.51667e-11
0.00840003
3.587e-11
0.00840003
1.21434e-10
0.00840003
1.16709e-10
0.00840003
6.14186e-10
0.00840003
5.7811e-12
0.00840003
3.51633e-09
0.00840004
-2.66367e-09
0.00840001
2.17375e-08
0.00840009
-2.01026e-08
0.00839989
1.31851e-07
0.00840008
-7.3248e-08
0.00839925
5.77128e-07
0.00840022
2.6496e-07
0.0083816
1.85356e-06
0.0084482
-8.99477e-06
0.00831172
4.27623e-05
0.00880234
-0.000122132
0.00809891
0.00031979
0.00885691
-0.000196679
0.000913421
0.00827377
0.00840003
1.61739e-14
0.00840003
6.16039e-13
0.00840003
6.71477e-13
0.00840003
4.60638e-12
0.00840003
2.21479e-12
0.00840003
2.14695e-11
0.00840003
-1.30301e-11
0.00840003
9.75127e-11
0.00840003
-2.84372e-10
0.00840003
5.96617e-10
0.00840004
-2.76444e-09
0.00840003
3.56061e-09
0.00840007
-2.06037e-08
0.00840003
2.02286e-08
0.00840026
-1.31752e-07
0.00840015
7.71249e-08
0.00840118
-5.85217e-07
0.00840227
-2.21162e-07
0.00840198
-2.19843e-06
0.00838347
8.07638e-06
0.00846613
-3.6063e-05
0.00816008
0.000143659
0.0087589
-0.000238837
0.00799454
0.000521617
-0.000123024
0.00891214
0.00840003
1.03666e-13
0.00840003
5.89005e-14
0.00840003
1.52592e-12
0.00840003
-4.43061e-14
0.00840003
7.29538e-12
0.00840003
-1.32089e-11
0.00840003
2.04493e-11
0.00840003
-1.67622e-10
0.00840003
3.00783e-11
0.00840003
-1.47751e-09
0.00840003
1.87214e-10
0.00840004
-1.11585e-08
0.00840001
2.84106e-09
0.0084001
-7.75411e-08
0.00839999
-1.84494e-08
0.00840039
-3.65747e-07
0.00840028
-5.36647e-07
0.00839886
-1.14271e-06
0.00841159
-4.16783e-06
0.0083597
-7.36466e-06
0.00837051
4.04667e-05
0.00820623
-0.000114014
0.00804609
0.000291266
0.00886534
-0.000299001
0.00067843
0.00794103
0.00840003
3.0053e-15
0.00840003
5.83176e-13
0.00840003
4.01825e-13
0.00840003
4.44515e-12
0.00840003
1.46371e-12
0.00840003
2.73162e-11
0.00840003
4.77895e-12
0.00840003
1.82491e-10
0.00840003
4.39612e-11
0.00840003
1.26766e-09
0.00840002
3.15665e-10
0.0084
9.92708e-09
0.00839999
9.24825e-10
0.00839981
7.75157e-08
0.00839957
4.73617e-08
0.00839907
3.90155e-07
0.00839774
7.42443e-07
0.0083946
1.3955e-06
0.00837536
5.49804e-06
0.00835955
9.60234e-06
0.008554
-3.6971e-05
0.00820851
0.00011924
0.00882192
-0.000355095
0.00807566
0.000406361
-0.000221711
0.00884085
0.00840003
8.20774e-14
0.00840003
4.21369e-13
0.00840003
1.46797e-12
0.00840003
3.42935e-12
0.00840003
9.79948e-12
0.00840003
2.09965e-11
0.00840003
6.16042e-11
0.00840003
1.29538e-10
0.00840003
3.96288e-10
0.00840003
8.16824e-10
0.00840003
2.51374e-09
0.00840003
5.19685e-09
0.00840002
1.53022e-08
0.00840006
2.97177e-08
0.0084
9.26389e-08
0.00840014
1.71655e-07
0.0084005
4.27845e-07
0.00839946
1.40776e-06
0.00840708
-2.7628e-07
0.00844001
1.56604e-07
0.00838776
-5.13344e-07
0.00852529
-1.50333e-05
0.00814888
1.95124e-05
0.00854829
-1.17972e-05
0.000163253
0.00803105
0.00840003
2.52359e-14
0.00840003
1.11573e-13
0.00840003
6.37454e-13
0.00840003
1.71672e-12
0.00840003
6.43883e-12
0.00840003
1.62446e-11
0.00840003
4.85045e-11
0.00840003
1.23178e-10
0.00840003
2.7368e-10
0.00840003
7.92793e-10
0.00840003
1.22365e-09
0.00840003
3.3051e-09
0.00840004
4.88024e-09
0.00840006
1.00284e-08
0.00840007
1.73638e-08
0.00840026
3.6115e-08
0.00840106
5.22915e-08
0.0083985
-2.71869e-08
0.00840299
9.17582e-07
0.00839894
8.65839e-07
0.00837601
-1.23975e-06
0.00836143
7.45237e-07
0.00833865
1.79528e-06
0.00827614
1.15857e-05
0.000113638
0.0081758
0.00840003
-2.67803e-14
0.00840003
-1.67603e-13
0.00840003
-7.44977e-13
0.00840003
-1.91836e-12
0.00840003
-6.23385e-12
0.00840003
-1.41686e-11
0.00840003
-4.09217e-11
0.00840003
-9.75741e-11
0.00840003
-1.98303e-10
0.00840003
-6.13762e-10
0.00840003
-7.00998e-10
0.00840004
-2.61946e-09
0.00840004
-2.41016e-09
0.00840005
-6.9957e-09
0.00840003
-7.97631e-09
0.00840013
-1.77915e-08
0.00839995
-1.37968e-08
0.00839785
-3.06172e-09
0.00840816
-6.37775e-07
0.00835932
-1.17453e-06
0.00839153
-9.28049e-07
0.00841212
-5.4386e-06
0.00836667
8.25033e-06
0.00835472
4.84051e-06
7.85276e-05
0.00818106
0.00840003
-1.30831e-13
0.00840003
-7.48407e-13
0.00840003
-2.24089e-12
0.00840003
-5.47792e-12
0.00840003
-1.1701e-11
0.00840003
-2.37909e-11
0.00840003
-5.49037e-11
0.00840003
-9.88054e-11
0.00840003
-3.75163e-10
0.00840003
-7.13586e-10
0.00840003
-2.66717e-09
0.00840003
-5.88642e-09
0.00840003
-1.34514e-08
0.00840007
-3.38549e-08
0.00840006
-6.00213e-08
0.00839994
-1.2741e-07
0.00840031
-3.02756e-07
0.00839643
-5.49469e-07
0.00840566
-1.41815e-06
0.00834981
-2.37621e-06
0.00838136
-2.94716e-06
0.00837878
1.17283e-06
0.00833277
-1.22725e-05
0.00830017
2.56605e-05
-2.69956e-05
0.00815791
0.00840003
-2.35549e-13
0.00840003
-1.17016e-12
0.00840003
-3.97065e-12
0.00840003
-9.59516e-12
0.00840003
-2.67336e-11
0.00840003
-6.06158e-11
0.00840003
-1.60011e-10
0.00840003
-3.66673e-10
0.00840003
-8.80129e-10
0.00840003
-1.99896e-09
0.00840003
-4.93974e-09
0.00840003
-1.06994e-08
0.00840007
-3.11174e-08
0.00840007
-6.80938e-08
0.0084002
-1.95671e-07
0.00840026
-4.49316e-07
0.00840158
-1.03537e-06
0.0083977
-2.64911e-06
0.00841435
-2.73366e-06
0.00837471
-1.57063e-05
0.00837755
1.52928e-05
0.00851225
-9.04798e-05
0.0081205
0.000301183
0.008432
-0.000334788
0.000298237
0.00786789
0.00840003
8.4398e-14
0.00840003
3.46838e-13
0.00840003
1.27088e-12
0.00840003
2.88034e-12
0.00840003
1.06912e-11
0.00840003
2.43721e-11
0.00840003
8.88616e-11
0.00840003
2.02383e-10
0.00840003
6.96118e-10
0.00840002
1.59727e-09
0.00840001
4.94931e-09
0.00839998
1.19902e-08
0.00839989
3.18613e-08
0.00839971
8.0014e-08
0.00839944
1.87404e-07
0.00839817
4.59948e-07
0.00840089
9.63948e-07
0.00838927
2.00638e-06
0.00841348
4.12758e-06
0.00834565
1.81096e-05
0.00846095
-1.10634e-05
0.00826507
0.000104567
0.00901205
-0.000389337
0.00795283
0.000326094
-0.000581992
0.00841211
0.00840003
0.00840003
0.00840003
0.00840003
0.00840003
0.00840003
0.00840003
0.00840003
0.00840003
0.00840003
0.00840003
0.00840004
0.00840006
0.00840012
0.00840019
0.00840056
0.00840141
0.00840064
0.00840747
0.00843669
0.00839165
0.00851835
0.00808143
0.00837282
0.00764961
0.00533762
0.00374122
0.0035151
0.00182194
0.00218942
0.00132511
0.00122247
0.000967007
-0.000116453
0.00133878
-0.000708022
0.000589496
-0.00123096
0.000520427
-0.00164289
0.00040952
-0.00194229
0.000297248
-0.002119
0.000174627
-0.00226009
0.000138565
-0.00241176
0.000149016
-0.00255886
0.000143977
-0.00269244
0.000129475
-0.00280572
0.000109372
-0.00289605
8.59375e-05
-0.00296707
6.66442e-05
-0.00303384
6.22073e-05
-0.0030976
5.92177e-05
-0.00315441
5.24792e-05
-0.00319921
4.16308e-05
-0.00323123
2.90468e-05
-0.00326482
2.90261e-05
-0.00329572
2.52287e-05
-0.00331743
1.61055e-05
-0.0033276
3.79673e-06
-0.00332651
-9.32019e-06
-0.00330908
-2.78155e-05
-0.00326683
-5.41081e-05
-0.00319458
-8.52048e-05
-0.00309296
-0.000115266
-0.00296655
-0.000139505
-0.00282167
-0.000158012
-0.00266111
-0.000172316
-0.00248787
-0.000184549
-0.00230261
-0.000196207
-0.00211071
-0.000201949
-0.00191567
-0.000205193
-0.00171639
-0.000208704
-0.00151477
-0.000210423
-0.00131049
-0.000212264
-0.00110015
-0.000218716
-0.000877602
-0.000230764
-0.000652511
-0.000233162
-0.000427182
-0.000233321
-0.000194094
-0.000240973
4.83636e-05
-0.000250594
0.000305363
-0.000265281
0.000538269
-0.000241195
0.000761123
-0.000231381
0.000976921
-0.000224629
0.0011855
-0.000217985
0.00138701
-0.000211675
0.00157956
-0.000203562
0.00176631
-0.000198015
0.00194895
-0.00019495
0.00212879
-0.000193716
0.00230012
-0.00018683
0.00246396
-0.000181057
0.00261875
-0.000174132
0.00276698
-0.000169087
0.00290692
-0.000163414
0.00304036
-0.000158813
0.00316617
-0.000154213
0.00328571