/*--------------------------------*- C++ -*----------------------------------*\
  =========                 |
  \\      /  F ield         | OpenFOAM: The Open Source CFD Toolbox
   \\    /   O peration     | Website:  https://openfoam.org
    \\  /    A nd           | Version:  6
     \\/     M anipulation  |
\*---------------------------------------------------------------------------*/
FoamFile
{
    version     2.0;
    format      ascii;
    class       volScalarField;
    location    "5.5";
    object      T;
}
// * * * * * * * * * * * * * * * * * * * * * * * * * * * * * * * * * * * * * //

dimensions      [0 0 0 1 0 0 0];

internalField   nonuniform List<scalar> 
5250
(
1.00006
1.00014
1.00041
1.00081
1.00232
1.00448
1.01226
1.0257
1.06259
1.15633
1.37345
1.96264
2.80293
2.75628
2.79989
2.75019
2.73153
2.75015
2.76194
2.7764
2.78396
2.78886
2.79329
2.79613
2.79795
1.00006
1.00014
1.00041
1.00081
1.00231
1.00446
1.01221
1.0256
1.06237
1.15568
1.37207
1.95813
2.8016
2.75664
2.79822
2.7484
2.73073
2.7491
2.76116
2.77456
2.78211
2.78616
2.79082
2.79349
2.79463
1.00006
1.00013
1.00041
1.0008
1.00229
1.00442
1.01211
1.02537
1.06188
1.15421
1.36899
1.94645
2.79872
2.75814
2.79258
2.74478
2.72889
2.74686
2.7595
2.77212
2.77941
2.78401
2.78672
2.79006
2.79125
1.00006
1.00013
1.0004
1.00079
1.00226
1.00436
1.01195
1.02501
1.06111
1.15184
1.36398
1.92677
2.7941
2.7605
2.78388
2.74013
2.72533
2.74294
2.75422
2.76786
2.77223
2.7786
2.78216
2.78254
2.78306
1.00005
1.00013
1.0004
1.00078
1.00222
1.00427
1.01173
1.0245
1.06003
1.14853
1.35694
1.89919
2.78727
2.76319
2.77204
2.7338
2.72076
2.73807
2.74886
2.75989
2.7665
2.76843
2.77296
2.77526
2.77538
1.00005
1.00013
1.00039
1.00076
1.00216
1.00417
1.01145
1.02384
1.05868
1.14417
1.34802
1.86263
2.7759
2.76679
2.76049
2.72358
2.71344
2.72918
2.74135
2.75004
2.75426
2.75919
2.7591
2.75904
2.75992
1.00005
1.00012
1.00037
1.00073
1.0021
1.00403
1.01113
1.02305
1.05701
1.13965
1.33558
1.83589
2.76554
2.76664
2.75087
2.71061
2.70244
2.71735
2.72846
2.73877
2.74169
2.74304
2.74582
2.74429
2.74127
1.00005
1.00012
1.00036
1.00071
1.00202
1.00387
1.01074
1.0221
1.05502
1.13437
1.32048
1.81014
2.74169
2.76276
2.74296
2.70287
2.69177
2.70252
2.71253
2.71957
2.72288
2.72265
2.71877
2.71667
2.71094
1.00005
1.00011
1.00034
1.00067
1.00193
1.00369
1.01028
1.02101
1.05262
1.12827
1.30287
1.77939
2.70718
2.75522
2.72627
2.69738
2.68239
2.69074
2.69415
2.7018
2.70151
2.69836
2.69213
2.67703
2.65953
1.00004
1.00011
1.00032
1.00063
1.00182
1.00348
1.00972
1.01978
1.04982
1.12065
1.28454
1.74165
2.65153
2.74379
2.70322
2.69289
2.67318
2.67698
2.6742
2.67356
2.67134
2.66435
2.64569
2.61762
2.5509
1.00004
1.0001
1.0003
1.00059
1.0017
1.00323
1.00907
1.01836
1.04652
1.11202
1.26339
1.69729
2.58446
2.72077
2.6799
2.67796
2.66501
2.66576
2.66357
2.65579
2.63614
2.62368
2.59319
2.52572
2.39209
1.00004
1.00009
1.00028
1.00054
1.00155
1.00295
1.00831
1.0167
1.04266
1.10197
1.23848
1.64192
2.49741
2.68553
2.67993
2.65943
2.64328
2.64309
2.64124
2.63254
2.61188
2.57258
2.53425
2.4664
2.32672
1.00003
1.00008
1.00025
1.00048
1.00139
1.00262
1.00744
1.01478
1.03823
1.09035
1.20958
1.57363
2.38135
2.6355
2.67391
2.65571
2.63242
2.62112
2.61606
2.60565
2.58485
2.54303
2.47856
2.42248
2.31003
1.00003
1.00007
1.00021
1.00041
1.0012
1.00225
1.00643
1.0126
1.03286
1.07795
1.17342
1.49533
2.24446
2.56607
2.66038
2.64487
2.62545
2.60224
2.58858
2.57327
2.55319
2.52418
2.45668
2.4083
2.31254
1.00002
1.00006
1.00018
1.00035
1.001
1.00189
1.0054
1.01044
1.02803
1.06223
1.1469
1.38886
2.03536
2.48846
2.63517
2.62286
2.61135
2.58742
2.56779
2.54502
2.51511
2.49108
2.43721
2.39412
2.32448
1.00002
1.00005
1.00015
1.00029
1.00083
1.00156
1.00445
1.0085
1.02332
1.04907
1.12309
1.29601
1.84287
2.39478
2.60081
2.57752
2.57484
2.56531
2.55021
2.53316
2.49474
2.46966
2.41802
2.37773
2.32446
1.00002
1.00004
1.00012
1.00024
1.00068
1.00127
1.00366
1.00695
1.01904
1.04067
1.09772
1.25076
1.63384
2.34888
2.57175
2.56419
2.54235
2.52708
2.5178
2.50753
2.48154
2.45231
2.40982
2.36127
2.31859
1.00001
1.00003
1.0001
1.00019
1.00055
1.00102
1.00297
1.00558
1.01551
1.0328
1.07806
1.21001
1.48188
2.18353
2.5115
2.55252
2.52659
2.51415
2.49068
2.48182
2.46234
2.44009
2.40549
2.3613
2.31566
1.00001
1.00003
1.00008
1.00015
1.00043
1.00081
1.00235
1.00436
1.01234
1.02529
1.06175
1.15984
1.36561
1.98028
2.39552
2.52621
2.51586
2.50198
2.4754
2.45329
2.43739
2.4119
2.39251
2.35891
2.31912
1.00001
1.00002
1.00006
1.00011
1.00033
1.00061
1.00177
1.00327
1.00934
1.01839
1.04711
1.11132
1.26143
1.64085
2.27886
2.46064
2.47898
2.4752
2.46361
2.43982
2.41944
2.39574
2.36701
2.34329
2.31496
1.00001
1.00001
1.00004
1.00009
1.00025
1.00046
1.00134
1.00245
1.00715
1.01359
1.0362
1.08367
1.1898
1.52333
2.19191
2.40661
2.44703
2.43448
2.43072
2.41937
2.40103
2.38309
2.35825
2.32914
2.30322
1
1.00001
1.00003
1.00006
1.00018
1.00034
1.001
1.00181
1.00532
1.00997
1.02729
1.06019
1.14003
1.37985
1.96719
2.31994
2.4247
2.41962
2.40389
2.39277
2.37792
2.36187
2.34688
2.32275
2.29802
1
1.00001
1.00002
1.00005
1.00013
1.00025
1.00071
1.0013
1.00381
1.00703
1.01987
1.03997
1.10441
1.23549
1.69333
2.14109
2.37469
2.39195
2.38512
2.37061
2.35415
2.33728
2.32155
2.30571
2.28508
1
1.00001
1.00002
1.00003
1.00009
1.00017
1.0005
1.0009
1.00267
1.00485
1.01373
1.02796
1.06988
1.17372
1.41759
1.95688
2.29297
2.36809
2.36713
2.35803
2.34306
2.32703
2.30899
2.29169
2.27132
1
1
1.00001
1.00002
1.00006
1.00012
1.00034
1.00061
1.0018
1.00322
1.00941
1.01814
1.04627
1.11184
1.25308
1.63673
2.12508
2.31291
2.32719
2.32637
2.31968
2.30675
2.29311
2.27874
2.26197
1
1
1.00001
1.00002
1.00003
1.0001
1.00018
1.00052
1.00094
1.00274
1.00504
1.01415
1.02918
1.07223
1.17617
1.44571
1.96
2.25166
2.30695
2.30587
2.29761
2.28726
2.27107
2.25881
2.24473
1
1
1
1.00001
1.00002
1.00006
1.00012
1.00034
1.00061
1.00183
1.00322
1.00946
1.01809
1.04694
1.11519
1.25261
1.66385
2.08113
2.26453
2.2785
2.27651
2.26765
2.25271
2.23739
2.22652
1
1
1
1.00001
1.00001
1.00004
1.00008
1.00022
1.00039
1.00116
1.00203
1.00596
1.0113
1.0296
1.07186
1.15907
1.44421
1.96713
2.18407
2.25356
2.25449
2.24781
2.23686
2.21848
2.20307
1
1
1
1
1.00001
1.00003
1.00005
1.00014
1.00025
1.00074
1.00129
1.00394
1.00695
1.0202
1.0407
1.10335
1.2437
1.68227
2.02249
2.20428
2.2286
2.22779
2.22118
2.20784
2.19314
1
1
1
1
1.00001
1.00001
1.00003
1.00006
1.00018
1.00033
1.00093
1.00173
1.00455
1.00996
1.02355
1.06484
1.13979
1.41527
1.92268
2.12545
2.19421
2.20266
2.19591
2.19168
2.18232
1
1
1
1
1
1.00001
1.00002
1.00005
1.00009
1.00027
1.00047
1.00141
1.00248
1.00737
1.01398
1.03788
1.08579
1.20784
1.50249
2.00447
2.14921
2.17274
2.17241
2.16584
2.16303
1
1
1
1
1
1.00001
1.00001
1.00003
1.00005
1.00016
1.00028
1.00086
1.00145
1.00434
1.00801
1.02154
1.0502
1.11671
1.32044
1.76159
2.04743
2.15815
2.15953
2.15756
2.15214
1
1
1
1
1
1
1.00001
1.00002
1.00003
1.0001
1.00017
1.00053
1.00088
1.00283
1.00466
1.01461
1.02666
1.07398
1.1592
1.44805
1.81208
2.08523
2.14499
2.15612
2.15824
1
1
1
1
1
1
1
1.00001
1.00002
1.00006
1.00009
1.00029
1.00048
1.00154
1.00252
1.00791
1.01393
1.0398
1.08301
1.21292
1.45991
1.91617
2.08581
2.14944
2.17491
1
1
1
1
1
1
1
1.00001
1.00001
1.00003
1.00005
1.00015
1.00025
1.00076
1.00128
1.00381
1.0072
1.01931
1.04614
1.11159
1.29935
1.71593
1.98341
2.13352
2.22026
1
1
1
1
1
1
1
1
1
1.00001
1.00002
1.00004
1.0001
1.00022
1.00041
1.00127
1.0022
1.00879
1.01892
1.06469
1.14621
1.42335
1.90008
2.14047
2.29436
1
1
1
1
1
1
1
1
1
1
1.00001
1.00002
1.00004
1.00007
1.00025
1.00021
1.00161
1.0031
1.01342
1.03451
1.09987
1.24057
1.59578
2.19004
2.42687
1
1
1
1
1
1
1
1
1
1
1
1.00001
1.00003
1.00005
1.00015
1.00029
1.00093
1.00161
1.00728
1.00935
1.06649
1.16787
1.54241
2.24297
2.53704
1
1
1
1
1
1
1
1
1
1
1
1.00001
1.00002
1.00006
1.00012
1.00049
1.00039
1.00367
1.00058
1.01901
1.04961
1.1611
1.41101
1.88937
2.66734
1
1
1
1
1
1
1
1
1
1
1
1.00001
1.00002
1.00005
1.00014
1.00028
1.00114
1.00129
1.00912
1.00466
1.05385
1.12186
1.44378
2.12091
2.5622
1
1
1
1
1
1
1
1
1
1
1
1.00001
1.00001
1.00004
1.00009
1.0003
1.00048
1.00263
1.00128
1.01782
1.03024
1.13886
1.34009
1.87524
2.7044
1
1
1
1
1
1
1
1
1
1
1
1.00001
1.00002
1.00004
1.00014
1.00026
1.00103
1.00128
1.00806
1.00206
1.04967
1.11844
1.39417
2.06881
2.50404
1
1
1
1
1
1
1
1
1
1
1
1.00001
1.00003
1.00008
1.00016
1.00059
1.00087
1.00418
1.00358
1.01511
1.02188
1.12763
1.31239
1.84553
2.67887
1
1
1
1
1
1
1
1
1
1
1
1.00001
1.00002
1.00004
1.00012
1.00025
1.00096
1.00108
1.0076
1.00151
1.04466
1.11302
1.36993
2.03368
2.46717
1
1
1
1
1
1
1
1
1
1
1
1.00001
1.00001
1.00003
1.00009
1.00017
1.00077
1.00057
1.00536
1.00972
1.04398
1.11779
1.352
2.00696
2.44182
1
1
1
1
1
1
1
1
1
1
1
1
1.00001
1.00003
1.00009
1.00016
1.00077
1.00083
1.00538
1.00699
1.04489
1.12001
1.34905
2.00306
2.41606
1
1
1
1
1
1
1
1
1
1
1
1.00001
1.00001
1.00003
1.00009
1.00018
1.00078
1.00087
1.00541
1.00997
1.0438
1.12109
1.34146
2.02481
2.38919
1
1
1
1
1
1
1
1
1
1
1
1.00001
1.00001
1.00005
1.0001
1.0002
1.00081
1.00086
1.00535
1.00851
1.04529
1.11631
1.3443
2.08757
2.39245
1
1
1
1
1
1
1
1
1
1
1
1.00002
1.00003
1.00011
1.00017
1.00071
1.00099
1.0038
1.0052
1.02006
1.03498
1.10935
1.26391
1.84103
2.73022
1
1
1
1
1
1
1
1
1
1
1
1.00001
1.00002
1.00004
1.00011
1.00022
1.00085
1.00101
1.00774
1.00227
1.04387
1.11655
1.35369
2.12222
2.41931
2.28156
2.23417
2.38509
2.75994
2.85772
2.95002
2.95871
2.93641
2.91282
2.8986
2.8813
2.86638
2.84604
2.82741
2.80572
2.79057
2.77197
2.75899
2.74034
2.72717
2.70883
2.69662
2.68149
2.67403
2.67038
2.66958
2.67163
2.68135
2.69583
2.71707
2.73873
2.76203
2.78308
2.80275
2.82222
2.83827
2.85337
2.86639
2.87611
2.88623
2.89206
2.90019
2.90356
2.90646
2.90734
2.9083
2.90695
2.90487
2.90026
2.89809
2.89287
2.88996
2.88352
2.88012
2.87231
2.86806
2.85861
2.85391
2.84423
2.83964
2.83045
2.82451
2.81653
2.80996
2.80353
2.79705
2.79121
2.78581
2.78087
2.77635
2.77226
2.76841
2.76496
2.76154
2.75805
2.75449
2.75015
2.74592
2.74011
2.73466
2.72728
2.72051
2.71157
2.70322
2.69323
2.68339
2.67224
2.66166
2.64869
2.63739
2.62435
2.61097
2.5985
2.58518
2.57241
2.55989
2.54828
2.53758
2.52938
2.52254
2.23246
2.18664
2.3481
2.50893
2.74585
2.86839
2.93761
2.99328
3.05194
3.04522
2.99035
2.97512
2.95475
2.94576
2.93083
2.92417
2.91217
2.90037
2.88669
2.87306
2.85696
2.8474
2.83725
2.83192
2.83139
2.83558
2.84461
2.85652
2.87228
2.89326
2.91034
2.92514
2.93823
2.94421
2.94689
2.94766
2.94216
2.93382
2.92463
2.91811
2.90747
2.89953
2.88771
2.87666
2.86133
2.85319
2.83953
2.83053
2.81819
2.80961
2.7986
2.79006
2.77908
2.77104
2.76128
2.7534
2.74366
2.73412
2.72467
2.71617
2.70743
2.69928
2.6909
2.68279
2.67502
2.66784
2.66085
2.65454
2.64836
2.64238
2.63656
2.63107
2.62521
2.62021
2.61414
2.6091
2.60249
2.59665
2.58933
2.58181
2.57401
2.56468
2.55623
2.5459
2.53587
2.5256
2.51387
2.50326
2.49109
2.47897
2.46695
2.45432
2.44187
2.4296
2.41732
2.40577
2.39452
2.38488
2.37724
2.37182
2.25516
2.20859
2.24684
2.35252
2.43799
2.52641
2.61063
2.70295
2.78801
2.89712
2.94163
2.96004
2.99658
3.02734
3.06335
3.07541
3.02237
3.01464
2.98788
2.96679
2.96294
2.96213
2.9621
2.96204
2.97136
2.98028
2.99412
3.00919
3.02297
3.03025
3.03314
3.0325
3.02982
3.02317
3.00792
2.99776
2.98008
2.96487
2.9458
2.92716
2.90663
2.88631
2.86464
2.84366
2.8231
2.80298
2.78333
2.76467
2.74577
2.728
2.71025
2.69312
2.67714
2.66231
2.64804
2.63522
2.62329
2.61242
2.60207
2.59281
2.58423
2.57696
2.56987
2.56433
2.55885
2.55491
2.55095
2.54819
2.54492
2.54261
2.53945
2.5373
2.53408
2.53162
2.52775
2.52433
2.51954
2.51437
2.50865
2.50144
2.49458
2.48589
2.47731
2.46806
2.45741
2.44763
2.43594
2.42483
2.41307
2.40092
2.38858
2.37617
2.36356
2.35121
2.33888
2.32736
2.3165
2.30662
2.29932
2.29334
2.25321
2.21809
2.19932
2.23878
2.28949
2.33477
2.38181
2.42879
2.49312
2.55679
2.64706
2.72608
2.79309
2.86057
2.91733
2.98129
2.98936
2.9982
2.99995
3.00601
3.02365
3.03785
3.04101
3.03619
3.02134
3.01925
3.02267
3.0274
3.02954
3.02742
3.0236
3.0166
3.00669
2.99486
2.98086
2.9666
2.94755
2.9295
2.90713
2.88677
2.86288
2.84087
2.81649
2.79385
2.77051
2.74871
2.72724
2.70669
2.68644
2.66673
2.64644
2.62759
2.60825
2.59069
2.57354
2.55771
2.54135
2.52633
2.51073
2.49727
2.48395
2.47266
2.46166
2.45273
2.44369
2.43676
2.42954
2.42456
2.41975
2.41682
2.4146
2.41343
2.41275
2.41243
2.41214
2.41176
2.41092
2.4098
2.40781
2.40514
2.40149
2.39784
2.392
2.38719
2.3796
2.37277
2.36415
2.35523
2.34577
2.33525
2.32506
2.31379
2.30334
2.29162
2.28114
2.26972
2.26027
2.24986
2.24351
2.2368
2.25916
2.21433
2.19221
2.18439
2.20616
2.22688
2.25209
2.27763
2.31006
2.35035
2.39024
2.44399
2.49096
2.55224
2.60608
2.67636
2.75143
2.81954
2.87281
2.90454
2.92948
2.95226
2.96861
2.9807
2.9826
2.98546
2.97926
2.9629
2.95093
2.92803
2.90708
2.88197
2.85638
2.82988
2.80467
2.77872
2.75628
2.7321
2.71087
2.68783
2.66755
2.64659
2.62769
2.60881
2.59089
2.57429
2.55818
2.54484
2.53134
2.5197
2.50732
2.49663
2.48521
2.47612
2.46646
2.45935
2.45108
2.44404
2.43564
2.4287
2.42067
2.41382
2.40557
2.39842
2.38969
2.38242
2.37359
2.36647
2.35792
2.35133
2.34385
2.33832
2.33224
2.32815
2.32347
2.32046
2.31668
2.31411
2.31055
2.30779
2.30381
2.3007
2.29586
2.29207
2.28647
2.28154
2.27503
2.26846
2.26059
2.25256
2.24399
2.23499
2.2263
2.21723
2.20857
2.20025
2.19213
2.18495
2.17908
2.1751
2.26816
2.22162
2.18819
2.17037
2.16417
2.1703
2.17679
2.19106
2.20274
2.2268
2.24514
2.27444
2.30089
2.33476
2.3708
2.40995
2.45622
2.50219
2.55539
2.61335
2.66793
2.72015
2.76621
2.80424
2.83252
2.84542
2.83813
2.81515
2.78039
2.73974
2.69337
2.65487
2.61304
2.58584
2.55801
2.53995
2.52271
2.5075
2.49089
2.47632
2.46131
2.44918
2.43764
2.42855
2.42018
2.41322
2.40655
2.40103
2.39506
2.3898
2.38352
2.37779
2.37106
2.36491
2.3581
2.35215
2.3453
2.33893
2.33123
2.32455
2.31702
2.31139
2.3052
2.30155
2.29722
2.29487
2.29088
2.28856
2.28437
2.28224
2.27832
2.27642
2.27275
2.27082
2.26702
2.26401
2.25945
2.2558
2.25061
2.24709
2.24155
2.23798
2.23208
2.22799
2.22185
2.21641
2.21006
2.20328
2.19655
2.1889
2.18128
2.17299
2.16419
2.15542
2.14647
2.13768
2.13046
2.12294
2.11845
2.1146
2.27134
2.22615
2.19164
2.16617
2.14862
2.14204
2.13758
2.13839
2.14252
2.14896
2.16069
2.17112
2.18855
2.20339
2.22523
2.24699
2.27215
2.30199
2.33187
2.37081
2.40963
2.45418
2.49419
2.53525
2.56428
2.58052
2.57133
2.54345
2.50768
2.45754
2.41769
2.37989
2.35282
2.33548
2.3233
2.32374
2.32452
2.32586
2.32694
2.32838
2.32828
2.32843
2.32882
2.32933
2.33022
2.33057
2.33052
2.3302
2.32939
2.32799
2.32576
2.32299
2.31943
2.3154
2.31068
2.30583
2.30016
2.29485
2.28792
2.28144
2.27341
2.26696
2.259
2.25217
2.24376
2.23705
2.2297
2.22471
2.21873
2.21467
2.20898
2.20519
2.19989
2.19651
2.19199
2.18919
2.18546
2.18285
2.17904
2.17606
2.17201
2.16864
2.16455
2.16078
2.15673
2.15218
2.14725
2.1414
2.13527
2.12844
2.12158
2.11448
2.10757
2.10064
2.09354
2.08665
2.07941
2.07295
2.06722
2.06366
2.2727
2.23027
2.1928
2.16663
2.14326
2.12737
2.11722
2.10931
2.10616
2.10411
2.10577
2.1102
2.11489
2.12392
2.13281
2.14526
2.16067
2.17693
2.20205
2.22607
2.25983
2.29164
2.32786
2.36844
2.39713
2.41035
2.39914
2.37764
2.3438
2.30682
2.27142
2.2454
2.22967
2.21708
2.21515
2.21685
2.22498
2.23584
2.24654
2.25488
2.26113
2.26523
2.2677
2.26878
2.2687
2.26811
2.2673
2.26553
2.26355
2.26076
2.25747
2.25421
2.25027
2.24659
2.24205
2.23813
2.2333
2.22931
2.22464
2.22084
2.21593
2.21233
2.20793
2.20524
2.20135
2.19906
2.19515
2.19276
2.18803
2.1847
2.17901
2.17469
2.16829
2.16298
2.15649
2.15129
2.14518
2.14079
2.13543
2.13169
2.1269
2.1236
2.1191
2.11542
2.11058
2.1063
2.10103
2.09617
2.09046
2.0849
2.07878
2.07246
2.06596
2.0591
2.05233
2.04535
2.03875
2.03239
2.02723
2.0237
2.27627
2.23899
2.1988
2.16767
2.14381
2.12262
2.10602
2.09377
2.08382
2.07729
2.07228
2.07033
2.06967
2.07118
2.0755
2.08053
2.09092
2.10373
2.12251
2.14828
2.1716
2.20827
2.24504
2.29162
2.31512
2.32046
2.30787
2.28516
2.25476
2.2188
2.18406
2.16006
2.1421
2.13241
2.12508
2.12304
2.12511
2.13192
2.14079
2.15235
2.16218
2.17063
2.17661
2.18115
2.18441
2.18678
2.18859
2.19001
2.19087
2.19111
2.19106
2.19075
2.18961
2.18808
2.18569
2.18382
2.18134
2.17966
2.17708
2.17522
2.17205
2.16967
2.16581
2.1633
2.15931
2.15681
2.15253
2.14981
2.14531
2.14264
2.13803
2.1349
2.13025
2.1269
2.12217
2.11867
2.11421
2.11067
2.10628
2.10235
2.09761
2.09317
2.08806
2.08356
2.07848
2.07401
2.06914
2.06421
2.05921
2.05328
2.04755
2.04076
2.03425
2.02752
2.02102
2.01488
2.00924
2.00352
1.99942
1.9957
2.27919
2.24415
2.21035
2.17675
2.14719
2.12442
2.10411
2.08685
2.07293
2.0614
2.05214
2.04529
2.04031
2.03751
2.03726
2.03963
2.04695
2.06143
2.07931
2.10251
2.13176
2.17225
2.2238
2.26011
2.27427
2.26954
2.25627
2.23107
2.19873
2.16271
2.13296
2.1074
2.08915
2.07588
2.06736
2.062
2.06065
2.0633
2.06888
2.07833
2.09066
2.10409
2.1158
2.12549
2.13298
2.13875
2.14306
2.14666
2.1495
2.15211
2.15411
2.15564
2.15642
2.15722
2.15722
2.15701
2.15654
2.15597
2.15456
2.15358
2.15164
2.14991
2.14664
2.14414
2.14036
2.13765
2.13303
2.12925
2.12373
2.11928
2.11342
2.10878
2.10267
2.09773
2.09129
2.0861
2.07957
2.0746
2.06853
2.06432
2.05915
2.05567
2.05118
2.0479
2.04359
2.03984
2.03537
2.03096
2.02638
2.02165
2.01669
2.01166
2.00581
1.99998
1.99359
1.98699
1.98122
1.97518
1.97101
1.96831
2.27318
2.24349
2.2129
2.18352
2.15549
2.12939
2.10762
2.08781
2.07067
2.05548
2.04327
2.03204
2.02491
2.01826
2.01695
2.01853
2.0278
2.04366
2.06173
2.08979
2.12854
2.18085
2.22494
2.24616
2.24672
2.23809
2.21922
2.19266
2.15852
2.12898
2.10027
2.07686
2.05565
2.04021
2.02826
2.02117
2.01644
2.01524
2.0166
2.02096
2.02871
2.03964
2.05399
2.06883
2.08184
2.09279
2.10131
2.10767
2.11252
2.11589
2.11854
2.12062
2.12213
2.12341
2.12452
2.12492
2.12511
2.12481
2.1244
2.12366
2.12189
2.12057
2.1186
2.11706
2.11415
2.11197
2.10886
2.10661
2.10323
2.10033
2.09563
2.09173
2.08581
2.08079
2.07392
2.06838
2.06108
2.05554
2.04832
2.04308
2.03644
2.03154
2.02587
2.02133
2.01663
2.01237
2.00805
2.00387
1.99915
1.99471
1.98951
1.98459
1.97938
1.97391
1.96885
1.96308
1.9581
1.95285
1.94865
1.94598
2.27093
2.24158
2.21445
2.18611
2.16044
2.13492
2.1122
2.09117
2.07283
2.05577
2.04151
2.02861
2.0192
2.01277
2.01104
2.01639
2.02849
2.04501
2.07026
2.11025
2.16274
2.20712
2.23117
2.23445
2.22906
2.21488
2.19184
2.16443
2.13533
2.10972
2.08349
2.06236
2.04111
2.0251
2.00992
1.99979
1.99174
1.98785
1.98611
1.98627
1.98943
1.99538
2.0054
2.01818
2.03358
2.04829
2.0612
2.0717
2.0797
2.08597
2.09074
2.09447
2.09749
2.10004
2.10206
2.10346
2.10497
2.10556
2.10657
2.10653
2.10614
2.10538
2.10374
2.10236
2.09953
2.09666
2.09228
2.08825
2.08262
2.07796
2.0714
2.06622
2.05894
2.05316
2.04564
2.03953
2.03252
2.02651
2.02009
2.01463
2.00871
2.00403
1.99844
1.99424
1.98891
1.98479
1.97984
1.97579
1.97134
1.96743
1.96321
1.95928
1.95486
1.95065
1.94583
1.94115
1.93642
1.93161
1.928
1.92496
2.26473
2.23923
2.21362
2.18846
2.16357
2.14011
2.11733
2.09647
2.07728
2.05985
2.04516
2.03278
2.02406
2.0213
2.02486
2.03545
2.05033
2.07547
2.11566
2.16337
2.20301
2.22608
2.23007
2.22627
2.21465
2.19645
2.17168
2.14796
2.1233
2.10192
2.0793
2.06051
2.04024
2.02402
2.00721
1.99452
1.98252
1.97422
1.96916
1.96662
1.96669
1.96801
1.97261
1.9796
1.99017
2.00452
2.02029
2.03477
2.04701
2.05696
2.0643
2.06979
2.07398
2.07733
2.0798
2.0821
2.08398
2.08509
2.086
2.08624
2.08584
2.08484
2.08306
2.08186
2.07944
2.07709
2.07307
2.06948
2.06467
2.06028
2.05462
2.04949
2.04293
2.0371
2.03001
2.02364
2.01616
2.00935
2.00166
1.9949
1.98735
1.98131
1.9743
1.96936
1.96322
1.95924
1.95402
1.9506
1.94611
1.94271
1.9386
1.93502
1.93096
1.92722
1.92316
1.91923
1.91537
1.91171
1.90877
1.90697
2.25084
2.22949
2.20778
2.18486
2.16319
2.14079
2.12046
2.10015
2.0828
2.06633
2.05348
2.04406
2.04128
2.04468
2.05387
2.06965
2.09651
2.13608
2.18154
2.21408
2.23148
2.23357
2.23002
2.22009
2.20325
2.18279
2.16227
2.14283
2.12304
2.10433
2.08449
2.06636
2.04709
2.03028
2.01302
1.99846
1.98454
1.97332
1.96373
1.95698
1.95315
1.95214
1.9524
1.95418
1.95909
1.96743
1.97934
1.9941
2.00935
2.02317
2.03441
2.0435
2.05052
2.05521
2.05908
2.06214
2.06393
2.06598
2.06712
2.06793
2.06808
2.06727
2.06561
2.06439
2.06184
2.05906
2.0546
2.05025
2.04437
2.03922
2.03251
2.02699
2.01983
2.01357
2.00613
1.99938
1.99215
1.98519
1.97802
1.97122
1.96415
1.95805
1.95126
1.94597
1.93963
1.93503
1.92942
1.92569
1.92091
1.91798
1.91388
1.91122
1.90754
1.90457
1.90117
1.89791
1.89491
1.89204
1.89008
1.88884
2.2432
2.22314
2.20201
2.18104
2.15975
2.13996
2.12094
2.1035
2.08821
2.07569
2.06784
2.06594
2.07096
2.08067
2.0987
2.12763
2.16739
2.20693
2.23206
2.24326
2.24288
2.23833
2.22757
2.21184
2.19413
2.17757
2.16119
2.14548
2.12888
2.11214
2.09417
2.0767
2.05839
2.04125
2.02386
2.008
1.99276
1.97914
1.96687
1.95662
1.94819
1.94256
1.93942
1.93902
1.93929
1.94159
1.94743
1.95664
1.96967
1.98463
1.99929
2.01269
2.02317
2.03117
2.03734
2.04136
2.04463
2.04729
2.04849
2.04973
2.04985
2.04913
2.04747
2.04622
2.04392
2.04137
2.03726
2.03301
2.02752
2.02239
2.0159
2.01019
2.00302
1.99669
1.98933
1.98246
1.97517
1.96786
1.96057
1.95324
1.94588
1.939
1.93174
1.92565
1.91893
1.91386
1.90814
1.90413
1.89932
1.89624
1.89218
1.88971
1.8863
1.88407
1.88126
1.87912
1.87692
1.87526
1.87425
1.87341
2.22937
2.21231
2.19335
2.17391
2.15479
2.13638
2.12015
2.10643
2.09572
2.0907
2.09136
2.09941
2.1119
2.13204
2.16543
2.20417
2.23511
2.25338
2.25839
2.25605
2.24886
2.23731
2.22164
2.20659
2.19211
2.17871
2.16538
2.15176
2.1372
2.12171
2.10538
2.08835
2.07116
2.05374
2.03679
2.01998
2.00412
1.9886
1.97461
1.96137
1.95001
1.94035
1.93259
1.92789
1.9251
1.92516
1.92551
1.92862
1.93584
1.94603
1.96061
1.97607
1.99046
2.00274
2.01261
2.0195
2.02514
2.02813
2.03037
2.0318
2.03206
2.03144
2.03
2.02886
2.02651
2.02368
2.01939
2.01505
2.00927
2.0039
1.99716
1.99139
1.98429
1.97782
1.97042
1.96319
1.95573
1.948
1.94047
1.93279
1.92522
1.9181
1.91069
1.90412
1.89737
1.89146
1.88596
1.88086
1.87671
1.87268
1.86965
1.86677
1.86448
1.86262
1.8608
1.85986
1.85864
1.85855
1.85834
1.85821
2.21283
2.20084
2.18584
2.17012
2.15285
2.13829
2.12387
2.1146
2.11142
2.11516
2.12462
2.14165
2.16752
2.20316
2.23915
2.26237
2.27402
2.27389
2.26986
2.26089
2.24603
2.23147
2.21787
2.20589
2.1947
2.18371
2.17216
2.15973
2.14626
2.13166
2.11621
2.0998
2.08316
2.0658
2.04887
2.03144
2.015
1.99828
1.98306
1.96783
1.95454
1.94193
1.93141
1.92261
1.91663
1.91251
1.91113
1.91145
1.91255
1.9171
1.92565
1.93864
1.95289
1.96867
1.98183
1.99314
2.00157
2.00695
2.01051
2.0125
2.0127
2.01213
2.0105
2.00918
2.0067
2.00378
1.99987
1.99543
1.98991
1.98431
1.9777
1.97153
1.96449
1.95773
1.95046
1.94314
1.93582
1.9282
1.92069
1.91307
1.90533
1.898
1.89038
1.88342
1.87662
1.87015
1.86458
1.85902
1.8546
1.85059
1.84718
1.84476
1.84247
1.8413
1.84044
1.84058
1.84125
1.84207
1.84438
1.84382
2.19089
2.17814
2.16847
2.15833
2.15049
2.14009
2.13552
2.13611
2.14303
2.15431
2.17417
2.20493
2.2402
2.26743
2.28338
2.28818
2.28593
2.27892
2.26703
2.25237
2.2383
2.22587
2.21473
2.20471
2.19506
2.18525
2.17465
2.16331
2.15058
2.13706
2.12226
2.10682
2.09058
2.07395
2.05696
2.03998
2.02287
2.00641
1.98993
1.97473
1.95976
1.94633
1.93366
1.92287
1.91352
1.9065
1.90196
1.89911
1.89844
1.8987
1.90069
1.90655
1.91603
1.92957
1.94332
1.95752
1.96909
1.97805
1.98454
1.98792
1.98956
1.98933
1.98794
1.98631
1.98384
1.98095
1.97704
1.97246
1.96703
1.9615
1.95504
1.94885
1.94188
1.93506
1.92783
1.92045
1.91312
1.9055
1.898
1.89045
1.88284
1.87548
1.86808
1.86098
1.85434
1.84777
1.84204
1.83672
1.83182
1.82807
1.82449
1.82188
1.82026
1.81913
1.81944
1.82042
1.82293
1.82441
1.82869
1.82805
2.17825
2.16537
2.15365
2.14614
2.14343
2.1452
2.15478
2.16667
2.18633
2.21291
2.24655
2.28018
2.30127
2.30929
2.30868
2.30355
2.29223
2.27533
2.2596
2.24561
2.23436
2.22428
2.21575
2.20691
2.19818
2.18836
2.17805
2.16642
2.15424
2.14093
2.12699
2.11231
2.09691
2.08115
2.06489
2.04848
2.03219
2.01571
2
1.98412
1.96925
1.9545
1.94085
1.92771
1.9157
1.90525
1.89647
1.88969
1.88508
1.88262
1.88159
1.88141
1.88424
1.89115
1.90202
1.91536
1.92842
1.94102
1.95069
1.95755
1.96195
1.96352
1.96322
1.96141
1.95988
1.95728
1.9539
1.94938
1.94466
1.93946
1.93354
1.9275
1.92085
1.91421
1.90711
1.89987
1.89253
1.88503
1.87745
1.86982
1.86215
1.85463
1.84739
1.84011
1.83337
1.82672
1.82052
1.81513
1.80998
1.80582
1.80248
1.79966
1.798
1.79772
1.79847
1.80009
1.80318
1.80521
1.81127
1.81253
2.17213
2.1625
2.15638
2.14999
2.15506
2.16459
2.18157
2.20674
2.24178
2.28038
2.30803
2.32397
2.32692
2.32415
2.31584
2.30087
2.28459
2.26979
2.25715
2.24621
2.23665
2.22811
2.2197
2.21156
2.20259
2.19331
2.18299
2.17207
2.16011
2.14743
2.13379
2.11947
2.10439
2.08886
2.07288
2.05656
2.0402
2.02352
2.00727
1.99053
1.9749
1.95852
1.94398
1.92878
1.91586
1.90271
1.89156
1.88162
1.87348
1.86796
1.8641
1.86193
1.86153
1.86234
1.86753
1.87536
1.88713
1.89979
1.91221
1.92272
1.93084
1.93602
1.93813
1.93787
1.93635
1.93502
1.93232
1.92858
1.92412
1.91888
1.91336
1.90744
1.90141
1.89475
1.88823
1.88088
1.87411
1.86657
1.85945
1.85181
1.84446
1.83702
1.82974
1.82258
1.81541
1.80882
1.80215
1.79632
1.79108
1.78627
1.7828
1.78009
1.77826
1.7786
1.7801
1.7822
1.78474
1.7882
1.7953
1.79891
2.15758
2.15589
2.16
2.17228
2.1835
2.20538
2.23597
2.27469
2.30631
2.32876
2.33558
2.33604
2.32997
2.31882
2.30202
2.28651
2.27235
2.26056
2.25053
2.2422
2.23438
2.22704
2.21925
2.21137
2.20257
2.19338
2.18316
2.17234
2.16052
2.14802
2.13465
2.12071
2.10599
2.09093
2.07523
2.05924
2.04291
2.02607
2.00953
1.99244
1.97647
1.95977
1.94495
1.92918
1.91561
1.90154
1.88968
1.87798
1.86837
1.85973
1.85271
1.84871
1.84553
1.84432
1.84379
1.84586
1.85176
1.86122
1.87205
1.88437
1.89503
1.90396
1.90964
1.91245
1.91225
1.911
1.90964
1.90682
1.90296
1.89841
1.8927
1.8873
1.881
1.87516
1.86838
1.86205
1.8549
1.84812
1.84079
1.83377
1.82647
1.81953
1.81235
1.80566
1.79875
1.79218
1.78608
1.77997
1.77496
1.77039
1.76654
1.76424
1.7628
1.76343
1.76541
1.76734
1.77008
1.77616
1.78328
1.78835
2.15272
2.15944
2.17748
2.19875
2.2311
2.27082
2.31297
2.33741
2.35254
2.35244
2.34847
2.33727
2.31982
2.30164
2.2853
2.27153
2.26035
2.25115
2.24323
2.23606
2.22894
2.22163
2.21379
2.20531
2.19627
2.18659
2.17635
2.16552
2.15394
2.14192
2.12892
2.11565
2.1013
2.08682
2.07139
2.056
2.04005
2.02415
2.00832
1.99205
1.9767
1.96048
1.94588
1.93037
1.91676
1.9026
1.89002
1.87751
1.8665
1.85579
1.84715
1.8392
1.83302
1.82946
1.8254
1.82484
1.82359
1.82635
1.8329
1.8417
1.85289
1.86285
1.87236
1.87819
1.88244
1.88258
1.88164
1.88053
1.8782
1.87405
1.8693
1.8636
1.85835
1.85221
1.84652
1.8399
1.83354
1.82667
1.82002
1.81311
1.80647
1.79954
1.79308
1.78626
1.77988
1.77365
1.76756
1.7624
1.75731
1.75336
1.75041
1.74813
1.74835
1.74965
1.7519
1.75445
1.75852
1.76683
1.77511
1.7815
2.16616
2.18144
2.21346
2.25328
2.30318
2.34022
2.36564
2.3725
2.37083
2.36257
2.3457
2.32671
2.30977
2.29462
2.28162
2.27027
2.26066
2.25176
2.24348
2.2352
2.22694
2.21851
2.20997
2.20108
2.19185
2.18208
2.17174
2.16083
2.14917
2.13713
2.12423
2.11126
2.09732
2.08364
2.06889
2.05459
2.03923
2.02441
2.00876
1.99373
1.97831
1.9634
1.9486
1.934
1.9197
1.90564
1.89181
1.87902
1.86589
1.85464
1.84306
1.83297
1.82394
1.81568
1.81051
1.80494
1.80202
1.79979
1.80018
1.80398
1.8106
1.82055
1.83094
1.84082
1.84807
1.85297
1.85406
1.85352
1.85237
1.85059
1.84656
1.84215
1.83662
1.83131
1.82519
1.81914
1.81271
1.80634
1.7997
1.79331
1.78654
1.78031
1.77354
1.76733
1.76088
1.75481
1.74923
1.74378
1.73945
1.73557
1.73291
1.73199
1.73272
1.73494
1.73678
1.741
1.74635
1.75631
1.76644
1.77441
2.20218
2.23727
2.28088
2.32553
2.35515
2.36863
2.37198
2.3671
2.35745
2.33795
2.32237
2.3066
2.29332
2.28142
2.27205
2.26345
2.25608
2.24876
2.24161
2.23377
2.22559
2.21693
2.20796
2.19863
2.189
2.179
2.16862
2.15786
2.14661
2.13496
2.12268
2.11015
2.09681
2.0834
2.06904
2.05483
2.03981
2.02509
2.00987
1.995
1.97978
1.96494
1.94983
1.9351
1.92024
1.90593
1.89159
1.87773
1.86406
1.85088
1.83794
1.82618
1.8146
1.80545
1.79591
1.78949
1.78358
1.77866
1.77663
1.7759
1.77807
1.7838
1.79232
1.8031
1.81274
1.82182
1.82727
1.83067
1.83065
1.82994
1.82881
1.82505
1.82095
1.81515
1.80962
1.80323
1.79726
1.79068
1.78449
1.77789
1.77159
1.76515
1.75893
1.75266
1.74667
1.74066
1.73512
1.73005
1.72534
1.72232
1.71958
1.71965
1.72059
1.72232
1.72476
1.73007
1.7368
1.74818
1.75876
1.76697
2.28297
2.34368
2.38047
2.40212
2.40234
2.39635
2.38349
2.36122
2.34051
2.32224
2.30655
2.29336
2.2831
2.27459
2.26753
2.26058
2.25357
2.24593
2.23788
2.22946
2.22046
2.21104
2.20117
2.191
2.18063
2.17001
2.15931
2.14819
2.13694
2.12509
2.113
2.10035
2.0873
2.07399
2.06025
2.04652
2.03249
2.01847
2.00428
1.99007
1.97569
1.96145
1.94698
1.93273
1.91828
1.90415
1.88988
1.87608
1.86217
1.84884
1.83574
1.82307
1.81115
1.7994
1.78912
1.77993
1.77246
1.76694
1.76196
1.75938
1.75928
1.76032
1.76436
1.77052
1.78062
1.79028
1.79979
1.80633
1.8107
1.81169
1.8109
1.81025
1.80717
1.80367
1.79756
1.79223
1.78565
1.77988
1.77328
1.76721
1.76059
1.7544
1.74793
1.74183
1.73578
1.73023
1.72505
1.72043
1.71689
1.71403
1.71317
1.7137
1.71487
1.71719
1.7209
1.7287
1.73759
1.74904
1.75886
1.7663
2.38831
2.43149
2.43875
2.42965
2.40994
2.38542
2.35997
2.34029
2.32228
2.30684
2.29466
2.2844
2.27588
2.26822
2.26113
2.25397
2.24675
2.23877
2.23035
2.22148
2.21262
2.20343
2.19415
2.1844
2.17443
2.16404
2.15341
2.14239
2.13117
2.11952
2.10762
2.0954
2.08285
2.07017
2.05726
2.04418
2.03091
2.01731
2.00356
1.98953
1.97542
1.96122
1.947
1.93303
1.91886
1.90496
1.89083
1.87701
1.86302
1.84955
1.83602
1.82304
1.81043
1.79838
1.78722
1.77674
1.76756
1.75984
1.75283
1.74732
1.74339
1.74235
1.74344
1.74643
1.75132
1.75957
1.76935
1.77885
1.78674
1.79173
1.79356
1.793
1.7922
1.79002
1.78562
1.77986
1.77412
1.76803
1.76228
1.75601
1.7502
1.74389
1.73816
1.73228
1.72678
1.72182
1.71708
1.71345
1.7107
1.70927
1.70955
1.71046
1.71223
1.71608
1.72253
1.7324
1.74213
1.75283
1.76113
1.76749
2.54364
2.54007
2.50985
2.48781
2.44269
2.40778
2.37464
2.34906
2.3286
2.31305
2.30112
2.29075
2.28143
2.27237
2.26367
2.25461
2.24577
2.23619
2.22703
2.21702
2.20734
2.19689