/*--------------------------------*- C++ -*----------------------------------*\
  =========                 |
  \\      /  F ield         | OpenFOAM: The Open Source CFD Toolbox
   \\    /   O peration     | Website:  https://openfoam.org
    \\  /    A nd           | Version:  6
     \\/     M anipulation  |
\*---------------------------------------------------------------------------*/
FoamFile
{
    version     2.0;
    format      ascii;
    class       volVectorField;
    location    "5.5";
    object      U;
}
// * * * * * * * * * * * * * * * * * * * * * * * * * * * * * * * * * * * * * //

dimensions      [0 1 -1 0 0 0 0];

internalField   nonuniform List<vector> 
5250
(
(2.99996 3.90814e-08 0)
(2.99989 2.50331e-07 0)
(2.9997 7.79518e-07 0)
(2.99931 2.12371e-06 0)
(2.99832 4.92772e-06 0)
(2.99631 1.18845e-05 0)
(2.99073 2.56704e-05 0)
(2.97998 6.27168e-05 0)
(2.94714 0.000129038 0)
(2.87424 0.000343769 0)
(2.6721 0.000753887 0)
(2.04366 0.00208878 0)
(0.661081 0.00549655 0)
(-0.187246 0.0129674 0)
(0.175966 0.0201215 0)
(0.496557 0.0259976 0)
(0.579506 0.0291613 0)
(0.526625 0.031338 0)
(0.425179 0.0322726 0)
(0.328724 0.0343723 0)
(0.265557 0.0376958 0)
(0.212474 0.0414112 0)
(0.154895 0.0452973 0)
(0.0920838 0.0503894 0)
(0.0436578 0.0581408 0)
(2.99996 1.20815e-07 0)
(2.99989 7.75462e-07 0)
(2.9997 2.41257e-06 0)
(2.99932 6.5876e-06 0)
(2.99833 1.52792e-05 0)
(2.99632 3.70046e-05 0)
(2.99077 7.98978e-05 0)
(2.98006 0.00019698 0)
(2.94735 0.00040347 0)
(2.87476 0.00109249 0)
(2.67344 0.00241443 0)
(2.04771 0.00678868 0)
(0.669147 0.018047 0)
(-0.179353 0.0409268 0)
(0.185055 0.0595052 0)
(0.503059 0.0728704 0)
(0.581592 0.0787161 0)
(0.526589 0.0819422 0)
(0.425803 0.082373 0)
(0.331733 0.0855647 0)
(0.268968 0.0907703 0)
(0.21452 0.0956196 0)
(0.15546 0.0992416 0)
(0.0912033 0.102817 0)
(0.0421134 0.106911 0)
(2.99996 2.09721e-07 0)
(2.99989 1.34813e-06 0)
(2.9997 4.19248e-06 0)
(2.99932 1.14714e-05 0)
(2.99834 2.66131e-05 0)
(2.99636 6.47071e-05 0)
(2.99085 0.000139781 0)
(2.98023 0.000347364 0)
(2.94782 0.000709558 0)
(2.87591 0.00194713 0)
(2.6765 0.00433348 0)
(2.05735 0.0123238 0)
(0.689405 0.0329637 0)
(-0.157487 0.0727275 0)
(0.200517 0.101238 0)
(0.511241 0.120657 0)
(0.583645 0.13024 0)
(0.525966 0.136697 0)
(0.426344 0.140102 0)
(0.336187 0.147151 0)
(0.274375 0.156177 0)
(0.21815 0.164135 0)
(0.157064 0.17003 0)
(0.0906633 0.174589 0)
(0.0401416 0.177347 0)
(2.99996 3.04549e-07 0)
(2.99989 1.95893e-06 0)
(2.99971 6.09212e-06 0)
(2.99933 1.66884e-05 0)
(2.99836 3.87386e-05 0)
(2.99641 9.43911e-05 0)
(2.99098 0.000204098 0)
(2.98049 0.000508963 0)
(2.94857 0.00103993 0)
(2.87779 0.00286681 0)
(2.6815 0.00640457 0)
(2.07316 0.018267 0)
(0.722387 0.0487441 0)
(-0.122834 0.105494 0)
(0.221621 0.142723 0)
(0.521504 0.166727 0)
(0.587355 0.179931 0)
(0.527671 0.190262 0)
(0.430092 0.198365 0)
(0.344284 0.210143 0)
(0.283423 0.223601 0)
(0.225491 0.235748 0)
(0.162245 0.24542 0)
(0.0933682 0.252961 0)
(0.039981 0.256997 0)
(2.99996 4.02176e-07 0)
(2.99989 2.58767e-06 0)
(2.99971 8.04713e-06 0)
(2.99934 2.20557e-05 0)
(2.99839 5.12008e-05 0)
(2.99647 0.000124895 0)
(2.99115 0.00027003 0)
(2.98086 0.000675912 0)
(2.94961 0.00137318 0)
(2.88041 0.00381758 0)
(2.6885 0.00852752 0)
(2.0952 0.0242948 0)
(0.767959 0.0650564 0)
(-0.0759639 0.139277 0)
(0.247977 0.185002 0)
(0.533415 0.212823 0)
(0.592357 0.228719 0)
(0.53182 0.242443 0)
(0.437186 0.255524 0)
(0.355798 0.272319 0)
(0.296003 0.290519 0)
(0.236745 0.307498 0)
(0.171465 0.321951 0)
(0.0996663 0.333529 0)
(0.0420056 0.339967 0)
(2.99996 4.99969e-07 0)
(2.99989 3.21875e-06 0)
(2.99972 1.00049e-05 0)
(2.99936 2.74417e-05 0)
(2.99843 6.3646e-05 0)
(2.99656 0.000155582 0)
(2.99138 0.00033609 0)
(2.98133 0.000836906 0)
(2.95096 0.00175649 0)
(2.88378 0.00460893 0)
(2.6975 0.0111303 0)
(2.12359 0.0282915 0)
(0.829591 0.0816729 0)
(-0.0143976 0.174104 0)
(0.280729 0.22874 0)
(0.547689 0.258735 0)
(0.599134 0.276653 0)
(0.539211 0.293625 0)
(0.44883 0.312166 0)
(0.371964 0.334686 0)
(0.313267 0.358525 0)
(0.252882 0.381368 0)
(0.185635 0.401927 0)
(0.109978 0.419109 0)
(0.046076 0.428984 0)
(2.99997 6.01388e-07 0)
(2.9999 3.87304e-06 0)
(2.99973 1.20348e-05 0)
(2.99938 3.30222e-05 0)
(2.99848 7.65394e-05 0)
(2.99667 0.000187323 0)
(2.99165 0.000404511 0)
(2.98194 0.000999753 0)
(2.95249 0.00216854 0)
(2.88825 0.00536799 0)
(2.70707 0.0138597 0)
(2.15583 0.0317928 0)
(0.907552 0.0980295 0)
(0.0587017 0.210424 0)
(0.317451 0.27624 0)
(0.562827 0.3029 0)
(0.607657 0.322527 0)
(0.550551 0.343137 0)
(0.466131 0.368237 0)
(0.39402 0.397395 0)
(0.336748 0.428039 0)
(0.275927 0.458592 0)
(0.206794 0.487875 0)
(0.126144 0.514107 0)
(0.0533449 0.530708 0)
(2.99997 7.11531e-07 0)
(2.9999 4.58141e-06 0)
(2.99974 1.42383e-05 0)
(2.9994 3.90553e-05 0)
(2.99854 9.05524e-05 0)
(2.9968 0.0002214 0)
(2.99198 0.000478409 0)
(2.98267 0.00117805 0)
(2.95429 0.00256749 0)
(2.89355 0.00630782 0)
(2.71823 0.0161916 0)
(2.1938 0.0373587 0)
(1.00399 0.113047 0)
(0.148965 0.247418 0)
(0.357085 0.325689 0)
(0.572822 0.346088 0)
(0.61725 0.366762 0)
(0.56633 0.39093 0)
(0.489945 0.423162 0)
(0.423146 0.4598 0)
(0.368424 0.498697 0)
(0.309046 0.539016 0)
(0.239981 0.581158 0)
(0.153977 0.623643 0)
(0.0673904 0.655688 0)
(2.99997 8.31855e-07 0)
(2.9999 5.35095e-06 0)
(2.99975 1.6639e-05 0)
(2.99943 4.55729e-05 0)
(2.99861 0.000105757 0)
(2.99694 0.000257561 0)
(2.99236 0.000557146 0)
(2.98353 0.00136824 0)
(2.9564 0.0029189 0)
(2.89962 0.00743472 0)
(2.73135 0.0177113 0)
(2.2377 0.0452079 0)
(1.11419 0.125929 0)
(0.254999 0.284139 0)
(0.401134 0.374368 0)
(0.581317 0.38972 0)
(0.628387 0.410428 0)
(0.586701 0.437426 0)
(0.520789 0.476254 0)
(0.46055 0.521091 0)
(0.410367 0.568775 0)
(0.35633 0.621018 0)
(0.293215 0.682481 0)
(0.205948 0.753214 0)
(0.0984264 0.826752 0)
(2.99997 9.66881e-07 0)
(2.99991 6.2148e-06 0)
(2.99976 1.93331e-05 0)
(2.99946 5.28904e-05 0)
(2.99869 0.000122821 0)
(2.99712 0.000298178 0)
(2.99279 0.000645529 0)
(2.98447 0.001581 0)
(2.95892 0.00331624 0)
(2.90585 0.00866841 0)
(2.74753 0.0194549 0)
(2.28859 0.0534966 0)
(1.23167 0.140105 0)
(0.373639 0.323541 0)
(0.44823 0.418253 0)
(0.588069 0.431879 0)
(0.640945 0.451841 0)
(0.611383 0.483195 0)
(0.558799 0.525967 0)
(0.506737 0.578175 0)
(0.464192 0.634554 0)
(0.424201 0.701862 0)
(0.379796 0.789307 0)
(0.311562 0.906838 0)
(0.176663 1.09571 0)
(2.99997 1.12215e-06 0)
(2.99992 7.21532e-06 0)
(2.99978 2.24464e-05 0)
(2.9995 6.14435e-05 0)
(2.99878 0.00014274 0)
(2.99732 0.000346837 0)
(2.9933 0.000751437 0)
(2.98556 0.00183848 0)
(2.96182 0.00387819 0)
(2.91299 0.0100362 0)
(2.76599 0.0226799 0)
(2.34603 0.0616555 0)
(1.36251 0.159999 0)
(0.498837 0.373574 0)
(0.493592 0.451028 0)
(0.595771 0.469775 0)
(0.65663 0.489304 0)
(0.639975 0.524802 0)
(0.601131 0.569752 0)
(0.561319 0.626519 0)
(0.532648 0.692305 0)
(0.517905 0.77522 0)
(0.516595 0.882969 0)
(0.550121 1.02677 0)
(0.590587 1.23632 0)
(2.99997 1.28968e-06 0)
(2.99992 8.29941e-06 0)
(2.9998 2.58177e-05 0)
(2.99954 7.07739e-05 0)
(2.99889 0.000164511 0)
(2.99755 0.000400775 0)
(2.99389 0.000869112 0)
(2.98684 0.00213187 0)
(2.9652 0.00451525 0)
(2.92141 0.0116124 0)
(2.78746 0.0265906 0)
(2.41265 0.070816 0)
(1.51967 0.183224 0)
(0.628195 0.433411 0)
(0.532821 0.479955 0)
(0.612446 0.501107 0)
(0.676425 0.51888 0)
(0.672664 0.556668 0)
(0.647006 0.605245 0)
(0.62356 0.665555 0)
(0.615162 0.739131 0)
(0.627669 0.828646 0)
(0.664534 0.937824 0)
(0.76128 1.06895 0)
(0.905638 1.20839 0)
(2.99998 1.44493e-06 0)
(2.99993 9.31324e-06 0)
(2.99982 2.89762e-05 0)
(2.99959 7.96506e-05 0)
(2.99901 0.000185476 0)
(2.99782 0.000453899 0)
(2.99457 0.000987468 0)
(2.98832 0.00243274 0)
(2.96909 0.00518128 0)
(2.93123 0.0131041 0)
(2.81194 0.0311601 0)
(2.48823 0.0789743 0)
(1.70676 0.203647 0)
(0.768823 0.496263 0)
(0.565801 0.512496 0)
(0.630921 0.524964 0)
(0.699183 0.540299 0)
(0.711201 0.580316 0)
(0.698604 0.633008 0)
(0.691238 0.695618 0)
(0.700745 0.769814 0)
(0.733 0.854293 0)
(0.791905 0.948792 0)
(0.900232 1.04952 0)
(1.05298 1.12457 0)
(2.99998 1.51648e-06 0)
(2.99994 9.77461e-06 0)
(2.99985 3.04185e-05 0)
(2.99965 8.36564e-05 0)
(2.99915 0.000194869 0)
(2.99812 0.000477373 0)
(2.99534 0.00103553 0)
(2.99002 0.0025765 0)
(2.9734 0.00530062 0)
(2.94287 0.014322 0)
(2.83871 0.0312758 0)
(2.57117 0.088914 0)
(1.91532 0.216714 0)
(0.915744 0.560327 0)
(0.595399 0.551609 0)
(0.654112 0.550805 0)
(0.729687 0.561868 0)
(0.757189 0.601135 0)
(0.755047 0.654645 0)
(0.758396 0.7156 0)
(0.779893 0.783654 0)
(0.82317 0.857362 0)
(0.890792 0.933298 0)
(0.994853 1.0062 0)
(1.12985 1.05338 0)
(2.99998 1.46289e-06 0)
(2.99995 9.42016e-06 0)
(2.99987 2.93172e-05 0)
(2.9997 8.05071e-05 0)
(2.99928 0.00018742 0)
(2.99842 0.000457844 0)
(2.99611 0.000990569 0)
(2.99155 0.00245865 0)
(2.97815 0.0049977 0)
(2.95257 0.0140694 0)
(2.86989 0.0275426 0)
(2.66248 0.0889028 0)
(2.1436 0.207093 0)
(1.10315 0.570429 0)
(0.662099 0.58703 0)
(0.701457 0.589054 0)
(0.776463 0.591924 0)
(0.814029 0.623944 0)
(0.817349 0.672662 0)
(0.82456 0.728148 0)
(0.850605 0.78728 0)
(0.897584 0.848712 0)
(0.965744 0.908822 0)
(1.06022 0.962098 0)
(1.17685 0.995236 0)
(2.99999 1.31563e-06 0)
(2.99996 8.46304e-06 0)
(2.99989 2.63443e-05 0)
(2.99976 7.21668e-05 0)
(2.99941 0.000168131 0)
(2.9987 0.000408036 0)
(2.99681 0.000888878 0)
(2.99305 0.00214935 0)
(2.98238 0.00456645 0)
(2.96123 0.0116741 0)
(2.89732 0.0245984 0)
(2.74109 0.0700999 0)
(2.3421 0.164 0)
(1.31938 0.46645 0)
(0.765986 0.58953 0)
(0.76593 0.62688 0)
(0.82846 0.634019 0)
(0.875192 0.653779 0)
(0.883186 0.692102 0)
(0.890407 0.738797 0)
(0.915533 0.788084 0)
(0.961014 0.837933 0)
(1.02509 0.885372 0)
(1.10892 0.925575 0)
(1.20913 0.95099 0)
(2.99999 1.14424e-06 0)
(2.99997 7.35028e-06 0)
(2.99991 2.28824e-05 0)
(2.9998 6.25125e-05 0)
(2.99952 0.000145583 0)
(2.99893 0.000351171 0)
(2.99739 0.000766591 0)
(2.99434 0.00182588 0)
(2.98552 0.00392278 0)
(2.96885 0.00944249 0)
(2.9159 0.0214348 0)
(2.79036 0.0526402 0)
(2.45869 0.128662 0)
(1.51819 0.345058 0)
(0.859784 0.615834 0)
(0.809066 0.670384 0)
(0.858984 0.686167 0)
(0.915451 0.691058 0)
(0.937257 0.715419 0)
(0.949206 0.751115 0)
(0.973756 0.790423 0)
(1.0162 0.82983 0)
(1.07459 0.866804 0)
(1.14812 0.897572 0)
(1.23422 0.917556 0)
(2.99999 1.00525e-06 0)
(2.99997 6.45773e-06 0)
(2.99993 2.01022e-05 0)
(2.99984 5.49338e-05 0)
(2.99961 0.000127856 0)
(2.99914 0.000308813 0)
(2.9979 0.00067179 0)
(2.99544 0.00160981 0)
(2.98828 0.00341696 0)
(2.97544 0.00850677 0)
(2.93146 0.0182244 0)
(2.83708 0.0478598 0)
(2.56499 0.114899 0)
(1.75753 0.315066 0)
(1.02441 0.666048 0)
(0.847258 0.704864 0)
(0.877862 0.721593 0)
(0.935433 0.718944 0)
(0.975009 0.733842 0)
(0.996549 0.76121 0)
(1.02317 0.792788 0)
(1.06343 0.823952 0)
(1.11669 0.852645 0)
(1.18166 0.876469 0)
(1.25605 0.892265 0)
(2.99999 8.8618e-07 0)
(2.99998 5.699e-06 0)
(2.99994 1.77451e-05 0)
(2.99987 4.85913e-05 0)
(2.99969 0.000113254 0)
(2.99932 0.000274484 0)
(2.99835 0.000598001 0)
(2.99641 0.00144045 0)
(2.99087 0.00305145 0)
(2.98081 0.00782016 0)
(2.94723 0.0156748 0)
(2.87684 0.0456736 0)
(2.67188 0.101541 0)
(2.04804 0.299073 0)
(1.23775 0.695163 0)
(0.909169 0.736739 0)
(0.911738 0.744187 0)
(0.960575 0.739473 0)
(1.01041 0.744971 0)
(1.03928 0.765975 0)
(1.0671 0.792461 0)
(1.10469 0.818237 0)
(1.15333 0.841158 0)
(1.21126 0.859702 0)
(1.27621 0.872255 0)
(2.99999 7.44362e-07 0)
(2.99998 4.78494e-06 0)
(2.99996 1.48999e-05 0)
(2.9999 4.07667e-05 0)
(2.99977 9.50209e-05 0)
(2.99948 0.000229835 0)
(2.99875 0.000501117 0)
(2.99729 0.00120088 0)
(2.99324 0.00255095 0)
(2.9856 0.00642921 0)
(2.96188 0.0130376 0)
(2.91351 0.0360772 0)
(2.77211 0.082888 0)
(2.35982 0.228947 0)
(1.55929 0.582873 0)
(1.04907 0.736625 0)
(0.987437 0.758919 0)
(1.00855 0.762513 0)
(1.05398 0.759726 0)
(1.08718 0.772844 0)
(1.11351 0.793719 0)
(1.14602 0.814879 0)
(1.18809 0.833283 0)
(1.23887 0.847636 0)
(1.29605 0.857271 0)
(3 5.93539e-07 0)
(2.99999 3.80754e-06 0)
(2.99997 1.18561e-05 0)
(2.99993 3.2319e-05 0)
(2.99982 7.52242e-05 0)
(2.99961 0.000180639 0)
(2.99906 0.000393178 0)
(2.99796 0.000929879 0)
(2.99494 0.00197424 0)
(2.98924 0.00481738 0)
(2.97123 0.00994685 0)
(2.93848 0.0258112 0)
(2.82693 0.0581304 0)
(2.53744 0.154531 0)
(1.87397 0.394827 0)
(1.17176 0.747143 0)
(1.03702 0.783175 0)
(1.04588 0.795473 0)
(1.08823 0.788966 0)
(1.12942 0.789306 0)
(1.1576 0.801433 0)
(1.18642 0.816651 0)
(1.22247 0.830368 0)
(1.26625 0.841018 0)
(1.31594 0.847757 0)
(3 4.73179e-07 0)
(2.99999 3.03553e-06 0)
(2.99998 9.45429e-06 0)
(2.99995 2.57725e-05 0)
(2.99987 6.0023e-05 0)
(2.99971 0.000144076 0)
(2.9993 0.000314004 0)
(2.99849 0.000741134 0)
(2.99626 0.00157559 0)
(2.99199 0.00382925 0)
(2.97894 0.00784065 0)
(2.95538 0.0212446 0)
(2.8749 0.0421843 0)
(2.67645 0.130543 0)
(2.18862 0.307443 0)
(1.37588 0.747224 0)
(1.09496 0.819536 0)
(1.08281 0.829137 0)
(1.11204 0.822847 0)
(1.15805 0.812636 0)
(1.19428 0.814117 0)
(1.22321 0.822228 0)
(1.25516 0.830958 0)
(1.29322 0.837809 0)
(1.33656 0.841858 0)
(3 3.72457e-07 0)
(2.99999 2.38963e-06 0)
(2.99998 7.4425e-06 0)
(2.99996 2.02942e-05 0)
(2.99991 4.72706e-05 0)
(2.99979 0.000113558 0)
(2.9995 0.000247688 0)
(2.99891 0.000585239 0)
(2.99734 0.00124764 0)
(2.99426 0.00301215 0)
(2.98548 0.00631295 0)
(2.96802 0.0163052 0)
(2.91659 0.0337713 0)
(2.79305 0.0962563 0)
(2.47554 0.228839 0)
(1.6748 0.613301 0)
(1.21757 0.818961 0)
(1.13922 0.84288 0)
(1.14827 0.847653 0)
(1.18659 0.836578 0)
(1.22657 0.828889 0)
(1.25724 0.829307 0)
(1.28656 0.833213 0)
(1.31996 0.836873 0)
(1.35803 0.838673 0)
(3 2.8498e-07 0)
(3 1.829e-06 0)
(2.99999 5.69443e-06 0)
(2.99997 1.55223e-05 0)
(2.99993 3.61463e-05 0)
(2.99985 8.67073e-05 0)
(2.99965 0.000189079 0)
(2.99924 0.000445161 0)
(2.99815 0.000949395 0)
(2.99605 0.00226994 0)
(2.98985 0.00479763 0)
(2.97894 0.0118166 0)
(2.94174 0.0258781 0)
(2.86408 0.0660437 0)
(2.64133 0.157534 0)
(1.99421 0.432233 0)
(1.3831 0.815981 0)
(1.1911 0.866488 0)
(1.18232 0.871109 0)
(1.2085 0.861046 0)
(1.24995 0.846489 0)
(1.28575 0.839738 0)
(1.31612 0.838412 0)
(1.34679 0.838795 0)
(1.38047 0.83869 0)
(3 1.97029e-07 0)
(3 1.38978e-06 0)
(2.99999 4.06941e-06 0)
(2.99998 1.1687e-05 0)
(2.99996 2.57825e-05 0)
(2.9999 6.51758e-05 0)
(2.99976 0.00013372 0)
(2.99949 0.000334293 0)
(2.99876 0.000659723 0)
(2.99734 0.00170298 0)
(2.99332 0.00321754 0)
(2.98606 0.00906612 0)
(2.9623 0.0157364 0)
(2.91622 0.0512224 0)
(2.77655 0.0986164 0)
(2.36954 0.312682 0)
(1.69501 0.688132 0)
(1.30969 0.849743 0)
(1.24503 0.872955 0)
(1.24831 0.876251 0)
(1.27958 0.863614 0)
(1.31586 0.851703 0)
(1.34623 0.846343 0)
(1.37511 0.843772 0)
(1.40531 0.841744 0)
(3 1.38388e-07 0)
(3 9.6853e-07 0)
(2.99999 2.8467e-06 0)
(2.99999 8.12981e-06 0)
(2.99997 1.7971e-05 0)
(2.99993 4.51213e-05 0)
(2.99985 9.28482e-05 0)
(2.99964 0.000230104 0)
(2.99922 0.000457697 0)
(2.99809 0.00116197 0)
(2.99593 0.00223628 0)
(2.98954 0.00604374 0)
(2.9779 0.0108067 0)
(2.94031 0.0333418 0)
(2.85646 0.0612978 0)
(2.62208 0.189599 0)
(1.99871 0.467725 0)
(1.44698 0.827489 0)
(1.29383 0.883269 0)
(1.28238 0.891455 0)
(1.30193 0.883546 0)
(1.33889 0.867895 0)
(1.37356 0.858238 0)
(1.40249 0.852772 0)
(1.43054 0.848641 0)
(3 1.0855e-07 0)
(3 6.21973e-07 0)
(3 2.08649e-06 0)
(2.99999 5.31178e-06 0)
(2.99998 1.31791e-05 0)
(2.99995 2.9343e-05 0)
(2.9999 6.87437e-05 0)
(2.99976 0.000147649 0)
(2.99949 0.00034533 0)
(2.99876 0.000730508 0)
(2.99737 0.00174284 0)
(2.99329 0.00365021 0)
(2.98623 0.00907342 0)
(2.96159 0.0191172 0)
(2.91665 0.0491053 0)
(2.77279 0.118657 0)
(2.35637 0.318245 0)
(1.73238 0.712727 0)
(1.39327 0.86709 0)
(1.33376 0.893096 0)
(1.33483 0.897656 0)
(1.36314 0.886469 0)
(1.3994 0.871833 0)
(1.42952 0.863663 0)
(1.45628 0.858016 0)
(3 7.41738e-08 0)
(3 4.24939e-07 0)
(3 1.42514e-06 0)
(2.99999 3.62406e-06 0)
(2.99999 8.97644e-06 0)
(2.99997 1.99597e-05 0)
(2.99994 4.65723e-05 0)
(2.99985 9.98929e-05 0)
(2.99968 0.000231828 0)
(2.99921 0.00048948 0)
(2.99834 0.00115395 0)
(2.99576 0.0023908 0)
(2.99143 0.00594168 0)
(2.97562 0.0117507 0)
(2.9502 0.0328046 0)
(2.8566 0.0674336 0)
(2.61673 0.199162 0)
(2.09369 0.483683 0)
(1.52524 0.849249 0)
(1.37814 0.90689 0)
(1.3635 0.915162 0)
(1.3794 0.909509 0)
(1.4151 0.893309 0)
(1.45137 0.880617 0)
(1.47962 0.871748 0)
(3 5.18729e-08 0)
(3 2.78756e-07 0)
(3 9.76679e-07 0)
(3 2.39288e-06 0)
(2.99999 6.14982e-06 0)
(2.99998 1.31748e-05 0)
(2.99996 3.19879e-05 0)
(2.9999 6.57611e-05 0)
(2.99979 0.000160015 0)
(2.9995 0.000320782 0)
(2.99893 0.000802971 0)
(2.99735 0.00154409 0)
(2.99441 0.00420274 0)
(2.98539 0.00724896 0)
(2.96897 0.0236813 0)
(2.91612 0.0380741 0)
(2.79181 0.136525 0)
(2.47849 0.285145 0)
(1.80718 0.716538 0)
(1.47143 0.882405 0)
(1.40832 0.915765 0)
(1.40719 0.923092 0)
(1.43223 0.914947 0)
(1.46809 0.898822 0)
(1.49851 0.88672 0)
(3 3.22252e-08 0)
(3 1.8462e-07 0)
(3 6.18908e-07 0)
(3 1.57371e-06 0)
(3 3.89417e-06 0)
(2.99999 8.65535e-06 0)
(2.99998 2.0163e-05 0)
(2.99995 4.32432e-05 0)
(2.99987 0.000100122 0)
(2.99973 0.000211757 0)
(2.99934 0.000495806 0)
(2.99865 0.00103881 0)
(2.99639 0.00249131 0)
(2.99309 0.00514958 0)
(2.97875 0.0129826 0)
(2.95822 0.0272157 0)
(2.87078 0.0710694 0)
(2.67333 0.176665 0)
(2.20103 0.425564 0)
(1.61163 0.83688 0)
(1.45076 0.918928 0)
(1.43002 0.934369 0)
(1.44244 0.934567 0)
(1.47455 0.920098 0)
(1.5097 0.90246 0)
(3 1.75542e-08 0)
(3 1.19047e-07 0)
(3 3.56046e-07 0)
(3 9.94809e-07 0)
(3 2.22333e-06 0)
(2.99999 5.42138e-06 0)
(2.99999 1.12559e-05 0)
(2.99996 2.68427e-05 0)
(2.99992 5.39458e-05 0)
(2.99982 0.000130407 0)
(2.99961 0.000254718 0)
(2.99905 0.000644581 0)
(2.99799 0.00117882 0)
(2.99483 0.0034144 0)
(2.98931 0.00552547 0)
(2.9706 0.0197179 0)
(2.93622 0.0313826 0)
(2.82402 0.11661 0)
(2.53569 0.25793 0)
(1.97592 0.640938 0)
(1.57334 0.880529 0)
(1.48486 0.929716 0)
(1.47315 0.941103 0)
(1.48557 0.936617 0)
(1.51457 0.918664 0)
(3 1.2237e-08 0)
(3 7.01841e-08 0)
(3 2.3463e-07 0)
(3 5.96394e-07 0)
(3 1.46806e-06 0)
(3 3.25424e-06 0)
(2.99999 7.52453e-06 0)
(2.99998 1.60711e-05 0)
(2.99995 3.69022e-05 0)
(2.99989 7.77193e-05 0)
(2.99977 0.000180489 0)
(2.99943 0.000376905 0)
(2.99882 0.00089633 0)
(2.99696 0.00184269 0)
(2.99397 0.0046199 0)
(2.98258 0.00931264 0)
(2.96589 0.0252485 0)
(2.89797 0.0532679 0)
(2.74564 0.151275 0)
(2.37927 0.365113 0)
(1.78173 0.771114 0)
(1.54671 0.909633 0)
(1.50295 0.938656 0)
(1.50071 0.941027 0)
(1.51548 0.92769 0)
(3 7.73828e-09 0)
(3 4.43789e-08 0)
(3 1.48395e-07 0)
(3 3.76935e-07 0)
(3 9.27642e-07 0)
(3 2.05538e-06 0)
(2.99999 4.74768e-06 0)
(2.99999 1.01396e-05 0)
(2.99997 2.32131e-05 0)
(2.99993 4.89036e-05 0)
(2.99986 0.000112784 0)
(2.99966 0.00023545 0)
(2.99927 0.000554016 0)
(2.99819 0.00112486 0)
(2.99621 0.00282711 0)
(2.99012 0.00542409 0)
(2.97934 0.0155937 0)
(2.94417 0.0290782 0)
(2.86864 0.0910426 0)
(2.66251 0.20426 0)
(2.12853 0.539945 0)
(1.70728 0.849361 0)
(1.55695 0.927253 0)
(1.52238 0.937264 0)
(1.51807 0.92261 0)
(3 4.92342e-09 0)
(3 2.82197e-08 0)
(3 9.44572e-08 0)
(3 2.39978e-07 0)
(3 5.91956e-07 0)
(3 1.31303e-06 0)
(3 3.0448e-06 0)
(2.99999 6.51533e-06 0)
(2.99998 1.49989e-05 0)
(2.99996 3.16971e-05 0)
(2.99992 7.35975e-05 0)
(2.99981 0.000154415 0)
(2.9996 0.000363522 0)
(2.99901 0.000758343 0)
(2.99794 0.00181924 0)
(2.99471 0.00375671 0)
(2.98918 0.00933318 0)
(2.97084 0.0194724 0)
(2.93532 0.0498576 0)
(2.83083 0.114135 0)
(2.53928 0.303496 0)
(2.03721 0.65654 0)
(1.66929 0.87587 0)
(1.55861 0.919085 0)
(1.51946 0.898012 0)
(3 3.1204e-09 0)
(3 1.73432e-08 0)
(3 5.92773e-08 0)
(3 1.48113e-07 0)
(3 3.7152e-07 0)
(3 8.12161e-07 0)
(3 1.91503e-06 0)
(3 4.03884e-06 0)
(2.99999 9.46787e-06 0)
(2.99998 1.96838e-05 0)
(2.99996 4.67371e-05 0)
(2.9999 9.57041e-05 0)
(2.9998 0.000232569 0)
(2.9995 0.000465853 0)
(2.99898 0.00116945 0)
(2.99727 0.00223967 0)
(2.99481 0.00595822 0)
(2.98408 0.0105631 0)
(2.96979 0.030449 0)
(2.90524 0.0539401 0)
(2.76952 0.164317 0)
(2.44098 0.339666 0)
(1.8604 0.740515 0)
(1.58346 0.868763 0)
(1.47885 0.849127 0)
(3 1.74623e-09 0)
(3 1.00032e-08 0)
(3 3.34389e-08 0)
(3 8.48756e-08 0)
(3 2.08644e-07 0)
(3 4.618e-07 0)
(3 1.06505e-06 0)
(3 2.27195e-06 0)
(3 5.19245e-06 0)
(2.99999 1.0937e-05 0)
(2.99998 2.51446e-05 0)
(2.99997 5.26626e-05 0)
(2.99992 0.000122246 0)
(2.99985 0.000253502 0)
(2.99958 0.000603278 0)
(2.99928 0.00123296 0)
(2.9973 0.00298643 0)
(2.99538 0.00578951 0)
(2.98047 0.0148989 0)
(2.963 0.0282767 0)
(2.87197 0.0769526 0)
(2.67567 0.184033 0)
(2.24359 0.411601 0)
(1.64094 0.74112 0)
(1.37798 0.765714 0)
(3 7.76621e-10 0)
(3 5.00796e-09 0)
(3 1.53782e-08 0)
(3 4.1387e-08 0)
(3 9.38976e-08 0)
(3 2.17554e-07 0)
(3 4.56561e-07 0)
(3 1.01712e-06 0)
(3 2.06408e-06 0)
(3 4.5949e-06 0)
(2.99999 8.91501e-06 0)
(2.99998 2.08173e-05 0)
(2.99997 3.66414e-05 0)
(2.99993 9.51389e-05 0)
(2.99988 0.000145081 0)
(2.99955 0.000451453 0)
(2.99926 0.000605144 0)
(2.9961 0.00258353 0)
(2.99302 0.00349719 0)
(2.97018 0.0183107 0)
(2.93825 0.0211708 0)
(2.80525 0.103603 0)
(2.47964 0.17643 0)
(1.87839 0.440257 0)
(1.23543 0.583632 0)
(3 3.68215e-10 0)
(3 2.05662e-09 0)
(3 6.91055e-09 0)
(3 1.70715e-08 0)
(3 4.12355e-08 0)
(3 8.72351e-08 0)
(3 1.93728e-07 0)
(3 3.85731e-07 0)
(3 8.40159e-07 0)
(3 1.57953e-06 0)
(3 3.53445e-06 0)
(2.99999 5.88564e-06 0)
(2.99998 1.41137e-05 0)
(2.99995 1.92131e-05 0)
(2.99991 4.95801e-05 0)
(2.99971 3.16588e-05 0)
(2.99942 0.000236368 0)
(2.99825 0.000266946 0)
(2.99704 0.00335671 0)
(2.98157 0.00245977 0)
(2.96748 0.0234236 0)
(2.84919 0.0193734 0)
(2.59159 0.118026 0)
(2.02767 0.184539 0)
(1.00975 0.428913 0)
(3 1.50294e-10 0)
(3 8.67172e-10 0)
(3 2.83191e-09 0)
(3 7.12014e-09 0)
(3 1.66617e-08 0)
(3 3.58252e-08 0)
(3 7.61266e-08 0)
(3 1.55277e-07 0)
(3 3.13411e-07 0)
(3 6.34875e-07 0)
(3 1.19723e-06 0)
(2.99999 2.33182e-06 0)
(2.99998 4.1774e-06 0)
(2.99996 6.87013e-06 0)
(2.99989 1.17394e-05 0)
(2.99973 1.06532e-05 0)
(2.99948 3.96796e-05 0)
(2.99929 -4.13653e-05 0)
(2.99515 0.0003388 0)
(2.99162 0.000539581 0)
(2.95577 0.00542645 0)
(2.89669 0.00935203 0)
(2.68505 0.0359682 0)
(2.09821 0.0913646 0)
(1.07535 0.213426 0)
(3 6.15848e-11 0)
(3 3.83431e-10 0)
(3 1.19394e-09 0)
(3 3.12338e-09 0)
(3 7.13196e-09 0)
(3 1.58199e-08 0)
(3 3.32196e-08 0)
(3 6.83931e-08 0)
(3 1.42115e-07 0)
(3 2.83293e-07 0)
(3 5.4844e-07 0)
(2.99999 1.27551e-06 0)
(2.99999 2.40644e-06 0)
(2.99996 6.06052e-06 0)
(2.99991 1.49107e-05 0)
(2.99974 2.59522e-05 0)
(2.99937 0.000106732 0)
(2.99856 1.48094e-05 0)
(2.99764 -0.000267848 0)
(2.98704 0.000966389 0)
(2.9772 0.00165728 0)
(2.87986 0.00722273 0)
(2.68753 0.0243559 0)
(2.1867 0.0393358 0)
(0.891764 0.09083 0)
(3 2.80327e-11 0)
(3 1.6214e-10 0)
(3 5.27874e-10 0)
(3 1.33394e-09 0)
(3 3.04999e-09 0)
(3 6.58039e-09 0)
(3 1.28446e-08 0)
(3 2.60802e-08 0)
(3 4.28273e-08 0)
(3 7.87086e-08 0)
(3 1.14895e-07 0)
(3 1.52106e-07 0)
(2.99999 2.78973e-07 0)
(2.99997 3.74381e-07 0)
(2.99991 1.3028e-06 0)
(2.99982 4.62518e-06 0)
(2.99947 9.82864e-06 0)
(2.99892 4.1235e-05 0)
(2.99617 4.46408e-05 0)
(2.99365 0.000194204 0)
(2.96253 0.00117542 0)
(2.92164 0.00218157 0)
(2.721 0.0121205 0)
(2.15461 0.0281482 0)
(1.09001 0.067899 0)
(3 1.28852e-11 0)
(3 7.16485e-11 0)
(3 2.32968e-10 0)
(3 4.77127e-10 0)
(3 9.79738e-10 0)
(3 6.1425e-10 0)
(3 -3.7327e-10 0)
(3 -1.22569e-08 0)
(3 -4.50863e-08 0)
(3 -1.49667e-07 0)
(3 -4.48697e-07 0)
(2.99999 -1.34478e-06 0)
(2.99999 -3.3252e-06 0)
(2.99996 -1.06445e-05 0)
(2.99991 -2.92655e-05 0)
(2.99975 -6.19488e-05 0)
(2.9994 -0.00022484 0)
(2.9986 -0.00034957 0)
(2.9978 -0.00134128 0)
(2.98826 -0.000548102 0)
(2.97933 0.000241904 0)
(2.89151 0.00280905 0)
(2.71702 0.00900109 0)
(2.24777 0.0190431 0)
(0.991018 0.0575023 0)
(3 1.14693e-11 0)
(3 7.21384e-11 0)
(3 2.15692e-10 0)
(3 5.21984e-10 0)
(3 1.01269e-09 0)
(3 1.71933e-09 0)
(3 2.71883e-09 0)
(3 1.36633e-09 0)
(3 5.18065e-09 0)
(3 -3.19599e-08 0)
(3 3.17454e-08 0)
(2.99999 -1.84103e-07 0)
(2.99998 3.27452e-07 0)
(2.99995 7.88512e-08 0)
(2.99986 3.40639e-06 0)
(2.99963 5.11951e-06 0)
(2.99919 2.96408e-05 0)
(2.99778 5.13868e-05 0)
(2.99601 0.0002209 0)
(2.99531 0.000506025 0)
(2.96622 0.000433938 0)
(2.93108 0.00150905 0)
(2.73929 0.00475417 0)
(2.21388 0.0164629 0)
(1.20297 0.0429901 0)
(3 9.14816e-12 0)
(3 1.11307e-10 0)
(3 2.35354e-10 0)
(3 9.4505e-10 0)
(3 1.53239e-09 0)
(3 6.10153e-09 0)
(3 9.65569e-09 0)
(3 4.15538e-08 0)
(3 6.90898e-08 0)
(3 2.96991e-07 0)
(3 4.85927e-07 0)
(2.99999 2.31459e-06 0)
(2.99999 3.16576e-06 0)
(2.99996 1.75579e-05 0)
(2.99992 2.8405e-05 0)
(2.99977 0.000101886 0)
(2.99945 0.000236491 0)
(2.99879 0.000577769 0)
(2.99827 0.0011294 0)
(2.98849 0.00230711 0)
(2.98046 -0.005741 0)
(2.89882 0.0121968 0)
(2.73465 -0.0393127 0)
(2.2961 0.0200506 0)
(1.06925 -0.0197318 0)
(3 1.15383e-11 0)
(3 6.12206e-11 0)
(3 2.41678e-10 0)
(3 6.41911e-10 0)
(3 2.00899e-09 0)
(3 5.01686e-09 0)
(3 1.46564e-08 0)
(3 3.67285e-08 0)
(3 9.58434e-08 0)
(3 2.49268e-07 0)
(3 5.72311e-07 0)
(3 1.39876e-06 0)
(2.99999 3.19555e-06 0)
(2.99997 6.89795e-06 0)
(2.99994 1.72679e-05 0)
(2.99983 3.57552e-05 0)
(2.99965 7.59603e-05 0)
(2.99868 0.000224226 0)
(2.99781 8.15205e-05 0)
(2.98787 -4.40481e-05 0)
(2.97816 -0.000778799 0)
(2.90003 -0.00208781 0)
(2.74314 0.0014482 0)
(2.32089 0.00701504 0)
(1.0849 0.0270022 0)
(3 -1.66029e-13 0)
(3 -5.44599e-12 0)
(3 -8.17237e-12 0)
(3 -8.69106e-12 0)
(3 6.50654e-11 0)
(3 3.46398e-10 0)
(3 1.15098e-09 0)
(3 3.48075e-09 0)
(3 9.9099e-09 0)
(3 2.33083e-08 0)
(3 6.65639e-08 0)
(3 9.27514e-08 0)
(2.99999 3.3029e-07 0)
(2.99997 4.16287e-07 0)
(2.99995 1.30851e-06 0)
(2.99983 1.93058e-06 0)
(2.99963 3.25297e-06 0)
(2.99879 -1.26792e-05 0)
(2.99799 1.64467e-05 0)
(2.98755 -5.37622e-05 0)
(2.97818 -0.000375679 0)
(2.90036 -0.000924652 0)
(2.74596 0.0015669 0)
(2.32811 0.00278807 0)
(1.10487 0.0179356 0)
(3 -1.69465e-11 0)
(3 -1.00964e-10 0)
(3 -3.39397e-10 0)
(3 -8.57455e-10 0)
(3 -2.12867e-09 0)
(3 -4.53894e-09 0)
(3 -1.16757e-08 0)
(3 -2.39743e-08 0)
(3 -7.21373e-08 0)
(3 -1.71528e-07 0)
(3 -4.47241e-07 0)
(3 -1.17101e-06 0)
(2.99999 -2.20237e-06 0)
(2.99997 -5.70785e-06 0)
(2.99994 -9.16638e-06 0)
(2.99983 -1.75262e-05 0)
(2.99964 -3.65082e-05 0)
(2.99869 -4.64949e-05 0)
(2.99777 -0.00023831 0)
(2.98744 -0.000399436 0)
(2.9772 6.08983e-05 0)
(2.90125 0.000128487 0)
(2.74833 0.00242583 0)
(2.32806 -9.36515e-05 0)
(1.10566 0.00533588 0)
(3 -3.93934e-11 0)
(3 -2.2316e-10 0)
(3 -7.68292e-10 0)
(3 -1.98336e-09 0)
(3 -5.21434e-09 0)
(3 -1.20756e-08 0)
(3 -3.13627e-08 0)
(3 -7.16289e-08 0)
(3 -1.95047e-07 0)
(3 -4.4674e-07 0)
(3 -1.25573e-06 0)
(2.99999 -2.92132e-06 0)
(2.99999 -7.92118e-06 0)
(2.99997 -1.91711e-05 0)
(2.99994 -4.92156e-05 0)
(2.9998 -0.000116765 0)
(2.99961 -0.000279309 0)
(2.99859 -0.000690394 0)
(2.99763 -0.00104396 0)
(2.98787 -0.00390625 0)
(2.9788 0.000496019 0)
(2.90242 -0.015191 0)
(2.7468 0.0346054 0)
(2.30825 -0.0158937 0)
(1.08305 0.0408461 0)
(3 -1.62518e-11 0)
(3 -9.0339e-11 0)
(3 -3.0217e-10 0)
(3 -7.7345e-10 0)
(3 -1.90466e-09 0)
(3 -4.47959e-09 0)
(3 -9.14826e-09 0)
(3 -2.20088e-08 0)
(3 -2.67468e-08 0)
(3 -5.67763e-08 0)
(3 -5.86404e-09 0)
(2.99999 2.26926e-07 0)
(2.99998 2.13334e-07 0)
(2.99994 2.26178e-06 0)
(2.99985 -9.14881e-08 0)
(2.99961 3.81751e-06 0)
(2.99908 -6.99037e-06 0)
(2.99792 -0.00010293 0)
(2.99439 0.000250048 0)
(2.98925 0.000499206 0)
(2.96414 0.000890213 0)
(2.93361 0.0021089 0)
(2.75266 -0.000187362 0)
(2.24245 -0.00241218 0)
(1.17151 -0.0160001 0)
(3 9.07452e-12 0)
(3 4.85486e-11 0)
(3 2.01488e-10 0)
(3 5.49512e-10 0)
(3 1.86717e-09 0)
(3 4.76125e-09 0)
(3 1.57702e-08 0)
(3 3.96456e-08 0)
(3 1.27277e-07 0)
(3 3.17792e-07 0)
(3 9.51192e-07 0)
(2.99999 2.44075e-06 0)
(2.99999 6.54432e-06 0)
(2.99997 1.70657e-05 0)
(2.99994 4.1684e-05 0)
(2.9998 0.000106232 0)
(2.9995 0.000237553 0)
(2.99885 0.000536771 0)
(2.99825 0.00115406 0)
(2.98856 0.00421994 0)
(2.98058 0.000648528 0)
(2.90145 0.0184348 0)
(2.74053 -0.0331962 0)
(2.28074 0.0122584 0)
(1.00345 -0.0569795 0)
(1.1297 1.19179 0)
(1.38942 1.08892 0)
(1.29743 0.9372 0)
(0.747783 0.724717 0)
(-0.106268 0.567864 0)
(-0.2988 0.0265846 0)
(-0.270896 0.0189235 0)
(-0.426549 0.0105171 0)
(-0.538601 0.00936172 0)
(-0.61352 0.0158155 0)
(-0.669911 0.0210915 0)
(-0.727779 0.0233614 0)
(-0.789662 0.0216702 0)
(-0.850111 0.0172622 0)
(-0.904512 0.0114984 0)
(-0.950511 0.00588901 0)
(-0.989844 0.00212858 0)
(-1.02696 0.0011063 0)
(-1.06398 0.000756859 0)
(-1.10002 0.000355341 0)
(-1.13481 -0.000203507 0)
(-1.1687 -0.000423695 0)
(-1.19616 0.000497177 0)
(-1.21124 0.000298625 0)
(-1.21651 -0.000895881 0)
(-1.21674 -0.00260577 0)
(-1.20821 -0.00440905 0)
(-1.18463 -0.00669643 0)
(-1.14514 -0.00957843 0)
(-1.09138 -0.0127123 0)
(-1.02741 -0.0155708 0)
(-0.957839 -0.0177173 0)
(-0.886171 -0.0191126 0)
(-0.814423 -0.0200366 0)
(-0.743321 -0.0208758 0)
(-0.673344 -0.0218711 0)
(-0.605602 -0.0227932 0)
(-0.540292 -0.0240201 0)
(-0.477241 -0.0256473 0)
(-0.416413 -0.0276873 0)
(-0.356828 -0.0304041 0)
(-0.29746 -0.0338537 0)
(-0.237638 -0.0370233 0)
(-0.178719 -0.0388035 0)
(-0.120391 -0.0404572 0)
(-0.0618951 -0.0427927 0)
(-0.00555326 -0.0457617 0)
(0.0725797 -0.047923 0)
(0.106755 -0.0414042 0)
(0.154324 -0.0377718 0)
(0.203142 -0.0354268 0)
(0.250373 -0.0334633 0)
(0.295909 -0.0316773 0)
(0.338355 -0.0297899 0)
(0.379228 -0.0283031 0)
(0.421549 -0.0275742 0)
(0.46437 -0.027245 0)
(0.504968 -0.0261421 0)
(0.543596 -0.0249074 0)
(0.580541 -0.0237264 0)
(0.616147 -0.0227284 0)
(0.650233 -0.0218163 0)
(0.682921 -0.0210073 0)
(0.714103 -0.0202633 0)
(0.743834 -0.0195803 0)
(0.772103 -0.0189549 0)
(0.79894 -0.018373 0)
(0.824416 -0.0178336 0)
(0.848595 -0.0173174 0)
(0.871564 -0.0168145 0)
(0.893439 -0.0163139 0)
(0.91437 -0.015807 0)
(0.934539 -0.0152784 0)
(0.954161 -0.0147201 0)
(0.973451 -0.0141183 0)
(0.992633 -0.0134732 0)
(1.0119 -0.0127887 0)
(1.03142 -0.0120702 0)
(1.05132 -0.0113282 0)
(1.07167 -0.0105689 0)
(1.09252 -0.00980768 0)
(1.11387 -0.00904713 0)
(1.13572 -0.00830045 0)
(1.15801 -0.00757033 0)
(1.1807 -0.00686447 0)
(1.2037 -0.0061856 0)
(1.22694 -0.00554079 0)