/*--------------------------------*- C++ -*----------------------------------*\
  =========                 |
  \\      /  F ield         | OpenFOAM: The Open Source CFD Toolbox
   \\    /   O peration     | Website:  https://openfoam.org
    \\  /    A nd           | Version:  6
     \\/     M anipulation  |
\*---------------------------------------------------------------------------*/
FoamFile
{
    version     2.0;
    format      ascii;
    class       volScalarField;
    location    "93";
    object      p;
}
// * * * * * * * * * * * * * * * * * * * * * * * * * * * * * * * * * * * * * //

dimensions      [0 2 -2 0 0 0 0];

internalField   nonuniform List<scalar> 
918
(
0.535304
1.22168
0.0070192
0.53521
-0.0117251
1.18851
-0.50537
0.630998
0.516456
-0.121683
-0.0856431
0.518507
1.0463
0.813383
-1.16736
-0.0255319
0.631896
-0.418342
0.514523
-0.0942643
0.643571
0.52313
0.525595
0.516379
0.579746
0.765906
0.924169
-0.00362679
0.0121714
0.00687578
-0.0131413
-0.0336713
-0.0310924
1.07162
1.12352
1.1469
0.482944
0.316184
-0.400356
-0.455804
-0.431998
-0.521532
0.631593
0.633016
-0.230211
0.630452
0.629473
0.502133
0.51585
0.516686
0.517809
0.516719
0.517997
0.40092
-0.129097
-0.156299
-0.106233
-0.105844
0.0240627
-0.0871431
-0.0881414
-0.0837257
-0.0854748
0.431955
0.513176
0.509908
0.522779
0.532004
1.16185
1.13576
1.16201
1.0714
1.08932
1.02342
0.996599
0.834547
0.858021
0.79665
0.783002
-1.6191
-2.55886
-0.59418
-0.321157
-0.010916
-0.0272276
-0.0260499
0.62724
0.62968
0.629873
0.632416
1.02871
-0.389965
-0.462633
0.515066
0.513594
0.522648
0.523552
0.518519
0.518516
-0.0910176
-0.090326
-0.0775994
-0.0909021
-0.0887183
0.622859
0.62538
0.515814
0.513255
0.540338
0.564847
0.552287
0.248785
0.589686
0.605319
0.630573
0.776303
0.762894
0.775468
0.899416
0.86734
0.956172
0.978055
0.0144428
-0.00186994
-0.0268554
-0.0240993
-0.0248761
0.478682
0.472242
0.50048
0.486567
0.489612
0.222431
0.0735869
0.397577
0.420619
-0.324702
-0.375646
-0.459073
-0.457161
-0.565107
0.602353
0.63481
0.634225
-0.241407
-0.168815
-0.297186
-0.110948
-0.168599
0.493073
0.499331
0.495403
0.510804
0.504965
0.507392
0.519917
0.517102
0.518695
0.449946
0.576858
0.328069
0.288309
-0.277614
-0.174172
-0.258248
-0.0985309
-0.0971954
0.0343848
0.0631438
0.00899161
-0.00489543
-0.0919077
-0.0892349
-0.0909724
-0.085958
-0.0875699
0.423398
0.410319
0.443207
0.450737
0.49983
0.501225
0.505721
0.503678
0.948536
0.971458
0.976811
0.952757
-3.52862
-6.14526
0.0188319
0.175995
-0.0104301
-0.0120225
-0.00062302
-0.0104981
-0.0015494
-0.00304681
-0.0365606
-0.0372776
-0.0298625
-0.0317928
0.625139
0.626082
0.999091
1.02756
0.969043
0.945088
0.504437
0.506305
0.510923
0.50781
-0.087809
-0.0887728
-0.0881646
0.628217
0.626391
0.62726
0.207248
0.117962
0.300711
0.332038
0.621319
0.609872
0.619862
0.690493
0.72973
0.994763
1.01761
1.00264
1.01447
1.06478
1.08766
1.05291
0.457226
0.468169
0.462428
0.503314
0.501137
0.502077
0.498757
0.499609
0.498328
-0.0369908
-0.405951
0.468856
0.470117
0.462866
0.465308
0.689648
0.773593
0.630431
0.633352
0.633413
-0.0586812
-0.105902
0.235123
0.198386
0.362269
0.397037
0.378754
0.923469
0.882814
0.931237
0.906321
0.870981
0.895443
-0.341289
-2.09577
-1.09476
0.572232
0.37697
0.467901
-0.0209375
-0.0361846
-0.0329343
1.01884
1.0591
0.639904
0.823557
0.778005
0.752253
0.778567
0.84185
0.774453
0.809131
0.839467
0.815072
0.551039
0.479438
0.498161
0.848731
0.903943
0.0799371
8.3372e-05
-0.0227547
0.0851684
0.154801
0.121599
1.03695
0.956311
1.01785
0.513497
0.514451
-0.0220988
-0.0495762
0.518567
0.518276
-0.0239665
-0.0151916
0.48298
-0.933369
0.080424
0.508125
0.497706
0.514568
-0.102829
0.304707
-0.0887458
0.00140899
-0.0309824
0.509085
0.444308
0.401959
-0.0112362
-0.0355166
-0.0865007
-0.213546
0.511235
0.509592
0.513958
0.514775
0.515556
-0.0319724
-0.0320948
-0.0218319
-0.0768842
-0.0698943
-0.0827981
0.477814
0.497871
-0.195811
0.514253
0.516359
0.516051
0.510297
0.51521
0.513857
-0.0272652
-0.0300269
-0.0321312
0.186817
0.329013
0.665432
0.739733
0.614697
0.449091
0.16019
0.603079
0.654524
0.580137
0.710524
0.632638
0.629209
0.147289
0.00319684
0.152062
0.0850289
0.504933
0.504391
0.495222
0.492099
0.509412
0.50709
0.512284
0.509546
0.512715
0.513851
-0.0564042
-0.0855228
-0.102554
-0.146182
0.26264
0.528597
0.2239
0.280161
0.139804
-0.0816098
-0.0806208
-0.0838383
-0.0877257
-0.0513556
-0.0507724
-0.00572473
0.00491059
-0.0112922
-0.0371317
-0.0594881
-0.0512412
-0.0604158
0.502223
0.502083
0.507555
0.516515
0.453958
0.457665
0.423979
0.442729
0.428885
0.368928
0.398593
0.375733
-0.0215195
-0.0130766
-0.0133101
-0.0369028
-0.0361776
-0.0581729
-0.0509748
-0.0496984
-0.047016
-0.0517131
-0.079321
-0.086007
-0.177734
-0.297979
0.948807
0.864764
0.136776
0.501118
0.506797
0.503959
0.508719
0.511911
0.512536
0.510099
0.506586
0.497988
0.499587
0.496187
0.497289
-0.132998
-0.243189
-0.0748528
-0.152151
0.145202
0.612471
0.336175
0.280777
0.265961
0.493707
0.682932
0.589237
0.64275
0.613417
-0.396642
-0.00119145
-0.332365
0.211976
0.209209
0.692766
0.734299
0.751681
0.708683
0.665196
-0.0229089
0.543405
-0.0800639
-0.0279471
0.164687
0.0451479
0.597696
0.618684
0.625245
0.621456
0.625776
0.625698
0.615551
0.602724
0.626313
0.629277
0.488463
0.215035
0.171289
0.125412
0.617553
0.511306
0.561601
0.478719
0.500533
0.502989
0.501964
0.482613
0.489981
0.485636
0.492865
0.496495
0.503887
0.504055
0.499842
0.501812
-0.079431
-0.0883066
-0.0646549
-0.127301
-0.13229
-0.175615
-0.0864522
0.0818687
0.031247
0.231447
0.362634
0.0592707
-0.0556325
-0.0395836
0.0137138
0.169173
0.176384
0.0470651
0.146324
0.11898
0.102681
0.216504
0.217456
-0.0564565
-0.0646712
-0.061683
-0.0682759
-0.0241831
0.0972982
0.0692069
-0.037482
-0.0430466
-0.079184
-0.0824861
0.00173681
-0.044434
-0.0368567
-0.00606474
-0.0649997
-0.039503
-0.0304392
-0.039765
-0.0396812
-0.0385707
0.497049
0.49867
0.498989
0.508672
0.520292
0.534957
0.501724
0.47521
0.466225
0.469323
0.442344
0.45162
0.44683
0.462718
0.484315
0.492686
0.490859
0.493576
0.475553
0.477255
0.462657
0.467275
0.4364
0.417619
0.407413
-0.061102
-0.0286565
-0.0421203
-0.0538273
-0.0285258
-0.0376643
-0.0389443
-0.0198682
-0.0396996
-0.0341678
-0.0442334
-0.0504197
-0.0510566
-0.0804005
0.00167621
-0.181678
-0.230364
-0.283778
0.87459
1.01395
0.789245
0.5801
0.58782
0.821012
0.925189
0.533775
0.703834
0.74379
0.568855
0.860448
0.505088
0.504662
0.502511
0.501673
0.502689
-0.0201992
0.0836607
0.0936064
0.154173
0.269269
0.373916
0.309809
0.195863
0.328151
0.35302
0.609553
0.615814
0.575885
0.596881
0.597025
0.403795
0.484184
0.521591
0.479672
0.554987
0.58673
0.532173
0.575789
0.496909
0.447132
0.438377
0.392731
0.427683
0.408652
0.382909
0.496875
0.473702
0.484523
0.474698
0.496696
0.523001
0.522429
0.541959
0.562311
0.475343
0.420866
0.438025
0.466774
0.422764
0.440483
0.462618
0.184495
0.0860625
0.249024
-0.0783753
0.0051119
0.046765
0.00285615
-0.0381225
0.268421
-0.366926
-0.313184
-0.986767
0.492201
0.820785
0.541175
0.552734
0.623642
0.612078
0.620122
0.618856
0.625124
0.604226
0.61382
0.618456
0.588563
0.609597
0.597199
0.606871
0.491341
0.390842
0.394955
0.325187
0.185629
0.227927
0.416699
0.349658
0.275291
0.267654
0.445258
0.309885
0.389968
0.439333
0.362134
0.298118
0.525715
0.572791
0.565786
0.537695
0.41617
0.44943
0.450528
0.501289
0.545045
0.568475
0.491423
0.49771
0.49862
0.495892
0.494262
0.497383
0.497665
0.499959
0.500103
0.502692
0.502185
-0.0782745
-0.06411
-0.0762124
-0.0850359
-0.0219404
-0.0294397
-0.00114386
-0.0227082
-0.0349791
-0.0294855
-0.0461647
-0.0632152
-0.0612666
-0.0516669
0.0715653
0.0925194
0.0814462
0.0419619
0.23356
0.403499
0.472981
0.341671
0.18609
0.197825
0.28044
0.0256853
0.00527691
-0.00789498
0.0647241
0.0574915
-0.0691453
-0.074538
-0.0717178
-0.0567411
-0.0497605
-0.0761401
-0.0812078
-0.0697942
-0.0762297
-0.0812045
-0.085675
0.476876
0.469797
0.473358
0.465814
0.463995
0.480862
0.485475
0.486556
0.492144
0.494669
0.484236
0.489979
0.494119
-0.0410161
-0.0585219
-0.0577547
-0.0624045
-0.0584492
-0.056325
-0.060489
0.122699
0.0288697
0.0652335
-0.00626163
-0.133295
-0.0740898
0.49644
0.488234
0.475184
0.715313
0.551187
0.470001
0.568578
0.689795
0.270786
0.469512
0.305212
0.880574
0.788422
0.933172
0.549002
0.250589
0.423376
0.430065
0.271521
0.397005
0.334055
0.210245
0.245302
0.281297
0.364891
0.249785
0.229214
-0.0140783
0.168431
0.277243
0.259169
0.385054
0.440877
0.261789
0.176914
0.12264
0.591612
0.607353
0.615106
0.587287
0.607996
0.568596
0.556746
0.572603
0.580592
0.576598
-0.621157
-0.210081
-1.40918
-0.82798
-0.376225
0.520014
0.524934
0.742897
0.642315
0.647128
0.629067
0.58202
0.561344
0.593922
0.604558
0.314398
0.398788
0.385925
0.361979
0.308412
0.251017
0.52378
0.534358
0.554888
0.583849
0.559835
0.58813
0.490188
0.490031
0.488705
0.484958
0.483461
0.486721
0.0165747
-0.00642273
0.025852
0.0147475
-0.00828765
-0.0109673
-0.0495287
-0.0614729
-0.0617562
-0.0576969
-0.0465336
-0.0450076
0.169866
0.107037
0.0180207
0.0596842
-0.00737442
-0.0897379
-0.0922513
-0.000608753
0.10003
0.08123
0.385964
0.652643
0.478568
0.644351
0.44438
0.543467
0.457885
0.431471
0.458325
0.365246
0.456229
0.0583906
-0.144284
-0.198996
0.813887
0.777987
0.555363
0.31581
0.193852
0.481813
0.504637
0.464321
0.496854
0.541648
0.530065
0.0265579
0.110343
0.203264
0.506749
0.278239
0.298026
0.287638
0.455547
0.423297
)
;

boundaryField
{
    wall-4
    {
        type            zeroGradient;
    }
    velocity-inlet-5
    {
        type            zeroGradient;
    }
    velocity-inlet-6
    {
        type            zeroGradient;
    }
    pressure-outlet-7
    {
        type            fixedValue;
        value           uniform 0;
    }
    wall-8
    {
        type            zeroGradient;
    }
    frontAndBackPlanes
    {
        type            empty;
    }
}


// ************************************************************************* //
