/*--------------------------------*- C++ -*----------------------------------*\
  =========                 |
  \\      /  F ield         | OpenFOAM: The Open Source CFD Toolbox
   \\    /   O peration     | Website:  https://openfoam.org
    \\  /    A nd           | Version:  6
     \\/     M anipulation  |
\*---------------------------------------------------------------------------*/
FoamFile
{
    version     2.0;
    format      ascii;
    class       surfaceScalarField;
    location    "93";
    object      phi;
}
// * * * * * * * * * * * * * * * * * * * * * * * * * * * * * * * * * * * * * //

dimensions      [0 3 -1 0 0 0 0];

internalField   nonuniform List<scalar> 
1300
(
3.75095
5.62643
-3.30996
3.75095
-7.75331
5.62643
-4.29151
4.29151
-0.390459
0.390459
1.8765
1.87445
-2.43171
2.43171
-1.68288
1.68288
-2.52556
2.52556
-5.24819
5.24819
-5.06896
5.06896
4.69343
-4.69343
-6.34723
6.34723
-0.965821
0.965821
-3.58372
3.58372
3.17235
-3.17235
-1.75223
1.75223
0.116852
-0.116852
-0.554079
4.30503
3.19687
3.19687
-1.99085
1.99085
-4.87534
4.87534
6.22183
-6.22183
5.20509
-5.20509
-1.89513
-2.53015
1.78855
-11.449
-5.96475
-5.96475
-8.44087
8.44087
-2.81444
2.81199
2.94736
-2.94736
-1.71481
1.71481
-4.30993
0.0184206
-4.30993
4.26052
0.0309897
4.26052
-0.505707
0.115247
-0.505707
3.96486
-3.96486
0.290994
0.099465
0.290994
3.06734
-3.06734
-1.87685
3.75335
1.8741
-1.8721
6.17713
-1.87886
3.75331
-6.04258
6.04258
-2.68067
0.248957
-2.68067
2.19743
0.234282
2.19743
-6.90368
6.90368
-1.77011
0.087232
-1.77011
1.68482
-0.0019442
1.68482
2.88873
-2.88873
-2.62472
0.099167
-2.62472
2.39097
0.134586
2.39097
0.353049
5.27338
-5.97948
8.79147
-5.27338
0.025191
5.21024
0.0379507
5.21024
-5.10547
0.0365122
-5.10547
5.01385
0.0551074
5.01385
4.78025
-0.0868222
4.78025
-4.81495
0.121519
-4.81495
-3.3567
-4.08588
-6.51034
0.16311
-6.51034
-1.03359
0.0677648
-1.03359
0.85967
0.106151
0.85967
-3.73136
3.73136
-3.94425
0.360524
-3.94425
3.1273
0.0450471
3.1273
1.86812
1.88284
5.61907
-5.61907
2.44672
-1.67373
-0.0785029
-1.67373
-1.84793
-3.35716
1.84793
-0.0957037
-0.113843
0.230695
-0.113843
3.15713
0.0397402
3.15713
2.23596
0.155009
-2.23596
0.245108
3.3039
-3.3039
1.32608
0.66477
1.32608
-5.55855
5.55855
4.96231
0.0515392
-4.96231
0.0869736
6.15666
0.0651776
6.15666
-6.207
-0.0148335
-6.207
2.48059
-5.01074
-2.69
6.15629
0.190943
-6.15629
0.191537
2.91898
0.0283825
2.91898
-2.91758
2.91758
-2.98432
0.0369546
-2.98432
-2.13749
0.422675
-2.13749
1.40082
0.313999
1.40082
-4.2255
-0.0844302
-4.2255
-4.10416
0.159911
4.10416
0.156364
1.11626
-1.11626
-0.61378
0.108073
-0.61378
-4.07199
-0.153511
4.07199
-0.107136
-3.90229
-0.062571
-3.90229
-3.02198
0.0376615
3.02198
0.0453644
3.11214
0.0449973
-3.11214
0.0447954
-1.87099
3.75383
-1.87996
3.75407
-5.6798
-0.362783
-5.6798
6.36454
-0.321959
6.36454
3.1054
0.478327
-3.1054
0.424729
2.01195
0.185481
2.01195
-6.87781
-0.0258733
-6.87781
6.9115
-0.00781547
6.9115
1.87287
0.139081
-1.87287
0.102757
1.6726
0.012222
1.6726
2.91659
-0.0278632
2.91659
-2.88226
-0.00646682
-2.88226
2.78876
-2.78876
2.71275
0.0760025
-2.71275
0.0880308
-11.1247
11.1099
-0.0362635
-11.0885
5.17398
5.17398
4.23233
0.547919
4.23233
-5.01307
0.198124
-5.01307
2.66925
-5.35925
3.12937
-6.48607
4.67374
-16.1227
4.27882
-8.3647
6.76264
-6.76264
6.64393
0.118714
-6.64393
0.133584
-1.14694
0.113357
-1.14694
-3.12981
-0.601556
-3.12981
4.36558
-0.634217
4.36558
-3.02732
3.02732
-3.07621
0.0488821
3.07621
0.0510968
1.65678
0.0158229
-1.65678
-0.0169484
0.192495
0.0984994
-0.192495
0.0786522
3.52795
-0.22405
3.52795
-3.0984
-0.205497
-3.0984
-1.23337
0.0864308
1.23337
0.0927094
-5.80739
0.248839
-5.80739
-11.1823
0.093825
-11.1444
-6.11318
-6.11318
2.3277
11.1192
-2.89744
0.0151766
2.89744
0.0215403
2.97432
0.0530011
-2.97432
0.0567428
-2.8559
0.0671413
2.8559
0.0616816
-2.50539
0.367898
-2.50539
-1.01779
1.01779
-1.16414
0.146352
1.16414
0.236675
1.41947
-0.303209
1.41947
0.744427
0.115242
-0.744427
0.130647
-3.84494
-0.0573476
-3.84494
6.60037
-0.235831
6.60037
-2.96888
-0.129524
2.96888
-0.0522856
-0.034721
11.1446
-5.13925
0.0337845
5.13925
-11.2098
11.2436
-3.21024
0.70485
3.21024
1.02209
5.28354
0.275001
-5.28354
0.270475
6.85326
0.0582368
-6.85326
0.0906168
-2.63885
-0.49096
-2.63885
-5.10058
-0.57922
5.10058
-0.734995
-11.4823
-0.202191
11.6845
-11.4272
6.00958
0.14708
-6.00958
11.3907
-0.990194
-0.126068
0.990194
0.0275942
1.76021
-0.340737
1.76021
3.74753
-0.219579
-3.74753
-0.0974118
-6.7645
-0.113312
6.7645
-0.164127
-2.18925
-0.449597
2.18925
-0.429042
-4.2674
4.30714
1.90973
-2.31538
-2.69537
-5.67254
1.8553
1.89853
4.30202
-10.1381
-5.98467
-9.94653
7.21489
-6.94442
-9.31489
9.22807
7.9488
-8.01137
-5.77724
5.82833
6.48483
-6.43946
1.87949
1.87386
8.08376
-7.8348
-15.6823
15.3195
7.65701
-7.56977
15.8127
-15.8386
-17.8512
17.9094
-5.70637
5.80554
-6.74324
6.73677
-6.98015
6.92786
-2.79503
-3.69104
13.1078
-12.9447
8.65967
-8.73817
-8.69233
9.05286
3.38462
0.922512
3.42962
-1.88177
3.76126
-1.87154
3.78127
2.78705
-5.58208
2.5722
-5.26756
4.42038
4.23928
-4.32468
-1.34786
-5.92891
5.95729
-5.80976
5.87144
9.20055
-9.18213
-1.88499
3.75885
-1.86908
3.76761
-3.42281
-2.35443
3.37776
0.924257
8.05511
5.05265
-8.24605
-1.70048
-8.03377
7.81419
-8.21816
8.01266
-0.436122
5.83854
-5.40242
4.43922
-1.65347
7.49201
5.56142
5.75954
5.86072
-5.58572
1.0837
-6.48612
-6.39914
-2.20743
2.31551
2.05423
-1.95477
6.16087
1.78793
6.05373
-5.81425
-2.19712
-5.8716
3.81963
2.0087
3.86851
4.08225
2.40258
4.11991
3.02942
-3.03686
0.00744192
-3.05942
6.08884
0.721983
-5.41385
-4.48959
4.99516
3.0886
5.22944
-5.60322
-2.23158
-5.1785
-9.5891
-6.09316
-10.1683
10.1628
5.15667
9.84084
-11.9428
11.7787
4.8969
2.76011
4.89496
-4.98231
-2.58747
-4.87955
11.6648
-2.65991
-9.00489
-10.3242
-7.52696
10.3321
5.48065
10.9647
6.94472
11.0553
4.42127
7.24353
-9.90192
2.37496
-3.8664
-1.83997
-3.77837
3.66396
2.14158
3.79855
-4.21895
-2.52428
-4.20378
-4.29535
-2.68479
4.32322
2.41355
-4.41786
-3.8003
4.54739
2.38047
4.06193
-10.0466
4.30277
-7.99381
-9.19469
-3.74997
-9.0611
3.58834
2.59709
-6.18542
-1.99375
8.60917
-4.36989
7.26131
-5.22766
-3.51051
-5.24461
-6.98313
-1.7092
-6.82322
-8.90682
8.41585
-9.19601
8.56179
12.4982
-5.63111
-6.86706
-3.96705
-2.47242
3.92225
-0.492632
-3.71005
3.71749
0.0512118
3.83248
4.755
4.26236
-3.88283
-1.92693
-3.82608
3.82197
2.04947
3.88911
6.86717
2.33338
6.89816
-6.63081
-2.55132
-6.71524
9.08274
-8.66007
2.79122
-2.70479
5.38111
2.63156
-5.15706
-2.87671
6.23717
-3.21108
-3.02609
-12.3505
10.782
1.56848
-4.8585
-0.419288
-0.53614
-5.56405
-3.75084
5.44253
0.317011
11.099
7.34821
-5.51467
5.76351
6.16981
6.22135
-0.177794
5.87706
-5.17221
5.27684
-2.7331
-2.54374
5.4888
-5.64231
-1.22644
-5.56809
4.34165
0.411422
1.44306
-1.21236
-1.74361
-0.463818
-1.61297
1.09658
0.957654
1.19508
0.966198
1.34931
-2.94705
0.490212
2.45684
-1.98085
-1.46455
-3.81674
-1.14706
4.9638
5.73966
2.07453
-5.64225
-0.229347
2.54911
-2.44296
-0.837342
-2.9794
2.22269
-3.06004
-3.46037
-1.95708
5.41744
-3.36885
-0.457231
3.31585
0.552663
-3.82827
-2.10064
3.79131
0.328601
-3.129
6.19029
-3.0613
-5.05593
2.52903
3.55981
4.53774
-4.78988
2.4493
2.34058
-1.23007
4.26047
0.968973
4.44595
-7.08414
4.85257
5.74567
3.30719
-6.224
1.0455
-6.03864
8.56253
-7.42073
-1.1418
4.10885
4.45367
7.02811
5.47007
-5.67017
12.6983
-1.17233
-6.2484
7.21096
-3.90378
4.87726
-8.78104
-10.3473
4.09893
-9.18789
11.0793
-1.8914
-3.5886
-8.35417
12.7765
-1.25084
-11.5257
8.59
-4.35903
-4.43324
8.79227
-7.01894
7.0207
-1.9864
-5.03431
-10.1454
-5.69318
10.2587
1.51994
-9.9666
12.3416
-2.72306
4.16463
0.730327
4.17685
3.37373
-5.47258
2.09884
3.64521
-5.63161
2.05032
-7.5229
-6.75312
12.0911
-5.33803
-10.5031
-9.53883
-0.964256
2.5486
9.79296
-9.49332
7.42588
2.06744
3.29785
0.591264
-3.37385
-0.404514
0.231194
4.50792
-4.73911
4.02974
4.18475
3.21598
1.29194
3.84956
2.10773
-3.8711
-0.332675
-4.16873
1.48394
-1.75518
-3.69359
5.17753
-4.06195
0.368359
-2.7416
-3.49231
6.23391
-4.58158
3.03562
3.15468
5.08509
-4.91418
1.42188
-2.39081
-2.52337
2.64007
-4.39525
2.00154
3.17598
4.38202
0.581719
5.91449
6.17666
-8.51157
0.51776
11.2293
-9.52883
2.47823
8.57711
-9.90411
0.365278
-8.69582
0.980825
-5.35071
-5.2046
5.2382
-6.94741
-3.54283
6.26358
0.634583
-6.41994
-0.403278
-6.05177
-2.85504
-6.50137
-3.05092
-6.14508
-8.7211
-1.66921
-7.05189
6.74664
-6.67275
-3.49558
7.40774
1.15405
-7.46536
7.3393
-7.52198
7.18124
0.0951202
3.62237
4.35748
1.88507
-2.3923
4.27737
-5.08578
7.41916
-8.77049
3.68471
4.25488
-6.80621
-4.51561
5.04609
4.03665
5.36009
8.9051
-10.3549
1.44984
-10.6231
11.9628
-1.33964
-16.393
5.76983
-7.48785
2.40658
0.384638
2.51994
0.55084
2.48744
-3.03828
-2.15395
-2.06124
-2.44608
-3.49346
5.93954
1.05877
-3.47749
2.41872
-3.56837
4.62714
-0.0846143
-3.39288
5.17532
-2.68788
5.55996
-3.65298
1.90698
3.54929
5.83896
-2.28967
4.41909
-1.78754
1.95108
-4.24075
-1.54238
-2.95347
5.09504
-3.28044
3.6488
-0.355933
4.00473
-4.04242
0.831341
-0.826444
3.35831
3.60342
4.33242
-3.04048
2.93442
-4.72196
-1.30633
-4.14024
-0.964252
-0.181917
-3.77052
3.95243
5.98938
-6.1713
-5.27524
9.51141
-4.23618
7.69034
-5.43206
-2.25828
-4.28057
-4.3795
3.91267
1.96439
9.65474
0.177452
-5.60951
-4.99476
-3.97267
3.08779
2.18905
-1.70451
3.27299
2.24065
-0.797592
0.398762
0.796315
1.75975
-1.36099
0.337394
1.42236
-0.874967
1.68404
0.86507
-1.79928
0.186316
-1.36997
3.59266
1.08687
-2.04452
0.683534
0.894429
-3.62753
5.10629
-2.73668
-2.36961
6.00072
1.14979
-3.88647
4.41829
-4.00687
2.45769
-3.60475
-1.42878
-5.43565
-3.64773
-2.47942
4.89814
-3.46013
5.53466
1.43777
-5.30531
6.74308
-3.62965
1.67257
-3.04922
3.91429
-0.997492
-2.05173
2.8751
2.54235
-3.14357
0.164168
-0.268471
2.41664
-2.68511
-0.643394
-2.62425
-4.57622
4.90482
-2.10372
4.55302
2.17364
-1.91782
6.47084
1.80752
-3.72534
-3.24841
-3.70564
-1.38476
3.15298
-0.569093
-4.31046
-5.6034
4.17138
0.274571
-7.08767
7.94114
-0.853467
-3.99907
-0.853495
4.96235
-6.10018
0.46857
-4.04985
3.89128
4.86026
5.13483
-11.2954
-0.230262
-6.13871
1.08201
-7.22073
5.53569
-3.56306
7.66198
-10.2893
6.7937
-9.13523
6.52018
-0.700543
6.23805
-4.13921
2.76684
-8.46003
-6.94009
5.60006
-2.83995
6.33038
-3.22926
9.55964
-5.95232
5.38807
4.17157
-1.05127
-4.19334
-5.3874
4.33613
0.000666221
4.17752
4.98722
-2.87949
4.65455
2.26498
-4.65579
-2.13027
-6.48891
1.83311
-3.33423
-1.92254
3.75565
3.16255
3.75381
1.23228
-3.3493
7.25235
-8.21661
-1.91432
-3.29027
5.38086
-1.04472
3.48037
-6.77064
-1.87035
4.73551
-0.723537
-4.01197
0.895605
-4.43844
1.6756
-6.11404
5.27181
-5.67509
2.25379
-9.74164
-5.21157
-5.18398
-2.27683
-5.24515
-7.56077
5.28394
-1.79094
5.54836
-8.49549
7.77195
-3.46728
8.75121
-5.44879
-1.05258
5.87783
1.30341
10.0546
0.167018
-4.68263
-1.94133
3.71494
-1.77361
1.14647
-3.6035
0.111441
2.49958
3.50113
-6.84123
0.0350277
-4.6476
-3.90384
7.94049
5.60757
11.597
1.24202
9.1247
-1.1842
10.3667
4.17588
4.41256
-2.99642
4.44626
0.956018
4.64073
-0.895595
2.80258
1.62435
1.69211
0.750848
2.29399
1.30943
3.12533
0.0870442
-1.9742
4.62854
-8.60121
-0.980972
-8.05329
1.17477
5.43465
-4.25987
2.84645
-0.657394
1.07283
-0.202285
-1.12159
1.32388
-2.74603
-1.91919
-0.496828
-1.6839
2.36744
1.90876
-1.87061
-0.875418
0.325548
-3.97327
3.2792
-3.11503
-0.572688
6.17039
-2.88651
0.201398
-1.21394
-2.42285
-2.88667
2.70035
6.17449
0.296355
3.11319
5.20118
3.10053
0.22104
3.79975
-5.69115
-3.72315
-5.92141
-0.385728
4.57662
1.7671
8.02586
5.93867
4.89395
-1.87669
-10.0933
6.49725
-2.05099
5.15761
-1.14564
-4.96839
5.08335
2.33581
-5.71793
0.0428469
-4.92555
-6.97654
-0.47752
8.24947
-9.5771
8.52452
5.66948
1.3824
-4.42582
-0.758158
4.27947
0.133091
10.4998
-0.918697
-7.02781
7.94651
-4.51595
3.53498
0.674455
2.59853
1.99833
1.34094
-5.68687
-9.94675
-2.06698
-1.56056
-4.43659
0.527214
-2.43597
6.06229
-2.52731
3.80401
5.41919
6.49203
-2.04975
-4.12155
6.28593
-2.48192
4.01011
)
;

boundaryField
{
    wall-4
    {
        type            calculated;
        value           uniform 0;
    }
    velocity-inlet-5
    {
        type            calculated;
        value           uniform -3.75095;
    }
    velocity-inlet-6
    {
        type            calculated;
        value           uniform -5.62643;
    }
    pressure-outlet-7
    {
        type            calculated;
        value           nonuniform List<scalar> 8(3.30996 7.75331 4.42529 9.66044 7.44258 5.17059 5.79863 8.95256);
    }
    wall-8
    {
        type            calculated;
        value           uniform 0;
    }
    frontAndBackPlanes
    {
        type            empty;
        value           nonuniform 0();
    }
}


// ************************************************************************* //
