/*--------------------------------*- C++ -*----------------------------------*\
  =========                 |
  \\      /  F ield         | OpenFOAM: The Open Source CFD Toolbox
   \\    /   O peration     | Website:  https://openfoam.org
    \\  /    A nd           | Version:  6
     \\/     M anipulation  |
\*---------------------------------------------------------------------------*/
FoamFile
{
    version     2.0;
    format      ascii;
    class       volVectorField;
    location    "93";
    object      U;
}
// * * * * * * * * * * * * * * * * * * * * * * * * * * * * * * * * * * * * * //

dimensions      [0 1 -1 0 0 0 0];

internalField   nonuniform List<vector> 
918
(
(0.985049 -0.000715946 0)
(0.00544021 2.96618 0)
(-0.00499029 0.87368 0)
(0.979575 0.00196183 0)
(-0.0144804 2.06307 3.33387e-20)
(-0.00719155 2.9486 -2.54639e-18)
(0.822603 1.12496 4.46565e-19)
(0.115725 0.0849033 -1.40838e-20)
(0.999922 -0.000245771 0)
(0.0930007 0.672089 0)
(0.0178253 0.354129 0)
(0.732505 0.0091952 0)
(0.0101908 2.93182 0)
(0.0032726 2.79442 0)
(-0.00284011 3.17582 8.26829e-19)
(-0.0136742 1.93182 2.47845e-20)
(0.295475 0.046468 9.8588e-19)
(0.234954 1.11104 3.52233e-19)
(0.964311 0.00674371 0)
(-0.00478755 0.336155 0)
(0.0575375 -0.0756086 -6.38953e-19)
(1.00183 -0.00455909 0)
(0.99985 -0.00892563 0)
(0.975169 -0.00605154 0)
(0.593202 0.028094 0)
(0.0207907 2.64503 0)
(-0.0121407 2.91154 9.31588e-19)
(-0.00736457 0.924674 0)
(-0.0368971 1.17138 0)
(-0.00516875 0.892454 0)
(-0.0247537 2.58368 0)
(-0.00535534 2.11413 -2.66287e-20)
(-0.0104353 1.90224 0)
(-0.0219321 2.98768 -9.17056e-23)
(-0.0163816 3.00545 1.97621e-18)
(0.00231043 3.00043 0)
(0.871993 -0.00977105 0)
(0.372262 0.909501 1.65556e-19)
(0.821432 1.14381 -5.58172e-19)
(0.953816 1.01037 5.70288e-19)
(0.68379 1.22671 -1.02085e-19)
(0.697323 1.18637 5.8223e-19)
(0.145233 0.126561 1.3738e-20)
(0.150789 0.0916127 0)
(1.17011 0.533193 0)
(0.111624 0.108108 6.18367e-20)
(0.0901689 0.0696072 -6.41764e-20)
(0.920572 -0.00704549 0)
(1.00027 5.20134e-05 0)
(0.999907 0.000320816 0)
(1.0037 -0.00727968 0)
(1.00088 -0.000949631 0)
(1.00011 -5.26183e-06 0)
(0.0784259 1.83434 -7.60691e-19)
(0.0330588 0.848335 0)
(0.129522 0.762196 0)
(0.0185109 0.787994 0)
(0.0543474 0.588575 0)
(0.00561788 2.03604 0)
(-0.00680746 0.685383 0)
(0.0125021 0.401444 0)
(-0.013089 0.679634 0)
(0.0127344 0.351314 0)
(0.843813 -0.0156348 0)
(0.842282 0.025217 0)
(0.756694 0.00610481 0)
(0.800071 0.0275922 0)
(0.701539 0.019357 0)
(0.0137981 3.00031 9.45193e-19)
(0.0109374 3.00668 0)
(0.00585661 3.00351 0)
(0.0118397 2.99746 1.07274e-23)
(0.00802259 2.95884 -1.40478e-18)
(0.012215 2.98281 0)
(0.00922788 2.90494 0)
(0.0210084 2.9315 2.17004e-24)
(0.00379773 2.8244 0)
(0.0260304 2.91881 0)
(-0.000659141 2.74513 0)
(0.304056 3.56878 0)
(-0.122113 3.65134 0)
(0.148022 3.26634 -7.69502e-19)
(0.00242272 3.00533 0)
(-0.0337787 1.99157 0)
(-0.00783332 2.18113 -2.44442e-20)
(-0.00931173 1.94473 2.55274e-20)
(0.347199 0.138986 -3.4231e-19)
(0.322813 0.0161766 -3.32844e-19)
(0.301124 0.157372 -1.02343e-18)
(0.262233 0.0670238 -6.64996e-19)
(0.265093 1.0263 0)
(0.334874 1.24283 -3.65031e-19)
(0.416708 1.15379 6.02578e-19)
(0.987688 0.00816984 0)
(0.943195 0.00577505 0)
(1.00028 0.000672093 0)
(1.00254 0.00906624 0)
(1.0031 0.00899794 -2.63418e-18)
(0.992135 0.00941177 1.9905e-18)
(-0.0267971 0.702392 0)
(0.000821242 0.341043 0)
(-0.0571993 1.01455 0)
(-0.0396479 0.764582 0)
(-0.0193535 0.34209 0)
(-0.0817065 0.0673793 1.98757e-19)
(0.0332488 0.0527082 0)
(0.993627 -0.00769138 0)
(0.954056 -0.00648441 0)
(0.742011 0.0272886 0)
(0.673397 0.0242783 0)
(0.660146 0.0272375 0)
(0.980823 -0.00244914 0)
(0.583631 0.0682152 0)
(0.453484 -0.00954521 1.49863e-18)
(-0.041115 2.86003 7.24455e-19)
(0.0338748 2.9143 0)
(0.0428008 2.89273 0)
(0.00319007 2.70251 0)
(-0.00874324 2.98643 8.89876e-19)
(-0.0138788 2.89428 0)
(-0.010972 2.99153 -2.74316e-18)
(-0.0116202 2.92903 9.34688e-19)
(-0.054325 1.35312 0)
(-0.0213701 1.38247 0)
(-0.0084131 2.14193 8.80795e-22)
(-0.00830108 2.10013 0)
(-0.0174069 1.9145 0)
(0.938935 -0.00518646 0)
(0.857367 -0.0111684 0)
(0.862625 0.00568907 0)
(0.949713 -0.00613156 0)
(0.883718 -0.00810116 0)
(0.495339 1.10911 -2.10066e-19)
(0.542885 1.17917 0)
(0.334286 0.843849 3.19848e-20)
(0.279374 0.708766 0)
(0.922879 1.03959 -1.6114e-19)
(1.04598 0.849771 3.25031e-19)
(0.395152 1.3217 0)
(0.545894 1.27755 0)
(0.600178 1.2036 0)
(0.104379 0.18006 -2.9918e-19)
(0.171882 0.140494 0)
(0.172599 0.10802 1.84929e-19)
(1.00892 0.903678 0)
(1.0846 0.751317 0)
(1.11432 0.686445 -2.61001e-19)
(1.15051 0.596992 0)
(1.20663 0.391501 4.76119e-20)
(0.957537 -0.00709254 0)
(0.962752 -0.0081074 0)
(0.900945 -0.00737562 0)
(0.983935 -0.00812057 0)
(0.974441 -0.00802905 0)
(0.936559 -0.00656713 0)
(1.0002 0.00250688 0)
(1.00078 0.00123874 0)
(1 0.000759672 0)
(0.0392262 2.08485 4.18542e-19)
(0.142037 1.78167 0)
(0.0171818 2.19053 6.5123e-19)
(0.0519331 1.89045 -5.3446e-19)
(0.168369 1.08612 -2.88991e-19)
(0.0508941 0.93569 0)
(0.123392 0.941149 0)
(0.00625073 0.750156 0)
(0.0315407 0.514184 0)
(-0.00258991 2.26093 -3.1219e-22)
(0.0219957 2.0418 0)
(-0.00508635 2.26253 -1.78953e-21)
(0.00348358 2.05002 -9.44337e-21)
(-0.00207524 0.720305 0)
(-0.00488195 0.700024 0)
(0.0160103 0.450551 0)
(-0.0180705 0.682588 0)
(0.00416646 0.34561 0)
(0.939628 0.0139216 0)
(0.85669 -0.0115278 0)
(0.928763 0.00491002 0)
(0.846383 -0.0127947 0)
(0.809321 0.0013851 0)
(0.898999 0.0206916 0)
(0.875332 0.0230829 0)
(0.782718 0.00196298 0)
(0.0100293 3.06788 -8.78374e-21)
(0.0156401 3.05789 0)
(0.0122905 2.97 0)
(0.00759701 2.87678 0)
(0.892711 3.96061 0)
(1.18593 3.3574 9.32896e-19)
(0.0801876 3.08819 0)
(-0.0181807 2.91674 0)
(-0.0205317 1.41018 0)
(-0.0391501 1.70327 0)
(-0.0284374 1.54049 0)
(-0.0351978 2.54535 -1.56371e-20)
(-0.0212436 2.24519 0)
(-0.0254036 2.38732 0)
(-4.81032e-05 1.97586 4.79011e-22)
(-0.00543975 2.25618 -3.21684e-20)
(-0.0064878 2.21973 -2.61883e-20)
(-0.00541033 1.95956 0)
(0.391117 0.116795 5.24791e-19)
(0.366005 0.00872722 -5.15054e-19)
(0.233645 1.59019 0)
(0.289961 0.770632 -3.21858e-19)
(0.179777 1.68975 -1.05495e-18)
(0.248351 1.22741 1.05532e-18)
(0.901579 0.00588958 0)
(0.966974 0.0107419 0)
(0.974844 0.00988873 0)
(0.922928 0.00584601 0)
(-0.0221016 0.685375 0)
(-0.0222646 0.691924 0)
(0.00501946 0.334266 0)
(0.080003 0.0949393 5.66557e-19)
(0.0563194 0.0695452 -6.62873e-19)
(0.0521761 0.0556851 0)
(1.10871 0.0911252 2.39181e-20)
(1.09231 0.042988 0)
(1.01963 0.0439906 0)
(0.914526 -0.00121639 0)
(0.436829 0.097507 0)
(0.494516 0.0773194 -2.39741e-18)
(0.399378 0.00521101 8.98594e-19)
(0.0102844 2.97708 7.70905e-19)
(-0.033117 2.86108 4.60124e-20)
(0.00828667 3.0536 -1.85523e-20)
(0.0164113 3.04264 6.90494e-19)
(-0.011748 2.9999 3.07569e-20)
(-0.0124554 2.95202 -1.23857e-22)
(-0.0150962 3.01307 -5.7391e-19)
(0.0153363 3.02552 4.08751e-19)
(0.00805863 3.03582 -6.64544e-19)
(0.934813 0.00216783 0)
(0.93958 -0.00109094 0)
(0.848268 -0.0111946 0)
(0.956212 0.0118661 0)
(0.942285 0.01323 0)
(0.881372 0.00559217 0)
(0.91576 0.0174397 0)
(0.925129 0.0149215 0)
(0.836486 0.00322456 0)
(0.668113 1.40729 1.40939e-20)
(0.686234 1.51776 0)
(0.117182 0.285952 6.73492e-20)
(0.213369 0.651227 5.32333e-19)
(0.238797 0.68858 -3.12422e-19)
(0.211775 0.488597 6.20584e-19)
(0.341424 0.832402 1.58356e-18)
(0.136257 0.236824 3.80303e-19)
(0.257935 0.167067 7.05421e-19)
(0.211745 0.160317 1.82309e-19)
(0.22027 0.0937137 3.46642e-19)
(1.19735 0.448699 9.72842e-20)
(1.22162 0.246893 9.46347e-20)
(0.0076556 2.24579 2.43327e-19)
(0.0399325 1.96415 0)
(0.973429 0.0332545 0)
(0.947055 0.0193572 0)
(0.871682 -0.0150029 0)
(0.0130231 3.07339 0)
(0.0166915 2.94393 1.22481e-18)
(0.0137982 2.95658 0)
(0.0056468 2.85018 -1.21535e-18)
(0.00993652 3.08952 2.98996e-19)
(0.0111052 3.08401 0)
(0.705264 1.81305 -1.69012e-19)
(1.23008 2.61735 5.71719e-19)
(0.690006 1.99103 -1.38653e-18)
(0.0217754 2.97595 -6.68477e-19)
(0.0398238 2.99734 0)
(-0.038718 2.87796 0)
(-0.00562324 2.24182 -1.21547e-20)
(-0.00457525 2.26126 6.20564e-20)
(0.000776152 2.01103 -6.57157e-21)
(0.26865 1.40278 1.02396e-18)
(0.288986 0.575 -7.03027e-19)
(0.066262 2.00557 7.35843e-19)
(0.123174 1.87398 -8.85079e-19)
(0.210058 1.54295 9.99932e-20)
(0.00612886 3.12031 -1.65961e-18)
(0.0133471 3.12069 1.82819e-18)
(-0.00524685 2.98047 8.3155e-19)
(-0.00145985 2.97496 -7.9593e-19)
(-0.0175683 2.87702 -8.46969e-19)
(0.0117658 3.10071 -2.21961e-18)
(0.00556202 3.10543 2.25333e-18)
(0.268756 0.697534 0)
(0.219156 0.656903 -1.13676e-18)
(0.0748547 0.210019 5.00293e-19)
(0.347515 0.953485 1.1241e-18)
(0.201111 0.282131 -1.73133e-18)
(1.20001 0.17692 4.7342e-20)
(1.21839 0.306529 0)
(1.19546 0.121898 1.00902e-20)
(0.000246462 2.27066 -1.08036e-21)
(0.0036903 2.25511 0)
(0.0327507 2.00128 0)
(0.313001 1.31745 -3.68223e-19)
(0.354373 1.18006 -7.99167e-19)
(0.234733 0.39414 1.43067e-18)
(1.00644 -0.00967822 0)
(1.00774 -0.00778069 4.84157e-19)
(-0.04801 1.33587 0)
(-0.057343 1.34305 0)
(1.00244 0.00326764 1.33385e-21)
(1.0032 0.00781379 9.93959e-19)
(-0.0264922 2.53244 1.98167e-20)
(-0.029202 2.57486 0)
(0.0399001 3.1721 4.7127e-19)
(0.372076 3.53657 0)
(1.16021 0.695893 -4.95016e-20)
(1.01176 0.0106245 -2.85845e-21)
(1.02089 -0.00898237 0)
(1.00157 0.000291844 1.57513e-22)
(0.119295 1.37832 0)
(0.145482 2.58673 0)
(0.0346239 1.32534 0)
(0.0010169 2.63206 -1.17088e-20)
(-0.0216769 2.57943 -1.53528e-20)
(0.998659 0.0312235 2.80733e-21)
(1.06309 0.00594473 0)
(1.1002 0.0285464 0)
(-0.0374606 1.75076 0)
(-0.0207232 2.57778 0)
(-0.0142667 1.33106 0)
(0.309374 1.49326 -1.71474e-19)
(1.01152 -0.00904898 0)
(1.00971 -0.0129824 0)
(1.00227 0.000932542 6.19933e-19)
(1.00547 -0.00490874 -7.30967e-19)
(1.00113 -0.00086195 0)
(-0.0266017 1.47643 0)
(-0.0149194 1.40057 0)
(-0.0220471 1.43889 0)
(-0.0176759 1.31648 0)
(-0.0340972 1.30659 0)
(-0.0265196 1.28796 0)
(1.03571 -0.00428157 0)
(1.01904 0.0156752 -9.3087e-22)
(0.81405 1.31518 2.82103e-19)
(1.00246 0.000392607 -6.19755e-19)
(1.00339 0.00444207 7.3969e-19)
(1.00126 0.0020897 0)
(1.01104 0.00963106 6.17286e-19)
(1.00682 0.00744313 -7.5129e-19)
(1.0071 0.011105 0)
(-0.0258251 2.6046 0)
(-0.0292977 2.58329 -3.5242e-20)
(-0.0260059 2.59757 2.48284e-20)
(1.24306 0.274376 5.20254e-19)
(1.16382 0.089352 0)
(0.0435022 3.09145 -9.4431e-19)
(0.0519891 2.87408 -6.69482e-20)
(0.102782 3.20174 1.26265e-18)
(0.121086 3.21364 -2.67009e-19)
(0.139936 3.25551 0)
(0.0224872 3.13766 2.59476e-19)
(0.0607349 3.16195 9.40682e-19)
(0.0611377 3.17869 -4.85431e-19)
(0.0268123 3.12947 0)
(0.538531 0.290624 0)
(0.47921 0.303047 0)
(1.14307 0.727743 1.09686e-19)
(1.10733 0.863662 -9.11663e-20)
(1.20012 0.612989 0)
(1.22675 0.546777 0)
(1.01568 0.0120362 -1.14666e-18)
(1.01462 0.0127752 1.44171e-18)
(1.02578 -0.00871336 0)
(1.02411 -0.0102822 0)
(1.00681 0.0032869 0)
(1.01088 0.00422393 0)
(1.00419 0.00222077 0)
(1.00932 0.00633634 0)
(1.00681 0.0050384 0)
(1.00436 0.00525324 0)
(0.109726 1.37754 0)
(0.0962194 1.33424 0)
(0.140692 1.42299 0)
(0.147194 1.40684 0)
(0.14516 2.6111 0)
(0.186265 2.6808 -4.04509e-19)
(0.092574 2.65754 0)
(0.0846549 2.65357 1.73942e-19)
(0.0242813 2.67577 -1.51672e-19)
(0.0202991 1.33454 0)
(0.0309825 1.25149 0)
(0.0237619 1.34978 0)
(0.048221 1.27224 0)
(-0.00122805 1.99365 4.5046e-20)
(-0.0215166 2.60791 -4.65857e-20)
(-0.0051132 2.67483 -4.06308e-20)
(-0.0184804 2.68723 0)
(-0.0239855 2.6137 4.51058e-20)
(-0.0226737 2.60924 4.77257e-20)
(0.00524672 1.98959 -3.51365e-20)
(-0.0103182 2.39775 6.24977e-20)
(-0.0145927 2.4233 4.60571e-20)
(1.0113 0.0403803 1.16215e-18)
(1.00468 0.0214781 -1.44717e-18)
(1.00347 0.0476716 -1.18741e-18)
(0.975771 0.0374738 1.4956e-18)
(1.06475 0.00929756 0)
(1.04995 -0.00641686 0)
(1.09276 0.0379345 0)
(1.07593 0.0151449 0)
(1.07471 0.000551974 0)
(1.14136 0.0798723 0)
(1.11587 0.0465602 0)
(1.11935 0.0374968 0)
(-0.0320985 2.42954 4.23095e-21)
(-0.0234233 2.02565 0)
(-0.0239328 2.22025 0)
(-0.0227104 2.59864 -2.25929e-20)
(-0.0190722 2.60991 7.37931e-22)
(-0.00423826 1.59818 -6.26098e-20)
(-0.0153501 1.52048 6.39832e-20)
(-0.0250128 1.41237 0)
(-0.0298837 1.41864 0)
(-0.0360363 1.40832 0)
(-0.00805483 1.33335 0)
(0.00860626 1.24707 0)
(0.387205 1.51797 2.85948e-19)
(0.4356 1.52226 1.52843e-19)
(0.590796 2.46074 -2.47825e-19)
(0.376071 2.55828 6.8522e-19)
(0.349364 2.04861 7.01421e-20)
(1.02072 -0.00798816 0)
(1.0158 -0.00934606 0)
(1.01486 -0.0132038 0)
(1.00775 -0.000546312 0)
(1.00484 -0.000690585 0)
(1.008 -0.00446363 0)
(1.00954 -0.00342841 0)
(1.01465 -0.0042657 0)
(1.01978 0.0164686 1.12503e-18)
(1.01717 0.0151017 -1.42922e-18)
(1.02013 0.0189597 -1.13378e-18)
(1.01751 0.0173007 1.42119e-18)
(0.77035 1.36186 0)
(0.709002 1.39781 2.45071e-19)
(0.878363 1.24294 1.02513e-19)
(0.914818 1.20242 -1.36054e-19)
(1.1615 2.60677 2.76698e-19)
(0.750358 0.127138 5.85196e-19)
(1.17223 0.108427 0)
(1.21506 0.202885 -4.22424e-19)
(1.19663 0.154565 -1.75846e-20)
(1.01277 0.166844 0)
(0.0752369 3.01831 3.37961e-19)
(0.0813813 2.90321 -1.10868e-18)
(0.0228566 2.36138 7.02493e-19)
(0.159994 -0.273064 -3.06806e-19)
(0.340221 3.44087 -2.52468e-19)
(0.191601 3.33732 0)
(0.222112 3.39253 3.28869e-19)
(0.219767 3.0755 -1.18e-18)
(0.252387 3.19348 0)
(0.00644974 3.12239 4.9144e-20)
(0.0168962 3.13114 -5.66721e-19)
(0.0159109 3.1269 8.34111e-19)
(0.0329336 3.14006 0)
(0.030942 3.14956 0)
(1.25338 2.56948 0)
(0.542349 0.789698 -5.21008e-19)
(1.02764 1.03771 -1.48132e-20)
(0.994455 1.09056 0)
(0.863374 0.972701 -1.05855e-19)
(1.08695 0.913269 2.658e-20)
(0.286229 0.309725 -7.64866e-19)
(0.629725 0.326481 -2.30946e-20)
(0.516852 0.216202 3.92692e-19)
(0.514999 0.313133 2.7968e-20)
(0.37947 0.263187 -1.11588e-18)
(0.583343 0.326537 0)
(0.678942 0.440472 6.77005e-19)
(0.692302 0.453591 0)
(0.542792 0.319929 0)
(0.442114 0.248069 0)
(0.798351 0.659516 3.98849e-19)
(1.25473 0.308556 -4.22568e-19)
(1.24809 0.441027 0)
(1.24809 0.395938 0)
(0.681904 0.186682 5.96629e-19)
(0.847462 0.561538 -3.69868e-19)
(0.768597 0.52143 6.60531e-19)
(0.965372 0.456432 -6.61431e-19)
(1.01853 0.0147888 7.66297e-19)
(1.01709 0.0136885 -7.71653e-19)
(1.01582 0.0143061 0)
(1.0371 -0.00450184 0)
(1.03049 -0.00768209 -7.22417e-19)
(1.02871 -0.0105682 7.14915e-19)
(1.02475 0.0110246 0)
(1.02272 0.0151214 0)
(1.01271 0.00476599 0)
(1.01459 0.00909681 0)
(1.01645 0.00427557 0)
(1.01558 0.00295188 0)
(0.0794504 1.36396 0)
(0.0818126 1.30523 0)
(0.152677 1.4241 4.66012e-20)
(0.277758 1.48943 8.30596e-20)
(0.177027 1.46046 1.87121e-19)
(0.212698 1.45829 -3.02493e-19)
(0.163559 1.43617 0)
(0.144051 1.58969 -7.85919e-20)
(0.142559 1.58269 0)
(0.347736 1.9989 -1.02135e-19)
(0.330489 2.33165 6.23393e-19)
(0.197631 1.47025 6.84712e-20)
(0.27681 1.40512 2.50486e-20)
(0.210176 1.40407 -2.04297e-20)
(0.290918 1.34324 -8.76783e-20)
(0.256944 1.57724 0)
(0.270097 1.62096 9.68117e-20)
(0.0188437 2.24252 -1.39147e-20)
(0.0375424 2.66844 0)
(0.0553877 2.3933 1.01069e-19)
(0.0483507 2.41828 0)
(0.0650537 2.67581 -2.08663e-19)
(0.0428881 2.70227 0)
(0.0276311 1.46549 6.32084e-20)
(0.0320489 1.52256 0)
(0.0350536 1.42508 0)
(0.0273775 1.43399 -7.2199e-20)
(0.00490974 2.65933 5.60985e-21)
(0.0273662 2.68905 1.75312e-19)
(0.0123705 2.73271 8.61315e-22)
(0.00423818 1.84755 -2.89519e-20)
(-0.00391986 1.69966 -1.98999e-20)
(0.0188811 1.31545 0)
(0.0276609 1.22769 0)
(0.0410636 1.59324 -1.07552e-21)
(0.0429099 1.47419 -5.57081e-20)
(0.0257715 1.5584 5.63157e-20)
(0.0536032 1.61552 0)
(-0.0326253 2.26959 1.35763e-19)
(-0.035977 2.54668 -5.74632e-20)
(-0.0214495 2.44735 1.05581e-20)
(-0.00400811 1.86308 3.50927e-20)
(-0.0284972 2.50204 1.504e-20)
(-0.0227587 2.44404 -3.90184e-20)
(1.01826 0.0225583 -7.70917e-19)
(1.01508 0.0289231 7.7416e-19)
(1.01197 0.0183859 0)
(1.0098 0.0711835 1.07576e-18)
(0.990424 0.0613261 -1.21518e-18)
(0.949831 0.056658 1.35919e-18)
(1.01274 0.115908 -1.44262e-19)
(1.04403 -0.00463905 0)
(1.05225 -0.000375291 6.9209e-19)
(1.04034 -0.00814766 -6.91738e-19)
(1.07236 0.0438554 -4.10307e-20)
(1.06502 0.0291483 3.54461e-19)
(1.06422 0.0659421 0)
(1.05442 0.0551117 -1.27683e-19)
(1.03213 0.0439253 0)
(1.02625 0.0387939 0)
(1.02764 0.0136742 0)
(1.024 0.0164045 0)
(1.0407 0.033947 2.62421e-19)
(1.03929 0.0284759 -5.80851e-19)
(1.05309 0.0388317 -2.77597e-19)
(1.04821 0.0387559 -3.0631e-19)
(1.07789 0.0707535 5.85939e-19)
(1.10185 0.0568143 0)
(1.10857 0.0955513 0)
(-0.0305828 2.27556 7.81236e-20)
(-0.033412 2.03032 4.48259e-21)
(-0.028451 2.04039 0)
(-0.0319029 2.44306 -7.77628e-20)
(-0.0300177 2.40186 -8.53903e-21)
(-0.0363531 2.46934 1.03674e-20)
(-0.0219932 2.62134 -4.06385e-20)
(-0.0277459 2.56315 2.32846e-21)
(-0.0260228 2.51697 -1.37463e-20)
(-0.0179197 2.61391 2.59506e-20)
(-0.0217743 2.61648 -3.01873e-20)
(-0.0128829 1.52565 -1.11034e-21)
(-0.00767969 1.64468 -6.48892e-20)
(0.378498 1.45405 -1.22184e-19)
(0.373738 1.38452 1.78057e-20)
(0.650297 1.44552 -2.37134e-19)
(0.525599 1.51512 -1.48506e-19)
(0.579613 1.4742 0)
(0.606462 2.41774 2.17904e-19)
(0.666131 2.42736 3.38078e-19)
(0.420075 2.51096 8.93802e-20)
(0.4002 2.53401 -6.29586e-19)
(0.500582 2.47354 5.688e-19)
(0.552647 2.47104 0)
(0.485571 2.52124 -5.47685e-19)
(0.262234 2.58669 1.10876e-18)
(0.354978 2.56193 -6.07971e-20)
(0.279438 2.64781 -1.54659e-18)
(0.970444 2.38497 7.14255e-19)
(0.847902 2.38555 0)
(1.01142 0.00139917 2.51392e-20)
(1.01537 -0.00515323 -2.05403e-20)
(1.01779 -0.00388473 -3.75462e-19)
(1.01564 -0.00101472 3.74165e-19)
(1.01313 0.00185291 0)
(0.638428 1.30685 0)
(0.683163 1.19202 0)
(0.798461 1.12258 0)
(0.670628 1.14893 0)
(1.19264 2.62228 5.15789e-20)
(1.08488 2.37334 0)
(0.815451 2.16372 3.58488e-21)
(0.820439 2.42624 0)
(0.915281 2.5169 -4.36727e-19)
(0.946579 2.46629 2.91586e-19)
(0.783526 0.165813 0)
(0.724976 0.14946 1.58357e-19)
(0.900231 0.158853 9.27834e-19)
(0.814813 0.142442 -3.47352e-19)
(0.756951 0.0932282 -1.06719e-18)
(1.08811 0.247654 -8.42165e-19)
(0.985799 0.318462 -1.01517e-20)
(0.928713 0.353609 8.12223e-19)
(1.01278 0.261244 6.92583e-19)
(0.929676 0.206839 -1.22197e-18)
(0.887982 0.221898 1.53358e-19)
(0.929266 0.319464 -3.18233e-19)
(0.90484 0.225874 0)
(1.0009 0.209418 5.98144e-19)
(1.05445 0.219696 0)
(1.0521 0.229955 0)
(1.12607 0.125758 2.67743e-19)
(1.06477 0.195754 -1.05611e-20)
(1.07949 0.249633 -1.53418e-19)
(1.11296 0.21283 0)
(1.02219 0.048485 5.92951e-19)
(1.03691 0.0627381 7.40044e-19)
(1.03262 0.0461166 -5.88882e-19)
(1.04135 0.0693508 -4.96246e-19)
(1.015 0.0763314 -7.59556e-19)
(0.985475 0.169512 0)
(0.987578 0.108028 0)
(0.961226 0.0750634 -4.83835e-19)
(0.901253 0.0991903 1.9123e-19)
(1.03899 0.11708 6.86488e-19)
(1.07628 0.138103 -7.83757e-19)
(1.07051 0.181884 7.04821e-19)
(1.03555 0.158118 0)
(1.08642 0.123866 0)
(1.05681 0.113246 -3.21654e-19)
(1.04265 0.109544 -5.57752e-19)
(0.587513 1.07926 1.20163e-19)
(0.608049 1.39716 -2.16053e-20)
(1.14308 2.71447 -2.49096e-19)
(1.19518 3.09871 3.5188e-21)
(1.25035 2.72284 -1.26139e-19)
(1.28929 2.6929 2.18558e-20)
(1.26385 2.31535 -3.84011e-20)
(1.18263 3.00381 -7.60699e-20)
(1.20247 2.96073 2.26985e-19)
(1.1765 3.2515 -1.20423e-19)
(1.39357 2.96447 1.51146e-19)
(1.40472 2.89879 0)
(0.57926 0.814828 -4.80386e-20)
(0.19702 1.21163 4.64754e-19)
(0.529551 0.322306 4.9675e-19)
(0.412515 0.0885162 5.65141e-19)
(0.445954 0.291086 6.31732e-19)
(0.546366 0.415859 -1.02691e-18)
(0.557992 0.397214 8.41858e-19)
(0.449131 0.293473 -3.09296e-19)
(0.269167 0.228513 7.12872e-19)
(0.71406 0.259633 -3.44215e-19)
(0.661539 0.290154 0)
(0.594378 0.196458 7.76921e-21)
(0.729391 0.51614 3.57946e-19)
(0.70195 0.492535 -1.2972e-18)
(0.633873 0.439366 1.19619e-20)
(0.612532 0.418854 0)
(0.722642 0.720993 3.69858e-19)
(0.839305 0.802901 4.08124e-19)
(0.777668 0.853406 -4.7552e-19)
(0.907701 0.824411 -1.50381e-19)
(0.943333 0.86776 -3.49116e-20)
(0.950725 0.875307 3.58047e-20)
(0.883403 0.683031 -6.62214e-19)
(0.95699 0.728903 1.39811e-19)
(1.01323 0.732256 0)
(1.01153 0.707429 -1.78756e-19)
(1.03025 0.343253 2.0968e-19)
(1.15951 0.34332 2.54241e-19)
(1.07469 0.285504 3.44295e-19)
(0.999969 0.390466 -4.19725e-19)
(1.05821 0.49151 0)
(1.14003 0.431943 0)
(0.900027 0.427879 1.81613e-22)
(0.845388 0.324187 0)
(0.892588 0.313817 3.8848e-19)
(0.915034 0.351828 3.20354e-21)
(0.988038 0.502943 1.84692e-18)
(0.920715 0.561992 4.75937e-19)
(0.944007 0.519678 -5.02922e-19)
(0.860787 0.49517 5.35761e-19)
(0.825591 0.470499 3.42162e-19)
(0.802689 0.450781 -3.35178e-19)
(1.02821 -0.000364901 6.20416e-19)
(1.0205 0.000613504 0)
(1.01913 0.00142586 4.0489e-19)
(1.02271 -0.000691399 -9.16528e-19)
(1.02258 0.00462533 4.46481e-19)
(1.02003 0.0116825 -9.34556e-19)
(1.02079 0.0115145 0)
(1.0197 0.0122909 -1.94632e-19)
(1.01661 0.00784419 4.87689e-19)
(1.01669 0.0109698 -2.45317e-19)
(1.01731 0.0106767 1.79708e-19)
(0.0377025 1.3382 0)
(0.0444376 1.40158 0)
(0.0563829 1.34197 0)
(0.0627757 1.276 0)
(0.0907005 1.40644 -6.45728e-20)
(0.0938579 1.38087 1.70496e-20)
(0.0908058 1.5738 3.2472e-21)
(0.109112 1.41435 -3.45905e-20)
(0.0441257 1.4889 4.61472e-20)
(0.0494815 1.48311 -3.63972e-20)
(0.0778686 1.4004 -2.47339e-20)
(0.0637279 1.40231 7.21575e-20)
(0.0616518 1.38559 1.19831e-20)
(0.0477623 1.40367 8.06629e-21)
(0.0986837 2.35582 -1.11377e-19)
(0.0863898 2.40397 0)
(0.158726 2.00721 8.87327e-20)
(0.130901 1.69267 3.08608e-20)
(0.214954 2.01154 -7.8002e-20)
(0.220477 2.4134 0)
(0.231692 2.38419 -6.12267e-19)
(0.296654 2.37019 4.57767e-19)
(0.255086 1.97868 -1.94743e-19)
(0.148761 2.14369 1.38776e-19)
(0.115938 2.24734 0)
(0.0137216 1.84323 -4.29225e-20)
(-0.0053787 2.36366 -7.54592e-22)
(0.00477598 2.12184 0)
(0.00442822 2.42797 -1.6844e-20)
(0.0158961 2.26041 3.20661e-20)
(0.0126698 1.44192 -1.30069e-20)
(0.011197 1.42278 2.19378e-19)
(0.00892195 1.43384 -7.06796e-20)
(0.0218256 1.44327 -6.26889e-20)
(0.0243794 1.46898 0)
(0.00605344 1.41903 0)
(0.00203556 1.31673 -9.13155e-20)
(1.05417e-05 1.4106 2.6769e-20)
(0.0076297 1.40862 0)
(0.0119383 1.30761 -6.90492e-20)
(0.0221676 1.21621 1.38793e-19)
(1.04249 0.0150826 0)
(1.04901 0.0105716 -6.47204e-20)
(1.03919 0.0246158 -4.67936e-19)
(1.04961 0.0234934 0)
(1.05468 0.0227171 0)
(1.03638 0.013083 -6.76003e-21)
(1.03018 0.0134971 7.54119e-19)
(1.03193 0.0175234 9.14151e-19)
(1.02561 0.0211893 0)
(1.02228 0.0218195 0)
(1.03569 0.0259877 4.66914e-19)
(1.02594 0.0283353 0)
(1.02364 0.0282186 0)
(-0.0204328 2.03056 0)
(-0.0116261 1.67135 -2.51337e-21)
(-0.00957472 1.77324 -3.5882e-20)
(-0.0076614 1.41624 0)
(-0.00857045 1.57786 -3.80947e-20)
(-0.0177759 1.49221 2.30203e-20)
(-0.0165173 1.43364 0)
(0.402531 1.61883 0)
(0.367965 1.32272 -2.87023e-20)
(0.275552 1.34636 0)
(0.437771 1.3206 -3.7927e-20)
(0.473533 1.47986 0)
(0.459259 1.4217 4.09938e-20)
(1.0398 2.66576 -1.5174e-20)
(0.984708 2.4039 -8.97086e-19)
(0.94686 2.20482 1.00348e-18)
(0.864628 2.37757 2.42748e-19)
(0.851958 2.48213 0)
(0.921025 2.47709 0)
(0.954241 2.37769 0)
(0.930076 2.3686 -9.39278e-19)
(0.690201 2.44624 -3.79352e-19)
(0.799555 2.42989 -9.78864e-20)
(0.806715 2.40822 7.37717e-20)
(0.703342 2.39855 0)
(0.808711 2.39205 0)
(0.769175 2.4087 -3.67172e-19)
(0.764842 2.4607 0)
(0.633677 1.06982 0)
(0.513969 0.852672 -5.63977e-19)
(0.52302 0.930321 -3.28988e-20)
(0.500847 1.06612 0)
(0.488278 0.972771 8.6129e-19)
(0.805411 0.889089 -1.32273e-19)
(0.809055 1.02396 0)
(0.790509 1.00746 1.81026e-19)
(0.678908 1.02295 0)
(0.670184 0.927413 0)
(1.16156 2.75087 -2.18899e-19)
(1.13679 2.80947 -8.90121e-20)
(0.920973 2.33227 7.46567e-20)
(0.897869 2.31291 -7.57358e-20)
(1.1312 2.72833 0)
(1.08339 2.69612 9.09399e-20)
(1.09842 2.49012 -2.95128e-19)
(0.999885 2.24951 -2.78632e-20)
(0.495372 1.32493 0)
(0.515718 1.07446 -1.0582e-19)
(0.596527 1.18511 0)
(0.84425 0.232741 0)
(0.752722 0.180374 0)
(0.660215 0.140981 0)
(0.851762 0.232211 -6.12671e-19)
(0.739826 0.226666 3.59675e-19)
(0.909812 0.089473 -3.88291e-19)
(0.928051 0.142455 0)
(0.904136 0.149144 1.73071e-19)
(0.838882 0.10946 6.9282e-19)
(0.793945 0.0769378 -4.35653e-19)
(1.09253 3.34175 -6.66061e-19)
(1.16123 3.26581 0)
(1.11049 3.42624 -1.56198e-18)
(0.653367 3.57289 1.29916e-18)
(1.02049 3.07338 1.17799e-19)
(0.534029 0.772235 5.69517e-19)
(0.511274 0.738534 0)
(0.34177 0.320077 -1.42235e-19)
(0.496831 0.630235 8.48252e-19)
(0.569871 0.321339 -1.82743e-19)
(0.525057 0.45453 2.19758e-19)
(0.688338 0.52893 4.5483e-19)
(0.731601 0.567123 0)
(0.672625 0.566099 0)
(0.661237 0.539593 0)
(1.01943 0.616497 8.804e-20)
(0.972678 0.599919 -4.60973e-19)
(0.983274 0.611424 3.51452e-19)
(1.0472 0.55462 -3.3997e-19)
(1.09275 0.523036 0)
(1.09503 0.604743 -8.92727e-20)
(0.885743 0.42511 -7.63479e-19)
(0.872871 0.408612 -9.86806e-19)
(0.798178 0.419432 6.02638e-19)
(0.810467 0.378107 -6.28382e-19)
(0.853267 0.335345 -4.93925e-19)
(0.79617 0.339665 6.04657e-19)
(1.0266 0.00674295 -4.67234e-19)
(1.02623 0.00686618 9.41544e-19)
(1.02998 0.000962446 6.01238e-19)
(1.0342 0.00160449 -7.21943e-19)
(1.03401 0.0119433 0)
(1.02979 0.0120702 -1.1806e-18)
(0.0847966 1.64697 1.04983e-20)
(0.0686696 1.60485 0)
(0.108714 1.70347 4.44635e-20)
(0.119594 1.67356 -3.85696e-20)
(0.0873662 1.57264 -5.93712e-21)
(0.0692475 1.57437 0)
(0.00869404 1.70676 0)
(-0.00663173 1.5288 2.03618e-20)
(-0.00548916 1.47244 -1.82899e-20)
(-0.0123358 1.57563 3.3848e-21)
(-0.00126328 1.89589 3.04895e-20)
(-0.0135456 1.95049 -1.21614e-20)
(0.493213 1.35785 -2.64292e-19)
(0.496042 1.35217 2.89068e-19)
(0.451824 1.31262 -1.23305e-20)
(0.428371 1.29027 7.73344e-21)
(0.631518 1.31378 0)
(0.557383 1.40837 1.15604e-19)
(0.558347 1.41118 -1.12585e-19)
(0.488084 1.30162 1.19002e-20)
(0.528485 1.25326 0)
(0.592852 1.21886 0)
(0.664114 2.40971 5.58599e-19)
(0.659857 2.4397 1.27426e-18)
(0.715033 2.45494 -8.76401e-19)
(0.613539 2.42664 -1.99826e-19)
(0.555312 2.52012 2.74589e-19)
(0.495522 2.48595 -7.09829e-19)
(0.991757 2.38269 -5.65551e-19)
(1.0229 2.40021 0)
(0.949708 2.18807 -6.17488e-19)
(1.05442 2.67711 0)
(1.05326 2.65791 0)
(0.595992 2.2833 -1.20725e-21)
(1.11531 3.06573 6.81792e-20)
(0.99137 2.96141 -1.14586e-19)
(0.313634 0.777292 0)
(0.309575 0.647981 -3.03691e-19)
(0.521041 0.587118 -3.07014e-19)
(0.357715 2.12438 0)
(0.400007 2.74376 -8.29425e-20)
(0.409055 2.47756 0)
(0.731094 0.690041 -7.87177e-19)
(0.79841 0.699754 1.10033e-18)
(0.799233 0.663125 -1.0936e-18)
(0.704101 0.647324 -9.97249e-20)
(0.758214 0.607826 -4.16569e-19)
(0.966078 2.74831 -5.16332e-20)
(1.0118 2.75678 -2.13889e-19)
(0.546038 2.19724 4.51523e-19)
(0.599949 1.72999 -3.55772e-19)
(0.69895 1.84855 -4.98886e-19)
(0.973774 2.38941 -1.38723e-19)
(0.974355 2.34268 3.69733e-19)
(0.640248 1.75556 3.37617e-20)
(0.447176 1.29047 1.75957e-19)
)
;

boundaryField
{
    wall-4
    {
        type            noSlip;
    }
    velocity-inlet-5
    {
        type            fixedValue;
        value           uniform (1 0 0);
    }
    velocity-inlet-6
    {
        type            fixedValue;
        value           uniform (0 3 0);
    }
    pressure-outlet-7
    {
        type            zeroGradient;
    }
    wall-8
    {
        type            noSlip;
    }
    frontAndBackPlanes
    {
        type            empty;
    }
}


// ************************************************************************* //
