/*--------------------------------*- C++ -*----------------------------------*\
  =========                 |
  \\      /  F ield         | OpenFOAM: The Open Source CFD Toolbox
   \\    /   O peration     | Website:  https://openfoam.org
    \\  /    A nd           | Version:  6
     \\/     M anipulation  |
\*---------------------------------------------------------------------------*/
FoamFile
{
    version     2.0;
    format      ascii;
    class       volScalarField;
    location    "51";
    object      p;
}
// * * * * * * * * * * * * * * * * * * * * * * * * * * * * * * * * * * * * * //

dimensions      [0 2 -2 0 0 0 0];

internalField   nonuniform List<scalar> 
918
(
0.530173
1.2504
0.00555928
0.530085
-0.0106227
1.21819
-0.496562
0.661123
0.511307
-0.118369
-0.053404
0.510441
1.07523
0.841225
-1.17434
-0.0121866
0.628353
-0.420161
0.509302
-0.066723
0.686909
0.517996
0.520464
0.511254
0.569413
0.795741
0.952788
-0.00150157
0.00919217
0.00481903
-0.012044
-0.0319497
-0.027269
1.1013
1.15326
1.17643
0.477972
0.311947
-0.394804
-0.44443
-0.4287
-0.520728
0.656556
0.654737
-0.21423
0.663938
0.668308
0.497063
0.5107
0.511537
0.512674
0.511562
0.512849
0.394924
-0.124326
-0.154117
-0.101186
-0.0982184
0.0453763
-0.0577636
-0.0619966
-0.0510739
-0.05147
0.427346
0.506154
0.50307
0.515338
0.524687
1.19058
1.16429
1.19037
1.10098
1.11858
1.05217
1.02511
0.863075
0.887163
0.825325
0.81082
-1.63605
-2.58917
-0.593431
-0.313669
-0.0102184
-0.0125428
-0.0110243
0.622428
0.624001
0.628809
0.633696
1.02864
-0.394034
-0.462808
0.509811
0.508326
0.517522
0.518427
0.513381
0.513389
-0.0587433
-0.0567329
-0.0545323
-0.065407
-0.061831
0.678486
0.67676
0.510694
0.508143
0.533724
0.554941
0.544842
0.247118
0.576184
0.591513
0.659027
0.803476
0.79211
0.804074
0.928405
0.896689
0.983896
1.00561
0.0142096
-0.000826873
-0.0168905
-0.0181169
-0.0175777
0.473725
0.467316
0.49487
0.481584
0.484615
0.216299
0.0646647
0.394743
0.418697
-0.314794
-0.36051
-0.458377
-0.45668
-0.558653
0.588615
0.650946
0.647456
-0.228548
-0.155251
-0.280956
-0.097661
-0.154035
0.488059
0.494275
0.49037
0.505699
0.49988
0.502299
0.514783
0.511955
0.513554
0.455524
0.584403
0.312248
0.286433
-0.279149
-0.173167
-0.261211
-0.0868967
-0.0814767
0.0560739
0.0834638
0.0329454
0.0201277
-0.0717013
-0.0649894
-0.0680333
-0.0507388
-0.0532674
0.418829
0.405873
0.438503
0.445971
0.493821
0.495241
0.499555
0.497604
0.97591
0.999222
1.00506
0.981111
-3.57366
-6.21935
0.0346141
0.195447
-0.0083752
-0.00973788
5.84947e-05
-0.00836863
0.000210211
-0.0022132
-0.0149589
-0.0162055
-0.0125029
-0.0121639
0.619242
0.620632
0.997243
1.02343
0.969573
0.953086
0.499128
0.501031
0.50566
0.502544
-0.0512281
-0.0532486
-0.0502441
0.668957
0.674052
0.672893
0.206517
0.118651
0.297726
0.328643
0.615007
0.59908
0.613012
0.719509
0.758939
1.02265
1.04673
1.0307
1.0436
1.0945
1.11743
1.08261
0.452386
0.463262
0.457565
0.497967
0.495647
0.496661
0.492832
0.493918
0.492464
-0.0476917
-0.422146
0.470397
0.472559
0.460856
0.466522
0.674252
0.757164
0.633954
0.64255
0.640921
-0.0492299
-0.0963751
0.245343
0.217025
0.358412
0.392749
0.374724
0.951715
0.911742
0.959851
0.935159
0.899379
0.923779
-0.359327
-2.13034
-1.12184
0.599987
0.40176
0.494246
0.00354033
-0.0138069
-0.00976802
1.01641
1.05746
0.652794
0.84289
0.795227
0.782058
0.807
0.871893
0.803906
0.838549
0.869415
0.843408
0.541677
0.478744
0.493588
0.833634
0.889853
0.0823769
0.00588885
-0.0177014
0.107103
0.175827
0.144802
1.03354
0.945041
1.00983
0.508382
0.509321
-0.0116117
-0.0316319
0.513427
0.513143
-0.0174821
-0.00725126
0.511714
-0.945396
0.0882158
0.502883
0.492648
0.50942
-0.0886411
0.325964
-0.0577496
0.0300375
-0.00593477
0.50556
0.439512
0.397443
0.000267153
-0.0212978
-0.0583962
-0.223104
0.506122
0.504485
0.508799
0.509625
0.510392
-0.019359
-0.0191356
-0.0131137
-0.0537437
-0.0492572
-0.0604513
0.472842
0.492776
-0.196721
0.509092
0.511184
0.510894
0.505032
0.51001
0.508612
-0.0151208
-0.0207791
-0.0216672
0.187606
0.324569
0.695445
0.770897
0.644924
0.477032
0.179206
0.631305
0.683692
0.609053
0.739177
0.645064
0.656987
0.154523
0.0123048
0.157527
0.090408
0.499762
0.499144
0.490193
0.487087
0.504217
0.501899
0.507098
0.504284
0.507459
0.508626
-0.0455602
-0.0776331
-0.0964758
-0.145692
0.293613
0.548958
0.223141
0.248
0.156281
-0.0494252
-0.0483848
-0.0571175
-0.0631106
-0.012667
-0.0220039
0.0246749
0.0309841
0.0134382
-0.0140315
-0.0214271
-0.0211285
-0.0268204
0.498803
0.498133
0.503932
0.512495
0.449045
0.452752
0.419144
0.437914
0.424116
0.363956
0.394253
0.37128
-0.0107242
0.000616648
-0.00427597
-0.0197821
-0.0184048
-0.0414217
-0.0349533
-0.03116
-0.0283919
-0.0333146
-0.0522115
-0.0523677
-0.186515
-0.303725
0.952504
0.865207
0.1266
0.496043
0.501693
0.498872
0.503532
0.506738
0.50739
0.504976
0.501475
0.492891
0.494284
0.491157
0.492191
-0.136275
-0.244281
-0.0760606
-0.147159
0.138658
0.604664
0.332483
0.278732
0.263904
0.487163
0.700684
0.618434
0.680282
0.67236
-0.399653
0.0100055
-0.329074
0.219502
0.208863
0.721299
0.762492
0.778429
0.736795
0.693395
-0.0383511
0.538451
-0.0711762
-0.0223042
0.166203
0.0527404
0.658602
0.626584
0.632257
0.649393
0.661355
0.640862
0.623516
0.618705
0.645181
0.649494
0.487781
0.216469
0.175055
0.128691
0.616929
0.513863
0.566178
0.48639
0.495313
0.49777
0.496682
0.477628
0.484974
0.480662
0.487732
0.491361
0.498755
0.49896
0.494869
0.496745
-0.0702831
-0.0763722
-0.0717809
-0.135082
-0.134728
-0.178749
-0.0928423
0.0856923
0.034932
0.233829
0.366583
0.0605805
-0.0583436
-0.0424985
0.00921204
0.15928
0.168028
0.0498709
0.163199
0.117492
0.111252
0.199095
0.223639
-0.0357108
-0.0368274
-0.0400762
-0.0461749
0.00664407
0.107249
0.0903783
-0.0100457
-0.0181319
-0.0457602
-0.0467994
-0.011324
-0.0265329
-0.0200959
-0.0051253
-0.0480592
-0.021727
-0.0100609
-0.00965012
-0.013406
-0.0118247
0.492175
0.494342
0.494243
0.502453
0.517284
0.53238
0.494479
0.470245
0.461266
0.464372
0.437388
0.446702
0.441764
0.457601
0.479355
0.488432
0.48574
0.48847
0.470556
0.472307
0.457659
0.462265
0.431461
0.413131
0.402844
-0.0463702
-0.0127569
-0.0258754
-0.0414852
-0.015262
-0.0259252
-0.0161244
0.00137983
-0.0161293
-0.0142615
-0.0232589
-0.0310211
-0.031683
-0.0877224
-0.00415408
-0.18626
-0.237124
-0.288814
0.870382
1.00735
0.781018
0.572505
0.583498
0.822764
0.918363
0.539777
0.718007
0.760736
0.559705
0.846436
0.499923
0.499553
0.497446
0.496638
0.49759
-0.0271814
0.0739782
0.0890839
0.146043
0.263083
0.369723
0.294436
0.181873
0.315716
0.339979
0.601903
0.608648
0.56378
0.586459
0.586268
0.399909
0.481083
0.521838
0.473533
0.5462
0.580154
0.527284
0.569414
0.490393
0.440832
0.432754
0.388903
0.422362
0.403993
0.378711
0.491708
0.468296
0.479293
0.468752
0.490461
0.511728
0.514482
0.539206
0.552724
0.469451
0.417021
0.433584
0.461532
0.418545
0.435546
0.457033
0.167683
0.0718705
0.236299
-0.0911307
-0.00329878
0.0341368
-0.00745011
-0.0513577
0.255294
-0.385046
-0.330897
-1.01189
0.481576
0.852745
0.616826
0.630351
0.659813
0.644271
0.653719
0.663745
0.668435
0.60653
0.618401
0.621461
0.592456
0.619147
0.621323
0.628531
0.491898
0.394967
0.393398
0.328959
0.190995
0.230931
0.421798
0.353651
0.279871
0.273809
0.444076
0.310279
0.38769
0.443134
0.368087
0.301459
0.531961
0.577859
0.568672
0.542293
0.431038
0.462459
0.470808
0.51818
0.55714
0.58428
0.486382
0.4927
0.493637
0.490886
0.489138
0.492262
0.492508
0.494788
0.495103
0.497657
0.49706
-0.0564581
-0.0437927
-0.0621403
-0.0656781
-0.0063237
-0.0202301
-0.00433755
-0.0312748
-0.0218723
-0.0222586
-0.0379847
-0.0543046
-0.0492184
-0.0361745
0.0690038
0.0880096
0.0952412
0.0555782
0.219724
0.413373
0.474262
0.335942
0.194967
0.228016
0.315738
0.00641241
0.0222568
0.00736792
0.0607069
0.039928
-0.0394941
-0.044252
-0.0443819
-0.0341482
-0.0264608
-0.0478324
-0.0466409
-0.0361636
-0.0433731
-0.044728
-0.0476752
0.471915
0.464824
0.468478
0.460865
0.459023
0.475925
0.480333
0.481655
0.487164
0.489793
0.479394
0.485435
0.489455
-0.0162377
-0.0352307
-0.0354127
-0.0298355
-0.0318997
-0.0323966
-0.0357686
0.112165
0.0188488
0.0547162
-0.0156988
-0.141576
-0.082375
0.483613
0.480172
0.473013
0.702558
0.541085
0.45898
0.556756
0.675213
0.258822
0.460453
0.293797
0.871443
0.776533
0.921681
0.541247
0.239291
0.403162
0.415017
0.254832
0.377648
0.329239
0.205997
0.243321
0.272621
0.355751
0.241767
0.220408
-0.021267
0.157526
0.269928
0.251783
0.38085
0.438535
0.245515
0.161368
0.109231
0.580991
0.6002
0.610113
0.582636
0.604907
0.552767
0.543345
0.561053
0.570367
0.564032
-0.648128
-0.236439
-1.43731
-0.845963
-0.394183
0.511405
0.503646
0.735651
0.642111
0.674984
0.658087
0.596757
0.562572
0.606317
0.625704
0.32127
0.410105
0.393506
0.37396
0.317522
0.258012
0.535024
0.542004
0.565691
0.590928
0.566888
0.59371
0.485046
0.48488
0.48364
0.479946
0.478471
0.481611
0.0259645
8.82466e-05
0.0376807
0.0285584
0.00446372
0.00286817
-0.0174049
-0.0291751
-0.0276834
-0.0266147
-0.017342
-0.0155455
0.154847
0.0953164
0.00758898
0.0491346
-0.0160688
-0.0994853
-0.0996319
-0.0122974
0.0865596
0.06901
0.376332
0.646296
0.47232
0.638087
0.435329
0.53586
0.45604
0.429989
0.459299
0.358095
0.446583
0.0220209
-0.177739
-0.234311
0.806876
0.76425
0.551104
0.300576
0.186379
0.483232
0.510726
0.471955
0.496754
0.54908
0.528935
-0.000244813
0.0942701
0.168503
0.477889
0.262311
0.28061
0.271223
0.434199
0.405503
)
;

boundaryField
{
    wall-4
    {
        type            zeroGradient;
    }
    velocity-inlet-5
    {
        type            zeroGradient;
    }
    velocity-inlet-6
    {
        type            zeroGradient;
    }
    pressure-outlet-7
    {
        type            fixedValue;
        value           uniform 0;
    }
    wall-8
    {
        type            zeroGradient;
    }
    frontAndBackPlanes
    {
        type            empty;
    }
}


// ************************************************************************* //
