/*--------------------------------*- C++ -*----------------------------------*\
  =========                 |
  \\      /  F ield         | OpenFOAM: The Open Source CFD Toolbox
   \\    /   O peration     | Website:  https://openfoam.org
    \\  /    A nd           | Version:  6
     \\/     M anipulation  |
\*---------------------------------------------------------------------------*/
FoamFile
{
    version     2.0;
    format      ascii;
    class       volVectorField;
    location    "51";
    object      U;
}
// * * * * * * * * * * * * * * * * * * * * * * * * * * * * * * * * * * * * * //

dimensions      [0 1 -1 0 0 0 0];

internalField   nonuniform List<vector> 
918
(
(0.985048 -0.000711824 0)
(0.00535018 2.96624 0)
(-0.000422577 0.877501 0)
(0.979574 0.00195993 0)
(-0.0128552 2.06635 3.11845e-20)
(-0.0070929 2.94856 -2.61163e-18)
(0.805689 1.1092 4.39283e-19)
(0.220999 0.0922358 -1.4702e-20)
(0.999921 -0.000242732 0)
(0.0851759 0.709519 0)
(0.0126413 0.477585 0)
(0.734353 -0.017888 0)
(0.0101812 2.93163 0)
(0.0038586 2.79435 0)
(-0.00108625 3.18552 8.29451e-19)
(-0.0127325 1.91892 1.16184e-20)
(0.2983 0.022978 9.81213e-19)
(0.229464 1.12049 3.53819e-19)
(0.964422 0.00673316 0)
(-0.00916057 0.436651 0)
(0.0397629 0.128317 -6.90991e-19)
(1.00183 -0.00456361 0)
(0.999851 -0.00893056 0)
(0.97516 -0.00605442 0)
(0.59298 -0.0341649 0)
(0.0219322 2.64461 0)
(-0.0122711 2.91188 9.58068e-19)
(-0.00316422 0.935441 0)
(-0.0234005 1.16647 0)
(-0.00126501 0.906663 0)
(-0.0201062 2.60325 0)
(-0.00369783 2.11694 -2.49074e-20)
(-0.00873314 1.89542 0)
(-0.0221414 2.9876 -9.42454e-23)
(-0.0164962 3.0055 2.02936e-18)
(0.002302 3.0006 0)
(0.871624 -0.00969069 0)
(0.37743 0.919333 1.61924e-19)
(0.804933 1.1264 -5.53609e-19)
(0.938834 0.989085 5.56757e-19)
(0.669188 1.2085 -1.01473e-19)
(0.681973 1.17542 5.80428e-19)
(0.241916 0.170541 1.43431e-20)
(0.227525 0.0753057 0)
(1.14698 0.524489 0)
(0.21334 0.160362 6.54147e-20)
(0.193451 0.0927559 -6.78827e-20)
(0.920478 -0.0070269 0)
(1.00026 7.25616e-05 0)
(0.999909 0.000319044 0)
(1.0037 -0.00728426 0)
(1.00089 -0.000944542 0)
(1.00011 -1.02197e-05 0)
(0.0937596 1.83951 -7.49511e-19)
(0.0346365 0.888184 0)
(0.130246 0.78514 0)
(0.0196969 0.842563 0)
(0.043233 0.640557 0)
(0.00456008 2.01909 0)
(-0.0068083 0.753097 0)
(0.0102629 0.505017 0)
(-0.0036611 0.745451 0)
(0.00642683 0.478515 0)
(0.842163 -0.0157386 0)
(0.838833 0.0340703 0)
(0.766246 -0.00799529 0)
(0.808603 0.0450701 0)
(0.702322 -0.0170617 0)
(0.0139399 3.0002 9.69761e-19)
(0.0111601 3.00593 0)
(0.00626596 3.00388 0)
(0.0118829 2.9971 1.10183e-23)
(0.00825134 2.95876 -1.4413e-18)
(0.012212 2.98298 0)
(0.00905542 2.90486 0)
(0.0212052 2.93165 2.24409e-24)
(0.00410322 2.82378 0)
(0.0259026 2.91873 0)
(-0.00110794 2.74495 0)
(0.30859 3.58388 0)
(-0.122424 3.66702 0)
(0.151503 3.27647 -7.71967e-19)
(0.00500061 3.01097 0)
(-0.0254446 1.99219 0)
(-0.00557668 2.17614 -1.1459e-20)
(-0.00802521 1.93103 1.07418e-20)
(0.385715 0.142782 -3.39992e-19)
(0.314472 -0.000525283 -3.29841e-19)
(0.348936 0.158701 -1.02062e-18)
(0.275112 0.0321621 -6.67562e-19)
(0.26114 1.00749 0)
(0.32606 1.24638 -3.66826e-19)
(0.403015 1.15181 6.04259e-19)
(0.987812 0.00812596 0)
(0.943348 0.00579704 0)
(1.00028 0.000672619 0)
(1.00254 0.00906895 0)
(1.00312 0.00897354 -2.60805e-18)
(0.992134 0.00944732 1.9708e-18)
(-0.0140224 0.759053 0)
(-0.00803482 0.447488 0)
(-0.0469819 1.01823 0)
(-0.0403963 0.810068 0)
(-0.0163009 0.430152 0)
(0.0388747 0.144534 2.13714e-19)
(0.0990718 0.114528 0)
(0.993617 -0.00769764 0)
(0.954024 -0.00647749 0)
(0.749919 0.0490349 0)
(0.683607 0.0553384 0)
(0.660147 -0.0210669 0)
(0.975248 -0.00381055 0)
(0.61004 0.059413 0)
(0.450043 -0.0319526 1.46836e-18)
(-0.0409644 2.86109 7.58029e-19)
(0.0335328 2.91439 0)
(0.0423898 2.89219 0)
(0.00377035 2.70165 0)
(-0.00891196 2.98634 9.1782e-19)
(-0.0142895 2.8947 0)
(-0.0110286 2.99188 -2.82409e-18)
(-0.0115974 2.92965 9.60924e-19)
(-0.0334628 1.33821 0)
(-0.0066222 1.36617 0)
(-0.00701235 2.14013 5.75521e-22)
(-0.00667696 2.0995 0)
(-0.0165863 1.90547 0)
(0.938623 -0.00530153 0)
(0.856807 -0.0110715 0)
(0.863573 0.00528986 0)
(0.949472 -0.0062231 0)
(0.883472 -0.00805714 0)
(0.501591 1.11988 -2.05844e-19)
(0.548869 1.19002 0)
(0.338967 0.853478 3.16495e-20)
(0.282785 0.71817 0)
(0.903255 1.02255 -1.56851e-19)
(1.02364 0.831835 3.12152e-19)
(0.383477 1.3136 0)
(0.529237 1.26613 0)
(0.580957 1.19328 0)
(0.0994456 0.178671 -2.92502e-19)
(0.261426 0.171176 0)
(0.22952 0.0767511 1.88215e-19)
(0.987436 0.886621 0)
(1.06288 0.736055 0)
(1.09216 0.670975 -2.46918e-19)
(1.12956 0.583744 0)
(1.18487 0.3888 4.53688e-20)
(0.957371 -0.00715289 0)
(0.962654 -0.00814213 0)
(0.900786 -0.00735281 0)
(0.98391 -0.00813452 0)
(0.974388 -0.00805271 0)
(0.9365 -0.00655426 0)
(1.0002 0.00250165 0)
(1.00077 0.00124567 0)
(1 0.000765922 0)
(0.0430281 2.08538 4.18152e-19)
(0.144518 1.78301 0)
(0.0174123 2.20277 6.31731e-19)
(0.0528058 1.88801 -5.30017e-19)
(0.166453 1.10143 -2.90322e-19)
(0.0487961 0.966153 0)
(0.12098 0.961472 0)
(0.00835846 0.806717 0)
(0.0225242 0.580364 0)
(-0.00330622 2.25172 -6.40905e-22)
(0.0175733 2.02529 0)
(-0.00460521 2.2515 -2.31186e-20)
(0.00371865 2.03004 3.33431e-20)
(-0.00029876 0.773134 0)
(-0.00216927 0.762901 0)
(0.00988566 0.532376 0)
(-0.00340442 0.748565 0)
(0.00543151 0.471577 0)
(0.938371 0.0134536 0)
(0.854519 -0.0118922 0)
(0.927855 0.00459186 0)
(0.845253 -0.0128438 0)
(0.812196 -0.00216176 0)
(0.898449 0.0229957 0)
(0.872638 0.0283728 0)
(0.788318 -0.00526522 0)
(0.0101748 3.06781 -9.03804e-21)
(0.0151496 3.05883 0)
(0.0124087 2.97026 0)
(0.00767076 2.87667 0)
(0.899163 3.98075 0)
(1.19412 3.37579 9.43619e-19)
(0.0822371 3.0928 0)
(-0.0165672 2.91911 0)
(-0.0104635 1.39066 0)
(-0.0288857 1.69482 0)
(-0.0186723 1.52695 0)
(-0.0303892 2.56143 -1.16674e-20)
(-0.0140094 2.25116 0)
(-0.0196734 2.39844 0)
(0.000745196 1.95628 1.05041e-21)
(-0.00436377 2.24835 -1.35468e-20)
(-0.00507196 2.21298 -1.10617e-20)
(-0.00453699 1.94212 0)
(0.417208 0.119094 5.20276e-19)
(0.343896 -0.00782245 -5.10318e-19)
(0.230683 1.58943 0)
(0.287131 0.754499 -3.20462e-19)
(0.177687 1.68582 -1.05963e-18)
(0.242694 1.21186 1.05973e-18)
(0.901807 0.00603823 0)
(0.967154 0.010553 0)
(0.975004 0.00979354 0)
(0.923098 0.00592275 0)
(-0.0137588 0.756438 0)
(-0.00428132 0.757045 0)
(-0.0020587 0.448424 0)
(0.177697 0.156998 6.0135e-19)
(0.139747 0.143367 -7.11319e-19)
(0.1428 0.100898 0)
(1.10061 0.0883429 2.37907e-20)
(1.0844 0.041071 0)
(1.01485 0.0428963 0)
(0.91043 -0.00229469 0)
(0.454132 0.0959814 0)
(0.517041 0.0705429 -2.35354e-18)
(0.382916 -0.0103115 8.86211e-19)
(0.010918 2.97742 8.02178e-19)
(-0.0324517 2.86179 4.62544e-20)
(0.00854896 3.05326 -1.90727e-20)
(0.0156494 3.04338 7.15655e-19)
(-0.0118207 2.99997 3.16046e-20)
(-0.0123533 2.95225 -1.27573e-22)
(-0.0150315 3.01332 -5.9019e-19)
(0.0142584 3.02672 4.14792e-19)
(0.00758718 3.03471 -6.7399e-19)
(0.934201 0.0019218 0)
(0.93915 -0.00126766 0)
(0.847475 -0.0111372 0)
(0.956488 0.0116067 0)
(0.942661 0.0130536 0)
(0.881817 0.00566257 0)
(0.916114 0.018293 0)
(0.925565 0.0150438 0)
(0.8382 0.00159126 0)
(0.674782 1.4193 2.31384e-20)
(0.692895 1.53006 0)
(0.121454 0.304069 6.74107e-20)
(0.205001 0.645067 5.34234e-19)
(0.238121 0.692588 -3.13084e-19)
(0.219721 0.512552 6.20139e-19)
(0.332943 0.817669 1.54939e-18)
(0.129199 0.230734 3.73139e-19)
(0.322441 0.173296 7.09498e-19)
(0.289089 0.180929 1.83775e-19)
(0.246885 0.0561937 3.51849e-19)
(1.17882 0.438845 8.71417e-20)
(1.20683 0.242917 8.61583e-20)
(0.00722084 2.24424 2.47181e-19)
(0.0388687 1.95063 0)
(0.970327 0.0325373 0)
(0.94503 0.0188697 0)
(0.868619 -0.0155315 0)
(0.0126556 3.07437 0)
(0.0168675 2.94416 1.2648e-18)
(0.0139173 2.95679 0)
(0.0058491 2.84972 -1.25496e-18)
(0.00926537 3.09122 3.09158e-19)
(0.0113946 3.08308 0)
(0.71352 1.82727 -1.74147e-19)
(1.23863 2.63339 5.884e-19)
(0.698299 2.00561 -1.40977e-18)
(0.0222262 2.9762 -6.99253e-19)
(0.0407385 2.99839 0)
(-0.0387255 2.87885 0)
(-0.00547777 2.23077 -1.28762e-20)
(-0.00401403 2.25227 2.29058e-20)
(0.00104314 1.99127 -7.47993e-21)
(0.267468 1.39252 1.02238e-18)
(0.27688 0.546454 -7.019e-19)
(0.0704339 2.00337 7.5122e-19)
(0.123344 1.87066 -9.05892e-19)
(0.207732 1.53277 1.03533e-19)
(0.00806905 3.11947 -1.72255e-18)
(0.0142007 3.12078 1.90334e-18)
(-0.00517281 2.98003 8.61415e-19)
(-0.0011008 2.97491 -8.26968e-19)
(-0.0180509 2.87748 -8.77385e-19)
(0.0125028 3.09897 -2.29742e-18)
(0.00433275 3.10644 2.34089e-18)
(0.257433 0.688296 0)
(0.20992 0.652148 -1.13239e-18)
(0.0707284 0.212851 4.97955e-19)
(0.342414 0.935285 1.10619e-18)
(0.194154 0.273431 -1.70325e-18)
(1.18869 0.173279 4.81478e-20)
(1.20355 0.300689 0)
(1.18428 0.119599 7.85189e-21)
(-0.0017021 2.261 -1.38001e-21)
(0.00229561 2.24815 0)
(0.029091 1.98519 0)
(0.311615 1.31249 -3.66359e-19)
(0.351969 1.16192 -7.93355e-19)
(0.225726 0.382764 1.41572e-18)
(1.00643 -0.00970065 0)
(1.00774 -0.0077974 4.79399e-19)
(-0.0290175 1.31983 0)
(-0.0352326 1.32402 0)
(1.00245 0.00328925 1.36202e-21)
(1.00321 0.0078347 9.8413e-19)
(-0.0216554 2.54675 1.47784e-20)
(-0.0255972 2.58954 0)
(0.0410222 3.17261 4.99968e-19)
(0.377037 3.54733 0)
(1.14824 0.68557 -5.27855e-20)
(1.01189 0.0107316 -2.80868e-21)
(1.02081 -0.00908237 0)
(1.00159 0.000257164 1.56434e-22)
(0.107579 1.36443 0)
(0.140445 2.59274 0)
(0.0237903 1.31525 0)
(-0.00313217 2.63623 1.48759e-20)
(-0.022122 2.58532 3.67149e-21)
(0.997772 0.0273924 2.69659e-21)
(1.06254 0.00552652 0)
(1.09885 0.0278308 0)
(-0.0279349 1.73847 0)
(-0.0172236 2.58804 0)
(-0.00526919 1.31518 0)
(0.29702 1.48329 -1.79422e-19)
(1.01149 -0.00907935 0)
(1.0097 -0.0130005 0)
(1.00229 0.00095105 6.14514e-19)
(1.00548 -0.00492975 -7.23671e-19)
(1.00113 -0.000872229 0)
(-0.0131352 1.4578 0)
(-0.00668471 1.37224 0)
(-0.00996779 1.41658 0)
(-0.00979255 1.30317 0)
(-0.0203131 1.29176 0)
(-0.0101088 1.27434 0)
(1.03548 -0.00445737 0)
(1.01913 0.0150109 -8.96567e-22)
(0.804116 1.30094 2.79207e-19)
(1.00237 0.000372405 -6.13054e-19)
(1.00339 0.00447659 7.32314e-19)
(1.00128 0.00210303 0)
(1.01123 0.00966182 6.10918e-19)
(1.00692 0.00751139 -7.43765e-19)
(1.00722 0.0111837 0)
(-0.0226856 2.61686 0)
(-0.0258689 2.59707 -2.413e-20)
(-0.0229474 2.61068 1.69543e-20)
(1.23762 0.269868 5.1964e-19)
(1.16171 0.0878741 0)
(0.0441698 3.09115 -9.87277e-19)
(0.0509491 2.87267 -6.99104e-20)
(0.103644 3.20126 1.32314e-18)
(0.122556 3.21332 -2.85585e-19)
(0.144008 3.25908 0)
(0.0222694 3.13771 2.72049e-19)
(0.0610441 3.16177 9.83517e-19)
(0.0615611 3.17857 -5.08648e-19)
(0.0267364 3.12927 0)
(0.608613 0.286779 0)
(0.549486 0.319098 0)
(1.12892 0.716889 1.20511e-19)
(1.09605 0.851672 -1.05878e-19)
(1.18792 0.604283 0)
(1.21711 0.538026 0)
(1.01579 0.0120392 -1.13484e-18)
(1.01474 0.0127993 1.42677e-18)
(1.02562 -0.00878424 0)
(1.02395 -0.0103501 0)
(1.00667 0.00301046 0)
(1.01091 0.00419372 0)
(1.00432 0.00218804 0)
(1.00949 0.00641844 0)
(1.00692 0.00505306 0)
(1.00449 0.00530671 0)
(0.0966897 1.36184 0)
(0.0793534 1.33737 0)
(0.132106 1.40954 0)
(0.13394 1.40787 0)
(0.150826 2.61692 0)
(0.192189 2.6831 -4.13993e-19)
(0.106062 2.67676 0)
(0.0810636 2.67746 1.69296e-19)
(0.0272832 2.68051 -1.6859e-19)
(0.0151319 1.32202 0)
(0.0162835 1.25378 0)
(0.0165731 1.33641 0)
(0.0332023 1.28204 0)
(-0.00116128 1.9923 1.43732e-20)
(-0.0217842 2.61331 -1.96355e-20)
(-0.00976584 2.67839 -4.19965e-21)
(-0.0204255 2.69079 0)
(-0.0233362 2.62006 -3.10546e-21)
(-0.0220163 2.61547 1.89772e-20)
(0.00677796 1.99059 -9.33537e-21)
(-0.00922121 2.40651 2.63439e-20)
(-0.0146408 2.42869 4.7613e-21)
(1.00952 0.0388774 1.15164e-18)
(1.00522 0.0175894 -1.43422e-18)
(1.00258 0.0447428 -1.17847e-18)
(0.975101 0.0317057 1.48438e-18)
(1.06415 0.0088005 0)
(1.04951 -0.00660946 0)
(1.09179 0.0363856 0)
(1.07507 0.0143755 0)
(1.07376 0.000412853 0)
(1.14014 0.0774436 0)
(1.1141 0.0445897 0)
(1.11665 0.0368625 0)
(-0.0259185 2.43927 2.19422e-21)
(-0.0154709 2.01856 0)
(-0.0167366 2.22239 0)
(-0.0193431 2.60869 -1.2273e-20)
(-0.0165993 2.61901 3.43519e-22)
(0.00343821 1.57467 -4.38105e-20)
(-0.00398218 1.50026 4.47281e-20)
(-0.0159841 1.39086 0)
(-0.019872 1.39662 0)
(-0.024772 1.39031 0)
(-0.00320902 1.31698 0)
(0.00867199 1.24583 0)
(0.377139 1.50554 3.00571e-19)
(0.425372 1.51005 1.56169e-19)
(0.604675 2.46609 -2.45651e-19)
(0.386571 2.56994 6.94384e-19)
(0.351967 2.06497 6.91178e-20)
(1.02063 -0.0080562 0)
(1.01575 -0.00939359 0)
(1.01482 -0.0132426 0)
(1.00767 -0.00061917 0)
(1.00491 -0.000652805 0)
(1.00798 -0.00452838 0)
(1.00953 -0.00350446 0)
(1.01461 -0.00436392 0)
(1.01989 0.0160355 1.11339e-18)
(1.01744 0.0147399 -1.4081e-18)
(1.02029 0.0182612 -1.12283e-18)
(1.01797 0.0167693 1.40209e-18)
(0.759118 1.34781 0)
(0.698472 1.38279 2.48057e-19)
(0.867167 1.22828 1.00512e-19)
(0.903688 1.18694 -1.33396e-19)
(1.16695 2.61902 2.5915e-19)
(0.767887 0.123409 5.76225e-19)
(1.16933 0.104795 0)
(1.2103 0.197519 -4.21178e-19)
(1.19107 0.153417 -1.74871e-20)
(1.01451 0.162534 0)
(0.0808487 3.02115 3.47168e-19)
(0.0847483 2.90441 -1.16959e-18)
(0.0301884 2.36389 7.41515e-19)
(0.134968 -0.162331 -3.51845e-19)
(0.345059 3.45035 -2.52075e-19)
(0.195194 3.34281 0)
(0.225918 3.40091 3.28357e-19)
(0.2258 3.07956 -1.21782e-18)
(0.258844 3.19903 0)
(0.00662049 3.12254 5.11873e-20)
(0.0177616 3.13114 -5.87525e-19)
(0.0163213 3.12702 8.64739e-19)
(0.0330076 3.13987 0)
(0.0308213 3.14971 0)
(1.26188 2.5846 0)
(0.533105 0.802978 -5.19591e-19)
(1.01618 1.02281 -9.27395e-21)
(0.980634 1.07487 0)
(0.850299 0.960947 -1.05752e-19)
(1.07294 0.90008 2.66261e-20)
(0.382136 0.344007 -8.63878e-19)
(0.677927 0.310523 -2.30095e-20)
(0.607298 0.221322 3.97278e-19)
(0.574109 0.345917 2.93792e-20)
(0.477541 0.313522 -1.18021e-18)
(0.638709 0.316124 0)
(0.696708 0.413652 6.66381e-19)
(0.698731 0.419213 0)
(0.611381 0.337859 0)
(0.550439 0.265213 0)
(0.786176 0.647136 3.91974e-19)
(1.24689 0.301058 -4.24684e-19)
(1.2377 0.433254 0)
(1.24061 0.389413 0)
(0.716475 0.183564 5.98639e-19)
(0.836173 0.547181 -3.7341e-19)
(0.756 0.509339 6.64135e-19)
(0.956429 0.436228 -6.80914e-19)
(1.01861 0.0145789 7.54716e-19)
(1.01721 0.0136062 -7.62967e-19)
(1.01607 0.0141981 0)
(1.03683 -0.00466979 0)
(1.03029 -0.00777317 -7.15268e-19)
(1.02846 -0.0106669 7.07867e-19)
(1.02476 0.0106988 0)
(1.02281 0.0147495 0)
(1.01265 0.00458353 0)
(1.01455 0.00910148 0)
(1.01623 0.00409904 0)
(1.01547 0.00284686 0)
(0.0647961 1.35579 0)
(0.0654427 1.31756 0)
(0.140736 1.40647 5.50942e-20)
(0.269219 1.47718 8.61347e-20)
(0.164311 1.44858 1.88052e-19)
(0.192499 1.45316 -3.06012e-19)
(0.148382 1.4143 0)
(0.134028 1.58505 -8.13488e-20)
(0.134939 1.5776 0)
(0.345913 2.02215 -1.00615e-19)
(0.332819 2.34268 6.19584e-19)
(0.192408 1.45627 7.09105e-20)
(0.266403 1.38335 2.65979e-20)
(0.198436 1.38176 -2.16904e-20)
(0.280657 1.32274 -8.00184e-20)
(0.254273 1.5796 0)
(0.26153 1.62809 9.05241e-20)
(0.0246441 2.27089 -1.64577e-20)
(0.0353776 2.67532 0)
(0.0648074 2.41526 9.88499e-20)
(0.0600256 2.43562 0)
(0.0675293 2.69469 -1.87936e-19)
(0.041315 2.70897 0)
(0.0228981 1.43031 4.16186e-20)
(0.0334697 1.48912 0)
(0.0295013 1.39356 0)
(0.0194941 1.39592 -4.83595e-20)
(-0.00096228 2.66339 -1.65533e-21)
(0.0226351 2.69812 1.92661e-19)
(0.00646588 2.73319 1.10011e-21)
(-0.000759717 1.83832 -7.35998e-21)
(-0.00507626 1.69003 -7.52634e-21)
(0.0122628 1.30423 0)
(0.0157406 1.23037 0)
(0.035368 1.58295 -1.21118e-20)
(0.0352902 1.45946 -3.22203e-20)
(0.0310016 1.53058 3.59787e-20)
(0.0410865 1.61012 0)
(-0.0280294 2.27279 9.13537e-20)
(-0.0301604 2.55565 -3.86647e-20)
(-0.0173982 2.45336 4.88667e-21)
(-0.00573246 1.85577 8.92521e-21)
(-0.0263662 2.5079 5.1357e-21)
(-0.0227114 2.44824 -2.16122e-21)
(1.01814 0.0214319 -7.60465e-19)
(1.01418 0.0275936 7.65375e-19)
(1.013 0.0166379 0)
(1.01206 0.0697455 1.04814e-18)
(0.990655 0.0565843 -1.2096e-18)
(0.950724 0.0531674 1.35445e-18)
(1.01338 0.115233 -1.42465e-19)
(1.04368 -0.00483909 0)
(1.05181 -0.000678539 6.84623e-19)
(1.04003 -0.00826311 -6.84282e-19)
(1.0716 0.0425459 -4.05774e-20)
(1.06456 0.028052 3.50488e-19)
(1.06444 0.0642019 0)
(1.05404 0.0533779 -1.26287e-19)
(1.03228 0.0439443 0)
(1.02535 0.0391871 0)
(1.02766 0.0134726 0)
(1.024 0.0159762 0)
(1.04061 0.0330789 2.59633e-19)
(1.03936 0.0283186 -5.74942e-19)
(1.0527 0.0377792 -2.74588e-19)
(1.04817 0.0377291 -3.03168e-19)
(1.07739 0.0686647 5.79447e-19)
(1.10092 0.0544612 0)
(1.10781 0.0928268 0)
(-0.024537 2.28025 5.96875e-20)
(-0.0253245 2.02536 2.19277e-21)
(-0.0209192 2.03438 0)
(-0.027618 2.45119 -5.94351e-20)
(-0.0242797 2.40914 -4.29425e-21)
(-0.0315965 2.48027 7.15595e-21)
(-0.0206657 2.62819 -1.59766e-20)
(-0.0239554 2.57087 5.91519e-22)
(-0.0227205 2.52323 -5.64434e-21)
(-0.0158203 2.62222 1.3008e-20)
(-0.0202467 2.62394 -1.44805e-20)
(-0.00617158 1.49182 -1.52891e-22)
(0.0005955 1.62383 -3.9849e-20)
(0.364991 1.44244 -1.29658e-19)
(0.3644 1.37147 8.51612e-21)
(0.640551 1.43146 -2.40316e-19)
(0.515879 1.50261 -1.52042e-19)
(0.570405 1.46229 0)
(0.604678 2.43802 2.0899e-19)
(0.66807 2.43702 3.35594e-19)
(0.421768 2.52778 8.98286e-20)
(0.40258 2.54847 -6.29986e-19)
(0.501674 2.48809 5.65423e-19)
(0.561552 2.47981 0)
(0.48916 2.53687 -5.42484e-19)
(0.262686 2.59654 1.13154e-18)
(0.367393 2.57414 -5.16626e-20)
(0.285884 2.65685 -1.56741e-18)
(0.967834 2.39637 7.02298e-19)
(0.848723 2.39741 0)
(1.01146 0.00133747 2.49037e-20)
(1.01533 -0.00525915 -2.03315e-20)
(1.01769 -0.00404279 -3.71691e-19)
(1.01554 -0.00112231 3.70318e-19)
(1.01308 0.00177389 0)
(0.628332 1.29942 0)
(0.672349 1.18861 0)
(0.787284 1.1097 0)
(0.660048 1.14332 0)
(1.19757 2.63491 5.0813e-20)
(1.09034 2.38576 0)
(0.823142 2.18594 3.38364e-21)
(0.824512 2.44657 0)
(0.918522 2.53517 -4.20158e-19)
(0.95026 2.48468 2.80608e-19)
(0.793079 0.158453 0)
(0.750802 0.137586 1.56719e-19)
(0.91759 0.156482 9.10053e-19)
(0.824878 0.135946 -3.42424e-19)
(0.776046 0.0844631 -1.04966e-18)
(1.08606 0.23989 -8.33297e-19)
(0.986517 0.306083 -8.46351e-21)
(0.928864 0.340695 8.15136e-19)
(1.01894 0.252156 6.85724e-19)
(0.936741 0.198531 -1.20261e-18)
(0.89497 0.211238 1.51062e-19)
(0.933583 0.303211 -3.14644e-19)
(0.910147 0.215532 0)
(1.00084 0.20133 5.88657e-19)
(1.05674 0.213712 0)
(1.05066 0.223702 0)
(1.12368 0.121794 2.65025e-19)
(1.06519 0.189312 -1.05912e-20)
(1.07901 0.241303 -1.5136e-19)
(1.1137 0.207039 0)
(1.02331 0.0482247 5.88711e-19)
(1.03831 0.0623583 7.31375e-19)
(1.03272 0.0460848 -5.83985e-19)
(1.04224 0.0682303 -4.90402e-19)
(1.01486 0.0740983 -7.42257e-19)
(0.989233 0.166963 0)
(0.992004 0.107319 0)
(0.961156 0.0671235 -4.80862e-19)
(0.905982 0.0984672 1.90264e-19)
(1.03973 0.114786 6.77777e-19)
(1.07542 0.133867 -7.76301e-19)
(1.06928 0.17599 6.97586e-19)
(1.03636 0.153149 0)
(1.08543 0.119571 0)
(1.05751 0.109596 -3.18114e-19)
(1.04414 0.106341 -5.51155e-19)
(0.591361 1.10307 1.09295e-19)
(0.621252 1.42302 -1.45592e-20)
(1.14744 2.72694 -2.36203e-19)
(1.19991 3.10953 5.59074e-22)
(1.25601 2.73581 -1.10663e-19)
(1.29669 2.70724 1.14522e-20)
(1.27275 2.33064 -3.7501e-20)
(1.18785 3.01543 -6.51201e-20)
(1.20691 2.97243 2.09939e-19)
(1.18179 3.26352 -1.2663e-19)
(1.40057 2.97934 1.57245e-19)
(1.41237 2.91711 0)
(0.566354 0.826061 -4.68524e-20)
(0.224224 1.21673 4.79471e-19)
(0.505735 0.403232 5.52723e-19)
(0.387005 0.164535 6.33081e-19)
(0.512673 0.343072 6.66636e-19)
(0.54706 0.44323 -1.0777e-18)
(0.551318 0.436119 8.84629e-19)
(0.493039 0.356618 -3.36745e-19)
(0.400903 0.293895 7.62436e-19)
(0.740749 0.244231 -3.43963e-19)
(0.701929 0.27228 0)
(0.656138 0.194797 8.13579e-21)
(0.73706 0.501493 3.62384e-19)
(0.700675 0.47395 -1.31791e-18)
(0.631038 0.447641 1.88959e-20)
(0.628914 0.423123 0)
(0.708088 0.715216 3.72002e-19)
(0.826181 0.793377 4.08791e-19)
(0.761571 0.844388 -4.76507e-19)
(0.894762 0.814746 -1.52121e-19)
(0.928121 0.856116 -3.56424e-20)
(0.935892 0.86366 3.65519e-20)
(0.874701 0.672256 -6.66943e-19)
(0.945643 0.718677 1.41434e-19)
(0.997863 0.722581 0)
(0.995095 0.698312 -1.82856e-19)
(1.02972 0.330067 2.12128e-19)
(1.15479 0.33051 2.55065e-19)
(1.07101 0.277738 3.41054e-19)
(0.992666 0.374338 -4.21104e-19)
(1.04757 0.477913 0)
(1.13198 0.420054 0)
(0.897048 0.414426 2.12514e-21)
(0.846108 0.302016 0)
(0.887826 0.29175 3.87509e-19)
(0.908609 0.337174 6.66419e-21)
(0.972293 0.482291 1.90541e-18)
(0.903456 0.542406 4.90114e-19)
(0.92435 0.49431 -5.24353e-19)
(0.845741 0.473356 5.57735e-19)
(0.81743 0.448642 3.50658e-19)
(0.793281 0.417088 -3.43826e-19)
(1.02807 -0.000406507 6.14094e-19)
(1.02035 0.000411405 0)
(1.01899 0.00125623 4.00702e-19)
(1.02252 -0.000913709 -9.07053e-19)
(1.02251 0.00442278 4.419e-19)
(1.02008 0.0114419 -9.24802e-19)
(1.02085 0.0112075 0)
(1.0198 0.0119533 -1.92647e-19)
(1.01649 0.00768811 4.82774e-19)
(1.0167 0.0108048 -2.42368e-19)
(1.01733 0.010463 1.77379e-19)
(0.0280672 1.32838 0)
(0.0313188 1.36404 0)
(0.0441542 1.33546 0)
(0.0482567 1.2915 0)
(0.0803756 1.37742 -3.90215e-20)
(0.0870363 1.3536 1.78359e-21)
(0.0688501 1.55212 -7.94003e-22)
(0.0941055 1.38274 -4.42586e-20)
(0.0400122 1.46895 3.08013e-20)
(0.0435881 1.46587 -2.45927e-20)
(0.0659097 1.37394 -2.82501e-20)
(0.0560792 1.37888 6.10137e-20)
(0.0486858 1.35675 9.98992e-21)
(0.0408369 1.37828 5.39119e-21)
(0.103055 2.38485 -1.08742e-19)
(0.0932039 2.42738 0)
(0.149004 2.03051 1.00986e-19)
(0.119465 1.70188 3.79103e-20)
(0.220191 2.0256 -7.61854e-20)
(0.207688 2.43939 0)
(0.213821 2.41319 -6.39251e-19)
(0.321906 2.38131 4.55929e-19)
(0.245671 2.00026 -2.19006e-19)
(0.136319 2.15903 1.47567e-19)
(0.111589 2.26107 0)
(0.0181122 1.86673 -1.57936e-20)
(-0.00667427 2.39147 -3.7468e-20)
(0.00231512 2.14284 0)
(0.00384429 2.45404 -1.53281e-20)
(0.0261855 2.29771 1.81769e-20)
(0.011177 1.40946 -7.60495e-21)
(0.0118401 1.39561 1.32468e-19)
(0.0117414 1.40156 -4.21626e-20)
(0.0163679 1.4023 -3.83939e-20)
(0.0220888 1.43347 0)
(0.0103165 1.38526 0)
(0.00112037 1.29949 -5.1131e-20)
(0.00996106 1.37224 1.43373e-20)
(0.0120495 1.37345 0)
(0.00674968 1.29265 -3.82668e-20)
(0.0149185 1.2224 7.76843e-20)
(1.04223 0.0145895 0)
(1.04863 0.0101007 -6.40384e-20)
(1.03893 0.0236895 -4.63218e-19)
(1.04928 0.0227059 0)
(1.05436 0.0220101 0)
(1.0362 0.0125897 -6.75513e-21)
(1.03025 0.01291 7.44404e-19)
(1.03188 0.0170092 9.0456e-19)
(1.02562 0.0207771 0)
(1.02202 0.0213472 0)
(1.03544 0.025558 4.62096e-19)
(1.02543 0.0276456 0)
(1.02347 0.0277629 0)
(-0.0186538 2.02612 0)
(-0.00328903 1.65149 -1.35816e-21)
(-0.00683947 1.75856 -2.69281e-20)
(0.000830254 1.38291 0)
(-0.00359459 1.55178 -1.93141e-20)
(-0.011166 1.46174 1.37739e-20)
(-0.00589492 1.39605 0)
(0.40696 1.65013 0)
(0.360723 1.31071 -9.39342e-21)
(0.278498 1.34751 0)
(0.430018 1.31601 -6.2186e-20)
(0.4635 1.46819 0)
(0.449602 1.41218 5.11379e-20)
(1.04061 2.68149 -1.49757e-20)
(0.982905 2.41622 -8.82549e-19)
(0.943837 2.21141 9.98831e-19)
(0.864759 2.38982 2.37389e-19)
(0.854726 2.49858 0)
(0.922206 2.495 0)
(0.951663 2.38978 0)
(0.928171 2.37911 -9.19246e-19)
(0.694241 2.46677 -3.67431e-19)
(0.802698 2.45017 -9.531e-20)
(0.810473 2.42853 7.18249e-20)
(0.70537 2.40974 0)
(0.809821 2.40303 0)
(0.77124 2.41923 -3.62069e-19)
(0.768352 2.47729 0)
(0.624154 1.07196 0)
(0.519899 0.878219 -5.34937e-19)
(0.524002 0.945268 -3.0906e-20)
(0.507249 1.08737 0)
(0.493269 0.997419 8.20082e-19)
(0.792977 0.88325 -1.30679e-19)
(0.79788 1.0142 0)
(0.777016 0.994353 1.80713e-19)
(0.667599 1.0215 0)
(0.661826 0.931568 0)
(1.16513 2.76244 -2.12629e-19)
(1.1404 2.82071 -8.37612e-20)
(0.926517 2.3473 6.39818e-20)
(0.902949 2.32776 -7.25851e-20)
(1.13449 2.74053 0)
(1.0864 2.70886 8.724e-20)
(1.10255 2.50323 -2.92581e-19)
(1.00362 2.2601 -2.86268e-20)
(0.502995 1.34997 0)
(0.522631 1.09229 -9.63338e-20)
(0.590846 1.18575 0)
(0.861534 0.22345 0)
(0.772745 0.174725 0)
(0.699499 0.140537 0)
(0.861822 0.222633 -5.9605e-19)
(0.761722 0.218438 3.58831e-19)
(0.922433 0.0815518 -3.94485e-19)
(0.939305 0.132265 0)
(0.912828 0.144171 1.69849e-19)
(0.849663 0.102144 6.81022e-19)
(0.808639 0.0682784 -4.26244e-19)
(1.10083 3.35636 -6.85999e-19)
(1.16708 3.2792 0)
(1.11974 3.44143 -1.58958e-18)
(0.659976 3.58682 1.32511e-18)
(1.03101 3.08346 1.29513e-19)
(0.530031 0.803518 5.60698e-19)
(0.514193 0.775271 0)
(0.366877 0.427953 -1.44814e-19)
(0.471777 0.647246 8.45814e-19)
(0.532504 0.404419 -1.9577e-19)
(0.5131 0.47601 2.27516e-19)
(0.682386 0.530096 4.71045e-19)
(0.726435 0.561911 0)
(0.649701 0.581522 0)
(0.623189 0.537253 0)
(1.00411 0.606565 9.08261e-20)
(0.957374 0.585478 -4.74212e-19)
(0.969068 0.600511 3.58962e-19)
(1.033 0.537034 -3.51611e-19)
(1.07858 0.508067 0)
(1.08247 0.595319 -9.14662e-20)
(0.875095 0.406505 -7.79969e-19)
(0.866348 0.396843 -9.98832e-19)
(0.805379 0.389309 6.14696e-19)
(0.809624 0.351211 -6.37729e-19)
(0.851418 0.31213 -4.99722e-19)
(0.803347 0.31288 6.13607e-19)
(1.02657 0.006464 -4.624e-19)
(1.0262 0.00658937 9.31843e-19)
(1.02984 0.00073517 5.95025e-19)
(1.03401 0.00142537 -7.14549e-19)
(1.03373 0.0114078 0)
(1.02981 0.0116116 -1.1646e-18)
(0.0851288 1.6526 1.11823e-20)
(0.0521704 1.5939 0)
(0.0949044 1.70149 7.06553e-20)
(0.108936 1.67633 -6.36057e-20)
(0.0625737 1.5496 1.47434e-21)
(0.0463999 1.54299 0)
(0.004252 1.68841 0)
(-0.00516632 1.4971 9.40975e-21)
(-0.00533666 1.43864 -8.44575e-21)
(-0.00761891 1.54854 4.23115e-21)
(-0.00253863 1.88677 1.287e-20)
(-0.0137014 1.94188 -4.15602e-21)
(0.495643 1.37617 -2.38717e-19)
(0.497824 1.3731 2.61215e-19)
(0.445783 1.30694 3.08824e-21)
(0.429776 1.30184 6.65397e-21)
(0.619218 1.30541 0)
(0.547375 1.39934 1.26549e-19)
(0.548102 1.40137 -1.23264e-19)
(0.479232 1.29169 -2.97516e-21)
(0.521665 1.25025 0)
(0.586533 1.21791 0)
(0.668664 2.42989 5.41254e-19)
(0.662346 2.45678 1.26074e-18)
(0.719526 2.47195 -8.67201e-19)
(0.620244 2.44373 -1.9843e-19)
(0.556445 2.53996 2.69971e-19)
(0.496656 2.50315 -7.0043e-19)
(0.991861 2.39396 -5.62503e-19)
(1.02561 2.41194 0)
(0.950013 2.19581 -6.19387e-19)
(1.05684 2.68973 0)
(1.05607 2.67195 0)
(0.611342 2.30288 3.08051e-20)
(1.12288 3.07642 9.758e-20)
(1.00355 2.97643 -1.5098e-19)
(0.33067 0.833785 0)
(0.338761 0.729343 -2.99136e-19)
(0.536667 0.658735 -3.02708e-19)
(0.375842 2.14791 0)
(0.407665 2.7471 -9.11252e-20)
(0.418841 2.48444 0)
(0.715107 0.676602 -7.94727e-19)
(0.775822 0.680352 1.11051e-18)
(0.78869 0.649581 -1.05223e-18)
(0.688819 0.642656 -1.01156e-19)
(0.750722 0.599951 -4.15683e-19)
(0.97723 2.7616 -7.39133e-20)
(1.01654 2.76546 -1.93035e-19)
(0.563559 2.22593 3.99666e-19)
(0.61368 1.74679 -3.22087e-19)
(0.711975 1.86638 -4.74435e-19)
(0.982259 2.40209 -1.35304e-19)
(0.981182 2.35671 3.47117e-19)
(0.657699 1.78228 3.19938e-20)
(0.464457 1.31337 1.6637e-19)
)
;

boundaryField
{
    wall-4
    {
        type            noSlip;
    }
    velocity-inlet-5
    {
        type            fixedValue;
        value           uniform (1 0 0);
    }
    velocity-inlet-6
    {
        type            fixedValue;
        value           uniform (0 3 0);
    }
    pressure-outlet-7
    {
        type            zeroGradient;
    }
    wall-8
    {
        type            noSlip;
    }
    frontAndBackPlanes
    {
        type            empty;
    }
}


// ************************************************************************* //
