/*--------------------------------*- C++ -*----------------------------------*\
  =========                 |
  \\      /  F ield         | OpenFOAM: The Open Source CFD Toolbox
   \\    /   O peration     | Website:  https://openfoam.org
    \\  /    A nd           | Version:  6
     \\/     M anipulation  |
\*---------------------------------------------------------------------------*/
FoamFile
{
    version     2.0;
    format      ascii;
    class       volScalarField;
    location    "42";
    object      p;
}
// * * * * * * * * * * * * * * * * * * * * * * * * * * * * * * * * * * * * * //

dimensions      [0 2 -2 0 0 0 0];

internalField   nonuniform List<scalar> 
918
(
0.547626
1.28325
0.0047923
0.547527
-0.00951068
1.25101
-0.477767
0.700704
0.528739
-0.096338
-0.0360332
0.526745
1.10827
0.875377
-1.15842
-0.00224175
0.65539
-0.403528
0.526671
-0.0176837
0.737585
0.535447
0.537918
0.52871
0.585868
0.831727
0.985652
0.012667
0.00290906
0.00182859
-0.0114064
-0.0302889
-0.0221988
1.13413
1.18607
1.20925
0.495674
0.330022
-0.367391
-0.419099
-0.402333
-0.502737
0.694227
0.693395
-0.18148
0.702893
0.710034
0.514563
0.528125
0.528956
0.530123
0.528993
0.530287
0.414511
-0.102303
-0.132628
-0.0799969
-0.0769935
0.0631404
-0.0356937
-0.0378646
-0.0352506
-0.0392618
0.445576
0.522715
0.519708
0.531609
0.541143
1.22342
1.19711
1.22317
1.13395
1.15144
1.08516
1.05803
0.896521
0.919705
0.858357
0.844466
-1.62396
-2.58242
-0.574076
-0.29122
-0.0109886
-0.00465152
0.00820697
0.646871
0.646625
0.65733
0.665802
1.05223
-0.373933
-0.444925
0.527156
0.52569
0.534961
0.535868
0.530815
0.530829
-0.0247565
-0.0299226
-0.0112273
-0.0186574
-0.0205059
0.728681
0.726342
0.528155
0.525614
0.549896
0.571692
0.560796
0.268476
0.592146
0.606892
0.690709
0.83884
0.826746
0.83896
0.961364
0.928676
1.0173
1.03897
0.0137271
0.00217663
-0.00687798
-0.00897751
-0.00895935
0.491468
0.48512
0.512152
0.499245
0.502232
0.234138
0.0819878
0.412736
0.436509
-0.28766
-0.329626
-0.435279
-0.43291
-0.539671
0.60139
0.689428
0.686218
-0.197815
-0.121252
-0.247033
-0.0660478
-0.121716
0.50564
0.511789
0.507918
0.523174
0.51737
0.519784
0.532216
0.529372
0.53098
0.475124
0.607203
0.332099
0.305097
-0.258218
-0.149421
-0.241511
-0.0631195
-0.0557107
0.075415
0.102244
0.0499849
0.037106
-0.0486491
-0.0418184
-0.0462961
-0.0384522
-0.0369706
0.437151
0.42448
0.456659
0.464018
0.510815
0.512164
0.516416
0.514528
1.00923
1.03226
1.03817
1.01436
-3.57235
-6.22831
0.0609687
0.223765
-0.00421498
-0.00866782
0.00207299
-0.00543932
0.000680255
-0.0010093
0.000183353
0.00178271
0.00589795
0.00387382
0.639983
0.639868
1.0112
1.04124
0.998654
0.976199
0.51648
0.518397
0.523039
0.519928
-0.0371149
-0.0321049
-0.0380356
0.71149
0.720728
0.718389
0.228712
0.141783
0.318002
0.34842
0.632575
0.615079
0.629343
0.751468
0.790184
1.05544
1.07979
1.06363
1.07644
1.12734
1.15027
1.1156
0.470382
0.481111
0.475501
0.515297
0.512945
0.513973
0.509939
0.511162
0.509649
-0.0309902
-0.407013
0.487961
0.490613
0.477988
0.484401
0.687293
0.770959
0.666956
0.678588
0.675092
-0.0182319
-0.0657317
0.262911
0.233425
0.377691
0.411611
0.393922
0.984468
0.944625
0.99286
0.96823
0.93262
0.957454
-0.344493
-2.12268
-1.11033
0.631384
0.431888
0.524587
0.0212824
0.00252159
0.00822895
1.04439
1.08478
0.675739
0.862287
0.81469
0.81368
0.840556
0.902978
0.835048
0.870182
0.901315
0.877608
0.555207
0.495097
0.508482
0.849343
0.906801
0.10665
0.0322391
0.00857263
0.125124
0.191623
0.161246
1.05681
0.963765
1.02998
0.525852
0.526774
0.00570976
0.000841282
0.530858
0.530582
-0.00864145
0.000783183
0.543181
-0.931894
0.116459
0.520261
0.510147
0.526841
-0.06295
0.348489
-0.0326298
0.0500147
0.0129624
0.522295
0.457684
0.415934
0.0113525
-0.0167648
-0.0226038
-0.196651
0.523594
0.521954
0.52622
0.527062
0.527819
-0.00490656
-0.000426533
-0.00186083
-0.0200152
-0.0138103
-0.0183142
0.490564
0.509815
-0.169349
0.526495
0.528592
0.528304
0.522404
0.527398
0.525968
-0.00701946
-0.00915839
-0.0137064
0.211053
0.343913
0.72996
0.807477
0.677678
0.507999
0.206848
0.663739
0.717637
0.641367
0.772954
0.682493
0.691333
0.180774
0.0445667
0.185856
0.11888
0.517174
0.516508
0.507708
0.504669
0.521632
0.519333
0.524498
0.521687
0.524822
0.525999
-0.0191233
-0.0568508
-0.0738527
-0.126716
0.314464
0.573504
0.243485
0.268043
0.172376
-0.0310012
-0.033728
-0.0326972
-0.0386523
0.00456855
-0.00391832
0.042754
0.0481361
0.0300598
0.00357699
-0.00404704
-0.00383521
-0.0101822
0.515784
0.515127
0.520685
0.529017
0.467072
0.470704
0.437481
0.456087
0.442373
0.383133
0.412922
0.390232
0.00216585
0.0148249
0.00641434
-0.0125233
-0.00985971
-0.0198764
-0.0136974
-0.0120716
-0.00439917
-0.0118666
-0.0211708
-0.0307419
-0.160044
-0.277191
0.972476
0.903323
0.144304
0.513534
0.519164
0.516354
0.520956
0.524159
0.524832
0.522448
0.518963
0.510019
0.511502
0.508241
0.509217
-0.112115
-0.21761
-0.0494931
-0.121858
0.156029
0.621121
0.352148
0.300301
0.285189
0.505968
0.723834
0.651386
0.72147
0.721004
-0.382689
0.0341281
-0.308913
0.240743
0.224869
0.754175
0.796141
0.813796
0.770598
0.726465
-0.0227439
0.553022
-0.0426216
0.00341228
0.193042
0.0837967
0.705107
0.661756
0.666643
0.682569
0.699663
0.677043
0.662839
0.651853
0.681124
0.685863
0.510406
0.239881
0.200347
0.152437
0.644304
0.542354
0.596112
0.514052
0.512588
0.515134
0.513992
0.495298
0.502569
0.498328
0.505083
0.508611
0.516241
0.516423
0.512387
0.514288
-0.0503354
-0.0539174
-0.066329
-0.109679
-0.114287
-0.155066
-0.0798815
0.12102
0.066492
0.257475
0.400764
0.090241
-0.0386237
-0.0248443
0.0309818
0.19279
0.196909
0.0642094
0.179851
0.136065
0.128448
0.219148
0.243026
-0.0187563
-0.0185492
-0.0183864
-0.0248449
0.0252751
0.12296
0.108906
0.00494928
-0.00277466
-0.036412
-0.0370293
0.00711564
-0.00575837
-0.000692635
0.0128267
-0.036166
-0.0118824
0.000729094
0.00593509
0.00203131
0.00305518
0.509257
0.511432
0.511245
0.519331
0.533899
0.548939
0.512042
0.487981
0.479082
0.482155
0.455558
0.464741
0.459909
0.475426
0.496709
0.505577
0.503125
0.505757
0.488196
0.489882
0.475409
0.479931
0.450103
0.432052
0.422365
-0.0332807
0.00431629
-0.00943842
-0.0318267
-0.00279997
-0.0163555
-4.77083e-05
0.0124401
-0.00184449
-0.002484
-0.00587117
-0.0117915
-0.0103069
-0.0625803
0.0186524
-0.164036
-0.213799
-0.26431
0.894301
1.02985
0.817505
0.617748
0.617562
0.840386
0.932617
0.570482
0.740749
0.781317
0.573158
0.863454
0.517413
0.517054
0.514946
0.51414
0.515122
-0.00745409
0.0924491
0.11322
0.165532
0.28026
0.387346
0.309028
0.199136
0.333912
0.357593
0.619605
0.628852
0.581982
0.603359
0.603052
0.421008
0.501711
0.544317
0.493319
0.566493
0.599783
0.547233
0.589634
0.510109
0.460508
0.452123
0.408397
0.442784
0.424226
0.398516
0.508712
0.485934
0.496593
0.486473
0.507516
0.528785
0.531573
0.555805
0.569688
0.488023
0.437171
0.45383
0.480885
0.438514
0.454442
0.475233
0.180009
0.0845475
0.251201
-0.0776401
0.0131589
0.0498508
0.00882394
-0.0375021
0.269508
-0.3736
-0.317019
-1.00132
0.494186
0.882201
0.666491
0.680906
0.698251
0.679284
0.689227
0.704862
0.710871
0.63525
0.649219
0.652125
0.622926
0.654057
0.652212
0.661071
0.509401
0.415117
0.417667
0.351513
0.219514
0.257923
0.437282
0.371964
0.301407
0.294959
0.465984
0.33421
0.410448
0.46753
0.396965
0.327799
0.559486
0.606512
0.595787
0.568112
0.467518
0.49779
0.51392
0.559061
0.590011
0.614924
0.503898
0.510156
0.511102
0.508371
0.506572
0.509633
0.50982
0.512109
0.512551
0.515089
0.514434
-0.0313216
-0.0205687
-0.0378093
-0.0403678
0.0390555
0.0117237
0.00833079
-0.0288881
-0.000803781
-0.0020346
-0.0172766
-0.0340692
-0.0249801
-0.0121042
0.0816162
0.101783
0.109476
0.0755837
0.255615
0.43695
0.506625
0.376118
0.217099
0.237925
0.320377
0.0229498
0.0394518
0.0244633
0.0752766
0.0534684
-0.0279223
-0.0312285
-0.0237787
-0.0185629
-0.0107339
-0.025356
-0.030091
-0.0210338
-0.0267555
-0.0325299
-0.0348459
0.489641
0.482564
0.485944
0.47849
0.476763
0.493342
0.497746
0.499054
0.504464
0.506977
0.496794
0.502594
0.506614
-0.00376608
-0.0180033
-0.0234328
-0.0145122
-0.0137128
-0.0136545
-0.0142322
0.129969
0.0378846
0.0724939
0.00340299
-0.119022
-0.0590517
0.498663
0.493725
0.488562
0.719437
0.559863
0.475301
0.570657
0.688836
0.27508
0.480953
0.312056
0.892811
0.794957
0.940619
0.56284
0.254085
0.416704
0.430571
0.265522
0.390681
0.355245
0.229993
0.2691
0.292659
0.376967
0.257773
0.23594
-0.00579991
0.171524
0.28591
0.267273
0.398185
0.45599
0.260592
0.175105
0.124116
0.604704
0.622871
0.633828
0.606647
0.629537
0.569495
0.559278
0.577028
0.586586
0.580513
-0.639659
-0.228472
-1.43003
-0.836415
-0.385422
0.521251
0.511687
0.753649
0.6597
0.70816
0.689937
0.623264
0.58863
0.625732
0.650135
0.344618
0.440207
0.415587
0.406438
0.349173
0.286882
0.572138
0.574515
0.597339
0.622163
0.59624
0.62335
0.502522
0.502324
0.501148
0.497544
0.496119
0.499129
0.0336399
0.00946412
0.0495895
0.0503438
0.0350014
0.0344118
-0.0019116
-0.0119173
-0.0148404
-0.0119314
-0.00305772
-0.000777419
0.172679
0.11591
0.0264087
0.0715685
0.00201774
-0.0783159
-0.0803499
0.00689448
0.105518
0.0867358
0.39728
0.670433
0.496102
0.663114
0.457131
0.562085
0.472698
0.447665
0.477092
0.373902
0.462155
0.0245491
-0.172487
-0.230472
0.819586
0.775633
0.563048
0.309718
0.198246
0.498488
0.525288
0.484217
0.519031
0.568504
0.55367
0.00734723
0.106553
0.171495
0.482388
0.275876
0.293292
0.285276
0.444472
0.419158
)
;

boundaryField
{
    wall-4
    {
        type            zeroGradient;
    }
    velocity-inlet-5
    {
        type            zeroGradient;
    }
    velocity-inlet-6
    {
        type            zeroGradient;
    }
    pressure-outlet-7
    {
        type            fixedValue;
        value           uniform 0;
    }
    wall-8
    {
        type            zeroGradient;
    }
    frontAndBackPlanes
    {
        type            empty;
    }
}


// ************************************************************************* //
