/*--------------------------------*- C++ -*----------------------------------*\
  =========                 |
  \\      /  F ield         | OpenFOAM: The Open Source CFD Toolbox
   \\    /   O peration     | Website:  https://openfoam.org
    \\  /    A nd           | Version:  6
     \\/     M anipulation  |
\*---------------------------------------------------------------------------*/
FoamFile
{
    version     2.0;
    format      ascii;
    class       surfaceScalarField;
    location    "42";
    object      phi;
}
// * * * * * * * * * * * * * * * * * * * * * * * * * * * * * * * * * * * * * //

dimensions      [0 3 -1 0 0 0 0];

internalField   nonuniform List<scalar> 
1300
(
3.75095
5.62643
-3.16338
3.75095
-7.62784
5.62643
-4.28084
4.28084
-0.813218
0.813218
1.87646
1.87449
-2.64618
2.64618
-2.06459
2.06459
-2.54842
2.54842
-5.24797
5.24797
-5.06899
5.06899
4.71617
-4.71617
-6.24145
6.24145
-1.14294
1.14294
-3.6876
3.6876
3.17301
-3.17301
-2.16068
2.16068
-0.213198
0.213198
-0.554097
4.30505
3.19686
3.19686
-1.99024
1.99024
-4.873
4.873
6.22211
-6.22211
5.10075
-5.10075
-1.93737
-2.31388
1.78692
-11.5452
-5.84092
-5.84092
-8.44104
8.44104
-2.81461
2.81182
2.9454
-2.9454
-1.7331
1.7331
-4.26474
-0.0161016
-4.26474
4.26477
0.0160727
4.26477
-0.900837
0.0876193
-0.900837
3.82473
-3.82473
0.692466
0.120752
0.692466
3.0669
-3.0669
-1.87687
3.75333
1.87408
-1.87205
6.1771
-1.87891
3.7534
-6.04638
6.04638
-2.84883
0.20265
-2.84883
2.45389
0.192289
2.45389
-6.845
6.845
-2.14327
0.0786789
-2.14327
2.0243
0.0402878
2.0243
2.87986
-2.87986
-2.64431
0.0958926
-2.64431
2.41884
0.12958
2.41884
0.353515
5.27292
-5.97994
8.79177
-5.27292
0.0249437
5.21038
0.0375942
5.21038
-5.1053
0.0363122
-5.1053
5.01342
0.0555712
5.01342
4.81095
-0.0947798
4.81095
-4.83046
0.114287
-4.83046
-3.43807
-4.1205
-6.40325
0.161808
-6.40325
-1.15127
0.00832876
-1.15127
1.09408
0.04886
1.09408
-3.67362
3.67362
-4.00834
0.320737
-4.00834
3.1279
0.0451159
3.1279
1.86812
1.88284
5.61907
-5.61907
2.44606
-2.05409
-0.106588
-2.05409
-2.20714
-2.89361
2.20714
-0.0464595
-0.439889
0.226691
-0.439889
3.15699
0.0398659
3.15699
2.26115
0.157685
-2.26115
0.270918
3.27025
-3.27025
1.32098
0.66926
1.32098
-5.56024
5.56024
4.96107
0.0523512
-4.96107
0.0880724
6.15713
0.0649757
6.15713
-6.20759
-0.0145204
-6.20759
2.64964
-4.96352
-2.53478
6.04198
0.199465
-6.04198
0.201057
2.91595
0.0294515
2.91595
-2.92049
2.92049
-2.98306
0.0376658
-2.98306
-2.15995
0.426851
-2.15995
1.41361
0.319483
1.41361
-4.13434
-0.130392
-4.13434
-4.14535
0.137004
4.14535
0.119419
1.07148
-1.07148
-0.976218
0.0753804
-0.976218
-3.94386
-0.190483
3.94386
-0.119129
-3.77853
-0.0462067
-3.77853
-3.02114
0.0380733
3.02114
0.0457605
3.11189
0.0451053
-3.11188
0.0449864
-1.87097
3.7538
-1.87999
3.75407
-5.66432
-0.382059
-5.66432
6.34309
-0.296712
6.34309
3.23735
0.450251
-3.23735
0.388525
2.31258
0.141311
2.31258
-6.82571
-0.0192914
-6.82571
6.84866
-0.00366033
6.84866
2.217
0.095573
-2.217
0.0737369
2.00925
0.0150471
2.00925
2.90374
-0.0238838
2.90374
-2.87606
-0.00379897
-2.87606
2.79682
-2.79682
2.72563
0.0711864
-2.72563
0.0813174
-11.124
11.1095
-0.0362862
-11.0878
5.17409
5.17409
4.26678
0.544164
4.26678
-5.02068
0.190225
-5.02068
2.82064
-5.35542
3.13053
-6.5686
4.71192
-16.2571
4.30652
-8.42702
6.68168
-6.68168
6.54692
0.134764
-6.54692
0.143668
-1.2007
0.0494307
-1.2007
-3.06524
-0.608376
-3.06524
4.32304
-0.649422
4.32304
-3.02829
3.02829
-3.07689
0.0486053
3.07689
0.051006
1.99825
0.011001
-1.99825
-0.0558396
0.556039
0.136427
-0.556039
0.116149
3.48032
-0.210079
3.48032
-3.07513
-0.195114
-3.07513
-1.26208
0.0613733
1.26208
0.0588987
-5.80752
0.247281
-5.80752
-11.1814
0.0936384
-11.1438
-6.11395
-6.11395
2.32709
11.1189
-2.8931
0.0170382
2.8931
0.022852
2.97591
0.0523743
-2.97591
0.0554186
-2.86089
0.064073
2.86089
0.0596045
-2.53183
0.37188
-2.53183
-1.01594
1.01594
-1.17363
0.15769
1.17363
0.239985
1.35995
-0.288475
1.35995
1.04069
0.0533919
-1.04069
0.0644747
-3.74905
-0.0294763
-3.74905
6.58161
-0.238526
6.58161
-2.95188
-0.123249
2.95188
-0.0481427
-0.0349688
11.1445
-5.13912
0.0338198
5.13912
-11.2095
11.2433
-3.24201
0.710184
3.24201
1.02477
5.28714
0.273097
-5.28714
0.266458
6.78137
0.0672977
-6.78137
0.0996815
-2.57621
-0.489034
-2.57621
-5.06238
-0.601933
5.06238
-0.739344
-11.4817
-0.203094
11.6848
-11.4261
6.01061
0.146521
-6.01061
11.3898
-0.967813
-0.103664
0.967813
0.0481261
1.69735
-0.3374
1.69735
3.68208
-0.201758
-3.68208
-0.0669674
-6.72508
-0.100637
6.72508
-0.143461
-2.1275
-0.448707
2.1275
-0.43015
-4.26722
4.30709
1.90988
-2.48341
-2.48011
-5.37703
1.85492
1.89888
4.30098
-10.2056
-6.05153
-10.0045
7.21359
-6.94713
-9.36304
9.26826
7.75233
-7.79854
-5.7782
5.8292
6.48393
-6.43817
1.87919
1.87415
7.98615
-7.7835
-15.7067
15.3246
7.54724
-7.46856
15.8739
-15.8932
-17.9313
17.9986
-5.70451
5.8004
-6.73179
6.72799
-6.964
6.91586
-2.89008
-3.67852
13.1936
-13.0318
8.4043
-8.51089
-8.63026
8.951
3.3845
0.922584
3.42961
-1.88197
3.76116
-1.87143
3.7813
2.68786
-5.57794
2.66756
-5.14767
4.2233
4.181
-4.17684
-1.20019
-5.92561
5.95506
-5.81352
5.87313
9.0173
-9.0334
-1.88503
3.75917
-1.86905
3.76793
-3.42352
-2.35468
3.37841
0.922571
8.10214
5.09145
-8.3016
-1.70292
-7.94393
7.74218
-8.18516
7.99005
-0.437878
5.83633
-5.39846
4.43512
-1.65352
7.48985
5.56007
5.7503
5.86034
-5.58725
1.08679
-6.48524
-6.39717
-2.49274
2.56812
2.47051
-2.34976
6.0089
1.74344
5.88977
-5.71425
-2.08429
-5.74372
3.82046
2.00875
3.86906
4.08097
2.40296
4.11905
3.03009
-3.03611
0.00602059
-3.05889
6.08898
0.723061
-5.41356
-4.49099
5.01037
2.97578
5.20266
-5.57536
-2.20814
-5.18683
-9.58897
-6.11769
-10.1909
10.1144
5.21022
9.81767
-11.9972
11.8538
4.83289
2.71435
4.87318
-4.9552
-2.51336
-4.88146
11.6779
-2.63183
-9.0461
-10.3614
-7.56983
10.3651
5.50878
11.0146
6.98393
11.1143
4.4467
7.23123
-9.95548
2.38565
-3.86463
-1.83988
-3.78331
3.6643
2.1361
3.79388
-4.21543
-2.51637
-4.19839
-4.29112
-2.67289
4.315
2.41299
-4.4059
-3.77926
4.52915
2.38671
4.09717
-10.1487
4.32985
-8.00837
-9.25498
-3.7768
-9.11131
3.48976
2.62251
-6.11227
-2.08818
8.43604
-4.25504
7.23585
-5.15003
-3.36085
-5.20587
-6.90733
-1.72293
-6.77033
-8.94598
8.45694
-9.23669
8.58726
12.643
-5.67524
-6.96772
-3.96677
-2.4714
3.92178
-0.492173
-3.71043
3.71645
0.0507295
3.83203
4.75462
4.26244
-3.88372
-1.9298
-3.82831
3.82576
2.04736
3.88984
6.77116
2.24614
6.78724
-6.46541
-2.56799
-6.5958
9.13821
-8.71136
2.87296
-2.81159
5.33136
2.65869
-5.12128
-2.82265
6.22521
-3.17143
-3.05378
-12.3584
10.8536
1.50473
-4.86852
-0.433403
-0.220205
-5.58688
-3.77616
5.47259
0.277701
11.1313
7.35518
-5.5157
5.76298
6.16909
6.22144
-0.175732
5.91925
-5.20906
5.34834
-2.56138
-2.78696
5.34021
-5.53069
-1.2556
-5.43386
4.17827
0.359079
1.72056
-1.49387
-1.93149
-0.561243
-1.86702
1.45884
1.01167
1.59527
0.910865
1.65725
-2.96308
0.604887
2.3582
-2.05222
-1.74487
-3.65819
-1.12372
4.78191
5.626
2.11618
-5.55903
-0.184693
2.65285
-2.60399
-0.735436
-2.92276
2.17229
-2.90772
-3.55684
-1.85995
5.41679
-3.36948
-0.458821
3.31711
0.55195
-3.82716
-2.09845
3.78949
0.329553
-3.12721
6.19005
-3.06284
-5.057
2.52899
3.55999
4.53773
-4.7909
2.44861
2.34229
-1.23091
4.28603
0.916631
4.42734
-7.00398
4.79584
5.71564
3.23536
-6.16589
0.979061
-6.02492
8.40147
-7.25711
-1.14435
3.91764
4.48382
7.08561
5.55736
-5.701
12.7866
-1.05223
-6.20488
7.07715
-3.84179
4.77867
-8.62047
-10.336
4.13115
-9.22852
11.0407
-1.81216
-3.62103
-8.37618
12.8496
-1.20296
-11.6466
8.61471
-4.2226
-4.28212
8.50472
-6.85443
6.79548
-1.95415
-4.84133
-10.1666
-5.72651
10.2673
1.58648
-9.87887
12.2645
-2.64764
4.16286
0.710316
4.17791
3.27815
-5.42361
2.14546
3.57628
-5.53043
2.05422
-7.47783
-6.79206
12.146
-5.35397
-10.5689
-9.59985
-0.969001
2.5501
9.71442
-9.53403
7.4621
2.07193
3.30288
0.586952
-3.37407
-0.409243
0.246601
4.51829
-4.76489
4.04048
4.19817
3.25997
1.25832
3.84647
2.10859
-3.86932
-0.329063
-4.16037
1.48749
-1.74738
-3.68464
5.17213
-4.06334
0.378694
-2.74202
-3.49821
6.24023
-4.5819
3.03796
3.15209
5.08532
-4.91276
1.41455
-2.39452
-2.51825
2.64879
-4.39617
1.98487
3.18726
4.37158
0.592325
5.93123
6.21479
-8.55374
0.545375
11.3062
-9.60332
2.49756
8.61674
-9.95966
0.359811
-8.7515
0.975477
-5.23052
-5.13679
5.13275
-6.85568
-3.48772
6.21618
0.571055
-6.3356
-0.434727
-6.06844
-2.87754
-6.51715
-3.07436
-6.16233
-8.77536
-1.68624
-7.08912
6.77071
-6.68886
-3.50204
7.4282
1.15906
-7.48163
7.37797
-7.54547
7.20807
0.0943028
3.62215
4.35675
1.88534
-2.39123
4.27658
-5.06516
7.3113
-8.64504
3.57987
4.11069
-6.67868
-4.53435
5.07238
4.06584
5.39186
8.98056
-10.4824
1.50184
-10.7529
12.0855
-1.33268
-16.5563
5.80343
-7.57573
2.55689
0.316076
2.60632
0.610437
2.4742
-3.08463
-2.20115
-2.14225
-2.38615
-3.49201
5.87816
1.12217
-3.41343
2.29126
-3.56644
4.68861
0.0104674
-3.4239
5.20765
-2.73345
5.52373
-3.55597
1.96776
3.49176
5.81004
-2.31829
4.42229
-1.7636
1.89237
-4.21066
-1.59964
-2.9604
5.0965
-3.27984
3.65853
-0.331605
3.99014
-4.07929
0.907853
-0.819313
3.37886
3.64977
4.31587
-3.05755
2.94856
-4.71217
-1.26209
-4.11984
-0.932586
-0.222957
-3.83964
4.0626
6.06596
-6.28891
-5.31076
9.57031
-4.25954
7.731
-5.46284
-2.26816
-4.31216
-4.3992
3.94028
1.97897
9.70997
0.17783
-5.64067
-5.03123
-4.00646
3.20281
2.14553
-1.89391
3.39863
2.11411
-0.393547
0.494517
1.10075
1.85861
-1.36409
0.276971
1.58164
-1.2169
1.88617
0.76668
-1.93956
0.072542
-1.26681
3.4391
1.09138
-2.10305
0.738957
0.974135
-3.53552
4.8907
-2.62384
-2.26686
5.86484
1.1548
-3.77864
4.27906
-3.91998
2.40499
-3.52871
-1.37365
-5.29364
-3.5502
-2.54364
4.8349
-3.33451
5.45069
1.27806
-5.266
6.54406
-3.60013
1.74018
-3.06689
3.83357
-1.08848
-1.97841
2.95174
2.46505
-3.07685
0.154094
-0.125114
2.38309
-2.5082
-0.524636
-2.57685
-4.57487
4.90442
-2.10467
4.55328
2.17191
-1.91615
6.46943
1.80923
-3.72538
-3.24777
-3.70659
-1.38309
3.15464
-0.582329
-4.29913
-5.42366
4.20356
0.223782
-6.82746
7.75946
-0.931996
-3.85169
-0.94415
4.86179
-5.99686
0.466427
-3.94264
3.81682
4.73345
4.95724
-11.4172
-0.229374
-6.207
1.10574
-7.31274
5.58956
-3.58858
7.71973
-10.3571
6.85505
-9.19803
6.57537
-0.737362
6.23814
-4.09268
2.80796
-8.53447
-6.94799
5.46076
-2.7464
6.17107
-3.11068
9.28175
-5.75832
5.21794
4.06381
-1.02466
-4.18121
-5.22564
4.20098
-0.00769422
4.17021
4.98326
-2.87467
4.6542
2.25834
-4.65285
-2.13783
-6.48997
1.83712
-3.33788
-1.91926
3.75638
3.16606
3.75302
1.23813
-3.34377
7.24129
-8.21029
-1.88732
-3.24947
5.1944
-0.993424
3.39697
-6.64643
-1.83355
4.81511
-0.759386
-4.05572
0.860137
-4.34785
1.67323
-6.02109
5.18245
-5.61718
2.24622
-9.82195
-5.23541
-5.18729
-2.27766
-5.2678
-7.62512
5.34745
-1.82169
5.55628
-8.59833
7.83895
-3.48721
8.83466
-5.46296
-1.05419
5.89311
1.31495
10.1496
0.107428
-4.64178
-1.92545
3.84167
-1.91622
1.27735
-3.73221
0.109462
2.47
3.39484
-6.64827
-0.0304103
-4.67219
-3.91794
7.98377
5.65237
11.7183
1.23593
9.18333
-1.19956
10.4193
4.1923
4.43229
-3.0402
4.54204
1.02239
4.60227
-0.852212
2.81997
1.75411
1.76243
0.841554
2.29597
1.3538
3.20382
0.119191
-2.02306
4.65358
-8.66004
-0.987086
-8.11588
1.15239
5.42987
-4.27749
3.01264
-0.86711
1.09642
-0.00444225
-1.55429
1.55873
-2.7914
-1.94783
-0.366195
-1.6244
2.36335
1.8147
-1.99716
-0.79424
0.309844
-3.86005
3.21886
-3.06477
-0.599717
5.94434
-2.807
0.298799
-1.06681
-2.27806
-2.8393
2.76676
6.17474
0.294689
3.11189
5.19911
3.10066
0.225988
3.89491
-5.70707
-3.58292
-5.93644
-0.346875
4.51492
1.72218
7.99224
5.78599
4.79257
-1.85387
-10.0642
6.53638
-1.99434
5.2037
-1.14798
-4.87311
5.05289
2.25841
-5.62395
0.00677181
-4.86634
-6.86068
-0.492947
8.33189
-9.65667
8.60249
5.72495
1.36417
-4.44384
-0.743447
4.28615
0.146135
10.5654
-0.904653
-7.16795
8.0726
-4.52522
3.53813
0.734109
2.66452
2.29284
1.42573
-5.74222
-10.0197
-1.93214
-1.60338
-4.199
0.582915
-2.39762
6.10501
-2.56688
3.83685
5.50573
6.60215
-2.07129
-4.21763
6.33083
-2.49398
4.10816
)
;

boundaryField
{
    wall-4
    {
        type            calculated;
        value           uniform 0;
    }
    velocity-inlet-5
    {
        type            calculated;
        value           uniform -3.75095;
    }
    velocity-inlet-6
    {
        type            calculated;
        value           uniform -5.62643;
    }
    pressure-outlet-7
    {
        type            calculated;
        value           nonuniform List<scalar> 8(3.16338 7.62784 4.25125 9.75827 7.55857 5.18442 5.95117 9.01844);
    }
    wall-8
    {
        type            calculated;
        value           uniform 0;
    }
    frontAndBackPlanes
    {
        type            empty;
        value           nonuniform 0();
    }
}


// ************************************************************************* //
