/*--------------------------------*- C++ -*----------------------------------*\
  =========                 |
  \\      /  F ield         | OpenFOAM: The Open Source CFD Toolbox
   \\    /   O peration     | Website:  https://openfoam.org
    \\  /    A nd           | Version:  6
     \\/     M anipulation  |
\*---------------------------------------------------------------------------*/
FoamFile
{
    version     2.0;
    format      ascii;
    class       volVectorField;
    location    "42";
    object      U;
}
// * * * * * * * * * * * * * * * * * * * * * * * * * * * * * * * * * * * * * //

dimensions      [0 1 -1 0 0 0 0];

internalField   nonuniform List<vector> 
918
(
(0.985047 -0.000710173 0)
(0.00533489 2.96625 0)
(-0.00304165 0.833704 0)
(0.979574 0.00195719 0)
(-0.0155705 2.02903 2.90908e-20)
(-0.0070852 2.94855 -2.68371e-18)
(0.809967 1.13049 4.18235e-19)
(0.281536 0.105333 -1.55662e-20)
(0.999921 -0.000242218 0)
(0.0815288 0.737286 0)
(0.0111356 0.521253 0)
(0.735022 -0.0165494 0)
(0.0102024 2.93157 0)
(0.00345787 2.79425 0)
(-0.000728571 3.19006 8.1302e-19)
(-0.0137843 1.88691 3.22598e-21)
(0.339215 0.0243196 1.02345e-18)
(0.236516 1.14241 3.35431e-19)
(0.964479 0.00670145 0)
(-0.0228537 0.536725 0)
(0.0764961 0.169159 -7.3971e-19)
(1.00184 -0.00455745 0)
(0.999853 -0.00893341 0)
(0.975157 -0.00605614 0)
(0.595876 -0.0369044 0)
(0.0228682 2.64371 0)
(-0.0123689 2.91199 9.89886e-19)
(-0.00307177 0.906204 0)
(0.00142572 1.13498 0)
(-0.00524231 0.880803 0)
(-0.0241516 2.60902 0)
(-0.00611439 2.0869 -2.32182e-20)
(-0.0103247 1.85409 0)
(-0.0221705 2.9876 -9.70546e-23)
(-0.0165028 3.00551 2.08552e-18)
(0.00230729 3.00061 0)
(0.871261 -0.00950238 0)
(0.376318 0.919516 1.73575e-19)
(0.810045 1.14157 -5.03166e-19)
(0.943524 0.99494 5.23515e-19)
(0.67648 1.2259 -9.60839e-20)
(0.687415 1.20017 5.5483e-19)
(0.309369 0.197872 1.51862e-20)
(0.290701 0.0898527 0)
(1.13215 0.50781 0)
(0.275457 0.193978 6.93916e-20)
(0.253502 0.117085 -7.20077e-20)
(0.920409 -0.0070094 0)
(1.00026 7.51847e-05 0)
(0.999909 0.000316032 0)
(1.00369 -0.00729454 0)
(1.0009 -0.000954224 0)
(1.00011 -1.49179e-05 0)
(0.0954034 1.83334 -7.87073e-19)
(0.0295977 0.911691 0)
(0.13293 0.804851 0)
(0.0182251 0.862795 0)
(0.0431034 0.680939 0)
(0.0102648 2.01065 0)
(0.0136745 0.757154 0)
(0.00734724 0.55409 0)
(0.00457296 0.744991 0)
(0.00433533 0.504595 0)
(0.840677 -0.0154073 0)
(0.841965 0.0329355 0)
(0.767119 -0.00653717 0)
(0.814126 0.0434104 0)
(0.700216 -0.0176056 0)
(0.0139655 3.00019 9.97536e-19)
(0.0111979 3.00592 0)
(0.00630598 3.00391 0)
(0.0118795 2.99708 1.13523e-23)
(0.00829243 2.95872 -1.48258e-18)
(0.0121886 2.98291 0)
(0.00901508 2.90487 0)
(0.0211005 2.93132 2.33312e-24)
(0.00414 2.82426 0)
(0.0262785 2.91884 0)
(-0.00050115 2.74495 0)
(0.310127 3.59031 0)
(-0.122665 3.67361 0)
(0.152538 3.28121 -7.56685e-19)
(0.00579929 3.01416 0)
(-0.0261841 2.02263 0)
(-0.00441254 2.16525 -3.18176e-21)
(-0.00376537 1.90335 -6.44786e-21)
(0.423119 0.135963 -3.53903e-19)
(0.34275 -0.00211456 -3.41796e-19)
(0.398401 0.156051 -1.06591e-18)
(0.325925 0.0432207 -7.01816e-19)
(0.259916 0.99884 0)
(0.335441 1.27223 -3.50638e-19)
(0.412041 1.17557 5.78041e-19)
(0.987909 0.00808557 0)
(0.94341 0.00580216 0)
(1.00029 0.000674701 0)
(1.00254 0.00907306 0)
(1.00314 0.00895052 -2.6966e-18)
(0.992127 0.00948333 2.03774e-18)
(-0.0359468 0.772778 0)
(-0.0173787 0.51053 0)
(-0.020019 0.954905 0)
(-0.00692694 0.798403 0)
(-0.0169755 0.552393 0)
(0.0978294 0.178335 2.28936e-19)
(0.1486 0.15048 0)
(0.993612 -0.00769896 0)
(0.954002 -0.00646255 0)
(0.75955 0.049828 0)
(0.692822 0.0556525 0)
(0.661249 -0.022957 0)
(0.970934 -0.00482574 0)
(0.623921 0.060496 0)
(0.451764 -0.0300891 1.5071e-18)
(-0.0406749 2.86143 7.96453e-19)
(0.0335309 2.91437 0)
(0.0425423 2.89192 0)
(0.00364655 2.70156 0)
(-0.00866941 2.98629 9.49937e-19)
(-0.0142794 2.89473 0)
(-0.011078 2.99167 -2.91933e-18)
(-0.0116087 2.92958 9.93263e-19)
(0.015157 1.33977 0)
(0.0337601 1.38243 0)
(-0.00757242 2.12211 3.06518e-22)
(-0.00872323 2.06984 0)
(-0.0197224 1.87204 0)
(0.93833 -0.00546675 0)
(0.85624 -0.0108348 0)
(0.863586 0.00579558 0)
(0.949275 -0.00636173 0)
(0.883229 -0.00794003 0)
(0.500954 1.12061 -2.1991e-19)
(0.548594 1.19161 0)
(0.337183 0.852483 3.32679e-20)
(0.28094 0.717279 0)
(0.904297 1.03241 -1.45992e-19)
(1.01579 0.83302 2.8542e-19)
(0.393858 1.33244 0)
(0.539689 1.28628 0)
(0.590876 1.22027 0)
(0.0955877 0.17241 -2.98473e-19)
(0.328698 0.195559 0)
(0.292664 0.083447 1.99143e-19)
(0.97902 0.88905 0)
(1.04695 0.730468 0)
(1.07457 0.66442 -2.17181e-19)
(1.11392 0.574375 0)
(1.16861 0.379765 4.47982e-20)
(0.957251 -0.00724639 0)
(0.962595 -0.00819119 0)
(0.900641 -0.00731643 0)
(0.983893 -0.00814864 0)
(0.974355 -0.0080836 0)
(0.936457 -0.00654228 0)
(1.0002 0.00250362 0)
(1.00077 0.0012473 0)
(0.999999 0.000773047 0)
(0.0423241 2.07992 4.37267e-19)
(0.146413 1.77604 0)
(0.015851 2.19841 6.69367e-19)
(0.0551522 1.88384 -5.64955e-19)
(0.173932 1.12234 -2.74723e-19)
(0.0530856 0.986765 0)
(0.123945 0.981068 0)
(0.0047868 0.821364 0)
(0.0291269 0.618744 0)
(-0.00648597 2.24922 -9.07227e-22)
(0.0227428 2.01994 0)
(-0.00584018 2.25083 -3.79332e-20)
(0.00802614 2.02197 6.32089e-20)
(0.00613636 0.791665 0)
(0.00711239 0.775368 0)
(0.00854332 0.584814 0)
(-0.0154394 0.745067 0)
(-1.28596e-06 0.495081 0)
(0.937119 0.0134716 0)
(0.85245 -0.0118415 0)
(0.926867 0.00450634 0)
(0.844226 -0.0126416 0)
(0.812315 -0.000440122 0)
(0.899927 0.0217728 0)
(0.874447 0.0275404 0)
(0.788667 -0.00359089 0)
(0.0102424 3.06724 -9.34559e-21)
(0.0152219 3.05913 0)
(0.0123524 2.97035 0)
(0.00756904 2.87657 0)
(0.901161 3.98891 0)
(1.19662 3.38287 9.43249e-19)
(0.0828177 3.09566 0)
(-0.0160813 2.92106 0)
(0.0145219 1.41386 0)
(-0.0289453 1.73389 0)
(0.003576 1.58167 0)
(-0.0343451 2.56503 -6.24529e-21)
(-0.021921 2.2641 0)
(-0.0268847 2.40515 0)
(0.0118419 1.95068 3.18676e-22)
(-0.0113346 2.22925 9.02125e-22)
(-0.0054258 2.19332 6.33586e-21)
(0.00936656 1.92893 0)
(0.444282 0.113475 5.36866e-19)
(0.358771 -0.0126805 -5.26985e-19)
(0.235559 1.57967 0)
(0.283853 0.737321 -3.26089e-19)
(0.177747 1.68006 -1.08748e-18)
(0.241868 1.20495 1.08821e-18)
(0.901887 0.00615384 0)
(0.967224 0.0104826 0)
(0.975072 0.00973987 0)
(0.923157 0.00595817 0)
(-0.00896802 0.734404 0)
(-0.0269616 0.74358 0)
(-0.0141802 0.499111 0)
(0.235268 0.193697 6.38093e-19)
(0.196059 0.17787 -7.58696e-19)
(0.20158 0.131224 0)
(1.09454 0.0864967 2.60468e-20)
(1.07872 0.0398308 0)
(1.01099 0.0422022 0)
(0.906988 -0.0031636 0)
(0.473922 0.0911507 0)
(0.53312 0.0668717 -2.41589e-18)
(0.391243 -0.0168855 9.09833e-19)
(0.0109729 2.97701 8.36786e-19)
(-0.0333177 2.86169 4.58027e-20)
(0.00824968 3.05332 -1.96828e-20)
(0.0156508 3.04328 7.37182e-19)
(-0.0118847 3.00002 3.26188e-20)
(-0.0122897 2.95232 -1.31548e-22)
(-0.0150266 3.01333 -6.0765e-19)
(0.0143095 3.02664 4.27846e-19)
(0.00755915 3.03481 -6.96266e-19)
(0.933578 0.00165079 0)
(0.938746 -0.00148822 0)
(0.846686 -0.0109537 0)
(0.956599 0.0114904 0)
(0.942879 0.0128206 0)
(0.881886 0.00592597 0)
(0.916925 0.0173703 0)
(0.925963 0.0145845 0)
(0.838191 0.00279151 0)
(0.675079 1.42179 8.92106e-21)
(0.693647 1.53316 0)
(0.121395 0.306929 6.98218e-20)
(0.199198 0.635631 5.54769e-19)
(0.234645 0.688286 -3.24677e-19)
(0.219519 0.516007 6.43563e-19)
(0.328625 0.803728 1.57955e-18)
(0.124865 0.224437 3.79668e-19)
(0.373837 0.179868 7.45977e-19)
(0.357552 0.19303 1.93406e-19)
(0.306688 0.0634987 3.70498e-19)
(1.16345 0.430569 6.03762e-20)
(1.19291 0.241478 5.8728e-20)
(0.00449976 2.24237 2.64011e-19)
(0.0432248 1.94896 0)
(0.967744 0.0320678 0)
(0.942998 0.0188512 0)
(0.865794 -0.0159248 0)
(0.0124122 3.07497 0)
(0.0168953 2.94403 1.30961e-18)
(0.0139986 2.95695 0)
(0.00581296 2.84982 -1.2998e-18)
(0.00892632 3.09052 3.20548e-19)
(0.0117693 3.08283 0)
(0.714754 1.83141 -1.71048e-19)
(1.24118 2.63921 5.78513e-19)
(0.699763 2.01022 -1.40338e-18)
(0.0226686 2.97676 -7.33589e-19)
(0.0412796 3 0)
(-0.0381696 2.88039 0)
(-0.007393 2.22681 -1.23793e-20)
(-0.00998621 2.24543 -5.88359e-21)
(0.00896323 1.97948 -8.09314e-21)
(0.263473 1.38506 1.04921e-18)
(0.270339 0.532059 -7.20631e-19)
(0.0704907 1.99668 7.73709e-19)
(0.121934 1.86552 -9.27547e-19)
(0.207634 1.52519 1.01776e-19)
(0.005969 3.12042 -1.79329e-18)
(0.0130548 3.12083 1.97276e-18)
(-0.00508841 2.98056 8.93201e-19)
(-0.00147009 2.97519 -8.59959e-19)
(-0.0177635 2.87737 -9.09762e-19)
(0.0123149 3.10045 -2.38591e-18)
(0.00546509 3.10526 2.41919e-18)
(0.249185 0.674323 0)
(0.203643 0.641049 -1.16981e-18)
(0.0683515 0.210064 5.14099e-19)
(0.339614 0.920156 1.12714e-18)
(0.190033 0.266523 -1.73551e-18)
(1.18039 0.170793 5.81169e-20)
(1.1919 0.294938 0)
(1.17671 0.11874 -3.80345e-21)
(-0.00609807 2.25957 -1.63336e-21)
(-0.00133809 2.24653 0)
(0.0343877 1.98136 0)
(0.313704 1.30628 -3.74473e-19)
(0.350818 1.14873 -8.09095e-19)
(0.220248 0.375515 1.44351e-18)
(1.00642 -0.00972454 0)
(1.00773 -0.00780771 4.95921e-19)
(0.0137495 1.3148 0)
(-0.00972054 1.28904 0)
(1.00245 0.00330859 1.38157e-21)
(1.00323 0.00788114 1.01775e-18)
(-0.0283981 2.54983 7.90584e-21)
(-0.0334319 2.59076 0)
(0.0419442 3.1736 5.31577e-19)
(0.379318 3.55266 0)
(1.13534 0.680469 -6.46565e-20)
(1.01196 0.0107939 -2.78711e-21)
(1.02078 -0.00908909 0)
(1.00159 0.00023437 1.46831e-22)
(0.107608 1.36335 0)
(0.141523 2.59114 0)
(0.0185791 1.30319 0)
(-0.00168712 2.6398 3.19665e-20)
(-0.0218931 2.59105 1.71574e-20)
(0.999148 0.0262968 2.57608e-21)
(1.06151 0.00476738 0)
(1.0979 0.0265373 0)
(-0.0260128 1.76166 0)
(-0.0227269 2.59526 0)
(-0.0129194 1.29293 0)
(0.289859 1.48281 -1.56334e-19)
(1.01146 -0.00910471 0)
(1.00969 -0.0130065 0)
(1.00229 0.000918533 6.35578e-19)
(1.00549 -0.00494517 -7.485e-19)
(1.00115 -0.000877847 0)
(-0.00584484 1.47097 0)
(0.0112568 1.36848 0)
(0.013048 1.43456 0)
(-0.0133122 1.27894 0)
(-0.00555872 1.25209 0)
(-0.0119448 1.23109 0)
(1.03528 -0.00467725 0)
(1.01949 0.0150718 -9.19178e-22)
(0.786256 1.3029 2.55986e-19)
(1.00236 0.000342454 -6.34397e-19)
(1.00339 0.0045163 7.57216e-19)
(1.00129 0.0021122 0)
(1.01132 0.00965153 6.31974e-19)
(1.00697 0.00757114 -7.69222e-19)
(1.00735 0.0112942 0)
(-0.0289665 2.62167 0)
(-0.0332793 2.59979 -1.30251e-20)
(-0.0301047 2.61347 9.22611e-21)
(1.23312 0.265983 5.69833e-19)
(1.1597 0.0871774 0)
(0.0456125 3.09028 -1.03802e-18)
(0.0511416 2.87085 -7.33428e-20)
(0.104784 3.20121 1.38994e-18)
(0.123233 3.21391 -3.06199e-19)
(0.145665 3.26124 0)
(0.0233266 3.13793 2.86265e-19)
(0.0623078 3.16166 1.03399e-18)
(0.0625551 3.17908 -5.35004e-19)
(0.027693 3.12892 0)
(0.629488 0.299471 0)
(0.588132 0.339241 0)
(1.11286 0.712999 1.59123e-19)
(1.07843 0.846322 -1.59318e-19)
(1.17392 0.596685 0)
(1.20481 0.530336 0)
(1.01584 0.0120534 -1.17429e-18)
(1.01478 0.0128267 1.47645e-18)
(1.02554 -0.0088446 0)
(1.02387 -0.0103696 0)
(1.00657 0.00286232 0)
(1.01098 0.00420439 0)
(1.00442 0.00214097 0)
(1.00944 0.0064331 0)
(1.00706 0.00509373 0)
(1.00455 0.00533778 0)
(0.0947014 1.35924 0)
(0.0766351 1.34235 0)
(0.135218 1.4106 0)
(0.131649 1.41204 0)
(0.150335 2.61527 0)
(0.192639 2.68245 -4.35257e-19)
(0.108658 2.67531 0)
(0.0846816 2.67739 1.84674e-19)
(0.0308369 2.68291 -1.88904e-19)
(0.020251 1.31878 0)
(0.0233918 1.25729 0)
(0.0236574 1.33282 0)
(0.0273368 1.27771 0)
(0.00107596 1.99243 5.06578e-22)
(-0.0218899 2.61903 -3.53272e-21)
(-0.00855128 2.68286 1.53788e-20)
(-0.0195586 2.69606 0)
(-0.0253023 2.62671 -3.46243e-20)
(-0.0237978 2.62219 -2.04833e-21)
(0.00965233 1.99153 1.37449e-21)
(-0.00973373 2.41343 4.74014e-21)
(-0.0135866 2.43397 -1.74348e-20)
(1.01 0.0377281 1.19017e-18)
(1.00621 0.0171558 -1.48328e-18)
(1.00336 0.0433442 -1.21696e-18)
(0.977402 0.0299734 1.53203e-18)
(1.06333 0.00812802 0)
(1.04893 -0.00676418 0)
(1.09064 0.0356154 0)
(1.0742 0.0137351 0)
(1.073 -0.000636798 0)
(1.13818 0.0759109 0)
(1.11274 0.0432356 0)
(1.11523 0.0356302 0)
(-0.0261666 2.44802 4.04514e-23)
(-0.0251589 2.02308 0)
(-0.0204862 2.2322 0)
(-0.0247342 2.6159 -7.19826e-21)
(-0.0228875 2.62556 3.53476e-23)
(0.00373585 1.57324 -1.92527e-20)
(0.00298835 1.50067 1.94859e-20)
(-0.0135054 1.38383 0)
(-0.0101233 1.39148 0)
(-0.00863398 1.38779 0)
(-0.0114385 1.29737 0)
(-0.000401679 1.24341 0)
(0.37534 1.50432 2.55577e-19)
(0.421126 1.51129 1.42772e-19)
(0.598036 2.46676 -2.54654e-19)
(0.391451 2.56314 7.09019e-19)
(0.350341 2.07006 7.68352e-20)
(1.02056 -0.00811018 0)
(1.01572 -0.00942666 0)
(1.0148 -0.0132412 0)
(1.00759 -0.000701505 0)
(1.00492 -0.000684321 0)
(1.00798 -0.0045584 0)
(1.0095 -0.00360597 0)
(1.01455 -0.00444344 0)
(1.02026 0.015914 1.15205e-18)
(1.01766 0.0147984 -1.45903e-18)
(1.02073 0.0180986 -1.16111e-18)
(1.01845 0.016496 1.45274e-18)
(0.74616 1.34687 0)
(0.681653 1.38495 2.20182e-19)
(0.851451 1.22538 7.82395e-20)
(0.886132 1.19184 -1.03809e-19)
(1.16622 2.62275 3.0097e-19)
(0.78671 0.122843 5.92378e-19)
(1.1669 0.102728 0)
(1.20546 0.193257 -4.61325e-19)
(1.18628 0.152576 -1.91425e-20)
(1.01226 0.155376 0)
(0.0853982 3.02411 3.74403e-19)
(0.0875272 2.90517 -1.23547e-18)
(0.035309 2.36507 7.84903e-19)
(0.13361 -0.0912095 -3.78023e-19)
(0.346836 3.45501 -2.38919e-19)
(0.196317 3.34565 0)
(0.227412 3.40533 3.11219e-19)
(0.228946 3.08242 -1.28763e-18)
(0.263076 3.20297 0)
(0.00734832 3.12233 5.3491e-20)
(0.0174906 3.13113 -6.1391e-19)
(0.0167341 3.12704 9.0358e-19)
(0.03403 3.13992 0)
(0.0319577 3.14982 0)
(1.26282 2.58953 0)
(0.521474 0.826693 -5.33874e-19)
(0.997881 1.02353 1.05859e-20)
(0.964731 1.07161 0)
(0.834011 0.96138 -1.19299e-19)
(1.05392 0.892713 2.77454e-20)
(0.404682 0.372377 -9.31734e-19)
(0.691654 0.31449 -2.47033e-20)
(0.643444 0.232721 4.19361e-19)
(0.607122 0.364978 3.09392e-20)
(0.520548 0.341452 -1.24765e-18)
(0.656136 0.327274 0)
(0.697383 0.415057 7.22799e-19)
(0.702677 0.421421 0)
(0.638647 0.348612 0)
(0.585838 0.293107 0)
(0.769856 0.645362 4.15482e-19)
(1.2402 0.294392 -4.68083e-19)
(1.22842 0.428831 0)
(1.23519 0.381397 0)
(0.732487 0.179828 6.2692e-19)
(0.832783 0.539916 -3.94318e-19)
(0.750405 0.491744 6.99275e-19)
(0.954968 0.427877 -7.30848e-19)
(1.01887 0.0145088 7.82105e-19)
(1.01733 0.0135899 -7.90036e-19)
(1.01614 0.014238 0)
(1.0366 -0.00488054 0)
(1.03016 -0.00788326 -7.41615e-19)
(1.02831 -0.0107579 7.33999e-19)
(1.02478 0.010454 0)
(1.02294 0.0144372 0)
(1.01253 0.00449489 0)
(1.01454 0.00907007 0)
(1.0161 0.00400095 0)
(1.01535 0.00279991 0)
(0.0628033 1.3554 0)
(0.0618075 1.31948 0)
(0.140816 1.41061 5.07908e-20)
(0.265094 1.47768 7.28816e-20)
(0.160741 1.4521 1.62712e-19)
(0.190584 1.45735 -2.63558e-19)
(0.145795 1.41506 0)
(0.126661 1.57888 -1.17414e-19)
(0.12576 1.57379 0)
(0.344919 2.02839 -1.11837e-19)
(0.337797 2.34324 6.70437e-19)
(0.179162 1.45311 1.02361e-19)
(0.264243 1.37796 1.67838e-20)
(0.189682 1.3807 -1.36723e-20)
(0.279056 1.31346 -1.11048e-19)
(0.252303 1.5757 0)
(0.253345 1.6243 1.1534e-19)
(0.0285177 2.275 -2.12811e-20)
(0.0380585 2.677 0)
(0.06784 2.41454 1.15417e-19)
(0.0618534 2.43399 0)
(0.0708431 2.69394 -2.04892e-19)
(0.0448433 2.71044 0)
(0.0278007 1.41952 2.21826e-20)
(0.036927 1.4787 0)
(0.0332815 1.38209 0)
(0.0246215 1.38184 -2.59981e-20)
(0.000549189 2.66712 -3.14912e-21)
(0.025546 2.70102 2.1753e-19)
(0.00903077 2.73608 1.302e-21)
(0.00204618 1.83734 4.10244e-21)
(-0.00448621 1.68309 -1.33205e-21)
(0.0179019 1.30735 0)
(0.0232788 1.24138 0)
(0.0409109 1.57497 1.32097e-20)
(0.0378852 1.45089 -4.47253e-21)
(0.0352212 1.52179 1.73634e-21)
(0.0450881 1.60375 0)
(-0.0329906 2.28101 6.39897e-20)
(-0.0332784 2.56456 -2.59465e-20)
(-0.0220085 2.46297 1.8163e-21)
(-0.00843919 1.85448 -4.97304e-21)
(-0.0302501 2.5148 -2.76529e-22)
(-0.0247017 2.45434 1.99974e-20)
(1.01861 0.0210599 -7.88225e-19)
(1.01464 0.0270881 7.90995e-19)
(1.01375 0.0168214 0)
(1.01234 0.0679133 1.08409e-18)
(0.991953 0.0548437 -1.24824e-18)
(0.95352 0.0514658 1.3969e-18)
(1.01344 0.111468 -1.47798e-19)
(1.0433 -0.00510162 0)
(1.05126 -0.00108354 7.10635e-19)
(1.03975 -0.00837721 -7.10446e-19)
(1.0706 0.0415446 -4.22402e-20)
(1.06361 0.0277482 3.64462e-19)
(1.06381 0.0626055 0)
(1.0534 0.0517887 -1.31142e-19)
(1.03242 0.0428748 0)
(1.0259 0.0380002 0)
(1.0277 0.0130961 0)
(1.02415 0.0157184 0)
(1.04013 0.032377 2.69467e-19)
(1.03931 0.0273479 -5.96062e-19)
(1.05251 0.0364141 -2.85431e-19)
(1.04854 0.0362596 -3.1472e-19)
(1.07609 0.0670088 6.04686e-19)
(1.09937 0.0528428 0)
(1.10557 0.092121 0)
(-0.0270331 2.29006 4.42129e-20)
(-0.0196727 2.03985 -1.29075e-22)
(-0.0212713 2.04383 0)
(-0.0320951 2.45757 -4.40603e-20)
(-0.0322274 2.41618 9.33766e-23)
(-0.0349548 2.48814 3.80917e-21)
(-0.0243356 2.63491 2.68978e-21)
(-0.0287087 2.57847 -3.77705e-22)
(-0.0260099 2.53072 -3.23829e-22)
(-0.0206167 2.62962 3.45048e-21)
(-0.0247012 2.63042 -3.20722e-21)
(-0.0122741 1.48384 -7.08697e-22)
(0.00233103 1.62283 -1.56088e-20)
(0.365793 1.43344 -1.05251e-19)
(0.363279 1.36094 3.60747e-20)
(0.631189 1.4313 -2.13068e-19)
(0.510144 1.5022 -1.38206e-19)
(0.558417 1.46458 0)
(0.608259 2.42962 2.18453e-19)
(0.667406 2.43169 3.4229e-19)
(0.424723 2.52173 7.99616e-20)
(0.401684 2.54734 -6.86857e-19)
(0.49846 2.49211 5.95091e-19)
(0.549158 2.48254 0)
(0.490098 2.53068 -5.62512e-19)
(0.262309 2.59496 1.18146e-18)
(0.36259 2.57012 -6.13112e-20)
(0.284153 2.65559 -1.63016e-18)
(0.964672 2.39654 7.20701e-19)
(0.847394 2.39512 0)
(1.0114 0.00120439 2.57882e-20)
(1.01525 -0.00533667 -2.1043e-20)
(1.01762 -0.00412453 -3.84769e-19)
(1.01545 -0.00119787 3.83442e-19)
(1.01297 0.00167066 0)
(0.621158 1.29468 0)
(0.657799 1.18224 0)
(0.769729 1.10668 0)
(0.644862 1.14189 0)
(1.197 2.63919 5.01261e-20)
(1.08875 2.38735 0)
(0.825771 2.20025 3.60757e-21)
(0.825628 2.45486 0)
(0.918759 2.54316 -4.43124e-19)
(0.950736 2.49314 2.96092e-19)
(0.806739 0.150406 0)
(0.767322 0.133829 1.61962e-19)
(0.919839 0.150098 9.39987e-19)
(0.835299 0.128055 -3.52375e-19)
(0.792974 0.0873379 -1.08049e-18)
(1.08287 0.230788 -8.77953e-19)
(0.984893 0.294716 -7.76862e-21)
(0.926778 0.330663 8.51675e-19)
(1.01399 0.242799 7.13959e-19)
(0.934407 0.190739 -1.24685e-18)
(0.897352 0.201928 1.55868e-19)
(0.943066 0.294589 -3.27291e-19)
(0.910199 0.204987 0)
(0.999204 0.194762 6.10507e-19)
(1.05379 0.205054 0)
(1.05024 0.213188 0)
(1.12198 0.11919 2.77969e-19)
(1.06187 0.183096 -1.06034e-20)
(1.0762 0.234455 -1.58437e-19)
(1.11536 0.202936 0)
(1.02343 0.046844 6.10381e-19)
(1.03926 0.0607511 7.58946e-19)
(1.03292 0.0448291 -6.05302e-19)
(1.04139 0.0660555 -5.08804e-19)
(1.01508 0.0719872 -7.67605e-19)
(0.991093 0.160294 0)
(0.992659 0.104144 0)
(0.962567 0.0647341 -4.95755e-19)
(0.910739 0.0954461 1.9606e-19)
(1.03772 0.11129 7.04341e-19)
(1.07365 0.130441 -8.13826e-19)
(1.06627 0.170995 7.30765e-19)
(1.034 0.148347 0)
(1.083 0.115123 0)
(1.05674 0.107203 -3.32133e-19)
(1.04419 0.103556 -5.73124e-19)
(0.588136 1.11047 1.17928e-19)
(0.625047 1.43769 -2.4146e-20)
(1.1476 2.73418 -2.49852e-19)
(1.20002 3.11537 3.19652e-21)
(1.25591 2.74072 -1.44854e-19)
(1.29744 2.71248 2.60136e-20)
(1.27326 2.33441 -3.70411e-20)
(1.18788 3.0212 -7.66316e-20)
(1.20661 2.97801 2.28235e-19)
(1.18219 3.26942 -1.22087e-19)
(1.40188 2.98537 1.50995e-19)
(1.41396 2.92418 0)
(0.553795 0.848977 -4.83527e-20)
(0.234982 1.22478 4.9505e-19)
(0.498415 0.447594 5.93846e-19)
(0.374092 0.209775 6.81515e-19)
(0.544419 0.37024 7.04672e-19)
(0.558577 0.467877 -1.13409e-18)
(0.559686 0.465831 9.29187e-19)
(0.511145 0.393877 -3.59415e-19)
(0.439678 0.325347 8.1194e-19)
(0.752946 0.235268 -3.59153e-19)
(0.717618 0.272182 0)
(0.686276 0.196324 9.41104e-21)
(0.73732 0.506462 3.82192e-19)
(0.693 0.476821 -1.38908e-18)
(0.64878 0.462209 2.22792e-20)
(0.644282 0.433019 0)
(0.691825 0.735071 3.83632e-19)
(0.811911 0.792833 4.33255e-19)
(0.740002 0.843948 -5.03128e-19)
(0.879517 0.813389 -1.61252e-19)
(0.913001 0.85357 -4.03388e-20)
(0.920686 0.860615 4.13585e-20)
(0.870789 0.673742 -6.94003e-19)
(0.937106 0.722698 1.49954e-19)
(0.986622 0.724492 0)
(0.985562 0.699627 -1.96419e-19)
(1.03034 0.315563 2.24621e-19)
(1.15017 0.317455 2.77864e-19)
(1.06649 0.270546 3.5959e-19)
(0.990765 0.360147 -4.41575e-19)
(1.03557 0.465786 0)
(1.12294 0.412051 0)
(0.892323 0.405447 6.82808e-21)
(0.842787 0.292287 0)
(0.875362 0.279665 4.05085e-19)
(0.907634 0.327253 9.55702e-21)
(0.963832 0.463672 2.05698e-18)
(0.889684 0.532386 5.26332e-19)
(0.912994 0.475733 -5.69658e-19)
(0.827187 0.453054 6.04222e-19)
(0.810216 0.433004 3.70024e-19)
(0.793098 0.40268 -3.62959e-19)
(1.02796 -0.000530761 6.36121e-19)
(1.02029 0.000348071 0)
(1.01893 0.00119059 4.15044e-19)
(1.02255 -0.000953141 -9.39646e-19)
(1.02245 0.00433065 4.5762e-19)
(1.0201 0.0112459 -9.5761e-19)
(1.02097 0.0110031 0)
(1.01994 0.0117739 -1.9942e-19)
(1.01645 0.00759362 4.99818e-19)
(1.01673 0.0106981 -2.50958e-19)
(1.01739 0.0103139 1.83719e-19)
(0.0288374 1.32325 0)
(0.034166 1.34968 0)
(0.0444013 1.33363 0)
(0.0433452 1.29203 0)
(0.0764717 1.36242 3.4498e-20)
(0.0910025 1.33561 -3.52691e-20)
(0.0503481 1.54585 -1.48941e-20)
(0.105949 1.3779 -5.02809e-20)
(0.0431204 1.46024 1.31714e-21)
(0.0461055 1.45788 -1.4906e-21)
(0.0673752 1.36559 -4.06347e-20)
(0.0571053 1.37009 3.48691e-20)
(0.0473728 1.34822 5.67494e-21)
(0.0396138 1.36648 1.17282e-21)
(0.106787 2.38547 -1.26716e-19)
(0.0972099 2.42832 0)
(0.154902 2.0322 1.05346e-19)
(0.114239 1.70547 4.66277e-20)
(0.217916 2.02589 -8.57406e-20)
(0.215756 2.43333 0)
(0.232866 2.39671 -6.84125e-19)
(0.301653 2.38571 4.94069e-19)
(0.251393 2.00167 -2.29494e-19)
(0.142981 2.16032 1.59048e-19)
(0.112738 2.26568 0)
(0.0225312 1.86241 -4.11624e-20)
(-0.00696658 2.39863 -6.96021e-20)
(0.00436056 2.14601 0)
(0.00607304 2.4594 -1.50406e-20)
(0.0260578 2.30395 2.97612e-20)
(0.0197995 1.40334 -5.36107e-21)
(0.0133422 1.38843 8.51809e-20)
(0.0126059 1.39147 -3.03687e-20)
(0.0201669 1.3909 -2.04454e-20)
(0.0255215 1.42328 0)
(0.0107682 1.37308 0)
(-0.00152993 1.29857 -3.4222e-20)
(0.0039062 1.36473 9.08914e-21)
(0.00850389 1.36714 0)
(0.0139373 1.29703 -2.78812e-20)
(0.0139871 1.22909 5.50886e-20)
(1.04198 0.0139694 0)
(1.04829 0.00952512 -6.65194e-20)
(1.039 0.023003 -4.80208e-19)
(1.04933 0.0218458 0)
(1.05393 0.0209249 0)
(1.03625 0.0119183 -6.72127e-21)
(1.03026 0.0122777 7.70597e-19)
(1.03188 0.0164917 9.37016e-19)
(1.02575 0.0203493 0)
(1.02246 0.0207688 0)
(1.03549 0.0246808 4.7922e-19)
(1.026 0.0268625 0)
(1.02369 0.0271379 0)
(-0.024216 2.03106 0)
(-0.000286994 1.6549 -4.45584e-21)
(-0.0107148 1.76308 -2.19072e-20)
(-0.00495706 1.37048 0)
(-0.0170329 1.55231 -8.45319e-21)
(-0.00401497 1.45495 5.54895e-21)
(-0.00801353 1.3759 0)
(0.403864 1.66088 0)
(0.355471 1.30016 -5.24195e-20)
(0.277442 1.34385 0)
(0.420821 1.30668 -9.7877e-21)
(0.462686 1.46258 0)
(0.445294 1.40436 2.75187e-20)
(1.03976 2.68727 -1.54555e-20)
(0.980139 2.4178 -9.05648e-19)
(0.938687 2.20768 1.03257e-18)
(0.862774 2.38814 2.4182e-19)
(0.854012 2.50404 0)
(0.921571 2.50139 0)
(0.948474 2.38969 0)
(0.925521 2.37714 -9.38189e-19)
(0.694413 2.4749 -3.88672e-19)
(0.8033 2.4586 -9.98741e-20)
(0.811389 2.43683 7.54391e-20)
(0.70421 2.40562 0)
(0.808463 2.39994 0)
(0.770392 2.41493 -3.69211e-19)
(0.768707 2.48285 0)
(0.605389 1.07112 0)
(0.518748 0.894118 -5.52282e-19)
(0.522137 0.95899 -3.2152e-20)
(0.504016 1.09656 0)
(0.491036 1.00937 8.46706e-19)
(0.771067 0.877444 -1.42215e-19)
(0.780701 1.01476 0)
(0.758432 0.993367 2.01011e-19)
(0.645891 1.02296 0)
(0.641179 0.936757 0)
(1.16483 2.7683 -2.2662e-19)
(1.14014 2.82711 -9.36049e-20)
(0.927425 2.35675 8.00205e-20)
(0.903356 2.33538 -7.76318e-20)
(1.13378 2.7461 0)
(1.08556 2.71479 9.33302e-20)
(1.10118 2.5063 -3.04925e-19)
(1.00068 2.25927 -2.85502e-20)
(0.500745 1.35648 0)
(0.518677 1.09436 -1.03953e-19)
(0.579374 1.1781 0)
(0.858249 0.215132 0)
(0.784618 0.166419 0)
(0.724978 0.13571 0)
(0.860236 0.214378 -6.22023e-19)
(0.773462 0.20882 3.73918e-19)
(0.925724 0.0790734 -4.06364e-19)
(0.944207 0.129207 0)
(0.917704 0.139831 1.74689e-19)
(0.858262 0.0991008 7.01149e-19)
(0.821754 0.0684066 -4.3848e-19)
(1.1031 3.36295 -6.79974e-19)
(1.16811 3.28559 0)
(1.12285 3.44814 -1.57906e-18)
(0.662178 3.59341 1.3157e-18)
(1.03374 3.08938 1.20982e-19)
(0.524222 0.828323 5.71633e-19)
(0.511211 0.798006 0)
(0.380177 0.477667 -1.50397e-19)
(0.470632 0.671176 8.68835e-19)
(0.525337 0.45433 -2.06874e-19)
(0.514108 0.503438 2.36716e-19)
(0.691382 0.54302 4.93212e-19)
(0.720971 0.570564 0)
(0.648926 0.607626 0)
(0.621042 0.56001 0)
(0.994178 0.605812 1.03065e-19)
(0.945819 0.5769 -5.09229e-19)
(0.963227 0.599934 3.81657e-19)
(1.02544 0.527017 -3.81421e-19)
(1.0649 0.497687 0)
(1.06816 0.589127 -9.93325e-20)
(0.856355 0.394096 -8.30576e-19)
(0.852261 0.386216 -1.05717e-18)
(0.802739 0.383971 6.52942e-19)
(0.80377 0.340895 -6.73423e-19)
(0.845637 0.301778 -5.24343e-19)
(0.804357 0.300891 6.44586e-19)
(1.0265 0.00629955 -4.79052e-19)
(1.02616 0.00641213 9.65844e-19)
(1.02985 0.000534281 6.16727e-19)
(1.03387 0.00121042 -7.4067e-19)
(1.03363 0.0108373 0)
(1.02979 0.0110521 -1.20508e-18)
(0.0908727 1.66632 1.42652e-20)
(0.0510416 1.59444 0)
(0.102479 1.71231 1.04076e-19)
(0.108029 1.68084 -9.7016e-20)
(0.0319428 1.53714 2.79982e-20)
(0.0242666 1.52092 0)
(0.0069519 1.68606 0)
(-0.00422566 1.49062 4.38623e-21)
(-0.00182766 1.43121 -3.95006e-21)
(-0.00981875 1.5469 3.05434e-21)
(-0.00431763 1.8894 4.40344e-21)
(-0.0189226 1.94333 2.23837e-22)
(0.490205 1.37805 -2.7599e-19)
(0.493818 1.37422 3.01152e-19)
(0.436286 1.29893 -2.35843e-20)
(0.421513 1.29982 8.84422e-21)
(0.611343 1.30329 0)
(0.543408 1.39412 1.00884e-19)
(0.543871 1.39736 -9.81845e-20)
(0.467834 1.27807 2.25688e-20)
(0.509565 1.2403 0)
(0.576295 1.20982 0)
(0.668576 2.43694 5.72822e-19)
(0.662825 2.45984 1.31384e-18)
(0.719612 2.47677 -9.02873e-19)
(0.622571 2.44938 -2.04764e-19)
(0.553194 2.54625 2.83327e-19)
(0.493513 2.50716 -7.3713e-19)
(0.989105 2.39463 -5.81798e-19)
(1.02362 2.4135 0)
(0.945314 2.19237 -6.43025e-19)
(1.05571 2.69542 0)
(1.05497 2.67797 0)
(0.617114 2.3137 2.79981e-20)
(1.12419 3.08259 9.15661e-20)
(1.00679 2.98408 -1.47655e-19)
(0.336359 0.864261 0)
(0.354253 0.771009 -3.04481e-19)
(0.544285 0.697984 -3.09277e-19)
(0.383839 2.16063 0)
(0.411635 2.75126 -8.51089e-20)
(0.423018 2.49065 0)
(0.700865 0.700326 -8.1822e-19)
(0.763639 0.695532 1.14871e-18)
(0.771854 0.657604 -1.1399e-18)
(0.686896 0.65814 -1.04615e-19)
(0.74405 0.613367 -4.35273e-19)
(0.979624 2.76926 -6.93603e-20)
(1.01688 2.77191 -2.09098e-19)
(0.570561 2.24089 4.04312e-19)
(0.618078 1.75812 -3.25949e-19)
(0.715301 1.87647 -4.9401e-19)
(0.983536 2.41019 -1.37523e-19)
(0.98171 2.36626 3.64407e-19)
(0.662423 1.79733 3.30851e-20)
(0.469511 1.3244 1.75247e-19)
)
;

boundaryField
{
    wall-4
    {
        type            noSlip;
    }
    velocity-inlet-5
    {
        type            fixedValue;
        value           uniform (1 0 0);
    }
    velocity-inlet-6
    {
        type            fixedValue;
        value           uniform (0 3 0);
    }
    pressure-outlet-7
    {
        type            zeroGradient;
    }
    wall-8
    {
        type            noSlip;
    }
    frontAndBackPlanes
    {
        type            empty;
    }
}


// ************************************************************************* //
