/*--------------------------------*- C++ -*----------------------------------*\
  =========                 |
  \\      /  F ield         | OpenFOAM: The Open Source CFD Toolbox
   \\    /   O peration     | Website:  https://openfoam.org
    \\  /    A nd           | Version:  6
     \\/     M anipulation  |
\*---------------------------------------------------------------------------*/
FoamFile
{
    version     2.0;
    format      ascii;
    class       volScalarField;
    location    "8";
    object      Ma;
}
// * * * * * * * * * * * * * * * * * * * * * * * * * * * * * * * * * * * * * //

dimensions      [0 0 0 0 0 0 0];

internalField   nonuniform List<scalar> 
26250
(
3.04803
3.07515
3.106
3.12457
3.14957
3.16251
3.1799
3.17917
3.17298
3.12623
3.01365
2.69731
2.03437
1.0366
0.485383
0.528228
0.587328
0.618554
0.608913
0.572191
0.550493
0.509265
0.43611
0.320707
0.231943
3.04799
3.07519
3.10597
3.12458
3.14961
3.16243
3.18011
3.17931
3.17335
3.12685
3.01505
2.69967
2.03875
1.03809
0.482129
0.525563
0.584885
0.616719
0.608325
0.58843
0.560796
0.517089
0.448332
0.335908
0.248779
3.0479
3.0753
3.10589
3.12463
3.14963
3.16237
3.18032
3.1798
3.17426
3.12846
3.01865
2.70617
2.05187
1.04803
0.488182
0.527522
0.583938
0.614529
0.607059
0.588854
0.55921
0.514734
0.447436
0.335126
0.246144
3.04767
3.07552
3.10566
3.12484
3.14953
3.16237
3.18076
3.18096
3.17542
3.13195
3.02757
2.7158
2.06715
1.07962
0.499001
0.533358
0.583212
0.612219
0.606708
0.583461
0.55856
0.515449
0.447599
0.334063
0.243581
3.04556
3.0779
3.1031
3.12779
3.14639
3.16591
3.17775
3.18657
3.176
3.14869
3.02488
2.772
2.06937
1.0971
0.555046
0.568056
0.603375
0.633271
0.630067
0.613129
0.585984
0.538455
0.465714
0.347648
0.252855
3.04717
3.07608
3.10513
3.12541
3.14904
3.16289
3.1812
3.1836
3.1803
3.14054
3.05047
2.75595
2.14348
1.17726
0.558316
0.562304
0.592659
0.628192
0.634909
0.626116
0.602514
0.556538
0.483914
0.365207
0.269723
3.04531
3.07823
3.10286
3.12793
3.14651
3.16568
3.17878
3.18914
3.18022
3.15923
3.04933
2.82887
2.17213
1.2163
0.619278
0.589508
0.604172
0.646751
0.661158
0.653599
0.629491
0.582421
0.509644
0.391521
0.298575
3.04678
3.07667
3.10453
3.12612
3.14841
3.16355
3.18117
3.18633
3.18434
3.15307
3.07554
2.83261
2.3003
1.35602
0.661584
0.593639
0.606098
0.65931
0.68709
0.681749
0.657829
0.612321
0.54271
0.430256
0.348105
3.04669
3.07682
3.10435
3.12637
3.14812
3.16393
3.18101
3.18773
3.18648
3.16082
3.09135
2.88863
2.41189
1.52089
0.737865
0.603229
0.618892
0.680414
0.717256
0.710939
0.686476
0.645829
0.586199
0.488317
0.433247
3.04636
3.07717
3.104
3.12673
3.14774
3.16442
3.18069
3.18954
3.189
3.16968
3.11628
2.94552
2.5484
1.73679
0.83494
0.60766
0.631041
0.699801
0.742198
0.737602
0.715764
0.68458
0.64392
0.581268
0.591943
2.96824
2.95138
2.94154
2.9349
2.92967
2.92677
2.92145
2.91197
2.87827
2.81794
2.64654
2.26734
1.46389
0.354544
0.145085
0.0444844
0.1696
0.218819
0.22249
0.16465
0.175206
0.124257
0.0496894
0.0426678
0.0986668
2.96824
2.95136
2.94158
2.93487
2.92969
2.9268
2.9215
2.91209
2.8786
2.81867
2.64809
2.27003
1.4675
0.354664
0.15388
0.058855
0.169439
0.223072
0.238839
0.219479
0.192528
0.141587
0.0796841
0.0689757
0.118998
2.96821
2.95134
2.94164
2.93478
2.92976
2.92685
2.92159
2.91239
2.87943
2.82058
2.65183
2.27734
1.48044
0.368676
0.152187
0.08359
0.172133
0.227573
0.246855
0.232362
0.205959
0.162746
0.11724
0.109208
0.131342
2.96814
2.95135
2.94169
2.93465
2.92992
2.92681
2.92178
2.91294
2.88088
2.82388
2.65831
2.29042
1.50552
0.392688
0.162371
0.108251
0.170926
0.230488
0.247297
0.211937
0.214899
0.187842
0.160142
0.154023
0.153195
2.96797
2.95143
2.9417
2.9345
2.9302
2.92659
2.92204
2.91396
2.88543
2.82651
2.67656
2.30138
1.54339
0.447913
0.174421
0.134468
0.171644
0.241799
0.266444
0.25371
0.24356
0.224289
0.206325
0.200423
0.186831
2.96786
2.9516
2.94155
2.93466
2.93017
2.92651
2.92276
2.9147
2.88567
2.83439
2.68283
2.33895
1.60122
0.490234
0.204665
0.15694
0.166751
0.254275
0.28871
0.284424
0.277352
0.265548
0.255454
0.250662
0.232253
2.96772
2.95175
2.9414
2.93479
2.93009
2.9265
2.92326
2.9158
2.8921
2.83926
2.71044
2.3664
1.68146
0.582467
0.249357
0.180214
0.163234
0.274267
0.318903
0.321772
0.315862
0.311739
0.309425
0.307318
0.292128
2.9676
2.95196
2.94122
2.93503
2.92989
2.92677
2.92312
2.91657
2.89249
2.84976
2.72431
2.42319
1.79107
0.676065
0.306689
0.197878
0.164433
0.303585
0.355426
0.360071
0.359205
0.362367
0.369378
0.373282
0.37122
2.96758
2.952
2.94117
2.93513
2.92976
2.92697
2.92307
2.91749
2.89641
2.85882
2.74752
2.48062
1.91185
0.8318
0.372959
0.206126
0.184091
0.343213
0.397418
0.401307
0.406262
0.417471
0.435715
0.453398
0.47927
2.96757
2.95201
2.94116
2.93513
2.92976
2.927
2.92315
2.91852
2.90054
2.86801
2.77269
2.54159
2.0405
1.05695
0.427906
0.211101
0.221013
0.387883
0.441683
0.444707
0.455119
0.474727
0.509184
0.551072
0.653626
2.98635
2.96951
2.9516
2.93496
2.91953
2.90673
2.89341
2.87673
2.83452
2.76012
2.57288
2.14739
1.30667
0.136716
0.332032
0.278666
0.0335957
0.105068
0.152705
0.0806589
0.125977
0.106696
0.110034
0.0737908
0.0573592
2.98628
2.96956
2.95158
2.93497
2.91953
2.90676
2.89339
2.87679
2.83475
2.76116
2.57457
2.1514
1.31318
0.135849
0.338886
0.307477
0.0528989
0.117056
0.155672
0.076561
0.157692
0.136432
0.141585
0.114666
0.0930938
2.98633
2.9695
2.95167
2.93488
2.91961
2.90671
2.89347
2.87701
2.83566
2.76275
2.57931
2.15781
1.32289
0.150152
0.333007
0.329296
0.071549
0.134278
0.164826
0.103554
0.184138
0.166119
0.178482
0.164037
0.139248
2.98622
2.9696
2.95163
2.93487
2.91967
2.90669
2.89351
2.87733
2.83681
2.7663
2.58645
2.17287
1.34761
0.174153
0.33118
0.358533
0.0869299
0.153213
0.18338
0.14245
0.209837
0.19992
0.218575
0.214188
0.188844
2.9861
2.96973
2.95153
2.93492
2.9197
2.90664
2.89364
2.87781
2.83848
2.77163
2.59644
2.19628
1.38702
0.212791
0.333553
0.401653
0.0988961
0.172794
0.206694
0.187955
0.236767
0.237641
0.261206
0.265403
0.241214
2.98606
2.96979
2.95149
2.93495
2.91974
2.90656
2.8939
2.87844
2.84116
2.77838
2.60893
2.22758
1.44135
0.27709
0.331235
0.444828
0.105504
0.193966
0.235066
0.236401
0.26471
0.278872
0.307462
0.319999
0.29975
2.98596
2.96992
2.95136
2.9351
2.91961
2.90667
2.89407
2.87906
2.84473
2.7868
2.62574
2.26981
1.52076
0.365041
0.336802
0.47681
0.1088
0.218349
0.268571
0.283292
0.296494
0.32476
0.358103
0.380674
0.368705
2.98588
2.97
2.95128
2.9352
2.91951
2.90683
2.89409
2.8799
2.8493
2.7958
2.64996
2.31927
1.62595
0.485302
0.351835
0.487078
0.115006
0.248957
0.307331
0.328941
0.33863
0.374733
0.415007
0.449017
0.452722
2.98577
2.97014
2.95115
2.93535
2.91935
2.90703
2.894
2.88106
2.85341
2.80573
2.67703
2.37818
1.7627
0.635327
0.371414
0.4764
0.134235
0.288663
0.349883
0.373508
0.388834
0.427479
0.477532
0.52763
0.560768
2.98584
2.9701
2.95119
2.93533
2.91937
2.90707
2.8941
2.88212
2.85798
2.81551
2.70437
2.44006
1.90014
0.84209
0.380974
0.447029
0.172561
0.336748
0.395156
0.418119
0.441266
0.483762
0.54623
0.618601
0.732365
2.96819
2.95135
2.94163
2.93478
2.92976
2.92685
2.92154
2.91222
2.87885
2.819
2.64788
2.26741
1.46246
0.343584
0.165761
0.0390911
0.159274
0.218135
0.241385
0.233659
0.205547
0.156568
0.0900381
0.0489414
0.101113
2.96813
2.95129
2.9417
2.93466
2.9298
2.9269
2.92151
2.91252
2.88151
2.81832
2.6571
2.26201
1.46915
0.368866
0.147737
0.0570871
0.168117
0.221669
0.226811
0.156972
0.172925
0.132832
0.0796458
0.0763515
0.116533
2.96812
2.95137
2.94167
2.93468
2.92989
2.92684
2.9217
2.91273
2.88014
2.822
2.65349
2.27828
1.48359
0.363385
0.164193
0.0792607
0.162508
0.220564
0.229705
0.185002
0.188899
0.147318
0.111191
0.117951
0.130877
2.96802
2.95139
2.94171
2.93453
2.93008
2.92676
2.92174
2.91341
2.88374
2.82317
2.66792
2.28216
1.50752
0.406329
0.161542
0.106149
0.168326
0.231319
0.249988
0.231585
0.214181
0.178813
0.152911
0.159781
0.157822
2.96792
2.9515
2.94164
2.93454
2.93022
2.92655
2.92218
2.91417
2.88577
2.82738
2.67799
2.30231
1.5475
0.447228
0.177197
0.132663
0.167782
0.240987
0.26547
0.248573
0.24199
0.21791
0.199565
0.203772
0.192137
2.96782
2.95162
2.94154
2.93464
2.93022
2.92641
2.92291
2.91487
2.88886
2.83254
2.69231
2.33021
1.60281
0.505468
0.204902
0.158343
0.165509
0.255029
0.289668
0.286543
0.276995
0.262461
0.250786
0.252349
0.236424
2.96769
2.95181
2.9414
2.93483
2.93008
2.92658
2.92317
2.91568
2.88897
2.84166
2.70242
2.37633
1.68262
0.56879
0.248331
0.180668
0.162334
0.274425
0.31962
0.322598
0.316174
0.310812
0.306748
0.308091
0.294911
2.96761
2.95194
2.94125
2.93502
2.92991
2.92676
2.92315
2.91656
2.89255
2.84976
2.72449
2.42394
1.7897
0.677523
0.307063
0.195777
0.165087
0.304352
0.356154
0.360401
0.359578
0.36249
0.368042
0.373542
0.372923
2.96758
2.952
2.94117
2.93513
2.92976
2.92697
2.92307
2.91751
2.8965
2.85901
2.74795
2.48188
1.91339
0.836041
0.373226
0.204517
0.184813
0.344152
0.398033
0.40157
0.406633
0.417793
0.434957
0.453481
0.480318
2.96758
2.952
2.94116
2.93513
2.92975
2.927
2.92315
2.91854
2.9006
2.86815
2.77304
2.54269
2.04249
1.06128
0.427214
0.209713
0.222363
0.388798
0.442008
0.444633
0.455148
0.474952
0.508666
0.550672
0.654469
3.04769
3.07552
3.10572
3.12476
3.14963
3.16232
3.18055
3.18027
3.17542
3.1283
3.02036
2.69492
2.01038
1.02368
0.431194
0.504628
0.574685
0.60601
0.597199
0.578401
0.55213
0.507525
0.438384
0.32675
0.240193
3.04559
3.07791
3.10307
3.1278
3.14639
3.1659
3.17721
3.18509
3.1735
3.14288
3.00891
2.73832
2.00755
1.01191
0.500753
0.554205
0.614656
0.647769
0.638097
0.60347
0.57787
0.530796
0.453682
0.335501
0.244465
3.04752
3.0757
3.10551
3.12497
3.14947
3.1624
3.18094
3.18143
3.176
3.13213
3.03052
2.70433
2.02035
1.05958
0.45141
0.516251
0.580336
0.61162
0.604435
0.575181
0.554782
0.511753
0.436606
0.319355
0.230632
3.04567
3.07788
3.10306
3.12781
3.14641
3.16581
3.17761
3.18568
3.17472
3.14346
3.01639
2.75078
2.03543
1.06283
0.519227
0.552872
0.598044
0.628241
0.6217
0.60301
0.577295
0.531092
0.455687
0.335546
0.241079
3.04564
3.07789
3.10314
3.12772
3.14656
3.16576
3.17783
3.18621
3.17599
3.14382
3.02428
2.76482
2.06183
1.10336
0.534499
0.554261
0.591719
0.625404
0.624922
0.608971
0.585417
0.540775
0.467324
0.348067
0.252466
3.04559
3.07789
3.10321
3.12763
3.14662
3.16573
3.17831
3.18765
3.17811
3.15136
3.03572
2.79322
2.10938
1.14973
0.567285
0.56738
0.594215
0.632576
0.639485
0.629085
0.605278
0.55993
0.486636
0.366862
0.270401
3.04699
3.07639
3.10486
3.12572
3.14883
3.16311
3.1813
3.18468
3.18199
3.14608
3.06026
2.79048
2.21497
1.24032
0.596267
0.573529
0.592546
0.638774
0.65676
0.651365
0.627781
0.583929
0.511032
0.393831
0.300156
3.04687
3.07658
3.10463
3.12604
3.1485
3.16347
3.18123
3.18599
3.18401
3.15276
3.07188
2.83737
2.30304
1.35511
0.657057
0.588517
0.600887
0.655702
0.684354
0.679578
0.655207
0.61269
0.543367
0.432205
0.350245
3.0467
3.07682
3.10434
3.1264
3.14809
3.16397
3.18099
3.1878
3.18659
3.16119
3.09232
2.89108
2.41665
1.52826
0.73861
0.601961
0.617536
0.679364
0.715482
0.708929
0.683455
0.645287
0.58607
0.489545
0.435236
3.04643
3.07707
3.10406
3.12672
3.14769
3.16449
3.18065
3.18953
3.18899
3.16987
3.117
2.94765
2.55458
1.74504
0.83679
0.605943
0.629918
0.699109
0.74065
0.735413
0.71299
0.683503
0.64368
0.581245
0.59358
3.04565
3.07795
3.1031
3.12777
3.14657
3.16575
3.17925
3.1914
3.18731
3.18023
3.12552
3.0053
2.64099
1.91542
0.964397
0.60844
0.645188
0.716717
0.763344
0.763847
0.74788
0.731097
0.719047
0.717253
0.77527
3.04748
3.07614
3.10498
3.12588
3.14849
3.16374
3.18151
3.18918
3.19172
3.17975
3.14497
3.01043
2.72711
2.01877
1.04188
0.610329
0.653914
0.722957
0.779045
0.787718
0.780568
0.777802
0.785056
0.814391
0.891884
3.04545
3.07813
3.10291
3.12794
3.1464
3.16591
3.17927
3.19233
3.19111
3.18595
3.14119
3.04593
2.73678
2.14445
1.16928
0.681303
0.689944
0.743942
0.796746
0.810005
0.810152
0.81618
0.834757
0.875889
0.953205
3.04822
3.07531
3.10588
3.12489
3.14954
3.16266
3.18261
3.18899
3.19503
3.18477
3.15305
3.04217
2.79792
2.16351
1.2304
0.739991
0.728874
0.772219
0.817526
0.834685
0.840797
0.852438
0.876774
0.918635
0.987573
3.04801
3.07554
3.10565
3.12512
3.14935
3.16285
3.18252
3.18953
3.19654
3.18718
3.16119
3.05886
2.85493
2.25358
1.35661
0.821086
0.780068
0.808904
0.84294
0.86084
0.870307
0.88473
0.909972
0.950347
1.01027
3.04515
3.07846
3.10253
3.12836
3.14596
3.16646
3.17894
3.19413
3.19606
3.19314
3.16121
3.08701
2.85345
2.39807
1.49161
0.8926
0.828386
0.844915
0.86729
0.886008
0.897191
0.913157
0.937097
0.973481
1.02495
3.04537
3.07824
3.10273
3.12818
3.14613
3.16627
3.17921
3.19422
3.19764
3.19537
3.16797
3.10103
2.89889
2.50171
1.63072
0.995614
0.880306
0.879142
0.891458
0.908293
0.921417
0.937248
0.959591
0.991527
1.03518
3.04579
3.07782
3.10297
3.128
3.14655
3.16557
3.18002
3.19374
3.19878
3.19675
3.17462
3.10874
2.95445
2.53723
1.8438
1.12389
0.940081
0.924988
0.929331
0.941685
0.953121
0.965162
0.982724
1.00904
1.04456
3.04595
3.07766
3.10335
3.12756
3.14676
3.16565
3.17989
3.19411
3.20068
3.19961
3.18286
3.13382
3.01158
2.69284
2.09025
1.27721
1.0054
0.976173
0.975698
0.984727
0.995174
1.00359
1.01565
1.03381
1.05817
3.04691
3.07665
3.10442
3.1264
3.14795
3.16445
3.18118
3.19318
3.20361
3.20106
3.19478
3.15532
3.06086
2.81817
2.26649
1.46299
1.06219
1.00833
1.01062
1.01941
1.02957
1.03774
1.04716
1.06026
1.07721
3.04485
3.07876
3.10223
3.12866
3.14563
3.16689
3.17872
3.196
3.20187
3.2075
3.19941
3.17537
3.09039
2.9096
2.41625
1.60529
1.08625
1.00698
1.01056
1.02374
1.03896
1.05119
1.06113
1.07219
1.08744
3.04714
3.07637
3.10472
3.12605
3.14832
3.16403
3.18174
3.19292
3.20607
3.20831
3.20635
3.18135
3.11964
2.94938
2.56088
1.83061
1.18882
1.03054
1.01913
1.02843
1.04199
1.05431
1.06364
1.07467
1.08978
3.04543
3.07819
3.10284
3.12803
3.14634
3.16607
3.17969
3.19528
3.20382
3.21159
3.20731
3.1903
3.14279
3.0072
2.71752
2.01403
1.30191
1.06551
1.03774
1.04046
1.04819
1.05737
1.0657
1.07639
1.09081
3.04563
3.07798
3.10306
3.1278
3.1466
3.16582
3.18003
3.19488
3.20518
3.21406
3.21078
3.20091
3.16285
3.06943
2.82717
2.30081
1.49558
1.11361
1.04801
1.04489
1.04967
1.05815
1.06805
1.07934
1.09361
3.04527
3.07835
3.10272
3.12817
3.14626
3.16619
3.17973
3.19523
3.20511
3.21535
3.21428
3.20859
3.17965
3.10486
2.90752
2.48944
1.68558
1.14631
1.03114
1.02524
1.03354
1.04546
1.0597
1.07427
1.09085
3.04567
3.078
3.10312
3.12772
3.14669
3.1658
3.17996
3.19514
3.20527
3.21599
3.21738
3.21424
3.19248
3.13389
2.97551
2.6409
1.89727
1.23444
1.03561
1.01672
1.02372
1.03606
1.05275
1.06993
1.0885
3.04588
3.07776
3.10328
3.12763
3.14671
3.1658
3.18
3.19512
3.20541
3.21669
3.22011
3.21836
3.20242
3.15568
3.03957
2.76835
2.15392
1.34503
1.04607
1.01104
1.01744
1.03069
1.04923
1.06853
1.08859
3.04613
3.07748
3.10357
3.12732
3.14701
3.16548
3.18031
3.19481
3.20576
3.21673
3.22191
3.2212
3.20921
3.17216
3.0791
2.85389
2.31467
1.50169
1.03845
0.973888
0.985657
1.00257
1.02697
1.05367
1.07807
3.04643
3.07716
3.10391
3.12696
3.14737
3.16509
3.18066
3.1944
3.20611
3.2166
3.22348
3.2231
3.21362
3.18402
3.10244
2.91209
2.42507
1.60912
1.02368
0.920065
0.931407
0.954362
0.986364
1.02188
1.0522
3.04604
3.07737
3.10372
3.127
3.14739
3.16499
3.18084
3.19426
3.20632
3.21656
3.22388
3.22368
3.21707
3.19264
3.12464
2.95876
2.54271
1.75548
1.06239
0.889354
0.890901
0.914492
0.951486
0.992444
1.0258
3.04568
3.07786
3.10316
3.12767
3.14668
3.16582
3.18001
3.19515
3.20554
3.21732
3.22327
3.22472
3.22006
3.19945
3.14627
3.00113
2.66998
1.93696
1.11532
0.877296
0.875269
0.900337
0.939977
0.98072
1.01153
3.04582
3.0778
3.10321
3.12771
3.14657
3.166
3.17977
3.19536
3.2053
3.2177
3.22341
3.22803
3.22381
3.20781
3.15919
3.04125
2.73634
2.10809
1.22774
0.865916
0.851582
0.880043
0.922642
0.962825
0.990721
3.04596
3.07766
3.10333
3.12753
3.14671
3.16577
3.17997
3.19511
3.20554
3.21758
3.22386
3.22942
3.22609
3.21161
3.17011
3.06273
2.7878
2.22488
1.30155
0.835984
0.806248
0.838482
0.883093
0.923988
0.951653
3.04581
3.07773
3.10334
3.12746
3.14691
3.16555
3.18027
3.19491
3.20583
3.21728
3.22475
3.23072
3.22772
3.2158
3.17576
3.07912
2.81261
2.28879
1.34386
0.809671
0.773895
0.804218
0.845259
0.883808
0.909905
3.04575
3.07787
3.10322
3.12767
3.14674
3.16569
3.18017
3.19485
3.20591
3.21712
3.22516
3.23156
3.22896
3.21834
3.18126
3.08983
2.83898
2.33963
1.40688
0.821117
0.764445
0.786257
0.818806
0.854044
0.880795
3.04586
3.07779
3.10328
3.12755
3.14688
3.16549
3.1804
3.19471
3.20591
3.21737
3.22481
3.2313
3.22876
3.21769
3.18524
3.09202
2.8684
2.33199
1.48595
0.850236
0.764002
0.777116
0.804569
0.840678
0.870536
3.04567
3.07778
3.10334
3.12746
3.14694
3.16557
3.18024
3.19493
3.2058
3.21735
3.22504
3.23218
3.22904
3.22394
3.19224
3.11689
2.89427
2.46542
1.5627
0.878712
0.755396
0.765731
0.794798
0.837824
0.875591
3.04589
3.0777
3.10336
3.12748
3.1469
3.16554
3.18031
3.19479
3.20596
3.21724
3.22521
3.2322
3.22965
3.22287
3.1964
3.1204
2.93771
2.4847
1.70637
0.931399
0.750066
0.759846
0.799009
0.852827
0.89162
3.04578
3.07784
3.1032
3.12768
3.14666
3.1658
3.18003
3.19505
3.20574
3.21734
3.22534
3.23243
3.23139
3.22597
3.2051
3.13944
2.98925
2.60693
1.87575
0.968893
0.72639
0.739303
0.789537
0.850881
0.883474
3.04573
3.07783
3.10319
3.12768
3.14665
3.16583
3.18
3.19512
3.20565
3.21754
3.22509
3.23326
3.23283
3.22885
3.21051
3.15373
3.0167
2.68734
1.98956
1.04684
0.673214
0.688512
0.74806
0.821791
0.860084
3.04565
3.07796
3.10306
3.12783
3.1465
3.166
3.17984
3.19527
3.20554
3.21762
3.22508
3.23356
3.23376
3.23132
3.21261
3.16201
3.02567
2.73132
2.02404
1.07367
0.632189
0.650944
0.718181
0.798945
0.845645
3.0459
3.07767
3.10334
3.12752
3.14679
3.16568
3.18013
3.19498
3.20579
3.21738
3.22532
3.23316
3.23386
3.23028
3.21401
3.16052
3.03644
2.71915
2.04323
1.08803
0.615973
0.632522
0.699501
0.781797
0.835192
3.0457
3.07791
3.10312
3.12777
3.14656
3.16593
3.17989
3.19526
3.20551
3.21771
3.22505
3.23368
3.23468
3.23261
3.21524
3.16779
3.04022
2.76316
2.06996
1.12535
0.631248
0.638925
0.700214
0.779714
0.835119
3.04571
3.07791
3.10311
3.12778
3.14656
3.16593
3.17989
3.19524
3.20555
3.21764
3.22515
3.23363
3.23486
3.23279
3.21611
3.16963
3.04547
2.77511
2.09158
1.15473
0.644538
0.64501
0.702149
0.778951
0.834207
3.04571
3.07793
3.1031
3.12781
3.14653
3.16596
3.17989
3.19525
3.20555
3.2177
3.22505
3.23384
3.23506
3.23301
3.21598
3.17132
3.04799
2.78857
2.10989
1.1796
0.660847
0.65477
0.707681
0.780122
0.832239
3.04569
3.07797
3.10307
3.12785
3.14651
3.16598
3.17989
3.19523
3.20561
3.21757
3.22524
3.23357
3.23494
3.23297
3.21676
3.17174
3.05097
2.78897
2.11993
1.191
0.67247
0.660084
0.709067
0.776838
0.824538
3.04565
3.07803
3.10304
3.12786
3.14657
3.16588
3.18008
3.195
3.20588
3.21731
3.22545
3.2332
3.23457
3.23157
3.21661
3.16843
3.05282
2.76753
2.11246
1.17762
0.66912
0.657013
0.704867
0.7702
0.814736
3.04559
3.07809
3.10302
3.12791
3.14654
3.16597
3.17993
3.19524
3.20557
3.21766
3.2251
3.23374
3.23501
3.23311
3.21641
3.17248
3.05226
2.79777
2.13831
1.21292
0.700552
0.681611
0.724552
0.784965
0.821607
3.04555
3.07812
3.10303
3.12789
3.14659
3.16591
3.18
3.19515
3.20571
3.21745
3.22535
3.23337
3.23466
3.2322
3.21684
3.17109
3.05296
2.7856
2.13149
1.19484
0.689877
0.675631
0.720652
0.778793
0.812892
3.04551
3.07816
3.10301
3.12789
3.14663
3.16585
3.1801
3.19505
3.20581
3.21735
3.22548
3.23301
3.2342
3.231
3.21612
3.16837
3.054
2.77468
2.13053
1.18959
0.687596
0.674406
0.718131
0.771797
0.800752
2.96803
2.95156
2.9416
2.93468
2.93021
2.92649
2.92367
2.91775
2.90677
2.87079
2.79533
2.60855
2.13809
1.29444
0.447187
0.217456
0.259014
0.428163
0.481999
0.487065
0.502745
0.532255
0.586254
0.664867
0.818553
2.96816
2.95149
2.94168
2.93465
2.93028
2.92649
2.92378
2.91825
2.9087
2.87738
2.80875
2.6508
2.23071
1.48177
0.47837
0.224479
0.302209
0.464347
0.515801
0.524205
0.545811
0.585923
0.653819
0.750413
0.893845
2.96808
2.95149
2.94165
2.93462
2.93028
2.92648
2.92401
2.91911
2.91015
2.87962
2.82092
2.6699
2.29684
1.59704
0.530639
0.241538
0.348806
0.494558
0.541918
0.555027
0.582959
0.632126
0.706635
0.800142
0.915149
2.96822
2.95146
2.94174
2.93463
2.93033
2.92652
2.92421
2.91978
2.91143
2.88692
2.82764
2.70095
2.3383
1.69378
0.657696
0.276474
0.394025
0.51819
0.562176
0.580445
0.612902
0.666889
0.740772
0.82769
0.925596
2.9678
2.95187
2.94133
2.93504
2.92991
2.927
2.92376
2.921
2.91043
2.89113
2.83561
2.70067
2.40788
1.74905
0.766339
0.330466
0.437919
0.531552
0.576443
0.600578
0.637149
0.691454
0.76123
0.840231
0.927529
2.96792
2.95163
2.94151
2.93475
2.93016
2.92664
2.92425
2.92083
2.9138
2.8898
2.84556
2.7265
2.43536
1.8713
0.843785
0.405624
0.471602
0.533636
0.583443
0.613553
0.653093
0.705791
0.76951
0.844001
0.920449
2.96767
2.95187
2.94125
2.935
2.92991
2.92687
2.92411
2.92139
2.91494
2.89315
2.85402
2.7466
2.48411
1.96917
0.980027
0.501898
0.488966
0.537745
0.587056
0.621147
0.661642
0.711608
0.769704
0.838652
0.907834
2.96777
2.95182
2.94128
2.93501
2.9299
2.92693
2.92396
2.92163
2.91434
2.90079
2.86332
2.76786
2.56954
2.0308
1.15092
0.606858
0.506664
0.541751
0.588321
0.625253
0.664258
0.71134
0.764316
0.826663
0.889025
2.9678
2.9518
2.94133
2.93496
2.92993
2.92694
2.92402
2.92177
2.91551
2.90455
2.87059
2.79306
2.62025
2.16666
1.36379
0.721698
0.534004
0.555757
0.59514
0.631414
0.66527
0.70774
0.755845
0.80854
0.86362
2.96788
2.95174
2.94141
2.93492
2.92999
2.92693
2.92413
2.92209
2.91715
2.9083
2.87757
2.82152
2.66677
2.3251
1.61961
0.853289
0.591126
0.591682
0.615274
0.644976
0.670616
0.704759
0.744319
0.787169
0.833725
2.96816
2.95139
2.94173
2.93453
2.93036
2.92652
2.92462
2.92196
2.91943
2.90919
2.89153
2.83745
2.71861
2.44654
1.85381
1.00661
0.643592
0.62809
0.642078
0.662543
0.679849
0.702252
0.731086
0.765977
0.805408
2.96825
2.9514
2.94176
2.93457
2.93036
2.92657
2.92464
2.92215
2.92
2.912
2.89789
2.85583
2.75659
2.5442
1.98881
1.14714
0.699696
0.644277
0.656803
0.671955
0.685341
0.698219
0.71738
0.745035
0.779296
2.96822
2.95135
2.94179
2.93447
2.93044
2.92645
2.92474
2.92224
2.92065
2.91582
2.90212
2.86963
2.79655
2.58753
2.18733
1.3693
0.79953
0.65591
0.660409
0.671011
0.682792
0.691087
0.705385
0.727724
0.757293
2.96805
2.95154
2.9416
2.93469
2.93024
2.92667
2.92457
2.92239
2.92078
2.91593
2.90697
2.87811
2.81859
2.66771
2.31717
1.61722
0.913871
0.684902
0.667328
0.670894
0.679126
0.685648
0.697483
0.716547
0.742316
2.96801
2.95156
2.94159
2.9347
2.93023
2.92669
2.92457
2.92246
2.92102
2.91735
2.91043
2.88655
2.84283
2.72028
2.45363
1.8636
1.04779
0.711358
0.668116
0.670766
0.675693
0.682484
0.693601
0.710976
0.734325
2.96802
2.95156
2.94159
2.9347
2.93021
2.9267
2.92455
2.92252
2.92121
2.91842
2.91298
2.89298
2.85922
2.76052
2.53407
2.07103
1.17895
0.741661
0.65036
0.653949
0.662217
0.676159
0.690444
0.708611
0.731216
2.96773
2.95186
2.9413
2.93499
2.92994
2.92698
2.9243
2.92279
2.92119
2.91937
2.91487
2.89893
2.87198
2.79235
2.60942
2.22283
1.41317
0.824252
0.634347
0.630761
0.644819
0.666844
0.686608
0.707661
0.731129
2.96783
2.95178
2.94138
2.93493
2.92999
2.92695
2.9243
2.92285
2.92109
2.91975
2.9151
2.90652
2.87961
2.82233
2.681
2.35514
1.67282
0.917818
0.642709
0.621665
0.634958
0.659416
0.684103
0.708531
0.733088
2.96805
2.95158
2.94157
2.93476
2.93016
2.92679
2.92447
2.92269
2.92135
2.91989
2.91728
2.90702
2.89031
2.83604
2.72469
2.45916
1.86735
1.01883
0.623819
0.590573
0.611439
0.64244
0.676352
0.706129
0.732733
2.96809
2.9515
2.94163
2.93467
2.93022
2.92671
2.92454
2.92263
2.92143
2.91998
2.9179
2.90911
2.89536
2.8482
2.7548
2.52772
1.98398
1.14261
0.623487
0.532842
0.563474
0.610132
0.659905
0.6969
0.726304
2.96816
2.95143
2.94169
2.9346
2.93029
2.92664
2.92461
2.92255
2.92152
2.91996
2.91826
2.911
2.89931
2.85896
2.78067
2.58405
2.10845
1.303
0.650938
0.466704
0.507969
0.576446
0.640365
0.682622
0.714071
2.96814
2.95144
2.94169
2.9346
2.9303
2.92663
2.92463
2.92253
2.92156
2.91996
2.91858
2.9127
2.90261
2.86887
2.80187
2.62989
2.22682
1.47582
0.692014
0.434348
0.482448
0.561241
0.627042
0.668372
0.699214
2.96813
2.95146
2.94168
2.93461
2.93029
2.92663
2.92462
2.92253
2.92156
2.92001
2.91872
2.91358
2.9051
2.87444
2.81978
2.66547
2.33003
1.63859
0.72684
0.394593
0.457156
0.537076
0.60317
0.644536
0.675758
2.96807
2.95151
2.94164
2.93465
2.93027
2.92666
2.92461
2.92256
2.92154
2.92007
2.91888
2.91442
2.9067
2.87983
2.82927
2.6908
2.3761
1.719
0.752401
0.35235
0.419133
0.492104
0.561783
0.606933
0.641524
2.96804
2.95155
2.94161
2.93469
2.93024
2.92668
2.92459
2.92257
2.92154
2.9201
2.919
2.91502
2.90811
2.88341
2.8373
2.7114
2.41268
1.80428
0.80738
0.35148
0.377042
0.439813
0.512341
0.563902
0.603789
2.96792
2.95166
2.9415
2.93476
2.93016
2.92674
2.92453
2.92262
2.92148
2.92025
2.91918
2.91681
2.90889
2.89066
2.84746
2.72477
2.47721
1.83681
0.877746
0.36522
0.331918
0.384511
0.463807
0.527213
0.573327
2.96796
2.9516
2.94155
2.93473
2.93019
2.92673
2.92454
2.92262
2.9215
2.92019
2.9193
2.91629
2.91043
2.89247
2.84926
2.74838
2.47149
1.92892
0.967923
0.398876
0.284264
0.331941
0.43165
0.509778
0.559931
2.96781
2.95176
2.9414
2.93487
2.93005
2.92686
2.92441
2.92275
2.92138
2.92037
2.91926
2.9175
2.91068
2.89601
2.85916
2.75726
2.54825
1.97445
1.06741
0.433911
0.236148
0.295642
0.427905
0.51596
0.564394
2.96776
2.95182
2.94134
2.93493
2.92999
2.92692
2.92435
2.92281
2.92133
2.92042
2.91929
2.91771
2.91077
2.89903
2.86257
2.77575
2.58486
2.06996
1.22105
0.475143
0.198496
0.276213
0.43893
0.529239
0.571155
2.968
2.95158
2.94156
2.93472
2.93019
2.92673
2.92453
2.92263
2.92151
2.92024
2.91947
2.91739
2.91326
2.89805
2.87099
2.79205
2.60729
2.20643
1.38394
0.521082
0.179205
0.270994
0.446245
0.535986
0.573249
2.96797
2.95161
2.94153
2.93475
2.93015
2.92675
2.92451
2.92264
2.92149
2.92025
2.91953
2.91774
2.91388
2.90021
2.87512
2.80363
2.63269
2.2605
1.51665
0.518057
0.120375
0.247393
0.434587
0.529026
0.568831
2.9678
2.95179
2.94136
2.93493
2.92997
2.92695
2.92431
2.92286
2.92127
2.92051
2.91926
2.91822
2.91338
2.90371
2.8781
2.80995
2.66763
2.27111
1.54839
0.520627
0.0919581
0.22825
0.418641
0.518023
0.562889
2.968
2.95158
2.94156
2.93473
2.93017
2.92674
2.92452
2.92263
2.92149
2.92026
2.91954
2.91789
2.91433
2.90117
2.87891
2.8114
2.65724
2.32079
1.59465
0.560945
0.0827699
0.221068
0.40377
0.507458
0.556856
2.96801
2.95158
2.94157
2.93472
2.93018
2.92673
2.92452
2.92263
2.9215
2.92025
2.91954
2.91788
2.91438
2.90094
2.87973
2.81107
2.66684
2.33679
1.6169
0.59225
0.0789297
0.216419
0.393184
0.500527
0.551764
2.96797
2.95158
2.94154
2.93473
2.93016
2.92674
2.92451
2.92264
2.9215
2.92027
2.91958
2.918
2.91452
2.90167
2.88016
2.81484
2.66595
2.33995
1.629
0.603315
0.0744552
0.206549
0.381832
0.491407
0.543172
2.96797
2.95158
2.94155
2.93472
2.93017
2.92674
2.92452
2.92264
2.9215
2.92027
2.91957
2.91801
2.9146
2.90194
2.88096
2.81658
2.67055
2.35382
1.64679
0.627717
0.0853593
0.208001
0.377368
0.484366
0.533967
2.96778
2.95182
2.94134
2.93496
2.92995
2.92698
2.9243
2.92288
2.92127
2.92052
2.91928
2.91829
2.91379
2.90499
2.88137
2.81928
2.69102
2.32693
1.66148
0.622603
0.0758296
0.197261
0.371896
0.475839
0.523636
2.96784
2.95166
2.94149
2.93476
2.93015
2.92678
2.9245
2.92268
2.92149
2.92031
2.91961
2.91817
2.91471
2.90388
2.88034
2.82221
2.66816
2.35624
1.6614
0.637019
0.0962202
0.202885
0.366582
0.468727
0.514319
2.96774
2.95184
2.94133
2.93496
2.92997
2.92697
2.92431
2.92289
2.92126
2.92053
2.91925
2.91815
2.91335
2.90492
2.87881
2.81954
2.68766
2.33379
1.68907
0.614328
0.0768376
0.187048
0.359626
0.46043
0.505822
2.96773
2.95185
2.94132
2.93497
2.92996
2.92698
2.9243
2.92289
2.92126
2.92053
2.91923
2.91813
2.91326
2.90477
2.87837
2.81936
2.68619
2.33609
1.68818
0.613033
0.0720408
0.180605
0.354947
0.453682
0.498228
2.98662
2.96933
2.95193
2.9346
2.92008
2.90642
2.89493
2.88267
2.86526
2.81872
2.7289
2.51625
1.99981
1.08669
0.364053
0.425784
0.221891
0.386479
0.439643
0.462348
0.491911
0.5399
0.617327
0.71564
0.884772
2.98669
2.96926
2.952
2.93454
2.92016
2.90634
2.89513
2.88281
2.86694
2.82401
2.74761
2.5558
2.11553
1.28424
0.340495
0.39686
0.275202
0.432352
0.479968
0.502921
0.538591
0.593848
0.680826
0.79055
0.94181
2.9858
2.97015
2.95113
2.93541
2.91927
2.90727
2.89415
2.88404
2.86574
2.83469
2.75628
2.57627
2.21329
1.40984
0.378163
0.35697
0.327838
0.471439
0.514249
0.537775
0.578956
0.640184
0.729139
0.832843
0.9519
2.98574
2.97022
2.95107
2.93549
2.91921
2.90736
2.89417
2.88451
2.86744
2.83869
2.76614
2.60161
2.26899
1.53182
0.469937
0.321479
0.375326
0.498664
0.539611
0.565955
0.611966
0.677936
0.761844
0.855501
0.955375
2.98564
2.97032
2.95099
2.93556
2.91919
2.90735
2.89441
2.8845
2.87012
2.84023
2.77613
2.64138
2.28076
1.63555
0.56296
0.298107
0.412724
0.516406
0.555873
0.586215
0.636879
0.704836
0.782471
0.864362
0.951349
2.98638
2.96957
2.95172
2.93481
2.91992
2.90662
2.89514
2.88391
2.87031
2.8391
2.78582
2.64712
2.33191
1.71972
0.644376
0.310892
0.439201
0.521722
0.564234
0.600327
0.653442
0.720772
0.791918
0.866956
0.940688
2.98624
2.96972
2.95158
2.93495
2.9198
2.90676
2.89506
2.88424
2.87112
2.843
2.79437
2.66888
2.37807
1.82196
0.766791
0.372712
0.447269
0.509602
0.564902
0.607577
0.661099
0.725129
0.79239
0.863008
0.927683
2.9862
2.96979
2.95151
2.93504
2.9197
2.90689
2.89498
2.88458
2.87236
2.84868
2.80418
2.69816
2.43406
1.93925
0.933117
0.461853
0.434014
0.496424
0.56029
0.608058
0.660812
0.721243
0.785624
0.850599
0.908729
2.98648
2.96948
2.95179
2.93475
2.91998
2.9066
2.89532
2.88447
2.87375
2.85313
2.8154
2.72379
2.49905
2.06737
1.14043
0.570133
0.430878
0.484954
0.553727
0.603037
0.653102
0.710833
0.771587
0.830582
0.883679
2.98605
2.9699
2.95137
2.93516
2.91956
2.90704
2.8949
2.88524
2.87438
2.86008
2.82081
2.75161
2.57443
2.18463
1.4124
0.681771
0.457417
0.493945
0.552965
0.597726
0.642899
0.695511
0.749562
0.803645
0.853186
2.98656
2.96941
2.95184
2.93472
2.91999
2.90665
2.89532
2.88506
2.87543
2.86291
2.83234
2.77491
2.63566
2.31512
1.65318
0.798461
0.497421
0.520409
0.558906
0.595137
0.632633
0.676102
0.720915
0.769775
0.817986
2.98679
2.96911
2.95218
2.93431
2.92045
2.90611
2.89594
2.88442
2.87681
2.86393
2.84374
2.7861
2.67826
2.41881
1.83707
0.949699
0.554096
0.5387
0.562035
0.592199
0.619859
0.653012
0.690766
0.733996
0.779768
2.98503
2.97095
2.95037
2.93617
2.91859
2.908
2.89407
2.88641
2.87523
2.86737
2.84874
2.80684
2.71132