/*--------------------------------*- C++ -*----------------------------------*\
  =========                 |
  \\      /  F ield         | OpenFOAM: The Open Source CFD Toolbox
   \\    /   O peration     | Website:  https://openfoam.org
    \\  /    A nd           | Version:  6
     \\/     M anipulation  |
\*---------------------------------------------------------------------------*/
FoamFile
{
    version     2.0;
    format      ascii;
    class       volScalarField;
    location    "8";
    object      p;
}
// * * * * * * * * * * * * * * * * * * * * * * * * * * * * * * * * * * * * * //

dimensions      [1 -1 -2 0 0 0 0];

internalField   nonuniform List<scalar> 
26250
(
0.957644
0.911191
0.874732
0.844829
0.819022
0.799363
0.780271
0.772597
0.7754
0.812318
0.848686
1.14238
1.64616
3.58987
8.19575
7.98292
7.29311
6.70093
6.54288
6.56369
6.6148
6.75773
7.06762
7.51513
8.0881
0.957646
0.911182
0.874745
0.844808
0.819043
0.799347
0.780241
0.772443
0.775186
0.811834
0.847865
1.14026
1.64206
3.58065
8.18334
7.96405
7.26886
6.68955
6.52461
6.54218
6.61565
6.7923
7.09388
7.52162
8.10814
0.957646
0.911161
0.87478
0.844752
0.819115
0.799268
0.780278
0.772072
0.774678
0.810519
0.845712
1.13428
1.62989
3.55123
8.13645
7.92083
7.23211
6.66852
6.50781
6.52572
6.61039
6.80808
7.10948
7.5268
8.12422
0.957609
0.911173
0.87484
0.844653
0.819299
0.799023
0.78043
0.771324
0.774179
0.806663
0.840623
1.12474
1.61306
3.49887
8.07317
7.86733
7.20647
6.65026
6.49902
6.52149
6.60153
6.79698
7.10911
7.52919
8.13798
0.957407
0.911424
0.874754
0.844697
0.819417
0.798713
0.780802
0.769685
0.7735
0.780176
0.882988
0.98881
1.76709
3.30284
7.92592
7.7587
7.2175
6.63738
6.47474
6.49476
6.57782
6.77481
7.09936
7.52315
8.15364
0.95757
0.91115
0.874989
0.844395
0.819766
0.798271
0.781307
0.76862
0.770406
0.798673
0.827999
1.08998
1.54426
3.30236
7.75958
7.64416
7.15787
6.60864
6.43709
6.45916
6.54315
6.73566
7.0692
7.49811
8.15353
0.95744
0.911317
0.874955
0.844346
0.819976
0.797787
0.781996
0.76627
0.769289
0.774598
0.863705
0.95199
1.6599
3.03226
7.51293
7.48026
7.17339
6.61159
6.40333
6.42006
6.49651
6.67535
7.00739
7.4378
8.12512
0.957605
0.911081
0.875113
0.844153
0.820136
0.797643
0.782046
0.766393
0.767582
0.790201
0.813338
1.03228
1.40144
2.93111
7.08047
7.44171
7.20149
6.66493
6.36794
6.37428
6.43529
6.59
6.90194
7.31445
8.02432
0.957628
0.911047
0.87515
0.844071
0.820266
0.79739
0.782393
0.765278
0.766084
0.784955
0.804088
0.991708
1.29976
2.63418
6.39504
7.50901
7.30245
6.76303
6.33308
6.30508
6.35267
6.48099
6.74485
7.09372
7.76739
0.957584
0.911105
0.875149
0.844055
0.820355
0.797179
0.782708
0.764064
0.764367
0.776948
0.789482
0.946328
1.1591
2.29426
5.26008
7.82599
7.5673
6.87867
6.30764
6.22
6.25242
6.34088
6.5199
6.73099
7.16836
1.03425
1.0699
1.0929
1.11051
1.12205
1.13358
1.13999
1.15624
1.1816
1.27312
1.4128
2.01331
3.25924
7.81197
17.5592
15.5678
13.6776
12.9891
12.9684
13.1976
13.2699
13.5644
14.0412
14.5185
14.9055
1.03426
1.0699
1.0929
1.11051
1.12205
1.13356
1.13995
1.15611
1.18133
1.27236
1.41123
2.00933
3.25166
7.80113
17.5632
15.4992
13.6276
12.9505
12.9066
13.0411
13.2844
13.6055
14.0337
14.4831
14.8798
1.03427
1.06988
1.0929
1.1105
1.12205
1.13352
1.13988
1.15577
1.18064
1.27037
1.40718
1.9989
3.22797
7.73606
17.464
15.3795
13.537
12.8814
12.8464
12.9884
13.2623
13.5803
13.9814
14.3892
14.8029
1.03428
1.06987
1.09291
1.1105
1.12204
1.1335
1.13973
1.1552
1.1794
1.26687
1.39966
1.98081
3.18262
7.61033
17.3126
15.2128
13.4284
12.8012
12.8056
13.0392
13.1873
13.4847
13.8658
14.2358
14.6652
1.03426
1.06988
1.09289
1.11055
1.12195
1.13364
1.13932
1.15451
1.17503
1.26368
1.37542
1.96275
3.10742
7.36048
17.069
15.0115
13.3042
12.6941
12.7004
12.9011
13.0955
13.352
13.7063
14.0364
14.4765
1.03436
1.06974
1.09302
1.11037
1.12212
1.13346
1.13918
1.15343
1.17517
1.25521
1.3726
1.91612
3.00975
7.10909
16.7023
14.7745
13.1665
12.5666
12.5746
12.7911
12.9788
13.1878
13.5021
13.7813
14.2217
1.03437
1.06969
1.0931
1.11025
1.12229
1.13321
1.13927
1.15228
1.16929
1.24925
1.33921
1.87206
2.87283
6.66673
16.1623
14.599
13.0472
12.4393
12.4398
12.6183
12.8288
12.9862
13.2396
13.45
13.8711
1.03448
1.06957
1.09322
1.11009
1.12247
1.13293
1.13961
1.15118
1.16985
1.23725
1.32999
1.79674
2.6901
6.19818
15.2529
14.4531
13.0254
12.3517
12.2836
12.4334
12.6332
12.7324
12.9052
13.02
13.3715
1.03453
1.06949
1.0933
1.10995
1.12264
1.13264
1.13994
1.15024
1.16695
1.22626
1.30772
1.71686
2.47446
5.56948
13.9334
14.4127
13.2983
12.3037
12.1034
12.2213
12.3837
12.4191
12.4784
12.4491
12.6297
1.03454
1.06945
1.09338
1.10983
1.12284
1.13233
1.1403
1.1492
1.16379
1.21458
1.28255
1.6294
2.2508
4.80507
12.0189
14.8557
13.6586
12.2748
11.9045
11.9837
12.0795
12.0464
11.9494
11.6776
11.4618
1.00863
1.03216
1.05899
1.08781
1.11308
1.1384
1.1594
1.1849
1.22215
1.33705
1.50707
2.23845
3.73744
9.35561
20.4421
17.4169
15.6268
14.9072
14.881
15.0319
15.3543
15.6625
16.1145
16.5456
16.8443
1.00863
1.03216
1.05897
1.08784
1.11304
1.13845
1.15934
1.18489
1.22198
1.33594
1.50548
2.23201
3.72414
9.33188
20.4773
17.3049
15.5738
14.8649
14.8647
15.0498
15.3527
15.6282
16.0617
16.4645
16.7687
1.00864
1.03216
1.05896
1.08785
1.11302
1.13847
1.15928
1.18476
1.22132
1.33408
1.50109
2.22022
3.70383
9.26944
20.4426
17.1169
15.4603
14.7785
14.8085
15.0576
15.3163
15.5372
15.9302
16.2781
16.5881
1.00867
1.03214
1.05895
1.08788
1.11294
1.13856
1.15912
1.18467
1.2205
1.33002
1.49468
2.19466
3.65527
9.12883
20.3754
16.8913
15.299
14.653
14.7098
15.0153
15.2355
15.3975
15.7379
16.022
16.3282
1.0087
1.03209
1.05897
1.08789
1.11289
1.13866
1.1589
1.18455
1.21924
1.32393
1.4853
2.15525
3.57751
8.88807
20.231
16.6302
15.1093
14.4994
14.581
14.9577
15.1265
15.2214
15.4989
15.7086
16.0026
1.00875
1.03203
1.05903
1.08783
1.11291
1.13865
1.15878
1.18422
1.21717
1.31648
1.47144
2.10646
3.46806
8.53358
19.9029
16.376
14.914
14.3305
14.4239
14.8489
14.9922
15.0073
15.2065
15.3287
15.5947
1.0088
1.03196
1.0591
1.08774
1.11297
1.13861
1.15864
1.18397
1.21447
1.30744
1.45039
2.04638
3.30373
8.01778
19.2973
16.1909
14.7409
14.1684
14.2542
14.6621
14.81
14.7621
14.851
14.8591
15.0689
1.00885
1.03189
1.05916
1.08766
1.11305
1.13852
1.15859
1.18362
1.21123
1.29697
1.42042
1.97538
3.09201
7.34403
18.2287
16.1684
14.6703
14.0253
14.0712
14.4023
14.5589
14.4535
14.4227
14.2873
14.3862
1.0089
1.03182
1.05923
1.08757
1.11313
1.13843
1.15855
1.18317
1.20826
1.28447
1.39042
1.88396
2.82059
6.55571
16.6668
16.2879
14.8244
13.9057
13.8489
14.1101
14.2397
14.0792
13.9042
13.5721
13.4548
1.00893
1.03176
1.05933
1.08743
1.1133
1.13823
1.15863
1.18264
1.20467
1.27184
1.36044
1.78691
2.54908
5.66537
14.5422
16.8773
15.1589
13.793
13.5887
13.7954
13.8594
13.6365
13.2819
12.6846
12.1424
1.03425
1.06988
1.09291
1.11048
1.12208
1.13351
1.13989
1.15597
1.18105
1.27217
1.41068
2.01301
3.26112
7.8477
17.6898
15.6053
13.6764
12.9729
12.8973
13.0148
13.2878
13.6264
14.0918
14.5761
14.9915
1.03419
1.06996
1.09283
1.11058
1.12198
1.13364
1.13967
1.15579
1.17854
1.27252
1.39601
2.0192
3.24453
7.77235
17.6302
15.5561
13.6515
12.9602
12.9439
13.1724
13.2577
13.5574
14.0455
14.5247
14.9398
1.03426
1.06987
1.0929
1.1105
1.12206
1.13349
1.13977
1.15545
1.17992
1.269
1.40399
1.99744
3.22312
7.74157
17.5495
15.4229
13.567
12.9082
12.9065
13.1338
13.2266
13.5098
13.9638
14.4071
14.8214
1.03422
1.06991
1.09286
1.11057
1.12195
1.13362
1.13951
1.155
1.17659
1.26742
1.38466
1.99043
3.17633
7.57331
17.396
15.2578
13.4525
12.8135
12.8058
12.9764
13.1791
13.4596
13.8513
14.2411
14.6644
1.03426
1.06986
1.09291
1.11053
1.12197
1.13364
1.13926
1.15437
1.17471
1.26304
1.3741
1.96249
3.10679
7.36252
17.1725
15.0465
13.3186
12.6996
12.7081
12.937
13.1002
13.3527
13.6969
14.0329
14.4669
1.03432
1.06978
1.093
1.1104
1.12209
1.13349
1.13906
1.15366
1.17182
1.25724
1.35848
1.92419
3.00903
7.07171
16.8069
14.8089
13.1759
12.5688
12.577
12.7901
12.9905
13.197
13.4942
13.7727
14.2082
1.03444
1.06964
1.09312
1.11023
1.12227
1.13323
1.13928
1.15208
1.17263
1.24698
1.35276
1.86534
2.87948
6.72345
16.1961
14.6037
13.047
12.4386
12.4399
12.6194
12.8368
12.9941
13.2298
13.4371
13.856
1.03449
1.06956
1.09321
1.11009
1.12244
1.13295
1.13959
1.15118
1.16989
1.23736
1.3303
1.797
2.69565
6.21123
15.2856
14.4669
13.0277
12.3527
12.2845
12.4357
12.6381
12.737
12.8941
13.0029
13.355
1.03452
1.0695
1.09329
1.10995
1.12264
1.13264
1.13994
1.15021
1.16689
1.22606
1.30741
1.7157
2.47382
5.56674
13.9429
14.429
13.3135
12.3089
12.1058
12.2249
12.3883
12.4229
12.4673
12.4288
12.6118
1.03453
1.06945
1.09337
1.10983
1.12285
1.13233
1.14031
1.14919
1.16374
1.21441
1.28222
1.62805
2.24801
4.79503
11.9992
14.8775
13.677
12.2785
11.9078
11.9884
12.0845
12.05
11.9438
11.6563
11.4431
0.957596
0.911184
0.874807
0.844702
0.81921
0.799164
0.780298
0.77187
0.774312
0.809517
0.844678
1.14182
1.65798
3.64208
8.44789
8.11953
7.26502
6.68817
6.51147
6.52723
6.60467
6.79171
7.11992
7.55101
8.14286
0.95738
0.911493
0.874628
0.844896
0.819098
0.799227
0.780151
0.771635
0.775914
0.783418
0.894964
1.01296
1.83553
3.51521
8.33317
8.07553
7.34581
6.71215
6.537
6.55533
6.61084
6.76803
7.10551
7.55829
8.16246
0.957559
0.9112
0.874844
0.844633
0.819374
0.798894
0.780586
0.770914
0.773774
0.805219
0.83922
1.13165
1.64114
3.58437
8.3393
8.0481
7.27113
6.69481
6.52878
6.54642
6.6031
6.76233
7.10205
7.5627
8.16246
0.95738
0.911449
0.874707
0.844761
0.819329
0.798898
0.780515
0.770604
0.775142
0.781996
0.890524
1.004
1.80728
3.40635
8.15573
7.93186
7.28394
6.68119
6.50257
6.51775
6.5898
6.76938
7.10383
7.55807
8.17305
0.957367
0.911446
0.874764
0.844671
0.819489
0.798641
0.780803
0.770119
0.774054
0.780901
0.885887
0.994695
1.77371
3.30738
7.98313
7.80464
7.25408
6.65613
6.47503
6.49371
6.57192
6.76016
7.08909
7.54008
8.17915
0.957414
0.911367
0.874864
0.844504
0.819726
0.798218
0.781395
0.768096
0.771804
0.778017
0.876092
0.975826
1.72831
3.1949
7.80255
7.66948
7.19999
6.62479
6.43558
6.456
6.53781
6.7266
7.05264
7.50263
8.17094
0.957605
0.911104
0.875035
0.844289
0.8199
0.798025
0.781565
0.767728
0.769287
0.795656
0.822479
1.06568
1.48538
3.16533
7.56355
7.50822
7.17074
6.61241
6.39931
6.41499
6.49011
6.66643
6.98731
7.43409
8.13322
0.957639
0.911057
0.875096
0.844172
0.820066
0.797732
0.781927
0.766627
0.767867
0.791547
0.815342
1.03107
1.40524
2.93507
7.13683
7.4562
7.20866
6.66326
6.36389
6.37002
6.43024
6.58122
6.88295
7.30531
8.0255
0.95763
0.911051
0.875145
0.844072
0.82026
0.797382
0.782402
0.765234
0.766021
0.784713
0.803548
0.990875
1.29611
2.63182
6.40822
7.53222
7.31907
6.76421
6.33021
6.30343
6.35024
6.47453
6.72798
7.07989
7.76366
0.957584
0.91109
0.875153
0.844046
0.820366
0.797171
0.782728
0.764057
0.764351
0.776775
0.789164
0.944836
1.15347
2.28375
5.2191
7.8546
7.58778
6.87686
6.30375
6.21938
6.25109
6.33645
6.50766
6.71683
7.15999
0.957523
0.911199
0.875082
0.844145
0.82025
0.797343
0.78241
0.764509
0.763017
0.766469
0.806624
0.846999
1.18375
1.788
4.00331
7.99025
7.67076
6.8777
6.25775
6.11817
6.13291
6.17274
6.19606
6.12106
5.60393
0.957698
0.910958
0.875234
0.843959
0.820446
0.797052
0.78283
0.763653
0.763398
0.768358
0.776033
0.88713
0.997904
1.815
3.35582
7.67244
7.46694
6.85912
6.20205
6.01221
6.00282
5.98064
5.90967
5.69942
5.12961
0.957519
0.911241
0.875025
0.844229
0.820101
0.797547
0.781984
0.764812
0.760181
0.762573
0.793772
0.822793
1.09069
1.50651
3.21907
7.09238
7.06312
6.72321
6.13064
5.92438
5.87981
5.82078
5.69805
5.45078
4.96508
0.957798
0.910858
0.875209
0.844019
0.820218
0.797435
0.782106
0.764488
0.760402
0.764394
0.770669
0.863684
0.949813
1.62888
2.82807
6.55266
6.72417
6.51144
6.05817
5.84202
5.76406
5.6763
5.52153
5.27092
4.87383
0.957732
0.910953
0.875096
0.844183
0.819996
0.797764
0.781608
0.765019
0.758766
0.76235
0.767524
0.850298
0.925837
1.53531
2.57994
5.97376
6.4472
6.30551
5.98255
5.7679
5.66708
5.55908
5.39491
5.15502
4.81795
0.957338
0.911499
0.874745
0.844655
0.81956
0.798321
0.780833
0.765815
0.755967
0.757308
0.779492
0.798046
0.99952
1.25737
2.52446
5.41353
6.15662
6.09491
5.91205
5.70813
5.59159
5.47375
5.31149
5.0906
4.80026
0.957279
0.911566
0.874664
0.844796
0.819388
0.79859
0.780432
0.766255
0.754649
0.755685
0.775047
0.790807
0.965845
1.1788
2.28065
4.75137
5.93596
5.92861
5.84548
5.67178
5.5391
5.41565
5.26138
5.06225
4.8077
0.957308
0.911539
0.874609
0.844885
0.81922
0.798867
0.780007
0.766798
0.753638
0.754487
0.770525
0.787991
0.925314
1.13798
1.98029
3.98458
5.78708
5.86993
5.80845
5.66109
5.50889
5.38196
5.23852
5.06081
4.83317
0.957328
0.911525
0.874581
0.844925
0.819113
0.799015
0.779753
0.767034
0.752383
0.752812
0.76436
0.777326
0.883869
1.03261
1.68629
3.09719
5.65224
5.87039
5.81011
5.66237
5.49674
5.36966
5.23886
5.07442
4.88606
0.957408
0.911417
0.874647
0.844856
0.819154
0.79896
0.779763
0.766854
0.751793
0.750095
0.752608
0.782059
0.811472
1.02583
1.37571
2.62761
5.2514
5.83107
5.78932
5.66543
5.49954
5.37271
5.24914
5.11051
4.96004
0.957239
0.911649
0.874551
0.844937
0.819163
0.798874
0.779936
0.766462
0.751897
0.747618
0.750907
0.755889
0.825142
0.889175
1.37
2.17001
4.72284
5.72272
5.71813
5.6574
5.51638
5.38825
5.2809
5.17504
5.04733
0.95748
0.91128
0.874811
0.844608
0.819499
0.798439
0.780498
0.765558
0.752877
0.744087
0.745126
0.762369
0.778097
0.924433
1.12016
2.00282
3.94348
5.55181
5.69972
5.66004
5.55652
5.43305
5.3476
5.25889
5.14494
0.957334
0.911473
0.874722
0.844682
0.819496
0.798379
0.780658
0.765214
0.753302
0.743048
0.744392
0.748213
0.788244
0.839038
1.10497
1.59988
3.14867
5.39611
5.72084
5.69556
5.6274
5.5252
5.44421
5.35595
5.24477
0.957338
0.911447
0.874785
0.844583
0.81967
0.798105
0.781057
0.764564
0.754002
0.74033
0.74108
0.743256
0.774327
0.804455
1.01414
1.35207
2.54344
4.9914
5.7439
5.76297
5.73045
5.6523
5.55412
5.45567
5.34052
0.957299
0.9115
0.87475
0.844622
0.819634
0.798157
0.78096
0.764736
0.753533
0.740702
0.738054
0.739906
0.762301
0.782644
0.953589
1.18891
2.20595
4.41743
5.71719
5.85234
5.82808
5.76478
5.65845
5.55043
5.42932
0.95733
0.911475
0.874734
0.844658
0.819544
0.798307
0.780714
0.765101
0.752918
0.741269
0.735606
0.736978
0.752888
0.76698
0.904538
1.06586
1.90325
3.65132
5.67254
5.97179
5.95201
5.89075
5.76764
5.64488
5.51392
0.957352
0.911468
0.874698
0.844723
0.81942
0.798491
0.78043
0.765514
0.752249
0.741989
0.733127
0.733795
0.745604
0.756899
0.859154
0.973926
1.6195
2.77874
5.59819
6.13268
6.10793
6.03452
5.88535
5.73938
5.59366
0.957378
0.911445
0.874684
0.844756
0.819339
0.798623
0.78022
0.765825
0.751772
0.742521
0.731685
0.732013
0.74033
0.74886
0.830551
0.912965
1.46648
2.39323
5.23675
6.22097
6.21424
6.15495
6.01416
5.82973
5.66404
0.957405
0.911409
0.874695
0.844757
0.819314
0.798682
0.780117
0.765991
0.751486
0.742844
0.730522
0.730522
0.736692
0.74283
0.813152
0.879077
1.3558
2.16734
4.83018
6.2405
6.30374
6.25277
6.11879
5.90217
5.72076
0.957359
0.911458
0.874685
0.844776
0.819314
0.798691
0.780104
0.766013
0.751432
0.742892
0.730317
0.730298
0.734255
0.739629
0.797257
0.855496
1.24796
1.93408
4.23999
6.30371
6.43928
6.37706
6.21224
5.95904
5.76622
0.957312
0.911521
0.874652
0.844807
0.819312
0.79867
0.780162
0.765911
0.751593
0.742642
0.73064
0.729879
0.732219
0.737311
0.782066
0.836514
1.14169
1.70409
3.57978
6.45548
6.62399
6.52994
6.2953
6.00037
5.80132
0.957334
0.911486
0.874681
0.844755
0.819383
0.798558
0.780338
0.765631
0.752038
0.741899
0.731546
0.727334
0.728898
0.732114
0.772463
0.811229
1.08239
1.52658
3.13976
6.41324
6.75193
6.63863
6.35286
6.03018
5.83224
0.957364
0.91144
0.874725
0.844687
0.819465
0.798441
0.780493
0.765409
0.752359
0.741367
0.732236
0.725562
0.726952
0.729855
0.764695
0.798459
1.03801
1.42049
2.9131
6.23665
6.74759
6.63729
6.35695
6.04473
5.86155
0.95736
0.911435
0.874754
0.844639
0.819542
0.798322
0.780664
0.765163
0.752678
0.740921
0.732663
0.72415
0.725355
0.727489
0.760391
0.787953
1.01904
1.35265
2.79555
6.07479
6.67959
6.59392
6.36023
6.07333
5.90376
0.957355
0.911441
0.874754
0.844632
0.819559
0.798286
0.780724
0.765065
0.752825
0.740682
0.732942
0.723174
0.724279
0.726109
0.756525
0.781055
0.999157
1.30103
2.67383
5.85198
6.61011
6.5549
6.38152
6.12174
5.95385
0.957364
0.91143
0.874759
0.84463
0.819556
0.798299
0.780699
0.765098
0.75279
0.740713
0.732873
0.723604
0.724316
0.726877
0.753361
0.783753
0.975273
1.30013
2.53385
5.58175
6.61455
6.57901
6.4442
6.19147
6.00318
0.957354
0.911433
0.874773
0.844618
0.819576
0.798276
0.780731
0.765051
0.752848
0.740616
0.733002
0.722892
0.723209
0.724945
0.74916
0.768169
0.958567
1.20043
2.40366
5.23717
6.68173
6.66588
6.54805
6.28874
6.04175
0.957368
0.91142
0.874766
0.844621
0.819568
0.79828
0.780732
0.765052
0.75285
0.740613
0.733
0.722736
0.723151
0.724949
0.746345
0.770063
0.926954
1.18244
2.19496
4.75831
6.89163
6.87496
6.7135
6.3533
6.0499
0.957353
0.911445
0.874743
0.84465
0.819538
0.798316
0.780692
0.765104
0.752774
0.740723
0.732806
0.722828
0.722238
0.724032
0.740582
0.760696
0.890745
1.09319
1.97013
4.14679
7.28415
7.22728
6.93435
6.35788
6.02791
0.957341
0.91146
0.874733
0.844669
0.819518
0.798346
0.780652
0.765159
0.752693
0.740842
0.73257
0.723093
0.720837
0.722188
0.736716
0.751556
0.872204
1.01461
1.84571
3.46564
7.59915
7.49036
7.10194
6.37477
5.99627
0.957331
0.911476
0.874717
0.844689
0.819494
0.798377
0.780611
0.765218
0.752607
0.740968
0.73236
0.723334
0.719921
0.720926
0.734714
0.746145
0.863477
0.983167
1.78111
3.28651
7.55024
7.47461
7.11853
6.3857
5.97953
0.957355
0.911444
0.874729
0.844677
0.819494
0.798385
0.780594
0.765249
0.752567
0.741021
0.732311
0.72337
0.7201
0.721425
0.733804
0.747686
0.856
0.982481
1.74106
3.19823
7.41976
7.37283
7.06324
6.39216
5.96232
0.957333
0.911477
0.874709
0.844702
0.819471
0.798414
0.780557
0.765297
0.7525
0.741115
0.732144
0.723576
0.719211
0.720215
0.732498
0.742772
0.851737
0.958297
1.70981
3.09725
7.27535
7.27191
6.9928
6.38343
5.94335
0.957329
0.911483
0.874704
0.844709
0.819464
0.798423
0.780545
0.765313
0.752474
0.741154
0.732077
0.723662
0.719045
0.72002
0.731864
0.741995
0.847671
0.950297
1.68077
3.01914
7.11506
7.18852
6.92982
6.35733
5.92002
0.957328
0.911484
0.874702
0.844711
0.819462
0.798425
0.780542
0.76532
0.752458
0.741183
0.732024
0.723714
0.718834
0.719751
0.73152
0.741116
0.845015
0.945282
1.66032
2.96041
6.96762
7.10019
6.85982
6.32124
5.89943
0.957323
0.911491
0.874699
0.844713
0.819464
0.798419
0.780552
0.765303
0.752484
0.741148
0.732071
0.723684
0.718964
0.719886
0.731299
0.74103
0.843143
0.941408
1.64459
2.91779
6.84798
7.00985
6.78334
6.27429
5.87965
0.957316
0.911501
0.874696
0.844714
0.819468
0.798413
0.780562
0.76529
0.752502
0.741117
0.732144
0.723588
0.719464
0.720555
0.7316
0.743333
0.842861
0.946631
1.64898
2.90802
6.77542
6.92853
6.71015
6.22358
5.85877
0.957309
0.911509
0.874694
0.844718
0.819466
0.798417
0.780554
0.765302
0.752481
0.741151
0.732074
0.723655
0.718933
0.719805
0.731276
0.740557
0.841519
0.938979
1.6263
2.86779
6.68274
6.8818
6.67326
6.2026
5.85233
0.957301
0.911517
0.874694
0.844718
0.819471
0.79841
0.780566
0.765285
0.752506
0.741115
0.732138
0.723607
0.719318
0.72032
0.731367
0.741785
0.841976
0.939887
1.62975
2.86681
6.65853
6.83534
6.62703
6.16442
5.83938
0.957295
0.911522
0.874695
0.844715
0.81948
0.798397
0.780588
0.76525
0.752562
0.74103
0.732276
0.723455
0.719857
0.720995
0.732022
0.743898
0.841792
0.945541
1.63149
2.86775
6.64715
6.79885
6.59171
6.13294
5.83424
1.0345
1.06946
1.09345
1.10969
1.12314
1.13181
1.1413
1.14742
1.16569
1.1908
1.30205
1.44967
2.22273
3.86417
9.93099
15.4701
13.9433
12.2047
11.6831
11.7226
11.7319
11.6264
11.3282
10.6401
8.96545
1.03455
1.06939
1.09353
1.10958
1.12328
1.13161
1.14148
1.14702
1.16363
1.18482
1.28382
1.39781
2.05018
3.29145
7.79976
15.5604
13.9113
12.0449
11.4534
11.449
11.4009
11.1947
10.7158
9.82871
8.13095
1.03449
1.06948
1.09342
1.10974
1.12306
1.13186
1.14104
1.1467
1.16157
1.18371
1.26903
1.38075
1.94228
3.00379
6.85791
15.1104
13.6556
11.8326
11.243
11.1943
11.0831
10.7963
10.2091
9.34919
8.06967
1.03458
1.0694
1.09346
1.10967
1.12308
1.1318
1.14105
1.14604
1.16037
1.17737
1.25923
1.34808
1.87294
2.8065
6.15345
14.0638
13.0943
11.5655
11.0451
10.958
10.798
10.4539
9.8584
9.08771
8.08229
1.03459
1.06938
1.09344
1.10971
1.12298
1.13202
1.14047
1.14697
1.15626
1.1859
1.22139
1.41015
1.65427
2.86496
5.48995
12.9932
12.4685
11.3497
10.871
10.742
10.5534
10.1833
9.63603
8.95474
8.11834
1.03443
1.06955
1.09334
1.10982
1.12298
1.13192
1.14081
1.14569
1.15751
1.17542
1.24085
1.32252
1.7481
2.45168
5.24879
11.8347
11.7794
11.2174
10.7349
10.5597
10.3522
9.99509
9.50505
8.91526
8.19801
1.0344
1.06957
1.0933
1.10989
1.12291
1.13202
1.14068
1.14556
1.15635
1.17267
1.23133
1.30398
1.68296
2.29179
4.7602
10.6186
11.3751
11.0841
10.6333
10.4228
10.2071
9.87803
9.44594
8.92672
8.31672
1.03436
1.06964
1.09319
1.11006
1.12262
1.13251
1.13985
1.14709
1.15375
1.17511
1.19968
1.33099
1.4767
2.35071
4.00087
9.30391
11.2031
11.0114
10.5853
10.334
10.1159
9.82111
9.447
8.97213
8.46389
1.03432
1.06971
1.09309
1.11019
1.12244
1.13272
1.13956
1.14722
1.15311
1.17118
1.19383
1.30296
1.42805
2.13234
3.44046
7.76401
11.1594
11.0031
10.5862
10.2787
10.0649
9.81154
9.47009
9.07351
8.65376
1.03432
1.06972
1.09308
1.1102
1.12242
1.13273
1.13953
1.14697
1.15232
1.1668
1.18912
1.27055
1.39046
1.90719
2.91218
6.19733
11.0554
10.9794
10.6129
10.2607
10.0528
9.82524
9.53488
9.22577
8.87913
1.03424
1.06979
1.09307
1.1102
1.12248
1.13258
1.13974
1.14633
1.15205
1.16104
1.18831
1.22509
1.39266
1.62905
2.67659
4.89502
10.5814
10.8905
10.6324
10.2713
10.0671
9.87224
9.65918
9.41003
9.11867
1.03435
1.06965
1.0932
1.11002
1.12269
1.13232
1.14003
1.14588
1.15201
1.15905
1.18128
1.20896
1.34854
1.50842
2.43219
4.14821
9.45488
10.7099
10.5993
10.3215
10.1205
9.97585
9.81909
9.61175
9.35581
1.03434
1.06964
1.0932
1.11001
1.12266
1.13238
1.13985
1.14619
1.15072
1.15894
1.16883
1.21517
1.26094
1.55056
1.95973
3.70912
7.81084
10.6317
10.6206
10.449
10.2443
10.1377
10.0049
9.81591
9.57608
1.03435
1.06963
1.09323
1.10998
1.12274
1.13223
1.1401
1.14568
1.15161
1.15656
1.17101
1.1914
1.27578
1.38961
1.91912
2.93961
6.19296
10.5214
10.7513
10.6398
10.4438
10.3345
10.1989
10.0096
9.77234
1.03434
1.06964
1.09322
1.10998
1.12275
1.13221
1.14012
1.14561
1.15149
1.15579
1.16721
1.18491
1.248
1.34327
1.7305
2.48041
4.90072
10.0697
10.9384
10.8576
10.676
10.5379
10.385
10.1865
9.94482
1.03434
1.06964
1.09321
1.10999
1.12274
1.13222
1.14012
1.14557
1.15141
1.15511
1.1645
1.1792
1.23055
1.30009
1.62755
2.16351
4.2534
9.02426
11.0222
11.0287
10.9337
10.7441
10.5623
10.3493
10.0992
1.03436
1.06963
1.0932
1.11001
1.12268
1.13229
1.14003
1.14565
1.15127
1.15453
1.16245
1.17444
1.21573
1.27087
1.53107
1.94412
3.58002
7.43537
11.2
11.3298
11.2053
10.9525
10.7341
10.5004
10.2395
1.03435
1.06966
1.09316
1.11008
1.12258
1.13245
1.13979
1.14603
1.15062
1.15551
1.16013
1.17391
1.19297
1.2736
1.38202
1.87672
2.82992
5.81715
11.3125
11.6841
11.5177
11.1797
10.9101
10.6432
10.3675
1.03432
1.0697
1.09313
1.11011
1.12256
1.13248
1.13978
1.14599
1.15072
1.15492
1.15993
1.16841
1.19454
1.23205
1.39379
1.62326
2.67893
4.87749
10.9224
11.9098
11.7669
11.428
11.0796
10.7695
10.4842
1.03428
1.06973
1.09312
1.11013
1.12256
1.13248
1.13978
1.14599
1.15068
1.15494
1.15932
1.16676
1.18896
1.22121
1.35887
1.54062
2.46298
4.27094
9.98109
12.1123
12.0106
11.6775
11.2266
10.8769
10.5927
1.03426
1.06975
1.09311
1.11014
1.12256
1.13249
1.13978
1.146
1.15065
1.15497
1.15903
1.16548
1.1844
1.21232
1.32792
1.48075
2.257
3.73703
8.74307
12.5187
12.3695
11.8873
11.3319
10.9644
10.695
1.03428
1.06972
1.09313
1.11011
1.12258
1.13245
1.13981
1.14596
1.15066
1.15495
1.15884
1.16437
1.1805
1.20418
1.30137
1.43428
2.07103
3.30514
7.4768
13.0369
12.7805
12.0619
11.4281
11.0583
10.8048
1.03431
1.06968
1.09316
1.11006
1.12263
1.13238
1.13989
1.14586
1.15078
1.15478
1.15889
1.16383
1.17766
1.19932
1.27997
1.40128
1.91824
2.93296
6.37088
13.292
13.0127
12.2053
11.5398
11.1702
10.9257
1.03433
1.06966
1.09319
1.11003
1.12268
1.13231
1.13997
1.14576
1.15088
1.15467
1.15884
1.16326
1.17575
1.1949
1.26809
1.3735
1.84293
2.75295
5.91058
13.0791
12.9505
12.3363
11.6801
11.3027
11.0563
1.03434
1.06965
1.0932
1.11
1.1227
1.13228
1.14
1.14571
1.15094
1.15457
1.15884
1.16284
1.17421
1.19159
1.25911
1.35176
1.79064
2.61483
5.55989
12.6125
12.8586
12.4848
11.8562
11.4526
11.1848
1.03437
1.06962
1.09322
1.10999
1.1227
1.13229
1.13998
1.14577
1.15082
1.15475
1.15823
1.16286
1.16901
1.1958
1.22195
1.3921
1.58682
2.72967
5.05201
12.115
12.9407
12.6463
12.0439
11.5917
11.2886
1.03435
1.06964
1.09321
1.11
1.1227
1.13229
1.13999
1.14574
1.1509
1.15456
1.1587
1.16179
1.17181
1.18344
1.24526
1.31015
1.70805
2.37288
4.93159
11.4792
13.1595
12.8694
12.2183
11.6898
11.3514
1.03438
1.06961
1.09322
1.10999
1.1227
1.1323
1.13997
1.14577
1.15083
1.15469
1.15827
1.16215
1.16763
1.18999
1.21194
1.35434
1.51043
2.48264
4.36712
10.7241
13.5908
13.2016
12.3528
11.7243
11.3643
1.03437
1.06962
1.0932
1.11001
1.12268
1.13232
1.13995
1.14579
1.15081
1.15471
1.15825
1.16184
1.16773
1.18672
1.21034
1.33463
1.47753
2.32676
3.95084
9.70219
14.2549
13.6782
12.4854
11.7148
11.34
1.03433
1.06967
1.09318
1.11004
1.12267
1.13233
1.13996
1.14576
1.15088
1.15455
1.15857
1.16132
1.16857
1.17975
1.22073
1.27631
1.54139
1.99119
3.73689
8.39416
15.0907
14.2584
12.6435
11.7134
11.3011
1.03431
1.06969
1.09316
1.11006
1.12265
1.13235
1.13994
1.14579
1.15085
1.15458
1.15849
1.16109
1.1678
1.17802
1.21545
1.2647
1.50383
1.90038
3.39807
7.32713
15.7127
14.6298
12.7688
11.7348
11.2738
1.03435
1.06964
1.09319
1.11003
1.12267
1.13234
1.13995
1.14579
1.15083
1.15464
1.15834
1.16147
1.16585
1.18099
1.19725
1.29052
1.39242
1.99267
3.09751
7.00329
15.6541
14.6227
12.8158
11.7659
11.2576
1.03432
1.06967
1.09317
1.11005
1.12265
1.13235
1.13994
1.14578
1.15087
1.15456
1.15851
1.16101
1.16729
1.17708
1.21119
1.25595
1.47495
1.80177
3.1898
6.61693
15.415
14.5382
12.8153
11.773
11.2341
1.03431
1.06968
1.09317
1.11006
1.12265
1.13235
1.13994
1.14579
1.15086
1.15456
1.15851
1.16103
1.16722
1.17713
1.21007
1.25694
1.46394
1.78304
3.13132
6.40369
15.123
14.3729
12.7999
11.7617
11.2157
1.0343
1.0697
1.09315
1.11007
1.12264
1.13237
1.13992
1.14581
1.15083
1.15459
1.15846
1.16094
1.16702
1.17654
1.20939
1.25218
1.46273
1.76745
3.10169
6.27729
14.8618
14.1988
12.7517
11.7407
11.2133
1.03432
1.06968
1.09317
1.11006
1.12265
1.13236
1.13993
1.14579
1.15085
1.15457
1.15849
1.16094
1.16695
1.17636
1.20858
1.25027
1.45748
1.74842
3.0687
6.15554
14.6477
14.0478
12.6903
11.7236
11.2273
1.03434
1.06966
1.09318
1.11004
1.12265
1.13235
1.13993
1.14581
1.15081
1.15466
1.15831
1.16143
1.1656
1.17925
1.19448
1.27776
1.36812
1.8952
2.85193
6.21259
14.4942
13.9179
12.6094
11.7077
11.25
1.03431
1.0697
1.09315
1.11008
1.12263
1.13238
1.13989
1.14585
1.15077
1.15466
1.15836
1.16088
1.16695
1.17444
1.209
1.24257
1.45547
1.73675
3.04317
6.05916
14.3431
13.8132
12.5752
11.7018
11.2698
1.03434
1.06966
1.09317
1.11005
1.12264
1.13237
1.13989
1.14586
1.15074
1.15476
1.15819
1.16163
1.16597
1.17932
1.19638
1.27825
1.37107
1.88484
2.81972
6.14
14.269
13.7414
12.5159
11.6907
11.2879
1.03435
1.06965
1.09318
1.11004
1.12265
1.13235
1.13992
1.14583
1.15078
1.15471
1.15826
1.16161
1.16604
1.17953
1.19682
1.27883
1.37222
1.88321
2.81464
6.12648
14.2468
13.7078
12.4897
11.6919
11.3023
1.0089
1.03175
1.05943
1.08722
1.11373
1.13746
1.15985
1.17971
1.20488
1.24516
1.38261
1.58156
2.50473
4.57499
12.1102
17.659
15.476
13.6539
13.3031
13.4557
13.4383
13.144
12.5686
11.5683
9.47353
1.0089
1.03174
1.05944
1.08721
1.11374
1.13747
1.1597
1.17985
1.20293
1.24065
1.35673
1.53044
2.28355
3.87904
9.70449
17.8669
15.5012
13.4472
13.006
13.1004
13.0254
12.6361
11.8523
10.66
8.60314
1.00894
1.03172
1.05939
1.08735
1.11342
1.13805
1.1586
1.18172
1.19893
1.24617
1.30729
1.57387
1.99484
3.63634
8.07152
17.6245
15.357
13.2202
12.7297
12.761
12.6343
12.1703
11.2837
10.1445
8.6063
1.00897
1.03169
1.05941
1.08732
1.11342
1.13802
1.15857
1.18145
1.19779
1.24147
1.29737
1.54072
1.90296
3.37511
7.18429
16.6419
14.872
12.9486
12.4733
12.4517
12.2784
11.7735
10.9035
9.89096
8.65119
1.00901
1.0316
1.05953
1.08709
1.1138
1.13732
1.15971
1.17899
1.20109
1.22687
1.32048
1.42955
1.98615
3.00772
6.60173
15.359
14.1711
12.6824
12.2589
12.1867
11.9692
11.4524
10.6694
9.78685
8.75238
1.00896
1.03163
1.05957
1.08698
1.11404
1.13693
1.16027
1.17824
1.20147
1.2286
1.31016
1.42465
1.91724
2.82652
6.13653
14.0663
13.4836
12.4872
12.0962
11.9725
11.7202
11.2177
10.5447
9.79067
8.90411
1.00895
1.03162
1.05958
1.08695
1.1141
1.13685
1.16037
1.17795
1.2011
1.22551
1.30081
1.39925
1.85364
2.61619
5.60444
12.7393
12.9122
12.4545
11.9828
11.7909
11.5331
11.0878
10.5107
9.82545
9.07972
1.00891
1.03168
1.05951
1.08706
1.11397
1.137
1.16015
1.17801
1.20034
1.22128
1.28959
1.36823
1.77086
2.40733
4.94837
11.2599
12.7641
12.4177
11.8988
11.6586
11.4143
11.0306
10.5258
9.91373
9.29186
1.00884
1.0318
1.05938
1.08723
1.11376
1.13725
1.15984
1.17821
1.1994
1.21842
1.27607
1.34483
1.68153
2.20518
4.28485
9.55993
12.7964
12.4356
11.8487
11.5733
11.3505
11.0318
10.5767
10.0764
9.55249
1.00882
1.03182
1.05933
1.08733
1.11359
1.13756
1.15929
1.17896
1.19705
1.21767
1.25275
1.35659
1.51548
2.15923
3.45848
7.68968
12.8666
12.4772
11.848
11.5363
11.334
11.0536
10.6866
10.2886
9.85168
1.00878
1.03187
1.0593
1.08736
1.11359
1.13753
1.15932
1.17877
1.19667
1.21542
1.24344
1.32833
1.44886
1.95382
2.92806
6.0806
12.6068
12.4166
11.8751
11.5419
11.3475
11.1173
10.8536
10.5338
10.166
1.00882
1.03182
1.05935
1.08726
1.11371
1.13732
1.15965
1.17809
1.19754
1.21164
1.24171
1.29117
1.4542
1.70724
2.76205
5.0435
11.6321
12.2246
11.9358
11.5794
11.4005
11.2501
11.0561
10.7929
10.4725
1.00895
1.03162
1.0595
1.08711
1.1138
1.13728
1.15958
1.17823
1.19703
1.21081
1.23725
1.27026
1.41214
1.58093
2.47249
4.20639
9.774
12.196
12.0136
11.6843
11.5276
11.4359
11.2785
11.0453
10.7518
1.00888
1.03175
1.05938
1.08726
1.11362
1.13755
1.15916
1.17893
1.19551
1.2134
1.22889
1.27717
1.33261
1.6057
2.03288
3.6563
7.76501
12.278
12.184
11.9135
11.7475
11.6506
11.5012
11.2775
10.9944
1.00888
1.03174
1.0594
1.08724
1.11363
1.13753
1.15915