/*--------------------------------*- C++ -*----------------------------------*\
  =========                 |
  \\      /  F ield         | OpenFOAM: The Open Source CFD Toolbox
   \\    /   O peration     | Website:  https://openfoam.org
    \\  /    A nd           | Version:  6
     \\/     M anipulation  |
\*---------------------------------------------------------------------------*/
FoamFile
{
    version     2.0;
    format      ascii;
    class       surfaceScalarField;
    location    "8";
    object      phi;
}
// * * * * * * * * * * * * * * * * * * * * * * * * * * * * * * * * * * * * * //

dimensions      [1 0 -1 0 0 0 0];

internalField   nonuniform List<scalar> 
72625
(
0.00162331
-3.58043e-10
5.88191e-05
0.00157661
1.61662e-09
4.68502e-05
0.00153796
-1.0953e-09
3.86028e-05
0.00150593
3.36017e-09
3.19665e-05
0.00147923
-2.09819e-09
2.69453e-05
0.00145613
3.36781e-09
2.27418e-05
0.00143726
4.53863e-09
1.93069e-05
0.00141969
2.72482e-08
1.66817e-05
0.00140381
7.22676e-08
1.51115e-05
0.00138581
1.92601e-07
1.57031e-05
0.00137966
4.10416e-07
3.78674e-06
0.00135182
1.12587e-06
2.02104e-05
0.00139705
2.63585e-06
-4.31641e-05
0.00147083
1.02813e-05
-0.000101263
0.00176841
4.76279e-05
-0.000396302
0.00168721
6.54247e-05
-2.43738e-05
0.00145062
6.98975e-05
0.000167608
0.00132334
6.0267e-05
8.81572e-05
0.00123036
6.03103e-05
4.54848e-05
0.00121658
6.45518e-05
-4.942e-05
0.00114199
5.39054e-05
2.88175e-05
0.00106539
2.89822e-05
6.41737e-05
0.00091431
2.45049e-05
0.000145954
0.000591728
3.30702e-05
0.000309468
1.26839e-05
0.000604737
0.00162331
1.09097e-10
5.88175e-05
0.00157661
5.4071e-09
4.68502e-05
0.00153795
-3.66296e-09
3.86045e-05
0.00150594
8.04836e-09
3.1963e-05
0.00147922
-8.64909e-09
2.69511e-05
0.00145614
9.92794e-09
2.27359e-05
0.00143724
1.78281e-09
1.93138e-05
0.00141978
5.88472e-08
1.66688e-05
0.00140389
1.72251e-07
1.51054e-05
0.00138567
4.99692e-07
1.5647e-05
0.00137919
1.05526e-06
3.81073e-06
0.00135071
2.89995e-06
1.99404e-05
0.00139452
6.70891e-06
-4.33305e-05
0.00146449
2.60292e-05
-0.000103612
0.00174839
0.000119229
-0.000406535
0.00165783
0.000146104
-2.93979e-05
0.0014353
0.000139286
0.000155237
0.00131835
0.000117707
8.13277e-05
0.00125349
0.000102335
3.55494e-05
0.00120937
9.53486e-05
1.76454e-05
0.00117568
9.02055e-05
7.02341e-06
0.00110885
8.08868e-05
3.38299e-05
0.000950061
7.77195e-05
0.000122206
0.000634595
8.52142e-05
0.000282799
8.22963e-05
0.000590406
0.00162331
6.82893e-09
5.88132e-05
0.00157662
9.11408e-09
4.68506e-05
0.00153794
-1.0399e-08
3.8609e-05
0.00150597
1.55083e-08
3.19534e-05
0.00147922
-2.91367e-08
2.6968e-05
0.00145612
3.49007e-08
2.27144e-05
0.00143725
-2.46023e-08
1.93442e-05
0.00141994
1.40819e-07
1.66344e-05
0.00140386
3.63217e-07
1.50935e-05
0.00138513
1.16563e-06
1.55443e-05
0.00137709
2.90881e-06
3.88343e-06
0.00134919
3.92122e-06
1.95936e-05
0.0013871
1.50567e-05
-4.26117e-05
0.00145515
3.98786e-05
-0.000100243
0.00172891
0.000202132
-0.000409474
0.00163239
0.000242133
-3.87028e-05
0.00141956
0.000211813
0.000145297
0.00131084
0.000171275
7.7813e-05
0.00124984
0.000141236
3.50883e-05
0.00119734
0.00012622
2.76139e-05
0.00117048
0.00012851
-6.93578e-08
0.00110452
0.000142673
2.19251e-05
0.000945076
0.000147693
0.000106502
0.000624257
0.000157982
0.00026729
0.000168045
0.000563414
0.00162331
3.62549e-08
5.87962e-05
0.00157666
-3.28225e-08
4.68624e-05
0.00153793
1.45185e-08
3.86114e-05
0.00150604
-8.93131e-09
3.1941e-05
0.00147919
-1.73491e-08
2.70019e-05
0.00145611
4.23132e-08
2.26589e-05
0.00143744
-5.63928e-08
1.94242e-05
0.00141977
3.21886e-07
1.65279e-05
0.0014022
3.37397e-07
1.50689e-05
0.00138115
5.48444e-06
1.50701e-05
0.00138478
-6.71711e-06
3.77904e-06
0.0013299
3.13547e-05
1.88667e-05
0.00141452
-2.4254e-05
-4.07445e-05
0.00143415
9.60249e-05
-9.65796e-05
0.00169874
0.000322583
-0.000442064
0.00159869
0.000345426
-4.14097e-05
0.00140788
0.000271481
0.000145235
0.0013041
0.000220777
7.77051e-05
0.00123378
0.000193154
3.14058e-05
0.00120479
0.000183958
-2.31228e-05
0.00115643
0.000185964
4.16514e-06
0.00109454
0.000202504
2.1487e-05
0.000933158
0.000223424
0.00010298
0.000603969
0.000245241
0.00026076
0.000256476
0.000539655
0.00162365
-2.86839e-08
5.8689e-05
0.00157658
4.82864e-08
4.69782e-05
0.00153825
-3.37096e-08
3.85224e-05
0.00150592
4.02686e-08
3.20221e-05
0.00147941
-3.75881e-08
2.69518e-05
0.00145608
3.65418e-08
2.2666e-05
0.00143766
-2.29716e-08
1.94801e-05
0.00141936
6.30001e-08
1.63332e-05
0.00140195
6.78035e-07
1.55245e-05
0.00139978
-3.02058e-06
8.81455e-06
0.00135609
1.34694e-05
1.9027e-05
0.00143064
-1.91657e-05
-2.96131e-05
0.00129356
6.53172e-05
3.95447e-05
0.00154625
4.53923e-05
-0.000228243
0.00175321
0.000385269
-0.000334443
0.00169605
0.000430584
-6.05784e-05
0.00146791
0.000366983
0.000154226
0.00136084
0.000275633
8.70935e-05
0.00130292
0.000238178
3.15441e-05
0.00126041
0.000228486
8.81085e-06
0.00121607
0.000242377
2.75171e-06
0.00113788
0.000273458
2.27164e-05
0.00096234
0.000310123
0.000103955
0.00062177
0.000348005
0.000255428
0.000375276
0.000525446
0.00162334
2.34884e-08
5.8763e-05
0.00157672
-3.25696e-08
4.6888e-05
0.00153795
9.88184e-09
3.86095e-05
0.00150613
1.89835e-09
3.19241e-05
0.00147913
-2.5613e-08
2.7059e-05
0.00145633
7.01213e-08
2.25484e-05
0.00143718
-9.61497e-08
1.96354e-05
0.0014198
4.13662e-07
1.62526e-05
0.00140409
4.03924e-07
1.48809e-05
0.00137876
4.82094e-06
1.44856e-05
0.00139049
-6.10726e-06
4.42247e-06
0.00131016
3.26797e-05
1.76347e-05
0.00142693
-1.57015e-05
-3.54587e-05
0.0013786
0.000140048
-7.65651e-05
0.00162889
0.000530873
-0.000475599
0.00158064
0.000506724
-6.09042e-05
0.00144098
0.000394932
0.000151733
0.00135912
0.000301372
9.55428e-05
0.00131647
0.000270492
2.97572e-05
0.00128194
0.000271711
8.49979e-06
0.00124275
0.000299601
-3.05497e-06
0.00116503
0.000345726
1.89126e-05
0.000985883
0.000402137
0.000101442
0.000638846
0.000464174
0.000247559
0.000527884
0.000507159
0.00162367
-3.01793e-08
5.86759e-05
0.00157664
3.255e-08
4.69858e-05
0.00153815
-2.1874e-08
3.8531e-05
0.00150609
2.40308e-08
3.19925e-05
0.00147923
-1.09261e-08
2.70172e-05
0.00145634
5.98702e-09
2.25468e-05
0.00143732
2.83952e-08
1.97002e-05
0.00141962
-6.86472e-08
1.59678e-05
0.00140382
3.96699e-07
1.52652e-05
0.00139998
-2.39858e-06
9.46657e-06
0.00135738
1.14397e-05
1.83886e-05
0.00141918
-1.21402e-05
-2.43297e-05
0.00127754
7.29739e-05
3.87787e-05
0.0014852
9.95539e-05
-0.00020697
0.00163616
0.000627959
-0.000361999
0.00165008
0.000567871
-6.27743e-05
0.00150721
0.000442027
0.000158087
0.00142701
0.000322204
0.000115777
0.00137978
0.000305967
3.31535e-05
0.00132975
0.000322421
1.72761e-05
0.00128425
0.000365581
-6.75082e-06
0.00120223
0.000424597
1.4755e-05
0.00101683
0.000505569
9.53296e-05
0.000661042
0.000599377
0.000236258
0.000723668
0.000483839
0.00162347
-4.38214e-09
5.87459e-05
0.00157669
-1.03798e-09
4.69072e-05
0.00153799
-2.87493e-09
3.85979e-05
0.00150616
7.6149e-09
3.19252e-05
0.00147907
-1.19237e-08
2.70753e-05
0.00145644
3.01185e-08
2.25044e-05
0.00143708
-3.49701e-08
1.97169e-05
0.00142012
1.64963e-07
1.60582e-05
0.00140425
3.36395e-07
1.48752e-05
0.00138295
1.22054e-06
1.43494e-05
0.00138193
2.31019e-06
5.88715e-06
0.00132651
1.29265e-05
1.70217e-05
0.00137727
3.3119e-05
-3.0735e-05
0.00132888
0.000155402
-5.05751e-05
0.001582
0.000715076
-0.000507605
0.00164537
0.00058773
-3.5797e-05
0.00159293
0.000446893
0.000144841
0.00149351
0.000352538
0.000132774
0.00143748
0.000348525
3.58848e-05
0.0013742
0.000387325
1.60416e-05
0.00132218
0.000440844
-9.82287e-06
0.00123607
0.000509086
1.27035e-05
0.00105346
0.000613105
8.61606e-05
0.000695556
0.000753736
0.000217104
0.000984845
0.000450248
0.00162352
8.34959e-09
5.87448e-05
0.00157666
-5.87671e-09
4.69102e-05
0.00153802
-1.28759e-09
3.85939e-05
0.00150614
4.90691e-12
3.19291e-05
0.00147905
-1.32331e-08
2.70733e-05
0.00145651
2.44983e-08
2.25005e-05
0.00143696
-3.84012e-08
1.97303e-05
0.00142048
1.80126e-07
1.59804e-05
0.0014047
3.38661e-07
1.49042e-05
0.00138664
1.64158e-06
1.42302e-05
0.00137427
3.78098e-06
6.63443e-06
0.00134541
1.09238e-05
1.53014e-05
0.00134322
4.10812e-05
-3.13913e-05
0.00133112
0.000135157
-3.8457e-05
0.00161632
0.000706975
-0.000514397
0.00174691
0.00059759
-2.2456e-05
0.00172111
0.000471187
0.000128711
0.00157179
0.000412993
0.000147033
0.00148776
0.000414259
3.93619e-05
0.00141807
0.000460683
9.16174e-06
0.00136415
0.000519844
-1.18806e-05
0.00127765
0.000596366
1.13409e-05
0.00110077
0.000722684
7.72229e-05
0.000758797
0.00092108
0.000185709
0.00136625
0.000390159
0.00162355
5.87245e-05
1.12346e-08
0.00157669
4.69346e-05
-1.82547e-08
0.00153803
3.85756e-05
1.25436e-08
0.00150617
3.19474e-05
-1.94422e-08
0.00147905
2.70591e-05
2.182e-08
0.00145658
2.25061e-05
-3.95532e-08
0.00143681
1.97347e-05
6.914e-08
0.00142103
1.58974e-05
-1.19622e-07
0.00140565
1.49209e-05
3.05201e-07
0.00138914
1.37045e-05
2.04938e-06
0.00138616
6.77306e-06
-2.536e-06
0.00134669
1.41249e-05
1.97595e-05
0.00139004
-3.62895e-05
-2.26913e-06
0.00133149
-1.68838e-05
0.000128346
0.00176964
-0.000514894
0.000460489
0.00194571
-3.94708e-05
0.000653637
0.00184169
0.000109881
0.000580355
0.00162823
0.000152848
0.000516534
0.0015211
4.41621e-05
0.000492221
0.00145716
2.89866e-06
0.000533831
0.00140638
-1.0505e-05
0.000591313
0.00133157
8.90454e-06
0.000671835
0.00117274
6.22989e-05
0.0008273
0.000867186
0.000148569
0.00108678
0.000281537
0.00196085
0.00172988
-1.69367e-09
7.15617e-06
0.00176396
1.2386e-10
1.26756e-05
0.00178835
4.57506e-10
1.43735e-05
0.00180593
6.5934e-10
1.41789e-05
0.00181989
1.82811e-09
1.31183e-05
0.00183064
3.04078e-09
1.19906e-05
0.00183909
8.84421e-09
1.07352e-05
0.00184479
3.59596e-08
1.02506e-05
0.00184967
9.75077e-08
9.27499e-06
0.00185314
2.82935e-07
8.78403e-06
0.00184393
7.24353e-07
7.06512e-06
0.00184471
2.17817e-06
5.92902e-06
0.0018144
5.47115e-06
-1.41074e-05
0.00168059
2.76339e-05
-9.40192e-05
0.00156985
0.000130374
-0.000502403
0.0011138
0.000193321
0.000300969
0.00103035
0.000159911
0.000117865
0.000870301
0.000157436
7.48318e-05
0.0005888
0.000217396
9.53139e-05
0.000809428
0.00042113
-0.000677189
0.000553219
0.000254869
5.56797e-05
0.000328131
0.0001777
0.000140291
6.18807e-05
0.000206646
0.000238132
-0.000145225
0.000249252
0.000301802
0.000136433
0.00036115
0.00172987
-2.6458e-09
7.15433e-06
0.00176396
1.39901e-09
1.26777e-05
0.00178834
5.10905e-10
1.43726e-05
0.00180592
1.78103e-09
1.41786e-05
0.00181991
2.83353e-09
1.31199e-05
0.00183063
5.02884e-09
1.19877e-05
0.00183909
1.98847e-08
1.07316e-05
0.00184479
8.71158e-08
1.02287e-05
0.00184973
2.3438e-07
9.15339e-06
0.00185284
6.88378e-07
8.88418e-06
0.00184365
1.74986e-06
6.44559e-06
0.0018423
5.20439e-06
6.7953e-06
0.0018081
1.38614e-05
-1.37136e-05
0.00165249
7.85978e-05
-0.000101736
0.00148919
0.000383154
-0.000584292
0.00106292
0.000362759
0.000296903
0.00100714
0.000286042
0.000106703
0.000902565
0.000267765
5.92394e-05
0.000801311
0.000299972
4.34169e-05
0.000861415
0.000358142
3.33456e-05
0.000730174
0.000398776
2.07062e-05
0.000420164
0.000429307
0.000121125
0.000123223
0.000466556
0.000192084
-7.07984e-05
0.000501731
0.000258477
0.000366422
0.000327258
0.00172985
-2.58106e-09
7.15696e-06
0.00176397
5.06527e-09
1.26732e-05
0.00178833
-1.14927e-09
1.43758e-05
0.00180591
4.11454e-09
1.41745e-05
0.00181995
1.99014e-09
1.3123e-05
0.00183061
4.20698e-09
1.19835e-05
0.0018391
3.15227e-08
1.07251e-05
0.00184481
1.45385e-07
1.01937e-05
0.0018496
3.89164e-07
9.22403e-06
0.00185235
1.29564e-06
8.75964e-06
0.00184174
3.07586e-06
6.83277e-06
0.0018391
9.62719e-06
6.2545e-06
0.00180309
2.46401e-05
-1.48176e-05
0.00163648
0.000134845
-9.83241e-05
0.00145256
0.000594076
-0.000531372
0.00102639
0.000538149
0.000285327
0.000987971
0.00038847
0.000100186
0.00091242
0.000355203
5.17333e-05
0.000842585
0.000375596
2.16376e-05
0.000897944
0.000371238
-2.45136e-05
0.000755001
0.000561372
7.81453e-06
0.000449192
0.000665568
0.000120655
0.000152968
0.000720078
0.000181595
-4.18386e-05
0.000753191
0.000243773
0.000609889
0.000314671
0.00172981
4.67998e-09
7.15537e-06
0.001764
-2.92858e-09
1.26738e-05
0.0017883
4.05093e-09
1.4376e-05
0.00180591
-2.38225e-09
1.41734e-05
0.00182
1.02371e-08
1.31246e-05
0.00183053
-1.39666e-08
1.1984e-05
0.00183913
7.47914e-08
1.07026e-05
0.0018449
1.3746e-07
1.01377e-05
0.00184918
1.08642e-06
9.05074e-06
0.0018515
1.27312e-06
8.92072e-06
0.00183791
7.04035e-06
5.97287e-06
0.00183536
1.13802e-05
7.57394e-06
0.00179822
3.73478e-05
-1.53557e-05
0.00161053
0.000211467
-0.000103404
0.00136651
0.000852542
-0.000558605
0.000980695
0.000692147
0.000268298
0.000962581
0.000470518
9.99897e-05
0.000888045
0.000445915
5.34351e-05
0.00071388
0.000541362
3.4184e-05
0.000830173
0.00076688
-0.000511672
0.000695245
0.000734004
-4.23421e-06
0.000439572
0.000853858
0.000118217
0.000166708
0.000954657
0.000172664
-2.23886e-05
0.00100415
0.000230679
0.000856104
0.000306169
0.00172973
-1.73882e-08
7.15365e-06
0.00176405
1.79753e-08
1.26729e-05
0.00178823
-1.7445e-08
1.43758e-05
0.00180596
2.341e-08
1.41733e-05
0.00182006
-2.0733e-08
1.31229e-05
0.00183032
3.04185e-08
1.19947e-05
0.00183932
9.11622e-09
1.06494e-05
0.00184505
2.46751e-07
1.01222e-05
0.0018516
3.54497e-08
8.4736e-06
0.00184515
2.37441e-06
1.02577e-05
0.00185886
2.52075e-06
1.22926e-06
0.00178906
1.8528e-05
1.66879e-05
0.00184892
4.66278e-05
-3.01219e-05
0.0015775
0.000232154
-9.94891e-05
0.00131585
0.00114242
-0.000475744
0.000943173
0.000843177
0.000247805
0.000960584
0.000533324
9.7841e-05
0.000919494
0.000525864
4.89932e-05
0.000828601
0.000645304
2.16403e-05
0.000882624
0.000807055
-5.96069e-05
0.000736848
0.000929264
-1.72052e-05
0.000472066
0.00106568
0.00010444
0.000203984
0.00119677
0.00015998
1.23092e-05
0.00126359
0.000218455
0.00113023
0.000296289
0.00172975
-1.25941e-09
7.15844e-06
0.00176404
-1.59119e-09
1.26661e-05
0.00178823
-7.05334e-09
1.43845e-05
0.00180599
1.20838e-08
1.41588e-05
0.00182001
-1.87583e-08
1.31435e-05
0.00183033
3.50818e-08
1.19669e-05
0.00183968
-1.12476e-08
1.06675e-05
0.00184523
1.80629e-07
9.952e-06
0.0018488
1.22707e-06
8.928e-06
0.00184971
1.86057e-06
8.91427e-06
0.00183411
9.07596e-06
5.17271e-06
0.0018237
1.82309e-05
8.45541e-06
0.00179199
6.41106e-05
-1.56424e-05
0.00157241
0.000313643
-8.34226e-05
0.00116675
0.00140932
-0.000487652
0.000910516
0.000932765
0.000208861
0.000964328
0.000559336
0.000103514
0.00096537
0.000587069
4.40759e-05
0.000880688
0.000760974
1.29451e-05
0.000922487
0.000991799
-0.000190253
0.000783524
0.00112433
-3.00498e-05
0.000526787
0.00127994
8.97081e-05
0.000263564
0.00144162
0.000148426
6.11233e-05
0.00153648
0.000206368
0.0014453
0.000283552
0.00172973
-1.88146e-08
7.16068e-06
0.00176405
1.21735e-08
1.266e-05
0.0017882
-1.58317e-08
1.43907e-05
0.00180602
1.78262e-08
1.4148e-05
0.00181994
-1.80119e-08
1.31612e-05
0.0018304
3.14668e-08
1.19436e-05
0.00183972
-2.79772e-08
1.0697e-05
0.00184502
1.56465e-07
9.88382e-06
0.00185242
2.69984e-08
8.53874e-06
0.00184531
2.7526e-06
9.82108e-06
0.00185815
3.74337e-06
1.67053e-06
0.0017852
2.46846e-05
1.48942e-05
0.0018547
7.03975e-05
-2.97855e-05
0.0015322
0.000324498
-5.85801e-05
0.00108031
0.00168504
-0.000400273
0.00092046
0.00102385
0.000156693
0.00100779
0.000561891
0.000110959
0.00104572
0.000653095
4.02664e-05
0.000985623
0.000876095
3.29759e-06
0.000985211
0.00112366
-8.82079e-05
0.000854181
0.00131256
-3.58576e-05
0.00060812
0.00149593
7.12068e-05
0.000346266
0.00168937
0.00013627
0.000128009
0.00182281
0.000194951
0.00181705
0.000268355
0.00172977
-8.58115e-09
7.16517e-06
0.00176404
3.85656e-09
1.26552e-05
0.00178823
-9.14494e-09
1.43971e-05
0.00180602
1.24338e-08
1.4136e-05
0.00181995
-1.7187e-08
1.31801e-05
0.00183042
3.29201e-08
1.19121e-05
0.00183962
-2.86629e-08
1.07604e-05
0.00184548
1.51058e-07
9.75534e-06
0.00184981
6.44002e-07
9.03922e-06
0.00185058
2.56333e-06
8.60423e-06
0.00183854
6.52129e-06
6.31554e-06
0.0018226
2.48084e-05
6.46147e-06
0.00177608
7.62069e-05
-1.29816e-05
0.00156546
0.000362242
-4.40106e-05
0.00100149
0.00182728
-0.000374838
0.00100714
0.00102538
7.70732e-05
0.00110298
0.000620187
0.000133782
0.00115113
0.000752275
4.07551e-05
0.00109619
0.00100049
-3.89841e-06
0.00106855
0.00126478
-6.98922e-05
0.000937655
0.0014943
-3.3839e-05
0.000713016
0.00170238
5.50338e-05
0.000455251
0.00193513
0.000122347
0.000213125
0.00212597
0.000180956
0.00226115
0.000244197
0.00172978
-1.16252e-09
7.16579e-06
0.00176402
6.09733e-09
1.26543e-05
0.00178824
-8.6607e-09
1.44002e-05
0.001806
1.26461e-08
1.41275e-05
0.00181995
-2.04763e-08
1.31975e-05
0.00183044
2.93805e-08
1.1881e-05
0.00183956
-2.25387e-08
1.08165e-05
0.00184547
1.33008e-07
9.67259e-06
0.00185062
6.72076e-07
8.99322e-06
0.00185136
2.50347e-06
8.51671e-06
0.00184311
7.1297e-06
6.7772e-06
0.00182632
2.34569e-05
5.8711e-06
0.00176265
7.76357e-05
-7.26224e-06
0.00161953
0.000347712
-3.70032e-05
0.00112109
0.00176066
-0.000352837
0.00126371
0.00106038
3.04038e-05
0.00125762
0.000780315
0.000146696
0.00127416
0.000902673
4.28166e-05
0.00121233
0.00114185
-7.37913e-06
0.0011631
0.00140563
-5.42979e-05
0.00103548
0.00166393
-2.95791e-05
0.000839528
0.00189198
3.95878e-05
0.000611318
0.00215981
0.000101567
0.000346433
0.00243704
0.000160182
0.00281018
0.000208986
0.00172976
7.16489e-06
7.29962e-09
0.00176404
1.26547e-05
-7.62551e-10
0.00178822
1.44015e-05
-7.76603e-09
0.00180602
1.41254e-05
1.66964e-08
0.00181994
1.32055e-05
-3.81743e-08
0.00183045
1.1864e-05
6.51483e-08
0.00183961
1.08527e-05
-1.37167e-07
0.00184546
9.60669e-06
2.36551e-07
0.00185172
8.99931e-06
-2.69449e-07
0.00185114
8.45128e-06
4.2591e-06
0.00185347
6.98953e-06
-1.52803e-06
0.00182177
5.33514e-06
3.75701e-05
0.00180146
-4.77621e-06
2.61401e-05
0.00171947
-3.57027e-05
0.000295091
0.00144195
-0.000333436
0.0013541
0.00154588
-6.38103e-06
0.00128465
0.00142473
0.00014403
0.00105696
0.00139174
4.43102e-05
0.00110444
0.00132563
-9.68479e-06
0.00129299
0.00126329
-4.32003e-05
0.00153999
0.0011589
-2.78569e-05
0.00180667
0.00100526
2.73986e-05
0.0020466
0.000818297
8.10208e-05
0.00234613
0.000597869
0.000123448
0.00269944
0.000151263
0.00355645
0.00169384
-9.61347e-10
-7.15883e-06
0.00171918
-6.35574e-10
-1.26705e-05
0.00174797
1.9506e-09
-1.43739e-05
0.00177628
-3.21171e-09
-1.41779e-05
0.0018025
6.30429e-09
-1.31135e-05
0.0018266
-6.5759e-09
-1.19982e-05
0.00184784
1.19133e-08
-1.07108e-05
0.00186833
3.45251e-09
-1.0256e-05
0.00188619
4.7364e-08
-9.24127e-06
0.00189933
3.24486e-07
-8.7951e-06
0.00190966
7.12718e-07
-6.91234e-06
0.00190066
3.04112e-06
-5.84102e-06
0.00186563
7.77797e-06
1.487e-05
0.00150705
4.18866e-05
9.75489e-05
0.000178444
0.000147663
0.000641993
0.000635867
0.000253471
-0.000303772
0.000636001
0.000202385
-0.000125746
0.00051628
0.000218784
-7.29855e-05
0.000437964
0.000211544
-6.15413e-05
-0.000345176
0.000200922
-6.33687e-05
-0.000497117
0.000300611
-5.66401e-05
-0.000585617
0.000394483
-0.000132254
-0.000528877
0.000430787
-0.000213335
-0.000362381
0.000479064
-0.000305115
0.00042583
-0.000385954
0.00169384
-2.9477e-09
-7.1555e-06
0.00171919
-2.61571e-10
-1.26726e-05
0.00174796
2.37981e-10
-1.43703e-05
0.00177628
-8.35447e-11
-1.41837e-05
0.00180251
2.8787e-09
-1.31062e-05
0.0018266
1.66402e-09
-1.20104e-05
0.00184779
6.57978e-09
-1.0682e-05
0.00186831
4.10328e-08
-1.02644e-05
0.0018855
1.66791e-07
-8.77853e-06
0.00189998
5.95983e-07
-1.00826e-05
0.00190477
1.71486e-06
-2.37115e-06
0.00190554
5.73396e-06
-1.51891e-05
0.00185569
1.49162e-05
3.01694e-05
0.00146164
9.68348e-05
0.000107323
4.69089e-05
0.000472771
0.000461959
0.000588831
0.000427223
-0.000304755
0.000603121
0.000355225
-0.000103838
0.000514142
0.000388389
-6.74727e-05
0.00040576
0.000426504
-8.6194e-05
-0.0003835
0.000414652
0.0006433
-0.000595656
0.000602386
-3.18541e-05
-0.000629847
0.000694866
-0.000111615
-0.000544368
0.000765865
-0.000192377
-0.000339178
0.000831386
-0.000260887
0.000779384
-0.000324889
0.00169384
-4.79028e-09
-7.15887e-06
0.00171918
1.52447e-09
-1.26679e-05
0.00174796
1.32894e-10
-1.43769e-05
0.00177627
-2.52167e-09
-1.41743e-05
0.00180252
9.26141e-09
-1.31173e-05
0.00182659
-1.07666e-08
-1.19968e-05
0.00184778
2.63231e-08
-1.06927e-05
0.00186825
3.26577e-08
-1.02118e-05
0.00188596
2.15385e-07
-9.19397e-06
0.0018986
1.13699e-06
-8.78751e-06
0.00190756
2.70444e-06
-6.63199e-06
0.00189488
1.0857e-05
-6.10996e-06
0.00184941
2.88213e-05
1.66459e-05
0.00142975
0.000174245
0.000109101
-2.89273e-05
0.000724594
0.000623026
0.000539081
0.000547826
-0.00029278
0.000584542
0.000471572
-0.000107169
0.000506869
0.000543855
-6.73038e-05
0.000372631
0.000626592
-6.10616e-05
-0.000363838
0.000705819
0.000459479
-0.000588312
0.000880462
-6.52998e-06
-0.000604826
0.000979491
-0.000114142
-0.000519572
0.0010823
-0.000184562
-0.00032975
0.00116123
-0.000238909
0.00109955
-0.000296007
0.00169383
-6.78567e-09
-7.15628e-06
0.0017192
3.57146e-09
-1.26688e-05
0.00174795
-3.36756e-09
-1.43761e-05
0.00177627
9.95667e-10
-1.41756e-05
0.00180255
5.5976e-09
-1.31152e-05
0.00182655
-8.94518e-09
-1.20036e-05
0.00184773
3.07926e-08
-1.06603e-05
0.00186819
4.46489e-08
-1.01747e-05
0.00188503
3.22986e-07
-8.64806e-06
0.00189887
1.62079e-06
-1.0025e-05
0.00190079
3.93776e-06
-1.85811e-06
0.001897
1.56001e-05
-1.5351e-05
0.00183303
4.27421e-05
3.22277e-05
0.00139666
0.000255666
0.000104782
-7.97933e-05
0.00107033
0.000497615
0.000494404
0.000642717
-0.000280882
0.000571819
0.000553053
-0.000100083
0.000518379
0.000677826
-5.81126e-05
0.000389408
0.000817717
-3.44562e-05
-0.000299913
0.000901846
2.32905e-05
-0.000527144
0.00113756
5.4547e-06
-0.000542841
0.00126663
-0.000119634
-0.000474373
0.00139581
-0.000174925
-0.000308698
0.00148613
-0.000224773
0.00142177
-0.00028757
0.00169384
-8.16346e-09
-7.15496e-06
0.0017192
3.85052e-09
-1.26695e-05
0.00174794
-7.15577e-09
-1.43788e-05
0.00177628
6.0457e-09
-1.41699e-05
0.00180256
-2.69586e-09
-1.31254e-05
0.00182651
3.45742e-09
-1.19946e-05
0.00184773
2.14363e-08
-1.06429e-05
0.00186809
7.84275e-08
-1.00957e-05
0.0018839
4.94426e-07
-8.41811e-06
0.00189921
1.94489e-06
-1.01278e-05
0.00189253
5.51848e-06
-9.11727e-07
0.00189927
1.89975e-05
-1.62436e-05
0.00181584
5.67474e-05
3.25006e-05
0.00137006
0.000334215
0.000104214
-0.000147758
0.00148346
0.000508527
0.000452105
0.000691664
-0.000259584
0.000570615
0.000602118
-0.000101607
0.00054203
0.000793184
-5.35379e-05
0.000412062
0.00100618
-2.91795e-05
-0.00019095
0.00116757
0.000321646
-0.000434602
0.00139106
1.24782e-05
-0.000461154
0.00154201
-0.000111135
-0.000414506
0.0017053
-0.000163348
-0.000275713
0.00181407
-0.000214947
0.00176086
-0.000283392
0.00169385
-8.52759e-09
-7.15931e-06
0.00171919
4.02136e-09
-1.26629e-05
0.00174794
-8.61435e-09
-1.43861e-05
0.00177628
7.73242e-09
-1.41575e-05
0.00180254
-6.14565e-09
-1.31433e-05
0.00182649
7.24365e-09
-1.19715e-05
0.00184779
2.37349e-08
-1.06514e-05
0.00186783
6.82571e-08
-1.00082e-05
0.00188424
5.74575e-07
-8.48275e-06
0.00189792
2.37453e-06
-9.96038e-06
0.00189139
7.09356e-06
-1.30679e-06
0.00189076
2.34073e-05
-1.55566e-05
0.00181157
7.33486e-05
3.18538e-05
0.00138686
0.000405438
8.13257e-05
-0.000139531
0.0018601
0.00047067
0.000425588
0.000724862
-0.000221057
0.000594556
0.000626869
-0.000104801
0.000588704
0.000895339
-4.73904e-05
0.000465966
0.00118143
-1.63999e-05
-3.19586e-05
0.00143528
7.91087e-05
-0.000301211
0.0016478
2.39583e-05
-0.000357167
0.00181594
-9.58705e-05
-0.000335827
0.00201498
-0.000151032
-0.000227426
0.00214744
-0.000203989
0.0021239
-0.000274643
0.00169385
-8.59132e-09
-7.1631e-06
0.00171918
3.66762e-09
-1.26597e-05
0.00174795
-7.61828e-09
-1.43909e-05
0.00177627
7.2133e-09
-1.41466e-05
0.00180254
-5.6508e-09
-1.31614e-05
0.0018265
1.11107e-08
-1.19371e-05
0.0018478
1.43076e-08
-1.07136e-05
0.00186759
9.42582e-08
-9.81109e-06
0.00188436
6.39177e-07
-8.91627e-06
0.00189734
2.66292e-06
-8.76858e-06
0.00188887
8.35955e-06
-5.08786e-06
0.0018872
2.68204e-05
-7.88521e-06
0.00180963
8.66998e-05
1.45776e-05
0.00142921
0.000449002
6.35692e-05
-3.1534e-05
0.00219415
0.000459035
0.000423374
0.000787315
-0.000163622
0.000654139
0.000647343
-0.000114284
0.000664471
0.000997697
-4.20705e-05
0.000540107
0.00135037
-5.69575e-06
0.000155139
0.00168083
8.56099e-05
-0.000132006
0.00190665
3.15692e-05
-0.000230842
0.00209385
-7.55725e-05
-0.000232038
0.00231903
-0.000137229
-0.000158166
0.00248914
-0.000192143
0.00252577
-0.000261935
0.00169385
-7.82031e-09
-7.16622e-06
0.00171917
5.88548e-09
-1.26553e-05
0.00174795
-7.16199e-09
-1.43967e-05
0.00177624
8.33635e-09
-1.41358e-05
0.00180257
-4.67775e-09
-1.3179e-05
0.00182647
6.32574e-09
-1.19104e-05
0.00184784
2.19375e-08
-1.07623e-05
0.00186757
8.60397e-08
-9.74638e-06
0.00188516
6.14415e-07
-9.03019e-06
0.00189592
2.99924e-06
-8.56284e-06
0.00189692
8.09634e-06
-6.2418e-06
0.00187346
2.98468e-05
-6.51286e-06
0.00182973
9.56426e-05
1.26436e-05
0.00150251
0.000455507
4.33864e-05
0.000180666
0.00234645
0.000400267
0.000462626
0.000905695
-8.355e-05
0.000759134
0.000711305
-0.000137378
0.00077209
0.00111998
-4.24808e-05
0.000639951
0.00151631
2.197e-06
0.000328568
0.00188405
6.76592e-05
5.07377e-05
0.00215454
3.13233e-05
-6.82847e-05
0.00235545
-5.77031e-05
-9.46051e-05
0.00261694
-0.000122166
-5.70266e-05
0.00283624
-0.000177687
0.0029791
-0.000239346
0.00169385
-4.51801e-09
-7.16576e-06
0.00171917
9.45297e-09
-1.26547e-05
0.00174796
-1.03485e-08
-1.43999e-05
0.00177622
1.54491e-08
-1.41275e-05
0.0018026
-1.62279e-08
-1.31973e-05
0.00182641
1.68598e-08
-1.18803e-05
0.00184793
1.6418e-08
-1.08168e-05
0.0018675
6.96478e-08
-9.67099e-06
0.00188464
7.78282e-07
-8.98797e-06
0.00189617
2.86618e-06
-8.49942e-06
0.00189999
8.47674e-06
-6.75665e-06
0.00188168
2.72727e-05
-5.74069e-06
0.00183245
9.27079e-05
7.36905e-06
0.00157989
0.00041776
3.82502e-05
0.000448765
0.00225246
0.000366999
0.000640148
0.0010974
-3.20476e-05
0.000906421
0.000921444
-0.000150245
0.000897155
0.00128215
-4.43923e-05
0.000757665
0.00167566
6.19161e-06
0.000502314
0.0020619
5.27386e-05
0.000247703
0.00238161
2.7902e-05
0.000118986
0.00259241
-4.12325e-05
7.61109e-05
0.00288554
-0.000100717
8.79178e-05
0.00316362
-0.000156826
0.00350394
-0.000205147
0.00169385
-7.16392e-06
5.48736e-09
0.00171917
-1.26553e-05
3.18257e-09
0.00174796
-1.44005e-05
-1.33293e-08
0.00177621
-1.41257e-05
3.08506e-08
0.00180265
-1.32052e-05
-6.14607e-08
0.00182633
-1.18639e-05
1.10922e-07
0.00184812
-1.08529e-05
-1.75021e-07
0.00186711
-9.60501e-06
4.65049e-07
0.00188524
-8.99409e-06
1.4177e-07
0.00189515
-8.43645e-06
5.02913e-06
0.00191189
-6.9567e-06
-1.61429e-06
0.0018756
-5.23142e-06
4.41427e-05
0.00188023
5.01807e-06
3.38941e-05
0.00167884
3.70068e-05
0.000361267
0.000849116
0.000342894
0.00182102
0.000919825
-1.88596e-06
0.00147748
0.00107682
-0.000146847
0.00124199
0.00102823
-4.56706e-05
0.00148608
0.000884677
8.38408e-06
0.00183196
0.000672241
4.19524e-05
0.00221554
0.000462742
2.64137e-05
0.00256146
0.000340902
-2.87587e-05
0.00279354
0.000307868
-8.09947e-05
0.00310025
0.000306795
-0.000120256
0.00342685
-0.00014833
0.00413055
0.00172982
1.17543e-08
-5.87973e-05
0.00176398
-1.05099e-08
-4.68627e-05
0.00178832
1.1787e-08
-3.8608e-05
0.0018059
-1.33807e-08
-3.19472e-05
0.00181997
1.52706e-08
-2.69898e-05
0.00183058
-1.84527e-08
-2.2679e-05
0.0018391
3.82979e-08
-1.93813e-05
0.00184467
3.49656e-08
-1.65347e-05
0.00184889
6.00618e-07
-1.50073e-05
0.00185164
1.41868e-07
-1.51338e-05
0.00183823
3.81284e-06
-3.13866e-06
0.00183971
8.68842e-07
-2.01293e-05
0.0018082
8.60384e-06
4.2148e-05
0.00164357
6.47847e-05
9.20149e-05
0.0014813
0.00019874
0.000515859
0.00108454
0.000177822
-1.69717e-05
0.00101527
0.000130912
-0.000162579
0.000917623
0.00010142
-9.59476e-05
0.00085872
3.74047e-05
-5.2227e-05
0.000948369
-0.000100685
-4.2253e-05
0.000856356
8.25475e-05
-1.87701e-05
0.000592883
0.000203172
-4.23176e-05
0.00029233
0.000245448
-0.00012618
1.43167e-05
0.000299636
-0.000291619
0.000272789
-0.000606365
0.00172975
-1.27419e-08
-5.86927e-05
0.00176401
1.48418e-08
-4.69813e-05
0.0017883
-1.12062e-08
-3.85072e-05
0.00180588
1.56847e-08
-3.20499e-05
0.00182002
-1.28556e-08
-2.69007e-05
0.00183054
2.15413e-08
-2.27511e-05
0.00183905
-1.44952e-08
-1.93221e-05
0.00184466
9.68941e-08
-1.65307e-05
0.00185123
-2.40822e-07
-1.56113e-05
0.0018451
1.04421e-06
-8.52797e-06
0.00186037
-9.29828e-07
-1.93183e-05
0.00179327
7.69292e-06
3.19561e-05
0.00186042
1.34331e-05
-4.02978e-05
0.00162526
5.77166e-05
0.000247166
0.00152137
0.000356558
0.000319924
0.00106886
0.000376148
1.95801e-05
0.00101569
0.000274491
-0.000170621
0.000876831
0.000244728
-8.83986e-05
0.000593758
0.000264159
-4.39174e-05
0.000784058
0.000334309
3.58231e-05
0.00057404
0.000320939
-3.2114e-05
0.000383605
0.000367654
-5.63976e-05
0.000129931
0.000466849
-0.000128002
-6.69691e-05
0.000554487
-0.000284709
0.00050214
-0.000583457
0.00172979
5.77686e-09
-5.87831e-05
0.001764
-6.31866e-09
-4.68726e-05
0.00178829
7.20381e-09
-3.86079e-05
0.00180592
-9.2332e-09
-3.19397e-05
0.00182001
1.44554e-08
-2.70151e-05
0.00183053
-1.93926e-08
-2.26314e-05
0.00183914
5.47829e-08
-1.94636e-05
0.0018447
8.63214e-08
-1.64004e-05
0.00184829
8.39834e-07
-1.49344e-05
0.00185068
7.4755e-07
-1.46376e-05
0.00183366
5.45389e-06
-2.88274e-06
0.00183577
6.7495e-06
-1.92219e-05
0.00180321
2.412e-05
4.09625e-05
0.00160829
0.000160467
8.84531e-05
0.00136153
0.000589247
0.000542952
0.000999846
0.000518379
2.28063e-06
0.000964448
0.000378514
-0.000157329
0.000852029
0.000360894
-8.56197e-05
0.000636126
0.000439802
-3.36873e-05
0.00078805
0.000624954
3.74542e-05
0.00058967
0.000556327
-1.50466e-05
0.000328551
0.000583425
-3.95052e-05
6.39545e-05
0.000697631
-0.000118912
-0.00010071
0.000790472
-0.000276893
0.000696445
-0.000553991
0.00172973
-5.85507e-09
-5.8692e-05
0.00176404
5.87601e-09
-4.6978e-05
0.00178824
-7.63647e-09
-3.85184e-05
0.00180593
7.88478e-09
-3.20294e-05
0.00182007
-6.85493e-09
-2.69415e-05
0.0018304
5.73129e-09
-2.26889e-05
0.00183916
3.45518e-08
-1.94272e-05
0.00184493
1.43762e-07
-1.64405e-05
0.00185071
4.90035e-07
-1.5662e-05
0.00184486
1.52908e-06
-8.82219e-06
0.0018565
3.91896e-06
-1.97548e-05
0.00179056
1.29341e-05
2.92374e-05