/*--------------------------------*- C++ -*----------------------------------*\
  =========                 |
  \\      /  F ield         | OpenFOAM: The Open Source CFD Toolbox
   \\    /   O peration     | Website:  https://openfoam.org
    \\  /    A nd           | Version:  6
     \\/     M anipulation  |
\*---------------------------------------------------------------------------*/
FoamFile
{
    version     2.0;
    format      ascii;
    class       volScalarField;
    location    "8";
    object      T;
}
// * * * * * * * * * * * * * * * * * * * * * * * * * * * * * * * * * * * * * //

dimensions      [0 0 0 1 0 0 0];

internalField   nonuniform List<scalar> 
26250
(
0.9792
0.96855
0.95471
0.947919
0.936647
0.932219
0.924322
0.925296
0.925742
0.947969
0.990161
1.1444
1.57787
2.26464
2.77959
2.79257
2.78272
2.71548
2.64393
2.63403
2.63243
2.63873
2.66153
2.70091
2.68886
0.979225
0.968521
0.954731
0.947912
0.936626
0.932264
0.924212
0.925243
0.925593
0.947733
0.989569
1.1433
1.57382
2.26322
2.786
2.79806
2.78643
2.71024
2.6487
2.62336
2.62173
2.63021
2.65586
2.69898
2.68429
0.979285
0.968454
0.954783
0.947878
0.936612
0.932305
0.924111
0.925027
0.925235
0.947111
0.988055
1.14019
1.56204
2.2561
2.78717
2.80276
2.78764
2.70332
2.64518
2.62126
2.62077
2.63234
2.65918
2.7025
2.68844
0.979431
0.968306
0.954928
0.947743
0.93668
0.932308
0.923905
0.924517
0.924987
0.945805
0.98364
1.13617
1.55091
2.23489
2.79417
2.80974
2.78629
2.69677
2.63588
2.62778
2.62915
2.64047
2.66633
2.71214
2.70496
0.980788
0.966796
0.956506
0.945939
0.938573
0.930211
0.925774
0.921482
0.927045
0.934126
0.994425
1.09048
1.5364
2.32894
2.79226
2.8001
2.76949
2.6646
2.59987
2.59134
2.59598
2.61772
2.65115
2.70571
2.70458
0.979757
0.967946
0.95526
0.947379
0.936993
0.931986
0.923788
0.923453
0.923063
0.942374
0.973393
1.11713
1.49044
2.16196
2.81116
2.81699
2.76835
2.65465
2.59858
2.5857
2.59128
2.61323
2.64428
2.70242
2.70489
0.980954
0.96658
0.956667
0.945843
0.938522
0.930323
0.925331
0.920533
0.925225
0.929871
0.983625
1.06341
1.46816
2.22766
2.8054
2.79179
2.74071
2.60832
2.56499
2.56444
2.57529
2.60396
2.63491
2.69524
2.70379
0.980012
0.967569
0.955639
0.946939
0.937387
0.931583
0.923921
0.922268
0.921663
0.936883
0.964257
1.08029
1.37752
2.01559
2.82514
2.80059
2.71966
2.59307
2.54988
2.55044
2.56251
2.59013
2.62222
2.68113
2.69412
0.980068
0.967474
0.95575
0.946785
0.937571
0.931352
0.92407
0.921634
0.920923
0.933384
0.958657
1.05348
1.30762
1.86843
2.83207
2.79364
2.67971
2.58139
2.53862
2.54163
2.55249
2.57501
2.60102
2.65791
2.66588
0.980284
0.967253
0.955968
0.946561
0.937804
0.931054
0.924322
0.920783
0.920143
0.929686
0.947711
1.02927
1.21983
1.7458
2.78495
2.74808
2.65902
2.58443
2.53881
2.53509
2.54419
2.55841
2.57534
2.60724
2.59252
1.01373
1.0215
1.02599
1.02918
1.03184
1.0332
1.03592
1.04026
1.05672
1.08592
1.16964
1.38766
2.1009
2.74172
2.99177
2.94897
2.77672
2.71246
2.72477
2.72756
2.73614
2.75761
2.79827
2.80441
2.73844
1.01373
1.02151
1.02597
1.0292
1.03182
1.03318
1.0359
1.04021
1.05657
1.08558
1.16884
1.38611
2.09654
2.74413
2.99779
2.94053
2.76905
2.70781
2.71572
2.72613
2.74024
2.75417
2.78654
2.80926
2.74463
1.01375
1.02152
1.02592
1.02926
1.03177
1.03316
1.03587
1.04008
1.05618
1.08466
1.16696
1.38182
2.08228
2.74424
3.00435
2.93003
2.7594
2.70314
2.71148
2.72497
2.74336
2.75429
2.77791
2.80843
2.74631
1.0138
1.02151
1.02589
1.02935
1.03166
1.03319
1.03579
1.03983
1.0555
1.08308
1.16371
1.37414
2.05455
2.74412
3.0137
2.90757
2.74937
2.70082
2.71379
2.72422
2.7395
2.75439
2.77302
2.80554
2.74816
1.01391
1.02146
1.02588
1.02946
1.03146
1.03337
1.03567
1.03949
1.05275
1.08319
1.15218
1.3718
2.01881
2.74225
3.02665
2.88685
2.74138
2.69479
2.70846
2.71795
2.73409
2.75009
2.76478
2.7982
2.74665
1.01399
1.02134
1.02599
1.02935
1.03148
1.03344
1.03525
1.03898
1.05317
1.07816
1.15086
1.34649
1.95317
2.72091
3.04145
2.85241
2.73423
2.69079
2.70599
2.71436
2.72569
2.74018
2.75436
2.78641
2.74171
1.01409
1.02124
1.02609
1.02926
1.03154
1.03345
1.03495
1.03867
1.04933
1.0774
1.1342
1.3363
1.87007
2.68679
3.05853
2.82418
2.72731
2.68758
2.70452
2.70994
2.72114
2.72619
2.73819
2.76834
2.72947
1.01418
1.02109
1.02622
1.02909
1.03169
1.03325
1.0351
1.03813
1.04988
1.07095
1.12909
1.30111
1.75032
2.64026
3.0682
2.80136
2.73042
2.68727
2.70202
2.70486
2.71097
2.71511
2.71775
2.74544
2.70725
1.01419
1.02106
1.02626
1.02901
1.03179
1.03311
1.03518
1.03775
1.04801
1.06644
1.11789
1.26812
1.64433
2.52313
3.06818
2.78211
2.74844
2.69011
2.69722
2.69764
2.69837
2.69519
2.69456
2.70479
2.6605
1.0142
1.02105
1.02627
1.02901
1.0318
1.03308
1.03517
1.03728
1.046
1.062
1.10544
1.23385
1.54737
2.30308
3.04381
2.77839
2.75909
2.69428
2.68763
2.68637
2.6837
2.67654
2.65929
2.66118
2.57408
1.00587
1.01321
1.02107
1.02841
1.03539
1.04101
1.04715
1.05474
1.07516
1.11245
1.20422
1.46397
2.22897
2.8513
2.95409
2.62391
2.65694
2.66892
2.71059
2.68563
2.77557
2.78169
2.78821
2.7902
2.75016
1.00591
1.01318
1.02108
1.02841
1.03539
1.04099
1.04717
1.05471
1.0751
1.11186
1.20344
1.4613
2.22046
2.8547
2.95799
2.58837
2.65221
2.66519
2.70912
2.68746
2.77086
2.77809
2.78399
2.78649
2.74443
1.00588
1.01322
1.02102
1.02847
1.03533
1.04103
1.04713
1.05462
1.07463
1.11115
1.20068
1.45772
2.20915
2.86254
2.95992
2.56421
2.64668
2.66179
2.70723
2.6881
2.76703
2.77426
2.77576
2.77849
2.73816
1.00595
1.01316
1.02105
1.02848
1.03529
1.04105
1.04711
1.05446
1.07417
1.10924
1.19713
1.44813
2.18212
2.86761
2.96978
2.54256
2.64217
2.65801
2.70392
2.68116
2.75926
2.766
2.7676
2.77186
2.73253
1.00603
1.01306
1.02111
1.02845
1.03526
1.0411
1.04705
1.05421
1.07349
1.10635
1.19244
1.4331
2.14121
2.86947
2.98237
2.51277
2.63799
2.65387
2.70029
2.67478
2.75369
2.75926
2.75755
2.7578
2.72043
1.00606
1.01303
1.02114
1.02843
1.03523
1.04116
1.04688
1.05394
1.07219
1.10284
1.18671
1.41324
2.0895
2.85994
3.00895
2.48819
2.63678
2.6505
2.69461
2.66606
2.74258
2.7459
2.74343
2.74547
2.70899
1.00613
1.01294
1.02123
1.02833
1.03533
1.0411
1.04678
1.0537
1.07038
1.09865
1.17856
1.38701
2.01223
2.83086
3.03876
2.48204
2.64182
2.65067
2.69014
2.66365
2.72124
2.73579
2.72871
2.72129
2.68436
1.00618
1.01288
1.02129
1.02826
1.0354
1.04099
1.0468
1.05333
1.06794
1.09451
1.16527
1.35878
1.90577
2.77686
3.05615
2.50376
2.65539
2.6544
2.6849
2.65921
2.69824
2.71672
2.70505
2.69695
2.65662
1.00626
1.01279
1.02138
1.02815
1.03551
1.04085
1.0469
1.05272
1.06597
1.08964
1.1509
1.32581
1.76297
2.69597
3.06437
2.53928
2.68036
2.66062
2.68226
2.65526
2.67167
2.69864
2.6793
2.65743
2.60315
1.00622
1.01281
1.02136
1.02816
1.0355
1.04083
1.04686
1.05222
1.06366
1.08492
1.13669
1.29048
1.64456
2.52364
3.04941
2.5933
2.70929
2.66543
2.67552
2.65169
2.64885
2.66756
2.64506
2.61171
2.50687
1.01376
1.02151
1.02593
1.02926
1.03177
1.03316
1.03589
1.04016
1.05645
1.08545
1.16891
1.3879
2.10101
2.7515
3.00027
2.9453
2.77282
2.70748
2.7142
2.72473
2.74209
2.76345
2.78175
2.81542
2.76025
1.0138
1.02156
1.02588
1.02935
1.03174
1.03313
1.03593
1.04016
1.05469
1.08702
1.16207
1.39482
2.09795
2.75964
3.00826
2.94754
2.77014
2.70791
2.7171
2.73282
2.74113
2.76566
2.79012
2.81272
2.74296
1.01381
1.0215
1.0259
1.02934
1.03168
1.03317
1.03583
1.03993
1.05585
1.08401
1.16608
1.38153
2.07698
2.75474
3.01164
2.92362
2.75713
2.70453
2.71774
2.72519
2.73356
2.75864
2.78792
2.80801
2.74305
1.01388
1.02149
1.02587
1.02944
1.03154
1.03324
1.03584
1.03974
1.05361
1.08473
1.15653
1.3832
2.0563
2.75577
3.02386
2.91311
2.7501
2.6988
2.70971
2.7246
2.73656
2.75041
2.78204
2.80293
2.74266
1.01395
1.02141
1.02592
1.02943
1.03145
1.0334
1.03559
1.03938
1.05261
1.08278
1.1514
1.37159
2.01371
2.74672
3.0358
2.88715
2.74099
2.69267
2.70621
2.71895
2.73462
2.74553
2.76993
2.79608
2.7407
1.01402
1.02133
1.026
1.02936
1.03145
1.03352
1.03513
1.03911
1.05097
1.08054
1.14384
1.35598
1.95571
2.72387
3.05203
2.8562
2.73146
2.68655
2.70214
2.71182
2.72941
2.73825
2.75671
2.78651
2.73538
1.01411
1.0212
1.0261
1.02923
1.03155
1.0334
1.03502
1.03852
1.05156
1.07484
1.14045
1.32669
1.86523
2.69105
3.06761
2.82468
2.72613
2.68527
2.70172
2.70774
2.72195
2.7264
2.7392
2.76621
2.72289
1.01416
1.0211
1.02621
1.0291
1.03168
1.03327
1.03508
1.03814
1.04983
1.07097
1.12905
1.30058
1.75327
2.63627
3.07651
2.8065
2.73101
2.68631
2.70031
2.70335
2.71158
2.71473
2.71829
2.74436
2.70056
1.01419
1.02106
1.02626
1.02901
1.03179
1.03311
1.03518
1.03774
1.04797
1.06634
1.11771
1.26736
1.64395
2.51649
3.07528
2.78539
2.74939
2.68925
2.69675
2.69583
2.69714
2.69549
2.69496
2.70303
2.65385
1.01419
1.02106
1.02627
1.02901
1.03181
1.03308
1.03516
1.03728
1.04597
1.06193
1.10528
1.2332
1.54615
2.29811
3.04717
2.78087
2.75928
2.69376
2.68742
2.68689
2.68339
2.67532
2.65952
2.66087
2.56743
0.979421
0.968312
0.954887
0.947797
0.936615
0.93234
0.923999
0.924833
0.924759
0.947548
0.986497
1.14653
1.60306
2.27314
2.83972
2.84484
2.82015
2.71039
2.64535
2.62422
2.62471
2.63758
2.66523
2.70903
2.67897
0.980767
0.966796
0.956521
0.945943
0.938554
0.930227
0.925997
0.92202
0.92812
0.93638
1.00171
1.10678
1.57996
2.39639
2.81635
2.81266
2.79441
2.69817
2.61068
2.59441
2.59463
2.60553
2.63813
2.6866
2.66444
0.979531
0.968194
0.955019
0.947661
0.936723
0.932283
0.923833
0.924335
0.924836
0.94599
0.981274
1.14241
1.59752
2.24703
2.83719
2.84403
2.81181
2.69774
2.62853
2.62438
2.62696
2.64057
2.67239
2.71463
2.69991
0.980716
0.966809
0.956529
0.945932
0.938554
0.930274
0.925804
0.921832
0.927588
0.936525
0.997989
1.10163
1.55873
2.35622
2.81598
2.82351
2.79583
2.68112
2.60984
2.59672
2.60031
2.61913
2.65497
2.70782
2.7064
0.980738
0.966798
0.956485
0.945979
0.938472
0.930299
0.925706
0.921648
0.926979
0.9368
0.994141
1.09583
1.53914
2.32906
2.82505
2.83269
2.79471
2.66558
2.59322
2.585
2.58957
2.61077
2.64878
2.70246
2.71068
0.980775
0.966802
0.956445
0.94603
0.938445
0.930306
0.925523
0.921107
0.926102
0.933366
0.989423
1.08112
1.50865
2.29068
2.82749
2.83124
2.77682
2.62723
2.56363
2.55975
2.56812
2.59637
2.63418
2.68888
2.70855
0.979878
0.967751
0.95543
0.947191
0.937128
0.931856
0.923782
0.922998
0.922467
0.93988
0.97024
1.10036
1.43635
2.11217
2.83961
2.82843
2.75796
2.6142
2.56257
2.55691
2.56834
2.58871
2.63034
2.67174
2.70148
0.979953
0.967629
0.955576
0.946995
0.937333
0.931634
0.923877
0.922426
0.92174
0.936857
0.966674
1.07682
1.37892
1.99817
2.84244
2.81923
2.73147
2.59966
2.55494
2.55371
2.56707
2.58481
2.62373
2.66471
2.68618
0.980065
0.967474
0.955757
0.946768
0.93759
0.93133
0.924084
0.921603
0.920885
0.933239
0.958248
1.05263
1.30456
1.86461
2.84603
2.79895
2.67773
2.57892
2.53972
2.54366
2.56003
2.57573
2.60904
2.65055
2.65594
0.98024
0.967314
0.955932
0.946567
0.937835
0.931017
0.924341
0.920785
0.920149
0.929593
0.947393
1.02839
1.2158
1.74184
2.78823
2.74611
2.65795
2.58204
2.5386
2.53716
2.54987
2.56128
2.58271
2.61406
2.58522
0.980734
0.966756
0.956519
0.945933
0.938498
0.930289
0.925138
0.919769
0.922062
0.922555
0.948645
0.991515
1.17538
1.66846
2.45662
2.66811
2.6252
2.57499
2.53401
2.52383
2.53099
2.54194
2.54086
2.53557
2.44382
0.979564
0.967908
0.955365
0.94708
0.937363
0.931455
0.923865
0.921066
0.919243
0.925271
0.935457
1.00046
1.11278
1.56735
2.43765
2.66134
2.62292
2.57513
2.5207
2.50067
2.50177
2.50211
2.49427
2.4697
2.37417
0.980861
0.966647
0.956639
0.945834
0.938593
0.930209
0.925136
0.91942
0.920343
0.920446
0.941853
0.973954
1.12776
1.4731
2.22851
2.59885
2.59313
2.56003
2.50997
2.4918
2.48926
2.48263
2.46723
2.43622
2.35882
0.979086
0.968439
0.954807
0.947695
0.936722
0.932125
0.923209
0.921355
0.917895
0.923033
0.932909
0.985544
1.0798
1.46556
2.26912
2.54575
2.54519
2.51696
2.48043
2.46506
2.45939
2.4505
2.42997
2.40285
2.34797
0.979217
0.968294
0.954945
0.94756
0.936829
0.932027
0.92326
0.921124
0.917338
0.922076
0.929489
0.978214
1.05143
1.40451
2.18452
2.50638
2.52622
2.50416
2.47331
2.4545
2.4422
2.428
2.40626
2.37304
2.32816
0.98105
0.966437
0.956857
0.945591
0.938839
0.929914
0.925338
0.918643
0.918274
0.917927
0.933202
0.958302
1.07215
1.29766
1.93806
2.44269
2.49071
2.47537
2.46132
2.44067
2.42994
2.41122
2.39078
2.35792
2.31614
0.98091
0.966579
0.956734
0.945701
0.938727
0.93004
0.925178
0.918664
0.917609
0.917156
0.930208
0.953336
1.05033
1.23518
1.8206
2.35099
2.44937
2.45208
2.44504
2.42926
2.41868
2.40256
2.38165
2.35155
2.31336
0.980637
0.96685
0.956579
0.945819
0.938474
0.930462
0.924699
0.918977
0.917107
0.916783
0.926941
0.952361
1.01989
1.22978
1.65952
2.24604
2.39931
2.40247
2.3999
2.39176
2.3886
2.3832
2.37069
2.34811
2.31563
0.98053
0.966955
0.956346
0.946088
0.938342
0.930424
0.924773
0.918852
0.916286
0.915874
0.92351
0.941984
0.995522
1.1412
1.49742
2.11835
2.36663
2.37864
2.37715
2.3664
2.35196
2.34409
2.33686
2.32665
2.31007
0.979916
0.967591
0.955684
0.946793
0.937631
0.931135
0.924036
0.919449
0.914899
0.916325
0.917174
0.93532
0.97111
1.08317
1.40672
1.93656
2.29913
2.34601
2.34551
2.34007
2.32919
2.31836
2.30963
2.29744
2.2857
0.98124
0.966257
0.957037
0.94542
0.939022
0.929691
0.925485
0.91785
0.91608
0.912974
0.916997
0.92437
0.963919
1.0313
1.30265
1.92917
2.28289
2.35363
2.34984
2.33984
2.32722
2.31484
2.30417
2.29323
2.27913
0.979771
0.967765
0.955506
0.947002
0.937426
0.931368
0.923758
0.919615
0.913899
0.9133
0.912858
0.92456
0.946827
1.02489
1.20927
1.68576
2.20525
2.33991
2.34674
2.33896
2.32869
2.31739
2.3078
2.29668
2.28157
0.980875
0.966614
0.956667
0.945792
0.938611
0.930158
0.92496
0.918255
0.915244
0.911541
0.913559
0.919503
0.939632
0.995306
1.12908
1.58821
2.09608
2.3103
2.33219
2.33036
2.32562
2.31768
2.31044
2.30061
2.28748
0.980745
0.966744
0.956534
0.945927
0.938467
0.930292
0.924786
0.918475
0.914621
0.910673
0.912312
0.915071
0.932083
0.967448
1.07853
1.37981
1.91836
2.26876
2.32585
2.32581
2.32129
2.31504
2.30743
2.29808
2.28621
0.980976
0.966506
0.956746
0.945701
0.938668
0.930082
0.924955
0.918298
0.914674
0.91018
0.91089
0.912051
0.92522
0.952804
1.04391
1.25233
1.76953
2.23625
2.34093
2.34688
2.33949
2.33004
2.31772
2.30519
2.29077
0.980716
0.966735
0.956496
0.945981
0.938406
0.930317
0.924816
0.91837
0.914584
0.909967
0.909579
0.909903
0.919905
0.941002
1.01432
1.16331
1.61663
2.15317
2.33056
2.34811
2.34199
2.33449
2.32119
2.30661
2.29078
0.980578
0.966887
0.956397
0.946038
0.938391
0.930323
0.924782
0.918408
0.914501
0.909718
0.908512
0.908458
0.915689
0.932922
0.985209
1.09983
1.45471
2.10498
2.32139
2.351
2.34505
2.33554
2.31939
2.30287
2.28602
0.980417
0.967064
0.956214
0.946229
0.938205
0.93052
0.924589
0.918599
0.914296
0.909768
0.907758
0.907433
0.912885
0.926385
0.968179
1.05786
1.36652
2.00477
2.32575
2.38328
2.37057
2.35789
2.33588
2.31209
2.29143
0.980225
0.967269
0.956006
0.946449
0.937989
0.930751
0.924383
0.918843
0.914093
0.909912
0.907091
0.906789
0.911183
0.92149
0.958398
1.03182
1.29568
1.93706
2.34648
2.43711
2.42468
2.40205
2.37397
2.34137
2.31448
0.980476
0.967131
0.956122
0.946424
0.937973
0.930811
0.924279
0.918925
0.913974
0.909948
0.906895
0.906683
0.909684
0.918177
0.948387
1.01282
1.22506
1.81541
2.31554
2.46499
2.46263
2.44036
2.40958
2.37125
2.34025
0.980708
0.966825
0.956468
0.946015
0.938403
0.930317
0.924762
0.918412
0.914425
0.909514
0.907252
0.906334
0.908381
0.915828
0.938416
0.996775
1.15349
1.67094
2.26917
2.46316
2.46137
2.44039
2.41217
2.37685
2.34932
0.98062
0.966864
0.956437
0.945989
0.938473
0.930206
0.924909
0.918274
0.914589
0.909283
0.90732
0.90499
0.90703
0.91233
0.933897
0.978546
1.12349
1.52347
2.14279
2.46632
2.47316
2.44936
2.42012
2.38726
2.3636
0.980528
0.966948
0.956365
0.946096
0.938388
0.930341
0.924798
0.918415
0.914464
0.90934
0.907151
0.904482
0.906042
0.910966
0.929162
0.969641
1.09944
1.42083
2.09179
2.47935
2.50526
2.48078
2.45403
2.42185
2.39818
0.980629
0.966902
0.956361
0.946138
0.938272
0.930464
0.924633
0.918522
0.914313
0.909509
0.906734
0.904043
0.905494
0.909186
0.92717
0.962163
1.08969
1.37307
2.0543
2.50244
2.53713
2.51452
2.4877
2.45686
2.43686
0.980668
0.966812
0.956434
0.946013
0.938376
0.930381
0.924692
0.918551
0.914276
0.909598
0.906559
0.903739
0.905005
0.90821
0.924929
0.957932
1.07776
1.33782
2.00252
2.49512
2.5439
2.52544
2.50868
2.48123
2.45721
0.980599
0.966865
0.956396
0.946081
0.938295
0.9305
0.92456
0.918633
0.914273
0.909454
0.906738
0.903839
0.90502
0.908754
0.92254
0.958515
1.05856
1.34999
1.95315
2.49001
2.55537
2.54421
2.52319
2.48694
2.46072
0.980716
0.966872
0.956363
0.946137
0.938259
0.930453
0.924655
0.918503
0.914339
0.909465
0.906642
0.903486
0.905101
0.905775
0.9204
0.946529
1.05293
1.25852
1.87023
2.47967
2.56906
2.55818
2.53236
2.49793
2.4677
0.980579
0.96692
0.956347
0.946123
0.938283
0.930469
0.924611
0.918582
0.914248
0.909533
0.906559
0.90349
0.90476
0.906632
0.918045
0.947244
1.02753
1.25678
1.76801
2.4485
2.58353
2.57235
2.53382
2.49138
2.45919
0.98065
0.966834
0.956445
0.946004
0.938423
0.930317
0.924774
0.918437
0.914371
0.909482
0.906493
0.903445
0.903998
0.905534
0.914445
0.939865
1.0053
1.18737
1.63943
2.4735
2.61928
2.59636
2.54076
2.48584
2.45882
0.980679
0.966839
0.956454
0.946008
0.93843
0.930301
0.924792
0.918398
0.914422
0.909375
0.906631
0.90307
0.90343
0.904343
0.912392
0.933535
0.995486
1.13977
1.57081
2.43104
2.63305
2.61723
2.57472
2.5138
2.48091
0.980731
0.966758
0.956531
0.945915
0.938518
0.930204
0.924883
0.918312
0.914478
0.909337
0.906636
0.902957
0.903078
0.903205
0.911771
0.929686
0.992734
1.1133
1.54863
2.40925
2.6546
2.64101
2.60277
2.53922
2.49915
0.980568
0.966945
0.956361
0.946101
0.938345
0.930391
0.924709
0.918481
0.914336
0.909475
0.906499
0.903161
0.902973
0.903827
0.910876
0.931013
0.986201
1.12214
1.53788
2.38027
2.64544
2.63459
2.59722
2.53644
2.49134
0.980694
0.966791
0.956496
0.945951
0.93848
0.930242
0.924853
0.918323
0.914496
0.909295
0.906651
0.902926
0.902691
0.902733
0.910708
0.927469
0.986315
1.09632
1.5196
2.37027
2.63878
2.63264
2.59809
2.54135
2.49398
0.980688
0.966791
0.956498
0.945948
0.938482
0.930243
0.924848
0.918335
0.91447
0.909333
0.906595
0.90296
0.902613
0.902684
0.910303
0.926759
0.983924
1.09042
1.50506
2.34659
2.62217
2.62138
2.58902
2.53502
2.48968
0.980691
0.966777
0.956509
0.945927
0.938496
0.930227
0.924851
0.91833
0.914473
0.909304
0.906649
0.902856
0.902548
0.902604
0.910433
0.925978
0.982791
1.08311
1.49206
2.32978
2.60217
2.60672
2.57562
2.52852
2.49165
0.980706
0.966751
0.956527
0.945903
0.938509
0.930213
0.92485
0.91834
0.914435
0.909376
0.906541
0.902998
0.902572
0.902618
0.910007
0.925893
0.981375
1.08375
1.48576
2.32044
2.58566
2.59281
2.56323
2.52404
2.49619
0.980732
0.966716
0.956542
0.945895
0.938475
0.930275
0.924743
0.918473
0.914284
0.909521
0.906423
0.90317
0.902679
0.90331
0.909829
0.927624
0.979535
1.09599
1.49534
2.32336
2.56878
2.57181
2.54232
2.5068
2.4827
0.980764
0.966678
0.956559
0.945869
0.938495
0.930219
0.924828
0.918337
0.914457
0.909323
0.906618
0.902905
0.902553
0.902552
0.910233
0.925567
0.980715
1.07953
1.47135
2.31432
2.55097
2.55701
2.53053
2.49268
2.48967
0.98079
0.96666
0.956553
0.945881
0.938462
0.930254
0.92479
0.918385
0.914378
0.909439
0.906479
0.903085
0.90266
0.902998
0.909858
0.926252
0.980121
1.08675
1.47885
2.33163
2.54812
2.54214
2.50071
2.4729
2.47683
0.980816
0.966634
0.956562
0.945879
0.938438
0.930292
0.924734
0.918442
0.914325
0.909495
0.906409
0.903251
0.902805
0.903551
0.909991
0.927672
0.978822
1.09284
1.48048
2.33521
2.5461
2.5353
2.48717
2.4662
2.47661
1.01389
1.02136
1.02597
1.02931
1.0315
1.03341
1.03484
1.03779
1.04296
1.05967
1.09878
1.18521
1.48224
2.20373
2.96581
2.77109
2.7618
2.70205
2.67954
2.67375
2.66095
2.64994
2.61793
2.58097
2.45664
1.0138
1.0214
1.02591
1.02933
1.03146
1.03341
1.03479
1.03758
1.04211
1.05631
1.09244
1.16248
1.41886
2.03854
2.82985
2.75686
2.75176
2.70194
2.67152
2.66188
2.64076
2.62312
2.5871
2.53117
2.4028
1.01385
1.02141
1.02593
1.02936
1.03145
1.03344
1.03467
1.03714
1.04127
1.05573
1.08521
1.15425
1.37349
1.91169
2.76682
2.76272
2.74238
2.68679
2.65904
2.64946
2.62469
2.59695
2.54786
2.50117
2.40404
1.01375
1.02143
1.02588
1.02935
1.03142
1.03341
1.03458
1.0368
1.04091
1.05158
1.08314
1.13594
1.35254
1.81807
2.6927
2.74892
2.72024
2.65907
2.63886
2.63207
2.61383
2.58456
2.52843
2.47899
2.40812
1.01404
1.02115
1.02616
1.02907
1.03171
1.0331
1.03487
1.03617
1.04127
1.05077
1.07499
1.14858
1.29436
1.7497
2.68445
2.72461
2.69096
2.6484
2.62426
2.61251
2.59208
2.56878
2.51506
2.46915
2.41218
1.01396
1.02131
1.02603
1.02927
1.03154
1.03333
1.03459
1.0363
1.03956
1.05098
1.07302
1.12637
1.29435
1.65795
2.54364
2.71345
2.65557
2.64524
2.62179
2.60729
2.58012
2.55655
2.51551
2.4579
2.42083
1.01413
1.02114
1.02621
1.02909
1.03171
1.03318
1.0347
1.036
1.03904
1.04947
1.06883
1.11679
1.2662
1.58439
2.3904
2.67327
2.66062
2.63325
2.61409
2.60137
2.57236
2.54879
2.51698
2.46139
2.42496
1.01406
1.02119
1.02618
1.02909
1.0317
1.03316
1.03476
1.03591
1.03946
1.04619
1.06212
1.11424
1.19978
1.55641
2.35889
2.60835
2.65061
2.62985
2.61009
2.59813
2.57338
2.54214
2.52074
2.47221
2.43272
1.01404
1.0212
1.02614
1.02913
1.03168
1.03316
1.03473
1.03585
1.03897
1.04423
1.05938
1.10048
1.17727
1.45817
2.17358
2.5601
2.645
2.62488
2.60446
2.5912
2.57576
2.54344
2.52247
2.48822
2.44919
1.01398
1.02124
1.02609
1.02916
1.03164
1.03317
1.03468
1.03571
1.0382
1.04223
1.05706
1.08411
1.15859
1.35058
1.93562
2.4574
2.61634
2.61228
2.59711
2.58029
2.57118
2.54699
2.52538
2.50198
2.4744
1.01379
1.02148
1.02587
1.02943
1.03138
1.03345
1.03436
1.03587
1.03704
1.04206
1.05042
1.07513
1.13746
1.27508
1.66659
2.41698
2.58163
2.58249
2.57994
2.57151
2.56607
2.55352
2.53347
2.51109
2.48912
1.01374
1.02148
1.02585
1.0294
1.03139
1.03341
1.03436
1.03576
1.03679
1.04071
1.04755
1.06604
1.11982
1.21388
1.58624
2.3644
2.56039
2.57805
2.56959
2.56463
2.56048
2.55599
2.54654
2.52847
2.50507
1.01376
1.02151
1.02583
1.02947
1.03133
1.03351
1.03428
1.03577
1.03644
1.03895
1.04493
1.06212
1.09191
1.21102
1.42813
2.08534
2.51614
2.58459
2.57406
2.567
2.56224
2.5594
2.55324
2.5419
2.52268
1.01387
1.02138
1.02596
1.02932
1.03148
1.03334
1.03442
1.03564
1.03646
1.03887
1.04309
1.05649
1.08645
1.15729
1.35848
1.91673
2.42463
2.5794
2.57746
2.57431
2.56741
2.56384
2.55732
2.54763
2.53266
1.0139
1.02136
1.02597
1.02931
1.03149
1.03333
1.03443
1.0356
1.03636
1.03821
1.04138
1.05292
1.07371
1.13256
1.27484
1.70874
2.31799
2.55872
2.57787
2.57627
2.5718
2.56776
2.56033
2.54959
2.53515
1.01389
1.02136
1.02597
1.02931
1.03149
1.03333
1.03444
1.03557
1.03627
1.03771
1.04018
1.04999
1.06612
1.11156
1.2361
1.51433
2.22364
2.55544
2.59485
2.58837
2.58232
2.57213
2.5619
2.54945
2.53478
1.01408
1.02116
1.02617
1.0291
1.03169
1.03313
1.03462
1.03539
1.03634
1.03723
1.03934
1.04716
1.06003
1.09638
1.19493
1.41232
2.00727
2.5029
2.62876
2.62382
2.61121
2.59005
2.57166
2.55449
2.53679
1.01402
1.02122
1.02612
1.02915
1.03165
1.03315
1.0346
1.03537
1.03638
1.03706
1.03936
1.04344
1.05582
1.08469
1.1512
1.33489
1.88167
2.40596
2.6057
2.62357
2.61834
2.60344
2.58266
2.56208
2.54226
1.01387
1.02135
1.02598
1.02927
1.03153
1.03326
1.03449
1.03547
1.03623
1.03702
1.03824
1.04335
1.05108
1.07646
1.1344
1.26726
1.65987
2.4283
2.61885
2.63715
2.62872
2.61378
2.59417
2.57172
2.54955
1.01384
1.0214
1.02594
1.02933
1.03148
1.03332
1.03444
1.03552
1.03618
1.037
1.03797
1.04239
1.04866
1.07084
1.11932
1.22731
1.58044
2.36764
2.63856
2.67398
2.64964
2.62682
2.59992
2.57768
2.55671
1.01379
1.02145
1.0259
1.02938
1.03143
1.03337
1.03439
1.03558
1.03612
1.03703
1.03783
1.04148
1.04678
1.06588
1.10585
1.19797
1.49607
2.22863
2.62289
2.71505
2.68028
2.65365
2.61766
2.59253
2.57147
1.0138
1.02144
1.0259
1.02938
1.03143
1.03338
1.03438
1.0356
1.03609
1.03704
1.0377
1.04063
1.04527
1.06116
1.09487
1.1761
1.41674
2.05299
2.60653
2.73414
2.69917
2.6697
2.63298
2.60629
2.58476
1.01381
1.02143
1.02591
1.02937
1.03144
1.03338
1.03438
1.03559
1.03609
1.03702
1.03764
1.04024
1.04402
1.05894
1.0851
1.16019
1.34817
1.91278
2.55845
2.74155
2.70578
2.67941
2.64295
2.6179
2.5987
1.01386
1.0214
1.02594
1.02934
1.03146
1.03336
1.0344
1.03557
1.03611
1.03699
1.03757
1.03982
1.04333
1.05618
1.08081
1.14648
1.32177
1.82695
2.55966
2.76031
2.72056
2.70353
2.6703
2.64453
2.62262
1.01388
1.02137
1.02596
1.02932
1.03148
1.03334
1.03441
1.03556
1.03612
1.03697
1.03752
1.03954
1.04268
1.05448
1.07716
1.13533
1.30287
1.73579
2.53831
2.76526
2.75086
2.73387
2.69974
2.66952
2.64428
1.01396
1.0213
1.02603
1.02926
1.03153
1.0333
1.03445
1.03553
1.03615
1.03689
1.03743
1.03866
1.04219
1.05179
1.06924
1.13806
1.24871
1.70257
2.60542
2.77406
2.76982
2.74951
2.71203
2.68164
2.66082
1.01393
1.02133
1.026
1.02929
1.03151
1.03331
1.03445
1.03552
1.03614
1.03692
1.0374
1.03889
1.04183
1.04961
1.07258
1.11537
1.27482
1.62442
2.42424
2.77581
2.7825
2.76612
2.72764
2.70049
2.67995
1.01403
1.02123
1.0261
1.02919
1.03161
1.03322
1.03454
1.03544
1.03622
1.03681
1.03743
1.03832
1.04145
1.04912
1.06425
1.12087
1.21081
1.60376
2.42694
2.78444
2.80362
2.78685
2.74013
2.70601
2.68262
1.01407
1.02119
1.02614
1.02914
1.03165
1.03317
1.03458
1.0354
1.03626
1.03677
1.03743
1.03819
1.04162
1.04729
1.06334
1.11032
1.19418
1.53051
2.29321
2.8072
2.81993
2.79896
2.73744
2.70197
2.68352
1.0139
1.02135
1.02599
1.02929
1.03151
1.0333
1.03445
1.03552
1.03614
1.03689
1.03732
1.03839
1.0403
1.04769
1.06074
1.09681
1.19596
1.42687
2.02569
2.8007
2.8224
2.80257
2.7404
2.70219
2.68084
1.01393
1.02133
1.02601
1.02927
1.03153
1.03329
1.03447
1.03551
1.03615
1.03689
1.0373
1.03822
1.04003
1.0466
1.05885
1.09106
1.18214
1.39407
1.89921
2.77794
2.82121
2.80784
2.75052
2.70079
2.67278
1.01404
1.02121
1.02613
1.02914
1.03166
1.03315
1.03461
1.03536
1.03631
1.03671
1.03747
1.03799
1.04029
1.04522
1.05592
1.09279
1.15308
1.39473
1.96214
2.74321
2.81831
2.81296
2.75829
2.70295
2.67204
1.0139
1.02135
1.02599
1.02929
1.03152
1.0333
1.03446
1.03552
1.03615
1.03688
1.03729
1.03815
1.0398
1.04623
1.05689
1.0875
1.17014
1.35039
1.84461
2.77712
2.8129
2.80585
2.75274
2.70109
2.67035
1.0139
1.02135
1.02599
1.02929
1.03151
1.03331
1.03446
1.03552
1.03615
1.03689
1.03729
1.03816
1.03975
1.04646
1.05622
1.08841
1.16379
1.34
1.82435
2.7661
2.80312
2.79414
2.74797
2.70005
2.67371
1.01392
1.02135
1.026
1.02929
1.03153
1.0333
1.03446
1.03552
1.03615
1.03688
1.03728
1.0381
1.0397
1.04601
1.05625
1.08585
1.16544
1.33752
1.81994
2.75166
2.7869
2.78102
2.74767
2.70461
2.6828
1.01392
1.02135
1.026
1.02929
1.03152
1.0333
1.03446
1.03551
1.03615
1.03688
1.03728
1.03809
1.03967
1.04587
1.05586
1.08496
1.16355
1.3276
1.80968
2.74424
2.7817
2.7761
2.75273
2.72084
2.70701
1.01405
1.02119
1.02615
1.02912
1.03168
1.03313
1.03462
1.03535
1.03631
1.03671
1.03746
1.03795
1.04012
1.04455
1.05444
1.08777
1.14135
1.35882
1.84865
2.70142
2.76911
2.77178
2.75369
2.73893
2.73234
1.01401
1.0213
1.02604
1.02927
1.03154
1.03328
1.03447
1.03548
1.03615
1.03685
1.03726
1.03798
1.03972
1.04456
1.05682
1.08127
1.16627
1.32516
1.8065
2.73753
2.73921
2.75778
2.75799
2.76191
2.76351
1.01408
1.02117
1.02615
1.02912
1.03166
1.03314
1.03461
1.03534
1.03631
1.0367
1.03748
1.03801
1.04038
1.04441
1.05604
1.08704
1.14451
1.35243
1.81893
2.73993
2.73214
2.75477
2.76333
2.77953
2.78433
1.01409
1.02117
1.02615
1.02912
1.03167
1.03313
1.03461
1.03534
1.03631
1.0367
1.03748
1.03802
1.04043
1.04446
1.0563
1.08698
1.14577
1.35016
1.82122
2.74317
2.73108
2.76352
2.78009
2.79994
2.80147
1.00569
1.01333
1.02085
1.02866
1.03502
1.04126
1.04638
1.05199
1.06006
1.08222
1.12924
1.23251
1.5746
2.4092
2.99699
2.63315
2.73812
2.67213
2.66948
2.64287
2.62533
2.63905
2.60737
2.54936
2.39741
1.00565
1.01337
1.02081
1.0287
1.03497
1.04133
1.04624
1.052
1.05918
1.08002
1.11842
1.21258
1.48656
2.23857
2.88348
2.6497
2.74748
2.67313
2.66385
2.63649
2.5999
2.60024
2.57103
2.50354
2.36257
1.00624
1.01278
1.0214
1.0281
1.03558
1.0407
1.04689
1.05126
1.05992
1.07513
1.11116
1.21071
1.41407
2.01925
2.8211
2.68861
2.75536
2.66719
2.6489
2.62897
2.58212
2.5706
2.53705
2.48185
2.3699
1.00629
1.01273
1.02144
1.02805
1.03562
1.04065
1.0469
1.05103
1.05909
1.07316
1.10641
1.19732
1.37753
1.88676
2.80657
2.70311
2.73063
2.66504
2.63621
2.61693
2.56893
2.54179
2.50998
2.46469
2.38113
1.00636
1.01266
1.02151
1.02799
1.03566
1.04062
1.04683
1.05096
1.05799
1.07125
1.10537
1.16441
1.38392
1.84975
2.75045
2.72194
2.68926
2.65081
2.62992
2.61182
2.56121
2.52397
2.48676
2.45726
2.39472
1.00586
1.01316
1.02101
1.0285
1.03515
1.04113
1.04631
1.05142
1.05768
1.07276
1.0989
1.16527
1.34794
1.78377
2.69711
2.72124
2.68055
2.63828
2.62032
2.60364
2.56029
2.51286
2.47219
2.44132
2.41189
1.00595
1.01306
1.0211
1.02841
1.03524
1.04103
1.04639
1.05123
1.05735
1.07077
1.0949
1.15372
1.32409
1.68916
2.59716
2.70762
2.65869
2.64768
2.61798
2.60071
2.56304
2.5143
2.46857
2.43134
2.4133
1.00599
1.01302
1.02115
1.02834
1.03531
1.04094
1.04645
1.05104
1.05682
1.06771
1.09057
1.13818
1.29307
1.5982
2.46748
2.67662
2.66884
2.64731
2.6188
2.59867
2.56578
2.52014
2.4744
2.43269
2.41478
1.00579
1.01322
1.02095
1.02855
1.0351
1.04115
1.04622
1.05118
1.05609
1.06564
1.08479
1.126
1.25503
1.50705
2.28789
2.62207
2.67268
2.65288
2.61809
2.59973
2.57575
2.53364
2.48736
2.44127
2.41928
1.00608
1.01294
1.02124
1.02827
1.03539
1.04086
1.0465
1.05074
1.05585
1.06233
1.08148
1.11578
1.20358
1.43545
2.10936
2.55994
2.65706
2.64668
2.61987
2.59872
2.58109
2.55021
2.50923
2.45881
2.4298
1.00573
1.01327
1.02091
1.02858
1.03509
1.04113
1.04621
1.05091
1.05528
1.0611
1.07558
1.10453
1.17114
1.35541
1.89051
2.49592
2.63611
2.62678
2.61733
2.59945
2.58451
2.56228
2.5396
2.49413
2.45193
1.00558
1.01348
1.02068
1.02886
1.03477
1.04151
1.04579
1.05136
1.05449
1.06076
1.06998
1.09812
1.15385
1.287
1.67784
2.49022
2.61403
2.61581
2.61172
2.60004
2.59122
2.57185
2.55762
2.52716
2.48642
1.00678
1.01223
1.02194
1.02756
1.03609
1.04017
1.04714
1.04995
1.05575
1.05862
1.06815
1.08682
1.13947
1.22819
1.57229
2.41827
2.569
2.62068
2.61503
2.60481
2.60145
2.59102
2.57675
2.55663
2.52024
1.0059
1.01314
1.02103
1.02848
1.03517
1.04108
1.04625
1.05078
1.05488
1.05904
1.06632
1.08287
1.11505
1.22009
1.41943
2.12699
2.54026
2.62022
2.62166
2.61355
2.60841
2.60169
2.58858
2.57529
2.55175
1.00612
1.0129
1.02127
1.02823
1.03543
1.04082
1.0465
1.0505
1.05507