/*--------------------------------*- C++ -*----------------------------------*\
  =========                 |
  \\      /  F ield         | OpenFOAM: The Open Source CFD Toolbox
   \\    /   O peration     | Website:  https://openfoam.org
    \\  /    A nd           | Version:  6
     \\/     M anipulation  |
\*---------------------------------------------------------------------------*/
FoamFile
{
    version     2.0;
    format      ascii;
    class       volVectorField;
    location    "8";
    object      U;
}
// * * * * * * * * * * * * * * * * * * * * * * * * * * * * * * * * * * * * * //

dimensions      [0 1 -1 0 0 0 0];

internalField   nonuniform List<vector> 
26250
(
(3.0156 -2.724e-07 -0.0579165)
(3.02581 1.13274e-06 -0.0598403)
(3.03423 -1.09651e-06 -0.0610622)
(3.04147 2.85575e-06 -0.0623457)
(3.04751 -2.07407e-06 -0.0631047)
(3.05277 3.4605e-06 -0.0640648)
(3.05652 3.29216e-06 -0.0646438)
(3.0574 2.53208e-05 -0.0656829)
(3.05216 6.20333e-05 -0.066671)
(3.043 0.000162901 -0.069992)
(2.99782 0.000329885 -0.075716)
(2.88393 0.0008164 -0.0946459)
(2.55169 0.0017166 -0.138336)
(1.54333 0.00445539 -0.22708)
(0.757206 0.0104873 -0.285287)
(0.840406 0.015147 -0.26959)
(0.944247 0.0183497 -0.260706)
(0.984956 0.0178647 -0.261736)
(0.955007 0.0181211 -0.260642)
(0.890324 0.0220867 -0.263095)
(0.853152 0.0207817 -0.263508)
(0.783373 0.0133697 -0.265523)
(0.659165 0.00892934 -0.267622)
(0.45296 0.00844253 -0.269354)
(0.272893 0.0021256 -0.264912)
(3.0156 -1.89514e-07 -0.0579178)
(3.02581 4.266e-06 -0.0598389)
(3.03423 -3.56808e-06 -0.0610629)
(3.04147 9.98179e-06 -0.0623456)
(3.04751 -9.02861e-06 -0.0631029)
(3.05277 1.42281e-05 -0.0640672)
(3.05654 2.8294e-06 -0.0646375)
(3.05745 8.24257e-05 -0.0656796)
(3.05227 0.000204403 -0.0666589)
(3.04323 0.000572252 -0.0699689)
(2.99832 0.00115777 -0.0756568)
(2.88507 0.00291613 -0.0945278)
(2.55392 0.00623233 -0.137972)
(1.54505 0.0164929 -0.226892)
(0.751353 0.0393763 -0.285513)
(0.835333 0.0521967 -0.268996)
(0.93921 0.0576359 -0.260329)
(0.979869 0.0536927 -0.260357)
(0.954035 0.0494974 -0.259877)
(0.915644 0.0485631 -0.259942)
(0.868247 0.0449502 -0.261984)
(0.795384 0.0344783 -0.263513)
(0.680101 0.0284614 -0.265486)
(0.481716 0.0289651 -0.267667)
(0.310562 0.0217332 -0.26308)
(3.0156 5.27698e-06 -0.057921)
(3.0258 6.20981e-06 -0.0598356)
(3.03423 -8.17151e-06 -0.0610646)
(3.04146 1.73892e-05 -0.062345)
(3.04751 -2.87405e-05 -0.0630999)
(3.05278 3.82628e-05 -0.0640706)
(3.05658 -2.02474e-05 -0.0646278)
(3.05757 0.000182362 -0.0656665)
(3.05256 0.000446069 -0.0666304)
(3.04379 0.00140107 -0.0699097)
(2.99961 0.00269253 -0.0755145)
(2.88809 0.00592114 -0.0942354)
(2.56077 0.0118722 -0.136945)
(1.55752 0.033095 -0.225924)
(0.759761 0.0772721 -0.284666)
(0.835916 0.0968758 -0.267966)
(0.934749 0.0973962 -0.259409)
(0.972923 0.0859691 -0.258696)
(0.950028 0.0731224 -0.258644)
(0.915242 0.0644532 -0.259023)
(0.864579 0.0612519 -0.261349)
(0.790555 0.0601658 -0.262377)
(0.67753 0.0596926 -0.264109)
(0.478381 0.0620588 -0.26611)
(0.301741 0.0585865 -0.261541)
(3.0156 3.28142e-05 -0.0579288)
(3.02579 -5.72766e-06 -0.0598273)
(3.03424 -2.51717e-06 -0.0610706)
(3.04145 8.93468e-06 -0.0623402)
(3.04753 -4.43478e-05 -0.0630978)
(3.05278 6.18763e-05 -0.0640783)
(3.05666 -6.39288e-05 -0.0646035)
(3.05784 0.000396745 -0.0656455)
(3.05326 0.000702218 -0.0665977)
(3.04509 0.00607773 -0.0698336)
(3.00175 -0.000974383 -0.0751579)
(2.89315 0.027695 -0.0937237)
(2.57075 0.00306227 -0.135439)
(1.59726 0.0634206 -0.222876)
(0.772875 0.133839 -0.283725)
(0.838221 0.159677 -0.266785)
(0.927678 0.143747 -0.257806)
(0.964517 0.120438 -0.256862)
(0.945418 0.101884 -0.257008)
(0.90463 0.0931956 -0.259852)
(0.862456 0.0921072 -0.260664)
(0.789654 0.0981002 -0.261456)
(0.674388 0.102354 -0.262502)
(0.470582 0.106669 -0.264279)
(0.286506 0.102835 -0.26044)
(3.0156 5.77301e-06 -0.0579944)
(3.02577 8.03259e-06 -0.059747)
(3.03424 -1.30413e-05 -0.0611509)
(3.04143 2.4797e-05 -0.0622459)
(3.04755 -4.53045e-05 -0.0631917)
(3.05276 7.01863e-05 -0.0639779)
(3.05685 -7.44315e-05 -0.0646786)
(3.0582 0.000350464 -0.0655181)
(3.05722 0.000867298 -0.0665456)
(3.04241 0.0021995 -0.0697868)
(3.01552 0.00431984 -0.0739593)
(2.89314 0.0109395 -0.0936985)
(2.56157 0.02681 -0.130134)
(1.65727 0.0723371 -0.226715)
(0.865329 0.175337 -0.284051)
(0.889899 0.205399 -0.263522)
(0.954254 0.183918 -0.25265)
(0.991249 0.151204 -0.251297)
(0.97562 0.130702 -0.251364)
(0.945864 0.122758 -0.253811)
(0.900214 0.125682 -0.255374)
(0.821221 0.136835 -0.25658)
(0.697869 0.146763 -0.257766)
(0.484821 0.156261 -0.259883)
(0.288732 0.15385 -0.256674)
(3.01561 -3.95708e-06 -0.057947)
(3.02578 1.06958e-05 -0.0598056)
(3.03425 -1.76094e-05 -0.0610872)
(3.04143 3.33774e-05 -0.0623234)
(3.04756 -5.01659e-05 -0.0631037)
(3.05275 8.82671e-05 -0.0640811)
(3.05688 -9.71663e-05 -0.0645509)
(3.05861 0.000413315 -0.0656171)
(3.05478 0.000986955 -0.066463)
(3.04791 0.0017047 -0.0695287)
(3.00869 0.0049091 -0.0740783)
(2.91141 0.0113179 -0.0917967)
(2.61346 0.0319451 -0.128953)
(1.71521 0.093594 -0.213533)
(0.860042 0.237635 -0.283091)
(0.86904 0.255699 -0.26472)
(0.928048 0.218307 -0.251856)
(0.977586 0.173024 -0.248953)
(0.980804 0.152033 -0.249835)
(0.963475 0.148201 -0.251789)
(0.92276 0.158565 -0.253103)
(0.844723 0.177492 -0.253655)
(0.718505 0.196378 -0.253773)
(0.499257 0.214352 -0.255406)
(0.293712 0.21657 -0.252214)
(3.0156 -5.10692e-06 -0.0580049)
(3.02576 4.71915e-06 -0.0597327)
(3.03426 -1.28895e-05 -0.0611615)
(3.0414 2.30421e-05 -0.0622399)
(3.0476 -3.31321e-05 -0.0631847)
(3.05272 6.47987e-05 -0.0639972)
(3.05711 -5.60429e-05 -0.0646142)
(3.05909 0.000303458 -0.065505)
(3.05828 0.000746024 -0.0663818)
(3.04565 0.00218903 -0.0692524)
(3.02337 0.00470241 -0.0727808)
(2.91573 0.0148428 -0.090749)
(2.62868 0.0437013 -0.122978)
(1.79884 0.11901 -0.213483)
(0.94884 0.310044 -0.28188)
(0.899863 0.302921 -0.26207)
(0.937817 0.245375 -0.246392)
(0.998444 0.18868 -0.241928)
(1.01568 0.172725 -0.244518)
(1.00171 0.176157 -0.247078)
(0.959322 0.194964 -0.249327)
(0.878348 0.22194 -0.250085)
(0.74742 0.252147 -0.249332)
(0.519873 0.283392 -0.250137)
(0.303049 0.297239 -0.246667)
(3.01561 -2.6334e-05 -0.0579611)
(3.02577 1.23776e-05 -0.0597833)
(3.03427 -1.48786e-05 -0.0611094)
(3.04141 2.3471e-05 -0.0622974)
(3.04759 -1.53056e-05 -0.0631262)
(3.05274 3.77282e-05 -0.0640604)
(3.05708 -1.41379e-05 -0.0645493)
(3.05927 0.000107783 -0.0655497)
(3.05634 0.000564183 -0.0662929)
(3.05116 -0.00123548 -0.0688824)
(3.01918 0.00938522 -0.072696)
(2.94281 0.00108227 -0.087899)
(2.69643 0.0658943 -0.117864)
(1.91032 0.13599 -0.196041)
(0.999456 0.399291 -0.279623)
(0.896795 0.33807 -0.261554)
(0.93532 0.255367 -0.242979)
(1.01617 0.195896 -0.237062)
(1.05312 0.191882 -0.24061)
(1.04058 0.208625 -0.243035)
(0.996224 0.23695 -0.245525)
(0.914902 0.271282 -0.245944)
(0.783579 0.313914 -0.244528)
(0.550909 0.365077 -0.24402)
(0.322674 0.406248 -0.23939)
(3.01561 3.02024e-06 -0.0579646)
(3.02577 -1.21664e-06 -0.0597774)
(3.03427 -4.92153e-06 -0.0611167)
(3.0414 6.46207e-06 -0.0622874)
(3.04761 -2.10284e-05 -0.063138)
(3.05272 4.10165e-05 -0.0640455)
(3.05717 -5.1702e-05 -0.0645582)
(3.05957 0.000284439 -0.0655176)
(3.05717 0.000692539 -0.0661937)
(3.05295 0.0026469 -0.0684637)
(3.0259 0.00585901 -0.0720066)
(2.96358 0.0195202 -0.0850725)
(2.7552 0.0567315 -0.111206)
(2.06479 0.159872 -0.181384)
(1.10833 0.485912 -0.278199)
(0.908404 0.353434 -0.257771)
(0.950359 0.256512 -0.239616)
(1.04654 0.214671 -0.23184)
(1.09548 0.223556 -0.236544)
(1.07893 0.251242 -0.239584)
(1.03101 0.28545 -0.24164)
(0.953896 0.325392 -0.241293)
(0.831579 0.381145 -0.238715)
(0.604646 0.460517 -0.236873)
(0.36625 0.560008 -0.22944)
(3.01561 1.49227e-05 -0.0579758)
(3.02577 -8.1492e-06 -0.0597636)
(3.03427 3.9881e-06 -0.0611302)
(3.0414 -1.10737e-05 -0.0622719)
(3.04762 -1.67348e-06 -0.0631544)
(3.05271 -6.92455e-06 -0.064025)
(3.05728 9.69594e-06 -0.0645748)
(3.05989 7.57892e-05 -0.0654733)
(3.05829 0.000524262 -0.066086)
(3.05545 0.00332952 -0.0680918)
(3.03287 0.00165382 -0.0710008)
(2.98707 0.0251351 -0.0823297)
(2.81247 0.0334408 -0.104304)
(2.28302 0.160578 -0.167663)
(1.2792 0.478433 -0.276043)
(0.916085 0.335911 -0.250351)
(0.964022 0.272356 -0.235234)
(1.07121 0.257418 -0.227783)
(1.12717 0.27145 -0.233075)
(1.11019 0.301367 -0.236387)
(1.06477 0.33647 -0.237658)
(0.999173 0.38048 -0.236398)
(0.898729 0.453985 -0.232377)
(0.704753 0.576752 -0.227135)
(0.457146 0.808281 -0.214724)
(2.98854 -1.24009e-06 -0.00142399)
(2.98292 -5.65788e-08 -0.00329349)
(2.97951 1.08539e-07 -0.00493487)
(2.9774 4.67555e-07 -0.00642874)
(2.97592 1.04963e-06 -0.00772101)
(2.97494 2.19106e-06 -0.00882968)
(2.97343 5.99663e-06 -0.00984181)
(2.96999 2.35379e-05 -0.010615)
(2.95875 6.20025e-05 -0.0114343)
(2.93648 0.000172969 -0.0129543)
(2.86218 0.0004173 -0.0157986)
(2.6708 0.00108042 -0.0228512)
(2.12144 0.00243218 -0.0403922)
(0.58327 0.00669067 -0.0662423)
(-0.240329 0.0146591 -0.0707274)
(0.0391066 0.0241582 -0.0610133)
(0.275556 0.0236644 -0.0581237)
(0.354584 0.0254087 -0.0591743)
(0.360295 0.0369439 -0.0608526)
(0.257226 0.0645029 -0.060137)
(0.276227 0.0613101 -0.0626958)
(0.190421 0.0479044 -0.0634145)
(0.0303941 0.0442798 -0.0634388)
(-0.00394901 0.0364546 -0.0613269)
(0.15253 0.014341 -0.0564614)
(2.98854 -3.20828e-06 -0.00142397)
(2.98292 7.78437e-07 -0.00329391)
(2.97951 3.57401e-07 -0.00493393)
(2.9774 1.98525e-06 -0.00643019)
(2.97592 3.08111e-06 -0.0077193)
(2.97495 6.29969e-06 -0.00883127)
(2.97345 1.98582e-05 -0.00984114)
(2.97004 8.2377e-05 -0.0106193)
(2.95887 0.000217376 -0.011436)
(2.93677 0.000609826 -0.0129414)
(2.86287 0.00146751 -0.0157854)
(2.67247 0.00377331 -0.0227746)
(2.12445 0.00883366 -0.0402162)
(0.583188 0.0262521 -0.0661324)
(-0.249761 0.0599132 -0.0708119)
(0.0306471 0.0748978 -0.0603055)
(0.267877 0.0663077 -0.0578189)
(0.356377 0.0654247 -0.058799)
(0.38097 0.0782042 -0.0605045)
(0.339091 0.112247 -0.0611333)
(0.294002 0.106161 -0.0621719)
(0.204886 0.096859 -0.0620667)
(0.0655356 0.0976445 -0.0621596)
(-0.00358325 0.0983749 -0.0606215)
(0.17883 0.0613384 -0.0558809)
(2.98854 -3.99028e-06 -0.00142437)
(2.98292 3.01643e-06 -0.00329436)
(2.97951 -3.56739e-07 -0.00493265)
(2.9774 3.27868e-06 -0.00643227)
(2.97592 3.35573e-06 -0.00771639)
(2.97495 6.1103e-06 -0.00883388)
(2.9735 3.52215e-05 -0.00983908)
(2.97015 0.000155227 -0.0106267)
(2.95918 0.000419711 -0.0114342)
(2.93752 0.00118264 -0.0129352)
(2.86462 0.00287695 -0.0157485)
(2.67692 0.00732595 -0.022692)
(2.13583 0.0177751 -0.0400575)
(0.604722 0.0541988 -0.0661449)
(-0.225385 0.117169 -0.0711056)
(0.0310011 0.126431 -0.0593887)
(0.260586 0.102802 -0.0573319)
(0.356414 0.0977492 -0.058375)
(0.387669 0.106373 -0.060226)
(0.361369 0.112949 -0.0614919)
(0.307024 0.135233 -0.0617972)
(0.214266 0.152725 -0.0609564)
(0.0832128 0.166054 -0.0606986)
(-0.00525899 0.173065 -0.0592855)
(0.16882 0.126062 -0.0546238)
(2.98854 1.97057e-06 -0.00142611)
(2.98292 5.22953e-06 -0.00329347)
(2.97951 2.19159e-06 -0.00493067)
(2.9774 3.72179e-06 -0.00643619)
(2.97592 7.30123e-06 -0.00770893)
(2.97497 -3.99481e-06 -0.00884322)
(2.97358 6.80191e-05 -0.00983121)
(2.97035 0.000198385 -0.0106457)
(2.95971 0.000981852 -0.0114296)
(2.93881 0.00184242 -0.0129441)
(2.8676 0.00627093 -0.0157511)
(2.68479 0.0119822 -0.0224252)
(2.15739 0.0296406 -0.0394436)
(0.640391 0.093278 -0.0659551)
(-0.201291 0.183903 -0.0715205)
(0.0165319 0.174351 -0.0583061)
(0.244762 0.131223 -0.0565319)
(0.352615 0.12571 -0.057783)
(0.377134 0.142009 -0.0597152)
(0.297362 0.174067 -0.0603375)
(0.290623 0.195673 -0.0613473)
(0.209855 0.22255 -0.0601599)
(0.0923656 0.243027 -0.0593467)
(-0.00567303 0.251388 -0.0576874)
(0.15162 0.196702 -0.0530615)
(2.98854 -9.40913e-06 -0.00143295)
(2.98292 9.05072e-06 -0.00328522)
(2.97951 -9.02852e-06 -0.00493359)
(2.9774 1.35901e-05 -0.00643535)
(2.97592 -6.78753e-06 -0.0077037)
(2.975 1.12192e-05 -0.00885432)
(2.97367 5.52184e-05 -0.00981772)
(2.97091 0.000261876 -0.0106876)
(2.96054 0.000751885 -0.0114244)
(2.94169 0.00227004 -0.013486)
(2.87296 0.00579467 -0.0145797)
(2.69529 0.0156122 -0.024649)
(2.19227 0.0396526 -0.0350676)
(0.728849 0.120185 -0.0670624)
(-0.14612 0.255863 -0.0725382)
(-0.00226007 0.221111 -0.057482)
(0.230958 0.15607 -0.0553722)
(0.361525 0.153669 -0.0569194)
(0.393544 0.184196 -0.0589429)
(0.345477 0.227901 -0.0604724)
(0.304523 0.25648 -0.0606063)
(0.22358 0.291302 -0.0591557)
(0.111811 0.319145 -0.0578038)
(0.00285672 0.330575 -0.0558049)
(0.138295 0.272276 -0.0511268)
(2.98854 -1.36573e-05 -0.00142971)
(2.98292 1.12802e-05 -0.00329104)
(2.97952 -1.65018e-05 -0.00492872)
(2.9774 2.33211e-05 -0.00644205)
(2.97592 -2.52333e-05 -0.0076944)
(2.97502 4.12374e-05 -0.00886723)
(2.97379 3.41208e-06 -0.00979883)
(2.97093 0.00028232 -0.0107096)
(2.96136 0.000854232 -0.0114546)
(2.94304 0.00272054 -0.0128561)
(2.87803 0.00714043 -0.0156072)
(2.71392 0.0198274 -0.0215502)
(2.23687 0.0520586 -0.0372431)
(0.790679 0.156745 -0.0645645)
(-0.0923043 0.336991 -0.0729075)
(-0.0362043 0.256364 -0.0567584)
(0.209639 0.170526 -0.0547687)
(0.373742 0.176449 -0.0561917)
(0.414796 0.223828 -0.0582939)
(0.366884 0.285278 -0.0599596)
(0.322097 0.31992 -0.0597995)
(0.245286 0.360137 -0.0579825)
(0.14 0.396219 -0.0561271)
(0.0207355 0.414447 -0.0536336)
(0.12795 0.359357 -0.0488126)
(2.98855 -1.44825e-05 -0.00143488)
(2.98292 8.73004e-06 -0.00328442)
(2.97952 -1.61063e-05 -0.00493166)
(2.97739 2.11065e-05 -0.00644118)
(2.97593 -2.51794e-05 -0.00768993)
(2.97502 4.49228e-05 -0.00888036)
(2.97388 -2.56609e-05 -0.00977457)
(2.97161 0.000224079 -0.0107683)
(2.96254 0.000823804 -0.0114241)
(2.94705 0.00307734 -0.0132792)
(2.88653 0.00797323 -0.0143294)
(2.73531 0.0241037 -0.0235546)
(2.2983 0.0639655 -0.0318342)
(0.933433 0.190051 -0.0641836)
(-0.00784782 0.429841 -0.0731489)
(-0.0741742 0.288114 -0.0566498)
(0.194852 0.178383 -0.0536876)
(0.400158 0.197458 -0.0552227)
(0.450426 0.262405 -0.0574903)
(0.405692 0.335387 -0.059226)
(0.348653 0.382689 -0.0589346)
(0.276013 0.430727 -0.0567726)
(0.17823 0.476915 -0.0543063)
(0.0496993 0.506322 -0.0511894)
(0.123135 0.464383 -0.0459906)
(2.98855 -2.04054e-05 -0.00143163)
(2.98292 6.74512e-06 -0.00328901)
(2.97952 -1.80136e-05 -0.00492919)
(2.97739 1.90542e-05 -0.00644398)
(2.97594 -2.42249e-05 -0.00768757)
(2.97502 4.46676e-05 -0.00888207)
(2.97395 -3.85376e-05 -0.00977088)
(2.97164 0.00020398 -0.0107593)
(2.96372 0.000439928 -0.0113878)
(2.94908 0.00327949 -0.0126554)
(2.89476 0.00633534 -0.0148757)
(2.76382 0.0267086 -0.0204956)
(2.36833 0.0693982 -0.0328442)
(1.07494 0.218308 -0.059965)
(0.10072 0.522638 -0.0727556)
(-0.106221 0.308496 -0.056886)
(0.187902 0.18901 -0.0528526)
(0.441063 0.224132 -0.053806)
(0.495931 0.303616 -0.0566307)
(0.446951 0.384133 -0.0579938)
(0.384383 0.445763 -0.0577552)
(0.315976 0.503582 -0.0555342)
(0.227304 0.562488 -0.0524368)
(0.0935917 0.609442 -0.0486638)
(0.128574 0.595575 -0.0427733)
(2.98855 -6.96318e-06 -0.00143223)
(2.98292 7.34767e-06 -0.00328808)
(2.97953 -1.25221e-05 -0.00492996)
(2.97739 1.81831e-05 -0.00644399)
(2.97595 -2.68696e-05 -0.00768594)
(2.97501 4.47351e-05 -0.0088873)
(2.97401 -3.86094e-05 -0.00975906)
(2.97201 0.000205534 -0.0107803)
(2.9651 0.000885402 -0.011356)
(2.95222 0.00350664 -0.0125181)
(2.90491 0.00854118 -0.0144446)
(2.79322 0.0285668 -0.0196959)
(2.4503 0.0738016 -0.0301265)
(1.2975 0.243014 -0.0562265)
(0.241936 0.602473 -0.0725999)
(-0.105369 0.322326 -0.0566486)
(0.206959 0.218184 -0.0520267)
(0.493985 0.264864 -0.0520198)
(0.54748 0.350981 -0.0554866)
(0.491408 0.435596 -0.056742)
(0.427372 0.509441 -0.0564176)
(0.365365 0.577327 -0.0540545)
(0.29025 0.65173 -0.0505477)
(0.160409 0.726762 -0.0459009)
(0.15133 0.765954 -0.039089)
(2.98855 4.84307e-06 -0.00143423)
(2.98291 8.35232e-06 -0.00328476)
(2.97953 -1.05728e-05 -0.00493224)
(2.97738 2.13456e-05 -0.0064414)
(2.97596 -3.87018e-05 -0.0076871)
(2.975 6.06394e-05 -0.00888912)
(2.97408 -0.000102829 -0.00975041)
(2.9724 0.000232839 -0.0108018)
(2.96647 0.000279026 -0.0113152)
(2.95554 0.00436965 -0.0124521)
(2.91516 0.00381049 -0.0141616)
(2.82288 0.0353773 -0.0189173)
(2.5375 0.0541693 -0.0283727)
(1.5846 0.243583 -0.0507501)
(0.416451 0.6151 -0.074499)
(-0.0775697 0.33862 -0.0559791)
(0.240905 0.272322 -0.0507664)
(0.546373 0.323005 -0.0500515)
(0.597261 0.405805 -0.0539609)
(0.537531 0.489131 -0.0554629)
(0.475828 0.571357 -0.0549512)
(0.424254 0.648417 -0.0525431)
(0.371649 0.740937 -0.0485289)
(0.26565 0.857722 -0.043419)
(0.204824 1.02786 -0.035497)
(2.99509 -6.86026e-07 3.38079e-08)
(2.98905 -3.85286e-07 5.9653e-07)
(2.98253 1.48594e-06 -1.72999e-07)
(2.97636 -1.68883e-06 8.22379e-07)
(2.97074 3.90435e-06 -8.44999e-07)
(2.96573 -3.26997e-06 1.8962e-06)
(2.96083 6.31627e-06 2.57654e-06)
(2.95441 4.16432e-06 6.80354e-06)
(2.93911 2.66603e-05 1.38691e-05)
(2.91117 0.000187652 2.29123e-05)
(2.8234 0.000416596 4.93061e-05)
(2.59822 0.00147462 5.94247e-06)
(1.95081 0.0034029 -3.38743e-05)
(0.230668 0.00927655 -0.000361429)
(-0.570475 0.0151886 -0.000653157)
(-0.450619 0.0264745 -0.000197983)
(-0.0485096 0.0254092 6.746e-06)
(0.168715 0.0315898 0.000102138)
(0.248925 0.0352637 0.000454384)
(0.127301 0.035573 0.00113973)
(-0.201139 0.0599323 -0.000113258)
(-0.16515 0.0662721 -0.000384151)
(-0.171103 0.0669472 -0.000304808)
(-0.102683 0.0681831 -0.000338674)
(0.0764852 0.0565507 -0.00049175)
(2.99509 -2.90806e-06 2.17392e-06)
(2.98905 -5.92258e-07 -1.89515e-06)
(2.98252 1.25257e-06 1.8845e-06)
(2.97636 -2.0922e-06 -2.01698e-06)
(2.97074 6.1269e-06 1.76764e-06)
(2.96573 -3.06532e-06 -1.94094e-06)
(2.96084 1.28169e-05 7.25625e-06)
(2.95443 2.90373e-05 8.19085e-06)
(2.93926 0.000140998 7.04839e-05)
(2.9115 0.000573387 -3.68121e-06)
(2.82432 0.00139165 0.000353121)
(2.6007 0.00429747 -0.000196332)
(1.95676 0.00962166 0.000128194)
(0.227571 0.0299119 0.000291907)
(-0.579585 0.0615333 -0.000334464)
(-0.489288 0.0728403 -0.000297303)
(-0.0522253 0.0685139 -0.000141798)
(0.174052 0.0788959 -6.08473e-05)
(0.242134 0.0838012 -0.00023783)
(0.0947015 0.0823629 -0.000814088)
(-0.233983 0.118971 0.000167785)
(-0.181641 0.136809 0.000294854)
(-0.18648 0.14503 -7.04517e-05)
(-0.117345 0.15122 -0.000243275)
(0.0789341 0.13249 -0.000341342)
(2.99509 -5.7589e-06 4.52834e-07)
(2.98906 8.82229e-07 3.42379e-07)
(2.98252 2.90063e-08 -1.22685e-07)
(2.97636 -1.76785e-06 2.11808e-07)
(2.97074 8.25471e-06 -3.46509e-07)
(2.96574 -6.04556e-06 7.33996e-07)
(2.96086 2.26622e-05 2.71233e-06)
(2.95452 4.83061e-05 8.15139e-06)
(2.93956 0.000252501 1.8242e-05)
(2.91223 0.00108668 3.29831e-05)
(2.82628 0.00256667 7.39184e-05)
(2.60524 0.00824411 2.91983e-05)
(1.96614 0.0188185 8.74574e-05)
(0.246839 0.0600639 -5.62192e-05)
(-0.560144 0.120304 -0.000425041)
(-0.516252 0.107402 -0.000226516)
(-0.0502694 0.104985 -0.000179128)
(0.180266 0.124488 -0.000167824)
(0.232057 0.14035 -0.000382079)
(0.0876555 0.145401 -0.000899098)
(-0.238367 0.192359 0.000222921)
(-0.171796 0.216892 0.000431281)
(-0.185125 0.232707 0.000105255)
(-0.123906 0.243743 -0.000104866)
(0.0701891 0.219467 -0.000105521)
(2.99509 -8.55489e-06 1.69782e-06)
(2.98906 3.60956e-06 -1.24957e-06)
(2.98252 -1.7531e-06 1.3696e-06)
(2.97637 -5.93168e-07 -1.91255e-06)
(2.97073 9.99933e-06 2.37316e-06)
(2.96574 -1.19784e-05 -3.02192e-06)
(2.96088 3.57814e-05 5.69599e-06)
(2.95462 5.42359e-05 4.97582e-06)
(2.94012 0.000346762 7.08592e-05)
(2.91347 0.00170836 -1.32509e-05)
(2.82991 0.00391655 0.000348465)
(2.61476 0.0132719 -0.000192421)
(1.99044 0.0313507 0.000113285)
(0.277889 0.0987413 0.000383108)
(-0.538706 0.188467 -0.000415061)
(-0.556307 0.131744 -0.000235487)
(-0.0515056 0.131581 -0.0001441)
(0.188155 0.164292 -7.73066e-05)
(0.229384 0.195729 -7.04307e-07)
(0.104333 0.208616 0.000386225)
(-0.222992 0.267897 5.06425e-05)
(-0.149603 0.296934 0.000153452)
(-0.173356 0.319638 8.66268e-05)
(-0.124235 0.334258 -3.07981e-05)
(0.0617772 0.30599 4.52582e-06)
(2.99509 -1.11016e-05 -2.07463e-08)
(2.98906 5.21269e-06 5.39163e-07)
(2.98252 -7.34461e-06 -5.271e-07)
(2.97637 4.59324e-06 5.28268e-07)
(2.97073 2.27976e-06 -4.63342e-07)
(2.96576 -4.02825e-06 9.93206e-08)
(2.96091 3.49063e-05 1.5406e-06)
(2.95478 8.20269e-05 3.62426e-06)
(2.94092 0.000535782 8.02504e-06)
(2.91528 0.0022434 1.54783e-05)
(2.83527 0.00556114 3.07218e-05)
(2.62915 0.0175321 5.11392e-06)
(2.02913 0.0435163 1.15219e-05)
(0.332309 0.139645 -2.15768e-05)
(-0.508743 0.270166 -0.000516778)
(-0.618937 0.149287 -0.000183609)
(-0.0558659 0.150597 -8.72298e-05)
(0.198419 0.19967 -3.46757e-05)
(0.230276 0.249669 -4.90814e-05)
(0.139026 0.274159 -0.00022026)
(-0.194449 0.341403 -2.97e-05)
(-0.122211 0.375351 -4.00123e-06)
(-0.153624 0.405638 5.63118e-05)
(-0.119103 0.424345 2.08782e-05)
(0.0551969 0.394004 5.4948e-05)
(2.99509 -1.24e-05 1.08244e-06)
(2.98906 5.6377e-06 -1.0571e-06)
(2.98252 -1.14171e-05 7.70897e-07)
(2.97637 9.1977e-06 -7.86747e-07)
(2.97072 -5.68788e-06 6.78072e-07)
(2.96577 6.29978e-06 -8.08433e-07)
(2.96095 3.16413e-05 3.19551e-06)
(2.95504 9.68717e-05 -5.82341e-06)
(2.94192 0.000700715 8.44734e-05)
(2.91774 0.00272537 -4.92058e-05)
(2.84206 0.0074549 0.000330214)
(2.64805 0.0217511 -0.000163567)
(2.0827 0.0572314 1.30232e-05)
(0.43156 0.182584 0.000408678)
(-0.444879 0.363611 -0.000530789)
(-0.683124 0.160254 -0.000181292)
(-0.054601 0.162385 -5.79595e-05)
(0.21514 0.231157 -1.43047e-05)
(0.240089 0.302075 -1.53302e-05)
(0.175344 0.343871 6.29855e-06)
(-0.146815 0.413062 -7.30636e-05)
(-0.0882805 0.4536 -5.71064e-05)
(-0.125003 0.493677 4.77591e-05)
(-0.108018 0.519101 5.17343e-05)
(0.0509001 0.490724 7.8885e-05)
(2.99509 -1.27088e-05 -1.81766e-06)
(2.98906 5.42997e-06 1.50701e-06)
(2.98252 -1.19523e-05 -4.33847e-07)
(2.97637 1.02663e-05 4.95875e-07)
(2.97072 -8.37527e-06 6.16719e-07)
(2.96579 1.21286e-05 -4.46832e-07)
(2.96099 2.63028e-05 -2.72708e-07)
(2.95534 0.00010686 5.02156e-06)
(2.94312 0.000794904 -8.43444e-05)
(2.92102 0.00318163 5.49538e-05)
(2.85052 0.00922118 -0.000318925)
(2.67305 0.026172 0.00013742)
(2.15607 0.0710893 -0.000121592)
(0.571851 0.224078 -0.000649117)
(-0.356639 0.466379 -0.000177345)
(-0.730924 0.173303 -2.48872e-05)
(-0.0455022 0.170885 1.31631e-06)
(0.241259 0.261088 4.37544e-06)
(0.263516 0.352987 -2.72566e-07)
(0.199362 0.417162 -6.55731e-06)
(-0.0737786 0.483503 -5.01386e-05)
(-0.0482303 0.534989 -4.91676e-05)
(-0.0849862 0.585405 6.0356e-05)
(-0.0885663 0.621695 7.88657e-05)
(0.0507707 0.601948 8.95865e-05)
(2.99509 -1.21945e-05 -4.41346e-07)
(2.98906 6.33319e-06 7.46689e-08)
(2.98252 -1.11403e-05 2.96559e-07)
(2.97637 1.1337e-05 -1.95176e-07)
(2.97073 -8.36804e-06 7.82727e-07)
(2.9658 1.40113e-05 -4.09538e-07)
(2.96103 2.23135e-05 6.24237e-07)
(2.95569 0.000121744 1.00942e-07)
(2.94449 0.000820091 -9.70799e-07)
(2.92493 0.00357798 -2.701e-06)
(2.86055 0.00992605 -7.29021e-06)
(2.70333 0.0299624 -5.41802e-06)
(2.24312 0.081899 -0.000102375)
(0.767259 0.255565 -0.000158604)
(-0.248594 0.562595 -0.000180481)
(-0.743718 0.202205 -7.37673e-05)
(-0.0292941 0.185102 -1.47171e-05)
(0.279263 0.29416 -6.26497e-06)
(0.300772 0.403895 -5.3859e-06)
(0.226653 0.486168 -1.42608e-05)
(0.0047662 0.556224 -3.10047e-05)
(-0.000976757 0.617651 -2.90444e-05)
(-0.0323933 0.681791 6.86717e-05)
(-0.0573198 0.735161 0.000106316)
(0.0578151 0.735628 0.000100631)
(2.9951 -9.16206e-06 3.17612e-09)
(2.98906 9.51075e-06 -1.22793e-07)
(2.98253 -1.21225e-05 9.09269e-08)
(2.97638 1.73173e-05 -9.79098e-09)
(2.97073 -1.62034e-05 7.26805e-08)
(2.96581 2.15391e-05 2.09336e-07)
(2.96108 1.45929e-05 -1.14761e-07)
(2.95602 0.000125877 5.71927e-07)
(2.94602 0.000869358 1.62306e-06)
(2.92878 0.00376372 5.03387e-06)
(2.87189 0.00989765 7.37225e-06)
(2.73814 0.0316422 2.43452e-05)
(2.33892 0.084852 1.19651e-05)
(1.00707 0.272041 3.5874e-05)
(-0.118605 0.639261 -5.69721e-05)
(-0.718918 0.24385 -8.71392e-05)
(-0.00779664 0.219628 -9.39602e-05)
(0.329129 0.336709 -3.28478e-05)
(0.346897 0.45609 -1.54208e-05)
(0.261849 0.54942 -2.2966e-05)
(0.082774 0.630143 -2.89284e-05)
(0.0553368 0.700058 -2.36872e-05)
(0.0360861 0.780816 7.00215e-05)
(-0.00293224 0.860115 0.000129626)
(0.0748876 0.901652 0.000112512)
(2.9951 7.50863e-07 2.18459e-07)
(2.98906 1.08066e-05 -8.04188e-09)
(2.98253 -1.53937e-05 1.39733e-07)
(2.97637 3.04637e-05 4.44294e-08)
(2.97073 -4.81036e-05 -7.77876e-08)
(2.96582 7.68172e-05 1.11266e-07)
(2.96112 -8.97616e-05 -2.25887e-07)
(2.95641 0.000327597 2.89773e-07)
(2.94754 0.000658567 1.18538e-06)
(2.93261 0.00510627 4.294e-06)
(2.88328 0.00468693 8.01251e-06)
(2.7716 0.0396811 2.91237e-05)
(2.43594 0.0623108 5.37277e-05)
(1.31 0.270991 0.000141012)
(0.0400773 0.664069 0.000133544)
(-0.654363 0.300062 -0.000112931)
(0.0294664 0.2825 -0.000110729)
(0.384212 0.39324 -2.37143e-05)
(0.396591 0.510383 -2.17608e-05)
(0.304748 0.608855 -3.00514e-05)
(0.159688 0.700192 -3.14238e-05)
(0.123672 0.780372 -2.25529e-05)
(0.122916 0.879821 3.58662e-05)
(0.0885809 0.995773 0.000140838)
(0.112182 1.15412 0.000122171)
(2.98854 9.23531e-06 0.00142538)
(2.98292 -1.31e-06 0.00329378)
(2.97951 7.54489e-06 0.00493259)
(2.9774 -4.81777e-06 0.00643268)
(2.97592 7.72579e-06 0.00771546)
(2.97495 -8.28972e-06 0.00883508)
(2.97348 2.07423e-05 0.00984158)
(2.9701 3.23945e-05 0.0106349)
(2.95897 0.000398807 0.0114645)
(2.93694 0.000340772 0.0130289)
(2.86272 0.00240162 0.01591)
(2.67112 0.00174395 0.0228834)
(2.11942 0.00463846 0.0401544)
(0.565868 0.0173519 0.0656121)
(-0.277397 0.0274477 0.0688085)
(0.0132781 0.0268545 0.0600272)
(0.257899 0.0207188 0.0583066)
(0.353608 0.0167174 0.0592516)
(0.392906 0.00642389 0.061073)
(0.379921 -0.0249032 0.0616461)
(0.334239 -0.014854 0.0625715)
(0.252619 0.00431504 0.0624997)
(0.13507 0.0213961 0.0620442)
(0.0351411 0.0423346 0.0609632)
(0.152193 0.0435732 0.0562048)
(2.98854 -8.68303e-07 0.0014316)
(2.98292 1.74514e-06 0.00328537)
(2.97951 6.0412e-07 0.004937)
(2.9774 7.48081e-07 0.00642825)
(2.97592 2.14679e-06 0.00771764)
(2.97497 1.2973e-06 0.0088336)
(2.97351 1.73029e-05 0.00984572)
(2.97041 8.67445e-05 0.0106426)
(2.95923 0.000241689 0.011422)
(2.93835 0.000677185 0.0136677)
(2.86429 0.00165787 0.0147013)
(2.67136 0.00410473 0.0255195)
(2.12762 0.00993762 0.0364912)
(0.608332 0.0299279 0.0672096)
(-0.237659 0.0653393 0.0700549)
(0.0214031 0.0748947 0.059485)
(0.267259 0.0599273 0.0572191)
(0.356167 0.0525446 0.0586672)
(0.365889 0.0471545 0.0606425)
(0.248281 0.044963 0.0605922)
(0.272963 0.0593281 0.0627624)
(0.195923 0.0803435 0.0629039)
(0.0646814 0.0982836 0.0620929)
(-0.0016205 0.113015 0.0601826)
(0.157638 0.0967704 0.0550881)
(2.98854 -5.3269e-06 0.00142688)
(2.98292 3.87512e-06 0.00329325)
(2.97951 -2.38078e-06 0.00493086)
(2.9774 3.4853e-06 0.00643581)
(2.97592 2.11203e-06 0.00770892)
(2.97497 1.33609e-06 0.00884397)
(2.97355 2.82428e-05 0.00983145)
(2.97028 0.000121497 0.0106578)
(2.95945 0.000392093 0.011461)
(2.9381 0.00105993 0.0130742)
(2.86532 0.0026773 0.0159315)
(2.67774 0.00712363 0.0227733)
(2.13767 0.0172714 0.0397991)
(0.597056 0.0540931 0.0659998)
(-0.250898 0.115682 0.0697089)
(0.000297166 0.122292 0.0584067)
(0.245009 0.0976761 0.056938)
(0.345616 0.0934717 0.0581662)
(0.358375 0.106543 0.0601235)
(0.264876 0.139526 0.060368)
(0.271911 0.140526 0.0621125)
(0.184706 0.147992 0.0620577)
(0.0401707 0.170604 0.061228)
(-0.0215931 0.187429 0.0589086)
(0.138592 0.157653 0.0540643)
(2.98854 3.78861e-07 0.00143266)
(2.98292 3.68292e-06 0.00328577)
(2.97951 -6.08262e-07 0.00493441)
(2.9774 1.69032e-06 0.00643343)
(2.97592 3.06964e-06 0.00770792)
(2.97499 -6.51695e-06 0.00884617)
(2.97362 5.50083e-05 0.00983095)
(2.97071 0.000162224 0.0106655)
(2.96001 0.000876283 0.01141)
(2.9403 0.00162177 0.0135768)
(2.86909 0.00571856 0.0145888)
(2.68389 0.0111252 0.0250516)
(2.16127 0.0279592 0.0356998)
(0.665159 0.0894973 0.0673698)
(-0.201984 0.181818 0.0710946)
(0.000252607 0.171692 0.0578371)
(0.240743 0.129753 0.0559163)
(0.353281 0.127674 0.0574445)
(0.378283 0.150674 0.0594834)
(0.328438 0.185853 0.0609192)
(0.285898 0.20007 0.0613931)
(0.195036 0.21503 0.0605398)
(0.0558869 0.241561 0.0597822)
(-0.0211903 0.260415 0.0573872)
(0.134228 0.218011 0.0526089)
(2.98854 -1.22556e-05 0.0014341)
(2.98292 6.56995e-06 0.00328455)
(2.97951 -1.29431e-05 0.00493341)
(2.9774 1.29601e-05 0.00643598)
(2.97592 -1.4145e-05 0.00770164)
(2.97501 1.8165e-05 0.00885646)
(2.9737 3.51184e-05 0.00981748)
(2.97097 0.000214599 0.0106765)
(2.96068 0.00074841 0.0114119)
(2.94203 0.00208044 0.0134705)
(2.87353 0.00550415 0.0145161)
(2.69619 0.0152099 0.0245345)
(2.19536 0.0388688 0.0348534)
(0.728569 0.118554 0.0671454)
(-0.159074 0.254624 0.0719819)
(-0.0184923 0.217277 0.0570998)
(0.224427 0.154147 0.0550616)
(0.359461 0.154747 0.0567132)
(0.389288 0.188956 0.0588878)
(0.328156 0.238095 0.0601989)
(0.297047 0.261189 0.0606655)
(0.21128 0.28674 0.0592533)
(0.0835761 0.316151 0.0581303)
(-0.0126357 0.335921 0.0556648)
(0.131197 0.285275 0.0508186)
(2.98854 -2.35403e-05 0.00143416)
(2.98292 6.59371e-06 0.00328499)
(2.97951 -1.98955e-05 0.0049322)
(2.9774 1.85884e-05 0.00643907)
(2.97592 -2.15226e-05 0.00769542)
(2.97502 3.7048e-05 0.00886894)
(2.97378 -3.16912e-06 0.00979631)
(2.97131 0.000265388 0.0107232)
(2.96154 0.000371225 0.0114248)
(2.94435 0.00246451 0.0133854)
(2.8794 0.00486339 0.0144755)
(2.71328 0.0189673 0.0240735)
(2.24067 0.0496075 0.0336733)
(0.818714 0.145875 0.0660807)
(-0.0941657 0.337649 0.0725592)
(-0.0482426 0.257081 0.0565165)
(0.206421 0.171046 0.0543799)
(0.373963 0.178191 0.0559618)
(0.414263 0.227443 0.0581778)
(0.367676 0.289619 0.0599381)
(0.317865 0.323719 0.0598642)
(0.2368 0.359425 0.0580097)
(0.12002 0.394707 0.0563949)
(0.0069102 0.41775 0.0536744)
(0.126418 0.366813 0.04862)
(2.98855 -2.23478e-05 0.00143021)
(2.98292 6.10505e-06 0.00329025)
(2.97952 -1.98887e-05 0.00492945)
(2.9774 1.88206e-05 0.00644264)
(2.97593 -2.44071e-05 0.00769211)
(2.97502 4.35217e-05 0.00887369)
(2.97389 -3.2184e-05 0.00978628)
(2.97128 0.000237951 0.0107305)
(2.96247 0.000364099 0.0114194)
(2.94603 0.00287741 0.0127395)
(2.8859 0.00573679 0.0152997)