/*--------------------------------*- C++ -*----------------------------------*\
  =========                 |
  \\      /  F ield         | OpenFOAM: The Open Source CFD Toolbox
   \\    /   O peration     | Website:  https://openfoam.org
    \\  /    A nd           | Version:  6
     \\/     M anipulation  |
\*---------------------------------------------------------------------------*/
FoamFile
{
    version     2.0;
    format      ascii;
    class       volScalarField;
    location    "59";
    object      p;
}
// * * * * * * * * * * * * * * * * * * * * * * * * * * * * * * * * * * * * * //

dimensions      [0 2 -2 0 0 0 0];

internalField   nonuniform List<scalar> 
918
(
0.530271
1.24105
0.00581644
0.530178
-0.011484
1.20874
-0.502768
0.646204
0.511414
-0.127523
-0.0694335
0.512306
1.06602
0.832283
-1.17362
-0.0206714
0.62654
-0.421492
0.509431
-0.0726979
0.668823
0.518096
0.520562
0.51135
0.574173
0.786754
0.94365
-0.0041336
0.010012
0.00483687
-0.0129873
-0.0335415
-0.0293903
1.09185
1.14381
1.16701
0.477994
0.311012
-0.397699
-0.450413
-0.43162
-0.520728
0.642519
0.64065
-0.222506
0.6489
0.65219
0.497138
0.510807
0.511642
0.512774
0.511671
0.512954
0.38946
-0.136265
-0.162507
-0.110661
-0.108553
0.0333474
-0.0722777
-0.0745996
-0.0654557
-0.0648164
0.427213
0.507332
0.504007
0.516801
0.525815
1.18122
1.15491
1.18099
1.09171
1.10923
1.04289
1.01581
0.853995
0.877686
0.815725
0.801463
-1.63208
-2.58127
-0.594988
-0.3173
-0.0104254
-0.0209181
-0.0184505
0.621798
0.623938
0.625213
0.628626
1.03363
-0.393334
-0.464217
0.50995
0.508468
0.517617
0.51852
0.513478
0.513482
-0.0671508
-0.0635983
-0.0634465
-0.0715669
-0.0732904
0.661277
0.660895
0.510787
0.508234
0.534027
0.556159
0.544146
0.245841
0.581516
0.592738
0.649363
0.794957
0.782993
0.795214
0.919401
0.887053
0.974934
0.99665
0.0133211
-0.00129423
-0.0224555
-0.0212982
-0.0215817
0.473738
0.467313
0.495049
0.481612
0.484651
0.215852
0.0651025
0.393498
0.417341
-0.320332
-0.368343
-0.461382
-0.458797
-0.564949
0.594364
0.638228
0.63562
-0.235858
-0.162162
-0.289351
-0.105157
-0.161841
0.488106
0.494345
0.490427
0.505787
0.499961
0.502383
0.514882
0.512059
0.513657
0.448205
0.577646
0.306247
0.278803
-0.285051
-0.179722
-0.265019
-0.0975768
-0.0928777
0.0445467
0.0732513
0.0205753
0.00809921
-0.0844648
-0.0761164
-0.0801174
-0.065031
-0.0647118
0.418689
0.405697
0.438408
0.445905
0.494218
0.49569
0.50012
0.498088
0.966866
0.990115
0.99593
0.972063
-3.56132
-6.1984
0.0283552
0.188311
-0.00922364
-0.0102093
0.000356148
-0.00966976
-0.00028302
-0.00264318
-0.0256793
-0.0260985
-0.020681
-0.02121
0.619633
0.621222
0.999201
1.02546
0.973735
0.948056
0.499271
0.501167
0.5058
0.50268
-0.0647229
-0.063907
-0.065773
0.653826
0.65911
0.657166
0.204853
0.116481
0.29703
0.328082
0.614672
0.598861
0.611503
0.709944
0.748757
1.01327
1.0375
1.02138
1.03416
1.08505
1.10798
1.07335
0.452351
0.463249
0.457536
0.498123
0.495829
0.496828
0.493084
0.494118
0.492683
-0.0466208
-0.419292
0.468658
0.469647
0.459923
0.463958
0.68045
0.763389
0.62755
0.632144
0.631637
-0.0547551
-0.101915
0.238079
0.209733
0.358038
0.392484
0.374385
0.942449
0.9025
0.950707
0.9261
0.890257
0.915112
-0.355785
-2.12144
-1.1154
0.590417
0.393023
0.485132
-0.00823167
-0.0248917
-0.0212611
1.01866
1.05853
0.646831
0.838936
0.791749
0.771701
0.798039
0.861801
0.793277
0.828457
0.859935
0.83514
0.545645
0.478374
0.495215
0.838899
0.894536
0.0795676
0.00197944
-0.0214849
0.0974335
0.167461
0.135799
1.03318
0.948206
1.01168
0.508473
0.509418
-0.017835
-0.0411474
0.513528
0.513241
-0.0208575
-0.0111755
0.501565
-0.942824
0.082765
0.503021
0.492726
0.509527
-0.108875
0.321625
-0.0728141
0.0172265
-0.0181626
0.505851
0.439451
0.397254
-0.00470779
-0.0286928
-0.0643232
-0.219678
0.506212
0.504573
0.508911
0.509731
0.510504
-0.0253807
-0.0258197
-0.017778
-0.0593715
-0.0563805
-0.0642826
0.472864
0.493044
-0.197335
0.5092
0.511299
0.511002
0.505173
0.510132
0.508746
-0.0207115
-0.0251756
-0.0269967
0.185374
0.32459
0.685522
0.761208
0.634237
0.466915
0.171748
0.621753
0.674146
0.599192
0.729856
0.633894
0.644082
0.149724
0.00754287
0.15393
0.0867129
0.499873
0.499283
0.490263
0.487136
0.50434
0.502011
0.507216
0.504422
0.5076
0.50876
-0.0634436
-0.0893143
-0.108625
-0.151596
0.293164
0.546914
0.215275
0.242214
0.148132
-0.0642394
-0.0627252
-0.0707492
-0.0740958
-0.0311742
-0.0353845
0.0111068
0.0182941
0.00122692
-0.0253686
-0.0376803
-0.0347066
-0.0416198
0.499096
0.498459
0.50329
0.51136
0.449028
0.45275
0.419146
0.437851
0.424071
0.364148
0.393968
0.371183
-0.015717
-0.00517007
-0.00825403
-0.0283127
-0.0272811
-0.0487953
-0.0415806
-0.0396083
-0.0360193
-0.0408774
-0.05919
-0.0625426
-0.183988
-0.303348
0.950153
0.891407
0.127361
0.496124
0.50178
0.498954
0.503653
0.506856
0.507494
0.50507
0.501562
0.493118
0.494495
0.491427
0.492501
-0.137505
-0.24569
-0.0760888
-0.150608
0.138514
0.606003
0.332124
0.277554
0.262755
0.48843
0.692942
0.607542
0.667576
0.654023
-0.39995
0.0048938
-0.331586
0.215574
0.207673
0.712103
0.753508
0.770105
0.727731
0.684094
-0.0355852
0.539907
-0.0766888
-0.0268161
0.162993
0.0487936
0.642733
0.616729
0.622509
0.638448
0.648669
0.630421
0.615124
0.609054
0.633698
0.637233
0.487299
0.214009
0.17198
0.125794
0.612508
0.511533
0.562792
0.479958
0.495484
0.497908
0.496842
0.477654
0.485021
0.480682
0.48787
0.491535
0.498842
0.499048
0.494923
0.496814
-0.0796455
-0.0856934
-0.0681796
-0.133657
-0.137804
-0.18367
-0.0877451
0.0797783
0.0262906
0.221465
0.327747
0.0610252
-0.0588616
-0.0395216
0.00807556
0.170736
0.168342
0.0491005
0.155709
0.113577
0.107657
0.192626
0.215937
-0.0465205
-0.0522307
-0.053414
-0.0578067
-0.00683203
0.0987134
0.0799833
-0.0229042
-0.0303099
-0.0602557
-0.061864
-0.0173857
-0.0411874
-0.0349218
-0.00940367
-0.0566198
-0.0306064
-0.0202942
-0.0235614
-0.0258161
-0.0247065
0.492515
0.494688
0.494669
0.501688
0.514084
0.528076
0.496648
0.470261
0.461271
0.464381
0.43744
0.446682
0.44192
0.457673
0.479045
0.488383
0.485866
0.488627
0.470456
0.472241
0.457652
0.462235
0.431485
0.412918
0.402804
-0.0532452
-0.0197547
-0.0332608
-0.0466383
-0.0206962
-0.0305177
-0.0271333
-0.00899506
-0.0274097
-0.0238645
-0.0335248
-0.0390737
-0.0397171
-0.0867355
-0.00443754
-0.185347
-0.235368
-0.287679
0.868846
1.00624
0.791835
0.552286
0.5722
0.819273
0.916847
0.531091
0.743553
0.753901
0.563757
0.851158
0.500023
0.499636
0.49752
0.496702
0.497666
-0.02682
0.0768646
0.0901147
0.148
0.263179
0.36909
0.299321
0.186353
0.319211
0.34382
0.604183
0.610085
0.564874
0.586688
0.585786
0.399424
0.479928
0.51824
0.474683
0.548183
0.581951
0.528177
0.5714
0.491026
0.441342
0.433025
0.388673
0.422731
0.403924
0.378377
0.490925
0.468241
0.478809
0.468757
0.489746
0.515931
0.517131
0.537569
0.5558
0.470733
0.417159
0.434132
0.462647
0.41845
0.435418
0.457385
0.172763
0.0758976
0.238877
-0.0896771
-0.0026801
0.0359643
-0.00638085
-0.0491379
0.2578
-0.381346
-0.32723
-1.00577
0.482476
0.841227
0.594556
0.606453
0.64842
0.633919
0.643724
0.652048
0.656096
0.600965
0.611012
0.615605
0.588309
0.61261
0.612264
0.619756
0.49138
0.393892
0.393622
0.327971
0.188347
0.228724
0.421057
0.352683
0.27759
0.270026
0.441767
0.308221
0.386465
0.43883
0.363811
0.298546
0.525962
0.570908
0.562384
0.535802
0.420964
0.453904
0.457124
0.505945
0.548775
0.574612
0.486459
0.492777
0.4937
0.490958
0.489257
0.492388
0.492657
0.494934
0.49518
0.497747
0.497184
-0.0684929
-0.0565456
-0.0729748
-0.0776998
-0.0309146
-0.038791
-0.00849155
-0.0300782
-0.0329535
-0.0297408
-0.0503754
-0.0624862
-0.0582678
-0.0470318
0.0661872
0.0779652
0.0919012
0.0464204
0.249639
0.389997
0.470737
0.355323
0.196891
0.226366
0.295561
0.00186631
0.00851978
-0.00722799
0.0545789
0.0397086
-0.0536616
-0.0576829
-0.0563795
-0.0455253
-0.037808
-0.0594947
-0.0576611
-0.0474403
-0.055804
-0.0596369
-0.0620533
0.471926
0.464815
0.468455
0.46081
0.458976
0.475998
0.480543
0.481695
0.487294
0.490038
0.479353
0.485484
0.489684
-0.0280337
-0.0448279
-0.045844
-0.0418959
-0.0415755
-0.0407635
-0.0439316
0.114627
0.0209867
0.0570584
-0.0135074
-0.139295
-0.0800446
0.488321
0.483601
0.473422
0.706286
0.543123
0.462072
0.56126
0.680945
0.26153
0.461461
0.296287
0.871948
0.779316
0.924302
0.541214
0.241683
0.407454
0.417315
0.259642
0.382989
0.329491
0.20563
0.241125
0.273988
0.356637
0.243069
0.222249
-0.0194875
0.160952
0.271076
0.253302
0.380468
0.437548
0.250534
0.166782
0.114024
0.585792
0.601804
0.609827
0.581449
0.602117
0.561393
0.551082
0.565473
0.575144
0.574481
-0.64111
-0.22949
-1.42987
-0.841649
-0.390348
0.509964
0.507132
0.73722
0.643078
0.665623
0.64911
0.589566
0.558196
0.603387
0.619303
0.317821
0.403471
0.390166
0.366265
0.311813
0.254313
0.525472
0.534542
0.557474
0.583275
0.558926
0.585899
0.48517
0.485024
0.483716
0.479982
0.478498
0.481752
0.0250372
-0.00259854
0.0335857
0.0197812
-0.00745001
-0.0121834
-0.0321121
-0.0432421
-0.0419156
-0.0393083
-0.0304953
-0.0290297
0.159237
0.0983978
0.0102865
0.0517968
-0.0142906
-0.097159
-0.0982553
-0.00860408
0.0919388
0.0737454
0.376201
0.645221
0.470983
0.636194
0.434009
0.531738
0.455662
0.428625
0.457004
0.359731
0.449655
0.0317736
-0.168263
-0.224151
0.807571
0.766606
0.548602
0.30262
0.186472
0.481103
0.508074
0.46864
0.493862
0.545966
0.526199
0.00617308
0.0966933
0.177144
0.483841
0.266353
0.283738
0.274808
0.438603
0.409888
)
;

boundaryField
{
    wall-4
    {
        type            zeroGradient;
    }
    velocity-inlet-5
    {
        type            zeroGradient;
    }
    velocity-inlet-6
    {
        type            zeroGradient;
    }
    pressure-outlet-7
    {
        type            fixedValue;
        value           uniform 0;
    }
    wall-8
    {
        type            zeroGradient;
    }
    frontAndBackPlanes
    {
        type            empty;
    }
}


// ************************************************************************* //
