/*--------------------------------*- C++ -*----------------------------------*\
  =========                 |
  \\      /  F ield         | OpenFOAM: The Open Source CFD Toolbox
   \\    /   O peration     | Website:  https://openfoam.org
    \\  /    A nd           | Version:  6
     \\/     M anipulation  |
\*---------------------------------------------------------------------------*/
FoamFile
{
    version     2.0;
    format      ascii;
    class       volVectorField;
    location    "59";
    object      U;
}
// * * * * * * * * * * * * * * * * * * * * * * * * * * * * * * * * * * * * * //

dimensions      [0 1 -1 0 0 0 0];

internalField   nonuniform List<vector> 
918
(
(0.985049 -0.000713962 0)
(0.00534791 2.96624 0)
(-0.00178752 0.884383 0)
(0.979574 0.00196138 0)
(-0.0126892 2.06331 3.30357e-20)
(-0.00709411 2.94856 -2.59088e-18)
(0.813297 1.11581 4.43766e-19)
(0.169749 0.0816884 -1.43774e-20)
(0.999921 -0.000243517 0)
(0.0839254 0.675657 0)
(0.0120198 0.436096 0)
(0.734726 -0.0172786 0)
(0.0101803 2.93163 0)
(0.00360098 2.79451 0)
(-0.00178076 3.18256 8.29921e-19)
(-0.0138629 1.9204 1.95408e-20)
(0.290212 0.0295098 9.77717e-19)
(0.229584 1.10191 3.57235e-19)
(0.964383 0.00673881 0)
(0.00204245 0.424473 0)
(0.0208048 0.105238 -6.73103e-19)
(1.00183 -0.00456023 0)
(0.999851 -0.0089281 0)
(0.975165 -0.00605263 0)
(0.593519 -0.00872975 0)
(0.0217415 2.64392 0)
(-0.0122781 2.91189 9.49235e-19)
(-0.00486477 0.937738 0)
(-0.0290026 1.16916 0)
(-0.00302955 0.908152 0)
(-0.0208433 2.5959 0)
(-0.00364618 2.11319 -2.63856e-20)
(-0.00899972 1.8932 0)
(-0.0221487 2.9876 -9.34363e-23)
(-0.0164942 3.0055 2.01324e-18)
(0.00230657 3.0006 0)
(0.871815 -0.00972565 0)
(0.376388 0.916667 1.6154e-19)
(0.812153 1.13367 -5.55715e-19)
(0.945019 0.998648 5.64029e-19)
(0.675489 1.21646 -1.01931e-19)
(0.688859 1.17738 5.81194e-19)
(0.196393 0.149132 1.40261e-20)
(0.18273 0.0703422 0)
(1.15661 0.527676 0)
(0.170424 0.136348 6.38783e-20)
(0.14772 0.0765717 -6.62867e-20)
(0.92052 -0.00704528 0)
(1.00026 6.37758e-05 0)
(0.999908 0.000319747 0)
(1.0037 -0.00728321 0)
(1.00089 -0.000946909 0)
(1.00011 -7.94658e-06 0)
(0.0927083 1.84159 -7.37812e-19)
(0.0299045 0.866639 0)
(0.11787 0.752169 0)
(0.0167659 0.817546 0)
(0.047218 0.608997 0)
(0.00368303 2.02531 0)
(-0.00463531 0.74049 0)
(0.00812008 0.468786 0)
(-0.0104041 0.737209 0)
(0.00735095 0.429048 0)
(0.842976 -0.0157081 0)
(0.836125 0.0353982 0)
(0.765999 -0.00902174 0)
(0.802848 0.0443742 0)
(0.70289 -0.00857767 0)
(0.0139498 3.0002 9.61852e-19)
(0.0111735 3.00594 0)
(0.0062787 3.00389 0)
(0.011869 2.9971 1.09267e-23)
(0.00826281 2.95874 -1.42955e-18)
(0.0121887 2.98295 0)
(0.00903612 2.90493 0)
(0.0210892 2.93138 2.2212e-24)
(0.00414978 2.82403 0)
(0.0262027 2.91895 0)
(-0.000927062 2.74508 0)
(0.307206 3.57925 0)
(-0.12235 3.66224 0)
(0.150317 3.2734 -7.72396e-19)
(0.00410121 3.00933 0)
(-0.029065 1.9892 0)
(-0.00693077 2.17382 -1.92726e-20)
(-0.00997135 1.93183 1.78669e-20)
(0.365331 0.144347 -3.39333e-19)
(0.31363 0.00367706 -3.29809e-19)
(0.322329 0.163011 -1.01549e-18)
(0.257859 0.0398367 -6.61497e-19)
(0.262319 1.01447 0)
(0.328303 1.2306 -3.67125e-19)
(0.410908 1.14444 6.05718e-19)
(0.987771 0.00814222 0)
(0.943302 0.00579365 0)
(1.00028 0.000671757 0)
(1.00254 0.00906669 0)
(1.00311 0.00898058 -2.60856e-18)
(0.992136 0.00943207 1.97117e-18)
(-0.0154351 0.754539 0)
(0.00424277 0.435558 0)
(-0.0502472 1.02268 0)
(-0.0246239 0.804172 0)
(-0.0136308 0.418957 0)
(0.00572262 0.131209 2.08407e-19)
(0.0781585 0.0962222 0)
(0.993622 -0.00769439 0)
(0.954039 -0.00648034 0)
(0.744691 0.0376174 0)
(0.672747 0.0273616 0)
(0.659707 0.0106686 0)
(0.977847 -0.00318221 0)
(0.602633 0.0785461 0)
(0.446184 -0.0305355 1.46957e-18)
(-0.0406352 2.86112 7.46632e-19)
(0.0335225 2.91444 0)
(0.0426399 2.8922 0)
(0.00348677 2.70175 0)
(-0.00883709 2.98622 9.08914e-19)
(-0.0142869 2.89468 0)
(-0.0110882 2.99176 -2.79758e-18)
(-0.0115903 2.92954 9.52435e-19)
(-0.0418312 1.34223 0)
(-0.013356 1.37028 0)
(-0.00706406 2.13562 7.38404e-22)
(-0.00668984 2.09533 0)
(-0.0169195 1.90409 0)
(0.938782 -0.00524543 0)
(0.8571 -0.011104 0)
(0.863501 0.00505782 0)
(0.94959 -0.0061722 0)
(0.88359 -0.00807704 0)
(0.500169 1.1169 -2.05344e-19)
(0.547401 1.18689 0)
(0.338306 0.851154 3.15564e-20)
(0.282492 0.715712 0)
(0.91206 1.02997 -1.59183e-19)
(1.03332 0.840385 3.18835e-19)
(0.388952 1.31065 0)
(0.53911 1.2671 0)
(0.592197 1.19431 0)
(0.101892 0.181537 -2.95251e-19)
(0.215033 0.155647 0)
(0.190586 0.0771175 1.84961e-19)
(0.996725 0.89448 0)
(1.07175 0.742701 0)
(1.10111 0.678168 -2.5422e-19)
(1.13842 0.58926 0)
(1.19403 0.389995 4.63708e-20)
(0.957444 -0.0071155 0)
(0.962693 -0.00811979 0)
(0.900859 -0.00736849 0)
(0.983922 -0.00812717 0)
(0.974411 -0.00803978 0)
(0.936526 -0.00656489 0)
(1.0002 0.00250316 0)
(1.00077 0.00123986 0)
(1 0.000764031 0)
(0.0440726 2.08755 4.11834e-19)
(0.14471 1.78587 0)
(0.0189217 2.20449 6.19399e-19)
(0.0520904 1.89095 -5.16487e-19)
(0.164305 1.07865 -2.93374e-19)
(0.0465978 0.939119 0)
(0.11829 0.934688 0)
(0.00358839 0.790693 0)
(0.0256379 0.548102 0)
(-0.00335602 2.25628 -4.77583e-22)
(0.0176503 2.03094 0)
(-0.00480637 2.25703 -1.24928e-20)
(0.0024706 2.03616 1.24013e-20)
(-0.00324246 0.764258 0)
(-0.00368946 0.745866 0)
(0.0130264 0.499572 0)
(-0.0104671 0.745935 0)
(0.00100821 0.431445 0)
(0.939002 0.0136673 0)
(0.855543 -0.0117407 0)
(0.928315 0.0047375 0)
(0.84582 -0.012814 0)
(0.812148 -0.00288133 0)
(0.897506 0.023638 0)
(0.870995 0.0294398 0)
(0.788537 -0.00649817 0)
(0.0101994 3.06758 -8.95521e-21)
(0.015304 3.05882 0)
(0.0123597 2.9703 0)
(0.00764116 2.87664 0)
(0.897258 3.97465 0)
(1.1917 3.37025 9.40713e-19)
(0.0815243 3.09163 0)
(-0.0171535 2.91866 0)
(-0.0147355 1.39584 0)
(-0.035532 1.69577 0)
(-0.0233796 1.52967 0)
(-0.0321453 2.5557 -1.38033e-20)
(-0.0171506 2.24754 0)
(-0.0211577 2.3935 0)
(-0.000971361 1.9602 5.27933e-22)
(-0.00493479 2.25004 -2.25517e-20)
(-0.00591539 2.2113 -1.83525e-20)
(-0.00618573 1.9456 0)
(0.403894 0.119821 5.20574e-19)
(0.34557 -0.00363159 -5.10695e-19)
(0.230613 1.59063 0)
(0.287333 0.762193 -3.21089e-19)
(0.179995 1.68587 -1.05765e-18)
(0.244997 1.22259 1.05868e-18)
(0.901748 0.00595635 0)
(0.967102 0.0106219 0)
(0.974951 0.00982703 0)
(0.923049 0.00589797 0)
(-0.00840436 0.74717 0)
(-0.0205129 0.748229 0)
(0.00107704 0.43271 0)
(0.143508 0.129512 5.88691e-19)
(0.116041 0.118038 -6.96846e-19)
(0.108826 0.0816258 0)
(1.1041 0.0894119 2.36391e-20)
(1.08781 0.0418401 0)
(1.01698 0.0433135 0)
(0.912357 -0.00193325 0)
(0.445505 0.0945979 0)
(0.51033 0.0725744 -2.35372e-18)
(0.3889 -0.00798542 8.84792e-19)
(0.0108816 2.97719 7.91646e-19)
(-0.0327865 2.86142 4.56758e-20)
(0.00837229 3.05344 -1.88991e-20)
(0.0156437 3.04326 7.08975e-19)
(-0.0118535 3.00001 3.13224e-20)
(-0.0123205 2.95225 -1.26392e-22)
(-0.0150247 3.01334 -5.85071e-19)
(0.0143258 3.02665 4.12019e-19)
(0.007584 3.03483 -6.69859e-19)
(0.934521 0.00203147 0)
(0.93938 -0.0011889 0)
(0.847879 -0.0111543 0)
(0.956403 0.0117194 0)
(0.942512 0.0131983 0)
(0.881747 0.00551081 0)
(0.915679 0.0185865 0)
(0.925335 0.0151878 0)
(0.838152 0.00115689 0)
(0.672981 1.41576 2.22199e-20)
(0.691021 1.52641 0)
(0.118996 0.296443 6.72596e-20)
(0.211418 0.652406 5.31272e-19)
(0.23988 0.693384 -3.1151e-19)
(0.216947 0.502164 6.17765e-19)
(0.337465 0.828469 1.563e-18)
(0.132768 0.235716 3.75624e-19)
(0.286045 0.170685 7.02157e-19)
(0.244644 0.169119 1.81143e-19)
(0.224665 0.0613485 3.45979e-19)
(1.18643 0.443143 9.27727e-20)
(1.21272 0.244444 9.10948e-20)
(0.00881033 2.24609 2.40256e-19)
(0.0388875 1.95375 0)
(0.971819 0.0327849 0)
(0.946083 0.0190348 0)
(0.870049 -0.0154299 0)
(0.0126312 3.07468 0)
(0.0169144 2.94412 1.25208e-18)
(0.013955 2.95688 0)
(0.00581965 2.84971 -1.24257e-18)
(0.0090287 3.09102 3.05917e-19)
(0.0115838 3.08275 0)
(0.711113 1.82307 -1.73021e-19)
(1.23612 2.62859 5.84631e-19)
(0.6959 2.00128 -1.40389e-18)
(0.0222549 2.97654 -6.88511e-19)
(0.0404389 2.99848 0)
(-0.0385927 2.87904 0)
(-0.00611896 2.2353 -1.26845e-20)
(-0.00472443 2.25568 4.23197e-20)
(-0.000567877 1.99639 -7.1827e-21)
(0.266575 1.3995 1.02352e-18)
(0.28124 0.560544 -7.02876e-19)
(0.073304 2.00418 7.46729e-19)
(0.120819 1.87531 -9.02889e-19)
(0.20803 1.53363 1.04686e-19)
(0.00686087 3.12009 -1.70175e-18)
(0.0131276 3.12096 1.87329e-18)
(-0.00512768 2.98026 8.51362e-19)
(-0.00151531 2.97508 -8.16073e-19)
(-0.0178568 2.87734 -8.67146e-19)
(0.0125815 3.09968 -2.27366e-18)
(0.00466927 3.10559 2.30669e-18)
(0.263689 0.696453 0)
(0.215957 0.658768 -1.13291e-18)
(0.0726335 0.213746 4.98446e-19)
(0.345057 0.947094 1.11223e-18)
(0.197264 0.279092 -1.71276e-18)
(1.19332 0.17462 4.70544e-20)
(1.20948 0.303062 0)
(1.18877 0.120278 9.52896e-21)
(-0.00131834 2.26463 -1.24117e-21)
(0.00320991 2.25079 0)
(0.029506 1.98957 0)
(0.3126 1.31757 -3.66105e-19)
(0.35307 1.17319 -7.94726e-19)
(0.229282 0.389098 1.41981e-18)
(1.00644 -0.00969117 0)
(1.00774 -0.00778975 4.79463e-19)
(-0.0365654 1.32477 0)
(-0.0429732 1.32951 0)
(1.00244 0.00328014 1.35064e-21)
(1.00321 0.00782317 9.84302e-19)
(-0.0230256 2.54187 1.74885e-20)
(-0.026559 2.58474 0)
(0.0404872 3.1728 4.89693e-19)
(0.375713 3.54401 0)
(1.15367 0.68986 -5.05719e-20)
(1.01184 0.0106883 -2.82451e-21)
(1.02083 -0.00904851 0)
(1.00158 0.000269965 1.54196e-22)
(0.105721 1.37086 0)
(0.142158 2.59136 0)
(0.0243916 1.3181 0)
(-0.00205611 2.63798 3.13503e-21)
(-0.0226717 2.5869 -5.67359e-21)
(0.996239 0.0290688 2.20823e-21)
(1.06282 0.00572528 0)
(1.09965 0.0282547 0)
(-0.0335193 1.74176 0)
(-0.0199113 2.58633 0)
(-0.0107031 1.31391 0)
(0.308333 1.48304 -1.76859e-19)
(1.01151 -0.00906636 0)
(1.00971 -0.0129932 0)
(1.00227 0.000940007 6.14272e-19)
(1.00548 -0.0049182 -7.23823e-19)
(1.00113 -0.000864707 0)
(-0.0203876 1.46203 0)
(-0.00969274 1.38191 0)
(-0.0156571 1.4231 0)
(-0.0129693 1.30162 0)
(-0.0244773 1.29266 0)
(-0.0185027 1.27123 0)
(1.03559 -0.00436227 0)
(1.01893 0.0150333 -8.74089e-22)
(0.809928 1.30728 2.81021e-19)
(1.00241 0.000376239 -6.13511e-19)
(1.00339 0.00446282 7.3247e-19)
(1.00127 0.00210167 0)
(1.01116 0.00964555 6.11087e-19)
(1.00688 0.0074715 -7.43926e-19)
(1.00718 0.0111422 0)
(-0.024399 2.61384 0)
(-0.0269574 2.59282 -2.93903e-20)
(-0.0242162 2.60701 2.08326e-20)
(1.23999 0.271412 5.15577e-19)
(1.16268 0.0884733 0)
(0.0441907 3.09115 -9.73385e-19)
(0.0514132 2.87313 -6.89488e-20)
(0.103458 3.20172 1.30125e-18)
(0.122047 3.21368 -2.7893e-19)
(0.14262 3.25831 0)
(0.0224823 3.13787 2.67783e-19)
(0.0611488 3.16179 9.69663e-19)
(0.0614446 3.17884 -5.008e-19)
(0.0271425 3.12916 0)
(0.593497 0.285647 0)
(0.534364 0.310791 0)
(1.13448 0.721088 1.13932e-19)
(1.10028 0.856767 -9.76732e-20)
(1.1931 0.60658 0)
(1.22056 0.541609 0)
(1.01574 0.0120314 -1.13512e-18)
(1.01471 0.0127796 1.42715e-18)
(1.02568 -0.008753 0)
(1.02402 -0.0103185 0)
(1.00672 0.00311494 0)
(1.01091 0.00420756 0)
(1.00428 0.00220389 0)
(1.00942 0.00638436 0)
(1.0069 0.00505603 0)
(1.00443 0.00528251 0)
(0.0956751 1.36939 0)
(0.0820892 1.33181 0)
(0.130228 1.41379 0)
(0.138609 1.39974 0)
(0.150941 2.61327 0)
(0.188334 2.67958 -4.09722e-19)
(0.109686 2.67489 0)
(0.0805818 2.67559 1.64581e-19)
(0.0284327 2.68135 -1.57936e-19)
(0.0148818 1.32126 0)
(0.0207192 1.25488 0)
(0.0176568 1.33756 0)
(0.0353324 1.27542 0)
(-0.000786384 1.99394 2.80977e-20)
(-0.0223119 2.615 -3.19449e-20)
(-0.00861655 2.68059 -2.03376e-20)
(-0.0202686 2.69299 0)
(-0.0245422 2.62143 2.04548e-20)
(-0.0233043 2.6168 3.29542e-20)
(0.00672912 1.99136 -2.09531e-20)
(-0.010075 2.40719 4.2861e-20)
(-0.0149652 2.42984 2.30541e-20)
(1.00988 0.0397755 1.15453e-18)
(1.00411 0.0178513 -1.435e-18)
(1.00367 0.0448183 -1.17846e-18)
(0.974315 0.037341 1.48212e-18)
(1.06445 0.00901527 0)
(1.04975 -0.0065184 0)
(1.09223 0.0370998 0)
(1.07549 0.0147143 0)
(1.07422 0.000538414 0)
(1.14079 0.0784989 0)
(1.11507 0.0455465 0)
(1.118 0.0372888 0)
(-0.02919 2.43623 3.07849e-21)
(-0.0206963 2.02087 0)
(-0.0199809 2.22141 0)
(-0.0218892 2.60728 -1.74178e-20)
(-0.018817 2.61813 5.34566e-22)
(-0.000879403 1.58047 -5.18464e-20)
(-0.00958813 1.50445 5.29207e-20)
(-0.018792 1.39438 0)
(-0.0231345 1.40054 0)
(-0.030558 1.3931 0)
(-0.00760485 1.31531 0)
(0.000999694 1.24408 0)
(0.385385 1.50799 2.96401e-19)
(0.433551 1.51197 1.55375e-19)
(0.603138 2.46523 -2.47659e-19)
(0.389802 2.55653 7.14527e-19)
(0.352615 2.05839 6.65935e-20)
(1.02067 -0.00802976 0)
(1.01578 -0.00937588 0)
(1.01483 -0.0132315 0)
(1.00769 -0.000585908 0)
(1.00487 -0.000665987 0)
(1.00799 -0.00449773 0)
(1.00954 -0.00346679 0)
(1.01463 -0.00432232 0)
(1.01969 0.0161335 1.11392e-18)
(1.01731 0.01473 -1.40869e-18)
(1.02002 0.0184032 -1.12356e-18)
(1.01763 0.0169872 1.4006e-18)
(0.76625 1.35467 0)
(0.706679 1.38849 2.48403e-19)
(0.871117 1.23552 1.02215e-19)
(0.910138 1.19429 -1.35659e-19)
(1.1655 2.61529 2.59582e-19)
(0.755546 0.126668 5.76954e-19)
(1.17079 0.106357 0)
(1.21257 0.199665 -4.18175e-19)
(1.19353 0.153683 -1.73772e-20)
(1.01409 0.163874 0)
(0.0792779 3.01989 3.42115e-19)
(0.0838604 2.90342 -1.14884e-18)
(0.0280054 2.36028 7.27683e-19)
(0.138932 -0.206948 -3.39756e-19)
(0.343589 3.44747 -2.53163e-19)
(0.194059 3.34137 0)
(0.224779 3.39863 3.29774e-19)
(0.224155 3.07799 -1.20024e-18)
(0.257108 3.19705 0)
(0.00725319 3.12242 5.05206e-20)
(0.0177721 3.13114 -5.80985e-19)
(0.0167688 3.12703 8.55122e-19)
(0.0334036 3.13987 0)
(0.0312231 3.1498 0)
(1.25941 2.58008 0)
(0.528663 0.79549 -5.20684e-19)
(1.02182 1.02988 -1.24785e-20)
(0.98558 1.0836 0)
(0.855138 0.968188 -1.04374e-19)
(1.07765 0.904853 2.68802e-20)
(0.355781 0.328747 -8.36434e-19)
(0.668987 0.317043 -2.1852e-20)
(0.57788 0.222114 3.91069e-19)
(0.563076 0.330088 2.88773e-20)
(0.456158 0.290178 -1.15873e-18)
(0.627616 0.316392 0)
(0.696212 0.418964 6.588e-19)
(0.699713 0.425973 0)
(0.600461 0.330005 0)
(0.528289 0.255171 0)
(0.790916 0.650532 3.91176e-19)
(1.25018 0.303885 -4.20341e-19)
(1.24203 0.43554 0)
(1.24311 0.392099 0)
(0.705071 0.185998 5.92971e-19)
(0.839751 0.549615 -3.70806e-19)
(0.761668 0.511364 6.61032e-19)
(0.961891 0.446041 -6.67084e-19)
(1.01849 0.0146193 7.55009e-19)
(1.01713 0.0136177 -7.62763e-19)
(1.01602 0.0141751 0)
(1.03697 -0.00457411 0)
(1.03038 -0.00772237 -7.15127e-19)
(1.02858 -0.0105997 7.07701e-19)
(1.02474 0.01085 0)
(1.02272 0.0149364 0)
(1.01269 0.00465197 0)
(1.01455 0.00910847 0)
(1.01631 0.00417562 0)
(1.01552 0.00289462 0)
(0.0645693 1.355 0)
(0.064918 1.30657 0)
(0.148029 1.41059 5.25491e-20)
(0.276138 1.47938 8.70928e-20)
(0.169546 1.4518 1.95646e-19)
(0.210605 1.45062 -3.16458e-19)
(0.15959 1.42276 0)
(0.143947 1.58927 -7.8075e-20)
(0.144125 1.58251 0)
(0.351438 2.01376 -9.69348e-20)
(0.32065 2.3509 5.48897e-19)
(0.204278 1.46302 6.80405e-20)
(0.273211 1.39487 2.60177e-20)
(0.207487 1.39005 -2.12226e-20)
(0.287976 1.33451 -7.93793e-20)
(0.257191 1.57985 0)
(0.269554 1.62861 9.01437e-20)
(0.0265078 2.26259 -1.60783e-20)
(0.0375344 2.67499 0)
(0.0643831 2.41147 9.52842e-20)
(0.0593241 2.43414 0)
(0.0678061 2.69372 -1.82753e-19)
(0.0421916 2.709 0)
(0.0237118 1.43633 5.29543e-20)
(0.0330256 1.49504 0)
(0.0284954 1.40198 0)
(0.019662 1.40618 -6.06488e-20)
(0.000493402 2.66521 -2.1246e-21)
(0.0248745 2.69875 1.79858e-19)
(0.0080708 2.73609 9.89398e-22)
(0.000331249 1.84053 -1.74183e-20)
(-0.00466649 1.69167 -1.30195e-20)
(0.011888 1.30465 0)
(0.0170342 1.23346 0)
(0.0386745 1.5864 -2.27808e-20)
(0.0350773 1.46312 -5.21504e-20)
(0.0288291 1.53678 5.88721e-20)
(0.0453735 1.61146 0)
(-0.0310979 2.27424 1.13254e-19)
(-0.0341431 2.55516 -4.81303e-20)
(-0.0204161 2.45461 7.72534e-21)
(-0.00603354 1.85852 2.11228e-20)
(-0.0282805 2.50957 9.74436e-21)
(-0.023831 2.45025 -2.009e-20)
(1.0178 0.0216604 -7.5981e-19)
(1.01383 0.0280966 7.66646e-19)
(1.01242 0.0164668 0)
(1.01236 0.0695801 1.0461e-18)
(0.99136 0.0557436 -1.20211e-18)
(0.952397 0.0560132 1.34464e-18)
(1.01252 0.1168 -1.42979e-19)
(1.04386 -0.00472689 0)
(1.05205 -0.00051584 6.84779e-19)
(1.04019 -0.00820474 -6.84398e-19)
(1.07212 0.0433197 -4.05789e-20)
(1.06478 0.0285267 3.50505e-19)
(1.0642 0.0650044 0)
(1.05432 0.0541078 -1.26273e-19)
(1.03267 0.0447053 0)
(1.02519 0.0401692 0)
(1.0276 0.0136287 0)
(1.02395 0.0160901 0)
(1.04055 0.0334296 2.59586e-19)
(1.03958 0.0289472 -5.74878e-19)
(1.05306 0.038364 -2.74615e-19)
(1.04821 0.03833 -3.03087e-19)
(1.07767 0.0695981 5.7933e-19)
(1.10148 0.0555583 0)
(1.10833 0.0941886 0)
(-0.0289647 2.281 6.7862e-20)
(-0.0299956 2.02814 3.16958e-21)
(-0.0255581 2.03756 0)
(-0.0303646 2.44966 -6.75766e-20)
(-0.0271676 2.4073 -6.11962e-21)
(-0.0342788 2.47703 8.55127e-21)
(-0.0223059 2.62903 -2.80155e-20)
(-0.0268099 2.57133 1.43412e-21)
(-0.02525 2.52466 -9.538e-21)
(-0.0178621 2.62199 1.92966e-20)
(-0.0220573 2.62425 -2.21087e-20)
(-0.00934329 1.49695 -2.23128e-22)
(-0.00431383 1.62849 -5.02214e-20)
(0.375946 1.4467 -1.28097e-19)
(0.371384 1.37975 9.12392e-21)
(0.648149 1.43611 -2.40442e-19)
(0.524956 1.50539 -1.51333e-19)
(0.579299 1.46416 0)
(0.605378 2.43236 2.10375e-19)
(0.667628 2.43631 3.35886e-19)
(0.413169 2.52434 9.34726e-20)
(0.399912 2.54861 -5.78268e-19)
(0.503446 2.48664 5.57258e-19)
(0.558051 2.47933 0)
(0.483903 2.5345 -5.48582e-19)
(0.251677 2.60284 1.11871e-18)
(0.366692 2.57233 -7.11202e-20)
(0.281325 2.66455 -1.57806e-18)
(0.970166 2.39306 7.07429e-19)
(0.849027 2.39462 0)
(1.01146 0.00137247 2.49009e-20)
(1.01536 -0.00521465 -2.03358e-20)
(1.01773 -0.00398584 -3.71753e-19)
(1.01558 -0.00107436 3.70386e-19)
(1.01311 0.00181844 0)
(0.636058 1.30185 0)
(0.676696 1.18673 0)
(0.790265 1.11616 0)
(0.664192 1.1446 0)
(1.19646 2.63072 5.1547e-20)
(1.08924 2.38228 0)
(0.819777 2.17526 3.44724e-21)
(0.823112 2.43764 0)
(0.917326 2.52725 -4.24943e-19)
(0.948798 2.47676 2.8376e-19)
(0.786844 0.15942 0)
(0.73641 0.143105 1.56934e-19)
(0.914806 0.16075 9.11918e-19)
(0.821213 0.14223 -3.4383e-19)
(0.772296 0.0909534 -1.05013e-18)
(1.08751 0.243175 -8.32776e-19)
(0.987134 0.3118 -9.65305e-21)
(0.931478 0.347938 8.07895e-19)
(1.016 0.255865 6.86326e-19)
(0.935223 0.203241 -1.20584e-18)
(0.893219 0.216317 1.51261e-19)
(0.933805 0.312172 -3.15443e-19)
(0.909561 0.219736 0)
(1.00172 0.206911 5.8967e-19)
(1.05641 0.214775 0)
(1.05229 0.226601 0)
(1.12497 0.123501 2.65022e-19)
(1.06537 0.191983 -1.08161e-20)
(1.07964 0.244836 -1.51584e-19)
(1.11409 0.209282 0)
(1.02424 0.0488045 5.87997e-19)
(1.038 0.0628474 7.31331e-19)
(1.03303 0.0468478 -5.83003e-19)
(1.04236 0.0687615 -4.90128e-19)
(1.01571 0.0747552 -7.41352e-19)
(0.985353 0.166479 0)
(0.988774 0.108274 0)
(0.962558 0.0732212 -4.78544e-19)
(0.902844 0.097229 1.92755e-19)
(1.0397 0.116489 6.794e-19)
(1.07569 0.135487 -7.76554e-19)
(1.07014 0.178789 6.98194e-19)
(1.03521 0.156382 0)
(1.08588 0.121078 0)
(1.05757 0.11159 -3.18022e-19)
(1.04312 0.10685 -5.51751e-19)
(0.587619 1.09018 1.12827e-19)
(0.615779 1.41078 -1.64637e-20)
(1.14574 2.72226 -2.38817e-19)
(1.19837 3.1061 9.57641e-22)
(1.25447 2.73162 -1.1127e-19)
(1.29455 2.70286 1.27589e-20)
(1.27037 2.32623 -3.7853e-20)
(1.18614 3.01162 -6.7073e-20)
(1.20552 2.96847 2.13146e-19)
(1.1803 3.25981 -1.25369e-19)
(1.39849 2.97477 1.56153e-19)
(1.41011 2.91159 0)
(0.567401 0.821826 -4.6985e-20)
(0.21636 1.21494 4.73845e-19)
(0.510173 0.376612 5.37723e-19)
(0.393697 0.138453 6.12185e-19)
(0.496241 0.31772 6.55286e-19)
(0.543881 0.428916 -1.06147e-18)
(0.54925 0.417897 8.73703e-19)
(0.47931 0.330024 -3.29735e-19)
(0.370588 0.267903 7.48105e-19)
(0.731962 0.2529 -3.41479e-19)
(0.688543 0.282104 0)
(0.632027 0.197912 7.88763e-21)
(0.737122 0.506061 3.59023e-19)
(0.704113 0.476369 -1.30378e-18)
(0.632948 0.438475 1.76441e-20)
(0.62721 0.417488 0)
(0.711658 0.715427 3.71018e-19)
(0.827606 0.796101 4.08624e-19)
(0.765483 0.846322 -4.76266e-19)
(0.896512 0.818363 -1.5167e-19)
(0.932657 0.861349 -3.52309e-20)
(0.94026 0.869041 3.6134e-20)
(0.876667 0.673059 -6.65882e-19)
(0.949333 0.721254 1.41012e-19)
(1.00317 0.725619 0)
(1.00233 0.701785 -1.80653e-19)
(1.03154 0.336535 2.09629e-19)
(1.15766 0.335232 2.52882e-19)
(1.07376 0.28056 3.40594e-19)
(0.998256 0.381511 -4.17799e-19)
(1.05256 0.48289 0)
(1.13483 0.424532 0)
(0.896586 0.418261 1.27543e-21)
(0.84971 0.312952 0)
(0.893616 0.302196 3.85332e-19)
(0.915336 0.344655 5.20763e-21)
(0.981166 0.490132 1.86438e-18)
(0.913433 0.548533 4.81195e-19)
(0.935657 0.505169 -5.09364e-19)
(0.854621 0.482521 5.42923e-19)
(0.823085 0.455587 3.45338e-19)
(0.803229 0.42897 -3.38404e-19)
(1.02811 -0.000374755 6.14187e-19)
(1.0204 0.000502398 0)
(1.01904 0.00133047 4.00792e-19)
(1.02259 -0.000806862 -9.07281e-19)
(1.02253 0.00450791 4.42036e-19)
(1.02004 0.01155 -9.25059e-19)
(1.02078 0.0113317 0)
(1.01972 0.0120698 -1.9267e-19)
(1.01653 0.00774977 4.8286e-19)
(1.01668 0.0108622 -2.42349e-19)
(1.01729 0.010545 1.77334e-19)
(0.0273525 1.32841 0)
(0.0334743 1.37728 0)
(0.0433062 1.33334 0)
(0.0472686 1.28148 0)
(0.0785631 1.39722 -8.1399e-20)
(0.0825337 1.37049 2.34083e-20)
(0.0877748 1.56223 4.40823e-21)
(0.095259 1.39791 -3.60633e-20)
(0.0383773 1.47326 4.48055e-20)
(0.0428138 1.46858 -3.51349e-20)
(0.0670516 1.3873 -1.867e-20)
(0.0567165 1.38956 7.45856e-20)
(0.0501069 1.36548 1.17164e-20)
(0.03982 1.3862 7.4494e-21)
(0.101126 2.37769 -1.04718e-19)
(0.0926507 2.42621 0)
(0.13932 2.02457 1.0214e-19)
(0.127266 1.70432 3.47244e-20)
(0.221796 2.02056 -8.32655e-20)
(0.192527 2.44466 0)
(0.242915 2.38853 -6.49409e-19)
(0.324806 2.36356 4.31171e-19)
(0.247329 1.99134 -2.16155e-19)
(0.133824 2.15426 1.50079e-19)
(0.11334 2.26703 0)
(0.0170497 1.86322 -9.74371e-21)
(-0.00408271 2.38772 -1.3818e-20)
(0.00348578 2.14237 0)
(0.00678572 2.44962 -1.6326e-20)
(0.0264567 2.28906 1.63532e-20)
(0.010577 1.415 -1.01143e-20)
(0.00983192 1.39919 1.71284e-19)
(0.00858415 1.40589 -5.42731e-20)
(0.0171994 1.40877 -4.98898e-20)
(0.0219035 1.43964 0)
(0.00687325 1.38909 0)
(-0.00181995 1.30098 -6.50592e-20)
(0.0027488 1.37463 1.84781e-20)
(0.00703521 1.37675 0)
(0.00600728 1.29642 -5.03631e-20)
(0.0127105 1.22292 1.00436e-19)
(1.04234 0.014883 0)
(1.04885 0.0103622 -6.40322e-20)
(1.03906 0.024103 -4.63236e-19)
(1.04944 0.0230803 0)
(1.05456 0.0223793 0)
(1.03627 0.0128893 -6.78166e-21)
(1.03013 0.0132666 7.46189e-19)
(1.03191 0.0173146 9.04782e-19)
(1.02556 0.0210431 0)
(1.02189 0.0215287 0)
(1.03551 0.0258495 4.62158e-19)
(1.02556 0.0280599 0)
(1.02317 0.0283274 0)
(-0.0215982 2.02942 0)
(-0.00873023 1.65573 -2.18265e-21)
(-0.0103506 1.76315 -3.18635e-20)
(-0.0025516 1.38543 0)
(-0.00886979 1.55586 -2.65826e-20)
(-0.0137009 1.46409 1.73174e-20)
(-0.00595116 1.3978 0)
(0.406923 1.63623 0)
(0.366593 1.31844 -1.28799e-20)
(0.278783 1.34913 0)
(0.4378 1.31757 -5.63879e-20)
(0.47213 1.47145 0)
(0.458157 1.41512 4.8548e-20)
(1.04084 2.67502 -1.50379e-20)
(0.984879 2.41213 -8.88835e-19)
(0.947056 2.2111 9.99407e-19)
(0.865223 2.38676 2.38787e-19)
(0.853761 2.49227 0)
(0.922244 2.48755 0)
(0.953955 2.38636 0)
(0.929995 2.37694 -9.26848e-19)
(0.6936 2.45787 -3.68588e-19)
(0.801864 2.44176 -9.57539e-20)
(0.809267 2.41974 7.21586e-20)
(0.705257 2.408 0)
(0.810055 2.40094 0)
(0.770773 2.41779 -3.63508e-19)
(0.767395 2.47106 0)
(0.625656 1.068 0)
(0.514962 0.866629 -5.42027e-19)
(0.520065 0.937259 -3.13471e-20)
(0.501701 1.07602 0)
(0.488272 0.985006 8.30357e-19)
(0.795006 0.885367 -1.3037e-19)
(0.801196 1.02 0)
(0.781755 1.00249 1.78698e-19)
(0.669669 1.02051 0)
(0.66175 0.927037 0)
(1.16418 2.75819 -2.13304e-19)
(1.13919 2.81649 -8.4933e-20)
(0.924235 2.34041 6.67275e-20)
(0.901025 2.32122 -7.34307e-20)
(1.13378 2.73597 0)
(1.08581 2.70384 8.82133e-20)
(1.10196 2.49898 -2.9219e-19)
(1.00355 2.25781 -2.8439e-20)
(0.499833 1.33696 0)
(0.518766 1.08173 -9.94046e-20)
(0.594016 1.18216 0)
(0.848586 0.225934 0)
(0.762507 0.174957 0)
(0.680075 0.140638 0)
(0.861613 0.227982 -6.07516e-19)
(0.754874 0.222349 3.56359e-19)
(0.914418 0.085657 -3.98635e-19)
(0.92765 0.139948 0)
(0.909879 0.152568 1.71207e-19)
(0.839716 0.112386 6.86156e-19)
(0.790877 0.0749243 -4.32545e-19)
(1.09831 3.35179 -6.8079e-19)
(1.1654 3.27494 0)
(1.11693 3.43679 -1.58259e-18)
(0.657969 3.58256 1.31847e-18)
(1.02761 3.07911 1.27518e-19)
(0.529594 0.791709 5.59024e-19)
(0.511494 0.760233 0)
(0.358363 0.396956 -1.43795e-19)
(0.476713 0.637257 8.4749e-19)
(0.538277 0.375898 -1.91719e-19)
(0.512757 0.464667 2.25124e-19)
(0.687107 0.529909 4.64117e-19)
(0.732329 0.561905 0)
(0.655805 0.572081 0)
(0.634863 0.534301 0)
(1.01102 0.608554 8.88995e-20)
(0.964582 0.589126 -4.65886e-19)
(0.975138 0.602466 3.55494e-19)
(1.04019 0.544306 -3.43842e-19)
(1.0857 0.514037 0)
(1.08738 0.597343 -9.03076e-20)
(0.882965 0.411649 -7.66639e-19)
(0.871597 0.400547 -9.86185e-19)
(0.805902 0.396217 6.04797e-19)
(0.817237 0.3613 -6.27354e-19)
(0.856055 0.322925 -4.92394e-19)
(0.806691 0.325178 6.03478e-19)
(1.02657 0.00660012 -4.62528e-19)
(1.02619 0.00672418 9.31863e-19)
(1.02991 0.000871551 5.95089e-19)
(1.03411 0.00152673 -7.14567e-19)
(1.03389 0.0117432 0)
(1.02974 0.0118914 -1.16804e-18)
(0.0804039 1.64557 1.14884e-20)
(0.0592844 1.59398 0)
(0.100199 1.69927 5.83349e-20)
(0.110836 1.67706 -5.07574e-20)
(0.0812985 1.56048 -8.08348e-21)
(0.0725196 1.55939 0)
(0.00434103 1.69238 0)
(-0.00647711 1.5024 1.40836e-20)
(-0.00651461 1.44296 -1.26468e-20)
(-0.0115242 1.55261 3.18256e-21)
(-0.00418516 1.89076 2.04223e-20)
(-0.0156613 1.94503 -7.88479e-21)
(0.495666 1.36773 -2.45944e-19)
(0.498248 1.36379 2.68998e-19)
(0.450357 1.30866 -1.35996e-21)
(0.430749 1.29705 6.9321e-21)
(0.625916 1.30908 0)
(0.55581 1.40251 1.2417e-19)
(0.556385 1.40447 -1.20936e-19)
(0.486929 1.29373 1.3084e-21)
(0.525064 1.25045 0)
(0.58908 1.21539 0)
(0.667627 2.42159 5.42714e-19)
(0.661645 2.45064 1.25809e-18)
(0.718072 2.46595 -8.65446e-19)
(0.617982 2.43775 -1.9801e-19)
(0.558805 2.53218 2.68445e-19)
(0.499363 2.49853 -6.92877e-19)
(0.993185 2.39069 -5.62856e-19)
(1.02568 2.40854 0)
(0.951872 2.19517 -6.16089e-19)
(1.05659 2.68487 0)
(1.05555 2.66623 0)
(0.60606 2.2958 2.21782e-20)
(1.12031 3.07199 8.97364e-20)
(0.999441 2.97083 -1.40688e-19)
(0.326148 0.814476 0)
(0.329294 0.701638 -2.99024e-19)
(0.531149 0.633828 -3.00741e-19)
(0.370062 2.13951 0)
(0.405916 2.74556 -8.9744e-20)
(0.415872 2.48141 0)
(0.719487 0.680531 -7.91331e-19)
(0.783786 0.684367 1.10358e-18)
(0.792408 0.654579 -1.04598e-18)
(0.693769 0.64091 -1.00564e-19)
(0.755056 0.600034 -4.1333e-19)
(0.973193 2.75691 -6.79675e-20)
(1.01476 2.76228 -1.96382e-19)
(0.557676 2.21637 4.12141e-19)
(0.607963 1.74037 -3.29883e-19)
(0.706869 1.85866 -4.80637e-19)
(0.979078 2.39746 -1.36566e-19)
(0.978491 2.35123 3.51807e-19)
(0.65101 1.77298 3.23321e-20)
(0.456994 1.30276 1.68671e-19)
)
;

boundaryField
{
    wall-4
    {
        type            noSlip;
    }
    velocity-inlet-5
    {
        type            fixedValue;
        value           uniform (1 0 0);
    }
    velocity-inlet-6
    {
        type            fixedValue;
        value           uniform (0 3 0);
    }
    pressure-outlet-7
    {
        type            zeroGradient;
    }
    wall-8
    {
        type            noSlip;
    }
    frontAndBackPlanes
    {
        type            empty;
    }
}


// ************************************************************************* //
