/*--------------------------------*- C++ -*----------------------------------*\
  =========                 |
  \\      /  F ield         | OpenFOAM: The Open Source CFD Toolbox
   \\    /   O peration     | Website:  https://openfoam.org
    \\  /    A nd           | Version:  6
     \\/     M anipulation  |
\*---------------------------------------------------------------------------*/
FoamFile
{
    version     2.0;
    format      ascii;
    class       surfaceScalarField;
    location    "18";
    object      phi;
}
// * * * * * * * * * * * * * * * * * * * * * * * * * * * * * * * * * * * * * //

dimensions      [0 3 -1 0 0 0 0];

internalField   nonuniform List<scalar> 
1300
(
3.75095
5.62643
-6.0751
3.75095
-5.89787
5.62643
-4.46682
4.46682
-1.32654
1.32654
1.87678
1.87417
-2.68294
2.68294
-4.23956
4.23956
-2.69701
2.69701
-5.24793
5.24793
-5.06842
5.06842
4.73239
-4.73239
-4.81566
4.81566
-1.79054
1.79054
-3.56787
3.56787
3.17535
-3.17535
-4.7062
4.7062
-0.491029
0.491029
-0.553537
4.30449
3.19742
3.19742
-2.40826
2.40826
-4.86364
4.86364
6.22209
-6.22209
9.20118
-9.20118
-3.12608
-3.42404
1.32108
-8.18778
-4.57679
-4.57679
-8.44108
8.44108
-2.81465
2.81178
2.94247
-2.94247
-1.69535
1.69535
-4.46976
0.00294423
-4.46976
4.4037
0.0631155
4.4037
-1.43539
0.108851
-1.43539
4.00093
-4.00093
1.16208
0.164461
1.16208
3.06508
-3.06508
-1.8769
3.75368
1.87405
-1.8713
6.17579
-1.87966
3.75383
-5.51364
5.51364
-2.83544
0.152499
-2.83544
2.82621
-0.143261
2.82621
-5.33991
5.33991
-4.02722
-0.212342
-4.02722
4.39022
-0.150662
4.39022
2.92856
-2.92856
-2.73524
0.0382305
-2.73524
2.64518
0.0518321
2.64518
0.353599
5.27283
-5.98003
8.79181
-5.27283
0.0249051
5.21032
0.0376071
5.21032
-5.10491
0.0364916
-5.10491
5.01169
0.0567299
5.01169
4.82802
-0.0956265
4.82802
-4.8453
0.112908
-4.8453
-3.33402
-3.44622
-4.90966
0.0939957
-4.90966
-1.77862
-0.0119128
-1.77862
1.73101
0.0595287
1.73101
-3.54758
3.54758
-4.09794
0.530067
-4.09794
3.13115
0.0442033
3.13115
1.86768
1.88327
5.61864
-5.61864
2.44329
-4.62555
-0.0806488
-4.62555
-4.81226
-4.38892
4.81226
-0.106062
-0.78086
0.289831
-0.78086
3.15721
0.0402065
3.15721
2.56544
0.0797379
-2.56544
0.157181
3.40344
-3.40344
1.76322
0.64504
1.76322
-5.56426
5.56426
4.95704
0.0546511
-4.95704
0.093398
6.15719
0.0649035
6.15719
-6.20788
-0.014214
-6.20788
3.35115
-6.77518
-3.43494
4.70118
0.114482
-4.70118
0.12439
2.91309
0.0293813
2.91309
-2.9398
2.9398
-2.98558
0.0431052
-2.98558
-2.13983
0.444485
-2.13983
1.35487
0.340473
1.35487
-4.33163
-0.138137
-4.33163
-4.34065
0.242708
4.34065
0.0630548
0.84714
-0.84714
-1.55098
0.115591
-1.55098
-4.13025
-0.201375
4.13025
-0.129322
-3.92572
-0.0752092
-3.92572
-3.0229
0.037326
3.0229
0.0421792
3.11193
0.0452756
-3.11193
0.0468505
-1.8709
3.75417
-1.88005
3.7541
-5.3634
-0.150243
-5.3634
5.49206
0.0215882
5.49206
3.20125
0.366625
-3.20125
0.365807
3.25773
-0.431525
3.25773
-5.30411
-0.0357999
-5.30411
5.26643
0.0734823
5.26643
3.6803
-0.422569
-3.6803
-0.346917
4.48257
-0.0923529
4.48257
2.99009
-0.061528
2.99009
-2.89233
-0.0362337
-2.89233
2.81575
-2.81575
2.76574
0.050009
-2.76574
0.0304961
-11.1239
11.1097
-0.0364239
-11.0875
5.17389
5.17389
4.27538
0.55264
4.27538
-5.03031
0.185007
-5.03031
3.3184
-6.75334
3.43415
-6.76817
3.4399
-11.6277
3.36479
-6.811
5.08647
-5.08647
4.99053
0.0959341
-4.99053
0.0808749
-1.76453
-0.0140932
-1.76453
-2.89784
-0.649741
-2.89784
4.22697
-0.679382
4.22697
-3.03589
3.03589
-3.08198
0.0460847
3.08198
0.049168
4.55378
-0.0712044
-4.55378
-0.0717761
0.973259
0.188821
-0.973259
0.192399
3.61327
-0.209832
3.61327
-3.20201
-0.201427
-3.20201
-1.76075
-0.00377755
1.76075
0.00247012
-5.80989
0.245636
-5.80989
-11.1812
0.0936741
-11.1436
-6.1142
-6.1142
2.32688
11.1187
-2.88913
-0.00320217
2.88913
0.0239638
2.98671
0.0491839
-2.98671
0.0469117
-2.88028
0.0645332
2.88028
0.0595163
-2.52269
0.382857
-2.52269
-0.927113
0.927113
-1.10863
0.18152
1.10863
0.246241
1.11315
-0.26601
1.11315
1.64191
0.0890975
-1.64191
0.0909277
-3.87259
-0.0531336
-3.87259
5.36716
0.124898
5.36716
-3.06699
-0.135017
3.06699
-0.0769015
-0.0351576
11.1449
-5.13874
0.0338267
5.13874
-11.2098
11.2436
-3.24155
0.718856
3.24155
1.03384
5.29291
0.271347
-5.29291
0.2626
5.19544
0.070985
-5.19544
0.108978
-2.36342
-0.534418
-2.36342
-4.92408
-0.439323
4.92408
-0.697113
-11.4822
-0.201971
11.6841
-11.4254
6.01186
0.145323
-6.01186
11.3889
-0.804473
-0.0426677
0.804473
0.12264
1.45632
-0.343171
1.45632
3.79163
-0.178363
-3.79163
-0.0809548
-5.3186
0.0144831
5.3186
0.048563
-1.89597
-0.467455
1.89597
-0.439648
-4.26539
4.3056
1.9104
-3.30573
-3.46946
-7.69464
1.85369
1.90049
4.29697
-7.19253
-4.43514
-7.06814
7.22395
-6.96135
-9.39859
9.30296
7.49076
-7.56597
-5.77512
5.82429
6.48184
-6.43966
1.87766
1.87602
6.41541
-6.26292
-16.2325
16.0823
8.98659
-9.19893
12.6291
-12.6649
-13.3773
13.4483
-5.76364
5.80187
-6.63547
6.59924
-6.81455
6.73765
-3.26717
-3.501
9.31334
-9.21934
11.7105
-11.7911
-8.37737
8.90744
3.3852
0.920391
3.43048
-1.88248
3.76014
-1.87135
3.78175
3.449
-6.71617
3.30434
-6.7738
6.09652
5.61396
-5.99046
-1.70418
-5.85356
5.88294
-5.81355
5.87307
8.98784
-8.98489
-1.8847
3.76072
-1.8694
3.76989
-3.42064
-2.35448
3.37644
0.920531
5.68961
3.62373
-5.80409
-1.26405
-7.65853
7.48016
-7.96701
7.76559
-0.451704
5.83952
-5.38782
4.41194
-1.64346
7.48298
5.58049
5.7655
5.86291
-5.59156
1.09844
-6.48626
-6.39286
-2.61197
2.72756
2.67911
-2.51465
5.88881
1.60195
5.75949
-5.54099
-2.02498
-5.59412
3.81668
2.00761
3.86276
4.07584
2.406
4.11316
3.02935
-3.03757
0.00821833
-3.05909
6.08844
0.723155
-5.41357
-4.49304
4.0077
2.40772
3.86444
-4.75353
-1.50939
-4.38772
-9.85766
-6.37487
-10.297
10.115
5.96727
10.1366
-10.8634
10.912
6.34597
2.64062
6.1953
-5.38952
-3.80941
-5.73643
10.9089
-1.30273
-9.60614
-7.87504
-5.50225
7.80156
4.82753
7.98222
5.46606
8.0912
3.29607
7.6128
-8.1236
2.62135
-3.86749
-1.89615
-3.837
3.74199
2.05988
3.79382
-4.13234
-2.50313
-4.13555
-4.19944
-2.61511
4.26097
2.33827
-4.31041
-3.6566
4.44543
2.29222
3.15651
-7.59165
3.6545
-7.1555
-6.53062
-2.68872
-6.44974
4.23106
2.58669
-6.81775
-2.48512
10.9631
-5.34914
9.25892
-7.22413
-4.56701
-7.2959
-6.84167
-1.5357
-6.59897
-8.79218
8.25776
-9.13933
8.45995
12.6356
-5.78455
-6.85101
-3.97006
-2.4696
3.92321
-0.492734
-3.71135
3.71957
0.0487887
3.83054
4.75093
4.2582
-3.87358
-1.93997
-3.82666
3.82995
2.04312
3.89448
6.77343
2.21441
6.83655
-6.4037
-2.5812
-6.54184
9.14203
-8.69754
2.96409
-2.96787
5.17258
2.59301
-4.96274
-2.69578
6.03802
-3.03366
-3.00436
-12.3706
10.9062
1.46437
-4.88761
-0.475673
0.0153557
-5.60654
-3.79206
5.49363
0.271872
11.1781
7.38604
-5.5169
5.76254
6.16723
6.22188
-0.170979
5.92459
-5.20573
5.2568
-2.30922
-2.94758
5.27702
-5.47839
-1.26482
-5.25843
3.99361
0.281093
1.91798
-1.62815
-2.06757
-0.544405
-1.97664
1.6383
1.04081
1.82712
0.940811
1.78675
-2.96933
0.619046
2.35029
-2.02852
-1.8956
-3.48441
-0.961486
4.4459
5.42714
2.05303
-5.34618
-0.247941
2.76751
-2.70798
-0.699402
-2.78501
2.14395
-2.84336
-3.45984
-1.88744
5.34728
-3.36389
-0.462776
3.3147
0.548057
-3.80412
-2.04944
3.76102
0.352147
-3.13293
6.23345
-3.10052
-5.0729
2.53173
3.55672
4.53934
-4.79286
2.43895
2.35392
-1.23615
4.03305
-0.168615
3.60153
-5.95162
4.44223
5.39558
3.51185
-5.76221
1.37449
-4.57713
9.18611
-8.30495
-0.881159
4.54698
4.63913
7.32696
5.3086
-5.71233
13.0393
-2.41722
-5.88773
6.99434
-3.48249
5.52074
-9.00323
-10.8293
4.94161
-11.1431
10.9191
0.224068
-2.60071
-8.26274
13.7438
-1.99876
-11.7451
8.13784
-6.24318
-4.16616
10.4093
-7.54591
7.97557
-3.6939
-4.28167
-8.51073
-4.15416
8.49624
2.41576
-9.50569
12.127
-1.8929
5.69438
0.500919
5.60203
5.25532
-5.68078
0.42546
2.29059
-5.98449
4.57259
-10.2534
-5.0896
9.80078
-4.71118
-7.77832
-7.11543
-0.662889
1.81884
10.3082
-7.28489
5.37804
1.90685
3.32882
0.565663
-3.37882
-0.458172
0.363114
4.46203
-4.82515
4.15694
4.23667
3.36667
1.09536
3.78031
2.10263
-3.80428
-0.331269
-4.0805
1.46539
-1.74223
-3.60857
5.07396
-4.02586
0.417293
-2.69297
-3.51987
6.21284
-4.58913
3.07553
3.15792
5.11865
-4.91664
1.39678
-2.41399
-2.50266
2.62909
-4.37132
1.93822
3.13574
4.23044
0.57384
5.02083
4.77994
-7.60752
0.452027
8.40367
-7.13962
1.93672
6.15447
-7.31476
0.199335
-6.25041
1.05196
-6.4011
-5.76578
5.3893
-6.925
-3.61393
6.16323
0.673313
-6.22629
-0.372678
-5.90702
-2.88516
-6.37447
-3.11776
-6.02157
-8.83008
-1.58645
-7.24364
6.67132
-6.69552
-3.60146
7.39263
1.06732
-7.37016
7.32749
-7.42029
7.07712
0.0948449
3.62472
4.35304
1.88345
-2.38858
4.27202
-4.97483
7.18924
-8.4641
3.48927
3.99032
-6.57151
-4.47378
5.04037
4.10166
5.38084
9.05228
-10.6615
1.60921
-11.0006
12.2403
-1.23964
-16.8156
5.81502
-7.76335
2.69221
0.271887
2.67811
0.678685
2.40651
-3.08519
-2.28919
-2.28672
-2.23868
-3.30879
5.54747
1.09302
-3.28681
2.19379
-3.44054
4.53356
-0.00592745
-3.28088
5.17885
-2.77235
5.45074
-3.44647
2.00427
3.26567
5.51956
-2.25389
4.26047
-1.66746
1.7441
-3.99799
-1.56469
-2.99028
5.05017
-3.22256
3.63985
-0.225019
3.86487
-4.00122
0.967562
-0.634546
3.60213
3.75931
4.14492
-3.04956
2.85744
-4.5249
-1.14056
-3.95106
-0.815313
-0.212622
-3.78248
3.99511
6.12532
-6.33794
-5.35061
9.63678
-4.28617
7.74071
-5.49075
-2.24996
-4.31046
-4.38708
3.9276
1.99699
9.73769
0.164582
-5.65533
-5.04115
-4.00731
3.23003
2.02676
-2.07121
3.53557
2.05585
-0.137873
0.590746
1.23637
1.91854
-1.32779
0.199377
1.71916
-1.42877
1.98152
0.78599
-2.07062
0.0939769
-1.27714
3.42109
1.07315
-2.11396
0.786169
1.08073
-3.38995
4.62845
-2.35922
-2.26924
5.70918
1.18691
-3.54613
4.07152
-3.79043
2.29641
-3.2579
-1.24972
-5.04015
-3.43819
-2.42659
4.62038
-3.12088
5.17391
1.16054
-4.92597
6.08651
-3.54372
1.65628
-2.95233
3.73832
-0.989837
-1.96249
2.7944
2.55288
-2.86669
0.0816819
-0.0722937
2.33098
-2.40327
-0.512376
-2.5409
-4.54839
4.90054
-2.12963
4.56858
2.14239
-1.90563
6.47421
1.82273
-3.72837
-3.25017
-3.71295
-1.37445
3.16489
-1.709
-4.02743
-5.99068
4.45
-0.84847
-6.32758
8.41966
-2.09208
-3.91986
-0.522369
5.06935
-7.85905
1.87456
-3.28646
5.1332
4.96458
4.11611
-12.6122
0.867121
-6.64494
1.54579
-8.19073
6.18491
-3.29483
8.23644
-10.8118
7.21032
-9.74446
7.35528
-0.83545
5.79194
-5.36648
3.81419
-7.96835
-5.55259
6.68725
-4.04663
7.18817
-4.46981
11.658
-6.36271
7.05321
4.60477
-1.509
-5.7869
-6.79714
5.28814
0.256071
5.8581
4.93432
-2.8317
4.60305
2.2714
-4.68538
-2.09993
-6.55102
1.86564
-3.3931
-1.91657
3.78221
3.20208
3.76774
1.27955
-3.30957
6.95253
-7.61542
-2.24135
-3.52443
6.78186
-1.49372
4.18625
-7.71068
-2.21485
4.97352
-0.979656
-3.99387
0.811029
-4.42496
1.71331
-6.13826
5.21169
-5.58437
2.18842
-9.95177
-5.18174
-5.0591
-2.23769
-5.1826
-7.6939
5.45621
-1.87888
5.44862
-8.76454
7.78488
-3.47572
8.93193
-5.32519
-1.04928
5.76484
1.31228
10.2442
0.0833334
-4.55712
-1.8042
3.80461
-2.00041
1.42583
-3.69915
0.105461
2.4676
3.24158
-6.46121
-0.110302
-4.66742
-3.91309
8.01475
5.7237
11.849
1.18752
9.24946
-1.23471
10.437
4.14613
4.39237
-3.05279
4.662
0.942321
4.43159
-0.812744
2.81702
1.86537
1.85346
0.854524
2.30455
1.45476
3.27211
0.18692
-2.0998
4.67754
-8.68485
-0.977788
-8.13221
1.17075
5.48853
-4.31778
3.03506
-1.0083
1.03465
0.196069
-1.82376
1.62769
-2.75151
-1.96163
-0.242471
-1.56717
2.35334
1.85392
-2.11087
-0.640641
0.265662
-3.70386
2.99224
-2.91055
-0.357671
5.72884
-2.7094
0.306132
-1.05312
-2.23477
-2.77917
2.6852
6.2138
0.260409
3.11328
5.16095
3.11151
0.27982
7.02224
-6.79817
-3.23114
-5.93105
0.253868
5.32322
2.41055
7.89766
7.01531
5.52159
-2.1891
-9.80451
6.56983
-1.90783
5.33018
-1.33632
-4.80195
4.92432
2.26491
-5.59764
0.0132689
-4.78868
-6.69651
-0.59919
8.38407
-9.64502
8.59574
5.71058
1.53306
-4.38009
-0.679011
4.19857
0.193801
10.6308
-0.93247
-7.22322
8.15569
-4.55606
3.57828
0.823079
2.7125
2.45077
1.44247
-5.78075
-10.0985
-1.75415
-1.63579
-4.02339
0.422509
-2.27643
6.14024
-2.56196
3.89027
5.59373
6.62838
-2.14353
-4.19441
6.4297
-2.53943
4.08895
)
;

boundaryField
{
    wall-4
    {
        type            calculated;
        value           uniform 0;
    }
    velocity-inlet-5
    {
        type            calculated;
        value           uniform -3.75095;
    }
    velocity-inlet-6
    {
        type            calculated;
        value           uniform -5.62643;
    }
    pressure-outlet-7
    {
        type            calculated;
        value           nonuniform List<scalar> 8(6.0751 5.89787 6.55012 6.86669 6.78023 6.78608 6.75256 6.80468);
    }
    wall-8
    {
        type            calculated;
        value           uniform 0;
    }
    frontAndBackPlanes
    {
        type            empty;
        value           nonuniform 0();
    }
}


// ************************************************************************* //
