/*--------------------------------*- C++ -*----------------------------------*\
  =========                 |
  \\      /  F ield         | OpenFOAM: The Open Source CFD Toolbox
   \\    /   O peration     | Website:  https://openfoam.org
    \\  /    A nd           | Version:  6
     \\/     M anipulation  |
\*---------------------------------------------------------------------------*/
FoamFile
{
    version     2.0;
    format      ascii;
    class       volVectorField;
    location    "18";
    object      U;
}
// * * * * * * * * * * * * * * * * * * * * * * * * * * * * * * * * * * * * * //

dimensions      [0 1 -1 0 0 0 0];

internalField   nonuniform List<vector> 
918
(
(0.985033 -0.000746368 0)
(0.00530757 2.96627 0)
(-0.0106554 1.60794 0)
(0.979647 0.00187189 0)
(-0.0033615 1.57106 2.33124e-21)
(-0.00704912 2.94854 -2.03378e-18)
(0.849407 1.1726 7.12336e-19)
(0.458895 0.189652 -8.94177e-21)
(0.999914 -0.000289907 0)
(0.0492801 0.771203 0)
(-0.0112979 1.22093 0)
(0.785707 -0.00886265 0)
(0.0101695 2.93151 0)
(0.00285307 2.79392 0)
(-0.0012601 3.20143 1.12222e-18)
(-0.00501861 1.48264 -1.01729e-20)
(0.570165 0.0764864 5.65435e-19)
(0.205444 1.11163 6.35084e-19)
(0.965189 0.00696707 0)
(-0.00530619 1.36354 0)
(0.175153 0.264118 -4.67802e-19)
(1.00186 -0.00446787 0)
(0.999945 -0.0088361 0)
(0.975239 -0.00635029 0)
(0.70703 -0.0226172 0)
(0.0245421 2.63827 0)
(-0.0126917 2.91203 7.04577e-19)
(-0.0219769 1.6315 0)
(-0.0226566 1.74989 0)
(-0.0217018 1.62694 0)
(-0.00597691 1.82963 0)
(-0.00301939 1.59361 -1.84429e-21)
(-0.00492709 1.48405 0)
(-0.0222435 2.98758 -7.173e-23)
(-0.0165427 3.00552 1.5811e-18)
(0.00229974 3.00066 0)
(0.872455 -0.0065086 0)
(0.358739 0.906107 -3.16502e-20)
(0.857331 1.18578 -1.04945e-18)
(0.994918 1.04294 9.58759e-19)
(0.720217 1.26515 -1.66049e-19)
(0.731815 1.23862 9.42312e-19)
(0.492062 0.27344 8.72413e-21)
(0.485922 0.164773 0)
(1.18309 0.532867 0)
(0.456368 0.303759 4.07899e-20)
(0.408777 0.203904 -4.23278e-20)
(0.920037 -0.00620621 0)
(1.00035 1.47979e-05 0)
(0.999905 0.000323752 0)
(1.00338 -0.00761815 0)
(1.00098 -0.0012082 0)
(1.00014 -0.000103262 0)
(0.0455061 1.70959 -2.63619e-19)
(0.0477178 0.892382 0)
(0.113019 0.807027 0)
(-0.00872209 0.896284 0)
(-0.00322711 0.813106 0)
(0.0114766 1.57859 0)
(-0.0219936 1.35435 0)
(-0.0259437 1.16545 0)
(-0.0151876 1.42363 0)
(-0.0104412 1.25123 0)
(0.863951 -0.00065733 0)
(0.876469 0.0128631 0)
(0.798233 -0.00376551 0)
(0.87022 0.0166191 0)
(0.767585 -0.00910817 0)
(0.0139966 3.00017 7.47016e-19)
(0.0112634 3.00568 0)
(0.00644233 3.00399 0)
(0.0119203 2.99697 8.36743e-24)
(0.00834291 2.95871 -1.11025e-18)
(0.0122583 2.98298 0)
(0.00895663 2.90472 0)
(0.0215799 2.93088 1.55816e-24)
(0.00389072 2.82404 0)
(0.0271914 2.91828 0)
(-0.00140827 2.74393 0)
(0.311005 3.60275 0)
(-0.123271 3.6864 0)
(0.152614 3.29244 -1.04449e-18)
(0.00682803 3.02265 0)
(-0.0144934 1.808 0)
(-0.00250188 1.62794 1.00354e-20)
(-0.00336903 1.49168 -1.68519e-20)
(0.620209 0.142206 -1.94409e-19)
(0.577756 0.0370602 -1.87516e-19)
(0.603227 0.182179 -5.8738e-19)
(0.543201 0.109938 -3.91549e-19)
(0.286999 0.947785 0)
(0.307855 1.25475 -6.38148e-19)
(0.378045 1.25384 1.05165e-18)
(0.988572 0.0085354 0)
(0.944659 0.00724785 0)
(1.00028 0.000764953 0)
(1.00247 0.00917871 0)
(1.00309 0.0092714 -1.06299e-18)
(0.992033 0.00937097 8.03653e-19)
(-0.0187117 1.51252 0)
(-0.00914215 1.34506 0)
(-0.0293339 1.63445 0)
(-0.0232068 1.55271 0)
(-0.00556634 1.40556 0)
(0.237609 0.277004 1.44812e-19)
(0.278332 0.251791 0)
(0.993826 -0.00723443 0)
(0.953868 -0.00653971 0)
(0.841946 0.0240677 0)
(0.807217 0.0355287 0)
(0.743151 -0.0175265 0)
(1.01585 -0.00284335 0)
(0.760297 0.047344 0)
(0.629529 -0.0162192 7.41291e-19)
(-0.0392536 2.86387 4.29474e-19)
(0.0349797 2.91318 0)
(0.0446401 2.88973 0)
(0.00296793 2.69906 0)
(-0.00859604 2.98615 6.60793e-19)
(-0.0146617 2.8949 0)
(-0.0110711 2.99179 -2.06242e-18)
(-0.0116542 2.92984 7.06314e-19)
(-0.0187944 1.81382 0)
(-0.0143902 1.80938 0)
(-0.00400605 1.62507 -1.92488e-22)
(-0.00277104 1.59451 0)
(-0.00572954 1.48439 0)
(0.933848 -0.00295503 0)
(0.858354 -0.00706426 0)
(0.871496 0.00856836 0)
(0.947751 -0.00386389 0)
(0.886404 -0.00524856 0)
(0.485107 1.10909 2.83714e-20)
(0.537105 1.18459 0)
(0.313467 0.830755 4.64706e-21)
(0.260216 0.698106 0)
(0.955756 1.07225 -2.79086e-19)
(1.0709 0.866981 5.62856e-19)
(0.48936 1.345 0)
(0.571141 1.33592 0)
(0.593926 1.24939 0)
(0.100765 0.108813 -1.1597e-19)
(0.518019 0.248839 0)
(0.500429 0.155096 1.11589e-19)
(1.03259 0.919042 0)
(1.10108 0.757581 0)
(1.13247 0.690945 -4.87801e-19)
(1.16076 0.597834 0)
(1.21704 0.388111 4.77386e-20)
(0.956213 -0.00480831 0)
(0.961644 -0.00671465 0)
(0.900741 -0.00502946 0)
(0.983792 -0.00729081 0)
(0.975318 -0.00721546 0)
(0.936513 -0.00546683 0)
(1.00034 0.00262179 0)
(1.00082 0.00127817 0)
(1.00001 0.000770559 0)
(-0.0344213 1.9483 1.63012e-19)
(0.117395 1.64347 0)
(0.00919323 1.91793 1.72344e-19)
(0.0358447 1.67384 -1.03238e-19)
(0.106358 1.12159 -5.2675e-19)
(0.0888182 1.00281 0)
(0.163728 0.935661 0)
(-0.0567474 0.994307 0)
(-0.0363805 0.933599 0)
(0.0329621 1.74167 -7.08322e-22)
(0.00601898 1.57672 0)
(0.00909266 1.73253 -1.72725e-20)
(-0.0088301 1.57035 4.16902e-20)
(-0.046389 1.13606 0)
(-0.0412575 1.26226 0)
(-0.0296417 1.0662 0)
(-0.0131442 1.46718 0)
(-0.00846198 1.28092 0)
(0.948624 0.016656 0)
(0.888329 0.00303132 0)
(0.929449 0.0103943 0)
(0.855217 -0.00167143 0)
(0.817138 0.00179946 0)
(0.90701 0.00988324 0)
(0.893174 0.00688982 0)
(0.802418 -0.00374322 0)
(0.010387 3.06716 -6.61079e-21)
(0.0147367 3.0596 0)
(0.012506 2.97039 0)
(0.00759086 2.8764 0)
(0.901151 4.00203 0)
(1.19657 3.39227 1.02033e-18)
(0.0836506 3.10415 0)
(-0.0152396 2.92554 0)
(-0.0175603 1.79883 0)
(-0.0182741 1.80262 0)
(-0.0161744 1.80004 0)
(-0.00944515 1.81786 3.66451e-21)
(-0.0138061 1.81615 0)
(-0.0113629 1.81429 0)
(-0.00495228 1.50653 -2.96496e-22)
(-0.000489143 1.66599 1.53723e-20)
(0.000508012 1.64473 1.72319e-20)
(-0.00322355 1.49113 0)
(0.636741 0.104879 2.8809e-19)
(0.571353 0.00935122 -2.81014e-19)
(0.229081 1.52288 0)
(0.315074 0.692894 -2.29626e-19)
(0.180378 1.63534 -8.05695e-19)
(0.225062 1.16412 8.06147e-19)
(0.905865 0.00852588 0)
(0.967939 0.010972 0)
(0.975627 0.0108037 0)
(0.925699 0.00868519 0)
(-0.0156544 1.48824 0)
(-0.0179349 1.49798 0)
(-0.00903014 1.30992 0)
(0.405372 0.309728 3.74476e-19)
(0.353263 0.284068 -4.551e-19)
(0.366747 0.228994 0)
(1.13513 0.0865908 -4.79858e-21)
(1.12229 0.0414748 0)
(1.04862 0.0410705 0)
(0.953598 0.00967559 0)
(0.650757 0.0776899 0)
(0.691619 0.0544609 -1.20321e-18)
(0.57833 -0.0144477 4.67201e-19)
(0.0115945 2.97808 5.1063e-19)
(-0.0327704 2.8633 4.67768e-20)
(0.00858413 3.05316 -1.41749e-20)
(0.0152318 3.04367 5.40304e-19)
(-0.0119201 3.00007 2.34846e-20)
(-0.0122219 2.95243 -9.53903e-23)
(-0.0149986 3.01339 -4.49612e-19)
(0.0138573 3.02702 3.14384e-19)
(0.00743026 3.03432 -5.04461e-19)
(0.929103 0.00564124 0)
(0.933437 0.000280784 0)
(0.850578 -0.00460795 0)
(0.957765 0.0125653 0)
(0.944761 0.0118694 0)
(0.887386 0.0101049 0)
(0.922338 0.0125717 0)
(0.932342 0.0138677 0)
(0.846263 0.00879653 0)
(0.666866 1.41694 2.83147e-19)
(0.687597 1.53066 0)
(0.188 0.364156 2.26858e-20)
(0.143421 0.523896 1.80319e-19)
(0.221641 0.645972 -1.04272e-19)
(0.19012 0.537622 1.92751e-19)
(0.29726 0.674214 6.88286e-19)
(0.116231 0.153274 2.23071e-19)
(0.567281 0.216581 4.21942e-19)
(0.54554 0.237707 1.03634e-19)
(0.520591 0.137635 2.10267e-19)
(1.20797 0.445205 3.12069e-19)
(1.2312 0.244525 3.2577e-19)
(0.0120128 1.85104 3.55686e-20)
(0.00916232 1.6096 0)
(0.995652 0.0317588 0)
(0.962067 0.0213224 0)
(0.912814 0.000901088 0)
(0.0120255 3.0752 0)
(0.0171853 2.94374 9.04503e-19)
(0.014173 2.95684 0)
(0.00579742 2.84952 -8.97874e-19)
(0.00857634 3.09049 2.17343e-19)
(0.0119369 3.08239 0)
(0.709092 1.83071 -2.45533e-19)
(1.24054 2.64475 8.18109e-19)
(0.694483 2.01156 -1.64262e-18)
(0.0234791 2.97968 -3.96272e-19)
(0.0425118 3.00569 0)
(-0.0367697 2.88328 0)
(0.00191951 1.69406 -4.7126e-22)
(-0.00164982 1.68747 -3.27391e-20)
(-0.0029357 1.53669 -6.44719e-21)
(0.261082 1.30089 7.34741e-19)
(0.287745 0.444417 -5.03952e-19)
(0.00959693 1.91448 4.94189e-19)
(0.0871444 1.83773 -6.23246e-19)
(0.176818 1.46256 9.58227e-20)
(0.00618846 3.12048 -1.15075e-18)
(0.0133554 3.12087 1.26422e-18)
(-0.00475812 2.98046 5.93527e-19)
(-0.00105603 2.97568 -5.42847e-19)
(-0.017742 2.87813 -6.04527e-19)
(0.012723 3.09994 -1.59522e-18)
(0.00542864 3.105 1.61198e-18)
(0.185807 0.55579 0)
(0.123998 0.50585 -3.62287e-19)
(0.100131 0.159742 1.60434e-19)
(0.310914 0.777855 6.63059e-19)
(0.184593 0.199355 -1.01107e-18)
(1.21979 0.169194 -6.52807e-20)
(1.22815 0.301892 0)
(1.21575 0.111788 1.29157e-19)
(0.0385104 1.7569 7.30761e-23)
(0.0277882 1.78287 0)
(0.0304517 1.59084 0)
(0.285095 1.19928 -2.59896e-19)
(0.330843 1.0154 -5.37859e-19)
(0.229606 0.31499 9.27496e-19)
(1.00674 -0.0102871 0)
(1.00764 -0.00731696 1.94914e-19)
(-0.0199599 1.80292 0)
(-0.0299476 1.81206 0)
(1.00246 0.0035895 1.52479e-21)
(1.00319 0.00759293 4.00419e-19)
(-0.00999814 1.822 -4.85559e-21)
(-0.00853666 1.8208 0)
(0.0467632 3.17939 2.13999e-19)
(0.382559 3.56419 0)
(1.07997 0.684974 6.017e-20)
(1.01154 0.0113851 -2.29478e-21)
(1.02086 -0.00916541 0)
(1.00164 2.65359e-05 3.66985e-23)
(0.0236075 1.11066 0)
(0.0957486 2.71435 0)
(-0.135242 1.59571 0)
(-0.0993562 2.08427 6.05572e-20)
(-0.0669481 1.93295 4.81153e-20)
(1.00576 0.0145821 2.67814e-21)
(1.04548 0.0141793 0)
(1.07355 0.0273072 0)
(-0.0202589 1.80558 0)
(-0.0106894 1.83862 0)
(-0.0275752 1.79465 0)
(0.308004 1.44164 -4.35077e-19)
(1.01058 -0.00908209 0)
(1.00939 -0.0143887 0)
(1.00222 0.000317892 2.45558e-19)
(1.00592 -0.00538406 -2.92716e-19)
(1.00124 -0.00112013 0)
(-0.0228553 1.80114 0)
(-0.0214808 1.79886 0)
(-0.0207477 1.80104 0)
(-0.0283414 1.79444 0)
(-0.0278677 1.79285 0)
(-0.0299333 1.79524 0)
(1.0249 -0.0121519 0)
(1.01862 0.012356 -1.2618e-21)
(0.767066 1.30647 5.31759e-19)
(1.0031 0.000269821 -2.47121e-19)
(1.00397 0.00475839 2.97426e-19)
(1.0012 0.00198407 0)
(1.01191 0.00980806 2.41852e-19)
(1.00708 0.00839508 -3.01498e-19)
(1.00813 0.0113855 0)
(-0.0108994 1.83829 0)
(-0.0107522 1.83029 9.26853e-21)
(-0.00885361 1.82922 -6.57515e-21)
(1.19162 0.261733 -9.16413e-20)
(1.12681 0.0941565 0)
(0.0536435 3.08949 -6.09918e-19)
(0.0535408 2.86647 -4.58624e-20)
(0.112392 3.20443 7.7481e-19)
(0.127084 3.21822 -9.30839e-20)
(0.152368 3.26937 0)
(0.0245187 3.13903 1.52576e-19)
(0.0672796 3.16296 6.0468e-19)
(0.0670099 3.18271 -2.88775e-19)
(0.0295099 3.12799 0)
(0.66889 0.339787 0)
(0.63706 0.385903 0)
(1.07362 0.708322 -2.33623e-19)
(1.03456 0.859169 3.66603e-19)
(1.13371 0.605296 0)
(1.16431 0.542988 0)
(1.01492 0.0116446 -4.45374e-19)
(1.0136 0.0117215 5.57339e-19)
(1.02484 -0.00880937 0)
(1.02255 -0.0137146 0)
(1.00711 0.00282659 0)
(1.01009 0.00308367 0)
(1.00408 0.00222168 0)
(1.00913 0.00715677 0)
(1.00786 0.00506531 0)
(1.00463 0.00519575 0)
(0.0160355 1.11797 0)
(-0.0716688 1.01864 0)
(0.164854 1.14647 0)
(0.128775 1.19539 0)
(0.108989 2.70685 0)
(0.176286 2.71505 -2.12842e-19)
(-0.0292252 2.74651 0)
(-0.0934317 2.68025 -5.47303e-21)
(-0.147834 2.42571 1.08011e-20)
(-0.109274 1.61646 0)
(-0.0844765 1.65333 0)
(-0.160738 1.54353 0)
(-0.150143 1.45396 0)
(-0.276567 1.96991 -1.41981e-21)
(-0.0878834 1.97652 4.05017e-20)
(-0.0924321 2.07531 5.0283e-20)
(-0.0649973 2.0244 0)
(-0.0636781 1.93155 -9.80571e-20)
(-0.0479197 1.90949 -3.46582e-20)
(-0.252398 1.93574 -3.01097e-21)
(-0.140647 1.93916 -5.31274e-20)
(-0.145327 2.0129 -6.58897e-20)
(1.01516 0.0238767 4.38791e-19)
(1.01533 0.0107874 -5.40193e-19)
(1.00678 0.0224313 -4.61171e-19)
(0.992002 0.0122624 5.86041e-19)
(1.04506 0.0162768 0)
(1.03166 -0.00105259 0)
(1.06618 0.0395604 0)
(1.05313 0.024441 0)
(1.05707 0.0144959 0)
(1.1047 0.0772577 0)
(1.08344 0.0513404 0)
(1.09653 0.0423315 0)
(-0.0131116 1.82424 -1.12393e-21)
(-0.0207896 1.81497 0)
(-0.016076 1.81724 0)
(-0.0142074 1.84916 1.26411e-20)
(-0.0129978 1.85102 -4.78095e-22)
(-0.0276333 1.80906 9.44249e-21)
(-0.0278037 1.80494 -9.51809e-21)
(-0.0303402 1.7999 0)
(-0.0288004 1.80146 0)
(-0.0287276 1.8012 0)
(-0.0294399 1.78947 0)
(-0.0228737 1.7754 0)
(0.387475 1.48502 8.14539e-19)
(0.373405 1.48731 3.12704e-19)
(0.617447 2.41206 -1.67723e-19)
(0.418688 2.51668 4.7929e-19)
(0.385113 2.05227 -1.97166e-20)
(1.0207 -0.00738048 0)
(1.01427 -0.00905547 0)
(1.01699 -0.014249 0)
(1.00748 -0.00100592 0)
(1.00446 -0.00125351 0)
(1.00708 -0.00410629 0)
(1.01066 -0.00471126 0)
(1.01354 -0.00526968 0)
(1.02089 0.0134502 4.34795e-19)
(1.0133 0.00989353 -5.45922e-19)
(1.02217 0.015653 -4.37234e-19)
(1.01766 0.0158202 5.46575e-19)
(0.7352 1.34142 0)
(0.657427 1.38483 5.97744e-19)
(0.844337 1.21815 3.48293e-19)
(0.850582 1.20796 -4.61714e-19)
(1.15638 2.62445 -4.9214e-19)
(0.835917 0.12717 2.93146e-19)
(1.13206 0.0995512 0)
(1.16783 0.181054 7.51026e-20)
(1.15369 0.157481 3.52507e-21)
(0.978303 0.124231 0)
(0.103412 3.03536 -8.22577e-20)
(0.0990975 2.90601 -6.94944e-19)
(0.0501227 2.35462 4.62772e-19)
(0.155982 0.0654056 -2.1797e-19)
(0.348143 3.46582 -4.74225e-19)
(0.199135 3.35458 0)
(0.230388 3.41718 6.17734e-19)
(0.237881 3.09267 -2.20213e-19)
(0.274197 3.21406 0)
(0.00804707 3.12201 3.2189e-20)
(0.0186727 3.13105 -3.89237e-19)
(0.0175599 3.1269 5.72913e-19)
(0.0364056 3.13985 0)
(0.0345123 3.15098 0)
(1.25439 2.59111 0)
(0.491046 0.840207 -2.32599e-19)
(0.960275 1.04533 -1.94308e-19)
(0.945411 1.06521 0)
(0.797593 0.947527 4.81823e-20)
(1.02797 0.8989 2.94193e-20)
(0.443438 0.454615 -5.43618e-19)
(0.705898 0.332567 -2.41531e-20)
(0.696563 0.285725 2.22713e-19)
(0.641783 0.4081 1.75082e-20)
(0.583491 0.410887 -7.22145e-19)
(0.684932 0.34915 0)
(0.710274 0.421077 3.6857e-19)
(0.707899 0.420161 0)
(0.67295 0.37502 0)
(0.649512 0.33915 0)
(0.721918 0.609085 1.27914e-19)
(1.19412 0.283906 6.88616e-20)
(1.16945 0.417451 0)
(1.18339 0.38943 0)
(0.764404 0.218996 3.3708e-19)
(0.787564 0.515861 -1.86746e-19)
(0.732319 0.479469 3.06693e-19)
(0.908261 0.413225 -2.76886e-19)
(1.01918 0.0110977 2.92277e-19)
(1.01673 0.0118025 -2.97874e-19)
(1.01419 0.0112305 0)
(1.0261 -0.0128815 0)
(1.02604 -0.0122464 -2.68281e-19)
(1.02185 -0.0169315 2.65352e-19)
(1.02993 0.00564445 0)
(1.02691 0.0148195 0)
(1.01263 0.00489812 0)
(1.01416 0.00871871 0)
(1.0163 0.00335516 0)
(1.01422 0.00180616 0)
(-0.156066 1.12845 0)
(-0.173171 1.14224 0)
(0.239744 1.11885 5.07679e-19)
(0.29442 1.44499 2.60374e-19)
(0.225223 1.30882 5.75473e-19)
(0.212735 1.34193 -9.13545e-19)
(0.325946 1.27144 0)
(0.365345 1.73134 4.50453e-19)
(0.256128 1.73723 0)
(0.415228 2.0392 2.87004e-20)
(0.377965 2.40714 2.1089e-19)
(0.464868 1.42597 -3.9209e-19)
(0.380671 1.40179 1.99696e-19)
(0.375324 1.26485 -1.62861e-19)
(0.408752 1.35989 3.30145e-19)
(0.422073 1.67306 0)
(0.408184 1.66048 -2.14325e-19)
(-0.337804 2.30993 1.18905e-19)
(-0.165316 2.53879 0)
(-0.179547 2.51685 -2.79867e-19)
(-0.256054 2.46447 0)
(-0.12022 2.66103 4.28153e-21)
(-0.127449 2.59616 0)
(-0.256815 1.72101 5.29045e-20)
(-0.341708 1.80019 0)
(-0.279105 1.59074 0)
(-0.243986 1.61074 -5.96777e-20)
(-0.142972 2.19127 -6.25408e-20)
(-0.13723 2.38447 -1.91461e-20)
(-0.0979201 2.25184 -5.73818e-23)
(-0.150837 1.85734 1.81975e-20)
(-0.18995 1.8495 3.01089e-21)
(-0.0650612 1.69161 0)
(-0.0416416 1.7141 0)
(-0.419208 1.90474 -1.98751e-19)
(-0.351761 1.61743 -2.08004e-19)
(-0.354194 1.79207 2.55224e-19)
(-0.391422 1.84133 0)
(-0.0282902 1.8346 -4.44132e-20)
(-0.0287342 1.84937 1.89497e-20)
(-0.0348226 1.85456 -6.37896e-21)
(-0.122291 1.83311 -2.20439e-20)
(-0.0673316 1.88391 -1.05888e-20)
(-0.0787824 1.8991 6.27793e-20)
(1.02251 0.016422 -2.87103e-19)
(1.0236 0.0152674 2.88949e-19)
(1.01892 0.0136345 0)
(1.00163 0.0430121 4.16329e-19)
(0.994176 0.0309366 -4.88277e-19)
(0.970867 0.0286265 5.59113e-19)
(0.996943 0.0812676 -5.4667e-20)
(1.02725 -0.0119082 0)
(1.03217 0.00116418 2.397e-19)
(1.02395 -0.012957 -2.4446e-19)
(1.05044 0.0387942 -1.31757e-20)
(1.04968 0.0324239 1.17371e-19)
(1.04805 0.0550228 0)
(1.03813 0.0455831 -4.43375e-20)
(1.03022 0.0311468 0)
(1.02612 0.0227487 0)
(1.03515 0.00894869 0)
(1.03144 0.0117341 0)
(1.03752 0.0292843 9.16247e-20)
(1.04078 0.0218437 -2.08219e-19)
(1.04167 0.0334739 -9.2243e-20)
(1.0402 0.0329363 -1.0715e-19)
(1.04494 0.0594662 1.89733e-19)
(1.07027 0.0553598 0)
(1.05875 0.0945499 0)
(-0.0258084 1.83411 -1.44411e-20)
(-0.0217398 1.81864 -1.29419e-21)
(-0.0244844 1.82081 0)
(-0.0170087 1.83381 1.45032e-20)
(-0.015505 1.82668 2.3544e-21)
(-0.0151605 1.83095 -2.41435e-21)
(-0.0432539 1.90081 2.83311e-20)
(-0.0409911 1.86733 -2.4093e-21)
(-0.0538244 1.87419 1.18284e-20)
(-0.0235102 1.87157 -1.5225e-20)
(-0.0282613 1.8767 1.86008e-20)
(-0.0325836 1.80577 2.60061e-22)
(-0.0335234 1.81315 1.85377e-20)
(0.433481 1.4189 -3.96669e-19)
(0.410165 1.41669 -3.79156e-19)
(0.635999 1.4234 -5.78425e-19)
(0.504202 1.48397 -3.10801e-19)
(0.52858 1.469 0)
(0.60954 2.38237 1.35675e-19)
(0.677444 2.36313 2.30959e-19)
(0.437497 2.48753 8.52383e-20)
(0.431097 2.55527 -1.43061e-19)
(0.542321 2.50989 2.88424e-19)
(0.547132 2.43413 0)
(0.508473 2.47812 -3.80979e-19)
(0.288682 2.61704 6.44042e-19)
(0.380743 2.53977 -8.00092e-20)
(0.292297 2.65275 -1.01759e-18)
(0.927912 2.37988 1.96722e-19)
(0.825748 2.35515 0)
(1.01091 0.000888268 9.67959e-21)
(1.01545 -0.00504804 -8.00382e-21)
(1.01544 -0.00397308 -1.40725e-19)
(1.0146 -0.00141032 1.45271e-19)
(1.01339 0.000573833 0)
(0.617686 1.26499 0)
(0.646012 1.15271 0)
(0.745474 1.09148 0)
(0.630028 1.1245 0)
(1.18659 2.64678 4.19341e-20)
(1.07025 2.3762 0)
(0.840488 2.27027 -2.01207e-21)
(0.819701 2.50653 0)
(0.913979 2.58948 7.60271e-21)
(0.947975 2.53707 -5.09958e-21)
(0.836854 0.138096 0)
(0.809568 0.151061 8.49439e-20)
(0.925104 0.131254 4.32339e-19)
(0.86393 0.107529 -1.71029e-19)
(0.850188 0.0786755 -5.24179e-19)
(1.02658 0.208652 -2.43429e-19)
(0.945879 0.268905 -9.60929e-21)
(0.892033 0.302417 3.79009e-19)
(0.978896 0.209268 2.8066e-19)
(0.924613 0.170229 -5.45055e-19)
(0.89453 0.178096 7.25157e-20)
(0.916019 0.280997 -1.32073e-19)
(0.893516 0.191681 0)
(0.972316 0.167666 2.58681e-19)
(1.00552 0.172195 0)
(1.0067 0.185101 0)
(1.08514 0.108085 7.56624e-20)
(1.01437 0.151726 -1.01122e-20)
(1.01717 0.216547 -4.89674e-20)
(1.06265 0.185491 0)
(1.01854 0.0279734 2.19851e-19)
(1.0312 0.0466987 2.61684e-19)
(1.02715 0.033138 -2.18497e-19)
(1.02377 0.0480638 -1.7595e-19)
(1.0078 0.0490424 -2.93003e-19)
(0.977213 0.126148 0)
(0.977735 0.0758518 0)
(0.970066 0.045788 -2.01324e-19)
(0.935522 0.0602895 8.49991e-20)
(1.00966 0.0817781 2.48395e-19)
(1.02904 0.110016 -2.40871e-19)
(1.02093 0.14159 2.26857e-19)
(0.999915 0.122345 0)
(1.04277 0.0974265 0)
(1.0263 0.0832549 -1.02289e-19)
(1.02466 0.0791165 -1.97804e-19)
(0.59419 1.09303 -1.01662e-19)
(0.620937 1.45603 2.12528e-19)
(1.14865 2.75265 4.73124e-20)
(1.19437 3.13077 -6.59754e-20)
(1.2481 2.74705 5.08073e-19)
(1.29113 2.71686 -2.64331e-19)
(1.26213 2.32921 -3.57689e-20)
(1.18057 3.03376 1.88721e-19)
(1.19988 2.99 -1.83142e-19)
(1.1778 3.28262 -2.38934e-19)
(1.39845 2.99305 2.95486e-19)
(1.41074 2.93074 0)
(0.514042 0.857785 -1.1988e-20)
(0.25546 1.25982 2.85592e-19)
(0.484153 0.545005 3.50055e-19)
(0.344557 0.321104 4.06256e-19)
(0.58202 0.433678 4.0189e-19)
(0.555399 0.508029 -6.41552e-19)
(0.554416 0.511629 5.33545e-19)
(0.533042 0.471667 -2.11452e-19)
(0.511384 0.412057 4.83919e-19)
(0.770954 0.265677 -1.89331e-19)
(0.73762 0.291459 0)
(0.730055 0.259491 1.09814e-20)
(0.712918 0.50801 1.96318e-19)
(0.682341 0.476372 -7.20427e-19)
(0.645377 0.499277 2.32065e-20)
(0.657528 0.465526 0)
(0.649462 0.74115 1.41566e-19)
(0.739199 0.767357 8.93062e-20)
(0.690863 0.831351 -1.1059e-19)
(0.818196 0.791658 -2.11751e-20)
(0.873475 0.835602 1.27489e-20)
(0.876761 0.844176 -1.30879e-20)
(0.795543 0.637808 -2.17025e-19)
(0.881304 0.698069 1.96958e-20)
(0.941913 0.700387 0)
(0.927934 0.671875 -1.2168e-20)
(0.978073 0.31572 6.45662e-20)
(1.09602 0.294967 -6.38649e-21)
(1.01083 0.251632 9.90407e-20)
(0.949181 0.351466 -1.45338e-19)
(0.98222 0.438057 0)
(1.05181 0.405826 0)
(0.881855 0.3658 1.00901e-20)
(0.815411 0.297317 0)
(0.837392 0.280445 1.99445e-19)
(0.871507 0.306399 2.85949e-21)
(0.905559 0.42194 7.63567e-19)
(0.846869 0.488429 1.9114e-19)
(0.857807 0.435365 -2.53519e-19)
(0.804262 0.425413 2.68565e-19)
(0.798865 0.417176 1.80447e-19)
(0.78324 0.395353 -1.77339e-19)
(1.02467 -0.00783958 2.26956e-19)
(1.01966 -0.00503878 0)
(1.01771 -0.00312127 1.53403e-19)
(1.02343 -0.0050509 -3.45354e-19)
(1.02299 -0.00150962 1.67829e-19)
(1.0226 0.00824536 -3.55941e-19)
(1.02383 0.0094783 0)
(1.0221 0.0117841 -7.36753e-20)
(1.01733 0.00551927 1.85416e-19)
(1.01704 0.00971074 -9.3601e-20)
(1.01799 0.00832363 6.82169e-20)
(-0.210342 1.4042 0)
(-0.304086 1.53299 0)
(-0.20833 1.25338 0)
(-0.174303 1.28952 0)
(-0.218559 1.42316 -1.0904e-18)
(-0.0158655 1.22516 3.68297e-19)
(0.0606501 1.73476 3.05324e-19)
(0.0630386 1.36331 -2.41136e-19)
(-0.362743 1.60557 3.30497e-19)
(-0.36569 1.5899 -2.53839e-19)
(-0.264796 1.35707 1.20954e-19)
(-0.271426 1.37643 4.85512e-19)
(-0.270627 1.38826 5.5032e-20)
(-0.322383 1.49451 3.74288e-20)
(-0.149881 2.55145 3.03696e-19)
(-0.0418073 2.61576 0)
(0.0406825 2.29815 -4.34778e-20)
(0.0554311 1.87687 -1.86384e-19)
(0.392095 2.12025 5.19411e-20)
(0.237051 2.48271 0)
(0.239614 2.4629 -2.21914e-19)
(0.401661 2.41681 1.46207e-19)
(0.353317 2.13748 1.47235e-19)
(0.198771 2.32018 -2.52697e-20)
(0.0613199 2.50721 0)
(-0.361453 2.0808 1.85477e-19)
(-0.277602 2.13802 -1.38125e-20)
(-0.326466 2.05765 0)
(-0.287308 2.28019 -3.41091e-22)
(-0.355534 2.26685 -8.6157e-20)
(-0.169159 1.7075 -7.54386e-22)
(-0.114705 1.72784 1.96104e-20)
(-0.114671 1.75641 -7.45912e-21)
(-0.177338 1.75329 -4.85883e-21)
(-0.225957 1.73863 0)
(-0.093508 1.75894 0)
(-0.0311282 1.77245 1.41595e-20)
(-0.0511037 1.78143 -4.16732e-21)
(-0.0665467 1.77083 0)
(-0.0387374 1.74394 9.53453e-21)
(-0.0247321 1.75303 -2.04228e-20)
(1.03049 0.00845234 0)
(1.03862 0.0111904 -2.27481e-20)
(1.04431 0.0214567 -1.64451e-19)
(1.04443 0.0224132 0)
(1.04277 0.0218473 0)
(1.04382 0.00767064 -6.44128e-21)
(1.03952 0.00594728 2.77409e-19)
(1.04003 0.0122216 3.31333e-19)
(1.03311 0.0151013 0)
(1.02911 0.0145032 0)
(1.03888 0.0204767 1.66991e-19)
(1.0291 0.0159422 0)
(1.02901 0.0149594 0)
(-0.0594635 1.83458 0)
(-0.0408285 1.81113 2.72025e-21)
(-0.0455084 1.82648 9.86643e-21)
(-0.0407506 1.78877 0)
(-0.0474624 1.80747 9.44942e-21)
(-0.0385037 1.80335 -6.27159e-21)
(-0.0394208 1.79567 0)
(0.362824 1.69285 0)
(0.330368 1.35529 6.24799e-19)
(0.295606 1.38057 0)
(0.41825 1.31792 -7.99296e-19)
(0.487924 1.43678 0)
(0.443654 1.42685 3.78166e-19)
(1.02392 2.71601 -3.92294e-21)
(0.947412 2.4098 -2.47947e-19)
(0.881492 2.14849 3.07937e-19)
(0.846389 2.35159 1.2224e-19)
(0.843076 2.53238 0)
(0.907044 2.53386 0)
(0.911681 2.37141 0)
(0.892539 2.34009 -4.11494e-19)
(0.679214 2.51546 -3.55175e-20)
(0.802779 2.5075 -1.82308e-20)
(0.804317 2.48612 1.40061e-20)
(0.688844 2.34931 0)
(0.78867 2.34915 0)
(0.758217 2.35604 -2.32383e-19)
(0.760613 2.50235 0)
(0.582476 1.05604 0)
(0.49176 0.901857 -7.08094e-20)
(0.494956 0.959173 -2.63066e-21)
(0.493565 1.08118 0)
(0.473488 1.00772 1.17778e-19)
(0.727848 0.879382 6.02489e-21)
(0.758067 1.00509 0)
(0.728754 0.978713 -5.15189e-20)
(0.60385 1.01562 0)
(0.597773 0.936694 0)
(1.15967 2.78842 5.20538e-20)
(1.13829 2.85027 1.28382e-19)
(0.933593 2.39472 -3.03682e-19)
(0.904951 2.36219 4.27783e-20)
(1.12519 2.76661 0)
(1.0727 2.73715 -5.13968e-20)
(1.08259 2.50789 -6.95883e-20)
(0.973374 2.23382 -2.75415e-20)
(0.504887 1.38947 0)
(0.518417 1.06571 8.95836e-20)
(0.556298 1.14183 0)
(0.861833 0.200406 0)
(0.814524 0.154239 0)
(0.77155 0.162009 0)
(0.85459 0.213575 -3.11955e-19)
(0.79829 0.214859 1.9522e-19)
(0.937211 0.057907 -1.7116e-19)
(0.942953 0.105129 0)
(0.925216 0.113728 8.13585e-20)
(0.882926 0.0737243 3.33094e-19)
(0.883059 0.0531748 -2.04667e-19)
(1.10018 3.37356 -9.29338e-19)
(1.16527 3.29824 0)
(1.12205 3.45931 -2.01225e-18)
(0.660409 3.60606 1.6997e-18)
(1.02908 3.10963 4.2792e-19)
(0.497035 0.84766 2.0388e-19)
(0.48461 0.818521 0)
(0.385708 0.564693 -8.06503e-20)
(0.41874 0.694945 3.78033e-19)
(0.501909 0.546137 -1.12859e-19)
(0.499694 0.562858 1.25807e-19)
(0.654944 0.555425 2.57783e-19)
(0.668046 0.567502 0)
(0.605462 0.63807 0)
(0.576828 0.577875 0)
(0.93461 0.587044 -4.32421e-20)
(0.868172 0.521335 -1.8341e-19)
(0.898446 0.567932 7.16463e-20)
(0.944614 0.482864 -1.32779e-19)
(0.997195 0.464588 0)
(1.02157 0.579542 -4.2158e-21)
(0.827991 0.377585 -3.99931e-19)
(0.824837 0.372833 -4.79412e-19)
(0.792928 0.371704 3.15601e-19)
(0.780705 0.342628 -3.5334e-19)
(0.819491 0.308351 -2.64747e-19)
(0.787507 0.30481 3.24339e-19)
(1.02965 -0.002268 -1.7745e-19)
(1.03115 -0.00332981 3.62041e-19)
(1.02602 -0.00851699 2.16185e-19)
(1.02728 -0.00935034 -2.66419e-19)
(1.03302 0.00347609 0)
(1.03455 0.00228477 -4.36768e-19)
(-0.376407 1.97358 -5.21939e-20)
(-0.376795 1.82472 0)
(-0.229238 1.9044 -8.58603e-19)
(-0.113705 1.87591 8.08402e-19)
(-0.0654851 1.70268 -5.6952e-19)
(-0.260717 1.73914 0)
(-0.108335 1.82931 0)
(-0.089194 1.78288 -4.30134e-21)
(-0.0643618 1.78747 3.89149e-21)
(-0.0585421 1.80443 3.64021e-21)
(-0.0721403 1.83687 -1.14559e-20)
(-0.0832331 1.83515 8.5164e-21)
(0.484105 1.40938 4.06143e-19)
(0.467182 1.41172 -4.36711e-19)
(0.428595 1.30166 3.9119e-19)
(0.397858 1.33597 -2.45024e-20)
(0.620474 1.29673 0)
(0.553474 1.38773 5.16283e-19)
(0.573375 1.36008 -4.99532e-19)
(0.443555 1.2688 -3.82285e-19)
(0.483409 1.2162 0)
(0.550947 1.17309 0)
(0.637844 2.46815 5.22922e-20)
(0.663703 2.46425 6.33028e-19)
(0.711302 2.48069 -4.30032e-19)
(0.629754 2.4537 -1.31949e-19)
(0.558182 2.56439 1.25242e-19)
(0.536747 2.52016 -3.44492e-19)
(0.959464 2.37787 -1.69471e-19)
(1.00261 2.40745 0)
(0.898882 2.13997 -2.13156e-19)
(1.04093 2.71966 0)
(1.03812 2.70569 0)
(0.617129 2.33474 3.33716e-19)
(1.12164 3.10533 4.16428e-19)
(1.00063 2.9979 -4.87446e-19)
(0.347829 0.932392 0)
(0.368621 0.845787 -1.36154e-19)
(0.537477 0.758951 -6.88682e-20)
(0.386847 2.18184 0)
(0.421312 2.77154 -3.0263e-19)
(0.426166 2.5117 0)
(0.640843 0.692403 -2.99529e-19)
(0.695782 0.66924 4.23146e-19)
(0.702095 0.633607 -4.22516e-19)
(0.630789 0.669629 -4.38687e-20)
(0.69062 0.612729 -1.86628e-19)
(0.971526 2.78966 -3.15383e-19)
(1.0169 2.798 2.18358e-19)
(0.57236 2.26244 -1.28745e-19)
(0.616571 1.7944 4.25356e-20)
(0.69662 1.89331 -1.43123e-20)
(0.976465 2.43377 -1.14e-19)
(0.974252 2.38821 -4.14444e-20)
(0.654132 1.82652 2.16689e-21)
(0.455249 1.33013 -2.88503e-20)
)
;

boundaryField
{
    wall-4
    {
        type            noSlip;
    }
    velocity-inlet-5
    {
        type            fixedValue;
        value           uniform (1 0 0);
    }
    velocity-inlet-6
    {
        type            fixedValue;
        value           uniform (0 3 0);
    }
    pressure-outlet-7
    {
        type            zeroGradient;
    }
    wall-8
    {
        type            noSlip;
    }
    frontAndBackPlanes
    {
        type            empty;
    }
}


// ************************************************************************* //
