/*--------------------------------*- C++ -*----------------------------------*\
  =========                 |
  \\      /  F ield         | OpenFOAM: The Open Source CFD Toolbox
   \\    /   O peration     | Website:  https://openfoam.org
    \\  /    A nd           | Version:  6
     \\/     M anipulation  |
\*---------------------------------------------------------------------------*/
FoamFile
{
    version     2.0;
    format      ascii;
    class       surfaceScalarField;
    location    "23";
    object      phi;
}
// * * * * * * * * * * * * * * * * * * * * * * * * * * * * * * * * * * * * * //

dimensions      [0 3 -1 0 0 0 0];

internalField   nonuniform List<scalar> 
1300
(
3.75095
5.62643
-5.85178
3.75095
-5.77451
5.62643
-4.4246
4.4246
-1.1918
1.1918
1.87663
1.87432
-2.68539
2.68539
-2.71128
2.71128
-2.60849
2.60849
-5.24792
5.24792
-5.06874
5.06874
4.73503
-4.73503
-4.63548
4.63548
-1.6088
1.6088
-3.71043
3.71043
3.17435
-3.17435
-4.28344
4.28344
-0.405508
0.405508
-0.553607
4.30456
3.19735
3.19735
-2.26398
2.26398
-4.86732
4.86732
6.22247
-6.22247
8.84284
-8.84284
-2.99105
-3.44784
1.35434
-8.38971
-4.42018
-4.42018
-8.44106
8.44106
-2.81463
2.8118
2.94341
-2.94341
-1.71471
1.71471
-4.40481
-0.0197919
-4.40481
4.39588
0.0287168
4.39588
-1.32747
0.135663
-1.32747
3.95013
-3.95013
1.0299
0.1619
1.0299
3.06633
-3.06633
-1.87695
3.75358
1.87401
-1.87163
6.17619
-1.87932
3.75364
-5.88936
5.88936
-2.92271
0.237318
-2.92271
2.43898
0.246407
2.43898
-5.77697
5.77697
-2.3509
-0.360383
-2.3509
3.12462
-0.413338
3.12462
2.86684
-2.86684
-2.67262
0.0641247
-2.67262
2.53229
0.0762074
2.53229
0.353567
5.27286
-5.98
8.7918
-5.27286
0.0249413
5.21034
0.0375804
5.21034
-5.10492
0.0361798
-5.10492
5.01197
0.0567669
5.01197
4.83381
-0.0987818
4.83381
-4.84485
0.109825
-4.84485
-3.27871
-3.62926
-4.6759
0.0404164
-4.6759
-1.62231
0.0135164
-1.62231
1.59195
0.0168438
1.59195
-3.51784
3.51784
-4.18438
0.473953
-4.18438
3.12932
0.0450226
3.12932
1.86808
1.88287
5.61904
-5.61904
2.44469
-4.1149
-0.168535
-4.1149
-4.4573
-4.38554
4.4573
-0.173859
-0.666079
0.260571
-0.666079
3.15687
0.0404748
3.15687
2.43669
0.0955936
-2.43669
0.172711
3.32203
-3.32203
1.61926
0.644724
1.61926
-5.56344
5.56344
4.95807
0.0539023
-4.95807
0.090753
6.15702
0.0654557
6.15702
-6.20803
-0.0144413
-6.20803
3.25082
-6.69866
-3.52514
4.51952
0.115966
-4.51952
0.0993407
2.91501
0.0283983
2.91501
-2.92855
2.92855
-2.98046
0.0370517
-2.98046
-2.15416
0.439449
-2.15416
1.38024
0.33447
1.38024
-4.27314
-0.131665
-4.27314
-4.35411
0.169729
4.35411
0.0417729
0.933359
-0.933359
-1.44867
0.121207
-1.44867
-4.07824
-0.194898
4.07824
-0.128109
-3.88463
-0.0655021
-3.88463
-3.02041
0.03995
3.02041
0.045918
3.11168
0.0451903
-3.11168
0.0453489
-1.87086
3.75373
-1.88009
3.7541
-5.51846
-0.370906
-5.51846
6.20366
-0.314295
6.20366
3.34106
0.369363
-3.34106
0.418356
2.29439
0.144591
2.29439
-6.17662
0.399644
-6.17662
5.26188
0.515089
5.26188
2.23604
0.0583503
-2.23604
-0.114858
3.49422
-0.369601
3.49422
2.89794
-0.0311007
2.89794
-2.86316
-0.00368451
-2.86316
2.81553
-2.81553
2.74865
0.0668757
-2.74865
0.0760342
-11.1236
11.1091
-0.036213
-11.0873
5.17413
5.17413
4.28579
0.548017
4.28579
-5.02843
0.183575
-5.02843
3.20852
-6.73366
3.58759
-6.8663
3.58794
-11.9777
3.3448
-6.97406
4.80625
-4.80625
4.70267
0.103585
-4.70267
0.0267687
-1.62491
0.00259628
-1.62491
-2.90605
-0.611792
-2.90605
4.17573
-0.657893
4.17573
-3.03168
3.03168
-3.07915
0.0474738
3.07915
0.0501744
3.85296
-0.358737
-3.85296
-0.261943
0.847412
0.182493
-0.847412
0.181333
3.54943
-0.227398
3.54943
-3.11325
-0.208787
-3.11325
-1.63231
0.00740556
1.63231
-0.0130572
-5.80959
0.246147
-5.80959
-11.1813
0.0939686
-11.1437
-6.11406
-6.11406
2.327
11.1188
-2.88757
0.0244135
2.88757
0.0274424
2.9809
0.0507775
-2.9809
0.0523431
-2.87361
0.0580824
2.87361
0.0549444
-2.53574
0.381585
-2.53574
-0.966184
0.966184
-1.14202
0.175835
1.14202
0.23822
1.19142
-0.258064
1.19142
1.55826
0.0336895
-1.55826
0.109588
-3.83519
-0.049443
-3.83519
6.40712
-0.203458
6.40712
-2.97226
-0.140988
2.97226
-0.0743145
-0.0350258
11.1441
-5.1391
0.0341835
5.1391
-11.2096
11.2438
-3.25375
0.718006
3.25375
1.03204
5.29107
0.272376
-5.29107
0.26264
5.02227
0.239616
-5.02227
0.216016
-2.40199
-0.504063
-2.40199
-4.91568
-0.60278
4.91568
-0.739945
-11.4825
-0.201673
11.6842
-11.4257
6.01126
0.145752
-6.01126
11.3895
-0.877763
-0.055596
0.877763
0.0884209
1.52287
-0.331446
1.52287
3.75755
-0.208123
-3.75755
-0.0776349
-6.38857
0.211955
6.38857
0.0185461
-1.94138
-0.460601
1.94138
-0.418516
-4.26562
4.30609
1.91057
-3.12278
-3.57588
-7.50832
1.85333
1.90041
4.29802
-7.5034
-4.47425
-7.40406
7.21778
-6.95514
-9.40251
9.30373
7.53808
-7.60359
-5.77859
5.82876
6.48322
-6.4373
1.87848
1.87509
8.00058
-7.76326
-15.633
15.2621
5.9303
-6.29068
16.3894
-15.9898
-17.16
17.3996
-5.76571
5.82984
-6.6413
6.63762
-6.84985
6.77554
-2.96659
-3.89971
10.1716
-10.1312
10.6971
-10.8656
-8.48385
8.9578
3.38604
0.920051
3.43123
-1.88197
3.76046
-1.87167
3.78224
3.62476
-6.59135
3.1089
-6.68478
5.83665
4.86044
-5.66279
-1.84553
-5.91339
5.94179
-5.81445
5.86939
8.94202
-8.96181
-1.88514
3.76024
-1.86896
3.76936
-3.42232
-2.35627
3.3773
0.92072
6.08188
4.08974
-6.19784
-1.20621
-7.73242
7.5243
-8.01758
7.80879
-0.44556
5.83775
-5.39219
4.42176
-1.64667
7.48442
5.57111
5.75469
5.86161
-5.58924
1.09353
-6.48572
-6.39497
-2.57803
2.69924
2.56995
-2.40805
5.91459
1.62349
5.78648
-5.56601
-2.03757
-5.61546
3.82037
2.0084
3.86784
4.07951
2.40371
4.11946
3.02963
-3.03571
0.00608218
-3.05834
6.08797
0.724525
-5.41461
-4.49389
4.74848
3.2521
4.99489
-5.55934
-2.20392
-5.14098
-9.51634
-6.11669
-10.1191
10.1192
5.14294
9.80488
-11.9431
11.9617
4.40892
1.52137
3.99558
-3.71315
-2.57753
-3.82801
13.0965
-2.54569
-10.5508
-10.4781
-6.68185
9.96303
6.4264
9.92241
7.47718
10.1384
4.08098
9.01554
-10.5074
3.82553
-3.87372
-1.89199
-3.79769
3.73251
2.09733
3.80871
-4.17662
-2.46468
-4.15221
-4.21169
-2.63816
4.24279
2.39482
-4.31067
-3.70691
4.45166
2.32388
3.43285
-7.9071
3.54122
-7.44093
-7.40063
-2.73057
-7.37386
4.60282
2.00524
-6.60806
-1.98853
10.5188
-5.65839
8.67331
-6.10135
-4.76428
-6.36329
-6.86438
-1.61947
-6.69465
-8.92047
8.41641
-9.20341
8.54552
12.8011
-5.74929
-7.05177
-3.96693
-2.47037
3.92158
-0.490351
-3.71153
3.71761
0.048927
3.83117
4.75122
4.26087
-3.87969
-1.93476
-3.82735
3.82777
2.04161
3.88586
6.76342
2.17859
6.79214
-6.41297
-2.54884
-6.54463
9.16127
-8.72182
2.95991
-2.9525
5.20435
2.60445
-4.97695
-2.75547
6.09598
-3.03164
-3.06433
-12.3657
10.9039
1.4618
-4.88133
-0.459569
-0.0540613
-5.6061
-3.79641
5.49628
0.258413
11.1624
7.36595
-5.51672
5.76287
6.16743
6.22134
-0.173631
5.94114
-5.22314
5.34478
-2.45354
-2.89124
5.28752
-5.48242
-1.25711
-5.27341
4.01631
0.304065
1.85241
-1.59184
-2.06991
-0.508121
-1.96032
1.53966
1.0303
1.72215
0.976693
1.72255
-2.90785
0.549843
2.35801
-1.93116
-1.85821
-3.58967
-1.04636
4.63603
5.47564
2.04866
-5.398
-0.217452
2.76366
-2.74682
-0.778088
-2.81158
2.12914
-2.90723
-3.442
-1.92697
5.36896
-3.36757
-0.45977
3.3168
0.551045
-3.82369
-2.08971
3.78663
0.332825
-3.12607
6.19558
-3.06951
-5.06083
2.52986
3.5581
4.53826
-4.79063
2.44589
2.34473
-1.23253
3.69154
1.30334
3.83613
-7.0508
4.84688
5.74526
3.21254
-6.11463
0.973647
-6.07716
8.4667
-7.25307
-1.21363
3.98586
4.48084
7.15608
5.64499
-5.7528
12.9089
-0.921748
-6.33132
6.99891
-3.78637
4.78363
-8.57
-10.4286
4.0973
-9.27359
11.4731
-2.19953
-3.59421
-8.34889
12.8678
-1.25253
-11.6153
8.55235
-4.9387
-3.67014
8.60884
-7.48439
6.24767
-1.71914
-4.52853
-10.3953
-5.5945
10.1833
1.77832
-9.68184
13.5074
-0.666306
4.20477
-0.209183
3.83517
3.4031
-6.29699
2.89389
4.08129
-5.80043
1.46635
-7.76335
-5.92986
10.4593
-4.5294
-8.66043
-8.72342
0.0629899
1.44033
12.067
-8.91752
5.85527
3.06225
3.30719
0.578669
-3.37406
-0.423626
0.321151
4.50797
-4.82912
4.12987
4.22546
3.35904
1.14893
3.82429
2.1175
-3.85173
-0.300472
-4.11608
1.47792
-1.72126
-3.66433
5.14225
-4.07153
0.407199
-2.72095
-3.55109
6.27205
-4.61294
3.04973
3.14586
5.09134
-4.9418
1.39071
-2.43892
-2.50288
2.68082
-4.40208
1.96366
3.17859
4.28754
0.580631
5.61952
4.83974
-7.62477
0.183839
8.92948
-7.72326
2.79719
7.34123
-8.65246
-0.0709522
-7.44481
0.436235
-6.09463
-6.17183
5.1394
-6.75887
-3.4306
6.24227
0.549869
-6.28404
-0.410605
-6.01506
-2.90541
-6.47566
-3.07088
-6.13253
-8.82369
-1.67209
-7.1516
6.74432
-6.64906
-3.47005
7.38901
1.15651
-7.4069
7.3513
-7.48439
7.15294
0.0951363
3.62248
4.356
1.88564
-2.38995
4.27559
-5.03436
7.21296
-8.46634
3.43198
3.95859
-6.50744
-4.50775
5.06115
4.10012
5.39562
9.0006
-10.6268
1.62622
-10.8878
12.1909
-1.30312
-16.6911
5.80325
-7.69045
2.70136
0.258551
2.70395
0.683517
2.40473
-3.08825
-2.26899
-2.28204
-2.27221
-3.35874
5.63095
1.12274
-3.28231
2.15957
-3.48946
4.61221
0.0237504
-3.30606
5.20395
-2.79922
5.4625
-3.46571
1.99678
3.29676
5.57827
-2.28151
4.31268
-1.70823
1.80153
-4.08305
-1.5572
-3.00602
5.10336
-3.26602
3.67322
-0.274232
3.94745
-4.00328
0.971635
-0.644238
3.58122
3.75393
4.23553
-3.0866
2.91185
-4.62008
-1.1712
-4.03945
-0.860857
-0.280977
-3.79748
4.07846
6.10567
-6.38665
-5.35565
9.62028
-4.26463
7.75475
-5.48969
-2.26506
-4.32579
-4.39604
3.9442
1.99694
9.75169
0.169521
-5.65921
-5.05362
-4.02157
3.24058
2.1042
-2.02811
3.48991
2.08217
-0.229757
0.549844
1.17231
1.90413
-1.35428
0.238204
1.66592
-1.35364
2.01938
0.744286
-2.05307
0.0927418
-1.30819
3.43733
1.04982
-2.08012
0.725838
0.988261
-3.4418
4.66893
-2.4505
-2.21843
5.65719
1.14975
-3.60025
4.12367
-3.8196
2.32351
-3.36987
-1.27674
-5.09634
-3.47285
-2.44361
4.60318
-3.18734
5.236
1.16118
-5.01854
6.17973
-3.55069
1.62372
-3.02895
3.77324
-1.06152
-1.96743
2.80942
2.55954
-2.95261
0.141028
-0.143189
2.31441
-2.4576
-0.592827
-2.52399
-4.57403
4.90686
-2.10526
4.55116
2.17032
-1.91344
6.46459
1.81243
-3.72586
-3.24841
-3.70818
-1.38113
3.15713
-0.4407
-3.38731
-4.96923
3.32896
0.507174
-7.08773
7.49279
-0.405057
-3.83564
-1.01125
4.99711
-5.78506
-0.0153759
-4.3187
3.17409
4.47743
4.98461
-11.3128
-0.302508
-6.16982
1.1925
-7.36232
5.67333
-3.66036
7.75766
-10.405
6.93497
-9.24852
6.54403
-0.818284
7.14105
-4.24716
3.40977
-9.00427
-7.22596
5.13926
-3.61789
4.93008
-4.32465
9.25473
-4.99096
6.42937
2.82536
-1.93933
-4.42396
-5.48184
3.5425
0.947528
4.78269
4.95153
-2.83403
4.65106
2.2157
-4.65462
-2.18638
-6.52406
1.86944
-3.3782
-1.90409
3.77354
3.18725
3.76591
1.27065
-3.34229
8.06785
-8.00486
-3.53844
-2.63338
6.0919
-2.54939
4.76701
-7.40039
-1.32762
4.8227
-0.753015
-4.06968
0.926597
-4.3572
1.6126
-5.96981
5.14626
-5.55687
2.20871
-9.89917
-5.19819
-5.10976
-2.25008
-5.23431
-7.66219
5.4121
-1.85893
5.49237
-8.69653
7.94352
-3.49439
8.9065
-5.42042
-1.05524
5.83894
1.314
10.2205
0.0501292
-4.55787
-1.84876
3.84132
-1.99256
1.39182
-3.74735
0.0939692
2.40881
3.24838
-6.42511
-0.0823248
-4.6402
-3.90531
8.00543
5.71497
11.8206
1.19383
9.23096
-1.22553
10.4248
4.17009
4.40831
-2.98462
4.61083
1.09384
4.52582
-0.848038
2.84482
1.85591
1.86943
0.877388
2.30492
1.44901
3.27655
0.188305
-2.09374
4.67802
-8.69959
-0.981192
-8.15157
1.15216
5.43923
-4.28707
3.08578
-0.981583
1.09322
0.0845616
-1.76846
1.6839
-2.80668
-1.99822
-0.332297
-1.62806
2.3539
1.80927
-2.0216
-0.78508
0.260349
-3.7332
3.10952
-2.9685
-0.408955
5.77077
-2.69375
0.236152
-1.07002
-2.28783
-2.79596
2.70321
6.17439
0.290207
3.10488
5.19707
3.10736
0.273323
3.69359
-5.89311
-4.06976
-6.19562
-0.522287
4.47482
3.7419
8.32514
6.56726
4.01786
-3.38253
-11.3874
6.54323
-1.93239
5.2401
-1.17042
-4.79939
5.01193
2.20103
-5.5618
0.00493308
-4.79445
-6.72685
-0.49597
8.43949
-9.72453
8.66929
5.76388
1.38772
-4.40828
-0.701485
4.23244
0.175864
10.6007
-0.907776
-7.2711
8.17888
-4.53145
3.55026
0.785185
2.70472
2.46909
1.4875
-5.7836
-10.0707
-1.8786
-1.5632
-4.09703
0.539006
-2.34828
6.13377
-2.58351
3.86871
5.59537
6.6886
-2.12239
-4.26426
6.38702
-2.51831
4.17029
)
;

boundaryField
{
    wall-4
    {
        type            calculated;
        value           uniform 0;
    }
    velocity-inlet-5
    {
        type            calculated;
        value           uniform -3.75095;
    }
    velocity-inlet-6
    {
        type            calculated;
        value           uniform -5.62643;
    }
    pressure-outlet-7
    {
        type            calculated;
        value           nonuniform List<scalar> 8(5.85178 5.77451 6.4389 7.03538 6.90797 6.77596 6.79611 6.93274);
    }
    wall-8
    {
        type            calculated;
        value           uniform 0;
    }
    frontAndBackPlanes
    {
        type            empty;
        value           nonuniform 0();
    }
}


// ************************************************************************* //
