/*--------------------------------*- C++ -*----------------------------------*\
  =========                 |
  \\      /  F ield         | OpenFOAM: The Open Source CFD Toolbox
   \\    /   O peration     | Website:  https://openfoam.org
    \\  /    A nd           | Version:  6
     \\/     M anipulation  |
\*---------------------------------------------------------------------------*/
FoamFile
{
    version     2.0;
    format      ascii;
    class       volVectorField;
    location    "23";
    object      U;
}
// * * * * * * * * * * * * * * * * * * * * * * * * * * * * * * * * * * * * * //

dimensions      [0 1 -1 0 0 0 0];

internalField   nonuniform List<vector> 
918
(
(0.984987 -0.000756748 0)
(0.00531481 2.96626 0)
(-0.0196317 1.54567 0)
(0.979589 0.00191488 0)
(-0.001695 1.53533 1.53606e-20)
(-0.00705987 2.94854 -2.00311e-18)
(0.840544 1.16392 7.24955e-19)
(0.412983 0.158235 -8.53655e-21)
(0.999921 -0.00025865 0)
(0.0729808 0.757227 0)
(-0.0525567 0.77737 0)
(0.748395 -0.0106834 0)
(0.0102051 2.93151 0)
(0.00337389 2.79409 0)
(8.87581e-05 3.20268 1.13513e-18)
(0.00617224 1.41113 4.97137e-20)
(0.503748 0.055055 5.38622e-19)
(0.223031 1.1549 6.37815e-19)
(0.964854 0.00679003 0)
(-0.00447394 1.2192 0)
(0.145051 0.234386 -4.4232e-19)
(1.00205 -0.00446011 0)
(0.999942 -0.00887232 0)
(0.97528 -0.00619419 0)
(0.65959 -0.0375424 0)
(0.023818 2.64053 0)
(-0.0124584 2.91208 6.90916e-19)
(-0.0281992 1.56678 0)
(-0.0388677 1.71768 0)
(-0.028427 1.55827 0)
(-0.00751712 1.87916 0)
(0.00740714 1.56131 -1.21461e-20)
(0.00272045 1.4211 0)
(-0.0222158 2.98758 -7.05356e-23)
(-0.0165313 3.00551 1.55704e-18)
(0.00230043 3.00064 0)
(0.871397 -0.0075293 0)
(0.367305 0.913607 -4.8735e-20)
(0.840617 1.17673 -1.06343e-18)
(0.980129 1.02341 9.76221e-19)
(0.702289 1.26391 -1.67007e-19)
(0.70822 1.24928 9.43478e-19)
(0.45275 0.259159 8.32865e-21)
(0.446004 0.144194 0)
(1.16952 0.523612 0)
(0.409677 0.269938 3.86481e-20)
(0.372766 0.173443 -4.01088e-20)
(0.920459 -0.00607333 0)
(1.0003 6.84685e-05 0)
(0.999911 0.000309249 0)
(1.00353 -0.00745005 0)
(1.00093 -0.00111179 0)
(1.00012 -6.41685e-05 0)
(0.104967 1.80215 -2.38025e-19)
(0.0302632 0.909452 0)
(0.134945 0.860023 0)
(0.0404481 0.854031 0)
(0.0467523 0.683911 0)
(-0.0822394 1.69378 0)
(-0.0538327 0.830969 0)
(-0.0174142 0.662945 0)
(-0.0579144 0.95415 0)
(-0.0484146 0.904638 0)
(0.83913 -0.0083259 0)
(0.858968 0.018705 0)
(0.77338 -0.000348177 0)
(0.845643 0.0236189 0)
(0.728103 -0.0151939 0)
(0.0139853 3.00018 7.35282e-19)
(0.011239 3.00578 0)
(0.00638449 3.00396 0)
(0.0119167 2.99701 8.22815e-24)
(0.00833034 2.95872 -1.09281e-18)
(0.0122371 2.98295 0)
(0.0089592 2.90478 0)
(0.0215503 2.9312 1.51944e-24)
(0.00393849 2.82378 0)
(0.0267787 2.91838 0)
(-0.00154669 2.74406 0)
(0.313366 3.60652 0)
(-0.123208 3.69045 0)
(0.154822 3.29372 -1.05652e-18)
(0.00820697 3.02229 0)
(-0.0441286 1.84244 0)
(0.0291783 1.58661 -4.90436e-20)
(0.0117301 1.3868 7.75617e-20)
(0.575879 0.138668 -1.85026e-19)
(0.517539 0.0197123 -1.7601e-19)
(0.549879 0.16283 -5.57141e-19)
(0.504335 0.0831646 -3.75345e-19)
(0.259367 0.932452 0)
(0.304064 1.3 -6.47095e-19)
(0.382162 1.2786 1.06694e-18)
(0.988249 0.0081093 0)
(0.943985 0.00604337 0)
(1.00029 0.000691191 0)
(1.00253 0.00911121 0)
(1.00312 0.00896667 -9.81157e-19)
(0.99212 0.00953075 7.416e-19)
(-0.025756 1.3785 0)
(-0.0256133 1.19074 0)
(-0.0361303 1.57131 0)
(-0.0246649 1.44942 0)
(-0.00511799 1.27491 0)
(0.1919 0.244124 1.36609e-19)
(0.234578 0.219663 0)
(0.993679 -0.00744778 0)
(0.953934 -0.00638575 0)
(0.81131 0.0284009 0)
(0.772511 0.0388672 0)
(0.697419 -0.0252347 0)
(0.988323 0.00105769 0)
(0.719126 0.0507209 0)
(0.564431 -0.0327023 6.92983e-19)
(-0.0399707 2.8637 4.15736e-19)
(0.0345026 2.91351 0)
(0.0437512 2.89035 0)
(0.00351508 2.69969 0)
(-0.00877286 2.98632 6.4686e-19)
(-0.0145396 2.89495 0)
(-0.0110304 2.99195 -2.02142e-18)
(-0.0116171 2.92987 6.92572e-19)
(-0.0452086 1.80148 0)
(-0.0396964 1.80571 0)
(0.0141292 1.56948 1.1456e-21)
(0.0110354 1.54959 0)
(-0.00260867 1.41726 0)
(0.93712 -0.00360198 0)
(0.856483 -0.00790191 0)
(0.866863 0.00919311 0)
(0.948343 -0.00532712 0)
(0.882225 -0.00766456 0)
(0.493318 1.11619 4.89027e-20)
(0.542824 1.19108 0)
(0.324487 0.840683 2.38851e-21)
(0.268659 0.707487 0)
(0.939803 1.06039 -2.85344e-19)
(1.05669 0.855396 5.77546e-19)
(0.471459 1.36871 0)
(0.54844 1.34091 0)
(0.573978 1.26282 0)
(0.0894033 0.140375 -1.17986e-19)
(0.479914 0.243277 0)
(0.462413 0.146575 1.07972e-19)
(1.01789 0.910814 0)
(1.08537 0.749549 0)
(1.11527 0.68391 -5.04273e-19)
(1.14827 0.591063 0)
(1.20364 0.384201 4.81026e-20)
(0.956561 -0.00717103 0)
(0.962783 -0.0077472 0)
(0.899889 -0.00691185 0)
(0.983876 -0.00780509 0)
(0.974256 -0.00770377 0)
(0.936424 -0.00609402 0)
(1.00017 0.00247559 0)
(1.0009 0.0013495 0)
(0.999959 0.000786105 0)
(0.0535866 2.0307 1.51758e-19)
(0.167978 1.72024 0)
(0.0103322 2.12455 1.37961e-19)
(0.0402645 1.86895 -5.9306e-20)
(0.127343 1.14726 -5.29264e-19)
(0.0893025 1.00962 0)
(0.145122 1.00285 0)
(0.0127201 0.79355 0)
(-0.000768537 0.640103 0)
(-0.0636706 1.96743 3.05693e-21)
(-0.0361465 1.84662 0)
(-0.0446717 1.82246 1.95914e-19)
(-0.0589066 1.52103 -4.02815e-19)
(0.0102927 0.762706 0)
(-0.00954472 0.770093 0)
(-0.0078717 0.620647 0)
(-0.0587577 1.08099 0)
(-0.0412855 1.0095 0)
(0.929892 0.0146882 0)
(0.854814 -0.00358734 0)
(0.920316 0.00542709 0)
(0.842085 -0.0090902 0)
(0.819331 0.00427878 0)
(0.906119 0.016089 0)
(0.885266 0.0193119 0)
(0.794256 0.00104911 0)
(0.0102834 3.06759 -6.47917e-21)
(0.0147498 3.05933 0)
(0.0124335 2.97038 0)
(0.00755883 2.87664 0)
(0.904386 4.0083 0)
(1.20084 3.39891 1.02818e-18)
(0.0847674 3.10319 0)
(-0.0143884 2.92495 0)
(-0.0549321 1.79499 0)
(-0.0601921 1.83076 0)
(-0.048002 1.81089 0)
(-0.022647 1.86885 4.05925e-21)
(-0.0526405 1.85733 0)
(-0.032476 1.85054 0)
(0.0270699 1.4021 -2.99647e-20)
(0.0632509 1.60468 -1.77506e-19)
(0.0477845 1.588 -7.9137e-20)
(0.0163707 1.37229 0)
(0.58835 0.108317 2.7379e-19)
(0.516578 -0.000384904 -2.67338e-19)
(0.236477 1.53701 0)
(0.281106 0.661545 -2.16961e-19)
(0.174154 1.6294 -7.21242e-19)
(0.257647 1.14606 7.21126e-19)
(0.903668 0.00763603 0)
(0.967661 0.0105055 0)
(0.975572 0.0098325 0)
(0.92398 0.00691672 0)
(-0.0546741 1.20366 0)
(-0.0396265 1.307 0)
(-0.0388197 1.11237 0)
(0.355246 0.275859 3.52982e-19)
(0.299902 0.259388 -4.29682e-19)
(0.314308 0.201378 0)
(1.11438 0.0897964 -6.88759e-21)
(1.10052 0.0426708 0)
(1.02373 0.0439622 0)
(0.92405 0.00853064 0)
(0.607509 0.0849144 0)
(0.656134 0.0607325 -1.12359e-18)
(0.529251 -0.0129924 4.36068e-19)
(0.0115741 2.97796 4.97752e-19)
(-0.0324667 2.86303 4.67022e-20)
(0.00856859 3.05312 -1.39216e-20)
(0.0153955 3.04356 5.3025e-19)
(-0.0118188 3.00004 2.30647e-20)
(-0.0123084 2.95239 -9.36788e-23)
(-0.0150194 3.01336 -4.42113e-19)
(0.0140169 3.02689 3.09775e-19)
(0.00747204 3.03448 -4.96784e-19)
(0.929509 0.00192915 0)
(0.935989 -0.000501924 0)
(0.847 -0.00694185 0)
(0.95742 0.0109145 0)
(0.943992 0.0123944 0)
(0.884131 0.00781149 0)
(0.921062 0.0142523 0)
(0.928288 0.0134901 0)
(0.843909 0.00564413 0)
(0.671643 1.42411 3.07107e-19)
(0.692352 1.5374 0)
(0.171035 0.351032 2.08329e-20)
(0.159765 0.553788 1.6608e-19)
(0.232748 0.660557 -9.31778e-20)
(0.197749 0.549911 1.68951e-19)
(0.29773 0.719808 6.89731e-19)
(0.111486 0.183037 2.13826e-19)
(0.5391 0.200545 4.04192e-19)
(0.514578 0.235372 1.00644e-19)
(0.489117 0.123513 2.03326e-19)
(1.19414 0.441043 3.25512e-19)
(1.22199 0.239578 3.41753e-19)
(-0.020242 2.14271 1.16274e-20)
(-0.0140354 1.94113 0)
(0.971327 0.0337911 0)
(0.939501 0.021375 0)
(0.876992 -0.00321336 0)
(0.0123395 3.07493 0)
(0.0171442 2.94414 8.84916e-19)
(0.0140336 2.95692 0)
(0.00570584 2.84968 -8.7818e-19)
(0.00906306 3.09136 2.12346e-19)
(0.0115281 3.0827 0)
(0.714268 1.83805 -2.52609e-19)
(1.24512 2.65126 8.40642e-19)
(0.699997 2.01838 -1.66584e-18)
(0.0232827 2.97855 -3.83849e-19)
(0.0425886 3.00371 0)
(-0.0375998 2.88242 0)
(0.0104834 1.70108 -8.0729e-21)
(0.0582865 1.6435 4.32374e-19)
(0.0208732 1.44029 -6.77808e-21)
(0.261107 1.32995 6.9957e-19)
(0.244492 0.449147 -4.81799e-19)
(0.0698555 1.93922 4.50022e-19)
(0.126014 1.82163 -5.71978e-19)
(0.219387 1.4724 8.99635e-20)
(0.00766741 3.11987 -1.12139e-18)
(0.0137927 3.12092 1.23393e-18)
(-0.00484015 2.9802 5.80741e-19)
(-0.000946086 2.9753 -5.30412e-19)
(-0.018136 2.87807 -5.91506e-19)
(0.0127755 3.09918 -1.55685e-18)
(0.00451564 3.10582 1.57589e-18)
(0.19979 0.594229 0)
(0.164634 0.5695 -3.43816e-19)
(0.0689465 0.187457 1.55227e-19)
(0.318544 0.823589 6.43127e-19)
(0.175187 0.223749 -9.80707e-19)
(1.20372 0.173392 -7.25198e-20)
(1.21937 0.299235 0)
(1.20117 0.119181 1.36397e-19)
(-0.0499027 2.06508 2.39242e-21)
(-0.0589469 2.13689 0)
(-0.0337912 1.92151 0)
(0.306631 1.2423 -2.44385e-19)
(0.326638 1.04861 -5.19719e-19)
(0.200097 0.324189 8.94588e-19)
(1.00637 -0.0102749 0)
(1.00778 -0.00766833 1.79008e-19)
(-0.0508903 1.77426 0)
(-0.0561344 1.77934 0)
(1.00249 0.00350684 1.49699e-21)
(1.00324 0.00797667 3.68932e-19)
(-0.0271965 1.88667 -5.23614e-21)
(-0.0192432 1.89778 0)
(0.0449824 3.17749 2.07544e-19)
(0.385188 3.5666 0)
(1.09152 0.683222 7.18615e-20)
(1.01254 0.011209 -2.53388e-21)
(1.021 -0.00935034 0)
(1.00168 0.000103812 6.80802e-23)
(0.140181 1.35646 0)
(0.142491 2.57848 0)
(-0.166452 1.05131 0)
(-0.170433 2.68098 -2.57618e-19)
(-0.234859 2.48532 -1.40691e-19)
(1.00912 0.0219346 3.08682e-21)
(1.04911 0.00124584 0)
(1.07838 0.028636 0)
(-0.0698341 1.82856 0)
(-0.0399886 2.0038 0)
(-0.120619 1.64865 0)
(0.277911 1.46545 -4.39603e-19)
(1.0113 -0.00900425 0)
(1.00969 -0.013701 0)
(1.00225 0.000481917 2.26423e-19)
(1.00591 -0.00517064 -2.69971e-19)
(1.00125 -0.000927731 0)
(-0.0900911 1.80116 0)
(-0.0656403 1.76901 0)
(-0.0695945 1.7912 0)
(-0.102939 1.66068 0)
(-0.0623589 1.72179 0)
(-0.0726975 1.71018 0)
(1.03361 -0.0077714 0)
(1.01927 0.012732 -1.19835e-21)
(0.761727 1.30553 5.41637e-19)
(1.00267 0.000287571 -2.28886e-19)
(1.00362 0.00494572 2.74305e-19)
(1.00117 0.00194028 0)
(1.01164 0.00978981 2.22369e-19)
(1.00713 0.00770516 -2.77722e-19)
(1.00754 0.0118014 0)
(-0.0369964 1.99545 0)
(-0.0328372 1.94102 -2.43807e-20)
(-0.0258214 1.94957 2.0746e-20)
(1.19891 0.27077 -1.33047e-19)
(1.13272 0.0923883 0)
(0.0501874 3.09002 -5.89844e-19)
(0.0523899 2.86809 -4.42386e-20)
(0.109975 3.20256 7.57939e-19)
(0.127299 3.21556 -8.92134e-20)
(0.151706 3.26844 0)
(0.0236157 3.13849 1.48252e-19)
(0.0651677 3.16225 5.84733e-19)
(0.0653323 3.1809 -2.80294e-19)
(0.0282818 3.12835 0)
(0.655448 0.334236 0)
(0.598874 0.379004 0)
(1.08079 0.710931 -2.66657e-19)
(1.04345 0.853198 4.05485e-19)
(1.13763 0.599499 0)
(1.16454 0.536392 0)
(1.01577 0.0120236 -4.08391e-19)
(1.01468 0.0126162 5.10994e-19)
(1.02529 -0.0095451 0)
(1.02372 -0.0108932 0)
(1.00682 0.00261505 0)
(1.01045 0.00370513 0)
(1.00439 0.00176677 0)
(1.00988 0.00629487 0)
(1.00739 0.00483967 0)
(1.00481 0.00526847 0)
(0.129975 1.35215 0)
(0.10354 1.27093 0)
(0.139384 1.4177 0)
(0.126926 1.4013 0)
(0.144235 2.59885 0)
(0.188492 2.65722 -1.99997e-19)
(0.110948 2.65532 0)
(0.0724007 2.65334 -2.34694e-20)
(0.0246264 2.6703 2.22289e-19)
(-0.149207 1.09267 0)
(-0.17063 1.1003 0)
(-0.0819491 1.06606 0)
(-0.0386321 0.963917 0)
(-0.137146 2.33242 4.4958e-19)
(-0.246274 2.57691 -2.89128e-19)
(-0.203019 2.6951 -3.7286e-19)
(-0.216024 2.64105 0)
(-0.217639 2.47019 3.08463e-19)
(-0.171662 2.38096 2.49229e-19)
(-0.206444 2.31898 -3.76775e-19)
(-0.280404 2.52469 4.02512e-19)
(-0.261699 2.5629 4.73293e-19)
(1.0174 0.030027 4.01941e-19)
(1.00986 0.018706 -5.0144e-19)
(1.01027 0.0325884 -4.21656e-19)
(0.993401 0.0219453 5.40829e-19)
(1.05004 0.00317613 0)
(1.0389 -0.0115936 0)
(1.07224 0.0369683 0)
(1.05646 0.0100726 0)
(1.05425 0.00119482 0)
(1.11411 0.0768549 0)
(1.08906 0.047833 0)
(1.09287 0.0427651 0)
(-0.0600779 1.88716 -3.82685e-22)
(-0.0898225 1.85961 0)
(-0.0649854 1.86375 0)
(-0.0571104 2.06686 -1.61363e-20)
(-0.0449066 2.08943 2.03751e-21)
(-0.163788 1.82254 -9.2538e-22)
(-0.111143 1.80027 9.38543e-22)
(-0.143403 1.71183 0)
(-0.110767 1.74826 0)
(-0.0942238 1.75791 0)
(-0.15398 1.59398 0)
(-0.11121 1.51405 0)
(0.367962 1.49188 8.41083e-19)
(0.383803 1.50578 3.33129e-19)
(0.603814 2.4526 -1.61506e-19)
(0.395747 2.54972 4.23549e-19)
(0.3576 2.09706 -5.50807e-20)
(1.02055 -0.00871689 0)
(1.01536 -0.0095926 0)
(1.01457 -0.0136025 0)
(1.0079 -0.00106579 0)
(1.00455 -0.00108669 0)
(1.00739 -0.00492578 0)
(1.01001 -0.00317434 0)
(1.01425 -0.00447636 0)
(1.02008 0.014544 3.90707e-19)
(1.01672 0.0134968 -4.94357e-19)
(1.02111 0.0161569 -3.92413e-19)
(1.01683 0.0138236 4.89425e-19)
(0.72962 1.3462 0)
(0.657059 1.3923 6.08848e-19)
(0.839374 1.21437 3.6203e-19)
(0.862412 1.20213 -4.80344e-19)
(1.15867 2.63019 -5.50273e-19)
(0.823182 0.112176 2.78847e-19)
(1.13815 0.102077 0)
(1.175 0.188163 1.08477e-19)
(1.15789 0.161953 5.06179e-21)
(0.993988 0.130015 0)
(0.0964417 3.0313 -8.20478e-20)
(0.0953461 2.90586 -6.71682e-19)
(0.0444319 2.36002 4.42867e-19)
(0.146506 0.0220506 -2.11529e-19)
(0.351683 3.46649 -4.82128e-19)
(0.201236 3.3535 0)
(0.231662 3.41721 6.28025e-19)
(0.236922 3.08964 -2.23402e-19)
(0.271275 3.21011 0)
(0.00767847 3.12222 3.12992e-20)
(0.0188264 3.13106 -3.77383e-19)
(0.0173092 3.12694 5.55461e-19)
(0.0351566 3.13968 0)
(0.0330667 3.15051 0)
(1.26288 2.59959 0)
(0.512177 0.836525 -2.2648e-19)
(0.971921 1.03966 -2.07521e-19)
(0.953427 1.06331 0)
(0.801951 0.943943 5.72479e-20)
(1.03246 0.890938 2.99075e-20)
(0.439667 0.420249 -5.18507e-19)
(0.704272 0.342334 -2.50688e-20)
(0.686708 0.287365 2.14106e-19)
(0.612942 0.398058 1.66351e-20)
(0.546503 0.381862 -6.84112e-19)
(0.668928 0.353266 0)
(0.694406 0.426446 3.47023e-19)
(0.692235 0.427543 0)
(0.642947 0.387136 0)
(0.618617 0.340369 0)
(0.752725 0.613102 1.09566e-19)
(1.20198 0.290441 1.0345e-19)
(1.18587 0.42917 0)
(1.19966 0.39082 0)
(0.774223 0.20491 3.19308e-19)
(0.812074 0.54317 -1.71902e-19)
(0.741833 0.503885 2.80941e-19)
(0.909024 0.418671 -2.52355e-19)
(1.0185 0.0138692 2.65626e-19)
(1.01719 0.0134143 -2.75009e-19)
(1.01572 0.0140408 0)
(1.03458 -0.0065723 0)
(1.02968 -0.00925662 -2.45009e-19)
(1.02802 -0.0114368 2.42549e-19)
(1.02563 0.0087035 0)
(1.02447 0.0135727 0)
(1.01203 0.00404432 0)
(1.01428 0.00887197 0)
(1.01564 0.0032356 0)
(1.01472 0.00233342 0)
(0.1063 1.27215 0)
(0.0988507 1.10466 0)
(0.138628 1.41244 3.70948e-19)
(0.264949 1.46498 2.50592e-19)
(0.170141 1.44588 5.5657e-19)
(0.188508 1.44644 -9.03127e-19)
(0.155365 1.41495 0)
(0.115364 1.59297 2.4527e-19)
(0.099874 1.57234 0)
(0.347574 2.05789 8.01958e-20)
(0.339146 2.36093 2.40373e-19)
(0.124061 1.47948 -2.14476e-19)
(0.268772 1.36605 1.94114e-19)
(0.176173 1.38696 -1.56068e-19)
(0.289594 1.3027 3.46565e-19)
(0.253307 1.5856 0)
(0.254222 1.64383 -2.36106e-19)
(0.0432099 2.34395 1.24942e-19)
(0.0254308 2.67671 0)
(0.0713199 2.40175 -1.64703e-19)
(0.0533533 2.44268 0)
(0.0858481 2.65334 2.44702e-20)
(0.0501812 2.69194 0)
(-0.147542 1.46252 5.40274e-19)
(-0.0529462 1.62861 0)
(0.0103081 1.31879 0)
(-0.110059 1.25502 -6.08992e-19)
(-0.141701 2.7056 -7.22288e-20)
(-0.00820763 2.7391 -3.29474e-19)
(-0.0984584 2.73503 -1.90398e-21)
(-0.436272 2.15992 -1.73389e-19)
(-0.353664 2.0882 -1.82788e-19)
(-0.167348 1.18712 0)
(-0.128854 1.21979 0)
(0.155961 1.77777 -6.22763e-19)
(0.136802 1.48991 -6.952e-19)
(0.0922629 1.65867 8.95766e-19)
(0.166255 1.78338 0)
(-0.165087 1.97086 5.2983e-20)
(-0.127397 2.05288 -2.72121e-20)
(-0.162921 2.11357 1.17636e-20)
(-0.43072 2.02477 2.09877e-19)
(-0.250087 2.28754 4.18979e-20)
(-0.265921 2.34773 -2.13618e-19)
(1.02043 0.0183337 -2.65232e-19)
(1.01683 0.0244221 2.68135e-19)
(1.01213 0.0160714 0)
(1.00929 0.0510975 3.85462e-19)
(0.995703 0.0355913 -4.55564e-19)
(0.966347 0.0346711 5.26501e-19)
(1.00902 0.0891388 -4.93449e-20)
(1.03931 -0.00767847 0)
(1.04184 -0.00679746 2.1437e-19)
(1.03435 -0.0134529 -2.16341e-19)
(1.06107 0.0412904 -1.15871e-20)
(1.05422 0.0244638 1.0408e-19)
(1.05835 0.0585074 0)
(1.0525 0.0469211 -3.98669e-20)
(1.03696 0.0331956 0)
(1.03304 0.0262492 0)
(1.02876 0.0118828 0)
(1.02626 0.0134237 0)
(1.04748 0.0269712 8.26574e-20)
(1.04475 0.017352 -1.89059e-19)
(1.05125 0.0266643 -8.17463e-20)
(1.04955 0.0278756 -9.66865e-20)
(1.06591 0.0631268 1.63768e-19)
(1.08061 0.0538017 0)
(1.08222 0.0943421 0)
(-0.153402 1.95555 2.51227e-20)
(-0.110913 1.86852 -1.45282e-22)
(-0.125989 1.89013 0)
(-0.089995 1.95952 -2.51438e-20)
(-0.0651779 1.90199 5.00808e-22)
(-0.0769309 1.92955 3.64893e-21)
(-0.145458 2.34456 -2.46274e-19)
(-0.160203 2.18198 6.33441e-21)
(-0.205203 2.2475 -4.33434e-20)
(-0.0794813 2.20089 9.07646e-20)
(-0.0909026 2.22575 -1.02732e-19)
(-0.220271 1.76182 -1.67258e-21)
(-0.199253 1.8351 -4.90906e-21)
(0.391877 1.39895 -4.1663e-19)
(0.376199 1.34749 -4.22765e-19)
(0.620079 1.43601 -5.87551e-19)
(0.505812 1.49814 -3.21113e-19)
(0.529864 1.47564 0)
(0.605101 2.42738 1.19284e-19)
(0.676449 2.40622 2.21976e-19)
(0.419153 2.51825 7.99398e-20)
(0.399468 2.55881 -1.8765e-19)
(0.505109 2.51089 2.44309e-19)
(0.555236 2.46736 0)
(0.494462 2.51641 -3.4151e-19)
(0.253503 2.58304 5.89461e-19)
(0.360658 2.55781 -6.12322e-20)
(0.283678 2.63876 -9.04814e-19)
(0.939948 2.38589 2.13339e-19)
(0.834568 2.37947 0)
(1.01063 0.000840476 8.94691e-21)
(1.01487 -0.00556171 -7.33253e-21)
(1.01819 -0.00436832 -1.32662e-19)
(1.01518 -0.00103863 1.3185e-19)
(1.01244 0.00139583 0)
(0.607981 1.28796 0)
(0.632837 1.16131 0)
(0.741284 1.08077 0)
(0.619711 1.12557 0)
(1.19033 2.64925 4.59163e-20)
(1.07762 2.3862 0)
(0.82419 2.24809 -2.09833e-21)
(0.825883 2.48385 0)
(0.913226 2.56811 1.0795e-20)
(0.94442 2.51958 -7.24243e-21)
(0.84354 0.137108 0)
(0.808125 0.146053 8.08342e-20)
(0.925798 0.131029 4.0448e-19)
(0.861138 0.100738 -1.66793e-19)
(0.844471 0.0673398 -4.88871e-19)
(1.04131 0.216691 -2.04165e-19)
(0.945216 0.265564 -7.72164e-21)
(0.917825 0.304628 3.43384e-19)
(0.98291 0.210241 2.55004e-19)
(0.930516 0.16781 -5.02128e-19)
(0.895897 0.178509 6.71873e-20)
(0.915645 0.290799 -1.19972e-19)
(0.895576 0.193289 0)
(0.975748 0.158886 2.36853e-19)
(1.01971 0.177355 0)
(1.0136 0.187744 0)
(1.09263 0.112661 6.35524e-20)
(1.03163 0.162829 -1.00552e-20)
(1.03531 0.225076 -4.20497e-20)
(1.08641 0.198765 0)
(1.02483 0.0329306 2.00639e-19)
(1.04264 0.053043 2.35892e-19)
(1.03895 0.0344168 -1.99345e-19)
(1.04002 0.0577363 -1.59461e-19)
(1.02108 0.0589984 -2.71209e-19)
(0.97081 0.133436 0)
(0.984991 0.0800109 0)
(0.965888 0.045843 -1.90403e-19)
(0.931476 0.0643006 8.08211e-20)
(1.02995 0.0918634 2.21923e-19)
(1.05054 0.118337 -2.06124e-19)
(1.04634 0.151095 1.95296e-19)
(1.02154 0.122178 0)
(1.06253 0.103696 0)
(1.04486 0.0938528 -8.76763e-20)
(1.03816 0.0880576 -1.76479e-19)
(0.581861 1.11232 -1.20711e-19)
(0.62631 1.47857 2.17229e-19)
(1.14549 2.75604 9.28461e-20)
(1.199 3.12911 -6.90095e-20)
(1.25171 2.7532 5.58635e-19)
(1.29674 2.72444 -2.90429e-19)
(1.27032 2.3403 -3.49004e-20)
(1.18695 3.03627 2.18821e-19)
(1.20336 2.99366 -2.35778e-19)
(1.18028 3.28327 -2.47276e-19)
(1.40342 2.9992 3.04368e-19)
(1.416 2.93894 0)
(0.538321 0.860651 -1.03717e-20)
(0.256327 1.24185 2.88589e-19)
(0.491899 0.515181 3.31837e-19)
(0.357971 0.289488 3.89837e-19)
(0.560015 0.407867 3.83305e-19)
(0.563881 0.489678 -5.93169e-19)
(0.56528 0.491254 4.89718e-19)
(0.525663 0.448806 -2.00117e-19)
(0.480046 0.379035 4.59074e-19)
(0.788029 0.239433 -1.77689e-19)
(0.744648 0.292002 0)
(0.731686 0.22677 1.18189e-20)
(0.724079 0.511989 1.83131e-19)
(0.680675 0.480185 -6.74738e-19)
(0.643057 0.474973 2.30048e-20)
(0.639956 0.452034 0)
(0.672514 0.725107 1.30535e-19)
(0.765449 0.769525 7.38689e-20)
(0.695376 0.816214 -9.19057e-20)
(0.832011 0.783743 -1.18925e-20)
(0.880089 0.836932 1.59294e-20)
(0.887636 0.843614 -1.63386e-20)
(0.828781 0.651349 -1.85849e-19)
(0.894999 0.703283 1.10653e-20)
(0.948771 0.709465 0)
(0.945782 0.688241 2.68798e-21)
(0.978025 0.299298 6.0425e-20)
(1.11039 0.302131 -2.51362e-20)
(1.02072 0.256745 8.3182e-20)
(0.946274 0.344708 -1.34388e-19)
(0.986172 0.442917 0)
(1.07055 0.399137 0)
(0.866444 0.388134 1.22099e-20)
(0.835677 0.289914 0)
(0.855083 0.278386 1.90245e-19)
(0.876485 0.304794 9.66059e-21)
(0.908739 0.435955 6.91065e-19)
(0.847654 0.512497 1.65389e-19)
(0.860509 0.457612 -2.37146e-19)
(0.797364 0.448832 2.51548e-19)
(0.790206 0.443518 1.71293e-19)
(0.7599 0.415061 -1.68229e-19)
(1.02764 -0.000778925 2.11371e-19)
(1.01995 0.000146971 0)
(1.01838 0.00103724 1.40393e-19)
(1.02287 -0.000668842 -3.15489e-19)
(1.02157 0.00398801 1.53742e-19)
(1.02042 0.0105619 -3.23135e-19)
(1.02124 0.0103762 0)
(1.02043 0.0117469 -6.80912e-20)
(1.01597 0.0077636 1.71001e-19)
(1.01666 0.0105035 -8.66408e-20)
(1.01779 0.00965646 6.33966e-20)
(0.00309892 1.06352 0)
(0.0875018 1.23026 0)
(0.0794015 1.10996 0)
(0.0242931 1.00178 0)
(0.173445 1.37249 -7.43791e-19)
(0.166543 1.35202 2.29379e-19)
(0.14533 1.49554 1.6908e-19)
(0.142191 1.40612 -2.07431e-19)
(0.171628 1.52068 5.99626e-19)
(0.188471 1.49364 -4.60619e-19)
(0.209486 1.36504 -3.75385e-20)
(0.218692 1.32679 5.4043e-19)
(0.168731 1.24545 7.78139e-20)
(0.173632 1.24248 7.68772e-20)
(0.0937967 2.3597 1.84652e-19)
(0.0877295 2.41483 0)
(0.125522 2.03336 -5.37745e-20)
(0.126583 1.73608 -1.12085e-19)
(0.203313 2.03803 3.24268e-20)
(0.213466 2.45063 0)
(0.241737 2.41031 -1.62178e-19)
(0.287897 2.40787 1.15444e-19)
(0.23663 2.01105 1.20387e-19)
(0.128981 2.18408 -2.81978e-20)
(0.108318 2.30667 0)
(0.09638 2.0919 6.2403e-19)
(-0.0963479 2.59306 6.44172e-19)
(-0.0399525 2.44123 0)
(0.0229049 2.57207 -2.77163e-20)
(0.0257469 2.40237 -2.85883e-19)
(-0.270923 1.3355 -6.27946e-20)
(-0.266781 1.34914 9.09118e-19)
(-0.296961 1.42769 -2.01457e-19)
(-0.348889 1.46048 -3.82639e-19)
(-0.241832 1.41424 0)
(-0.305318 1.40184 0)
(-0.182698 1.46278 -8.35823e-20)
(-0.279302 1.48336 2.66137e-20)
(-0.302196 1.41118 0)
(-0.200209 1.31057 -8.46956e-20)
(-0.130114 1.37478 1.46378e-19)
(1.03921 0.00379566 0)
(1.04093 0.00140927 -2.01146e-20)
(1.04511 0.0135404 -1.49413e-19)
(1.05015 0.011309 0)
(1.04632 0.00864866 0)
(1.03861 0.00352317 -6.50904e-21)
(1.03256 0.00583192 2.48319e-19)
(1.0349 0.00942997 2.99356e-19)
(1.02784 0.016673 0)
(1.02629 0.0178345 0)
(1.03963 0.0184795 1.50841e-19)
(1.03168 0.0241234 0)
(1.02844 0.022835 0)
(-0.314577 2.00416 0)
(-0.240031 1.84837 -6.65567e-21)
(-0.258155 1.96261 -1.51694e-20)
(-0.264161 1.56914 0)
(-0.310225 1.79399 -3.32159e-20)
(-0.249247 1.73095 1.93564e-21)
(-0.239234 1.63528 0)
(0.413917 1.67684 0)
(0.358637 1.28537 7.04863e-19)
(0.284085 1.34029 0)
(0.425683 1.28415 -9.07465e-19)
(0.47313 1.44826 0)
(0.446229 1.37911 4.15771e-19)
(1.02901 2.70416 -4.06683e-21)
(0.959243 2.41061 -2.69177e-19)
(0.903409 2.17276 2.85856e-19)
(0.848119 2.37321 1.09614e-19)
(0.847515 2.51938 0)
(0.911343 2.51945 0)
(0.924385 2.37981 0)
(0.902649 2.35985 -4.10366e-19)
(0.701322 2.50356 3.10932e-21)
(0.805716 2.48897 -1.26118e-20)
(0.811276 2.46475 9.65553e-21)
(0.692896 2.39069 0)
(0.796937 2.37954 0)
(0.761746 2.3932 -2.21061e-19)
(0.773021 2.49823 0)
(0.57552 1.0602 0)
(0.504661 0.909625 -4.39908e-20)
(0.506107 0.968218 -9.22291e-22)
(0.488374 1.09259 0)
(0.47888 1.01438 7.36387e-20)
(0.73301 0.857121 1.07257e-20)
(0.750279 0.997192 0)
(0.726167 0.973673 -6.32027e-20)
(0.617337 1.01298 0)
(0.605305 0.931988 0)
(1.15815 2.78593 6.70277e-20)
(1.13398 2.84626 1.34288e-19)
(0.92502 2.38612 -3.12553e-19)
(0.900283 2.35974 4.47192e-20)
(1.12491 2.76089 0)
(1.07572 2.73076 -5.37457e-20)
(1.09043 2.511 -5.53079e-20)
(0.985946 2.24787 -2.76152e-20)
(0.488362 1.37672 0)
(0.497249 1.08644 1.06249e-19)
(0.548549 1.15651 0)
(0.868172 0.204938 0)
(0.821446 0.174282 0)
(0.769861 0.171509 0)
(0.862086 0.211718 -2.98056e-19)
(0.808035 0.211936 1.85949e-19)
(0.939323 0.0553699 -1.66191e-19)
(0.951463 0.103982 0)
(0.920334 0.109116 7.54189e-20)
(0.887618 0.0732732 3.0816e-19)
(0.874685 0.0537486 -1.88921e-19)
(1.10621 3.37881 -9.48209e-19)
(1.16743 3.30068 0)
(1.1282 3.46393 -2.03639e-18)
(0.666072 3.60973 1.72331e-18)
(1.04032 3.09911 4.33432e-19)
(0.515395 0.855845 1.94128e-19)
(0.504593 0.825401 0)
(0.400381 0.549202 -8.01526e-20)
(0.463493 0.693074 3.68374e-19)
(0.52128 0.522221 -1.08468e-19)
(0.519491 0.537765 1.24962e-19)
(0.676361 0.535038 2.44106e-19)
(0.700503 0.561541 0)
(0.644888 0.618511 0)
(0.606631 0.559584 0)
(0.952053 0.598099 -5.39056e-20)
(0.900926 0.550323 -1.58222e-19)
(0.925492 0.587208 4.78398e-20)
(0.965286 0.502064 -1.13271e-19)
(1.01086 0.474347 0)
(1.02557 0.581038 1.94576e-21)
(0.821507 0.400157 -3.81237e-19)
(0.817962 0.389259 -4.56117e-19)
(0.783709 0.393493 2.98656e-19)
(0.778796 0.354417 -3.40782e-19)
(0.82703 0.304938 -2.50444e-19)
(0.789268 0.306994 3.07918e-19)
(1.02586 0.00480975 -1.57507e-19)
(1.02576 0.00448102 3.19053e-19)
(1.03082 -0.0007559 2.00301e-19)
(1.03199 0.000219245 -2.4124e-19)
(1.03257 0.00306719 0)
(1.03046 0.00296996 -3.89281e-19)
(0.149887 1.74505 -8.1874e-20)
(0.147673 1.68718 0)
(0.147279 1.74968 -5.4592e-19)
(0.145283 1.72663 4.97686e-19)
(0.1474 1.56669 -3.09052e-19)
(0.214455 1.58773 0)
(-0.466837 2.01126 0)
(-0.418081 1.72242 3.68568e-20)
(-0.393704 1.68589 -3.34065e-20)
(-0.331452 1.81884 -1.27939e-20)
(-0.33313 2.02673 3.91711e-20)
(-0.386982 2.04539 -3.44661e-20)
(0.481474 1.38837 4.11806e-19)
(0.486582 1.38289 -4.40422e-19)
(0.431951 1.28359 4.60081e-19)
(0.422356 1.29895 -2.58257e-20)
(0.598428 1.2924 0)
(0.534859 1.37609 5.43762e-19)
(0.538772 1.39074 -5.26269e-19)
(0.458335 1.25962 -4.35533e-19)
(0.491621 1.22893 0)
(0.554261 1.19627 0)
(0.679829 2.46778 -4.58481e-21)
(0.671992 2.47862 5.55307e-19)
(0.728586 2.49115 -3.80166e-19)
(0.636648 2.46705 -1.14014e-19)
(0.559743 2.5769 8.45261e-20)
(0.497298 2.53038 -2.63698e-19)
(0.970305 2.38339 -1.56151e-19)
(1.01357 2.41159 0)
(0.91603 2.1589 -1.96443e-19)
(1.04453 2.71051 0)
(1.04397 2.69516 0)
(0.630633 2.33708 3.70569e-19)
(1.12537 3.09146 4.49496e-19)
(1.01544 3.00329 -5.41959e-19)
(0.348138 0.918275 0)
(0.381274 0.844153 -1.3523e-19)
(0.556203 0.760971 -5.74905e-20)
(0.404227 2.19153 0)
(0.419902 2.75728 -3.04187e-19)
(0.432666 2.50185 0)
(0.677301 0.674205 -2.74777e-19)
(0.729272 0.661177 3.79511e-19)
(0.744125 0.634054 -3.78316e-19)
(0.675226 0.645202 -4.0867e-20)
(0.720787 0.59749 -1.71252e-19)
(0.984228 2.78556 -3.40501e-19)
(1.01644 2.78178 2.46548e-19)
(0.589488 2.2808 -1.75338e-19)
(0.624884 1.77166 7.21346e-20)
(0.716335 1.90364 4.37049e-20)
(0.982539 2.42953 -8.49712e-20)
(0.980191 2.39422 -1.03008e-19)
(0.674997 1.83823 -8.42095e-22)
(0.469491 1.34689 -6.21477e-20)
)
;

boundaryField
{
    wall-4
    {
        type            noSlip;
    }
    velocity-inlet-5
    {
        type            fixedValue;
        value           uniform (1 0 0);
    }
    velocity-inlet-6
    {
        type            fixedValue;
        value           uniform (0 3 0);
    }
    pressure-outlet-7
    {
        type            zeroGradient;
    }
    wall-8
    {
        type            noSlip;
    }
    frontAndBackPlanes
    {
        type            empty;
    }
}


// ************************************************************************* //
