/*--------------------------------*- C++ -*----------------------------------*\
  =========                 |
  \\      /  F ield         | OpenFOAM: The Open Source CFD Toolbox
   \\    /   O peration     | Website:  https://openfoam.org
    \\  /    A nd           | Version:  6
     \\/     M anipulation  |
\*---------------------------------------------------------------------------*/
FoamFile
{
    version     2.0;
    format      ascii;
    class       volScalarField;
    location    "96";
    object      p;
}
// * * * * * * * * * * * * * * * * * * * * * * * * * * * * * * * * * * * * * //

dimensions      [0 2 -2 0 0 0 0];

internalField   nonuniform List<scalar> 
918
(
0.529142
1.21523
0.00705901
0.529047
-0.0117003
1.18207
-0.512565
0.626084
0.510294
-0.124248
-0.08529
0.512049
1.03985
0.806908
-1.17295
-0.0249728
0.626149
-0.424172
0.50836
-0.0957085
0.637634
0.516968
0.519433
0.510218
0.571814
0.759421
0.917824
-0.00373293
0.0125093
0.00717034
-0.0130361
-0.0335037
-0.0307972
1.06518
1.11708
1.14045
0.476788
0.310824
-0.407132
-0.462483
-0.439319
-0.529033
0.626862
0.627953
-0.236454
0.625393
0.624313
0.495972
0.509687
0.510524
0.511647
0.510558
0.511835
0.405783
-0.132032
-0.159934
-0.108267
-0.107015
0.0249908
-0.087049
-0.0882638
-0.0831753
-0.0845967
0.425822
0.506854
0.503574
0.516283
0.5253
1.1554
1.12931
1.15556
1.06495
1.08287
1.01697
0.990173
0.828115
0.851621
0.790156
0.776518
-1.62446
-2.56389
-0.599971
-0.327121
-0.0110434
-0.0269977
-0.0263935
0.621767
0.624165
0.623838
0.626783
1.02968
-0.395939
-0.46897
0.508904
0.507434
0.516484
0.517389
0.512356
0.512353
-0.0920694
-0.0909641
-0.0793442
-0.0923299
-0.0904893
0.616975
0.619605
0.509653
0.507094
0.533428
0.555637
0.544416
0.242685
0.583342
0.599462
0.624108
0.76983
0.756414
0.768995
0.893083
0.860964
0.949799
0.971649
0.014576
-0.0019441
-0.0265997
-0.0238764
-0.0246493
0.472527
0.466091
0.494324
0.480409
0.483453
0.217134
0.0683636
0.392152
0.415145
-0.331109
-0.382063
-0.465408
-0.464304
-0.572015
0.596774
0.62944
0.628437
-0.247711
-0.175154
-0.303461
-0.117007
-0.174731
0.486914
0.493171
0.489243
0.504643
0.498804
0.501232
0.513754
0.51094
0.512532
0.455464
0.579211
0.330342
0.289818
-0.283097
-0.17861
-0.263072
-0.0987688
-0.0974413
0.0341539
0.0622485
0.0112575
-0.00222789
-0.0925494
-0.0894
-0.0914894
-0.0853012
-0.0876811
0.417269
0.404205
0.437075
0.444605
0.493577
0.49498
0.499443
0.497487
0.942139
0.965005
0.970404
0.946385
-3.53327
-6.14913
0.0126523
0.169732
-0.0105508
-0.0123184
-0.000740638
-0.0104943
-0.00182162
-0.00320989
-0.0361737
-0.0359485
-0.0298363
-0.0307273
0.619549
0.619828
0.997559
1.02474
0.966705
0.942875
0.498265
0.50014
0.504763
0.501648
-0.0878106
-0.0894399
-0.0883368
0.622883
0.620843
0.621848
0.20111
0.111883
0.294657
0.325971
0.614683
0.60402
0.613521
0.684013
0.723235
0.988263
1.01112
0.996188
1.00802
1.05834
1.08122
1.04646
0.451091
0.462022
0.456286
0.497143
0.494963
0.495905
0.492569
0.493449
0.492157
-0.0421969
-0.411021
0.463314
0.464651
0.457315
0.459819
0.684153
0.768193
0.625008
0.627314
0.627623
-0.0648287
-0.111991
0.237281
0.200891
0.356197
0.390933
0.372665
0.91713
0.876464
0.924891
0.899973
0.864677
0.889146
-0.346324
-2.10051
-1.09959
0.565778
0.370574
0.461488
-0.0203869
-0.0363277
-0.0336568
1.01471
1.05473
0.641149
0.830717
0.784507
0.745732
0.77205
0.835445
0.767948
0.802657
0.833124
0.808659
0.545379
0.473841
0.492493
0.843457
0.898787
0.0738765
-0.00596856
-0.0288173
0.0860175
0.157114
0.123794
1.03218
0.951285
1.01295
0.507336
0.508289
-0.0227745
-0.0509775
0.512404
0.512113
-0.0240756
-0.0149943
0.476476
-0.938902
0.0745286
0.501958
0.491546
0.508406
-0.104665
0.306006
-0.0892736
0.00264572
-0.0303987
0.503071
0.43819
0.395849
-0.0118323
-0.0352735
-0.0876388
-0.219111
0.505074
0.503432
0.507796
0.508614
0.509394
-0.0324426
-0.0327288
-0.022161
-0.0777102
-0.0710679
-0.0838384
0.471655
0.491698
-0.202305
0.508091
0.510197
0.509889
0.504133
0.509048
0.507695
-0.0270462
-0.0298904
-0.0319026
0.180733
0.323031
0.658904
0.733246
0.608119
0.442595
0.15392
0.596596
0.64802
0.573636
0.704037
0.627443
0.624174
0.141402
-0.00315133
0.145914
0.0788733
0.498761
0.498214
0.48906
0.485939
0.50325
0.500927
0.506122
0.503383
0.506552
0.507689
-0.0591419
-0.0884449
-0.108475
-0.151919
0.271811
0.532
0.221464
0.2809
0.142388
-0.0813121
-0.0796416
-0.0844375
-0.0879688
-0.0503185
-0.0500976
-0.0043324
0.00668826
-0.0106153
-0.0364614
-0.0589259
-0.0506652
-0.0597924
0.496225
0.496036
0.501407
0.510141
0.447829
0.45153
0.417896
0.436612
0.422776
0.362902
0.392483
0.369658
-0.0219412
-0.0135989
-0.0136764
-0.0366239
-0.036085
-0.058575
-0.051571
-0.0499581
-0.0477803
-0.0525101
-0.0807167
-0.0872718
-0.183054
-0.303846
0.944572
0.864751
0.134327
0.494957
0.500636
0.497798
0.502557
0.505749
0.506374
0.503937
0.500425
0.491828
0.493427
0.489965
0.491006
-0.139549
-0.250682
-0.0810523
-0.158393
0.139888
0.605893
0.330155
0.27467
0.259858
0.488174
0.676376
0.582631
0.636321
0.607254
-0.40232
-0.00727623
-0.338212
0.205932
0.203544
0.686286
0.727818
0.745211
0.702206
0.658718
-0.0280405
0.537599
-0.0864073
-0.0341288
0.158725
0.0387426
0.591552
0.612842
0.618925
0.616642
0.620665
0.620583
0.610625
0.597406
0.621406
0.624494
0.482807
0.208944
0.165247
0.119382
0.611307
0.506484
0.557009
0.473365
0.49437
0.496811
0.495787
0.476456
0.483822
0.479479
0.486691
0.490332
0.497721
0.497885
0.493675
0.495647
-0.0791426
-0.0876774
-0.075389
-0.132978
-0.137705
-0.181345
-0.0951386
0.0903455
0.0413376
0.23066
0.36007
0.0599907
-0.0618761
-0.0461466
0.0080074
0.158592
0.167744
0.0466048
0.148545
0.120603
0.102868
0.217358
0.218603
-0.0560742
-0.0640317
-0.0621778
-0.0685651
-0.0228037
0.0998066
0.0705437
-0.036813
-0.042235
-0.0780617
-0.0815624
0.00186572
-0.0443654
-0.0368789
-0.00381359
-0.0648746
-0.039279
-0.0302223
-0.0393157
-0.0393083
-0.0380474
0.490752
0.492573
0.492713
0.502636
0.514286
0.529103
0.495628
0.469051
0.460071
0.46317
0.43626
0.445484
0.440765
0.456615
0.478109
0.486575
0.484679
0.487389
0.469396
0.471103
0.45648
0.461116
0.430351
0.411523
0.401361
-0.0612016
-0.0289878
-0.0423558
-0.0538064
-0.0289201
-0.0377517
-0.0384141
-0.0196242
-0.03941
-0.033986
-0.0434517
-0.050451
-0.0511973
-0.085325
-0.00337975
-0.190185
-0.236281
-0.29097
0.870001
1.00907
0.784886
0.571932
0.57967
0.815044
0.922331
0.528976
0.710057
0.745683
0.563146
0.855261
0.498927
0.498501
0.496349
0.495509
0.496527
-0.025945
0.0781891
0.0877562
0.1486
0.263913
0.368514
0.304818
0.19105
0.323266
0.348125
0.603156
0.609726
0.568156
0.5901
0.59169
0.397692
0.478428
0.516069
0.472873
0.550005
0.582416
0.525387
0.56989
0.491365
0.440265
0.431508
0.386702
0.421338
0.402469
0.376719
0.490651
0.467566
0.478296
0.468614
0.490561
0.515333
0.516282
0.537644
0.554151
0.46933
0.415056
0.432144
0.461162
0.416845
0.434475
0.456545
0.179207
0.0806728
0.243705
-0.0837422
-0.000206555
0.0415333
-0.00240718
-0.0434695
0.263077
-0.372214
-0.318356
-0.991796
0.486616
0.814186
0.53467
0.546112
0.618337
0.606465
0.614356
0.613021
0.619623
0.598626
0.607684
0.613019
0.583977
0.604825
0.592179
0.60228
0.485115
0.384731
0.389344
0.319263
0.179509
0.221988
0.40961
0.343307
0.269419
0.261869
0.439357
0.303844
0.383883
0.433675
0.35616
0.292129
0.520152
0.56721
0.560575
0.532518
0.410307
0.44433
0.445073
0.495896
0.540029
0.563262
0.485262
0.491544
0.492456
0.489731
0.488095
0.491216
0.491502
0.493796
0.493934
0.496525
0.496018
-0.07883
-0.0643732
-0.0769731
-0.0860127
-0.0222651
-0.0345479
-0.00331609
-0.0382151
-0.0346109
-0.0307167
-0.0480227
-0.0623342
-0.0605999
-0.0506181
0.0749476
0.0946962
0.095565
0.0510327
0.22092
0.406908
0.463116
0.327118
0.195845
0.225043
0.308971
0.0261798
0.00538985
-0.00785395
0.0660552
0.0586992
-0.0685156
-0.0741835
-0.072183
-0.0561437
-0.0491378
-0.0772427
-0.0814527
-0.0689013
-0.0760419
-0.0805336
-0.0853695
0.47072
0.463632
0.467231
0.459651
0.457822
0.474713
0.479303
0.480399
0.485986
0.488483
0.478073
0.483877
0.487998
-0.0406324
-0.0583065
-0.0574376
-0.0617607
-0.0581918
-0.0562679
-0.0608395
0.118237
0.0245132
0.0615428
-0.0102313
-0.137994
-0.0784514
0.49113
0.482578
0.469598
0.710071
0.546197
0.464828
0.563058
0.684309
0.26616
0.464727
0.300488
0.875459
0.783275
0.928066
0.54426
0.24498
0.417971
0.424725
0.266055
0.391664
0.328706
0.204522
0.239648
0.275649
0.359459
0.24441
0.223807
-0.0194828
0.163123
0.271874
0.253803
0.379646
0.435404
0.2569
0.171752
0.117413
0.585249
0.601883
0.610002
0.582026
0.602366
0.559652
0.551316
0.567489
0.577109
0.571423
-0.626253
-0.215256
-1.4143
-0.833466
-0.381761
0.514267
0.519278
0.737289
0.636246
0.641267
0.623232
0.577251
0.557152
0.587348
0.598626
0.308112
0.392897
0.379315
0.355858
0.302246
0.244759
0.518316
0.528365
0.54985
0.578273
0.553795
0.581899
0.484022
0.483861
0.482547
0.478806
0.477306
0.480557
0.019432
-0.00470692
0.0330396
0.0175625
-0.00594509
-0.00560649
-0.04924
-0.0616282
-0.0611646
-0.0572789
-0.0462179
-0.0447214
0.165247
0.102439
0.0141956
0.0553581
-0.0126048
-0.0879742
-0.0952805
-0.0034774
0.0958319
0.0763037
0.381218
0.647689
0.47395
0.639368
0.439874
0.538003
0.452418
0.42606
0.452901
0.359849
0.450864
0.0530814
-0.149411
-0.204186
0.808129
0.772512
0.549628
0.310274
0.188206
0.476053
0.497612
0.457353
0.492074
0.535286
0.525568
0.021301
0.105012
0.197918
0.50122
0.272902
0.292745
0.282393
0.450157
0.41796
)
;

boundaryField
{
    wall-4
    {
        type            zeroGradient;
    }
    velocity-inlet-5
    {
        type            zeroGradient;
    }
    velocity-inlet-6
    {
        type            zeroGradient;
    }
    pressure-outlet-7
    {
        type            fixedValue;
        value           uniform 0;
    }
    wall-8
    {
        type            zeroGradient;
    }
    frontAndBackPlanes
    {
        type            empty;
    }
}


// ************************************************************************* //
