/*--------------------------------*- C++ -*----------------------------------*\
  =========                 |
  \\      /  F ield         | OpenFOAM: The Open Source CFD Toolbox
   \\    /   O peration     | Website:  https://openfoam.org
    \\  /    A nd           | Version:  6
     \\/     M anipulation  |
\*---------------------------------------------------------------------------*/
FoamFile
{
    version     2.0;
    format      ascii;
    class       surfaceScalarField;
    location    "96";
    object      phi;
}
// * * * * * * * * * * * * * * * * * * * * * * * * * * * * * * * * * * * * * //

dimensions      [0 3 -1 0 0 0 0];

internalField   nonuniform List<scalar> 
1300
(
3.75095
5.62643
-3.30523
3.75095
-7.7564
5.62643
-4.29286
4.29286
-0.396087
0.396087
1.87651
1.87445
-2.43271
2.43271
-1.67708
1.67708
-2.52558
2.52558
-5.24819
5.24819
-5.06895
5.06895
4.69306
-4.69306
-6.35112
6.35112
-0.966245
0.966245
-3.58764
3.58764
3.17235
-3.17235
-1.74214
1.74214
0.115375
-0.115375
-0.554081
4.30503
3.19687
3.19687
-1.98729
1.98729
-4.87534
4.87534
6.22175
-6.22175
5.20003
-5.20003
-1.8948
-2.53275
1.78676
-11.4457
-5.96963
-5.96963
-8.44087
8.44087
-2.81444
2.81199
2.94734
-2.94734
-1.71376
1.71376
-4.31092
0.0180662
-4.31092
4.2622
0.0306517
4.2622
-0.511334
0.115247
-0.511334
3.96527
-3.96527
0.297583
0.098504
0.297583
3.06734
-3.06734
-1.87685
3.75335
1.87411
-1.8721
6.17713
-1.87886
3.7533
-6.04266
6.04266
-2.68271
0.250003
-2.68271
2.19829
0.234423
2.19829
-6.90386
6.90386
-1.76906
0.0919871
-1.76906
1.68419
-0.00711302
1.68419
2.88864
-2.88864
-2.62588
0.100293
-2.62588
2.39079
0.134792
2.39079
0.35305
5.27338
-5.97948
8.79147
-5.27338
0.0251927
5.21022
0.0379712
5.21022
-5.10543
0.0364743
-5.10543
5.01385
0.0551056
5.01385
4.77976
-0.0866946
4.77976
-4.81472
0.121653
-4.81472
-3.35516
-4.08578
-6.51265
0.161538
-6.51265
-1.03739
0.0711411
-1.03739
0.861288
0.104957
0.861288
-3.73143
3.73143
-3.94707
0.35943
-3.94707
3.12729
0.0450548
3.12729
1.86812
1.88284
5.61907
-5.61907
2.44672
-1.66681
-0.0753295
-1.66681
-1.83602
-3.36401
1.83602
-0.093877
-0.118451
0.233826
-0.118451
3.15713
0.0397416
3.15713
2.23535
0.155446
-2.23535
0.248055
3.30381
-3.30381
1.3308
0.656495
1.3308
-5.55854
5.55854
4.96232
0.0515297
-4.96232
0.0869744
6.1566
0.0651531
6.1566
-6.20696
-0.014795
-6.20696
2.48063
-5.01338
-2.69282
6.16121
0.189909
-6.16121
0.191574
2.91894
0.028401
2.91894
-2.91764
2.91764
-2.9843
0.0369584
-2.9843
-2.1366
0.422844
-2.1366
1.3996
0.314156
1.3996
-4.22621
-0.0847075
-4.22621
-4.10641
0.15934
4.10641
0.155793
1.11459
-1.11459
-0.613889
0.102555
-0.613889
-4.07263
-0.153583
4.07263
-0.107359
-3.90224
-0.0630341
-3.90224
-3.02197
0.037665
3.02197
0.0453706
3.11213
0.0449984
-3.11213
0.0447958
-1.87099
3.75383
-1.87996
3.75406
-5.67922
-0.36344
-5.67922
6.36359
-0.320927
6.36359
3.10681
0.480829
-3.10681
0.424099
2.01365
0.184636
2.01365
-6.87624
-0.0276163
-6.87624
6.91176
-0.00790207
6.91176
1.87309
0.140558
-1.87309
0.104029
1.67077
0.0134224
1.67077
2.91644
-0.0277989
2.91644
-2.8822
-0.00643622
-2.8822
2.78836
-2.78836
2.71308
0.0752829
-2.71308
0.0871982
-11.1248
11.11
-0.0362979
-11.0885
5.17392
5.17392
4.23168
0.548073
4.23168
-5.01298
0.198265
-5.01298
2.66993
-5.36275
3.12992
-6.48507
4.67494
-16.1207
4.27604
-8.36182
6.76367
-6.76367
6.64509
0.11858
-6.64509
0.132436
-1.14194
0.10455
-1.14194
-3.12984
-0.601596
-3.12984
4.36615
-0.634719
4.36615
-3.02729
3.02729
-3.07618
0.0488922
3.07618
0.0511132
1.65235
0.0184158
-1.65235
-0.0144604
0.199579
0.0980042
-0.199579
0.0811281
3.52784
-0.22403
3.52784
-3.09815
-0.205663
-3.09815
-1.23332
0.0913857
1.23332
0.0974745
-5.80739
0.248848
-5.80739
-11.1823
0.0937802
-11.1444
-6.11318
-6.11318
2.32769
11.1192
-2.89739
0.0151813
2.89739
0.0215559
2.97432
0.0529627
-2.97432
0.0566829
-2.85577
0.0674163
2.85577
0.061867
-2.50462
0.368015
-2.50462
-1.01639
1.01639
-1.16292
0.14653
1.16292
0.236689
1.4179
-0.303313
1.4179
0.744862
0.116426
-0.744862
0.130973
-3.84511
-0.0571295
-3.84511
6.59774
-0.234148
6.59774
-2.96865
-0.1295
2.96865
-0.0522095
-0.0347344
11.1448
-5.13918
0.0337562
5.13918
-11.2099
11.2437
-3.20951
0.704886
3.20951
1.02218
5.28352
0.275021
-5.28352
0.270542
6.85393
0.0578286
-6.85393
0.0902648
-2.63874
-0.491102
-2.63874
-5.09374
-0.585484
5.09374
-0.727588
-11.4823
-0.202189
11.6845
-11.4272
6.00958
0.14702
-6.00958
11.3907
-0.988522
-0.126066
0.988522
0.0278636
1.75901
-0.341109
1.75901
3.74751
-0.21967
-3.74751
-0.0975958
-6.7627
-0.113543
6.7627
-0.164961
-2.18838
-0.450357
2.18838
-0.429371
-4.26739
4.30713
1.90974
-2.31474
-2.69864
-5.67875
1.85531
1.89852
4.30203
-10.1378
-5.98281
-9.94627
7.21496
-6.94442
-9.3142
9.2275
7.94843
-8.01146
-5.77724
5.82835
6.48483
-6.43946
1.87949
1.87386
8.07936
-7.82936
-15.6746
15.3111
7.66667
-7.57469
15.809
-15.8366
-17.845
17.9028
-5.70545
5.80575
-6.74295
6.73652
-6.97985
6.92764
-2.79528
-3.68979
13.1059
-12.9444
8.66767
-8.743
-8.69618
9.05561
3.38462
0.922515
3.42962
-1.88177
3.76126
-1.87153
3.78127
2.78879
-5.58407
2.57396
-5.2726
4.42381
4.24386
-4.32994
-1.34881
-5.92887
5.95727
-5.80977
5.87164
9.20139
-9.18332
-1.88498
3.75885
-1.86908
3.7676
-3.42279
-2.35445
3.37774
0.924294
8.0555
5.05043
-8.24541
-1.70087
-8.03375
7.81408
-8.21742
8.01176
-0.436151
5.83859
-5.40244
4.43919
-1.65345
7.49204
5.5615
5.75977
5.86073
-5.58571
1.08368
-6.48612
-6.39915
-2.20878
2.31134
2.04696
-1.94845
6.1622
1.78623
6.05484
-5.81418
-2.19728
-5.87131
3.81964
2.00871
3.86853
4.08223
2.4026
4.1199
3.02941
-3.03687
0.00745677
-3.05943
6.08884
0.721979
-5.41388
-4.48958
4.99708
3.08227
5.23151
-5.60718
-2.22218
-5.18308
-9.56424
-6.11033
-10.1497
10.1592
5.15195
9.83826
-11.938
11.773
4.90543
2.76124
4.89832
-4.98438
-2.5903
-4.88035
11.6614
-2.65329
-9.00813
-10.3211
-7.52387
10.329
5.48001
10.9614
6.94137
11.0517
4.41727
7.24416
-9.89728
2.37341
-3.86587
-1.83958
-3.77867
3.66463
2.14112
3.79942
-4.2189
-2.52406
-4.20372
-4.29528
-2.68457
4.32308
2.41344
-4.41768
-3.79974
4.54718
2.38046
4.06206
-10.0449
4.29977
-7.98956
-9.19315
-3.75123
-9.06072
3.58863
2.59844
-6.18707
-1.99544
8.61685
-4.37299
7.26804
-5.22994
-3.51306
-5.2444
-6.98509
-1.71109
-6.82575
-8.90627
8.41517
-9.20476
8.57004
12.4927
-5.62804
-6.8647
-3.96704
-2.47241
3.92225
-0.492631
-3.71006
3.71751
0.0512039
3.83247
4.75499
4.26236
-3.88281
-1.92696
-3.82613
3.82215
2.04949
3.88956
6.86853
2.33286
6.89918
-6.63117
-2.55216
-6.71588
9.08141
-8.65857
2.78676
-2.69538
5.38044
2.63131
-5.15641
-2.87734
6.23159
-3.2063
-3.02529
-12.3506
10.781
1.5696
-4.85858
-0.419388
-0.534763
-5.56368
-3.75052
5.44203
0.317743
11.0988
7.34825
-5.51466
5.76351
6.16982
6.22135
-0.177802
5.87623
-5.17134
5.27903
-2.73404
-2.54499
5.48946
-5.64305
-1.22641
-5.5677
4.34129
0.411794
1.43801
-1.20419
-1.74414
-0.464645
-1.61317
1.08884
0.958122
1.18684
0.961373
1.34996
-2.94189
0.483243
2.45865
-1.98052
-1.46521
-3.81361
-1.15071
4.96432
5.73974
2.07434
-5.64215
-0.229163
2.5493
-2.44434
-0.837446
-2.97617
2.21977
-3.05722
-3.45635
-1.96035
5.41671
-3.36886
-0.457274
3.31589
0.55264
-3.82825
-2.10062
3.7913
0.328601
-3.12899
6.19033
-3.06134
-5.05595
2.52905
3.55979
4.53777
-4.78988
2.44928
2.3406
-1.2301
4.26017
0.971339
4.4448
-7.08877
4.86659
5.7503
3.30532
-6.23113
1.04805
-6.04072
8.55592
-7.40564
-1.15028
4.07826
4.47766
7.00632
5.48642
-5.6583
12.6646
-1.16955
-6.23609
7.21028
-3.90496
4.8779
-8.78286
-10.3643
4.12824
-9.18987
11.081
-1.8911
-3.58568
-8.35231
12.7756
-1.2518
-11.5237
8.58646
-4.3635
-4.4318
8.7953
-7.01679
7.0221
-1.98498
-5.03712
-10.1442
-5.69246
10.2577
1.51531
-9.9675
12.3409
-2.72334
4.16409
0.734234
4.17751
3.37337
-5.47767
2.10431
3.64343
-5.62841
2.03887
-7.51655
-6.74897
12.0864
-5.33746
-10.5002
-9.53471
-0.965502
2.54949
9.79141
-9.49085
7.42515
2.06571
3.29857
0.590988
-3.37386
-0.404815
0.233394
4.50605
-4.73944
4.03281
4.18826
3.21401
1.29204
3.84953
2.10774
-3.87109
-0.332627
-4.16872
1.48415
-1.75528
-3.69312
5.17727
-4.06176
0.368641
-2.74161
-3.49249
6.2341
-4.58119
3.03562
3.15472
5.08511
-4.91409
1.4216
-2.39073
-2.52336
2.64016
-4.39543
2.00131
3.17595
4.38178
0.582033
5.90967
6.17676
-8.50812
0.518556
11.2272
-9.52631
2.47606
8.57564
-9.90121
0.366501
-8.69422
0.983198
-5.35619
-5.20387
5.23817
-6.94926
-3.5447
6.2654
0.633785
-6.42119
-0.404557
-6.04968
-2.8566
-6.50003
-3.05794
-6.14681
-8.71624
-1.66676
-7.04948
6.74841
-6.67323
-3.47649
7.40082
1.16921
-7.46376
7.33769
-7.52042
7.17931
0.0951263
3.62239
4.35749
1.88507
-2.39229
4.27736
-5.08729
7.42015
-8.77133
3.68404
4.25411
-6.80627
-4.51722
5.04488
4.03653
5.35903
8.90434
-10.3552
1.45081
-10.6226
11.9619
-1.33923
-16.3919
5.76925
-7.48755
2.41389
0.372879
2.51844
0.545101
2.50261
-3.04771
-2.15028
-2.0528
-2.44762
-3.49232
5.93994
1.05851
-3.47406
2.41555
-3.56437
4.62288
-0.0803491
-3.39371
5.18368
-2.68107
5.55656
-3.64472
1.91184
3.55052
5.84134
-2.29082
4.41904
-1.78773
1.95061
-4.24143
-1.54171
-2.95397
5.09509
-3.28013
3.64877
-0.355647
4.00442
-4.03776
0.831452
-0.823749
3.36451
3.61257
4.33311
-3.04107
2.93361
-4.72133
-1.30782
-4.1393
-0.96335
-0.182676
-3.7701
3.95278
5.98892
-6.17159
-5.2752
9.5109
-4.2357
7.68953
-5.43177
-2.25776
-4.27984
-4.37872
3.91183
1.9644
9.65392
0.177207
-5.60897
-4.99413
-3.97195
3.08997
2.18906
-1.7029
3.27249
2.23766
-0.799648
0.399972
0.786868
1.75901
-1.35904
0.33619
1.42283
-0.867997
1.68504
0.864256
-1.80147
0.188305
-1.37667
3.59644
1.08198
-2.0401
0.681056
0.895557
-3.6296
5.10423
-2.73697
-2.36726
5.99979
1.1492
-3.88617
4.4185
-4.00671
2.45825
-3.60896
-1.42792
-5.43463
-3.6484
-2.47992
4.89547
-3.46002
5.53435
1.43912
-5.30519
6.74431
-3.63082
1.67047
-3.04913
3.91339
-0.992055
-2.05707
2.87401
2.54269
-3.14379
0.167628
-0.269782
2.41588
-2.68566
-0.641341
-2.62186
-4.57619
4.90479
-2.10377
4.55305
2.17359
-1.91779
6.47084
1.80756
-3.72535
-3.24839
-3.70566
-1.38474
3.15302
-0.568877
-4.31148
-5.606
4.17092
0.273886
-7.08395
7.95031
-0.866354
-4.00168
-0.864912
4.94317
-6.09341
0.464997
-4.05453
3.89578
4.86712
5.141
-11.2964
-0.227366
-6.14444
1.08053
-7.22497
5.55819
-3.52374
7.65198
-10.3101
6.83359
-9.14087
6.5017
-0.723264
6.2397
-4.13539
2.76843
-8.46089
-6.94558
5.60181
-2.84057
6.33605
-3.23139
9.56743
-5.95473
5.39221
4.17523
-1.04895
-4.19545
-5.39268
4.34373
-0.000471515
4.17704
4.98719
-2.87945
4.65456
2.26493
-4.65566
-2.1305
-6.48894
1.83327
-3.33422
-1.92243
3.7557
3.16268
3.75367
1.23234
-3.34885
7.24957
-8.21507
-1.91211
-3.29176
5.38681
-1.04308
3.48243
-6.7742
-1.87375
4.73528
-0.724221
-4.01106
0.892767
-4.43746
1.67708
-6.11455
5.27218
-5.67674
2.25348
-9.74103
-5.21028
-5.18241
-2.27673
-5.24369
-7.55994
5.28321
-1.79069
5.54701
-8.49485
7.77063
-3.46701
8.75023
-5.44733
-1.0527
5.8767
1.30261
10.0528
0.165751
-4.68297
-1.9418
3.71565
-1.77385
1.14816
-3.60435
0.111302
2.49922
3.50056
-6.84051
0.0342412
-4.64873
-3.9032
7.93973
5.6077
11.5966
1.24146
9.12407
-1.18434
10.3655
4.1747
4.41138
-2.99564
4.44645
0.957143
4.64119
-0.89721
2.80905
1.62123
1.69237
0.751977
2.29888
1.31369
3.13033
0.0826213
-1.97018
4.62833
-8.60029
-0.98064
-8.05221
1.17529
5.4353
-4.26001
2.84619
-0.657124
1.07234
-0.202544
-1.1206
1.32314
-2.74753
-1.92025
-0.497422
-1.68691
2.36797
1.90953
-1.87054
-0.876987
0.325758
-3.97416
3.2832
-3.11557
-0.572877
6.17144
-2.88652
0.200863
-1.21605
-2.42099
-2.88564
2.69733
6.17453
0.296307
3.11319
5.2011
3.10048
0.221033
3.79243
-5.68352
-3.72412
-5.91089
-0.352695
4.59048
1.76525
8.02616
5.94048
4.8974
-1.8768
-10.0919
6.49647
-2.05002
5.15724
-1.14619
-4.96836
5.08507
2.33507
-5.71886
0.0421188
-4.92624
-6.97626
-0.477106
8.24774
-9.57573
8.52303
5.66643
1.38304
-4.4246
-0.757818
4.27807
0.133316
10.4988
-0.919493
-7.02676
7.94625
-4.5158
3.53516
0.674705
2.59779
1.99785
1.34072
-5.68603
-9.94604
-2.06495
-1.56465
-4.43221
0.532109
-2.44164
6.06178
-2.52661
3.80402
5.41964
6.49198
-2.05035
-4.12124
6.28605
-2.48204
4.00994
)
;

boundaryField
{
    wall-4
    {
        type            calculated;
        value           uniform 0;
    }
    velocity-inlet-5
    {
        type            calculated;
        value           uniform -3.75095;
    }
    velocity-inlet-6
    {
        type            calculated;
        value           uniform -5.62643;
    }
    pressure-outlet-7
    {
        type            calculated;
        value           nonuniform List<scalar> 8(3.30523 7.7564 4.42755 9.65895 7.44094 5.17345 5.79985 8.95098);
    }
    wall-8
    {
        type            calculated;
        value           uniform 0;
    }
    frontAndBackPlanes
    {
        type            empty;
        value           nonuniform 0();
    }
}


// ************************************************************************* //
