/*--------------------------------*- C++ -*----------------------------------*\
  =========                 |
  \\      /  F ield         | OpenFOAM: The Open Source CFD Toolbox
   \\    /   O peration     | Website:  https://openfoam.org
    \\  /    A nd           | Version:  6
     \\/     M anipulation  |
\*---------------------------------------------------------------------------*/
FoamFile
{
    version     2.0;
    format      ascii;
    class       volVectorField;
    location    "96";
    object      U;
}
// * * * * * * * * * * * * * * * * * * * * * * * * * * * * * * * * * * * * * //

dimensions      [0 1 -1 0 0 0 0];

internalField   nonuniform List<vector> 
918
(
(0.985049 -0.000715768 0)
(0.00543968 2.96618 0)
(-0.0046282 0.872594 0)
(0.979575 0.00196193 0)
(-0.0147286 2.06396 3.3202e-20)
(-0.00719078 2.9486 -2.53225e-18)
(0.822716 1.12544 4.52861e-19)
(0.117533 0.0858319 -1.39763e-20)
(0.999922 -0.0002462 0)
(0.0936638 0.673722 0)
(0.0197325 0.351685 0)
(0.73288 0.00867293 0)
(0.0101845 2.93181 0)
(0.00326424 2.79442 0)
(-0.00287783 3.1756 8.321e-19)
(-0.0132418 1.93297 2.44127e-20)
(0.295661 0.0458016 9.76812e-19)
(0.235146 1.11227 3.57816e-19)
(0.964311 0.00674324 0)
(-0.00398886 0.331704 0)
(0.0574144 -0.0748325 -6.32937e-19)
(1.00183 -0.00455932 0)
(0.99985 -0.00892599 0)
(0.975169 -0.00605166 0)
(0.59204 0.0278591 0)
(0.020804 2.64503 0)
(-0.0121715 2.9115 9.25472e-19)
(-0.00682333 0.9239 0)
(-0.0370124 1.17168 0)
(-0.00442748 0.89132 0)
(-0.0252826 2.58325 0)
(-0.00564505 2.11523 -2.65201e-20)
(-0.0104644 1.90412 0)
(-0.0219317 2.98768 -9.11543e-23)
(-0.0163825 3.00545 1.96525e-18)
(0.00231049 3.00043 0)
(0.871986 -0.00976729 0)
(0.371907 0.909022 1.62106e-19)
(0.821586 1.14415 -5.69326e-19)
(0.954103 1.01052 5.79004e-19)
(0.683918 1.22712 -1.03647e-19)
(0.697434 1.18701 5.90603e-19)
(0.147484 0.126537 1.36332e-20)
(0.152158 0.0933522 0)
(1.17027 0.533125 0)
(0.114562 0.10817 6.13361e-20)
(0.0923388 0.0707651 -6.36562e-20)
(0.920571 -0.00704514 0)
(1.00027 5.0989e-05 0)
(0.999907 0.000320634 0)
(1.0037 -0.00727993 0)
(1.00088 -0.000950286 0)
(1.00011 -5.43862e-06 0)
(0.0782868 1.83403 -7.69282e-19)
(0.0338736 0.847589 0)
(0.129246 0.764282 0)
(0.01842 0.78725 0)
(0.0549642 0.589553 0)
(0.00596537 2.03647 0)
(-0.00699694 0.684194 0)
(0.0125468 0.40301 0)
(-0.0136728 0.678509 0)
(0.0123423 0.350907 0)
(0.843787 -0.0156309 0)
(0.842178 0.0258721 0)
(0.757051 0.00582506 0)
(0.799885 0.0276941 0)
(0.701724 0.0197075 0)
(0.0137987 3.00031 9.3974e-19)
(0.0109388 3.00667 0)
(0.0058589 3.00352 0)
(0.0118428 2.99746 1.06625e-23)
(0.00802104 2.95884 -1.39668e-18)
(0.0122246 2.98281 0)
(0.00923216 2.90492 0)
(0.021009 2.93148 2.15318e-24)
(0.00380133 2.82438 0)
(0.0260283 2.91881 0)
(-0.000654666 2.74514 0)
(0.303956 3.56843 0)
(-0.122106 3.65098 0)
(0.147947 3.2661 -7.74407e-19)
(0.00236834 3.0052 0)
(-0.0341137 1.9911 0)
(-0.00736029 2.18189 -2.40776e-20)
(-0.00890174 1.94595 2.56733e-20)
(0.347906 0.139251 -3.39263e-19)
(0.324088 0.0163032 -3.29929e-19)
(0.301379 0.157659 -1.0137e-18)
(0.262627 0.0673356 -6.59177e-19)
(0.265982 1.02641 0)
(0.334742 1.244 -3.70292e-19)
(0.416853 1.15471 6.11079e-19)
(0.987686 0.00817267 0)
(0.943191 0.00577124 0)
(1.00028 0.000672026 0)
(1.00254 0.00906611 0)
(1.0031 0.00899888 -2.60287e-18)
(0.992135 0.00941104 1.96684e-18)
(-0.0257883 0.700696 0)
(0.00180689 0.337851 0)
(-0.0573162 1.0147 0)
(-0.039259 0.762841 0)
(-0.0206771 0.336381 0)
(-0.0805116 0.0684697 1.96871e-19)
(0.0344101 0.0553039 0)
(0.993626 -0.00769189 0)
(0.954055 -0.00648443 0)
(0.74192 0.0272682 0)
(0.672558 0.0257021 0)
(0.659452 0.0278975 0)
(0.980817 -0.00238307 0)
(0.584319 0.0654545 0)
(0.455173 -0.00920659 1.4842e-18)
(-0.0410984 2.86002 7.16664e-19)
(0.0338708 2.91431 0)
(0.0427974 2.89273 0)
(0.00319431 2.70251 0)
(-0.00874972 2.98639 8.83688e-19)
(-0.0138896 2.89426 0)
(-0.0109832 2.99151 -2.72481e-18)
(-0.011636 2.92901 9.28528e-19)
(-0.0552706 1.35392 0)
(-0.0217438 1.38333 0)
(-0.00822442 2.14316 8.73553e-22)
(-0.00832934 2.10151 0)
(-0.0172064 1.91635 0)
(0.938929 -0.00519154 0)
(0.857353 -0.0111674 0)
(0.862622 0.00572081 0)
(0.949707 -0.00613091 0)
(0.883713 -0.00810316 0)
(0.494966 1.10862 -2.05888e-19)
(0.542556 1.17874 0)
(0.333898 0.843276 3.15014e-20)
(0.279034 0.708255 0)
(0.923048 1.03982 -1.63827e-19)
(1.04621 0.849839 3.30582e-19)
(0.395169 1.32242 0)
(0.546009 1.27813 0)
(0.600227 1.20443 0)
(0.104265 0.179576 -2.96612e-19)
(0.173523 0.140295 0)
(0.171846 0.108541 1.83204e-19)
(1.00913 0.9038 0)
(1.08475 0.751498 0)
(1.11445 0.686558 -2.6651e-19)
(1.15052 0.597124 0)
(1.20667 0.391354 4.76049e-20)
(0.957533 -0.00709309 0)
(0.962751 -0.00810804 0)
(0.900942 -0.00737811 0)
(0.983934 -0.00812098 0)
(0.97444 -0.00802929 0)
(0.936557 -0.00656695 0)
(1.0002 0.0025067 0)
(1.00078 0.00123767 0)
(1 0.000759186 0)
(0.0389424 2.08428 4.23719e-19)
(0.141405 1.78205 0)
(0.0172355 2.19076 6.56231e-19)
(0.0522035 1.89012 -5.37735e-19)
(0.168791 1.087 -2.93655e-19)
(0.0509511 0.93537 0)
(0.123658 0.941749 0)
(0.00554703 0.74979 0)
(0.0319165 0.515312 0)
(-0.00229193 2.26131 -3.16021e-22)
(0.0214054 2.04283 0)
(-0.00455257 2.26117 -3.93782e-21)
(0.00350447 2.04959 -5.90244e-21)
(-0.00124882 0.719314 0)
(-0.00434801 0.698039 0)
(0.0155012 0.452383 0)
(-0.0165473 0.681489 0)
(0.00505317 0.346464 0)
(0.9396 0.0139168 0)
(0.856633 -0.0115355 0)
(0.92874 0.00490535 0)
(0.846366 -0.0127918 0)
(0.809117 0.00195548 0)
(0.8993 0.0200279 0)
(0.875399 0.0228711 0)
(0.782496 0.00287597 0)
(0.0100523 3.06786 -8.72494e-21)
(0.0156177 3.05788 0)
(0.0123038 2.96998 0)
(0.00762182 2.87675 0)
(0.892531 3.96014 0)
(1.18569 3.35695 9.33897e-19)
(0.0801431 3.08809 0)
(-0.0182067 2.91669 0)
(-0.0206905 1.41104 0)
(-0.039314 1.7031 0)
(-0.0285478 1.54081 0)
(-0.0355171 2.54518 -1.56888e-20)
(-0.0217076 2.2443 0)
(-0.0259508 2.38696 0)
(0.000171399 1.97609 -1.66063e-22)
(-0.00525569 2.25602 -3.14215e-20)
(-0.00638928 2.22046 -2.63311e-20)
(-0.00505048 1.95953 0)
(0.391474 0.115553 5.19814e-19)
(0.363994 0.00907951 -5.10271e-19)
(0.233457 1.59014 0)
(0.289907 0.770629 -3.20972e-19)
(0.175664 1.68954 -1.05173e-18)
(0.246766 1.22943 1.05217e-18)
(0.901572 0.00596111 0)
(0.966976 0.0107248 0)
(0.97484 0.00989361 0)
(0.922924 0.00585202 0)
(-0.0229854 0.684261 0)
(-0.0222323 0.690563 0)
(0.00321984 0.332454 0)
(0.082718 0.0965224 5.61844e-19)
(0.0577393 0.0715791 -6.57022e-19)
(0.0550558 0.0584974 0)
(1.10869 0.0911582 2.32862e-20)
(1.09226 0.0430087 0)
(1.01955 0.0440106 0)
(0.914458 -0.00121087 0)
(0.435486 0.0982002 0)
(0.495125 0.080106 -2.37414e-18)
(0.399447 0.00620999 8.89636e-19)
(0.0102846 2.97708 7.6387e-19)
(-0.0331062 2.86108 4.59978e-20)
(0.00830009 3.05362 -1.84322e-20)
(0.0163966 3.04264 6.86299e-19)
(-0.0117576 2.9999 3.05584e-20)
(-0.012445 2.95202 -1.2307e-22)
(-0.0150985 3.01307 -5.70469e-19)
(0.0153295 3.02552 4.0627e-19)
(0.00805035 3.03582 -6.60421e-19)
(0.934795 0.0021666 0)
(0.93957 -0.00109924 0)
(0.84825 -0.0111994 0)
(0.956227 0.0117904 0)
(0.942299 0.0131662 0)
(0.881356 0.00571273 0)
(0.915842 0.0174021 0)
(0.925122 0.0149956 0)
(0.836455 0.0032133 0)
(0.6678 1.40687 1.8614e-20)
(0.685956 1.51736 0)
(0.11714 0.285652 6.65581e-20)
(0.212809 0.650136 5.26086e-19)
(0.238407 0.687834 -3.08805e-19)
(0.211579 0.488495 6.13208e-19)
(0.341253 0.831437 1.5711e-18)
(0.136123 0.236351 3.7808e-19)
(0.258251 0.168369 6.99189e-19)
(0.211736 0.160585 1.80423e-19)
(0.219771 0.0955727 3.4338e-19)
(1.19741 0.448702 1.02464e-19)
(1.22166 0.246935 1.00076e-19)
(0.00756003 2.24495 2.4503e-19)
(0.0395321 1.96316 0)
(0.973354 0.0332506 0)
(0.947008 0.0193374 0)
(0.871599 -0.0150312 0)
(0.0129985 3.07335 0)
(0.0166957 2.94388 1.21611e-18)
(0.0138081 2.95654 0)
(0.00567161 2.85014 -1.20673e-18)
(0.00991963 3.08946 2.96789e-19)
(0.0111323 3.08395 0)
(0.704947 1.81262 -1.70164e-19)
(1.22983 2.61695 5.75435e-19)
(0.689698 1.99062 -1.39e-18)
(0.0217732 2.97595 -6.6132e-19)
(0.0398071 2.99732 0)
(-0.0387058 2.87794 0)
(-0.00622135 2.24156 -1.36105e-20)
(-0.00478723 2.26174 6.2319e-20)
(0.000213013 2.01231 -6.86867e-21)
(0.268813 1.40278 1.01972e-18)
(0.288898 0.574872 -7.00146e-19)
(0.0678312 2.00441 7.39204e-19)
(0.121457 1.87132 -8.9358e-19)
(0.210978 1.5409 1.03224e-19)
(0.00611809 3.12033 -1.64549e-18)
(0.0133397 3.1207 1.81274e-18)
(-0.00524777 2.98045 8.25049e-19)
(-0.00145873 2.97497 -7.89047e-19)
(-0.0175486 2.87702 -8.40347e-19)
(0.0117805 3.10067 -2.20255e-18)
(0.00554634 3.10541 2.23608e-18)
(0.268483 0.6966 0)
(0.218678 0.655844 -1.12354e-18)
(0.0748166 0.209538 4.94524e-19)
(0.347478 0.952687 1.1176e-18)
(0.201096 0.281782 -1.72118e-18)
(1.19999 0.176929 4.48257e-20)
(1.2184 0.306578 0)
(1.19545 0.121894 1.27786e-20)
(-0.000430731 2.2701 -1.09524e-21)
(0.00375747 2.25426 0)
(0.0320622 2.00058 0)
(0.313395 1.31719 -3.66481e-19)
(0.354387 1.17949 -7.95419e-19)
(0.234718 0.393858 1.42346e-18)
(1.00644 -0.00967869 0)
(1.00774 -0.00778154 4.7836e-19)
(-0.0487877 1.33682 0)
(-0.0580104 1.34461 0)
(1.00244 0.00326649 1.3333e-21)
(1.0032 0.00781054 9.82119e-19)
(-0.0266724 2.53225 1.98831e-20)
(-0.0292027 2.57479 0)
(0.039863 3.17209 4.6468e-19)
(0.371994 3.53634 0)
(1.15995 0.695847 -4.6944e-20)
(1.01176 0.0106269 -2.86293e-21)
(1.02089 -0.00898584 0)
(1.00157 0.000291019 1.57355e-22)
(0.118154 1.37716 0)
(0.148826 2.58639 0)
(0.0339854 1.32594 0)
(0.000956658 2.63166 -1.05412e-20)
(-0.0214547 2.57856 -1.4867e-20)
(0.998463 0.0311866 2.72903e-21)
(1.06304 0.00592097 0)
(1.10019 0.0285104 0)
(-0.0376212 1.7505 0)
(-0.0201553 2.57753 0)
(-0.0138786 1.33212 0)
(0.30935 1.49383 -1.76258e-19)
(1.01152 -0.00904972 0)
(1.00971 -0.0129827 0)
(1.00227 0.000930631 6.12488e-19)
(1.00547 -0.00491019 -7.22215e-19)
(1.00113 -0.000863029 0)
(-0.0266996 1.47702 0)
(-0.0147998 1.40191 0)
(-0.0222497 1.43979 0)
(-0.0171673 1.31748 0)
(-0.0339691 1.30795 0)
(-0.0266451 1.28928 0)
(1.03571 -0.00428539 0)
(1.01904 0.0156792 -9.63261e-22)
(0.813951 1.31542 2.87766e-19)
(1.00246 0.000391951 -6.12337e-19)
(1.00339 0.00443995 7.3088e-19)
(1.00126 0.00208844 0)
(1.01104 0.00962718 6.09815e-19)
(1.00682 0.00744255 -7.42326e-19)
(1.0071 0.0111054 0)
(-0.0254125 2.60447 0)
(-0.029143 2.58319 -3.50906e-20)
(-0.025678 2.59752 2.46826e-20)
(1.24301 0.274392 5.06755e-19)
(1.16365 0.0893725 0)
(0.0435242 3.09147 -9.34914e-19)
(0.0519811 2.87409 -6.63299e-20)
(0.102757 3.20177 1.24943e-18)
(0.121066 3.21365 -2.62644e-19)
(0.139827 3.25543 0)
(0.0224777 3.13766 2.56634e-19)
(0.060724 3.16196 9.31279e-19)
(0.0611259 3.17869 -4.8018e-19)
(0.026814 3.12947 0)
(0.539363 0.288805 0)
(0.477817 0.305168 0)
(1.14304 0.727497 1.01553e-19)
(1.10746 0.864026 -8.01723e-20)
(1.2001 0.613074 0)
(1.22691 0.546735 0)
(1.01569 0.0120359 -1.13266e-18)
(1.01462 0.0127864 1.42404e-18)
(1.02578 -0.00871249 0)
(1.02411 -0.0102836 0)
(1.00682 0.00328829 0)
(1.01088 0.00422344 0)
(1.00418 0.00222042 0)
(1.00931 0.0063347 0)
(1.00682 0.00503837 0)
(1.00436 0.00524955 0)
(0.108036 1.37796 0)
(0.0969463 1.33475 0)
(0.142661 1.42382 0)
(0.146813 1.40699 0)
(0.150806 2.60825 0)
(0.188702 2.67458 -4.03751e-19)
(0.0931697 2.6565 0)
(0.083907 2.6525 1.74495e-19)
(0.0248183 2.67474 -1.54925e-19)
(0.0214547 1.33438 0)
(0.031168 1.25097 0)
(0.023836 1.35042 0)
(0.0485419 1.27193 0)
(-0.00259213 1.9933 4.44459e-20)
(-0.0214008 2.60703 -4.60219e-20)
(-0.00493415 2.67402 -3.95367e-20)
(-0.0184413 2.68633 0)
(-0.023641 2.61284 4.3947e-20)
(-0.0221028 2.60839 4.69788e-20)
(0.00380528 1.98933 -3.46344e-20)
(-0.0102504 2.39643 6.17407e-20)
(-0.0148564 2.42241 4.48195e-20)
(1.01125 0.040401 1.14831e-18)
(1.00482 0.0212053 -1.42944e-18)
(1.00356 0.0474212 -1.17306e-18)
(0.976154 0.0377558 1.47753e-18)
(1.06471 0.00926242 0)
(1.04994 -0.00642119 0)
(1.09272 0.0378866 0)
(1.0759 0.0151104 0)
(1.07468 0.000518713 0)
(1.14124 0.0797959 0)
(1.11583 0.0465386 0)
(1.11932 0.0374902 0)
(-0.0323838 2.42911 4.30032e-21)
(-0.0234202 2.02454 0)
(-0.0243288 2.21956 0)
(-0.0222655 2.59837 -2.2445e-20)
(-0.0187369 2.60973 7.36645e-22)
(-0.00369661 1.59848 -6.31817e-20)
(-0.0154138 1.5211 6.45785e-20)
(-0.0247687 1.41348 0)
(-0.0297484 1.41987 0)
(-0.0358254 1.40941 0)
(-0.00785255 1.33489 0)
(0.00894948 1.24728 0)
(0.386874 1.5186 2.95426e-19)
(0.435616 1.52283 1.56306e-19)
(0.590937 2.46065 -2.46101e-19)
(0.384021 2.55734 6.88694e-19)
(0.348902 2.04712 6.96108e-20)
(1.02072 -0.00798953 0)
(1.0158 -0.00934589 0)
(1.01486 -0.0132037 0)
(1.00775 -0.000547734 0)
(1.00484 -0.000692557 0)
(1.008 -0.00446466 0)
(1.00954 -0.0034294 0)
(1.01465 -0.00426655 0)
(1.01978 0.0164673 1.11112e-18)
(1.01719 0.0151015 -1.4117e-18)
(1.02018 0.0189583 -1.11982e-18)
(1.01756 0.0174216 1.40325e-18)
(0.770298 1.36214 0)
(0.708866 1.3982 2.54264e-19)
(0.878339 1.24309 1.07877e-19)
(0.914783 1.20263 -1.43172e-19)
(1.16116 2.60641 2.63634e-19)
(0.74849 0.129639 5.78718e-19)
(1.17203 0.108274 0)
(1.21499 0.203044 -4.1153e-19)
(1.19651 0.154483 -1.71199e-20)
(1.01165 0.16609 0)
(0.0752807 3.01834 3.29977e-19)
(0.081417 2.90322 -1.09682e-18)
(0.0229701 2.36138 6.95173e-19)
(0.159668 -0.272806 -3.03123e-19)
(0.340125 3.44064 -2.56514e-19)
(0.191532 3.3372 0)
(0.221995 3.39234 3.34139e-19)
(0.219724 3.07544 -1.16074e-18)
(0.252332 3.19334 0)
(0.00644235 3.12239 4.86836e-20)
(0.0168893 3.13113 -5.61794e-19)
(0.0159054 3.1269 8.26858e-19)
(0.0329282 3.14006 0)
(0.0309375 3.14956 0)
(1.25304 2.56908 0)
(0.542551 0.790591 -5.15753e-19)
(1.02772 1.03808 -1.90739e-20)
(0.994446 1.09076 0)
(0.863432 0.972493 -1.02862e-19)
(1.08719 0.913555 2.65786e-20)
(0.282397 0.309606 -7.56238e-19)
(0.629684 0.325228 -2.26567e-20)
(0.519476 0.216779 3.88875e-19)
(0.511845 0.313818 2.77443e-20)
(0.37623 0.262086 -1.10657e-18)
(0.583278 0.325109 0)
(0.676557 0.439924 6.71639e-19)
(0.691256 0.452942 0)
(0.539787 0.320768 0)
(0.443079 0.250321 0)
(0.796981 0.660564 3.94626e-19)
(1.25472 0.308642 -4.11538e-19)
(1.248 0.440918 0)
(1.24806 0.395917 0)
(0.683284 0.185996 5.90561e-19)
(0.847185 0.562083 -3.67068e-19)
(0.767803 0.521025 6.5474e-19)
(0.965096 0.456192 -6.52809e-19)
(1.01853 0.014795 7.56917e-19)
(1.0171 0.0136886 -7.6222e-19)
(1.01583 0.0143171 0)
(1.03709 -0.00450394 0)
(1.03049 -0.00768173 -7.13316e-19)
(1.0287 -0.0105707 7.05904e-19)
(1.02476 0.0110185 0)
(1.02272 0.0151141 0)
(1.01271 0.00476619 0)
(1.0146 0.00909415 0)
(1.01645 0.00427008 0)
(1.01558 0.00294913 0)
(0.0785197 1.36403 0)
(0.0818876 1.30387 0)
(0.159419 1.42602 6.01983e-20)
(0.277009 1.4903 8.61314e-20)
(0.176285 1.46269 1.93913e-19)
(0.213533 1.45909 -3.13481e-19)
(0.166697 1.43823 0)
(0.146712 1.58533 -8.37851e-20)
(0.144116 1.58272 0)
(0.342596 1.99968 -1.01359e-19)
(0.328698 2.32673 6.16444e-19)
(0.198072 1.4684 7.30142e-20)
(0.276271 1.40503 2.83253e-20)
(0.206937 1.40492 -2.30997e-20)
(0.290887 1.34348 -7.92454e-20)
(0.261365 1.57749 0)
(0.26873 1.6243 8.9779e-20)
(0.0199177 2.24137 -1.45464e-20)
(0.0368321 2.66765 0)
(0.0565629 2.3935 1.03753e-19)
(0.0475785 2.41837 0)
(0.0637787 2.67502 -2.09334e-19)
(0.0423528 2.70141 0)
(0.0268452 1.466 6.31804e-20)
(0.0307452 1.52261 0)
(0.0352943 1.42513 0)
(0.0265705 1.43474 -7.24317e-20)
(0.0047526 2.65898 4.91794e-21)
(0.0270059 2.68872 1.79117e-19)
(0.0124529 2.73242 8.73188e-22)
(0.0042429 1.84758 -2.85501e-20)
(-0.00452189 1.70008 -1.96565e-20)
(0.0187781 1.31524 0)
(0.0277778 1.22693 0)
(0.0420184 1.59395 -8.10898e-22)
(0.0433399 1.47344 -5.56438e-20)
(0.0249939 1.55814 5.62533e-20)
(0.0566075 1.61614 0)
(-0.0320821 2.26865 1.35291e-19)
(-0.0353181 2.546 -5.73158e-20)
(-0.0208501 2.44642 1.04925e-20)
(-0.00346765 1.863 3.46076e-20)
(-0.02809 2.50124 1.49206e-20)
(-0.0224049 2.44332 -3.81847e-20)
(1.01834 0.0224975 -7.6106e-19)
(1.01493 0.0289519 7.64606e-19)
(1.01223 0.0183882 0)
(1.00954 0.0709067 1.06294e-18)
(0.990456 0.0606283 -1.20136e-18)
(0.950529 0.0562549 1.34532e-18)
(1.01255 0.115825 -1.42512e-19)
(1.04403 -0.004639 0)
(1.05224 -0.000381482 6.83011e-19)
(1.04033 -0.0081474 -6.82634e-19)
(1.07232 0.0438249 -4.04697e-20)
(1.06503 0.0291999 3.4971e-19)
(1.06414 0.0658413 0)
(1.05436 0.0550869 -1.26017e-19)
(1.03217 0.0439285 0)
(1.0262 0.0388025 0)
(1.02765 0.0136666 0)
(1.02402 0.0163967 0)
(1.04061 0.0338104 2.58991e-19)
(1.03929 0.0285107 -5.73414e-19)
(1.05317 0.0388627 -2.73889e-19)
(1.04822 0.0387543 -3.0231e-19)
(1.07787 0.070698 5.77875e-19)
(1.1018 0.0568008 0)
(1.10849 0.0956331 0)
(-0.0299131 2.27454 7.8182e-20)
(-0.0330878 2.02931 4.53948e-21)
(-0.0281395 2.03933 0)
(-0.0313187 2.44266 -7.78158e-20)
(-0.0298949 2.40158 -8.66203e-21)
(-0.0361499 2.46882 1.03546e-20)
(-0.0215948 2.62064 -3.99306e-20)
(-0.0273254 2.56258 2.31073e-21)
(-0.0255976 2.51618 -1.36018e-20)
(-0.017705 2.61362 2.56165e-20)
(-0.02158 2.61597 -2.98062e-20)
(-0.0125296 1.52714 -1.06866e-21)
(-0.00719496 1.64483 -6.4913e-20)
(0.378265 1.45445 -1.27037e-19)
(0.373557 1.38492 1.14393e-20)
(0.650185 1.44594 -2.46032e-19)
(0.525488 1.51564 -1.51813e-19)
(0.5795 1.47463 0)
(0.607092 2.41702 2.16431e-19)
(0.66614 2.42675 3.36492e-19)
(0.421774 2.51235 9.07615e-20)
(0.402813 2.53269 -6.22451e-19)
(0.49968 2.47226 5.62247e-19)
(0.553115 2.47081 0)
(0.485716 2.52174 -5.44743e-19)
(0.260746 2.58427 1.10668e-18)
(0.359735 2.56317 -6.00434e-20)
(0.277129 2.6479 -1.54986e-18)
(0.97021 2.38448 7.06533e-19)
(0.847869 2.38495 0)
(1.01141 0.00139775 2.4832e-20)
(1.01537 -0.00515403 -2.02899e-20)
(1.01779 -0.00388528 -3.70859e-19)
(1.01564 -0.00101664 3.69573e-19)
(1.01313 0.00184864 0)
(0.638335 1.30714 0)
(0.682955 1.19222 0)
(0.798314 1.12275 0)
(0.670382 1.14919 0)
(1.19233 2.62197 5.1549e-20)
(1.08446 2.37281 0)
(0.815317 2.16395 3.50352e-21)
(0.820364 2.42611 0)
(0.915221 2.51675 -4.3039e-19)
(0.946455 2.46616 2.87367e-19)
(0.783661 0.161729 0)
(0.726079 0.144795 1.56871e-19)
(0.905371 0.162665 9.16672e-19)
(0.813262 0.144999 -3.42389e-19)
(0.754943 0.0926658 -1.05827e-18)
(1.08779 0.247839 -8.29069e-19)
(0.985228 0.317097 -9.8155e-21)
(0.927605 0.354649 8.03933e-19)
(1.01367 0.260563 6.83424e-19)
(0.93 0.207254 -1.20942e-18)
(0.887323 0.220185 1.52349e-19)
(0.929671 0.32153 -3.13887e-19)
(0.904571 0.225326 0)
(1.00036 0.21015 5.9123e-19)
(1.05489 0.219745 0)
(1.05263 0.231313 0)
(1.12597 0.125788 2.63822e-19)
(1.06509 0.19569 -1.06477e-20)
(1.07925 0.249457 -1.51132e-19)
(1.11299 0.213082 0)
(1.02226 0.0483367 5.85538e-19)
(1.03693 0.0626656 7.30509e-19)
(1.0327 0.0461025 -5.81479e-19)
(1.04134 0.0693005 -4.89843e-19)
(1.0151 0.0763488 -7.50558e-19)
(0.984023 0.169303 0)
(0.987 0.108285 0)
(0.962083 0.0746691 -4.78852e-19)
(0.900039 0.0996901 1.92204e-19)
(1.03902 0.116902 6.77665e-19)
(1.07614 0.138224 -7.72782e-19)
(1.07069 0.182088 6.95068e-19)
(1.03553 0.15879 0)
(1.08625 0.123557 0)
(1.0568 0.113256 -3.17183e-19)
(1.04254 0.109255 -5.50502e-19)
(0.587358 1.07926 1.16691e-19)
(0.607898 1.39743 -1.79534e-20)
(1.14289 2.71439 -2.44072e-19)
(1.19497 3.09854 2.42232e-21)
(1.25005 2.72254 -1.15366e-19)
(1.28898 2.69255 1.70781e-20)
(1.26344 2.31485 -3.83895e-20)
(1.18239 3.00362 -7.16617e-20)
(1.20223 2.96053 2.20102e-19)
(1.17626 3.25127 -1.2228e-19)
(1.39332 2.96414 1.53524e-19)
(1.40446 2.89835 0)
(0.579237 0.815558 -4.746e-20)
(0.196511 1.21188 4.60751e-19)
(0.529124 0.321672 4.91485e-19)
(0.411724 0.0879038 5.58843e-19)
(0.443614 0.290159 6.26475e-19)
(0.546064 0.415989 -1.01765e-18)
(0.558107 0.397254 8.34059e-19)
(0.446859 0.292619 -3.06266e-19)
(0.263197 0.22617 7.06611e-19)
(0.715208 0.258006 -3.40734e-19)
(0.660846 0.290977 0)
(0.593985 0.196236 7.82366e-21)
(0.728039 0.515579 3.55148e-19)
(0.699836 0.492635 -1.28694e-18)
(0.632207 0.440159 1.1622e-20)
(0.609795 0.418837 0)
(0.72274 0.722241 3.64923e-19)
(0.83945 0.80344 4.02057e-19)
(0.777467 0.853318 -4.68434e-19)
(0.907719 0.824026 -1.47625e-19)
(0.943415 0.867546 -3.38919e-20)
(0.950785 0.875044 3.47632e-20)
(0.884048 0.684407 -6.52403e-19)
(0.957179 0.729788 1.37252e-19)
(1.01316 0.732063 0)
(1.0112 0.706863 -1.75077e-19)
(1.03019 0.342805 2.06782e-19)
(1.15952 0.343478 2.48397e-19)
(1.07454 0.285403 3.38982e-19)
(0.999202 0.390421 -4.14276e-19)
(1.05822 0.491796 0)
(1.14009 0.432013 0)
(0.900349 0.428391 -3.51653e-22)
(0.844941 0.324656 0)
(0.89191 0.314825 3.84941e-19)
(0.913965 0.353115 3.20373e-21)
(0.988046 0.503514 1.82214e-18)
(0.919352 0.562287 4.69637e-19)
(0.943757 0.520479 -4.97056e-19)
(0.861031 0.495212 5.29691e-19)
(0.824831 0.469933 3.39024e-19)
(0.801215 0.45001 -3.32159e-19)
(1.02821 -0.000362664 6.12665e-19)
(1.02051 0.000609078 0)
(1.01913 0.00141899 3.99859e-19)
(1.0227 -0.000708964 -9.05084e-19)
(1.02258 0.00462264 4.40927e-19)
(1.02004 0.011673 -9.22946e-19)
(1.0208 0.0115012 0)
(1.01971 0.0122721 -1.92236e-19)
(1.01662 0.00783569 4.81683e-19)
(1.0167 0.0109637 -2.42242e-19)
(1.01732 0.0106721 1.77442e-19)
(0.0376896 1.33881 0)
(0.0443912 1.40237 0)
(0.0565028 1.34174 0)
(0.0626982 1.27669 0)
(0.0854164 1.40775 -6.90221e-20)
(0.0922093 1.3793 1.44332e-20)
(0.0877823 1.57541 2.91338e-21)
(0.103433 1.41445 -4.39522e-20)
(0.0455563 1.48785 4.66928e-20)
(0.0503561 1.48262 -3.67602e-20)
(0.0764896 1.40335 -2.36383e-20)
(0.0660763 1.40522 7.23608e-20)
(0.0623859 1.38621 1.18663e-20)
(0.0481095 1.40427 7.93546e-21)
(0.100641 2.35487 -1.14548e-19)
(0.0877817 2.40476 0)
(0.157502 2.01057 1.01113e-19)
(0.136304 1.70294 3.67563e-20)
(0.219061 2.01108 -7.72984e-20)
(0.203646 2.42412 0)
(0.211279 2.39584 -6.31887e-19)
(0.319168 2.36369 4.44879e-19)
(0.24749 1.9813 -2.19604e-19)
(0.141535 2.14085 1.47107e-19)
(0.119294 2.2429 0)
(0.0142276 1.84496 -4.3828e-20)
(-0.00550198 2.36442 -2.05433e-21)
(0.00320858 2.12148 0)
(0.00557706 2.42747 -1.72769e-20)
(0.019383 2.25887 3.27008e-20)
(0.0124606 1.44193 -1.29061e-20)
(0.0120661 1.42342 2.18989e-19)
(0.00951977 1.43473 -7.05514e-20)
(0.021576 1.4442 -6.2569e-20)
(0.0241229 1.46948 0)
(0.0070051 1.42007 0)
(0.00219214 1.31684 -9.11529e-20)
(0.00147304 1.41044 2.65729e-20)
(0.0086288 1.40889 0)
(0.0125812 1.30729 -6.86485e-20)
(0.0233985 1.21635 1.38357e-19)
(1.04247 0.0150707 0)
(1.04902 0.0105598 -6.38684e-20)
(1.03918 0.0245898 -4.61887e-19)
(1.04962 0.0234709 0)
(1.05467 0.0226836 0)
(1.03637 0.0130478 -6.74476e-21)
(1.0302 0.0134669 7.44383e-19)
(1.03195 0.0174752 9.02507e-19)
(1.02563 0.0211583 0)
(1.02226 0.0218018 0)
(1.03567 0.0259912 4.60871e-19)
(1.02583 0.0282527 0)
(1.02369 0.0280472 0)
(-0.0202016 2.02992 0)
(-0.0112926 1.67115 -2.35201e-21)
(-0.00916796 1.77269 -3.57873e-20)
(-0.00646453 1.41737 0)
(-0.00848188 1.57871 -3.78761e-20)
(-0.0176215 1.49367 2.30079e-20)
(-0.0156032 1.43551 0)
(0.402356 1.61864 0)
(0.367476 1.32278 -1.91791e-20)
(0.274955 1.34617 0)
(0.437428 1.32071 -4.87401e-20)
(0.473448 1.4804 0)
(0.459035 1.42192 4.56592e-20)
(1.03968 2.66552 -1.50054e-20)
(0.98449 2.40347 -8.87388e-19)
(0.946414 2.20407 9.91642e-19)
(0.864502 2.377 2.40712e-19)
(0.852012 2.48178 0)
(0.920911 2.47689 0)
(0.954009 2.37714 0)
(0.929872 2.36796 -9.31918e-19)
(0.690006 2.44602 -3.7412e-19)
(0.799532 2.4297 -9.67112e-20)
(0.806649 2.40805 7.28863e-20)
(0.703287 2.39802 0)
(0.808682 2.39141 0)
(0.769203 2.40806 -3.65147e-19)
(0.764851 2.46025 0)
(0.633302 1.07013 0)
(0.514057 0.852944 -5.56501e-19)
(0.523243 0.930796 -3.24489e-20)
(0.500668 1.06625 0)
(0.488246 0.972947 8.50011e-19)
(0.805206 0.888802 -1.29876e-19)
(0.808913 1.02406 0)
(0.790257 1.00744 1.76712e-19)
(0.678685 1.02334 0)
(0.669836 0.927396 0)
(1.16133 2.75074 -2.14408e-19)
(1.13658 2.80938 -8.55708e-20)
(0.920817 2.33237 6.87191e-20)
(0.897725 2.31288 -7.39124e-20)
(1.13096 2.72814 0)
(1.08317 2.69596 8.87434e-20)
(1.09807 2.4897 -2.91246e-19)
(0.999445 2.24884 -2.78127e-20)
(0.495185 1.32492 0)
(0.515483 1.07445 -1.02761e-19)
(0.596413 1.18521 0)
(0.847722 0.23373 0)
(0.752063 0.180613 0)
(0.658879 0.142674 0)
(0.851674 0.233095 -6.07114e-19)
(0.739723 0.226639 3.56024e-19)
(0.91562 0.0876573 -3.96477e-19)
(0.923089 0.138481 0)
(0.907276 0.154347 1.71776e-19)
(0.836769 0.109899 6.88123e-19)
(0.788626 0.0764728 -4.31751e-19)
(1.09228 3.34145 -6.6982e-19)
(1.161 3.26556 0)
(1.11024 3.42591 -1.56859e-18)
(0.653197 3.57261 1.30501e-18)
(1.02023 3.07312 1.22548e-19)
(0.533845 0.772365 5.63679e-19)
(0.511089 0.73857 0)
(0.341859 0.31941 -1.41036e-19)
(0.497653 0.630704 8.39895e-19)
(0.570543 0.320959 -1.80888e-19)
(0.525515 0.454654 2.17764e-19)
(0.688314 0.527332 4.51167e-19)
(0.730833 0.566155 0)
(0.673907 0.566881 0)
(0.661639 0.539442 0)
(1.01982 0.616953 8.5327e-20)
(0.972407 0.600787 -4.54927e-19)
(0.983648 0.612663 3.44968e-19)
(1.04735 0.55454 -3.3469e-19)
(1.09291 0.523251 0)
(1.09505 0.604797 -8.73438e-20)
(0.885765 0.424984 -7.55758e-19)
(0.873495 0.408788 -9.75694e-19)
(0.796452 0.418875 5.96795e-19)
(0.810061 0.378259 -6.22537e-19)
(0.853324 0.337004 -4.88669e-19)
(0.796099 0.341407 5.98375e-19)
(1.0266 0.00673398 -4.61363e-19)
(1.02624 0.0068553 9.29691e-19)
(1.02998 0.000956034 5.93634e-19)
(1.03418 0.00159561 -7.12829e-19)
(1.03401 0.0119111 0)
(1.02981 0.0120516 -1.16529e-18)
(0.0829761 1.64418 9.78069e-21)
(0.0723279 1.60598 0)
(0.103732 1.69926 5.50289e-20)
(0.115179 1.67774 -4.79411e-20)
(0.0723277 1.57262 -5.24109e-21)
(0.0691778 1.57472 0)
(0.00893726 1.70715 0)
(-0.00641383 1.52986 2.03018e-20)
(-0.00575658 1.47344 -1.82309e-20)
(-0.0122688 1.57637 3.4047e-21)
(-0.00120563 1.89548 3.02748e-20)
(-0.0132368 1.95046 -1.20644e-20)
(0.493024 1.35784 -2.55411e-19)
(0.495901 1.35211 2.79477e-19)
(0.45171 1.31268 -7.65139e-21)
(0.428136 1.29021 7.2992e-21)
(0.631402 1.31424 0)
(0.557323 1.40867 1.19996e-19)
(0.558221 1.41158 -1.16768e-19)
(0.487968 1.30174 7.38503e-21)
(0.528337 1.25337 0)
(0.592657 1.21903 0)
(0.663952 2.40938 5.50929e-19)
(0.659745 2.43936 1.26305e-18)
(0.715132 2.45444 -8.68944e-19)
(0.614304 2.42618 -1.98586e-19)
(0.555174 2.51926 2.7185e-19)
(0.495733 2.48518 -7.01794e-19)
(0.991464 2.38216 -5.58832e-19)
(1.02258 2.39969 0)
(0.949225 2.18728 -6.10249e-19)
(1.05421 2.67693 0)
(1.05304 2.65774 0)
(0.595836 2.28311 3.5486e-21)
(1.11506 3.06549 7.31586e-20)
(0.991091 2.96116 -1.19858e-19)
(0.313277 0.776939 0)
(0.309511 0.647452 -3.01049e-19)
(0.5211 0.586789 -3.02916e-19)
(0.357634 2.12419 0)
(0.399881 2.74366 -8.62861e-20)
(0.408932 2.47754 0)
(0.731948 0.692658 -7.76266e-19)
(0.797969 0.702843 1.08626e-18)
(0.797879 0.66447 -1.08979e-18)
(0.705992 0.648062 -9.84784e-20)
(0.758 0.608364 -4.12966e-19)
(0.965778 2.74816 -5.54038e-20)
(1.0116 2.7567 -2.0709e-19)
(0.545893 2.19711 4.43202e-19)
(0.599871 1.73012 -3.50072e-19)
(0.698715 1.84861 -4.9113e-19)
(0.973514 2.38935 -1.38097e-19)
(0.974099 2.3427 3.62966e-19)
(0.639958 1.75556 3.32658e-20)
(0.447022 1.29056 1.72541e-19)
)
;

boundaryField
{
    wall-4
    {
        type            noSlip;
    }
    velocity-inlet-5
    {
        type            fixedValue;
        value           uniform (1 0 0);
    }
    velocity-inlet-6
    {
        type            fixedValue;
        value           uniform (0 3 0);
    }
    pressure-outlet-7
    {
        type            zeroGradient;
    }
    wall-8
    {
        type            noSlip;
    }
    frontAndBackPlanes
    {
        type            empty;
    }
}


// ************************************************************************* //
