/*--------------------------------*- C++ -*----------------------------------*\
  =========                 |
  \\      /  F ield         | OpenFOAM: The Open Source CFD Toolbox
   \\    /   O peration     | Website:  https://openfoam.org
    \\  /    A nd           | Version:  6
     \\/     M anipulation  |
\*---------------------------------------------------------------------------*/
FoamFile
{
    version     2.0;
    format      ascii;
    class       volScalarField;
    location    "68";
    object      p;
}
// * * * * * * * * * * * * * * * * * * * * * * * * * * * * * * * * * * * * * //

dimensions      [0 2 -2 0 0 0 0];

internalField   nonuniform List<scalar> 
918
(
0.535363
1.24041
0.00595246
0.535271
-0.0113151
1.20819
-0.500558
0.63829
0.516511
-0.125219
-0.0726156
0.518427
1.06503
0.832304
-1.16644
-0.0199826
0.631857
-0.417296
0.514548
-0.0742383
0.661375
0.523188
0.525654
0.516441
0.580994
0.787204
0.942023
-0.00355837
0.0100726
0.00490063
-0.0126297
-0.0329602
-0.029247
1.09133
1.14325
1.16642
0.483045
0.317544
-0.395827
-0.449686
-0.428669
-0.518546
0.636261
0.635772
-0.223764
0.64014
0.642193
0.502215
0.515905
0.516741
0.517867
0.516771
0.518051
0.388987
-0.132023
-0.157772
-0.110701
-0.110028
0.0322905
-0.0754219
-0.0781417
-0.0711044
-0.0704037
0.432096
0.512737
0.509747
0.52307
0.532029
1.18057
1.15438
1.18045
1.09074
1.10847
1.04211
1.01514
0.853828
0.877157
0.816005
0.803789
-1.62307
-2.56981
-0.589352
-0.312895
-0.0104986
-0.0210495
-0.0192816
0.627392
0.629996
0.629846
0.633071
1.03435
-0.389153
-0.460815
0.515079
0.5136
0.52271
0.523613
0.518576
0.518577
-0.0704619
-0.0694069
-0.0632304
-0.0737509
-0.0737719
0.651936
0.651225
0.515877
0.513322
0.540153
0.564014
0.551435
0.249665
0.591594
0.605446
0.649045
0.797522
0.783933
0.796889
0.917154
0.885348
0.973718
0.995419
0.013636
-0.00126946
-0.0220768
-0.0211354
-0.0212426
0.478784
0.472345
0.500301
0.486664
0.489707
0.222756
0.07245
0.399718
0.423371
-0.319245
-0.368704
-0.457314
-0.455273
-0.562372
0.60218
0.635543
0.634861
-0.235569
-0.162912
-0.290451
-0.105674
-0.162724
0.493166
0.499418
0.495492
0.510873
0.505043
0.507466
0.519977
0.517158
0.518753
0.449582
0.578281
0.306977
0.281519
-0.278844
-0.175025
-0.259497
-0.101867
-0.099834
0.0432844
0.0726429
0.01903
0.00640151
-0.0920595
-0.0821736
-0.0876437
-0.0683079
-0.0693373
0.423537
0.410484
0.443338
0.450865
0.499627
0.50116
0.505788
0.503587
0.965969
0.988888
0.99499
0.971117
-3.54726
-6.17967
0.0310779
0.190155
-0.00915279
-0.0105323
7.66035e-05
-0.00952107
-0.000470337
-0.00259377
-0.0272226
-0.0274599
-0.0218694
-0.0226846
0.626218
0.627243
1.00308
1.03018
0.973101
0.949021
0.504411
0.506302
0.51093
0.50781
-0.0685321
-0.068113
-0.067936
0.643515
0.648659
0.645988
0.208366
0.119571
0.301279
0.332478
0.620627
0.607625
0.617851
0.708246
0.748086
1.01261
1.03648
1.02077
1.0337
1.08454
1.10749
1.07232
0.457344
0.468274
0.462539
0.503273
0.501026
0.501997
0.498626
0.499432
0.498165
-0.038958
-0.410843
0.473068
0.474404
0.465958
0.469286
0.688901
0.772436
0.63136
0.633309
0.633841
-0.054273
-0.101483
0.23988
0.210475
0.362601
0.397214
0.37903
0.941547
0.902085
0.949852
0.925195
0.889928
0.912964
-0.347182
-2.10987
-1.10533
0.590508
0.393533
0.485269
-0.0102198
-0.0266313
-0.0232026
1.0212
1.06172
0.645561
0.832229
0.785973
0.774483
0.801779
0.859709
0.792576
0.826062
0.857755
0.834526
0.552231
0.483112
0.500756
0.847874
0.903427
0.0821073
0.0035005
-0.0197477
0.0971631
0.168459
0.136257
1.03919
0.956643
1.01879
0.513561
0.51451
-0.0172728
-0.0397139
0.518625
0.518337
-0.0210291
-0.0111886
0.501336
-0.934495
0.0840556
0.508143
0.4978
0.514625
-0.107181
0.320774
-0.077226
0.014256
-0.0204406
0.50936
0.444422
0.402026
-0.00561517
-0.02904
-0.0679841
-0.214498
0.5113
0.50966
0.514011
0.514829
0.515605
-0.0256608
-0.025693
-0.0176278
-0.0619012
-0.05729
-0.0671653
0.477918
0.498306
-0.19347
0.514304
0.516406
0.516104
0.510305
0.515245
0.513874
-0.0212148
-0.0254448
-0.0268549
0.188458
0.329299
0.685669
0.761351
0.634034
0.466905
0.173859
0.62169
0.674205
0.598822
0.730699
0.63128
0.636926
0.151157
0.0079495
0.155569
0.0884795
0.504984
0.504419
0.495328
0.492195
0.509453
0.507129
0.512326
0.509555
0.512728
0.51388
-0.0615089
-0.0909708
-0.107676
-0.148735
0.285372
0.541095
0.224796
0.245189
0.150158
-0.0699396
-0.0700756
-0.0740851
-0.080098
-0.0365296
-0.0387054
0.00791473
0.0160821
-0.00119131
-0.0270705
-0.0431274
-0.0384338
-0.045365
0.502619
0.502685
0.508824
0.51833
0.454052
0.457776
0.424072
0.442832
0.428992
0.36901
0.398678
0.375914
-0.016641
-0.00646205
-0.00900242
-0.0291109
-0.0280416
-0.0495391
-0.0423083
-0.0404158
-0.0370408
-0.0419427
-0.0620479
-0.0660022
-0.178147
-0.29775
0.95195
0.868373
0.13706
0.501205
0.506867
0.504037
0.508762
0.51196
0.512592
0.510161
0.50665
0.498342
0.499728
0.496604
0.497887
-0.13214
-0.241414
-0.0724645
-0.148243
0.145411
0.611631
0.336561
0.281579
0.266704
0.493852
0.696084
0.607522
0.665501
0.645793
-0.393431
0.00871321
-0.326241
0.220458
0.214294
0.71051
0.75343
0.771891
0.728334
0.684048
-0.0273337
0.545808
-0.0754258
-0.0243061
0.166735
0.0496768
0.6351
0.616749
0.624217
0.632334
0.639938
0.626504
0.612791
0.60654
0.628552
0.631817
0.490246
0.216839
0.174088
0.128147
0.617266
0.512548
0.562672
0.481059
0.500668
0.503046
0.502
0.48271
0.490076
0.485731
0.492965
0.496687
0.503949
0.504146
0.499985
0.5019
-0.0824238
-0.0904375
-0.0726103
-0.128826
-0.133734
-0.177311
-0.0892569
0.0924861
0.041784
0.236395
0.368861
0.0636346
-0.0568535
-0.0403726
0.0122143
0.166619
0.174644
0.0532461
0.1581
0.11719
0.11103
0.197016
0.219456
-0.0477209
-0.0543573
-0.0558004
-0.0584832
-0.0106682
0.101385
0.0794211
-0.025696
-0.0328949
-0.0651168
-0.0655874
-0.00774219
-0.0409471
-0.0323413
-0.0105609
-0.0568128
-0.0310837
-0.0208196
-0.0263536
-0.028478
-0.0275459
0.497646
0.499165
0.499571
0.506913
0.519865
0.533265
0.501236
0.475311
0.466326
0.469427
0.44246
0.451722
0.446914
0.462758
0.484556
0.492994
0.490931
0.493662
0.475717
0.477444
0.462745
0.467354
0.436411
0.417655
0.407439
-0.0538541
-0.0211456
-0.0344163
-0.047525
-0.0222566
-0.0317989
-0.0288414
-0.0100142
-0.029319
-0.0250823
-0.0345529
-0.0400156
-0.0407055
-0.0801563
0.00135516
-0.180998
-0.230072
-0.283067
0.876906
1.01635
0.79102
0.58099
0.587155
0.822096
0.928556
0.539637
0.710131
0.75014
0.570259
0.859704
0.50513
0.504728
0.502602
0.501775
0.502758
-0.0206736
0.0830213
0.0947159
0.153907
0.269722
0.375377
0.306318
0.1938
0.326514
0.350651
0.607821
0.615521
0.572518
0.59488
0.594045
0.403773
0.484434
0.522359
0.478997
0.554776
0.586956
0.53159
0.575772
0.496643
0.4462
0.437543
0.393053
0.42747
0.408554
0.382951
0.497023
0.473555
0.484665
0.474047
0.49563
0.522743
0.521615
0.539747
0.55998
0.475271
0.42146
0.438615
0.467201
0.423043
0.440354
0.462201
0.180389
0.0832361
0.245925
-0.0814715
0.00459382
0.043939
0.00127295
-0.041019
0.265682
-0.372062
-0.31849
-0.995666
0.490214
0.839768
0.583264
0.59483
0.640302
0.62796
0.638752
0.64583
0.647283
0.604559
0.613555
0.619174
0.588402
0.610475
0.608536
0.615923
0.495012
0.395468
0.397195
0.329563
0.189833
0.231167
0.423455
0.354841
0.279588
0.271712
0.445903
0.311081
0.390306
0.441004
0.36474
0.30023
0.526835
0.573243
0.567417
0.539092
0.420895
0.453714
0.456424
0.506541
0.549315
0.574348
0.491522
0.497846
0.498753
0.496012
0.494374
0.497505
0.497792
0.50008
0.500258
0.502842
0.502312
-0.0741088
-0.0596152
-0.0770299
-0.0845141
-0.0232529
-0.0354458
-0.00222298
-0.0360575
-0.0344898
-0.0323641
-0.0496355
-0.0640447
-0.0600542
-0.0488712
0.0743417
0.0968223
0.0905219
0.0485315
0.230842
0.412398
0.472519
0.342425
0.19584
0.21733
0.306783
0.0137233
0.00882999
-0.00567385
0.0606234
0.0499323
-0.0590297
-0.0624019
-0.0598823
-0.0476184
-0.040232
-0.0624814
-0.0615304
-0.0507333
-0.0591638
-0.0631828
-0.065583
0.476966
0.469884
0.473426
0.465862
0.464056
0.48103
0.485723
0.486683
0.492217
0.494945
0.484393
0.490131
0.494397
-0.0294476
-0.0463956
-0.0467618
-0.0449033
-0.0442749
-0.0426549
-0.045985
0.121841
0.0284035
0.0647846
-0.00620921
-0.133056
-0.0732772
0.495332
0.489715
0.478323
0.714871
0.550881
0.46982
0.569014
0.689336
0.269769
0.469161
0.304046
0.881794
0.78846
0.933735
0.549197
0.248603
0.416325
0.425258
0.267799
0.391233
0.334407
0.210531
0.245862
0.279872
0.362858
0.249536
0.228673
-0.0136776
0.167385
0.277451
0.259482
0.386638
0.443482
0.257964
0.173662
0.120354
0.592552
0.608699
0.616346
0.589373
0.609135
0.57014
0.557459
0.571118
0.58065
0.580289
-0.630361
-0.218713
-1.41861
-0.831623
-0.380257
0.517979
0.517752
0.743405
0.64741
0.663953
0.646057
0.58923
0.560882
0.603521
0.617484
0.319004
0.403636
0.391381
0.366368
0.3121
0.255184
0.527319
0.535554
0.559496
0.585238
0.559899
0.587519
0.490296
0.490151
0.488794
0.485039
0.483538
0.48688
0.0233485
-0.00447638
0.0313877
0.0176733
-0.00393373
-0.00431994
-0.035462
-0.0470323
-0.0457918
-0.0432458
-0.0335944
-0.0323041
0.167018
0.105403
0.0172396
0.0584881
-0.00859904
-0.0905168
-0.0930065
-0.00176499
0.0982333
0.0795325
0.385696
0.653541
0.479024
0.645318
0.444659
0.543663
0.46072
0.434166
0.461965
0.365931
0.456177
0.0458592
-0.155762
-0.210907
0.814265
0.774334
0.555514
0.311958
0.194095
0.486813
0.5101
0.470366
0.496191
0.547231
0.529268
0.017533
0.105522
0.190809
0.496404
0.274084
0.292345
0.282438
0.448418
0.417895
)
;

boundaryField
{
    wall-4
    {
        type            zeroGradient;
    }
    velocity-inlet-5
    {
        type            zeroGradient;
    }
    velocity-inlet-6
    {
        type            zeroGradient;
    }
    pressure-outlet-7
    {
        type            fixedValue;
        value           uniform 0;
    }
    wall-8
    {
        type            zeroGradient;
    }
    frontAndBackPlanes
    {
        type            empty;
    }
}


// ************************************************************************* //
