/*--------------------------------*- C++ -*----------------------------------*\
  =========                 |
  \\      /  F ield         | OpenFOAM: The Open Source CFD Toolbox
   \\    /   O peration     | Website:  https://openfoam.org
    \\  /    A nd           | Version:  6
     \\/     M anipulation  |
\*---------------------------------------------------------------------------*/
FoamFile
{
    version     2.0;
    format      ascii;
    class       surfaceScalarField;
    location    "68";
    object      phi;
}
// * * * * * * * * * * * * * * * * * * * * * * * * * * * * * * * * * * * * * //

dimensions      [0 3 -1 0 0 0 0];

internalField   nonuniform List<scalar> 
1300
(
3.75095
5.62643
-3.33574
3.75095
-7.76101
5.62643
-4.26845
4.26845
-0.416537
0.416537
1.87649
1.87447
-2.4241
2.4241
-1.8211
1.8211
-2.5298
2.5298
-5.24804
5.24804
-5.07002
5.07002
4.70197
-4.70197
-6.33265
6.33265
-0.965313
0.965313
-3.57218
3.57218
3.17251
-3.17251
-1.9164
1.9164
0.023579
-0.023579
-0.554085
4.30504
3.19687
3.19687
-1.99012
1.99012
-4.87428
4.87428
6.22256
-6.22256
5.25354
-5.25354
-1.91779
-2.49079
1.80194
-11.5031
-5.95907
-5.95907
-8.44099
8.44099
-2.81456
2.81187
2.94715
-2.94715
-1.72677
1.72677
-4.28384
0.015389
-4.28384
4.23978
0.0286646
4.23978
-0.509903
0.0933659
-0.509903
3.94091
-3.94091
0.327792
0.0887445
0.327792
3.06726
-3.06726
-1.87686
3.75334
1.8741
-1.87209
6.17713
-1.87886
3.75333
-6.07435
6.07435
-2.67331
0.249217
-2.67331
2.19749
0.226608
2.19749
-6.88856
6.88856
-1.86187
0.0407609
-1.86187
1.83087
-0.00976787
1.83087
2.88784
-2.88784
-2.62674
0.0969367
-2.62674
2.39218
0.13762
2.39218
0.353379
5.27305
-5.97981
8.79168
-5.27305
0.0250073
5.21023
0.0378161
5.21023
-5.10529
0.0352703
-5.10529
5.01244
0.0575832
5.01244
4.79158
-0.089609
4.79158
-4.8209
0.118931
-4.8209
-3.36106
-4.07594
-6.49259
0.159943
-6.49259
-1.034
0.068689
-1.034
0.857733
0.107581
0.857733
-3.72748
3.72748
-3.92856
0.356383
-3.92856
3.12748
0.0450243
3.12748
1.86812
1.88283
5.61908
-5.61908
2.44657
-1.85744
-0.0589548
-1.85744
-1.9869
-3.26664
1.9869
-0.0705039
-0.194547
0.218126
-0.194547
3.15711
0.0397591
3.15711
2.21759
0.174588
-2.21759
0.227473
3.29925
-3.29925
1.32206
0.668057
1.32206
-5.5584
5.5584
4.9614
0.0510411
-4.9614
0.087115
6.15728
0.0652793
6.15728
-6.20774
-0.0148226
-6.20774
2.48652
-4.97732
-2.64568
6.14588
0.186768
-6.14588
0.186814
2.91869
0.0284618
2.91869
-2.91965
2.91965
-2.98416
0.0370078
-2.98416
-2.14957
0.422797
-2.14957
1.41212
0.314653
1.41212
-4.19756
-0.0862741
-4.19756
-4.0871
0.158532
4.0871
0.152687
1.11618
-1.11618
-0.610545
0.100642
-0.610545
-4.04513
-0.152437
4.04513
-0.104219
-3.88279
-0.058114
-3.88279
-3.02186
0.0377048
3.02186
0.045403
3.11209
0.0450178
-3.11209
0.0448277
-1.87099
3.75382
-1.87996
3.75406
-5.69583
-0.378514
-5.69583
6.35706
-0.282715
6.35706
3.0999
0.472279
-3.0999
0.42659
2.03312
0.164371
2.03312
-6.86138
-0.0271796
-6.86138
6.89406
-0.0055068
6.89406
1.92647
0.106645
-1.92647
0.0646067
1.83952
-0.00865035
1.83952
2.9154
-0.0275591
2.9154
-2.88167
-0.00617356
-2.88167
2.79253
-2.79253
2.71668
0.075849
-2.71668
0.0899475
-11.124
11.1092
-0.0362721
-11.0878
5.17396
5.17396
4.24553
0.546054
4.24553
-5.01578
0.194879
-5.01578
2.66386
-5.30955
3.0975
-6.45856
4.67854
-16.1816
4.29776
-8.37371
6.74263
-6.74263
6.62425
0.118378
-6.62425
0.13166
-1.13617
0.10217
-1.13617
-3.12393
-0.603544
-3.12393
4.36289
-0.635416
4.36289
-3.02772
3.02772
-3.07643
0.0487134
3.07643
0.051048
1.84227
-0.00274737
-1.84227
-0.0151717
0.24272
0.085072
-0.24272
0.0481728
3.52045
-0.221207
3.52045
-3.09552
-0.203722
-3.09552
-1.22489
0.0887132
1.22489
0.0971764
-5.80758
0.249173
-5.80758
-11.1817
0.093963
-11.1439
-6.11378
-6.11378
2.32721
11.1189
-2.89703
0.015358
2.89703
0.0216604
2.9753
0.0524155
-2.9753
0.0556584
-2.8591
0.0665638
2.8591
0.06055
-2.51771
0.368145
-2.51771
-1.02623
1.02623
-1.17468
0.14845
1.17468
0.237431
1.41561
-0.299432
1.41561
0.740962
0.11677
-0.740962
0.130418
-3.82969
-0.0531059
-3.82969
6.59758
-0.240523
6.59758
-2.96668
-0.12884
2.96668
-0.051283
-0.0348893
11.1441
-5.13907
0.033773
5.13907
-11.2094
11.2431
-3.22349
0.705779
3.22349
1.02204
5.28416
0.274245
-5.28416
0.268379
6.83387
0.0601968
-6.83387
0.0912373
-2.633
-0.490931
-2.633
-5.1007
-0.595129
5.1007
-0.737811
-11.482
-0.203741
11.6857
-11.4244
6.01132
0.145966
-6.01132
11.3891
-0.994863
-0.121318
0.994863
0.0313722
1.75483
-0.339213
1.75483
3.73616
-0.215712
-3.73616
-0.0935217
-6.75265
-0.108726
6.75265
-0.155067
-2.18349
-0.449512
2.18349
-0.428664
-4.26737
4.30713
1.90976
-2.33631
-2.64101
-5.60294
1.85524
1.89858
4.30181
-10.1686
-6.01304
-9.98175
7.21459
-6.94621
-9.3308
9.24119
7.92039
-7.9785
-5.77753
5.82858
6.48459
-6.43919
1.87941
1.87393
8.06228
-7.81307
-15.6789
15.3004
7.58696
-7.5462
15.8331
-15.8603
-17.8813
17.9415
-5.704
5.80093
-6.7424
6.73622
-6.97872
6.92744
-2.79818
-3.66038
13.1402
-12.9803
8.57996
-8.63891
-8.66609
9.02247
3.3846
0.922536
3.42962
-1.88182
3.76123
-1.87151
3.78127
2.74501
-5.54319
2.56454
-5.20555
4.36296
4.21699
-4.29246
-1.31048
-5.92851
5.95698
-5.80893
5.86948
9.16775
-9.15236
-1.88498
3.75891
-1.86908
3.76766
-3.42309
-2.35444
3.37807
0.923744
8.08184
5.05838
-8.26861
-1.71315
-8.02153
7.80582
-8.21422
8.0105
-0.437541
5.83861
-5.40107
4.43674
-1.65219
7.49079
5.5624
5.75728
5.86059
-5.58634
1.08563
-6.48669
-6.39958
-2.31479
2.41543
2.20364
-2.11489
6.13322
1.78717
6.029
-5.80078
-2.17772
-5.85389
3.81991
2.00867
3.86862
4.08205
2.40254
4.11975
3.02968
-3.03666
0.00697265
-3.05922
6.08891
0.722252
-5.41366
-4.48992
4.98909
3.07319
5.2157
-5.58821
-2.22485
-5.16162
-9.58236
-6.09654
-10.1775
10.0923
5.20806
9.80961
-11.9656
11.8105
4.87501
2.71195
4.86524
-4.95268
-2.59352
-4.88808
11.6818
-2.64796
-9.03379
-10.3377
-7.54362
10.3432
5.48986
10.9836
6.95791
11.0749
4.43205
7.2497
-9.92191
2.37829
-3.86662
-1.83738
-3.77667
3.65459
2.14634
3.79221
-4.21875
-2.52364
-4.20339
-4.29488
-2.68385
4.32243
2.41379
-4.41634
-3.79788
4.54518
2.38226
4.05712
-10.0702
4.31659
-7.97697
-9.21446
-3.76581
-9.0828
3.54053
2.6007
-6.14123
-2.00266
8.51869
-4.3017
7.20821
-5.20262
-3.43629
-5.21779
-6.95813
-1.70796
-6.79959
-8.9293
8.43837
-9.22467
8.58925
12.532
-5.64152
-6.89044
-3.96698
-2.47221
3.92216
-0.49254
-3.71005
3.71702
0.0511753
3.83244
4.75498
4.26244
-3.88193
-1.92701
-3.82627
3.82082
2.04867
3.88738
6.8419
2.32585
6.87057
-6.60296
-2.5494
-6.68923
9.10644
-8.68364
2.79486
-2.70615
5.37295
2.63755
-5.15174
-2.86979
6.23931
-3.20693
-3.03238
-12.3447
10.8008
1.54391
-4.8539
-0.417154
-0.440733
-5.57176
-3.75904
5.45283
0.304456
11.1052
7.34619
-5.51465
5.76382
6.17106
6.2221
-0.177479
5.89404
-5.18826
5.2729
-2.70303
-2.56987
5.46871
-5.62114
-1.22053
-5.53773
4.3172
0.407854
1.52671
-1.30858
-1.80168
-0.513105
-1.67127
1.2312
0.972435
1.31627
0.94237
1.47306
-2.92475
0.548466
2.37629
-1.98238
-1.56643
-3.79317
-1.15189
4.94506
5.72506
2.08076
-5.63154
-0.22235
2.57579
-2.4682
-0.815635
-2.97753
2.23073
-3.04636
-3.47701
-1.92975
5.40676
-3.36865
-0.457617
3.31624
0.552386
-3.82808
-2.10043
3.79107
0.328677
-3.12879
6.19023
-3.06144
-5.05579
2.52895
3.55996
4.53762
-4.79002
2.44912
2.3409
-1.23006
4.26113
0.954571
4.4255
-7.05668
4.83183
5.7298
3.29268
-6.20207
1.04045
-6.01623
8.56295
-7.41107
-1.15188
4.11123
4.45172
7.03751
5.49445
-5.67962
12.7171
-1.16314
-6.24793
7.17937
-3.88669
4.86828
-8.75497
-10.3627
4.1148
-9.20316
11.0676
-1.86448
-3.60972
-8.35587
12.8129
-1.21321
-11.5997
8.59639
-4.3227
-4.37918
8.70189
-6.97066
6.9727
-2.00212
-4.97057
-10.1522
-5.70802
10.261
1.54955
-9.93147
12.3098
-2.68177
4.16121
0.704032
4.15256
3.35361
-5.47823
2.12462
3.61705
-5.61918
2.06544
-7.54367
-6.75986
12.1012
-5.34133
-10.5257
-9.55359
-0.972078
2.55228
9.75748
-9.51019
7.44315
2.06704
3.29671
0.59067
-3.37256
-0.404114
0.23792
4.51136
-4.74928
4.03013
4.20472
3.21937
1.29199
3.84927
2.10771
-3.87093
-0.332467
-4.16825
1.4844
-1.75446
-3.69393
5.17833
-4.06192
0.36799
-2.74498
-3.49147
6.23645
-4.58235
3.03642
3.1538
5.08509
-4.91269
1.42122
-2.39055
-2.52214
2.6407
-4.39516
2.00023
3.1781
4.38249
0.584614
5.90719
6.19401
-8.50789
0.530926
11.2524
-9.53924
2.48054
8.59432
-9.92369
0.3701
-8.7127
0.977421
-5.27912
-5.16381
5.22032
-6.92828
-3.53465
6.24592
0.624647
-6.39861
-0.400986
-6.06691
-2.86239
-6.51642
-3.06346
-6.16121
-8.74308
-1.67362
-7.06946
6.76475
-6.68186
-3.49563
7.41967
1.16958
-7.48151
7.36019
-7.5403
7.20108
0.0948757
3.62215
4.35732
1.88511
-2.39209
4.2772
-5.07012
7.39596
-8.73411
3.664
4.22711
-6.77651
-4.50701
5.06119
4.04525
5.37584
8.92611
-10.3822
1.45605
-10.6561
11.9947
-1.33853
-16.4376
5.78142
-7.51145
2.43218
0.362681
2.53435
0.552643
2.50371
-3.05635
-2.1535
-2.05633
-2.44157
-3.49535
5.93692
1.0676
-3.46966
2.40206
-3.57521
4.64281
-0.0669011
-3.40276
5.19493
-2.69122
5.55761
-3.64211
1.9155
3.54809
5.84433
-2.29624
4.42222
-1.78467
1.94292
-4.23916
-1.55243
-2.95244
5.09878
-3.28401
3.652
-0.349504
4.0015
-4.04379
0.836851
-0.82442
3.3803
3.60777
4.33432
-3.04232
2.93722
-4.72189
-1.30194
-4.13728
-0.959182
-0.186661
-3.7864
3.97307
6.00835
-6.19501
-5.28476
9.52841
-4.24366
7.70622
-5.44166
-2.26455
-4.29406
-4.38959
3.92591
1.96812
9.67434
0.179615
-5.62128
-5.00864
-3.98661
3.09625
2.17665
-1.75468
3.29859
2.19541
-0.668703
0.395559
0.920715
1.76779
-1.37223
0.339697
1.42809
-0.968888
1.7185
0.857286
-1.83527
0.164003
-1.28872
3.51945
1.08756
-2.06
0.687766
0.894032
-3.59707
5.07091
-2.72012
-2.35078
5.96494
1.1461
-3.86623
4.39163
-3.98377
2.43893
-3.59082
-1.4273
-5.41107
-3.6239
-2.48993
4.89199
-3.44699
5.52775
1.41497
-5.3054
6.72037
-3.63024
1.7005
-3.0629
3.92019
-1.01257
-2.05033
2.88299
2.52378
-3.12582
0.148288
-0.242831
2.4214
-2.66424
-0.62496
-2.60734
-4.57593
4.90461
-2.10381
4.55293
2.17339
-1.91749
6.47042
1.80778
-3.72527
-3.24801
-3.70563
-1.38437
3.15324
-0.60227
-4.28581
-5.57284
4.17916
0.246339
-7.06569
7.92567
-0.859981
-3.9925
-0.839326
4.95056
-6.09884
0.479666
-4.03341
3.89227
4.84684
5.09318
-11.3657
-0.23397
-6.15763
1.09982
-7.25745
5.55154
-3.56056
7.67535
-10.3261
6.83052
-9.15657
6.52347
-0.733984
6.25623
-4.13161
2.77756
-8.48558
-6.93603
5.53666
-2.82471
6.24069
-3.19541
9.4361
-5.87718
5.3298
4.10629
-1.04403
-4.17376
-5.30586
4.26182
0.0239452
4.1765
4.98702
-2.87931
4.65455
2.26425
-4.65481
-2.13091
-6.48765
1.83284
-3.33385
-1.92215
3.75499
3.16294
3.75361
1.23285
-3.3495
7.23619
-8.20827
-1.89486
-3.26895
5.2843
-1.02248
3.43111
-6.70006
-1.84801
4.75256
-0.730257
-4.0223
0.888961
-4.42361
1.67135
-6.09496
5.25694
-5.65792
2.25432
-9.76577
-5.22719
-5.19582
-2.27965
-5.26065
-7.58153
5.30188
-1.80011
5.56008
-8.52151
7.79126
-3.47315
8.77504
-5.46302
-1.05341
5.89168
1.3094
10.0844
0.157288
-4.66429
-1.93759
3.74063
-1.80304
1.15866
-3.62912
0.111517
2.48737
3.47757
-6.80458
0.0280669
-4.63623
-3.91082
7.95607
5.61759
11.6259
1.24379
9.14361
-1.18754
10.3874
4.18831
4.42574
-3.00911
4.46515
0.963959
4.62796
-0.899505
2.81501
1.63484
1.70353
0.764674
2.30389
1.30388
3.14075
0.084394
-1.97193
4.63587
-8.62248
-0.985407
-8.07642
1.16477
5.42922
-4.26446
2.88488
-0.708223
1.08183
-0.158722
-1.23523
1.39395
-2.72859
-1.90393
-0.475838
-1.64718
2.33495
1.87227
-1.85911
-0.869477
0.332747
-3.95665
3.25807
-3.10978
-0.586004
6.13437
-2.89273
0.228498
-1.19224
-2.37885
-2.89195
2.72795
6.1742
0.296224
3.11276
5.20083
3.1004
0.221092
3.8169
-5.68138
-3.72677
-5.91535
-0.363809
4.58675
1.74888
8.0086
5.85517
4.83269
-1.86737
-10.0756
6.50987
-2.04472
5.17134
-1.14904
-4.94592
5.07251
2.32345
-5.69716
0.0392372
-4.90668
-6.9514
-0.48173
8.27299
-9.60271
8.5493
5.68691
1.38255
-4.43922
-0.756598
4.29077
0.134965
10.5224
-0.910563
-7.06606
7.97662
-4.51866
3.53325
0.679766
2.61883
2.07372
1.36549
-5.70056
-9.96502
-2.05687
-1.5402
-4.40765
0.537407
-2.40968
6.07476
-2.5415
3.8102
5.43512
6.51695
-2.04974
-4.14528
6.29339
-2.48319
4.03376
)
;

boundaryField
{
    wall-4
    {
        type            calculated;
        value           uniform 0;
    }
    velocity-inlet-5
    {
        type            calculated;
        value           uniform -3.75095;
    }
    velocity-inlet-6
    {
        type            calculated;
        value           uniform -5.62643;
    }
    pressure-outlet-7
    {
        type            calculated;
        value           nonuniform List<scalar> 8(3.33574 7.76101 4.40859 9.70113 7.437 5.13221 5.76137 8.9763);
    }
    wall-8
    {
        type            calculated;
        value           uniform 0;
    }
    frontAndBackPlanes
    {
        type            empty;
        value           nonuniform 0();
    }
}


// ************************************************************************* //
