/*--------------------------------*- C++ -*----------------------------------*\
  =========                 |
  \\      /  F ield         | OpenFOAM: The Open Source CFD Toolbox
   \\    /   O peration     | Website:  https://openfoam.org
    \\  /    A nd           | Version:  6
     \\/     M anipulation  |
\*---------------------------------------------------------------------------*/
FoamFile
{
    version     2.0;
    format      ascii;
    class       volVectorField;
    location    "68";
    object      U;
}
// * * * * * * * * * * * * * * * * * * * * * * * * * * * * * * * * * * * * * //

dimensions      [0 1 -1 0 0 0 0];

internalField   nonuniform List<vector> 
918
(
(0.985049 -0.000714757 0)
(0.00535682 2.96623 0)
(-0.00230741 0.881171 0)
(0.979575 0.00196172 0)
(-0.0137604 2.06506 3.24887e-20)
(-0.00710167 2.94856 -2.58965e-18)
(0.816998 1.11974 4.42136e-19)
(0.12824 0.0728444 -1.42179e-20)
(0.999922 -0.000244549 0)
(0.0909416 0.659072 0)
(0.012005 0.397517 0)
(0.733779 -0.00181738 0)
(0.0101913 2.93162 0)
(0.00338179 2.79466 0)
(-0.0021266 3.18121 8.2402e-19)
(-0.0137903 1.92575 1.92762e-20)
(0.293523 0.034656 9.85405e-19)
(0.23198 1.10732 3.522e-19)
(0.964357 0.00674268 0)
(-0.000483182 0.403414 0)
(0.0130144 0.0705871 -6.65771e-19)
(1.00183 -0.00456025 0)
(0.999851 -0.00892721 0)
(0.975167 -0.00605215 0)
(0.592893 0.0246523 0)
(0.0211762 2.64412 0)
(-0.0123417 2.91193 9.48569e-19)
(-0.00577833 0.933996 0)
(-0.0306126 1.16855 0)
(-0.00388308 0.904191 0)
(-0.0224695 2.59445 0)
(-0.00468166 2.11576 -2.59498e-20)
(-0.0097821 1.89871 0)
(-0.0221168 2.98761 -9.33921e-23)
(-0.0164851 3.00549 2.01197e-18)
(0.00230122 3.00057 0)
(0.871919 -0.00975069 0)
(0.375722 0.915398 1.6595e-19)
(0.815914 1.13789 -5.51758e-19)
(0.94865 1.00346 5.62746e-19)
(0.678943 1.22067 -1.01373e-19)
(0.69235 1.18187 5.78609e-19)
(0.158755 0.132689 1.38701e-20)
(0.152285 0.072373 0)
(1.16285 0.530895 0)
(0.131894 0.115252 6.29496e-20)
(0.106222 0.0624448 -6.53232e-20)
(0.920547 -0.00704753 0)
(1.00026 5.91931e-05 0)
(0.999908 0.000320287 0)
(1.0037 -0.00728133 0)
(1.00088 -0.000947141 0)
(1.00011 -6.5543e-06 0)
(0.0923249 1.84474 -7.38403e-19)
(0.0323756 0.855793 0)
(0.123529 0.749953 0)
(0.0170178 0.799548 0)
(0.0514508 0.577463 0)
(0.00426142 2.03024 0)
(-0.00837195 0.726255 0)
(0.00638985 0.42245 0)
(-0.00582653 0.722807 0)
(0.00866084 0.400316 0)
(0.843487 -0.0156434 0)
(0.840598 0.0295005 0)
(0.759832 -0.00301545 0)
(0.798242 0.03588 0)
(0.70486 -0.00149557 0)
(0.013917 3.00023 9.61246e-19)
(0.0111263 3.00603 0)
(0.00619961 3.00384 0)
(0.0119004 2.99716 1.09149e-23)
(0.00822932 2.95877 -1.42865e-18)
(0.0122455 2.98296 0)
(0.00906833 2.90471 0)
(0.0208245 2.93184 2.22208e-24)
(0.00413938 2.82405 0)
(0.0252161 2.91894 0)
(-0.00100065 2.74444 0)
(0.306222 3.57672 0)
(-0.122323 3.65963 0)
(0.149662 3.27194 -7.66901e-19)
(0.00374711 3.00874 0)
(-0.0298973 1.99029 0)
(-0.00722337 2.17854 -1.90117e-20)
(-0.00959756 1.93794 1.87884e-20)
(0.353731 0.140615 -3.42354e-19)
(0.317776 0.00714795 -3.33011e-19)
(0.306587 0.159941 -1.02286e-18)
(0.257938 0.054418 -6.65612e-19)
(0.263315 1.02193 0)
(0.330796 1.23805 -3.63897e-19)
(0.412905 1.14961 6.00516e-19)
(0.987738 0.00815192 0)
(0.94326 0.00578532 0)
(1.00028 0.000671615 0)
(1.00254 0.00906619 0)
(1.00311 0.00898831 -2.63446e-18)
(0.992136 0.00942303 1.99073e-18)
(-0.02097 0.740506 0)
(0.0010544 0.412599 0)
(-0.0511664 1.01842 0)
(-0.0286789 0.794066 0)
(-0.00838461 0.404723 0)
(-0.0262942 0.11596 2.06359e-19)
(0.0595941 0.0697921 0)
(0.993624 -0.00769359 0)
(0.954047 -0.00648393 0)
(0.742251 0.0402436 0)
(0.673175 0.0203089 0)
(0.658021 0.0132669 0)
(0.979525 -0.0027597 0)
(0.590545 0.0640689 0)
(0.446869 -0.0232363 1.49593e-18)
(-0.0410226 2.86001 7.4662e-19)
(0.0337819 2.91393 0)
(0.0426328 2.89256 0)
(0.00316765 2.70177 0)
(-0.00873316 2.98668 9.07154e-19)
(-0.0141542 2.89474 0)
(-0.0109158 2.99186 -2.79425e-18)
(-0.0116632 2.92972 9.50866e-19)
(-0.0432449 1.34355 0)
(-0.0146074 1.37161 0)
(-0.00780894 2.14023 7.30586e-22)
(-0.00762909 2.09952 0)
(-0.0172633 1.90983 0)
(0.938868 -0.00520903 0)
(0.857263 -0.0111404 0)
(0.863449 0.00473252 0)
(0.94966 -0.00614816 0)
(0.883664 -0.00808339 0)
(0.499339 1.1155 -2.10639e-19)
(0.546638 1.18543 0)
(0.337598 0.849943 3.21311e-20)
(0.281985 0.714389 0)
(0.916493 1.03389 -1.58791e-19)
(1.03874 0.844108 3.19097e-19)
(0.390758 1.31657 0)
(0.541807 1.27218 0)
(0.595083 1.19966 0)
(0.103344 0.181346 -2.98994e-19)
(0.180761 0.146158 0)
(0.170891 0.0851338 1.85015e-19)
(1.00199 0.898192 0)
(1.07778 0.74641 0)
(1.10727 0.681675 -2.55142e-19)
(1.14425 0.592861 0)
(1.20012 0.391136 4.69658e-20)
(0.957495 -0.00710175 0)
(0.962721 -0.00811086 0)
(0.900908 -0.00736911 0)
(0.983927 -0.0081239 0)
(0.974424 -0.00803201 0)
(0.936542 -0.00656922 0)
(1.0002 0.00250402 0)
(1.00077 0.00123904 0)
(1 0.000761723 0)
(0.0442104 2.08771 4.12327e-19)
(0.143902 1.78836 0)
(0.019479 2.20391 6.21382e-19)
(0.0524537 1.89209 -5.20369e-19)
(0.165845 1.08379 -2.89065e-19)
(0.0504296 0.938773 0)
(0.120612 0.937886 0)
(0.0028561 0.764474 0)
(0.0253506 0.512788 0)
(-0.00314819 2.25821 -4.52203e-22)
(0.0191556 2.03554 0)
(-0.00495733 2.25954 -1.10805e-20)
(0.00255218 2.04198 9.39083e-21)
(-0.006609 0.739247 0)
(-0.00927018 0.726658 0)
(0.00872338 0.45896 0)
(-0.0145049 0.723413 0)
(0.00764302 0.405937 0)
(0.939399 0.0138213 0)
(0.856221 -0.0116155 0)
(0.928597 0.00484231 0)
(0.846162 -0.0127843 0)
(0.812302 -0.0038105 0)
(0.897237 0.0240843 0)
(0.872989 0.0276422 0)
(0.786496 -0.00576232 0)
(0.010356 3.06772 -8.94506e-21)
(0.0148598 3.0591 0)
(0.0124513 2.97025 0)
(0.00765528 2.87666 0)
(0.89604 3.97106 0)
(1.19028 3.36697 9.3758e-19)
(0.0813096 3.09105 0)
(-0.0171211 2.91824 0)
(-0.0152104 1.39771 0)
(-0.0348375 1.69558 0)
(-0.0236883 1.53052 0)
(-0.0328694 2.55452 -1.38342e-20)
(-0.0176775 2.24831 0)
(-0.0225366 2.39367 0)
(-0.000962462 1.96693 3.6229e-22)
(-0.00530127 2.25305 -2.38175e-20)
(-0.00624301 2.21605 -1.92922e-20)
(-0.00593525 1.95164 0)
(0.393239 0.118122 5.25923e-19)
(0.351945 0.00113163 -5.15966e-19)
(0.234503 1.59176 0)
(0.288063 0.765774 -3.22679e-19)
(0.178929 1.69211 -1.05899e-18)
(0.244709 1.22355 1.05937e-18)
(0.901699 0.00591946 0)
(0.967062 0.0106546 0)
(0.974913 0.00984817 0)
(0.923004 0.00588511 0)
(-0.0199947 0.731756 0)
(-0.0171731 0.734152 0)
(0.00310649 0.404723 0)
(0.107398 0.106532 5.80004e-19)
(0.0897559 0.0904311 -6.86584e-19)
(0.0700956 0.0591288 0)
(1.10655 0.090273 2.4019e-20)
(1.09021 0.042458 0)
(1.01842 0.0436548 0)
(0.91357 -0.00158667 0)
(0.441699 0.095408 0)
(0.503044 0.0804789 -2.39167e-18)
(0.394316 -0.00388413 8.95519e-19)
(0.010814 2.97721 7.90504e-19)
(-0.0325478 2.8615 4.62065e-20)
(0.00858158 3.05301 -1.88881e-20)
(0.015827 3.04345 7.08361e-19)
(-0.0118176 2.99995 3.12917e-20)
(-0.012326 2.95229 -1.26348e-22)
(-0.0150563 3.01325 -5.84835e-19)
(0.0143855 3.02659 4.11034e-19)
(0.00762133 3.03478 -6.67095e-19)
(0.934699 0.00212429 0)
(0.939499 -0.00112379 0)
(0.848118 -0.0111749 0)
(0.956342 0.0117866 0)
(0.942375 0.0133695 0)
(0.881704 0.00539569 0)
(0.915033 0.0192813 0)
(0.925031 0.0155619 0)
(0.83806 0.000577589 0)
(0.672134 1.41406 1.56139e-20)
(0.690151 1.52457 0)
(0.118768 0.292781 6.79092e-20)
(0.212812 0.653681 5.36845e-19)
(0.240209 0.693311 -3.15079e-19)
(0.215062 0.496917 6.25328e-19)
(0.339744 0.831413 1.58213e-18)
(0.134729 0.23658 3.79697e-19)
(0.261833 0.171141 7.06019e-19)
(0.21697 0.164314 1.81913e-19)
(0.218716 0.0756284 3.46738e-19)
(1.19176 0.44585 9.29437e-20)
(1.21723 0.245575 9.06976e-20)
(0.00920761 2.24635 2.42353e-19)
(0.0395076 1.95713 0)
(0.97271 0.0329957 0)
(0.946695 0.0191887 0)
(0.87095 -0.0152647 0)
(0.0124433 3.074 0)
(0.0167008 2.94398 1.25119e-18)
(0.0139336 2.95664 0)
(0.00587808 2.84997 -1.24152e-18)
(0.00960373 3.09017 3.05504e-19)
(0.0113578 3.08391 0)
(0.710062 1.82076 -1.70866e-19)
(1.23467 2.62569 5.77703e-19)
(0.694761 1.99883 -1.39586e-18)
(0.0221934 2.97582 -6.88691e-19)
(0.0405458 2.99817 0)
(-0.0383721 2.87833 0)
(-0.00634241 2.23816 -1.27945e-20)
(-0.00498549 2.25842 4.53599e-20)
(-0.000603759 2.00292 -7.07429e-21)
(0.268494 1.40274 1.02653e-18)
(0.286652 0.568776 -7.04756e-19)
(0.07065 2.00709 7.42795e-19)
(0.124911 1.87531 -8.94866e-19)
(0.208133 1.54148 1.01679e-19)
(0.00541109 3.11951 -1.8779e-18)
(0.018687 3.11921 2.01805e-18)
(-0.00496043 2.98047 8.48404e-19)
(-0.000315863 2.97508 -8.14897e-19)
(-0.0177834 2.87822 -8.64118e-19)
(0.0127154 3.0993 -2.27013e-18)
(0.00519776 3.10749 2.22407e-18)
(0.266594 0.698279 0)
(0.218073 0.659314 -1.14458e-18)
(0.0740036 0.212597 5.03621e-19)
(0.346486 0.951324 1.12337e-18)
(0.199117 0.280962 -1.73015e-18)
(1.19679 0.175698 4.81765e-20)
(1.21394 0.304729 0)
(1.19227 0.120977 8.75764e-21)
(-0.000889418 2.26596 -1.23553e-21)
(0.00352093 2.25115 0)
(0.0310302 1.99273 0)
(0.31335 1.31835 -3.69025e-19)
(0.353909 1.17741 -7.99972e-19)
(0.232642 0.391983 1.43136e-18)
(1.00644 -0.00968425 0)
(1.00774 -0.00778579 4.84231e-19)
(-0.0379082 1.32585 0)
(-0.0460808 1.32977 0)
(1.00244 0.00327367 1.34294e-21)
(1.0032 0.00781325 9.94078e-19)
(-0.0241058 2.54076 1.75274e-20)
(-0.0272614 2.58345 0)
(0.0410828 3.1729 4.8957e-19)
(0.374483 3.54193 0)
(1.15725 0.692206 -5.11452e-20)
(1.01181 0.0106611 -2.83576e-21)
(1.02086 -0.00901351 0)
(1.00158 0.000278952 1.56296e-22)
(0.118038 1.37483 0)
(0.135039 2.58672 0)
(0.0179137 1.32301 0)
(-0.000513185 2.63482 5.47563e-23)
(-0.0217787 2.58387 -7.47601e-21)
(0.998606 0.0295558 3.26344e-21)
(1.06299 0.00585419 0)
(1.10008 0.0284816 0)
(-0.0332826 1.74285 0)
(-0.0191862 2.58431 0)
(-0.0119548 1.31752 0)
(0.309515 1.48835 -1.72069e-19)
(1.01151 -0.00905904 0)
(1.00971 -0.012987 0)
(1.00227 0.000939895 6.20276e-19)
(1.00548 -0.00491341 -7.31049e-19)
(1.00113 -0.000864615 0)
(-0.0212191 1.46336 0)
(-0.00985296 1.38493 0)
(-0.0163091 1.42513 0)
(-0.0144379 1.30455 0)
(-0.0278084 1.29374 0)
(-0.0210182 1.27325 0)
(1.03564 -0.00430811 0)
(1.01882 0.0150578 -8.98477e-22)
(0.811008 1.31026 2.78878e-19)
(1.00243 0.000383855 -6.19678e-19)
(1.00339 0.00445189 7.39765e-19)
(1.00127 0.00209594 0)
(1.01111 0.00963262 6.17301e-19)
(1.00686 0.00745706 -7.51347e-19)
(1.00715 0.0111267 0)
(-0.0242138 2.61203 0)
(-0.0274382 2.59144 -2.96893e-20)
(-0.0243285 2.60542 2.08838e-20)
(1.24171 0.272915 5.23176e-19)
(1.16327 0.0889253 0)
(0.0447032 3.09136 -9.73108e-19)
(0.0518485 2.87384 -6.89453e-20)
(0.104059 3.20205 1.30088e-18)
(0.122446 3.21388 -2.78854e-19)
(0.142296 3.25786 0)
(0.0228057 3.13774 2.67656e-19)
(0.0614925 3.16229 9.69399e-19)
(0.0620477 3.17899 -5.00634e-19)
(0.0268914 3.12967 0)
(0.57476 0.290132 0)
(0.517794 0.307814 0)
(1.13874 0.723394 1.15295e-19)
(1.10401 0.85942 -9.90507e-20)
(1.19687 0.608825 0)
(1.22385 0.543739 0)
(1.01572 0.012025 -1.14674e-18)
(1.01469 0.0127641 1.44182e-18)
(1.02573 -0.00873306 0)
(1.02407 -0.0102985 0)
(1.00677 0.00318907 0)
(1.01089 0.00420775 0)
(1.00424 0.00220966 0)
(1.00939 0.00635868 0)
(1.00686 0.00504426 0)
(1.0044 0.00526738 0)
(0.107363 1.37467 0)
(0.0955249 1.33349 0)
(0.140913 1.41888 0)
(0.147192 1.40202 0)
(0.147491 2.6126 0)
(0.190439 2.68039 -4.11249e-19)
(0.104369 2.66975 0)
(0.0814942 2.67182 1.6747e-19)
(0.0277863 2.6775 -1.60932e-19)
(0.0121014 1.32326 0)
(0.0198512 1.25311 0)
(0.017341 1.33624 0)
(0.0357429 1.274 0)
(-0.000240425 1.9953 3.24285e-20)
(-0.0214582 2.61197 -3.5187e-20)
(-0.00679608 2.67726 -2.43008e-20)
(-0.0190898 2.69024 0)
(-0.0238277 2.61838 2.52221e-20)
(-0.0225342 2.61382 3.50916e-20)
(0.00702491 1.99217 -2.47733e-20)
(-0.00946107 2.40328 4.72085e-20)
(-0.0142908 2.42697 2.75472e-20)
(1.01083 0.0397516 1.16149e-18)
(1.00405 0.0204021 -1.44857e-18)
(1.00291 0.0472836 -1.19155e-18)
(0.973646 0.0366059 1.50123e-18)
(1.06464 0.00917604 0)
(1.04987 -0.00646429 0)
(1.09258 0.0375258 0)
(1.07576 0.0149464 0)
(1.07452 0.00057946 0)
(1.14112 0.0791501 0)
(1.11559 0.0460614 0)
(1.11875 0.0374462 0)
(-0.0293718 2.43536 3.28786e-21)
(-0.0196792 2.02214 0)
(-0.0204387 2.22164 0)
(-0.0213214 2.60514 -1.77934e-20)
(-0.0181852 2.61591 5.56745e-22)
(-0.00119087 1.58426 -5.26903e-20)
(-0.0102399 1.50701 5.38192e-20)
(-0.0202607 1.39791 0)
(-0.0242913 1.40375 0)
(-0.0311988 1.39501 0)
(-0.00824241 1.31917 0)
(0.00256474 1.24566 0)
(0.385641 1.51307 2.86377e-19)
(0.434163 1.51697 1.52521e-19)
(0.591954 2.4672 -2.47621e-19)
(0.380311 2.56439 6.89825e-19)
(0.350021 2.05403 7.12446e-20)
(1.02069 -0.0080111 0)
(1.01579 -0.00936354 0)
(1.01484 -0.01322 0)
(1.00772 -0.000567328 0)
(1.00486 -0.000674226 0)
(1.00799 -0.00448241 0)
(1.00954 -0.00344653 0)
(1.01465 -0.00429261 0)
(1.01954 0.0162101 1.12575e-18)
(1.01721 0.0147093 -1.42356e-18)
(1.01986 0.0185636 -1.13476e-18)
(1.01733 0.0164128 1.42279e-18)
(0.767443 1.35729 0)
(0.706496 1.39237 2.43582e-19)
(0.874279 1.23818 9.97095e-20)
(0.911847 1.19741 -1.32333e-19)
(1.16486 2.61348 2.7669e-19)
(0.749992 0.126583 5.83768e-19)
(1.17157 0.107319 0)
(1.21395 0.201515 -4.2457e-19)
(1.19515 0.154144 -1.76576e-20)
(1.01317 0.164521 0)
(0.0779679 3.01842 3.49107e-19)
(0.0834719 2.90267 -1.14691e-18)
(0.0258292 2.35783 7.26077e-19)
(0.144632 -0.24296 -3.33692e-19)
(0.342661 3.44579 -2.49061e-19)
(0.193598 3.34035 0)
(0.224051 3.39721 3.24431e-19)
(0.222816 3.07663 -1.21208e-18)
(0.25545 3.19539 0)
(0.00591882 3.12285 5.04051e-20)
(0.0163238 3.13149 -5.81761e-19)
(0.0152852 3.12723 8.56236e-19)
(0.0329921 3.1404 0)
(0.0312457 3.1497 0)
(1.25842 2.57767 0)
(0.53377 0.790223 -5.24993e-19)
(1.0245 1.03295 -1.17485e-20)
(0.989698 1.08596 0)
(0.858394 0.969366 -1.06552e-19)
(1.08221 0.908294 2.6617e-20)
(0.338145 0.310619 -8.23108e-19)
(0.655883 0.322019 -2.18082e-20)
(0.545915 0.22138 3.91175e-19)
(0.550018 0.32302 2.85478e-20)
(0.436745 0.276166 -1.1433e-18)
(0.613807 0.32153 0)
(0.695887 0.425187 6.56367e-19)
(0.698832 0.431534 0)
(0.585101 0.328877 0)
(0.499937 0.254856 0)
(0.797692 0.652814 3.93665e-19)
(1.25283 0.306512 -4.25493e-19)
(1.24536 0.437953 0)
(1.24572 0.393845 0)
(0.690888 0.185858 5.96337e-19)
(0.846571 0.555619 -3.70363e-19)
(0.76771 0.51831 6.61731e-19)
(0.966276 0.450381 -6.67503e-19)
(1.01839 0.0146492 7.62954e-19)
(1.01707 0.0136298 -7.70108e-19)
(1.01599 0.0141501 0)
(1.03704 -0.0045314 0)
(1.03044 -0.00770223 -7.22537e-19)
(1.02865 -0.0105798 7.1503e-19)
(1.02474 0.0109646 0)
(1.02268 0.0150764 0)
(1.0127 0.00469867 0)
(1.01456 0.00910339 0)
(1.01637 0.00422054 0)
(1.01554 0.00291478 0)
(0.0767654 1.36135 0)
(0.0780171 1.30428 0)
(0.1555 1.42014 5.80829e-20)
(0.276845 1.48454 8.39305e-20)
(0.176281 1.45574 1.89108e-19)
(0.213077 1.45317 -3.05582e-19)
(0.163772 1.43235 0)
(0.144688 1.58569 -8.70081e-20)
(0.141976 1.58293 0)
(0.346063 2.00614 -1.03728e-19)
(0.330327 2.33574 6.27385e-19)
(0.195569 1.46661 7.58142e-20)
(0.275472 1.39914 2.55634e-20)
(0.205454 1.39898 -2.08263e-20)
(0.288979 1.33799 -8.59178e-20)
(0.258194 1.57798 0)
(0.269753 1.62393 9.52578e-20)
(0.0229276 2.25371 -1.66151e-20)
(0.0387495 2.67027 0)
(0.06253 2.40569 1.01616e-19)
(0.0584066 2.42927 0)
(0.069027 2.6885 -1.85899e-19)
(0.043263 2.70442 0)
(0.0238572 1.45108 5.38628e-20)
(0.0324202 1.50856 0)
(0.0271138 1.41534 0)
(0.0190896 1.42319 -6.11963e-20)
(0.00257994 2.66197 -4.73394e-23)
(0.0267045 2.69372 1.84289e-19)
(0.0101639 2.73364 9.84977e-22)
(0.00173322 1.84444 -1.94693e-20)
(-0.00451018 1.69681 -1.4657e-20)
(0.00951862 1.30315 0)
(0.0166986 1.22806 0)
(0.0397907 1.59448 -1.07633e-20)
(0.0384046 1.47227 -5.0562e-20)
(0.0270749 1.54848 5.35213e-20)
(0.0490468 1.61971 0)
(-0.0303312 2.27232 1.14311e-19)
(-0.0336722 2.55255 -4.83507e-20)
(-0.0199127 2.45171 7.87569e-21)
(-0.00546479 1.86104 2.35985e-20)
(-0.0277006 2.50685 1.07942e-20)
(-0.0229316 2.44805 -2.38801e-20)
(1.01779 0.022162 -7.71248e-19)
(1.01489 0.0283146 7.74934e-19)
(1.01158 0.0172101 0)
(1.01133 0.0705937 1.05749e-18)
(0.990976 0.0586997 -1.215e-18)
(0.951567 0.0584433 1.35548e-18)
(1.01303 0.116693 -1.44237e-19)
(1.04397 -0.00467566 0)
(1.05218 -0.000422588 6.92317e-19)
(1.04027 -0.00818317 -6.91924e-19)
(1.07228 0.0436191 -4.10407e-20)
(1.06498 0.0289026 3.54551e-19)
(1.06423 0.0653972 0)
(1.05446 0.0548624 -1.27687e-19)
(1.03222 0.0442812 0)
(1.02606 0.0393942 0)
(1.02758 0.013653 0)
(1.024 0.01617 0)
(1.0404 0.0340057 2.62487e-19)
(1.03898 0.0284967 -5.81061e-19)
(1.0531 0.0386204 -2.77666e-19)
(1.0482 0.0386588 -3.06445e-19)
(1.07805 0.0703157 5.85909e-19)
(1.10181 0.056286 0)
(1.10863 0.0949685 0)
(-0.0281486 2.27895 6.88915e-20)
(-0.0299243 2.02788 3.40064e-21)
(-0.0250787 2.03773 0)
(-0.0297149 2.44815 -6.85896e-20)
(-0.0273012 2.40655 -6.55144e-21)
(-0.0341473 2.47581 8.76966e-21)
(-0.0216458 2.62619 -2.98185e-20)
(-0.0263552 2.56858 1.52933e-21)
(-0.0249327 2.52184 -1.01679e-20)
(-0.0172405 2.61953 2.00074e-20)
(-0.0214032 2.62162 -2.2972e-20)
(-0.0100065 1.50234 -4.14041e-22)
(-0.00479145 1.63227 -5.16194e-20)
(0.377406 1.44893 -1.22285e-19)
(0.371765 1.38069 1.706e-20)
(0.648369 1.44041 -2.35687e-19)
(0.524751 1.51015 -1.48351e-19)
(0.578368 1.46878 0)
(0.607732 2.42398 2.18145e-19)
(0.66726 2.43317 3.38595e-19)
(0.42266 2.51819 9.00232e-20)
(0.402648 2.54008 -6.3561e-19)
(0.500823 2.48011 5.68796e-19)
(0.553977 2.4774 0)
(0.486829 2.52792 -5.48612e-19)
(0.262604 2.58957 1.12276e-18)
(0.357363 2.56936 -5.93514e-20)
(0.279656 2.65251 -1.5605e-18)
(0.970681 2.39148 7.16037e-19)
(0.848851 2.39218 0)
(1.01145 0.0013867 2.51499e-20)
(1.01537 -0.00518256 -2.05412e-20)
(1.01775 -0.00393246 -3.75505e-19)
(1.01561 -0.0010489 3.74189e-19)
(1.01312 0.00183873 0)
(0.636364 1.30258 0)
(0.678338 1.18781 0)
(0.79302 1.11827 0)
(0.665901 1.14532 0)
(1.19579 2.62893 5.13317e-20)
(1.08857 2.38081 0)
(0.818538 2.17066 3.55215e-21)
(0.821771 2.43361 0)
(0.916617 2.5239 -4.34245e-19)
(0.948073 2.47339 2.89909e-19)
(0.789146 0.160828 0)
(0.730713 0.146961 1.58471e-19)
(0.910022 0.161418 9.23996e-19)
(0.8138 0.141544 -3.47028e-19)
(0.761583 0.0943908 -1.06411e-18)
(1.08806 0.245755 -8.41789e-19)
(0.986784 0.315898 -9.69499e-21)
(0.929771 0.351325 8.13762e-19)
(1.0149 0.259998 6.92069e-19)
(0.932256 0.20614 -1.22022e-18)
(0.890244 0.218714 1.53599e-19)
(0.931401 0.318763 -3.17768e-19)
(0.906129 0.223633 0)
(1.0017 0.2086 5.9718e-19)
(1.05569 0.218096 0)
(1.05276 0.229451 0)
(1.1258 0.12482 2.67945e-19)
(1.06506 0.193982 -1.07748e-20)
(1.0797 0.247232 -1.53317e-19)
(1.11382 0.21114 0)
(1.02301 0.0498203 5.94012e-19)
(1.03728 0.0631725 7.39116e-19)
(1.03208 0.0465523 -5.88982e-19)
(1.04183 0.0691408 -4.95789e-19)
(1.01478 0.075186 -7.49316e-19)
(0.985183 0.166525 0)
(0.98784 0.108035 0)
(0.962061 0.0752217 -4.82244e-19)
(0.902643 0.0968335 1.91236e-19)
(1.03982 0.117253 6.86094e-19)
(1.07622 0.137113 -7.84692e-19)
(1.07063 0.180237 7.05525e-19)
(1.03561 0.157542 0)
(1.08627 0.122 0)
(1.05725 0.11217 -3.21686e-19)
(1.04321 0.108762 -5.57473e-19)
(0.587494 1.08584 1.17675e-19)
(0.613024 1.40368 -2.08716e-20)
(1.14516 2.71977 -2.45886e-19)
(1.19799 3.10402 2.70407e-21)
(1.25375 2.72961 -1.25695e-19)
(1.29366 2.70051 1.9867e-20)
(1.26922 2.32396 -3.79985e-20)
(1.18564 3.00954 -7.36957e-20)
(1.20504 2.96653 2.23188e-19)
(1.17987 3.25755 -1.22202e-19)
(1.39759 2.97225 1.5253e-19)
(1.40913 2.90842 0)
(0.572448 0.816847 -4.77763e-20)
(0.211202 1.21223 4.74446e-19)
(0.516636 0.352549 5.30146e-19)
(0.402448 0.115471 6.02334e-19)
(0.484639 0.303133 6.47291e-19)
(0.54855 0.418517 -1.0529e-18)
(0.555182 0.40492 8.67084e-19)
(0.474091 0.307183 -3.26203e-19)
(0.348888 0.247332 7.37918e-19)
(0.724912 0.252295 -3.44076e-19)
(0.675822 0.285207 0)
(0.609316 0.196533 7.94935e-21)
(0.739194 0.506702 3.58242e-19)
(0.708891 0.478686 -1.29877e-18)
(0.63673 0.43505 1.54173e-20)
(0.624742 0.413959 0)
(0.717766 0.715086 3.7314e-19)
(0.834283 0.798202 4.11458e-19)
(0.771573 0.84797 -4.79502e-19)
(0.902587 0.820393 -1.52512e-19)
(0.937279 0.863543 -3.55533e-20)
(0.944894 0.870921 3.64653e-20)
(0.881554 0.676754 -6.6967e-19)
(0.953791 0.723686 1.41789e-19)
(1.0079 0.727565 0)
(1.00706 0.703554 -1.81464e-19)
(1.03176 0.340055 2.10632e-19)
(1.15896 0.339996 2.55643e-19)
(1.07454 0.283482 3.44237e-19)
(0.999422 0.38658 -4.2081e-19)
(1.05656 0.486987 0)
(1.13858 0.428154 0)
(0.905028 0.423626 9.16983e-23)
(0.84843 0.322583 0)
(0.892671 0.312746 3.8997e-19)
(0.915703 0.350155 3.43093e-21)
(0.986967 0.49531 1.86488e-18)
(0.919704 0.554483 4.81137e-19)
(0.94182 0.511335 -5.09078e-19)
(0.86038 0.489208 5.42587e-19)
(0.827249 0.46367 3.45171e-19)
(0.803983 0.439456 -3.38423e-19)
(1.02817 -0.000384739 6.20551e-19)
(1.02041 0.000565942 0)
(1.01906 0.00138584 4.04968e-19)
(1.02264 -0.00071476 -9.16758e-19)
(1.02254 0.00457361 4.46584e-19)
(1.02002 0.0116144 -9.34745e-19)
(1.02075 0.0114128 0)
(1.01968 0.0121621 -1.94634e-19)
(1.01655 0.00779115 4.87835e-19)
(1.01668 0.0109008 -2.44795e-19)
(1.01727 0.0105988 1.79106e-19)
(0.0285818 1.33242 0)
(0.0366437 1.39242 0)
(0.0509345 1.33842 0)
(0.0542881 1.27695 0)
(0.0862854 1.40346 -7.12832e-20)
(0.0924458 1.37536 1.59028e-20)
(0.0896469 1.5765 1.92935e-21)
(0.104778 1.40976 -4.14844e-20)
(0.0417434 1.48507 4.74927e-20)
(0.0464649 1.48128 -3.74385e-20)
(0.0730573 1.3976 -2.40458e-20)
(0.061093 1.40023 7.5085e-20)
(0.0549525 1.37911 1.20345e-20)
(0.0415623 1.39724 7.76471e-21)
(0.097977 2.37269 -1.12305e-19)
(0.0909153 2.41762 0)
(0.148258 2.01543 9.71946e-20)
(0.133417 1.69928 3.48453e-20)
(0.214809 2.01764 -7.89484e-20)
(0.216724 2.4222 0)
(0.218056 2.40118 -6.11733e-19)
(0.309731 2.37386 4.57868e-19)
(0.250669 1.98331 -2.12436e-19)
(0.144644 2.15022 1.46788e-19)
(0.1113 2.25219 0)
(0.0156948 1.85829 -2.68076e-20)
(-0.00341099 2.37837 -1.26211e-20)
(0.00468037 2.13684 0)
(0.00640093 2.44071 -1.68082e-20)
(0.02337 2.27748 2.4764e-20)
(0.00870417 1.42725 -1.1024e-20)
(0.00715216 1.4072 1.84084e-19)
(0.00624002 1.41604 -5.93302e-20)
(0.0178524 1.42388 -5.25944e-20)
(0.0212984 1.4543 0)
(0.00461716 1.39863 0)
(-0.00164329 1.30458 -6.91549e-20)
(-3.64918e-05 1.38379 1.96863e-20)
(0.00518489 1.38535 0)
(0.0053391 1.29681 -5.33289e-20)
(0.013267 1.22027 1.06523e-19)
(1.04243 0.0150705 0)
(1.04895 0.0105396 -6.47348e-20)
(1.03923 0.0245967 -4.68141e-19)
(1.0497 0.0234268 0)
(1.05465 0.0226202 0)
(1.03625 0.0130538 -6.78392e-21)
(1.02997 0.0135566 7.55522e-19)
(1.03173 0.0175478 9.14102e-19)
(1.0256 0.0211306 0)
(1.0223 0.0215544 0)
(1.03551 0.0257912 4.67176e-19)
(1.02624 0.0284032 0)
(1.02321 0.0287007 0)
(-0.0203568 2.0298 0)
(-0.00918593 1.6602 -2.20071e-21)
(-0.00868352 1.76573 -3.17599e-20)
(-0.00477999 1.39232 0)
(-0.00890711 1.56208 -2.87274e-20)
(-0.0147381 1.47026 1.79152e-20)
(-0.00976152 1.40477 0)
(0.40362 1.62762 0)
(0.365298 1.31842 -2.80678e-20)
(0.275558 1.346 0)
(0.43492 1.31648 -3.76235e-20)
(0.473051 1.47588 0)
(0.457375 1.41694 4.05586e-20)
(1.04062 2.67262 -1.52173e-20)
(0.985191 2.4107 -8.99558e-19)
(0.947782 2.21091 1.00995e-18)
(0.865596 2.3843 2.42807e-19)
(0.853055 2.48928 0)
(0.921924 2.48419 0)
(0.954461 2.38455 0)
(0.930521 2.37514 -9.38331e-19)
(0.691459 2.45371 -3.7866e-19)
(0.800622 2.43742 -9.76896e-20)
(0.80793 2.41554 7.36141e-20)
(0.70437 2.40467 0)
(0.809696 2.39843 0)
(0.770368 2.41482 -3.67215e-19)
(0.765979 2.46775 0)
(0.628685 1.06657 0)
(0.515379 0.861031 -5.54104e-19)
(0.52161 0.932813 -3.21111e-20)
(0.501525 1.07217 0)
(0.488455 0.980689 8.48533e-19)
(0.800105 0.885745 -1.32474e-19)
(0.80432 1.02095 0)
(0.785173 1.00368 1.82009e-19)
(0.673736 1.02079 0)
(0.665529 0.924643 0)
(1.16358 2.75622 -2.18789e-19)
(1.13866 2.81443 -8.88838e-20)
(0.923264 2.33706 7.378e-20)
(0.899965 2.31793 -7.55966e-20)
(1.13325 2.73407 0)
(1.08525 2.70187 9.08074e-20)
(1.10142 2.49729 -2.96531e-19)
(1.00311 2.25676 -2.83921e-20)
(0.497383 1.33153 0)
(0.517041 1.07837 -1.03662e-19)
(0.593585 1.18185 0)
(0.848982 0.232135 0)
(0.755406 0.18132 0)
(0.665727 0.143889 0)
(0.850681 0.232265 -6.14692e-19)
(0.745877 0.223064 3.59917e-19)
(0.909593 0.0886969 -3.8792e-19)
(0.925395 0.143952 0)
(0.9108 0.153756 1.7286e-19)
(0.837621 0.111692 6.93806e-19)
(0.785797 0.078191 -4.3724e-19)
(1.09714 3.34913 -6.72788e-19)
(1.16483 3.27244 0)
(1.11535 3.43399 -1.56946e-18)
(0.656776 3.57986 1.30668e-18)
(1.02571 3.07736 1.19769e-19)
(0.532238 0.783646 5.67028e-19)
(0.51219 0.751943 0)
(0.352113 0.369373 -1.44216e-19)
(0.485296 0.630244 8.54362e-19)
(0.547494 0.353712 -1.89923e-19)
(0.517648 0.455904 2.25126e-19)
(0.690001 0.524419 4.62402e-19)
(0.73513 0.560261 0)
(0.663443 0.5656 0)
(0.646444 0.531292 0)
(1.01621 0.611333 8.95857e-20)
(0.970726 0.593616 -4.65951e-19)
(0.980568 0.605599 3.56627e-19)
(1.0454 0.548502 -3.43919e-19)
(1.09027 0.518195 0)
(1.09163 0.600059 -9.06311e-20)
(0.887303 0.41902 -7.6879e-19)
(0.876334 0.406532 -9.87771e-19)
(0.800716 0.404333 6.07136e-19)
(0.814943 0.372318 -6.27958e-19)
(0.856652 0.33276 -4.9368e-19)
(0.801763 0.336467 6.04606e-19)
(1.02655 0.00669109 -4.67335e-19)
(1.02617 0.00681089 9.41471e-19)
(1.02994 0.000954249 6.01345e-19)
(1.03417 0.00158325 -7.2199e-19)
(1.03397 0.0120106 0)
(1.02964 0.0120701 -1.18326e-18)
(0.0804922 1.64526 1.24946e-20)
(0.0676434 1.60538 0)
(0.108857 1.70203 5.40513e-20)
(0.115469 1.677 -4.65731e-20)
(0.0758672 1.57305 -3.46467e-21)
(0.0722355 1.57531 0)
(0.00660115 1.69817 0)
(-0.00876585 1.51175 1.53494e-20)
(-0.00728985 1.4516 -1.37891e-20)
(-0.0118142 1.55931 3.04292e-21)
(-0.00213028 1.89282 2.24809e-20)
(-0.0143633 1.94758 -8.73264e-21)
(0.493573 1.36207 -2.60078e-19)
(0.496075 1.35721 2.84397e-19)
(0.448714 1.30898 -1.09825e-20)
(0.428264 1.29232 7.59899e-21)
(0.627839 1.31108 0)
(0.555824 1.40446 1.16607e-19)
(0.556884 1.40755 -1.1355e-19)
(0.484328 1.29582 1.05911e-20)
(0.525205 1.24995 0)
(0.58972 1.21584 0)
(0.665345 2.41707 5.57586e-19)
(0.660918 2.44684 1.27573e-18)
(0.716319 2.46194 -8.77454e-19)
(0.615191 2.43363 -2.00245e-19)
(0.556117 2.52753 2.74687e-19)
(0.496307 2.49303 -7.09679e-19)
(0.993109 2.38946 -5.68979e-19)
(1.02528 2.40716 0)
(0.951944 2.19474 -6.22582e-19)
(1.05608 2.68294 0)
(1.055 2.66407 0)
(0.602789 2.29062 9.86843e-21)
(1.1193 3.07014 7.81956e-20)
(0.997216 2.96768 -1.26943e-19)
(0.32312 0.800163 0)
(0.322508 0.681638 -3.02642e-19)
(0.527638 0.616094 -3.06332e-19)
(0.365671 2.1331 0)
(0.404078 2.74447 -8.43075e-20)
(0.413713 2.47902 0)
(0.726221 0.681116 -7.95285e-19)
(0.792365 0.688284 1.10815e-18)
(0.798511 0.656293 -1.05038e-18)
(0.699289 0.640001 -1.00862e-19)
(0.758604 0.598796 -4.15708e-19)
(0.97151 2.75363 -5.92245e-20)
(1.01428 2.7601 -2.07488e-19)
(0.55359 2.20828 4.32987e-19)
(0.605422 1.73557 -3.43703e-19)
(0.704354 1.85423 -4.92073e-19)
(0.977732 2.39405 -1.37242e-19)
(0.97758 2.34744 3.6217e-19)
(0.64754 1.76522 3.31787e-20)
(0.453813 1.29761 1.73507e-19)
)
;

boundaryField
{
    wall-4
    {
        type            noSlip;
    }
    velocity-inlet-5
    {
        type            fixedValue;
        value           uniform (1 0 0);
    }
    velocity-inlet-6
    {
        type            fixedValue;
        value           uniform (0 3 0);
    }
    pressure-outlet-7
    {
        type            zeroGradient;
    }
    wall-8
    {
        type            noSlip;
    }
    frontAndBackPlanes
    {
        type            empty;
    }
}


// ************************************************************************* //
