/*--------------------------------*- C++ -*----------------------------------*\
  =========                 |
  \\      /  F ield         | OpenFOAM: The Open Source CFD Toolbox
   \\    /   O peration     | Website:  https://openfoam.org
    \\  /    A nd           | Version:  6
     \\/     M anipulation  |
\*---------------------------------------------------------------------------*/
FoamFile
{
    version     2.0;
    format      ascii;
    class       volScalarField;
    location    "85";
    object      p;
}
// * * * * * * * * * * * * * * * * * * * * * * * * * * * * * * * * * * * * * //

dimensions      [0 2 -2 0 0 0 0];

internalField   nonuniform List<scalar> 
918
(
0.5392
1.22819
0.00679483
0.539111
-0.0116494
1.19529
-0.501277
0.634056
0.520354
-0.123501
-0.0874506
0.522485
1.05333
0.820514
-1.16349
-0.025208
0.634893
-0.417497
0.518417
-0.0877304
0.649148
0.527026
0.529491
0.520276
0.583053
0.773053
0.930695
-0.00285254
0.0112157
0.00612828
-0.01304
-0.0335603
-0.0307445
1.0784
1.1303
1.1536
0.48683
0.320903
-0.396195
-0.451304
-0.428448
-0.51796
0.634772
0.635847
-0.225818
0.633411
0.632572
0.506028
0.519748
0.520585
0.521706
0.520616
0.521894
0.401881
-0.130397
-0.157371
-0.108669
-0.107544
0.0223451
-0.0888758
-0.0899278
-0.0861115
-0.0871413
0.435823
0.517348
0.513939
0.526664
0.535814
1.16835
1.14217
1.1683
1.07844
1.09601
1.03021
1.00303
0.841745
0.865124
0.803782
0.790119
-1.61618
-2.55731
-0.58955
-0.315887
-0.0107349
-0.0267871
-0.0255505
0.630599
0.633195
0.633234
0.635693
1.03969
-0.388555
-0.460663
0.518958
0.517485
0.526549
0.527453
0.522419
0.522418
-0.0857373
-0.0861428
-0.0707212
-0.0850396
-0.0826625
0.629014
0.630541
0.519711
0.517152
0.544127
0.567821
0.555935
0.252709
0.594159
0.61009
0.637597
0.783486
0.770039
0.782603
0.906268
0.874355
0.96243
0.98438
0.0140514
-0.00167189
-0.0264905
-0.0236691
-0.0245599
0.482566
0.476126
0.504371
0.490455
0.493502
0.226759
0.0774753
0.402678
0.426055
-0.320383
-0.37112
-0.456803
-0.454134
-0.562367
0.608775
0.637099
0.636156
-0.237123
-0.164578
-0.292776
-0.106591
-0.164264
0.496965
0.503226
0.499296
0.514701
0.508861
0.511289
0.523817
0.521001
0.522595
0.450482
0.583083
0.329524
0.283143
-0.27799
-0.175148
-0.258972
-0.0998822
-0.0987808
0.0318309
0.0618309
0.00977057
-0.00221878
-0.0938768
-0.090852
-0.0930879
-0.0863026
-0.0859376
0.427257
0.414185
0.447086
0.454621
0.503647
0.505096
0.509658
0.507693
0.954663
0.977714
0.983271
0.959446
-3.52856
-6.14844
0.0249253
0.182459
-0.00993655
-0.0114956
-0.000388764
-0.0103395
-0.00118961
-0.00296266
-0.0364118
-0.0360898
-0.0288732
-0.0303223
0.628729
0.629532
1.01348
1.04022
0.980542
0.958642
0.508315
0.510193
0.514815
0.511699
-0.0860679
-0.0860773
-0.0869922
0.63151
0.63032
0.63074
0.211213
0.121932
0.304584
0.335909
0.624239
0.613825
0.623121
0.69749
0.736673
1.00118
1.02475
1.00885
1.02076
1.07157
1.09444
1.06008
0.461115
0.472052
0.466314
0.507192
0.505014
0.505954
0.502668
0.50352
0.502242
-0.0333281
-0.403011
0.475401
0.476342
0.468668
0.471321
0.696016
0.780023
0.63345
0.634876
0.635852
-0.0545495
-0.101735
0.230349
0.201601
0.366162
0.400901
0.382643
0.929938
0.889771
0.937922
0.913157
0.87791
0.902258
-0.338631
-2.0948
-1.09319
0.57927
0.383866
0.474835
-0.0190269
-0.0360845
-0.0323285
1.02907
1.06846
0.649662
0.837171
0.788063
0.759324
0.78575
0.848837
0.781436
0.81609
0.846578
0.822324
0.557667
0.486157
0.50493
0.855301
0.910908
0.0839413
0.00418969
-0.0186942
0.0889611
0.161985
0.130865
1.04576
0.963717
1.02595
0.517394
0.518347
-0.0198173
-0.044644
0.522467
0.522178
-0.023455
-0.0144686
0.490243
-0.92969
0.0848041
0.512016
0.501603
0.518466
-0.104358
0.306779
-0.0903853
0.000607546
-0.0296936
0.513266
0.448203
0.405794
-0.00968943
-0.0347797
-0.0815506
-0.212293
0.515132
0.513489
0.517855
0.518672
0.519452
-0.0301567
-0.0296464
-0.0204442
-0.0727102
-0.065418
-0.0776615
0.481697
0.501956
-0.192001
0.518151
0.520257
0.51995
0.514185
0.519108
0.51775
-0.0263408
-0.0292488
-0.0314061
0.190738
0.332842
0.672747
0.746922
0.622123
0.456295
0.166607
0.610214
0.661779
0.587372
0.717704
0.635045
0.631026
0.151646
0.0075254
0.155945
0.0889893
0.50883
0.508284
0.499119
0.495991
0.513307
0.510984
0.51618
0.513433
0.516605
0.517745
-0.0606472
-0.0886731
-0.106118
-0.148075
0.261794
0.536872
0.223883
0.282159
0.144711
-0.0833609
-0.0828357
-0.0854617
-0.0891988
-0.0476733
-0.0488042
-0.00482958
0.00588377
-0.0109319
-0.0366272
-0.0567467
-0.0495253
-0.0584268
0.506294
0.506284
0.511295
0.519815
0.457851
0.461559
0.427869
0.446613
0.432758
0.372738
0.402462
0.379614
-0.0205347
-0.0114367
-0.0122933
-0.0360387
-0.0352304
-0.0564874
-0.0488029
-0.047952
-0.0443013
-0.0487822
-0.0754358
-0.082479
-0.175841
-0.295749
0.961837
0.911004
0.136388
0.505016
0.510694
0.507856
0.512613
0.515807
0.516432
0.513995
0.510482
0.502051
0.503585
0.500132
0.501173
-0.129428
-0.240013
-0.0712442
-0.148183
0.149517
0.615327
0.340077
0.284651
0.269883
0.4978
0.690066
0.59664
0.64987
0.62067
-0.392243
0.00452776
-0.32747
0.21762
0.213871
0.699823
0.741441
0.758905
0.715832
0.672307
-0.0198664
0.547355
-0.0757996
-0.0237548
0.168996
0.0495768
0.605946
0.620856
0.626838
0.623272
0.628892
0.628363
0.617097
0.605657
0.627844
0.631919
0.490468
0.219008
0.175341
0.129463
0.620985
0.512916
0.563066
0.481242
0.504504
0.506896
0.505872
0.486499
0.493868
0.489524
0.496741
0.500452
0.507785
0.507966
0.503759
0.505714
-0.0802955
-0.0891122
-0.0702257
-0.126205
-0.132902
-0.176067
-0.0863883
0.0878481
0.0372577
0.225857
0.348048
0.0661334
-0.0531856
-0.0361435
0.016364
0.181585
0.180026
0.0461582
0.147174
0.114964
0.101368
0.213936
0.212045
-0.0568225
-0.0634002
-0.0636495
-0.0695074
-0.022889
0.101843
0.0721457
-0.0369869
-0.0429726
-0.0812532
-0.0841348
-0.00568356
-0.0462037
-0.0378584
-0.0114028
-0.0639539
-0.0385637
-0.0293615
-0.0385629
-0.038538
-0.0380096
0.500865
0.50279
0.502845
0.512391
0.523828
0.538686
0.505804
0.479088
0.470102
0.473203
0.446254
0.455471
0.450727
0.466578
0.488144
0.496578
0.494697
0.497402
0.479459
0.481113
0.466467
0.471128
0.440258
0.421484
0.411261
-0.0600752
-0.0271749
-0.0409532
-0.0527367
-0.0272443
-0.0364908
-0.0380081
-0.0186936
-0.0385459
-0.0331634
-0.0431245
-0.0487243
-0.0491198
-0.0781824
0.00407236
-0.178805
-0.227782
-0.280944
0.88419
1.02272
0.812752
0.582659
0.591989
0.832962
0.9435
0.541783
0.71808
0.764374
0.575543
0.866823
0.50898
0.508558
0.506411
0.505575
0.506586
-0.0166057
0.0873392
0.0971249
0.157747
0.27383
0.378857
0.313524
0.199902
0.332452
0.356985
0.612988
0.619429
0.579319
0.600056
0.600332
0.407829
0.488193
0.5259
0.483585
0.559132
0.590691
0.536448
0.579884
0.500957
0.450933
0.442088
0.396702
0.431496
0.412533
0.386781
0.500596
0.477504
0.488266
0.478561
0.500544
0.527359
0.526774
0.545863
0.565448
0.479189
0.42492
0.442051
0.470709
0.426675
0.444293
0.466444
0.187949
0.0900743
0.252808
-0.0747908
0.0092446
0.0502627
0.00666935
-0.0344105
0.272295
-0.363733
-0.310194
-0.984592
0.496256
0.82806
0.549721
0.561655
0.627423
0.616364
0.625078
0.625066
0.629358
0.609392
0.61665
0.622148
0.588441
0.609924
0.599932
0.60845
0.494688
0.394987
0.398413
0.329456
0.190141
0.232285
0.423729
0.354883
0.279759
0.271835
0.448678
0.313978
0.393899
0.442481
0.366109
0.302217
0.528507
0.577614
0.569429
0.541797
0.419624
0.452961
0.453534
0.503211
0.547092
0.571429
0.495309
0.50162
0.502527
0.499793
0.498163
0.501297
0.50159
0.503898
0.504029
0.506632
0.506127
-0.0797334
-0.0658268
-0.079069
-0.0876146
-0.0271973
-0.0371435
-0.00346688
-0.0350532
-0.0380445
-0.0328472
-0.0492438
-0.0632521
-0.0625984
-0.0535557
0.0649746
0.0849777
0.0836446
0.0429733
0.257285
0.384051
0.444953
0.341356
0.19325
0.195014
0.26349
0.0178714
0.00526746
-0.00806071
0.0635726
0.0522069
-0.0698538
-0.0746317
-0.069442
-0.0570099
-0.0501098
-0.071821
-0.077826
-0.0678057
-0.0739925
-0.0804429
-0.0831213
0.480747
0.473659
0.477246
0.469664
0.467842
0.484756
0.48943
0.4904
0.495992
0.498558
0.488058
0.493916
0.498114
-0.0396356
-0.0565975
-0.0561236
-0.0610212
-0.0565919
-0.0542861
-0.0582159
0.125756
0.0307416
0.0666886
-0.00383437
-0.130676
-0.071589
0.501386
0.494676
0.481765
0.721251
0.556421
0.47549
0.5749
0.696086
0.274476
0.474181
0.30927
0.88826
0.794854
0.940412
0.554103
0.254103
0.426383
0.433982
0.27487
0.399882
0.338023
0.214117
0.249566
0.285233
0.369164
0.25432
0.233698
-0.00937705
0.173004
0.28199
0.264097
0.39017
0.446458
0.265193
0.180464
0.126249
0.59355
0.609971
0.617835
0.589004
0.610088
0.573186
0.561213
0.576269
0.58447
0.581927
-0.618984
-0.207567
-1.4071
-0.824529
-0.372655
0.523967
0.528438
0.746437
0.646754
0.652031
0.634366
0.583843
0.560394
0.599344
0.60999
0.318852
0.403411
0.391372
0.366444
0.31263
0.25494
0.525424
0.5368
0.556953
0.585816
0.563191
0.590959
0.494082
0.49393
0.492587
0.488836
0.487324
0.490635
0.0185079
-0.00822621
0.0279201
0.0152522
-0.00579793
-0.00894371
-0.0477166
-0.0588632
-0.0605688
-0.0564632
-0.0453403
-0.0438105
0.173228
0.110645
0.0207733
0.0628599
-0.00410279
-0.0870134
-0.0893791
0.00222321
0.103328
0.0846921
0.38968
0.658779
0.483364
0.650217
0.447289
0.547596
0.463976
0.437099
0.464348
0.370438
0.461338
0.0603867
-0.142347
-0.197076
0.818253
0.781301
0.559516
0.319386
0.198254
0.486898
0.508749
0.469709
0.496036
0.544999
0.529378
0.0290073
0.113555
0.205358
0.509583
0.2818
0.301077
0.290805
0.458563
0.426361
)
;

boundaryField
{
    wall-4
    {
        type            zeroGradient;
    }
    velocity-inlet-5
    {
        type            zeroGradient;
    }
    velocity-inlet-6
    {
        type            zeroGradient;
    }
    pressure-outlet-7
    {
        type            fixedValue;
        value           uniform 0;
    }
    wall-8
    {
        type            zeroGradient;
    }
    frontAndBackPlanes
    {
        type            empty;
    }
}


// ************************************************************************* //
