/*--------------------------------*- C++ -*----------------------------------*\
  =========                 |
  \\      /  F ield         | OpenFOAM: The Open Source CFD Toolbox
   \\    /   O peration     | Website:  https://openfoam.org
    \\  /    A nd           | Version:  6
     \\/     M anipulation  |
\*---------------------------------------------------------------------------*/
FoamFile
{
    version     2.0;
    format      ascii;
    class       surfaceScalarField;
    location    "85";
    object      phi;
}
// * * * * * * * * * * * * * * * * * * * * * * * * * * * * * * * * * * * * * //

dimensions      [0 3 -1 0 0 0 0];

internalField   nonuniform List<scalar> 
1300
(
3.75095
5.62643
-3.32573
3.75095
-7.75305
5.62643
-4.28536
4.28536
-0.379367
0.379367
1.8765
1.87445
-2.42971
2.42971
-1.70255
1.70255
-2.52364
2.52364
-5.24798
5.24798
-5.06876
5.06876
4.69496
-4.69496
-6.34014
6.34014
-0.960859
0.960859
-3.57986
3.57986
3.17238
-3.17238
-1.80054
1.80054
0.113143
-0.113143
-0.554079
4.30503
3.19687
3.19687
-1.99417
1.99417
-4.87521
4.87521
6.2221
-6.2221
5.22854
-5.22854
-1.90281
-2.52
1.79161
-11.4584
-5.96144
-5.96144
-8.44096
8.44096
-2.81453
2.8119
2.94736
-2.94736
-1.71873
1.71873
-4.30414
0.0187839
-4.30414
4.25443
0.0309293
4.25443
-0.496113
0.116746
-0.496113
3.96267
-3.96267
0.276601
0.102766
0.276601
3.06734
-3.06734
-1.87685
3.75335
1.8741
-1.8721
6.17713
-1.87886
3.75331
-6.04877
6.04877
-2.67865
0.248934
-2.67865
2.19639
0.233322
2.19639
-6.89764
6.89764
-1.76771
0.0651609
-1.76771
1.69749
0.00505646
1.69749
2.88874
-2.88874
-2.62564
0.102008
-2.62564
2.3878
0.135837
2.3878
0.353318
5.27311
-5.97975
8.79165
-5.27311
0.0251278
5.21037
0.0376132
5.21037
-5.10531
0.0365417
-5.10531
5.01366
0.0551014
5.01366
4.7824
-0.0874396
4.7824
-4.81595
0.120987
-4.81595
-3.35714
-4.08295
-6.50158
0.161444
-6.50158
-1.03218
0.0713177
-1.03218
0.860106
0.100753
0.860106
-3.72847
3.72847
-3.93916
0.359293
-3.93916
3.12734
0.045048
3.12734
1.86812
1.88284
5.61907
-5.61907
2.44669
-1.71459
-0.0859527
-1.71459
-1.89737
-3.33117
1.89737
-0.0968258
-0.11128
0.224423
-0.11128
3.15713
0.0397402
3.15713
2.23301
0.154788
-2.23301
0.238838
3.30354
-3.30354
1.328
0.666177
1.328
-5.55858
5.55858
4.96219
0.0514702
-4.96219
0.0869812
6.15692
0.0651875
6.15692
-6.20748
-0.0146287
-6.20748
2.48157
-5.00158
-2.67857
6.15119
0.188949
-6.15119
0.189748
2.91898
0.0283878
2.91898
-2.91831
2.91831
-2.98432
0.0369562
-2.98432
-2.14098
0.422247
-2.14098
1.40511
0.313623
1.40511
-4.22094
-0.0832065
-4.22094
-4.09828
0.159126
4.09828
0.156145
1.11968
-1.11968
-0.605999
0.109886
-0.605999
-4.06892
-0.152018
4.06892
-0.106251
-3.90041
-0.0622587
-3.90041
-3.02198
0.0376562
3.02198
0.0453637
3.11214
0.0449974
-3.11214
0.044796
-1.87099
3.75383
-1.87996
3.75406
-5.67928
-0.36949
-5.67928
6.36748
-0.318707
6.36748
3.10237
0.47749
-3.10237
0.423726
2.01044
0.185952
2.01044
-6.87111
-0.0265321
-6.87111
6.90415
-0.00651259
6.90415
1.87134
0.139101
-1.87134
0.10363
1.69331
0.00417958
1.69331
2.91653
-0.0277935
2.91653
-2.88227
-0.00646886
-2.88227
2.78856
-2.78856
2.71334
0.0752126
-2.71334
0.0877008
-11.124
11.1094
-0.0361435
-11.0879
5.17423
5.17423
4.23527
0.547132
4.23527
-5.01355
0.197598
-5.01355
2.66708
-5.34565
3.12228
-6.47942
4.67343
-16.1318
4.28193
-8.36488
6.75316
-6.75316
6.6345
0.118661
-6.6345
0.132917
-1.14386
0.111685
-1.14386
-3.12978
-0.598689
-3.12978
4.37026
-0.641791
4.37026
-3.0274
3.0274
-3.07624
0.0488368
3.07624
0.0510986
1.68359
0.00972274
-1.68359
-0.0309988
0.177874
0.0987265
-0.177874
0.066594
3.52744
-0.223903
3.52744
-3.09831
-0.205233
-3.09831
-1.2306
0.0867379
1.2306
0.0973963
-5.80747
0.24889
-5.80747
-11.1816
0.0937256
-11.144
-6.11375
-6.11375
2.32721
11.1189
-2.89743
0.0151619
2.89743
0.021547
2.97467
0.0527279
-2.97467
0.0563598
-2.8565
0.0679466
2.8565
0.0618105
-2.50865
0.367673
-2.50865
-1.02223
1.02223
-1.16852
0.146285
1.16852
0.23659
1.422
-0.302329
1.422
0.738101
0.122005
-0.738101
0.132102
-3.84376
-0.0566523
-3.84376
6.60572
-0.23824
6.60572
-2.9687
-0.129611
2.9687
-0.0521674
-0.0348902
11.1443
-5.13934
0.0340309
5.13934
-11.2095
11.2435
-3.21352
0.704869
3.21352
1.02175
5.28373
0.274852
-5.28373
0.270183
6.84433
0.0598203
-6.84433
0.0911735
-2.6393
-0.49048
-2.6393
-5.10262
-0.57666
5.10262
-0.732363
-11.4822
-0.202378
11.6846
-11.4271
6.00985
0.14707
-6.00985
11.3906
-0.994449
-0.125226
0.994449
0.027785
1.76186
-0.339858
1.76186
3.74668
-0.219234
-3.74668
-0.0970779
-6.76362
-0.107489
6.76362
-0.157903
-2.19031
-0.448984
2.19031
-0.428451
-4.2674
4.30714
1.90974
-2.31815
-2.68343
-5.64932
1.85529
1.89854
4.30197
-10.1421
-5.98974
-9.95235
7.21466
-6.94447
-9.31777
9.23033
7.94695
-8.00921
-5.77728
5.82838
6.4848
-6.43944
1.87949
1.87386
8.07628
-7.82734
-15.6986
15.3291
7.63603
-7.57087
15.818
-15.8445
-17.8586
17.9184
-5.70438
5.80638
-6.7431
6.73663
-6.98027
6.9281
-2.79389
-3.68553
13.112
-12.9506
8.62673
-8.71268
-8.68487
9.04416
3.38462
0.922511
3.42962
-1.88177
3.76126
-1.87154
3.78127
2.7781
-5.572
2.56754
-5.25097
4.40165
4.22507
-4.30483
-1.34449
-5.9289
5.95729
-5.80892
5.87073
9.19406
-9.17527
-1.88499
3.75885
-1.86908
3.76762
-3.42287
-2.35441
3.37782
0.924148
8.05972
5.05228
-8.24867
-1.70368
-8.03328
7.81405
-8.21807
8.01283
-0.436074
5.83838
-5.40231
4.43914
-1.65359
7.49197
5.56106
5.75866
5.86065
-5.5858
1.08383
-6.48613
-6.39915
-2.22343
2.33332
2.09509
-1.99233
6.15828
1.78867
6.05203
-5.81412
-2.19509
-5.87077
3.81969
2.00869
3.86853
4.08225
2.40254
4.11991
3.02947
-3.03683
0.00735926
-3.05938
6.08885
0.72202
-5.41379
-4.48964
4.99197
3.08431
5.22529
-5.59636
-2.23099
-5.17263
-9.60583
-6.09274
-10.1825
10.1636
5.16545
9.84492
-11.944
11.7861
4.87739
2.75864
4.88245
-4.982
-2.58888
-4.87837
11.6816
-2.65574
-9.02583
-10.3256
-7.533
10.3321
5.48583
10.9684
6.95005
11.0596
4.42593
7.25564
-9.91176
2.37876
-3.86568
-1.8387
-3.77798
3.66378
2.1426
3.79962
-4.219
-2.5241
-4.20383
-4.29538
-2.68489
4.32318
2.41345
-4.41759
-3.80048
4.5472
2.38091
4.06022
-10.05
4.30466
-7.99019
-9.19755
-3.75301
-9.06464
3.58056
2.59595
-6.17651
-1.99143
8.58689
-4.36182
7.2424
-5.21212
-3.50056
-5.24312
-6.97541
-1.70946
-6.81628
-8.91377
8.42329
-9.19554
8.55375
12.502
-5.63344
-6.86852
-3.96704
-2.47239
3.92225
-0.492625
-3.71004
3.7174
0.0512239
3.83249
4.75501
4.26238
-3.88228
-1.92664
-3.82592
3.82123
2.0495
3.88917
6.86098
2.33307
6.89191
-6.62666
-2.54861
-6.70987
9.08845
-8.66621
2.78916
-2.70242
5.38056
2.63228
-5.15665
-2.87663
6.23765
-3.21172
-3.02593
-12.3498
10.7858
1.56408
-4.85787
-0.418727
-0.53187
-5.56553
-3.75224
5.44454
0.314123
11.0999
7.34764
-5.51465
5.76354
6.16994
6.22141
-0.177744
5.88084
-5.17597
5.27273
-2.73674
-2.536
5.48702
-5.63904
-1.22284
-5.56408
4.34124
0.412985
1.45842
-1.234
-1.74463
-0.478799
-1.61253
1.12789
0.967198
1.22662
0.959758
1.37356
-2.93233
0.50202
2.43031
-1.97257
-1.49031
-3.82316
-1.14723
4.97039
5.73867
2.07538
-5.64159
-0.229179
2.54694
-2.44619
-0.841452
-2.98171
2.223
-3.06446
-3.46333
-1.95071
5.41404
-3.36867
-0.457245
3.31594
0.552585
-3.82826
-2.10065
3.7913
0.32861
-3.12916
6.19045
-3.06129
-5.05581
2.52898
3.55987
4.53767
-4.78991
2.44929
2.34062
-1.23004
4.25684
0.968449
4.44279
-7.07041
4.83942
5.74213
3.30203
-6.21962
1.047
-6.02342
8.56475
-7.42159
-1.14316
4.10415
4.4606
7.03503
5.46694
-5.69295
12.728
-1.17439
-6.2472
7.19781
-3.89578
4.87462
-8.7704
-10.3416
4.09436
-9.20395
11.0875
-1.88359
-3.58706
-8.35694
12.791
-1.24974
-11.5413
8.59518
-4.35155
-4.42606
8.7776
-7.00728
7.01493
-1.98997
-5.02497
-10.1473
-5.69722
10.2548
1.53134
-9.97296
12.3517
-2.71733
4.1669
0.715549
4.17108
3.36902
-5.47319
2.10417
3.63826
-5.62822
2.04547
-7.51866
-6.75462
12.0956
-5.34098
-10.5076
-9.54291
-0.964717
2.54929
9.80243
-9.49934
7.42933
2.07001
3.29823
0.590944
-3.37344
-0.404536
0.234086
4.50855
-4.74264
4.0337
4.18849
3.21554
1.29301
3.84959
2.1077
-3.87114
-0.332696
-4.16887
1.48398
-1.75542
-3.69392
5.1779
-4.06182
0.367904
-2.74271
-3.4923
6.235
-4.5814
3.03595
3.1545
5.08545
-4.91406
1.42177
-2.39056
-2.5235
2.64006
-4.39547
2.00145
3.17645
4.38236
0.581877
5.91487
6.18073
-8.51082
0.520629
11.233
-9.52934
2.47961
8.57995
-9.90894
0.366028
-8.69861
0.976625
-5.33845
-5.19989
5.23159
-6.94105
-3.53881
6.25776
0.634154
-6.4139
-0.402377
-6.05858
-2.85519
-6.50757
-3.04278
-6.15276
-8.73573
-1.67184
-7.06389
6.75145
-6.69549
-3.48699
7.42786
1.12589
-7.47122
7.346
-7.5285
7.18865
0.0950821
3.62231
4.35746
1.88507
-2.39227
4.27734
-5.0814
7.41447
-8.76502
3.68362
4.25293
-6.80154
-4.51209
5.05074
4.03772
5.36436
8.90919
-10.3568
1.44763
-10.6281
11.9693
-1.34128
-16.4007
5.77266
-7.49154
2.40797
0.381186
2.51966
0.549678
2.4923
-3.04198
-2.15274
-2.05535
-2.44769
-3.49261
5.9403
1.05808
-3.47649
2.41841
-3.56475
4.62283
-0.0803502
-3.39614
5.17744
-2.68513
5.55862
-3.6451
1.91352
3.55252
5.84383
-2.29132
4.41956
-1.78728
1.94968
-4.241
-1.54293
-2.95376
5.09636
-3.28125
3.64915
-0.353719
4.00287
-4.0378
0.826077
-0.822252
3.36624
3.60508
4.33274
-3.03973
2.93418
-4.72147
-1.30681
-4.13959
-0.963142
-0.180405
-3.77447
3.95488
5.99268
-6.17308
-5.27612
9.51417
-4.23805
7.69382
-5.43362
-2.26021
-4.28378
-4.38243
3.91611
1.96473
9.65855
0.178315
-5.61193
-4.99765
-3.9759
3.08451
2.18822
-1.71053
3.27461
2.2424
-0.783981
0.400519
0.826102
1.75877
-1.35825
0.341302
1.41747
-0.892696
1.67534
0.871599
-1.79735
0.184818
-1.34836
3.57136
1.08195
-2.04915
0.690897
0.890104
-3.62684
5.10812
-2.74019
-2.36793
5.99822
1.14704
-3.88723
4.41704
-4.00406
2.45585
-3.60308
-1.43138
-5.43544
-3.64676
-2.48167
4.90008
-3.45863
5.53401
1.43675
-5.30483
6.74158
-3.62711
1.6764
-3.05403
3.92563
-0.995724
-2.0583
2.8717
2.54234
-3.14272
0.161016
-0.271019
2.41677
-2.68779
-0.647686
-2.62026
-4.57622
4.90483
-2.10367
4.55296
2.17367
-1.91782
6.47078
1.80751
-3.72533
-3.2483
-3.70554
-1.38471
3.15296
-0.569336
-4.30903
-5.5943
4.16993
0.272865
-7.08756
7.93575
-0.84819
-4.00325
-0.836176
4.94033
-6.0951
0.466879
-4.04964
3.88611
4.85456
5.12742
-11.3064
-0.234877
-6.14094
1.08439
-7.22533
5.54499
-3.56116
7.65552
-10.2927
6.80572
-9.16682
6.51235
-0.712978
6.2438
-4.13963
2.78203
-8.47925
-6.94791
5.59524
-2.8366
6.31079
-3.22368
9.53447
-5.94101
5.37879
4.15568
-1.05811
-4.18501
-5.37458
4.31647
0.00420671
4.17528
4.98725
-2.87955
4.65456
2.26502
-4.65558
-2.13046
-6.48862
1.83304
-3.33412
-1.92257
3.75561
3.16288
3.75382
1.23212
-3.34929
7.2569
-8.22161
-1.91591
-3.28398
5.36271
-1.04623
3.4763
-6.76028
-1.86214
4.73718
-0.722204
-4.01497
0.896267
-4.43508
1.67388
-6.10895
5.26718
-5.66955
2.25452
-9.74606
-5.21671
-5.18892
-2.27766
-5.25085
-7.56548
5.28782
-1.79282
5.55318
-8.50015
7.77795
-3.4692
8.75702
-5.45462
-1.05295
5.88307
1.30557
10.0626
0.167998
-4.68009
-1.94234
3.71879
-1.77645
1.14217
-3.60647
0.112314
2.49688
3.50134
-6.83812
0.0365762
-4.64351
-3.90624
7.94396
5.60793
11.6006
1.24379
9.12813
-1.18417
10.3719
4.18019
4.41678
-3.00021
4.44784
0.954669
4.63829
-0.897282
2.8108
1.62238
1.6937
0.752496
2.30089
1.30418
3.12697
0.0849888
-1.97036
4.62953
-8.60543
-0.982403
-8.0583
1.17203
5.43197
-4.25994
2.85199
-0.663767
1.07554
-0.202617
-1.13276
1.33537
-2.73861
-1.91674
-0.49927
-1.66965
2.36055
1.90171
-1.86128
-0.877336
0.326256
-3.97302
3.27683
-3.11581
-0.573472
6.16811
-2.88831
0.200526
-1.21191
-2.41973
-2.89853
2.71371
6.17436
0.296418
3.11308
5.20124
3.1006
0.221044
3.78729
-5.67088
-3.73137
-5.90576
-0.360765
4.57956
1.77002
8.03241
5.9257
4.87946
-1.88081
-10.1024
6.50079
-2.05296
5.15952
-1.14455
-4.96441
5.07937
2.3351
-5.71352
0.0439708
-4.92044
-6.97339
-0.478343
8.25629
-9.58425
8.53131
5.67612
1.38777
-4.4303
-0.758623
4.28401
0.132765
10.5047
-0.915675
-7.03392
7.94959
-4.51629
3.53389
0.673007
2.60161
2.00838
1.34461
-5.68931
-9.94924
-2.07309
-1.55374
-4.44102
0.529366
-2.43108
6.0644
-2.53051
3.80419
5.41908
6.49462
-2.04782
-4.12527
6.28586
-2.48167
4.01295
)
;

boundaryField
{
    wall-4
    {
        type            calculated;
        value           uniform 0;
    }
    velocity-inlet-5
    {
        type            calculated;
        value           uniform -3.75095;
    }
    velocity-inlet-6
    {
        type            calculated;
        value           uniform -5.62643;
    }
    pressure-outlet-7
    {
        type            calculated;
        value           nonuniform List<scalar> 8(3.32573 7.75305 4.42281 9.6668 7.44009 5.16014 5.78936 8.95537);
    }
    wall-8
    {
        type            calculated;
        value           uniform 0;
    }
    frontAndBackPlanes
    {
        type            empty;
        value           nonuniform 0();
    }
}


// ************************************************************************* //
