/*--------------------------------*- C++ -*----------------------------------*\
  =========                 |
  \\      /  F ield         | OpenFOAM: The Open Source CFD Toolbox
   \\    /   O peration     | Website:  https://openfoam.org
    \\  /    A nd           | Version:  6
     \\/     M anipulation  |
\*---------------------------------------------------------------------------*/
FoamFile
{
    version     2.0;
    format      ascii;
    class       volVectorField;
    location    "85";
    object      U;
}
// * * * * * * * * * * * * * * * * * * * * * * * * * * * * * * * * * * * * * //

dimensions      [0 1 -1 0 0 0 0];

internalField   nonuniform List<vector> 
918
(
(0.985049 -0.000715929 0)
(0.00537765 2.96622 0)
(-0.00434877 0.877933 0)
(0.979575 0.00196156 0)
(-0.0142521 2.063 3.3196e-20)
(-0.00713801 2.94857 -2.56128e-18)
(0.821592 1.12323 4.43023e-19)
(0.112366 0.0819347 -1.41533e-20)
(0.999922 -0.000245297 0)
(0.0916172 0.667819 0)
(0.0159696 0.358362 0)
(0.732852 0.00618437 0)
(0.0102535 2.93162 0)
(0.00332705 2.79427 0)
(-0.00266398 3.17674 8.22868e-19)
(-0.0136635 1.92937 2.44257e-20)
(0.2951 0.0456586 9.90857e-19)
(0.234288 1.10984 3.5193e-19)
(0.964322 0.00674198 0)
(-0.00498711 0.3567 0)
(0.0568064 -0.0672111 -6.45515e-19)
(1.00183 -0.00455929 0)
(0.99985 -0.00892567 0)
(0.975169 -0.00605154 0)
(0.594107 0.0270607 0)
(0.0208258 2.64494 0)
(-0.0121776 2.91171 9.37475e-19)
(-0.00805982 0.928667 0)
(-0.0352729 1.17147 0)
(-0.00591748 0.897869 0)
(-0.0241622 2.58538 0)
(-0.00512152 2.11378 -2.65144e-20)
(-0.0101629 1.90069 0)
(-0.02207 2.98764 -9.22853e-23)
(-0.016438 3.00548 1.9889e-18)
(0.00232096 3.00051 0)
(0.871995 -0.00976378 0)
(0.373521 0.911332 1.68434e-19)
(0.820321 1.14217 -5.51406e-19)
(0.952427 1.00913 5.644e-19)
(0.682757 1.22505 -1.01337e-19)
(0.696315 1.18463 5.78241e-19)
(0.140101 0.128852 1.38054e-20)
(0.148913 0.0878887 0)
(1.16931 0.533318 0)
(0.10671 0.107773 6.21325e-20)
(0.0857868 0.0643677 -6.44842e-20)
(0.920572 -0.00704682 0)
(1.00027 5.35489e-05 0)
(0.999907 0.000320974 0)
(1.0037 -0.00727963 0)
(1.00088 -0.00094887 0)
(1.00011 -5.23398e-06 0)
(0.0786166 1.83667 -7.62367e-19)
(0.0338162 0.850195 0)
(0.127656 0.759364 0)
(0.0182944 0.792332 0)
(0.0540777 0.583689 0)
(0.00495597 2.03472 0)
(-0.00996058 0.691083 0)
(0.0123961 0.395777 0)
(-0.012875 0.686348 0)
(0.00701302 0.355443 0)
(0.84382 -0.0156152 0)
(0.841249 0.0275455 0)
(0.757537 0.00333223 0)
(0.799656 0.0278343 0)
(0.701019 0.0204133 0)
(0.013894 3.00025 9.50789e-19)
(0.0110829 3.00638 0)
(0.00606217 3.00372 0)
(0.0118548 2.9973 1.08017e-23)
(0.00818694 2.95873 -1.4131e-18)
(0.0121694 2.98272 0)
(0.00904675 2.90507 0)
(0.0210944 2.93137 2.18904e-24)
(0.00395297 2.82425 0)
(0.026059 2.91872 0)
(-0.000606832 2.74503 0)
(0.304536 3.57029 0)
(-0.122152 3.65289 0)
(0.148379 3.26734 -7.65818e-19)
(0.00266273 3.0059 0)
(-0.0328797 1.99094 0)
(-0.00752777 2.17915 -2.40905e-20)
(-0.00946451 1.94174 2.48486e-20)
(0.345737 0.139527 -3.4404e-19)
(0.321986 0.0152261 -3.34702e-19)
(0.301867 0.152993 -1.02875e-18)
(0.26287 0.0657429 -6.68024e-19)
(0.263575 1.02573 0)
(0.333782 1.24129 -3.63581e-19)
(0.415626 1.15231 6.00126e-19)
(0.987697 0.00817248 0)
(0.943208 0.00576822 0)
(1.00028 0.000672141 0)
(1.00254 0.00906649 0)
(1.0031 0.00899855 -2.654e-18)
(0.992135 0.0094129 2.00548e-18)
(-0.0282188 0.710986 0)
(-0.00187809 0.357252 0)
(-0.0565067 1.01483 0)
(-0.0364023 0.773366 0)
(-0.014399 0.365189 0)
(-0.0820303 0.0749398 2.00767e-19)
(0.0321979 0.0460109 0)
(0.993627 -0.00769132 0)
(0.954056 -0.00648467 0)
(0.74203 0.0258381 0)
(0.673552 0.0243917 0)
(0.658776 0.0266648 0)
(0.980725 -0.00251899 0)
(0.585649 0.0671292 0)
(0.453382 -0.0118104 1.50937e-18)
(-0.0411164 2.8601 7.32942e-19)
(0.0338749 2.91426 0)
(0.0427939 2.89271 0)
(0.0031872 2.70246 0)
(-0.00869847 2.98654 8.96473e-19)
(-0.0139421 2.89438 0)
(-0.0109955 2.9918 -2.76162e-18)
(-0.0115649 2.92924 9.40825e-19)
(-0.0511462 1.35036 0)
(-0.019547 1.37946 0)
(-0.00806025 2.14049 8.64565e-22)
(-0.00797294 2.09908 0)
(-0.0172429 1.9126 0)
(0.938936 -0.0051889 0)
(0.857363 -0.0111569 0)
(0.862923 0.00508857 0)
(0.949712 -0.00613258 0)
(0.88372 -0.00809969 0)
(0.496693 1.11101 -2.13591e-19)
(0.544103 1.18089 0)
(0.33562 0.845952 3.24222e-20)
(0.280494 0.71071 0)
(0.921819 1.03815 -1.59337e-19)
(1.04499 0.848845 3.21127e-19)
(0.394122 1.32009 0)
(0.544954 1.27578 0)
(0.599241 1.20194 0)
(0.104482 0.181296 -3.02154e-19)
(0.168486 0.140864 0)
(0.171494 0.103225 1.85433e-19)
(1.00799 0.902707 0)
(1.08387 0.750773 0)
(1.11361 0.685988 -2.57134e-19)
(1.14984 0.596588 0)
(1.20597 0.391574 4.75207e-20)
(0.957536 -0.00709156 0)
(0.962751 -0.00810545 0)
(0.900946 -0.00737665 0)
(0.983935 -0.00811986 0)
(0.974441 -0.00802762 0)
(0.936559 -0.00656809 0)
(1.0002 0.00250626 0)
(1.00078 0.00123899 0)
(1 0.000760138 0)
(0.0402381 2.08633 4.19156e-19)
(0.142935 1.78109 0)
(0.0179711 2.1915 6.50592e-19)
(0.0566665 1.8947 -5.27988e-19)
(0.167898 1.08501 -2.88791e-19)
(0.0502932 0.935833 0)
(0.12272 0.939931 0)
(0.00682324 0.754336 0)
(0.0298058 0.509597 0)
(-0.00280631 2.26106 -2.85687e-22)
(0.0210566 2.04107 0)
(-0.00479472 2.26089 -3.29366e-21)
(0.00297144 2.04574 -5.94986e-21)
(-0.000708761 0.722866 0)
(-0.00528104 0.703438 0)
(0.0144212 0.447389 0)
(-0.0197024 0.688158 0)
(0.00941197 0.35048 0)
(0.939632 0.0139156 0)
(0.856649 -0.0115339 0)
(0.928763 0.00491413 0)
(0.846388 -0.0127861 0)
(0.809638 0.000351535 0)
(0.899002 0.0206379 0)
(0.874789 0.0237783 0)
(0.782922 0.00122931 0)
(0.00989769 3.06823 -8.84095e-21)
(0.0155092 3.05821 0)
(0.0122271 2.97019 0)
(0.00752569 2.87688 0)
(0.893552 3.9627 0)
(1.18698 3.35941 9.32975e-19)
(0.0803804 3.08867 0)
(-0.0179906 2.91702 0)
(-0.0195061 1.40684 0)
(-0.0383384 1.70149 0)
(-0.0273505 1.53801 0)
(-0.0346067 2.54674 -1.53274e-20)
(-0.0205895 2.2453 0)
(-0.0246755 2.3881 0)
(-0.000608257 1.97216 1.43776e-24)
(-0.0052881 2.25418 -3.15948e-20)
(-0.00641805 2.21715 -2.54893e-20)
(-0.00569319 1.95576 0)
(0.390037 0.11696 5.27714e-19)
(0.363714 0.00741949 -5.17973e-19)
(0.232584 1.59072 0)
(0.289234 0.769862 -3.25832e-19)
(0.181682 1.6881 -1.0679e-18)
(0.248518 1.22953 1.06938e-18)
(0.901601 0.0059163 0)
(0.966995 0.0107127 0)
(0.974855 0.00988845 0)
(0.922941 0.00584695 0)
(-0.0189894 0.692023 0)
(-0.025219 0.700778 0)
(0.00505849 0.345092 0)
(0.0764443 0.0906701 5.69455e-19)
(0.0575212 0.066121 -6.67246e-19)
(0.0455572 0.047947 0)
(1.10854 0.0910372 2.43257e-20)
(1.09217 0.0429366 0)
(1.01957 0.0439526 0)
(0.914501 -0.00123883 0)
(0.437503 0.0972728 0)
(0.494855 0.0793214 -2.41352e-18)
(0.398655 0.00331611 9.03772e-19)
(0.01031 2.9771 7.78465e-19)
(-0.0331847 2.86119 4.60041e-20)
(0.00793076 3.05395 -1.86688e-20)
(0.016025 3.04259 6.9526e-19)
(-0.0116914 3.00016 3.09517e-20)
(-0.0123455 2.95224 -1.24599e-22)
(-0.0150732 3.01318 -5.77469e-19)
(0.0151036 3.02575 4.11413e-19)
(0.0078487 3.03576 -6.69356e-19)
(0.934813 0.00217408 0)
(0.939583 -0.00109303 0)
(0.848263 -0.0111939 0)
(0.956245 0.011824 0)
(0.942255 0.0133648 0)
(0.881475 0.00549834 0)
(0.915546 0.0182103 0)
(0.924962 0.015455 0)
(0.836946 0.00186408 0)
(0.669311 1.40908 1.08636e-20)
(0.687348 1.5195 0)
(0.117622 0.287941 6.82908e-20)
(0.214299 0.65373 5.39356e-19)
(0.239788 0.690834 -3.164e-19)
(0.212841 0.490501 6.28489e-19)
(0.341539 0.834173 1.59809e-18)
(0.13632 0.237701 3.83092e-19)
(0.257059 0.165354 7.08239e-19)
(0.209357 0.161473 1.82713e-19)
(0.21826 0.0902377 3.47814e-19)
(1.19687 0.448352 9.3712e-20)
(1.2213 0.246792 9.09119e-20)
(0.0119197 2.25218 2.38706e-19)
(0.0416826 1.96324 0)
(0.973361 0.0332109 0)
(0.947055 0.0193343 0)
(0.871618 -0.0150628 0)
(0.0129729 3.07368 0)
(0.0167926 2.94396 1.23434e-18)
(0.0138544 2.95675 0)
(0.00573001 2.8502 -1.22474e-18)
(0.00988662 3.08965 3.01444e-19)
(0.011197 3.08408 0)
(0.70658 1.81498 -1.68504e-19)
(1.23124 2.61922 5.70111e-19)
(0.691318 1.99292 -1.38566e-18)
(0.0218397 2.97597 -6.76235e-19)
(0.0399481 2.99746 0)
(-0.0386594 2.87811 0)
(-0.00622305 2.23944 -1.30418e-20)
(-0.00492846 2.25981 6.16379e-20)
(-8.05102e-05 2.00766 -7.3527e-21)
(0.268664 1.40345 1.03436e-18)
(0.288458 0.574428 -7.09654e-19)
(0.0661269 2.00498 7.46963e-19)
(0.120491 1.87609 -8.98203e-19)
(0.210328 1.54337 1.02118e-19)
(0.00600027 3.12035 -1.67505e-18)
(0.0132571 3.12071 1.84478e-18)
(-0.00527277 2.98055 8.38546e-19)
(-0.00147464 2.97503 -8.0329e-19)
(-0.0176027 2.87713 -8.54094e-19)
(0.0117574 3.10073 -2.23878e-18)
(0.00553462 3.1054 2.27233e-18)
(0.268965 0.699634 0)
(0.219847 0.659393 -1.15252e-18)
(0.0748293 0.211434 5.07223e-19)
(0.347508 0.954745 1.13271e-18)
(0.200941 0.282596 -1.7447e-18)
(1.19978 0.176797 4.89918e-20)
(1.21803 0.306366 0)
(1.19524 0.121805 8.2897e-21)
(-0.00112134 2.26813 -1.12759e-21)
(0.00434077 2.25298 0)
(0.0322077 1.99619 0)
(0.31297 1.31865 -3.7137e-19)
(0.354323 1.18096 -8.05524e-19)
(0.23442 0.394275 1.44186e-18)
(1.00644 -0.00967818 0)
(1.00774 -0.00778105 4.87821e-19)
(-0.0451891 1.33279 0)
(-0.0549768 1.33767 0)
(1.00244 0.00327032 1.33638e-21)
(1.0032 0.00780846 1.00147e-18)
(-0.0257747 2.53368 1.94234e-20)
(-0.028529 2.57614 0)
(0.0400117 3.17213 4.786e-19)
(0.3725 3.53752 0)
(1.16003 0.695259 -5.13906e-20)
(1.01177 0.0106366 -2.8535e-21)
(1.02089 -0.00898584 0)
(1.00157 0.00029093 1.57838e-22)
(0.11677 1.37684 0)
(0.147693 2.58919 0)
(0.033515 1.32652 0)
(-0.000582784 2.6334 -1.13564e-20)
(-0.0217459 2.58055 -1.47613e-20)
(0.997981 0.0317422 2.63479e-21)
(1.06306 0.00592717 0)
(1.10026 0.0286321 0)
(-0.0366252 1.7488 0)
(-0.0202473 2.57878 0)
(-0.0164628 1.32659 0)
(0.309121 1.49176 -1.70096e-19)
(1.01152 -0.00904911 0)
(1.00971 -0.0129827 0)
(1.00227 0.00093624 6.24693e-19)
(1.00547 -0.00490878 -7.36503e-19)
(1.00113 -0.000861394 0)
(-0.0258776 1.47334 0)
(-0.0148324 1.39601 0)
(-0.0208649 1.43525 0)
(-0.0195226 1.31206 0)
(-0.0349192 1.30149 0)
(-0.0282364 1.28135 0)
(1.03571 -0.00428321 0)
(1.01888 0.0154649 -9.92214e-22)
(0.813625 1.31385 2.78675e-19)
(1.00245 0.000392734 -6.24413e-19)
(1.00339 0.00444472 7.45265e-19)
(1.00126 0.00209132 0)
(1.01105 0.00962911 6.22e-19)
(1.00682 0.00744777 -7.56968e-19)
(1.00711 0.0111079 0)
(-0.0252333 2.60568 0)
(-0.0286078 2.58448 -3.43377e-20)
(-0.0253375 2.59873 2.42247e-20)
(1.24307 0.274324 5.28908e-19)
(1.16381 0.08928 0)
(0.0434769 3.09137 -9.54867e-19)
(0.0519783 2.874 -6.76379e-20)
(0.102848 3.2017 1.27759e-18)
(0.121199 3.21362 -2.71835e-19)
(0.140268 3.25582 0)
(0.0225672 3.13767 2.62631e-19)
(0.0607911 3.16194 9.51223e-19)
(0.0612191 3.17868 -4.91255e-19)
(0.0268203 3.12948 0)
(0.543797 0.288746 0)
(0.488875 0.304347 0)
(1.14287 0.727123 1.15514e-19)
(1.10732 0.862706 -9.88476e-20)
(1.20004 0.612839 0)
(1.22675 0.546492 0)
(1.01569 0.0120337 -1.15549e-18)
(1.01464 0.0127775 1.45285e-18)
(1.02578 -0.00871045 0)
(1.02411 -0.0102803 0)
(1.00681 0.00327254 0)
(1.01088 0.00422259 0)
(1.00419 0.00222121 0)
(1.00933 0.00634441 0)
(1.00682 0.00504128 0)
(1.00437 0.00525673 0)
(0.108772 1.37715 0)
(0.0959952 1.33361 0)
(0.138834 1.42132 0)
(0.147443 1.40484 0)
(0.143208 2.61336 0)
(0.18301 2.68405 -4.10681e-19)
(0.0930659 2.65987 0)
(0.0855912 2.65385 1.73639e-19)
(0.0236846 2.67428 -1.57712e-19)
(0.0206361 1.33524 0)
(0.0311426 1.25289 0)
(0.0227234 1.34792 0)
(0.0489336 1.27288 0)
(-0.00182234 1.99597 4.25468e-20)
(-0.0215118 2.60871 -4.49157e-20)
(-0.00611789 2.6754 -3.8936e-20)
(-0.018764 2.68731 0)
(-0.0241461 2.61484 4.39119e-20)
(-0.02287 2.61035 4.68019e-20)
(0.00502195 1.99277 -3.24784e-20)
(-0.0101201 2.4005 6.02558e-20)
(-0.0145275 2.42524 4.41389e-20)
(1.01162 0.0404222 1.17247e-18)
(1.00441 0.0209473 -1.45897e-18)
(1.00359 0.0475432 -1.19614e-18)
(0.975909 0.0379581 1.50573e-18)
(1.06473 0.00926092 0)
(1.04997 -0.00641864 0)
(1.09277 0.0378378 0)
(1.07592 0.0150882 0)
(1.07468 0.000534999 0)
(1.14146 0.0799593 0)
(1.11589 0.0465076 0)
(1.11924 0.0375822 0)
(-0.0315953 2.43032 4.03929e-21)
(-0.0229038 2.02471 0)
(-0.0232148 2.22019 0)
(-0.0223129 2.59966 -2.20585e-20)
(-0.0188136 2.61085 7.16131e-22)
(-0.00443611 1.59546 -6.0398e-20)
(-0.0146191 1.51747 6.1721e-20)
(-0.0253485 1.40928 0)
(-0.0297258 1.41506 0)
(-0.0364189 1.40525 0)
(-0.0105412 1.32919 0)
(0.00412484 1.24594 0)
(0.386482 1.51649 2.82744e-19)
(0.43505 1.5207 1.51464e-19)
(0.590857 2.46314 -2.49062e-19)
(0.376316 2.55797 6.60768e-19)
(0.350107 2.04958 6.88895e-20)
(1.02072 -0.00798798 0)
(1.0158 -0.00934669 0)
(1.01486 -0.0132067 0)
(1.00774 -0.000546108 0)
(1.00484 -0.000684977 0)
(1.008 -0.00446379 0)
(1.00955 -0.00342756 0)
(1.01465 -0.00426735 0)
(1.01962 0.016407 1.13418e-18)
(1.01714 0.0149357 -1.43823e-18)
(1.02005 0.0188848 -1.14353e-18)
(1.01735 0.017286 1.43229e-18)
(0.769974 1.36048 0)
(0.708643 1.39654 2.41621e-19)
(0.878072 1.24193 9.92269e-20)
(0.914535 1.20135 -1.31694e-19)
(1.16272 2.60833 2.87224e-19)
(0.751759 0.125091 5.88133e-19)
(1.17223 0.108484 0)
(1.21503 0.202896 -4.29387e-19)
(1.19651 0.154652 -1.78841e-20)
(1.01288 0.16686 0)
(0.0751731 3.01827 3.45615e-19)
(0.0813866 2.90312 -1.12206e-18)
(0.0227455 2.3612 7.10631e-19)
(0.1592 -0.271721 -3.12064e-19)
(0.340638 3.44179 -2.49188e-19)
(0.191845 3.33784 0)
(0.222489 3.39334 3.24597e-19)
(0.220027 3.07565 -1.19945e-18)
(0.252742 3.19394 0)
(0.00641249 3.12242 4.96434e-20)
(0.0168295 3.13115 -5.72194e-19)
(0.0158428 3.12692 8.42164e-19)
(0.032945 3.14009 0)
(0.0309757 3.14957 0)
(1.25475 2.57131 0)
(0.541404 0.788694 -5.24912e-19)
(1.02756 1.03659 -1.19118e-20)
(0.993972 1.08964 0)
(0.862991 0.971333 -1.08064e-19)
(1.08671 0.912315 2.66023e-20)
(0.298565 0.306244 -7.76776e-19)
(0.6349 0.323095 -2.28501e-20)
(0.517832 0.215261 3.94031e-19)
(0.524668 0.320393 2.80844e-20)
(0.390077 0.268638 -1.12191e-18)
(0.589807 0.321745 0)
(0.680284 0.437035 6.77903e-19)
(0.692426 0.450716 0)
(0.553131 0.324037 0)
(0.453339 0.247216 0)
(0.801028 0.659478 3.93759e-19)
(1.25456 0.308352 -4.29832e-19)
(1.24787 0.440745 0)
(1.24796 0.395846 0)
(0.680331 0.188666 6.01172e-19)
(0.847446 0.561269 -3.70772e-19)
(0.768386 0.52406 6.62514e-19)
(0.965689 0.457845 -6.66193e-19)
(1.01841 0.0147633 7.70998e-19)
(1.01705 0.0136748 -7.76677e-19)
(1.01589 0.0142303 0)
(1.0371 -0.00450322 0)
(1.03049 -0.00768145 -7.28163e-19)
(1.0287 -0.0105677 7.20604e-19)
(1.02476 0.0110614 0)
(1.02269 0.0151771 0)
(1.01271 0.00475721 0)
(1.01457 0.00910559 0)
(1.01643 0.00427034 0)
(1.01557 0.00294934 0)
(0.0780813 1.36206 0)
(0.0815336 1.30459 0)
(0.154574 1.42295 5.63973e-20)
(0.277164 1.48798 8.29474e-20)
(0.175243 1.45972 1.87886e-19)
(0.21276 1.45742 -3.03076e-19)
(0.166244 1.43544 0)
(0.145192 1.58807 -8.55729e-20)
(0.142774 1.58376 0)
(0.352097 1.99959 -1.00301e-19)
(0.323833 2.33855 6.18308e-19)
(0.199637 1.46941 7.45592e-20)
(0.276166 1.40255 2.35577e-20)
(0.208085 1.40181 -1.91811e-20)
(0.290419 1.34102 -9.14463e-20)
(0.253835 1.57644 0)
(0.270524 1.62052 9.99001e-20)
(0.0205848 2.24696 -1.4129e-20)
(0.035341 2.66966 0)
(0.055141 2.39655 9.53677e-20)
(0.048253 2.42188 0)
(0.0622478 2.68 -2.08297e-19)
(0.0408449 2.70445 0)
(0.0269548 1.46316 6.40434e-20)
(0.0320453 1.51902 0)
(0.0341181 1.42368 0)
(0.0265253 1.43295 -7.31728e-20)
(0.00296395 2.66031 5.81489e-21)
(0.025331 2.68745 1.8174e-19)
(0.0101214 2.73161 8.98955e-22)
(0.00320485 1.84934 -2.82753e-20)
(-0.00421266 1.7018 -1.92441e-20)
(0.0164487 1.3155 0)
(0.0255665 1.22914 0)
(0.0388546 1.59342 -9.52702e-21)
(0.0419861 1.47436 -5.77908e-20)
(0.0260339 1.55563 6.05454e-20)
(0.0516779 1.61719 0)
(-0.0321217 2.27068 1.32994e-19)
(-0.0354694 2.54769 -5.6359e-20)
(-0.0213049 2.4484 1.02585e-20)
(-0.00530876 1.86522 3.42696e-20)
(-0.0288588 2.50358 1.46224e-20)
(-0.0230237 2.44594 -3.83351e-20)
(1.01828 0.022387 -7.76792e-19)
(1.01483 0.0289282 7.80484e-19)
(1.01204 0.0182068 0)
(1.0101 0.0707924 1.08039e-18)
(0.990535 0.0611995 -1.22382e-18)
(0.950576 0.0571504 1.36924e-18)
(1.01302 0.116 -1.45405e-19)
(1.04404 -0.00463798 0)
(1.05227 -0.000371792 6.97896e-19)
(1.04035 -0.00815414 -6.97491e-19)
(1.07239 0.0438262 -4.1387e-20)
(1.06508 0.029171 3.57481e-19)
(1.06424 0.0658783 0)
(1.05441 0.0551304 -1.28738e-19)
(1.03224 0.0440379 0)
(1.02599 0.0392184 0)
(1.02764 0.0137259 0)
(1.02408 0.01635 0)
(1.0404 0.0337892 2.64581e-19)
(1.03946 0.0286726 -5.85489e-19)
(1.05329 0.0389609 -2.79961e-19)
(1.04826 0.0388609 -3.08864e-19)
(1.0779 0.0706912 5.9109e-19)
(1.10195 0.0567451 0)
(1.10864 0.0953783 0)
(-0.030009 2.27678 7.66736e-20)
(-0.0328038 2.02985 4.26571e-21)
(-0.0278847 2.04009 0)
(-0.0312415 2.44392 -7.63294e-20)
(-0.0292908 2.4025 -8.1381e-21)
(-0.035787 2.47038 1.00725e-20)
(-0.0220061 2.62221 -3.99574e-20)
(-0.0276508 2.56427 2.23592e-21)
(-0.026112 2.51833 -1.33771e-20)
(-0.0177678 2.61481 2.52823e-20)
(-0.021762 2.61732 -2.93733e-20)
(-0.0134514 1.52173 -1.08932e-21)
(-0.00795784 1.6426 -6.25796e-20)
(0.377895 1.45253 -1.20254e-19)
(0.373254 1.38302 2.07198e-20)
(0.649864 1.44419 -2.33761e-19)
(0.525279 1.51361 -1.47153e-19)
(0.579275 1.47269 0)
(0.605934 2.42025 2.19987e-19)
(0.666459 2.42992 3.41011e-19)
(0.415892 2.51268 9.31671e-20)
(0.399192 2.53888 -6.14987e-19)
(0.502213 2.47685 5.72385e-19)
(0.553241 2.47325 0)
(0.485114 2.52323 -5.60351e-19)
(0.257585 2.59676 1.13015e-18)
(0.357948 2.55972 -6.76898e-20)
(0.283004 2.65434 -1.58268e-18)
(0.970935 2.38705 7.23116e-19)
(0.848284 2.38794 0)
(1.01142 0.00140062 2.53347e-20)
(1.01538 -0.00515584 -2.06983e-20)
(1.01778 -0.0038893 -3.78369e-19)
(1.01564 -0.00101792 3.77053e-19)
(1.01313 0.00185544 0)
(0.638285 1.3057 0)
(0.682915 1.1912 0)
(0.798156 1.12184 0)
(0.670493 1.14812 0)
(1.19377 2.62374 5.16843e-20)
(1.0864 2.37542 0)
(0.816213 2.16379 3.65107e-21)
(0.820914 2.42747 0)
(0.915693 2.51805 -4.42136e-19)
(0.947115 2.4674 2.95182e-19)
(0.784556 0.165557 0)
(0.724745 0.149196 1.59276e-19)
(0.901296 0.158669 9.33582e-19)
(0.813124 0.145313 -3.49013e-19)
(0.756016 0.0931219 -1.07334e-18)
(1.08784 0.247936 -8.50609e-19)
(0.985674 0.318389 -1.02953e-20)
(0.92763 0.352919 8.18734e-19)
(1.01415 0.259467 6.98262e-19)
(0.930135 0.207031 -1.23087e-18)
(0.887866 0.221145 1.54498e-19)
(0.927275 0.317838 -3.20707e-19)
(0.904247 0.225673 0)
(1.00096 0.211441 6.02748e-19)
(1.05506 0.218898 0)
(1.05235 0.23156 0)
(1.12598 0.125704 2.7039e-19)
(1.0648 0.195586 -1.06042e-20)
(1.07941 0.249436 -1.54751e-19)
(1.11308 0.212802 0)
(1.02269 0.0488472 5.9719e-19)
(1.03678 0.0628167 7.45961e-19)
(1.03262 0.0462645 -5.93036e-19)
(1.04131 0.0692936 -5.00231e-19)
(1.01483 0.0758763 -7.63484e-19)
(0.98455 0.169121 0)
(0.987003 0.107979 0)
(0.96141 0.0758061 -4.87406e-19)
(0.901823 0.0979863 1.93287e-19)
(1.03931 0.117309 6.92104e-19)
(1.07612 0.137859 -7.91259e-19)
(1.07019 0.181835 7.11369e-19)
(1.03523 0.158244 0)
(1.08635 0.123762 0)
(1.05696 0.112972 -3.24512e-19)
(1.04241 0.109448 -5.62341e-19)
(0.587916 1.08025 1.22481e-19)
(0.609045 1.39704 -2.45722e-20)
(1.14378 2.71509 -2.5259e-19)
(1.19598 3.09961 4.21479e-21)
(1.25144 2.72425 -1.34655e-19)
(1.2905 2.69452 2.51884e-20)
(1.26541 2.31751 -3.83238e-20)
(1.18351 3.00482 -7.91801e-20)
(1.20332 2.96175 2.31875e-19)
(1.17742 3.25259 -1.19313e-19)
(1.39458 2.966 1.49516e-19)
(1.40582 2.90089 0)
(0.578082 0.814092 -4.84732e-20)
(0.199376 1.21052 4.69121e-19)
(0.529453 0.324369 5.03812e-19)
(0.413559 0.0905641 5.73139e-19)
(0.452557 0.29605 6.35303e-19)
(0.545157 0.416334 -1.03381e-18)
(0.556615 0.397114 8.49885e-19)
(0.456546 0.29309 -3.13014e-19)
(0.290914 0.234479 7.17615e-19)
(0.710861 0.26242 -3.46766e-19)
(0.660928 0.29097 0)
(0.589629 0.198435 7.13402e-21)
(0.732344 0.516991 3.58043e-19)
(0.702508 0.491178 -1.2987e-18)
(0.633063 0.439864 1.29482e-20)
(0.616932 0.418855 0)
(0.724465 0.720625 3.72666e-19)
(0.83955 0.802762 4.11972e-19)
(0.778476 0.853226 -4.80143e-19)
(0.908471 0.823958 -1.52534e-19)
(0.942928 0.866909 -3.56612e-20)
(0.950484 0.87435 3.65708e-20)
(0.884171 0.681822 -6.70025e-19)
(0.957614 0.728377 1.41808e-19)
(1.01294 0.731855 0)
(1.01171 0.707408 -1.81403e-19)
(1.03026 0.343888 2.11092e-19)
(1.15948 0.342886 2.58123e-19)
(1.07518 0.284838 3.47744e-19)
(1.00067 0.390802 -4.22787e-19)
(1.05836 0.490932 0)
(1.13974 0.431571 0)
(0.898015 0.427772 -7.82663e-22)
(0.846123 0.322024 0)
(0.893211 0.310727 3.89818e-19)
(0.913293 0.350666 2.38497e-21)
(0.987943 0.502651 1.86116e-18)
(0.920702 0.560477 4.80213e-19)
(0.94331 0.519936 -5.05242e-19)
(0.861488 0.497217 5.38927e-19)
(0.825616 0.471162 3.43789e-19)
(0.803183 0.449361 -3.36791e-19)
(1.02822 -0.000363425 6.25313e-19)
(1.02048 0.000618452 0)
(1.01912 0.00142893 4.08058e-19)
(1.02269 -0.0006828 -9.23733e-19)
(1.02257 0.0046362 4.49997e-19)
(1.02003 0.0116874 -9.41907e-19)
(1.02076 0.0115073 0)
(1.01967 0.0122718 -1.96119e-19)
(1.0166 0.00783709 4.91526e-19)
(1.01669 0.0109588 -2.46835e-19)
(1.01728 0.0106698 1.80675e-19)
(0.0371898 1.33651 0)
(0.0441689 1.39864 0)
(0.0562727 1.34106 0)
(0.0628671 1.27696 0)
(0.0877964 1.40771 -7.61965e-20)
(0.0928572 1.37951 1.92513e-20)
(0.085904 1.57243 2.89028e-21)
(0.102171 1.41198 -3.93787e-20)
(0.0449494 1.48761 5.07344e-20)
(0.0507756 1.48156 -3.98965e-20)
(0.0783356 1.40012 -2.13561e-20)
(0.0654582 1.40185 7.39272e-20)
(0.0613063 1.38286 1.21944e-20)
(0.0472549 1.40243 8.53113e-21)
(0.100292 2.35959 -1.0446e-19)
(0.0876201 2.40653 0)
(0.155669 2.00406 8.87271e-20)
(0.131131 1.69988 3.17428e-20)
(0.218141 2.00603 -8.43043e-20)
(0.216085 2.41656 0)
(0.259051 2.37184 -5.7083e-19)
(0.291983 2.36948 4.17731e-19)
(0.254136 1.9798 -1.94207e-19)
(0.146939 2.14863 1.419e-19)
(0.114258 2.25725 0)
(0.0137385 1.85126 -3.18027e-20)
(-0.00618496 2.3704 -1.41248e-21)
(0.00306241 2.1274 0)
(0.00314781 2.43228 -1.76247e-20)
(0.0203681 2.26803 2.70845e-20)
(0.0130449 1.4411 -1.31051e-20)
(0.0085522 1.42079 2.17565e-19)
(0.00682694 1.43078 -7.05402e-20)
(0.021939 1.43977 -6.17955e-20)
(0.0238278 1.46672 0)
(0.00356313 1.41472 0)
(0.00081273 1.31385 -8.81561e-20)
(-0.0029778 1.4068 2.59425e-20)
(0.00472423 1.40485 0)
(0.0109577 1.30653 -6.76911e-20)
(0.0189394 1.2145 1.34996e-19)
(1.04247 0.0151151 0)
(1.04903 0.0105955 -6.52567e-20)
(1.03919 0.0246552 -4.71643e-19)
(1.04957 0.0234967 0)
(1.05467 0.0227072 0)
(1.03635 0.0131095 -6.73385e-21)
(1.03008 0.0135789 7.61039e-19)
(1.03197 0.0175329 9.21263e-19)
(1.0257 0.0211938 0)
(1.02232 0.0217595 0)
(1.03557 0.0260326 4.70782e-19)
(1.02598 0.0282593 0)
(1.02364 0.0281943 0)
(-0.0211581 2.03219 0)
(-0.0120813 1.67038 -2.60585e-21)
(-0.00973698 1.77337 -3.54056e-20)
(-0.00903517 1.41194 0)
(-0.0101618 1.57586 -3.70695e-20)
(-0.0183611 1.48846 2.2236e-20)
(-0.0162899 1.4282 0)
(0.403285 1.62025 0)
(0.367603 1.32136 -3.33282e-20)
(0.275821 1.34594 0)
(0.43749 1.31959 -3.18922e-20)
(0.473178 1.47849 0)
(0.458861 1.42039 3.82172e-20)
(1.0402 2.66721 -1.53611e-20)
(0.985205 2.40585 -9.08284e-19)
(0.947847 2.20726 1.01725e-18)
(0.864975 2.37994 2.4484e-19)
(0.852189 2.48387 0)
(0.92144 2.47842 0)
(0.95471 2.37996 0)
(0.930558 2.37109 -9.47676e-19)
(0.690929 2.44765 -3.83461e-19)
(0.79994 2.43146 -9.89615e-20)
(0.807158 2.40952 7.45842e-20)
(0.703777 2.40095 0)
(0.809064 2.39452 0)
(0.769522 2.41121 -3.70101e-19)
(0.765144 2.46262 0)
(0.633881 1.06928 0)
(0.514736 0.852949 -5.67688e-19)
(0.522424 0.928273 -3.3125e-20)
(0.501568 1.067 0)
(0.488889 0.97394 8.67733e-19)
(0.805845 0.888566 -1.34061e-19)
(0.809019 1.023 0)
(0.790217 1.0062 1.84317e-19)
(0.67867 1.02225 0)
(0.670613 0.925928 0)
(1.16235 2.75169 -2.22627e-19)
(1.13755 2.81011 -9.19174e-20)
(0.921663 2.3324 7.95423e-20)
(0.898517 2.31338 -7.73572e-20)
(1.13206 2.72937 0)
(1.08418 2.69711 9.29003e-20)
(1.09963 2.49194 -2.98929e-19)
(1.00137 2.25194 -2.81069e-20)
(0.496169 1.32565 0)
(0.516468 1.07511 -1.07869e-19)
(0.596493 1.18459 0)
(0.846854 0.233493 0)
(0.754534 0.180495 0)
(0.657586 0.141765 0)
(0.859677 0.232219 -6.15264e-19)
(0.74205 0.229725 3.61234e-19)
(0.908985 0.089743 -3.93621e-19)
(0.926994 0.14431 0)
(0.906863 0.152632 1.74185e-19)
(0.8375 0.11034 6.97784e-19)
(0.788608 0.0781268 -4.39294e-19)
(1.09365 3.34311 -6.64475e-19)
(1.16218 3.267 0)
(1.11165 3.42778 -1.55843e-18)
(0.654176 3.5742 1.29618e-18)
(1.02181 3.0741 1.14477e-19)
(0.534232 0.773684 5.73197e-19)
(0.511817 0.74035 0)
(0.343349 0.326364 -1.43124e-19)
(0.495477 0.627438 8.54334e-19)
(0.566759 0.324356 -1.84531e-19)
(0.523942 0.453063 2.21684e-19)
(0.688897 0.529855 4.56355e-19)
(0.734982 0.566968 0)
(0.670704 0.563065 0)
(0.658313 0.53532 0)
(1.01934 0.616508 8.95365e-20)
(0.972824 0.59846 -4.65453e-19)
(0.983184 0.610784 3.56521e-19)
(1.04682 0.55385 -3.43458e-19)
(1.09268 0.522265 0)
(1.09567 0.604809 -9.05995e-20)
(0.886733 0.425883 -7.67872e-19)
(0.872593 0.410412 -9.93085e-19)
(0.800932 0.417281 6.04688e-19)
(0.815843 0.378678 -6.30229e-19)
(0.854794 0.335492 -4.96176e-19)
(0.800699 0.338777 6.07128e-19)
(1.02659 0.00675782 -4.70948e-19)
(1.02622 0.00687511 9.48942e-19)
(1.02999 0.000985516 6.06032e-19)
(1.0342 0.00160942 -7.2766e-19)
(1.03404 0.0120238 0)
(1.02973 0.0120938 -1.19177e-18)
(0.0850501 1.64564 1.0343e-20)
(0.0713392 1.60457 0)
(0.108563 1.69831 4.72568e-20)
(0.112761 1.67223 -4.09424e-20)
(0.0792765 1.57111 -5.1968e-21)
(0.0742578 1.57441 0)
(0.00767225 1.7068 0)
(-0.00777353 1.52562 1.97096e-20)
(-0.00643979 1.46896 -1.77179e-20)
(-0.0133992 1.57367 3.18397e-21)
(-0.00230469 1.89757 2.97802e-20)
(-0.014508 1.9519 -1.1827e-20)
(0.493742 1.35832 -2.71033e-19)
(0.49654 1.35282 2.9633e-19)
(0.451587 1.31167 -1.62257e-20)
(0.428729 1.29047 8.06164e-21)
(0.63134 1.31271 0)
(0.557091 1.40719 1.12055e-19)
(0.558077 1.41007 -1.09127e-19)
(0.487943 1.3002 1.5657e-20)
(0.528306 1.2524 0)
(0.592785 1.21807 0)
(0.664629 2.4113 5.6455e-19)
(0.66034 2.44161 1.28683e-18)
(0.715291 2.45688 -8.84884e-19)
(0.61311 2.42885 -2.01872e-19)
(0.556834 2.52221 2.76547e-19)
(0.497037 2.48879 -7.14878e-19)
(0.992576 2.38476 -5.73213e-19)
(1.02395 2.40225 0)
(0.951076 2.19067 -6.25584e-19)
(1.05518 2.67816 0)
(1.05405 2.65905 0)
(0.597182 2.28424 -3.00045e-21)
(1.11644 3.06641 6.61068e-20)
(0.992803 2.96238 -1.12649e-19)
(0.315436 0.77979 0)
(0.311501 0.652519 -3.05424e-19)
(0.522203 0.591206 -3.09968e-19)
(0.3589 2.12547 0)
(0.400648 2.74367 -8.05995e-20)
(0.409805 2.47745 0)
(0.732133 0.688203 -7.93786e-19)
(0.798137 0.697683 1.10691e-18)
(0.801589 0.661738 -1.04967e-18)
(0.70377 0.644405 -1.00452e-19)
(0.75959 0.604826 -4.15859e-19)
(0.967408 2.74904 -5.0065e-20)
(1.01252 2.75706 -2.17961e-19)
(0.54724 2.19849 4.55079e-19)
(0.600957 1.73025 -3.58321e-19)
(0.700207 1.849 -5.03761e-19)
(0.974869 2.38985 -1.3896e-19)
(0.975372 2.34289 3.73604e-19)
(0.641832 1.75635 3.40446e-20)
(0.44857 1.29133 1.78318e-19)
)
;

boundaryField
{
    wall-4
    {
        type            noSlip;
    }
    velocity-inlet-5
    {
        type            fixedValue;
        value           uniform (1 0 0);
    }
    velocity-inlet-6
    {
        type            fixedValue;
        value           uniform (0 3 0);
    }
    pressure-outlet-7
    {
        type            zeroGradient;
    }
    wall-8
    {
        type            noSlip;
    }
    frontAndBackPlanes
    {
        type            empty;
    }
}


// ************************************************************************* //
