/*--------------------------------*- C++ -*----------------------------------*\
  =========                 |
  \\      /  F ield         | OpenFOAM: The Open Source CFD Toolbox
   \\    /   O peration     | Website:  https://openfoam.org
    \\  /    A nd           | Version:  6
     \\/     M anipulation  |
\*---------------------------------------------------------------------------*/
FoamFile
{
    version     2.0;
    format      ascii;
    class       volScalarField;
    location    "81";
    object      p;
}
// * * * * * * * * * * * * * * * * * * * * * * * * * * * * * * * * * * * * * //

dimensions      [0 2 -2 0 0 0 0];

internalField   nonuniform List<scalar> 
918
(
0.524749
1.21626
0.00657099
0.524663
-0.0116333
1.18375
-0.514493
0.619124
0.505903
-0.126942
-0.0880386
0.508556
1.04131
0.808235
-1.17878
-0.0244181
0.619586
-0.426053
0.503965
-0.0834089
0.636186
0.512575
0.51504
0.505825
0.567941
0.76125
0.918722
-0.0028775
0.0110087
0.00590643
-0.0130814
-0.033557
-0.0304324
1.06688
1.11879
1.14201
0.472377
0.305003
-0.409663
-0.46476
-0.441571
-0.530721
0.619728
0.620939
-0.239918
0.618739
0.618143
0.49158
0.505297
0.506134
0.507254
0.506164
0.507442
0.386484
-0.134455
-0.162066
-0.111249
-0.110126
0.0243457
-0.0896565
-0.0906176
-0.0855181
-0.0851502
0.421318
0.502935
0.499676
0.512831
0.521141
1.15642
1.13019
1.15627
1.06672
1.08426
1.01823
0.991121
0.829452
0.852686
0.791225
0.777308
-1.63228
-2.57458
-0.604141
-0.32992
-0.0105943
-0.0258625
-0.0245427
0.615727
0.617961
0.617572
0.620286
1.02318
-0.398137
-0.470922
0.504506
0.503033
0.5121
0.513005
0.507971
0.50797
-0.0810183
-0.0811507
-0.0681189
-0.0810878
-0.0795227
0.617811
0.618312
0.50526
0.502702
0.529159
0.552393
0.540686
0.238015
0.578002
0.594201
0.625639
0.771257
0.757983
0.770622
0.894315
0.861849
0.950636
0.972368
0.0140566
-0.00154616
-0.0256714
-0.0230495
-0.0237942
0.468111
0.461666
0.489866
0.476005
0.479053
0.210764
0.061314
0.38683
0.41021
-0.334123
-0.384876
-0.467826
-0.466487
-0.573917
0.590439
0.622278
0.621927
-0.251214
-0.178643
-0.306841
-0.121029
-0.1785
0.482517
0.488778
0.484848
0.500251
0.494413
0.496839
0.509368
0.506551
0.508145
0.445745
0.572901
0.3039
0.276657
-0.285844
-0.180668
-0.265637
-0.102045
-0.100295
0.0340408
0.0637434
0.0115097
-0.000625292
-0.0953622
-0.0913313
-0.094156
-0.0855466
-0.085253
0.41274
0.399643
0.432586
0.440128
0.489344
0.490847
0.49539
0.493255
0.942588
0.965408
0.971341
0.947548
-3.5471
-6.16952
0.0116502
0.169646
-0.00970022
-0.0110909
-0.000188742
-0.0102705
-0.000885195
-0.00285394
-0.0348655
-0.0345129
-0.0276156
-0.02887
0.613186
0.614492
0.988947
1.01554
0.961874
0.939162
0.493875
0.495749
0.500364
0.497252
-0.0836328
-0.0823088
-0.0840389
0.617153
0.617322
0.61689
0.196477
0.107278
0.289927
0.321267
0.609514
0.598794
0.608351
0.685408
0.724052
0.98868
1.01272
0.996857
1.00928
1.06008
1.08298
1.04834
0.446629
0.457586
0.451838
0.492752
0.490549
0.4915
0.488233
0.489005
0.487768
-0.0495408
-0.419648
0.459192
0.460344
0.452781
0.455426
0.67712
0.760484
0.618074
0.620997
0.621153
-0.0689464
-0.116122
0.23489
0.205818
0.351522
0.386339
0.368038
0.917691
0.87756
0.92594
0.901124
0.865832
0.890527
-0.355385
-2.11276
-1.11068
0.567089
0.37139
0.462505
-0.0177255
-0.0346084
-0.0310306
1.00504
1.04536
0.639893
0.829854
0.783403
0.74706
0.773628
0.836097
0.768803
0.80355
0.834219
0.81046
0.540026
0.469608
0.487852
0.835257
0.89016
0.0693463
-0.0102903
-0.0332042
0.0896623
0.164279
0.130076
1.02292
0.942414
1.00381
0.502943
0.503896
-0.0188127
-0.042918
0.508018
0.50773
-0.0230218
-0.0137897
0.478007
-0.945253
0.0699663
0.497573
0.487156
0.504017
-0.107451
0.314251
-0.0910606
0.00311228
-0.0281639
0.498742
0.433693
0.391239
-0.00847576
-0.0337127
-0.0768767
-0.2224
0.500682
0.499039
0.503405
0.50422
0.505
-0.0289008
-0.0283402
-0.0196218
-0.0695581
-0.0629104
-0.073908
0.467246
0.487576
-0.205772
0.503701
0.505807
0.5055
0.499737
0.504658
0.5033
-0.0251926
-0.0283842
-0.0304905
0.176072
0.318081
0.660639
0.734887
0.610053
0.444038
0.153682
0.598006
0.649722
0.57524
0.705363
0.619495
0.615946
0.137006
-0.00673262
0.141425
0.0745575
0.494394
0.493848
0.484676
0.481545
0.498857
0.496535
0.50173
0.498983
0.502154
0.503294
-0.0620991
-0.0911807
-0.110991
-0.154032
0.284518
0.537528
0.21433
0.241271
0.148948
-0.0834996
-0.0827772
-0.0864248
-0.0896202
-0.0462995
-0.0472766
-0.00332678
0.00759084
-0.0092212
-0.0349696
-0.0556158
-0.0484322
-0.0577295
0.491768
0.491588
0.497293
0.506634
0.443351
0.447072
0.413309
0.432119
0.418229
0.358028
0.387871
0.364942
-0.0196076
-0.0100656
-0.0114013
-0.0347833
-0.0339621
-0.0547713
-0.0470752
-0.0465993
-0.0424155
-0.0468522
-0.0714132
-0.0789371
-0.186705
-0.307205
0.93441
0.861863
0.126131
0.490569
0.496245
0.493408
0.498163
0.501356
0.501982
0.499545
0.496032
0.487628
0.489102
0.485892
0.48711
-0.143393
-0.253448
-0.0851853
-0.16217
0.133514
0.59978
0.32527
0.269869
0.25515
0.483261
0.677621
0.584542
0.637866
0.609753
-0.407092
-0.00895307
-0.341822
0.204048
0.199161
0.687716
0.729285
0.746722
0.703529
0.660055
-0.0363485
0.53313
-0.0901627
-0.0382359
0.15413
0.0351936
0.597538
0.605937
0.613174
0.609235
0.614617
0.612714
0.600055
0.591014
0.611496
0.616299
0.475889
0.204341
0.160695
0.114841
0.606082
0.498177
0.547696
0.466661
0.490041
0.492457
0.491431
0.472052
0.479424
0.475077
0.482342
0.486036
0.493341
0.493527
0.489327
0.491275
-0.0825297
-0.0910739
-0.0773414
-0.13598
-0.140074
-0.184273
-0.0947682
0.0906276
0.0377206
0.22269
0.338164
0.0609399
-0.0633705
-0.0454826
0.00558005
0.16158
0.165447
0.0432161
0.154489
0.111155
0.102565
0.193082
0.21443
-0.0577209
-0.0635377
-0.0647109
-0.0706439
-0.020187
0.102241
0.0730619
-0.0358874
-0.0422756
-0.0805622
-0.0829465
-0.00816228
-0.0468204
-0.0388249
-0.0119832
-0.0627634
-0.0374557
-0.0283629
-0.0367732
-0.0367779
-0.0362429
0.486846
0.488213
0.488754
0.497863
0.509864
0.524237
0.490979
0.464636
0.455638
0.458742
0.431755
0.441052
0.436274
0.452164
0.473768
0.482164
0.480318
0.483057
0.465008
0.466756
0.452087
0.456688
0.425781
0.406958
0.396753
-0.0586734
-0.0256963
-0.039449
-0.0513156
-0.0258279
-0.0350945
-0.0364322
-0.0176299
-0.0371145
-0.0318409
-0.041593
-0.0469082
-0.0472036
-0.0892273
-0.00683567
-0.192134
-0.240039
-0.293621
0.859802
0.999686
0.774624
0.548178
0.562015
0.802659
0.912263
0.530093
0.713455
0.745527
0.558039
0.846989
0.49453
0.494111
0.491968
0.491135
0.492142
-0.0310154
0.0725034
0.0825988
0.142836
0.257842
0.36292
0.296879
0.182957
0.315097
0.339877
0.596955
0.602754
0.561673
0.583917
0.58648
0.392693
0.473292
0.51189
0.468797
0.541592
0.576097
0.522505
0.56471
0.485318
0.435504
0.426666
0.381829
0.416454
0.397488
0.37186
0.486443
0.463126
0.474015
0.46393
0.486161
0.511433
0.512076
0.533625
0.551272
0.464663
0.410285
0.427237
0.456187
0.412222
0.429795
0.451861
0.17209
0.0741665
0.236534
-0.0909785
-0.00676712
0.0340023
-0.00946029
-0.0506188
0.256068
-0.380185
-0.326716
-1.00169
0.481041
0.816271
0.540984
0.552537
0.61367
0.603124
0.612293
0.614438
0.616747
0.593302
0.602545
0.606515
0.572277
0.593232
0.586764
0.594231
0.480124
0.380402
0.383811
0.31505
0.175664
0.217702
0.408925
0.340256
0.265237
0.257292
0.434247
0.299302
0.37939
0.42789
0.351126
0.287293
0.513096
0.56277
0.55603
0.528269
0.405148
0.438531
0.439759
0.489999
0.533299
0.558126
0.480868
0.48719
0.488094
0.485353
0.48374
0.486873
0.487168
0.489459
0.4896
0.492191
0.49168
-0.0806545
-0.0671556
-0.0805531
-0.0887751
-0.0261402
-0.0380563
-0.00682621
-0.0406842
-0.0390605
-0.0353896
-0.0516008
-0.0656016
-0.0641292
-0.0544507
0.0670316
0.0855962
0.0911733
0.0491197
0.234558
0.403688
0.458709
0.348872
0.202975
0.23093
0.314422
0.0156329
0.00658155
-0.00780519
0.0629601
0.0498765
-0.0697273
-0.0736325
-0.0684867
-0.0564558
-0.0503811
-0.0709438
-0.0749409
-0.0642644
-0.0713269
-0.0777204
-0.0800964
0.466295
0.459205
0.462813
0.455225
0.453392
0.470363
0.475043
0.476033
0.481591
0.484236
0.473696
0.479417
0.483638
-0.0381666
-0.0547423
-0.0547691
-0.0575633
-0.0542006
-0.0518211
-0.0552872
0.110252
0.0186582
0.0541566
-0.0166097
-0.143213
-0.0836837
0.484249
0.477592
0.465203
0.702173
0.538033
0.457606
0.556949
0.677371
0.257414
0.456017
0.291851
0.866241
0.774627
0.919211
0.535144
0.238857
0.409907
0.418251
0.259282
0.383576
0.323153
0.199128
0.234508
0.27005
0.353889
0.23825
0.217771
-0.0250371
0.156863
0.265817
0.24788
0.374173
0.430504
0.248899
0.16468
0.110943
0.575909
0.593904
0.603578
0.574636
0.596979
0.553296
0.544623
0.56224
0.571808
0.565233
-0.636095
-0.224534
-1.42418
-0.840483
-0.388592
0.508401
0.512255
0.731308
0.632561
0.639188
0.621369
0.570311
0.545121
0.585152
0.596512
0.304313
0.388707
0.376618
0.351361
0.297674
0.24051
0.511715
0.521359
0.544044
0.572319
0.547815
0.576394
0.479662
0.479517
0.478148
0.47439
0.472881
0.476215
0.0153608
-0.010368
0.029622
0.0171855
-0.00767916
-0.00924299
-0.0456408
-0.057076
-0.0577506
-0.0539762
-0.0431072
-0.0414613
0.157349
0.094787
0.00693651
0.0476771
-0.0184005
-0.100113
-0.102938
-0.0116898
0.0883343
0.0697873
0.371752
0.637789
0.464355
0.628657
0.429983
0.525863
0.447604
0.421027
0.448271
0.354052
0.444595
0.0430225
-0.159746
-0.214434
0.803397
0.765543
0.544234
0.303431
0.183041
0.472467
0.493239
0.454121
0.480278
0.529667
0.513587
0.0119941
0.0971155
0.188014
0.492754
0.265523
0.284487
0.27424
0.441962
0.409935
)
;

boundaryField
{
    wall-4
    {
        type            zeroGradient;
    }
    velocity-inlet-5
    {
        type            zeroGradient;
    }
    velocity-inlet-6
    {
        type            zeroGradient;
    }
    pressure-outlet-7
    {
        type            fixedValue;
        value           uniform 0;
    }
    wall-8
    {
        type            zeroGradient;
    }
    frontAndBackPlanes
    {
        type            empty;
    }
}


// ************************************************************************* //
