/*--------------------------------*- C++ -*----------------------------------*\
  =========                 |
  \\      /  F ield         | OpenFOAM: The Open Source CFD Toolbox
   \\    /   O peration     | Website:  https://openfoam.org
    \\  /    A nd           | Version:  6
     \\/     M anipulation  |
\*---------------------------------------------------------------------------*/
FoamFile
{
    version     2.0;
    format      ascii;
    class       surfaceScalarField;
    location    "81";
    object      phi;
}
// * * * * * * * * * * * * * * * * * * * * * * * * * * * * * * * * * * * * * //

dimensions      [0 3 -1 0 0 0 0];

internalField   nonuniform List<scalar> 
1300
(
3.75095
5.62643
-3.32995
3.75095
-7.75616
5.62643
-4.28196
4.28196
-0.373443
0.373443
1.8765
1.87446
-2.43048
2.43048
-1.71734
1.71734
-2.52637
2.52637
-5.24795
5.24795
-5.06909
5.06909
4.69612
-4.69612
-6.3377
6.3377
-0.960468
0.960468
-3.57953
3.57953
3.17241
-3.17241
-1.83503
1.83503
0.102128
-0.102128
-0.554081
4.30503
3.19687
3.19687
-1.98911
1.98911
-4.8749
4.8749
6.22196
-6.22196
5.2395
-5.2395
-1.90955
-2.51228
1.79528
-11.4662
-5.96087
-5.96087
-8.441
8.441
-2.81457
2.81186
2.94732
-2.94732
-1.72102
1.72102
-4.3002
0.0182397
-4.3002
4.25137
0.0305878
4.25137
-0.492254
0.118811
-0.492254
3.95973
-3.95973
0.27326
0.100183
0.27326
3.06732
-3.06732
-1.87685
3.75335
1.8741
-1.8721
6.17713
-1.87886
3.75331
-6.0765
6.0765
-2.6793
0.248818
-2.6793
2.19557
0.234909
2.19557
-6.89431
6.89431
-1.77032
0.0529833
-1.77032
1.71663
0.000714376
1.71663
2.88855
-2.88855
-2.62397
0.0975927
-2.62397
2.38911
0.13726
2.38911
0.353436
5.27299
-5.97987
8.79172
-5.27299
0.0250453
5.21028
0.0376636
5.21028
-5.10545
0.0363548
-5.10545
5.01388
0.0552128
5.01388
4.78407
-0.0879538
4.78407
-4.81675
0.120633
-4.81675
-3.35906
-4.07887
-6.49897
0.161267
-6.49897
-1.0357
0.0752278
-1.0357
0.8522
0.108269
0.8522
-3.73175
3.73175
-3.9373
0.357764
-3.9373
3.12738
0.0450304
3.12738
1.86812
1.88284
5.61907
-5.61907
2.44666
-1.75281
-0.0822149
-1.75281
-1.92548
-3.31403
1.92548
-0.0904461
-0.120228
0.222356
-0.120228
3.15713
0.039745
3.15713
2.235
0.154111
-2.235
0.245895
3.30308
-3.30308
1.32554
0.663567
1.32554
-5.55865
5.55865
4.96221
0.0516728
-4.96221
0.0873034
6.15709
0.0648775
6.15709
-6.20739
-0.0145686
-6.20739
2.48489
-4.99717
-2.66996
6.14949
0.188212
-6.14949
0.188617
2.91894
0.0283812
2.91894
-2.91844
2.91844
-2.98428
0.0369653
-2.98428
-2.14321
0.422196
-2.14321
1.40737
0.313646
1.40737
-4.2169
-0.0833056
-4.2169
-4.09594
0.158641
4.09594
0.155436
1.12
-1.12
-0.606817
0.114563
-0.606817
-4.06529
-0.151604
4.06529
-0.105563
-3.89875
-0.0609845
-3.89875
-3.02195
0.0376682
3.02195
0.0453696
3.11212
0.0450038
-3.11212
0.0448015
-1.87099
3.75383
-1.87996
3.75406
-5.69689
-0.379609
-5.69689
6.35917
-0.282671
6.35917
3.10304
0.476496
-3.10304
0.423737
2.01214
0.183433
2.01214
-6.86632
-0.0279905
-6.86632
6.90126
-0.00695348
6.90126
1.87335
0.138792
-1.87335
0.103023
1.71152
0.00510904
1.71152
2.91642
-0.027864
2.91642
-2.88216
-0.00639672
-2.88216
2.79014
-2.79014
2.71327
0.0768677
-2.71327
0.0893058
-11.1242
11.1097
-0.0361798
-11.088
5.17411
5.17411
4.2375
0.54657
4.2375
-5.01418
0.197431
-5.01418
2.66816
-5.33812
3.11623
-6.47529
4.67152
-16.1378
4.28577
-8.36464
6.75067
-6.75067
6.632
0.118677
-6.632
0.133027
-1.1367
0.101003
-1.1367
-3.13016
-0.601588
-3.13016
4.36791
-0.636164
4.36791
-3.02747
3.02747
-3.07631
0.0488352
3.07631
0.0510738
1.71377
-0.00225245
-1.71377
-0.0390438
0.175656
0.097604
-0.175656
0.0554275
3.5264
-0.223313
3.5264
-3.09788
-0.205202
-3.09788
-1.23272
0.0960201
1.23272
0.0928194
-5.8071
0.248449
-5.8071
-11.1816
0.093519
-11.1439
-6.11387
-6.11387
2.32713
11.1189
-2.89738
0.0152258
2.89738
0.0215551
2.9747
0.0527683
-2.9747
0.0562576
-2.85726
0.0671232
2.85726
0.0611826
-2.5109
0.367691
-2.5109
-1.02409
1.02409
-1.17071
0.146619
1.17071
0.236657
1.42163
-0.30162
1.42163
0.738272
0.113928
-0.738272
0.131454
-3.84219
-0.0565574
-3.84219
6.59749
-0.238312
6.59749
-2.96852
-0.129366
2.96852
-0.0520992
-0.0348203
11.1445
-5.13928
0.0338361
5.13928
-11.2093
11.2432
-3.2159
0.704996
3.2159
1.0216
5.28423
0.274419
-5.28423
0.270046
6.84167
0.0595957
-6.84167
0.0909931
-2.63977
-0.490389
-2.63977
-5.09868
-0.598218
5.09868
-0.730763
-11.4816
-0.203141
11.6847
-11.4264
6.01024
0.146848
-6.01024
11.39
-0.995637
-0.124368
0.995637
0.0284577
1.76127
-0.339649
1.76127
3.7452
-0.218805
-3.7452
-0.0969854
-6.75703
-0.109293
6.75703
-0.15954
-2.18985
-0.449921
2.18985
-0.428577
-4.26739
4.30714
1.90974
-2.32397
-2.6732
-5.63799
1.85529
1.89854
4.30195
-10.1441
-5.99364
-9.9555
7.21474
-6.94469
-9.32028
9.23233
7.94506
-8.00604
-5.77732
5.82839
6.48476
-6.43939
1.87947
1.87388
8.0716
-7.82278
-15.6628
15.2832
7.62671
-7.57373
15.8209
-15.8489
-17.8605
17.9201
-5.7063
5.80389
-6.74306
6.73667
-6.98011
6.92801
-2.79538
-3.67991
13.114
-12.9528
8.61061
-8.69282
-8.68289
9.04065
3.38462
0.922521
3.42962
-1.88178
3.76125
-1.87153
3.78127
2.77053
-5.56591
2.56759
-5.24079
4.39118
4.21942
-4.30074
-1.33726
-5.92886
5.95724
-5.8092
5.87038
9.18873
-9.17049
-1.88498
3.75887
-1.86908
3.76762
-3.42291
-2.35441
3.37788
0.924066
8.06167
5.05236
-8.24988
-1.70562
-8.03154
7.81273
-8.21792
8.01272
-0.43611
5.83801
-5.4019
4.43879
-1.65397
7.49198
5.56076
5.7582
5.86064
-5.58622
1.08405
-6.48595
-6.39865
-2.23625
2.35082
2.11764
-2.01746
6.15492
1.79014
6.04935
-5.8131
-2.19294
-5.86966
3.81971
2.00868
3.86854
4.08219
2.40257
4.11986
3.02952
-3.0368
0.00727832
-3.05935
6.08887
0.722066
-5.41375
-4.48969
4.9919
3.0797
5.22681
-5.59767
-2.22511
-5.17393
-9.5599
-6.10287
-10.1581
10.0861
5.19705
9.80344
-11.9459
11.7863
4.8741
2.75261
4.87481
-4.98323
-2.5905
-4.8802
11.6826
-2.65171
-9.03085
-10.3269
-7.53357
10.3339
5.48705
10.9694
6.95066
11.0604
4.42594
7.25661
-9.913
2.37943
-3.86727
-1.83903
-3.77796
3.66059
2.1433
3.79785
-4.21893
-2.52413
-4.20371
-4.29523
-2.68488
4.3231
2.41357
-4.41759
-3.80033
4.54695
2.38106
4.05745
-10.0511
4.30719
-7.9871
-9.19895
-3.75381
-9.06592
3.5724
2.59563
-6.16804
-1.99351
8.57155
-4.35213
7.2343
-5.20062
-3.4922
-5.23966
-6.97213
-1.71076
-6.81349
-8.92071
8.43032
-9.21825
8.58209
12.5032
-5.63157
-6.87167
-3.96703
-2.47236
3.92223
-0.492607
-3.71004
3.71732
0.0512073
3.83248
4.755
4.26239
-3.88235
-1.92684
-3.8261
3.82108
2.04929
3.88821
6.85661
2.33212
6.8872
-6.62278
-2.54771
-6.70609
9.09257
-8.67038
2.7959
-2.69988
5.3787
2.63401
-5.15539
-2.87615
6.23355
-3.21054
-3.02301
-12.349
10.7887
1.56024
-4.85701
-0.41821
-0.520338
-5.5668
-3.75348
5.44616
0.312033
11.1008
7.3473
-5.51495
5.7634
6.1698
6.22147
-0.177178
5.88372
-5.17873
5.26955
-2.73462
-2.53493
5.48438
-5.63598
-1.22171
-5.56058
4.33887
0.413371
1.47075
-1.2484
-1.7526
-0.48365
-1.62115
1.14628
0.971363
1.24388
0.960686
1.39013
-2.92213
0.50852
2.41361
-1.96144
-1.50894
-3.82264
-1.15265
4.97529
5.7379
2.07483
-5.64091
-0.228746
2.5485
-2.44023
-0.8405
-2.98214
2.22739
-3.06789
-3.4646
-1.94982
5.41441
-3.36875
-0.457345
3.31598
0.552561
-3.82821
-2.10064
3.79125
0.328613
-3.12898
6.19028
-3.0613
-5.05582
2.52899
3.55988
4.53767
-4.78992
2.44925
2.34066
-1.23004
4.25841
0.968403
4.44184
-7.06808
4.84297
5.74204
3.29861
-6.21854
1.0446
-6.02347
8.55877
-7.4035
-1.15526
4.09102
4.46775
7.01034
5.4929
-5.67191
12.6822
-1.17161
-6.23189
7.19509
-3.89647
4.87154
-8.76801
-10.3644
4.13255
-9.2066
11.09
-1.88345
-3.6001
-8.34575
12.8067
-1.21938
-11.5873
8.58406
-4.35095
-4.42055
8.7715
-7.00266
7.01105
-1.98874
-5.0223
-10.1468
-5.70213
10.2561
1.53022
-9.96842
12.3478
-2.71181
4.16015
0.714659
4.16526
3.36485
-5.47756
2.11271
3.6378
-5.62655
2.04241
-7.51997
-6.75545
12.0958
-5.34036
-10.5093
-9.54404
-0.965228
2.54884
9.799
-9.49951
7.43086
2.06864
3.29689
0.591314
-3.37376
-0.404202
0.233839
4.51018
-4.74401
4.03169
4.1858
3.21919
1.29099
3.84953
2.10771
-3.87108
-0.332625
-4.1686
1.48372
-1.75503
-3.69375
5.17748
-4.06178
0.368028
-2.74321
-3.49211
6.23532
-4.58225
3.03596
3.15432
5.08525
-4.91354
1.42143
-2.39071
-2.52283
2.64035
-4.39539
2.00122
3.17625
4.38229
0.581954
5.91416
6.18165
-8.5098
0.522702
11.234
-9.52839
2.47934
8.58108
-9.9102
0.366162
-8.69976
0.975838
-5.32796
-5.1922
5.22786
-6.93862
-3.54015
6.25494
0.632257
-6.41038
-0.403111
-6.06075
-2.85996
-6.51067
-3.06065
-6.1576
-8.73256
-1.67114
-7.06142
6.75919
-6.68308
-3.47504
7.41385
1.16824
-7.47428
7.34992
-7.53212
7.19248
0.0950448
3.62227
4.35744
1.88507
-2.39224
4.27731
-5.07771
7.40982
-8.75784
3.68014
4.24941
-6.79712
-4.50843
5.05353
4.03904
5.36718
8.91228
-10.3607
1.44841
-10.6332
11.9739
-1.34067
-16.4077
5.77452
-7.49545
2.41202
0.383879
2.51302
0.545546
2.49685
-3.0424
-2.15433
-2.06151
-2.44417
-3.49378
5.93796
1.05453
-3.47587
2.42133
-3.56054
4.61507
-0.0792212
-3.39665
5.18249
-2.68563
5.56637
-3.63976
1.92661
3.54791
5.84082
-2.29291
4.41987
-1.78586
1.95006
-4.24297
-1.54372
-2.95348
5.09678
-3.28184
3.64987
-0.352767
4.00264
-4.04294
0.832403
-0.823756
3.36205
3.60794
4.33117
-3.04018
2.93481
-4.72066
-1.30816
-4.13871
-0.962456
-0.18085
-3.77789
3.95874
5.99564
-6.17649
-5.27751
9.51683
-4.23932
7.69648
-5.43511
-2.26137
-4.28613
-4.38425
3.91844
1.96528
9.66176
0.178768
-5.61387
-4.99996
-3.97836
3.08314
2.18641
-1.7178
3.27803
2.23813
-0.76738
0.39626
0.847625
1.75858
-1.36232
0.345345
1.41324
-0.903053
1.68427
0.864226
-1.7982
0.17705
-1.33353
3.56092
1.08008
-2.05145
0.689124
0.889408
-3.62403
5.10441
-2.73857
-2.36584
5.99382
1.14616
-3.88473
4.41442
-4.00105
2.45239
-3.60503
-1.43235
-5.4334
-3.64326
-2.48013
4.90146
-3.45783
5.53266
1.43687
-5.30392
6.74078
-3.62745
1.67763
-3.06225
3.92648
-0.98762
-2.07463
2.87369
2.54072
-3.14187
0.15973
-0.268179
2.41604
-2.68422
-0.651846
-2.61329
-4.57617
4.90478
-2.10371
4.55296
2.1736
-1.91773
6.47069
1.80757
-3.7253
-3.24825
-3.7056
-1.38464
3.15303
-0.571304
-4.3089
-5.59361
4.17011
0.271733
-7.07833
7.93761
-0.859281
-3.99863
-0.844334
4.93535
-6.09216
0.465615
-4.04975
3.88786
4.85626
5.12799
-11.3544
-0.232926
-6.15734
1.09252
-7.24987
5.56027
-3.52024
7.65279
-10.3302
6.85521
-9.16201
6.49752
-0.752343
6.24756
-4.13486
2.78328
-8.48541
-6.95519
5.59037
-2.83776
6.30503
-3.22192
9.52696
-5.93373
5.37932
4.14763
-1.06502
-4.17465
-5.36769
4.30267
0.0116371
4.1769
4.98719
-2.87947
4.65456
2.26496
-4.65567
-2.13043
-6.48837
1.8327
-3.33405
-1.92253
3.75523
3.16273
3.75404
1.2324
-3.34984
7.25363
-8.21886
-1.91327
-3.27893
5.35058
-1.04791
3.46959
-6.74851
-1.85838
4.74075
-0.724755
-4.016
0.890818
-4.43097
1.67474
-6.10571
5.26388
-5.66699
2.2546
-9.75005
-5.21969
-5.19123
-2.27832
-5.2538
-7.56902
5.29069
-1.7945
5.55542
-8.50407
7.77932
-3.46982
8.76051
-5.45759
-1.05308
5.88617
1.30631
10.0668
0.16783
-4.67626
-1.94245
3.72253
-1.78009
1.14069
-3.61006
0.112471
2.49519
3.49863
-6.83406
0.0369388
-4.63932
-3.90755
7.94659
5.60928
11.6049
1.24424
9.13119
-1.1846
10.3754
4.18257
4.41923
-3.0029
4.45131
0.955841
4.63598
-0.899426
2.82603
1.6136
1.68883
0.751402
2.29475
1.31319
3.12715
0.0847536
-1.97676
4.63056
-8.60892
-0.983316
-8.06235
1.16998
5.43054
-4.26056
2.85749
-0.671078
1.0774
-0.200219
-1.14617
1.34639
-2.73515
-1.91355
-0.500318
-1.66569
2.35482
1.89522
-1.8545
-0.880647
0.328673
-3.97193
3.27636
-3.11663
-0.575913
6.16487
-2.88809
0.203863
-1.21045
-2.40942
-2.89307
2.71602
6.17432
0.296371
3.11302
5.20115
3.10051
0.221037
3.79321
-5.67666
-3.72676
-5.90959
-0.349314
4.58604
1.76919
8.02982
5.91682
4.86891
-1.87961
-10.0985
6.50237
-2.05106
5.1617
-1.1457
-4.96001
5.07703
2.33279
-5.70929
0.0423007
-4.91771
-6.96877
-0.47866
8.25798
-9.58816
8.53508
5.67512
1.38631
-4.43285
-0.758378
4.28624
0.132995
10.5084
-0.913804
-7.04008
7.95388
-4.51674
3.53342
0.673061
2.60497
2.01945
1.34838
-5.6917
-9.95227
-2.0723
-1.55173
-4.43814
0.537154
-2.43238
6.06639
-2.53297
3.80502
5.42091
6.49831
-2.04744
-4.12906
6.28675
-2.48173
4.01659
)
;

boundaryField
{
    wall-4
    {
        type            calculated;
        value           uniform 0;
    }
    velocity-inlet-5
    {
        type            calculated;
        value           uniform -3.75095;
    }
    velocity-inlet-6
    {
        type            calculated;
        value           uniform -5.62643;
    }
    pressure-outlet-7
    {
        type            calculated;
        value           nonuniform List<scalar> 8(3.32995 7.75616 4.42183 9.67096 7.43792 5.15484 5.78439 8.95729);
    }
    wall-8
    {
        type            calculated;
        value           uniform 0;
    }
    frontAndBackPlanes
    {
        type            empty;
        value           nonuniform 0();
    }
}


// ************************************************************************* //
