/*--------------------------------*- C++ -*----------------------------------*\
  =========                 |
  \\      /  F ield         | OpenFOAM: The Open Source CFD Toolbox
   \\    /   O peration     | Website:  https://openfoam.org
    \\  /    A nd           | Version:  6
     \\/     M anipulation  |
\*---------------------------------------------------------------------------*/
FoamFile
{
    version     2.0;
    format      ascii;
    class       volVectorField;
    location    "81";
    object      U;
}
// * * * * * * * * * * * * * * * * * * * * * * * * * * * * * * * * * * * * * //

dimensions      [0 1 -1 0 0 0 0];

internalField   nonuniform List<vector> 
918
(
(0.985049 -0.000715512 0)
(0.00534985 2.96624 0)
(-0.0034144 0.879332 0)
(0.979575 0.00196179 0)
(-0.0139326 2.06381 3.31788e-20)
(-0.00710794 2.94856 -2.53596e-18)
(0.820657 1.12255 4.54652e-19)
(0.110816 0.0785675 -1.38188e-20)
(0.999922 -0.00024499 0)
(0.0914259 0.667624 0)
(0.0152927 0.364127 0)
(0.732985 0.00623656 0)
(0.010226 2.93156 0)
(0.00337562 2.79438 0)
(-0.00254697 3.17742 8.36681e-19)
(-0.0137445 1.92849 2.36205e-20)
(0.295649 0.0443718 9.66775e-19)
(0.233741 1.10972 3.60058e-19)
(0.96433 0.00674366 0)
(-0.00252078 0.370952 0)
(0.0508284 -0.0484091 -6.34109e-19)
(1.00183 -0.00455958 0)
(0.999851 -0.00892601 0)
(0.975169 -0.00605172 0)
(0.592126 0.0268816 0)
(0.0208964 2.64465 0)
(-0.0123324 2.91187 9.25916e-19)
(-0.00711029 0.931031 0)
(-0.0336362 1.17135 0)
(-0.00485683 0.9005 0)
(-0.0233596 2.58654 0)
(-0.00482481 2.11422 -2.65008e-20)
(-0.00997023 1.90035 0)
(-0.0221223 2.98762 -9.12992e-23)
(-0.0164752 3.0055 1.97005e-18)
(0.00231407 3.00056 0)
(0.871981 -0.00976039 0)
(0.374206 0.912443 1.58059e-19)
(0.819444 1.1413 -5.74123e-19)
(0.951641 1.00807 5.8216e-19)
(0.681978 1.22418 -1.04082e-19)
(0.695499 1.18404 5.92669e-19)
(0.138562 0.12961 1.34792e-20)
(0.147737 0.0852937 0)
(1.16839 0.533131 0)
(0.106882 0.106227 6.07059e-20)
(0.0847845 0.0609408 -6.30019e-20)
(0.920566 -0.00704709 0)
(1.00027 5.46148e-05 0)
(0.999907 0.000320935 0)
(1.0037 -0.00727966 0)
(1.00088 -0.000948558 0)
(1.00011 -5.35945e-06 0)
(0.0909596 1.84577 -7.32688e-19)
(0.0338412 0.85074 0)
(0.127333 0.758449 0)
(0.0190065 0.79307 0)
(0.0523703 0.582202 0)
(0.00511054 2.03327 0)
(-0.010621 0.694954 0)
(0.00907159 0.394454 0)
(-0.0171356 0.692516 0)
(0.00776941 0.359008 0)
(0.843746 -0.0156321 0)
(0.8417 0.0260027 0)
(0.757116 0.00332257 0)
(0.79891 0.0298658 0)
(0.702715 0.014463 0)
(0.0139372 3.00022 9.408e-19)
(0.0111511 3.00613 0)
(0.0061938 3.00383 0)
(0.01188 2.99718 1.06795e-23)
(0.00825215 2.95871 -1.39826e-18)
(0.012197 2.98281 0)
(0.00902389 2.90488 0)
(0.0210731 2.93139 2.15731e-24)
(0.00410828 2.82437 0)
(0.0261208 2.91885 0)
(-0.000657878 2.74531 0)
(0.30492 3.57146 0)
(-0.122185 3.65409 0)
(0.148641 3.2681 -7.78675e-19)
(0.00279837 3.00638 0)
(-0.0316639 1.9904 0)
(-0.00743788 2.17874 -2.32963e-20)
(-0.00965375 1.94079 2.38146e-20)
(0.347216 0.138758 -3.35846e-19)
(0.322396 0.0135126 -3.26649e-19)
(0.300687 0.153265 -1.00355e-18)
(0.259623 0.0623811 -6.51943e-19)
(0.264602 1.02508 0)
(0.333074 1.24078 -3.72062e-19)
(0.415057 1.15194 6.13901e-19)
(0.987706 0.00816596 0)
(0.943222 0.00576843 0)
(1.00028 0.000672222 0)
(1.00254 0.00906652 0)
(1.00311 0.0089962 -2.58059e-18)
(0.992135 0.00941525 1.95001e-18)
(-0.0262853 0.718903 0)
(-0.00191756 0.371292 0)
(-0.0548147 1.01642 0)
(-0.0336918 0.77986 0)
(-0.0129464 0.376766 0)
(-0.0765705 0.0846079 1.97169e-19)
(0.0346976 0.046162 0)
(0.993626 -0.00769212 0)
(0.954054 -0.00648496 0)
(0.74324 0.0267328 0)
(0.673298 0.0237062 0)
(0.660297 0.027471 0)
(0.980608 -0.0024989 0)
(0.584114 0.0663513 0)
(0.452217 -0.0148789 1.47126e-18)
(-0.0407932 2.8601 7.1854e-19)
(0.0336195 2.91447 0)
(0.0426935 2.89264 0)
(0.00294393 2.70242 0)
(-0.00867981 2.98633 8.84668e-19)
(-0.0140579 2.89455 0)
(-0.0110918 2.99158 -2.72668e-18)
(-0.0116173 2.92941 9.29026e-19)
(-0.048874 1.34907 0)
(-0.0178451 1.37796 0)
(-0.00787388 2.14009 8.3865e-22)
(-0.00776402 2.09882 0)
(-0.0171821 1.91178 0)
(0.938924 -0.00518626 0)
(0.857349 -0.0111556 0)
(0.862967 0.00523508 0)
(0.9497 -0.00613109 0)
(0.883709 -0.00809985 0)
(0.497467 1.1122 -2.01058e-19)
(0.544817 1.18203 0)
(0.3363 0.847133 3.0995e-20)
(0.281033 0.711817 0)
(0.920863 1.03727 -1.64924e-19)
(1.04404 0.847976 3.33041e-19)
(0.393429 1.3194 0)
(0.544333 1.27499 0)
(0.598418 1.20149 0)
(0.104396 0.181686 -2.93535e-19)
(0.167914 0.142712 0)
(0.171955 0.101041 1.81332e-19)
(1.00708 0.9019 0)
(1.08303 0.749983 0)
(1.1127 0.68536 -2.69495e-19)
(1.14925 0.595987 0)
(1.20531 0.391905 4.7449e-20)
(0.957527 -0.00709212 0)
(0.962745 -0.00810618 0)
(0.900938 -0.00737764 0)
(0.983933 -0.00812134 0)
(0.974437 -0.00802884 0)
(0.936554 -0.00656898 0)
(1.0002 0.00250623 0)
(1.00078 0.00123863 0)
(1 0.000760369 0)
(0.0436223 2.08793 4.092e-19)
(0.143566 1.79043 0)
(0.0191422 2.20315 6.14723e-19)
(0.0517778 1.89378 -5.11933e-19)
(0.167541 1.08515 -2.95573e-19)
(0.0502733 0.936724 0)
(0.122363 0.939956 0)
(0.00617835 0.757258 0)
(0.030238 0.506705 0)
(-0.00256679 2.25981 -3.17223e-22)
(0.0209751 2.03892 0)
(-0.00461753 2.26001 -4.74505e-21)
(0.0029112 2.04474 -3.24413e-21)
(-0.000370434 0.72688 0)
(-0.00488354 0.706078 0)
(0.0132331 0.444747 0)
(-0.0142679 0.693849 0)
(0.0104407 0.357297 0)
(0.939593 0.0139068 0)
(0.856612 -0.0115408 0)
(0.928739 0.0048992 0)
(0.846346 -0.0127784 0)
(0.81054 -0.00145347 0)
(0.898068 0.0226527 0)
(0.874707 0.0246767 0)
(0.783943 -0.00169502 0)
(0.0102824 3.06734 -8.73142e-21)
(0.0151998 3.05898 0)
(0.0123033 2.97031 0)
(0.00755103 2.87663 0)
(0.894178 3.96433 0)
(1.18777 3.36096 9.37219e-19)
(0.0804697 3.0891 0)
(-0.0179095 2.9174 0)
(-0.0181052 1.40505 0)
(-0.0374136 1.70039 0)
(-0.0260906 1.53663 0)
(-0.0340109 2.54762 -1.50888e-20)
(-0.0195352 2.2453 0)
(-0.023613 2.3886 0)
(-0.000819536 1.97105 -4.26191e-23)
(-0.00531278 2.2537 -3.02316e-20)
(-0.00642354 2.21671 -2.44304e-20)
(-0.00590865 1.95465 0)
(0.389472 0.116981 5.15141e-19)
(0.360164 0.00699452 -5.0531e-19)
(0.233794 1.59204 0)
(0.288577 0.769208 -3.1809e-19)
(0.176331 1.6916 -1.04694e-18)
(0.244201 1.22826 1.04738e-18)
(0.901628 0.00582734 0)
(0.967001 0.0107419 0)
(0.974866 0.00988594 0)
(0.92296 0.00582041 0)
(-0.0200549 0.697943 0)
(-0.0265913 0.709075 0)
(0.00307149 0.357374 0)
(0.0774119 0.0904095 5.56536e-19)
(0.061551 0.0669161 -6.5372e-19)
(0.0439505 0.0452703 0)
(1.10829 0.0909655 2.28052e-20)
(1.09188 0.0428948 0)
(1.01939 0.0439112 0)
(0.914357 -0.00131227 0)
(0.437503 0.0974567 0)
(0.496092 0.0777109 -2.35358e-18)
(0.399781 0.00193433 8.82057e-19)
(0.0105053 2.97699 7.65223e-19)
(-0.0332089 2.86118 4.56912e-20)
(0.00807867 3.05348 -1.84436e-20)
(0.0158843 3.04303 6.90141e-19)
(-0.0118502 3.00006 3.05694e-20)
(-0.012274 2.9523 -1.23272e-22)
(-0.0150636 3.01325 -5.71523e-19)
(0.0146946 3.02622 4.04566e-19)
(0.00766134 3.03524 -6.57502e-19)
(0.934797 0.00215689 0)
(0.93957 -0.0010999 0)
(0.848246 -0.0111843 0)
(0.956253 0.0118742 0)
(0.94231 0.0133066 0)
(0.881507 0.00544068 0)
(0.915301 0.018534 0)
(0.925052 0.0152243 0)
(0.837152 0.00187357 0)
(0.670058 1.41032 2.48186e-20)
(0.688073 1.52073 0)
(0.117917 0.289259 6.59641e-20)
(0.214247 0.654367 5.20931e-19)
(0.240087 0.691816 -3.05991e-19)
(0.21354 0.492134 6.07242e-19)
(0.341288 0.834116 1.55514e-18)
(0.136136 0.237812 3.74431e-19)
(0.256183 0.166838 6.91555e-19)
(0.209921 0.162497 1.78778e-19)
(0.218753 0.0880599 3.39975e-19)
(1.1963 0.448138 1.05789e-19)
(1.22079 0.246777 1.0377e-19)
(0.00922175 2.24561 2.37777e-19)
(0.0390228 1.9583 0)
(0.973299 0.0331929 0)
(0.946999 0.0193295 0)
(0.871578 -0.015058 0)
(0.0123772 3.07463 0)
(0.0168186 2.94401 1.21772e-18)
(0.0139349 2.9569 0)
(0.00583242 2.85003 -1.20847e-18)
(0.00925663 3.09005 2.97183e-19)
(0.0117962 3.08322 0)
(0.707475 1.81637 -1.7248e-19)
(1.23208 2.62064 5.82881e-19)
(0.692216 1.99431 -1.39855e-18)
(0.0220608 2.97606 -6.62739e-19)
(0.0400728 2.99775 0)
(-0.0384242 2.87846 0)
(-0.00626859 2.23892 -1.31643e-20)
(-0.00497964 2.25936 5.9102e-20)
(-0.000349451 2.00676 -7.27712e-21)
(0.268778 1.40431 1.01006e-18)
(0.288193 0.573753 -6.93703e-19)
(0.0714439 2.00551 7.38246e-19)
(0.122972 1.87386 -8.92836e-19)
(0.209064 1.542 1.03468e-19)
(0.005783 3.12039 -1.64866e-18)
(0.0130699 3.12074 1.81495e-18)
(-0.00526 2.98061 8.25873e-19)
(-0.00157721 2.97512 -7.89847e-19)
(-0.0175794 2.87715 -8.41186e-19)
(0.0120205 3.10071 -2.2064e-18)
(0.00566851 3.10524 2.23825e-18)
(0.268648 0.699917 0)
(0.219669 0.660045 -1.11326e-18)
(0.0747226 0.212041 4.90032e-19)
(0.34731 0.954445 1.10693e-18)
(0.200675 0.282556 -1.70464e-18)
(1.19936 0.176668 4.29305e-20)
(1.21751 0.306194 0)
(1.19481 0.121649 1.47242e-20)
(-0.000740163 2.26687 -1.13868e-21)
(0.00379798 2.2504 0)
(0.0321611 1.99502 0)
(0.313591 1.3192 -3.63123e-19)
(0.354392 1.18065 -7.88328e-19)
(0.234124 0.394044 1.41035e-18)
(1.00644 -0.00967968 0)
(1.00774 -0.00778203 4.74234e-19)
(-0.0430957 1.33146 0)
(-0.0525627 1.33595 0)
(1.00244 0.00326996 1.33751e-21)
(1.0032 0.00780693 9.73716e-19)
(-0.0251175 2.53442 1.91207e-20)
(-0.0280565 2.57685 0)
(0.0399938 3.17226 4.66183e-19)
(0.372905 3.53836 0)
(1.16007 0.69489 -4.50095e-20)
(1.01178 0.0106334 -2.84729e-21)
(1.02088 -0.00899049 0)
(1.00157 0.000288046 1.57999e-22)
(0.116999 1.37584 0)
(0.140892 2.5849 0)
(0.0335111 1.32658 0)
(9.87444e-05 2.63377 -9.02633e-21)
(-0.0218247 2.58078 -1.35141e-20)
(0.998251 0.0312467 2.91032e-21)
(1.06307 0.00590978 0)
(1.1002 0.0285692 0)
(-0.0356841 1.74749 0)
(-0.0203152 2.57918 0)
(-0.0171865 1.32379 0)
(0.308767 1.49135 -1.79315e-19)
(1.01152 -0.00905197 0)
(1.00971 -0.0129842 0)
(1.00227 0.000934911 6.07291e-19)
(1.00548 -0.00490999 -7.15974e-19)
(1.00113 -0.000861805 0)
(-0.0248103 1.47129 0)
(-0.0137671 1.39347 0)
(-0.0195122 1.43311 0)
(-0.0199348 1.30978 0)
(-0.0333446 1.29971 0)
(-0.0277184 1.27864 0)
(1.0357 -0.00428204 0)
(1.01891 0.0153931 -8.96954e-22)
(0.813219 1.31294 2.90172e-19)
(1.00245 0.000389551 -6.07003e-19)
(1.00339 0.00444395 7.24607e-19)
(1.00126 0.00209161 0)
(1.01106 0.00963273 6.04493e-19)
(1.00683 0.00745133 -7.35952e-19)
(1.00712 0.011105 0)
(-0.0250729 2.60613 0)
(-0.0281955 2.58505 -3.32767e-20)
(-0.025091 2.59925 2.35139e-20)
(1.24281 0.274152 4.96321e-19)
(1.16376 0.0893558 0)
(0.0435661 3.09116 -9.37798e-19)
(0.0519712 2.87376 -6.64899e-20)
(0.102818 3.20163 1.25352e-18)
(0.121026 3.21366 -2.63503e-19)
(0.140321 3.25611 0)
(0.022772 3.13778 2.57309e-19)
(0.0610105 3.16186 9.34069e-19)
(0.0612301 3.17874 -4.81434e-19)
(0.0271845 3.12939 0)
(0.549164 0.289716 0)
(0.494277 0.306777 0)
(1.14249 0.726521 9.60184e-20)
(1.1068 0.86209 -7.34326e-20)
(1.19987 0.612129 0)
(1.22644 0.546116 0)
(1.01569 0.0120298 -1.12274e-18)
(1.01465 0.0127649 1.41157e-18)
(1.02577 -0.00871629 0)
(1.0241 -0.0102871 0)
(1.0068 0.0032575 0)
(1.01088 0.00421904 0)
(1.0042 0.00221762 0)
(1.00934 0.00634378 0)
(1.00683 0.00503927 0)
(1.00437 0.00525679 0)
(0.107991 1.37637 0)
(0.0956207 1.33402 0)
(0.140642 1.42152 0)
(0.14699 1.40508 0)
(0.1518 2.60841 0)
(0.191308 2.67455 -4.06117e-19)
(0.105117 2.6675 0)
(0.0796361 2.66736 1.64448e-19)
(0.0261699 2.67328 -1.60695e-19)
(0.0183648 1.33571 0)
(0.0304128 1.25328 0)
(0.0234997 1.34769 0)
(0.0489169 1.27368 0)
(-0.00241549 1.99616 4.15634e-20)
(-0.0215988 2.60898 -4.37419e-20)
(-0.00587519 2.67596 -3.77347e-20)
(-0.0187968 2.68766 0)
(-0.0240472 2.61507 4.07105e-20)
(-0.0226659 2.61057 4.478e-20)
(0.00450127 1.99295 -3.15965e-20)
(-0.0101394 2.4008 5.86815e-20)
(-0.0146133 2.4257 4.27766e-20)
(1.01155 0.0402731 1.13857e-18)
(1.00435 0.0213343 -1.41704e-18)
(1.00382 0.0472943 -1.16424e-18)
(0.974666 0.037946 1.46712e-18)
(1.06473 0.00926383 0)
(1.04994 -0.00643501 0)
(1.09275 0.0378996 0)
(1.07588 0.0151053 0)
(1.07468 0.000596946 0)
(1.14146 0.0798321 0)
(1.11583 0.0464584 0)
(1.1192 0.0374994 0)
(-0.0310258 2.4307 3.84155e-21)
(-0.0223475 2.02401 0)
(-0.0222492 2.22002 0)
(-0.0223205 2.60008 -2.13612e-20)
(-0.0188569 2.61124 6.87763e-22)
(-0.00415483 1.59292 -5.84236e-20)
(-0.0136706 1.51513 5.96917e-20)
(-0.0246711 1.40713 0)
(-0.0288062 1.41262 0)
(-0.0355203 1.40309 0)
(-0.0122784 1.32576 0)
(0.000492132 1.24521 0)
(0.386068 1.516 3.01857e-19)
(0.434972 1.52002 1.5833e-19)
(0.591517 2.46498 -2.43249e-19)
(0.385461 2.56016 6.89299e-19)
(0.349412 2.04892 6.66787e-20)
(1.02072 -0.00799232 0)
(1.0158 -0.00935026 0)
(1.01485 -0.0132083 0)
(1.00774 -0.000550659 0)
(1.00485 -0.000685338 0)
(1.008 -0.00446834 0)
(1.00954 -0.00343232 0)
(1.01465 -0.00427197 0)
(1.01964 0.0163701 1.10161e-18)
(1.01718 0.0149257 -1.39601e-18)
(1.01997 0.0188246 -1.11027e-18)
(1.01734 0.0168485 1.392e-18)
(0.769599 1.35967 0)
(0.708255 1.39563 2.57011e-19)
(0.877481 1.24099 1.11264e-19)
(0.914193 1.20053 -1.4767e-19)
(1.16336 2.6095 2.47947e-19)
(0.748377 0.132541 5.72753e-19)
(1.17207 0.108221 0)
(1.21481 0.20272 -4.03069e-19)
(1.19617 0.15432 -1.67661e-20)
(1.0121 0.167253 0)
(0.0752358 3.01823 3.2799e-19)
(0.0814087 2.903 -1.10038e-18)
(0.0229567 2.36093 6.97027e-19)
(0.157127 -0.267777 -3.07403e-19)
(0.340984 3.44256 -2.59396e-19)
(0.191898 3.33825 0)
(0.222754 3.39403 3.37893e-19)
(0.220302 3.07576 -1.1596e-18)
(0.253153 3.19434 0)
(0.00675679 3.12238 4.87837e-20)
(0.0169272 3.13115 -5.62928e-19)
(0.0161323 3.12699 8.28532e-19)
(0.0332508 3.14009 0)
(0.031224 3.14964 0)
(1.25565 2.57271 0)
(0.539971 0.78825 -5.12755e-19)
(1.02716 1.03602 -2.15215e-20)
(0.993518 1.08906 0)
(0.862495 0.97102 -1.00352e-19)
(1.08614 0.911503 2.66335e-20)
(0.307376 0.303805 -7.66046e-19)
(0.638745 0.323303 -2.28284e-20)
(0.519549 0.214408 3.84685e-19)
(0.526808 0.323336 2.74508e-20)
(0.398529 0.270723 -1.09676e-18)
(0.593845 0.322663 0)
(0.685115 0.43511 6.56502e-19)
(0.692144 0.44531 0)
(0.559611 0.327451 0)
(0.461 0.249757 0)
(0.800949 0.659325 3.80347e-19)
(1.25436 0.308231 -4.03218e-19)
(1.24754 0.440492 0)
(1.24789 0.395752 0)
(0.679089 0.190584 5.85909e-19)
(0.847843 0.561616 -3.60646e-19)
(0.76925 0.525626 6.43851e-19)
(0.966259 0.45674 -6.44149e-19)
(1.01845 0.0147373 7.48341e-19)
(1.01707 0.013662 -7.54849e-19)
(1.01589 0.014234 0)
(1.03709 -0.00450654 0)
(1.03048 -0.007684 -7.06805e-19)
(1.02869 -0.0105737 6.99456e-19)
(1.02475 0.0110228 0)
(1.0227 0.0151325 0)
(1.01271 0.00474502 0)
(1.01457 0.00910206 0)
(1.01642 0.00426082 0)
(1.01557 0.00294245 0)
(0.0784122 1.36249 0)
(0.080491 1.30477 0)
(0.156035 1.42326 6.31056e-20)
(0.276692 1.48764 8.7765e-20)
(0.175163 1.45951 1.97154e-19)
(0.212835 1.45733 -3.18955e-19)
(0.164503 1.4349 0)
(0.144642 1.58561 -8.44082e-20)
(0.142123 1.5836 0)
(0.344129 2.00217 -9.70792e-20)
(0.324961 2.33218 5.56125e-19)
(0.198763 1.466 7.356e-20)
(0.275423 1.40211 2.86308e-20)
(0.207128 1.40124 -2.3348e-20)
(0.28963 1.34074 -7.60189e-20)
(0.260695 1.57732 0)
(0.268281 1.62476 8.74988e-20)
(0.023664 2.2515 -1.27632e-20)
(0.0372988 2.66626 0)
(0.0632648 2.40381 9.44938e-20)
(0.057125 2.42827 0)
(0.0665083 2.68479 -1.82576e-19)
(0.0421035 2.70081 0)
(0.0258979 1.46234 6.50778e-20)
(0.0318415 1.51771 0)
(0.0342188 1.42261 0)
(0.0248611 1.43256 -7.46276e-20)
(0.00347871 2.66064 5.07571e-21)
(0.0258817 2.68846 1.84621e-19)
(0.0107866 2.73186 9.07802e-22)
(0.00286188 1.84906 -2.71613e-20)
(-0.00446764 1.70162 -1.88823e-20)
(0.0176397 1.31541 0)
(0.0237171 1.22764 0)
(0.0393993 1.594 -1.24154e-20)
(0.0421862 1.47399 -5.88806e-20)
(0.026532 1.55455 6.24975e-20)
(0.0531631 1.61802 0)
(-0.0319389 2.27093 1.30098e-19)
(-0.0353122 2.54815 -5.52081e-20)
(-0.0211228 2.44891 9.94164e-21)
(-0.0054805 1.86474 3.29166e-20)
(-0.0286181 2.50376 1.38989e-20)
(-0.0231879 2.44592 -3.58565e-20)
(1.01812 0.022402 -7.55188e-19)
(1.01526 0.0285992 7.58018e-19)
(1.0116 0.0180266 0)
(1.01055 0.0709207 1.04477e-18)
(0.990381 0.0613848 -1.19092e-18)
(0.949464 0.0563656 1.33303e-18)
(1.0133 0.115898 -1.41139e-19)
(1.04403 -0.00464537 0)
(1.05224 -0.000384996 6.76465e-19)
(1.04033 -0.00815189 -6.76086e-19)
(1.07233 0.0438897 -4.00593e-20)
(1.06501 0.0290539 3.46233e-19)
(1.06414 0.0657689 0)
(1.05441 0.0550445 -1.248e-19)
(1.03235 0.0440649 0)
(1.0261 0.0391911 0)
(1.02762 0.0136868 0)
(1.02401 0.0163418 0)
(1.04056 0.0339176 2.56535e-19)
(1.03915 0.0284329 -5.68144e-19)
(1.05315 0.0387949 -2.71193e-19)
(1.0482 0.0387204 -2.99427e-19)
(1.07791 0.0706177 5.71705e-19)
(1.10187 0.0566543 0)
(1.10862 0.0956346 0)
(-0.0298307 2.2771 7.47492e-20)
(-0.032247 2.02941 4.0387e-21)
(-0.0273991 2.03956 0)
(-0.0311671 2.44412 -7.44191e-20)
(-0.0288658 2.40265 -7.7212e-21)
(-0.0353949 2.4707 9.73249e-21)
(-0.0218954 2.62248 -3.81777e-20)
(-0.0274839 2.56466 2.13462e-21)
(-0.025837 2.5186 -1.28543e-20)
(-0.0178064 2.61519 2.43568e-20)
(-0.0217087 2.61764 -2.82746e-20)
(-0.012966 1.51821 -9.7396e-22)
(-0.00764112 1.64022 -6.02827e-20)
(0.37736 1.45197 -1.30546e-19)
(0.372438 1.38262 6.02214e-21)
(0.649467 1.44337 -2.48658e-19)
(0.524875 1.51295 -1.53804e-19)
(0.578945 1.47186 0)
(0.607768 2.42105 2.13463e-19)
(0.666737 2.43114 3.33448e-19)
(0.42157 2.51626 9.40996e-20)
(0.40382 2.5372 -5.86062e-19)
(0.500373 2.47647 5.46949e-19)
(0.55353 2.47512 0)
(0.485996 2.52607 -5.38465e-19)
(0.259311 2.58821 1.10989e-18)
(0.361228 2.56755 -5.88202e-20)
(0.278373 2.65181 -1.55191e-18)
(0.970963 2.38827 6.99557e-19)
(0.848537 2.38922 0)
(1.01143 0.00139779 2.46164e-20)
(1.01538 -0.00516044 -2.01096e-20)
(1.01778 -0.00389444 -3.67552e-19)
(1.01563 -0.0010231 3.66285e-19)
(1.01313 0.00185216 0)
(0.637964 1.30489 0)
(0.682308 1.1903 0)
(0.797238 1.12111 0)
(0.66996 1.14722 0)
(1.19438 2.62487 5.16482e-20)
(1.08714 2.37677 0)
(0.816773 2.16472 3.39396e-21)
(0.821055 2.42859 0)
(0.915905 2.51914 -4.19831e-19)
(0.947286 2.46853 2.80285e-19)
(0.781425 0.169218 0)
(0.727296 0.140399 1.55172e-19)
(0.90568 0.161864 9.05523e-19)
(0.817116 0.145237 -3.38167e-19)
(0.754884 0.0915664 -1.04748e-18)
(1.08792 0.247125 -8.19052e-19)
(0.985168 0.319737 -1.01939e-20)
(0.925871 0.352202 7.97467e-19)
(1.01283 0.260482 6.77763e-19)
(0.931992 0.208185 -1.19308e-18)
(0.888748 0.220786 1.49992e-19)
(0.927221 0.314737 -3.11414e-19)
(0.904075 0.225195 0)
(0.999932 0.209347 5.84092e-19)
(1.05493 0.218442 0)
(1.05269 0.22972 0)
(1.12576 0.125333 2.60657e-19)
(1.06535 0.195789 -1.06799e-20)
(1.07962 0.249255 -1.49431e-19)
(1.11333 0.212767 0)
(1.02279 0.0490167 5.80614e-19)
(1.03677 0.0628528 7.23278e-19)
(1.03246 0.0463479 -5.76338e-19)
(1.04162 0.069374 -4.85101e-19)
(1.01458 0.075621 -7.39232e-19)
(0.985029 0.17026 0)
(0.988008 0.108245 0)
(0.962387 0.0748832 -4.74766e-19)
(0.896249 0.0995445 1.90384e-19)
(1.03902 0.116739 6.70678e-19)
(1.07602 0.137281 -7.63838e-19)
(1.07047 0.182217 6.8711e-19)
(1.03516 0.157996 0)
(1.08614 0.123154 0)
(1.0569 0.113123 -3.13777e-19)
(1.04248 0.10922 -5.44987e-19)
(0.588027 1.08146 1.11969e-19)
(0.609872 1.3978 -1.39001e-20)
(1.14418 2.71588 -2.37166e-19)
(1.19648 3.10045 8.70093e-22)
(1.25208 2.72539 -1.02206e-19)
(1.29128 2.69581 1.04473e-20)
(1.26639 2.31904 -3.83003e-20)
(1.18405 3.00573 -6.57979e-20)
(1.20379 2.96268 2.10924e-19)
(1.17804 3.25355 -1.25145e-19)
(1.39528 2.96728 1.5665e-19)
(1.4066 2.90253 0)
(0.576731 0.813748 -4.68623e-20)
(0.201652 1.21016 4.61731e-19)
(0.527823 0.327488 4.96718e-19)
(0.413227 0.0937855 5.6341e-19)
(0.458964 0.296985 6.21181e-19)
(0.546467 0.414502 -1.01178e-18)
(0.556727 0.396466 8.32404e-19)
(0.461248 0.292491 -3.08317e-19)
(0.306098 0.235023 7.03076e-19)
(0.714345 0.258446 -3.3805e-19)
(0.664299 0.286072 0)
(0.594287 0.194223 7.34331e-21)
(0.735763 0.514324 3.48232e-19)
(0.706842 0.488229 -1.26345e-18)
(0.631908 0.438668 1.30605e-20)
(0.618044 0.418613 0)
(0.723766 0.719673 3.61477e-19)
(0.839534 0.802221 3.96674e-19)
(0.778022 0.852313 -4.62471e-19)
(0.907689 0.823172 -1.46029e-19)
(0.942371 0.866125 -3.32112e-20)
(0.949863 0.873587 3.40615e-20)
(0.88464 0.68146 -6.4801e-19)
(0.957702 0.72805 1.3576e-19)
(1.01262 0.731028 0)
(1.01153 0.706516 -1.7263e-19)
(1.03076 0.343764 2.03883e-19)
(1.15898 0.342895 2.43939e-19)
(1.07459 0.284784 3.34792e-19)
(1.00072 0.390626 -4.09024e-19)
(1.05835 0.490972 0)
(1.13959 0.431423 0)
(0.900062 0.429759 -1.8107e-21)
(0.847817 0.321047 0)
(0.892545 0.31238 3.80496e-19)
(0.910887 0.351313 1.67238e-21)
(0.988518 0.501013 1.79817e-18)
(0.920875 0.560019 4.64067e-19)
(0.943767 0.519131 -4.91173e-19)
(0.861071 0.496123 5.23945e-19)
(0.825319 0.471201 3.35326e-19)
(0.802147 0.450114 -3.28594e-19)
(1.02821 -0.0003602 6.07145e-19)
(1.02047 0.000607115 0)
(1.01911 0.00142196 3.96297e-19)
(1.02268 -0.000696235 -8.97017e-19)
(1.02257 0.00461573 4.37013e-19)
(1.02002 0.0116677 -9.14761e-19)
(1.02076 0.011487 0)
(1.01968 0.0122506 -1.90528e-19)
(1.01659 0.00782826 4.7745e-19)
(1.01668 0.0109483 -2.39895e-19)
(1.01729 0.0106547 1.75629e-19)
(0.0366368 1.33625 0)
(0.044362 1.39879 0)
(0.0562299 1.34094 0)
(0.0628279 1.27761 0)
(0.0868209 1.40673 -7.68751e-20)
(0.0927471 1.3778 1.72028e-20)
(0.0847608 1.57368 4.2797e-21)
(0.100499 1.41121 -4.48207e-20)
(0.0456331 1.48696 5.31183e-20)
(0.0508906 1.4818 -4.17921e-20)
(0.0770478 1.4008 -2.32566e-20)
(0.0658335 1.4025 7.70109e-20)
(0.0616018 1.38282 1.25572e-20)
(0.0472766 1.40169 8.71056e-21)
(0.101327 2.36953 -1.04211e-19)
(0.0925805 2.41591 0)
(0.149422 2.01499 1.01767e-19)
(0.133919 1.70377 3.5218e-20)
(0.218622 2.0145 -8.17329e-20)
(0.201561 2.43047 0)
(0.21228 2.3999 -6.42837e-19)
(0.326719 2.36109 4.27743e-19)
(0.247271 1.97979 -2.2658e-19)
(0.138644 2.14327 1.54467e-19)
(0.113272 2.24594 0)
(0.0152486 1.85384 -2.81909e-20)
(-0.00560672 2.37296 -4.40861e-21)
(0.00264858 2.12941 0)
(0.00469913 2.43527 -1.744e-20)
(0.0238696 2.27201 2.53121e-20)
(0.0122255 1.44028 -1.29982e-20)
(0.00806921 1.41963 2.14602e-19)
(0.00651352 1.42942 -6.94391e-20)
(0.0211777 1.43831 -6.10952e-20)
(0.0229554 1.46577 0)
(0.00363791 1.41319 0)
(-0.00215891 1.31145 -8.47542e-20)
(-0.0042828 1.40343 2.4702e-20)
(0.00409361 1.40243 0)
(0.0080226 1.30396 -6.53528e-20)
(0.0144256 1.21333 1.3023e-19)
(1.04247 0.0151014 0)
(1.04901 0.0105734 -6.32575e-20)
(1.03921 0.0246668 -4.57643e-19)
(1.04972 0.0235225 0)
(1.05468 0.0227084 0)
(1.03638 0.0131028 -6.76754e-21)
(1.03007 0.0135564 7.38951e-19)
(1.03181 0.0176224 8.93915e-19)
(1.02559 0.0212513 0)
(1.02239 0.0217261 0)
(1.0356 0.0259459 4.5675e-19)
(1.02627 0.0284396 0)
(1.02338 0.0286025 0)
(-0.021331 2.03198 0)
(-0.0118122 1.66814 -2.77836e-21)
(-0.00964011 1.77208 -3.48991e-20)
(-0.00980906 1.4087 0)
(-0.0108053 1.57326 -3.54746e-20)
(-0.0178546 1.4853 2.13217e-20)
(-0.0157128 1.42452 0)
(0.403262 1.62196 0)
(0.366297 1.32074 -7.35558e-21)
(0.275072 1.34567 0)
(0.436624 1.31891 -6.43209e-20)
(0.472824 1.47795 0)
(0.458219 1.41974 5.23128e-20)
(1.04031 2.66834 -1.48383e-20)
(0.985339 2.40712 -8.78777e-19)
(0.948083 2.20845 9.82056e-19)
(0.865231 2.38122 2.38225e-19)
(0.85247 2.48509 0)
(0.921574 2.47957 0)
(0.954728 2.38126 0)
(0.930629 2.37234 -9.22145e-19)
(0.690842 2.44875 -3.63852e-19)
(0.800006 2.43268 -9.4563e-20)
(0.807292 2.41062 7.12572e-20)
(0.703998 2.40229 0)
(0.809401 2.39575 0)
(0.769874 2.41246 -3.61708e-19)
(0.765352 2.46355 0)
(0.633753 1.06829 0)
(0.515215 0.853731 -5.44709e-19)
(0.522025 0.927307 -3.16871e-20)
(0.501867 1.06796 0)
(0.489109 0.975214 8.33527e-19)
(0.805448 0.887976 -1.27498e-19)
(0.808418 1.0227 0)
(0.789626 1.00588 1.72916e-19)
(0.678547 1.02146 0)
(0.670415 0.925057 0)
(1.16275 2.75253 -2.09104e-19)
(1.13791 2.81086 -8.18432e-20)
(0.922075 2.33303 6.21798e-20)
(0.898886 2.31409 -7.18166e-20)
(1.13246 2.7303 0)
(1.08453 2.69804 8.62377e-20)
(1.10024 2.49319 -2.87509e-19)
(1.00207 2.2533 -2.81439e-20)
(0.496591 1.32691 0)
(0.5168 1.07591 -9.86186e-20)
(0.595867 1.18397 0)
(0.857937 0.233584 0)
(0.754516 0.181981 0)
(0.651777 0.14512 0)
(0.860838 0.232333 -6.00428e-19)
(0.738057 0.231424 3.53395e-19)
(0.91526 0.0894907 -3.93946e-19)
(0.924483 0.136711 0)
(0.900089 0.147735 1.70234e-19)
(0.838022 0.109907 6.81124e-19)
(0.796319 0.0789115 -4.26942e-19)
(1.09449 3.34428 -6.77043e-19)
(1.16284 3.26804 0)
(1.11255 3.42904 -1.57876e-18)
(0.654829 3.5753 1.31455e-18)
(1.0228 3.07482 1.27799e-19)
(0.534236 0.775202 5.56467e-19)
(0.51215 0.742223 0)
(0.344963 0.333339 -1.40249e-19)
(0.494288 0.626071 8.34557e-19)
(0.563285 0.327543 -1.80809e-19)
(0.523347 0.451774 2.17336e-19)
(0.689197 0.527099 4.46331e-19)
(0.737368 0.564276 0)
(0.670648 0.562247 0)
(0.657269 0.533175 0)
(1.01947 0.615645 8.25777e-20)
(0.972843 0.598018 -4.49526e-19)
(0.983393 0.610283 3.4182e-19)
(1.04739 0.553099 -3.30476e-19)
(1.09284 0.522265 0)
(1.09486 0.603846 -8.61249e-20)
(0.886387 0.425217 -7.48325e-19)
(0.873884 0.411332 -9.63497e-19)
(0.798648 0.41341 5.89854e-19)
(0.813973 0.378983 -6.15549e-19)
(0.856127 0.334561 -4.83416e-19)
(0.799415 0.338009 5.91764e-19)
(1.02658 0.00673838 -4.57193e-19)
(1.02621 0.00685907 9.21189e-19)
(1.02997 0.000973069 5.88188e-19)
(1.03421 0.00161742 -7.06226e-19)
(1.03398 0.0119997 0)
(1.02972 0.0120845 -1.15732e-18)
(0.0837135 1.64636 8.67588e-21)
(0.0720038 1.6059 0)
(0.106294 1.69987 5.02699e-20)
(0.112615 1.6756 -4.44832e-20)
(0.0727831 1.5713 -7.69599e-21)
(0.070805 1.574 0)
(0.00741735 1.70593 0)
(-0.00864065 1.52426 1.89618e-20)
(-0.00746113 1.46651 -1.70422e-20)
(-0.0137698 1.57123 3.14151e-21)
(-0.00238172 1.89681 2.84001e-20)
(-0.0146871 1.95081 -1.12422e-20)
(0.493701 1.35906 -2.40459e-19)
(0.49641 1.35368 2.6331e-19)
(0.450882 1.311 3.13221e-21)
(0.428438 1.29073 6.54895e-21)
(0.630704 1.31196 0)
(0.556597 1.40647 1.29199e-19)
(0.557609 1.4094 -1.25816e-19)
(0.487023 1.29928 -3.02234e-21)
(0.527676 1.25181 0)
(0.592166 1.21749 0)
(0.664614 2.41222 5.35755e-19)
(0.660269 2.44289 1.24138e-18)
(0.715651 2.45787 -8.54131e-19)
(0.614731 2.42972 -1.95865e-19)
(0.55635 2.52245 2.65711e-19)
(0.49698 2.48898 -6.84063e-19)
(0.992862 2.38602 -5.53194e-19)
(1.02444 2.40352 0)
(0.951607 2.19199 -6.04203e-19)
(1.05548 2.67912 0)
(1.05435 2.66007 0)
(0.598246 2.28538 1.26396e-20)
(1.11722 3.06713 8.26652e-20)
(0.993887 2.96335 -1.30198e-19)
(0.317015 0.783081 0)
(0.313527 0.657571 -2.98058e-19)
(0.523131 0.595589 -2.99091e-19)
(0.360114 2.12684 0)
(0.40138 2.74382 -8.99744e-20)
(0.410516 2.47765 0)
(0.732382 0.688351 -7.69414e-19)
(0.79857 0.69844 1.071e-18)
(0.801627 0.662105 -1.01573e-18)
(0.705181 0.643192 -9.75456e-20)
(0.761243 0.603061 -4.03129e-19)
(0.96839 2.74983 -6.26063e-20)
(1.01298 2.75756 -1.96881e-19)
(0.548349 2.2001 4.28695e-19)
(0.601796 1.73095 -3.40357e-19)
(0.701125 1.84987 -4.80053e-19)
(0.97561 2.39053 -1.3667e-19)
(0.976019 2.34352 3.52069e-19)
(0.643088 1.75768 3.24994e-20)
(0.449671 1.2925 1.67885e-19)
)
;

boundaryField
{
    wall-4
    {
        type            noSlip;
    }
    velocity-inlet-5
    {
        type            fixedValue;
        value           uniform (1 0 0);
    }
    velocity-inlet-6
    {
        type            fixedValue;
        value           uniform (0 3 0);
    }
    pressure-outlet-7
    {
        type            zeroGradient;
    }
    wall-8
    {
        type            noSlip;
    }
    frontAndBackPlanes
    {
        type            empty;
    }
}


// ************************************************************************* //
