/*--------------------------------*- C++ -*----------------------------------*\
  =========                 |
  \\      /  F ield         | OpenFOAM: The Open Source CFD Toolbox
   \\    /   O peration     | Website:  https://openfoam.org
    \\  /    A nd           | Version:  6
     \\/     M anipulation  |
\*---------------------------------------------------------------------------*/
FoamFile
{
    version     2.0;
    format      ascii;
    class       volScalarField;
    location    "4";
    object      Ma;
}
// * * * * * * * * * * * * * * * * * * * * * * * * * * * * * * * * * * * * * //

dimensions      [0 0 0 0 0 0 0];

internalField   nonuniform List<scalar> 
26250
(
3.0466
3.07699
3.10413
3.1267
3.14771
3.16451
3.18059
3.19002
3.18961
3.17377
3.12766
2.98593
2.68398
1.94377
0.937967
0.434069
0.492654
0.578016
0.630798
0.619869
0.609024
0.574636
0.493378
0.348943
0.236008
3.04659
3.077
3.10413
3.12671
3.1477
3.16452
3.18058
3.19007
3.18966
3.17397
3.12811
2.98704
2.68618
1.94811
0.945767
0.44771
0.504466
0.588296
0.64139
0.642704
0.624084
0.586048
0.510621
0.375294
0.267776
3.04657
3.07702
3.1041
3.12673
3.14768
3.16454
3.18058
3.19019
3.18982
3.17436
3.12911
2.98888
2.6906
1.95288
0.949865
0.435254
0.495045
0.582011
0.634536
0.635881
0.614445
0.572073
0.497552
0.363965
0.255734
3.04634
3.07725
3.10386
3.12698
3.14744
3.16479
3.18047
3.19083
3.19045
3.17526
3.13394
2.99261
2.69987
1.96722
0.964024
0.464691
0.518206
0.597085
0.645823
0.638767
0.619078
0.576846
0.499639
0.364017
0.253939
3.04561
3.078
3.10306
3.12781
3.14655
3.16573
3.17931
3.19143
3.18761
3.18168
3.1294
3.01879
2.67789
2.00224
1.00712
0.49382
0.541037
0.614927
0.661089
0.658314
0.637391
0.59463
0.515447
0.377767
0.265601
3.04623
3.07735
3.10374
3.12709
3.1473
3.16492
3.1803
3.19075
3.19066
3.17769
3.14226
3.00287
2.72435
2.00396
1.01377
0.513944
0.556459
0.625944
0.673395
0.672425
0.651603
0.610095
0.532447
0.395807
0.284627
3.04575
3.07786
3.10321
3.12765
3.1467
3.16561
3.17948
3.19169
3.18949
3.18369
3.13446
3.03137
2.7023
2.06155
1.07464
0.558867
0.585069
0.647348
0.691882
0.692111
0.670906
0.630399
0.555635
0.422239
0.315998
3.04624
3.07733
3.10381
3.12711
3.14733
3.16496
3.18028
3.19095
3.19092
3.17944
3.14458
3.01642
2.75602
2.05752
1.09527
0.584872
0.600152
0.658057
0.705447
0.708012
0.68949
0.65314
0.585209
0.46057
0.368531
3.04619
3.07741
3.10372
3.12713
3.14727
3.16498
3.1803
3.19102
3.19099
3.18049
3.14513
3.02575
2.77545
2.10027
1.16272
0.637205
0.633081
0.681446
0.725712
0.728841
0.713132
0.6827
0.626216
0.519274
0.45824
3.04832
3.07522
3.10597
3.1248
3.14962
3.16259
3.18265
3.1888
3.19427
3.18345
3.15288
3.03727
2.80257
2.13664
1.20765
0.687339
0.670431
0.71169
0.751079
0.755302
0.743501
0.722016
0.684944
0.616343
0.627351
2.96753
2.95207
2.9411
2.9352
2.9297
2.92707
2.92326
2.91927
2.90348
2.87734
2.7978
2.62573
2.24764
1.43361
0.336406
0.266533
0.046518
0.261397
0.305257
0.244863
0.234434
0.177315
0.0704871
0.043549
0.0985026
2.96753
2.95206
2.9411
2.9352
2.9297
2.92707
2.92326
2.91929
2.90355
2.87747
2.79817
2.62647
2.24916
1.43825
0.344566
0.235146
0.0611906
0.273728
0.322854
0.289762
0.253088
0.190806
0.101169
0.073385
0.132761
2.96753
2.95207
2.9411
2.9352
2.9297
2.92707
2.92327
2.91934
2.90371
2.87783
2.79897
2.6285
2.25281
1.44435
0.347627
0.26731
0.0753765
0.279816
0.327765
0.297228
0.260265
0.206771
0.13739
0.117058
0.140832
2.96752
2.95207
2.94109
2.9352
2.92969
2.92707
2.92329
2.91943
2.90399
2.87842
2.80018
2.63185
2.2582
1.45532
0.365109
0.228416
0.104074
0.294278
0.331964
0.285735
0.267397
0.228127
0.181163
0.165404
0.163236
2.96756
2.952
2.94115
2.93512
2.92976
2.927
2.92344
2.91971
2.9053
2.8787
2.80796
2.62734
2.27401
1.46556
0.365418
0.216212
0.128863
0.311344
0.348795
0.318254
0.293896
0.262564
0.229734
0.215303
0.198424
2.96753
2.95206
2.9411
2.93518
2.92971
2.92706
2.92337
2.91967
2.90486
2.88027
2.80437
2.64328
2.27884
1.501
0.416849
0.198726
0.157118
0.332021
0.369247
0.345732
0.325702
0.303179
0.281268
0.268513
0.245803
2.96758
2.95198
2.94117
2.93511
2.92977
2.927
2.92349
2.91989
2.90613
2.88101
2.81309
2.64124
2.30181
1.53238
0.440618
0.174632
0.189409
0.355429
0.393203
0.377439
0.362104
0.349028
0.337456
0.328178
0.308329
2.96753
2.95205
2.94112
2.93518
2.92973
2.92706
2.92344
2.91993
2.90593
2.88292
2.81083
2.65937
2.31422
1.57621
0.511708
0.162416
0.22351
0.380948
0.419586
0.410356
0.402911
0.399281
0.399354
0.397439
0.391173
2.96754
2.95205
2.94113
2.93517
2.92973
2.92707
2.92346
2.92006
2.90652
2.8846
2.81499
2.66811
2.33641
1.61287
0.574052
0.163826
0.262899
0.409234
0.4474
0.444811
0.447045
0.453718
0.467597
0.482019
0.506667
2.96772
2.95194
2.94125
2.93512
2.92982
2.92706
2.92355
2.9203
2.90757
2.88661
2.82074
2.67848
2.35872
1.65634
0.635338
0.188268
0.306762
0.440669
0.477158
0.480722
0.491382
0.510713
0.545256
0.587191
0.693695
2.9857
2.97024
2.95103
2.93551
2.91916
2.90731
2.89389
2.883
2.86164
2.82743
2.7357
2.54107
2.13838
1.26428
0.10387
0.580366
0.0781743
0.185908
0.236664
0.179511
0.0964251
0.0764536
0.0952591
0.069368
0.0642654
2.98567
2.97028
2.951
2.93554
2.91913
2.90735
2.89387
2.88304
2.86162
2.8277
2.73555
2.54294
2.13879
1.26387
0.109147
0.572101
0.0790537
0.199335
0.240555
0.170594
0.133697
0.115278
0.133393
0.115454
0.0999681
2.9857
2.97024
2.95103
2.93551
2.91916
2.90731
2.8939
2.88305
2.86184
2.82784
2.73676
2.54322
2.14289
1.27186
0.120135
0.556806
0.0894324
0.217134
0.248257
0.185194
0.166521
0.155565
0.176691
0.169248
0.147268
2.98567
2.97028
2.951
2.93554
2.91913
2.90735
2.89388
2.88314
2.862
2.82848
2.73758
2.54717
2.14762
1.27942
0.134316
0.538772
0.107993
0.239975
0.264065
0.214282
0.203032
0.199178
0.222873
0.223334
0.198785
2.98563
2.97032
2.95096
2.93558
2.91909
2.90739
2.89386
2.88326
2.86228
2.82938
2.73903
2.55275
2.15565
1.29469
0.162108
0.508763
0.131645
0.266261
0.28571
0.249594
0.23607
0.245486
0.271019
0.278207
0.253344
2.98565
2.9703
2.95097
2.93556
2.91911
2.90738
2.8939
2.88336
2.86281
2.83029
2.74209
2.55803
2.16919
1.32269
0.197857
0.473775
0.157662
0.294426
0.312991
0.288794
0.273387
0.294414
0.322348
0.33617
0.314569
2.98561
2.97034
2.95094
2.9356
2.91908
2.90742
2.89389
2.88351
2.86339
2.83171
2.74545
2.56695
2.18626
1.35814
0.242444
0.434384
0.186347
0.324261
0.344231
0.330758
0.318171
0.347048
0.377795
0.400766
0.387255
2.9856
2.97035
2.95093
2.93562
2.91907
2.90744
2.89391
2.88369
2.86414
2.83327
2.74969
2.57681
2.2066
1.4042
0.299101
0.388086
0.217702
0.355178
0.378239
0.37448
0.36924
0.400682
0.439179
0.473563
0.476148
2.98554
2.97042
2.95087
2.93568
2.91901
2.90751
2.89389
2.88391
2.8649
2.83523
2.75395
2.58982
2.22873
1.45619
0.367357
0.333636
0.251709
0.387279
0.413141
0.418161
0.4239
0.458584
0.506325
0.557665
0.593118
2.98564
2.97032
2.95097
2.93558
2.91911
2.90744
2.89401
2.88421
2.86604
2.83716
2.75968
2.59912
2.25409
1.52253
0.438933
0.276624
0.287785
0.419504
0.448205
0.460751
0.476741
0.518327
0.581111
0.656917
0.779921
2.96752
2.95208
2.94109
2.93521
2.92969
2.92708
2.92327
2.91932
2.90359
2.87755
2.79803
2.62591
2.24678
1.42751
0.331982
0.250114
0.047185
0.266622
0.323257
0.304022
0.268903
0.209757
0.123044
0.0574037
0.117569
2.96756
2.952
2.94115
2.93513
2.92976
2.927
2.9234
2.91954
2.90469
2.87711
2.80434
2.61767
2.25464
1.41973
0.304768
0.310387
0.0527509
0.261092
0.301888
0.232952
0.225927
0.177161
0.0971178
0.0805208
0.119971
2.96752
2.95207
2.94109
2.9352
2.92969
2.92707
2.92329
2.91939
2.90382
2.87806
2.79901
2.62874
2.25108
1.43352
0.34137
0.245877
0.0813711
0.276538
0.311255
0.257085
0.239283
0.189059
0.12549
0.125102
0.136211
2.96755
2.95201
2.94114
2.93513
2.92975
2.927
2.92341
2.91962
2.90491
2.8779
2.80589
2.62224
2.26381
1.43892
0.337127
0.237542
0.102099
0.29264
0.33078
0.295469
0.263314
0.217596
0.169916
0.170452
0.16578
2.96755
2.95201
2.94113
2.93513
2.92974
2.92701
2.92343
2.91969
2.90512
2.87866
2.80734
2.62664
2.27243
1.45776
0.359053
0.233796
0.127687
0.308438
0.345141
0.313241
0.290065
0.255047
0.220052
0.217929
0.202376
2.96756
2.952
2.94115
2.93512
2.92976
2.92701
2.92345
2.91978
2.90557
2.87966
2.80987
2.6329
2.28517
1.48926
0.394529
0.201812
0.157327
0.329386
0.366748
0.344768
0.322896
0.298637
0.274295
0.269577
0.249405
2.96753
2.95206
2.94111
2.93518
2.92972
2.92707
2.9234
2.91979
2.90535
2.88136
2.80722
2.65103
2.29458
1.54315
0.462867
0.178764
0.190106
0.354378
0.391417
0.375423
0.360055
0.346405
0.332744
0.328294
0.311082
2.96753
2.95206
2.94111
2.93519
2.92972
2.92708
2.92342
2.91994
2.90585
2.88287
2.81096
2.65824
2.31556
1.5771
0.517653
0.157965
0.226828
0.382013
0.419269
0.409128
0.40159
0.39779
0.396287
0.397234
0.393085
2.96754
2.95205
2.94113
2.93518
2.92974
2.92707
2.92346
2.92005
2.9065
2.88455
2.81483
2.66813
2.33608
1.61324
0.575547
0.161946
0.26406
0.410789
0.448009
0.444501
0.446245
0.452849
0.465613
0.481596
0.507825
2.96772
2.95195
2.94125
2.93512
2.92982
2.92706
2.92355
2.9203
2.90755
2.88655
2.82063
2.67827
2.3584
1.65642
0.635971
0.188049
0.307849
0.442311
0.478285
0.481011
0.491187
0.510329
0.543919
0.586232
0.694496
3.04641
3.07719
3.10393
3.1269
3.1475
3.16473
3.18049
3.19068
3.19012
3.17471
3.13219
2.98712
2.68869
1.94305
0.924479
0.434928
0.495389
0.58323
0.637899
0.639929
0.622949
0.581786
0.50443
0.368658
0.261733
3.04551
3.0781
3.10296
3.12792
3.14644
3.16585
3.17915
3.19135
3.18672
3.18034
3.12565
3.01053
2.65309
1.95415
0.960973
0.433596
0.495905
0.585778
0.634921
0.62355
0.611261
0.573488
0.490785
0.349101
0.241922
3.04638
3.07721
3.10389
3.12693
3.14746
3.16475
3.18042
3.19044
3.19017
3.1755
3.13722
2.99125
2.70073
1.95296
0.927982
0.441416
0.501626
0.585732
0.635558
0.624271
0.610939
0.573587
0.489643
0.345294
0.235719
3.04551
3.0781
3.10295
3.12791
3.14644
3.16583
3.17916
3.19121
3.18653
3.17932
3.12598
3.00753
2.66305
1.98436
0.985663
0.477622
0.529444
0.607706
0.653976
0.651018
0.630761
0.590619
0.509101
0.366116
0.252168
3.04555
3.07805
3.103
3.12786
3.14649
3.16577
3.17925
3.19111
3.18682
3.17832
3.12751
3.01061
2.67329
2.02219
0.986457
0.479267
0.532092
0.609689
0.655732
0.652889
0.634194
0.595085
0.517092
0.377924
0.264845
3.04563
3.07798
3.10308
3.12779
3.14657
3.16572
3.17933
3.19143
3.18798
3.18109
3.1305
3.01985
2.68624
2.03799
1.02699
0.517683
0.559775
0.6282
0.672442
0.671676
0.650304
0.610279
0.533513
0.396215
0.284672
3.04627
3.07733
3.10378
3.12706
3.14735
3.16489
3.18039
3.19106
3.19089
3.17761
3.14006
3.00746
2.73649
2.02925
1.05503
0.544767
0.574427
0.638732
0.685972
0.687248
0.665846
0.628303
0.554602
0.422515
0.316588
3.04627
3.07732
3.10379
3.12705
3.14737
3.16489
3.18043
3.1912
3.191
3.1787
3.14057
3.01584
2.75427
2.06228
1.10842
0.592353
0.602106
0.6579
0.704705
0.706168
0.685805
0.651379
0.58365
0.460852
0.369644
3.04621
3.0774
3.10373
3.12714
3.14729
3.16497
3.1803
3.19103
3.19098
3.18036
3.14486
3.02554
2.77529
2.10035
1.16257
0.638297
0.633924
0.682536
0.726754
0.729081
0.711661
0.682526
0.6257
0.519989
0.459615
3.04827
3.07528
3.10592
3.12486
3.14957
3.16263
3.1826
3.1888
3.19408
3.18328
3.1526
3.03707
2.80287
2.1356
1.20679
0.686964
0.670602
0.712466
0.752044
0.756031
0.743435
0.722784
0.685753
0.616756
0.628367
3.04513
3.07848
3.10255
3.12834
3.14601
3.16636
3.17893
3.19327
3.19322
3.18811
3.15035
3.06415
2.78683
2.25038
1.31242
0.760106
0.720996
0.752532
0.784461
0.78932
0.782292
0.772964
0.764655
0.763045
0.823279
3.04805
3.07545
3.10569
3.12506
3.14932
3.16293
3.18241
3.18985
3.19719
3.18786
3.16191
3.05973
2.84388
2.25727
1.33964
0.815134
0.768757
0.792195
0.818471
0.82756
0.8275
0.829894
0.841173
0.873222
0.955835
3.04513
3.07847
3.10255
3.12835
3.14599
3.16644
3.17897
3.19409
3.19604
3.19308
3.16046
3.08852
2.84623
2.38963
1.47784
0.87729
0.812898
0.8268
0.846166
0.859835
0.867235
0.878845
0.901628
0.947115
1.03249
3.04766
3.07588
3.10525
3.12557
3.14881
3.16353
3.18192
3.19125
3.1997
3.19265
3.16936
3.08787
2.8998
2.4143
1.55443
0.968472
0.864778
0.86362
0.876639
0.892319
0.905456
0.923043
0.952337
1.00019
1.07958
3.04742
3.07613
3.10498
3.12585
3.14851
3.16388
3.18162
3.19203
3.20129
3.19554
3.17705
3.10733
2.95699
2.53224
1.7486
1.07239
0.91098
0.898573
0.90697
0.923686
0.942362
0.964104
0.995554
1.04353
1.11421
3.04594
3.07763
3.10339
3.12748
3.14683
3.16562
3.17994
3.19422
3.20135
3.20054
3.18321
3.13801
2.99527
2.7061
2.00824
1.24061
0.987908
0.959185
0.959042
0.972166
0.989986
1.0098
1.03884
1.08141
1.14388
3.04633
3.07722
3.1038
3.12704
3.14726
3.16518
3.18041
3.19411
3.20321
3.20284
3.19083
3.15497
3.04832
2.82068
2.22526
1.40925
1.05615
1.01245
1.0134
1.02631
1.04416
1.06179
1.08647
1.12294
1.17513
3.04657
3.07699
3.10405
3.12679
3.14751
3.16495
3.18066
3.19392
3.2036
3.20347
3.19657
3.16672
3.08621
2.88173
2.40114
1.58616
1.10999
1.03901
1.04184
1.05967
1.08232
1.1034
1.12731
1.16003
1.20409
3.0451
3.07851
3.10248
3.12842
3.14588
3.16661
3.17907
3.19562
3.20252
3.20766
3.20155
3.17868
3.11392
2.94044
2.55146
1.75634
1.19714
1.07185
1.06641
1.08136
1.10542
1.13337
1.16069
1.19226
1.23264
3.04683
3.07672
3.10436
3.12644
3.14792
3.16446
3.18133
3.19343
3.20612
3.21079
3.20967
3.19153
3.1454
3.00997
2.72431
2.08007
1.37075
1.14469
1.11462
1.11695
1.13477
1.16104
1.18825
1.2192
1.25632
3.04565
3.07794
3.10311
3.12776
3.14661
3.16583
3.18001
3.19489
3.20517
3.21417
3.21071
3.20233
3.16434
3.07251
2.84728
2.30816
1.5804
1.23271
1.16989
1.16163
1.17137
1.19198
1.21798
1.24639
1.27899
3.04697
3.07659
3.10451
3.12632
3.14807
3.16433
3.18152
3.19338
3.20689
3.21332
3.21525
3.20902
3.18536
3.116
2.94593
2.54582
1.79941
1.31004
1.20164
1.19052
1.19831
1.2185
1.24621
1.27384
1.30399
3.04597
3.07762
3.10343
3.12744
3.14692
3.16555
3.18027
3.19478
3.20564
3.21587
3.21838
3.21569
3.19813
3.14549
3.02405
2.70513
2.1046
1.47789
1.26456
1.23407
1.2341
1.24898
1.27345
1.29994
1.3286
3.04609
3.0775
3.10355
3.12732
3.14703
3.16545
3.18036
3.19475
3.2058
3.21666
3.22189
3.2213
3.20969
3.17733
3.08702
2.89882
2.38417
1.67211
1.34576
1.27802
1.27083
1.27794
1.29815
1.32547
1.35309
3.0465
3.07707
3.10399
3.12684
3.1475
3.16495
3.18084
3.19427
3.20632
3.21651
3.22376
3.22363
3.21802
3.19612
3.13469
2.9924
2.6191
1.94661
1.44498
1.3101
1.29374
1.29869
1.31653
1.34385
1.37251
3.04567
3.07792
3.10309
3.12775
3.14661
3.16586
3.17991
3.19527
3.20538
3.21751
3.22357
3.22715
3.22361
3.20851
3.17192
3.06472
2.83896
2.27359
1.62598
1.3752
1.3334
1.33002
1.33992
1.36214
1.39167
3.0458
3.07783
3.10316
3.12757
3.14692
3.16556
3.18009
3.19527
3.20539
3.2174
3.22504
3.23076
3.22852
3.2194
3.19559
3.1205
2.96488
2.56466
1.89973
1.47748
1.37201
1.35801
1.36232
1.37953
1.40629
3.04612
3.07746
3.1036
3.12723
3.14712
3.16535
3.18045
3.19464
3.20615
3.21694
3.22559
3.23237
3.23264
3.22827
3.21335
3.16335
3.05665
2.78511
2.22466
1.65462
1.44121
1.40222
1.39589
1.40347
1.42305
3.04603
3.07755
3.1035
3.12735
3.147
3.16547
3.18035
3.19476
3.20599
3.21723
3.22547
3.23375
3.23681
3.23583
3.22552
3.19605
3.12197
2.95377
2.51757
1.87695
1.53482
1.44321
1.42835
1.43091
1.44479
3.04642
3.07716
3.10391
3.12694
3.14742
3.16504
3.18078
3.19433
3.20641
3.21684
3.22593
3.23381
3.23908
3.23877
3.23335
3.21371
3.16943
3.05118
2.77867
2.20144
1.67394
1.49077
1.45734
1.45496
1.46267
3.04594
3.07765
3.1034
3.12746
3.14689
3.16558
3.18024
3.19488
3.20587
3.21739
3.22546
3.23438
3.23919
3.24153
3.23894
3.2273
3.20197
3.12024
2.96191
2.52495
1.93715
1.59158
1.49587
1.48056
1.48273
3.04598
3.0776
3.10345
3.1274
3.14696
3.1655
3.18033
3.1948
3.20597
3.21726
3.22569
3.23427
3.24026
3.24517
3.24391
3.2381
3.22155
3.17393
3.0605
2.81174
2.26484
1.75932
1.56072
1.51889
1.5109
3.04618
3.0774
3.10366
3.12719
3.14717
3.16528
3.18055
3.19456
3.20621
3.21703
3.22589
3.23413
3.24069
3.24617
3.2473
3.2452
3.23589
3.20687
3.13874
2.98337
2.58297
1.99656
1.66412
1.55976
1.5418
3.04623
3.07735
3.10371
3.12714
3.14721
3.16524
3.18059
3.19452
3.20624
3.21702
3.22588
3.2342
3.24073
3.24689
3.2499
3.24948
3.24403
3.22613
3.18713
3.08597
2.84919
2.33702
1.82611
1.61754
1.57214
3.04608
3.0775
3.10355
3.12729
3.14706
3.16538
3.18045
3.19465
3.20613
3.21714
3.22578
3.23434
3.24066
3.24722
3.25079
3.25165
3.24946
3.23936
3.21832
3.15082
3.01806
2.66858
2.11705
1.73666
1.61348
3.0461
3.07748
3.10357
3.12728
3.14707
3.16539
3.18044
3.19468
3.20609
3.21717
3.22575
3.23434
3.24072
3.24727
3.25159
3.25452
3.25344
3.24839
3.23703
3.19576
3.12123
2.91114
2.50408
1.94083
1.69535
3.04624
3.07734
3.10372
3.12713
3.14723
3.16522
3.1806
3.1945
3.20627
3.21698
3.22594
3.23415
3.24092
3.24712
3.25212
3.25605
3.2567
3.25498
3.24797
3.22591
3.17527
3.05699
2.76277
2.23349
1.81236
3.04636
3.07721
3.10386
3.12699
3.14737
3.16508
3.18075
3.19436
3.20641
3.21683
3.22608
3.23402
3.24104
3.24706
3.25227
3.25653
3.25883
3.25814
3.25474
3.24058
3.21624
3.13156
2.98813
2.56743
2.06993
3.04615
3.07743
3.10362
3.12723
3.14712
3.16534
3.18049
3.19462
3.20615
3.21711
3.2258
3.2343
3.24076
3.24736
3.25203
3.25707
3.2597
3.26073
3.25928
3.25252
3.239
3.19343
3.1042
2.88385
2.42465
3.04612
3.07745
3.1036
3.12725
3.1471
3.16536
3.18047
3.19464
3.20613
3.21713
3.2258
3.2343
3.24078
3.24734
3.2521
3.2571
3.26037
3.26299
3.26226
3.25944
3.25169
3.22643
3.17381
3.04478
2.73013
3.04631
3.07726
3.1038
3.12705
3.14731
3.16514
3.18069
3.19442
3.20635
3.21689
3.22602
3.23407
3.24101
3.2471
3.25234
3.25691
3.26077
3.26373
3.26465
3.26351
3.25944
3.24527
3.21706
3.13929
2.97626
3.04636
3.07721
3.10385
3.127
3.14736
3.16509
3.18074
3.19436
3.20641
3.21684
3.22607
3.23402
3.24105
3.24707
3.25237
3.25692
3.26082
3.26415
3.2662
3.26606
3.26419
3.25611
3.24218
3.19311
3.10589
3.04619
3.07738
3.10367
3.12718
3.14718
3.16528
3.18055
3.19456
3.20621
3.21704
3.22587
3.23423
3.24085
3.24727
3.25218
3.25711
3.26067
3.26441
3.2666
3.26781
3.26701
3.26309
3.25532
3.22761
3.17543
3.0462
3.07738
3.10368
3.12717
3.14718
3.16527
3.18056
3.19455
3.20622
3.21703
3.22589
3.23421
3.24087
3.24725
3.2522
3.25708
3.26073
3.2644
3.26695
3.26894
3.26852
3.26653
3.2617
3.24322
3.21221
3.04632
3.07725
3.10381
3.12704
3.14732
3.16513
3.18071
3.1944
3.20637
3.21688
3.22603
3.23406
3.24102
3.24709
3.25236
3.25693
3.26088
3.26428
3.26718
3.26927
3.2696
3.26833
3.26467
3.25075
3.22439
3.04633
3.07724
3.10382
3.12703
3.14733
3.16512
3.18071
3.19439
3.20638
3.21687
3.22605
3.23405
3.24103
3.24709
3.25236
3.25692
3.26089
3.26428
3.2672
3.26941
3.27008
3.26903
3.26586
3.25269
3.22941
3.04634
3.07724
3.10383
3.12702
3.14734
3.16511
3.18072
3.19438
3.20639
3.21686
3.22605
3.23404
3.24103
3.24708
3.25237
3.25692
3.26089
3.26428
3.26721
3.26944
3.27025
3.26925
3.2662
3.25291
3.23008
3.0463
3.07727
3.10379
3.12705
3.1473
3.16515
3.18068
3.19442
3.20635
3.21691
3.22601
3.23408
3.24099
3.24712
3.25232
3.25696
3.26085
3.26432
3.26717
3.26956
3.27044
3.26979
3.26659
3.25516
3.2311
3.04632
3.07725
3.10382
3.12703
3.14733
3.16513
3.18071
3.1944
3.20637
3.21688
3.22604
3.23406
3.24102
3.2471
3.25235
3.25693
3.26088
3.2643
3.2672
3.2695
3.27038
3.26954
3.26659
3.25428
3.23203
3.04633
3.07724
3.10382
3.12703
3.14733
3.16512
3.18071
3.19439
3.20638
3.21687
3.22605
3.23405
3.24103
3.24709
3.25236
3.25692
3.26089
3.26429
3.26721
3.26947
3.27033
3.26941
3.2664
3.25351
3.23101
2.96808
2.95148
2.94166
2.9346
2.9303
2.92648
2.92418
2.91978
2.91163
2.88351
2.83169
2.69526
2.36371
1.72817
0.656582
0.227488
0.348313
0.468616
0.5055
0.51618
0.535866
0.570065
0.62878
0.712227
0.885348
2.96826
2.9514
2.94177
2.93457
2.93037
2.92648
2.92427
2.92007
2.91258
2.88814
2.83591
2.71463
2.3877
1.79527
0.74576
0.28939
0.391089
0.485344
0.528769
0.549059
0.579839
0.628819
0.703417
0.809695
0.979901
2.96799
2.95156
2.94158
2.93468
2.93022
2.92658
2.92432
2.92077
2.91372
2.88946
2.84422
2.72538
2.42749
1.85884
0.835464
0.371626
0.428543
0.494039
0.546324
0.578465
0.619656
0.679119
0.76118
0.868828
1.01228
2.9677
2.95194
2.94124
2.93509
2.92985
2.92702
2.924
2.92143
2.91481
2.89582
2.85091
2.75214
2.46808
1.94824
0.987665
0.473143
0.459548
0.509741
0.563231
0.604003
0.653902
0.717338
0.799901
0.901079
1.02576
2.96786
2.95178
2.94139
2.93496
2.92996
2.92696
2.92397
2.92163
2.91404
2.90025
2.85937
2.76161
2.54614
2.00199
1.12738
0.579229
0.490872
0.528453
0.579965
0.626001
0.680757
0.746909
0.827376
0.920292
1.03135
2.968
2.95158
2.94155
2.93473
2.93017
2.9267
2.92437
2.92166
2.91711
2.90055
2.87101
2.78764
2.58558
2.17794
1.30006
0.700278
0.524713
0.552901
0.600648
0.649068
0.703354
0.767499
0.847023
0.933232
1.03267
2.96826
2.95134
2.94179
2.93451
2.93039
2.9265
2.92459
2.9217
2.91819
2.90421
2.88092
2.81092
2.65145
2.31383
1.55858
0.845186
0.588067
0.598678
0.63483
0.680265
0.728826
0.786956
0.860542
0.943017
1.03229
2.9679
2.9517
2.94143
2.93487
2.93001
2.92689
2.92419
2.92228
2.91823
2.91066
2.88669
2.8361
2.71292
2.42043
1.80428
0.990769
0.658789
0.652644
0.677118
0.716347
0.758674
0.808348
0.872918
0.948941
1.03154
2.96776
2.95179
2.94133
2.93493
2.92994
2.92694
2.92418
2.92255
2.91941
2.91351
2.89417
2.85314
2.75603
2.49942
2.01051
1.13969
0.729853
0.695882
0.717735
0.749121
0.787312
0.832324
0.887521
0.95511
1.03045
2.96823
2.9514
2.94175
2.93457
2.93034
2.92661
2.9246
2.92239
2.92055
2.91565
2.89845
2.86943
2.78487
2.58667
2.1859
1.35248
0.849313
0.734069
0.749878
0.774997
0.811757
0.853382
0.902263
0.962064
1.02963
2.96805
2.95153
2.94162
2.93467
2.93025
2.92667
2.92457
2.92237
2.92073
2.91577
2.90675
2.87774
2.81834
2.66957
2.32298
1.63048
0.991566
0.790876
0.78512
0.804264
0.837284
0.875984
0.919879
0.971642
1.03164
2.96811
2.95153
2.94165
2.93469
2.93026
2.9267
2.92458
2.92248
2.92101
2.91752
2.9109
2.88888
2.84706
2.73272
2.48863
1.91514
1.18342
0.870527
0.830165
0.839572
0.864081
0.899267
0.938209
0.983867
1.03662
2.96775
2.95184
2.94132
2.93498
2.92994
2.92699
2.92426
2.92285
2.92092
2.91927
2.91268
2.90042
2.86606
2.78182
2.60131
2.13955
1.377
0.95683
0.871984
0.875076
0.892912
0.923729
0.958859
0.998386
1.04452
2.96768
2.95191
2.94124
2.93505
2.92987
2.92705
2.92421
2.92291
2.92109
2.91981
2.91621
2.90436
2.88152
2.82054
2.66768
2.35789
1.66834
1.10286
0.926163
0.911465
0.92247
0.947278
0.979773
1.0155
1.05577
2.96804
2.95157
2.94158
2.93473
2.93018
2.92676
2.92451
2.92266
2.9214
2.91994
2.91769
2.90866
2.89387
2.84668
2.75113
2.52257
2.02078
1.31451
1.0114
0.959568
0.960619
0.977045
1.00382
1.03425
1.06915
2.96813
2.95145
2.94169
2.93459
2.93031
2.92661
2.92464
2.92252
2.92156
2.91992
2.9184
2.91218
2.90205
2.86718
2.8016
2.63757
2.23994
1.5619
1.10715
0.999317
0.993875
1.00426
1.02802
1.05714
1.08803
2.96807
2.95152
2.94161
2.93466
2.93027
2.92666
2.92458
2.9226
2.92151
2.92008
2.91893
2.91487
2.90773
2.88301
2.8388
2.71462
2.45355
1.86594
1.27146
1.06626
1.03208
1.03449
1.05062
1.07693
1.10603
2.96792
2.95168
2.94148
2.93482
2.9301
2.92684
2.92442
2.92275
2.92137
2.92037
2.91925
2.91756
2.91068
2.89879
2.8639
2.78428
2.61134
2.17211
1.49369
1.15021
1.07639
1.06871
1.07659
1.09695
1.12398
2.96799
2.95161
2.94154
2.93476
2.93016
2.92677
2.9245
2.92268
2.92147
2.92031
2.91958
2.91827
2.91493
2.90335
2.8842
2.82656
2.69975
2.42484
1.8113
1.29868
1.1301
1.10491
1.10669
1.12124
1.14389
2.96786
2.95175
2.94141
2.9349
2.93002
2.92692
2.92435
2.92283
2.92132
2.92049
2.91945
2.91871
2.91666
2.90898
2.89686
2.85708
2.78013
2.59616
2.1608
1.52912
1.21505
1.14653
1.13869
1.14424
1.16252
2.96796
2.95163
2.94151
2.93478
2.93013
2.92679
2.92447
2.9227
2.92144
2.92037
2.91959
2.91874
2.91751
2.91268
2.90481
2.87775
2.8288
2.6996
2.40474
1.82475
1.34391
1.19553
1.17174
1.17129
1.18399
2.96805
2.95154
2.9416
2.93469
2.93022
2.92671
2.92456
2.92263
2.92152
2.9203
2.91969
2.91873
2.91799
2.91527
2.91022
2.89319
2.86323
2.77469
2.60381
2.16493
1.57612
1.28054
1.21051
1.20116
1.20544
2.96804
2.95156
2.94158
2.93472
2.9302
2.92674
2.92453
2.92265
2.9215
2.92032
2.91968
2.91882
2.9183
2.91675
2.91363
2.90226
2.88389
2.82704
2.71153
2.44619
1.88028
1.4261
1.2661
1.23472
1.2319
2.96793
2.95167
2.94148
2.93482
2.9301
2.92684
2.92443
2.92275
2.92139
2.92043
2.91958
2.91896
2.91836
2.91767
2.91573
2.90874
2.89752
2.86195
2.7907
2.62441
2.23165
1.65294
1.35593
1.27746
1.26295
2.96787
2.95172
2.94143
2.93487
2.93004
2.92688
2.92438
2.9228
2.92135
2.92048
2.91953
2.91902
2.91833
2.9179
2.91679
2.91257
2.90573
2.88256
2.84107
2.72913
2.48585
1.96179
1.50481
1.33446
1.29855
2.96795
2.95164
2.9415
2.93479
2.93012
2.92681
2.92446
2.92272
2.92142
2.9204
2.91961
2.91895
2.91842
2.91797
2.91737
2.91565
2.90983
2.8996
2.87045
2.8048
2.66122
2.30271
1.74227
1.43036
1.33763
2.96802
2.95158
2.94157
2.93473
2.93018
2.92676
2.92452
2.92267
2.92148
2.92035
2.91967
2.9189
2.91849
2.9179
2.91757
2.91646
2.91404
2.90588
2.89154
2.85044
2.75959
2.56406
2.11461
1.61568
1.40535
2.96791
2.95169
2.94147
2.93484
2.93008
2.92686
2.92441
2.92278
2.92138
2.92045
2.91956
2.91901
2.91837
2.91804
2.91752
2.91705
2.91529
2.91169
2.90125
2.87891
2.82545
2.69813
2.42367
1.89166
1.52527
2.9679
2.9517
2.94145
2.93485
2.93007
2.92687
2.9244
2.92278
2.92137
2.92046
2.91955
2.91901
2.91837
2.91805
2.91754
2.91725
2.91633
2.9144
2.90759
2.89632
2.86184
2.79347
2.63131
2.26581
1.7352
2.968
2.9516
2.94155
2.93475
2.93016
2.92677
2.9245
2.92268
2.92146
2.92036
2.91965
2.91891
2.91848
2.91794
2.91767
2.91722
2.91685
2.91538
2.91272
2.9034
2.88786
2.84148
2.74589
2.5289
2.06104
2.96801
2.95159
2.94156
2.93475
2.93017
2.92677
2.9245
2.92269
2.92146
2.92037
2.91965
2.91892
2.91848
2.91795
2.91768
2.91726
2.91705
2.91637
2.91484
2.90939
2.90069
2.87363
2.81799
2.69107
2.3775
2.96792
2.95169
2.94147
2.93484
2.93008
2.92686
2.92441
2.92277
2.92138
2.92045
2.91956
2.919
2.91839
2.91804
2.91759
2.91737
2.91699
2.91673
2.91568
2.91359
2.90692
2.8946
2.86034
2.78848
2.61864
2.96794
2.95166
2.94149
2.93481
2.9301
2.92683
2.92444
2.92274
2.9214
2.92042
2.91959
2.91897
2.91842
2.91801
2.91762
2.91734
2.91705
2.91681
2.91638
2.91477
2.91197
2.90253
2.88637
2.8394
2.74402
2.96799
2.95161
2.94153
2.93477
2.93015
2.92679
2.92448
2.9227
2.92145
2.92038
2.91964
2.91893
2.91846
2.91797
2.91767
2.9173
2.91711
2.9168
2.91656
2.91566
2.91402
2.90805
2.89873
2.86841
2.81268
2.968
2.95161
2.94154
2.93476
2.93015
2.92678
2.92449
2.9227
2.92145
2.92038
2.91964
2.91893
2.91847
2.91797
2.91767
2.9173
2.91711
2.91681
2.91665
2.91613
2.91499
2.91081
2.9042
2.88208
2.84235
2.96798
2.95162
2.94153
2.93477
2.93014
2.92679
2.92448
2.92271
2.92144
2.92039
2.91963
2.91894
2.91846
2.91797
2.91767
2.91731
2.91711
2.91683
2.91669
2.91632
2.9154
2.91198
2.90662
2.88847
2.85379
2.96793
2.95167
2.94148
2.93483
2.93009
2.92684
2.92443
2.92276
2.92139
2.92044
2.91958
2.91899
2.91841
2.91803
2.91761
2.91736
2.91705
2.91689
2.91662
2.91641
2.91535
2.91338
2.90745
2.8935
2.85966
2.96796
2.95164
2.94151
2.9348
2.93012
2.92682
2.92446
2.92273
2.92142
2.92041
2.91961
2.91896
2.91843
2.918
2.91764
2.91733
2.91708
2.91686
2.91668
2.91645
2.9157
2.91318
2.90821
2.89477
2.86028
2.96794
2.95166
2.94149
2.93481
2.9301
2.92683
2.92444
2.92275
2.9214
2.92043
2.91959
2.91898
2.91841
2.91802
2.91762
2.91735
2.91706
2.91688
2.91664
2.9164
2.91537
2.91357
2.90709
2.89547
2.8605
2.96794
2.95166
2.94149
2.93482
2.9301
2.92684
2.92444
2.92275
2.9214
2.92043
2.91959
2.91898
2.91841
2.91802
2.91762
2.91735
2.91706
2.91688
2.91663
2.9164
2.91538
2.9136
2.90715
2.89579
2.86105
2.98637
2.96959
2.95169
2.93485
2.91986
2.90665
2.89498
2.88356
2.86898
2.83389
2.7706
2.61496
2.25418
1.56926
0.466556
0.249182
0.325988
0.446491
0.479625
0.501105
0.528843
0.579889
0.660061
0.767178
0.964094
2.9864
2.96956
2.95172
2.93482
2.91989
2.90663
2.89505
2.88372
2.86969
2.83634
2.77732
2.62929
2.28949
1.63379
0.550105
0.248188
0.362512
0.468153
0.505548
0.535677
0.576287
0.639445
0.732522
0.856474
1.047
2.98581
2.97015
2.95113
2.93541
2.91928
2.90731
2.89434
2.885
2.87003
2.84548
2.77995
2.64457
2.3543
1.68696
0.685532
0.278979
0.395321
0.482007
0.527101
0.566951
0.620679
0.691782
0.787958
0.909443
1.06391
2.9868
2.96915
2.95211
2.93446
2.92024
2.90639
2.89533
2.88427
2.872
2.84895
2.79008
2.66618
2.40336
1.77398
0.798608
0.346454
0.417701
0.485673
0.544606
0.594057
0.656758
0.733339
0.825896
0.937239
1.0685
2.98583
2.97013
2.95117
2.93537
2.91938
2.90718
2.8947
2.88479
2.87254
2.85013
2.80253
2.70105
2.42555
1.92325
0.927179
0.433524
0.420562
0.490169
0.560323
0.617839
0.685051
0.762216
0.851869
0.9519
1.06648
2.98671
2.96925
2.95203
2.9345
2.92023
2.90635
2.89554
2.88414
2.87328
2.85052
2.81309
2.71248
2.48797
2.03487
1.08169
0.539147
0.424141
0.490542
0.572058
0.635861
0.705501
0.783585
0.869248
0.961263
1.06217
2.98689
2.96907
2.95219
2.93434
2.92038
2.90621
2.89573
2.8842
2.87447
2.85505
2.82366
2.73885
2.55434
2.17253
1.3182
0.665354
0.453216
0.505892
0.588053
0.652167
0.720613
0.797229
0.881768
0.966857
1.05829
2.98696
2.969
2.95226
2.93428
2.92044
2.90615
2.89583
2.88432
2.87569
2.85983
2.83403
2.76579
2.6197
2.31377
1.62155
0.8035
0.512191
0.551044
0.61231
0.671346
0.735047
0.807268
0.888499
0.971273
1.05407
2.98673
2.96922
2.95205
2.93448
2.92023
2.90636
2.89567
2.88468
2.87638
2.86366
2.84237
2.78563
2.6687
2.4136
1.81886
0.934936
0.580218
0.597982
0.63798
0.692335
0.749852
0.815567
0.891877
0.971341
1.05047
2.98661
2.96936
2.9519
2.93465
2.92006
2.90658
2.89541
2.88514
2.8761
2.86546
2.84376
2.80532
2.70677
2.47672
2.02195
1.10703
0.685694
0.62388
0.659705
0.710085
0.764078
0.823321
0.893357
0.96884
1.0444
2.98635
2.96961
2.95166
2.93489
2.91983
2.90681
2.89521
2.88541
2.87617
2.86719
2.85048
2.81878
2.74447
2.55979
2.20288
1.39758
0.815465
0.65307
0.68211
0.724774
0.776311
0.830736
0.893838
0.96509
1.03716
2.98661
2.96936
2.95192
2.93464
2.9201
2.90655
2.8955
2.88515
2.87681
2.86779
2.85645
2.82692
2.77644
2.64091
2.35941
1.73464
0.966882
0.717208
0.71817
0.74561
0.791771
0.841513
0.896881
0.960477
1.02932
2.98588
2.97008
2.95122
2.93532
2.91943
2.9072
2.89488
2.88578
2.87639
2.86903
2.85906
2.83878
2.79698
2.7036
2.46418
1.99225
1.14929
0.790123
0.747654
0.76903
0.807422
0.854122
0.903174
0.9594
1.02147
2.98755
2.9684
2.95285
2.93371
2.921
2.90566
2.89639
2.88436
2.87783
2.86824
2.86183
2.84689
2.813
2.73874
2.57852
2.17683
1.4184
0.916245
0.784626
0.795975
0.824274
0.866828
0.911504
0.960848
1.01581
2.9862
2.96976
2.95151
2.93502
2.9197
2.90692
2.89515
2.88558