/*--------------------------------*- C++ -*----------------------------------*\
  =========                 |
  \\      /  F ield         | OpenFOAM: The Open Source CFD Toolbox
   \\    /   O peration     | Website:  https://openfoam.org
    \\  /    A nd           | Version:  6
     \\/     M anipulation  |
\*---------------------------------------------------------------------------*/
FoamFile
{
    version     2.0;
    format      ascii;
    class       volScalarField;
    location    "4";
    object      p;
}
// * * * * * * * * * * * * * * * * * * * * * * * * * * * * * * * * * * * * * //

dimensions      [1 -1 -2 0 0 0 0];

internalField   nonuniform List<scalar> 
26250
(
0.957648
0.911022
0.875219
0.843946
0.820484
0.796985
0.782948
0.763606
0.763716
0.773368
0.782508
0.906317
1.02976
1.88749
3.53225
8.2632
8.01043
7.35066
6.81207
6.75637
6.77635
6.87298
7.12725
7.6608
8.41111
0.957648
0.911019
0.875221
0.84394
0.820491
0.796976
0.782959
0.763579
0.763681
0.773215
0.782301
0.905475
1.02814
1.88211
3.51664
8.22634
7.98793
7.34279
6.79204
6.73066
6.77276
6.89628
7.16462
7.67266
8.43681
0.95764
0.91102
0.875223
0.843934
0.820509
0.796949
0.782997
0.763483
0.763569
0.77286
0.781794
0.903934
1.02512
1.87442
3.49449
8.19403
7.94086
7.28977
6.75687
6.70582
6.75765
6.89744
7.18486
7.67254
8.43536
0.95759
0.911081
0.875187
0.84398
0.820486
0.796952
0.783018
0.763142
0.763034
0.771669
0.780123
0.899816
1.01811
1.85915
3.45904
8.08656
7.86499
7.26111
6.74115
6.69849
6.74039
6.87506
7.16791
7.6632
8.42874
0.957489
0.911225
0.875073
0.844148
0.820275
0.797303
0.78247
0.764391
0.762555
0.76539
0.802188
0.837223
1.13352
1.62951
3.52806
7.91765
7.75831
7.19999
6.70136
6.65586
6.69889
6.833
7.12886
7.63571
8.4182
0.95754
0.911146
0.875129
0.84407
0.820392
0.797086
0.782881
0.763351
0.763372
0.769256
0.776898
0.89038
1.00093
1.81356
3.33933
7.79281
7.63043
7.13921
6.6374
6.58721
6.63274
6.76929
7.0674
7.57813
8.38985
0.957495
0.911222
0.875058
0.844183
0.820206
0.797422
0.782235
0.764627
0.761315
0.764024
0.798349
0.830614
1.11198
1.57691
3.37067
7.55053
7.46366
7.03886
6.55743
6.50265
6.54878
6.6833
6.97528
7.47751
8.32005
0.957569
0.911113
0.875167
0.844013
0.82045
0.796989
0.782962
0.763201
0.763252
0.76841
0.77551
0.881688
0.981161
1.74802
3.12899
7.34584
7.27517
6.9506
6.46515
6.40109
6.44374
6.56776
6.83833
7.30956
8.16431
0.957613
0.911065
0.875184
0.843968
0.820476
0.796946
0.783005
0.763141
0.763165
0.768177
0.775287
0.875879
0.971447
1.69284
2.9963
7.05731
7.06658
6.82208
6.3605
6.28509
6.31968
6.42175
6.64679
7.04037
7.83361
0.957787
0.910852
0.875248
0.843967
0.820324
0.79729
0.782347
0.764217
0.760993
0.765415
0.771584
0.866144
0.950429
1.65583
2.86153
6.71791
6.87835
6.67262
6.25706
6.15978
6.17995
6.24411
6.38697
6.62185
7.12754
1.03457
1.06944
1.0934
1.1098
1.12289
1.13221
1.14048
1.14819
1.16129
1.20104
1.25798
1.49901
1.90151
3.43831
7.5305
17.473
15.7033
13.9907
13.4712
13.6509
13.6391
13.7886
14.1735
14.6737
15.1149
1.03457
1.06943
1.0934
1.1098
1.1229
1.1322
1.14048
1.14818
1.16124
1.20089
1.25761
1.4981
1.89896
3.43125
7.50764
17.3721
15.662
13.9371
13.3992
13.4836
13.6321
13.8213
14.173
14.6249
15.0821
1.03456
1.06943
1.0934
1.10979
1.1229
1.13219
1.14049
1.14814
1.16111
1.20048
1.2569
1.49546
1.89405
3.41496
7.46331
17.3447
15.5355
13.8185
13.3084
13.4018
13.5845
13.7748
14.1088
14.5032
14.981
1.03454
1.06945
1.09339
1.10981
1.1229
1.13219
1.14049
1.14805
1.16086
1.19973
1.25579
1.49093
1.88641
3.38856
7.39173
17.099
15.3838
13.6842
13.2347
13.403
13.4771
13.6411
13.9566
14.3082
14.8002
1.03449
1.0695
1.09334
1.10988
1.12283
1.13227
1.14038
1.14788
1.15978
1.1999
1.24607
1.49425
1.85533
3.35696
7.32019
16.8034
15.1796
13.5101
13.0822
13.2186
13.3232
13.4619
13.7432
14.0546
14.5577
1.03451
1.06948
1.09336
1.10985
1.12287
1.13221
1.14048
1.14781
1.16025
1.19759
1.25229
1.47656
1.85871
3.29431
7.1231
16.5274
14.9395
13.2973
12.8867
13.0139
13.1273
13.2405
13.478
13.7371
14.2392
1.03449
1.06951
1.09332
1.1099
1.12279
1.13232
1.14029
1.14784
1.15921
1.19731
1.24145
1.47765
1.81624
3.23912
6.95072
16.0781
14.6526
13.0552
12.6545
12.7578
12.8878
12.9679
13.1469
13.3352
13.8091
1.03453
1.06946
1.09338
1.10982
1.12289
1.13217
1.14047
1.14764
1.15949
1.19482
1.24588
1.45889
1.80407
3.16887
6.64866
15.6461
14.329
12.7892
12.3937
12.4805
12.595
12.6346
12.7377
12.8252
13.218
1.03456
1.06943
1.0934
1.10978
1.1229
1.13215
1.14045
1.14761
1.15905
1.19324
1.24097
1.45035
1.76422
3.11148
6.34381
15.0677
13.9553
12.4928
12.1075
12.174
12.2475
12.2345
12.2298
12.1625
12.3623
1.0346
1.06938
1.09343
1.10975
1.12292
1.13214
1.1404
1.14753
1.15833
1.191
1.23512
1.43782
1.72686
3.03424
6.04436
14.3987
13.5225
12.1663
11.8041
11.8446
11.8539
11.7812
11.6177
11.2696
11.0397
1.00893
1.03178
1.05929
1.0875
1.1132
1.13836
1.15842
1.1825
1.20212
1.25382
1.32824
1.61816
2.10298
3.90926
8.89484
20.4359
17.968
15.9975
15.4701
15.628
15.7753
15.9004
16.2561
16.6456
16.9562
1.00892
1.03178
1.05929
1.0875
1.1132
1.13835
1.15844
1.18244
1.20216
1.25332
1.32899
1.61542
2.10465
3.90356
8.88359
20.338
17.9002
15.9397
15.4485
15.6311
15.7728
15.858
16.1939
16.5506
16.8671
1.00892
1.03178
1.05929
1.0875
1.1132
1.13836
1.15842
1.18246
1.20196
1.25336
1.32712
1.61519
2.09586
3.88853
8.82592
20.2087
17.7633
15.808
15.3705
15.6044
15.7201
15.7457
16.0372
16.3309
16.6516
1.00892
1.03178
1.05929
1.0875
1.11321
1.13834
1.15844
1.18239
1.20187
1.25244
1.32694
1.60962
2.09091
3.8625
8.75058
20.0406
17.5698
15.6202
15.2306
15.5027
15.5945
15.569
15.8024
16.0247
16.34
1.00891
1.03179
1.05929
1.0875
1.11322
1.13833
1.15846
1.18229
1.2017
1.2512
1.32616
1.60198
2.08121
3.82178
8.62248
19.7234
17.3184
15.3936
15.0451
15.3473
15.4146
15.3462
15.5078
15.6496
15.9514
1.00892
1.03178
1.05929
1.0875
1.11322
1.13833
1.15843
1.18227
1.2013
1.25028
1.32281
1.59516
2.05934
3.7604
8.42141
19.3428
17.0309
15.1296
14.8087
15.1156
15.1834
15.0745
15.1512
15.2011
15.4704
1.00893
1.03177
1.0593
1.08749
1.11322
1.13833
1.1584
1.1822
1.20093
1.24856
1.32001
1.58344
2.03561
3.67945
8.16608
18.8969
16.7031
14.8303
14.5282
14.8164
14.8894
14.7401
14.7202
14.6554
14.8593
1.00895
1.03175
1.05931
1.08747
1.11322
1.13832
1.15837
1.18214
1.20041
1.24673
1.31604
1.57077
2.00513
3.58484
7.85128
18.3541
16.3274
14.4979
14.2069
14.4554
14.5182
14.3383
14.2087
13.9948
14.0793
1.00896
1.03173
1.05933
1.08744
1.11324
1.1383
1.15835
1.18203
1.19997
1.24416
1.31306
1.55388
1.97583
3.47872
7.51134
17.7114
15.8968
14.1344
13.8522
14.0521
14.0787
13.8561
13.596
13.1783
13.0255
1.00897
1.0317
1.05939
1.08735
1.11338
1.13809
1.15854
1.1817
1.19892
1.24242
1.30565
1.54272
1.92966
3.37557
7.16325
16.9488
15.4074
13.7437
13.4751
13.6226
13.5929
13.3051
12.8695
12.1703
11.5511
1.03453
1.06945
1.09337
1.10982
1.12288
1.13221
1.14048
1.14815
1.16114
1.20075
1.25749
1.49814
1.90143
3.44025
7.55058
17.4591
15.7116
13.9632
13.3908
13.4594
13.6227
13.8333
14.2216
14.7053
15.1905
1.03448
1.06951
1.09332
1.10989
1.1228
1.13231
1.14036
1.14803
1.16022
1.20167
1.24924
1.5058
1.88247
3.44103
7.58784
17.5017
15.6304
13.9156
13.4253
13.6116
13.6101
13.7598
14.1549
14.6407
15.1164
1.03451
1.06948
1.09334
1.10986
1.12285
1.13224
1.14046
1.14808
1.16097
1.20016
1.25667
1.49427
1.89558
3.41924
7.49813
17.2934
15.5384
13.8302
13.372
13.5485
13.563
13.6964
14.0526
14.4949
14.9607
1.03446
1.06953
1.0933
1.10992
1.12279
1.13232
1.14037
1.14794
1.16005
1.20081
1.24798
1.50046
1.87042
3.40234
7.46821
17.0759
15.3752
13.6849
13.2355
13.3498
13.4632
13.6107
13.9134
14.2871
14.7623
1.03445
1.06955
1.09329
1.10994
1.12278
1.13233
1.14036
1.14789
1.15989
1.19999
1.24677
1.49533
1.85864
3.36507
7.35357
16.8541
15.1609
13.4981
13.0849
13.2361
13.3248
13.4576
13.7163
14.0266
14.5134
1.03447
1.06953
1.09331
1.10991
1.12279
1.13232
1.14033
1.14787
1.15959
1.19883
1.24443
1.48762
1.84053
3.31
7.17794
16.4858
14.9274
13.2935
12.8867
13.0036
13.1365
13.2449
13.4583
13.7071
14.1912
1.03454
1.06944
1.09339
1.10979
1.12292
1.13213
1.14052
1.1477
1.1599
1.19634
1.25
1.46773
1.83792
3.22659
6.9081
16.1305
14.664
13.0636
12.6598
12.7621
12.8979
12.9728
13.1296
13.3041
13.7611
1.03456
1.06942
1.09342
1.10975
1.12295
1.13209
1.14052
1.14761
1.15949
1.19499
1.2452
1.46113
1.79914
3.17611
6.63165
15.6091
14.3411
12.8033
12.4017
12.4881
12.6037
12.6387
12.7219
12.7924
13.1719
1.03457
1.06941
1.09341
1.10976
1.12292
1.13213
1.14045
1.14761
1.15907
1.19327
1.24118
1.45038
1.76495
3.11198
6.34237
15.0687
13.9651
12.5016
12.1146
12.181
12.255
12.2403
12.2174
12.1276
12.3214
1.0346
1.06937
1.09343
1.10973
1.12293
1.13212
1.14042
1.14751
1.15834
1.19108
1.23525
1.43813
1.72753
3.03512
6.04587
14.3994
13.5255
12.168
11.8086
11.85
11.8599
11.7853
11.6101
11.2408
11.0048
0.957586
0.911076
0.87518
0.84398
0.820478
0.796962
0.783006
0.763225
0.763233
0.772051
0.780939
0.903602
1.02612
1.88626
3.5488
8.27147
8.01259
7.32868
6.76783
6.7049
6.75277
6.88981
7.18157
7.69363
8.45855
0.957478
0.911237
0.875056
0.844159
0.820254
0.797327
0.78245
0.764508
0.762907
0.76605
0.804793
0.842002
1.15259
1.68685
3.66581
8.25248
7.99501
7.2792
6.77299
6.73239
6.75843
6.86941
7.14604
7.69279
8.44384
0.957547
0.911125
0.875134
0.844055
0.820398
0.797086
0.782885
0.763483
0.763517
0.770947
0.779384
0.899324
1.01753
1.87122
3.52444
8.20107
7.94587
7.28185
6.76953
6.72599
6.75254
6.86131
7.13319
7.68493
8.42949
0.957443
0.911274
0.875022
0.84421
0.820216
0.797376
0.782447
0.764492
0.763231
0.766413
0.805646
0.842961
1.14881
1.65831
3.60218
8.047
7.85535
7.23675
6.73754
6.68884
6.72841
6.85072
7.12658
7.66456
8.42805
0.957428
0.911299
0.875003
0.844247
0.820175
0.797426
0.782399
0.76447
0.763345
0.766564
0.80519
0.841447
1.14049
1.63083
3.54858
7.92545
7.74599
7.16212
6.68822
6.64981
6.69086
6.81856
7.10032
7.62414
8.4142
0.957461
0.911258
0.875032
0.844208
0.820198
0.797415
0.782322
0.764571
0.76232
0.765273
0.802252
0.836695
1.12798
1.60759
3.46999
7.75464
7.61767
7.1048
6.62801
6.58308
6.62854
6.7604
7.04535
7.56006
8.37694
0.957574
0.91109
0.875184
0.843974
0.820503
0.796917
0.783053
0.763018
0.762906
0.769848
0.777512
0.888651
0.99542
1.78357
3.23788
7.58974
7.46863
7.04953
6.55251
6.4963
6.54219
6.67266
6.95244
7.45563
8.29681
0.957605
0.911056
0.875225
0.843907
0.820574
0.796805
0.783154
0.762861
0.762829
0.769447
0.776909
0.883459
0.984934
1.7396
3.11963
7.33815
7.2787
6.96463
6.46671
6.39791
6.43917
6.55825
6.81601
7.28567
8.13428
0.957624
0.911046
0.875198
0.843936
0.820502
0.796906
0.783034
0.763104
0.763119
0.768268
0.775394
0.876159
0.971403
1.69402
2.99571
7.05729
7.07584
6.83209
6.36516
6.28567
6.31829
6.41494
6.62717
7.0162
7.80225
0.957775
0.910844
0.875249
0.843947
0.820357
0.797238
0.782452
0.764074
0.761268
0.765614
0.771787
0.866373
0.950553
1.65649
2.86234
6.71948
6.88167
6.6757
6.25965
6.16072
6.17919
6.23881
6.3722
6.60061
7.09977
0.957455
0.911339
0.874914
0.844391
0.819891
0.797839
0.781564
0.765103
0.758554
0.760914
0.78679
0.810764
1.04807
1.38539
2.86791
6.27181
6.65671
6.49819
6.15602
6.02799
6.02609
6.0313
6.0254
5.93486
5.37173
0.957674
0.911029
0.875068
0.844265
0.819928
0.797877
0.781417
0.765249
0.758107
0.761256
0.766559
0.84898
0.924266
1.52195
2.57012
5.88457
6.40573
6.29468
6.04192
5.89873
5.85488
5.80423
5.69688
5.44603
4.81584
0.957388
0.91145
0.874778
0.844604
0.819598
0.798259
0.780891
0.765751
0.756001
0.757313
0.779056
0.797604
1.00204
1.26435
2.54197
5.43349
6.13093
6.07833
5.92413
5.7717
5.69003
5.5933
5.43435
5.15388
4.6049
0.957605
0.91116
0.874883
0.844517
0.819553
0.798398
0.780595
0.766137
0.75506
0.757648
0.761799
0.829517
0.891149
1.36427
2.18881
4.87288
5.91606
5.89885
5.81389
5.65462
5.53996
5.40747
5.21678
4.92691
4.47181
0.95755
0.911253
0.874758
0.844704
0.819279
0.798803
0.779977
0.766852
0.753159
0.755283
0.758523
0.81524
0.866578
1.25937
1.92087
4.17783
5.76326
5.79237
5.72587
5.57157
5.41098
5.25083
5.04487
4.76053
4.36709
0.957343
0.911547
0.874563
0.844966
0.819038
0.799097
0.779602
0.767154
0.751841
0.752162
0.762984
0.772865
0.892772
1.02393
1.76785
3.29966
5.62461
5.7604
5.68795
5.51063
5.30367
5.12018
4.90996
4.63793
4.28809
0.957341
0.911541
0.874534
0.845031
0.818931
0.799285
0.779285
0.767523
0.750544
0.750502
0.757885
0.765204
0.856677
0.943103
1.54745
2.55778
5.30299
5.68687
5.62033
5.44931
5.20752
5.0076
4.79838
4.543
4.22814
0.95735
0.911521
0.874544
0.845023
0.818935
0.799291
0.779264
0.767537
0.7504
0.750372
0.754115
0.760972
0.830046
0.902693
1.37878
2.1894
4.68669
5.50745
5.47817
5.36267
5.12369
4.91076
4.70289
4.46428
4.18011
0.957244
0.91165
0.874535
0.844974
0.819114
0.798948
0.779845
0.766537
0.751757
0.747273
0.749584
0.754854
0.809096
0.870675
1.23996
1.89647
3.97434
5.2695
5.30682
5.24178
5.07532
4.83848
4.62599
4.4001
4.1414
0.95746
0.911311
0.87482
0.844578
0.819586
0.798275
0.780767
0.765085
0.753405
0.742201
0.742744
0.754675
0.76499
0.879366
1.0073
1.6793
3.03981
5.00937
5.21908
5.17025
5.03381
4.793
4.57354
4.35346
4.11231
0.95741
0.911373
0.87483
0.844506
0.819735
0.798004
0.78117
0.764439
0.754107
0.740295
0.740849
0.743067
0.772407
0.801895
0.997065
1.3135
2.38174
4.49123
5.08864
5.07085
4.9811
4.78234
4.54323
4.32073
4.09151
0.957534
0.911202
0.874928
0.844403
0.819796
0.797958
0.781177
0.764445
0.753986
0.740043
0.739383
0.742024
0.747293
0.804746
0.863045
1.24006
1.86415
3.79898
4.89528
4.95657
4.90519
4.76583
4.51777
4.29351
4.07464
0.957413
0.911391
0.874775
0.844614
0.819544
0.798315
0.780656
0.765203
0.752723
0.741531
0.734815
0.735948
0.748508
0.762903
0.867601
1.00937
1.63085
2.87091
4.61013
4.87256
4.83884
4.7321
4.51276
4.28267
4.06614
0.957393
0.911428
0.874716
0.844717
0.819393
0.798552
0.780302
0.765719
0.751887
0.742427
0.731741
0.732008
0.739703
0.746694
0.822569
0.895143
1.3616
2.10392
4.0686
4.72792
4.72331
4.66819
4.5193
4.28417
4.06627
0.957416
0.911391
0.874722
0.844723
0.819364
0.798618
0.780196
0.765893
0.751584
0.742752
0.730498
0.730478
0.73362
0.738392
0.789669
0.837193
1.16703
1.67864
3.27959
4.49656
4.64238
4.60832
4.50633
4.29319
4.06995
0.957329
0.911506
0.874674
0.844764
0.819382
0.79855
0.780351
0.76561
0.752049
0.741925
0.73155
0.727568
0.729098
0.733178
0.763291
0.804234
0.995827
1.3347
2.31632
4.1594
4.55388
4.54023
4.47449
4.31651
4.08285
0.957345
0.911476
0.874714
0.844689
0.819499
0.798367
0.780629
0.765177
0.752691
0.740906
0.732634
0.724127
0.724639
0.727033
0.746506
0.772755
0.90184
1.12442
1.85944
3.42225
4.35922
4.4513
4.41712
4.31406
4.10543
0.957391
0.911408
0.874755
0.844645
0.81952
0.798348
0.780636
0.765182
0.75267
0.740878
0.732589
0.723195
0.721329
0.722814
0.734397
0.749332
0.839354
0.963806
1.48449
2.49828
4.01348
4.35666
4.34577
4.28891
4.1485
0.957394
0.911411
0.874743
0.844664
0.819477
0.798419
0.780513
0.765383
0.752339
0.741389
0.731683
0.724178
0.717448
0.717819
0.725098
0.731581
0.795283
0.851947
1.23424
1.78667
3.35026
4.16813
4.26419
4.2357
4.14669
0.957427
0.911368
0.874761
0.844653
0.819467
0.798448
0.780449
0.76549
0.752161
0.741653
0.731236
0.724657
0.715802
0.715797
0.719442
0.724089
0.761532
0.805009
1.03202
1.40331
2.49375
3.84469
4.17634
4.16998
4.12684
0.957377
0.911437
0.874727
0.844692
0.81945
0.798456
0.780464
0.765443
0.752251
0.741485
0.731499
0.724146
0.716369
0.713737
0.714946
0.718379
0.73909
0.770582
0.900859
1.13111
1.82704
3.20449
3.99317
4.10911
4.08648
0.95738
0.911429
0.874739
0.844674
0.81948
0.798408
0.780539
0.765326
0.752429
0.741201
0.73194
0.723341
0.717382
0.710258
0.710733
0.711881
0.725747
0.739229
0.832599
0.943397
1.43483
2.35368
3.64869
4.01499
4.01861
0.957407
0.911392
0.874758
0.844649
0.819497
0.798392
0.780552
0.765317
0.752438
0.741204
0.731905
0.723443
0.716978
0.71053
0.70784
0.70858
0.715532
0.722773
0.780538
0.83478
1.16585
1.65665
2.98622
3.81496
3.96352
0.957413
0.911386
0.874758
0.844651
0.819487
0.79841
0.78052
0.765372
0.752351
0.741339
0.731694
0.723761
0.71641
0.711137
0.705539
0.705695
0.709506
0.713895
0.746505
0.784569
0.972581
1.27458
2.12297
3.44234
3.8526
0.957396
0.911412
0.874744
0.844669
0.819473
0.798426
0.7805
0.765393
0.752319
0.741376
0.731638
0.723828
0.716295
0.711187
0.705005
0.704242
0.705372
0.708385
0.725483
0.751373
0.856273
1.03815
1.59432
2.71615
3.61298
0.957398
0.911409
0.874748
0.844665
0.819478
0.798417
0.780514
0.765368
0.752359
0.741309
0.731749
0.72364
0.716595
0.710627
0.705646
0.701717
0.702056
0.703585
0.712854
0.727001
0.78787
0.886142
1.21541
1.83687
3.18582
0.957419
0.911381
0.874763
0.844645
0.819493
0.7984
0.780532
0.765348
0.752388
0.741271
0.731805
0.723562
0.716702
0.71045
0.705742
0.700893
0.699333
0.699939
0.705162
0.710872
0.752604
0.793657
1.03064
1.37822
2.40197
0.957434
0.911362
0.874773
0.844633
0.819499
0.798395
0.780533
0.765351
0.752378
0.741294
0.731764
0.723635
0.716575
0.710654
0.70535
0.701302
0.697563
0.697773
0.700294
0.704292
0.725019
0.757607
0.875609
1.08772
1.66748
0.957409
0.911398
0.874754
0.844656
0.819483
0.79841
0.780519
0.765363
0.752362
0.741309
0.731741
0.723661
0.716535
0.710704
0.705256
0.70132
0.697013
0.696004
0.696717
0.698777
0.709876
0.725839
0.796949
0.898316
1.27409
0.957406
0.911401
0.874754
0.844658
0.819484
0.798408
0.780522
0.765357
0.752372
0.74129
0.73177
0.723611
0.716617
0.710563
0.70548
0.700895
0.697475
0.694061
0.694179
0.694915
0.701209
0.70845
0.752517
0.797297
1.04853
0.957429
0.911369
0.874771
0.844637
0.819498
0.798395
0.780534
0.765347
0.752383
0.741282
0.731781
0.723602
0.716626
0.710558
0.705472
0.700908
0.697332
0.693897
0.69229
0.692656
0.695713
0.69997
0.722446
0.754763
0.877687
0.957437
0.91136
0.874775
0.844631
0.819501
0.798392
0.780535
0.765349
0.75238
0.74129
0.731768
0.723626
0.716586
0.710623
0.705362
0.70108
0.697017
0.694236
0.690962
0.690999
0.692315
0.694402
0.706438
0.72374
0.794159
0.957417
0.911387
0.874761
0.844648
0.81949
0.798403
0.780526
0.765354
0.752374
0.741292
0.731766
0.723623
0.716592
0.710609
0.705388
0.701028
0.697099
0.694029
0.691069
0.689652
0.690016
0.691148
0.697658
0.706707
0.749985
0.957417
0.911387
0.874762
0.844648
0.819491
0.798401
0.780528
0.76535
0.752378
0.741284
0.731777
0.723604
0.716619
0.710566
0.705454
0.700925
0.697251
0.69377
0.691349
0.688661
0.688734
0.689311
0.69325
0.699079
0.725228
0.957433
0.911367
0.874773
0.844634
0.8195
0.798392
0.780536
0.765344
0.752385
0.741278
0.731784
0.723597
0.716629
0.710554
0.705469
0.700906
0.697272
0.69374
0.691333
0.688503
0.687897
0.688289
0.691138
0.695154
0.717089
0.957437
0.911363
0.874775
0.844631
0.819501
0.79839
0.780537
0.765343
0.752385
0.741279
0.731783
0.7236
0.716624
0.710564
0.705453
0.700931
0.697232
0.693799
0.691227
0.688604
0.687472
0.687783
0.690276
0.693845
0.714069
0.957437
0.911362
0.874775
0.844631
0.819501
0.79839
0.780535
0.765344
0.752383
0.741281
0.731779
0.723606
0.716615
0.710576
0.705437
0.700955
0.697198
0.693845
0.691162
0.68867
0.687321
0.687612
0.689999
0.693575
0.713295
0.957434
0.911368
0.874773
0.844635
0.819498
0.798393
0.780533
0.765346
0.75238
0.741283
0.731775
0.723609
0.71661
0.710582
0.705428
0.700967
0.69718
0.69387
0.691119
0.688718
0.687108
0.687323
0.689646
0.692383
0.712847
0.957436
0.911365
0.874774
0.844633
0.819499
0.798392
0.780534
0.765346
0.75238
0.741283
0.731774
0.72361
0.716609
0.710583
0.705426
0.700969
0.697179
0.69387
0.691126
0.688708
0.687195
0.687444
0.689701
0.692919
0.712143
0.957437
0.911364
0.874775
0.844632
0.8195
0.798391
0.780534
0.765345
0.752381
0.741283
0.731775
0.72361
0.716609
0.710583
0.705427
0.700966
0.697183
0.693864
0.691137
0.688695
0.687251
0.687519
0.689841
0.693228
0.712636
1.03446
1.06952
1.09338
1.10977
1.12302
1.1319
1.14092
1.14631
1.15981
1.18041
1.25584
1.35491
1.83733
2.72902
5.934
13.6041
13.0025
11.8283
11.4962
11.497
11.45
11.268
10.8844
10.0895
8.20549
1.03451
1.06946
1.09344
1.1097
1.12311
1.13177
1.14107
1.14592
1.15912
1.17595
1.25125
1.33123
1.8042
2.58927
5.57818
12.7712
12.4292
11.5556
11.2144
11.1594
11.0307
10.7242
10.1488
9.15456
7.2046
1.03441
1.06959
1.0933
1.10989
1.1229
1.132
1.14076
1.14565
1.15759
1.17532
1.2419
1.32261
1.75202
2.46632
5.23691
11.8395
11.8298
11.3585
10.9608
10.8309
10.6251
10.212
9.55688
8.57749
7.06852
1.03447
1.06954
1.09328
1.10992
1.12281
1.13211
1.14055
1.14565
1.1568
1.16986
1.23315
1.29566
1.69631
2.30868
4.76423
10.7802
11.4439
11.152
10.7311
10.5256
10.2569
9.79696
9.13732
8.24627
7.06363
1.03443
1.0696
1.0932
1.11003
1.12261
1.13248
1.13987
1.14703
1.15388
1.17567
1.20165
1.33818
1.49344
2.39236
4.0821
9.54564
11.1945
10.9819
10.5354
10.256
9.94267
9.47633
8.8447
8.0462
7.06393
1.03431
1.06972
1.09313
1.11012
1.12259
1.13243
1.14007
1.14609
1.15418
1.16716
1.2118
1.26565
1.55077
1.9742
3.74162
7.99308
11.0465
10.8642
10.39
10.0176
9.67295
9.21736
8.62837
7.91051
7.06512
1.03426
1.06978
1.09307
1.1102
1.12249
1.13258
1.13984
1.14631
1.15311
1.16446
1.20027
1.24767
1.46992
1.80624
3.167
6.35077
10.8965
10.748
10.2672
9.80421
9.43391
8.99713
8.45456
7.80751
7.06728
1.03427
1.06977
1.09304
1.11026
1.12237
1.13279
1.13943
1.14697
1.15143
1.16423
1.18146
1.25228
1.34305
1.76756
2.55552
5.08036
10.4073
10.4729
10.1457
9.60757
9.21954
8.80427
8.30449
7.72051
7.06501
1.03426
1.06978
1.09304
1.11025
1.1224
1.13275
1.13945
1.14678
1.15075
1.1613
1.1749
1.23442
1.29666
1.66133
2.22883
4.3734
9.29677
10.084
9.88995
9.43799
9.03749
8.63759
8.17804
7.64717
7.05981
1.03433
1.06969
1.09315
1.1101
1.12257
1.13251
1.13969
1.14638
1.15057
1.15884
1.17183
1.21633
1.27177
1.55401
1.96943
3.69954
7.6126
9.72675
9.63503
9.31751
8.88934
8.49598
8.0669
7.58265
7.05089
1.03436
1.06963
1.09323
1.10997
1.12274
1.13222
1.14011
1.14567
1.15166
1.15664
1.17113
1.19147
1.27518
1.3859
1.90239
2.87887
5.92103
9.42297
9.44002
9.2332
8.79165
8.38667
7.97695
7.52903
7.04178
1.03442
1.06956
1.09328
1.10989
1.12282
1.13211
1.14023
1.14549
1.15161
1.15571
1.16658
1.18337
1.24199
1.33119
1.68172
2.35206
4.42641
8.71691
9.26729
9.11131
8.72485
8.3003
7.89944
7.47993
7.03182
1.0344
1.06959
1.09323
1.10997
1.12271
1.13228
1.13999
1.14579
1.15096
1.15564
1.16164
1.18063
1.20304
1.31951
1.44805
2.18317
3.4759
7.38436
8.97706
8.91392
8.66762
8.22816
7.83416
7.43778
7.02133
1.03435
1.06966
1.09316
1.11007
1.12261
1.13241
1.13985
1.1459
1.15089
1.15483
1.16106
1.1701
1.2043
1.24213
1.45365
1.73964
2.96655
5.59449
8.58006
8.72668
8.57203
8.19965
7.78794
7.40386
7.01374
1.03434
1.06968
1.09315
1.11009
1.12258
1.13246
1.13979
1.14598
1.15068
1.15497
1.1595
1.16714
1.19002
1.22308
1.35796
1.55181
2.36598
3.93188
7.78131
8.56328
8.46293
8.17464
7.76082
7.37984
7.00537
1.03429
1.06972
1.09314
1.11011
1.12259
1.13243
1.13985
1.1459
1.15076
1.15484
1.15907
1.16476
1.18091
1.20534
1.30062
1.42431
2.02674
3.08521
6.26244
8.25418
8.25735
8.11556
7.76643
7.37245
7.00605
1.03431
1.0697
1.09316
1.11007
1.12265
1.13235
1.13995
1.14577
1.15091
1.15461
1.15887
1.16305
1.17441
1.19238
1.25557
1.35356
1.7308
2.44979
4.57523
7.66409
8.10523
8.01423
7.7569
7.37579
7.00985
1.03436
1.06964
1.0932
1.11002
1.12267
1.13233
1.13994
1.1458
1.15082
1.15471
1.15832
1.16196
1.16797
1.18634
1.20971
1.32163
1.44779
2.13096
3.26281
6.48834
7.86423
7.85232
7.72115
7.39972
7.02314
1.03436
1.06965
1.09319
1.11003
1.12265
1.13236
1.13991
1.14583
1.15079
1.15465
1.15838
1.16087
1.16654
1.17542
1.20457
1.24352
1.42136
1.6723
2.69736
4.78258
7.35425
7.72287
7.64462
7.41268
7.05135
1.03436
1.06964
1.09319
1.11004
1.12264
1.13237
1.13988
1.14587
1.15073
1.15471
1.15824
1.16093
1.16475
1.17114
1.18999
1.2182
1.32802
1.47814
2.13546
3.31296
6.33382
7.50086
7.49707
7.39024
7.11557
1.03433
1.06968
1.09317
1.11006
1.12263
1.13239
1.13987
1.14587
1.15072
1.15472
1.15818
1.16095
1.16409
1.16856
1.18098
1.20037
1.27086
1.37136
1.79464
2.55394
4.75634
7.01691
7.38063
7.32487
7.14045
1.03433
1.06967
1.09318
1.11005
1.12264
1.13237
1.1399
1.14584
1.15077
1.15468
1.15821
1.1609
1.16383
1.16687
1.17476
1.18794
1.22992
1.30151
1.53968
2.00182
3.30997
6.0035
7.14524
7.19803
7.11391
1.03435
1.06966
1.09319
1.11004
1.12265
1.13236
1.1399
1.14584
1.15077
1.15468
1.15821
1.16085
1.1637
1.16585
1.17113
1.17973
1.20731
1.24824
1.40942
1.65954
2.57939
4.44987
6.62874
7.07653
7.04263
1.03436
1.06964
1.09319
1.11004
1.12264
1.13237
1.13989
1.14587
1.15073
1.15473
1.15812
1.16093
1.16349
1.16544
1.16885
1.17452
1.19171
1.21675
1.31708
1.45145
2.02589
3.03511
5.57918
6.80867
6.92795
1.03435
1.06965
1.09318
1.11005
1.12263
1.13238
1.13987
1.14588
1.1507
1.15476
1.15809
1.16096
1.1634
1.16545
1.16782
1.17166
1.18232
1.19914
1.25821
1.34742
1.68931
2.30864
4.03342
6.20884
6.77769
1.03435
1.06966
1.09318
1.11005
1.12263
1.13238
1.13988
1.14588
1.15071
1.15475
1.1581
1.16096
1.16336
1.16549
1.16721
1.1702
1.17498
1.19033
1.2101
1.30164
1.40791
1.92977
2.76456
5.02594
6.4535
1.03436
1.06965
1.09319
1.11004
1.12264
1.13237
1.13988
1.14587
1.15072
1.15474
1.15811
1.16093
1.1634
1.16541
1.16737
1.16899
1.17298
1.17936
1.20036
1.22883
1.35365
1.52128
2.18192
3.40819
5.75746
1.03437
1.06964
1.0932
1.11003
1.12265
1.13237
1.13989
1.14587
1.15072
1.15475
1.1581
1.16096
1.16335
1.16547
1.1672
1.16897
1.17097
1.17647
1.1845
1.21505
1.254
1.42843
1.68461
2.58994
4.37121
1.03436
1.06965
1.09319
1.11004
1.12264
1.13238
1.13988
1.14588
1.15071
1.15476
1.15808
1.16098
1.16332
1.1655
1.16713
1.16892
1.17027
1.17356
1.17892
1.19569
1.2205
1.31612
1.45128
1.97664
2.89886
1.03435
1.06966
1.09318
1.11005
1.12264
1.13238
1.13988
1.14587
1.15071
1.15475
1.1581
1.16095
1.16337
1.16542
1.16723
1.16871
1.17026
1.17193
1.17621
1.18323
1.20606
1.23947
1.37153
1.56737
2.27296
1.03436
1.06965
1.09319
1.11004
1.12264
1.13237
1.13989
1.14587
1.15072
1.15474
1.15811
1.16094
1.16338
1.16541
1.16723
1.16867
1.17015
1.17126
1.17387
1.17815
1.19144
1.20993
1.28915
1.3827
1.82496
1.03437
1.06964
1.09319
1.11004
1.12265
1.13237
1.13989
1.14586
1.15072
1.15474
1.1581
1.16095
1.16336
1.16544
1.16719
1.16874
1.17001
1.1713
1.17259
1.1759
1.18119
1.1986
1.22367
1.32131
1.46835
1.03436
1.06965
1.09319
1.11005
1.12264
1.13238
1.13988
1.14587
1.15072
1.15474
1.1581
1.16095
1.16336
1.16543
1.1672
1.16871
1.17004
1.17113
1.17234
1.174
1.17835
1.18549
1.20867
1.24406
1.3748
1.03436
1.06966
1.09319
1.11005
1.12264
1.13238
1.13988
1.14587
1.15072
1.15474
1.15811
1.16094
1.16338
1.16541
1.16722
1.16867
1.17007
1.17108
1.17227
1.17335
1.17608
1.18063
1.19467
1.21664
1.2959
1.03436
1.06965
1.09319
1.11004
1.12265
1.13237
1.13989
1.14586
1.15072
1.15473
1.15811
1.16094
1.16338
1.16541
1.16723
1.16867
1.17007
1.17107
1.17221
1.17303
1.175
1.17829
1.18833
1.2041
1.26098
1.03437
1.06965
1.09319
1.11004
1.12265
1.13237
1.13989
1.14586
1.15072
1.15473
1.15811
1.16094
1.16338
1.16541
1.16722
1.16868
1.17006
1.17107
1.17219
1.17288
1.17456
1.17723
1.18564
1.19786
1.24922
1.03437
1.06964
1.0932
1.11003
1.12265
1.13236
1.13989
1.14586
1.15072
1.15473
1.15811
1.16094
1.16338
1.16542
1.16721
1.16869
1.17003
1.17111
1.17211
1.17303
1.17408
1.17739
1.18123
1.20126
1.22035
1.03437
1.06964
1.0932
1.11004
1.12265
1.13237
1.13989
1.14586
1.15072
1.15474
1.1581
1.16095
1.16337
1.16543
1.1672
1.16871
1.17002
1.17112
1.17211
1.17288
1.17427
1.1762
1.18384
1.19163
1.24009
1.03437
1.06964
1.0932
1.11003
1.12265
1.13237
1.13989
1.14586
1.15072
1.15474
1.1581
1.16095
1.16337
1.16543
1.1672
1.16871
1.17001
1.17114
1.17208
1.17304
1.17413
1.17713
1.18169
1.19912
1.22037
1.03437
1.06964
1.0932
1.11003
1.12265
1.13237
1.13989
1.14586
1.15072
1.15474
1.1581
1.16095
1.16337
1.16543
1.1672
1.16871
1.17001
1.17113
1.17209
1.17304
1.17413
1.17711
1.18166
1.19875
1.21981
1.00892
1.0317
1.05947
1.08715
1.11381
1.1373
1.15987
1.17908
1.202
1.23254
1.32757
1.45733
2.03054
3.11697
6.95902
16.0451
14.8085
13.3516
13.0935
13.1768
13.0875
12.6938
12.0304
10.8974
8.51977
1.00891
1.03171
1.05948
1.08713
1.11386
1.13724
1.15993
1.17886
1.20154
1.23055
1.31943
1.44269
1.97618
2.98783
6.55257
15.0831
14.1948
13.0044
12.7383
12.7423
12.5784
12.0585
11.1752
9.81441
7.39411
1.00889
1.03176
1.05937
1.08734
1.11348
1.13789
1.15873
1.18078
1.19667
1.2333
1.28528
1.48837
1.76613
3.04265
5.88967
14.0622
13.6072
12.7424
12.4355
12.3409
12.0741
11.4524
10.4918
9.17583
7.32682
1.00882
1.03188
1.05925
1.08745
1.11336
1.13797
1.15867
1.18055
1.19638
1.22964
1.27645
1.46123
1.70311
2.86939
5.35415
12.8962
13.0604
12.5999
12.1601
11.9647
11.6179
10.9528
10.0265
8.84928
7.36751
1.00888
1.03175
1.0594
1.08722
1.11371
1.13736
1.15969
1.17856
1.19981
1.22015
1.2902
1.36615
1.77685
2.42509
4.98462
11.4862
12.788
12.4213
11.8944
11.6083
11.2263
10.5824
9.72259
8.68248
7.46031
1.00882
1.0318
1.0594
1.08718
1.11386
1.1371
1.16007
1.17798
1.19993
1.22039
1.27813
1.35754
1.69549
2.25991
4.41178
9.82966
12.6758
12.3011
11.6552
11.2886
10.8921
10.2916
9.50818
8.58608
7.54555
1.00877
1.03186
1.05936
1.08722
1.11384
1.13712
1.16004
1.17788
1.19934
1.21726
1.26553
1.33343
1.60701
2.05866
3.743
7.9562
12.6405
12.2153
11.4456
11.0065
10.6025
10.0479
9.33958
8.51564
7.60549
1.00874
1.0319
1.05931
1.0873
1.11374
1.13725
1.15986
1.17792
1.19864
1.21385
1.25328
1.30822
1.52352
1.85864
3.1232
6.08988
12.404
12.0204
11.2694
10.7608
10.3474
9.8358
9.1962
8.45676
7.6504
1.00875
1.0319
1.05928
1.08735
1.11363
1.13742
1.15958
1.17818
1.19766
1.21178
1.24385
1.28918
1.46702
1.69689
2.80483
5.05236
11.4471
11.5288
11.1335
10.5479
10.1144
9.64379
9.06844
8.40575
7.68329
1.00877
1.03189
1.05926
1.08742
1.11346
1.13775
1.15894
1.17926
1.19538
1.21479
1.23398
1.29379
1.36914
1.71918
2.27954
4.42717
9.48311
11.1186
10.8792
10.3625
9.91483
9.4738
8.95363
8.35588
7.70643
1.00883
1.03181
1.05933
1.08733
1.11354
1.13765
1.15904
1.1791
1.19536
1.21377
1.2295
1.27799
1.3331
1.60499
2.01176
3.60528
7.43303
10.9396
10.7332
10.2453
9.76587
9.32934
8.85028
8.30966
7.72136
1.00885
1.03178
1.05937
1.08725
1.11364
1.13747
1.15931
1.17859
1.19603
1.21154
1.22908
1.25625
1.33116
1.45535
1.89232
2.77824
5.42391
10.5215
10.5074
10.1962
9.66859
9.21077
8.75978
8.264
7.72759
1.00888
1.03174
1.0594
1.08723
1.11367
1.13743
1.15936
1.17847
1.1961
1.21073
1.22766
1.24543
1.3086
1.37963
1.73818
2.3296
4.42473
9.26759
10.2422
10.0516
9.59865
9.11117
8.67462
8.21799
7.72744
1.00875
1.03194
1.05924
1.08742
1.1135
1.13761
1.15916
1.17874
1.19559
1.21144