/*--------------------------------*- C++ -*----------------------------------*\
  =========                 |
  \\      /  F ield         | OpenFOAM: The Open Source CFD Toolbox
   \\    /   O peration     | Website:  https://openfoam.org
    \\  /    A nd           | Version:  6
     \\/     M anipulation  |
\*---------------------------------------------------------------------------*/
FoamFile
{
    version     2.0;
    format      ascii;
    class       surfaceScalarField;
    location    "4";
    object      phi;
}
// * * * * * * * * * * * * * * * * * * * * * * * * * * * * * * * * * * * * * //

dimensions      [1 0 -1 0 0 0 0];

internalField   nonuniform List<scalar> 
72625
(
0.00162356
8.77484e-11
5.87421e-05
0.00157665
9.54247e-10
4.69146e-05
0.00153806
2.49824e-10
3.85915e-05
0.00150613
1.39543e-09
3.19292e-05
0.00147905
-1.78433e-10
2.70769e-05
0.00145656
1.36172e-09
2.24899e-05
0.00143681
-3.46539e-10
1.97535e-05
0.00142086
4.07838e-09
1.59404e-05
0.00140578
1.24035e-08
1.50671e-05
0.00139164
4.42611e-08
1.40836e-05
0.00138324
8.57988e-08
8.31836e-06
0.00136627
2.74833e-07
1.66447e-05
0.00138531
6.32973e-07
-1.96312e-05
0.00133675
2.34475e-06
4.61134e-05
0.0015675
7.65625e-06
-0.000238534
0.00179386
4.20012e-05
-0.000268645
0.00169148
4.71436e-05
5.49716e-05
0.00149119
4.701e-05
0.000153099
0.00138352
6.01598e-05
4.73983e-05
0.00136337
7.41785e-05
-5.41102e-05
0.00128024
6.99744e-05
1.30688e-05
0.00117693
5.40255e-05
4.91918e-05
0.00102159
3.52072e-05
0.000120044
0.000676319
3.79709e-05
0.000307184
9.47129e-06
0.000666737
0.00162356
1.50794e-09
5.87415e-05
0.00157665
2.71373e-09
4.69149e-05
0.00153806
-9.74002e-11
3.85913e-05
0.00150613
2.77501e-09
3.19293e-05
0.00147905
-3.07852e-09
2.70774e-05
0.00145656
4.44875e-09
2.24889e-05
0.00143681
-4.87103e-09
1.97555e-05
0.00142086
1.49251e-08
1.59346e-05
0.00140576
4.47073e-08
1.50689e-05
0.00139162
1.28171e-07
1.40518e-05
0.00138308
2.5573e-07
8.36733e-06
0.00136619
6.41564e-07
1.64683e-05
0.00138488
1.42986e-06
-1.94466e-05
0.00133755
4.15197e-06
4.54156e-05
0.00156552
1.30795e-05
-0.000233515
0.00180811
5.72686e-05
-0.000258157
0.00172659
9.17975e-05
3.66513e-05
0.00151702
0.000114644
0.000141855
0.00142671
0.0001128
3.76214e-05
0.00138087
0.000118453
1.5263e-06
0.001337
0.000124358
-1.05621e-05
0.00126648
0.000119224
5.27681e-06
0.00110643
0.000104934
9.0256e-05
0.000755489
0.000109297
0.000279534
0.000114124
0.000650802
0.00162356
9.22986e-09
5.87395e-05
0.00157665
-1.83934e-09
4.69161e-05
0.00153805
3.53191e-09
3.85909e-05
0.00150613
-3.08574e-09
3.1929e-05
0.00147905
-2.08571e-09
2.70796e-05
0.00145656
4.39654e-09
2.24851e-05
0.00143681
-1.44186e-08
1.97613e-05
0.00142083
7.39887e-08
1.59227e-05
0.00140574
8.31307e-08
1.50582e-05
0.00139151
3.12463e-07
1.4033e-05
0.00138272
7.28729e-07
8.31391e-06
0.00136614
6.80547e-07
1.64872e-05
0.00138268
4.55571e-06
-1.96418e-05
0.00133753
3.87117e-06
4.53324e-05
0.00155489
3.05723e-05
-0.000234978
0.00176803
0.000132449
-0.000288651
0.00166204
0.000159734
3.78473e-05
0.00148269
0.000159077
0.000134877
0.00140078
0.000159715
3.49816e-05
0.00134393
0.000165214
1.00709e-05
0.00130767
0.000178627
-1.80359e-05
0.00124177
0.000194115
-9.03558e-06
0.00106882
0.000199184
7.86424e-05
0.000710593
0.000199112
0.000268339
0.000208742
0.000615973
0.00162358
1.89269e-08
5.87239e-05
0.00157666
-1.80857e-08
4.6933e-05
0.00153807
1.80203e-08
3.85775e-05
0.00150615
-2.5454e-08
3.19428e-05
0.00147904
3.162e-08
2.70685e-05
0.00145662
-5.86313e-08
2.24909e-05
0.00143676
8.7459e-08
1.97608e-05
0.00142119
-2.16981e-07
1.58718e-05
0.00140651
5.91448e-08
1.49768e-05
0.00139155
1.18331e-06
1.38184e-05
0.00138834
-4.12464e-06
8.16723e-06
0.00135834
1.4668e-05
1.58424e-05
0.00141268
-2.93174e-05
-2.04813e-05
0.00131732
5.58452e-05
4.32635e-05
0.00157074
5.62718e-06
-0.000228616
0.00178526
0.000183236
-0.000265623
0.00170569
0.000219261
1.98313e-05
0.00150571
0.000229071
0.000129947
0.00141047
0.000227646
2.7306e-05
0.00135908
0.000247014
-3.04244e-05
0.00129325
0.0002569
-1.24611e-05
0.00121956
0.00027036
-2.58482e-06
0.0010544
0.000288714
7.5589e-05
0.000687288
0.000302272
0.000263893
0.000307224
0.000588843
0.00162366
-9.50715e-09
5.8685e-05
0.00157665
1.68667e-08
4.69782e-05
0.00153814
-1.1431e-08
3.85361e-05
0.00150611
1.6992e-08
3.19918e-05
0.00147915
-2.51813e-08
2.70095e-05
0.00145647
4.48698e-08
2.25769e-05
0.00143701
-8.45084e-08
1.96319e-05
0.00142038
2.03908e-07
1.61762e-05
0.00140607
-1.64124e-07
1.49349e-05
0.00139529
-6.67754e-07
1.24055e-05
0.00137039
5.45189e-06
1.53255e-05
0.00140082
-1.1574e-05
-4.007e-06
0.00130413
4.19958e-05
2.47686e-05
0.00145996
-3.89182e-05
-6.0992e-05
0.00146014
8.78228e-05
-8.22675e-05
0.00175781
0.000179693
-0.000294556
0.00170272
0.000261193
1.2914e-05
0.00153432
0.00027162
0.00012582
0.00144831
0.000285171
2.849e-05
0.00139381
0.000309375
-7.86983e-06
0.00132888
0.000333886
-1.20661e-05
0.00124212
0.000355785
1.31195e-06
0.00107115
0.000383077
7.65676e-05
0.000699858
0.00041429
0.000259222
0.000435424
0.000571719
0.00162358
8.25992e-09
5.87136e-05
0.00157667
-1.59385e-08
4.69455e-05
0.00153808
1.30768e-08
3.85654e-05
0.00150616
-2.22154e-08
3.19593e-05
0.00147905
3.48514e-08
2.70487e-05
0.00145664
-6.23778e-08
2.25188e-05
0.0014367
1.21029e-07
1.97288e-05
0.0014212
-2.31598e-07
1.59374e-05
0.00140552
3.94556e-07
1.51279e-05
0.00139026
1.08613e-06
1.35066e-05
0.00139188
-4.16519e-06
7.99504e-06
0.00135055
1.46176e-05
1.50537e-05
0.00144285
-2.92014e-05
-2.10932e-05
0.00130132
6.16668e-05
4.0841e-05
0.00158779
1.16488e-05
-0.000210433
0.00178651
0.000257841
-0.000277209
0.0017399
0.000318599
-1.10479e-05
0.0015466
0.000339359
0.000125496
0.0014605
0.000344506
2.67524e-05
0.00140301
0.000373652
-6.80717e-06
0.00134537
0.000406852
-1.53449e-05
0.00126036
0.000438919
1.84709e-06
0.00108505
0.000481662
7.66833e-05
0.000710965
0.000536173
0.000252155
0.00059346
0.000553005
0.00162365
-1.38712e-08
5.86921e-05
0.00157665
1.37037e-08
4.69713e-05
0.00153814
-1.87408e-08
3.85398e-05
0.0015061
2.67423e-08
3.1991e-05
0.00147917
-3.92933e-08
2.70039e-05
0.00145644
7.35117e-08
2.25919e-05
0.00143708
-1.18177e-07
1.95961e-05
0.00142037
2.48363e-07
1.62306e-05
0.00140632
-3.03748e-07
1.47476e-05
0.00139593
-8.72031e-07
1.23385e-05
0.00137211
4.5981e-06
1.50197e-05
0.00140004
-9.84346e-06
-3.46163e-06
0.0013071
3.96112e-05
2.40443e-05
0.00145866
-3.2376e-05
-5.75258e-05
0.00145907
8.27789e-05
-7.16555e-05
0.00175021
0.000261275
-0.000294899
0.00173176
0.000367486
-3.07797e-05
0.00156934
0.000384443
0.000117279
0.00148513
0.000401755
2.69442e-05
0.00142261
0.000436543
-3.8594e-07
0.00136767
0.000478091
-1.63069e-05
0.00128169
0.000521756
3.10682e-06
0.00110311
0.000584532
7.56835e-05
0.000726213
0.000672819
0.000240199
0.000792561
0.000527187
0.00162358
-8.18855e-09
5.87183e-05
0.00157669
-6.24176e-09
4.69394e-05
0.00153812
1.46199e-09
3.85733e-05
0.00150616
2.63445e-09
3.19496e-05
0.00147907
2.30203e-09
2.70602e-05
0.0014566
7.43069e-09
2.25038e-05
0.00143674
-7.81704e-11
1.97462e-05
0.00142104
9.43017e-09
1.59267e-05
0.00140531
3.13019e-08
1.51771e-05
0.00139098
7.26243e-08
1.3581e-05
0.00138691
8.29256e-08
8.5004e-06
0.00135988
2.35958e-06
1.48221e-05
0.00141502
2.41917e-06
-1.79333e-05
0.00131893
2.44812e-05
3.91355e-05
0.00153664
5.71824e-05
-0.000192241
0.00174896
0.000321464
-0.000272863
0.0017591
0.000418538
-6.14792e-05
0.00157641
0.000449916
0.000117157
0.00149126
0.000459403
2.74889e-05
0.0014334
0.00049637
-1.98797e-06
0.0013833
0.000544367
-1.61943e-05
0.00129921
0.000600065
5.762e-06
0.0011241
0.000686645
7.29695e-05
0.000752886
0.000822609
0.000221417
0.00105623
0.000489286
0.00162361
-3.25502e-08
5.87231e-05
0.00157664
3.72716e-08
4.69346e-05
0.00153807
-1.49371e-08
3.85736e-05
0.00150612
5.7176e-09
3.19463e-05
0.00147905
1.70133e-08
2.70631e-05
0.00145661
-4.34031e-08
2.24988e-05
0.00143677
8.91058e-08
1.97572e-05
0.001421
-1.3864e-07
1.59185e-05
0.00140546
3.12962e-07
1.521e-05
0.00139113
7.74132e-07
1.36591e-05
0.00138066
1.41618e-06
9.11223e-06
0.00136612
2.55689e-06
1.43074e-05
0.00137367
8.71461e-06
-1.38283e-05
0.00135115
1.45484e-05
3.2313e-05
0.00149574
7.36747e-05
-0.000161204
0.00172003
0.000363712
-0.00026699
0.00175605
0.00046169
-7.93286e-05
0.00159017
0.000509458
0.000106234
0.00150692
0.00051478
2.78485e-05
0.00145388
0.000553245
-3.85141e-06
0.00140673
0.000604979
-1.34688e-05
0.00132595
0.000672613
8.21249e-06
0.0011578
0.000785817
6.89534e-05
0.000805501
0.000983136
0.000191768
0.00144025
0.00042155
0.00162338
5.88253e-05
6.22295e-08
0.00157666
4.68276e-05
-7.89176e-08
0.00153795
3.86514e-05
5.40533e-08
0.00150614
3.18818e-05
-6.70526e-08
0.001479
2.70972e-05
5.98682e-08
0.00145653
2.25019e-05
-7.83466e-08
0.00143683
1.96906e-05
1.02294e-07
0.0014206
1.6088e-05
-9.89455e-08
0.00140594
1.48835e-05
3.9597e-07
0.00139227
1.33215e-05
1.20429e-06
0.00138596
8.89812e-06
-2.33108e-06
0.00136206
1.35984e-05
1.35996e-05
0.00140582
-1.50878e-05
-1.9679e-05
0.00131758
3.31015e-05
6.93282e-05
0.00151758
-0.000168619
4.21924e-05
0.00173555
-0.000264049
0.000409359
0.00176259
-7.47662e-05
0.000509278
0.00161486
9.44039e-05
0.000562676
0.00153411
3.01461e-05
0.000565363
0.00148895
-5.12612e-06
0.00060353
0.00144391
-7.30188e-06
0.000657322
0.00137286
7.92425e-06
0.000735738
0.00122152
5.88e-05
0.000878335
0.000904575
0.000158915
0.00114117
0.000307605
0.00203723
0.00172978
-3.29555e-10
7.16754e-06
0.00176404
1.10448e-09
1.26516e-05
0.00178822
7.06156e-11
1.44073e-05
0.00180604
1.8832e-09
1.41145e-05
0.00181989
-4.5409e-11
1.32237e-05
0.00183054
2.06314e-09
1.18355e-05
0.0018394
2.74017e-10
1.0896e-05
0.00184585
3.04191e-09
9.48348e-06
0.00185195
1.3942e-08
8.95369e-06
0.00185737
4.45016e-08
8.61145e-06
0.00185804
1.26649e-07
7.53078e-06
0.00186754
3.37581e-07
6.7577e-06
0.00184389
1.01448e-06
2.99843e-06
0.00189379
3.46821e-06
-7.27704e-06
0.00176626
1.5821e-05
-0.000127278
0.00154722
0.00016118
-0.000211315
0.00134133
0.000138105
0.00012244
0.00125257
0.000186584
5.50958e-05
0.000975823
0.000257367
6.66916e-05
0.00114772
0.000432629
-0.000658726
0.00080896
0.000305544
4.61867e-05
0.000492383
0.000225107
0.000140563
0.000155814
0.000220546
0.000235889
-0.000140989
0.000281833
0.00032201
0.00014008
0.000385464
0.00172978
1.00183e-09
7.16641e-06
0.00176404
1.79442e-09
1.26531e-05
0.00178822
1.04082e-09
1.44058e-05
0.00180604
2.39493e-09
1.41163e-05
0.00181989
1.24213e-10
1.32207e-05
0.00183054
2.50866e-09
1.184e-05
0.00183941
6.56194e-10
1.08889e-05
0.00184585
9.22629e-09
9.48694e-06
0.00185199
3.47727e-08
8.90747e-06
0.00185725
1.21431e-07
8.70336e-06
0.00185844
2.66313e-07
7.04762e-06
0.00186688
8.88401e-07
7.42448e-06
0.00184489
2.11477e-06
1.43344e-06
0.0018932
7.79376e-06
-7.23641e-06
0.00176441
3.16941e-05
-0.000121044
0.00159971
0.000121913
-5.49384e-05
0.00135839
0.000306702
0.000109085
0.00130041
0.000353355
3.29362e-05
0.00118942
0.000390538
1.53914e-05
0.00118365
0.000443142
-3.25671e-06
0.000998766
0.00047743
2.37035e-06
0.000611927
0.000499023
0.000118134
0.00021322
0.000518166
0.000191197
-4.30106e-05
0.000544863
0.000272552
0.000400007
0.000347693
0.00172977
4.6067e-09
7.16712e-06
0.00176404
1.16812e-09
1.26513e-05
0.00178822
3.14261e-09
1.44072e-05
0.00180604
7.9994e-10
1.41142e-05
0.00181989
9.84902e-11
1.32237e-05
0.00183054
2.93603e-09
1.18359e-05
0.00183941
-1.59008e-09
1.08956e-05
0.00184584
2.03094e-08
9.48176e-06
0.00185191
7.09376e-08
8.94975e-06
0.00185721
2.54444e-07
8.58937e-06
0.00185784
4.34718e-07
7.52826e-06
0.00186672
1.87048e-06
6.57027e-06
0.00184298
3.34414e-06
2.8577e-06
0.00189067
1.39132e-05
-8.48932e-06
0.00176093
5.24321e-05
-0.000126436
0.00150338
0.000427984
-0.000338065
0.00131454
0.000437316
9.57599e-05
0.00128208
0.000494784
2.57966e-05
0.00119506
0.000518284
-5.79999e-06
0.00117724
0.000531137
-6.01489e-05
0.000991224
0.00065987
-1.45147e-05
0.000615042
0.000749095
0.000117023
0.000232295
0.000797102
0.0001823
-2.40863e-05
0.000815447
0.000253946
0.00065873
0.000332994
0.00172976
9.44017e-09
7.16415e-06
0.00176404
-5.6046e-09
1.26547e-05
0.00178821
9.41483e-09
1.4404e-05
0.00180605
-9.02085e-09
1.41182e-05
0.00181988
1.16506e-08
1.32198e-05
0.00183055
-1.31467e-08
1.18405e-05
0.0018394
1.98082e-08
1.08893e-05
0.00184577
3.67548e-08
9.48784e-06
0.00185168
2.37617e-07
8.90924e-06
0.00185696
8.88705e-08
8.68288e-06
0.00185624
2.21588e-06
7.1185e-06
0.00186641
3.23271e-07
7.16438e-06
0.0018383
9.39407e-06
1.55331e-06
0.00188687
1.73863e-05
-8.79309e-06
0.00176466
6.31841e-05
-0.000117614
0.00155222
0.000489885
-0.000115961
0.00132139
0.000598899
8.87665e-05
0.00126237
0.000656417
2.72167e-05
0.00107255
0.000727495
7.86562e-06
0.00111127
0.00093531
-0.00047339
0.000910872
0.000874462
-2.6726e-05
0.000586761
0.000960307
0.000110248
0.000233317
0.00105197
0.000174064
-9.55993e-06
0.00108372
0.000238317
0.000914635
0.000323228
0.00172974
-3.04753e-09
7.16019e-06
0.00176405
5.78867e-09
1.26595e-05
0.0017882
-3.97896e-09
1.43989e-05
0.00180605
6.99541e-09
1.41251e-05
0.00181987
-9.22052e-09
1.32132e-05
0.00183058
1.40167e-08
1.18429e-05
0.00183936
-1.98466e-08
1.08901e-05
0.00184613
1.6302e-08
9.42605e-06
0.0018526
-7.41247e-08
8.78089e-06
0.00185544
5.35252e-07
9.11017e-06
0.00186921
-9.29796e-07
4.71696e-06
0.00184905
4.65488e-06
1.17404e-05
0.00189
1.93e-06
-8.73289e-06
0.00181212
2.74421e-05
6.84784e-06
0.00177604
0.000127076
-0.00011055
0.00152288
0.000555808
-0.000108244
0.00131648
0.000734253
8.36448e-05
0.00126742
0.000805605
2.55665e-05
0.00113423
0.000893115
-3.98375e-06
0.00112283
0.00101221
-7.34365e-05
0.000925973
0.00109766
-3.85151e-05
0.000598905
0.001195
9.36289e-05
0.000257741
0.00130979
0.000159842
2.16071e-05
0.00135509
0.000223825
0.00119609
0.00031174
0.00172975
3.61007e-09
7.16097e-06
0.00176405
-7.07477e-09
1.26586e-05
0.00178821
5.78777e-09
1.44002e-05
0.00180606
-1.09642e-08
1.41228e-05
0.00181987
1.4779e-08
1.32169e-05
0.00183058
-2.07008e-08
1.18404e-05
0.00183936
3.68891e-08
1.08929e-05
0.00184586
1.34661e-09
9.45874e-06
0.00185182
2.17089e-07
8.87423e-06
0.00185702
1.4039e-07
8.6852e-06
0.00185438
2.51078e-06
7.20826e-06
0.00186634
7.67817e-07
6.92212e-06
0.00183252
1.2949e-05
1.69324e-06
0.00188328
2.7692e-05
-1.0176e-05
0.00177814
0.000118987
-9.76486e-05
0.00155183
0.000759954
-0.000255927
0.00131692
0.000879657
7.8121e-05
0.00128043
0.000946532
2.09596e-05
0.00115788
0.00105408
-1.16878e-05
0.00112101
0.00121396
-0.000171731
0.000936855
0.00131241
-4.60132e-05
0.000629315
0.00142737
7.69267e-05
0.000304291
0.00156491
0.000146471
6.77899e-05
0.0016336
0.000209975
0.0015204
0.00029636
0.00172975
-8.59752e-09
7.1598e-06
0.00176405
5.61069e-09
1.26603e-05
0.00178821
-1.06485e-08
1.43981e-05
0.00180605
1.21161e-08
1.41255e-05
0.00181987
-1.64418e-08
1.32141e-05
0.00183058
2.60207e-08
1.18385e-05
0.00183934
-2.748e-08
1.08988e-05
0.00184612
3.88683e-08
9.41766e-06
0.00185226
-3.469e-08
8.86051e-06
0.00185514
5.59836e-07
9.0214e-06
0.00186795
-4.90393e-07
5.22634e-06
0.00184927
4.91263e-06
1.10004e-05
0.0018874
6.32737e-06
-7.48408e-06
0.00181711
3.3426e-05
6.93529e-06
0.00179577
0.000168192
-0.000100021
0.00156756
0.00080769
-0.000115411
0.00133719
0.00100834
7.06061e-05
0.00130283
0.0010763
2.16933e-05
0.00120298
0.00119727
-1.64462e-05
0.00113494
0.00136906
-8.74831e-05
0.000967234
0.00151069
-4.69558e-05
0.000684973
0.00165056
6.21195e-05
0.00037601
0.00181606
0.000133436
0.000128917
0.0019233
0.000197442
0.00189852
0.000277876
0.00172976
-6.07094e-09
7.16247e-06
0.00176405
-8.42265e-10
1.26568e-05
0.00178822
-2.56171e-09
1.44029e-05
0.00180605
1.47753e-09
1.41181e-05
0.00181987
1.54389e-09
1.32238e-05
0.00183056
1.33767e-09
1.18306e-05
0.00183937
1.08701e-08
1.09046e-05
0.00184588
8.5932e-09
9.44752e-06
0.00185202
1.0292e-07
8.89412e-06
0.00185709
3.98367e-07
8.66463e-06
0.00185631
1.4422e-06
7.33198e-06
0.00186585
3.00499e-06
7.14896e-06
0.00184059
1.31918e-05
3.97681e-07
0.00188369
3.17459e-05
-2.34321e-06
0.00178869
0.000166317
-9.58474e-05
0.00162276
0.000949757
-0.000250038
0.0013644
0.00114156
6.34125e-05
0.00133294
0.00120416
2.06495e-05
0.00124461
0.00132992
-1.68835e-05
0.00116785
0.00151525
-7.14793e-05
0.00101157
0.00169071
-4.0032e-05
0.00076434
0.00185639
4.70199e-05
0.000476324
0.00205821
0.000118733
0.000213012
0.00222505
0.000182833
0.00234997
0.000250738
0.00172977
-7.74883e-09
7.1633e-06
0.00176403
9.76702e-09
1.26568e-05
0.00178821
-5.67465e-09
1.44017e-05
0.00180603
5.64413e-09
1.41185e-05
0.00181988
1.62992e-10
1.32214e-05
0.00183055
-3.59705e-09
1.18337e-05
0.0018394
1.94011e-08
1.08995e-05
0.00184586
5.29198e-09
9.46096e-06
0.00185209
1.93116e-07
8.88097e-06
0.00185685
5.43389e-07
8.74435e-06
0.00185854
2.0044e-06
6.86691e-06
0.0018638
3.73356e-06
8.26834e-06
0.00185053
1.54621e-05
-2.85089e-06
0.00187039
3.53443e-05
8.75356e-06
0.00180164
0.000175853
-0.000102446
0.00166796
0.00101302
-0.000197582
0.00140483
0.00127011
5.48895e-05
0.00136452
0.00133065
1.99598e-05
0.00128924
0.00144878
-1.5758e-05
0.00121637
0.00163937
-5.51602e-05
0.00108222
0.00184456
-3.31539e-05
0.000878916
0.00203263
3.52826e-05
0.000633842
0.00227415
9.80127e-05
0.000356136
0.00253473
0.000159685
0.00291361
0.000213945
0.00172983
7.16399e-06
2.73239e-08
0.00176402
1.26601e-05
-1.62161e-08
0.00178826
1.43971e-05
1.12941e-08
0.00180602
1.41273e-05
-3.18351e-09
0.00181993
1.32064e-05
-1.43248e-08
0.00183054
1.18491e-05
3.61176e-08
0.00183944
1.08879e-05
-8.0386e-08
0.00184588
9.45349e-06
2.00413e-07
0.00185217
8.97662e-06
-1.9057e-07
0.00185521
8.68426e-06
2.14567e-06
0.00186195
6.98892e-06
-2.84629e-06
0.00185351
7.89295e-06
1.78397e-05
0.0018713
-2.25674e-06
-1.51633e-05
0.00183855
1.21077e-05
8.89758e-05
0.00181662
-9.95675e-05
0.000128327
0.00169035
-0.000207712
0.00108188
0.00144573
3.79394e-05
0.00140161
0.00140311
1.76797e-05
0.00144993
0.001343
-1.45472e-05
0.00155365
0.00127459
-4.16017e-05
0.00174419
0.00118955
-3.0372e-05
0.00195255
0.00102545
2.87548e-05
0.00217579
0.00081861
8.08148e-05
0.00245892
0.00060791
0.00011979
0.00278445
0.000153292
0.00367575
0.00169386
6.26341e-10
-7.1652e-06
0.00171917
2.02887e-10
-1.26524e-05
0.00174798
5.63941e-10
-1.44048e-05
0.00177621
4.96815e-10
-1.41154e-05
0.00180265
-4.18977e-10
-1.32224e-05
0.00182632
2.54746e-09
-1.18363e-05
0.00184812
-3.26272e-09
-1.0894e-05
0.00186708
1.12831e-08
-9.49258e-06
0.001885
-2.59821e-09
-8.95659e-06
0.00190211
1.10756e-07
-8.62905e-06
0.00191729
-9.22051e-08
-7.53657e-06
0.00193005
7.09751e-07
-6.77691e-06
0.00193617
4.22069e-08
-3.16802e-06
0.00191908
2.8527e-06
6.8618e-06
0.00166583
1.09737e-05
0.000114469
0.00117058
0.000202583
7.95049e-05
0.00118002
0.000234629
-0.000122057
0.0010039
0.000274791
-4.37724e-05
0.000830553
0.000267097
-2.71704e-05
-5.50847e-05
0.00024909
-2.23161e-05
-0.00029789
0.000319268
-3.04349e-05
-0.000450175
0.000419622
-0.000126899
-0.000461077
0.000456317
-0.000209678
-0.000332802
0.000507955
-0.000314375
0.00045418
-0.000401703
0.00169386
3.18559e-10
-7.1616e-06
0.00171917
5.5315e-10
-1.26568e-05
0.00174798
6.72748e-10
-1.44e-05
0.00177621
8.72761e-10
-1.41222e-05
0.00180265
9.805e-10
-1.32159e-05
0.00182633
-1.21827e-09
-1.18387e-05
0.00184811
4.69643e-09
-1.08943e-05
0.00186704
-4.4207e-09
-9.43309e-06
0.00188472
4.31427e-08
-8.81658e-06
0.0019026
2.07801e-08
-9.09095e-06
0.00191417
4.71749e-07
-5.07805e-06
0.00193336
3.39061e-07
-1.14542e-05
0.00192481
2.95217e-06
7.07147e-06
0.00192105
7.46116e-06
-8.18312e-06
0.00166452
4.26244e-05
0.000103309
0.00113707
0.000289343
0.000383981
0.00116301
0.000416188
-9.88673e-05
0.0010069
0.000505497
-4.18673e-05
0.000807744
0.000531543
-5.00173e-05
-8.90186e-05
0.0005044
0.000638041
-0.000409808
0.000658627
-1.63568e-05
-0.000506271
0.000742062
-0.000107976
-0.000484599
0.000815004
-0.000189336
-0.00031448
0.000880086
-0.000269867
0.000826669
-0.000339471
0.00169386
1.09985e-09
-7.1627e-06
0.00171917
5.32284e-10
-1.26553e-05
0.00174798
8.32809e-10
-1.4402e-05
0.00177621
7.45178e-10
-1.41191e-05
0.00180266
-8.52017e-10
-1.32202e-05
0.00182632
2.34104e-09
-1.18365e-05
0.00184812
-2.12857e-09
-1.08968e-05
0.00186706
1.47935e-08
-9.47486e-06
0.00188496
2.79847e-08
-8.93591e-06
0.00190197
2.24595e-07
-8.62903e-06
0.00191735
2.2905e-07
-7.59887e-06
0.00192918
1.64759e-06
-6.6334e-06
0.0019357
2.75141e-06
-3.46416e-06
0.00191458
1.24284e-05
7.56935e-06
0.00166548
5.9117e-05
0.000105635
0.00114445
0.000414462
5.6171e-05
0.00114461
0.00060598
-9.46627e-05
0.000989089
0.00072119
-3.46175e-05
0.000766281
0.000776478
-2.80695e-05
-5.7218e-05
0.000827318
0.000440269
-0.000403214
0.000976541
1.34216e-05
-0.000489016
0.00105209
-0.000107313
-0.000462233
0.00115111
-0.000180698
-0.00031001
0.00122697
-0.000245352
0.00115745
-0.000307998
0.00169386
9.06235e-10
-7.15899e-06
0.00171917
2.17173e-12
-1.26598e-05
0.00174797
5.10563e-10
-1.43975e-05
0.00177622
1.03596e-10
-1.41256e-05
0.00180265
-1.19356e-09
-1.32144e-05
0.00182633
2.57471e-09
-1.1839e-05
0.00184812
-1.88922e-09
-1.08967e-05
0.00186702
2.00366e-08
-9.42317e-06
0.00188472
4.99773e-08
-8.80637e-06
0.00190233
3.07105e-07
-9.02768e-06
0.00191436
4.31759e-07
-5.10091e-06
0.00193192
2.31955e-06
-1.11253e-05
0.00192442
4.63269e-06
7.16554e-06
0.00191635
1.92943e-05
-7.68235e-06
0.00165805
9.67162e-05
0.000102555
0.00115889
0.000679823
0.000116207
0.00112676
0.000813745
-8.73239e-05
0.000980341
0.000926467
-3.18729e-05
0.000758433
0.00101254
-6.431e-06
-1.74179e-05
0.00107224
5.73041e-05
-0.000350364
0.00125184
3.07847e-05
-0.000432977
0.00135426
-0.000109429
-0.000418641
0.00148285
-0.000172209
-0.000290376
0.00156573
-0.000228898
0.00148867
-0.000298577
0.00169385
-9.06986e-10
-7.1568e-06
0.00171917
-1.55388e-10
-1.26635e-05
0.00174797
-6.63925e-10
-1.43945e-05
0.00177622
-1.9553e-10
-1.41303e-05
0.00180265
3.89462e-10
-1.32094e-05
0.00182634
-9.44238e-10
-1.18448e-05
0.00184811
6.4836e-09
-1.08899e-05
0.00186697
8.42318e-09
-9.42391e-06
0.00188447
9.22229e-08
-8.76546e-06
0.0019027
2.66558e-07
-9.08298e-06
0.00191154
9.98175e-07
-4.68505e-06
0.00193478
2.45403e-06
-1.16863e-05
0.00191386
8.23029e-06
8.57613e-06
0.00191932
2.86465e-05
-8.05299e-06
0.00166976
0.000145268
8.99274e-05
0.00115085
0.000847148
0.000241719
0.0011261
0.00100118
-7.94787e-05
0.00098223
0.00112388
-2.82041e-05
0.000748749
0.00124251
-6.09275e-07
0.00010893
0.00136653
0.000272038
-0.000248186
0.00153497
3.5303e-05
-0.000357778
0.00165573
-9.83744e-05
-0.000361519
0.00180589
-0.000159578
-0.000257888
0.00190291
-0.000217197
0.00183544
-0.00029311
0.00169385
-2.50431e-09
-7.15895e-06
0.00171917
1.75486e-10
-1.26606e-05
0.00174797
-2.13714e-09
-1.43971e-05
0.00177622
2.76609e-10
-1.41266e-05
0.00180265
-3.91011e-11
-1.32126e-05
0.00182633
9.90727e-10
-1.18404e-05
0.00184812
5.38328e-09
-1.08965e-05
0.00186698
1.98364e-08
-9.41798e-06
0.0018847
8.94597e-08
-8.83591e-06
0.0019022
4.42975e-07
-9.00106e-06
0.00191463
9.73931e-07
-5.1924e-06
0.0019311
3.77008e-06
-1.09158e-05
0.00192436
9.50427e-06
7.15263e-06
0.00191241
3.72643e-05
-6.94248e-06
0.00168077
0.000181233
9.75152e-05
0.00115955
0.00100866
0.000102175
0.00113343
0.00118157
-7.65741e-05
0.000995151
0.00130834
-2.54186e-05
0.000762176
0.00145358
1.00667e-05
0.000230065
0.00163715
8.95685e-05
-0.000125052
0.00180282
4.10919e-05
-0.000260475
0.00194986
-8.19093e-05
-0.000286456
0.0021243
-0.000146149
-0.000209136
0.00224037
-0.000205003
0.00220474
-0.000282271
0.00169386
-3.40663e-09
-7.1629e-06
0.00171917
3.63503e-10
-1.26554e-05
0.00174797
-2.47285e-09
-1.44034e-05
0.00177621
9.85087e-10
-1.41171e-05
0.00180265
5.87687e-10
-1.32221e-05
0.00182632
1.06175e-09
-1.18357e-05
0.00184811
9.18153e-09
-1.08949e-05
0.001867
1.93315e-08
-9.46348e-06
0.0018847
1.21165e-07
-8.87926e-06
0.00190235
4.80538e-07
-8.66601e-06
0.00191439
1.30658e-06
-7.14805e-06
0.00193193
4.14405e-06
-6.95847e-06
0.00192341
1.18654e-05
-1.34617e-06
0.00191441
4.3359e-05
9.76556e-06
0.00169039
0.000212982
9.17366e-05
0.00117509
0.00116491
0.000242101
0.00114518
0.00135475
-7.3103e-05
0.00101712
0.00148102
-2.31141e-05
0.000791363
0.00164909
1.37297e-05
0.000373364
0.00188274
8.48005e-05
1.05842e-05
0.00207648
4.20084e-05
-0.000142725
0.00223151
-6.62946e-05
-0.000182065
0.00242986
-0.0001329
-0.000137952
0.00258592
-0.000192421
0.00261135
-0.000266884
0.00169386
-3.28342e-09
-7.165e-06
0.00171917
1.91317e-09
-1.2653e-05
0.00174798
-1.51656e-09
-1.44065e-05
0.0017762
2.06677e-09
-1.41125e-05
0.00180265
2.29288e-09
-1.32277e-05
0.00182631
1.1069e-09
-1.18284e-05
0.00184812
1.23895e-08
-1.09038e-05
0.00186702
2.4634e-08
-9.4574e-06
0.00188482
1.20791e-07
-8.90976e-06
0.00190194
6.65216e-07
-8.64551e-06
0.00191658
1.19283e-06
-7.18187e-06
0.00192987
5.3235e-06
-7.37614e-06
0.00192948
1.2082e-05
5.66771e-07
0.00192131
4.87795e-05
2.99222e-07
0.00171035
0.000223428
0.000104201
0.00120021
0.0012833
0.000140136
0.00116384
0.00152024
-6.61042e-05
0.0010463
0.00164195
-2.29287e-05
0.00083858
0.00182527
1.45344e-05
0.000487922
0.00209319
6.86085e-05
0.000168071
0.00231951
3.65321e-05
5.9834e-06
0.00249042
-5.00355e-05
-5.27059e-05
0.00272512
-0.000118016
-3.54233e-05
0.0029289
-0.000177622
0.00306883
-0.000242347
0.00169386
-1.18061e-09
-7.16427e-06
0.00171916
6.86564e-09
-1.26553e-05
0.00174797
-6.3606e-09
-1.44026e-05
0.00177619
1.31517e-08
-1.41164e-05
0.00180265
-1.2848e-08
-1.3222e-05
0.0018263
1.89746e-08
-1.18328e-05
0.00184811
2.10841e-09
-1.08993e-05
0.00186704
2.13094e-08
-9.46204e-06
0.0018846
3.2222e-07
-8.88426e-06
0.00190228
4.64841e-07
-8.7442e-06
0.00191493
2.31493e-06
-6.88979e-06
0.00193324
3.47764e-06
-8.25416e-06
0.00192135
1.83654e-05
2.73806e-06
0.00194292
4.47343e-05
-8.73275e-06
0.001733
0.000227241
0.000103112
0.00122822
0.00135726
0.000231912
0.00119034
0.00166896
-5.64342e-05
0.00108021
0.00179296
-2.10645e-05
0.000896726
0.0019786
1.43502e-05
0.000614967
0.00226647
5.32312e-05
0.000340302
0.00253005
3.08403e-05
0.000182465
0.00272138
-3.78887e-05
0.000117066
0.00298601
-9.75955e-05
0.000111859
0.00324801
-0.000154397
0.00360227
-0.000207853
0.00169385
-7.16368e-06
9.22764e-09
0.00171917
-1.26591e-05
3.92861e-09
0.00174797
-1.43968e-05
-1.01824e-08
0.0017762
-1.41257e-05
3.29662e-08
0.00180266
-1.3207e-05
-6.43425e-08
0.00182626
-1.18486e-05
1.21169e-07
0.00184824
-1.08873e-05
-2.00163e-07
0.00186674
-9.45701e-06
4.27111e-07
0.00188541
-8.96505e-06
-4.03012e-07
0.00190129
-8.68626e-06
1.94988e-06
0.00192093
-6.99751e-06
-3.35e-06
0.00192185
-7.92064e-06
1.8332e-05
0.00194916
2.17276e-06
-1.34517e-05
0.00193772
-1.22043e-05
8.04378e-05
0.00178726
9.89965e-05
0.000178516
0.00129569
0.000208041
0.00143183
0.00120735
-3.81205e-05
0.00183296
0.00111717
-1.76831e-05
0.00191828
0.000961566
1.36188e-05
0.00210595
0.000741474
4.03003e-05
0.00240461
0.000525337
2.87354e-05
0.00268691
0.000396704
-3.03364e-05
0.00290891
0.000350779
-8.06562e-05
0.00319319
0.000337346
-0.000115923
0.00349694
-0.000149022
0.00424182
0.00172976
9.46366e-09
-5.87265e-05
0.00176404
-7.74643e-09
-4.69296e-05
0.00178821
9.72502e-09
-3.85802e-05
0.00180604
-1.11139e-08
-3.194e-05
0.00181988
1.31845e-08
-2.70708e-05
0.00183055
-1.55746e-08
-2.24899e-05
0.0018394
1.95559e-08
-1.97608e-05
0.00184576
2.55439e-08
-1.58796e-05
0.00185158
1.89341e-07
-1.49753e-05
0.00185691
-1.18702e-07
-1.3842e-05
0.00185571
1.73768e-06
-8.07319e-06
0.00186614
-1.17817e-06
-1.6078e-05
0.00183698
4.99521e-06
2.09964e-05
0.00188581
2.13128e-06
-4.41179e-05
0.00176139
-9.17207e-06
0.000247578
0.00160657
-2.30073e-05
0.000256275
0.00137432
0.000157205
-4.73629e-05
0.00131446
0.000162357
-0.000146388
0.00124005
9.49033e-05
-4.77042e-05
0.00126278
-2.46922e-05
-2.03945e-05
0.00113697
9.79006e-05
-2.58436e-06
0.000814068
0.000210428
-1.4495e-05
0.000418273
0.000276981
-9.09311e-05
7.182e-05
0.000318286
-0.000286292
0.000326826
-0.000656771
0.00172974
-4.00849e-09
-5.86808e-05
0.00176405
8.57596e-09
-4.69823e-05
0.0017882
-4.80104e-09
-3.8532e-05
0.00180605
9.67081e-09
-3.19954e-05
0.00181986
-1.05253e-08
-2.70052e-05
0.00183058
1.34898e-08
-2.25817e-05
0.00183935
-2.08244e-08
-1.96265e-05
0.00184614
-1.03862e-08
-1.61882e-05
0.0018526
-1.39235e-07
-1.49432e-05
0.00185539
3.20686e-07
-1.23366e-05
0.00186897
-1.39259e-06
-1.55125e-05
0.00184916
2.79423e-06
4.32735e-06
0.00188924
-2.26658e-06
-2.57586e-05
0.0018165
9.18909e-06
5.7454e-05
0.00176882
5.28205e-05
8.85451e-05
0.00144903
0.000347673
0.000331567
0.00128856
0.000286262
-6.78085e-05
0.00121397
0.000329736
-0.000134773
0.000936686
0.000361285
-3.91407e-05
0.00108345
0.000418995
4.75324e-05
0.000788215
0.000390706
-1.39929e-05
0.000519776
0.000411577
-4.07477e-05
0.000196516
0.00050801
-9.71743e-05
-6.43385e-05
0.000597816
-0.000288643
0.000550283
-0.000627388
0.00172975
8.77493e-09
-5.87203e-05
0.00176405
-6.27527e-09
-4.6937e-05
0.00178821
8.34503e-09
-3.85723e-05
0.00180606
-9.04695e-09
-3.19515e-05
0.00181987
9.78131e-09
-2.70561e-05
0.00183057
-1.24922e-08
-2.25117e-05
0.00183938
1.53772e-08
-1.97353e-05
0.0018458
2.72426e-08
-1.59326e-05
0.0018516
1.93605e-07
-1.50703e-05
0.00185697
-5.29198e-08
-1.36395e-05
0.00185399
1.86962e-06
-7.87534e-06
0.00186618
-6.73935e-07
-1.54046e-05
0.00183073
6.89959e-06
2.28185e-05
0.00187883
9.93644e-06
-4.13026e-05
0.0017576
3.33994e-05
0.000245818
0.00154781
0.000350773
0.000261828
0.00131423
0.000460151
-3.53979e-05
0.00122044
0.00051546
-0.000126743
0.000988995
0.000588652
-2.40698e-05
0.0010698
0.000729016
4.93481e-05
0.000800277
0.000669859
3.71172e-06
0.000464688
0.000663928
-2.41427e-05
0.000121557
0.000760103
-8.97374e-05
-9.97854e-05
0.000852091
-0.000278416
0.00074395
-0.000601564
0.00172973
1.82985e-09
-5.8676e-05
0.00176406
-5.13263e-10
-4.69882e-05
0.00178819
9.44213e-10
-3.8527e-05
0.00180606
-2.07651e-09
-3.20029e-05
0.00181986
1.57658e-10
-2.69988e-05
0.0018306
-1.09468e-09
-2.25902e-05
0.00183934
-4.93979e-10
-1.96255e-05
0.00184612
1.48057e-08
-1.61925e-05
0.00185249
4.66507e-08
-1.50274e-05
0.00185563
2.52091e-07
-1.24845e-05
0.00186783
4.47532e-07
-1.58659e-05
0.00185067
2.0078e-06
3.29903e-06
0.0018868
4.47181e-06
-2.65548e-05
0.00181104
1.80454e-05
5.9981e-05
0.00177754
8.38599e-05