/*--------------------------------*- C++ -*----------------------------------*\
  =========                 |
  \\      /  F ield         | OpenFOAM: The Open Source CFD Toolbox
   \\    /   O peration     | Website:  https://openfoam.org
    \\  /    A nd           | Version:  6
     \\/     M anipulation  |
\*---------------------------------------------------------------------------*/
FoamFile
{
    version     2.0;
    format      ascii;
    class       volScalarField;
    location    "4";
    object      T;
}
// * * * * * * * * * * * * * * * * * * * * * * * * * * * * * * * * * * * * * //

dimensions      [0 0 0 1 0 0 0];

internalField   nonuniform List<scalar> 
26250
(
0.98013
0.967367
0.955889
0.94658
0.937828
0.930998
0.924387
0.920547
0.919953
0.92765
0.943169
1.01058
1.13541
1.60025
2.5204
2.70929
2.66867
2.6345
2.59539
2.60836
2.61504
2.63475
2.67111
2.72426
2.72009
0.980136
0.967361
0.955895
0.946574
0.937834
0.930992
0.924391
0.920529
0.919938
0.927566
0.942987
1.01007
1.13433
1.59728
2.51552
2.70245
2.66189
2.6266
2.59036
2.59047
2.60255
2.62951
2.6608
2.7192
2.7106
0.980149
0.967347
0.955908
0.946561
0.937847
0.930979
0.924397
0.920476
0.919889
0.92741
0.942568
1.00927
1.13177
1.59463
2.51217
2.70872
2.67043
2.63203
2.59741
2.59674
2.61017
2.63841
2.67095
2.72801
2.7185
0.980293
0.967202
0.95606
0.946409
0.937994
0.930835
0.92449
0.920172
0.91967
0.927129
0.940174
1.00795
1.12618
1.59008
2.50268
2.69843
2.65925
2.6266
2.59288
2.59933
2.61241
2.64071
2.6738
2.73332
2.73468
0.980764
0.966724
0.956548
0.94591
0.938509
0.930293
0.925105
0.919768
0.921886
0.921871
0.946751
0.985519
1.15494
1.5851
2.36242
2.66972
2.63077
2.60365
2.5736
2.5771
2.59255
2.62456
2.66082
2.72442
2.73258
0.980363
0.967133
0.956132
0.94634
0.938071
0.930756
0.924579
0.920175
0.919732
0.92619
0.936293
1.00371
1.11253
1.57079
2.46005
2.6735
2.63499
2.60403
2.57034
2.57139
2.58549
2.61521
2.65073
2.71524
2.72732
0.980674
0.966817
0.956454
0.946006
0.938417
0.930378
0.925004
0.919701
0.921039
0.921166
0.944605
0.980001
1.14304
1.53297
2.30974
2.63685
2.61492
2.58706
2.55724
2.55772
2.57229
2.60232
2.63768
2.70395
2.72152
0.98036
0.967148
0.95609
0.946331
0.93806
0.930734
0.9246
0.920089
0.919674
0.92537
0.935816
0.997409
1.09686
1.53494
2.40512
2.63389
2.61797
2.5836
2.54891
2.54773
2.56043
2.58768
2.6206
2.68642
2.70596
0.98039
0.967102
0.956148
0.946316
0.938094
0.93072
0.924589
0.920054
0.919652
0.924779
0.936016
0.992668
1.08896
1.49898
2.35071
2.60401
2.60054
2.57345
2.53988
2.53612
2.54627
2.5682
2.5964
2.65875
2.67102
0.979024
0.968494
0.954753
0.947742
0.936678
0.932159
0.923191
0.921422
0.918177
0.923622
0.932591
0.988157
1.0739
1.48505
2.31703
2.58274
2.58173
2.55942
2.53066
2.52469
2.5328
2.54576
2.56287
2.60121
2.57751
1.01423
1.02101
1.02631
1.02896
1.03185
1.03303
1.03514
1.03692
1.0447
1.05687
1.09402
1.184
1.39634
1.9877
2.82467
2.71807
2.79574
2.75731
2.75681
2.76405
2.77017
2.78436
2.82074
2.82671
2.76113
1.01422
1.02102
1.02631
1.02896
1.03185
1.03303
1.03514
1.03691
1.04466
1.05681
1.09384
1.18364
1.39544
1.98129
2.82416
2.72162
2.79166
2.75121
2.74493
2.75456
2.76634
2.77596
2.80505
2.83316
2.76676
1.01422
1.02101
1.02631
1.02896
1.03185
1.03303
1.03513
1.03689
1.04459
1.05664
1.09348
1.18249
1.39319
1.97665
2.82283
2.71439
2.79203
2.7507
2.74243
2.75111
2.76602
2.77301
2.79375
2.831
2.7691
1.01423
1.02101
1.02632
1.02896
1.03185
1.03303
1.03512
1.03685
1.04446
1.05633
1.09297
1.18049
1.3901
1.96501
2.819
2.72238
2.78923
2.74578
2.74203
2.74931
2.76364
2.76908
2.78482
2.82541
2.76859
1.0142
1.02106
1.02628
1.02901
1.03181
1.03308
1.03504
1.03675
1.04359
1.05685
1.08757
1.18642
1.37708
1.95514
2.81898
2.7286
2.78913
2.742
2.73774
2.74296
2.75547
2.76158
2.77328
2.81291
2.76523
1.01423
1.02102
1.02631
1.02897
1.03184
1.03304
1.03508
1.03675
1.04405
1.0554
1.09113
1.17401
1.37794
1.91822
2.80826
2.72578
2.78365
2.7341
2.72918
2.73346
2.74272
2.74836
2.76013
2.7987
2.7571
1.01419
1.02107
1.02627
1.02902
1.0318
1.03308
1.03501
1.03667
1.04323
1.0557
1.08527
1.17897
1.36048
1.88145
2.80689
2.73162
2.77521
2.72554
2.7212
2.72492
2.73227
2.73208
2.73903
2.77533
2.73877
1.01422
1.02103
1.0263
1.02897
1.03183
1.03304
1.03505
1.03663
1.04356
1.05417
1.08806
1.16633
1.35491
1.84951
2.78876
2.7298
2.75405
2.71464
2.70699
2.70901
2.71586
2.71668
2.71443
2.74603
2.71236
1.01422
1.02103
1.0263
1.02898
1.03183
1.03304
1.03504
1.03657
1.04328
1.05345
1.08592
1.16301
1.33912
1.82652
2.77596
2.73185
2.72891
2.70094
2.69743
2.69545
2.69286
2.69013
2.68643
2.701
2.64971
1.01409
1.0211
1.02621
1.02901
1.03177
1.03305
1.03499
1.03647
1.04275
1.05259
1.0829
1.15841
1.3248
1.80175
2.7567
2.74661
2.70036
2.67041
2.67504
2.67988
2.67451
2.66301
2.64125
2.64516
2.5663
1.00631
1.01271
1.02146
1.02804
1.03564
1.04066
1.04703
1.05171
1.06206
1.07825
1.122
1.22772
1.46264
2.13125
2.88002
2.53275
2.78442
2.76068
2.76339
2.72668
2.80706
2.80719
2.80835
2.80894
2.76988
1.00633
1.01269
1.02149
1.02802
1.03567
1.04064
1.04705
1.05168
1.06211
1.07803
1.12227
1.22605
1.46275
2.134
2.87759
2.53571
2.78384
2.75825
2.76211
2.72773
2.80294
2.80381
2.80313
2.80518
2.76474
1.00631
1.01271
1.02146
1.02804
1.03564
1.04066
1.04703
1.05168
1.06197
1.07807
1.12145
1.22658
1.45955
2.12684
2.87471
2.54411
2.78107
2.75199
2.75803
2.72595
2.79423
2.79692
2.7942
2.79621
2.75704
1.00633
1.01269
1.02149
1.02802
1.03567
1.04064
1.04705
1.05163
1.06193
1.07767
1.12124
1.22378
1.45676
2.12345
2.8696
2.56118
2.78415
2.74942
2.75487
2.71657
2.78835
2.79012
2.78448
2.78775
2.74934
1.00636
1.01266
1.02152
1.02799
1.03569
1.04061
1.04706
1.05157
1.06183
1.07714
1.12073
1.22009
1.45189
2.11184
2.86287
2.57627
2.78201
2.74418
2.75072
2.71251
2.77286
2.77598
2.77067
2.76933
2.73351
1.00635
1.01267
1.0215
1.028
1.03568
1.04062
1.04704
1.05153
1.06154
1.07678
1.11907
1.21769
1.44272
2.08656
2.85506
2.59572
2.77695
2.73523
2.74227
2.70435
2.75944
2.76494
2.7539
2.75484
2.71931
1.00637
1.01265
1.02153
1.02798
1.0357
1.04059
1.04705
1.05145
1.06127
1.07605
1.11751
1.21253
1.4319
2.05543
2.84379
2.61859
2.77239
2.72454
2.73133
2.69752
2.73093
2.74172
2.73447
2.72567
2.6879
1.00638
1.01264
1.02154
1.02797
1.03571
1.04058
1.04705
1.05137
1.06089
1.07531
1.11543
1.20723
1.41901
2.01183
2.82844
2.63751
2.76405
2.71356
2.71666
2.68552
2.71154
2.7251
2.70568
2.69655
2.65712
1.00642
1.0126
1.02158
1.02792
1.03575
1.04053
1.04707
1.05125
1.06056
1.07426
1.1136
1.19937
1.40583
1.96323
2.80656
2.6721
2.74744
2.69695
2.70399
2.67222
2.67592
2.69276
2.67402
2.65019
2.58547
1.00635
1.01266
1.02151
1.02799
1.03569
1.04059
1.047
1.05113
1.05993
1.07352
1.11044
1.196
1.38909
1.88561
2.79829
2.68683
2.73645
2.67659
2.68106
2.65868
2.65496
2.66245
2.63171
2.5951
2.48449
1.01423
1.02101
1.02632
1.02895
1.03186
1.03303
1.03514
1.0369
1.04465
1.05676
1.09392
1.1838
1.39691
1.99466
2.8247
2.71868
2.79219
2.75432
2.7435
2.75339
2.76159
2.77847
2.79183
2.82994
2.78361
1.01421
1.02106
1.02628
1.02901
1.03181
1.03308
1.03505
1.03683
1.04386
1.05763
1.0892
1.19163
1.38885
2.00501
2.82803
2.68864
2.80408
2.76585
2.76327
2.77279
2.77754
2.79295
2.80607
2.82889
2.76877
1.01423
1.02101
1.02632
1.02896
1.03185
1.03303
1.03512
1.03687
1.04455
1.0565
1.09353
1.18205
1.39441
1.9898
2.82119
2.71619
2.79011
2.75095
2.75235
2.76181
2.76932
2.78748
2.8043
2.82378
2.76392
1.01421
1.02105
1.02629
1.02901
1.03181
1.03308
1.03505
1.03679
1.04378
1.05722
1.08855
1.18908
1.38333
1.98538
2.82041
2.7255
2.79256
2.74878
2.74346
2.75333
2.76458
2.77438
2.79832
2.81858
2.76074
1.01421
1.02105
1.02629
1.029
1.03182
1.03308
1.03505
1.03676
1.04371
1.05682
1.08794
1.18664
1.37819
1.96523
2.81699
2.72536
2.79128
2.74469
2.73982
2.74581
2.7581
2.76512
2.78627
2.80817
2.75544
1.0142
1.02106
1.02628
1.02901
1.03181
1.03308
1.03503
1.03672
1.04349
1.05635
1.08676
1.18334
1.37045
1.93047
2.81273
2.73003
2.78698
2.73871
2.73225
2.73592
2.74506
2.75022
2.76991
2.79654
2.7473
1.01422
1.02102
1.02631
1.02897
1.03184
1.03304
1.03507
1.03669
1.04382
1.05488
1.08983
1.1699
1.36865
1.87306
2.79777
2.72634
2.77551
2.72771
2.72423
2.72815
2.73441
2.73396
2.74654
2.77464
2.72963
1.01423
1.02102
1.02631
1.02896
1.03184
1.03303
1.03506
1.03663
1.0436
1.05425
1.08783
1.16763
1.35308
1.84933
2.78943
2.7289
2.74811
2.7121
2.70755
2.71081
2.71786
2.71723
2.71913
2.74676
2.70371
1.01422
1.02103
1.0263
1.02897
1.03183
1.03304
1.03504
1.03658
1.04329
1.05346
1.08602
1.16293
1.33943
1.82602
2.77544
2.73317
2.72688
2.69688
2.69641
2.6961
2.69541
2.69146
2.69048
2.70159
2.64291
1.0141
1.02109
1.02621
1.02901
1.03177
1.03305
1.03499
1.03647
1.04276
1.05262
1.08296
1.15851
1.32505
1.8017
2.75612
2.74745
2.70178
2.66627
2.67033
2.67858
2.67469
2.66374
2.64522
2.64727
2.55963
0.980253
0.967241
0.956015
0.946453
0.937954
0.93087
0.924468
0.920242
0.919811
0.927347
0.940815
1.01048
1.13149
1.60615
2.53164
2.71202
2.67087
2.63366
2.59693
2.59561
2.60584
2.63433
2.66494
2.72705
2.70496
0.980825
0.966661
0.95661
0.945843
0.938574
0.930227
0.925188
0.919776
0.922337
0.922371
0.94835
0.988648
1.16718
1.62753
2.4014
2.69401
2.6544
2.61933
2.583
2.59667
2.6035
2.62828
2.6606
2.71792
2.69918
0.980269
0.967226
0.956035
0.946437
0.937975
0.930856
0.924502
0.920332
0.919854
0.92711
0.938299
1.00904
1.12362
1.60513
2.52891
2.71073
2.66826
2.6348
2.5981
2.6103
2.61815
2.64193
2.67656
2.73409
2.72663
0.980826
0.966661
0.956612
0.945845
0.938575
0.930235
0.925183
0.919828
0.922388
0.92286
0.947983
0.990977
1.16182
1.60083
2.37036
2.67538
2.63662
2.60775
2.57852
2.5821
2.59643
2.62802
2.66154
2.72554
2.72775
0.980797
0.966693
0.956584
0.945877
0.938544
0.93027
0.925137
0.919878
0.922197
0.923471
0.947219
0.98991
1.15662
1.56064
2.36925
2.67662
2.63684
2.60673
2.57662
2.58011
2.59356
2.62344
2.65775
2.71972
2.73061
0.980751
0.966738
0.956536
0.945923
0.938499
0.930304
0.925093
0.919774
0.921722
0.922224
0.946103
0.985461
1.15062
1.55054
2.34178
2.65567
2.61792
2.59247
2.56184
2.56291
2.57728
2.60733
2.64474
2.70767
2.72803
0.980345
0.967149
0.95611
0.94636
0.938046
0.930771
0.924543
0.920062
0.919584
0.926135
0.937716
1.0013
1.10715
1.55133
2.43285
2.65428
2.62782
2.59235
2.55891
2.55608
2.57148
2.59314
2.63361
2.68747
2.71963
0.98034
0.967154
0.956102
0.946364
0.938036
0.930773
0.924524
0.920009
0.919564
0.925578
0.937928
0.997178
1.09922
1.52414
2.39402
2.6317
2.62044
2.58758
2.55467
2.55113
2.56653
2.58502
2.62423
2.67299
2.70134
0.98038
0.967108
0.956143
0.946315
0.938084
0.930727
0.92459
0.920059
0.91965
0.924837
0.93614
0.992792
1.08897
1.49962
2.35194
2.60222
2.59875
2.57152
2.54034
2.53753
2.55239
2.5684
2.60335
2.65192
2.66474
0.979057
0.968456
0.954786
0.947707
0.936712
0.93213
0.923223
0.921412
0.918241
0.923693
0.932717
0.988243
1.07359
1.4858
2.3181
2.58249
2.58122
2.55762
2.52988
2.52414
2.53514
2.54658
2.56664
2.60611
2.57404
0.981068
0.966428
0.956852
0.9456
0.93882
0.929953
0.925345
0.918979
0.919396
0.919873
0.937827
0.966799
1.10347
1.39537
2.09712
2.52298
2.54346
2.52512
2.5062
2.50449
2.5098
2.52093
2.51996
2.51362
2.42158
0.97919
0.968348
0.954917
0.947591
0.936842
0.931986
0.92332
0.920983
0.917102
0.921805
0.929201
0.977739
1.05867
1.40162
2.16836
2.48066
2.50936
2.49252
2.47343
2.46786
2.46873
2.46834
2.46001
2.4346
2.33698
0.981061
0.966436
0.956851
0.945601
0.938825
0.92993
0.92532
0.918665
0.918271
0.917975
0.933661
0.956947
1.07589
1.30235
1.94631
2.43763
2.48462
2.47331
2.46089
2.45059
2.44568
2.43653
2.41809
2.38365
2.30136
0.979437
0.968079
0.955184
0.947296
0.937133
0.931653
0.923599
0.920352
0.91622
0.919748
0.926941
0.964784
1.03732
1.30058
1.96498
2.35501
2.43618
2.4379
2.4302
2.41948
2.41106
2.40049
2.37681
2.3443
2.2777
0.979591
0.967923
0.955345
0.947131
0.937304
0.931468
0.923764
0.920001
0.915667
0.918552
0.923971
0.956258
1.01168
1.23083
1.83363
2.28256
2.41286
2.41579
2.40845
2.39542
2.37938
2.36301
2.33884
2.30035
2.24674
0.980537
0.966971
0.95632
0.946142
0.938297
0.930448
0.924745
0.918819
0.916004
0.915511
0.923828
0.938861
1.00589
1.12676
1.54989
2.13912
2.36132
2.37366
2.37561
2.36464
2.34756
2.33092
2.30584
2.27184
2.21924
0.980287
0.967232
0.956061
0.946414
0.938034
0.930716
0.924468
0.91896
0.915189
0.914774
0.920493
0.932665
0.982269
1.07033
1.42091
2.06138
2.30274
2.33258
2.33246
2.32288
2.30705
2.29124
2.26908
2.23756
2.19276
0.980134
0.967378
0.955911
0.946561
0.937888
0.930858
0.924322
0.919081
0.914985
0.91475
0.917841
0.928465
0.964492
1.04663
1.30809
1.93272
2.25374
2.31212
2.30973
2.29699
2.27915
2.26175
2.24263
2.21427
2.17751
0.981078
0.966416
0.956882
0.945567
0.93887
0.929857
0.925287
0.918073
0.91575
0.91301
0.915884
0.923833
0.952203
1.02265
1.21808
1.79464
2.17957
2.28814
2.28881
2.27454
2.25583
2.23215
2.20901
2.18385
2.14947
0.979975
0.967547
0.95573
0.946758
0.937671
0.931101
0.924016
0.919316
0.913983
0.912236
0.911791
0.920362
0.936227
0.998761
1.122
1.49062
2.03415
2.23515
2.25772
2.25586
2.24068
2.2166
2.19171
2.16399
2.1317
0.98073
0.96677
0.956507
0.945955
0.938461
0.930286
0.924804
0.918471
0.914623
0.910636
0.912383
0.914389
0.931419
0.966689
1.06775
1.38558
1.83729
2.14909
2.19966
2.21253
2.2062
2.19184
2.17113
2.14666
2.11992
0.979883
0.967624
0.955643
0.946831
0.937588
0.931172
0.923923
0.91935
0.913674
0.911262
0.910009
0.912905
0.920937
0.951926
1.01913
1.22562
1.7452
2.082
2.17374
2.18294
2.17712
2.16262
2.14109
2.11901
2.095
0.980526
0.966972
0.956306
0.946151
0.938269
0.930466
0.924629
0.918588
0.914367
0.910073
0.909138
0.909473
0.917228
0.93737
0.990015
1.13429
1.49228
1.94449
2.12924
2.14822
2.14945
2.13693
2.11663
2.09581
2.07172
0.980443
0.967055
0.956226
0.946232
0.938194
0.930537
0.924563
0.918632
0.914272
0.909811
0.907752
0.907397
0.912777
0.924022
0.964995
1.03605
1.31686
1.83529
2.06059
2.11734
2.1188
2.11239
2.09468
2.07116
2.04823
0.980184
0.967327
0.955953
0.946522
0.93791
0.930834
0.924279
0.918919
0.913972
0.909972
0.906931
0.90674
0.909262
0.916782
0.944193
0.998
1.18431
1.64295
1.98145
2.09768
2.10528
2.10035
2.08389
2.05864
2.03377
0.980717
0.966784
0.956511
0.945967
0.938445
0.93029
0.924833
0.918329
0.914542
0.909385
0.907194
0.905401
0.906928
0.912469
0.927362
0.970843
1.06868
1.41209
1.82566
2.04452
2.07639
2.07701
2.06786
2.04866
2.02029
0.980632
0.96684
0.956467
0.94607
0.938267
0.930462
0.924741
0.918309
0.914569
0.909435
0.906576
0.904088
0.905121
0.908285
0.91793
0.947973
1.01316
1.21605
1.6094
1.95047
2.0462
2.05734
2.05375
2.03925
2.01403
0.980429
0.967074
0.9562
0.946279
0.938147
0.930582
0.924527
0.918673
0.914135
0.90971
0.906337
0.903503
0.903399
0.904705
0.910893
0.93036
0.975571
1.0944
1.40239
1.79809
1.98438
2.01622
2.02397
2.01853
2.00381
0.980483
0.967019
0.956259
0.946207
0.938218
0.930518
0.92458
0.918614
0.914213
0.909582
0.906399
0.902976
0.901818
0.901698
0.906339
0.916834
0.949807
1.01344
1.24378
1.67648
1.90372
1.97981
1.99071
1.9893
1.98006
0.980237
0.967268
0.956009
0.946458
0.937968
0.930774
0.924325
0.91887
0.913964
0.909815
0.90614
0.903043
0.90087
0.900727
0.903069
0.910407
0.928813
0.975259
1.09971
1.45329
1.79633
1.94727
1.97172
1.97119
1.9643
0.980545
0.966959
0.956324
0.946141
0.938285
0.930453
0.924642
0.918547
0.914279
0.909497
0.906426
0.902717
0.900935
0.899755
0.900813
0.905203
0.915019
0.948249
1.01295
1.24746
1.5829
1.86441
1.94575
1.95541
1.95326
0.980514
0.966989
0.956291
0.94618
0.938244
0.930499
0.924597
0.918592
0.91423
0.90956
0.906325
0.902768
0.900545
0.89837
0.898945
0.900858
0.907833
0.925608
0.975
1.0816
1.37463
1.71943
1.88823
1.92318
1.93082
0.98039
0.967117
0.956162
0.946308
0.938118
0.930628
0.924468
0.918729
0.914096
0.909688
0.90621
0.902865
0.90032
0.898067
0.897616
0.898107
0.902102
0.912676
0.942443
1.00134
1.20449
1.58023
1.79738
1.88717
1.89921
0.980358
0.967147
0.956131
0.946336
0.93809
0.930653
0.924443
0.918752
0.914074
0.909703
0.906202
0.902847
0.900291
0.897808
0.896618
0.896509
0.898844
0.90557
0.921576
0.960824
1.0654
1.36403
1.67375
1.84261
1.87784
0.980453
0.967054
0.95623
0.946244
0.938183
0.93057
0.92452
0.918679
0.914136
0.909635
0.906262
0.902776
0.900337
0.897668
0.896298
0.895796
0.896659
0.900493
0.908563
0.935551
0.989302
1.16013
1.46565
1.74564
1.84678
0.980443
0.967062
0.956218
0.946249
0.938177
0.930564
0.92453
0.918664
0.914158
0.909617
0.906282
0.902764
0.900329
0.897637
0.896016
0.894715
0.895153
0.896999
0.901294
0.917829
0.947085
1.03702
1.23378
1.59837
1.77853
0.980352
0.967154
0.956123
0.946345
0.938081
0.930662
0.924433
0.918764
0.914059
0.909721
0.906181
0.902868
0.900219
0.897723
0.895786
0.894179
0.893907
0.894345
0.897294
0.905375
0.926884
0.971679
1.11011
1.42444
1.68745
0.98027
0.967235
0.956041
0.946427
0.937998
0.930746
0.92435
0.918848
0.913976
0.909805
0.906097
0.902948
0.900146
0.897774
0.895701
0.894029
0.893076
0.893216
0.894535
0.900201
0.909159
0.94423
1.00106
1.22569
1.49665
0.980411
0.967094
0.956186
0.946279
0.938146
0.930594
0.9245
0.918693
0.914127
0.909648
0.906251
0.902789
0.9003
0.897612
0.895839
0.893778
0.892797
0.892259
0.892823
0.895393
0.900535
0.918376
0.954885
1.04757
1.28281
0.980424
0.967084
0.956196
0.94627
0.938156
0.930584
0.92451
0.918684
0.914137
0.909641
0.906257
0.902787
0.900297
0.897618
0.895821
0.893757
0.89256
0.891412
0.891738
0.892663
0.895778
0.905268
0.927343
0.976356
1.12797
0.980308
0.967201
0.956077
0.946392
0.938034
0.93071
0.924385
0.918814
0.91401
0.909771
0.906131
0.902917
0.900171
0.897748
0.895687
0.893877
0.892366
0.891179
0.890791
0.891113
0.892726
0.898184
0.909078
0.939786
1.00624
0.980272
0.967234
0.956043
0.946425
0.938
0.930743
0.924352
0.918846
0.913978
0.909801
0.906101
0.902944
0.900145
0.897769
0.895666
0.893883
0.892335
0.891036
0.8902
0.89016
0.890896
0.89409
0.899238
0.918805
0.953846
0.98038
0.967125
0.956154
0.946313
0.938112
0.930631
0.924463
0.918732
0.91409
0.909686
0.906213
0.902829
0.900257
0.897656
0.895775
0.893774
0.892425
0.890902
0.890086
0.889525
0.889834
0.891306
0.89424
0.904948
0.92627
0.980375
0.96713
0.956149
0.946318
0.938107
0.930635
0.924458
0.918737
0.914084
0.909693
0.906206
0.902838
0.900248
0.897668
0.895763
0.893789
0.892403
0.890908
0.889957
0.889105
0.88928
0.889973
0.891783
0.899163
0.91067
0.980297
0.96721
0.95607
0.9464
0.938025
0.93072
0.924373
0.918824
0.914
0.909778
0.906124
0.902922
0.900164
0.897754
0.895678
0.893872
0.892323
0.890978
0.88985
0.889007
0.888854
0.889263
0.890683
0.896069
0.906434
0.980294
0.967214
0.956064
0.946405
0.93802
0.930725
0.92437
0.918828
0.913995
0.909785
0.906117
0.902929
0.900159
0.897758
0.895674
0.893876
0.892317
0.89098
0.889837
0.888958
0.888672
0.889
0.890226
0.895374
0.904443
0.980288
0.967219
0.956058
0.94641
0.938014
0.930729
0.924365
0.918832
0.913991
0.909788
0.906112
0.902933
0.900154
0.897762
0.895671
0.893879
0.892313
0.890983
0.88983
0.888949
0.888605
0.888918
0.890084
0.89535
0.903926
0.980309
0.967198
0.95608
0.946388
0.938036
0.930706
0.924387
0.918809
0.914013
0.909765
0.906136
0.90291
0.900178
0.897739
0.895694
0.893858
0.892337
0.890961
0.889854
0.8889
0.888541
0.888678
0.89
0.894231
0.904133
0.980296
0.967211
0.956066
0.946402
0.938022
0.930721
0.924373
0.918823
0.913999
0.90978
0.90612
0.902925
0.900162
0.897754
0.895678
0.893871
0.89232
0.890974
0.889835
0.888928
0.888558
0.888802
0.889952
0.894743
0.903441
0.980294
0.967214
0.956064
0.946404
0.93802
0.930723
0.92437
0.918827
0.913995
0.909783
0.906116
0.902929
0.900157
0.897758
0.895674
0.893875
0.892316
0.890978
0.889831
0.888938
0.888578
0.888856
0.890017
0.895089
0.903641
1.01385
1.02141
1.02592
1.02937
1.03144
1.03344
1.03459
1.03681
1.04055
1.05398
1.07968
1.14192
1.33206
1.78374
2.69075
2.74719
2.70496
2.64811
2.64866
2.65244
2.64856
2.63527
2.5934
2.55208
2.39937
1.01373
1.02147
1.02585
1.02939
1.03139
1.03344
1.03455
1.03669
1.04027
1.05131
1.07858
1.13079
1.32236
1.72837
2.61273
2.73664
2.69844
2.65248
2.63009
2.62662
2.61678
2.59721
2.55092
2.48642
2.33576
1.01391
1.02136
1.02598
1.02931
1.03149
1.03337
1.03455
1.03634
1.0396
1.05111
1.07376
1.12663
1.29774
1.67132
2.53318
2.71183
2.66893
2.65534
2.62586
2.60544
2.58995
2.56337
2.50687
2.44452
2.31375
1.01411
1.0211
1.02622
1.02903
1.03175
1.03307
1.03479
1.03593
1.03931
1.04758
1.07144
1.11183
1.27803
1.60226
2.40301
2.66936
2.66284
2.64639
2.62188
2.59232
2.55984
2.53571
2.48058
2.42432
2.31413
1.014
1.02122
1.02611
1.02913
1.03166
1.03314
1.03476
1.03591
1.03961
1.04638
1.06416
1.1172
1.21404
1.57622
2.38488
2.60203
2.63955
2.62668
2.61216
2.58697
2.54241
2.50439
2.45132
2.40574
2.31748
1.0139
1.02135
1.02599
1.02928
1.03152
1.03332
1.03453
1.03594
1.03806
1.04599
1.06054
1.09752
1.20954
1.43628
2.1592
2.56362
2.63268
2.6052
2.59209
2.57494
2.53419
2.49712
2.42825
2.38495
2.31634
1.01372
1.02152
1.02583
1.02944
1.03136
1.03346
1.03437
1.03598
1.03757
1.04443
1.0555
1.08731
1.1723
1.35303
1.89868
2.46723
2.61218
2.59615
2.56617
2.54676
2.51484
2.48531
2.42237
2.36437
2.30964
1.01397
1.02127
1.02607
1.02919
1.03162
1.0332
1.03464
1.03564
1.03768
1.04128
1.05231
1.07781
1.13464
1.29609
1.75594
2.35583
2.56739
2.5659
2.55037
2.53164
2.49237
2.46916
2.42001
2.35901
2.30154
1.01406
1.0212
1.02614
1.02915
1.03167
1.03316
1.03466
1.03551
1.03712
1.03996
1.04873
1.07001
1.11189
1.25748
1.56268
2.26693
2.53189
2.53575
2.52186
2.50961
2.47856
2.44515
2.40956
2.35539
2.29814
1.01374
1.02148
1.02586
1.0294
1.0314
1.0334
1.03438
1.03566
1.03652
1.03884
1.04721
1.06125
1.09929
1.20867
1.43274
2.06446
2.45547
2.51909
2.49733
2.49062
2.47026
2.43612
2.40295
2.35425
2.30104
1.01387
1.02138
1.02595
1.02933
1.03147
1.03335
1.03442
1.03565
1.03648
1.03895
1.04319
1.05665
1.08656
1.15605
1.35449
1.89748
2.34146
2.48513
2.47955
2.46124
2.44702
2.41788
2.38623
2.34848
2.30078
1.01383
1.02139
1.02594
1.02931
1.03147
1.03333
1.03442
1.03559
1.03636
1.03812
1.04117
1.0517
1.07157
1.12657
1.25404
1.68043
2.1816
2.42615
2.45224
2.44591
2.43295
2.40737
2.37778
2.34199
2.29943
1.01407
1.02117
1.02616
1.02911
1.03169
1.03312
1.03464
1.03535
1.03647
1.03727
1.04046
1.04652
1.06133
1.10675
1.18639
1.48296
2.11995
2.35454
2.4075
2.40703
2.40098
2.38696
2.36145
2.33332
2.29661
1.01412
1.02113
1.02621
1.02907
1.03173
1.03308
1.03467
1.03531
1.03641
1.037
1.03878
1.04434
1.05583
1.08226
1.16574
1.32397
1.82782
2.27286
2.38611
2.38524
2.37691
2.36491
2.34507
2.31877
2.28856
1.01387
1.02136
1.02597
1.02929
1.03151
1.03329
1.03446
1.0355
1.0362
1.03701
1.03806
1.04256
1.04935
1.0715
1.11987
1.23397
1.54161
2.12687
2.32704
2.34914
2.34804
2.33644
2.3228
2.30524
2.28114
1.01381
1.02144
1.0259
1.02938
1.03142
1.03339
1.03437
1.0356
1.03609
1.03706
1.03778
1.04091
1.04546
1.06202
1.09501
1.17066
1.4089
1.9574
2.25639
2.32884
2.32504
2.31441
2.29539
2.27636
2.25676
1.01385
1.02139
1.02595
1.02934
1.03145
1.03335
1.03442
1.03554
1.03614
1.03698
1.03755
1.0396
1.04282
1.05481
1.07556
1.13584
1.27347
1.71788
2.11269
2.27748
2.30158
2.29968
2.28597
2.26505
2.24286
1.01396
1.02128
1.02605
1.02922
1.03157
1.03323
1.03453
1.03543
1.03623
1.0368
1.03745
1.03825
1.04162
1.04734
1.06275
1.10512
1.18182
1.46115
2.01032
2.21091
2.25379
2.26229
2.25921
2.24873
2.23048
1.01391
1.02133
1.026
1.02927
1.03153
1.03328
1.03447
1.03549
1.03617
1.03685
1.03728
1.03794
1.03952
1.04521
1.05424
1.08055
1.14736
1.28701
1.70075
2.11587
2.23401
2.23675
2.2351
2.22389
2.2097
1.014
1.02124
1.0261
1.02917
1.03163
1.03318
1.03458
1.03538
1.03627
1.03673
1.03738
1.03776
1.03874
1.04259
1.04805
1.06686
1.10558
1.19308
1.45192
1.95032
2.17262
2.21424
2.21271
2.20773
2.19291
1.01393
1.02131
1.02602
1.02925
1.03155
1.03326
1.03449
1.03547
1.03619
1.03682
1.03728
1.03778
1.03838
1.04081
1.04433
1.05734
1.08096
1.14189
1.30427
1.73386
2.06547
2.18436
2.18855
2.18797
2.1762
1.01387
1.02138
1.02596
1.02931
1.03149
1.03332
1.03443
1.03553
1.03613
1.03687
1.03721
1.03781
1.03819
1.03955
1.04182
1.05013
1.06364
1.10719
1.19052
1.47906
1.87193
2.12025
2.1682
2.16689
2.16214
1.01388
1.02136
1.02597
1.0293
1.0315
1.0333
1.03445
1.03551
1.03614
1.03685
1.03723
1.03776
1.03805
1.03885
1.04027
1.0459
1.05426
1.0811
1.13942
1.27771
1.63752
1.99312
2.12655
2.14482
2.14448
1.01395
1.02129
1.02604
1.02922
1.03157
1.03323
1.03452
1.03544
1.03622
1.03678
1.0373
1.03767
1.03805
1.0384
1.03933
1.04281
1.04792
1.06452
1.1005
1.1789
1.40812
1.84162
2.05062
2.11107
2.11925
1.01399
1.02125
1.02608
1.02919
1.03161
1.0332
1.03456
1.03541
1.03625
1.03675
1.03733
1.03763
1.03808
1.03831
1.03886
1.04099
1.04403
1.05521
1.0748
1.12828
1.25644
1.62941
1.92431
2.06727
2.08874
1.01393
1.02131
1.02603
1.02924
1.03156
1.03325
1.0345
1.03546
1.0362
1.0368
1.03728
1.03768
1.03802
1.03831
1.03861
1.03945
1.04227
1.04717
1.06009
1.09446
1.15841
1.37485
1.78545
1.98941
2.06107
1.01388
1.02135
1.02598
1.02929
1.03151
1.03329
1.03446
1.0355
1.03616
1.03684
1.03724
1.03772
1.03797
1.03835
1.03854
1.03911
1.04023
1.04418
1.05097
1.06956
1.11676
1.21028
1.48698
1.84687
2.01639
1.01396
1.02128
1.02606
1.02921
1.03159
1.03322
1.03454
1.03542
1.03623
1.03677
1.03731
1.03764
1.03806
1.03826
1.03859
1.03884
1.0397
1.0414
1.0462
1.05715
1.08088
1.14703
1.28944
1.64171
1.91863
1.01397
1.02127
1.02607
1.02921
1.03159
1.03321
1.03454
1.03542
1.03624
1.03676
1.03732
1.03764
1.03805
1.03825
1.03858
1.03875
1.03923
1.04011
1.04347
1.04859
1.06476
1.09867
1.17662
1.38351
1.77622
1.0139
1.02134
1.026
1.02927
1.03153
1.03328
1.03447
1.03549
1.03617
1.03683
1.03725
1.03771
1.03798
1.03833
1.0385
1.03879
1.03899
1.03973
1.04093
1.04548
1.05262
1.07424
1.12251
1.23083
1.51635
1.0139
1.02134
1.02599
1.02927
1.03152
1.03328
1.03447
1.03548
1.03617
1.03682
1.03725
1.03771
1.03798
1.03832
1.0385
1.03877
1.0389
1.03925
1.03995
1.04265
1.04665
1.05897
1.08749
1.14475
1.3254
1.01396
1.02128
1.02606
1.02921
1.03159
1.03322
1.03453
1.03542
1.03623
1.03676
1.03731
1.03765
1.03804
1.03826
1.03856
1.0387
1.03895
1.03909
1.03961
1.04058
1.04377
1.04955
1.06535
1.10099
1.18473
1.01395
1.02129
1.02604
1.02923
1.03157
1.03324
1.03452
1.03544
1.03621
1.03678
1.03729
1.03767
1.03802
1.03828
1.03854
1.03872
1.03891
1.03906
1.03928
1.04009
1.04134
1.04593
1.05332
1.07539
1.12274
1.01391
1.02133
1.02601
1.02926
1.03154
1.03327
1.03448
1.03547
1.03618
1.03681
1.03726
1.0377
1.03799
1.03831
1.0385
1.03875
1.03888
1.03908
1.03921
1.03967
1.0404
1.04338
1.04749
1.06199
1.08905
1.0139
1.02133
1.026
1.02926
1.03153
1.03327
1.03448
1.03548
1.03618
1.03682
1.03726
1.0377
1.03799
1.03831
1.0385
1.03875
1.03887
1.03907
1.03917
1.03944
1.03997
1.04205
1.04497
1.05563
1.07433
1.01391
1.02132
1.02601
1.02926
1.03154
1.03326
1.03449
1.03547
1.03618
1.03681
1.03726
1.0377
1.03799
1.03831
1.03851
1.03875
1.03888
1.03907
1.03915
1.03935
1.03979
1.04149
1.04391
1.05234
1.06971
1.01395
1.02129
1.02605
1.02922
1.03158
1.03323
1.03452
1.03543
1.03622
1.03677
1.0373
1.03766
1.03803
1.03827
1.03855
1.03871
1.03891
1.03902
1.0392
1.03931
1.03984
1.04082
1.04337
1.05066
1.0647
1.01393
1.02131
1.02603
1.02924
1.03156
1.03325
1.0345
1.03545
1.0362
1.03679
1.03728
1.03768
1.03801
1.03829
1.03853
1.03873
1.0389
1.03904
1.03916
1.03928
1.03967
1.04084
1.04337
1.04891
1.06738
1.01394
1.0213
1.02604
1.02923
1.03157
1.03324
1.03451
1.03544
1.03621
1.03678
1.03729
1.03767
1.03802
1.03828
1.03854
1.03871
1.03891
1.03903
1.03919
1.03932
1.03984
1.04066
1.04375
1.04937
1.06478
1.01395
1.02129
1.02604
1.02923
1.03157
1.03323
1.03452
1.03544
1.03621
1.03678
1.03729
1.03766
1.03803
1.03828
1.03854
1.03871
1.03891
1.03903
1.03919
1.03932
1.03984
1.04064
1.04375
1.04918
1.06459
1.00586
1.01315
1.02102
1.02848
1.03518
1.04111
1.04639
1.05157
1.05831
1.075
1.10685
1.18104
1.39512
1.92486
2.76832
2.70379
2.71149
2.67162
2.66519
2.63788
2.61703
2.62095
2.58587
2.51842
2.33536
1.00584
1.01317
1.021
1.0285
1.03516
1.04112
1.04635
1.0515
1.05798
1.07393
1.10332
1.17403
1.37269
1.86616
2.73236
2.71606
2.69071
2.65804
2.65288
2.62836
2.59427
2.57974
2.5374
2.4572
2.28014
1.00624
1.01277
1.0214
1.0281
1.03558
1.04068
1.04682
1.0508
1.05787
1.06953
1.10028
1.17416
1.32182
1.7846
2.72978
2.71359
2.67673
2.64287
2.6335
2.61092
2.56118
2.54183
2.49566
2.42049
2.28007
1.00557
1.01345
1.02073
1.02877
1.0349
1.04134
1.04612
1.05137
1.05673
1.06789
1.09515
1.16294
1.29133
1.72452
2.69017
2.70288
2.64766
2.64004
2.62389
2.60178
2.54511
2.50419
2.46136
2.40034
2.28262
1.00623
1.01279
1.02138
1.02812
1.03553
1.04074
1.04665
1.05088
1.0568
1.06662
1.09187
1.13514
1.29958
1.60532
2.49987
2.67857
2.65979
2.62759
2.60406
2.58346
2.52978
2.48305
2.4303
2.3852
2.28938
1.00563
1.01338
1.02079
1.02872
1.03494
1.04132
1.04605
1.05139
1.05623
1.06725
1.08531
1.13286
1.25809
1.53149
2.35024
2.63065
2.66404
2.63137
2.59482
2.57263
2.52189
2.46354
2.40869
2.3664
2.29637
1.00551
1.0135
1.02068
1.02883
1.03483
1.04143
1.04593
1.05141
1.05564
1.06507
1.08005
1.12024
1.22051
1.43837
2.14222
2.56305
2.65082
2.62708
2.5748
2.55616
2.51632
2.45931
2.38938
2.35074
2.29457
1.00547
1.01355
1.02063
1.02888
1.03478
1.04147
1.04586
1.05137
1.05506
1.06273
1.07504
1.1072
1.18544
1.35065
1.84467
2.49983
2.62173
2.60821
2.568
2.53571
2.50298
2.45616
2.38468
2.3306
2.28849
1.00562
1.01341
1.02077
1.02874
1.03492
1.04133
1.04599
1.05116
1.05478
1.06077
1.07093
1.09745
1.1612
1.28746
1.69122
2.50885
2.58003
2.56564
2.55418
2.52368
2.49148
2.45394
2.38655
2.32474
2.27628
1.0057
1.01331
1.02087
1.02863
1.03504
1.0412
1.04614
1.05092
1.05494
1.05997
1.07023
1.08942
1.13504
1.26627
1.53868
2.34232
2.55078
2.55676
2.53872
2.5086
2.47403
2.44688
2.39073
2.32655
2.27317
1.00588
1.01314
1.02104
1.02846
1.0352
1.04104
1.04629
1.05074
1.05497
1.05911
1.06676
1.08304
1.11618
1.22033
1.41717
2.04457
2.47679
2.54798
2.52587
2.5027
2.46249
2.43823
2.39596
2.3316
2.27499
1.0057
1.01331
1.02086
1.02864
1.03502
1.04121
1.0461
1.05091
1.05461
1.05886
1.06402
1.07859
1.10263
1.17061
1.32471
1.80604
2.35949
2.51261
2.50546
2.48883
2.44884
2.4206
2.39196
2.34318
2.28176
1.00619
1.01282
1.02135
1.02816
1.03549
1.04075
1.04655
1.05045
1.05498
1.05812
1.063
1.07214
1.0941
1.13567
1.27293
1.57298
2.23618
2.47069
2.48838
2.47628
2.44635
2.40711
2.3816
2.34376
2.29287
1.00506
1.01397
1.02022
1.02929
1.03437
1.04185
1.04546
1.05151
1.05391
1.05893
1.06122
1.06887
1.08421
1.12421
1.19829
1.44562
2.09318
2.3757