/*--------------------------------*- C++ -*----------------------------------*\
  =========                 |
  \\      /  F ield         | OpenFOAM: The Open Source CFD Toolbox
   \\    /   O peration     | Website:  https://openfoam.org
    \\  /    A nd           | Version:  6
     \\/     M anipulation  |
\*---------------------------------------------------------------------------*/
FoamFile
{
    version     2.0;
    format      ascii;
    class       volVectorField;
    location    "4";
    object      U;
}
// * * * * * * * * * * * * * * * * * * * * * * * * * * * * * * * * * * * * * //

dimensions      [0 1 -1 0 0 0 0];

internalField   nonuniform List<vector> 
26250
(
(3.01561 6.68188e-08 -0.0579681)
(3.02577 4.98649e-07 -0.059771)
(3.03428 2.15799e-07 -0.0611249)
(3.04139 1.09498e-06 -0.0622755)
(3.04763 -4.71642e-08 -0.0631536)
(3.0527 1.44386e-06 -0.0640241)
(3.05729 -4.30287e-07 -0.0645774)
(3.05997 4.17419e-06 -0.0654422)
(3.05857 9.92128e-06 -0.0660107)
(3.05605 3.65984e-05 -0.0676212)
(3.03666 7.06443e-05 -0.0701795)
(3.00066 0.000224213 -0.0783331)
(2.85839 0.000493642 -0.0934282)
(2.45492 0.00155139 -0.139575)
(1.46995 0.00404941 -0.237922)
(0.658166 0.0113691 -0.277775)
(0.761777 0.0144618 -0.259207)
(0.903938 0.0156149 -0.250678)
(0.983665 0.018855 -0.254489)
(0.966461 0.0250088 -0.259906)
(0.949311 0.0256462 -0.260943)
(0.894458 0.0212848 -0.263625)
(0.76055 0.0136785 -0.267546)
(0.509087 0.0109026 -0.269109)
(0.2868 0.00164125 -0.263155)
(3.01561 1.21508e-06 -0.0579684)
(3.02577 1.44628e-06 -0.0597706)
(3.03428 9.35045e-07 -0.0611252)
(3.04139 2.85477e-06 -0.062275)
(3.04763 -1.15681e-06 -0.063154)
(3.0527 4.79567e-06 -0.0640237)
(3.05729 -3.30754e-06 -0.0645775)
(3.05997 1.72512e-05 -0.0654416)
(3.05859 4.18401e-05 -0.0660091)
(3.0561 0.000130778 -0.0676161)
(3.03681 0.000249839 -0.0701633)
(3.00102 0.000682493 -0.0782997)
(2.85939 0.00145737 -0.0933399)
(2.45814 0.00401505 -0.139337)
(1.48106 0.01037 -0.237523)
(0.681734 0.0228048 -0.27642)
(0.78097 0.0317395 -0.257853)
(0.919626 0.0396363 -0.248517)
(0.999832 0.0472582 -0.252432)
(1.00081 0.0542441 -0.255862)
(0.971425 0.056423 -0.258435)
(0.912221 0.0508326 -0.261485)
(0.788994 0.0392107 -0.264021)
(0.557551 0.0358022 -0.266161)
(0.354715 0.0275557 -0.260344)
(3.01561 8.17633e-06 -0.057969)
(3.02577 -8.81639e-07 -0.0597699)
(3.03428 4.20722e-06 -0.0611259)
(3.04139 -1.90642e-06 -0.0622744)
(3.04763 -1.14943e-06 -0.0631543)
(3.0527 2.88153e-06 -0.0640235)
(3.0573 -6.66624e-06 -0.0645766)
(3.06 6.53108e-05 -0.0654403)
(3.05866 0.000169685 -0.0660055)
(3.05622 0.000443202 -0.0676039)
(3.0371 0.000807038 -0.0701331)
(3.00167 0.00182609 -0.0782181)
(2.86086 0.00351537 -0.0931306)
(2.46213 0.00792296 -0.139001)
(1.48664 0.0178677 -0.236953)
(0.659232 0.0433679 -0.276922)
(0.764455 0.0588144 -0.258048)
(0.908322 0.0687086 -0.248578)
(0.988166 0.0748753 -0.252442)
(0.989165 0.078367 -0.2557)
(0.95486 0.0827796 -0.258529)
(0.88781 0.0842554 -0.261073)
(0.765217 0.0801684 -0.263108)
(0.533887 0.0779719 -0.265074)
(0.324377 0.0731506 -0.259263)
(3.01561 2.14519e-05 -0.057976)
(3.02576 -8.84486e-06 -0.0597618)
(3.03428 1.3943e-05 -0.0611339)
(3.04139 -1.94757e-05 -0.0622654)
(3.04763 1.7786e-05 -0.0631627)
(3.0527 -3.97009e-05 -0.064015)
(3.05734 4.7172e-05 -0.0645808)
(3.06012 -0.000104419 -0.0654303)
(3.05891 6.65739e-05 -0.0659906)
(3.05662 0.00134835 -0.0675997)
(3.03793 -0.00244687 -0.0699806)
(3.00345 0.0104284 -0.0780886)
(2.86363 -0.00971112 -0.0925642)
(2.47643 0.0416006 -0.138219)
(1.50638 0.0305811 -0.23605)
(0.707688 0.0801633 -0.274662)
(0.799099 0.100529 -0.255815)
(0.929457 0.109489 -0.246022)
(1.00282 0.114163 -0.250532)
(0.990571 0.11983 -0.254938)
(0.958888 0.125568 -0.256883)
(0.891249 0.130803 -0.25935)
(0.762682 0.133182 -0.260881)
(0.525393 0.131458 -0.262425)
(0.307925 0.122322 -0.258001)
(3.01561 7.17903e-06 -0.0579986)
(3.02576 -2.48307e-06 -0.0597363)
(3.03427 6.4243e-06 -0.0611599)
(3.04139 -7.70421e-06 -0.0622366)
(3.04761 7.31684e-06 -0.0631939)
(3.05273 -1.4451e-05 -0.063977)
(3.05725 8.07963e-06 -0.0646286)
(3.06002 -2.57151e-05 -0.0653606)
(3.05986 -7.93745e-05 -0.0660966)
(3.0541 0.000345106 -0.0675437)
(3.04414 0.000879542 -0.0694427)
(2.99581 0.0025547 -0.078527)
(2.87644 0.00566861 -0.0907151)
(2.5168 0.0143072 -0.141649)
(1.53086 0.0365599 -0.226494)
(0.754813 0.0891922 -0.270796)
(0.831963 0.118894 -0.252547)
(0.952985 0.132921 -0.242236)
(1.0213 0.144665 -0.246519)
(1.01462 0.157397 -0.250269)
(0.980249 0.169087 -0.252557)
(0.911627 0.178514 -0.255085)
(0.7789 0.185738 -0.256426)
(0.535578 0.18865 -0.25761)
(0.310984 0.177592 -0.254001)
(3.01561 -9.51482e-07 -0.0579794)
(3.02576 -4.33305e-07 -0.0597578)
(3.03427 1.68825e-06 -0.061138)
(3.04139 -3.61432e-06 -0.0622605)
(3.04763 7.38713e-06 -0.0631685)
(3.0527 -1.18314e-05 -0.0640068)
(3.05733 2.70318e-05 -0.0645896)
(3.06005 -1.25907e-05 -0.0654144)
(3.05921 0.000200462 -0.0659674)
(3.05741 0.000465756 -0.0675516)
(3.03971 0.00112033 -0.0697284)
(3.00742 0.002253 -0.077663)
(2.87209 0.00596464 -0.0912187)
(2.50786 0.0158338 -0.13573)
(1.57258 0.0445444 -0.230837)
(0.78768 0.110637 -0.271088)
(0.85495 0.146799 -0.251831)
(0.967276 0.164263 -0.240127)
(1.03607 0.180111 -0.244249)
(1.03067 0.197532 -0.247703)
(0.994737 0.214242 -0.249711)
(0.926403 0.227915 -0.251492)
(0.793773 0.240527 -0.252086)
(0.546194 0.251511 -0.252567)
(0.315422 0.243922 -0.248912)
(3.01561 -4.277e-06 -0.0579941)
(3.02576 4.06069e-07 -0.0597413)
(3.03427 -5.95037e-06 -0.061155)
(3.0414 3.48465e-06 -0.0622415)
(3.04761 -5.93679e-06 -0.0631896)
(3.05274 1.03356e-05 -0.0639793)
(3.05725 -2.51087e-06 -0.0646271)
(3.06016 2.46493e-05 -0.0653463)
(3.06026 5.46752e-05 -0.0660719)
(3.05487 0.000210367 -0.067454)
(3.04561 0.000456447 -0.0692831)
(2.99988 0.00197709 -0.077906)
(2.88771 0.00552055 -0.0894999)
(2.54873 0.0168534 -0.136811)
(1.61737 0.0555926 -0.219986)
(0.857085 0.134422 -0.266281)
(0.894957 0.178768 -0.249388)
(0.994343 0.198237 -0.23688)
(1.05793 0.216619 -0.240828)
(1.05334 0.236883 -0.244011)
(1.01515 0.258317 -0.246107)
(0.946487 0.277722 -0.24738)
(0.814836 0.298747 -0.247223)
(0.563016 0.322609 -0.247001)
(0.324085 0.328204 -0.242913)
(3.01561 -1.68084e-05 -0.0579794)
(3.02576 6.31024e-06 -0.0597585)
(3.03427 -1.29332e-05 -0.0611353)
(3.04139 2.05419e-05 -0.0622606)
(3.04763 -2.26715e-05 -0.0631667)
(3.0527 5.4609e-05 -0.0640076)
(3.05734 -7.24542e-05 -0.064588)
(3.06009 0.000176152 -0.0654101)
(3.05936 -0.000139951 -0.0659452)
(3.05774 -0.000864533 -0.0674325)
(3.04119 0.00334584 -0.0695688)
(3.01151 -0.00556269 -0.0770346)
(2.88495 0.0199705 -0.0895197)
(2.54565 -0.00639093 -0.132479)
(1.68259 0.0637259 -0.223751)
(0.898098 0.153039 -0.26643)
(0.915727 0.206159 -0.248765)
(1.00566 0.229159 -0.234386)
(1.07195 0.250566 -0.237934)
(1.06939 0.274781 -0.240868)
(1.03327 0.301226 -0.242536)
(0.968185 0.327751 -0.243055)
(0.841964 0.360601 -0.241937)
(0.590026 0.404743 -0.240635)
(0.343091 0.441009 -0.235176)
(3.01561 -3.09715e-05 -0.0579807)
(3.02577 7.70431e-06 -0.0597564)
(3.03428 -4.10235e-06 -0.0611389)
(3.04139 2.43662e-06 -0.0622602)
(3.04764 2.28678e-05 -0.0631686)
(3.0527 -2.66676e-05 -0.0640075)
(3.05734 7.41902e-05 -0.0645852)
(3.06011 -9.64197e-05 -0.0654097)
(3.05939 0.000260086 -0.0659304)
(3.05778 0.000768147 -0.0673548)
(3.04204 0.00143631 -0.0694551)
(3.01365 0.00421478 -0.0766862)
(2.89489 0.00938478 -0.0884768)
(2.56796 0.0269504 -0.130396)
(1.76784 0.0724396 -0.217856)
(0.976345 0.186953 -0.262872)
(0.961362 0.239445 -0.246413)
(1.03429 0.267685 -0.23155)
(1.0952 0.28821 -0.234786)
(1.09184 0.314209 -0.237404)
(1.0582 0.343934 -0.238419)
(0.998787 0.377806 -0.238037)
(0.883919 0.425753 -0.235763)
(0.64207 0.500349 -0.233056)
(0.387285 0.600321 -0.224707)
(3.01562 2.26276e-05 -0.0579145)
(3.02579 -1.7842e-05 -0.0598291)
(3.03427 2.34129e-05 -0.0610672)
(3.04141 -4.27451e-05 -0.0623342)
(3.04761 5.07891e-05 -0.0630973)
(3.05275 -9.44513e-05 -0.0640758)
(3.05729 0.000143116 -0.0645267)
(3.06025 -0.000182771 -0.0654486)
(3.06008 0.000590916 -0.065894)
(3.05871 0.00188506 -0.067291)
(3.04397 -0.000353082 -0.06917)
(3.01823 0.0119556 -0.0762848)
(2.90296 -0.00273264 -0.0869423)
(2.59989 0.0600279 -0.128544)
(1.82415 0.0780559 -0.21343)
(1.05045 0.221901 -0.259758)
(1.01313 0.273998 -0.242732)
(1.0724 0.3068 -0.228451)
(1.12616 0.325378 -0.23125)
(1.12311 0.352521 -0.23372)
(1.09429 0.384572 -0.233979)
(1.04448 0.426696 -0.232597)
(0.951142 0.495428 -0.228562)
(0.746213 0.617952 -0.22235)
(0.482666 0.859098 -0.208343)
(2.98855 -2.49014e-07 -0.0014324)
(2.98291 4.94017e-07 -0.00328767)
(2.97953 7.62812e-08 -0.00492941)
(2.97738 1.12279e-06 -0.00644604)
(2.97597 1.57879e-07 -0.00768111)
(2.975 1.35065e-06 -0.00889819)
(2.97415 4.11942e-07 -0.00973762)
(2.97265 2.038e-06 -0.0108143)
(2.96763 8.73567e-06 -0.011275)
(2.95799 2.7741e-05 -0.012144)
(2.92633 7.61461e-05 -0.0136353)
(2.85705 0.000195657 -0.0165351)
(2.65586 0.000512556 -0.0232318)
(2.02086 0.00147571 -0.036166)
(0.561699 0.00416177 -0.0643555)
(-0.434258 0.0180193 -0.064698)
(0.0421131 0.0242302 -0.060738)
(0.428923 0.0320477 -0.0583068)
(0.501159 0.0449241 -0.0608692)
(0.39668 0.0680636 -0.0611432)
(0.378814 0.0690594 -0.063064)
(0.283272 0.0571855 -0.0634676)
(0.0869452 0.0489256 -0.0637291)
(0.00513464 0.0405263 -0.0607629)
(0.153685 0.0131528 -0.0547568)
(2.98855 4.41266e-07 -0.00143232)
(2.98291 1.37243e-06 -0.00328779)
(2.97953 9.54513e-07 -0.00492931)
(2.97738 2.61806e-06 -0.00644623)
(2.97597 6.71299e-07 -0.00768101)
(2.975 3.15309e-06 -0.00889816)
(2.97415 1.21524e-06 -0.00973784)
(2.97266 8.44816e-06 -0.0108135)
(2.96766 3.15835e-05 -0.0112769)
(2.95805 0.000105345 -0.0121358)
(2.92647 0.000242673 -0.0136607)
(2.85743 0.00071736 -0.0164943)
(2.6568 0.00163276 -0.0233155)
(2.02413 0.00482619 -0.0361142)
(0.575295 0.0129654 -0.0645428)
(-0.381283 0.0301756 -0.0648088)
(0.0636376 0.0526406 -0.0602656)
(0.444239 0.0738631 -0.0577478)
(0.523259 0.0931006 -0.0603962)
(0.46073 0.123193 -0.0618777)
(0.398348 0.120895 -0.0624206)
(0.29113 0.111636 -0.0620056)
(0.116274 0.106442 -0.0621338)
(0.0109237 0.107411 -0.0600088)
(0.203923 0.0652486 -0.0540652)
(2.98855 4.0377e-06 -0.00143251)
(2.98291 1.45628e-06 -0.00328776)
(2.97953 3.32102e-06 -0.00492925)
(2.97738 1.5784e-06 -0.0064464)
(2.97597 1.0678e-06 -0.00768048)
(2.975 2.57176e-06 -0.00889913)
(2.97415 8.93241e-07 -0.00973625)
(2.97267 1.80728e-05 -0.0108168)
(2.96771 6.71393e-05 -0.0112751)
(2.95816 0.000221332 -0.0121475)
(2.92682 0.000452572 -0.0136293)
(2.85824 0.00142599 -0.0165348)
(2.65897 0.00294867 -0.0232082)
(2.03031 0.00883339 -0.0360468)
(0.580044 0.0229484 -0.0643695)
(-0.431662 0.0595119 -0.0638807)
(0.0574527 0.0946201 -0.0600783)
(0.443954 0.122349 -0.0574887)
(0.521498 0.137952 -0.0602281)
(0.46674 0.14613 -0.0620035)
(0.396685 0.161729 -0.062037)
(0.290817 0.173994 -0.0608975)
(0.126455 0.181907 -0.060445)
(0.00794233 0.187888 -0.0585417)
(0.183202 0.136288 -0.0527646)
(2.98855 1.04789e-05 -0.00143377)
(2.98291 -2.49406e-07 -0.00328611)
(2.97953 8.44256e-06 -0.00493024)
(2.97738 -3.43761e-06 -0.00644509)
(2.97597 6.47842e-06 -0.00768136)
(2.975 -4.73611e-06 -0.00889868)
(2.97416 9.70407e-06 -0.00973606)
(2.97271 4.19959e-05 -0.010824)
(2.96782 0.000215708 -0.0112876)
(2.95835 0.00028451 -0.0121578)
(2.92741 0.00171198 -0.0136717)
(2.85946 0.00175116 -0.0165195)
(2.66235 0.0068059 -0.0232876)
(2.03968 0.0147455 -0.0359067)
(0.608747 0.0327293 -0.0643402)
(-0.358184 0.097894 -0.0644796)
(0.0842781 0.139838 -0.0596121)
(0.452954 0.171491 -0.0566135)
(0.511968 0.191101 -0.0595003)
(0.419357 0.211955 -0.0606539)
(0.37565 0.22959 -0.0614715)
(0.27951 0.249759 -0.0600196)
(0.12935 0.266811 -0.0589758)
(0.00610188 0.272102 -0.0567633)
(0.163403 0.21086 -0.0510802)
(2.98855 4.61167e-06 -0.00143648)
(2.98291 -2.3581e-07 -0.00328222)
(2.97953 3.96717e-06 -0.00493332)
(2.97738 -1.71086e-06 -0.00644062)
(2.97597 2.17961e-06 -0.00768721)
(2.975 -5.67588e-07 -0.00888888)
(2.97419 1.4675e-06 -0.00975092)
(2.97285 3.18541e-05 -0.0107893)
(2.96792 0.000109679 -0.0112956)
(2.95936 0.00038928 -0.0122907)
(2.92829 0.000831939 -0.0131204)
(2.86171 0.00277246 -0.0178691)
(2.66844 0.00616898 -0.0206584)
(2.04877 0.019061 -0.0395074)
(0.608038 0.0527461 -0.0626546)
(-0.328297 0.124812 -0.0647942)
(0.103684 0.179028 -0.059278)
(0.463742 0.218218 -0.0558516)
(0.517386 0.248873 -0.0586579)
(0.443277 0.278705 -0.0604145)
(0.37943 0.300608 -0.0605816)
(0.28441 0.325601 -0.0589735)
(0.143165 0.350106 -0.0574078)
(0.0120862 0.356732 -0.0546764)
(0.150667 0.28943 -0.0490151)
(2.98855 3.70948e-07 -0.00143521)
(2.98291 -9.62646e-07 -0.00328425)
(2.97953 9.65659e-07 -0.00493196)
(2.97738 -2.30964e-06 -0.00644251)
(2.97597 2.94757e-06 -0.00768407)
(2.975 -3.14458e-06 -0.00889476)
(2.97419 9.29764e-06 -0.00973909)
(2.9728 1.47783e-05 -0.0108164)
(2.96812 8.85284e-05 -0.0112653)
(2.95895 0.000429391 -0.0121725)
(2.92933 0.00101186 -0.013663)
(2.86398 0.00323602 -0.0164549)
(2.67492 0.00805101 -0.0230958)
(2.07845 0.0240672 -0.0349907)
(0.692206 0.0692179 -0.063485)
(-0.279112 0.160146 -0.0639976)
(0.127053 0.221616 -0.0588289)
(0.477205 0.265819 -0.0549001)
(0.525157 0.30492 -0.0577773)
(0.449937 0.347468 -0.0596117)
(0.385091 0.372966 -0.0596072)
(0.296254 0.401893 -0.0577621)
(0.166355 0.433106 -0.0557019)
(0.027399 0.445291 -0.0524282)
(0.141113 0.380135 -0.0465283)
(2.98855 -3.56483e-06 -0.00143679)
(2.98291 -3.53396e-07 -0.00328187)
(2.97953 -3.77781e-06 -0.00493409)
(2.97738 6.6776e-07 -0.00643922)
(2.97597 -2.08555e-06 -0.00768916)
(2.97501 3.5367e-06 -0.00888545)
(2.9742 5.20626e-06 -0.00975605)
(2.97292 2.83436e-05 -0.0107805)
(2.96825 0.000126476 -0.0113094)
(2.96012 0.000489811 -0.0122688)
(2.93054 0.00130257 -0.0130812)
(2.8678 0.00365667 -0.0176575)
(2.68471 0.0104488 -0.020288)
(2.10137 0.0273396 -0.0377812)
(0.730455 0.0872303 -0.0613536)
(-0.203776 0.193943 -0.0645387)
(0.162837 0.263871 -0.0584683)
(0.493842 0.312267 -0.054061)
(0.537812 0.358111 -0.0568485)
(0.467138 0.408072 -0.0587421)
(0.398163 0.443047 -0.0585449)
(0.316557 0.478994 -0.0563834)
(0.200051 0.518651 -0.0537519)
(0.0545166 0.541705 -0.0498772)
(0.136874 0.489627 -0.0435232)
(2.98855 -1.06854e-05 -0.00143521)
(2.98291 1.67715e-06 -0.00328436)
(2.97953 -8.50231e-06 -0.00493146)
(2.97738 7.86346e-06 -0.00644342)
(2.97598 -7.44869e-06 -0.00768244)
(2.975 1.58717e-05 -0.00889733)
(2.97421 -5.45945e-06 -0.00973522)
(2.9729 2.5705e-05 -0.0108172)
(2.96851 4.28433e-05 -0.0112473)
(2.95995 0.000578554 -0.0121144)
(2.93193 0.000592637 -0.0135535)
(2.87198 0.00432196 -0.0161563)
(2.69364 0.0105689 -0.0225818)
(2.14316 0.0278094 -0.0330993)
(0.846167 0.101816 -0.0621041)
(-0.126278 0.227983 -0.0639234)
(0.202351 0.305445 -0.057791)
(0.513056 0.357659 -0.0529379)
(0.553606 0.408637 -0.0557268)
(0.487228 0.464199 -0.0574543)
(0.420037 0.511059 -0.0571929)
(0.346478 0.556808 -0.0549789)
(0.24548 0.608249 -0.051741)
(0.0977653 0.649592 -0.0471811)
(0.142334 0.627026 -0.0401597)
(2.98855 -1.06471e-05 -0.00143441)
(2.98291 3.90073e-07 -0.00328507)
(2.97954 -6.44367e-06 -0.00493142)
(2.97738 3.03506e-06 -0.00644406)
(2.97598 -3.85776e-07 -0.00768205)
(2.97501 2.6391e-06 -0.008898)
(2.97422 1.26973e-05 -0.00973369)
(2.97295 2.58596e-05 -0.0108158)
(2.96873 0.000176652 -0.0112389)
(2.96065 0.000673102 -0.0120612)
(2.93339 0.00205242 -0.0135037)
(2.87732 0.00480018 -0.0159375)
(2.70356 0.0144946 -0.0223329)
(2.17928 0.0326748 -0.0323957)
(0.948438 0.107018 -0.0615416)
(-0.0232934 0.262076 -0.0639796)
(0.252445 0.348757 -0.0570114)
(0.5347 0.404636 -0.0519255)
(0.572039 0.457947 -0.0546485)
(0.512047 0.517656 -0.0561292)
(0.450597 0.576226 -0.0555807)
(0.387721 0.63295 -0.0532469)
(0.306481 0.7007 -0.0496391)
(0.166633 0.773196 -0.0442235)
(0.165387 0.807186 -0.0361382)
(2.98856 1.47781e-05 -0.00142954)
(2.98292 1.64717e-06 -0.00329032)
(2.97954 4.0592e-06 -0.00493079)
(2.97738 4.44398e-06 -0.00644186)
(2.97598 -1.00031e-05 -0.00768935)
(2.97502 2.10456e-05 -0.00888377)
(2.97423 -3.87775e-05 -0.00975554)
(2.97305 0.000129479 -0.0107789)
(2.96904 2.00146e-05 -0.0112692)
(2.96151 0.00175192 -0.0120972)
(2.9353 -0.000371905 -0.0134313)
(2.88275 0.0129119 -0.0159621)
(2.7148 0.00210631 -0.021963)
(2.22232 0.0579581 -0.0314885)
(1.04787 0.105007 -0.0607835)
(0.0861694 0.292911 -0.0642712)
(0.30918 0.394198 -0.0559155)
(0.558483 0.451764 -0.0506782)
(0.592631 0.504982 -0.0532207)
(0.541983 0.567943 -0.0547308)
(0.489051 0.635361 -0.0540208)
(0.441261 0.705144 -0.051416)
(0.389378 0.794607 -0.0472645)
(0.277674 0.912804 -0.0414292)
(0.220739 1.08865 -0.0324296)
(2.9951 4.82415e-07 9.9836e-07)
(2.98906 3.261e-07 -5.20432e-07)
(2.98253 5.45513e-07 7.11666e-07)
(2.97637 5.17027e-07 -3.8368e-07)
(2.97072 -1.22289e-07 2.6152e-07)
(2.96583 1.50171e-06 1.7082e-08)
(2.96115 -1.32026e-06 -5.67146e-08)
(2.95659 6.38422e-06 1.14802e-06)
(2.9491 1.82533e-06 3.6908e-06)
(2.93597 6.84103e-05 7.14462e-06)
(2.89777 -3.09465e-05 1.19098e-05)
(2.81556 0.000352629 1.93574e-05)
(2.58614 0.00010468 1.50918e-06)
(1.84569 0.000936284 -3.28938e-05)
(0.17626 0.00222384 -0.000211987)
(-0.923484 0.0163508 5.94078e-05)
(-0.1275 0.0275652 -4.4378e-05)
(0.306533 0.0380961 0.000164389)
(0.39112 0.0424364 0.000498528)
(0.293522 0.0413339 0.00116601)
(-0.148453 0.0637272 0.000102928)
(-0.107906 0.069026 -0.000276738)
(-0.143575 0.0697832 -0.00028989)
(-0.0920175 0.0710568 -0.000186078)
(0.0886871 0.0597833 -0.00043294)
(2.9951 6.95174e-07 2.43671e-06)
(2.98906 5.20785e-07 -2.36197e-06)
(2.98253 8.67181e-07 2.25343e-06)
(2.97637 9.93617e-07 -2.62544e-06)
(2.97073 4.53956e-07 2.55354e-06)
(2.96583 1.12261e-06 -2.73176e-06)
(2.96115 8.76388e-07 3.16142e-06)
(2.95659 4.95419e-06 3.86263e-06)
(2.94915 2.56141e-05 2.56493e-05)
(2.93594 8.48626e-05 -1.92755e-05)
(2.89796 0.000224199 0.000203281)
(2.81571 0.000608244 -0.000172236)
(2.58674 0.00145883 0.000338967)
(1.84627 0.0041805 -0.000165987)
(0.184726 0.0124897 -0.000846645)
(-0.910026 0.0422524 -0.000557963)
(-0.11002 0.0727536 0.000169194)
(0.31669 0.0964585 0.000127642)
(0.386449 0.102426 -0.0001609)
(0.264939 0.0958609 -0.000774662)
(-0.185025 0.125969 0.00013668)
(-0.128226 0.144283 0.000376508)
(-0.162561 0.153139 0.000108202)
(-0.109131 0.159632 -9.21938e-05)
(0.0888098 0.140508 -0.00019542)
(2.9951 1.04421e-06 1.68399e-06)
(2.98906 7.70722e-07 -1.50145e-06)
(2.98253 1.10258e-06 1.52717e-06)
(2.97637 1.18886e-06 -1.7062e-06)
(2.97073 1.78786e-07 1.36259e-06)
(2.96583 1.06635e-06 -1.28742e-06)
(2.96115 1.24588e-06 6.7092e-07)
(2.95661 7.63379e-06 1.51596e-06)
(2.94916 4.39953e-05 3.44032e-06)
(2.93614 0.000157662 7.73251e-06)
(2.89819 0.00041353 5.68631e-06)
(2.81663 0.00116431 2.67654e-05)
(2.58885 0.00280224 -3.15618e-05)
(1.85482 0.00817581 -7.27583e-05)
(0.202256 0.0241 -0.00036901)
(-0.885833 0.0636635 0.000222498)
(-0.0950285 0.114947 -1.56383e-05)
(0.325322 0.154641 -6.9573e-05)
(0.375504 0.170226 -0.000390988)
(0.256329 0.166691 -0.000884647)
(-0.187259 0.205952 0.000132876)
(-0.120913 0.230361 0.000478817)
(-0.162376 0.246714 0.000335537)
(-0.116417 0.25796 4.84588e-05)
(0.0771005 0.232054 0.000116157)
(2.9951 1.51687e-06 2.3257e-06)
(2.98906 8.72632e-07 -2.43807e-06)
(2.98253 1.2113e-06 2.3877e-06)
(2.97637 9.44935e-07 -2.94688e-06)
(2.97073 -1.2231e-06 2.88029e-06)
(2.96583 2.84149e-06 -3.27556e-06)
(2.96116 -1.77555e-06 3.21729e-06)
(2.95663 2.13086e-05 2.72635e-06)
(2.94927 5.52425e-05 2.06421e-05)
(2.93626 0.000337806 -2.67131e-05)
(2.89878 0.000444831 0.000189735)
(2.81779 0.0022127 -0.00021342)
(2.59209 0.00384885 0.000329267)
(1.86432 0.0127763 -0.000235111)
(0.224501 0.0369915 -0.000814908)
(-0.85651 0.0991603 0.000101311)
(-0.077347 0.162749 4.62152e-05)
(0.336634 0.212157 -3.87053e-06)
(0.368215 0.237727 -4.6674e-06)
(0.259013 0.240099 0.000319355)
(-0.174853 0.290459 8.6051e-05)
(-0.10254 0.316504 0.000186092)
(-0.151071 0.339837 0.000258986)
(-0.117026 0.35405 0.000124664)
(0.0679621 0.322524 0.000218464)
(2.9951 -9.06143e-10 1.20496e-06)
(2.98906 1.37979e-07 -1.25387e-06)
(2.98253 -2.16392e-07 1.25623e-06)
(2.97637 5.72467e-08 -1.56211e-06)
(2.97073 -7.45448e-07 1.35344e-06)
(2.96583 1.02165e-06 -1.40753e-06)
(2.96117 2.81537e-06 6.34806e-07)
(2.95666 1.87587e-05 -1.96366e-07)
(2.94943 9.26433e-05 -2.97272e-06)
(2.93647 0.00037052 -2.2111e-06)
(2.89966 0.000881587 -1.71959e-05)
(2.8197 0.00276276 -2.42963e-05)
(2.59742 0.00649742 -6.8365e-05)
(1.88136 0.0199085 -0.000138855)
(0.267898 0.0588498 -0.000359129)
(-0.804079 0.142459 -0.000226074)
(-0.0492341 0.213983 0.000102084)
(0.349348 0.269264 7.18048e-05)
(0.363491 0.303997 -1.69898e-05)
(0.261248 0.31738 -0.000105813)
(-0.130666 0.370748 -9.7073e-06)
(-0.0795683 0.401196 2.63704e-05)
(-0.131614 0.431493 0.000162311)
(-0.112406 0.449119 0.000166628)
(0.0615269 0.414318 0.000257368)
(2.9951 -2.54259e-06 1.10456e-06)
(2.98906 -1.51786e-07 -1.25344e-06)
(2.98253 -2.15167e-06 1.2877e-06)
(2.97637 -6.72611e-08 -1.67937e-06)
(2.97073 6.59534e-08 2.14747e-06)
(2.96583 2.78145e-07 -2.79316e-06)
(2.96117 7.5732e-06 3.89671e-06)
(2.9567 1.94094e-05 -1.2929e-06)
(2.94957 0.000117906 1.67834e-05)
(2.93693 0.000456352 -3.06471e-05)
(2.90074 0.00122051 0.000190958)
(2.82275 0.00361444 -0.000248343)
(2.60547 0.00905046 0.000376115)
(1.91042 0.0276186 -0.000269457)
(0.324213 0.0815692 -0.000600076)
(-0.741495 0.181177 0.000190155)
(-0.0197137 0.261989 6.66305e-05)
(0.363198 0.324337 2.27226e-05)
(0.3645 0.368484 -3.24845e-07)
(0.26289 0.39552 6.24455e-05)
(-0.0732757 0.448187 -5.67158e-05)
(-0.0512004 0.486869 -2.73573e-05)
(-0.103553 0.524813 0.000119919)
(-0.101846 0.54859 0.000181958)
(0.0578426 0.515498 0.000283424)
(2.9951 -4.39313e-06 -1.32607e-06)
(2.98906 7.80064e-08 1.96213e-06)
(2.98253 -3.5357e-06 -1.88855e-06)
(2.97637 5.1297e-07 3.0021e-06)
(2.97073 -8.25996e-08 -3.48293e-06)
(2.96583 1.21648e-06 4.8677e-06)
(2.96119 9.25127e-06 -5.92584e-06)
(2.95675 2.58687e-05 3.34534e-06)
(2.94979 0.000138261 -1.74181e-05)
(2.93741 0.000594564 2.40277e-05)
(2.90228 0.00142958 -0.000207988)
(2.82658 0.00459359 0.000223295)
(2.61609 0.0110213 -0.000449979)
(1.94684 0.0339637 0.000216271)
(0.396038 0.101532 0.000476954)
(-0.667597 0.220028 -0.000245964)
(0.0120509 0.310042 -6.35356e-05)
(0.378656 0.378272 -5.13539e-05)
(0.371348 0.430984 -3.32782e-05)
(0.268391 0.472308 -2.58928e-05)
(-0.00777926 0.525735 -6.27129e-05)
(-0.0158409 0.574428 -3.0553e-05)
(-0.0649677 0.621341 0.000107268)
(-0.0827182 0.656456 0.000191848)
(0.0585575 0.63219 0.000288503)
(2.9951 -4.96369e-06 -8.28566e-07)
(2.98906 1.1283e-06 1.15437e-06)
(2.98253 -3.42815e-06 -1.05872e-06)
(2.97637 2.83173e-06 1.74159e-06)
(2.97073 5.39941e-07 -1.55798e-06)
(2.96584 4.23566e-06 2.07045e-06)
(2.9612 1.12921e-05 -1.45921e-06)
(2.95681 3.28966e-05 6.22938e-07)
(2.95005 0.000154805 1.17159e-07)
(2.93802 0.000720432 -4.31638e-06)
(2.90405 0.00157166 1.65807e-05)
(2.83123 0.0054231 -5.07557e-05)
(2.62852 0.0124857 0.000102935)
(1.99132 0.0387648 -0.000125395)
(0.489362 0.11645 0.000195843)
(-0.574888 0.258337 0.00017939)
(0.0467602 0.358904 -6.80243e-05)
(0.394887 0.431718 -8.76143e-05)
(0.383535 0.491483 -5.12707e-05)
(0.28091 0.545612 -4.63151e-05)
(0.0561662 0.605418 -5.40451e-05)
(0.0277193 0.660859 -2.56161e-05)
(-0.0128781 0.722286 9.96861e-05)
(-0.0510182 0.775969 0.000207848)
(0.0664025 0.773306 0.000285829)
(2.9951 -3.3713e-06 -2.90018e-07)
(2.98906 4.48842e-06 4.3323e-07)
(2.98253 -6.07299e-06 -2.60027e-07)
(2.97638 1.1064e-05 6.10569e-07)
(2.97073 -9.92265e-06 -2.81514e-07)
(2.96584 2.02191e-05 5.36995e-07)
(2.96121 -1.95795e-06 -1.81083e-07)
(2.95687 5.46333e-05 5.95318e-08)
(2.95037 0.000245814 -3.46064e-07)
(2.93861 0.000795477 -7.70832e-07)
(2.90616 0.00209752 -5.23079e-06)
(2.83625 0.00568716 -6.70104e-07)
(2.6425 0.0147594 -1.53673e-05)
(2.03991 0.041868 -8.69553e-06)
(0.602844 0.123803 1.70909e-05)
(-0.459468 0.293813 -4.99809e-06)
(0.088001 0.40783 -5.62177e-05)
(0.412048 0.484475 -5.50904e-05)
(0.399695 0.549339 -4.58625e-05)
(0.301305 0.613575 -4.35196e-05)
(0.120811 0.68282 -4.68867e-05)
(0.0808656 0.748161 -3.6903e-05)
(0.0561645 0.826054 7.96373e-05)
(0.00667419 0.907818 0.000227958)
(0.0846108 0.949934 0.00026211)
(2.9951 6.01495e-06 1.64944e-07)
(2.98906 9.40338e-06 2.62562e-07)
(2.98253 -1.01772e-05 5.38987e-08)
(2.97637 3.01397e-05 4.20338e-07)
(2.97074 -4.72926e-05 -3.25657e-07)
(2.96585 8.43385e-05 5.44271e-07)
(2.96123 -0.000114414 -7.21634e-07)
(2.95702 0.000267418 4.1937e-07)
(2.95067 1.98249e-06 -2.49563e-07)
(2.93959 0.00153479 -1.7445e-06)
(2.90808 -0.000478136 -3.31148e-06)
(2.84241 0.01252 -7.13797e-06)
(2.65665 0.00435332 -1.4307e-05)
(2.08999 0.0540108 -1.50922e-05)
(0.724687 0.118116 -1.85615e-05)
(-0.317931 0.323292 -3.57726e-06)
(0.13183 0.457442 -1.81619e-05)
(0.429553 0.535273 -1.07616e-05)
(0.418184 0.603085 -2.96654e-05)
(0.328751 0.675527 -3.43987e-05)
(0.187284 0.753887 -3.83969e-05)
(0.147938 0.832714 -2.6514e-05)
(0.145518 0.93141 5.00235e-05)
(0.104636 1.05306 0.000195691)
(0.12509 1.22295 0.000235915)
(2.98855 7.2477e-06 0.00143419)
(2.98291 -1.31681e-06 0.00328615)
(2.97953 5.97938e-06 0.00493057)
(2.97738 -4.34679e-06 0.00644505)
(2.97597 6.32545e-06 0.00768135)
(2.975 -6.77292e-06 0.00889878)
(2.97415 9.07096e-06 0.00973606)
(2.97267 2.28906e-05 0.0108243)
(2.96768 0.000142326 0.0112884)
(2.95806 1.41395e-05 0.0121793)
(2.92645 0.00111473 0.0136788)
(2.857 -4.29209e-05 0.0166068)
(2.65539 0.0025881 0.0233219)
(2.01577 0.00245933 0.036302)
(0.554266 -0.00149549 0.0640443)
(-0.407218 -0.00599182 0.0648805)
(0.0501314 0.0061811 0.0605409)
(0.438366 0.0146379 0.0584614)
(0.531855 0.00856212 0.0611363)
(0.500205 -0.018728 0.0627381)
(0.44211 -0.0162829 0.0629212)
(0.344007 -0.000604702 0.0624851)
(0.195083 0.0191905 0.0619833)
(0.062763 0.0418169 0.0603098)
(0.181245 0.0515106 0.0545292)
(2.98855 3.89995e-06 0.00143715)
(2.98291 -5.92051e-08 0.00328174)
(2.97953 3.60145e-06 0.00493392)
(2.97738 -1.40223e-06 0.00644023)
(2.97597 2.25011e-06 0.00768755)
(2.975 -2.02979e-06 0.00888867)
(2.97418 -1.59647e-07 0.0097513)
(2.97279 8.52066e-06 0.0107897)
(2.96768 2.92352e-05 0.0112972)
(2.95883 0.00010621 0.0123212)
(2.92671 0.000210599 0.0131142)
(2.85742 0.000737969 0.0180269)
(2.65699 0.00145982 0.0206542)
(2.0099 0.00436008 0.0400105)
(0.50857 0.0110396 0.0625295)
(-0.503763 0.0352949 0.0632365)
(0.0290069 0.0571898 0.060751)
(0.424284 0.0712742 0.0587225)
(0.493248 0.0691965 0.061244)
(0.377149 0.0664109 0.0617908)
(0.364251 0.0712346 0.0634003)
(0.275863 0.0869912 0.063177)
(0.105547 0.106915 0.0624127)
(0.00588795 0.12145 0.0596376)
(0.157349 0.110491 0.0537042)
(2.98855 3.36954e-06 0.00143516)
(2.98291 4.39687e-07 0.00328478)
(2.97953 3.02399e-06 0.00493185)
(2.97738 -3.34579e-07 0.00644288)
(2.97597 8.93377e-07 0.0076837)
(2.975 -4.62403e-07 0.00889523)
(2.97416 -1.79232e-06 0.00973926)
(2.97269 9.09098e-06 0.0108171)
(2.96776 3.07253e-05 0.0112773)
(2.95821 0.000143107 0.0121978)
(2.92694 0.000295849 0.0136936)
(2.85796 0.00100994 0.0166518)
(2.65808 0.00248704 0.0233801)
(2.02179 0.00778919 0.0363096)
(0.569383 0.0223678 0.0637531)
(-0.393356 0.0732409 0.0641478)
(0.0646738 0.103419 0.0599648)
(0.437099 0.126512 0.057553)
(0.493023 0.141217 0.0602624)
(0.389606 0.164303 0.0612056)
(0.35745 0.163928 0.0625903)
(0.261341 0.16571 0.0622466)
(0.0776968 0.185311 0.0615184)
(-0.0147616 0.201436 0.0582995)
(0.138968 0.170888 0.0525847)
(2.98855 8.00144e-06 0.00143795)
(2.98291 -1.46594e-06 0.00328072)
(2.97953 5.8898e-06 0.00493486)
(2.97738 -5.22373e-06 0.00643874)
(2.97597 4.66263e-06 0.00768882)
(2.975 -7.12665e-06 0.00888715)
(2.97418 7.08176e-06 0.00975127)
(2.97282 3.05219e-05 0.0107891)
(2.96779 0.000169994 0.0112824)
(2.95906 0.000183915 0.0122925)
(2.92745 0.00146567 0.0130467)
(2.85936 0.00114948 0.0178899)
(2.6625 0.00578885 0.0204759)
(2.02705 0.0127268 0.0398165)
(0.561841 0.0315956 0.0623501)
(-0.376332 0.0891314 0.064949)
(0.0810053 0.137746 0.0597874)
(0.449474 0.173617 0.0568363)
(0.506734 0.199647 0.0594686)
(0.430361 0.226709 0.0613406)
(0.363409 0.236248 0.0616501)
(0.262084 0.242896 0.0606162)
(0.0881303 0.263506 0.0599096)
(-0.0132153 0.280184 0.0566826)
(0.140184 0.231572 0.050953)
(2.98855 -1.61972e-06 0.00143825)
(2.98291 -5.11559e-07 0.00328009)
(2.97953 -1.80026e-06 0.00493541)
(2.97738 -1.02589e-06 0.00643768)
(2.97597 -8.68244e-07 0.00769021)
(2.975 -1.03343e-06 0.00888529)
(2.97419 4.45253e-06 0.009753)
(2.97284 1.453e-05 0.0107873)
(2.9679 7.44039e-05 0.0112756)
(2.95928 0.000334697 0.0122598)
(2.92814 0.000782746 0.0130443)
(2.86122 0.00251148 0.0177632)
(2.66765 0.00620424 0.0204902)
(2.04311 0.018779 0.0395897)
(0.596907 0.0548167 0.0621232)
(-0.358401 0.127961 0.0643735)
(0.0947481 0.181633 0.0595035)
(0.456988 0.221607 0.0562439)
(0.508061 0.254525 0.058831)
(0.425971 0.290377 0.0603953)
(0.366401 0.306793 0.0607272)
(0.26955 0.32202 0.0592742)
(0.111338 0.345174 0.0581137)
(-0.00515979 0.361023 0.0547997)
(0.139586 0.301612 0.0489717)
(2.98855 -1.25342e-05 0.00143744)
(2.98291 2.25244e-06 0.00328118)
(2.97953 -1.14104e-05 0.0049346)
(2.97738 8.2916e-06 0.00643877)
(2.97597 -1.0851e-05 0.00768942)
(2.97501 1.52592e-05 0.00888574)
(2.9742 -6.2694e-06 0.00975429)
(2.97288 1.92001e-05 0.010784)
(2.96805 1.78995e-05 0.0112924)
(2.95965 0.000502565 0.0122744)
(2.92919 5.63469e-05 0.0130427)
(2.86404 0.00394794 0.0177473)
(2.67507 0.00633549 0.0203601)
(2.06866 0.0256659 0.038834)
(0.653875 0.0802802 0.0617273)
(-0.281889 0.166015 0.0645443)
(0.124049 0.223846 0.0590537)
(0.472333 0.266425 0.0552654)
(0.519413 0.307169 0.0579152)
(0.44453 0.352166 0.0597969)
(0.374829 0.377022 0.0596735)
(0.28432 0.401353 0.0579057)
(0.143308 0.429771 0.0562218)
(0.0126431 0.447542 0.0526745)
(0.136889 0.387271 0.0465992)
(2.98855 -1.33931e-05 0.0014346)
(2.98291 1.93404e-06 0.0032855)
(2.97954 -1.28748e-05 0.00493061)
(2.97738 8.62295e-06 0.00644503)
(2.97598 -1.26012e-05 0.00768087)
(2.975 1.77575e-05 0.00889954)
(2.9742 -8.32287e-06 0.0097336)
(2.97285 2.61671e-05 0.0108236)
(2.96829 3.73688e-05 0.0112685)