/*--------------------------------*- C++ -*----------------------------------*\
  =========                 |
  \\      /  F ield         | OpenFOAM: The Open Source CFD Toolbox
   \\    /   O peration     | Website:  https://openfoam.org
    \\  /    A nd           | Version:  6
     \\/     M anipulation  |
\*---------------------------------------------------------------------------*/
FoamFile
{
    version     2.0;
    format      ascii;
    class       volScalarField;
    location    "70";
    object      p;
}
// * * * * * * * * * * * * * * * * * * * * * * * * * * * * * * * * * * * * * //

dimensions      [0 2 -2 0 0 0 0];

internalField   nonuniform List<scalar> 
918
(
0.538004
1.24113
0.00604432
0.537913
-0.0113796
1.20891
-0.499178
0.638732
0.519154
-0.124283
-0.0761753
0.521063
1.06575
0.833504
-1.1634
-0.0204745
0.634272
-0.416777
0.517193
-0.0753857
0.661737
0.52583
0.528296
0.519082
0.582512
0.787685
0.942859
-0.00362739
0.0102743
0.00507827
-0.0127284
-0.033065
-0.0294148
1.09205
1.14397
1.16714
0.48567
0.320829
-0.394263
-0.448285
-0.42718
-0.5172
0.637134
0.637024
-0.22237
0.640321
0.642051
0.50485
0.518548
0.519384
0.520509
0.519414
0.520694
0.388592
-0.131021
-0.15713
-0.11023
-0.109764
0.0313026
-0.0793388
-0.0816843
-0.0745474
-0.0733643
0.434718
0.515422
0.512367
0.525812
0.533736
1.1813
1.1551
1.18118
1.09148
1.10921
1.04282
1.01584
0.85461
0.877914
0.81755
0.804797
-1.61961
-2.56569
-0.586688
-0.310616
-0.0104808
-0.0214704
-0.0197645
0.630088
0.632198
0.632315
0.635502
1.03848
-0.3884
-0.459803
0.517725
0.516246
0.525352
0.526255
0.521217
0.521218
-0.0714283
-0.070057
-0.064234
-0.0743534
-0.0742126
0.65111
0.65039
0.518518
0.515961
0.5414
0.565187
0.552645
0.252103
0.591044
0.605752
0.650353
0.798158
0.78457
0.797572
0.918052
0.886393
0.974426
0.996122
0.01376
-0.00127946
-0.0223179
-0.0212726
-0.0212561
0.481408
0.474969
0.502974
0.489291
0.492335
0.226054
0.0757768
0.403024
0.426685
-0.317725
-0.367401
-0.456212
-0.453869
-0.561316
0.606453
0.63722
0.636867
-0.234125
-0.16152
-0.289158
-0.104122
-0.161211
0.495795
0.502052
0.498124
0.513512
0.507679
0.510104
0.522619
0.519801
0.521396
0.447408
0.581125
0.308368
0.281489
-0.278162
-0.17449
-0.258947
-0.10179
-0.100557
0.0423458
0.0718131
0.0180909
0.00546739
-0.0937184
-0.0854367
-0.0902835
-0.0699891
-0.070344
0.426162
0.413099
0.445962
0.453489
0.502261
0.503779
0.508173
0.506162
0.966639
0.989623
0.995687
0.971799
-3.54246
-6.17348
0.0329582
0.191804
-0.00917204
-0.0105303
8.74073e-05
-0.00965613
-0.000471419
-0.00260827
-0.0279602
-0.0281401
-0.0224711
-0.0233198
0.627897
0.629145
1.01173
1.03887
0.980913
0.96025
0.507057
0.508945
0.513575
0.510453
-0.0698093
-0.0691372
-0.0695255
0.643104
0.647821
0.645238
0.210745
0.12186
0.303789
0.335022
0.622901
0.610731
0.620985
0.709604
0.749711
1.01334
1.03721
1.02148
1.03441
1.08525
1.1082
1.07306
0.459968
0.470897
0.465163
0.505919
0.503685
0.50465
0.501316
0.502117
0.500862
-0.0356136
-0.407333
0.47653
0.477787
0.469315
0.472632
0.693398
0.777225
0.63358
0.635613
0.636129
-0.0524997
-0.0997187
0.23951
0.210422
0.365174
0.399821
0.381619
0.942258
0.902782
0.950554
0.925901
0.890536
0.913673
-0.343657
-2.10557
-1.10143
0.59174
0.394935
0.486623
-0.0111607
-0.0274182
-0.0239769
1.02903
1.06865
0.651995
0.838571
0.790514
0.775052
0.80208
0.86096
0.794567
0.82771
0.858552
0.834744
0.556199
0.486678
0.504504
0.852832
0.908712
0.0842986
0.0054363
-0.0177102
0.0963226
0.168081
0.135547
1.04569
0.962199
1.02489
0.516201
0.517152
-0.0174909
-0.040328
0.521267
0.520978
-0.0213136
-0.0114446
0.502528
-0.931267
0.0859546
0.510789
0.500432
0.517267
-0.105037
0.322144
-0.0808058
0.0130781
-0.021357
0.51285
0.447054
0.40465
-0.00587324
-0.0294754
-0.0687383
-0.213617
0.51394
0.512299
0.516654
0.517472
0.518249
-0.0259801
-0.0260085
-0.0178313
-0.0626628
-0.0579326
-0.0678609
0.48054
0.50093
-0.191572
0.516947
0.519049
0.518747
0.512951
0.517889
0.51652
-0.0215756
-0.0257073
-0.0271602
0.190768
0.33176
0.686456
0.761819
0.635136
0.468211
0.175622
0.622734
0.675033
0.599891
0.731426
0.633087
0.637226
0.152978
0.00950411
0.157423
0.0904395
0.507626
0.507065
0.497957
0.494824
0.512096
0.509771
0.51497
0.512201
0.515375
0.516525
-0.0596945
-0.0905437
-0.106998
-0.148672
0.281246
0.546279
0.224342
0.246434
0.149984
-0.072258
-0.0741068
-0.0771327
-0.0835163
-0.0381423
-0.0398655
0.00677599
0.0150849
-0.00207249
-0.0278292
-0.0450112
-0.0397704
-0.046759
0.505998
0.50528
0.511083
0.520159
0.456681
0.460404
0.426711
0.445478
0.431627
0.37155
0.401314
0.378493
-0.0170259
-0.00680135
-0.00925768
-0.0296593
-0.0286281
-0.0500799
-0.0428438
-0.0407953
-0.0374189
-0.0424506
-0.0631389
-0.0672335
-0.176987
-0.296468
0.960374
0.905646
0.135653
0.503839
0.509505
0.506674
0.511405
0.514603
0.515234
0.512801
0.509289
0.500977
0.502384
0.499179
0.50037
-0.130117
-0.239697
-0.0705011
-0.146498
0.148711
0.614216
0.339019
0.283939
0.269149
0.496774
0.698399
0.608802
0.66577
0.644655
-0.390553
0.0109179
-0.323656
0.222939
0.217135
0.711518
0.753948
0.772317
0.729037
0.684947
-0.0239437
0.548618
-0.0737991
-0.0225421
0.168751
0.0513084
0.634234
0.618995
0.626816
0.632735
0.639808
0.627826
0.614175
0.60801
0.629234
0.63272
0.492258
0.219123
0.176068
0.13016
0.619902
0.514725
0.564527
0.483192
0.503318
0.505693
0.504652
0.485336
0.492704
0.488359
0.495585
0.499315
0.506589
0.506784
0.502612
0.504536
-0.0829953
-0.0909766
-0.0751311
-0.127908
-0.133928
-0.176785
-0.0900871
0.0898518
0.0393644
0.229165
0.357688
0.0652645
-0.0555822
-0.0391316
0.0138007
0.178021
0.178088
0.0497321
0.157801
0.115614
0.109346
0.198111
0.219545
-0.050792
-0.0566002
-0.0579386
-0.0614528
-0.0123593
0.101654
0.078499
-0.0269403
-0.0343578
-0.0678419
-0.0665466
-0.00687552
-0.0421531
-0.0336798
-0.0105948
-0.057336
-0.0317262
-0.0217405
-0.0272212
-0.0296091
-0.0285581
0.500018
0.501725
0.501988
0.510088
0.522128
0.535761
0.504471
0.477933
0.468949
0.472051
0.445134
0.454369
0.449633
0.465438
0.486905
0.495785
0.493539
0.496271
0.478258
0.480013
0.465335
0.469929
0.439129
0.420366
0.410224
-0.0542597
-0.021583
-0.0349427
-0.0477663
-0.0225611
-0.031997
-0.0297225
-0.0110508
-0.0303452
-0.0258513
-0.0352354
-0.0404897
-0.0413323
-0.078895
0.00256398
-0.179256
-0.2286
-0.281514
0.883576
1.02266
0.81074
0.586607
0.594896
0.832619
0.941535
0.551237
0.710509
0.765453
0.57416
0.864513
0.507772
0.507366
0.505236
0.504407
0.505396
-0.0183326
0.0855925
0.0969045
0.156407
0.272974
0.378669
0.309515
0.197049
0.329939
0.353946
0.611551
0.617355
0.573929
0.596117
0.59762
0.406134
0.487169
0.525174
0.48207
0.555923
0.590112
0.53536
0.578883
0.498878
0.448559
0.440089
0.395555
0.429774
0.410865
0.385313
0.499396
0.476264
0.487008
0.476857
0.498581
0.524213
0.525254
0.546356
0.564427
0.478341
0.424253
0.441219
0.470276
0.425861
0.44307
0.465069
0.183608
0.0865006
0.249156
-0.0779947
0.00790729
0.0472704
0.00459785
-0.0376018
0.269083
-0.36834
-0.314947
-0.991756
0.493556
0.841176
0.581676
0.593188
0.640127
0.628274
0.639031
0.645596
0.646709
0.607036
0.616223
0.621449
0.590135
0.61184
0.60952
0.61692
0.497277
0.397263
0.399329
0.331312
0.191514
0.233022
0.42479
0.356439
0.281288
0.273527
0.448513
0.313526
0.392928
0.443358
0.366615
0.302281
0.52893
0.575904
0.569744
0.541798
0.42265
0.455606
0.458012
0.508121
0.551178
0.576261
0.494147
0.500472
0.501379
0.498638
0.496999
0.500135
0.500423
0.502719
0.502885
0.505476
0.504951
-0.0773353
-0.0617914
-0.0787477
-0.0870999
-0.0210003
-0.033741
-0.00595565
-0.0388809
-0.0357246
-0.033704
-0.0498498
-0.0655052
-0.0618008
-0.0505522
0.0659112
0.0855191
0.0793501
0.0400917
0.249947
0.400497
0.463358
0.342644
0.192356
0.1962
0.275564
0.0152728
0.00810552
-0.00594703
0.0610743
0.0500289
-0.0613743
-0.0647042
-0.0608217
-0.0490328
-0.0426644
-0.0627004
-0.0627061
-0.0517805
-0.0594864
-0.0634511
-0.0663692
0.479583
0.472497
0.476087
0.468481
0.466674
0.483643
0.488305
0.489298
0.494837
0.497476
0.486986
0.492893
0.49706
-0.030504
-0.0472545
-0.0476255
-0.0462078
-0.0452868
-0.0433654
-0.0468668
0.124137
0.0293385
0.0653555
-0.00463863
-0.131429
-0.0717937
0.498831
0.493442
0.481878
0.719324
0.55482
0.473717
0.573113
0.693736
0.27277
0.472841
0.307361
0.887588
0.793408
0.939188
0.553229
0.251431
0.419833
0.428644
0.271003
0.394531
0.3368
0.212853
0.248167
0.282581
0.365735
0.252736
0.231794
-0.0106769
0.170604
0.280723
0.262783
0.389932
0.446818
0.261029
0.1767
0.12318
0.593529
0.609873
0.618567
0.590804
0.611567
0.568768
0.560276
0.575816
0.585785
0.580583
-0.626281
-0.214543
-1.41456
-0.828068
-0.376565
0.52142
0.521685
0.746413
0.649936
0.664889
0.646834
0.590845
0.563089
0.605389
0.618845
0.320579
0.405244
0.392806
0.368136
0.313689
0.256637
0.529003
0.537342
0.561613
0.587534
0.562006
0.589845
0.492916
0.492769
0.49142
0.487668
0.486163
0.489487
0.0179011
-0.00815083
0.0243693
0.0110795
-0.00630205
-0.00776385
-0.0363785
-0.0479987
-0.0472844
-0.0446826
-0.0349519
-0.033569
0.169883
0.108236
0.019265
0.0609338
-0.00623039
-0.088567
-0.0909497
0.000309657
0.100644
0.0820735
0.388881
0.65846
0.482933
0.650131
0.447121
0.548177
0.464164
0.43751
0.465339
0.369288
0.459584
0.0503754
-0.151386
-0.206509
0.817635
0.777964
0.558837
0.315707
0.19751
0.489779
0.512083
0.472088
0.498508
0.549249
0.53169
0.0216204
0.109132
0.195303
0.500713
0.277419
0.295875
0.285772
0.452146
0.421217
)
;

boundaryField
{
    wall-4
    {
        type            zeroGradient;
    }
    velocity-inlet-5
    {
        type            zeroGradient;
    }
    velocity-inlet-6
    {
        type            zeroGradient;
    }
    pressure-outlet-7
    {
        type            fixedValue;
        value           uniform 0;
    }
    wall-8
    {
        type            zeroGradient;
    }
    frontAndBackPlanes
    {
        type            empty;
    }
}


// ************************************************************************* //
