/*--------------------------------*- C++ -*----------------------------------*\
  =========                 |
  \\      /  F ield         | OpenFOAM: The Open Source CFD Toolbox
   \\    /   O peration     | Website:  https://openfoam.org
    \\  /    A nd           | Version:  6
     \\/     M anipulation  |
\*---------------------------------------------------------------------------*/
FoamFile
{
    version     2.0;
    format      ascii;
    class       surfaceScalarField;
    location    "70";
    object      phi;
}
// * * * * * * * * * * * * * * * * * * * * * * * * * * * * * * * * * * * * * //

dimensions      [0 3 -1 0 0 0 0];

internalField   nonuniform List<scalar> 
1300
(
3.75095
5.62643
-3.33405
3.75095
-7.76297
5.62643
-4.27075
4.27075
-0.401013
0.401013
1.87649
1.87446
-2.42714
2.42714
-1.80464
1.80464
-2.53039
2.53039
-5.24806
5.24806
-5.06993
5.06993
4.70107
-4.70107
-6.33502
6.33502
-0.963893
0.963893
-3.57395
3.57395
3.17249
-3.17249
-1.90497
1.90497
0.0374283
-0.0374283
-0.554085
4.30504
3.19687
3.19687
-1.98786
1.98786
-4.87451
4.87451
6.22256
-6.22256
5.25081
-5.25081
-1.91677
-2.49331
1.80178
-11.4988
-5.96119
-5.96119
-8.44099
8.44099
-2.81456
2.81187
2.94718
-2.94718
-1.72645
1.72645
-4.28655
0.0158006
-4.28655
4.24179
0.0289648
4.24179
-0.499698
0.098685
-0.499698
3.94466
-3.94466
0.311881
0.0891321
0.311881
3.06727
-3.06727
-1.87686
3.75334
1.8741
-1.87209
6.17713
-1.87886
3.75332
-6.07592
6.07592
-2.67472
0.247581
-2.67472
2.19624
0.230901
2.19624
-6.88863
6.88863
-1.83661
0.0319709
-1.83661
1.80979
-0.00514867
1.80979
2.88799
-2.88799
-2.62895
0.0985619
-2.62895
2.38563
0.144756
2.38563
0.353375
5.27306
-5.9798
8.79167
-5.27306
0.0249957
5.21025
0.0378077
5.21025
-5.10528
0.0353507
-5.10528
5.01256
0.0573738
5.01256
4.79049
-0.0894211
4.79049
-4.82014
0.119076
-4.82014
-3.36129
-4.07468
-6.49528
0.160257
-6.49528
-1.03113
0.0672385
-1.03113
0.856288
0.107604
0.856288
-3.7249
3.7249
-3.93066
0.356715
-3.93066
3.12746
0.0450249
3.12746
1.86812
1.88283
5.61908
-5.61908
2.44659
-1.84539
-0.0595799
-1.84539
-1.97767
-3.27315
1.97767
-0.0726938
-0.179951
0.217379
-0.179951
3.15711
0.0397571
3.15711
2.22798
0.157647
-2.22798
0.240128
3.3001
-3.3001
1.321
0.666853
1.321
-5.55836
5.55836
4.96148
0.0510723
-4.96148
0.0869755
6.15722
0.0653461
6.15722
-6.20777
-0.0147961
-6.20777
2.48686
-4.98017
-2.64867
6.14814
0.186885
-6.14814
0.186945
2.91873
0.0284461
2.91873
-2.91952
2.91952
-2.98418
0.0369988
-2.98418
-2.14907
0.422618
-2.14907
1.41194
0.314512
1.41194
-4.20093
-0.0856238
-4.20093
-4.08882
0.158155
4.08882
0.152967
1.11685
-1.11685
-0.606236
0.106538
-0.606236
-4.04888
-0.15205
4.04888
-0.104217
-3.88593
-0.0587283
-3.88593
-3.02188
0.0376995
3.02188
0.0453958
3.1121
0.0450161
-3.1121
0.0448234
-1.87099
3.75382
-1.87996
3.75406
-5.69626
-0.379658
-5.69626
6.36019
-0.28427
6.36019
3.10122
0.472728
-3.10122
0.426502
2.02182
0.174416
2.02182
-6.86176
-0.0268742
-6.86176
6.89501
-0.00637416
6.89501
1.90378
0.118037
-1.90378
0.0671746
1.82241
-0.0126182
1.82241
2.91563
-0.0276359
2.91563
-2.88176
-0.00622653
-2.88176
2.79155
-2.79155
2.71619
0.0753683
-2.71619
0.0872365
-11.124
11.1092
-0.0362941
-11.0877
5.17396
5.17396
4.24443
0.546063
4.24443
-5.0153
0.195161
-5.0153
2.66498
-5.31365
3.09931
-6.46061
4.67664
-16.1755
4.29678
-8.37146
6.74549
-6.74549
6.6272
0.118292
-6.6272
0.131924
-1.13302
0.101891
-1.13302
-3.12336
-0.601534
-3.12336
4.36437
-0.639473
4.36437
-3.02771
3.02771
-3.07642
0.0487124
3.07642
0.0510438
1.8266
-0.00419466
-1.8266
-0.0187918
0.225752
0.086129
-0.225752
0.0458012
3.52165
-0.221549
3.52165
-3.09601
-0.204098
-3.09601
-1.2234
0.0903794
1.2234
0.0976008
-5.80763
0.249273
-5.80763
-11.1817
0.0939991
-11.1439
-6.11377
-6.11377
2.32723
11.1189
-2.89709
0.0153241
2.89709
0.0216443
2.97528
0.0524303
-2.97528
0.0557592
-2.85866
0.0671084
2.85866
0.0608548
-2.51702
0.367949
-2.51702
-1.02624
1.02624
-1.17456
0.148324
1.17456
0.237378
1.41659
-0.29974
1.41659
0.73944
0.116849
-0.73944
0.133204
-3.83204
-0.0538965
-3.83204
6.5984
-0.23821
6.5984
-2.9671
-0.128906
2.9671
-0.0514733
-0.034922
11.1441
-5.13904
0.0337553
5.13904
-11.2095
11.2432
-3.22255
0.705535
3.22255
1.02187
5.28393
0.274428
-5.28393
0.268624
6.83592
0.0590823
-6.83592
0.0904302
-2.63303
-0.490333
-2.63303
-5.1046
-0.591662
5.1046
-0.740228
-11.482
-0.20356
11.6855
-11.4246
6.01119
0.146027
-6.01119
11.3893
-0.995135
-0.121715
0.995135
0.0311022
1.7557
-0.339114
1.7557
3.73792
-0.216271
-3.73792
-0.0941136
-6.7529
-0.108862
6.7529
-0.1545
-2.18419
-0.448839
2.18419
-0.428486
-4.26738
4.30713
1.90975
-2.33525
-2.64492
-5.6084
1.85525
1.89857
4.30184
-10.1647
-6.01073
-9.97779
7.21447
-6.94584
-9.32905
9.23963
7.9254
-7.98413
-5.7775
5.82855
6.48461
-6.43922
1.87942
1.87393
8.06237
-7.81479
-15.6801
15.3005
7.58271
-7.55074
15.8284
-15.8552
-17.8744
17.9335
-5.70019
5.79875
-6.74248
6.73625
-6.97916
6.92769
-2.79857
-3.66204
13.1351
-12.9748
8.58475
-8.64433
-8.67033
9.02705
3.3846
0.922535
3.42962
-1.88181
3.76123
-1.87152
3.78127
2.74833
-5.5469
2.56532
-5.21024
4.36786
4.21689
-4.29517
-1.31323
-5.92855
5.957
-5.80882
5.86968
9.17081
-9.15501
-1.88498
3.7589
-1.86908
3.76766
-3.42306
-2.35444
3.37804
0.9238
8.07838
5.05671
-8.26527
-1.71252
-8.02334
7.80707
-8.21548
8.01138
-0.437159
5.8386
-5.40144
4.43735
-1.65238
7.49098
5.56209
5.75725
5.8606
-5.58617
1.08524
-6.48668
-6.39971
-2.29781
2.40435
2.18952
-2.10039
6.13733
1.78807
6.03311
-5.8029
-2.18123
-5.8568
3.81989
2.00866
3.8686
4.08207
2.40254
4.11977
3.02966
-3.03668
0.00702357
-3.05924
6.0889
0.72222
-5.41368
-4.48988
4.98988
3.0725
5.22078
-5.59125
-2.22354
-5.16475
-9.60094
-6.07919
-10.1926
10.0908
5.20973
9.80649
-11.9622
11.8077
4.8675
2.71521
4.86235
-4.95846
-2.59228
-4.89129
11.6828
-2.64922
-9.03361
-10.3335
-7.54089
10.3399
5.4885
10.9797
6.95378
11.0701
4.4297
7.25312
-9.91821
2.37731
-3.86487
-1.83532
-3.77763
3.65414
2.14461
3.7989
-4.21879
-2.52369
-4.20346
-4.29488
-2.68428
4.32252
2.41373
-4.41672
-3.79876
4.54562
2.38207
4.05589
-10.0666
4.31557
-7.97761
-9.21101
-3.76383
-9.07909
3.54488
2.60061
-6.14549
-2.00202
8.52549
-4.3086
7.21226
-5.19956
-3.44477
-5.21836
-6.9607
-1.70963
-6.80254
-8.92593
8.43559
-9.2081
8.56863
12.528
-5.64037
-6.88764
-3.96699
-2.47223
3.92216
-0.492548
-3.71005
3.71707
0.0511802
3.83245
4.75498
4.26244
-3.88192
-1.92691
-3.82616
3.82086
2.04882
3.88797
6.84393
2.32689
6.87289
-6.60616
-2.54885
-6.69179
9.10495
-8.68233
2.79116
-2.70078
5.37389
2.63749
-5.15234
-2.871
6.23675
-3.20969
-3.02706
-12.3453
10.7987
1.54664
-4.85433
-0.416982
-0.45441
-5.57089
-3.75816
5.45182
0.305432
11.1041
7.34594
-5.51459
5.76386
6.17095
6.22202
-0.177684
5.89269
-5.18716
5.27166
-2.70996
-2.56169
5.4716
-5.62365
-1.22018
-5.54175
4.32156
0.409458
1.51681
-1.29943
-1.79192
-0.505886
-1.65872
1.21856
0.970963
1.30469
0.945591
1.45876
-2.92289
0.542949
2.37994
-1.9773
-1.55744
-3.79998
-1.1534
4.95338
5.72771
2.07937
-5.63359
-0.223203
2.57092
-2.46331
-0.819821
-2.98016
2.23401
-3.05383
-3.47301
-1.9365
5.40952
-3.36862
-0.457541
3.31619
0.552412
-3.82811
-2.10044
3.79111
0.328667
-3.12888
6.19029
-3.06141
-5.05578
2.52896
3.55994
4.53762
-4.78999
2.44914
2.34085
-1.23005
4.2598
0.96098
4.43421
-7.06838
4.84485
5.73376
3.29329
-6.20648
1.04173
-6.02665
8.54575
-7.40857
-1.13717
4.08813
4.45762
7.04525
5.48276
-5.69838
12.7436
-1.15379
-6.25478
7.18045
-3.88715
4.86581
-8.75296
-10.3486
4.09379
-9.20397
11.0672
-1.86321
-3.60707
-8.35512
12.811
-1.21315
-11.5979
8.59333
-4.33735
-4.38882
8.72616
-6.98657
6.9811
-1.99863
-4.98247
-10.151
-5.70422
10.2599
1.54781
-9.94019
12.3175
-2.68706
4.1606
0.701752
4.14798
3.35921
-5.48205
2.12284
3.62736
-5.62598
2.05976
-7.54181
-6.75813
12.0994
-5.34128
-10.522
-9.55038
-0.97158
2.55285
9.76465
-9.50663
7.44106
2.06556
3.29739
0.590573
-3.37276
-0.404869
0.240312
4.5096
-4.74991
4.03921
4.19686
3.21655
1.29305
3.84929
2.10771
-3.87093
-0.33253
-4.16843
1.48415
-1.75469
-3.69365
5.17779
-4.06148
0.367836
-2.74593
-3.49214
6.23807
-4.58125
3.03639
3.1539
5.0852
-4.91298
1.42084
-2.39042
-2.52255
2.64064
-4.39534
2.00033
3.17747
4.38239
0.583637
5.90745
6.19197
-8.50806
0.530449
11.2487
-9.53617
2.47905
8.59107
-9.92011
0.369729
-8.70936
0.9774
-5.286
-5.16809
5.2193
-6.92894
-3.53366
6.24784
0.625048
-6.40081
-0.401735
-6.06664
-2.85929
-6.51548
-3.0491
-6.159
-8.74748
-1.67506
-7.07242
6.76054
-6.694
-3.49861
7.43423
1.1344
-7.48107
7.35935
-7.53933
7.20021
0.0949014
3.62217
4.35734
1.88511
-2.39212
4.27723
-5.07061
7.39749
-8.73742
3.66681
4.23097
-6.77981
-4.50646
5.06064
4.04431
5.37515
8.92371
-10.3782
1.45449
-10.6531
11.9917
-1.33861
-16.4335
5.78033
-7.50975
2.42588
0.365275
2.52777
0.544571
2.50752
-3.05209
-2.15621
-2.05861
-2.44104
-3.49586
5.9369
1.06441
-3.47009
2.40568
-3.57271
4.63713
-0.0669621
-3.40313
5.19843
-2.6909
5.5637
-3.63968
1.92403
3.54585
5.84416
-2.29832
4.42196
-1.78447
1.9449
-4.24322
-1.55096
-2.95457
5.09918
-3.2835
3.65133
-0.349273
4.00061
-4.04303
0.833345
-0.826482
3.37037
3.6105
4.33379
-3.04074
2.9365
-4.72097
-1.30672
-4.13733
-0.959868
-0.184871
-3.78535
3.97022
6.00619
-6.19106
-5.28338
9.52656
-4.24318
7.70507
-5.44047
-2.2646
-4.29314
-4.38919
3.92519
1.9675
9.67257
0.179752
-5.62022
-5.0074
-3.98553
3.09304
2.17862
-1.74767
3.29431
2.20208
-0.685273
0.393902
0.910785
1.76622
-1.37232
0.34284
1.42338
-0.956587
1.71098
0.85994
-1.82783
0.169107
-1.29326
3.52727
1.08668
-2.05765
0.68533
0.892321
-3.60228
5.07816
-2.72462
-2.35354
5.97048
1.14552
-3.87014
4.39623
-3.98677
2.44109
-3.59449
-1.42905
-5.41582
-3.62775
-2.48801
4.89368
-3.44889
5.52826
1.42067
-5.30506
6.72572
-3.6311
1.6946
-3.06175
3.92169
-1.00603
-2.05572
2.88135
2.52817
-3.12973
0.149572
-0.248381
2.42181
-2.67019
-0.632014
-2.60932
-4.57598
4.90464
-2.10379
4.55293
2.17344
-1.91755
6.47048
1.80772
-3.72528
-3.24806
-3.7056
-1.38443
3.15319
-0.594774
-4.29651
-5.57724
4.17848
0.255737
-7.05831
7.92675
-0.868443
-3.98581
-0.859034
4.94716
-6.09942
0.473432
-4.03966
3.88709
4.84807
5.10381
-11.3634
-0.234484
-6.15368
1.10317
-7.25684
5.56079
-3.57061
7.6644
-10.3074
6.80881
-9.17302
6.52723
-0.729618
6.25502
-4.13218
2.77859
-8.48281
-6.935
5.54974
-2.83453
6.25149
-3.20457
9.45606
-5.89163
5.34232
4.11374
-1.04915
-4.16921
-5.31691
4.26776
0.0254162
4.1734
4.98704
-2.87933
4.65451
2.26452
-4.65495
-2.13082
-6.48784
1.8329
-3.33394
-1.9221
3.755
3.1631
3.75367
1.23245
-3.34881
7.23866
-8.21024
-1.89737
-3.27071
5.29366
-1.0259
3.43711
-6.70782
-1.84889
4.75016
-0.72924
-4.02092
0.890207
-4.42386
1.6718
-6.09566
5.25714
-5.65888
2.25431
-9.76406
-5.22675
-5.19565
-2.27924
-5.26009
-7.57985
5.30061
-1.79952
5.55983
-8.5192
7.78996
-3.47253
8.77314
-5.46231
-1.05317
5.89079
1.30942
10.0826
0.159605
-4.66606
-1.93921
3.73807
-1.79886
1.15383
-3.62574
0.112332
2.48846
3.48202
-6.81002
0.0302115
-4.63585
-3.91056
7.95487
5.616
11.6222
1.24399
9.14206
-1.18719
10.386
4.18796
4.42534
-3.00821
4.4627
0.962009
4.62882
-0.895636
2.81966
1.63214
1.69938
0.763937
2.30314
1.30736
3.13648
0.0843898
-1.97422
4.63485
-8.62038
-0.985375
-8.07431
1.16531
5.42889
-4.26357
2.88037
-0.701751
1.0815
-0.166643
-1.21992
1.38656
-2.72834
-1.90519
-0.481812
-1.65206
2.33739
1.8752
-1.85558
-0.872755
0.332441
-3.96019
3.26205
-3.11248
-0.584307
6.14142
-2.89213
0.221934
-1.19753
-2.38738
-2.89327
2.72416
6.17423
0.29625
3.11282
5.20089
3.10045
0.221122
3.81855
-5.68176
-3.72326
-5.91624
-0.355459
4.5917
1.75087
8.01378
5.86462
4.83872
-1.86911
-10.0793
6.50794
-2.04524
5.16933
-1.14841
-4.94725
5.07288
2.32461
-5.69793
0.0390533
-4.90819
-6.95343
-0.482096
8.27205
-9.60047
8.5473
5.68801
1.38441
-4.43889
-0.756759
4.29057
0.134772
10.5208
-0.910596
-7.06149
7.97209
-4.51829
3.53292
0.678015
2.61629
2.06458
1.36283
-5.69866
-9.96224
-2.06124
-1.54105
-4.41478
0.5386
-2.4138
6.0733
-2.54038
3.8087
5.43171
6.51321
-2.04855
-4.14251
6.29173
-2.48303
4.03018
)
;

boundaryField
{
    wall-4
    {
        type            calculated;
        value           uniform 0;
    }
    velocity-inlet-5
    {
        type            calculated;
        value           uniform -3.75095;
    }
    velocity-inlet-6
    {
        type            calculated;
        value           uniform -5.62643;
    }
    pressure-outlet-7
    {
        type            calculated;
        value           nonuniform List<scalar> 8(3.33405 7.76297 4.41008 9.69704 7.43597 5.13553 5.76429 8.97342);
    }
    wall-8
    {
        type            calculated;
        value           uniform 0;
    }
    frontAndBackPlanes
    {
        type            empty;
        value           nonuniform 0();
    }
}


// ************************************************************************* //
