/*--------------------------------*- C++ -*----------------------------------*\
  =========                 |
  \\      /  F ield         | OpenFOAM: The Open Source CFD Toolbox
   \\    /   O peration     | Website:  https://openfoam.org
    \\  /    A nd           | Version:  6
     \\/     M anipulation  |
\*---------------------------------------------------------------------------*/
FoamFile
{
    version     2.0;
    format      ascii;
    class       volVectorField;
    location    "70";
    object      U;
}
// * * * * * * * * * * * * * * * * * * * * * * * * * * * * * * * * * * * * * //

dimensions      [0 1 -1 0 0 0 0];

internalField   nonuniform List<vector> 
918
(
(0.985049 -0.000714842 0)
(0.00535871 2.96623 0)
(-0.00250231 0.880655 0)
(0.979575 0.0019618 0)
(-0.0137515 2.0656 3.2617e-20)
(-0.00710235 2.94856 -2.59124e-18)
(0.817619 1.1202 4.40923e-19)
(0.12226 0.0722217 -1.42323e-20)
(0.999922 -0.00024473 0)
(0.091031 0.66081 0)
(0.010037 0.392027 0)
(0.735097 -0.00420821 0)
(0.0101859 2.93164 0)
(0.00342743 2.79459 0)
(-0.00214476 3.18061 8.21394e-19)
(-0.0138166 1.92679 1.97053e-20)
(0.294701 0.037367 9.89297e-19)
(0.232423 1.1079 3.51615e-19)
(0.964352 0.00674304 0)
(-0.000687776 0.398746 0)
(0.0160779 0.0536473 -6.65254e-19)
(1.00183 -0.00456017 0)
(0.999851 -0.00892707 0)
(0.975167 -0.00605207 0)
(0.591688 0.00705776 0)
(0.0210611 2.64431 0)
(-0.0123235 2.91191 9.49234e-19)
(-0.00578602 0.93357 0)
(-0.0309302 1.16883 0)
(-0.00391176 0.903519 0)
(-0.0224214 2.5934 0)
(-0.00467779 2.11615 -2.60525e-20)
(-0.00982761 1.89965 0)
(-0.0221163 2.98761 -9.34536e-23)
(-0.0164846 3.00549 2.01321e-18)
(0.00230087 3.00058 0)
(0.871931 -0.0097551 0)
(0.375657 0.915223 1.68088e-19)
(0.816514 1.13846 -5.48922e-19)
(0.949167 1.00421 5.60828e-19)
(0.679453 1.22126 -1.01073e-19)
(0.69287 1.18232 5.77081e-19)
(0.152555 0.130987 1.38839e-20)
(0.148936 0.0740102 0)
(1.16391 0.531438 0)
(0.125451 0.111966 6.29496e-20)
(0.0997985 0.0605175 -6.53238e-20)
(0.92055 -0.00704751 0)
(1.00027 5.82884e-05 0)
(0.999908 0.000320308 0)
(1.0037 -0.00728117 0)
(1.00088 -0.000947407 0)
(1.00011 -6.35296e-06 0)
(0.0921132 1.84563 -7.37424e-19)
(0.0315752 0.855539 0)
(0.125297 0.751064 0)
(0.0180837 0.798403 0)
(0.052822 0.578525 0)
(0.00442101 2.03055 0)
(-0.00835684 0.720975 0)
(0.00572507 0.412027 0)
(-0.0054294 0.717994 0)
(0.0121254 0.393513 0)
(0.84354 -0.0156402 0)
(0.839669 0.0303603 0)
(0.760043 -0.00180906 0)
(0.797855 0.0383546 0)
(0.703196 0.00140197 0)
(0.0139154 3.00023 9.61864e-19)
(0.0111238 3.00602 0)
(0.00620017 3.00384 0)
(0.0118966 2.99716 1.09221e-23)
(0.00822617 2.95878 -1.42957e-18)
(0.0122424 2.98297 0)
(0.00907223 2.90473 0)
(0.0208711 2.93185 2.22372e-24)
(0.00413492 2.82401 0)
(0.0252137 2.91892 0)
(-0.00107781 2.74454 0)
(0.306069 3.57595 0)
(-0.122288 3.65883 0)
(0.14956 3.27133 -7.64456e-19)
(0.00363284 3.00828 0)
(-0.029787 1.99001 0)
(-0.00732128 2.17902 -1.94349e-20)
(-0.00965961 1.93889 1.92835e-20)
(0.351844 0.139413 -3.43745e-19)
(0.317696 0.00848971 -3.34175e-19)
(0.304799 0.15709 -1.02689e-18)
(0.258483 0.0567744 -6.68028e-19)
(0.262777 1.02237 0)
(0.331486 1.23877 -3.6314e-19)
(0.413071 1.15015 5.99252e-19)
(0.987732 0.00815343 0)
(0.943253 0.00578571 0)
(1.00028 0.000671603 0)
(1.00254 0.00906613 0)
(1.00311 0.00898911 -2.64788e-18)
(0.992136 0.00942175 2.00087e-18)
(-0.0208991 0.738122 0)
(0.00204232 0.407707 0)
(-0.051305 1.01846 0)
(-0.0299879 0.791791 0)
(-0.00902617 0.400174 0)
(-0.0346497 0.111429 2.06334e-19)
(0.0548511 0.0643894 0)
(0.993624 -0.00769348 0)
(0.954048 -0.00648421 0)
(0.744624 0.0313973 0)
(0.670172 0.0236328 0)
(0.659556 0.0224574 0)
(0.979768 -0.00269966 0)
(0.591337 0.0740562 0)
(0.451373 -0.0218009 1.50023e-18)
(-0.0410354 2.85997 7.48144e-19)
(0.0337853 2.91399 0)
(0.0426386 2.89258 0)
(0.00316908 2.70181 0)
(-0.00876264 2.98666 9.07987e-19)
(-0.0141719 2.89474 0)
(-0.0109208 2.99189 -2.79646e-18)
(-0.0116512 2.92972 9.51562e-19)
(-0.0438948 1.34434 0)
(-0.0148873 1.37253 0)
(-0.00778116 2.14066 7.38742e-22)
(-0.00768377 2.1 0)
(-0.0172774 1.91053 0)
(0.938875 -0.00520387 0)
(0.85728 -0.0111461 0)
(0.863417 0.00464029 0)
(0.949666 -0.00614343 0)
(0.883672 -0.00808758 0)
(0.499239 1.11527 -2.13226e-19)
(0.546532 1.18514 0)
(0.337543 0.849816 3.24272e-20)
(0.281961 0.714271 0)
(0.917239 1.03444 -1.58189e-19)
(1.03972 0.844744 3.17961e-19)
(0.391184 1.31722 0)
(0.54219 1.27274 0)
(0.595741 1.2 0)
(0.103556 0.181372 -3.01023e-19)
(0.176133 0.145405 0)
(0.169943 0.0878843 1.85644e-19)
(1.00292 0.898814 0)
(1.07882 0.747063 0)
(1.10833 0.682328 -2.53998e-19)
(1.14522 0.593519 0)
(1.20113 0.391306 4.70801e-20)
(0.957501 -0.0070999 0)
(0.962725 -0.00811008 0)
(0.900913 -0.00736991 0)
(0.983928 -0.00812384 0)
(0.974425 -0.00803202 0)
(0.936544 -0.00656971 0)
(1.0002 0.00250426 0)
(1.00077 0.00123891 0)
(1 0.00076133 0)
(0.0444308 2.08835 4.1095e-19)
(0.145041 1.78884 0)
(0.0191728 2.20346 6.22616e-19)
(0.0524907 1.89426 -5.20879e-19)
(0.166386 1.08411 -2.88567e-19)
(0.0500671 0.939142 0)
(0.120854 0.938518 0)
(0.00442476 0.761159 0)
(0.0260324 0.509061 0)
(-0.00322268 2.25811 -4.38279e-22)
(0.0190923 2.03584 0)
(-0.00480791 2.25924 -1.02646e-20)
(0.00284992 2.04263 7.76224e-21)
(-0.00550102 0.735417 0)
(-0.00956952 0.721842 0)
(0.00897974 0.450372 0)
(-0.0168779 0.718519 0)
(0.00763198 0.397797 0)
(0.939441 0.0138379 0)
(0.856302 -0.0115856 0)
(0.928626 0.00485536 0)
(0.846197 -0.0127796 0)
(0.811725 -0.00321516 0)
(0.897915 0.023133 0)
(0.87393 0.0260622 0)
(0.785546 -0.00403292 0)
(0.0103217 3.06778 -8.95145e-21)
(0.0148977 3.05904 0)
(0.0124529 2.97025 0)
(0.00766223 2.87667 0)
(0.895804 3.97009 0)
(1.18996 3.36612 9.36469e-19)
(0.0812127 3.09064 0)
(-0.0172308 2.91797 0)
(-0.015482 1.39877 0)
(-0.0350336 1.69615 0)
(-0.023808 1.53128 0)
(-0.0329258 2.55356 -1.40234e-20)
(-0.0175987 2.24758 0)
(-0.0223772 2.39289 0)
(-0.00093618 1.96829 3.1554e-22)
(-0.00536899 2.25348 -2.44346e-20)
(-0.00632871 2.21686 -1.97989e-20)
(-0.00600981 1.95261 0)
(0.391075 0.118686 5.27432e-19)
(0.352544 0.00105532 -5.17409e-19)
(0.233488 1.59092 0)
(0.288295 0.765912 -3.25413e-19)
(0.183027 1.68968 -1.06938e-18)
(0.246059 1.22403 1.07064e-18)
(0.901692 0.00589593 0)
(0.967055 0.0106642 0)
(0.974906 0.00985074 0)
(0.922998 0.00587891 0)
(-0.018988 0.727868 0)
(-0.0184799 0.730884 0)
(0.0013954 0.399765 0)
(0.100464 0.102548 5.7974e-19)
(0.0840928 0.0851894 -6.85823e-19)
(0.063013 0.0549888 0)
(1.10692 0.0904117 2.42672e-20)
(1.09056 0.0425498 0)
(1.01862 0.0436946 0)
(0.913725 -0.00155146 0)
(0.439687 0.0945736 0)
(0.50041 0.0779047 -2.4004e-18)
(0.393987 -0.000972373 9.00077e-19)
(0.0107933 2.97724 7.92135e-19)
(-0.0324733 2.86151 4.65514e-20)
(0.00860581 3.05304 -1.89012e-20)
(0.0158115 3.04345 7.08938e-19)
(-0.0118129 2.99995 3.1314e-20)
(-0.0123332 2.95228 -1.2644e-22)
(-0.0150517 3.01326 -5.8523e-19)
(0.0143709 3.02661 4.11247e-19)
(0.00762337 3.03477 -6.67481e-19)
(0.934718 0.00213268 0)
(0.939509 -0.00111642 0)
(0.848141 -0.011175 0)
(0.956326 0.0118198 0)
(0.942338 0.0134383 0)
(0.881695 0.00533745 0)
(0.915061 0.019314 0)
(0.92497 0.0156563 0)
(0.837935 0.000532877 0)
(0.671992 1.41369 1.27371e-20)
(0.689985 1.52415 0)
(0.118739 0.292431 6.84083e-20)
(0.212989 0.653852 5.40725e-19)
(0.240257 0.693319 -3.17281e-19)
(0.214966 0.496535 6.29809e-19)
(0.340025 0.831891 1.59236e-18)
(0.135005 0.236716 3.81889e-19)
(0.259676 0.170638 7.0855e-19)
(0.214246 0.1643 1.82714e-19)
(0.218715 0.0786487 3.48006e-19)
(1.19261 0.446322 9.1558e-20)
(1.21792 0.245756 8.9119e-20)
(0.00884377 2.24676 2.42169e-19)
(0.0395096 1.95739 0)
(0.972843 0.0330281 0)
(0.946774 0.0192278 0)
(0.871089 -0.0152257 0)
(0.0125023 3.07398 0)
(0.0167033 2.94399 1.25219e-18)
(0.0139322 2.95664 0)
(0.00588375 2.84994 -1.24249e-18)
(0.00956055 3.0903 3.05747e-19)
(0.0113367 3.08387 0)
(0.709832 1.82023 -1.70007e-19)
(1.23434 2.62499 5.74948e-19)
(0.694521 1.99826 -1.39284e-18)
(0.022142 2.97577 -6.90162e-19)
(0.0404624 2.99797 0)
(-0.0384331 2.87818 0)
(-0.00617079 2.23824 -1.27285e-20)
(-0.00496938 2.2587 4.67077e-20)
(-0.00045208 2.00403 -7.00777e-21)
(0.268359 1.40237 1.0342e-18)
(0.286966 0.569248 -7.0975e-19)
(0.0705323 2.00694 7.49395e-19)
(0.124695 1.87869 -9.00329e-19)
(0.206235 1.54155 1.01622e-19)
(0.00584262 3.1194 -1.84064e-18)
(0.0183532 3.11925 1.97951e-18)
(-0.00499415 2.98039 8.49887e-19)
(-0.000350786 2.97505 -8.16803e-19)
(-0.0177976 2.87817 -8.65629e-19)
(0.0127166 3.09915 -2.27149e-18)
(0.00518651 3.10761 2.23051e-18)
(0.266971 0.698652 0)
(0.218331 0.659545 -1.15306e-18)
(0.0742068 0.212521 5.07356e-19)
(0.346575 0.951829 1.12989e-18)
(0.199455 0.281109 -1.74025e-18)
(1.19728 0.175896 4.91005e-20)
(1.21463 0.304996 0)
(1.19276 0.121126 7.85395e-21)
(-0.00102094 2.26586 -1.22334e-21)
(0.00346923 2.25098 0)
(0.0311562 1.99333 0)
(0.312982 1.31824 -3.71328e-19)
(0.353886 1.17785 -8.04734e-19)
(0.232928 0.392193 1.4398e-18)
(1.00644 -0.00968338 0)
(1.00774 -0.00778511 4.86713e-19)
(-0.0385508 1.32667 0)
(-0.0468376 1.3309 0)
(1.00244 0.00327245 1.34159e-21)
(1.0032 0.00781312 9.9915e-19)
(-0.0240764 2.53983 1.77678e-20)
(-0.0272661 2.58246 0)
(0.0409129 3.17274 4.90843e-19)
(0.374255 3.54134 0)
(1.15782 0.692529 -5.19434e-20)
(1.01181 0.0106537 -2.83792e-21)
(1.02086 -0.00900919 0)
(1.00158 0.000280414 1.56311e-22)
(0.11864 1.37438 0)
(0.134773 2.58596 0)
(0.0183815 1.32507 0)
(-0.000631448 2.63414 -1.25588e-21)
(-0.0213259 2.58278 -8.16209e-21)
(0.997616 0.0297661 2.67651e-21)
(1.063 0.00586917 0)
(1.10013 0.0285174 0)
(-0.0334527 1.74342 0)
(-0.0193497 2.58328 0)
(-0.0125508 1.3183 0)
(0.309069 1.48921 -1.71165e-19)
(1.01152 -0.00905809 0)
(1.00971 -0.0129863 0)
(1.00227 0.000938104 6.23416e-19)
(1.00548 -0.00491297 -7.34801e-19)
(1.00113 -0.000863813 0)
(-0.0216161 1.46461 0)
(-0.010245 1.38606 0)
(-0.0166177 1.42628 0)
(-0.0151581 1.30529 0)
(-0.0280942 1.29484 0)
(-0.0211794 1.27445 0)
(1.03565 -0.00430527 0)
(1.0188 0.0151077 -9.29765e-22)
(0.811323 1.31066 2.77459e-19)
(1.00243 0.000383977 -6.22898e-19)
(1.00339 0.00445033 7.43543e-19)
(1.00126 0.00209456 0)
(1.0111 0.00963015 6.20508e-19)
(1.00685 0.00745431 -7.55193e-19)
(1.00714 0.0111233 0)
(-0.0242686 2.61093 0)
(-0.0274388 2.59039 -2.99876e-20)
(-0.0243708 2.60434 2.11121e-20)
(1.24182 0.27304 5.2834e-19)
(1.16342 0.0891041 0)
(0.0444446 3.09143 -9.74187e-19)
(0.0518134 2.87393 -6.90035e-20)
(0.103871 3.20197 1.30316e-18)
(0.122274 3.21378 -2.79736e-19)
(0.142041 3.25753 0)
(0.022693 3.13771 2.68107e-19)
(0.0613231 3.16226 9.70501e-19)
(0.0618841 3.17891 -5.01462e-19)
(0.0268021 3.1297 0)
(0.569517 0.291023 0)
(0.51396 0.307554 0)
(1.13958 0.723841 1.17619e-19)
(1.10468 0.859955 -1.01955e-19)
(1.19743 0.609413 0)
(1.2243 0.544107 0)
(1.01571 0.0120238 -1.15274e-18)
(1.01469 0.0127588 1.44939e-18)
(1.02574 -0.00873121 0)
(1.02407 -0.010297 0)
(1.00677 0.00320221 0)
(1.01089 0.00420818 0)
(1.00423 0.00221059 0)
(1.00938 0.00635339 0)
(1.00685 0.00504164 0)
(1.0044 0.00526471 0)
(0.107869 1.37441 0)
(0.0958891 1.33415 0)
(0.141951 1.4197 0)
(0.147629 1.40263 0)
(0.142953 2.61333 0)
(0.186578 2.68462 -4.17839e-19)
(0.105597 2.67094 0)
(0.0824393 2.67057 1.68363e-19)
(0.0272187 2.67684 -1.60991e-19)
(0.0116649 1.32518 0)
(0.0193 1.25557 0)
(0.0220102 1.33719 0)
(0.0364173 1.27533 0)
(-0.000952736 1.9957 3.38511e-20)
(-0.0211528 2.6109 -3.63374e-20)
(-0.00690282 2.6764 -2.5751e-20)
(-0.0188381 2.68929 0)
(-0.0234336 2.61727 2.69837e-20)
(-0.0220992 2.61276 3.61246e-20)
(0.00624691 1.99252 -2.58573e-20)
(-0.00939146 2.40217 4.87508e-20)
(-0.0144184 2.4262 2.91917e-20)
(1.01027 0.0403122 1.16995e-18)
(1.00448 0.0200482 -1.45586e-18)
(1.00391 0.0462554 -1.19666e-18)
(0.973962 0.0379712 1.50627e-18)
(1.06465 0.00918968 0)
(1.04989 -0.00645571 0)
(1.09261 0.037634 0)
(1.07577 0.0149833 0)
(1.07454 0.000587623 0)
(1.14127 0.0793965 0)
(1.11566 0.0461715 0)
(1.11887 0.0374478 0)
(-0.0294129 2.43461 3.34661e-21)
(-0.0199589 2.02211 0)
(-0.0204031 2.22122 0)
(-0.0214355 2.6041 -1.81467e-20)
(-0.0182708 2.61488 5.7012e-22)
(-0.00151012 1.58559 -5.33074e-20)
(-0.0106058 1.50824 5.44512e-20)
(-0.0208532 1.39903 0)
(-0.0248716 1.40493 0)
(-0.0317297 1.39619 0)
(-0.00915853 1.31994 0)
(0.00168119 1.24488 0)
(0.385584 1.51366 2.84412e-19)
(0.434268 1.5176 1.51758e-19)
(0.591304 2.46652 -2.49702e-19)
(0.374611 2.56311 6.54083e-19)
(0.350266 2.05377 6.94843e-20)
(1.0207 -0.00800861 0)
(1.01579 -0.00936209 0)
(1.01484 -0.0132178 0)
(1.00772 -0.000564519 0)
(1.00486 -0.000676903 0)
(1.00799 -0.00447946 0)
(1.00954 -0.00344444 0)
(1.01465 -0.0042896 0)
(1.01954 0.0162317 1.1317e-18)
(1.01718 0.0147162 -1.43111e-18)
(1.0199 0.0185984 -1.14091e-18)
(1.01733 0.01653 1.42987e-18)
(0.767748 1.35763 0)
(0.706665 1.39288 2.41614e-19)
(0.874814 1.23855 9.81244e-20)
(0.912242 1.19783 -1.3023e-19)
(1.16483 2.61301 2.84775e-19)
(0.746884 0.130724 5.85564e-19)
(1.17166 0.107518 0)
(1.21415 0.201652 -4.28745e-19)
(1.19531 0.154094 -1.78403e-20)
(1.01259 0.166054 0)
(0.0774614 3.01828 3.5244e-19)
(0.0831116 2.90274 -1.14822e-18)
(0.0252343 2.35843 7.26826e-19)
(0.146524 -0.247367 -3.32334e-19)
(0.342454 3.44523 -2.4716e-19)
(0.193421 3.33995 0)
(0.22389 3.39663 3.21956e-19)
(0.222434 3.07642 -1.21943e-18)
(0.255027 3.19511 0)
(0.00585991 3.12285 5.04888e-20)
(0.0163766 3.13145 -5.82114e-19)
(0.01531 3.12721 8.56757e-19)
(0.0329056 3.14038 0)
(0.0311267 3.14968 0)
(1.25823 2.57704 0)
(0.534827 0.789382 -5.27281e-19)
(1.02499 1.03343 -1.0659e-20)
(0.990411 1.08641 0)
(0.859184 0.96956 -1.07664e-19)
(1.08298 0.908841 2.65952e-20)
(0.334082 0.30789 -8.21154e-19)
(0.652363 0.322629 -2.19949e-20)
(0.539182 0.220191 3.92727e-19)
(0.546315 0.32293 2.85517e-20)
(0.431491 0.27491 -1.14289e-18)
(0.610167 0.322043 0)
(0.694935 0.426516 6.5785e-19)
(0.697952 0.432974 0)
(0.581268 0.329051 0)
(0.493384 0.25442 0)
(0.798983 0.653666 3.96256e-19)
(1.25312 0.306795 -4.29729e-19)
(1.24584 0.43844 0)
(1.24617 0.394202 0)
(0.688207 0.187499 5.99029e-19)
(0.847732 0.557002 -3.71623e-19)
(0.768716 0.520117 6.6425e-19)
(0.966317 0.451927 -6.70361e-19)
(1.01837 0.0146585 7.67001e-19)
(1.01706 0.0136339 -7.74079e-19)
(1.01598 0.0141436 0)
(1.03705 -0.00452762 0)
(1.03045 -0.00769959 -7.26442e-19)
(1.02866 -0.0105795 7.18899e-19)
(1.02474 0.0109896 0)
(1.02268 0.0151033 0)
(1.0127 0.00470572 0)
(1.01456 0.00910163 0)
(1.01638 0.00422839 0)
(1.01555 0.00291999 0)
(0.0777271 1.36216 0)
(0.0807827 1.305 0)
(0.154915 1.42296 6.09286e-20)
(0.276814 1.48539 8.35628e-20)
(0.176362 1.45691 1.88961e-19)
(0.212595 1.45459 -3.04902e-19)
(0.16196 1.43383 0)
(0.143025 1.58514 -8.63877e-20)
(0.139439 1.58182 0)
(0.35172 2.00449 -1.01163e-19)
(0.325518 2.34083 6.25836e-19)
(0.193996 1.4683 7.52662e-20)
(0.275539 1.39919 2.49073e-20)
(0.204333 1.39943 -2.02841e-20)
(0.288996 1.33772 -8.86919e-20)
(0.253389 1.57754 0)
(0.268651 1.62193 9.77477e-20)
(0.0219868 2.2531 -1.46186e-20)
(0.0380854 2.66971 0)
(0.0628552 2.40422 9.62184e-20)
(0.0581036 2.42836 0)
(0.0682703 2.68739 -1.86887e-19)
(0.0425664 2.70384 0)
(0.0233101 1.4553 5.68989e-20)
(0.0320565 1.51268 0)
(0.0287525 1.41661 0)
(0.0180887 1.42623 -6.50143e-20)
(0.00260126 2.66146 2.90457e-22)
(0.0270912 2.69299 1.84466e-19)
(0.0105061 2.73337 9.75269e-22)
(0.00196024 1.84562 -2.023e-20)
(-0.00452965 1.69855 -1.53012e-20)
(0.00925258 1.30462 0)
(0.0169012 1.22565 0)
(0.0402707 1.59571 -1.00037e-20)
(0.0400753 1.4739 -5.22979e-20)
(0.0269928 1.55158 5.50663e-20)
(0.0509934 1.62015 0)
(-0.0304769 2.27189 1.15845e-19)
(-0.0338135 2.55158 -4.90268e-20)
(-0.0200057 2.45098 8.10579e-21)
(-0.00515582 1.86171 2.45162e-20)
(-0.0273851 2.5059 1.12201e-20)
(-0.0225006 2.44715 -2.52428e-20)
(1.01799 0.0220799 -7.75227e-19)
(1.01461 0.0284287 7.7853e-19)
(1.01179 0.0174483 0)
(1.0113 0.0704326 1.06359e-18)
(0.990938 0.0590236 -1.21993e-18)
(0.951546 0.0560231 1.36367e-18)
(1.01301 0.11685 -1.45198e-19)
(1.04398 -0.00467036 0)
(1.05219 -0.000410518 6.96225e-19)
(1.04027 -0.00818559 -6.95816e-19)
(1.07234 0.0436925 -4.1285e-20)
(1.06499 0.0289036 3.56588e-19)
(1.0641 0.0655247 0)
(1.05436 0.0549328 -1.28401e-19)
(1.0326 0.0443066 0)
(1.02611 0.0395699 0)
(1.0276 0.0136848 0)
(1.02401 0.0162029 0)
(1.04012 0.0337704 2.63913e-19)
(1.03929 0.0284982 -5.84178e-19)
(1.05324 0.0387643 -2.79313e-19)
(1.04813 0.0386911 -3.08047e-19)
(1.07795 0.0703515 5.89524e-19)
(1.10182 0.0563347 0)
(1.10863 0.095273 0)
(-0.0282471 2.27849 6.9331e-20)
(-0.0300976 2.02804 3.45899e-21)
(-0.0252809 2.03787 0)
(-0.0298777 2.44732 -6.90277e-20)
(-0.0274051 2.40584 -6.66607e-21)
(-0.0341303 2.47486 8.84286e-21)
(-0.021458 2.62515 -3.06613e-20)
(-0.0263854 2.56762 1.6051e-21)
(-0.0248594 2.52091 -1.0502e-20)
(-0.0172899 2.61851 2.04517e-20)
(-0.0213256 2.6206 -2.35286e-20)
(-0.0105218 1.50446 -4.31861e-22)
(-0.00507815 1.63348 -5.24346e-20)
(0.37696 1.44923 -1.21143e-19)
(0.371696 1.38049 1.85814e-20)
(0.648496 1.44092 -2.33777e-19)
(0.524705 1.51073 -1.47587e-19)
(0.578433 1.46937 0)
(0.606584 2.42375 2.19783e-19)
(0.667078 2.43288 3.40729e-19)
(0.417545 2.51546 9.15468e-20)
(0.399608 2.54202 -6.26308e-19)
(0.501936 2.48064 5.74493e-19)
(0.553445 2.47672 0)
(0.486319 2.52623 -5.58911e-19)
(0.258997 2.59729 1.14359e-18)
(0.358213 2.56487 -6.41138e-20)
(0.283335 2.65444 -1.58476e-18)
(0.970745 2.39124 7.21225e-19)
(0.848747 2.39187 0)
(1.01144 0.00138708 2.52805e-20)
(1.01538 -0.00517918 -2.06485e-20)
(1.01775 -0.00392584 -3.77474e-19)
(1.01562 -0.00104531 3.76158e-19)
(1.01312 0.00184153 0)
(0.636663 1.3029 0)
(0.679009 1.18803 0)
(0.793729 1.11864 0)
(0.666633 1.1455 0)
(1.19573 2.62847 5.12815e-20)
(1.08856 2.3805 0)
(0.818251 2.16952 3.60262e-21)
(0.821635 2.43294 0)
(0.916453 2.52325 -4.38621e-19)
(0.947973 2.47271 2.92822e-19)
(0.784119 0.161508 0)
(0.729977 0.143482 1.58917e-19)
(0.911096 0.16445 9.2611e-19)
(0.817695 0.145377 -3.47065e-19)
(0.76043 0.0935557 -1.07001e-18)
(1.08816 0.245833 -8.47025e-19)
(0.986309 0.316472 -9.85614e-21)
(0.929725 0.352528 8.18035e-19)
(1.01484 0.25993 6.9649e-19)
(0.933535 0.207098 -1.22383e-18)
(0.890412 0.219177 1.53693e-19)
(0.930822 0.318821 -3.19794e-19)
(0.90602 0.223407 0)
(1.00122 0.20744 5.98859e-19)
(1.05625 0.217392 0)
(1.05285 0.228855 0)
(1.12571 0.124833 2.69709e-19)
(1.06593 0.194577 -1.08699e-20)
(1.07998 0.24764 -1.54142e-19)
(1.11388 0.211547 0)
(1.02337 0.049155 5.97392e-19)
(1.037 0.0629223 7.43575e-19)
(1.03246 0.046553 -5.9228e-19)
(1.0417 0.06912 -4.98649e-19)
(1.01489 0.0752504 -7.5404e-19)
(0.984517 0.168966 0)
(0.987708 0.109096 0)
(0.962465 0.0751777 -4.85759e-19)
(0.899123 0.0998022 1.95573e-19)
(1.03924 0.117001 6.90425e-19)
(1.07602 0.136771 -7.89652e-19)
(1.07088 0.181212 7.0981e-19)
(1.03572 0.158541 0)
(1.08608 0.122108 0)
(1.05727 0.112653 -3.23675e-19)
(1.04264 0.108531 -5.60981e-19)
(0.587669 1.08507 1.19759e-19)
(0.612558 1.40222 -2.29842e-20)
(1.14514 2.71908 -2.49021e-19)
(1.19794 3.10339 3.43048e-21)
(1.25366 2.72906 -1.32397e-19)
(1.29349 2.69988 2.28966e-20)
(1.26903 2.32342 -3.79932e-20)
(1.1856 3.00893 -7.6511e-20)
(1.20502 2.96595 2.27539e-19)
(1.17976 3.2569 -1.20922e-19)
(1.39738 2.97151 1.50994e-19)
(1.40888 2.90756 0)
(0.573328 0.815856 -4.81188e-20)
(0.209662 1.21153 4.75589e-19)
(0.518368 0.34772 5.29174e-19)
(0.404353 0.111112 6.0094e-19)
(0.481408 0.301676 6.47181e-19)
(0.548783 0.417052 -1.05371e-18)
(0.555919 0.402782 8.67743e-19)
(0.472618 0.30348 -3.25893e-19)
(0.343471 0.244139 7.372e-19)
(0.723471 0.253169 -3.45556e-19)
(0.673442 0.285316 0)
(0.605857 0.195774 7.87109e-21)
(0.739733 0.507263 3.59134e-19)
(0.709447 0.479065 -1.30172e-18)
(0.635832 0.434678 1.48995e-20)
(0.623011 0.413369 0)
(0.71905 0.715457 3.74736e-19)
(0.835553 0.798687 4.13558e-19)
(0.772995 0.848602 -4.81914e-19)
(0.903574 0.82072 -1.53253e-19)
(0.938317 0.863916 -3.58491e-20)
(0.945882 0.871297 3.67687e-20)
(0.88237 0.677452 -6.72004e-19)
(0.954715 0.724299 1.42478e-19)
(1.00891 0.72806 0)
(1.00786 0.703923 -1.82456e-19)
(1.03156 0.340713 2.11784e-19)
(1.15869 0.340572 2.57903e-19)
(1.07446 0.28364 3.46355e-19)
(0.999516 0.387595 -4.2318e-19)
(1.05697 0.487947 0)
(1.13881 0.428669 0)
(0.903806 0.425516 -4.67902e-22)
(0.848025 0.323149 0)
(0.892181 0.313626 3.91076e-19)
(0.913705 0.351336 3.04161e-21)
(0.987507 0.496471 1.87276e-18)
(0.920231 0.55523 4.82942e-19)
(0.942597 0.513132 -5.10529e-19)
(0.86103 0.49086 5.44409e-19)
(0.827354 0.465742 3.46296e-19)
(0.803526 0.442394 -3.39544e-19)
(1.02818 -0.000382334 6.23854e-19)
(1.02042 0.000574481 0)
(1.01907 0.00139259 4.07113e-19)
(1.02264 -0.000704708 -9.21622e-19)
(1.02254 0.00458409 4.48956e-19)
(1.02002 0.0116288 -9.397e-19)
(1.02074 0.0114325 0)
(1.01967 0.0121873 -1.95652e-19)
(1.01656 0.00779867 4.904e-19)
(1.01668 0.0109096 -2.46078e-19)
(1.01727 0.0106098 1.80042e-19)
(0.0331117 1.33478 0)
(0.0374977 1.39394 0)
(0.0537233 1.33954 0)
(0.0579095 1.27782 0)
(0.0878628 1.40201 -6.79938e-20)
(0.0930868 1.37501 1.30577e-20)
(0.0851811 1.57652 3.57493e-21)
(0.103705 1.40965 -4.43203e-20)
(0.0434729 1.48678 4.9288e-20)
(0.0482414 1.48284 -3.88971e-20)
(0.0749026 1.39773 -2.62447e-20)
(0.0629094 1.40076 7.61091e-20)
(0.0566999 1.38009 1.23349e-20)
(0.0439852 1.39796 8.03646e-21)
(0.100828 2.37415 -1.0535e-19)
(0.0916291 2.41733 0)
(0.146074 2.01093 8.79222e-20)
(0.13185 1.70016 2.99143e-20)
(0.217045 2.00897 -8.27124e-20)
(0.223626 2.41811 0)
(0.250364 2.37969 -6.09978e-19)
(0.292916 2.37433 4.45679e-19)
(0.255554 1.98048 -1.95679e-19)
(0.147315 2.15343 1.42955e-19)
(0.107801 2.25908 0)
(0.01508 1.85706 -2.84353e-20)
(-0.00447974 2.37693 -1.08554e-20)
(0.00394764 2.13507 0)
(0.0057793 2.43935 -1.69993e-20)
(0.0230018 2.2754 2.5336e-20)
(0.00856928 1.43133 -1.14327e-20)
(0.00655707 1.41027 1.89316e-19)
(0.00562282 1.41907 -6.15103e-20)
(0.01775 1.4279 -5.37753e-20)
(0.0207785 1.45846 0)
(0.00410406 1.40113 0)
(-0.00311695 1.30475 -7.03052e-20)
(-0.000563994 1.38679 2.00528e-20)
(0.00462227 1.38796 0)
(0.00458517 1.29637 -5.37804e-20)
(0.0123161 1.21772 1.07799e-19)
(1.04244 0.0150832 0)
(1.04897 0.0105587 -6.50998e-20)
(1.03914 0.0247005 -4.70543e-19)
(1.04968 0.0234947 0)
(1.05462 0.0226219 0)
(1.03625 0.0130689 -6.76099e-21)
(1.03 0.0135622 7.5932e-19)
(1.03178 0.0175144 9.19043e-19)
(1.02565 0.0211171 0)
(1.02228 0.0215962 0)
(1.03546 0.025921 4.69705e-19)
(1.02576 0.0283368 0)
(1.02345 0.028344 0)
(-0.0203434 2.03015 0)
(-0.00960222 1.66144 -2.28744e-21)
(-0.00861488 1.76671 -3.20424e-20)
(-0.00528648 1.3947 0)
(-0.00927672 1.5639 -2.95197e-20)
(-0.0153878 1.47247 1.81623e-20)
(-0.0105758 1.4075 0)
(0.403509 1.62659 0)
(0.36555 1.31833 -3.05952e-20)
(0.275682 1.34579 0)
(0.434921 1.31661 -3.39673e-20)
(0.47295 1.47617 0)
(0.45735 1.41708 3.88211e-20)
(1.04057 2.6722 -1.53296e-20)
(0.985187 2.41043 -9.06064e-19)
(0.947869 2.21085 1.01748e-18)
(0.865493 2.38399 2.44458e-19)
(0.852838 2.48876 0)
(0.921834 2.48357 0)
(0.954531 2.3843 0)
(0.93057 2.37495 -9.44346e-19)
(0.691465 2.45305 -3.82135e-19)
(0.800489 2.43677 -9.85558e-20)
(0.807786 2.41488 7.42721e-20)
(0.704267 2.40427 0)
(0.80954 2.39816 0)
(0.770211 2.41453 -3.69446e-19)
(0.765777 2.46735 0)
(0.629763 1.06676 0)
(0.515544 0.85984 -5.58839e-19)
(0.521856 0.93177 -3.24099e-20)
(0.501712 1.07144 0)
(0.488709 0.97981 8.55717e-19)
(0.801323 0.886207 -1.33503e-19)
(0.805119 1.02122 0)
(0.786013 1.00397 1.83707e-19)
(0.674802 1.02087 0)
(0.666623 0.924363 0)
(1.16352 2.75568 -2.21492e-19)
(1.13864 2.81385 -9.08433e-20)
(0.923134 2.33625 7.71974e-20)
(0.89984 2.31722 -7.67142e-20)
(1.13319 2.7336 0)
(1.08519 2.7014 9.21527e-20)
(1.10135 2.49696 -2.98896e-19)
(1.00308 2.25659 -2.84145e-20)
(0.497278 1.33075 0)
(0.517071 1.07788 -1.05496e-19)
(0.593969 1.18203 0)
(0.851403 0.231041 0)
(0.756343 0.178373 0)
(0.662037 0.143468 0)
(0.853767 0.231798 -6.16563e-19)
(0.744741 0.224638 3.61562e-19)
(0.915465 0.0880768 -4.03426e-19)
(0.922819 0.138018 0)
(0.905057 0.15287 1.74355e-19)
(0.835169 0.111209 6.9784e-19)
(0.787483 0.0761532 -4.38422e-19)
(1.09681 3.34835 -6.6981e-19)
(1.16464 3.2717 0)
(1.11495 3.43322 -1.56482e-18)
(0.656507 3.57913 1.30245e-18)
(1.02543 3.07678 1.1672e-19)
(0.532696 0.782064 5.70625e-19)
(0.512332 0.750275 0)
(0.350983 0.363629 -1.44602e-19)
(0.486926 0.629047 8.58049e-19)
(0.54985 0.34894 -1.89927e-19)
(0.518771 0.454474 2.25604e-19)
(0.690361 0.524214 4.63377e-19)
(0.736081 0.56045 0)
(0.664917 0.564418 0)
(0.648776 0.530822 0)
(1.0167 0.612178 9.04887e-20)
(0.971677 0.594577 -4.67856e-19)
(0.981517 0.606554 3.58101e-19)
(1.04602 0.549308 -3.45467e-19)
(1.09087 0.51909 0)
(1.09259 0.601056 -9.1119e-20)
(0.887395 0.420772 -7.71965e-19)
(0.87616 0.407848 -9.91831e-19)
(0.79963 0.406479 6.08757e-19)
(0.814563 0.375044 -6.29969e-19)
(0.856582 0.334424 -4.95478e-19)
(0.801011 0.338221 6.06926e-19)
(1.02656 0.00670045 -4.69844e-19)
(1.02618 0.00681948 9.46559e-19)
(1.02995 0.000957292 6.04592e-19)
(1.03417 0.00158185 -7.259e-19)
(1.03398 0.0120088 0)
(1.02966 0.0120693 -1.18911e-18)
(0.0810531 1.64601 1.16735e-20)
(0.0680719 1.60723 0)
(0.108833 1.70364 3.97459e-20)
(0.113482 1.67933 -3.34061e-20)
(0.0723149 1.57293 -6.57607e-21)
(0.0672204 1.57559 0)
(0.00727074 1.69971 0)
(-0.00861888 1.5141 1.5747e-20)
(-0.00755267 1.45414 -1.41517e-20)
(-0.0122337 1.56133 2.936e-21)
(-0.0017799 1.8936 2.32977e-20)
(-0.0140177 1.94833 -9.07706e-21)
(0.49352 1.36149 -2.6556e-19)
(0.496009 1.35655 2.90338e-19)
(0.448932 1.30905 -1.38422e-20)
(0.428214 1.29193 7.85382e-21)
(0.628144 1.31106 0)
(0.555817 1.4046 1.14059e-19)
(0.556897 1.40773 -1.11071e-19)
(0.484491 1.29628 1.33513e-20)
(0.525558 1.2501 0)
(0.590073 1.21596 0)
(0.665198 2.41653 5.62645e-19)
(0.660852 2.44619 1.28628e-18)
(0.715991 2.46146 -8.84429e-19)
(0.614013 2.43331 -2.01762e-19)
(0.556613 2.52743 2.76652e-19)
(0.496728 2.49315 -7.16327e-19)
(0.993093 2.38922 -5.73234e-19)
(1.02523 2.4069 0)
(0.95197 2.19466 -6.27076e-19)
(1.05603 2.68248 0)
(1.05495 2.66363 0)
(0.602154 2.28958 5.84642e-21)
(1.11914 3.06944 7.41102e-20)
(0.996872 2.96687 -1.22454e-19)
(0.322169 0.797146 0)
(0.321109 0.677692 -3.04308e-19)
(0.526953 0.612694 -3.08713e-19)
(0.364767 2.13187 0)
(0.403584 2.74413 -8.21622e-20)
(0.413203 2.47853 0)
(0.727571 0.681903 -7.9851e-19)
(0.794165 0.689613 1.1127e-18)
(0.79977 0.657095 -1.06099e-18)
(0.700421 0.64028 -1.0124e-19)
(0.759568 0.599009 -4.17638e-19)
(0.971184 2.75286 -5.613e-20)
(1.01424 2.75941 -2.12049e-19)
(0.552838 2.20672 4.39856e-19)
(0.604961 1.73456 -3.48333e-19)
(0.703952 1.8533 -4.96915e-19)
(0.977538 2.39327 -1.37594e-19)
(0.977499 2.34652 3.66587e-19)
(0.646987 1.76372 3.35148e-20)
(0.453293 1.29663 1.75643e-19)
)
;

boundaryField
{
    wall-4
    {
        type            noSlip;
    }
    velocity-inlet-5
    {
        type            fixedValue;
        value           uniform (1 0 0);
    }
    velocity-inlet-6
    {
        type            fixedValue;
        value           uniform (0 3 0);
    }
    pressure-outlet-7
    {
        type            zeroGradient;
    }
    wall-8
    {
        type            noSlip;
    }
    frontAndBackPlanes
    {
        type            empty;
    }
}


// ************************************************************************* //
