/*--------------------------------*- C++ -*----------------------------------*\
  =========                 |
  \\      /  F ield         | OpenFOAM: The Open Source CFD Toolbox
   \\    /   O peration     | Website:  https://openfoam.org
    \\  /    A nd           | Version:  6
     \\/     M anipulation  |
\*---------------------------------------------------------------------------*/
FoamFile
{
    version     2.0;
    format      ascii;
    class       volScalarField;
    location    "1.5";
    object      p;
}
// * * * * * * * * * * * * * * * * * * * * * * * * * * * * * * * * * * * * * //

dimensions      [1 -1 -2 0 0 0 0];

internalField   nonuniform List<scalar> 
5250
(
1.00003
1.00018
1.00045
1.00123
1.00269
1.00718
1.01503
1.04245
1.08499
1.26145
1.56479
2.72842
5.76525
13.8889
13.5475
12.3972
11.6018
11.3866
11.4994
11.7911
12.0414
12.1817
12.278
12.3507
12.3891
1.00003
1.00017
1.00045
1.00122
1.00266
1.0071
1.01486
1.04198
1.08409
1.25878
1.55897
2.71377
5.72302
13.83
13.4947
12.3763
11.58
11.3715
11.4896
11.7883
12.0374
12.1756
12.272
12.3461
12.3893
1.00003
1.00017
1.00044
1.00119
1.00259
1.00692
1.0145
1.04096
1.08215
1.25291
1.54595
2.67993
5.62066
13.6765
13.3826
12.3578
11.5353
11.3313
11.4559
11.7636
12.0088
12.1422
12.2378
12.3135
12.3616
1.00003
1.00016
1.00042
1.00114
1.00249
1.00664
1.01392
1.03933
1.07902
1.24333
1.5247
2.62069
5.4411
13.3863
13.2527
12.3704
11.4736
11.2645
11.3944
11.7094
11.9477
12.0734
12.1663
12.2416
12.2923
1.00003
1.00015
1.0004
1.00107
1.00234
1.00626
1.01312
1.03708
1.0745
1.23014
1.49353
2.53603
5.17149
12.8923
13.2323
12.3711
11.3958
11.1728
11.3066
11.6255
11.8555
11.9706
12.0581
12.1288
12.1772
1.00002
1.00014
1.00037
1.00099
1.00217
1.00578
1.01212
1.03421
1.06839
1.21357
1.44985
2.43276
4.80596
12.1597
13.2879
12.3939
11.3095
11.0559
11.1918
11.5107
11.7284
11.8265
11.9048
11.9695
12.0166
1.00002
1.00013
1.00034
1.00091
1.00198
1.00525
1.01098
1.0309
1.06108
1.19335
1.39563
2.29961
4.35809
11.1548
13.462
12.4911
11.2324
10.9199
11.0502
11.3576
11.5539
11.6293
11.6892
11.7399
11.7827
1.00002
1.00012
1.00031
1.00083
1.00181
1.00473
1.00985
1.02742
1.05377
1.17062
1.33493
2.14252
3.84328
9.83471
13.7477
12.6635
11.1669
10.7661
10.8827
11.1602
11.3206
11.3627
11.3895
11.4056
11.4296
1.00002
1.00011
1.00029
1.00077
1.00167
1.00431
1.00898
1.02439
1.04819
1.14732
1.28257
1.96654
3.31552
8.2269
13.9325
12.7376
11.0568
10.5869
10.6834
10.9128
11.0158
11.01
10.9755
10.9041
10.854
1.00002
1.00011
1.00027
1.00072
1.00155
1.00399
1.0083
1.02223
1.04442
1.13092
1.25214
1.82757
2.92096
6.76995
13.8199
12.6444
10.8967
10.3888
10.4563
10.6132
10.6335
10.5732
10.4106
10.127
9.76326
1.00002
1.0001
1.00025
1.00066
1.00144
1.00369
1.00769
1.02042
1.04104
1.11907
1.22945
1.74124
2.70208
6.09907
13.1649
12.2933
10.6983
10.1828
10.2058
10.2604
10.2143
10.0407
9.65299
8.91091
7.21908
1.00002
1.00009
1.00023
1.00061
1.00133
1.00339
1.00707
1.0187
1.0377
1.10828
1.20929
1.66684
2.52211
5.52088
12.0923
11.6145
10.508
9.98622
9.93168
9.89509
9.76993
9.46075
8.85062
7.90108
6.22608
1.00001
1.00008
1.00021
1.00055
1.0012
1.00305
1.00636
1.01682
1.03386
1.0976
1.18506
1.59918
2.34252
5.00089
11.0188
10.9135
10.3472
9.80427
9.65315
9.5514
9.33822
8.91463
8.24309
7.33119
6.10318
1.00001
1.00007
1.00018
1.00049
1.00106
1.00269
1.00562
1.01481
1.02983
1.08596
1.16018
1.5299
2.13878
4.48746
9.81898
10.4257
10.1441
9.62881
9.3974
9.23089
8.95187
8.49965
7.86705
7.07397
6.12354
1.00001
1.00006
1.00016
1.00042
1.0009
1.0023
1.0048
1.01263
1.02535
1.0733
1.13411
1.45246
1.93001
3.91979
8.42348
10.122
9.94432
9.51147
9.17921
8.94522
8.64025
8.2033
7.63514
6.9541
6.17529
1.00001
1.00005
1.00013
1.00034
1.00075
1.00189
1.00396
1.01036
1.0209
1.05946
1.1099
1.36198
1.73705
3.28502
6.84819
10.0005
9.8566
9.43425
8.99481
8.70134
8.39076
7.98404
7.47665
6.8877
6.23523
1.00001
1.00004
1.0001
1.00027
1.00059
1.0015
1.00313
1.00809
1.01645
1.04531
1.08581
1.26786
1.5318
2.62098
4.91737
9.7726
9.71864
9.39662
8.8618
8.49809
8.18143
7.80275
7.34805
6.83146
6.26797
1.00001
1.00003
1.00008
1.00021
1.00047
1.00117
1.00246
1.00634
1.01294
1.0352
1.06793
1.20839
1.3935
2.30971
4.02237
8.8918
9.42498
9.23191
8.76991
8.32452
7.98924
7.6389
7.23181
6.77333
6.27985
1
1.00002
1.00006
1.00016
1.00036
1.0009
1.00188
1.00484
1.0098
1.02708
1.04993
1.16441
1.28515
2.02704
3.25643
7.18145
9.04359
8.94454
8.63484
8.1711
7.81567
7.48587
7.121
6.7162
6.27809
1
1.00002
1.00005
1.00012
1.00027
1.00068
1.00143
1.00367
1.00751
1.02015
1.03967
1.11689
1.21795
1.71361
2.56224
5.27476
8.71846
8.73877
8.54932
8.12465
7.70243
7.36186
7.02442
6.65915
6.27124
1
1.00001
1.00004
1.00009
1.0002
1.0005
1.00105
1.00269
1.00551
1.01466
1.02912
1.08282
1.16034
1.49041
2.06666
3.97083
7.86715
8.53395
8.40549
8.07187
7.62323
7.26649
6.94511
6.61457
6.26301
1
1.00001
1.00003
1.00007
1.00014
1.00036
1.00075
1.00191
1.0039
1.01032
1.02019
1.05918
1.10433
1.35866
1.69073
3.15603
6.16623
8.23075
8.19971
8.00575
7.6033
7.21041
6.88359
6.57304
6.25189
1
1.00001
1.00002
1.00005
1.0001
1.00025
1.00052
1.00131
1.00269
1.00702
1.014
1.03866
1.07455
1.22224
1.44487
2.31163
4.00588
7.65862
8.07231
7.93922
7.61345
7.20794
6.85899
6.54935
6.24665
1
1
1.00001
1.00003
1.00007
1.00016
1.00034
1.00086
1.00177
1.0046
1.009
1.02581
1.04481
1.15702
1.25708
1.95133
2.99934
6.25601
7.80342
7.77328
7.59849
7.22495
6.86066
6.54303
6.24808
1
1
1.00001
1.00002
1.00004
1.00011
1.00023
1.00058
1.00119
1.00307
1.00617
1.01673
1.03227
1.09601
1.17765
1.57025
2.20456
4.15974
7.22644
7.63549
7.53354
7.26371
6.88228
6.54925
6.25393
1
1
1.00001
1.00001
1.00003
1.00006
1.00016
1.00032
1.00082
1.00164
1.00436
1.00813
1.02504
1.04053
1.15295
1.24253
1.92442
2.90245
5.92233
7.36546
7.36135
7.24235
6.95101
6.57415
6.26972
1
1
1
1.00001
1.00002
1.00004
1.0001
1.00021
1.00054
1.00111
1.00288
1.00574
1.0156
1.02984
1.08835
1.16384
1.5129
2.07201
3.73083
6.7354
7.22134
7.16692
6.98448
6.62712
6.30725
1
1
1
1
1.00001
1.00003
1.00006
1.00013
1.00034
1.00069
1.00177
1.00351
1.00951
1.01786
1.05438
1.0948
1.31777
1.62512
2.81452
5.21885
6.83762
7.00715
6.93368
6.72753
6.38616
1
1
1
1
1.00001
1.00002
1.00004
1.00008
1.0002
1.00041
1.00106
1.00212
1.00563
1.0109
1.03084
1.05657
1.17859
1.32282
2.0299
3.13636
5.9925
6.81162
6.80458
6.71858
6.50598
1
1
1
1
1
1.00001
1.00002
1.00005
1.0001
1.00026
1.00053
1.00138
1.00272
1.00734
1.01372
1.04135
1.071
1.24039
1.44877
2.32896
3.94761
6.23661
6.6748
6.6561
6.54667
1
1
1
1
1
1.00001
1.00001
1.00003
1.00007
1.00014
1.00035
1.00069
1.00182
1.00357
1.00979
1.01844
1.05464
1.10007
1.31284
1.62131
2.72398
4.84691
6.26751
6.52984
6.49804
1
1
1
1
1
1
1.00001
1.00001
1.00004
1.00007
1.00019
1.00038
1.00098
1.00193
1.00519
1.00972
1.02853
1.04982
1.16413
1.28275
1.91359
2.8503
5.31104
6.24103
6.38255
1
1
1
1
1
1
1
1.00001
1.00002
1.00004
1.0001
1.0002
1.00051
1.00101
1.00268
1.00503
1.01448
1.02496
1.08257
1.13371
1.46344
1.86746
3.18236
5.46161
6.14361
1
1
1
1
1
1
1
1
1.00001
1.00002
1.00005
1.0001
1.00026
1.0005
1.00132
1.00251
1.00709
1.01261
1.03954
1.06565
1.22762
1.40083
2.21925
3.66012
5.47123
1
1
1
1
1
1
1
1
1
1.00001
1.00002
1.00004
1.0001
1.00017
1.00049
1.00068
1.00253
1.00374
1.01539
1.01956
1.11285
1.1269
1.6982
2.12726
4.0119
1
1
1
1
1
1
1
1
1
1
1.00001
1.00002
1.00003
1.0001
1.00015
1.00047
1.00076
1.00232
1.00401
1.01409
1.01671
1.12107
1.13231
1.74578
2.2504
1
1
1
1
1
1
1
1
1
1
1
1.00001
1.00002
1.00003
1.00009
1.00013
1.00047
1.0007
1.00241
1.00413
1.01362
1.01691
1.12591
1.12888
1.77265
1
1
1
1
1
1
1
1
1
1
1
1
1.00001
1.00002
1.00005
1.0001
1.00028
1.00051
1.00156
1.0026
1.00914
1.01378
1.05632
1.08277
1.32476
1
1
1
1
1
1
1
1
1
1
1
1
1
1.00001
1.00002
1.00005
1.00009
1.00026
1.0004
1.00143
1.00224
1.00851
1.01132
1.05887
1.07081
1
1
1
1
1
1
1
1
1
1
1
1
1
1
1.00001
1.00001
1.00004
1.00006
1.00024
1.00036
1.00127
1.00169
1.00858
1.00795
1.06135
1
1
1
1
1
1
1
1
1
1
1
1
1
1
1
1.00001
1.00001
1.00004
1.00005
1.00022
1.00034
1.0011
1.00172
1.00739
1.00863
1
1
1
1
1
1
1
1
1
1
1
1
1
1
1
1
1
1.00001
1.00003
1.00003
1.00021
1.00034
1.001
1.00146
1.00706
1
1
1
1
1
1
1
1
1
1
1
1
1
1
1
1
1
1
1
1.00003
1.00003
1.00019
1.00035
1.00093
1.00128
1
1
1
1
1
1
1
1
1
1
1
1
1
1
1
1
1
1
1
1.00001
1.00003
1.00003
1.00019
1.00034
1.00085
1
1
1
1
1
1
1
1
1
1
1
1
1
1
1
1
1
1
1
1
1.00001
1.00002
1.00008
1.00011
1.00045
1
1
1
1
1
1
1
1
1
1
1
1
1
1
1
1
1
1
1
1
1.00001
1.00001
1.00003
1.00005
1.0002
1
1
1
1
1
1
1
1
1
1
1
1
1
1
1
1
1
1
1
1
1
1
1.00001
1.00001
1.00005
1
1
1
1
1
1
1
1
1
1
1
1
1
1
1
1
1
1
1
1
1
1
1
1.00001
1.00003
1
1
1
1
1
1
1
1
1
1
1
1
1
1
1
1
1
1
1
1
1
1
1
1
1
1
1
1
1
1
1
1
1
1
1
1
1
1
1
1
1
1
1
1
1
1
1
1
1
1
3.53233
1.90722
1.21249
0.88096
0.711567
0.640577
0.644807
0.66737
0.727983
0.866928
1.04321
1.1566
1.19954
1.20151
1.20006
1.19934
1.20058
1.20463
1.21348
1.22528
1.23491
1.24224
1.24763
1.25175
1.25495
1.2574
1.25908
1.26004
1.26019
1.26012
1.25974
1.25886
1.25698
1.2544
1.25135
1.24785
1.24386
1.23937
1.23444
1.22912
1.22348
1.21757
1.21148
1.20527
1.19897
1.19268
1.18642
1.18012
1.17389
1.16781
1.16171
1.15544
1.14915
1.14287
1.13642
1.13029
1.12389
1.12436
1.12649
1.13257
1.14842
1.18522
1.2673
1.4399
1.79371
2.47682
3.28971
4.0249
4.3985
4.45674
4.44837
4.41436
4.3374
4.22094
4.12321
4.02034
3.92022
3.83231
3.75229
3.67387
3.59732
3.52265
3.44791
3.37267
3.29817
3.22462
3.15226
3.08075
3.01081
2.94252
2.87651
2.81241
2.75079
2.69067
2.63343
2.57686
2.52349
2.47042
2.42612
2.38754
3.96976
2.48419
1.70417
1.30569
1.11761
1.05643
1.05764
1.06132
1.05851
1.04427
1.04771
1.06094
1.0906
1.13363
1.17448
1.20457
1.22259
1.23095
1.23458
1.23719
1.24003
1.24361
1.24752
1.25131
1.25463
1.25726
1.25906
1.26018
1.26028
1.26017
1.25978
1.25891
1.2572
1.25483
1.2517
1.24813
1.24411
1.23958
1.23464
1.22932
1.22369
1.2178
1.21171
1.20548
1.19917
1.19284
1.18652
1.18022
1.17396
1.16777
1.16162
1.15537
1.14901
1.14269
1.13662
1.13066
1.1284
1.12963
1.13433
1.14756
1.17822
1.24756
1.38972
1.67465
2.07918
2.38769
2.7039
3.08465
3.5597
4.03378
4.28535
4.29767
4.28382
4.24082
4.14684
4.03189
3.9377
3.84494
3.75106
3.66665
3.58953
3.51333
3.43816
3.36493
3.29272
3.22011
3.14801
3.07721
3.00825
2.94097
2.87565
2.8122
2.75081
2.69085
2.63324
2.57624
2.52288
2.46818
2.42665
2.382
4.68408
3.52635
2.70574
2.16151
1.78947
1.52225
1.32981
1.1911
1.09776
1.02863
0.999715
1.00251
1.01418
1.04164
1.09291
1.13827
1.1755
1.20178
1.21784
1.22703
1.23355
1.23867
1.2429
1.24627
1.24896
1.25102
1.25263
1.25381
1.25439
1.25439
1.25427
1.25388
1.25296
1.25107
1.2483
1.24508
1.2412
1.23665
1.23183
1.22675
1.22134
1.21567
1.20981
1.20381
1.19772
1.19159
1.18545
1.17932
1.17319
1.16711
1.16103
1.15493
1.14878
1.14272
1.13742
1.13547
1.1367
1.14173
1.15608
1.19
1.26568
1.41818
1.72566
2.07705
2.25131
2.3541
2.45305
2.58758
2.77438
3.02888
3.38161
3.77015
4.08454
4.21197
4.19808
4.15231
4.06376
3.93901
3.81109
3.70492
3.60606
3.51395
3.43439
3.36068
3.28758
3.21565
3.14592
3.07773
3.01076
2.94516
2.88113
2.81839
2.75697
2.69649
2.63782
2.57998
2.52616
2.46924
2.42912
2.38071
5.08935
4.13813
3.3562
2.74755
2.28169
1.92609
1.66021
1.46517
1.32061
1.22562
1.16323
1.12631
1.10639
1.107
1.11146
1.12304
1.14654
1.17173
1.19487
1.21632
1.23452
1.24687
1.25443
1.2582
1.25916
1.25911
1.25893
1.25844
1.25759
1.25683
1.25607
1.25511
1.25381
1.25191
1.24939
1.24632
1.24268
1.23828
1.23336
1.22829
1.22285
1.21715
1.21125
1.20522
1.19911
1.19294
1.18676
1.18058
1.17439
1.16821
1.16205
1.156
1.15012
1.14493
1.14484
1.14651
1.15276
1.17054
1.2113
1.30237
1.4855
1.83952
2.14952
2.2817
2.33174
2.35412
2.36503
2.38629
2.43209
2.51911
2.65048
2.83542
3.09231
3.43903
3.77925
4.02599
4.02592
3.99876
3.9321
3.79502
3.64996
3.5418
3.44114
3.34621
3.26196
3.18938
3.12184
3.05624
2.99313
2.93175
2.87098
2.81021
2.74994
2.69011
2.63195
2.5738
2.51984
2.46319
2.42241
2.37371
5.34836
4.54653
3.83362
3.23284
2.74413
2.35414
2.04673
1.80639
1.61767
1.47142
1.35678
1.26983
1.20505
1.16134
1.13228
1.12249
1.1245
1.13178
1.14622
1.16785
1.18603
1.20333
1.21906
1.23109
1.23944
1.24528
1.24863
1.24994
1.24985
1.24945
1.24849
1.24692
1.24504
1.24288
1.24051
1.23788
1.2348
1.23108
1.22684
1.22235
1.21744
1.21217
1.20665
1.20095
1.19513
1.18925
1.18335
1.17745
1.17154
1.16565
1.15983
1.15453
1.15009
1.15067
1.15358
1.16169
1.18379
1.23234
1.33926
1.55353
1.95665
2.22442
2.33929
2.37241
2.37073
2.35779
2.33113
2.3039
2.29388
2.30134
2.32612
2.38382
2.48169
2.62185
2.82148
3.10964
3.4569
3.76206
3.9006
3.8725
3.79592
3.68833
3.54608
3.4113
3.3093
3.21613
3.12998
3.05688
2.99217
2.92976
2.86915
2.80944
2.75101
2.69237
2.63527
2.57761
2.52374
2.4675
2.42426
2.37786
5.54031
4.85218
4.2139
3.64899
3.16605
2.76152
2.42679
2.15207
1.92701
1.74326
1.59384
1.47322
1.37649
1.30077
1.24356
1.20241
1.17646
1.15957
1.15965
1.16166
1.1671
1.17843
1.19252
1.20629
1.22078
1.234
1.24368
1.25021
1.25303
1.25294
1.25225
1.2509
1.24798
1.24496
1.24191
1.23859
1.23525
1.23159
1.22759
1.22345
1.21892
1.214
1.20876
1.20325
1.19754
1.1917
1.18578
1.17984
1.1739
1.16804
1.16279
1.15978
1.16057
1.16414
1.17509
1.2024
1.26452
1.39318
1.65153
2.0952
2.30885
2.39888
2.42201
2.41539
2.3914
2.35257
2.31087
2.26859
2.2315
2.20542
2.18952
2.19284
2.20717
2.24314
2.31551
2.425
2.58687
2.81215
3.1348
3.45902
3.73653
3.70657
3.65374
3.58328
3.43976
3.29432
3.18219
3.08688
3.00006
2.92314
2.85704
2.79551
2.73659
2.67881
2.62389
2.56802
2.51554
2.46054
2.41614
2.37341
5.67475
5.07765
4.50826
3.98669
3.52328
3.12018
2.77416
2.48002
2.23128
2.02184
1.84602
1.69879
1.57575
1.47336
1.38904
1.32022
1.26649
1.22534
1.19691
1.17866
1.16885
1.16945
1.17202
1.17782
1.1879
1.19791
1.20907
1.21985
1.22893
1.23503
1.23921
1.23966
1.23935
1.23832
1.23603
1.23259
1.22878
1.22472
1.22057
1.21635
1.21199
1.20745
1.20271
1.19774
1.19254
1.18715
1.18161
1.17603
1.1705
1.16555
1.1639
1.165
1.16974
1.18246
1.21623
1.2884
1.4443
1.75747
2.20112
2.39093
2.45744
2.47133
2.46108
2.43265
2.38777
2.34155
2.29448
2.24819
2.20353
2.1625
2.12868
2.10376
2.08545
2.08254
2.08953
2.11193
2.16224
2.24769
2.37294
2.55077
2.81929
3.14042
3.48533
3.56373
3.52935
3.44124
3.33084
3.19695
3.06599
2.96706
2.88341
2.80378
2.73569
2.67358
2.61608
2.55821
2.50659
2.45351
2.40888
2.37009
5.76306
5.24083
4.73297
4.25555
3.81843
3.42694
3.08106
2.77909
2.51701
2.29088
2.09633
1.92928
1.78627
1.66385
1.55953
1.47077
1.39605
1.33394
1.28372
1.24465
1.21527
1.1953
1.18269
1.1773
1.178
1.18009
1.18475
1.19225
1.20226
1.2115
1.22102
1.22806
1.23319
1.23409
1.23376
1.23281
1.23038
1.22621
1.22181
1.21719
1.2124
1.20768
1.203
1.19829
1.19347
1.18852
1.18342
1.17843
1.17378
1.17368
1.17516
1.18109
1.1968
1.23774
1.32445
1.50969
1.88015
2.28634
2.45923
2.5124
2.51895
2.50563
2.47313
2.42729
2.37702
2.32744
2.27852
2.23108
2.18529
2.14185
2.101
2.06354
2.03149
2.00553
1.98577
1.97413
1.97731
1.98977
2.02009
2.08177
2.17969
2.32145
2.53089
2.82588
3.17693
3.41894
3.36812
3.29312
3.22826
3.1003
2.9676
2.85737
2.76983
2.6896
2.61868
2.55533
2.50037
2.44474
2.39874
2.36076
5.82446
5.36219
4.90577
4.46915
4.0606
3.68609
3.34748
3.04522
2.77735
2.54149
2.33465
2.15365
1.99576
1.85795
1.7381
1.6337
1.54324
1.46484
1.3974
1.34012
1.29256
1.25418
1.22437
1.20213
1.1874
1.17815
1.17615
1.17682
1.17883
1.18296
1.19079
1.19899
1.20723
1.21378
1.21923
1.22091
1.22075
1.21995
1.218
1.214
1.20926
1.20432
1.19917
1.19408
1.18905
1.18423
1.1796
1.17588
1.1764
1.17861
1.18641
1.20552
1.25417
1.35463
1.56845
1.99386
2.35683
2.51846
2.56348
2.56293
2.5468
2.51132
2.46249
2.41009
2.35854
2.30875
2.26045
2.21396
2.16906
2.12597
2.08425
2.04429
2.00605
1.9703
1.93783
1.9098
1.88851
1.8724
1.8665
1.87223
1.89034
1.93141
2.0055
2.11527
2.28243
2.52288
2.85037
3.19703
3.20749
3.17175
3.09022
2.99238
2.87353
2.75041
2.65763
2.57869
2.50927
2.44552
2.39833
2.3535
5.86523
5.45068
5.03921
4.63969
4.25959
3.90459
3.5776
3.28007
3.01176
2.77137
2.55721
2.36686
2.1983
2.04903
1.91715
1.80052
1.69756
1.60664
1.52651
1.45606
1.39438
1.34108
1.29589
1.25853
1.22859
1.20543
1.18879
1.17807
1.17206
1.17214
1.17286
1.17505
1.17956
1.18767
1.19558
1.20273
1.20832
1.21118
1.21113
1.21055
1.20894
1.20553
1.20064
1.1955
1.1903
1.18523
1.18194
1.18257
1.18553
1.19438
1.21893
1.27311
1.39438
1.63725
2.12029
2.43406
2.57124
2.6123
2.60897
2.58848
2.54719
2.49554
2.44099
2.38801
2.33714
2.28857
2.24178
2.1967
2.15302
2.11068
2.06934
2.02904
1.98964
1.95141
1.91454
1.87949
1.84682
1.81737
1.7927
1.77447
1.76206
1.76281
1.7713
1.79463
1.84546
1.93037
2.05938
2.24453
2.52264
2.86926
3.07184
3.01765
2.93232
2.8782
2.77347
2.65261
2.55367
2.47463
2.41773
2.35916
5.89368
5.5193
5.14503
4.77811
4.42478
4.0898
3.77663
3.48708
3.222
2.98094
2.76317
2.56705
2.39112
2.23345
2.09235
1.96614
1.85317
1.75217
1.66168
1.58085
1.50853
1.44416
1.387
1.33688
1.2937
1.25735
1.22751
1.20398
1.18614
1.17408
1.16691
1.16461
1.16489
1.16619
1.16914
1.17576
1.18308
1.19006
1.19535
1.19871
1.19887
1.19846
1.19715
1.19432
1.19004
1.18592
1.1866
1.18937
1.20115
1.22548
1.29282
1.42387
1.70231
2.23527
2.52001
2.62889
2.6611
2.65493
2.63047
2.58323
2.52785
2.47111
2.41611
2.36418
2.3148
2.26775
2.22238
2.1785
2.1358
2.09415
2.05331
2.01325
1.97388
1.93525
1.89744
1.86051
1.82482
1.79047
1.75819
1.72812
1.70142
1.68005
1.66474
1.65584
1.65962
1.6727
1.70244
1.76049
1.85772
1.9996
2.21359
2.52068
2.85769
2.84168
2.80377
2.74001
2.66129
2.55986
2.47792
2.39541
5.9177
5.57571
5.23235
4.89286
4.56321
4.2474
3.94864
3.66883
3.40944
3.17051
2.95207
2.75302
2.57245
2.40887
2.26095
2.12726
2.00638
1.89718
1.7983
1.70898
1.62803
1.55496
1.48891
1.42948
1.37622
1.32898
1.28783
1.25269
1.22345
1.19983
1.18168
1.1686
1.16071
1.15647
1.15646
1.15722
1.15944
1.16455
1.17141
1.17823
1.1838
1.1873
1.18931
1.18952
1.18985
1.19098
1.19617
1.20687
1.24134
1.30873
1.47063
1.79334
2.36368
2.60662
2.6934
2.71391
2.70419
2.67374
2.62147
2.56367
2.50383
2.44616
2.39176
2.34089
2.29271
2.24671
2.20228
2.15916
2.1171
2.07595
2.03554
1.99585
1.95677
1.91832
1.88054
1.84336
1.80704
1.7714
1.73696
1.70349
1.67177
1.64163
1.61433
1.58971
1.57182
1.55838
1.55423
1.55951
1.57594
1.6128
1.68056
1.78943
1.95026
2.20724
2.54984
2.70666
2.66362
2.58616
2.55488
2.49418
5.93605
5.62044
5.30414
4.99017
4.68203
4.38414
4.09952
3.83019
3.57785
3.34291
3.12576
2.92581
2.74261
2.57503
2.42214
2.2827
2.15559
2.03974
1.93402
1.83765
1.74958
1.6693
1.59593
1.52911
1.46822
1.413
1.3631
1.31846
1.27921
1.24531
1.21684
1.19346
1.1753
1.16165
1.15321
1.14813
1.14758
1.14801
1.14973
1.15362
1.16042
1.16683
1.17296
1.17865
1.18308
1.19129
1.21021
1.24803
1.33668
1.51512
1.89663
2.47292
2.6929
2.7567
2.76784
2.75548
2.72085
2.66438
2.60303
2.54036
2.47922
2.42185
2.36832
2.31837
2.271
2.22561
2.18167
2.13891
2.09719
2.05631
2.01624
1.97684
1.93811
1.89995
1.86247
1.82548
1.78925
1.7535
1.7187
1.6844
1.6513
1.61887
1.58795
1.5582
1.53059
1.50519
1.48353
1.46806
1.45707
1.45783
1.46516
1.48573
1.53032
1.61157
1.74059
1.93549
2.2498
2.53705
2.52042
2.52015
5.9568
5.66127
5.36527
5.07298
4.78553
4.50461
4.23391
3.97547
3.73087
3.50099
3.28633
3.08686
2.90236
2.73218
2.57563
2.43176
2.29971
2.17847
2.06717
1.96496
1.87098
1.78466
1.70519
1.63222
1.56505
1.50345
1.44696
1.39536
1.34846
1.30618
1.26876
1.23616
1.20857
1.1857
1.16776
1.15408
1.14535
1.14002
1.1392
1.13968
1.14145
1.14546
1.15329
1.16352
1.17692
1.20041
1.2483
1.34929
1.55559
1.98787
2.54202
2.76376
2.81505
2.8149
2.80135
2.76823
2.70874
2.6433
2.57732
2.51371
2.45367
2.39789
2.34581
2.2968
2.24995
2.20474
2.1609
2.11816
2.07654
2.03575
1.99588
1.95664
1.9182
1.88026
1.84308
1.80631
1.77036
1.73478
1.70014
1.66583
1.63259
1.5997
1.568
1.53679
1.50697
1.47794
1.4508
1.4251
1.40238
1.3835
1.37059
1.36336
1.36674
1.3784
1.40634
1.46094
1.5669
1.71473
2.00182
2.42441
5.9745
5.69923
5.42392
5.14911
4.87838
4.61316
4.35538
4.10738
3.87068
3.64636
3.43507
3.23712
3.05249
2.8809
2.72186
2.57474
2.4388
2.31327
2.19734
2.09026
1.9913
1.89983
1.81521
1.73694
1.66446
1.59746
1.53544
1.47822
1.42545
1.37701
1.33274
1.29268
1.25699
1.22579
1.1992
1.17708
1.15961
1.14631
1.13755
1.1339
1.13453
1.13707
1.14322
1.15643
1.18345
1.23792
1.35019
1.5748
2.03664
2.58341
2.80296
2.85421
2.85147
2.83744
2.80499
2.74566
2.67517
2.60715
2.54308
2.48313
2.42673
2.3737
2.32339
2.27525
2.22878
2.18365
2.13982
2.09704
2.05543
2.01465
1.97488
1.93573
1.89747
1.85967
1.82271
1.78611
1.75043
1.71506
1.6807
1.64662
1.61363
1.58088
1.54926
1.5179
1.48772
1.45788
1.42934
1.40134
1.37499
1.34966
1.32685
1.30596
1.29095
1.27965
1.27892
1.28424
1.30252
1.34289
1.42906
1.61577
5.99595
5.73474
5.47636
5.21824
4.96247
4.71187
4.46658
4.22853
3.99953
3.78087
3.57325
3.37731
3.19319
3.02095
2.8603
2.71082
2.57193
2.44301
2.32337
2.21233
2.10923
2.01347
1.92446
1.84168
1.76468
1.69301
1.62633
1.56432
1.50665
1.45324
1.40366
1.3582
1.31627
1.2785
1.24449
1.2148
1.1895
1.16817
1.15225
1.13993
1.14045
1.14407
1.15304
1.18072
1.23163
1.34968
1.58158
2.05592
2.5923
2.8179
2.87192
2.87041
2.85798
2.8252
2.76203
2.68994
2.62241
2.56127
2.50421
2.44997
2.39774
2.34748
2.2989
2.25177
2.20593
2.1612
2.11766
2.07509
2.03367
1.99303
1.95338
1.91432
1.87615
1.83843
1.80161
1.76514
1.72967
1.69451
1.66043
1.6266
1.59392
1.56145
1.53013
1.49902
1.46903
1.43926
1.41062
1.38223
1.35509
1.32829
1.30304
1.27843
1.25597
1.23509
1.21761
1.20502
1.19975
1.2033
1.21752
1.25708
6.03673
5.7844
5.53723
5.29062
5.04411
4.80242
4.56795
4.33972
4.11853
3.90566
3.70216
3.5087
3.32583
3.15354
2.99197
2.84072
2.69956
2.56787
2.44519
2.33085
2.2243
2.12492
2.03217
1.94557
1.86463
1.789
1.71822
1.65213
1.5902
1.53258
1.47852
1.42865
1.38186
1.33924
1.29956
1.26406
1.23178
1.20436
1.18062
1.1659
1.16749
1.17421
1.20021
1.24792
1.37127
1.60656
2.09582
2.60788
2.82363
2.88209
2.87829
2.86038
2.81735
2.74721
2.67954
2.61807
2.56264
2.51105
2.46089
2.41164
2.36313
2.31571
2.26932
2.22393
2.17949
2.13591
2.09332
2.0515
2.01065
1.97043
1.9311
1.89227
1.85429
1.81673
1.78007
1.74377
1.70849
1.67352
1.63968
1.60609
1.5737
1.54151
1.51052
1.4797
1.45005
1.42054
1.39216
1.36391
1.33682
1.30985
1.28419
1.25867
1.23476
1.21111
1.18964
1.16895
1.1513
1.13747
1.13046
1.13338
6.09272
5.83657
5.59609
5.36116
5.12876
4.89714
4.66834
4.4446
4.22754
4.01887
3.81939
3.62913
3.4484
3.27733
3.11587
2.96393
2.82133
2.68774
2.56271
2.44572
2.33626
2.23383
2.13788
2.04799
1.96362
1.88456
1.81015
1.74055
1.67483
1.6136
1.55565
1.50194
1.45118
1.40437
1.36051
1.32045
1.28329
1.25186
1.22214
1.21839
1.22392
1.2418
1.30256
1.41653
1.67386
2.1719
2.67098
2.85771
2.90737
2.89424
2.85973
2.79028
2.7191
2.656
2.59989
2.54909
2.5018
2.45587
2.41005
2.36468
2.31982
2.2758
2.23246
2.18978
2.14769
2.10614
2.06525
2.02485
1.98515
1.94583
1.90724
1.86897
1.83146
1.79426
1.75793
1.7219
1.68688
1.65214
1.61855
1.58519
1.55306
1.52112
1.49042
1.45987
1.43053
1.40131
1.37326
1.34528
1.31847
1.29169
1.26619
1.24064
1.21661
1.19242
1.17014
1.14759
1.12756
1.10766
1.09104
1.07964
6.1864
5.90576
5.65924
5.4285
5.2029
4.97933
4.75865
4.54275
4.33329
4.12992
3.93289
3.74349
3.5628
3.39166
3.23028
3.07843
2.93554
2.80111
2.67478
2.55606
2.44442
2.33964
2.24098
2.14845
2.06103
1.97912
1.90148
1.82877
1.75982
1.69519
1.63407
1.5767
1.52279
1.47215
1.42509
1.38101
1.34196
1.30631
1.29106
1.29548
1.31965
1.36793
1.51457
1.78853
2.32144
2.78062
2.94514
2.96551
2.94009
2.88275
2.79521
2.72213
2.65443
2.59243
2.53666
2.48673
2.4413
2.3967
2.35312
2.31076
2.26922
2.22854
2.18843
2.14877
2.1095
2.07053
2.03195
1.99357
1.95562
1.91779
1.88047
1.84325
1.80665
1.7702
1.73451
1.699
1.66445
1.63009
1.59685
1.56377
1.53194
1.50025
1.46984
1.43954
1.4105
1.38154
1.3538
1.32609
1.29961
1.27309
1.24791
1.22256
1.19881
1.17465
1.15255
1.12955
1.10949
1.08776
1.07085
1.05311
6.30807
6.00739
5.74098
5.50193
5.27682
5.05768
4.84285
4.63253
4.4267
4.22683
4.03497
3.85037
3.67306
3.50387
3.34301
3.1905
3.04611
2.91028
2.78215
2.66203
2.54886
2.44226
2.34156
2.24657
2.15685
2.07204
1.99197
1.91611
1.84454
1.77674
1.71273
1.65235
1.59529
1.54191
1.49162
1.44636
1.40535
1.38443
1.38888
1.41508
1.46985
1.63418
1.94714
2.55567
2.94289
3.08068
3.07271
3.02922
2.93912
2.85116
2.76682
2.69259
2.62463
2.56128
2.50212
2.44722
2.39505
2.34589
2.30152
2.25915
2.21837
2.17901
2.14062
2.10296
2.0659
2.02919
1.9929
1.95669
1.92084
1.88491
1.84938
1.81372
1.77855
1.74331
1.70872
1.67412
1.64038
1.60668
1.57404
1.54145
1.51008
1.47875
1.44871
1.41872
1.39
1.36131
1.33388
1.30643
1.28027
1.25401
1.22917
1.20408
1.18067
1.15674
1.13497
1.11207
1.0923
1.07025
1.05367
1.03433
6.37049
6.11105
5.82954
5.57839
5.34962
5.13309
4.92261
4.71701
4.51572
4.32019
4.13122
3.94948
3.7756
3.60814
3.44821
3.2962
3.15248
3.01637
2.88778
2.76613
2.65105
2.54259
2.43975
2.34278
2.25061
2.16357
2.08083
2.00255
1.92828
1.85783
1.79125
1.72804
1.66865
1.61263
1.56179
1.51623
1.49254
1.49759
1.52898
1.59302
1.78412
2.15229
2.83065
3.1585
3.24461
3.22734
3.16011
3.03878
2.93352
2.84196
2.75897
2.68371
2.61412
2.54882
2.48727
2.42883
2.37203
2.31835
2.26765
2.21981
2.17628
2.13507
2.09577
2.05793
2.02133
1.98552
1.95053
1.91583
1.8817
1.84751
1.81379
1.77985
1.74639
1.71272
1.67961
1.64634
1.61382
1.58118
1.54949
1.51772
1.48707
1.45635
1.42686
1.39731
1.36902
1.34067
1.31359
1.28643
1.26059
1.23462
1.2101
1.18531
1.16224
1.1386
1.11718
1.09454
1.07513
1.05322
1.03696
1.0174
6.33521
6.19687
5.92038
5.65655
5.42153
5.20501
4.99824
4.79735
4.60193
4.41147
4.22506
4.04506
3.87301
3.70864
3.55085
3.39966
3.25584
3.11926
2.98982
2.86707
2.7509
2.64052
2.53634
2.43705
2.34296
2.25355
2.16856
2.08791
2.01112
1.93845
1.8693
1.80408
1.74264
1.68667
1.63733
1.61396
1.62028
1.66008
1.73416
1.97259
2.41202
3.12857
3.41237
3.44818
3.41373
3.31747
3.17725
3.04858
2.93902
2.84423
2.75993
2.68323
2.61243
2.54588
2.48309
2.42218
2.36232
2.30582
2.25082
2.19841
2.14918
2.10277
2.06024
2.01989
1.98164
1.94482
1.9094
1.87476
1.84113
1.80778
1.77519
1.74256
1.71056
1.6784
1.64685
1.61511
1.58406
1.55282
1.52242
1.49182
1.46222
1.43242
1.40375
1.37489
1.34721
1.31938
1.29277
1.26603
1.24058
1.21497
1.1908
1.16634
1.14363
1.12029
1.09924
1.07687
1.05782
1.03614
1.02022
1.00072
6.2349
6.17826
6.03007
5.76058
5.50792
5.28306
5.07547
4.87726
4.68523
4.4983
4.31713
4.14159
3.97078
3.80621
3.64924
3.49951
3.35664
3.22011
3.09004
2.96637
2.84862
2.73703
2.63086
2.5299
2.43393
2.34227
2.25536
2.17229
2.09355
2.01858
1.94767
1.8808
1.82076
1.76699
1.75085
1.7614
1.80109
1.92748
2.19118
2.77733
3.46249
3.69827
3.69021
3.62603
3.49129
3.33913
3.19857
3.07621
2.96938
2.87389
2.78657
2.70505
2.62823
2.55543
2.48613
2.42094
2.35954
2.30139
2.24351
2.18868
2.13577
2.08514
2.03738
1.99227
1.95085
1.91132
1.87385
1.83771
1.80309
1.76922
1.73656
1.70425
1.67292
1.64169
1.61129
1.58086
1.5512
1.52141
1.49242
1.46322
1.43492
1.40635
1.37877
1.35091
1.32412
1.29706
1.27115
1.245
1.22011
1.19498
1.17129
1.14722
1.12493
1.10193
1.08127
1.05918
1.04051
1.01905
1.00349
0.984095
6.0294
6.09003
6.0254
5.8693
5.61591
5.37617
5.16049
4.96046
4.7697
4.58515
4.4064
4.23294
4.06549
3.90407
3.74859
3.59942
3.4562
3.31973
3.18911
3.06469
2.94583
2.83293
2.72445
2.6219
2.52381
2.43042
2.34131
2.25637
2.17571
2.0992
2.02712
1.96332
1.90634
1.89926
1.91378
1.97008
2.12575
2.4864
3.23774
3.81054
3.99657
3.96958
3.86743
3.68697
3.52046
3.37128
3.23975
3.12209
3.01541
2.91685
2.82471
2.73763
2.65505
2.57656
2.502
2.43125
2.36427
2.3008
2.24133
2.18552
2.13003
2.0771
2.02609
1.97717
1.93091
1.88721
1.84673
1.80793
1.77111
1.73547
1.70152
1.66833
1.63657
1.60528
1.5752
1.54539
1.5166
1.48789
1.46011
1.43222
1.40524
1.37799
1.35169
1.32502
1.29936
1.27331
1.24836
1.22303
1.19893
1.17445
1.1514
1.12785
1.10608
1.08349
1.06327
1.0415
1.02322
1.00198
0.986775
0.967469
5.48531
5.90989
5.93904
5.87147
5.71311
5.47252
5.24673
5.04272
4.85256
4.67069
4.49509
4.32443
4.15917
3.99938
3.84536
3.69704
3.55473
3.41834
3.28765
3.16217
3.04247
2.92763
2.81834
2.71354
2.61342
2.51816
2.4271
2.34055
2.25867
2.18134
2.11488
2.05543
2.05822
2.08253
2.1586
2.35581
2.8185
3.75111
4.19613
4.30701
4.25617
4.1139
3.91058
3.72372
3.56293
3.42216
3.29541
3.17849
3.06957
2.96707
2.87015
2.77797
2.69018
2.60656
2.52694
2.4513
2.37945
2.31134
2.24692
2.18577
2.12841
2.07451
2.02134
1.97028
1.921
1.87365
1.8289
1.78669
1.747
1.70884
1.67274
1.63772
1.60456
1.57222
1.54151
1.51139
1.48266
1.45431
1.42714
1.40008
1.37409
1.34796
1.32282
1.29737
1.27292
1.24804
1.22422
1.19994
1.17683
1.15322
1.13099
1.10814
1.08703
1.06497
1.04528
1.02389
1.00604
0.98505
0.970209
0.950981
4.22944
5.4357
5.7858
5.79667
5.73246
5.58094
5.34993
5.13166
4.93589
4.7548
4.58211
4.41548
4.25368
4.09637
3.9438
3.79614
3.65392
3.51685
3.3857
3.25976
3.13894
3.02264
2.91167
2.80485
2.70334
2.60609
2.51359
2.42623
2.34446
2.2739
2.22106
2.22573
2.26992
2.35352
2.64489
3.21112
4.27771
4.64517
4.63845
4.5513
4.36326
4.14808
3.94823
3.77364
3.62126
3.4844
3.3582
3.23947
3.12723
3.02054
2.91905
2.82221
2.7298
2.64165
2.55759
2.47765
2.40153
2.3293
2.26063
2.19554
2.13387
2.07529
2.02007
1.96804
1.91676
1.86734
1.81975
1.77392
1.73072
1.68978
1.65114
1.61379
1.57863
1.54453
1.51243
1.48119
1.45171
1.42288
1.39556
1.36864
1.34301
1.3175
1.29314
1.26863
1.24521
1.22144
1.19875
1.17559
1.15358
1.131
1.10976
1.0878
1.0675
1.04614
1.0271
1.00621
0.988874
0.968208
0.953767
0.934646
2.31056
4.2897
5.38321
5.66522
5.66609
5.60607
5.46418
5.24333
5.03337
4.84425
4.6701
4.50541
4.34644
4.19195
4.04143
3.89581
3.75406
3.61679
3.48435
3.35704
3.23501
3.11776
3.00517
2.89695
2.79379
2.69522
2.60258
2.51715
2.44281
2.40237
2.41204
2.47699
2.60081
2.99977
3.77808
4.79341
5.06796
5.02831
4.87683
4.62092
4.39119
4.18545
4.00215
3.83795
3.6895
3.5525
3.42418
3.3023
3.18623
3.07525
2.96933
2.86811
2.77148
2.67931
2.59138
2.50771
2.42792
2.35208
2.2798
2.21114
2.14578
2.08367
2.02475
1.96858
1.91559
1.86518
1.81569
1.76772
1.72188
1.67767
1.63636
1.59661
1.55926
1.52312
1.48919
1.45633
1.42549
1.39554
1.36738
1.33988
1.31395
1.28839
1.26423
1.24015
1.21733
1.19433
1.17253
1.15034
1.12937
1.10782
1.08762
1.06662
1.04728
1.02674
1.00849
0.988239
0.971519
0.951293
0.937318
0.918392
1.56139
2.55704
4.29046
5.27833
5.54032
5.54562
5.49009