/*--------------------------------*- C++ -*----------------------------------*\
  =========                 |
  \\      /  F ield         | OpenFOAM: The Open Source CFD Toolbox
   \\    /   O peration     | Website:  https://openfoam.org
    \\  /    A nd           | Version:  6
     \\/     M anipulation  |
\*---------------------------------------------------------------------------*/
FoamFile
{
    version     2.0;
    format      ascii;
    class       surfaceScalarField;
    location    "1.5";
    object      phi;
}
// * * * * * * * * * * * * * * * * * * * * * * * * * * * * * * * * * * * * * //

dimensions      [1 0 -1 0 0 0 0];

internalField   nonuniform List<scalar> 
10325
(
0.00840002
6.49964e-10
0.00839998
4.11237e-09
0.00839988
1.23673e-08
0.00839954
3.3392e-08
0.00839898
7.61908e-08
0.00839714
1.84524e-07
0.00839411
3.9559e-07
0.00838457
9.73063e-07
0.00836942
2.05153e-06
0.00832596
5.55614e-06
0.00825327
1.34553e-05
0.00809334
4.21366e-05
0.00749751
0.000155656
0.00620642
0.000788522
0.00561572
0.000747231
0.00532914
0.000600164
0.0048392
0.000569135
0.00427643
0.000569576
0.00371616
0.000594508
0.00317834
0.000611184
0.00258614
0.00064936
0.00196441
0.000699601
0.0013143
0.000748113
0.000637908
0.000775678
0.000716136
0.00840002
1.33315e-09
0.00839998
8.44995e-09
0.00839988
2.53265e-08
0.00839954
6.87343e-08
0.00839897
1.56853e-07
0.00839712
3.83617e-07
0.00839405
8.22687e-07
0.00838437
2.05051e-06
0.00836885
4.32832e-06
0.008324
1.18316e-05
0.00824841
2.89999e-05
0.0080768
9.09544e-05
0.00744415
0.000341057
0.00599541
0.00171239
0.00544154
0.00146886
0.00528172
0.00109492
0.00487586
0.00105031
0.00435602
0.00109728
0.00381217
0.00117488
0.00324984
0.00124886
0.00262432
0.00133276
0.00198655
0.00141446
0.00134411
0.00148758
0.000688039
0.00153043
0.00148216
0.00840002
2.00701e-09
0.00839998
1.27617e-08
0.00839988
3.81643e-08
0.00839955
1.04308e-07
0.00839898
2.38637e-07
0.00839712
5.90402e-07
0.00839402
1.2714e-06
0.00838419
3.20285e-06
0.00836804
6.84419e-06
0.00832143
1.8651e-05
0.00824212
4.66646e-05
0.00805477
0.00014527
0.00738777
0.000546404
0.0058003
0.00271333
0.00536387
0.00212836
0.00530162
0.0015293
0.00493322
0.00148649
0.00444435
0.00159752
0.00391552
0.00174554
0.00334259
0.0019
0.00269706
0.00203592
0.00203805
0.00214804
0.00137562
0.00224448
0.000700882
0.00230148
0.00225966
0.00840002
2.58034e-09
0.00839998
1.6493e-08
0.00839989
4.92147e-08
0.00839957
1.35698e-07
0.00839902
3.11702e-07
0.00839718
7.81687e-07
0.0083941
1.69465e-06
0.00838423
4.31048e-06
0.00836718
9.4189e-06
0.00831982
2.52111e-05
0.0082334
6.55726e-05
0.00804466
0.000197481
0.00736017
0.000747271
0.00559392
0.00374299
0.00546636
0.00270697
0.00540525
0.00193346
0.00506256
0.00189441
0.00458901
0.00208981
0.00406216
0.00232066
0.00348833
0.00255376
0.00282546
0.00275453
0.0021385
0.00290575
0.00143684
0.00303644
0.00071726
0.00311346
0.0030497
0.00840003
2.92361e-09
0.00839999
1.88577e-08
0.00839991
5.61615e-08
0.00839961
1.56763e-07
0.00839912
3.61985e-07
0.00839735
9.23129e-07
0.00839442
2.0213e-06
0.00838467
5.21746e-06
0.0083669
1.16887e-05
0.00832001
3.09574e-05
0.00822366
8.3977e-05
0.0080552
0.000243329
0.00739391
0.000917882
0.00557708
0.0046388
0.00563943
0.00327277
0.00560365
0.00230038
0.0052687
0.00230461
0.00479725
0.00258916
0.00427471
0.00289939
0.00368823
0.00321942
0.0030075
0.00348843
0.00228965
0.00368812
0.00155415
0.00385767
0.000786082
0.00397048
0.00390564
0.00840003
2.90091e-09
0.00839999
1.89565e-08
0.00839993
5.64845e-08
0.00839968
1.60451e-07
0.00839928
3.72729e-07
0.0083977
9.72825e-07
0.0083952
2.15306e-06
0.00838599
5.69059e-06
0.00836925
1.28077e-05
0.00832234
3.49406e-05
0.00822263
9.5328e-05
0.00809401
0.000285895
0.0074944
0.00101501
0.00579741
0.00521959
0.00597342
0.00384551
0.00593293
0.00272988
0.00556439
0.00277252
0.00507614
0.00312433
0.00454675
0.00349498
0.0039449
0.00389572
0.00324511
0.00423962
0.00249747
0.00449031
0.00171058
0.00472266
0.000876965
0.00488619
0.00484472
0.00840003
2.60003e-09
0.0084
1.71236e-08
0.00839996
5.11667e-08
0.00839978
1.46605e-07
0.00839951
3.40225e-07
0.00839828
9.0454e-07
0.00839643
2.00238e-06
0.00838844
5.53031e-06
0.00837608
1.19847e-05
0.00833216
3.55292e-05
0.00824258
9.50151e-05
0.00814039
0.000299132
0.00765425
0.00101845
0.00630614
0.00528094
0.00657262
0.00446473
0.00641765
0.00335758
0.00594359
0.00335939
0.00541509
0.00371526
0.00486769
0.00410967
0.00425787
0.00457654
0.00355195
0.00499774
0.00276847
0.00531551
0.00194395
0.00561345
0.00101539
0.00588796
0.00591681
0.00840003
2.30495e-09
0.00840001
1.49592e-08
0.00839999
4.495e-08
0.00839989
1.26107e-07
0.00839975
2.89154e-07
0.00839901
7.53702e-07
0.00839797
1.62861e-06
0.00839246
4.63505e-06
0.00838594
9.21921e-06
0.00835002
3.20309e-05
0.00829547
7.50639e-05
0.00821045
0.000278917
0.0079009
0.000876423
0.00721778
0.00455587
0.00744266
0.00516978
0.00699167
0.00430377
0.00635956
0.00409226
0.00578353
0.0043504
0.00522761
0.00473033
0.00462645
0.00524202
0.00393076
0.00573963
0.00313996
0.00613346
0.00228017
0.00653192
0.00125857
0.00697369
0.0072253
0.00840003
2.23146e-09
0.00840002
1.42287e-08
0.00840001
4.29318e-08
0.00839995
1.17416e-07
0.00839987
2.67551e-07
0.0083995
6.65067e-07
0.00839905
1.41419e-06
0.0083965
3.707e-06
0.00839432
7.44826e-06
0.00837646
2.32316e-05
0.00835377
5.09143e-05
0.00830099
0.000195049
0.00821016
0.000579042
0.00846933
0.00298335
0.00829178
0.00594095
0.00743972
0.00543
0.00671498
0.00486613
0.00613731
0.00498149
0.00560649
0.00531954
0.00504616
0.00585721
0.00440504
0.00642282
0.00368706
0.00686677
0.00285004
0.00741036
0.00172935
0.00815091
0.00899559
0.00840003
2.32495e-09
0.00840002
1.46635e-08
0.00840001
4.43297e-08
0.00839997
1.19371e-07
0.00839992
2.70794e-07
0.00839968
6.53866e-07
0.00839939
1.38378e-06
0.00839787
3.43205e-06
0.00839631
6.99271e-06
0.00838766
1.96033e-05
0.00837798
4.2407e-05
0.00836281
0.000145014
0.00840823
0.000392981
0.00909714
0.00186612
0.00861827
0.00642986
0.0076903
0.00642942
0.00700691
0.00562111
0.00649481
0.00556421
0.00602309
0.0058533
0.00553522
0.0063905
0.00505351
0.00693085
0.00445258
0.00747545
0.00373979
0.00814429
0.00279436
0.00913656
0.0118211
0.00840003
2.53718e-09
0.00840002
1.59076e-08
0.00840001
4.81707e-08
0.00839998
1.2856e-07
0.00839993
2.91152e-07
0.00839975
6.91151e-07
0.00839948
1.46249e-06
0.00839841
3.51266e-06
0.00839705
7.23952e-06
0.00839063
1.93003e-05
0.00838366
4.05179e-05
0.00835694
0.000134782
0.00835389
0.000346147
0.00840428
0.00154815
0.00836472
0.00609668
0.00770631
0.00695671
0.00723428
0.00613724
0.00685255
0.0059881
0.00646948
0.00627301
0.00614386
0.00675007
0.00581401
0.00729077
0.00546402
0.00783648
0.00521851
0.00839381
0.00556564
0.00881621
0.00825822
0.00914513
0.00840003
2.87586e-09
0.00840002
1.79816e-08
0.00840001
5.43187e-08
0.00839998
1.44835e-07
0.00839993
3.28115e-07
0.00839975
7.76589e-07
0.00839943
1.65232e-06
0.00839848
3.90515e-06
0.00839661
8.21615e-06
0.00839185
2.02611e-05
0.00838045
4.69393e-05
0.00836173
0.000132146
0.00832262
0.000354831
0.00830616
0.00141435
0.00816831
0.00598133
0.00777075
0.00725904
0.00742378
0.00650186
0.00714251
0.00629035
0.0068923
0.00653766
0.00671704
0.00694278
0.00657303
0.00745523
0.00650083
0.0079191
0.00672736
0.00817587
0.0074021
0.00815613
0.00738612
0.00828481
0.00840003
3.13988e-09
0.00840002
1.96247e-08
0.00840002
5.93267e-08
0.00839999
1.5798e-07
0.00839995
3.57434e-07
0.00839982
8.44879e-07
0.00839958
1.78833e-06
0.00839885
4.2386e-06
0.00839761
8.8039e-06
0.00839307
2.21394e-05
0.00838763
4.92935e-05
0.00836706
0.000137038
0.00832027
0.000395163
0.00824454
0.00140019
0.00792165
0.00612023
0.00797736
0.00709898
0.00760828
0.00686464
0.00735435
0.00654274
0.00721785
0.00667299
0.00715772
0.00701249
0.00720473
0.00741963
0.00739
0.00773719
0.0077338
0.00782579
0.00827871
0.00761285
0.00694671
0.00872629
0.00840003
3.38586e-09
0.00840002
2.11533e-08
0.00840002
6.38764e-08
0.0084
1.70253e-07
0.00839995
3.85793e-07
0.00839983
9.12399e-07
0.0083996
1.94091e-06
0.00839897
4.57201e-06
0.00839767
9.59485e-06
0.00839398
2.39085e-05
0.00838893
5.1776e-05
0.00836753
0.000148132
0.00834248
0.000406019
0.00823432
0.00145706
0.00800244
0.00618765
0.00794286
0.00711208
0.00773676
0.00704133
0.00761477
0.00665069
0.00756212
0.00671543
0.00759045
0.00697929
0.00776707
0.00725751
0.00806612
0.00744125
0.00841484
0.00746647
0.00883154
0.00718733
0.00661119
0.00916167
0.00840003
3.49031e-09
0.00840003
2.17873e-08
0.00840002
6.57082e-08
0.00840001
1.7525e-07
0.00839999
3.96781e-07
0.00839992
9.41287e-07
0.0083998
1.99226e-06
0.00839942
4.74357e-06
0.00839879
9.75574e-06
0.00839565
2.53846e-05
0.00839584
5.08108e-05
0.00837527
0.000159977
0.00838103
0.00039135
0.00832176
0.00146933
0.00839245
0.00598247
0.00821239
0.00726294
0.00810312
0.00713208
0.00795615
0.00678024
0.00793855
0.00671368
0.00803925
0.00687405
0.00823623
0.00707022
0.00854281
0.00714633
0.00888352
0.00712005
0.00921294
0.00684387
0.00633478
0.00947557
0.00840003
3.36133e-09
0.00840003
2.09878e-08
0.00840003
6.31385e-08
0.00840003
1.68838e-07
0.00840003
3.82214e-07
0.00840002
9.11387e-07
0.00840003
1.92967e-06
0.00839995
4.6249e-06
0.00839982
9.49958e-06
0.00839884
2.49519e-05
0.00839985
4.89969e-05
0.00839801
0.000154266
0.0084025
0.000378686
0.00844116
0.00140051
0.00939656
0.00489909
0.00904595
0.00758804
0.00865827
0.00750384
0.00842448
0.0069984
0.00836202
0.00675416
0.00846753
0.00676597
0.00866943
0.00687201
0.00894756
0.0068813
0.00926833
0.00680066
0.00954351
0.00655644
0.00611112
0.00975048
0.00840003
2.83625e-09
0.00840003
1.7725e-08
0.00840004
5.36756e-08
0.00840006
1.42598e-07
0.00840011
3.23138e-07
0.00840023
7.58531e-07
0.0084005
1.60854e-06
0.0084012
3.74212e-06
0.00840272
7.74578e-06
0.00840756
1.91134e-05
0.00841684
3.78715e-05
0.00846066
0.000106264
0.00856871
0.000260896
0.0091859
0.000772222
0.0115138
0.002502
0.0104152
0.00863801
0.00995849
0.00793318
0.00919829
0.00774888
0.00896849
0.00696385
0.00894266
0.00677941
0.00906609
0.00675036
0.0092727
0.00668248
0.00954274
0.006538
0.0097966
0.00629809
0.00591548
0.00997631
0.00840003
2.39846e-09
0.00840003
1.49967e-08
0.00840004
4.53463e-08
0.00840005
1.2066e-07
0.00840009
2.73619e-07
0.00840018
6.42841e-07
0.00840038
1.37052e-06
0.00840081
3.1642e-06
0.00840169
6.6559e-06
0.0084046
1.54498e-05
0.00840751
3.40993e-05
0.00843
8.00545e-05
0.00848682
0.000199247
0.00864008
0.000604112
0.00932252
0.00177984
0.0105387
0.00733438
0.0102639
0.00817013
0.0100274
0.00796502
0.00961847
0.00736743
0.00945887
0.00693076
0.00949228
0.00672167
0.00960885
0.00657288
0.00978593
0.00636887
0.00998388
0.00610454
0.00575888
0.0101379
0.00840003
1.95084e-09
0.00840003
1.21709e-08
0.00840004
3.68797e-08
0.00840006
9.77074e-08
0.0084001
2.21133e-07
0.0084002
5.16417e-07
0.00840045
1.09026e-06
0.00840098
2.52198e-06
0.00840227
5.14732e-06
0.00840413
1.28767e-05
0.0084143
2.31751e-05
0.00841559
7.55029e-05
0.00847205
0.000138417
0.00851506
0.000548892
0.00888654
0.00138276
0.0102982
0.00583929
0.0104038
0.0080475
0.0102496
0.00810197
0.00998586
0.007626
0.00984485
0.00706448
0.00983595
0.00672568
0.00991608
0.0065037
0.0100314
0.00626084
0.0101716
0.00597346
0.00564137
0.0102921
0.00840003
1.5845e-09
0.00840003
9.90424e-09
0.00840004
2.99725e-08
0.00840005
7.96386e-08
0.00840008
1.80436e-07
0.00840015
4.22996e-07
0.00840031
8.97973e-07
0.00840065
2.07398e-06
0.00840134
4.30445e-06
0.00840341
1.02369e-05
0.00840489
2.0911e-05
0.00842211
5.52826e-05
0.00844566
0.000112462
0.00861026
0.000372807
0.0090381
0.000942192
0.0111873
0.00359092
0.0109158
0.00830346
0.0108573
0.00816688
0.0105816
0.00791111
0.0103118
0.00733442
0.0101981
0.00683941
0.0102078
0.00650265
0.0102642
0.00621566
0.0103444
0.00590137
0.00556041
0.01043
0.00840003
1.2502e-09
0.00840003
7.82574e-09
0.00840004
2.36889e-08
0.00840005
6.30097e-08
0.00840008
1.42869e-07
0.00840015
3.35378e-07
0.0084003
7.13229e-07
0.00840063
1.64874e-06
0.00840137
3.43417e-06
0.00840306
8.07806e-06
0.00840646
1.69359e-05
0.00841919
4.04981e-05
0.00843395
9.40095e-05
0.00856167
0.000235595
0.00884207
0.000674466
0.010156
0.00223867
0.0112528
0.00716375
0.0111908
0.00822259
0.0109911
0.00811715
0.0107408
0.00758794
0.0105921
0.00698819
0.0105452
0.00655247
0.0105539
0.00621315
0.0105757
0.00588386
0.00553393
0.0106034
0.00840003
9.58772e-10
0.00840003
6.00204e-09
0.00840004
1.81861e-08
0.00840005
4.83487e-08
0.00840008
1.09667e-07
0.00840014
2.57028e-07
0.00840029
5.46304e-07
0.00840063
1.25882e-06
0.00840137
2.60922e-06
0.00840309
6.17014e-06
0.00840717
1.23534e-05
0.00841309
3.29769e-05
0.00844887
5.88394e-05
0.00847438
0.000203702
0.00871454
0.000434318
0.00917606
0.00175078
0.0111826
0.00509066
0.0113944
0.00799515
0.011353
0.00814987
0.0111349
0.00780474
0.0109402
0.00718134
0.0108268
0.00666167
0.0107934
0.0062462
0.0107942
0.00588633
0.00553288
0.010798
0.00840003
7.1945e-10
0.00840003
4.50001e-09
0.00840004
1.36167e-08
0.00840005
3.61936e-08
0.00840007
8.20386e-08
0.00840013
1.9223e-07
0.00840025
4.08933e-07
0.00840053
9.39841e-07
0.00840113
1.96204e-06
0.0084026
4.53572e-06
0.00840517
9.52919e-06
0.0084149
2.17632e-05
0.00842645
5.02122e-05
0.00850967
0.000108388
0.00865605
0.000303668
0.0095693
0.000796776
0.0122435
0.00238323
0.0122621
0.00791627
0.0121102
0.00828407
0.0117607
0.00814607
0.0114088
0.00753457
0.0112425
0.00683006
0.0111189
0.00636506
0.0110465
0.00595297
0.00557382
0.0110043
0.00840003
4.98086e-10
0.00840003
3.1091e-09
0.00840004
9.51663e-09
0.00840005
2.49984e-08
0.00840007
5.69761e-08
0.00840012
1.31049e-07
0.00840024
2.79474e-07
0.00840053
6.27602e-07
0.00840115
1.30574e-06
0.00840257
2.9824e-06
0.00840593
5.96954e-06
0.00841181
1.51116e-05
0.00843447
2.68437e-05
0.00845234
8.70678e-05
0.0085942
0.00015571
0.00876205
0.000616385
0.00958924
0.00151577
0.0119385
0.00547549
0.0121623
0.00803051
0.0122009
0.00808758
0.011902
0.00782642
0.0116184
0.00711193
0.0114734
0.00650858
0.0113647
0.00605853
0.00566024
0.011277
0.00840003
3.11058e-10
0.00840003
2.40443e-09
0.00840003
6.27085e-09
0.00840004
1.89848e-08
0.00840006
3.77175e-08
0.00840008
1.0073e-07
0.00840017
1.85336e-07
0.00840028
4.95206e-07
0.00840069
8.68027e-07
0.00840113
2.42833e-06
0.00840299
3.97677e-06
0.00840501
1.24258e-05
0.00841383
1.72828e-05
0.00842879
6.81196e-05
0.00850062
8.14826e-05
0.00869992
0.000400136
0.00943577
0.000761367
0.0122113
0.00257663
0.0126009
0.00761862
0.0126093
0.00807508
0.0123855
0.00804579
0.0120213
0.00747874
0.0118148
0.0067138
0.0116588
0.00621095
0.0057744
0.0115434
0.00840003
2.36509e-10
0.00840003
1.32015e-09
0.00840003
4.41963e-09
0.00840004
1.07619e-08
0.00840005
2.63384e-08
0.00840009
5.57443e-08
0.00840015
1.28332e-07
0.00840037
2.60075e-07
0.00840062
5.98209e-07
0.00840183
1.17802e-06
0.00840281
2.84393e-06
0.00841007
5.11857e-06
0.00841126
1.49755e-05
0.00845618
2.29067e-05
0.00844508
8.78607e-05
0.00869609
0.000142379
0.00881927
0.000624685
0.00987632
0.00147918
0.0123487
0.00507538
0.0126243
0.00779042
0.0128159
0.00785183
0.0125992
0.00769523
0.0122395
0.0070787
0.0119871
0.00646071
0.00594329
0.0118155
0.00840003
1.63175e-10
0.00840003
9.11661e-10
0.00840003
2.98591e-09
0.00840004
7.39433e-09
0.00840004
1.78401e-08
0.00840006
3.85805e-08
0.0084001
8.76776e-08
0.00840017
1.82852e-07
0.00840033
4.13959e-07
0.00840064
8.51422e-07
0.00840142
1.95759e-06
0.00840244
4.00826e-06
0.00840754
9.40351e-06
0.00841032
1.96103e-05
0.00844888
4.71633e-05
0.00848166
0.000106892
0.00881507
0.00028478
0.00948997
0.00078038
0.0121314
0.00242211
0.0130085
0.00688423
0.0129758
0.00786977
0.0129955
0.00766328
0.0126429
0.00742678
0.0124082
0.00670263
0.00615058
0.012203
0.00840003
1.08614e-10
0.00840003
6.08601e-10
0.00840003
1.98695e-09
0.00840003
4.94566e-09
0.00840004
1.19e-08
0.00840005
2.5898e-08
0.00840008
5.86692e-08
0.00840013
1.23341e-07
0.00840027
2.77185e-07
0.00840054
5.74642e-07
0.00840119
1.3014e-06
0.00840246
2.66488e-06
0.00840525
6.23736e-06
0.00841178
1.22907e-05
0.00842389
3.24104e-05
0.00845871
6.10081e-05
0.00856987
0.000184784
0.00887672
0.000437117
0.00981186
0.00150975
0.0125334
0.00403181
0.0130509
0.00731841
0.0131659
0.0075398
0.0131053
0.00748133
0.0127889
0.00702201
0.00639737
0.0125514
0.00840003
7.60999e-11
0.00840003
3.64956e-10
0.00840003
1.34682e-09
0.00840003
3.01086e-09
0.00840004
8.04949e-09
0.00840005
1.57076e-08
0.00840006
3.98591e-08
0.00840011
7.40082e-08
0.00840019
1.89952e-07
0.00840041
3.39772e-07
0.00840076
9.01961e-07
0.00840183
1.55043e-06
0.00840346
4.3285e-06
0.00840847
7.00852e-06
0.00841797
2.17477e-05
0.00844494
3.18831e-05
0.0085069
0.000119065
0.00874654
0.00018467
0.00948973
0.000755396
0.0115353
0.00193456
0.01331
0.00548272
0.0133535
0.00749186
0.0134946
0.00733509
0.0132854
0.00722936
0.00670159
0.0129897
0.00840003
3.51992e-11
0.00840003
2.58895e-10
0.00840003
6.97805e-10
0.00840003
2.06041e-09
0.00840004
4.16225e-09
0.00840004
1.07293e-08
0.00840006
1.99871e-08
0.00840008
5.10221e-08
0.00840017
9.08176e-08
0.00840025
2.39196e-07
0.00840072
4.07661e-07
0.00840103
1.12797e-06
0.00840346
1.8301e-06
0.00840472
5.44036e-06
0.00841795
8.04283e-06
0.00841914
2.80203e-05
0.00850515
3.7027e-05
0.00851596
0.000154744
0.00901482
0.000267046
0.00991367
0.000973892
0.0125126
0.00274947
0.0136118
0.0063559
0.0136015
0.00734398
0.0137462
0.00708769
0.00696503
0.0134925
0.00840003
2.43949e-11
0.00840003
1.35998e-10
0.00840003
4.54263e-10
0.00840003
1.10816e-09
0.00840003
2.70909e-09
0.00840004
5.7461e-09
0.00840004
1.32135e-08
0.00840007
2.69272e-08
0.00840009
6.17211e-08
0.0084002
1.23574e-07
0.00840029
2.87785e-07
0.00840082
5.68791e-07
0.00840116
1.35735e-06
0.00840382
2.64612e-06
0.00840477
6.55052e-06
0.00841959
1.25477e-05
0.00842095
3.31297e-05
0.00850768
6.44153e-05
0.00857812
0.000184459
0.0091015
0.000441173
0.0103926
0.00142657
0.0130464
0.00360136
0.0137322
0.00664094
0.0138178
0.00700732
0.00690025
0.013891
0.00840003
1.40622e-11
0.00840003
7.91725e-11
0.00840003
2.59901e-10
0.00840003
6.45166e-10
0.00840003
1.54803e-09
0.00840003
3.34426e-09
0.00840004
7.52373e-09
0.00840005
1.56668e-08
0.00840007
3.49502e-08
0.00840012
7.18951e-08
0.00840023
1.61656e-07
0.00840045
3.30567e-07
0.00840098
7.53526e-07
0.00840202
1.53008e-06
0.00840465
3.57238e-06
0.00840973
7.12733e-06
0.00842364
1.75555e-05
0.00845169
3.45682e-05
0.00853699
9.3578e-05
0.00876887
0.0001965
0.00953539
0.000642407
0.0115676
0.00152907
0.0136305
0.00451395
0.0139199
0.00668164
0.00676484
0.0140459
0.00840003
8.04263e-12
0.00840003
4.52505e-11
0.00840003
1.48475e-10
0.00840003
3.6845e-10
0.00840003
8.83716e-10
0.00840003
1.90853e-09
0.00840004
4.28873e-09
0.00840004
8.92543e-09
0.00840006
1.98563e-08
0.00840008
4.08071e-08
0.00840015
9.13186e-08
0.00840028
1.86443e-07
0.00840058
4.21809e-07
0.00840122
8.559e-07
0.00840267
1.97032e-06
0.00840571
3.91654e-06
0.00841308
9.44672e-06
0.00842908
1.81895e-05
0.00846952
4.81588e-05
0.00857683
9.39372e-05
0.0089213
0.000279206
0.0097461
0.000689713
0.0123012
0.00191641
0.0138108
0.00508748
0.00653053
0.0140141
0.00840003
4.4618e-12
0.00840003
2.51749e-11
0.00840003
8.24324e-11
0.00840003
2.04863e-10
0.00840003
4.9027e-10
0.00840003
1.05897e-09
0.00840003
2.38246e-09
0.00840004
4.95691e-09
0.00840004
1.11169e-08
0.00840006
2.28693e-08
0.0084001
5.19647e-08
0.00840017
1.06873e-07
0.00840034
2.43885e-07
0.00840067
5.12106e-07
0.0084014
1.14252e-06
0.00840277
2.45953e-06
0.00840619
5.43095e-06
0.00841255
1.14505e-05
0.00843315
2.57851e-05
0.00846808
5.52539e-05
0.00860873
0.000125163
0.00898655
0.000306428
0.00997855
0.000860031
0.0128565
0.00207671
0.00531256
0.0140186
0.00840003
2.51014e-12
0.00840003
1.31063e-11
0.00840003
4.5367e-11
0.00840003
1.07183e-10
0.00840003
2.66307e-10
0.00840003
5.49122e-10
0.00840003
1.26624e-09
0.00840003
2.51131e-09
0.00840004
5.69359e-09
0.00840005
1.10591e-08
0.00840008
2.51711e-08
0.00840014
4.69951e-08
0.00840028
1.12586e-07
0.00840059
1.86414e-07
0.00840132
5.17093e-07
0.00840295
7.15729e-07
0.00840704
2.37334e-06
0.00840241
3.12999e-06
0.00843681
1.24486e-05
0.00839892
1.40605e-05
0.0084981
7.91719e-05
0.00873947
7.71415e-05
0.00910637
0.000473444
0.0102598
0.000857462
0.00235141
0.0131006
0.00840003
1.04145e-12
0.00840003
6.9779e-12
0.00840003
2.02784e-11
0.00840003
5.5687e-11
0.00840003
1.1932e-10
0.00840003
2.80031e-10
0.00840003
5.55682e-10
0.00840003
1.25391e-09
0.00840004
2.39399e-09
0.00840004
5.43772e-09
0.00840006
9.81089e-09
0.00840008
2.36548e-08
0.00840016
3.80019e-08
0.00840024
1.05041e-07
0.00840063
1.43579e-07
0.00840088
4.57666e-07
0.00840276
5.97038e-07
0.00840335
1.9667e-06
0.00841305
2.54231e-06
0.00841191
1.00572e-05
0.00850448
9.86751e-06
0.00846978
8.01116e-05
0.00886667
7.22429e-05
0.0092132
0.000504003
0.000942456
0.0105744
0.00840003
4.84019e-13
0.00840003
2.80734e-12
0.00840003
9.25775e-12
0.00840003
2.28297e-11
0.00840003
5.33211e-11
0.00840003
1.11853e-10
0.00840003
2.38455e-10
0.00840003
4.72653e-10
0.00840003
9.84411e-10
0.00840004
1.85297e-09
0.00840004
4.00365e-09
0.00840006
6.87528e-09
0.00840008
1.62867e-08
0.00840016
2.48812e-08
0.00840023
6.76807e-08
0.0084006
9.29643e-08
0.00840093
2.89133e-07
0.00840227
4.30034e-07
0.00840345
1.20564e-06
0.00840983
2.27823e-06
0.00841445
5.80431e-06
0.00847443
7.4337e-06
0.00848416
5.77888e-05
0.00892512
8.16871e-05
0.000458899
0.00939034
0.00840003
2.44991e-13
0.00840003
1.29878e-12
0.00840003
4.47821e-12
0.00840003
1.05931e-11
0.00840003
2.58943e-11
0.00840003
5.2549e-11
0.00840003
1.18823e-10
0.00840003
2.2806e-10
0.00840003
5.12285e-10
0.00840003
9.53139e-10
0.00840003
2.1887e-09
0.00840004
3.9966e-09
0.00840004
9.49724e-09
0.00840005
1.70889e-08
0.00840007
4.2697e-08
0.00840009
7.51619e-08
0.00840015
2.03584e-07
0.00840027
3.36531e-07
0.00840029
1.04742e-06
0.00840131
1.49443e-06
0.0084006
5.62394e-06
0.00840203
6.69754e-06
0.00842494
3.0658e-05
0.0084677
3.84402e-05
0.000173481
0.00874086
0.00840003
9.66862e-14
0.00840003
6.48969e-13
0.00840003
1.90282e-12
0.00840003
5.23022e-12
0.00840003
1.12295e-11
0.00840003
2.64141e-11
0.00840003
5.2353e-11
0.00840003
1.19368e-10
0.00840003
2.29008e-10
0.00840003
5.29919e-10
0.00840003
9.87009e-10
0.00840003
2.38636e-09
0.00840004
4.26996e-09
0.00840005
1.09165e-08
0.00840007
1.86228e-08
0.0084001
5.05786e-08
0.00840024
7.9327e-08
0.00840033
2.3718e-07
0.00840123
3.2436e-07
0.00840171
1.12552e-06
0.00840208
1.43842e-06
0.00840858
6.064e-06
0.00842059
5.88962e-06
0.0084223
3.57212e-05
3.48656e-05
0.00858134
0.00840003
4.65897e-14
0.00840003
2.56447e-13
0.00840003
8.77283e-13
0.00840003
2.10003e-12
0.00840003
5.09472e-12
0.00840003
1.045e-11
0.00840003
2.33681e-11
0.00840003
4.54882e-11
0.00840003
1.01113e-10
0.00840003
1.88452e-10
0.00840003
4.42585e-10
0.00840003
7.58931e-10
0.00840003
2.00067e-09
0.00840004
3.06427e-09
0.00840005
9.1974e-09
0.00840009
1.24301e-08
0.00840012
4.3335e-08
0.00840031
5.1978e-08
0.00840041
2.03491e-07
0.00840138
2.61773e-07
0.00840128
9.13483e-07
0.00841001
1.12562e-06
0.00840574
5.48202e-06
0.00846251
4.84911e-06
3.45848e-05
0.00844091
0.00840003
1.71003e-14
0.00840003
1.1117e-13
0.00840003
3.34856e-13
0.00840003
8.92241e-13
0.00840003
1.93459e-12
0.00840003
4.34848e-12
0.00840003
8.63402e-12
0.00840003
1.85432e-11
0.00840003
3.51639e-11
0.00840003
7.69332e-11
0.00840003
1.36145e-10
0.00840003
3.26513e-10
0.00840003
5.14275e-10
0.00840003
1.43063e-09
0.00840004
2.01406e-09
0.00840004
6.67241e-09
0.00840008
8.49867e-09
0.00840009
3.45595e-08
0.00840025
3.78676e-08
0.00840033
1.72017e-07
0.00840108
2.13732e-07
0.00840168
7.29125e-07
0.00840234
9.38762e-07
0.00841007
4.65072e-06
3.97362e-06
0.00840827
0.00840003
7.12153e-15
0.00840003
4.02867e-14
0.00840003
1.35737e-13
0.00840003
3.28537e-13
0.00840003
7.75099e-13
0.00840003
1.59126e-12
0.00840003
3.40171e-12
0.00840003
6.59617e-12
0.00840003
1.37568e-11
0.00840003
2.54925e-11
0.00840003
5.51952e-11
0.00840003
9.43119e-11
0.00840003
2.27572e-10
0.00840003
3.45761e-10
0.00840003
9.65417e-10
0.00840004
1.39279e-09
0.00840004
4.37365e-09
0.00840007
5.48187e-09
0.00840008
2.62785e-08
0.00840023
2.50573e-08
0.00840028
1.52361e-07
0.00840081
2.00515e-07
0.00840131
6.15393e-07
0.00840133
7.66273e-07
4.17912e-06
0.00840826
0.00840003
2.44721e-15
0.00840003
1.58774e-14
0.00840003
4.83218e-14
0.00840003
1.27579e-13
0.00840003
2.77667e-13
0.00840003
6.1182e-13
0.00840003
1.21378e-12
0.00840003
2.52188e-12
0.00840003
4.7807e-12
0.00840003
9.92051e-12
0.00840003
1.77796e-11
0.00840003
3.92755e-11
0.00840003
6.3581e-11
0.00840003
1.6e-10
0.00840003
2.21641e-10
0.00840003
6.53557e-10
0.00840004
7.96988e-10
0.00840004
2.76198e-09
0.00840006
2.43183e-09
0.00840006
1.80813e-08
0.0084002
1.59049e-08
0.00840026
1.30689e-07
0.0084007
1.86756e-07
0.00840062
5.25291e-07
5.95809e-07
0.00840552
0.00840003
9.26939e-16
0.00840003
5.47235e-15
0.00840003
1.80077e-14
0.00840003
4.46042e-14
0.00840003
1.02702e-13
0.00840003
2.13608e-13
0.00840003
4.43761e-13
0.00840003
8.65759e-13
0.00840003
1.74558e-12
0.00840003
3.26712e-12
0.00840003
6.68969e-12
0.00840003
1.20269e-11
0.00840003
2.53228e-11
0.00840003
4.23538e-11
0.00840003
9.25632e-11
0.00840003
1.3497e-10
0.00840003
3.83695e-10
0.00840003
5.34765e-10
0.00840003
1.82582e-09
0.00840006
2.90733e-09
0.00840005
1.14314e-08
0.00840017
1.40047e-08
0.00840038
9.24993e-08
0.00840017
1.90347e-07
4.26723e-07
0.00840248
0.00840003
3.45156e-16
0.00840003
2.04556e-15
0.00840003
6.59748e-15
0.00840003
1.6502e-14
0.00840003
3.71922e-14
0.00840003
7.79114e-14
0.00840003
1.57469e-13
0.00840003
3.08776e-13
0.00840003
5.96014e-13
0.00840003
1.11162e-12
0.00840003
2.17328e-12
0.00840003
3.60544e-12
0.00840003
8.299e-12
0.00840003
1.25502e-11
0.00840003
4.17223e-11
0.00840003
6.97315e-11
0.00840003
2.21323e-10
0.00840003
4.21325e-10
0.00840003
1.15473e-09
0.00840003
2.28118e-09
0.00840003
6.30234e-09
0.00840003
1.21344e-08
0.00840009
3.36095e-08
0.00840019
6.75564e-08
1.92377e-07
0.00840046
0.00840003
1.32164e-16
0.00840003
7.85288e-16
0.00840003
2.56869e-15
0.00840003
6.38671e-15
0.00840003
1.46878e-14
0.00840003
3.08008e-14
0.00840003
6.44454e-14
0.00840003
1.27285e-13
0.00840003
2.60823e-13
0.00840003
5.03369e-13
0.00840003
1.05631e-12
0.00840003
2.03468e-12
0.00840003
4.5468e-12
0.00840003
8.95573e-12
0.00840003
2.17545e-11
0.00840003
4.52564e-11
0.00840003
1.16229e-10
0.00840003
2.50742e-10
0.00840003
6.4267e-10
0.00840003
1.37235e-09
0.00840003
3.4859e-09
0.00840004
7.04561e-09
0.00840005
1.86659e-08
0.00840008
3.34906e-08
1.00734e-07
0.00840015
0.00840003
5.72459e-17
0.00840003
3.20599e-16
0.00840003
1.06745e-15
0.00840003
2.64871e-15
0.00840003
6.2192e-15
0.00840003
1.31792e-14
0.00840003
2.84979e-14
0.00840003
5.76034e-14
0.00840003
1.22837e-13
0.00840003
2.46263e-13
0.00840003
5.25127e-13
0.00840003
1.06576e-12
0.00840003
2.2683e-12
0.00840003
4.67406e-12
0.00840003
1.00498e-11
0.00840003
2.07933e-11
0.00840003
4.54378e-11
0.00840003
8.90956e-11
0.00840003
2.14067e-10
0.00840003
3.62e-10
0.00840003
1.02979e-09
0.00840004
1.64935e-09
0.00840005
4.89219e-09
0.00840009
9.79174e-09
2.21525e-08
0.00840012
0.00840003
2.07625e-17
0.00840003
1.27665e-16
0.00840003
4.20399e-16
0.00840003
1.03216e-15
0.00840003
2.4574e-15
0.00840003
5.09992e-15
0.00840003
1.12274e-14
0.00840003
2.20829e-14
0.00840003
4.89544e-14
0.00840003
9.2773e-14
0.00840003
2.25234e-13
0.00840003
4.10257e-13
0.00840003
1.10688e-12
0.00840003
1.97601e-12
0.00840003
5.4528e-12
0.00840003
9.6407e-12
0.00840003
2.65262e-11
0.00840003
4.52464e-11
0.00840003
1.26532e-10
0.00840003
2.07267e-10
0.00840003
6.02261e-10
0.00840003
8.81985e-10
0.00840003
2.86703e-09
0.00840004
3.8548e-09
1.43609e-08
0.00840005
0.00840003
5.9089e-18
0.00840003
4.21755e-17
0.00840003
1.34387e-16
0.00840003
3.59467e-16
0.00840003
7.83987e-16
0.00840003
1.77411e-15
0.00840003
3.48614e-15
0.00840003
7.56695e-15
0.00840003
1.40573e-14
0.00840003
3.16668e-14
0.00840003
5.38638e-14
0.00840003
1.37281e-13
0.00840003
2.099e-13
0.00840003
6.40894e-13
0.00840003
9.11557e-13
0.00840003
3.21213e-12
0.00840003
4.30303e-12
0.00840003
1.6957e-11
0.00840003
2.22301e-11
0.00840003
8.69188e-11
0.00840003
1.06276e-10
0.00840003
4.60884e-10
0.00840003
5.59211e-10
0.00840004
2.34598e-09
2.24045e-09
0.00840005
0.00840003
0.00840003
0.00840003
0.00840003
0.00840003
0.00840003
0.00840003
0.00840003
0.00840003
0.00840003
0.00840003
0.00840003
0.00840003
0.00840003
0.00840003
0.00840003
0.00840003
0.00840003
0.00840003
0.00840003
0.00840003
0.00840003
0.00840003
0.00840004
0.00840003
0.00547462
0.00367311
0.00383592
0.00163729
0.0029388
0.00089523
0.00239899
0.000537599
0.00207457
0.000322231
0.0018883
0.000185107
0.00179046
9.67042e-05
0.00176887
2.10265e-05
0.00181305
-4.46879e-05
0.00205178
-0.000236929
0.00220297
-0.000149568
0.00229304
-9.05565e-05
0.00232471
-3.29511e-05
0.00232727
-3.13115e-06
0.00231923
8.15738e-06
0.00231494
4.29791e-06
0.00232263
-6.22799e-06
0.00234338
-1.83503e-05
0.00237181
-2.59877e-05
0.00240287
-2.81618e-05
0.00243402
-2.80819e-05
0.00246445
-2.76361e-05
0.0024936
-2.73656e-05
0.00252132
-2.72221e-05
0.00254721
-2.6957e-05
0.00257078
-2.64057e-05
0.00259145
-2.55089e-05
0.00260914
-2.43366e-05
0.00262424
-2.27535e-05
0.00263672
-2.11276e-05
0.00264527
-1.93824e-05
0.00265123
-1.75675e-05
0.00265461
-1.5899e-05
0.00265514
-1.43805e-05
0.0026526
-1.28995e-05
0.00264685
-1.15658e-05
0.00263808
-1.03445e-05
0.00262676
-9.24299e-06
0.00261347
-8.31161e-06
0.00259877
-7.56991e-06
0.00258337
-7.00716e-06
0.00256825
-6.61532e-06
0.00255459
-6.3841e-06
0.00254339
-6.30001e-06
0.00253528
-6.35929e-06
0.00253046
-6.52335e-06
0.00252819
-6.8125e-06
0.00252752
-7.20288e-06
0.00252879
-7.58808e-06
0.00253296
-7.97533e-06
0.00253957
-8.48841e-06
0.00254793
-9.01683e-06
0.00255762
-9.54243e-06
0.00256834
-1.01139e-05
0.00257948
-1.08679e-05
0.00259137
-1.16816e-05
0.00260378
-1.51983e-05
0.00261678
-2.08461e-05
0.00263174
-2.79292e-05
0.00265448
-4.0325e-05
0.00268874
-6.5464e-05
0.0027586
-0.000124338
0.00290574
-0.000255861
0.00323225
-0.00054147
0.00385252
-0.00105142
0.00458042
-0.00144213
0.00520405
-0.00133737
0.00564622
-0.00100916
0.00593393