/*--------------------------------*- C++ -*----------------------------------*\
  =========                 |
  \\      /  F ield         | OpenFOAM: The Open Source CFD Toolbox
   \\    /   O peration     | Website:  https://openfoam.org
    \\  /    A nd           | Version:  6
     \\/     M anipulation  |
\*---------------------------------------------------------------------------*/
FoamFile
{
    version     2.0;
    format      ascii;
    class       volScalarField;
    location    "1.5";
    object      T;
}
// * * * * * * * * * * * * * * * * * * * * * * * * * * * * * * * * * * * * * //

dimensions      [0 0 0 1 0 0 0];

internalField   nonuniform List<scalar> 
5250
(
1.00004
1.00008
1.00027
1.00053
1.00157
1.00307
1.0088
1.01866
1.04772
1.11977
1.29468
1.80374
2.76704
3.01043
2.87019
2.78587
2.72174
2.72451
2.74063
2.74648
2.77304
2.81537
2.8216
2.81156
2.88849
1.00004
1.00008
1.00026
1.00052
1.00156
1.00303
1.00871
1.01844
1.04725
1.11852
1.29174
1.79906
2.76215
3.01129
2.86294
2.78266
2.71984
2.7232
2.73982
2.74525
2.77031
2.8125
2.81895
2.80855
2.88462
1.00003
1.00008
1.00026
1.00051
1.00152
1.00296
1.00851
1.01797
1.04623
1.11573
1.28509
1.78718
2.74834
3.0127
2.8497
2.77997
2.71736
2.72148
2.73845
2.74358
2.76738
2.80996
2.81691
2.80575
2.87625
1.00003
1.00008
1.00025
1.00049
1.00146
1.00284
1.00819
1.01722
1.04462
1.11117
1.27439
1.76469
2.72094
3.01208
2.83485
2.78161
2.71224
2.71661
2.73403
2.73934
2.76177
2.80544
2.81291
2.80207
2.87125
1.00003
1.00007
1.00023
1.00046
1.00138
1.00267
1.00775
1.01619
1.04233
1.10495
1.25908
1.73021
2.6703
3.00736
2.8237
2.77926
2.70753
2.7121
2.72871
2.73353
2.75363
2.79631
2.80589
2.79318
2.85869
1.00003
1.00007
1.00022
1.00043
1.00128
1.00247
1.00719
1.01491
1.03925
1.09731
1.23796
1.68276
2.5873
2.99904
2.81197
2.77517
2.7044
2.70765
2.72214
2.72644
2.74266
2.78574
2.79377
2.78303
2.84484
1.00003
1.00006
1.0002
1.0004
1.00117
1.00226
1.00654
1.01349
1.03546
1.08813
1.21175
1.61305
2.47196
2.98514
2.80507
2.77123
2.70207
2.7023
2.71549
2.71867
2.72966
2.76746
2.78046
2.76451
2.82311
1.00003
1.00006
1.00019
1.00037
1.00107
1.00205
1.0059
1.01205
1.03143
1.0782
1.18189
1.53031
2.32168
2.95476
2.79737
2.7651
2.70062
2.69592
2.70782
2.70797
2.71268
2.74533
2.75763
2.74345
2.78863
1.00002
1.00006
1.00017
1.00034
1.00099
1.00188
1.00541
1.01077
1.02842
1.06774
1.15579
1.44526
2.15706
2.87675
2.77829
2.75099
2.69946
2.68954
2.70027
2.69731
2.69584
2.71303
2.72353
2.69892
2.73129
1.00002
1.00005
1.00016
1.00032
1.00092
1.00175
1.00501
1.00984
1.02631
1.06017
1.1413
1.38425
2.02319
2.74563
2.77302
2.7518
2.6967
2.67526
2.6828
2.68068
2.67187
2.68161
2.67966
2.64185
2.61054
1.00002
1.00005
1.00015
1.0003
1.00086
1.00162
1.00465
1.00905
1.02437
1.05475
1.12939
1.34642
1.9246
2.68339
2.77535
2.74873
2.68121
2.65677
2.6611
2.65916
2.64289
2.63541
2.62044
2.54621
2.43781
1.00002
1.00005
1.00014
1.00027
1.00079
1.00149
1.00428
1.00829
1.02248
1.04975
1.11865
1.31279
1.8337
2.61814
2.75114
2.71688
2.67368
2.64444
2.63774
2.62883
2.60448
2.5863
2.55387
2.47707
2.33874
1.00002
1.00004
1.00013
1.00025
1.00071
1.00134
1.00386
1.00745
1.0202
1.04496
1.105
1.28474
1.71696
2.52926
2.72309
2.6676
2.65832
2.63598
2.62685
2.6104
2.57275
2.53363
2.49469
2.43549
2.32087
1.00002
1.00004
1.00011
1.00022
1.00063
1.00118
1.00342
1.00654
1.01795
1.03948
1.09208
1.25389
1.60829
2.40799
2.67379
2.66238
2.63604
2.61576
2.60525
2.59062
2.55852
2.50421
2.44924
2.40062
2.31125
1.00001
1.00003
1.00009
1.00018
1.00054
1.00101
1.00293
1.00557
1.01528
1.03353
1.07828
1.21796
1.49961
2.25032
2.60245
2.64799
2.62321
2.6024
2.58393
2.56391
2.53158
2.49257
2.4261
2.38336
2.31389
1.00001
1.00003
1.00008
1.00015
1.00044
1.00083
1.00242
1.00455
1.01271
1.02699
1.06455
1.17359
1.39658
2.06913
2.49987
2.62289
2.60738
2.5891
2.5683
2.54565
2.50472
2.46824
2.40824
2.35568
2.30737
1.00001
1.00002
1.00006
1.00012
1.00035
1.00065
1.00191
1.00353
1.01011
1.02025
1.05106
1.12616
1.2922
1.72593
2.38511
2.55753
2.56048
2.55393
2.53983
2.52553
2.49197
2.45649
2.40399
2.34545
2.29417
1.00001
1.00002
1.00005
1.00009
1.00027
1.00051
1.0015
1.00276
1.00806
1.01556
1.04127
1.09677
1.22508
1.60061
2.32799
2.52221
2.52508
2.51749
2.50103
2.48931
2.46485
2.433
2.39493
2.34279
2.29062
1.00001
1.00001
1.00004
1.00007
1.00021
1.00039
1.00115
1.00211
1.00605
1.01201
1.03032
1.07702
1.16676
1.49136
2.17534
2.445
2.50593
2.4897
2.47942
2.45973
2.44322
2.41059
2.37644
2.33382
2.28545
1
1.00001
1.00003
1.00006
1.00016
1.0003
1.00087
1.00159
1.0047
1.00881
1.02442
1.05337
1.12673
1.33514
1.87996
2.32574
2.47216
2.46704
2.45338
2.43314
2.41819
2.39303
2.36252
2.32757
2.28349
1
1.00001
1.00002
1.00004
1.00012
1.00022
1.00064
1.00116
1.00345
1.00638
1.01817
1.03716
1.09484
1.22609
1.62511
2.15747
2.42142
2.44025
2.42551
2.40863
2.38593
2.36609
2.33737
2.30836
2.27604
1
1
1.00001
1.00003
1.00008
1.00015
1.00045
1.00082
1.00245
1.00448
1.01258
1.02646
1.06441
1.17081
1.38986
1.95198
2.31193
2.40754
2.40591
2.39266
2.37022
2.35054
2.32694
2.29758
2.2658
1
1
1.00001
1.00002
1.00006
1.00011
1.00031
1.00056
1.00168
1.00303
1.00887
1.01711
1.04501
1.1027
1.24808
1.59333
2.14839
2.33176
2.35804
2.35488
2.34326
2.32237
2.30406
2.2841
2.25822
1
1
1.00001
1.00001
1.00004
1.00007
1.00021
1.00037
1.0011
1.00199
1.00561
1.0113
1.02809
1.07293
1.15727
1.45843
2.03059
2.25989
2.32788
2.32904
2.31968
2.30267
2.28145
2.26159
2.2387
1
1
1
1.00001
1.00003
1.00005
1.00014
1.00025
1.00074
1.00132
1.00398
1.00724
1.02065
1.04328
1.1076
1.26458
1.73284
2.11225
2.2785
2.2964
2.29131
2.28263
2.26439
2.24704
2.22656
1
1
1
1.00001
1.00001
1.00004
1.00007
1.00019
1.00035
1.00101
1.0019
1.00494
1.01111
1.02581
1.07174
1.15148
1.45091
1.99072
2.20487
2.2598
2.25951
2.25003
2.2405
2.22203
2.21
1
1
1
1
1.00001
1.00002
1.00004
1.00013
1.00023
1.00071
1.00122
1.00381
1.00667
1.01961
1.03947
1.1
1.23801
1.65483
2.0543
2.22426
2.23139
2.22689
2.21438
2.19554
2.17788
1
1
1
1
1.00001
1.00002
1.00003
1.00008
1.00014
1.00044
1.00075
1.00232
1.00408
1.01168
1.02371
1.06305
1.1471
1.37747
1.7875
2.13178
2.20868
2.2102
2.20218
2.1881
2.16873
1
1
1
1
1
1.00001
1.00002
1.00005
1.00009
1.00026
1.00045
1.00139
1.00237
1.00734
1.01317
1.03737
1.08095
1.1988
1.47663
1.98049
2.13876
2.16289
2.16605
2.16176
2.15172
1
1
1
1
1
1
1.00001
1.00002
1.00006
1.00011
1.00033
1.00058
1.00177
1.00311
1.00901
1.01809
1.04631
1.11097
1.27086
1.60957
2.01306
2.14329
2.14412
2.14233
2.13053
1
1
1
1
1
1
1.00001
1.00002
1.00003
1.00008
1.00015
1.00045
1.00076
1.0024
1.00412
1.0126
1.02369
1.0665
1.13975
1.41057
1.7267
2.04976
2.12306
2.12422
2.1202
1
1
1
1
1
1
1
1.00001
1.00002
1.00005
1.00008
1.00024
1.00041
1.0013
1.00214
1.00673
1.01191
1.03437
1.07318
1.18146
1.4282
1.86727
2.04435
2.09251
2.09833
1
1
1
1
1
1
1
1
1.00001
1.00002
1.00004
1.00013
1.00021
1.00068
1.00111
1.0035
1.006
1.01758
1.03603
1.09034
1.21674
1.56
1.85941
2.0403
2.06954
1
1
1
1
1
1
1
1
1
1.00001
1.00002
1.00006
1.00011
1.00034
1.00054
1.00177
1.00287
1.00917
1.01637
1.04717
1.10353
1.25224
1.57632
1.88278
2.01937
1
1
1
1
1
1
1
1
1
1.00001
1.00001
1.00002
1.00004
1.00009
1.00024
1.00032
1.00128
1.00186
1.00748
1.015
1.05163
1.12154
1.34078
1.73652
1.90015
1
1
1
1
1
1
1
1
1
1
1
1.00001
1.00002
1.00004
1.00008
1.00022
1.00037
1.00145
1.00144
1.00834
1.01153
1.05755
1.13156
1.37622
1.7627
1
1
1
1
1
1
1
1
1
1
1
1
1.00001
1.00002
1.00004
1.00008
1.00022
1.00035
1.00151
1.00138
1.00904
1.01074
1.0596
1.14349
1.39048
1
1
1
1
1
1
1
1
1
1
1
1
1
1.00001
1.00002
1.00007
1.00011
1.00039
1.00062
1.00215
1.00366
1.0121
1.02342
1.06964
1.14561
1
1
1
1
1
1
1
1
1
1
1
1
1
1
1.00001
1.00002
1.00006
1.00011
1.00029
1.00061
1.0016
1.00431
1.00939
1.02689
1.06706
1
1
1
1
1
1
1
1
1
1
1
1
1
1
1
1.00001
1.00002
1.00004
1.00011
1.00018
1.00091
1.0006
1.00448
1.00821
1.02708
1
1
1
1
1
1
1
1
1
1
1
1
1
1
1
1
1.00001
1.00002
1.00003
1.00011
1.00016
1.00084
1.00054
1.00428
1.00763
1
1
1
1
1
1
1
1
1
1
1
1
1
1
1
1
1
1
1.00002
1.00002
1.00012
1.00015
1.00083
1.00043
1.00412
1
1
1
1
1
1
1
1
1
1
1
1
1
1
1
1
1
1
1
1.00002
1.00002
1.00012
1.00014
1.00083
1.00039
1
1
1
1
1
1
1
1
1
1
1
1
1
1
1
1
1
1
1
1
1.00002
1.00002
1.00011
1.00014
1.00078
1
1
1
1
1
1
1
1
1
1
1
1
1
1
1
1
1
1
1
1
1.00001
1.00002
1.00003
1.0001
1.00017
1
1
1
1
1
1
1
1
1
1
1
1
1
1
1
1
1
1
1
1
1
1.00001
1.00001
1.00005
1.00008
1
1
1
1
1
1
1
1
1
1
1
1
1
1
1
1
1
1
1
1
1
1
1.00001
1.00001
1.00003
1
1
1
1
1
1
1
1
1
1
1
1
1
1
1
1
1
1
1
1
1
1
1
1.00001
1.00001
1
1
1
1
1
1
1
1
1
1
1
1
1
1
1
1
1
1
1
1
1
1
1
1
1
1
1
1
1
1
1
1
1
1
1
1
1
1
1
1
1
1
1
1
1
1
1
1
1
1
2.30432
2.14418
2.04134
1.9752
1.97071
1.9994
2.08087
2.13933
2.25647
2.35416
2.42786
2.4603
2.46821
2.46732
2.46522
2.46454
2.4631
2.45995
2.45667
2.45331
2.44738
2.44045
2.43331
2.42664
2.42075
2.41609
2.41273
2.41085
2.41039
2.4107
2.41234
2.41508
2.41793
2.42152
2.42633
2.43258
2.44031
2.4493
2.45927
2.47001
2.48127
2.49252
2.50296
2.51169
2.51799
2.52164
2.52296
2.52298
2.52244
2.52064
2.51644
2.51067
2.50364
2.49627
2.48782
2.48007
2.47127
2.46812
2.46396
2.46491
2.47032
2.48721
2.52899
2.61183
2.73606
2.90977
3.0567
3.16991
3.21923
3.21866
3.21189
3.20096
3.18789
3.16589
3.14941
3.12984
3.11571
3.1009
3.09193
3.08213
3.07456
3.06937
3.06119
3.05673
3.04763
3.04278
3.03275
3.02683
3.01492
3.00749
2.99375
2.98567
2.96933
2.96092
2.94335
2.93434
2.91581
2.90776
2.89093
2.89012
2.21661
2.10058
2.02972
1.98572
1.97413
1.97982
1.99329
1.98792
1.96949
1.95115
1.94417
1.95336
1.96746
1.98717
2.00302
2.01418
2.01707
2.01683
2.0142
2.01105
2.00772
2.00439
2.00095
1.99755
1.99381
1.98984
1.98589
1.98234
1.97922
1.97699
1.97557
1.97466
1.97424
1.97433
1.97494
1.97655
1.97902
1.98195
1.98508
1.98823
1.9915
1.99513
1.99925
2.00382
2.0087
2.01373
2.01853
2.0227
2.02597
2.02829
2.02962
2.03005
2.02999
2.02956
2.02825
2.02668
2.02669
2.02734
2.02975
2.03534
2.04997
2.08305
2.14644
2.2336
2.31476
2.34487
2.38921
2.45018
2.51831
2.57558
2.59919
2.58258
2.57454
2.56296
2.54398
2.52295
2.5068
2.49144
2.47752
2.46697
2.45848
2.4509
2.44439
2.4387
2.43311
2.42746
2.42187
2.4162
2.41078
2.40563
2.40096
2.39676
2.39323
2.39046
2.38892
2.38847
2.38874
2.39048
2.39254
2.40999
2.22552
2.13275
2.05774
1.99908
1.94888
1.90007
1.84924
1.80679
1.7722
1.74897
1.74098
1.74388
1.75284
1.76742
1.78751
1.80296
1.8142
1.82014
1.82326
1.82384
1.82362
1.82317
1.82223
1.8203
1.81827
1.81596
1.81352
1.81108
1.80877
1.80651
1.80457
1.80297
1.80158
1.8004
1.79962
1.79942
1.79955
1.80019
1.80174
1.80368
1.80558
1.80748
1.80953
1.81182
1.81436
1.81715
1.82011
1.82313
1.82598
1.82851
1.83049
1.83176
1.8324
1.83273
1.83336
1.83526
1.83744
1.84122
1.849
1.86784
1.90728
1.98132
2.07849
2.1409
2.14462
2.13789
2.13535
2.14842
2.1751
2.21448
2.26648
2.3156
2.34949
2.3576
2.34963
2.33992
2.32568
2.30694
2.28866
2.27368
2.26032
2.2477
2.23749
2.22717
2.21717
2.20722
2.19733
2.1877
2.17894
2.17094
2.16361
2.15745
2.15304
2.15043
2.14936
2.14948
2.15036
2.1542
2.15774
2.17839
2.22861
2.14864
2.0742
2.00798
1.94863
1.89359
1.84305
1.79772
1.76159
1.73251
1.71422
1.69948
1.69439
1.69163
1.69318
1.69758
1.70606
1.71267
1.71968
1.72416
1.72817
1.72911
1.72857
1.72742
1.7246
1.72166
1.71862
1.71569
1.71284
1.71013
1.7076
1.70541
1.7036
1.70217
1.70117
1.70066
1.7006
1.70083
1.70165
1.70332
1.70525
1.70736
1.70957
1.71185
1.71415
1.71656
1.71902
1.72153
1.72387
1.72597
1.72765
1.72888
1.72976
1.73086
1.73371
1.73737
1.74085
1.75059
1.77366
1.82089
1.90541
2.00845
2.05753
2.05389
2.04196
2.02065
2.00582
1.9943
1.99306
2.00366
2.0254
2.05787
2.1037
2.15646
2.20479
2.23829
2.23159
2.22902
2.22101
2.20153
2.18012
2.16387
2.14743
2.12994
2.11516
2.10205
2.08956
2.07859
2.06879
2.05987
2.05274
2.04663
2.042
2.03765
2.03531
2.03284
2.03221
2.03269
2.03377
2.04762
2.24015
2.16681
2.09675
2.03062
1.96691
1.91218
1.86184
1.81712
1.77744
1.74122
1.71162
1.68333
1.66426
1.64757
1.63968
1.63474
1.63568
1.63837
1.64341
1.6491
1.6537
1.65736
1.65995
1.66093
1.66064
1.65942
1.65828
1.65552
1.65275
1.6501
1.64759
1.64519
1.64308
1.64144
1.64041
1.63998
1.63993
1.64008
1.64066
1.64188
1.64335
1.64496
1.64671
1.64855
1.65045
1.65242
1.65449
1.65667
1.65888
1.66097
1.6629
1.66473
1.66684
1.66988
1.67585
1.68118
1.69383
1.72278
1.78052
1.87069
1.97874
2.015
2.01075
1.99969
1.98045
1.95945
1.94065
1.92041
1.90951
1.90213
1.90407
1.91399
1.93517
1.96544
2.00907
2.06003
2.1199
2.16277
2.18301
2.1751
2.16241
2.14512
2.12327
2.10008
2.08404
2.06664
2.05183
2.04006
2.02813
2.02001
2.01023
2.00368
1.99646
1.9926
1.98638
1.98314
1.97724
1.97513
1.97066
1.97747
2.24621
2.18567
2.12322
2.06414
2.00503
1.94956
1.89805
1.84985
1.80674
1.76612
1.73087
1.69843
1.67087
1.64739
1.62769
1.61381
1.60322
1.5971
1.59536
1.59435
1.59471
1.59622
1.59788
1.60088
1.60251
1.6042
1.60405
1.60332
1.60193
1.59898
1.59654
1.59429
1.59216
1.59036
1.58912
1.58859
1.58858
1.58881
1.58954
1.59102
1.59275
1.59468
1.5967
1.59873
1.60071
1.60264
1.60454
1.60643
1.60823
1.60987
1.61166
1.61475
1.61771
1.6241
1.63065
1.64784
1.68097
1.75663
1.8486
1.95723
1.98366
1.97803
1.97139
1.95725
1.94178
1.92175
1.90453
1.88475
1.87026
1.85626
1.8489
1.84462
1.84686
1.85373
1.8716
1.89901
1.93997
1.9832
2.0471
2.09815
2.14333
2.13103
2.12346
2.11291
2.0895
2.06585
2.04758
2.03161
2.0148
2.00341
1.99055
1.98356
1.97292
1.96778
1.95888
1.9544
1.94513
1.94103
1.93169
1.93441
2.24242
2.19047
2.13821
2.08691
2.03616
1.98583
1.93682
1.88975
1.8449
1.80319
1.76419
1.72885
1.69605
1.66666
1.64029
1.61825
1.59807
1.58425
1.57077
1.56463
1.55746
1.55661
1.55473
1.55448
1.55486
1.55586
1.55636
1.55747
1.55735
1.5568
1.55636
1.55455
1.55348
1.55271
1.55229
1.55232
1.55274
1.55386
1.5555
1.55738
1.5594
1.56154
1.56371
1.56591
1.56807
1.57014
1.57211
1.574
1.57594
1.57757
1.58144
1.58513
1.58985
1.60023
1.61886
1.66297
1.74381
1.8516
1.95295
1.97897
1.97161
1.96368
1.95473
1.9398
1.92462
1.90609
1.88959
1.87019
1.8539
1.83605
1.82345
1.8101
1.80243
1.79693
1.79754
1.8019
1.81342
1.83792
1.87258
1.91216
1.97686
2.03561
2.09708
2.10402
2.0967
2.08154
2.06135
2.03896
2.0143
1.99818
1.98008
1.96971
1.95428
1.94697
1.93405
1.92767
1.91417
1.90816
1.89476
1.89452
2.24126
2.19242
2.14616
2.1006
2.05712
2.01311
1.97045
1.92732
1.88599
1.84532
1.80672
1.77036
1.73565
1.70422
1.67407
1.64706
1.6222
1.59985
1.58066
1.56408
1.55119
1.54062
1.53448
1.52854
1.52725
1.5245
1.52261
1.52262
1.52281
1.52381
1.52451
1.52525
1.52728
1.52728
1.52792
1.52932
1.53077
1.53205
1.53353
1.535
1.53657
1.53823
1.53993
1.54173
1.54354
1.54543
1.54715
1.54958
1.55155
1.55621
1.56186
1.56674
1.57925
1.60268
1.65648
1.74793
1.86375
1.94528
1.97477
1.96873
1.96358
1.95454
1.94546
1.93005
1.91518
1.89728
1.88024
1.86095
1.84302
1.82389
1.80624
1.78796
1.77322
1.75817
1.74902
1.74138
1.74277
1.74836
1.75968
1.78289
1.81679
1.85301
1.91083
1.96731
2.0357
2.07029
2.05137
2.03486
2.02151
1.99587
1.96927
1.95182
1.93122
1.9207
1.90266
1.89459
1.8795
1.8732
1.85918
1.85945
2.23702
2.19143
2.1488
2.10717
2.06845
2.02991
1.99296
1.95547
1.91873
1.88211
1.84599
1.81107
1.77673
1.74434
1.71265
1.68348
1.65501
1.62967
1.60536
1.58423
1.56529
1.549
1.53581
1.52459
1.51576
1.50971
1.50566
1.50253
1.50038
1.50079
1.50177
1.50433
1.50675
1.50885
1.51299
1.51385
1.51551
1.51699
1.51808
1.51867
1.51924
1.51967
1.52031
1.52088
1.52208
1.523
1.52504
1.52752
1.53093
1.53845
1.5443
1.55941
1.58747
1.65238
1.75328
1.87781
1.94197
1.97197
1.96722
1.96166
1.95714
1.94753
1.93562
1.91957
1.90411
1.88591
1.86776
1.84743
1.82748
1.80564
1.78519
1.7645
1.74605
1.72972
1.71672
1.70764
1.70332
1.70359
1.70682
1.71373
1.72296
1.73797
1.76144
1.78867
1.83206
1.87472
1.94355
1.99807
1.98084
1.97143
1.95402
1.9333
1.91024
1.88874
1.86753
1.85806
1.84107
1.83403
1.82268
1.8254
2.23941
2.19327
2.15114
2.11138
2.0746
2.03944
2.00621
1.97366
1.94136
1.90928
1.87678
1.84475
1.81243
1.78097
1.74977
1.71986
1.69087
1.66352
1.63764
1.61348
1.59114
1.57041
1.55197
1.53517
1.52166
1.50943
1.50087
1.49449
1.49097
1.48999
1.48994
1.49038
1.49292
1.49524
1.50005
1.50177
1.50562
1.50591
1.50639
1.50683
1.50695
1.50682
1.50658
1.5066
1.50679
1.50757
1.50993
1.51286
1.51954
1.52655
1.54247
1.57594
1.64689
1.75917
1.88816
1.93709
1.96263
1.95722
1.95548
1.95098
1.94456
1.93276
1.92052
1.90438
1.88785
1.86881
1.8492
1.82774
1.80569
1.78323
1.76245
1.74239
1.72569
1.71027
1.69884
1.68979
1.6829
1.67779
1.67298
1.67169
1.66839
1.67042
1.67155
1.67555
1.68577
1.70514
1.73597
1.76838
1.83452
1.89381
1.91868
1.9021
1.88279
1.87367
1.8555
1.8352
1.81695
1.8102
1.79761
1.80097
2.23706
2.19632
2.15528
2.11656
2.08064
2.04716
2.01566
1.98614
1.95728
1.92911
1.90042
1.87175
1.84247
1.81321
1.78399
1.7549
1.72679
1.69874
1.6725
1.64627
1.62208
1.59844
1.57657
1.55645
1.53817
1.52265
1.50981
1.49945
1.49222
1.48708
1.48471
1.48405
1.48411
1.48412
1.48583
1.48696
1.48948
1.49023
1.49213
1.492
1.49171
1.49156
1.49163
1.49159
1.49192
1.49336
1.49639
1.50266
1.50977
1.52989
1.56413
1.65115
1.75938
1.89263
1.93492
1.95458
1.94909
1.94693
1.94339
1.93511
1.92645
1.91298
1.89894
1.8815
1.86435
1.8452
1.82512
1.80304
1.78142
1.7604
1.74142
1.72444
1.70943
1.69681
1.68525
1.67524
1.66553
1.65703
1.64816
1.64004
1.63043
1.62413
1.61388
1.60993
1.60486
1.60523
1.6094
1.62195
1.64733
1.67601
1.7329
1.795
1.85948
1.84041
1.83318
1.82521
1.8109
1.79688
1.78196
1.7854
2.23066
2.194
2.15614
2.11841
2.08276
2.05026
2.01955
1.99159
1.96464
1.93958
1.91434
1.88953
1.86392
1.83793
1.81144
1.78447
1.75768
1.73056
1.70425
1.67781
1.65274
1.62796
1.60494
1.58309
1.56301
1.54521
1.52915
1.51584
1.50478
1.49561
1.48886
1.48344
1.48007
1.47759
1.47661
1.47422
1.47421
1.47443
1.47539
1.4757
1.4766
1.47711
1.47715
1.47766
1.47927
1.48167
1.48588
1.496
1.51399
1.55594
1.64443
1.77041
1.89643
1.92794
1.94294
1.93723
1.93414
1.92919
1.92269
1.91119
1.89939
1.88405
1.86934
1.85256
1.83579
1.81686
1.79732
1.77743
1.75846
1.7404
1.72444
1.70901
1.69555
1.68207
1.66985
1.65831
1.6468
1.63652
1.62494
1.61467
1.60264
1.59167
1.57908
1.56983
1.55798
1.55246
1.54604
1.54511
1.5479
1.55654
1.5761
1.60235
1.64841
1.71017
1.78857
1.80185
1.79188
1.78148
1.77434
1.77714
2.22773
2.19287
2.15752
2.1218
2.08589
2.05322
2.02266
1.99514
1.969
1.94524
1.92201
1.90006
1.87751
1.85525
1.83178
1.80798
1.78335
1.75805
1.73288
1.70712
1.6824
1.65763
1.63454
1.61202
1.5915
1.5721
1.55451
1.53859
1.52407
1.51144
1.50036
1.4906
1.48259
1.47572
1.47028
1.46666
1.46385
1.46097
1.46003
1.4604
1.46096
1.46217
1.46347
1.46593
1.46792
1.47322
1.48255
1.50601
1.55003
1.65854
1.77757
1.89286
1.92305
1.93081
1.92706
1.92059
1.91477
1.90474
1.89479
1.88147
1.8683
1.85296
1.83847
1.82277
1.80746
1.79102
1.77428
1.75727
1.74073
1.72504
1.70975
1.69519
1.68068
1.66685
1.65322
1.64047
1.62788
1.61638
1.60398
1.59285
1.57963
1.56823
1.55515
1.54361
1.53132
1.52189
1.51012
1.50503
1.49709
1.49593
1.49682
1.50136
1.51316
1.53671
1.57563
1.6279
1.71466
1.75805
1.75573
1.75931
2.2151
2.18869
2.15647
2.12434
2.0921
2.05964
2.02904
2.00087
1.97507
1.95121
1.92909
1.90805
1.88768
1.86746
1.84677
1.82563
1.80342
1.7808
1.75722
1.73346
1.70969
1.68576
1.66314
1.64049
1.6197
1.59946
1.58062
1.56288
1.54589
1.5303
1.51513
1.50173
1.48927
1.47838
1.46936
1.46174
1.45609
1.45269
1.45009
1.44871
1.44842
1.44971
1.45155
1.45532
1.46118
1.47229
1.49714
1.54701
1.66158
1.78452
1.88389
1.91842
1.91829
1.91438
1.90671
1.89688
1.88702
1.8753
1.86421
1.85068
1.83795
1.82452
1.81245
1.79956
1.78615
1.77146
1.75608
1.74084
1.72513
1.70973
1.69376
1.67818
1.66224
1.64735
1.63236
1.61914
1.60532
1.59331
1.57988
1.56835
1.55514
1.54439
1.53152
1.52141
1.50919
1.49883
1.48736
1.47767
1.46612
1.45931
1.45016
1.44653
1.44486
1.44756
1.45481
1.47211
1.50656
1.55283
1.65138
1.687
2.20218
2.17671
2.15074
2.12172
2.09277
2.06405
2.0354
2.00825
1.98296
1.95987
1.93856
1.91895
1.90016
1.88196
1.86361
1.84471
1.82496
1.80418
1.78253
1.76017
1.7373
1.71454
1.69174
1.66955
1.64804
1.62678
1.60694
1.58693
1.56826
1.54998
1.53233
1.51616
1.50041
1.48687
1.47441
1.46411
1.45575
1.44887
1.44464
1.44203
1.44131
1.44146
1.44359
1.44892
1.46134
1.48855
1.54268
1.66088
1.78869
1.8781
1.90802
1.90388
1.89999
1.89156
1.88303
1.87071
1.85914
1.84752
1.83717
1.82568
1.81505
1.80419
1.79341
1.78155
1.76836
1.75432
1.73888
1.7234
1.70658
1.69046
1.67322
1.65705
1.64
1.62461
1.60869
1.59506
1.58063
1.56876
1.55556
1.54517
1.53288
1.52326
1.51134
1.5018
1.48958
1.47983
1.46701
1.45665
1.4436
1.43318
1.42039
1.41213
1.40197
1.39764
1.39542
1.39709
1.40333
1.41703
1.45696
1.4792
2.19233
2.16978
2.14572
2.11997
2.09227
2.06576
2.04
2.01442
1.99058
1.96806
1.94804
1.92917
1.9123
1.89548
1.87927
1.86221
1.84451
1.82543
1.80545
1.78428
1.7626
1.74031
1.71799
1.69569
1.67341
1.65182
1.63004
1.6093
1.58879
1.56871
1.55043
1.53132
1.5158
1.49858
1.48602
1.47188
1.46211
1.4524
1.44511
1.44089
1.43958
1.43991
1.44409
1.45603
1.48574
1.5408
1.65806
1.7905
1.87147
1.89635
1.89075
1.887
1.87949
1.8711
1.85832
1.84478
1.83383
1.82276
1.81309
1.8028
1.79362
1.784
1.77382
1.7618
1.74768
1.7324
1.71584
1.69978
1.68287
1.66669
1.64911
1.63236
1.6146
1.59889
1.58282
1.56961
1.55573
1.54487
1.53256
1.52316
1.5116
1.50283
1.49147
1.48254
1.47087
1.46103
1.44845
1.43756
1.42395
1.41259
1.39888
1.38823
1.37554
1.36772
1.35723
1.35401
1.35079
1.35301
1.35841
1.36562
2.16455
2.1499
2.13137
2.11217
2.08969
2.06503
2.04137
2.01845
1.99621
1.97554
1.95604
1.93874
1.92198
1.90712
1.89144
1.87639
1.85982
1.84276
1.82382
1.80414
1.78301
1.76129
1.73906
1.71638
1.69397
1.67121
1.64927
1.62707
1.60615
1.58506
1.56608
1.54616
1.5303
1.51156
1.49893
1.48264
1.47184
1.45982
1.45095
1.44589
1.44605
1.44902
1.45965
1.48828
1.54671
1.66128
1.79018
1.87202
1.88907
1.88109
1.87553
1.86625
1.85649
1.84443
1.83259
1.81963
1.80836
1.79685
1.78746
1.77787
1.76968
1.76038
1.74979
1.73688
1.72219
1.7066
1.69026
1.67439
1.65766
1.64151
1.62417
1.60782
1.59087
1.57599
1.56081
1.54839
1.53514
1.52493
1.51317
1.50447
1.49346
1.48531
1.47427
1.4657
1.4539
1.4441
1.43118
1.42012
1.40632
1.39469
1.38075
1.36962
1.3566
1.34716
1.3358
1.32944
1.32003
1.31802
1.31421
1.31559
2.15
2.13201
2.11267
2.0929
2.0742
2.0557
2.0359
2.01575
1.99591
1.97667
1.95884
1.94245
1.92727
1.91276
1.8991
1.88463
1.86987
1.85378
1.83668
1.81779
1.79776
1.77645
1.75406
1.73161
1.70814
1.68548
1.66259
1.64012
1.61932
1.59702
1.57941
1.5578
1.54281
1.52389
1.5094
1.49505
1.48045
1.4704
1.4598
1.45956
1.46159
1.4719
1.49939
1.57254
1.67921
1.79223
1.87195
1.88899
1.87754
1.86707
1.85327
1.83761
1.82584
1.81467
1.80304
1.79031
1.7794
1.76801
1.75936
1.75048
1.74297
1.73362
1.72313
1.71034
1.69608
1.68093
1.66509
1.64955
1.63323
1.61773
1.60129
1.58615
1.57039
1.55633
1.54179
1.52957
1.51664
1.50655
1.49491
1.48622
1.47524
1.46709
1.45609
1.4475
1.43572
1.42602
1.41314
1.40228
1.38854
1.37706
1.3632
1.35216
1.33913
1.32956
1.31804
1.31062
1.30048
1.29557
1.28655
1.28616
2.13698
2.12154
2.10404
2.08505
2.06452
2.04383
2.02374
2.0047
1.98666
1.9704
1.95449
1.93949
1.92579
1.91247
1.89954
1.88662
1.87269
1.8578
1.84142
1.82395
1.80497
1.78426
1.76356
1.73993
1.71924
1.69378
1.67405
1.64902
1.62996
1.60779
1.58861
1.57063
1.55137
1.53676
1.51947
1.50526
1.4933
1.48019
1.47914
1.48073
1.49068
1.52191
1.58681
1.71743
1.82828
1.87866
1.89226
1.88239
1.86361
1.84507
1.82734
1.81286
1.79868
1.78475
1.77302
1.76159
1.7518
1.74127
1.73323
1.72444
1.71657
1.70674
1.69612
1.68378
1.67052
1.65637
1.64122
1.62598
1.60992
1.59496
1.57925
1.56516
1.55007
1.53678
1.52255
1.51056
1.49743
1.487
1.47501
1.46616
1.45503
1.44695
1.4359
1.42749
1.41575
1.40621
1.39335
1.38267
1.36895
1.35786
1.34416
1.33367
1.32094
1.31198
1.30066
1.29353
1.28335
1.27784
1.26837
1.2665
2.11521
2.099
2.08481
2.06968
2.05443
2.03639
2.01782
1.99897
1.98029
1.96135
1.94461
1.92947
1.9159
1.90429
1.89347
1.8824
1.87023
1.85645
1.8416
1.82436
1.80698
1.78767
1.76712
1.74672
1.7237
1.70373
1.67953
1.66047
1.63744
1.61847
1.59907
1.57963
1.56407
1.5457
1.53123
1.51787
1.50413
1.5027
1.50469
1.51539
1.54877
1.61799
1.75305
1.87651
1.90287
1.89743
1.88757
1.87335
1.84724
1.82675
1.808
1.79122
1.77639
1.76278
1.75002
1.73701
1.72608
1.71554
1.7071
1.69737
1.68808
1.67737
1.66637
1.65456
1.64178
1.62843
1.61384
1.59961
1.58449
1.57067
1.55573
1.54254
1.52805
1.51557
1.5016
1.48996
1.47673
1.46652
1.4545
1.44588
1.43482
1.42711
1.41618
1.40804
1.39623
1.38685
1.37388
1.36339
1.34966
1.33893
1.32528
1.3153
1.30265
1.29409
1.2828
1.27581
1.26551
1.25969
1.25
1.24729
2.10606
2.08551
2.06645
2.04942
2.03432
2.02014
2.0055
1.99041
1.97484
1.95818
1.94129
1.92476
1.90967
1.89591
1.88314
1.87239
1.86146
1.84998
1.83718
1.82252
1.80644
1.78779
1.76989
1.74805
1.72938
1.70627
1.68729
1.66545
1.64585
1.62712
1.60702
1.59112
1.57272
1.55714
1.5441
1.52968
1.52879
1.5313
1.54381
1.58221
1.65722
1.79049
1.91649
1.93716
1.91869
1.89716
1.88222
1.86037
1.83595
1.81228
1.79068
1.77391
1.75874
1.74383
1.72942
1.71562
1.70338
1.69139
1.68073
1.66948
1.65898
1.64765
1.63638
1.62504
1.61301
1.6012
1.58798
1.57542
1.56098
1.54798
1.53318
1.52063
1.50646
1.49465
1.48123
1.4703
1.45766
1.44804
1.4364
1.42822
1.41737
1.40982
1.39872
1.39052
1.37847
1.36905
1.35599
1.34562
1.33207
1.32159
1.3083
1.29867
1.28633
1.27813
1.26705
1.26021
1.24994
1.24403
1.23426
1.23128
2.09505
2.08172
2.06098
2.04081
2.02196
2.00531
1.98975
1.9754
1.96147
1.94918
1.93568
1.92144
1.90646
1.89313
1.87982
1.86761
1.85674
1.84623
1.83416
1.82101
1.80516
1.78905
1.76996
1.75155
1.7307
1.71077
1.69076
1.6699
1.65211
1.6318
1.61561
1.59802
1.58155
1.56936
1.55528
1.55551
1.55882
1.57566
1.61387
1.70966
1.82883
1.9403
1.96523
1.94868
1.9193
1.89289
1.8681
1.84597
1.8225
1.80004
1.7783
1.75912
1.74113
1.72516
1.71022
1.69606
1.68308
1.67072
1.65912
1.64673
1.63476
1.62263
1.61114
1.59982
1.58814
1.57685
1.56428
1.55229
1.53836
1.5258
1.51121
1.49905
1.48502
1.47379
1.46083
1.45061
1.43866
1.42963
1.41854
1.41051
1.39962
1.39171
1.38031
1.37176
1.35956
1.35013
1.3373
1.32729
1.3143
1.30432
1.29173
1.28254
1.2708
1.26289
1.25205
1.24528
1.23493
1.22891
1.21903
1.21585
2.07427
2.06935
2.05729
2.03723
2.0169
1.99744
1.9794
1.9626
1.94731
1.93315
1.92073
1.91003
1.8991
1.8877
1.876
1.86493
1.85358
1.84213
1.83154
1.81897
1.80487
1.78877
1.77118
1.7535
1.73307
1.7151
1.69342
1.67598
1.65575
1.63802
1.62157
1.6037
1.5916
1.57965
1.58004
1.58641
1.6108
1.64904
1.78148
1.89343
1.96213
1.97443
1.9671
1.9486
1.91274
1.88023
1.85368
1.83249
1.81146
1.79032
1.76873
1.74823
1.72828
1.7101
1.69336
1.67888
1.66599
1.65338
1.64087
1.62792
1.61535
1.60244
1.58988
1.57756
1.56539
1.55357
1.54068
1.52826
1.51412
1.50142
1.48712
1.47534
1.46192
1.45128
1.43893
1.42929
1.41793
1.40921
1.39836
1.39014
1.37921
1.37103
1.3596
1.35106
1.33911
1.33006
1.31775
1.30839
1.29601
1.28677
1.27478
1.26622
1.25492
1.24743
1.23675
1.23027
1.21988
1.21412
1.20419
1.20122
2.04716
2.05395
2.04813
2.03559
2.01571
1.99565
1.9759
1.95713
1.93905
1.9229
1.90725
1.89431
1.88267
1.8733
1.86547
1.85698
1.84827
1.83771
1.82654
1.8143
1.80256
1.78733
1.77237
1.75362
1.73709
1.71746
1.69904
1.68075
1.66122
1.64539
1.62684
1.61391
1.60375
1.60494
1.61312
1.64126
1.69225
1.83021
1.97067
2.00886
1.99725
1.97625
1.96251
1.93599
1.9017
1.86967
1.84266
1.8208
1.80058
1.78108
1.76
1.73844
1.71711
1.69728
1.67939
1.66312
1.64862
1.63499
1.62265
1.61043
1.59836
1.58586
1.57335
1.56047
1.54718
1.53382
1.51966
1.50612
1.49151
1.47865
1.46448
1.45275
1.4395
1.42911
1.41714
1.40791
1.39691
1.38838
1.3777
1.3695
1.35864
1.35045
1.33915
1.33086
1.31923
1.31076
1.29895
1.29036
1.27852
1.27004
1.25844
1.25048
1.23934
1.23221
1.22149
1.21516
1.20462
1.19895
1.18891
1.18599
2.00322
2.02068
2.0255
2.02191
2.01206
1.99393
1.97477
1.95623
1.93777
1.92039
1.90365
1.88855
1.87429
1.8621
1.85146
1.8433
1.83552
1.8289
1.81952
1.80982
1.79708
1.78464
1.76993
1.75412
1.7379
1.71953
1.70326
1.68409
1.66813
1.65056
1.6369
1.62897
1.6309
1.64204
1.6727
1.74177
1.86943
2.02861
2.05674
2.04097
2.00408
1.97325
1.9477
1.92215
1.89224
1.86188
1.83408
1.81148
1.79128
1.77168
1.75078
1.7295
1.70848
1.68848
1.66991
1.65243
1.63652
1.62153
1.60836
1.59579
1.58429
1.57241
1.55986
1.54637
1.53195
1.5173
1.50202
1.48765
1.47249
1.45926
1.44481
1.4331
1.41989
1.40968
1.39767
1.38846
1.37734
1.36874
1.35796
1.34964
1.33878
1.33073
1.31977
1.31206
1.30107
1.29351
1.28242
1.27479
1.26355
1.25581
1.24461
1.23707
1.22612
1.21911
1.20845
1.20207
1.19156
1.18583
1.17584
1.17286
1.91063
1.9814
1.99493
1.99397
1.99051
1.98414
1.97057
1.95424
1.93736
1.92071
1.9046
1.8889
1.87445
1.86077
1.84817
1.83659
1.82662
1.81818
1.81031
1.80259
1.79228
1.78165
1.76761
1.754
1.73733
1.72184
1.70471
1.68806
1.67333
1.65851
1.65434
1.65674
1.673
1.71435
1.79021
1.93574
2.05708
2.08738
2.07109
2.04362
1.99971
1.96251
1.93507
1.91118
1.88417
1.85602
1.82834
1.80424
1.78202
1.76178
1.74172
1.72211
1.70224
1.68244
1.66319
1.6446
1.62775
1.61217
1.59838
1.58508
1.5724
1.55922
1.54579
1.53175
1.51676
1.50162
1.48567
1.47068
1.45504
1.44156
1.4269
1.41507
1.40162
1.39123
1.37885
1.36943
1.35785
1.34891
1.33778
1.32926
1.31852
1.31062
1.30022
1.29294
1.28272
1.27578
1.26552
1.25857
1.24814
1.24107
1.23055
1.2235
1.21303
1.20626
1.19588
1.18961
1.17925
1.17362
1.16371
1.16082
1.76747
1.91185
1.97072
1.97375
1.97069
1.96258
1.95681
1.94579
1.93346
1.91955
1.90524
1.8907
1.87656
1.86243
1.8491
1.83655
1.82539
1.81412
1.80453
1.79527
1.78638
1.77651
1.76514
1.75279
1.73716
1.72367
1.70626
1.69389
1.68022
1.67883
1.68444
1.70493
1.76297
1.8496
2.01837
2.09886
2.10102
2.08659
2.06963
2.03316
1.98918
1.95242
1.92387
1.90016
1.87589
1.85071
1.8242
1.79896
1.77496
1.75354
1.73329
1.714
1.69487
1.67575
1.65708
1.63873
1.62174
1.60525
1.59012
1.57513
1.56088
1.54638
1.53197
1.51714
1.50186
1.48662
1.47054
1.45552
1.43979
1.42622
1.41161
1.39978
1.38623
1.37543
1.36253
1.35238
1.3402
1.33074
1.31939
1.31074
1.30009
1.29227
1.28218
1.27514
1.26543
1.25891
1.24927
1.24285
1.23297
1.22641
1.21625
1.20962
1.19933
1.1929
1.18261
1.1766
1.16629
1.16089
1.15104
1.14834
1.4384
1.66907
1.89376
1.94946
1.95277
1.95029
1.94062
1.9331
1.92119
1.91107
1.90049
1.88899
1.87635
1.86375
1.85095
1.83827
1.8263
1.81429
1.80425
1.79212
1.78334
1.7711
1.76132