/*--------------------------------*- C++ -*----------------------------------*\
  =========                 |
  \\      /  F ield         | OpenFOAM: The Open Source CFD Toolbox
   \\    /   O peration     | Website:  https://openfoam.org
    \\  /    A nd           | Version:  6
     \\/     M anipulation  |
\*---------------------------------------------------------------------------*/
FoamFile
{
    version     2.0;
    format      ascii;
    class       volVectorField;
    location    "1.5";
    object      U;
}
// * * * * * * * * * * * * * * * * * * * * * * * * * * * * * * * * * * * * * //

dimensions      [0 1 -1 0 0 0 0];

internalField   nonuniform List<vector> 
5250
(
(2.99998 6.98847e-08 0)
(2.99993 4.54378e-07 0)
(2.99981 1.40324e-06 0)
(2.99956 3.89615e-06 0)
(2.9989 9.12843e-06 0)
(2.99754 2.26877e-05 0)
(2.99359 4.97636e-05 0)
(2.98591 0.000124151 0)
(2.96128 0.00026288 0)
(2.90786 0.000683571 0)
(2.74784 0.00152817 0)
(2.26006 0.00402294 0)
(1.04756 0.0106703 0)
(0.121848 0.0248231 0)
(0.0462573 0.0253078 0)
(0.206791 0.0230656 0)
(0.393667 0.0244378 0)
(0.453523 0.0266641 0)
(0.403828 0.0294559 0)
(0.307081 0.0317504 0)
(0.22968 0.0351922 0)
(0.176101 0.0402487 0)
(0.128646 0.0460933 0)
(0.0854348 0.0522676 0)
(0.0627929 0.0581882 0)
(2.99998 2.13226e-07 0)
(2.99993 1.39004e-06 0)
(2.99981 4.29053e-06 0)
(2.99957 1.19584e-05 0)
(2.99891 2.8046e-05 0)
(2.99757 7.01612e-05 0)
(2.99366 0.000154111 0)
(2.98608 0.000387936 0)
(2.96171 0.000824025 0)
(2.9089 0.00215964 0)
(2.75036 0.00488722 0)
(2.26754 0.0129543 0)
(1.06152 0.0348208 0)
(0.12937 0.0787109 0)
(0.037108 0.0736738 0)
(0.206364 0.0620935 0)
(0.398482 0.0642596 0)
(0.457039 0.0692126 0)
(0.406199 0.0747569 0)
(0.310188 0.0785558 0)
(0.234502 0.0842749 0)
(0.181004 0.0920147 0)
(0.13169 0.0992001 0)
(0.0847908 0.10432 0)
(0.0600043 0.107092 0)
(2.99998 3.59138e-07 0)
(2.99993 2.35096e-06 0)
(2.99982 7.25246e-06 0)
(2.99958 2.03422e-05 0)
(2.99894 4.78287e-05 0)
(2.99763 0.00012086 0)
(2.99382 0.000266499 0)
(2.98642 0.000678071 0)
(2.96263 0.00145507 0)
(2.91121 0.00382491 0)
(2.75608 0.00882898 0)
(2.28521 0.0235134 0)
(1.09811 0.0643836 0)
(0.151923 0.145848 0)
(0.0265002 0.123572 0)
(0.20605 0.0983773 0)
(0.406584 0.102044 0)
(0.463821 0.113085 0)
(0.411 0.124965 0)
(0.315428 0.134266 0)
(0.242103 0.14552 0)
(0.188709 0.158445 0)
(0.136527 0.169116 0)
(0.0843873 0.175463 0)
(0.0564244 0.177929 0)
(2.99998 4.93237e-07 0)
(2.99993 3.24658e-06 0)
(2.99983 1.00089e-05 0)
(2.9996 2.83009e-05 0)
(2.99898 6.6807e-05 0)
(2.99773 0.000170888 0)
(2.99407 0.000379205 0)
(2.98698 0.000974359 0)
(2.96411 0.00213097 0)
(2.91499 0.00555005 0)
(2.76554 0.0132161 0)
(2.31504 0.034713 0)
(1.16503 0.0966434 0)
(0.190799 0.220959 0)
(0.0106228 0.168744 0)
(0.207795 0.130555 0)
(0.4207 0.136042 0)
(0.47687 0.155367 0)
(0.421548 0.175434 0)
(0.326038 0.192343 0)
(0.25486 0.210348 0)
(0.200997 0.229273 0)
(0.145057 0.244778 0)
(0.0868135 0.254727 0)
(0.0540104 0.260118 0)
(2.99998 5.91791e-07 0)
(2.99994 3.92614e-06 0)
(2.99983 1.2094e-05 0)
(2.99962 3.45597e-05 0)
(2.99904 8.20226e-05 0)
(2.99786 0.000212994 0)
(2.99441 0.000477001 0)
(2.98775 0.00124143 0)
(2.96614 0.00278191 0)
(2.92037 0.00717855 0)
(2.7787 0.0177934 0)
(2.35749 0.0455203 0)
(1.2676 0.128645 0)
(0.244487 0.299471 0)
(-0.00760828 0.210133 0)
(0.214913 0.159837 0)
(0.441608 0.168896 0)
(0.497452 0.197702 0)
(0.438925 0.226151 0)
(0.34287 0.251094 0)
(0.272593 0.276083 0)
(0.21768 0.301427 0)
(0.158118 0.322507 0)
(0.0943233 0.337058 0)
(0.0549234 0.346901 0)
(2.99998 6.26258e-07 0)
(2.99994 4.19796e-06 0)
(2.99985 1.29218e-05 0)
(2.99964 3.74634e-05 0)
(2.99911 8.94627e-05 0)
(2.99801 0.000237033 0)
(2.99483 0.000536927 0)
(2.98872 0.00142623 0)
(2.96867 0.00324751 0)
(2.92742 0.0085115 0)
(2.79534 0.0216429 0)
(2.41287 0.0558845 0)
(1.40908 0.156025 0)
(0.314215 0.376762 0)
(-0.0239377 0.248756 0)
(0.229042 0.188947 0)
(0.471737 0.20471 0)
(0.526483 0.243023 0)
(0.463298 0.27898 0)
(0.366018 0.311601 0)
(0.295925 0.344047 0)
(0.239499 0.376752 0)
(0.175875 0.404774 0)
(0.10571 0.42517 0)
(0.0581506 0.439954 0)
(2.99998 5.91466e-07 0)
(2.99995 3.99629e-06 0)
(2.99986 1.22922e-05 0)
(2.99967 3.60845e-05 0)
(2.99918 8.63719e-05 0)
(2.99817 0.000233726 0)
(2.99528 0.000532958 0)
(2.9898 0.0014662 0)
(2.97159 0.00329995 0)
(2.93563 0.00917917 0)
(2.81569 0.0234096 0)
(2.47961 0.0632439 0)
(1.58499 0.173597 0)
(0.401452 0.444546 0)
(-0.0308646 0.28509 0)
(0.25285 0.224727 0)
(0.511046 0.248588 0)
(0.562388 0.294001 0)
(0.493562 0.335285 0)
(0.395623 0.374926 0)
(0.325855 0.415379 0)
(0.268152 0.456633 0)
(0.200559 0.493809 0)
(0.12326 0.523576 0)
(0.064794 0.546533 0)
(2.99998 5.27388e-07 0)
(2.99995 3.54376e-06 0)
(2.99987 1.09069e-05 0)
(2.99969 3.18338e-05 0)
(2.99924 7.55862e-05 0)
(2.99833 0.000204748 0)
(2.99573 0.000461151 0)
(2.99082 0.00131776 0)
(2.97463 0.00280731 0)
(2.94409 0.00879747 0)
(2.8379 0.0212669 0)
(2.55382 0.0638076 0)
(1.79121 0.172638 0)
(0.510462 0.480285 0)
(-0.018387 0.319175 0)
(0.286127 0.274219 0)
(0.555459 0.304371 0)
(0.60086 0.351652 0)
(0.527474 0.395234 0)
(0.431572 0.440887 0)
(0.36358 0.49002 0)
(0.305925 0.541191 0)
(0.236435 0.59101 0)
(0.152233 0.636945 0)
(0.0784604 0.677125 0)
(2.99998 4.8776e-07 0)
(2.99995 3.22177e-06 0)
(2.99987 9.95245e-06 0)
(2.99971 2.83616e-05 0)
(2.9993 6.65866e-05 0)
(2.99845 0.000174423 0)
(2.9961 0.000383556 0)
(2.99158 0.0010743 0)
(2.97739 0.00218233 0)
(2.95087 0.0071768 0)
(2.85955 0.0158102 0)
(2.62532 0.053093 0)
(1.99868 0.140737 0)
(0.643827 0.429137 0)
(0.0171077 0.338288 0)
(0.324943 0.333635 0)
(0.596231 0.370071 0)
(0.635888 0.414106 0)
(0.562786 0.457195 0)
(0.474012 0.508117 0)
(0.410827 0.56687 0)
(0.356314 0.62818 0)
(0.291211 0.695867 0)
(0.205618 0.770998 0)
(0.109364 0.855089 0)
(2.99999 4.8991e-07 0)
(2.99996 3.19141e-06 0)
(2.99988 9.89816e-06 0)
(2.99973 2.76252e-05 0)
(2.99934 6.45367e-05 0)
(2.99855 0.000162528 0)
(2.99639 0.000353615 0)
(2.99218 0.000922141 0)
(2.97937 0.00189388 0)
(2.95527 0.00559555 0)
(2.87483 0.0117616 0)
(2.67349 0.038754 0)
(2.14278 0.0977329 0)
(0.773969 0.305431 0)
(0.0720781 0.360161 0)
(0.371152 0.406473 0)
(0.631433 0.441218 0)
(0.66552 0.47684 0)
(0.599263 0.517888 0)
(0.524212 0.574185 0)
(0.468613 0.640252 0)
(0.423844 0.713882 0)
(0.378717 0.806596 0)
(0.31417 0.930039 0)
(0.188304 1.13283 0)
(2.99999 5.22781e-07 0)
(2.99996 3.37763e-06 0)
(2.99989 1.04977e-05 0)
(2.99975 2.89393e-05 0)
(2.99939 6.74087e-05 0)
(2.99865 0.000165823 0)
(2.99666 0.000360082 0)
(2.99274 0.000898014 0)
(2.98102 0.00187414 0)
(2.95892 0.00510273 0)
(2.88607 0.0106335 0)
(2.70599 0.0324331 0)
(2.22979 0.0770058 0)
(0.92543 0.230495 0)
(0.176695 0.402696 0)
(0.4226 0.486103 0)
(0.653594 0.504388 0)
(0.687564 0.53069 0)
(0.637026 0.572147 0)
(0.57965 0.632704 0)
(0.537978 0.703876 0)
(0.516295 0.790593 0)
(0.516855 0.905613 0)
(0.557668 1.05718 0)
(0.61428 1.27986 0)
(2.99999 5.82016e-07 0)
(2.99996 3.74958e-06 0)
(2.9999 1.16675e-05 0)
(2.99977 3.20265e-05 0)
(2.99944 7.46268e-05 0)
(2.99876 0.000181832 0)
(2.99693 0.000396464 0)
(2.99332 0.000965674 0)
(2.98263 0.00205339 0)
(2.96239 0.00524632 0)
(2.89647 0.0113824 0)
(2.73497 0.0316876 0)
(2.30723 0.0750301 0)
(1.09742 0.216194 0)
(0.327613 0.435401 0)
(0.475454 0.546067 0)
(0.659096 0.550899 0)
(0.706823 0.571913 0)
(0.677159 0.616059 0)
(0.639164 0.677883 0)
(0.61707 0.753494 0)
(0.625858 0.848169 0)
(0.66885 0.967323 0)
(0.774772 1.10805 0)
(0.939354 1.26017 0)
(2.99999 6.46819e-07 0)
(2.99997 4.16466e-06 0)
(2.99991 1.29629e-05 0)
(2.99979 3.55527e-05 0)
(2.99949 8.28489e-05 0)
(2.99888 0.000201456 0)
(2.99724 0.000439571 0)
(2.99399 0.00106442 0)
(2.98433 0.00227503 0)
(2.96651 0.00566855 0)
(2.90699 0.0126744 0)
(2.7643 0.0327765 0)
(2.38218 0.0812942 0)
(1.27149 0.220273 0)
(0.497102 0.47124 0)
(0.533259 0.578917 0)
(0.659506 0.587823 0)
(0.725382 0.606085 0)
(0.717922 0.649955 0)
(0.700026 0.710694 0)
(0.700554 0.787081 0)
(0.733421 0.879243 0)
(0.800974 0.983883 0)
(0.922217 1.09467 0)
(1.09802 1.18035 0)
(2.99999 7.01653e-07 0)
(2.99997 4.5172e-06 0)
(2.99992 1.40607e-05 0)
(2.99982 3.85609e-05 0)
(2.99955 8.98771e-05 0)
(2.99901 0.000218476 0)
(2.99757 0.000476771 0)
(2.99471 0.00115296 0)
(2.98619 0.0024641 0)
(2.97084 0.00618646 0)
(2.91793 0.0134699 0)
(2.79754 0.0353969 0)
(2.46135 0.0884751 0)
(1.45782 0.238683 0)
(0.670718 0.526605 0)
(0.588113 0.5979 0)
(0.673027 0.616931 0)
(0.746033 0.631057 0)
(0.758723 0.672534 0)
(0.759887 0.73162 0)
(0.778555 0.803711 0)
(0.825568 0.884753 0)
(0.902984 0.969392 0)
(1.02095 1.05122 0)
(1.17987 1.1063 0)
(2.99999 7.39331e-07 0)
(2.99997 4.76251e-06 0)
(2.99993 1.48259e-05 0)
(2.99984 4.07075e-05 0)
(2.99962 9.49623e-05 0)
(2.99916 0.000231285 0)
(2.99792 0.000504906 0)
(2.9955 0.00122468 0)
(2.98823 0.00260674 0)
(2.97542 0.00667936 0)
(2.93012 0.0138878 0)
(2.83254 0.0391667 0)
(2.54879 0.0912776 0)
(1.68106 0.262178 0)
(0.858712 0.590184 0)
(0.641227 0.618394 0)
(0.696334 0.634012 0)
(0.769448 0.644172 0)
(0.802304 0.683512 0)
(0.818066 0.740103 0)
(0.847383 0.805102 0)
(0.900813 0.873859 0)
(0.979743 0.941482 0)
(1.08914 1.00231 0)
(1.22805 1.04173 0)
(2.99999 7.36694e-07 0)
(2.99998 4.7509e-06 0)
(2.99994 1.47876e-05 0)
(2.99987 4.06869e-05 0)
(2.99969 9.49754e-05 0)
(2.99931 0.000232296 0)
(2.9983 0.00050682 0)
(2.9963 0.00124033 0)
(2.99043 0.0026226 0)
(2.97995 0.00691043 0)
(2.94377 0.0138702 0)
(2.86745 0.0413661 0)
(2.64385 0.0933456 0)
(1.95055 0.277803 0)
(1.06643 0.661179 0)
(0.708798 0.661908 0)
(0.740904 0.66291 0)
(0.809976 0.661358 0)
(0.855365 0.691328 0)
(0.878456 0.741244 0)
(0.910581 0.798011 0)
(0.963925 0.855904 0)
(1.03917 0.910672 0)
(1.13763 0.957549 0)
(1.2583 0.987869 0)
(2.99999 6.66368e-07 0)
(2.99998 4.29235e-06 0)
(2.99996 1.33578e-05 0)
(2.9999 3.66725e-05 0)
(2.99975 8.55507e-05 0)
(2.99945 0.000208328 0)
(2.99866 0.000454429 0)
(2.9971 0.00110222 0)
(2.99264 0.00233463 0)
(2.98449 0.00604246 0)
(2.95778 0.0120913 0)
(2.90394 0.0348532 0)
(2.74391 0.0804763 0)
(2.27109 0.225831 0)
(1.38274 0.581099 0)
(0.863681 0.674392 0)
(0.835858 0.694538 0)
(0.876564 0.693253 0)
(0.924505 0.706256 0)
(0.948556 0.74413 0)
(0.976528 0.791181 0)
(1.02363 0.83901 0)
(1.09081 0.883442 0)
(1.17724 0.920713 0)
(1.28096 0.945435 0)
(3 5.6284e-07 0)
(2.99999 3.61893e-06 0)
(2.99996 1.12632e-05 0)
(2.99992 3.0812e-05 0)
(2.99981 7.1842e-05 0)
(2.99957 0.000173566 0)
(2.99895 0.000379262 0)
(2.99772 0.000903165 0)
(2.99427 0.00193073 0)
(2.9878 0.00471926 0)
(2.96705 0.00991883 0)
(2.92816 0.0252381 0)
(2.79815 0.0587435 0)
(2.44945 0.151451 0)
(1.67826 0.393254 0)
(0.976171 0.690746 0)
(0.900323 0.730301 0)
(0.926726 0.739914 0)
(0.979193 0.739141 0)
(1.01448 0.760068 0)
(1.04145 0.793854 0)
(1.08136 0.830249 0)
(1.1391 0.864508 0)
(1.21354 0.893333 0)
(1.30213 0.913112 0)
(3 4.6764e-07 0)
(2.99999 3.00492e-06 0)
(2.99997 9.35539e-06 0)
(2.99994 2.5568e-05 0)
(2.99985 5.96085e-05 0)
(2.99967 0.00014373 0)
(2.9992 0.00031387 0)
(2.99827 0.000745427 0)
(2.99561 0.00158949 0)
(2.9909 0.00389297 0)
(2.97439 0.00801085 0)
(2.94664 0.0215193 0)
(2.84398 0.0452122 0)
(2.58468 0.134645 0)
(1.97056 0.321517 0)
(1.14509 0.743146 0)
(0.944701 0.777456 0)
(0.9595 0.78794 0)
(1.01183 0.779421 0)
(1.06167 0.782214 0)
(1.09535 0.802588 0)
(1.13262 0.828688 0)
(1.18291 0.853925 0)
(1.24715 0.875264 0)
(1.323 0.890017 0)
(3 3.80121e-07 0)
(2.99999 2.44034e-06 0)
(2.99998 7.59688e-06 0)
(2.99995 2.07348e-05 0)
(2.99989 4.82875e-05 0)
(2.99975 0.000116224 0)
(2.9994 0.000252918 0)
(2.99868 0.000600751 0)
(2.99672 0.00126919 0)
(2.99295 0.0031701 0)
(2.9814 0.00619761 0)
(2.96034 0.0181894 0)
(2.88939 0.0349033 0)
(2.71611 0.11363 0)
(2.28279 0.262998 0)
(1.40276 0.694865 0)
(1.03675 0.792555 0)
(1.014 0.811637 0)
(1.0473 0.810078 0)
(1.10189 0.803736 0)
(1.14496 0.813255 0)
(1.18158 0.83078 0)
(1.22547 0.84882 0)
(1.28041 0.863999 0)
(1.34525 0.874359 0)
(3 3.04788e-07 0)
(2.99999 1.95985e-06 0)
(2.99999 6.09857e-06 0)
(2.99997 1.66807e-05 0)
(2.99992 3.8905e-05 0)
(2.99982 9.39417e-05 0)
(2.99956 0.000205435 0)
(2.99904 0.000488447 0)
(2.99761 0.00104445 0)
(2.99485 0.00253469 0)
(2.9867 0.0053505 0)
(2.9713 0.0136882 0)
(2.92263 0.0290443 0)
(2.80882 0.0799192 0)
(2.5092 0.1924 0)
(1.69927 0.527081 0)
(1.16685 0.78632 0)
(1.07603 0.822704 0)
(1.08919 0.835448 0)
(1.13776 0.828992 0)
(1.18723 0.827974 0)
(1.22566 0.836902 0)
(1.26532 0.848662 0)
(1.31293 0.858747 0)
(1.36906 0.865462 0)
(3 2.3751e-07 0)
(3 1.52761e-06 0)
(2.99999 4.75283e-06 0)
(2.99998 1.30022e-05 0)
(2.99994 3.03291e-05 0)
(2.99987 7.32318e-05 0)
(2.99969 0.000160176 0)
(2.99932 0.000380462 0)
(2.99831 0.000813146 0)
(2.9964 0.0019669 0)
(2.99056 0.00414584 0)
(2.98068 0.0105205 0)
(2.94467 0.0220215 0)
(2.87265 0.0602705 0)
(2.6568 0.139939 0)
(2.01465 0.397422 0)
(1.35904 0.7997 0)
(1.13705 0.854548 0)
(1.12982 0.863709 0)
(1.16518 0.856878 0)
(1.21817 0.846498 0)
(1.26287 0.846071 0)
(1.30196 0.851608 0)
(1.34447 0.857722 0)
(1.39334 0.861569 0)
(3 1.80444e-07 0)
(3 1.16043e-06 0)
(2.99999 3.61127e-06 0)
(2.99998 9.87694e-06 0)
(2.99996 2.30427e-05 0)
(2.99991 5.55916e-05 0)
(2.99978 0.000121649 0)
(2.99953 0.000288219 0)
(2.99885 0.000616575 0)
(2.99752 0.00148364 0)
(2.99374 0.00311485 0)
(2.98655 0.00792061 0)
(2.96469 0.0160509 0)
(2.91917 0.0442972 0)
(2.78772 0.100061 0)
(2.39996 0.281049 0)
(1.70007 0.670802 0)
(1.27375 0.845112 0)
(1.20385 0.872397 0)
(1.21207 0.878111 0)
(1.25329 0.866987 0)
(1.29897 0.858979 0)
(1.33829 0.857872 0)
(1.37712 0.859735 0)
(1.41994 0.861016 0)
(3 1.3091e-07 0)
(3 8.40533e-07 0)
(3 2.61509e-06 0)
(2.99999 7.13099e-06 0)
(2.99997 1.66096e-05 0)
(2.99994 3.98596e-05 0)
(2.99986 8.70117e-05 0)
(2.99969 0.000204533 0)
(2.99924 0.000436642 0)
(2.9984 0.00103679 0)
(2.99586 0.00218182 0)
(2.99169 0.00533613 0)
(2.97586 0.0112151 0)
(2.95082 0.028666 0)
(2.85501 0.0640957 0)
(2.61671 0.175447 0)
(2.06548 0.435229 0)
(1.41508 0.839304 0)
(1.25581 0.895575 0)
(1.2485 0.903784 0)
(1.27823 0.894329 0)
(1.32523 0.879425 0)
(1.36809 0.871254 0)
(1.40681 0.867885 0)
(1.44603 0.865831 0)
(3 8.69997e-08 0)
(3 6.0652e-07 0)
(3 1.78825e-06 0)
(2.99999 5.09863e-06 0)
(2.99998 1.13271e-05 0)
(2.99996 2.84109e-05 0)
(2.9999 5.88308e-05 0)
(2.99979 0.000145597 0)
(2.9995 0.000291167 0)
(2.99891 0.000741444 0)
(2.99728 0.00140855 0)
(2.99423 0.00396417 0)
(2.98476 0.00658688 0)
(2.9676 0.0228337 0)
(2.91084 0.0355637 0)
(2.77625 0.134732 0)
(2.43411 0.277624 0)
(1.70549 0.727746 0)
(1.35983 0.884166 0)
(1.30287 0.910944 0)
(1.31233 0.915723 0)
(1.3508 0.902255 0)
(1.39576 0.887638 0)
(1.43504 0.880007 0)
(1.472 0.874899 0)
(3 5.88748e-08 0)
(3 4.09347e-07 0)
(3 1.20874e-06 0)
(3 3.44176e-06 0)
(2.99999 7.6489e-06 0)
(2.99997 1.91538e-05 0)
(2.99994 3.96791e-05 0)
(2.99986 9.79552e-05 0)
(2.99971 0.000196704 0)
(2.99929 0.000495745 0)
(2.99853 0.000969477 0)
(2.99605 0.00255256 0)
(2.99231 0.00480663 0)
(2.97683 0.0138255 0)
(2.95317 0.0253024 0)
(2.8587 0.0783276 0)
(2.63435 0.175701 0)
(2.1042 0.467432 0)
(1.50568 0.85772 0)
(1.35777 0.920719 0)
(1.34659 0.932872 0)
(1.3689 0.926392 0)
(1.41321 0.908877 0)
(1.45782 0.896037 0)
(1.49512 0.887131 0)
(3 4.29744e-08 0)
(3 2.46172e-07 0)
(3 8.23988e-07 0)
(3 2.09509e-06 0)
(2.99999 5.17293e-06 0)
(2.99998 1.14841e-05 0)
(2.99996 2.66681e-05 0)
(2.99991 5.69493e-05 0)
(2.99981 0.000131572 0)
(2.99953 0.000275394 0)
(2.99899 0.000655768 0)
(2.99747 0.00130718 0)
(2.99465 0.0034775 0)
(2.98593 0.00644134 0)
(2.97005 0.0196911 0)
(2.9189 0.0381496 0)
(2.79759 0.120586 0)
(2.49278 0.287583 0)
(1.81126 0.707167 0)
(1.4634 0.893986 0)
(1.40025 0.932076 0)
(1.40088 0.940797 0)
(1.43253 0.931075 0)
(1.47669 0.913047 0)
(1.51489 0.899888 0)
(3 2.9223e-08 0)
(3 1.67199e-07 0)
(3 5.61613e-07 0)
(3 1.42858e-06 0)
(3 3.54869e-06 0)
(2.99999 7.90251e-06 0)
(2.99998 1.85132e-05 0)
(2.99994 3.98108e-05 0)
(2.99988 9.28365e-05 0)
(2.99971 0.000196888 0)
(2.99938 0.000465086 0)
(2.99845 0.000976643 0)
(2.99677 0.00236945 0)
(2.99136 0.00489363 0)
(2.98256 0.0125582 0)
(2.95037 0.026047 0)
(2.88546 0.0705127 0)
(2.69819 0.165736 0)
(2.16499 0.443377 0)
(1.65738 0.822743 0)
(1.47388 0.919975 0)
(1.44397 0.944166 0)
(1.45427 0.947885 0)
(1.4899 0.93295 0)
(1.53155 0.914083 0)
(3 1.98606e-08 0)
(3 1.07322e-07 0)
(3 3.74749e-07 0)
(3 9.21813e-07 0)
(3 2.36715e-06 0)
(2.99999 5.09842e-06 0)
(2.99999 1.23762e-05 0)
(2.99997 2.56263e-05 0)
(2.99993 6.21632e-05 0)
(2.99983 0.000125879 0)
(2.99963 0.000310511 0)
(2.99909 0.000614577 0)
(2.99807 0.0015732 0)
(2.99506 0.00296832 0)
(2.98975 0.0084359 0)
(2.97198 0.0148542 0)
(2.93998 0.0472871 0)
(2.83446 0.09284 0)
(2.54743 0.288568 0)
(2.00945 0.636037 0)
(1.597 0.901002 0)
(1.50516 0.951447 0)
(1.49172 0.962156 0)
(1.50603 0.956068 0)
(1.54143 0.936488 0)
(3 1.1967e-08 0)
(3 6.84591e-08 0)
(3 2.29543e-07 0)
(3 5.83345e-07 0)
(3 1.44485e-06 0)
(3 3.21214e-06 0)
(2.99999 7.48983e-06 0)
(2.99998 1.60726e-05 0)
(2.99996 3.71973e-05 0)
(2.99991 7.87523e-05 0)
(2.99978 0.00018367 0)
(2.99952 0.000385314 0)
(2.99882 0.000913793 0)
(2.99755 0.0018886 0)
(2.99352 0.00465978 0)
(2.98684 0.00943863 0)
(2.96306 0.0250546 0)
(2.91725 0.0523533 0)
(2.77526 0.144855 0)
(2.39599 0.376027 0)
(1.87847 0.7488 0)
(1.60596 0.913792 0)
(1.54785 0.953768 0)
(1.54043 0.963018 0)
(1.55819 0.955503 0)
(3 6.4076e-09 0)
(3 4.29517e-08 0)
(3 1.29475e-07 0)
(3 3.59984e-07 0)
(3 8.117e-07 0)
(3 1.97318e-06 0)
(3 4.14474e-06 0)
(2.99999 9.85638e-06 0)
(2.99998 2.01504e-05 0)
(2.99994 4.84173e-05 0)
(2.99988 9.72565e-05 0)
(2.99971 0.000238964 0)
(2.99938 0.000472009 0)
(2.99843 0.00120098 0)
(2.99672 0.00228645 0)
(2.99139 0.00631272 0)
(2.98192 0.011455 0)
(2.95087 0.0345356 0)
(2.88626 0.0691116 0)
(2.69709 0.200215 0)
(2.21755 0.493768 0)
(1.79243 0.824349 0)
(1.62454 0.927417 0)
(1.58682 0.956608 0)
(1.58595 0.963097 0)
(3 4.13493e-09 0)
(3 2.36563e-08 0)
(3 7.91694e-08 0)
(3 2.01101e-07 0)
(3 4.96358e-07 0)
(3 1.10107e-06 0)
(3 2.55597e-06 0)
(2.99999 5.46727e-06 0)
(2.99999 1.26131e-05 0)
(2.99997 2.66346e-05 0)
(2.99993 6.21126e-05 0)
(2.99984 0.000130251 0)
(2.99966 0.000309045 0)
(2.99917 0.000643265 0)
(2.99827 0.00156627 0)
(2.99551 0.00322281 0)
(2.99091 0.00818618 0)
(2.97459 0.0169631 0)
(2.94663 0.0446863 0)
(2.85219 0.101149 0)
(2.60064 0.279082 0)
(2.13651 0.618464 0)
(1.75423 0.887081 0)
(1.64826 0.954942 0)
(1.62373 0.971825 0)
(3 2.37673e-09 0)
(3 1.35885e-08 0)
(3 4.54663e-08 0)
(3 1.15353e-07 0)
(3 2.84485e-07 0)
(3 6.30447e-07 0)
(3 1.46078e-06 0)
(3 3.12179e-06 0)
(2.99999 7.17515e-06 0)
(2.99998 1.51382e-05 0)
(2.99997 3.5065e-05 0)
(2.99992 7.34436e-05 0)
(2.99982 0.000172357 0)
(2.99957 0.000357999 0)
(2.9991 0.000858277 0)
(2.99769 0.00174539 0)
(2.99538 0.00439102 0)
(2.98722 0.00871112 0)
(2.97437 0.0236275 0)
(2.92779 0.0479789 0)
(2.82445 0.136793 0)
(2.56647 0.324547 0)
(2.03813 0.708443 0)
(1.75007 0.911362 0)
(1.67234 0.96806 0)
(3 1.34449e-09 0)
(3 7.68763e-09 0)
(3 2.57115e-08 0)
(3 6.52084e-08 0)
(3 1.60778e-07 0)
(3 3.56099e-07 0)
(3 8.2554e-07 0)
(3 1.76337e-06 0)
(3 4.06131e-06 0)
(2.99999 8.57174e-06 0)
(2.99998 1.99258e-05 0)
(2.99996 4.18762e-05 0)
(2.99991 9.82553e-05 0)
(2.99979 0.000207192 0)
(2.99955 0.000488113 0)
(2.99887 0.0010226 0)
(2.99772 0.00247332 0)
(2.99385 0.00500497 0)
(2.98776 0.0128256 0)
(2.9651 0.0258036 0)
(2.92335 0.0671133 0)
(2.79406 0.154252 0)
(2.4405 0.381914 0)
(2.00892 0.73916 0)
(1.77706 0.904888 0)
(3 7.49628e-10 0)
(3 4.18096e-09 0)
(3 1.41928e-08 0)
(3 3.54656e-08 0)
(3 8.82394e-08 0)
(3 1.92659e-07 0)
(3 4.49689e-07 0)
(3 9.46204e-07 0)
(3 2.19329e-06 0)
(3 4.55162e-06 0)
(2.99999 1.0663e-05 0)
(2.99998 2.18783e-05 0)
(2.99997 5.22355e-05 0)
(2.99992 0.000105362 0)
(2.99985 0.000257785 0)
(2.99959 0.000507743 0)
(2.99928 0.00128546 0)
(2.99764 0.00246173 0)
(2.99607 0.00665198 0)
(2.98392 0.0122444 0)
(2.97149 0.0363478 0)
(2.89835 0.0664853 0)
(2.74715 0.206381 0)
(2.41621 0.434977 0)
(1.95268 0.7945 0)
(3 3.8187e-10 0)
(3 2.18623e-09 0)
(3 7.26609e-09 0)
(3 1.83935e-08 0)
(3 4.47411e-08 0)
(3 9.85735e-08 0)
(3 2.23069e-07 0)
(3 4.72396e-07 0)
(3 1.04554e-06 0)
(3 2.18047e-06 0)
(3 4.76333e-06 0)
(2.99999 9.78342e-06 0)
(2.99998 2.148e-05 0)
(2.99997 4.18988e-05 0)
(2.99993 9.78462e-05 0)
(2.99986 0.000173472 0)
(2.99963 0.000454249 0)
(2.99928 0.000775375 0)
(2.99786 0.00241334 0)
(2.99649 0.00385132 0)
(2.98339 0.0153938 0)
(2.97042 0.0268162 0)
(2.88865 0.0914591 0)
(2.7206 0.218061 0)
(2.36857 0.48245 0)
(3 1.6402e-10 0)
(3 1.05149e-09 0)
(3 3.23023e-09 0)
(3 8.65621e-09 0)
(3 1.96299e-08 0)
(3 4.52093e-08 0)
(3 9.46766e-08 0)
(3 2.08816e-07 0)
(3 4.22092e-07 0)
(3 9.22123e-07 0)
(3 1.80303e-06 0)
(3 4.02945e-06 0)
(2.99999 7.3885e-06 0)
(2.99999 1.78767e-05 0)
(2.99997 3.03098e-05 0)
(2.99993 7.88636e-05 0)
(2.99987 0.000136282 0)
(2.99963 0.000361461 0)
(2.99923 0.000611399 0)
(2.9979 0.00194372 0)
(2.99665 0.00262148 0)
(2.98269 0.0144817 0)
(2.97013 0.0216771 0)
(2.88419 0.0954213 0)
(2.70163 0.218035 0)
(3 7.83837e-11 0)
(3 4.43336e-10 0)
(3 1.47583e-09 0)
(3 3.6774e-09 0)
(3 8.82952e-09 0)
(3 1.88814e-08 0)
(3 4.16628e-08 0)
(3 8.41834e-08 0)
(3 1.82395e-07 0)
(3 3.52025e-07 0)
(3 7.8686e-07 0)
(3 1.42626e-06 0)
(3 3.41003e-06 0)
(2.99999 5.79264e-06 0)
(2.99998 1.5234e-05 0)
(2.99996 2.46747e-05 0)
(2.99991 7.22313e-05 0)
(2.99976 0.000120768 0)
(2.99952 0.000355994 0)
(2.99861 0.000646733 0)
(2.99734 0.00193012 0)
(2.99165 0.00253888 0)
(2.98381 0.0151164 0)
(2.95105 0.0211989 0)
(2.88628 0.10132 0)
(3 3.67374e-11 0)
(3 2.10651e-10 0)
(3 6.97907e-10 0)
(3 1.76244e-09 0)
(3 4.24631e-09 0)
(3 9.27461e-09 0)
(3 2.07581e-08 0)
(3 4.34582e-08 0)
(3 9.61005e-08 0)
(3 1.98915e-07 0)
(3 4.43868e-07 0)
(3 9.21579e-07 0)
(3 2.08802e-06 0)
(3 4.37093e-06 0)
(2.99999 1.00935e-05 0)
(2.99998 2.11693e-05 0)
(2.99996 5.01576e-05 0)
(2.99992 0.000103476 0)
(2.99978 0.000257351 0)
(2.99959 0.00050546 0)
(2.99869 0.00137905 0)
(2.99775 0.00261869 0)
(2.99156 0.00763251 0)
(2.98461 0.0148072 0)
(2.95068 0.0415982 0)
(3 1.54052e-11 0)
(3 9.71499e-11 0)
(3 3.02295e-10 0)
(3 8.05013e-10 0)
(3 1.8466e-09 0)
(3 4.25005e-09 0)
(3 9.03763e-09 0)
(3 2.00968e-08 0)
(3 4.17996e-08 0)
(3 9.28599e-08 0)
(3 1.92507e-07 0)
(3 4.31509e-07 0)
(3 8.98273e-07 0)
(3 2.03389e-06 0)
(3 4.23043e-06 0)
(2.99999 9.68174e-06 0)
(2.99999 1.9702e-05 0)
(2.99997 4.65779e-05 0)
(2.99993 8.89294e-05 0)
(2.99981 0.000232428 0)
(2.99965 0.000416626 0)
(2.99876 0.0012547 0)
(2.99797 0.00213449 0)
(2.99152 0.00749381 0)
(2.98478 0.0135354 0)
(3 6.84795e-12 0)
(3 3.95815e-11 0)
(3 1.2994e-10 0)
(3 3.27746e-10 0)
(3 7.81328e-10 0)
(3 1.69453e-09 0)
(3 3.73025e-09 0)
(3 7.70065e-09 0)
(3 1.66608e-08 0)
(3 3.34621e-08 0)
(3 7.40143e-08 0)
(3 1.43049e-07 0)
(3 3.35346e-07 0)
(3 6.18474e-07 0)
(3 1.55991e-06 0)
(3 2.75008e-06 0)
(2.99999 7.58157e-06 0)
(2.99999 1.33054e-05 0)
(2.99997 3.75236e-05 0)
(2.99994 7.27872e-05 0)
(2.99983 0.000188089 0)
(2.99968 0.000331149 0)
(2.99889 0.00113482 0)
(2.99819 0.0018422 0)
(2.99191 0.00727142 0)
(3 2.60437e-12 0)
(3 1.61209e-11 0)
(3 5.02767e-11 0)
(3 1.31347e-10 0)
(3 2.98736e-10 0)
(3 6.66017e-10 0)
(3 1.38847e-09 0)
(3 2.95415e-09 0)
(3 5.91901e-09 0)
(3 1.26099e-08 0)
(3 2.42983e-08 0)
(3 5.41405e-08 0)
(3 9.92598e-08 0)
(3 2.38376e-07 0)
(3 4.22186e-07 0)
(3 1.14201e-06 0)
(3 1.96216e-06 0)
(3 6.07155e-06 0)
(2.99999 1.07005e-05 0)
(2.99997 3.22572e-05 0)
(2.99994 6.50709e-05 0)
(2.99984 0.000164649 0)
(2.99972 0.000290689 0)
(2.99894 0.00098295 0)
(2.99826 0.00161022 0)
(3 1.02887e-12 0)
(3 5.98989e-12 0)
(3 1.94274e-11 0)
(3 4.89468e-11 0)
(3 1.14604e-10 0)
(3 2.46445e-10 0)
(3 5.26641e-10 0)
(3 1.07172e-09 0)
(3 2.22394e-09 0)
(3 4.38603e-09 0)
(3 9.19648e-09 0)
(3 1.74871e-08 0)
(3 3.84658e-08 0)
(3 7.02769e-08 0)
(3 1.64027e-07 0)
(3 3.02054e-07 0)
(3 7.43691e-07 0)
(3 1.26333e-06 0)
(3 4.33118e-06 0)
(2.99999 7.11349e-06 0)
(2.99997 2.78388e-05 0)
(2.99994 6.08873e-05 0)
(2.99985 0.000148791 0)
(2.99975 0.000253203 0)
(2.99898 0.000900139 0)
(3 3.62771e-13 0)
(3 2.25925e-12 0)
(3 7.00664e-12 0)
(3 1.82903e-11 0)
(3 4.1333e-11 0)
(3 9.13203e-11 0)
(3 1.88593e-10 0)
(3 3.93857e-10 0)
(3 7.81595e-10 0)
(3 1.61516e-09 0)
(3 3.09533e-09 0)
(3 6.61869e-09 0)
(3 1.19288e-08 0)
(3 2.74044e-08 0)
(3 4.46148e-08 0)
(3 1.10901e-07 0)
(3 1.73785e-07 0)
(3 4.76737e-07 0)
(3 6.38079e-07 0)
(3 3.16751e-06 0)
(2.99999 4.46648e-06 0)
(2.99997 2.38827e-05 0)
(2.99994 5.10821e-05 0)
(2.99985 0.000134372 0)
(2.99975 0.000202832 0)
(3 1.3673e-13 0)
(3 7.98491e-13 0)
(3 2.57869e-12 0)
(3 6.49642e-12 0)
(3 1.50713e-11 0)
(3 3.22059e-11 0)
(3 6.77056e-11 0)
(3 1.35842e-10 0)
(3 2.76425e-10 0)
(3 5.3078e-10 0)
(3 1.09522e-09 0)
(3 1.98767e-09 0)
(3 4.32753e-09 0)
(3 7.31658e-09 0)
(3 1.80529e-08 0)
(3 2.8969e-08 0)
(3 8.73979e-08 0)
(3 1.50171e-07 0)
(3 4.75335e-07 0)
(3 9.24086e-07 0)
(3 2.98972e-06 0)
(2.99999 4.70153e-06 0)
(2.99998 2.17552e-05 0)
(2.99993 4.84725e-05 0)
(2.99988 0.000120393 0)
(3 5.13242e-14 0)
(3 3.0083e-13 0)
(3 9.70852e-13 0)
(3 2.44699e-12 0)
(3 5.66196e-12 0)
(3 1.21056e-11 0)
(3 2.53668e-11 0)
(3 5.09863e-11 0)
(3 1.03113e-10 0)
(3 1.98152e-10 0)
(3 4.10743e-10 0)
(3 7.20207e-10 0)
(3 1.73557e-09 0)
(3 2.90548e-09 0)
(3 9.34162e-09 0)
(3 1.75562e-08 0)
(3 5.52489e-08 0)
(3 1.15559e-07 0)
(3 3.23682e-07 0)
(3 6.83275e-07 0)
(3 1.88912e-06 0)
(3 3.79551e-06 0)
(2.99999 1.07153e-05 0)
(2.99997 2.00055e-05 0)
(2.99995 5.90001e-05 0)
(3 2.03676e-14 0)
(3 1.17824e-13 0)
(3 3.8685e-13 0)
(3 9.71831e-13 0)
(3 2.3011e-12 0)
(3 4.95875e-12 0)
(3 1.08104e-11 0)
(3 2.2182e-11 0)
(3 4.77527e-11 0)
(3 9.68117e-11 0)
(3 2.13295e-10 0)
(3 4.35211e-10 0)
(3 1.00888e-09 0)
(3 2.08787e-09 0)
(3 5.15907e-09 0)
(3 1.08112e-08 0)
(3 2.77257e-08 0)
(3 5.76739e-08 0)
(3 1.51309e-07 0)
(3 3.05647e-07 0)
(3 8.26619e-07 0)
(3 1.59657e-06 0)
(3 4.52557e-06 0)
(2.99999 8.31912e-06 0)
(2.99999 2.49774e-05 0)
(3 8.39046e-15 0)
(3 4.79939e-14 0)
(3 1.59881e-13 0)
(3 4.00959e-13 0)
(3 9.69978e-13 0)
(3 2.09654e-12 0)
(3 4.70783e-12 0)
(3 9.73794e-12 0)
(3 2.1778e-11 0)
(3 4.44162e-11 0)
(3 1.02153e-10 0)
(3 2.07599e-10 0)
(3 4.92547e-10 0)
(3 9.98375e-10 0)
(3 2.40381e-09 0)
(3 4.80408e-09 0)
(3 1.16732e-08 0)
(3 2.18001e-08 0)
(3 5.68341e-08 0)
(3 9.24658e-08 0)
(3 2.7727e-07 0)
(3 4.07605e-07 0)
(3 1.35238e-06 0)
(3 2.27196e-06 0)
(2.99999 6.61604e-06 0)
(3 2.91591e-15 0)
(3 1.80247e-14 0)
(3 5.9244e-14 0)
(3 1.50207e-13 0)
(3 3.58199e-13 0)
(3 7.74441e-13 0)
(3 1.70588e-12 0)
(3 3.50407e-12 0)
(3 7.68514e-12 0)
(3 1.54182e-11 0)
(3 3.5874e-11 0)
(3 7.15438e-11 0)
(3 1.79269e-10 0)
(3 3.662e-10 0)
(3 9.2736e-10 0)
(3 1.94091e-09 0)
(3 4.85436e-09 0)
(3 1.01628e-08 0)
(3 2.54755e-08 0)
(3 5.20938e-08 0)
(3 1.32343e-07 0)
(3 2.56681e-07 0)
(3 6.89671e-07 0)
(3 1.27837e-06 0)
(3 3.53138e-06 0)
(3 6.00501e-16 0)
(3 4.48359e-15 0)
(3 1.42212e-14 0)
(3 3.85592e-14 0)
(3 8.65127e-14 0)
(3 1.98372e-13 0)
(3 4.03064e-13 0)
(3 8.84488e-13 0)
(3 1.69844e-12 0)
(3 3.86175e-12 0)
(3 6.77484e-12 0)
(3 1.72059e-11 0)
(3 2.72617e-11 0)
(3 8.09651e-11 0)
(3 1.19025e-10 0)
(3 4.12608e-10 0)
(3 5.60925e-10 0)
(3 2.28802e-09 0)
(3 3.08086e-09 0)
(3 1.25688e-08 0)
(3 1.60186e-08 0)
(3 7.32343e-08 0)
(3 9.35853e-08 0)
(3 3.98993e-07 0)
(3 4.19194e-07 0)
(1.19515 1.24211 0)
(1.62022 1.15559 0)
(1.88895 1.04895 0)
(2.06052 0.92742 0)
(2.16164 0.783654 0)
(2.19441 0.611745 0)
(2.18041 0.422547 0)
(2.13356 0.230449 0)
(2.0223 0.0586412 0)
(1.88152 -0.055191 0)
(1.76654 -0.0690407 0)
(1.71225 -0.0359216 0)
(1.69841 0.00484797 0)
(1.69893 0.030573 0)
(1.7007 0.0397717 0)
(1.70211 0.0367137 0)
(1.70361 0.0266826 0)
(1.70507 0.0146061 0)
(1.70571 0.00463712 0)
(1.70745 -0.00146979 0)
(1.71191 -0.00460137 0)
(1.71867 -0.00600962 0)
(1.72704 -0.00660069 0)
(1.7364 -0.00683806 0)
(1.74634 -0.00690644 0)
(1.75661 -0.00684389 0)
(1.76701 -0.00665615 0)
(1.77742 -0.00635769 0)
(1.78754 -0.0058998 0)
(1.79705 -0.00535 0)
(1.80598 -0.00474246 0)
(1.81458 -0.0040947 0)
(1.82291 -0.00348668 0)
(1.83084 -0.00291572 0)
(1.83829 -0.00236556 0)
(1.8453 -0.0018863 0)
(1.85195 -0.00147838 0)
(1.8583 -0.00114617 0)
(1.86447 -0.000905906 0)
(1.87056 -0.000760518 0)
(1.87669 -0.000705961 0)
(1.88298 -0.00073483 0)
(1.88954 -0.000837795 0)
(1.89648 -0.00100547 0)
(1.90389 -0.00123357 0)
(1.91187 -0.00150809 0)
(1.92049 -0.00183552 0)
(1.92974 -0.00220708 0)
(1.93962 -0.00257295 0)
(1.95026 -0.00292346 0)
(1.96165 -0.00330671 0)
(1.97361 -0.00368735 0)
(1.98604 -0.00404544 0)
(1.99897 -0.00441451 0)
(2.01222 -0.00483867 0)
(2.02577 -0.00529548 0)
(2.03815 -0.00673127 0)
(2.04892 -0.00884467 0)
(2.05855 -0.0118745 0)
(2.06573 -0.0168846 0)
(2.06769 -0.026405 0)
(2.05851 -0.0466696 0)
(2.02657 -0.0900553 0)
(1.9523 -0.181438 0)
(1.82201 -0.314753 0)
(1.68067 -0.371372 0)
(1.56993 -0.3232 0)
(1.51451 -0.215337 0)
(1.51089 -0.106338 0)
(1.53744 -0.0449768 0)
(1.57317 -0.0224323 0)
(1.61029 -0.00746244 0)
(1.65051 0.000815337 0)
(1.69308 -3.43982e-05 0)
(1.73441 -0.00302393 0)
(1.77557 -0.00457632 0)
(1.81516 -0.00647492 0)
(1.85245 -0.00781689 0)
(1.88829 -0.00766725 0)
(1.92299 -0.00655367 0)
(1.95659 -0.00529076 0)
(1.98946 -0.00388147 0)
(2.02193 -0.00235528 0)
(2.05401 -0.00103261 0)
(2.08561 1.36205e-05 0)
(2.11663 0.000889879 0)
(2.14707 0.00172057 0)
(2.17688 0.00245026 0)
(2.20599 0.00304304 0)
(2.2343 0.00348805 0)
(2.26177 0.00382864 0)
(2.28835 0.00405943 0)
(2.31409 0.00424803 0)
(2.33894 0.00437629 0)
(2.36304 0.00452967 0)
(2.38628 0.00474155 0)
(2.40874 0.0049087 0)
(2.42952 0.0054747 0)
(2.44774 0.00523479 0)
(2.46054 0.00671819 0)
(1.33077 1.17639 0)
(1.65589 1.01339 0)
(1.88412 0.813547 0)
(2.02995 0.596417 0)
(2.10604 0.374925 0)
(2.12875 0.16735 0)
(2.12895 -0.00747057 0)
(2.13071 -0.146183 0)
(2.14265 -0.236972 0)
(2.15483 -0.267857 0)
(2.15863 -0.245194 0)
(2.15347 -0.19545 0)
(2.13722 -0.141513 0)
(2.1159 -0.0976124 0)
(2.09724 -0.0690386 0)
(2.08582 -0.0535862 0)
(2.08124 -0.0479052 0)
(2.08101 -0.0479483 0)
(2.08279 -0.0496481 0)
(2.08513 -0.0504234 0)
(2.08747 -0.0501737 0)
(2.0898 -0.0491739 0)
(2.09234 -0.0477174 0)
(2.09526 -0.0459353 0)