/*--------------------------------*- C++ -*----------------------------------*\
  =========                 |
  \\      /  F ield         | OpenFOAM: The Open Source CFD Toolbox
   \\    /   O peration     | Website:  https://openfoam.org
    \\  /    A nd           | Version:  6
     \\/     M anipulation  |
\*---------------------------------------------------------------------------*/
FoamFile
{
    version     2.0;
    format      ascii;
    class       volScalarField;
    location    "65";
    object      p;
}
// * * * * * * * * * * * * * * * * * * * * * * * * * * * * * * * * * * * * * //

dimensions      [0 2 -2 0 0 0 0];

internalField   nonuniform List<scalar> 
918
(
0.536899
1.24524
0.00579686
0.536807
-0.0112656
1.21291
-0.498806
0.643415
0.518046
-0.129179
-0.0713079
0.519872
1.07028
0.836982
-1.16515
-0.0200583
0.633276
-0.417363
0.516075
-0.0731304
0.666488
0.524724
0.52719
0.517977
0.580143
0.791524
0.947844
-0.00365385
0.00989242
0.00468601
-0.0124978
-0.0328402
-0.0292439
1.09602
1.14796
1.17116
0.484585
0.319357
-0.393849
-0.447328
-0.427186
-0.517224
0.640681
0.639761
-0.220595
0.645697
0.648329
0.503753
0.51744
0.518275
0.519403
0.518305
0.519586
0.390033
-0.135465
-0.160163
-0.113898
-0.11208
0.0328256
-0.0753264
-0.0776763
-0.0674557
-0.066578
0.433672
0.514965
0.511357
0.523549
0.533088
1.18541
1.1591
1.18517
1.0959
1.1134
1.04714
1.02004
0.858398
0.881763
0.820014
0.805984
-1.62213
-2.56967
-0.587457
-0.31069
-0.0105473
-0.0206951
-0.0187973
0.628456
0.631341
0.631467
0.63446
1.03756
-0.389074
-0.460429
0.516603
0.515123
0.524246
0.525149
0.52011
0.520112
-0.0690485
-0.0677426
-0.0623408
-0.0730084
-0.0733563
0.658452
0.657814
0.517414
0.514858
0.542227
0.565733
0.554486
0.251564
0.591599
0.60887
0.653468
0.800098
0.787657
0.800127
0.923597
0.890984
0.979366
1.00106
0.0134187
-0.00134274
-0.0222388
-0.021255
-0.0213782
0.480325
0.47389
0.50175
0.488204
0.491248
0.224392
0.0739561
0.401708
0.425475
-0.31689
-0.365834
-0.456799
-0.454361
-0.561558
0.604806
0.638983
0.637616
-0.232778
-0.159965
-0.287318
-0.102628
-0.159591
0.494706
0.500957
0.497032
0.51241
0.50658
0.509003
0.521513
0.518692
0.520289
0.448713
0.582026
0.3098
0.282967
-0.279762
-0.17673
-0.260652
-0.103223
-0.0996455
0.0441383
0.0736656
0.0196886
0.00705448
-0.090777
-0.0810618
-0.0863164
-0.0662281
-0.0683556
0.425113
0.412083
0.444908
0.452427
0.501059
0.502535
0.507391
0.50506
0.971268
0.994359
1.00023
0.976423
-3.54781
-6.1815
0.0338087
0.193439
-0.00933357
-0.0106884
-1.31804e-05
-0.0093978
-0.000507216
-0.0025947
-0.026502
-0.0268332
-0.0214432
-0.0221351
0.627687
0.62937
1.01101
1.03822
0.979857
0.959583
0.505925
0.507821
0.512452
0.509331
-0.0675529
-0.0668962
-0.0668902
0.650058
0.655354
0.652834
0.210386
0.121628
0.302978
0.334147
0.623314
0.611293
0.621369
0.713946
0.752579
1.01746
1.04174
1.02563
1.03834
1.08922
1.11214
1.07755
0.458896
0.46982
0.46409
0.504781
0.502508
0.503493
0.499934
0.500848
0.499494
-0.0375711
-0.409599
0.475673
0.476842
0.46815
0.471633
0.691655
0.775386
0.63273
0.635358
0.635497
-0.0515007
-0.0987
0.240753
0.211807
0.364253
0.398842
0.380675
0.946632
0.9067
0.954963
0.930333
0.894653
0.91956
-0.345872
-2.10942
-1.10443
0.594486
0.3973
0.489209
-0.00949416
-0.0258955
-0.0224861
1.02843
1.068
0.653179
0.838882
0.79143
0.775779
0.802479
0.865416
0.797203
0.832376
0.863742
0.839628
0.554857
0.48578
0.503428
0.851173
0.907165
0.0842973
0.00600284
-0.0173325
0.0980129
0.16957
0.137157
1.04507
0.960924
1.02387
0.515098
0.516046
-0.0173152
-0.039481
0.52016
0.519872
-0.020903
-0.011179
0.505139
-0.93326
0.0867041
0.509666
0.499339
0.516159
-0.11122
0.324151
-0.0761513
0.015479
-0.0194898
0.510758
0.445995
0.403641
-0.00555679
-0.0287355
-0.0665955
-0.214188
0.512836
0.511197
0.515545
0.516364
0.517139
-0.0255596
-0.0256118
-0.0176272
-0.0609788
-0.0567693
-0.0661875
0.479453
0.499794
-0.191973
0.515837
0.517938
0.517638
0.511827
0.516774
0.515399
-0.0211351
-0.0253836
-0.026917
0.190499
0.330774
0.689631
0.765646
0.637633
0.470444
0.176615
0.625849
0.67838
0.603023
0.734294
0.634588
0.642207
0.153823
0.0106016
0.157995
0.0908947
0.506509
0.505935
0.49687
0.493736
0.510982
0.508656
0.513856
0.511079
0.514252
0.515407
-0.0668404
-0.0942089
-0.110198
-0.150388
0.284033
0.547942
0.227161
0.247783
0.150949
-0.0679761
-0.0645974
-0.0729213
-0.0780113
-0.0354504
-0.0375159
0.00909171
0.016887
-9.20719e-05
-0.0262746
-0.0413671
-0.0369599
-0.043979
0.503833
0.504607
0.50935
0.518054
0.455608
0.459323
0.42561
0.444404
0.430541
0.370498
0.400346
0.377529
-0.0164432
-0.00632433
-0.00891406
-0.0286874
-0.0276248
-0.0493213
-0.0420155
-0.0403677
-0.0369055
-0.0416635
-0.0605797
-0.0643011
-0.177976
-0.297391
0.960319
0.904287
0.1347
0.502741
0.508403
0.505574
0.510292
0.513492
0.514127
0.511696
0.508186
0.499837
0.501206
0.498129
0.499343
-0.13103
-0.24019
-0.0708317
-0.146229
0.147008
0.612637
0.338217
0.283411
0.268598
0.49516
0.697395
0.610801
0.670193
0.652476
-0.391728
0.010854
-0.32444
0.222116
0.215578
0.71634
0.758046
0.775262
0.732264
0.688393
-0.0259371
0.547128
-0.0728932
-0.0221317
0.16866
0.0522116
0.641353
0.619161
0.626064
0.637397
0.646006
0.63048
0.61649
0.610377
0.633277
0.636195
0.492637
0.219001
0.17644
0.130452
0.619192
0.515279
0.565689
0.483638
0.502164
0.504559
0.503504
0.484246
0.491617
0.487271
0.494504
0.498206
0.505476
0.505675
0.501528
0.503434
-0.0835474
-0.0911201
-0.0705888
-0.128322
-0.134184
-0.178006
-0.0865296
0.0824847
0.0343368
0.228631
0.357406
0.0606781
-0.0562553
-0.0386666
0.011351
0.173102
0.175753
0.0514656
0.158499
0.116484
0.110202
0.198415
0.220235
-0.0473169
-0.0542065
-0.0565722
-0.0594346
-0.00913834
0.101713
0.0801354
-0.0244857
-0.0317409
-0.0621919
-0.0637945
-0.0132522
-0.0428272
-0.0346409
-0.012301
-0.0568874
-0.0308014
-0.0202876
-0.0252037
-0.0275132
-0.0264494
0.499311
0.5011
0.501307
0.509279
0.522934
0.538219
0.501524
0.476844
0.467861
0.470967
0.443967
0.453261
0.448423
0.464277
0.486192
0.49438
0.492483
0.495216
0.477261
0.478904
0.464295
0.468957
0.437955
0.419296
0.408998
-0.0541083
-0.0209826
-0.0342815
-0.0476822
-0.0220041
-0.0316728
-0.0281209
-0.00940103
-0.0285449
-0.024543
-0.0340022
-0.0398494
-0.0404035
-0.0805373
0.000381506
-0.180197
-0.229514
-0.282356
0.883305
1.02228
0.809789
0.586478
0.594407
0.832016
0.941144
0.551416
0.708495
0.765329
0.57289
0.862956
0.506659
0.506262
0.504139
0.503315
0.504291
-0.0198289
0.0841696
0.0962679
0.155212
0.271477
0.377322
0.307641
0.19537
0.328444
0.352434
0.609287
0.617953
0.576371
0.598599
0.598145
0.405654
0.486077
0.523367
0.481118
0.555512
0.587235
0.534142
0.577319
0.498245
0.448477
0.439636
0.394684
0.429426
0.410507
0.384871
0.498391
0.474922
0.486199
0.475449
0.497658
0.523987
0.522066
0.541665
0.560705
0.476078
0.422613
0.439791
0.468179
0.424366
0.441928
0.463601
0.181224
0.0842824
0.247478
-0.0803542
0.00603441
0.0452162
0.00259104
-0.0398545
0.266971
-0.371263
-0.317188
-0.994862
0.4909
0.842782
0.590257
0.601731
0.646234
0.633387
0.643774
0.651517
0.653529
0.606163
0.615159
0.620665
0.591517
0.614061
0.613117
0.620155
0.49706
0.398082
0.399384
0.332092
0.192299
0.233391
0.425936
0.357343
0.282161
0.274367
0.447852
0.313207
0.392182
0.443345
0.367521
0.302726
0.529422
0.574844
0.568349
0.539886
0.423875
0.456498
0.459368
0.509322
0.552072
0.577437
0.493063
0.499389
0.500301
0.497558
0.495907
0.499034
0.499315
0.501593
0.501797
0.504373
0.50383
-0.0726551
-0.0596301
-0.0769809
-0.0827575
-0.0323593
-0.04176
-0.00438254
-0.035064
-0.0357056
-0.0334494
-0.0532235
-0.0647057
-0.0603941
-0.0493397
0.0718445
0.0913067
0.0855653
0.0431019
0.24322
0.40146
0.463265
0.340116
0.187709
0.196734
0.277658
0.00788685
0.00828522
-0.00737432
0.0587771
0.0456574
-0.0565506
-0.0604229
-0.058641
-0.0466326
-0.0391758
-0.0613333
-0.0602046
-0.0496306
-0.0580974
-0.0623098
-0.0652426
0.478494
0.471399
0.475
0.4674
0.465567
0.482614
0.487297
0.48823
0.493812
0.496643
0.485906
0.49168
0.496029
-0.0286428
-0.0458903
-0.0463328
-0.0438537
-0.0434527
-0.0420531
-0.0451454
0.122836
0.027758
0.0641409
-0.00601033
-0.132487
-0.0730037
0.497236
0.492151
0.480883
0.717816
0.553542
0.472235
0.571556
0.692063
0.27152
0.471626
0.305997
0.886825
0.792035
0.937919
0.552146
0.249692
0.416863
0.425899
0.268546
0.392003
0.336106
0.212099
0.247475
0.281176
0.364048
0.251227
0.230313
-0.0120086
0.168903
0.279221
0.261338
0.388616
0.445625
0.259068
0.174672
0.121381
0.594658
0.610464
0.617207
0.59017
0.610073
0.567729
0.556139
0.571908
0.579735
0.576646
-0.630091
-0.218652
-1.41837
-0.831121
-0.379695
0.518683
0.517789
0.744793
0.649381
0.667771
0.650159
0.592507
0.563154
0.606579
0.621053
0.321612
0.406598
0.394104
0.369429
0.315158
0.257847
0.529857
0.538322
0.561855
0.587344
0.562288
0.589696
0.491828
0.491686
0.490326
0.486571
0.485068
0.488426
0.0253687
-0.00387187
0.0327905
0.0153048
-0.00741709
-0.00970095
-0.0342194
-0.0457289
-0.0446705
-0.0420736
-0.0324825
-0.0312468
0.168054
0.106582
0.0178246
0.0594113
-0.0077659
-0.0889012
-0.0917786
-0.000800972
0.0994283
0.0806498
0.387868
0.657833
0.482068
0.649575
0.446302
0.547446
0.463112
0.436352
0.464313
0.367911
0.458133
0.0449094
-0.156343
-0.211623
0.815041
0.774955
0.556611
0.312565
0.195479
0.488391
0.512579
0.472916
0.498607
0.549939
0.531378
0.0174226
0.106413
0.189975
0.495984
0.275236
0.293356
0.283787
0.44895
0.418866
)
;

boundaryField
{
    wall-4
    {
        type            zeroGradient;
    }
    velocity-inlet-5
    {
        type            zeroGradient;
    }
    velocity-inlet-6
    {
        type            zeroGradient;
    }
    pressure-outlet-7
    {
        type            fixedValue;
        value           uniform 0;
    }
    wall-8
    {
        type            zeroGradient;
    }
    frontAndBackPlanes
    {
        type            empty;
    }
}


// ************************************************************************* //
