/*--------------------------------*- C++ -*----------------------------------*\
  =========                 |
  \\      /  F ield         | OpenFOAM: The Open Source CFD Toolbox
   \\    /   O peration     | Website:  https://openfoam.org
    \\  /    A nd           | Version:  6
     \\/     M anipulation  |
\*---------------------------------------------------------------------------*/
FoamFile
{
    version     2.0;
    format      ascii;
    class       surfaceScalarField;
    location    "65";
    object      phi;
}
// * * * * * * * * * * * * * * * * * * * * * * * * * * * * * * * * * * * * * //

dimensions      [0 3 -1 0 0 0 0];

internalField   nonuniform List<scalar> 
1300
(
3.75095
5.62643
-3.33919
3.75095
-7.7548
5.62643
-4.26429
4.26429
-0.445229
0.445229
1.87648
1.87447
-2.42398
2.42398
-1.84486
1.84486
-2.52541
2.52541
-5.248
5.248
-5.06922
5.06922
4.7024
-4.7024
-6.32832
6.32832
-0.970041
0.970041
-3.56809
3.56809
3.17254
-3.17254
-1.93432
1.93432
0.00305655
-0.00305655
-0.554084
4.30504
3.19687
3.19687
-1.97205
1.97205
-4.87335
4.87335
6.22202
-6.22202
5.25901
-5.25901
-1.91982
-2.48819
1.80097
-11.5055
-5.95383
-5.95383
-8.44103
8.44103
-2.8146
2.81183
2.94709
-2.94709
-1.7274
1.7274
-4.27921
0.0149271
-4.27921
4.236
0.0282853
4.236
-0.531052
0.0858232
-0.531052
3.93478
-3.93478
0.356498
0.0887307
0.356498
3.06725
-3.06725
-1.87686
3.75334
1.87409
-1.87209
6.17713
-1.87886
3.75333
-6.07246
6.07246
-2.6692
0.24522
-2.6692
2.21072
0.213263
2.21072
-6.88483
6.88483
-1.90284
0.057979
-1.90284
1.8611
-0.0162386
1.8611
2.88751
-2.88751
-2.62766
0.102252
-2.62766
2.39731
0.128097
2.39731
0.35349
5.27294
-5.97992
8.79175
-5.27294
0.0249422
5.2104
0.0375954
5.2104
-5.10527
0.036048
-5.10527
5.0137
0.055528
5.0137
4.79257
-0.0901719
4.79257
-4.82114
0.118739
-4.82114
-3.35976
-4.07965
-6.48849
0.160168
-6.48849
-1.03351
0.0634661
-1.03351
0.861349
0.108692
0.861349
-3.72262
3.72262
-3.9252
0.357114
-3.9252
3.12751
0.0450268
3.12751
1.86812
1.88283
5.61908
-5.61908
2.44654
-1.87863
-0.0556902
-1.87863
-2.00026
-3.25875
2.00026
-0.0659359
-0.216616
0.219673
-0.216616
3.15711
0.0397624
3.15711
2.23223
0.165083
-2.23223
0.260176
3.29786
-3.29786
1.31078
0.661272
1.31078
-5.55977
5.55977
4.96136
0.052335
-4.96136
0.0880147
6.15693
0.0650842
6.15693
-6.20752
-0.0144924
-6.20753
2.48569
-4.97388
-2.64277
6.1411
0.18722
-6.1411
0.187276
2.91859
0.0284988
2.91859
-2.9198
2.9198
-2.98412
0.0370246
-2.98412
-2.15022
0.42282
-2.15022
1.41275
0.31465
1.41275
-4.19215
-0.0870683
-4.19215
-4.08325
0.158043
4.08325
0.152755
1.11515
-1.11515
-0.62382
0.092768
-0.62382
-4.03905
-0.153094
4.03905
-0.104271
-3.8772
-0.0575785
-3.8772
-3.02183
0.0377165
3.02183
0.0454156
3.11208
0.0450225
-3.11208
0.0448359
-1.87099
3.75382
-1.87996
3.75406
-5.69276
-0.379696
-5.69276
6.35835
-0.285893
6.35835
3.09345
0.474644
-3.09345
0.424246
2.06177
0.148948
2.06177
-6.8591
-0.0257316
-6.8591
6.88942
-0.0045895
6.88942
1.96661
0.0951614
-1.96661
0.063772
1.86173
-0.000633701
1.86173
2.91494
-0.0274236
2.91494
-2.88145
-0.00606427
-2.88145
2.79285
-2.79285
2.71862
0.0742351
-2.71862
0.0909545
-11.1241
11.1096
-0.0363086
-11.0878
5.17409
5.17409
4.24706
0.545509
4.24706
-5.01649
0.195354
-5.01649
2.66185
-5.30462
3.09793
-6.45769
4.68164
-16.1872
4.29749
-8.37714
6.73838
-6.73838
6.62011
0.118272
-6.62011
0.131616
-1.13668
0.103176
-1.13668
-3.12089
-0.601731
-3.12089
4.36185
-0.639236
4.36185
-3.02775
3.02775
-3.07646
0.0487138
3.07646
0.0510473
1.8616
0.000127106
-1.8616
-0.0170324
0.270923
0.085575
-0.270923
0.0543069
3.51843
-0.220571
3.51843
-3.09473
-0.20313
-3.09473
-1.2299
0.0932214
1.2299
0.0808756
-5.80727
0.247508
-5.80727
-11.1814
0.0936335
-11.1438
-6.11389
-6.11389
2.32714
11.1189
-2.89688
0.0154319
2.89688
0.0217121
2.97534
0.0524095
-2.97534
0.0555412
-2.85967
0.0668166
2.85967
0.0601301
-2.51857
0.368355
-2.51857
-1.02652
1.02652
-1.17523
0.148712
1.17523
0.23752
1.41394
-0.298793
1.41394
0.746087
0.115263
-0.746087
0.122266
-3.82538
-0.0518221
-3.82538
6.59759
-0.239239
6.59759
-2.96603
-0.128707
2.96603
-0.0510887
-0.034998
11.1446
-5.1391
0.0338244
5.1391
-11.2097
11.2435
-3.22482
0.706244
3.22482
1.02224
5.28563
0.274138
-5.28563
0.269139
6.82937
0.0600536
-6.82937
0.090992
-2.63055
-0.490339
-2.63055
-5.10133
-0.591427
5.10133
-0.73948
-11.4815
-0.203241
11.6847
-11.426
6.01052
0.146418
-6.01052
11.3899
-0.994627
-0.120519
0.994627
0.0318913
1.75278
-0.338839
1.75278
3.73308
-0.214646
-3.73308
-0.0923014
-6.75228
-0.106826
6.75228
-0.154688
-2.18149
-0.449055
2.18149
-0.428714
-4.26737
4.30713
1.90976
-2.33711
-2.63678
-5.59586
1.85523
1.8986
4.30177
-10.1728
-6.01435
-9.98554
7.21518
-6.94604
-9.33282
9.24265
7.91155
-7.96913
-5.77757
5.82862
6.48456
-6.43915
1.8794
1.87394
8.05353
-7.80831
-15.6864
15.3067
7.59434
-7.53636
15.8433
-15.8691
-17.89
17.95
-5.70288
5.80513
-6.74205
6.73598
-6.97804
6.92695
-2.79575
-3.66195
13.1471
-12.9869
8.57021
-8.6259
-8.65901
9.01612
3.3846
0.922536
3.42962
-1.88182
3.76123
-1.87151
3.78127
2.74185
-5.5376
2.56277
-5.19955
4.35517
4.21504
-4.28923
-1.30662
-5.92845
5.95695
-5.80911
5.86924
9.16259
-9.14766
-1.88498
3.75892
-1.86908
3.76767
-3.42314
-2.35443
3.37811
0.923657
8.08543
5.06167
-8.27265
-1.71289
-8.01782
7.80317
-8.21354
8.01041
-0.437476
5.83818
-5.4007
4.43587
-1.65331
7.49149
5.56187
5.75723
5.86093
-5.58679
1.08511
-6.48581
-6.3978
-2.33887
2.43164
2.22361
-2.13488
6.12694
1.7846
6.02267
-5.79644
-2.17268
-5.84826
3.81994
2.00868
3.86865
4.08199
2.40257
4.11971
3.02973
-3.03661
0.00688616
-3.0592
6.08893
0.722303
-5.41363
-4.48998
4.99103
3.0625
5.20429
-5.58118
-2.22712
-5.15694
-9.60354
-6.08287
-10.195
10.0956
5.21109
9.80973
-11.9716
11.8169
4.88638
2.70795
4.87015
-4.94647
-2.58989
-4.8827
11.6791
-2.63908
-9.04
-10.3431
-7.54687
10.3477
5.49562
10.9895
6.96051
11.0805
4.43132
7.24777
-9.92694
2.38007
-3.86598
-1.8369
-3.77503
3.66095
2.14418
3.78905
-4.21865
-2.52339
-4.20322
-4.29473
-2.68331
4.32216
2.41382
-4.41579
-3.79775
4.54449
2.38246
4.06101
-10.0754
4.31614
-7.97808
-9.2192
-3.76773
-9.08759
3.53503
2.59961
-6.13464
-2.00257
8.50874
-4.2937
7.20212
-5.19999
-3.42591
-5.21702
-6.95283
-1.70618
-6.79479
-8.92874
8.4384
-9.21317
8.57394
12.5395
-5.64665
-6.89283
-3.96698
-2.47217
3.92214
-0.492525
-3.71006
3.71694
0.0511677
3.83244
4.75497
4.26245
-3.88195
-1.92715
-3.82641
3.82078
2.04845
3.8876
6.83758
2.32501
6.86587
-6.59785
-2.54981
-6.68491
9.10822
-8.6854
2.81148
-2.71826
5.37145
2.63896
-5.15088
-2.86694
6.24322
-3.21035
-3.03286
-12.3454
10.8043
1.54103
-4.85388
-0.418012
-0.421068
-5.57252
-3.7603
5.45378
0.303443
11.1078
7.34748
-5.51573
5.76323
6.16902
6.22136
-0.17644
5.89555
-5.1893
5.27572
-2.69148
-2.58424
5.46407
-5.61716
-1.22085
-5.53171
4.31086
0.405512
1.54209
-1.32242
-1.81538
-0.523493
-1.69311
1.25055
0.973068
1.33612
0.938894
1.49274
-2.92696
0.556317
2.37064
-1.98807
-1.57857
-3.7828
-1.14945
4.93225
5.7201
2.08307
-5.6278
-0.220463
2.58559
-2.4769
-0.809837
-2.97296
2.22437
-3.03421
-3.48056
-1.92236
5.40292
-3.3687
-0.457711
3.31629
0.552359
-3.82805
-2.1004
3.79102
0.328685
-3.12865
6.19015
-3.0615
-5.0558
2.52893
3.56
4.53761
-4.79007
2.4491
2.34098
-1.23008
4.2638
0.940491
4.41275
-7.02941
4.80228
5.72325
3.29287
-6.1979
1.04096
-5.98845
8.59206
-7.43849
-1.15357
4.14874
4.44332
7.0546
5.48488
-5.70077
12.7554
-1.18396
-6.25454
7.1724
-3.87953
4.87356
-8.75309
-10.3584
4.10391
-9.20643
11.0709
-1.86444
-3.61111
-8.36045
12.8175
-1.21004
-11.6075
8.59969
-4.30731
-4.35959
8.6669
-6.94639
6.94948
-1.99953
-4.94995
-10.1577
-5.7114
10.2645
1.55239
-9.91907
12.2991
-2.6713
4.16242
0.707729
4.16178
3.34287
-5.47102
2.12815
3.60352
-5.60306
2.06293
-7.53395
-6.76362
12.105
-5.34143
-10.5314
-9.55815
-0.973201
2.5533
9.74584
-9.51381
7.44695
2.06687
3.29724
0.590358
-3.37148
-0.403548
0.230597
4.51649
-4.74709
4.01964
4.18473
3.22884
1.28766
3.84919
2.10775
-3.87091
-0.332314
-4.16789
1.48459
-1.75407
-3.69363
5.17821
-4.06197
0.368342
-2.74501
-3.49255
6.23756
-4.58191
3.03638
3.15377
5.08483
-4.91383
1.42128
-2.39087
-2.52296
2.64068
-4.39475
1.99954
3.17868
4.38199
0.584244
5.90881
6.19623
-8.50842
0.530339
11.2579
-9.54501
2.48151
8.599
-9.92846
0.370311
-8.71728
0.976894
-5.2706
-5.15774
5.21955
-6.92572
-3.53354
6.24242
0.623444
-6.39518
-0.399613
-6.0681
-2.86064
-6.51716
-3.05131
-6.16186
-8.75208
-1.67481
-7.07727
6.7636
-6.69621
-3.49876
7.43569
1.13825
-7.48223
7.36171
-7.54147
7.20263
0.0948305
3.62211
4.35728
1.88511
-2.39204
4.27715
-5.06974
7.39474
-8.7309
3.66117
4.22245
-6.77226
-4.50846
5.06217
4.04605
5.37682
8.93021
-10.3877
1.45746
-10.6614
12.0002
-1.33883
-16.4445
5.7831
-7.51431
2.43222
0.379261
2.53539
0.562113
2.48728
-3.04939
-2.15614
-2.07527
-2.43931
-3.49698
5.9363
1.07531
-3.46772
2.39241
-3.58399
4.6593
-0.0620305
-3.40569
5.18123
-2.69395
5.56049
-3.64602
1.91447
3.54927
5.845
-2.29573
4.42226
-1.7833
1.94167
-4.2374
-1.55532
-2.95255
5.09673
-3.28501
3.65335
-0.349637
4.00299
-4.06049
0.850134
-0.831648
3.35308
3.61326
4.33123
-3.04357
2.93903
-4.72234
-1.29836
-4.13809
-0.959414
-0.18839
-3.78834
3.97673
6.01241
-6.2008
-5.28594
9.53081
-4.24486
7.70744
-5.44303
-2.26441
-4.29513
-4.39027
3.92678
1.96877
9.67621
0.179288
-5.62232
-5.01002
-3.98778
3.10192
2.1738
-1.76489
3.30592
2.18596
-0.64387
0.401079
0.935041
1.76944
-1.36836
0.333069
1.43638
-0.989348
1.73328
0.852317
-1.84854
0.155429
-1.2824
3.50677
1.08824
-2.06131
0.692946
0.898226
-3.5897
5.05898
-2.71233
-2.34665
5.95721
1.14718
-3.85951
4.38452
-3.97901
2.4355
-3.58495
-1.42402
-5.40303
-3.61843
-2.49451
4.88692
-3.44179
5.52486
1.40636
-5.3044
6.71075
-3.62984
1.70747
-3.06589
3.91821
-1.02946
-2.03643
2.88534
2.51758
-3.12068
0.147725
-0.235344
2.41751
-2.65285
-0.616698
-2.60477
-4.57586
4.90454
-2.10386
4.55296
2.17329
-1.91743
6.47039
1.80784
-3.72528
-3.24796
-3.70567
-1.3843
3.15331
-0.606618
-4.27608
-5.55656
4.18092
0.231832
-7.07495
7.92436
-0.849417
-4.01245
-0.789835
4.93858
-6.08599
0.482937
-4.02306
3.9013
4.84179
5.07363
-11.3676
-0.239927
-6.15648
1.10583
-7.26232
5.54915
-3.57898
7.68289
-10.3146
6.81588
-9.17639
6.52931
-0.733003
6.25532
-4.12718
2.78468
-8.49608
-6.9437
5.52143
-2.81348
6.22916
-3.18213
9.41128
-5.85342
5.31116
4.10013
-1.03784
-4.17918
-5.29389
4.25605
0.0172716
4.17905
4.98702
-2.87927
4.65471
2.26344
-4.6543
-2.13132
-6.48753
1.83323
-3.33376
-1.9223
3.75553
3.16253
3.75289
1.23256
-3.34934
7.23271
-8.20591
-1.89129
-3.26646
5.27258
-1.01653
3.42393
-6.69039
-1.84666
4.7567
-0.730806
-4.02589
0.889948
-4.42349
1.66972
-6.09321
5.256
-5.65562
2.25418
-9.76848
-5.22805
-5.19616
-2.27971
-5.26176
-7.58426
5.30455
-1.80116
5.56055
-8.52593
7.79512
-3.47432
8.77887
-5.46367
-1.05348
5.89239
1.31024
10.0891
0.154154
-4.66261
-1.93512
3.7451
-1.80998
1.1668
-3.63419
0.110913
2.4862
3.47101
-6.79706
0.0247939
-4.63782
-3.91166
7.95771
5.61915
11.6316
1.24389
9.14557
-1.18787
10.3895
4.18895
4.42647
-3.01139
4.46885
0.965343
4.62651
-0.891655
2.80613
1.64374
1.70721
0.769695
2.29763
1.31562
3.14776
0.0983726
-1.9769
4.63699
-8.62477
-0.985324
-8.07926
1.16339
5.42881
-4.26541
2.8924
-0.718605
1.08242
-0.145949
-1.25792
1.40387
-2.73019
-1.90179
-0.46542
-1.63904
2.33199
1.86773
-1.86657
-0.86362
0.332274
-3.9507
3.25268
-3.10495
-0.587368
6.12338
-2.8904
0.23755
-1.18293
-2.36722
-2.89071
2.73528
6.17425
0.29614
3.11275
5.20068
3.10028
0.221009
3.811
-5.67544
-3.72295
-5.91536
-0.366212
4.57237
1.74265
8.00319
5.84278
4.82625
-1.86414
-10.0701
6.51428
-2.04543
5.17545
-1.14956
-4.94365
5.072
2.32274
-5.69545
0.0398275
-4.90382
-6.94925
-0.482866
8.27799
-9.60624
8.55276
5.69212
1.38515
-4.43987
-0.756288
4.29116
0.13531
10.5248
-0.910058
-7.07326
7.98332
-4.51875
3.53343
0.684382
2.62154
2.08826
1.36965
-5.70361
-9.96902
-2.04934
-1.54036
-4.39599
0.536255
-2.40398
6.07657
-2.54314
3.81216
5.44017
6.52259
-2.05102
-4.14978
6.29588
-2.48372
4.03887
)
;

boundaryField
{
    wall-4
    {
        type            calculated;
        value           uniform 0;
    }
    velocity-inlet-5
    {
        type            calculated;
        value           uniform -3.75095;
    }
    velocity-inlet-6
    {
        type            calculated;
        value           uniform -5.62643;
    }
    pressure-outlet-7
    {
        type            calculated;
        value           nonuniform List<scalar> 8(3.33919 7.7548 4.40801 9.70455 7.43941 5.12846 5.75979 8.97913);
    }
    wall-8
    {
        type            calculated;
        value           uniform 0;
    }
    frontAndBackPlanes
    {
        type            empty;
        value           nonuniform 0();
    }
}


// ************************************************************************* //
