/*--------------------------------*- C++ -*----------------------------------*\
  =========                 |
  \\      /  F ield         | OpenFOAM: The Open Source CFD Toolbox
   \\    /   O peration     | Website:  https://openfoam.org
    \\  /    A nd           | Version:  6
     \\/     M anipulation  |
\*---------------------------------------------------------------------------*/
FoamFile
{
    version     2.0;
    format      ascii;
    class       volVectorField;
    location    "65";
    object      U;
}
// * * * * * * * * * * * * * * * * * * * * * * * * * * * * * * * * * * * * * //

dimensions      [0 1 -1 0 0 0 0];

internalField   nonuniform List<vector> 
918
(
(0.985049 -0.000714711 0)
(0.00534315 2.96624 0)
(-0.00196423 0.88221 0)
(0.979575 0.00196146 0)
(-0.013753 2.06341 3.23644e-20)
(-0.00709345 2.94855 -2.60002e-18)
(0.816054 1.11877 4.40466e-19)
(0.139351 0.0747498 -1.43248e-20)
(0.999922 -0.000243997 0)
(0.0882303 0.659066 0)
(0.0138253 0.407121 0)
(0.732314 -0.00406607 0)
(0.0101917 2.9316 0)
(0.00342771 2.79444 0)
(-0.00213173 3.18141 8.22548e-19)
(-0.013872 1.92456 1.91466e-20)
(0.292234 0.0322173 9.87929e-19)
(0.231736 1.10594 3.5264e-19)
(0.964366 0.00674174 0)
(0.000301087 0.411408 0)
(0.0126625 0.0888585 -6.72024e-19)
(1.00183 -0.00456014 0)
(0.999851 -0.00892718 0)
(0.975167 -0.00605217 0)
(0.594305 0.020628 0)
(0.0216195 2.64345 0)
(-0.0123193 2.91191 9.5343e-19)
(-0.00554698 0.934977 0)
(-0.0301896 1.16841 0)
(-0.0035582 0.905451 0)
(-0.0227706 2.59538 0)
(-0.00477368 2.11424 -2.58497e-20)
(-0.00978982 1.89651 0)
(-0.0221539 2.9876 -9.37928e-23)
(-0.016494 3.00551 2.02031e-18)
(0.00230919 3.0006 0)
(0.871897 -0.00974208 0)
(0.375891 0.915722 1.67048e-19)
(0.814945 1.13685 -5.48607e-19)
(0.947733 1.00222 5.5973e-19)
(0.67807 1.21961 -1.01071e-19)
(0.691406 1.18099 5.77074e-19)
(0.169573 0.136612 1.39746e-20)
(0.159523 0.070595 0)
(1.1611 0.529973 0)
(0.143089 0.121331 6.35266e-20)
(0.118039 0.0663997 -6.59214e-20)
(0.920542 -0.00704808 0)
(1.00026 6.07551e-05 0)
(0.999908 0.000320164 0)
(1.0037 -0.00728131 0)
(1.00089 -0.000947028 0)
(1.00011 -6.86309e-06 0)
(0.0923099 1.84383 -7.40161e-19)
(0.0332629 0.855661 0)
(0.121643 0.747375 0)
(0.0145296 0.802588 0)
(0.0493628 0.58091 0)
(0.00392222 2.02865 0)
(-0.00685211 0.733361 0)
(0.00734713 0.43981 0)
(-0.0083357 0.729301 0)
(0.00603386 0.409161 0)
(0.843371 -0.0156517 0)
(0.839275 0.0320708 0)
(0.762249 -0.00709277 0)
(0.801914 0.0313833 0)
(0.705094 0.00474214 0)
(0.0139562 3.0002 9.65384e-19)
(0.0111826 3.00596 0)
(0.00628011 3.00389 0)
(0.0118704 2.9971 1.09703e-23)
(0.00827465 2.95872 -1.4348e-18)
(0.012185 2.98291 0)
(0.00902072 2.90493 0)
(0.0210815 2.93131 2.2332e-24)
(0.00414682 2.82421 0)
(0.0262696 2.91893 0)
(-0.000817681 2.74515 0)
(0.306572 3.57737 0)
(-0.122356 3.66027 0)
(0.149754 3.27223 -7.65531e-19)
(0.00365186 3.00883 0)
(-0.0305048 1.99092 0)
(-0.00728867 2.1772 -1.88839e-20)
(-0.00964175 1.93657 1.83724e-20)
(0.356448 0.141786 -3.42959e-19)
(0.315774 0.00571495 -3.33722e-19)
(0.310319 0.163418 -1.02601e-18)
(0.256954 0.0495565 -6.67274e-19)
(0.262207 1.02114 0)
(0.329964 1.23697 -3.63694e-19)
(0.412269 1.14854 6.00121e-19)
(0.987747 0.00814874 0)
(0.94327 0.00578621 0)
(1.00028 0.000671808 0)
(1.00254 0.00906659 0)
(1.00311 0.0089871 -2.64225e-18)
(0.992136 0.00942575 1.99662e-18)
(-0.0194603 0.744465 0)
(-0.000275225 0.419875 0)
(-0.0508426 1.01885 0)
(-0.0265746 0.797861 0)
(-0.00827442 0.410664 0)
(-0.0146452 0.121807 2.08091e-19)
(0.0663231 0.0785281 0)
(0.993624 -0.00769343 0)
(0.954046 -0.00648302 0)
(0.740744 0.0390467 0)
(0.67538 0.0360941 0)
(0.661663 -0.0027393 0)
(0.97906 -0.00297405 0)
(0.588885 0.0531404 0)
(0.443646 -0.0214195 1.50467e-18)
(-0.0405223 2.86095 7.51721e-19)
(0.0336082 2.91441 0)
(0.0428237 2.89226 0)
(0.00323362 2.70178 0)
(-0.00874417 2.98622 9.13032e-19)
(-0.0142493 2.89468 0)
(-0.011104 2.99167 -2.80996e-18)
(-0.0116038 2.9295 9.56743e-19)
(-0.042737 1.3426 0)
(-0.0143866 1.37058 0)
(-0.00783742 2.1392 7.33951e-22)
(-0.0076955 2.09835 0)
(-0.0173471 1.90812 0)
(0.938853 -0.00521982 0)
(0.857226 -0.0111295 0)
(0.863487 0.00487375 0)
(0.949646 -0.00615582 0)
(0.883649 -0.0080792 0)
(0.499554 1.11584 -2.11986e-19)
(0.546828 1.18577 0)
(0.337769 0.850275 3.23011e-20)
(0.282117 0.714746 0)
(0.915309 1.03291 -1.57828e-19)
(1.03717 0.84312 3.16626e-19)
(0.390021 1.31551 0)
(0.541078 1.27109 0)
(0.59431 1.19867 0)
(0.102923 0.181266 -3.00243e-19)
(0.18983 0.148075 0)
(0.174685 0.0816549 1.85717e-19)
(1.00047 0.897177 0)
(1.0761 0.74539 0)
(1.10552 0.680623 -2.52402e-19)
(1.14255 0.591902 0)
(1.19836 0.390691 4.68085e-20)
(0.957485 -0.007104 0)
(0.962716 -0.00811159 0)
(0.900899 -0.00736849 0)
(0.983927 -0.00812404 0)
(0.974421 -0.00803288 0)
(0.936539 -0.00656815 0)
(1.0002 0.00250437 0)
(1.00077 0.00123984 0)
(1 0.000762553 0)
(0.0446272 2.08788 4.12317e-19)
(0.145046 1.78727 0)
(0.0193564 2.20318 6.2541e-19)
(0.0526487 1.89278 -5.23517e-19)
(0.165661 1.08213 -2.8947e-19)
(0.0497587 0.937453 0)
(0.120258 0.935692 0)
(0.00164344 0.772499 0)
(0.0251739 0.522288 0)
(-0.00345271 2.25778 -4.65612e-22)
(0.0184491 2.03414 0)
(-0.00496386 2.25869 -1.16517e-20)
(0.00247789 2.04004 1.05597e-20)
(-0.00617021 0.747026 0)
(-0.00728814 0.734353 0)
(0.00926987 0.47447 0)
(-0.0103125 0.730658 0)
(0.00499463 0.416287 0)
(0.939306 0.013777 0)
(0.856067 -0.0116834 0)
(0.92853 0.00481952 0)
(0.846082 -0.0127949 0)
(0.81239 -0.00364622 0)
(0.896679 0.0244528 0)
(0.870867 0.029831 0)
(0.788092 -0.00709308 0)
(0.0102435 3.06739 -8.99596e-21)
(0.0152908 3.05894 0)
(0.0123377 2.97032 0)
(0.00759977 2.87661 0)
(0.89651 3.97215 0)
(1.19077 3.36802 9.37647e-19)
(0.081188 3.09135 0)
(-0.0173645 2.91866 0)
(-0.0151137 1.3965 0)
(-0.0352255 1.69555 0)
(-0.0239243 1.53007 0)
(-0.0332344 2.55541 -1.37273e-20)
(-0.0183861 2.24936 0)
(-0.0230592 2.39444 0)
(-0.000910137 1.96495 4.10214e-22)
(-0.00517129 2.25243 -2.32307e-20)
(-0.00616446 2.21495 -1.88686e-20)
(-0.00596593 1.95024 0)
(0.395925 0.117638 5.27388e-19)
(0.349536 -0.000631582 -5.17353e-19)
(0.233315 1.5907 0)
(0.287977 0.764299 -3.25213e-19)
(0.182393 1.6895 -1.06844e-18)
(0.246163 1.22262 1.06967e-18)
(0.901712 0.00593851 0)
(0.967072 0.0106441 0)
(0.974922 0.00984515 0)
(0.923015 0.00588874 0)
(-0.0194736 0.736041 0)
(-0.0182939 0.738939 0)
(0.00627464 0.412432 0)
(0.118738 0.11328 5.85732e-19)
(0.0986579 0.0989757 -6.9346e-19)
(0.08216 0.0661604 0)
(1.10594 0.0900027 2.42224e-20)
(1.08966 0.0422985 0)
(1.01816 0.0435744 0)
(0.913302 -0.00166107 0)
(0.44421 0.0971553 0)
(0.504791 0.0763209 -2.40572e-18)
(0.394106 -0.00706018 9.00743e-19)
(0.0108124 2.9771 7.96037e-19)
(-0.0330243 2.86137 4.56252e-20)
(0.00824576 3.05346 -1.89776e-20)
(0.0156771 3.0432 7.11328e-19)
(-0.0118729 3.00003 3.14537e-20)
(-0.0122906 2.95228 -1.26881e-22)
(-0.0150296 3.01333 -5.87246e-19)
(0.0143902 3.02657 4.14052e-19)
(0.00758258 3.03491 -6.73377e-19)
(0.93466 0.00210264 0)
(0.939475 -0.00114157 0)
(0.848064 -0.0111682 0)
(0.956363 0.0117514 0)
(0.942428 0.0132762 0)
(0.881718 0.00546321 0)
(0.915279 0.0190016 0)
(0.925156 0.0153859 0)
(0.838163 0.000724448 0)
(0.672325 1.41451 1.44476e-20)
(0.690367 1.5251 0)
(0.118779 0.293416 6.82836e-20)
(0.212624 0.653609 5.39589e-19)
(0.240193 0.693452 -3.16623e-19)
(0.21533 0.497777 6.28367e-19)
(0.339231 0.830741 1.58845e-18)
(0.134211 0.236297 3.81104e-19)
(0.266935 0.171857 7.07864e-19)
(0.223362 0.164527 1.82355e-19)
(0.219089 0.0703725 3.47721e-19)
(1.19022 0.445053 9.04523e-20)
(1.21599 0.245184 8.82135e-20)
(0.00903171 2.24717 2.43434e-19)
(0.0392967 1.95655 0)
(0.972518 0.0329374 0)
(0.946529 0.019146 0)
(0.87074 -0.0152941 0)
(0.0125218 3.07483 0)
(0.0169042 2.94406 1.25775e-18)
(0.0139808 2.95692 0)
(0.00582138 2.84978 -1.24828e-18)
(0.00895191 3.09068 3.07357e-19)
(0.0117441 3.08275 0)
(0.710275 1.82152 -1.70603e-19)
(1.23518 2.6267 5.7683e-19)
(0.695064 1.99966 -1.39542e-18)
(0.0223059 2.97665 -6.93022e-19)
(0.0404023 2.99872 0)
(-0.0383625 2.87925 0)
(-0.00622884 2.23731 -1.27651e-20)
(-0.00482403 2.25775 4.40891e-20)
(-0.000580815 2.00089 -7.0702e-21)
(0.268362 1.40178 1.03368e-18)
(0.286095 0.567312 -7.09338e-19)
(0.0703821 2.00622 7.50477e-19)
(0.124638 1.87857 -9.01051e-19)
(0.205693 1.53951 1.01163e-19)
(0.00616758 3.12032 -1.71101e-18)
(0.0129485 3.12088 1.8827e-18)
(-0.00513266 2.98044 8.55189e-19)
(-0.00158683 2.97518 -8.20069e-19)
(-0.0177105 2.87731 -8.71044e-19)
(0.0124603 3.10017 -2.28481e-18)
(0.00516676 3.10532 2.31694e-18)
(0.265918 0.697812 0)
(0.217627 0.659115 -1.1508e-18)
(0.073612 0.212797 5.06369e-19)
(0.346166 0.95044 1.12793e-18)
(0.198435 0.280409 -1.73716e-18)
(1.19592 0.175369 4.90659e-20)
(1.21272 0.30422 0)
(1.19139 0.120757 7.68674e-21)
(-0.00107073 2.26592 -1.24647e-21)
(0.00351818 2.25129 0)
(0.0307187 1.99226 0)
(0.313031 1.3179 -3.71137e-19)
(0.353996 1.17657 -8.03981e-19)
(0.231784 0.391345 1.43807e-18)
(1.00644 -0.00968568 0)
(1.00774 -0.00778632 4.85679e-19)
(-0.037347 1.32492 0)
(-0.0451124 1.32856 0)
(1.00244 0.00327612 1.34485e-21)
(1.0032 0.00781358 9.97034e-19)
(-0.0243473 2.54172 1.73913e-20)
(-0.0274843 2.58446 0)
(0.0404702 3.17306 4.93285e-19)
(0.375075 3.54257 0)
(1.15615 0.691491 -5.23005e-20)
(1.01182 0.0106679 -2.83418e-21)
(1.02085 -0.00902239 0)
(1.00158 0.000277479 1.56102e-22)
(0.114334 1.37457 0)
(0.134284 2.58691 0)
(0.0239096 1.32046 0)
(-0.00137543 2.63622 1.29911e-21)
(-0.0218532 2.5851 -6.68542e-21)
(0.997584 0.0311673 2.90704e-21)
(1.06294 0.0058138 0)
(1.09994 0.0284674 0)
(-0.0335647 1.74233 0)
(-0.0192454 2.58564 0)
(-0.011712 1.31581 0)
(0.310129 1.48684 -1.71831e-19)
(1.01151 -0.00906046 0)
(1.00971 -0.0129889 0)
(1.00228 0.000942935 6.22196e-19)
(1.00548 -0.00491368 -7.33232e-19)
(1.00113 -0.000864265 0)
(-0.0210008 1.46172 0)
(-0.00958434 1.38355 0)
(-0.0161728 1.42372 0)
(-0.013843 1.30304 0)
(-0.0272101 1.29232 0)
(-0.020942 1.27142 0)
(1.03564 -0.00431606 0)
(1.01883 0.0150092 -8.82773e-22)
(0.810485 1.30958 2.77336e-19)
(1.00242 0.000383168 -6.21471e-19)
(1.00338 0.00445395 7.41957e-19)
(1.00127 0.00209894 0)
(1.01112 0.00963781 6.19146e-19)
(1.00686 0.00746411 -7.53577e-19)
(1.00715 0.0111339 0)
(-0.0244226 2.61337 0)
(-0.0276673 2.59257 -2.96578e-20)
(-0.0245318 2.60664 2.08829e-20)
(1.24135 0.272519 5.27549e-19)
(1.16332 0.0889028 0)
(0.0445142 3.09106 -9.7957e-19)
(0.0518299 2.87334 -6.934e-20)
(0.103644 3.20205 1.30785e-18)
(0.121994 3.21402 -2.81391e-19)
(0.142029 3.25814 0)
(0.0228307 3.13796 2.69498e-19)
(0.0614845 3.1619 9.7586e-19)
(0.0616855 3.17909 -5.04018e-19)
(0.0274762 3.12915 0)
(0.581427 0.289436 0)
(0.523655 0.307634 0)
(1.13737 0.722452 1.1887e-19)
(1.10315 0.858789 -1.03709e-19)
(1.19578 0.608089 0)
(1.22296 0.543036 0)
(1.01573 0.0120257 -1.15019e-18)
(1.0147 0.0127703 1.44616e-18)
(1.02572 -0.00873792 0)
(1.02406 -0.0103039 0)
(1.00675 0.00316662 0)
(1.01089 0.00420818 0)
(1.00425 0.0022078 0)
(1.0094 0.00636704 0)
(1.00687 0.00504913 0)
(1.00441 0.00527416 0)
(0.104493 1.37425 0)
(0.092664 1.33254 0)
(0.138485 1.41758 0)
(0.146619 1.40035 0)
(0.142945 2.61408 0)
(0.186308 2.68517 -4.18477e-19)
(0.106242 2.67155 0)
(0.0830856 2.67215 1.68967e-19)
(0.0279389 2.6786 -1.6165e-19)
(0.0117831 1.322 0)
(0.0187899 1.25231 0)
(0.0138959 1.33497 0)
(0.0335291 1.27314 0)
(-0.000909164 1.99499 3.12356e-20)
(-0.0216399 2.61327 -3.39546e-20)
(-0.0077658 2.6787 -2.28365e-20)
(-0.0195037 2.69153 0)
(-0.0238092 2.61971 2.31997e-20)
(-0.0224863 2.61516 3.41442e-20)
(0.00626879 1.992 -2.39161e-20)
(-0.00978199 2.40464 4.55564e-20)
(-0.0147723 2.42812 2.58873e-20)
(1.01211 0.0390696 1.1674e-18)
(1.00308 0.0196724 -1.45383e-18)
(1.00245 0.0472753 -1.1914e-18)
(0.974913 0.0348903 1.50102e-18)
(1.06459 0.00912667 0)
(1.04984 -0.00647968 0)
(1.09255 0.0374499 0)
(1.0757 0.0148825 0)
(1.07445 0.000589742 0)
(1.14115 0.0790684 0)
(1.11544 0.045965 0)
(1.11851 0.0374629 0)
(-0.0299226 2.43638 3.24968e-21)
(-0.0200402 2.02256 0)
(-0.0210375 2.22242 0)
(-0.0213977 2.60648 -1.75851e-20)
(-0.0182169 2.61727 5.47242e-22)
(-0.000892819 1.58224 -5.23976e-20)
(-0.0100034 1.50524 5.3518e-20)
(-0.0196179 1.39631 0)
(-0.0236724 1.40211 0)
(-0.0305797 1.39342 0)
(-0.00797746 1.31737 0)
(0.00215414 1.24558 0)
(0.385591 1.5119 2.86047e-19)
(0.433597 1.516 1.52106e-19)
(0.591331 2.46743 -2.49334e-19)
(0.375203 2.56469 6.52701e-19)
(0.350813 2.05564 6.92252e-20)
(1.02069 -0.00801393 0)
(1.01579 -0.0093669 0)
(1.01484 -0.013223 0)
(1.00771 -0.000572296 0)
(1.00487 -0.00067094 0)
(1.00799 -0.00448638 0)
(1.00954 -0.00344951 0)
(1.01464 -0.00429869 0)
(1.01956 0.0161816 1.12911e-18)
(1.01723 0.0147061 -1.42779e-18)
(1.01986 0.0185061 -1.13868e-18)
(1.0174 0.0169098 1.42359e-18)
(0.766931 1.35659 0)
(0.706234 1.39127 2.42381e-19)
(0.873464 1.2375 9.81153e-20)
(0.911228 1.19669 -1.30217e-19)
(1.16509 2.61398 2.80539e-19)
(0.759814 0.128861 5.86162e-19)
(1.17155 0.107286 0)
(1.21368 0.201034 -4.28021e-19)
(1.19479 0.154144 -1.78069e-20)
(1.01359 0.165933 0)
(0.0784157 3.0192 3.50978e-19)
(0.0835964 2.90272 -1.15459e-18)
(0.0266972 2.3576 7.30758e-19)
(0.142399 -0.234205 -3.38079e-19)
(0.342973 3.44627 -2.47828e-19)
(0.193559 3.34083 0)
(0.224264 3.39776 3.22825e-19)
(0.223289 3.07724 -1.21725e-18)
(0.256153 3.1961 0)
(0.0072952 3.12237 5.08136e-20)
(0.0175245 3.13114 -5.84718e-19)
(0.0167354 3.12702 8.60615e-19)
(0.0336677 3.13996 0)
(0.0315604 3.14985 0)
(1.25858 2.57837 0)
(0.532151 0.792012 -5.26456e-19)
(1.02368 1.03209 -1.00549e-20)
(0.988606 1.08531 0)
(0.857297 0.968967 -1.0747e-19)
(1.08097 0.907516 2.66536e-20)
(0.343685 0.315767 -8.32362e-19)
(0.66139 0.320452 -2.1633e-20)
(0.556612 0.221967 3.92612e-19)
(0.555642 0.323223 2.88011e-20)
(0.443745 0.279265 -1.15432e-18)
(0.618333 0.321231 0)
(0.696819 0.423658 6.60267e-19)
(0.699723 0.429808 0)
(0.590427 0.328199 0)
(0.509478 0.254824 0)
(0.795396 0.65165 3.958e-19)
(1.25217 0.305779 -4.29368e-19)
(1.24457 0.437205 0)
(1.24498 0.393295 0)
(0.694297 0.184911 5.98217e-19)
(0.844245 0.553323 -3.72374e-19)
(0.765578 0.515705 6.65247e-19)
(0.965172 0.448874 -6.71847e-19)
(1.01842 0.0146385 7.65222e-19)
(1.01709 0.0136258 -7.72621e-19)
(1.016 0.0141604 0)
(1.03703 -0.00453766 0)
(1.03043 -0.00770599 -7.2481e-19)
(1.02864 -0.0105809 7.17281e-19)
(1.02474 0.0109301 0)
(1.02268 0.0150388 0)
(1.0127 0.00468584 0)
(1.01456 0.009107 0)
(1.01635 0.00421086 0)
(1.01554 0.00290784 0)
(0.0720346 1.35946 0)
(0.0720711 1.30344 0)
(0.157222 1.41604 5.64943e-20)
(0.276597 1.4832 8.40163e-20)
(0.174497 1.45484 1.89903e-19)
(0.214594 1.45137 -3.06501e-19)
(0.167925 1.42947 0)
(0.14809 1.58948 -7.96102e-20)
(0.146829 1.58376 0)
(0.350756 2.00672 -1.00784e-19)
(0.327218 2.34269 6.25514e-19)
(0.201672 1.46833 6.93624e-20)
(0.275931 1.39804 2.50068e-20)
(0.207528 1.39685 -2.03422e-20)
(0.28966 1.33712 -8.56803e-20)
(0.252968 1.57824 0)
(0.272839 1.62303 9.54228e-20)
(0.025477 2.2567 -1.67028e-20)
(0.0380758 2.67176 0)
(0.0641277 2.40683 9.98901e-20)
(0.0592638 2.43049 0)
(0.0693508 2.68928 -1.87568e-19)
(0.0430291 2.70571 0)
(0.0234082 1.44515 5.41876e-20)
(0.0318152 1.50299 0)
(0.026645 1.41098 0)
(0.0194424 1.41714 -6.14453e-20)
(0.00160206 2.6634 -1.14622e-21)
(0.0260441 2.69539 1.84714e-19)
(0.00932328 2.73476 9.93667e-22)
(0.00147044 1.84294 -1.86019e-20)
(-0.00489396 1.69463 -1.40838e-20)
(0.0106069 1.3045 0)
(0.018024 1.23118 0)
(0.0398236 1.59167 -1.75474e-20)
(0.0368166 1.46869 -5.33433e-20)
(0.0272126 1.54373 5.82926e-20)
(0.0481995 1.61713 0)
(-0.0304219 2.27323 1.13964e-19)
(-0.0336336 2.55399 -4.82899e-20)
(-0.0197463 2.45294 7.75674e-21)
(-0.00538823 1.85983 2.25505e-20)
(-0.0276366 2.50796 1.04345e-20)
(-0.0228366 2.44888 -2.23199e-20)
(1.01765 0.0220896 -7.71574e-19)
(1.01469 0.0282122 7.78005e-19)
(1.01168 0.0163498 0)
(1.01169 0.070873 1.06193e-18)
(0.990172 0.0609836 -1.22246e-18)
(0.9486 0.0572396 1.36706e-18)
(1.0139 0.115953 -1.44251e-19)
(1.04395 -0.00468945 0)
(1.05215 -0.000455714 6.9459e-19)
(1.04025 -0.00818933 -6.94194e-19)
(1.0722 0.0434701 -4.11805e-20)
(1.06492 0.0288123 3.55673e-19)
(1.06433 0.0653344 0)
(1.05438 0.0545059 -1.281e-19)
(1.03175 0.0444651 0)
(1.02529 0.0398015 0)
(1.02757 0.0136461 0)
(1.02399 0.0161248 0)
(1.04088 0.0339142 2.63365e-19)
(1.03918 0.0289264 -5.82857e-19)
(1.053 0.0385606 -2.78576e-19)
(1.04826 0.0386291 -3.07529e-19)
(1.07786 0.0701336 5.88014e-19)
(1.10172 0.0561208 0)
(1.10858 0.0945673 0)
(-0.0282528 2.28001 6.91657e-20)
(-0.0299399 2.02794 3.36818e-21)
(-0.0251185 2.03791 0)
(-0.0299153 2.44938 -6.8865e-20)
(-0.0275278 2.40752 -6.48262e-21)
(-0.0345509 2.47697 8.74195e-21)
(-0.021622 2.62759 -2.89995e-20)
(-0.0263462 2.5699 1.48093e-21)
(-0.0248074 2.52304 -9.90804e-21)
(-0.0172535 2.62092 1.96638e-20)
(-0.0214119 2.62301 -2.25519e-20)
(-0.00966292 1.49971 -3.50528e-22)
(-0.00445348 1.63047 -5.12086e-20)
(0.377698 1.44829 -1.22409e-19)
(0.371883 1.38067 1.59784e-20)
(0.648186 1.43941 -2.34538e-19)
(0.524982 1.5092 -1.48069e-19)
(0.578517 1.46768 0)
(0.606777 2.42458 2.19592e-19)
(0.667334 2.43339 3.40438e-19)
(0.417719 2.51679 9.15117e-20)
(0.399936 2.54331 -6.26052e-19)
(0.502373 2.48224 5.73795e-19)
(0.553573 2.47757 0)
(0.48663 2.52716 -5.58282e-19)
(0.258562 2.59783 1.14438e-18)
(0.358634 2.56651 -6.34145e-20)
(0.28274 2.65517 -1.58361e-18)
(0.970573 2.39191 7.19461e-19)
(0.848813 2.39268 0)
(1.01145 0.00138484 2.52276e-20)
(1.01537 -0.00518999 -2.06039e-20)
(1.01774 -0.00394594 -3.76665e-19)
(1.0156 -0.00105384 3.75319e-19)
(1.01312 0.00183269 0)
(0.636479 1.30233 0)
(0.677529 1.18752 0)
(0.792124 1.11778 0)
(0.665113 1.14533 0)
(1.19604 2.62942 5.13793e-20)
(1.08884 2.38119 0)
(0.819083 2.17229 3.57471e-21)
(0.822034 2.43487 0)
(0.916837 2.52499 -4.36655e-19)
(0.948362 2.47444 2.91523e-19)
(0.788958 0.165424 0)
(0.729892 0.149353 1.58963e-19)
(0.90336 0.157815 9.28977e-19)
(0.814922 0.138932 -3.47548e-19)
(0.760329 0.0896181 -1.06821e-18)
(1.0884 0.245137 -8.45657e-19)
(0.987472 0.314337 -9.77683e-21)
(0.932194 0.349582 8.1517e-19)
(1.01505 0.259558 6.95046e-19)
(0.931156 0.20557 -1.22361e-18)
(0.891289 0.219468 1.53061e-19)
(0.933084 0.315968 -3.19281e-19)
(0.906734 0.222432 0)
(1.00158 0.209224 5.99204e-19)
(1.05581 0.218523 0)
(1.05282 0.228189 0)
(1.12564 0.124394 2.68882e-19)
(1.06474 0.193782 -1.05253e-20)
(1.08 0.24685 -1.54029e-19)
(1.11372 0.210406 0)
(1.02283 0.0494402 5.94777e-19)
(1.03768 0.0634334 7.41772e-19)
(1.03238 0.0467016 -5.90869e-19)
(1.04215 0.0694423 -4.97458e-19)
(1.01441 0.0746883 -7.52034e-19)
(0.987079 0.169634 0)
(0.989838 0.107312 0)
(0.960241 0.0718857 -4.85369e-19)
(0.903547 0.0981617 1.90319e-19)
(1.03959 0.11653 6.8733e-19)
(1.07631 0.136669 -7.87148e-19)
(1.07003 0.179783 7.07694e-19)
(1.03562 0.15598 0)
(1.08649 0.122593 0)
(1.05721 0.111726 -3.22867e-19)
(1.04361 0.108847 -5.59093e-19)
(0.587371 1.08692 1.18279e-19)
(0.61398 1.40585 -2.18062e-20)
(1.14539 2.72051 -2.47221e-19)
(1.19797 3.10469 2.90944e-21)
(1.25396 2.73019 -1.28746e-19)
(1.29383 2.70122 2.10482e-20)
(1.2695 2.32465 -3.7947e-20)
(1.1857 3.01018 -7.46959e-20)
(1.20516 2.9671 2.2487e-19)
(1.17983 3.25828 -1.21822e-19)
(1.39775 2.97297 1.51885e-19)
(1.40932 2.90948 0)
(0.571017 0.818717 -4.78519e-20)
(0.213038 1.21358 4.75753e-19)
(0.51435 0.360016 5.35771e-19)
(0.399267 0.122631 6.08997e-19)
(0.488785 0.307099 6.532e-19)
(0.547307 0.421091 -1.06148e-18)
(0.553521 0.408609 8.739e-19)
(0.476028 0.313496 -3.2928e-19)
(0.356831 0.253621 7.45047e-19)
(0.72649 0.252855 -3.45191e-19)
(0.680585 0.284749 0)
(0.617005 0.197881 7.88048e-21)
(0.738281 0.505684 3.60269e-19)
(0.70771 0.478044 -1.30653e-18)
(0.636298 0.435035 1.62689e-20)
(0.627218 0.414425 0)
(0.715704 0.715162 3.74792e-19)
(0.832004 0.797434 4.13969e-19)
(0.769277 0.847031 -4.82362e-19)
(0.900881 0.819829 -1.53633e-19)
(0.935725 0.86296 -3.59522e-20)
(0.943359 0.870372 3.68751e-20)
(0.88017 0.675769 -6.73361e-19)
(0.952342 0.722807 1.42833e-19)
(1.00627 0.726821 0)
(1.00528 0.702824 -1.83073e-19)
(1.03157 0.338716 2.11902e-19)
(1.15889 0.33863 2.57721e-19)
(1.07468 0.282708 3.45857e-19)
(0.999173 0.38486 -4.22845e-19)
(1.05546 0.485423 0)
(1.13776 0.426908 0)
(0.904066 0.421262 1.18622e-21)
(0.849139 0.320223 0)
(0.894233 0.309297 3.90697e-19)
(0.9193 0.348191 4.25608e-21)
(0.985349 0.493936 1.87759e-18)
(0.918291 0.553212 4.8449e-19)
(0.940256 0.509275 -5.12319e-19)
(0.858396 0.486601 5.45834e-19)
(0.826171 0.460904 3.47081e-19)
(0.804283 0.435918 -3.40191e-19)
(1.02815 -0.000379273 6.22492e-19)
(1.0204 0.000550808 0)
(1.01905 0.00137298 4.06207e-19)
(1.02263 -0.000738086 -9.19589e-19)
(1.02254 0.00455862 4.4796e-19)
(1.02002 0.0115996 -9.37595e-19)
(1.02075 0.0113902 0)
(1.01968 0.0121291 -1.95239e-19)
(1.01654 0.00778124 4.89325e-19)
(1.01668 0.0108905 -2.45573e-19)
(1.01727 0.0105852 1.79691e-19)
(0.0263306 1.32993 0)
(0.0350034 1.38781 0)
(0.0458837 1.33613 0)
(0.0482664 1.27614 0)
(0.0810305 1.40611 -8.64027e-20)
(0.0878926 1.37567 2.404e-20)
(0.0930614 1.57309 3.66414e-21)
(0.102611 1.40881 -3.80729e-20)
(0.0404729 1.48065 4.92866e-20)
(0.0450675 1.47675 -3.86679e-20)
(0.0697439 1.39749 -1.90424e-20)
(0.0589364 1.39923 7.79769e-20)
(0.0524572 1.37622 1.21497e-20)
(0.0395253 1.39447 7.92327e-21)
(0.100606 2.3744 -1.09617e-19)
(0.0906147 2.41794 0)
(0.142216 2.01307 8.9865e-20)
(0.134155 1.70132 3.22236e-20)
(0.216915 2.01414 -8.04141e-20)
(0.223894 2.42027 0)
(0.247659 2.38352 -6.10683e-19)
(0.292985 2.37766 4.46303e-19)
(0.252317 1.98752 -1.93921e-19)
(0.144804 2.15673 1.38188e-19)
(0.108917 2.26007 0)
(0.0164535 1.86019 -1.84038e-20)
(-0.00373997 2.38212 -1.27998e-20)
(0.00384637 2.1395 0)
(0.00712654 2.44406 -1.69472e-20)
(0.0262534 2.2816 2.09111e-20)
(0.00838911 1.42195 -1.06126e-20)
(0.00809882 1.40415 1.78799e-19)
(0.007324 1.41208 -5.73182e-20)
(0.0175134 1.41796 -5.15021e-20)
(0.02127 1.44841 0)
(0.00578824 1.39486 0)
(-0.000547748 1.30408 -6.81089e-20)
(0.00115158 1.38044 1.92902e-20)
(0.00635139 1.38223 0)
(0.00749494 1.29765 -5.28049e-20)
(0.0142796 1.22301 1.05301e-19)
(1.04243 0.0150409 0)
(1.04894 0.0104968 -6.49443e-20)
(1.03918 0.0242866 -4.69808e-19)
(1.04957 0.0232584 0)
(1.05468 0.0225783 0)
(1.03629 0.0130415 -6.76942e-21)
(1.02998 0.0134964 7.58203e-19)
(1.03186 0.0175018 9.17105e-19)
(1.02557 0.0211542 0)
(1.02211 0.0215658 0)
(1.03558 0.0257418 4.68664e-19)
(1.02644 0.0283204 0)
(1.02302 0.0289081 0)
(-0.020257 2.02932 0)
(-0.00854988 1.6585 -2.14888e-21)
(-0.00886953 1.76438 -3.18356e-20)
(-0.00400654 1.38932 0)
(-0.00862836 1.55982 -2.80827e-20)
(-0.0140427 1.46747 1.77594e-20)
(-0.00856777 1.40135 0)
(0.404023 1.62943 0)
(0.365653 1.31834 -2.7009e-20)
(0.276097 1.34682 0)
(0.435119 1.31611 -3.75603e-20)
(0.47304 1.47525 0)
(0.457429 1.41633 4.02751e-20)
(1.04069 2.67339 -1.52918e-20)
(0.985085 2.41116 -9.03881e-19)
(0.947624 2.21106 1.01534e-18)
(0.865515 2.38483 2.43855e-19)
(0.853127 2.49019 0)
(0.922028 2.48523 0)
(0.95435 2.38501 0)
(0.93042 2.37553 -9.42067e-19)
(0.691824 2.45496 -3.80889e-19)
(0.80085 2.43858 -9.82252e-20)
(0.808169 2.41679 7.40276e-20)
(0.704378 2.40495 0)
(0.809627 2.39891 0)
(0.770363 2.41517 -3.68928e-19)
(0.766138 2.46893 0)
(0.627256 1.06652 0)
(0.515177 0.862951 -5.54957e-19)
(0.521151 0.934364 -3.21535e-20)
(0.501394 1.07328 0)
(0.488204 0.982098 8.49892e-19)
(0.798183 0.885323 -1.33217e-19)
(0.80325 1.02061 0)
(0.783979 1.00326 1.83366e-19)
(0.672132 1.02082 0)
(0.66396 0.925286 0)
(1.16382 2.75679 -2.20216e-19)
(1.1389 2.81505 -8.99314e-20)
(0.923646 2.33811 7.53945e-20)
(0.900309 2.31888 -7.61741e-20)
(1.13344 2.73466 0)
(1.08541 2.70249 9.15095e-20)
(1.10159 2.49779 -2.97996e-19)
(1.00318 2.25711 -2.8468e-20)
(0.497809 1.33265 0)
(0.517221 1.07905 -1.04197e-19)
(0.593418 1.18167 0)
(0.844824 0.22967 0)
(0.755829 0.179293 0)
(0.671793 0.141121 0)
(0.850186 0.229711 -6.15615e-19)
(0.747863 0.221182 3.60714e-19)
(0.9098 0.0901127 -3.85705e-19)
(0.933228 0.140864 0)
(0.907968 0.145992 1.72843e-19)
(0.844275 0.104527 6.9237e-19)
(0.798578 0.0757127 -4.35586e-19)
(1.09752 3.34995 -6.72581e-19)
(1.1649 3.27325 0)
(1.11601 3.43486 -1.56896e-18)
(0.657325 3.58072 1.30625e-18)
(1.0263 3.07802 1.19011e-19)
(0.531509 0.786338 5.67923e-19)
(0.511982 0.754726 0)
(0.353611 0.377809 -1.44779e-19)
(0.482647 0.632628 8.56797e-19)
(0.5439 0.360974 -1.91447e-19)
(0.515627 0.458796 2.26147e-19)
(0.688888 0.525623 4.65486e-19)
(0.734234 0.560023 0)
(0.661055 0.567743 0)
(0.642885 0.532553 0)
(1.01519 0.610502 9.08345e-20)
(0.968983 0.59216 -4.6908e-19)
(0.979119 0.604579 3.59325e-19)
(1.04385 0.547425 -3.46559e-19)
(1.08884 0.516662 0)
(1.09058 0.599283 -9.14352e-20)
(0.886201 0.416185 -7.71818e-19)
(0.875382 0.404205 -9.92214e-19)
(0.802699 0.40108 6.09814e-19)
(0.815768 0.368859 -6.30276e-19)
(0.856556 0.329448 -4.95686e-19)
(0.803149 0.332933 6.07043e-19)
(1.02655 0.00667327 -4.68799e-19)
(1.02617 0.00679341 9.44418e-19)
(1.02993 0.000939511 6.03239e-19)
(1.03417 0.00157529 -7.24261e-19)
(1.03394 0.0119645 0)
(1.02965 0.0120494 -1.18753e-18)
(0.0798271 1.64328 1.22602e-20)
(0.0670271 1.60055 0)
(0.10604 1.69864 5.36883e-20)
(0.113652 1.67805 -4.53633e-20)
(0.0810346 1.57024 -6.56329e-21)
(0.0783014 1.57182 0)
(0.00650744 1.69593 0)
(-0.00772298 1.5084 1.49459e-20)
(-0.00630161 1.4484 -1.34271e-20)
(-0.0112855 1.5568 3.1326e-21)
(-0.0022442 1.89168 2.18132e-20)
(-0.0141988 1.94672 -8.44188e-21)
(0.493901 1.36312 -2.62233e-19)
(0.496352 1.35855 2.86709e-19)
(0.448621 1.30871 -1.20593e-20)
(0.428599 1.2932 7.69968e-21)
(0.627417 1.31125 0)
(0.555807 1.40421 1.1529e-19)
(0.556812 1.40715 -1.12256e-19)
(0.484227 1.29509 1.16267e-20)
(0.524759 1.24973 0)
(0.589372 1.21561 0)
(0.665553 2.41839 5.60822e-19)
(0.661274 2.44772 1.28505e-18)
(0.716385 2.46293 -8.83462e-19)
(0.614302 2.43474 -2.01654e-19)
(0.556899 2.52921 2.76221e-19)
(0.497018 2.49479 -7.15399e-19)
(0.993114 2.3899 -5.71962e-19)
(1.02533 2.40764 0)
(0.951884 2.19498 -6.25748e-19)
(1.05622 2.68354 0)
(1.05517 2.66477 0)
(0.603728 2.29216 1.06274e-20)
(1.11956 3.07087 7.85597e-20)
(0.997904 2.96872 -1.27779e-19)
(0.323947 0.804767 0)
(0.324369 0.687772 -3.03025e-19)
(0.528919 0.621487 -3.0693e-19)
(0.366934 2.13503 0)
(0.404604 2.7449 -8.37677e-20)
(0.41435 2.47993 0)
(0.723892 0.680551 -7.99051e-19)
(0.789596 0.686416 1.11389e-18)
(0.796388 0.655438 -1.05589e-18)
(0.697533 0.639996 -1.01357e-19)
(0.757507 0.598644 -4.17435e-19)
(0.97194 2.75477 -5.95008e-20)
(1.01432 2.76086 -2.08717e-19)
(0.554791 2.21078 4.31787e-19)
(0.606192 1.73688 -3.43025e-19)
(0.705167 1.85555 -4.93611e-19)
(0.978116 2.39513 -1.37544e-19)
(0.977836 2.34866 3.63734e-19)
(0.648557 1.7675 3.32549e-20)
(0.454866 1.29907 1.74317e-19)
)
;

boundaryField
{
    wall-4
    {
        type            noSlip;
    }
    velocity-inlet-5
    {
        type            fixedValue;
        value           uniform (1 0 0);
    }
    velocity-inlet-6
    {
        type            fixedValue;
        value           uniform (0 3 0);
    }
    pressure-outlet-7
    {
        type            zeroGradient;
    }
    wall-8
    {
        type            noSlip;
    }
    frontAndBackPlanes
    {
        type            empty;
    }
}


// ************************************************************************* //
