/*--------------------------------*- C++ -*----------------------------------*\
  =========                 |
  \\      /  F ield         | OpenFOAM: The Open Source CFD Toolbox
   \\    /   O peration     | Website:  https://openfoam.org
    \\  /    A nd           | Version:  6
     \\/     M anipulation  |
\*---------------------------------------------------------------------------*/
FoamFile
{
    version     2.0;
    format      ascii;
    class       volScalarField;
    location    "35";
    object      p;
}
// * * * * * * * * * * * * * * * * * * * * * * * * * * * * * * * * * * * * * //

dimensions      [0 2 -2 0 0 0 0];

internalField   nonuniform List<scalar> 
918
(
0.587882
1.32256
0.00828485
0.587765
0.0196403
1.29036
-0.440619
0.753682
0.568961
-0.0521781
0.00370725
0.565488
1.14748
0.913839
-1.12601
0.0818915
0.708119
-0.364656
0.566859
0.0170845
0.787518
0.5757
0.578173
0.568971
0.625549
0.87332
1.02407
0.0103489
-0.0113351
-0.00206328
0.073092
0.078318
0.065957
1.17351
1.22542
1.24858
0.53615
0.365188
-0.328244
-0.382124
-0.363399
-0.464099
0.745721
0.745832
-0.128722
0.754173
0.7625
0.554875
0.568345
0.569181
0.570375
0.56922
0.570524
0.458623
-0.0568074
-0.0888475
-0.0330347
-0.022885
0.117179
0.000852914
-0.00158113
0.00754557
0.0137027
0.48698
0.561613
0.558976
0.570529
0.579701
1.26272
1.23647
1.26251
1.17313
1.19068
1.12449
1.09742
0.936219
0.959443
0.8968
0.885445
-1.59233
-2.55174
-0.540982
-0.256779
-0.0115631
0.0758896
0.0795168
0.698505
0.698004
0.709136
0.718387
1.09185
-0.33385
-0.405813
0.567312
0.565854
0.575201
0.576106
0.571045
0.571064
0.0249598
0.0307459
0.00975001
0.0170575
0.0213085
0.778593
0.778023
0.568423
0.565886
0.588975
0.61153
0.600793
0.31333
0.63288
0.646663
0.728194
0.879961
0.867675
0.879592
0.999217
0.96672
1.05634
1.07802
-0.0213928
-0.0260025
0.0594253
0.0629667
0.0810745
0.531954
0.525645
0.552224
0.539699
0.542654
0.269185
0.117049
0.447891
0.472001
-0.244624
-0.288982
-0.395548
-0.393862
-0.504561
0.638134
0.741635
0.738687
-0.151399
-0.0730741
-0.200516
-0.0129518
-0.0706375
0.546025
0.552128
0.548288
0.563458
0.55767
0.560078
0.572456
0.569597
0.571214
0.517206
0.646736
0.37731
0.348264
-0.213686
-0.108105
-0.200332
-0.0121578
-0.00789469
0.126613
0.152019
0.104533
0.0956122
-0.00204067
0.00174313
-0.00143597
0.0221135
0.023008
0.478852
0.466648
0.497779
0.504982
0.55071
0.551876
0.555806
0.553921
1.04858
1.07124
1.07742
1.05364
-3.54253
-6.19984
0.0964449
0.259923
-0.0549779
-0.0339764
-0.0318154
0.0662862
0.000544706
0.00558276
0.0616452
0.0675745
0.073144
0.0708915
0.689297
0.687588
1.05781
1.08069
1.03819
1.01657
0.556618
0.558582
0.563187
0.560095
0.0279332
0.0291224
0.0306749
0.764134
0.771518
0.771437
0.274282
0.188799
0.361737
0.39132
0.678084
0.655575
0.672959
0.788315
0.827433
1.09482
1.119
1.10305
1.11589
1.16673
1.18963
1.1547
0.511183
0.521745
0.516205
0.555429
0.553006
0.554095
0.549931
0.551204
0.549642
0.00387972
-0.372357
0.529228
0.529129
0.513519
0.521016
0.722029
0.802526
0.719233
0.729553
0.727693
0.0325374
-0.0146113
0.306941
0.276736
0.420532
0.453639
0.436451
1.02368
0.984196
1.03209
1.00737
0.97225
0.995765
-0.309965
-2.09006
-1.07636
0.66913
0.468642
0.561635
0.083965
0.0669434
0.0755691
1.0691
1.10901
0.716393
0.903573
0.858145
0.855168
0.883406
0.94039
0.87172
0.906482
0.939444
0.91821
0.594442
0.537398
0.54969
0.879468
0.936012
0.154778
0.0824686
0.0589298
0.174221
0.234726
0.204824
1.0884
0.994042
1.06042
0.566128
0.567034
-0.0103685
0.00722584
0.571098
0.570818
0.0696629
0.0888217
0.580361
-0.900787
0.168894
0.560377
0.55047
0.567062
-0.0165679
0.390279
-0.00180232
0.101843
0.0725898
0.561558
0.49846
0.456996
0.00914974
0.0683044
0.0265744
-0.156268
0.563877
0.562248
0.56644
0.567302
0.568041
0.0135605
0.0109812
-0.0245918
0.0192982
0.0156307
0.0154871
0.53112
0.549731
-0.127168
0.566704
0.568807
0.568519
0.562545
0.567563
0.566109
0.0692074
0.0734902
0.0610844
0.257386
0.386506
0.769725
0.849427
0.715423
0.54464
0.242328
0.701959
0.756899
0.679177
0.813194
0.732119
0.741237
0.231335
0.0909541
0.230622
0.167351
0.557381
0.55671
0.548003
0.545008
0.561856
0.559645
0.564672
0.56191
0.564982
0.566166
0.0206638
-0.0141606
-0.025704
-0.0790723
0.35557
0.615372
0.283198
0.314459
0.212742
0.0149327
0.0105814
-0.00180206
0.00229141
0.0556453
0.0578011
0.0974376
0.104827
0.0887117
0.069533
0.0496104
0.0548069
0.0438073
0.555319
0.554441
0.560089
0.568362
0.507722
0.511444
0.477886
0.49693
0.483399
0.424947
0.455141
0.432679
0.0467972
0.0366649
0.029862
0.063772
0.0689172
0.0276835
0.0346796
0.0178636
0.0272038
0.0365431
0.0391263
0.0388871
-0.119336
-0.235084
1.01171
0.940906
0.17316
0.553832
0.559468
0.556645
0.561207
0.56438
0.565072
0.56272
0.559287
0.550016
0.551512
0.548121
0.549032
-0.0712532
-0.178144
-0.00714588
-0.0775616
0.191242
0.667665
0.395672
0.344837
0.329914
0.548711
0.75425
0.688828
0.766078
0.76863
-0.350877
0.0680087
-0.275873
0.272707
0.256174
0.791954
0.835943
0.854838
0.810538
0.765336
0.0117964
0.585045
0.00191366
0.0468098
0.233769
0.127338
0.750919
0.70991
0.715794
0.730026
0.749773
0.725839
0.70984
0.700793
0.730931
0.735627
0.545295
0.287489
0.250469
0.201777
0.691882
0.582556
0.637505
0.559855
0.552686
0.555312
0.554145
0.535771
0.542922
0.53875
0.545231
0.548685
0.55654
0.556678
0.552713
0.554604
-0.00161728
-0.00196342
-0.0181061
-0.0695744
-0.064007
-0.105606
-0.0432574
0.156403
0.105917
0.283503
0.417639
0.126776
-0.00443411
0.00807934
0.0637464
0.230304
0.227318
0.112575
0.223794
0.186233
0.178007
0.269634
0.290516
0.0316007
0.0277971
0.0255323
0.0176386
0.0757675
0.164602
0.159577
0.0646672
0.0500515
0.0108858
0.0176897
0.0505264
0.0366111
0.0406596
0.0661287
0.00341218
0.0532328
0.0667337
0.067503
0.0565209
0.0587517
0.548896
0.550879
0.550782
0.55966
0.573486
0.588111
0.552621
0.528526
0.51977
0.522836
0.496289
0.505273
0.501055
0.51559
0.536868
0.545574
0.543295
0.54583
0.528531
0.530096
0.51598
0.520571
0.49216
0.474331
0.464506
0.0159352
0.0171216
0.0246824
0.023704
0.0334226
0.0342172
0.0690731
0.0814108
0.0620502
0.0693395
0.0627358
0.0400002
0.0428921
-0.0230351
0.0545448
-0.126184
-0.174173
-0.224001
0.934216
1.07007
0.852579
0.637179
0.638005
0.871693
0.997196
0.60287
0.794965
0.82137
0.612045
0.893843
0.557753
0.557392
0.555257
0.55446
0.555465
0.0314433
0.130245
0.152488
0.201985
0.316209
0.422899
0.347834
0.235337
0.369917
0.395427
0.668042
0.678418
0.625325
0.646573
0.642884
0.4669
0.548858
0.590186
0.5399
0.609906
0.642654
0.593105
0.63481
0.553744
0.50577
0.499511
0.452103
0.486688
0.468577
0.442708
0.548663
0.525902
0.536657
0.526967
0.547766
0.57105
0.571739
0.594666
0.60949
0.52965
0.480487
0.497064
0.523482
0.481005
0.496304
0.516775
0.21673
0.122413
0.28679
-0.0457342
0.0479149
0.084341
0.043497
-0.00409164
0.303717
-0.341702
-0.283553
-0.968479
0.525093
0.916602
0.712641
0.726273
0.746251
0.726662
0.734587
0.750439
0.75813
0.684411
0.699875
0.703655
0.665253
0.697077
0.697047
0.704725
0.545901
0.457125
0.456401
0.394267
0.262702
0.299661
0.472934
0.412683
0.346173
0.341098
0.512568
0.381547
0.45668
0.513044
0.445698
0.376188
0.605204
0.654364
0.641421
0.613364
0.524975
0.547924
0.569878
0.609816
0.635996
0.663691
0.544255
0.550374
0.551346
0.548643
0.546766
0.549806
0.549934
0.552249
0.552837
0.555343
0.554619
0.012874
0.0235638
0.0112007
0.00581719
0.0746761
0.0466033
0.0502294
0.0130786
0.0451941
0.0458352
0.0254802
0.0126196
0.0202269
0.0320553
0.124465
0.140323
0.151921
0.11345
0.299777
0.462556
0.531701
0.396998
0.257567
0.281503
0.357235
0.064549
0.0824824
0.0673561
0.114991
0.0958765
0.0283669
0.0230913
0.0313606
0.0325307
0.0421944
0.0342583
0.0486012
0.0498982
0.0392991
0.0251937
0.0298955
0.529919
0.523051
0.526557
0.519324
0.517623
0.533673
0.53796
0.539159
0.544504
0.546801
0.536896
0.54273
0.546446
0.065651
0.0501663
0.0499213
0.0496568
0.0546881
0.0548515
0.0539568
0.165823
0.0724479
0.105406
0.0386014
-0.081492
-0.0219059
0.53798
0.533959
0.530992
0.751879
0.594199
0.50999
0.606566
0.723958
0.309459
0.515682
0.347125
0.928503
0.826239
0.971559
0.596469
0.287558
0.449359
0.463148
0.298932
0.425148
0.39159
0.268204
0.30714
0.327727
0.411164
0.294944
0.273064
0.0323652
0.209933
0.323211
0.305099
0.434281
0.492051
0.298455
0.212998
0.16248
0.655263
0.671187
0.683337
0.654399
0.675709
0.610956
0.601371
0.619368
0.626968
0.62166
-0.607339
-0.196161
-1.3992
-0.807058
-0.357008
0.550612
0.540516
0.78551
0.692786
0.747946
0.732276
0.666526
0.632127
0.664392
0.692276
0.384234
0.488611
0.454607
0.464069
0.401892
0.329163
0.621428
0.623306
0.646295
0.670674
0.645251
0.673152
0.542749
0.542498
0.541558
0.537974
0.536405
0.539331
0.0815125
0.0569711
0.0899177
0.0844216
0.0707662
0.0743537
0.0551669
0.0469782
0.0495464
0.0541403
0.059088
0.0527373
0.210336
0.153631
0.0630627
0.108921
0.0402157
-0.0404079
-0.0431842
0.0445954
0.144102
0.125327
0.429022
0.703891
0.529442
0.696697
0.487798
0.58924
0.513679
0.485281
0.516086
0.412399
0.501624
0.0532894
-0.140324
-0.199676
0.848324
0.804945
0.592459
0.338071
0.226185
0.527631
0.564576
0.523704
0.558535
0.609282
0.597141
0.0385969
0.138041
0.200033
0.50951
0.311201
0.325408
0.319876
0.47517
0.45344
)
;

boundaryField
{
    wall-4
    {
        type            zeroGradient;
    }
    velocity-inlet-5
    {
        type            zeroGradient;
    }
    velocity-inlet-6
    {
        type            zeroGradient;
    }
    pressure-outlet-7
    {
        type            fixedValue;
        value           uniform 0;
    }
    wall-8
    {
        type            zeroGradient;
    }
    frontAndBackPlanes
    {
        type            empty;
    }
}


// ************************************************************************* //
