/*--------------------------------*- C++ -*----------------------------------*\
  =========                 |
  \\      /  F ield         | OpenFOAM: The Open Source CFD Toolbox
   \\    /   O peration     | Website:  https://openfoam.org
    \\  /    A nd           | Version:  6
     \\/     M anipulation  |
\*---------------------------------------------------------------------------*/
FoamFile
{
    version     2.0;
    format      ascii;
    class       volVectorField;
    location    "35";
    object      U;
}
// * * * * * * * * * * * * * * * * * * * * * * * * * * * * * * * * * * * * * //

dimensions      [0 1 -1 0 0 0 0];

internalField   nonuniform List<vector> 
918
(
(0.985047 -0.000705238 0)
(0.00533346 2.96625 0)
(-0.0332952 0.827161 0)
(0.979572 0.00195743 0)
(-0.0890133 1.63305 -7.15158e-20)
(-0.0070867 2.94855 -2.77012e-18)
(0.821266 1.14213 3.86177e-19)
(0.336495 0.125516 -1.67342e-20)
(0.999918 -0.000251199 0)
(0.0688379 0.770057 0)
(-0.00735417 0.55269 0)
(0.736414 -0.0138944 0)
(0.0102225 2.93153 0)
(0.00324419 2.7946 0)
(-0.000854347 3.19223 7.82664e-19)
(-0.0171369 1.81524 -7.4153e-20)
(0.394747 0.0326907 1.10434e-18)
(0.238782 1.15562 2.94696e-19)
(0.964522 0.00666606 0)
(-0.009101 0.634051 0)
(0.0977459 0.192456 -7.88335e-19)
(1.00183 -0.00457162 0)
(0.999853 -0.00893893 0)
(0.975143 -0.00607018 0)
(0.600621 -0.0364209 0)
(0.0231455 2.64332 0)
(-0.0124335 2.91207 1.02778e-18)
(-0.0250052 0.818389 0)
(-0.0975737 1.02315 0)
(-0.0256601 0.806993 0)
(-0.198853 2.56116 0)
(-0.141707 1.78487 5.66276e-20)
(-0.0803694 1.62643 0)
(-0.022159 2.9876 -1.00425e-22)
(-0.0165007 3.0055 2.15254e-18)
(0.00230582 3.0006 0)
(0.870934 -0.00937492 0)
(0.374662 0.917175 1.96386e-19)
(0.823475 1.15316 -4.36941e-19)
(0.95946 1.00713 4.73369e-19)
(0.688281 1.23729 -8.80826e-20)
(0.699582 1.20896 5.12793e-19)
(0.368071 0.220904 1.63255e-20)
(0.351103 0.105739 0)
(1.13868 0.516419 0)
(0.334016 0.227921 7.44965e-20)
(0.307441 0.146349 -7.73074e-20)
(0.920344 -0.00696343 0)
(1.00025 7.63206e-05 0)
(0.99991 0.000313828 0)
(1.0037 -0.0072915 0)
(1.00091 -0.000945955 0)
(1.0001 -1.93007e-05 0)
(0.0983286 1.81908 -8.71805e-19)
(0.039656 0.922828 0)
(0.121467 0.839583 0)
(0.0164664 0.882303 0)
(0.0528333 0.697026 0)
(0.0163175 2.01138 0)
(-0.00628147 0.744402 0)
(0.00723229 0.560795 0)
(-0.00632316 0.749553 0)
(-0.0186311 0.567944 0)
(0.838817 -0.0144505 0)
(0.84692 0.0304 0)
(0.767995 -0.00324075 0)
(0.820093 0.0411229 0)
(0.700643 -0.0188965 0)
(0.0139583 3.0002 1.03073e-18)
(0.0111874 3.00597 0)
(0.00627435 3.00389 0)
(0.0119012 2.9971 1.17464e-23)
(0.00829112 2.95872 -1.53192e-18)
(0.0122086 2.98289 0)
(0.0089927 2.90474 0)
(0.0208557 2.93156 2.43802e-24)
(0.00409848 2.82425 0)
(0.0257605 2.91884 0)
(-0.000428711 2.74411 0)
(0.310055 3.59235 0)
(-0.122787 3.67572 0)
(0.152521 3.28336 -7.28436e-19)
(0.00619078 3.01606 0)
(-0.173467 2.33289 0)
(-0.0335399 2.06304 7.31265e-20)
(0.00521043 1.88355 -6.97386e-20)
(0.470765 0.135665 -3.81975e-19)
(0.397325 0.00287056 -3.68948e-19)
(0.452411 0.162603 -1.14863e-18)
(0.380636 0.0516068 -7.56371e-19)
(0.256584 0.982326 0)
(0.341107 1.28493 -3.16845e-19)
(0.41377 1.18288 5.23832e-19)
(0.987975 0.00805042 0)
(0.943444 0.00581269 0)
(1.00029 0.000674019 0)
(1.00254 0.00907194 0)
(1.00315 0.00890479 -2.901e-18)
(0.992124 0.0095227 2.19218e-18)
(-0.000501588 0.781024 0)
(-0.0138999 0.61673 0)
(0.0164271 0.86381 0)
(-0.025089 0.798678 0)
(0.0062367 0.631896 0)
(0.131022 0.204417 2.44041e-19)
(0.181463 0.178734 0)
(0.993601 -0.00769625 0)
(0.953968 -0.00647632 0)
(0.772184 0.0497054 0)
(0.708452 0.0559272 0)
(0.65942 -0.0257866 0)
(0.962855 -0.00626788 0)
(0.637921 0.0566352 0)
(0.466073 -0.0397827 1.60618e-18)
(-0.0408807 2.8611 8.41717e-19)
(0.0337977 2.91384 0)
(0.0425601 2.89187 0)
(0.00351038 2.70138 0)
(-0.00852747 2.98666 9.87294e-19)
(-0.0141154 2.89481 0)
(-0.0109355 2.9917 -3.03178e-18)
(-0.0116956 2.92968 1.03072e-18)
(-0.0604049 1.19964 0)
(-0.0948625 1.31116 0)
(-0.0476997 2.0354 -1.80088e-21)
(-0.0929543 1.93096 0)
(-0.0602617 1.73475 0)
(0.938005 -0.00558083 0)
(0.85578 -0.0102953 0)
(0.863964 0.00639404 0)
(0.949039 -0.00636195 0)
(0.882981 -0.00788979 0)
(0.49923 1.1185 -2.47473e-19)
(0.547078 1.19008 0)
(0.335609 0.849589 3.64281e-20)
(0.279485 0.714801 0)
(0.91976 1.0432 -1.29558e-19)
(1.03402 0.842875 2.50105e-19)
(0.401242 1.34245 0)
(0.550038 1.29722 0)
(0.599142 1.23222 0)
(0.0918596 0.172611 -3.1512e-19)
(0.38714 0.212009 0)
(0.350864 0.100936 2.14235e-19)
(0.996401 0.89848 0)
(1.06157 0.741089 0)
(1.09133 0.674357 -1.762e-19)
(1.11811 0.584384 0)
(1.17275 0.370825 4.47857e-20)
(0.957113 -0.00725585 0)
(0.962523 -0.00820199 0)
(0.900472 -0.00720064 0)
(0.983879 -0.00813678 0)
(0.974329 -0.00809061 0)
(0.936411 -0.00651659 0)
(1.00019 0.00250545 0)
(1.00077 0.00126072 0)
(0.999997 0.000780543 0)
(0.0398679 2.07287 4.79781e-19)
(0.147213 1.76402 0)
(0.0109153 2.18795 7.56125e-19)
(0.061297 1.87568 -6.47781e-19)
(0.173025 1.137 -2.40334e-19)
(0.0552619 1.00093 0)
(0.122446 1.00065 0)
(0.0120236 0.837439 0)
(0.0326076 0.649845 0)
(-0.00838039 2.22092 -1.61698e-21)
(0.0301533 2.00394 0)
(-0.011468 2.1994 -8.71666e-20)
(0.0138709 2.01057 1.64983e-19)
(0.0134109 0.800719 0)
(0.01265 0.762197 0)
(0.0283986 0.60597 0)
(-0.00905453 0.754806 0)
(-0.0224176 0.58308 0)
(0.935525 0.0132729 0)
(0.849686 -0.0112382 0)
(0.925971 0.00430174 0)
(0.842613 -0.0117946 0)
(0.813255 0.00129696 0)
(0.901778 0.0205636 0)
(0.878084 0.0250252 0)
(0.78977 -0.00114893 0)
(0.0104522 3.06722 -9.70627e-21)
(0.0149077 3.05943 0)
(0.0123958 2.97037 0)
(0.00755458 2.8766 0)
(0.900862 3.99078 0)
(1.19638 3.38407 9.36388e-19)
(0.0831774 3.09731 0)
(-0.0155021 2.92199 0)
(0.0367821 1.48381 0)
(-0.0510202 2.09442 0)
(-0.11899 1.83755 0)
(-0.142802 2.50317 5.7138e-20)
(-0.146053 2.43891 0)
(-0.189335 2.48948 0)
(0.00973774 1.98445 -2.93043e-22)
(-0.0150484 2.10879 5.64152e-20)
(-0.0258963 2.08405 7.10169e-20)
(0.0116169 1.94313 0)
(0.486197 0.109913 5.772e-19)
(0.40023 -0.0101543 -5.67147e-19)
(0.235255 1.57307 0)
(0.277798 0.713352 -3.3876e-19)
(0.177022 1.67393 -1.13183e-18)
(0.241474 1.18358 1.13255e-18)
(0.90206 0.00630748 0)
(0.967268 0.0103879 0)
(0.975151 0.00973277 0)
(0.92322 0.00612015 0)
(-0.0317014 0.776576 0)
(-0.02246 0.788999 0)
(-0.0172975 0.604268 0)
(0.289167 0.221385 6.84711e-19)
(0.240764 0.208252 -8.10793e-19)
(0.255338 0.156575 0)
(1.08444 0.0853912 3.07243e-20)
(1.06739 0.0388882 0)
(1.00423 0.0409812 0)
(0.903565 -0.00411059 0)
(0.510574 0.0861373 0)
(0.560113 0.0600495 -2.57593e-18)
(0.416962 -0.0196064 9.71569e-19)
(0.0110309 2.97711 8.76824e-19)
(-0.0332478 2.86192 4.57131e-20)
(0.00825115 3.05301 -2.04146e-20)
(0.0157907 3.04337 7.62957e-19)
(-0.0118669 2.99998 3.38234e-20)
(-0.0122694 2.95235 -1.36364e-22)
(-0.0150569 3.01327 -6.28685e-19)
(0.0143719 3.02656 4.42575e-19)
(0.00756909 3.03484 -7.20387e-19)
(0.932993 0.0013988 0)
(0.938389 -0.00186373 0)
(0.845622 -0.00991038 0)
(0.956734 0.011273 0)
(0.943156 0.0125771 0)
(0.882141 0.0061149 0)
(0.917843 0.0165818 0)
(0.926483 0.0142691 0)
(0.838717 0.00387134 0)
(0.673658 1.42065 -2.10676e-20)
(0.692534 1.53239 0)
(0.124395 0.315308 7.5757e-20)
(0.197639 0.630339 5.99338e-19)
(0.232314 0.684052 -3.48485e-19)
(0.219318 0.519029 6.91877e-19)
(0.319054 0.791931 1.65825e-18)
(0.119945 0.220554 3.91371e-19)
(0.430948 0.182833 8.04423e-19)
(0.412292 0.206062 2.07514e-19)
(0.370714 0.0758433 3.99272e-19)
(1.16278 0.435793 1.74152e-20)
(1.18494 0.238634 1.30692e-20)
(-0.00288849 2.22491 3.04534e-19)
(0.0515643 1.93477 0)
(0.96409 0.0305136 0)
(0.941219 0.0177089 0)
(0.863336 -0.016497 0)
(0.0121382 3.07454 0)
(0.0168087 2.94393 1.36353e-18)
(0.0139832 2.95683 0)
(0.00583467 2.85012 -1.35307e-18)
(0.00957134 3.08975 3.34141e-19)
(0.0117013 3.08374 0)
(0.713675 1.83098 -1.63087e-19)
(1.24083 2.63967 5.52947e-19)
(0.698777 2.01009 -1.37953e-18)
(0.0227745 2.97658 -7.75288e-19)
(0.041733 3.00072 0)
(-0.037849 2.88052 0)
(-0.0137673 2.17108 -8.45088e-21)
(-0.0160653 2.14532 -1.19181e-19)
(0.00704737 2.00204 -7.42302e-21)
(0.263754 1.37203 1.07696e-18)
(0.261567 0.508515 -7.37272e-19)
(0.0683856 1.98929 8.169e-19)
(0.122178 1.85917 -9.74429e-19)
(0.206917 1.51015 1.02263e-19)
(0.004524 3.12027 -2.10279e-18)
(0.0170756 3.11991 2.2823e-18)
(-0.00492909 2.98093 9.29758e-19)
(-0.000595076 2.97514 -8.98923e-19)
(-0.0177981 2.87806 -9.46986e-19)
(0.0121869 3.10055 -2.49131e-18)
(0.00545708 3.10601 2.46398e-18)
(0.242875 0.667101 0)
(0.194328 0.635152 -1.26892e-18)
(0.0650547 0.209622 5.57055e-19)
(0.334762 0.90749 1.16396e-18)
(0.184831 0.261489 -1.7935e-18)
(1.16926 0.170869 7.78596e-20)
(1.18392 0.297163 0)
(1.16356 0.117669 -2.61533e-20)
(-0.00673838 2.22972 -2.32492e-21)
(-0.0083688 2.22983 0)
(0.037686 1.97472 0)
(0.311319 1.29978 -3.8728e-19)
(0.34685 1.13141 -8.32683e-19)
(0.211796 0.366154 1.48692e-18)
(1.00642 -0.00975405 0)
(1.00774 -0.00781803 5.33852e-19)
(0.0268526 1.21377 0)
(-0.00178114 1.07844 0)
(1.00245 0.00331703 1.39602e-21)
(1.00328 0.00798938 1.09467e-18)
(-0.115487 2.51278 -7.41681e-20)
(-0.0885344 2.51806 0)
(0.0432676 3.17442 5.68952e-19)
(0.379729 3.55484 0)
(1.1148 0.684571 -8.67986e-20)
(1.01214 0.0107927 -2.75279e-21)
(1.02073 -0.0091619 0)
(1.00162 0.000213728 1.41178e-22)
(0.103129 1.3599 0)
(0.143834 2.59957 0)
(0.020994 1.31974 0)
(-0.00699138 2.63868 7.74205e-20)
(-0.0291416 2.58671 6.23446e-20)
(1.00058 0.0256743 2.50691e-21)
(1.0616 0.00500253 0)
(1.0973 0.0253047 0)
(-0.044384 1.94211 0)
(-0.0336227 2.56607 0)
(0.0230321 1.23319 0)
(0.281221 1.47987 -1.20918e-19)
(1.01145 -0.00909055 0)
(1.00971 -0.0130603 0)
(1.0023 0.000938688 6.8472e-19)
(1.00548 -0.00499192 -8.05602e-19)
(1.00113 -0.000896352 0)
(0.0954526 1.63761 0)
(0.0611448 1.30906 0)
(0.0160633 1.51593 0)
(0.0159658 1.20366 0)
(0.0263382 1.11603 0)
(-0.0112887 1.06008 0)
(1.03487 -0.0048213 0)
(1.01977 0.0148992 -9.79727e-22)
(0.781423 1.30382 2.2197e-19)
(1.0023 0.000366289 -6.82124e-19)
(1.00341 0.00456629 8.14724e-19)
(1.00132 0.00213732 0)
(1.01143 0.00967199 6.8061e-19)
(1.00711 0.00753664 -8.27372e-19)
(1.00744 0.0114346 0)
(-0.0563754 2.58185 0)
(-0.0833259 2.54276 7.03927e-20)
(-0.0623743 2.56124 -5.35473e-20)
(1.22027 0.262464 6.71182e-19)
(1.15386 0.0813281 0)
(0.0473907 3.0902 -1.09509e-18)
(0.0514644 2.87025 -7.7264e-20)
(0.106281 3.20171 1.4658e-18)
(0.124466 3.21459 -3.3091e-19)
(0.146962 3.26271 0)
(0.0237729 3.13793 3.02893e-19)
(0.0633106 3.16211 1.09108e-18)
(0.0637333 3.17958 -5.65853e-19)
(0.0277883 3.12906 0)
(0.653052 0.314434 0)
(0.600338 0.349839 0)
(1.09814 0.714565 2.25197e-19)
(1.06517 0.852912 -2.42373e-19)
(1.15787 0.606564 0)
(1.19091 0.534318 0)
(1.0159 0.0119919 -1.26544e-18)
(1.01478 0.0127954 1.5914e-18)
(1.02546 -0.00890407 0)
(1.0238 -0.0104215 0)
(1.00651 0.00274768 0)
(1.01072 0.00408226 0)
(1.0045 0.00212033 0)
(1.00954 0.00650795 0)
(1.0071 0.00521793 0)
(1.00454 0.00537337 0)
(0.0903899 1.35727 0)
(0.0736356 1.34188 0)
(0.131092 1.40194 0)
(0.124529 1.41034 0)
(0.151855 2.62266 0)
(0.194652 2.68647 -4.63129e-19)
(0.107331 2.683 0)
(0.0818804 2.68274 2.21976e-19)
(0.0300309 2.6888 -2.41265e-19)
(0.0170611 1.31706 0)
(0.0033228 1.25559 0)
(0.0313464 1.33894 0)
(0.0422478 1.2818 0)
(-0.00399711 1.99674 -4.16141e-20)
(-0.0302271 2.61387 5.12259e-20)
(-0.016336 2.68137 7.68173e-20)
(-0.0270571 2.68714 0)
(-0.0351437 2.61898 -1.44733e-19)
(-0.0332877 2.61136 -8.67908e-20)
(0.00732452 1.99685 3.22464e-20)
(-0.0180202 2.42343 -6.87018e-20)
(-0.0208569 2.43812 -8.70772e-20)
(1.01064 0.0366656 1.28085e-18)
(1.00738 0.017186 -1.59586e-18)
(1.00459 0.0414974 -1.30831e-18)
(0.980185 0.0285919 1.64607e-18)
(1.06287 0.00775131 0)
(1.04845 -0.00728528 0)
(1.08981 0.0348814 0)
(1.07337 0.0128802 0)
(1.07144 -0.000686832 0)
(1.13424 0.0706931 0)
(1.10929 0.0409037 0)
(1.11068 0.0329597 0)
(-0.142437 2.47442 -6.75344e-21)
(-0.0301181 2.22848 0)
(-0.116043 2.38477 0)
(-0.045375 2.58456 3.44947e-20)
(-0.0356907 2.59727 -1.59847e-21)
(0.0502495 1.73359 3.57888e-20)
(0.0485389 1.60761 -3.6909e-20)
(0.0508756 1.41395 0)
(0.052348 1.4163 0)
(0.0626623 1.40912 0)
(0.0301837 1.25664 0)
(0.0135132 1.12805 0)
(0.374002 1.49966 1.84579e-19)
(0.415625 1.50863 1.19695e-19)
(0.585407 2.47751 -2.50509e-19)
(0.387298 2.57077 7.63357e-19)
(0.356343 2.07455 8.67341e-20)
(1.02051 -0.00811793 0)
(1.01567 -0.00941444 0)
(1.0148 -0.0133077 0)
(1.00758 -0.000753159 0)
(1.00498 -0.000617423 0)
(1.00797 -0.00460414 0)
(1.0095 -0.00363866 0)
(1.01448 -0.0045032 0)
(1.02053 0.0156078 1.24229e-18)
(1.01779 0.0147665 -1.57451e-18)
(1.02117 0.0176861 -1.25194e-18)
(1.019 0.0160172 1.56784e-18)
(0.744209 1.34457 0)
(0.675748 1.38672 1.75815e-19)
(0.850299 1.22189 4.07822e-20)
(0.879609 1.19714 -5.41115e-20)
(1.16403 2.62237 3.87493e-19)
(0.79843 0.108841 6.35707e-19)
(1.15898 0.095202 0)
(1.19421 0.186392 -5.42475e-19)
(1.17535 0.147487 -2.25738e-20)
(1.01418 0.147097 0)
(0.0888912 3.02603 4.15571e-19)
(0.0898103 2.9055 -1.30921e-18)
(0.038668 2.36404 8.32431e-19)
(0.135414 -0.0549361 -4.02151e-19)
(0.347066 3.45697 -2.16141e-19)
(0.196911 3.34717 0)
(0.227609 3.40751 2.81547e-19)
(0.230514 3.08403 -1.38398e-18)
(0.265067 3.20467 0)
(0.00666325 3.12257 5.6144e-20)
(0.0167364 3.13144 -6.44757e-19)
(0.0157617 3.12716 9.48967e-19)
(0.0340406 3.1402 0)
(0.0322969 3.14987 0)
(1.26148 2.58973 0)
(0.510404 0.834061 -5.61999e-19)
(0.989211 1.03286 4.00242e-20)
(0.961421 1.07 0)
(0.822986 0.955124 -1.39624e-19)
(1.04667 0.895754 2.82633e-20)
(0.406635 0.396086 -9.94027e-19)
(0.715938 0.322217 -2.51043e-20)
(0.675737 0.250043 4.49222e-19)
(0.615835 0.37838 3.31398e-20)
(0.527459 0.36351 -1.33742e-18)
(0.672779 0.342751 0)
(0.697568 0.425103 7.75215e-19)
(0.701596 0.428953 0)
(0.6475 0.362879 0)
(0.611226 0.308656 0)
(0.75701 0.64379 4.49324e-19)
(1.22439 0.291613 -5.54491e-19)
(1.20765 0.434601 0)
(1.22021 0.382708 0)
(0.762475 0.18719 6.73062e-19)
(0.82164 0.543481 -4.22852e-19)
(0.742802 0.502292 7.49654e-19)
(0.939503 0.424746 -8.13e-19)
(1.01901 0.014405 8.44024e-19)
(1.01744 0.0135184 -8.5328e-19)
(1.01615 0.0142752 0)
(1.03624 -0.00509445 0)
(1.02996 -0.00799954 -8.01011e-19)
(1.02814 -0.0108248 7.92781e-19)
(1.02492 0.0101109 0)
(1.02318 0.0140145 0)
(1.01247 0.00452111 0)
(1.01451 0.00908894 0)
(1.01591 0.00377885 0)
(1.01511 0.0025571 0)
(0.0624529 1.35102 0)
(0.0605054 1.31411 0)
(0.146553 1.39078 2.14459e-21)
(0.261057 1.47312 4.8338e-20)
(0.154687 1.44476 1.01195e-19)
(0.177463 1.4513 -1.67097e-19)
(0.147012 1.39601 0)
(0.125654 1.57485 -1.57006e-19)
(0.13148 1.56604 0)
(0.352228 2.03609 -1.26215e-19)
(0.338849 2.34926 6.93677e-19)
(0.174818 1.44582 1.36918e-19)
(0.263845 1.36982 -5.84141e-22)
(0.190813 1.37096 4.77488e-22)
(0.281169 1.30519 -1.52312e-19)
(0.25853 1.57561 0)
(0.252498 1.62644 1.45999e-19)
(0.0216489 2.28085 -4.2871e-20)
(0.0357907 2.68255 0)
(0.0625261 2.42096 1.64857e-19)
(0.0548585 2.44022 0)
(0.0668866 2.6973 -2.45874e-19)
(0.0435928 2.71466 0)
(0.0195965 1.42109 -2.44354e-20)
(0.03739 1.47684 0)
(0.0383589 1.38557 0)
(0.0229262 1.39092 2.7751e-20)
(-0.00542748 2.66718 -8.24933e-21)
(0.0242485 2.70479 2.82162e-19)
(0.00520353 2.73504 1.85315e-21)
(-0.0138465 1.84213 4.95061e-20)
(-0.0198015 1.68502 1.85395e-20)
(-0.000115817 1.30836 0)
(0.00293475 1.22331 0)
(0.0376756 1.56773 7.24241e-20)
(0.0371508 1.4509 5.34511e-20)
(0.0344324 1.52009 -7.14328e-20)
(0.0396058 1.59343 0)
(-0.044618 2.29735 -6.26173e-20)
(-0.0651692 2.54429 2.22752e-20)
(-0.0282415 2.45788 -1.77602e-20)
(-0.0296421 1.85834 -6.00107e-20)
(-0.0422026 2.50814 -1.95984e-20)
(-0.0349186 2.45212 1.0089e-19)
(1.01915 0.0205318 -8.48752e-19)
(1.01546 0.0261725 8.52861e-19)
(1.01436 0.015827 0)
(1.01239 0.0641986 1.1687e-18)
(0.993396 0.0516041 -1.33999e-18)
(0.957316 0.0473232 1.49711e-18)
(1.01317 0.105558 -1.59705e-19)
(1.0429 -0.00536211 0)
(1.05071 -0.00142984 7.71806e-19)
(1.03911 -0.0087762 -7.70181e-19)
(1.07107 0.0387727 -4.59715e-20)
(1.06366 0.0252919 3.95726e-19)
(1.06411 0.0592335 0)
(1.05303 0.0497125 -1.42153e-19)
(1.03221 0.0408909 0)
(1.02585 0.0370244 0)
(1.02778 0.0126103 0)
(1.02426 0.015308 0)
(1.04028 0.0307117 2.91835e-19)
(1.03961 0.0264259 -6.44567e-19)
(1.05174 0.0356013 -3.10061e-19)
(1.04706 0.0359633 -3.41323e-19)
(1.07336 0.061662 6.60844e-19)
(1.09624 0.0489626 0)
(1.10171 0.0864333 0)
(-0.0632518 2.29196 -2.50612e-20)
(-0.0298846 2.17638 -3.96811e-21)
(-0.00910727 2.1303 0)
(-0.058753 2.46507 2.67924e-20)
(-0.083537 2.45845 1.0028e-20)
(-0.099936 2.47261 -1.69486e-20)
(-0.0357972 2.62084 7.60171e-20)
(-0.0544676 2.55834 -6.33251e-21)
(-0.0398325 2.52255 2.29193e-20)
(-0.0335813 2.60717 -4.09492e-20)
(-0.0358039 2.61195 5.06173e-20)
(0.0721814 1.57779 2.52329e-21)
(0.0255061 1.74267 5.27055e-20)
(0.367768 1.42237 -6.74123e-20)
(0.363039 1.35475 8.13306e-20)
(0.628615 1.42944 -1.70014e-19)
(0.507012 1.49857 -1.15365e-19)
(0.5504 1.46483 0)
(0.606249 2.43006 2.36296e-19)
(0.666917 2.43179 3.53165e-19)
(0.425738 2.52745 9.36394e-20)
(0.400082 2.55331 -7.09481e-19)
(0.503607 2.49813 6.15087e-19)
(0.554746 2.48513 0)
(0.498431 2.5311 -5.80243e-19)
(0.263438 2.60306 1.25005e-18)
(0.36694 2.57447 -6.08485e-20)
(0.289073 2.66454 -1.72363e-18)
(0.961681 2.39356 7.74762e-19)
(0.844772 2.39486 0)
(1.01128 0.00113076 2.7797e-20)
(1.01521 -0.00543085 -2.26794e-20)
(1.01764 -0.0041643 -4.14818e-19)
(1.01543 -0.00135062 4.13641e-19)
(1.01285 0.00151788 0)
(0.622057 1.29062 0)
(0.655702 1.17681 0)
(0.761263 1.0971 0)
(0.642155 1.13802 0)
(1.19528 2.63868 5.11176e-20)
(1.08663 2.3852 0)
(0.8239 2.20081 4.21401e-21)
(0.82614 2.45666 0)
(0.917474 2.54373 -4.9028e-19)
(0.949534 2.49381 3.27771e-19)
(0.814199 0.136564 0)
(0.779457 0.130216 1.74587e-19)
(0.919862 0.140787 1.01009e-18)
(0.844827 0.116568 -3.81208e-19)
(0.814141 0.0780915 -1.15443e-18)
(1.07861 0.223263 -9.75774e-19)
(0.984338 0.281407 -7.72967e-21)
(0.923942 0.320225 9.21443e-19)
(1.01987 0.233034 7.79356e-19)
(0.937481 0.180478 -1.34424e-18)
(0.899864 0.193134 1.67588e-19)
(0.935327 0.285367 -3.56686e-19)
(0.9122 0.196729 0)
(1.00249 0.184024 6.59986e-19)
(1.05481 0.196364 0)
(1.0506 0.202042 0)
(1.11547 0.108835 3.06619e-19)
(1.06619 0.170993 -1.02148e-20)
(1.07138 0.228603 -1.73744e-19)
(1.10584 0.194334 0)
(1.02348 0.0447968 6.58252e-19)
(1.03851 0.0581345 8.22163e-19)
(1.0328 0.0428977 -6.53291e-19)
(1.04148 0.0628608 -5.51016e-19)
(1.01512 0.0683853 -8.27561e-19)
(0.990879 0.15285 0)
(0.994567 0.0982161 0)
(0.966808 0.0615293 -5.30854e-19)
(0.917191 0.0899338 2.10185e-19)
(1.03757 0.103578 7.64272e-19)
(1.0736 0.118108 -8.9368e-19)
(1.06768 0.158648 8.01897e-19)
(1.0382 0.138799 0)
(1.08236 0.106053 0)
(1.05869 0.0982776 -3.63335e-19)
(1.04433 0.0969595 -6.23035e-19)
(0.585655 1.11084 1.42824e-19)
(0.622918 1.44193 -4.98518e-20)
(1.1455 2.7364 -2.82804e-19)
(1.19867 3.11747 9.68692e-21)
(1.25425 2.74107 -2.15829e-19)
(1.29613 2.713 5.74851e-20)
(1.27159 2.3335 -3.68681e-20)
(1.1862 3.02279 -1.04429e-19)
(1.20487 2.97918 2.7239e-19)
(1.1813 3.2713 -1.10507e-19)
(1.40114 2.98663 1.3668e-19)
(1.41332 2.9253 0)
(0.543282 0.856503 -5.16662e-20)
(0.238031 1.23151 5.14515e-19)
(0.492399 0.472748 6.33833e-19)
(0.364003 0.234681 7.26944e-19)
(0.546053 0.392803 7.53228e-19)
(0.5525 0.484359 -1.21143e-18)
(0.554093 0.483493 9.90759e-19)
(0.510557 0.419798 -3.82707e-19)
(0.446646 0.355908 8.66401e-19)
(0.771111 0.245987 -3.85502e-19)
(0.737314 0.281894 0)
(0.713307 0.213966 1.03393e-20)
(0.726233 0.517103 4.07576e-19)
(0.687739 0.490171 -1.48392e-18)
(0.647036 0.474909 2.39268e-20)
(0.652545 0.446672 0)
(0.679209 0.740442 4.11784e-19)
(0.789585 0.785444 4.7585e-19)
(0.722948 0.836997 -5.51785e-19)
(0.858684 0.802526 -1.79738e-19)
(0.900819 0.849696 -4.75134e-20)
(0.908021 0.856627 4.87304e-20)
(0.846106 0.664958 -7.46955e-19)
(0.916902 0.716548 1.67195e-19)
(0.971351 0.722102 0)
(0.966927 0.698683 -2.21834e-19)
(1.02456 0.313088 2.47584e-19)
(1.13785 0.31595 3.23831e-19)
(1.06069 0.265202 3.99757e-19)
(0.98327 0.357209 -4.85914e-19)
(1.01829 0.465376 0)
(1.10498 0.413805 0)
(0.876911 0.392584 9.42674e-21)
(0.846108 0.288318 0)
(0.86869 0.269504 4.36316e-19)
(0.900991 0.317385 9.44741e-21)
(0.936831 0.447939 2.29445e-18)
(0.864877 0.517607 5.81382e-19)
(0.887391 0.464985 -6.26779e-19)
(0.810591 0.448903 6.65862e-19)
(0.800132 0.434829 3.99143e-19)
(0.787318 0.408078 -3.91506e-19)
(1.02778 -0.000883122 6.86849e-19)
(1.02019 6.1041e-05 0)
(1.01888 0.000914997 4.48005e-19)
(1.02254 -0.00124223 -1.01447e-18)
(1.02245 0.00410509 4.93749e-19)
(1.0203 0.0109836 -1.03318e-18)
(1.02117 0.0107094 0)
(1.02003 0.0115318 -2.15101e-19)
(1.01639 0.00742847 5.3905e-19)
(1.01676 0.010584 -2.70773e-19)
(1.01744 0.010158 1.98322e-19)
(0.0358993 1.32164 0)
(0.0412316 1.35303 0)
(0.0465285 1.32894 0)
(0.0515465 1.28825 0)
(0.0714224 1.35547 1.10725e-19)
(0.0874627 1.33037 -5.61032e-20)
(0.0573436 1.53018 -3.6809e-20)
(0.109762 1.35586 -2.03117e-20)
(0.038508 1.45677 -6.5878e-20)
(0.0401861 1.4514 5.08762e-20)
(0.0636498 1.35694 -3.43388e-20)
(0.0551879 1.36015 -2.40163e-20)
(0.0529468 1.34414 -3.14324e-21)
(0.0445425 1.3651 -7.17657e-21)
(0.105345 2.39623 -1.81432e-19)
(0.0962739 2.43737 0)
(0.153136 2.04258 1.2778e-19)
(0.117676 1.70653 6.68737e-20)
(0.224652 2.03005 -1.02717e-19)
(0.207654 2.44589 0)
(0.241172 2.39734 -7.1724e-19)
(0.307414 2.39114 5.05559e-19)
(0.255252 2.00467 -2.76723e-19)
(0.140312 2.17044 1.81057e-19)
(0.113875 2.28551 0)
(0.0142822 1.87046 -1.06894e-19)
(-0.0126886 2.40674 -1.53249e-19)
(-8.10136e-05 2.15797 0)
(0.0034841 2.46618 -1.47492e-20)
(0.0149346 2.31312 6.22051e-20)
(0.0109262 1.40564 4.69213e-21)
(-0.00610042 1.38663 -7.87666e-20)
(0.000239796 1.39327 1.76058e-20)
(0.00734795 1.39542 3.15674e-20)
(0.0170578 1.42511 0)
(0.0103123 1.3725 0)
(0.0366841 1.26802 4.75212e-20)
(0.025858 1.36979 -1.71185e-20)
(0.00646876 1.36468 0)
(0.0202949 1.28725 2.26687e-20)
(-0.0117846 1.16634 -5.48292e-20)
(1.04165 0.0134876 0)
(1.04807 0.00902927 -7.21553e-20)
(1.03864 0.0218455 -5.19935e-19)
(1.04845 0.020945 0)
(1.05309 0.0205133 0)
(1.03609 0.0115816 -6.46219e-21)
(1.03048 0.0118513 8.32743e-19)
(1.03195 0.015918 1.01342e-18)
(1.02584 0.0196937 0)
(1.0225 0.0204163 0)
(1.03541 0.0239152 5.18478e-19)
(1.02521 0.0261263 0)
(1.02428 0.0260289 0)
(-0.0594161 2.02542 0)
(0.00976832 1.73157 2.54271e-21)
(-0.0204353 1.81203 6.68225e-22)
(0.0436225 1.37259 0)
(0.00397842 1.59383 3.56714e-20)
(0.0372749 1.50186 -2.04701e-20)
(0.0728268 1.43143 0)
(0.408994 1.67217 0)
(0.354559 1.29495 -1.28136e-19)
(0.286055 1.34276 0)
(0.423245 1.30572 8.28205e-20)
(0.463972 1.4552 0)
(0.445345 1.39824 -1.30593e-20)
(1.03799 2.68654 -1.67012e-20)
(0.97767 2.41386 -9.73432e-19)
(0.935408 2.20089 1.12179e-18)
(0.859589 2.38762 2.5286e-19)
(0.852305 2.50441 0)
(0.919829 2.50172 0)
(0.945527 2.38729 0)
(0.921629 2.37519 -9.85067e-19)
(0.696944 2.47752 -4.25121e-19)
(0.803366 2.46109 -1.08327e-19)
(0.811794 2.43896 8.19173e-20)
(0.701915 2.40585 0)
(0.806226 2.39971 0)
(0.768517 2.41478 -3.81391e-19)
(0.768816 2.48455 0)
(0.601772 1.07474 0)
(0.512821 0.895181 -5.98259e-19)
(0.514811 0.961019 -3.49886e-20)
(0.499909 1.09561 0)
(0.486559 1.00794 9.16414e-19)
(0.757561 0.877251 -1.58531e-19)
(0.773349 1.01043 0)
(0.748369 0.986296 2.30938e-19)
(0.636735 1.02184 0)
(0.631816 0.938009 0)
(1.16337 2.76909 -2.57663e-19)
(1.13814 2.82846 -1.17468e-19)
(0.92559 2.35862 1.21592e-19)
(0.901705 2.33781 -9.06493e-20)
(1.13235 2.74587 0)
(1.08424 2.71433 1.08985e-19)
(1.09963 2.50453 -3.30697e-19)
(0.998998 2.25578 -2.83557e-20)
(0.501961 1.36046 0)
(0.518187 1.09376 -1.25896e-19)
(0.576749 1.17398 0)
(0.856685 0.199219 0)
(0.799811 0.154401 0)
(0.742631 0.141311 0)
(0.867321 0.205418 -6.83778e-19)
(0.79474 0.206792 3.98165e-19)
(0.931201 0.0760674 -4.35049e-19)
(0.945891 0.12219 0)
(0.92156 0.132956 1.87054e-19)
(0.869074 0.0919528 7.48757e-19)
(0.838203 0.0656812 -4.68913e-19)
(1.10248 3.36472 -6.5658e-19)
(1.16741 3.28741 0)
(1.12247 3.45014 -1.54222e-18)
(0.661777 3.59565 1.2821e-18)
(1.03303 3.09152 9.69296e-20)
(0.517526 0.834665 6.024e-19)
(0.506273 0.801575 0)
(0.383143 0.502096 -1.57874e-19)
(0.460631 0.682309 9.14316e-19)
(0.519068 0.4796 -2.20828e-19)
(0.509165 0.521727 2.49308e-19)
(0.682963 0.5516 5.2697e-19)
(0.709377 0.577492 0)
(0.639231 0.620348 0)
(0.607051 0.567162 0)
(0.978712 0.616207 1.25574e-19)
(0.919658 0.561711 -5.63065e-19)
(0.943452 0.598369 4.21114e-19)
(0.997723 0.513867 -4.31814e-19)
(1.04199 0.492853 0)
(1.05444 0.599642 -1.12108e-19)
(0.840285 0.391832 -9.03743e-19)
(0.835335 0.384627 -1.1464e-18)
(0.80522 0.381527 7.07489e-19)
(0.807518 0.34259 -7.23656e-19)
(0.841406 0.29968 -5.64357e-19)
(0.809544 0.300436 6.92934e-19)
(1.02656 0.00598539 -5.17362e-19)
(1.02624 0.00610967 1.04341e-18)
(1.02953 0.000223227 6.6664e-19)
(1.03352 0.000814938 -8.00568e-19)
(1.03343 0.0105808 0)
(1.02982 0.0106384 -1.30237e-18)
(0.0776814 1.66208 2.93163e-20)
(0.0425965 1.58342 0)
(0.0928878 1.7122 1.85556e-19)
(0.108211 1.68509 -1.68804e-19)
(0.0339954 1.5273 6.93241e-20)
(0.0260555 1.50185 0)
(-0.0123978 1.69961 0)
(-0.0124205 1.5081 -1.58892e-20)
(-0.00764592 1.44506 1.43286e-20)
(-0.00069429 1.58602 1.23281e-21)
(-0.0218447 1.90086 -3.30774e-20)
(-0.0530688 1.95132 1.58825e-20)
(0.492652 1.38189 -3.48724e-19)
(0.495934 1.3798 3.79503e-19)
(0.438301 1.29405 -7.57977e-20)
(0.428 1.30273 1.2545e-20)
(0.613803 1.29791 0)
(0.544004 1.38859 5.33164e-20)
(0.545275 1.3925 -5.1848e-20)
(0.47076 1.27271 7.23175e-20)
(0.509732 1.23707 0)
(0.577065 1.20656 0)
(0.671447 2.44059 6.26412e-19)
(0.663786 2.46426 1.39329e-18)
(0.721012 2.47888 -9.56053e-19)
(0.619968 2.45312 -2.16482e-19)
(0.557437 2.55131 2.99116e-19)
(0.49663 2.51409 -7.71314e-19)
(0.987915 2.39101 -6.32283e-19)
(1.02239 2.41069 0)
(0.943387 2.1873 -6.94682e-19)
(1.05442 2.69473 0)
(1.05363 2.6768 0)
(0.617595 2.31808 1.7085e-21)
(1.12288 3.08431 6.10393e-20)
(1.00597 2.98628 -1.17166e-19)
(0.338394 0.877566 0)
(0.358769 0.787693 -3.1816e-19)
(0.543505 0.71162 -3.29442e-19)
(0.385852 2.16563 0)
(0.413453 2.7539 -6.81912e-20)
(0.424105 2.49389 0)
(0.684853 0.704358 -8.79599e-19)
(0.742854 0.694552 1.2397e-18)
(0.756083 0.657831 -1.23794e-18)
(0.677172 0.66284 -1.12388e-19)
(0.730872 0.618708 -4.69543e-19)
(0.978193 2.77204 -4.6235e-20)
(1.01541 2.77531 -2.49753e-19)
(0.571622 2.24688 4.46832e-19)
(0.616459 1.76363 -3.55262e-19)
(0.713818 1.87974 -5.44608e-19)
(0.981857 2.41404 -1.43079e-19)
(0.979569 2.37075 4.07961e-19)
(0.661454 1.80485 3.60226e-20)
(0.466885 1.32665 1.97936e-19)
)
;

boundaryField
{
    wall-4
    {
        type            noSlip;
    }
    velocity-inlet-5
    {
        type            fixedValue;
        value           uniform (1 0 0);
    }
    velocity-inlet-6
    {
        type            fixedValue;
        value           uniform (0 3 0);
    }
    pressure-outlet-7
    {
        type            zeroGradient;
    }
    wall-8
    {
        type            noSlip;
    }
    frontAndBackPlanes
    {
        type            empty;
    }
}


// ************************************************************************* //
