/*--------------------------------*- C++ -*----------------------------------*\
  =========                 |
  \\      /  F ield         | OpenFOAM: The Open Source CFD Toolbox
   \\    /   O peration     | Website:  https://openfoam.org
    \\  /    A nd           | Version:  6
     \\/     M anipulation  |
\*---------------------------------------------------------------------------*/
FoamFile
{
    version     2.0;
    format      ascii;
    class       volScalarField;
    location    "7";
    object      Ma;
}
// * * * * * * * * * * * * * * * * * * * * * * * * * * * * * * * * * * * * * //

dimensions      [0 0 0 0 0 0 0];

internalField   nonuniform List<scalar> 
5250
(
2.99988
2.99968
2.99905
2.99803
2.99467
2.98923
2.97161
2.94003
2.85425
2.65822
2.25485
1.40074
0.343134
0.16057
0.0857602
0.29393
0.350066
0.317706
0.256039
0.197309
0.15971
0.128835
0.0959895
0.0623757
0.0431204
2.99988
2.99968
2.99905
2.99804
2.99469
2.98928
2.97171
2.94026
2.85476
2.65947
2.25712
1.40534
0.348009
0.157997
0.0968521
0.30101
0.354433
0.321194
0.260659
0.204816
0.169376
0.140082
0.109938
0.0818516
0.0682435
2.99988
2.99968
2.99906
2.99805
2.99473
2.98936
2.97194
2.94076
2.85586
2.66229
2.2623
1.41684
0.36038
0.149999
0.115608
0.311801
0.361597
0.327824
0.269876
0.219631
0.188621
0.163069
0.138096
0.117233
0.108186
2.99988
2.99969
2.99907
2.99808
2.9948
2.9895
2.9723
2.94155
2.85761
2.66684
2.27075
1.43602
0.380518
0.138608
0.139314
0.325816
0.372026
0.338794
0.285009
0.241708
0.215964
0.19506
0.175779
0.160888
0.155033
2.99989
2.99969
2.99909
2.99811
2.99489
2.9897
2.97279
2.94265
2.86006
2.67318
2.28262
1.46259
0.408169
0.126908
0.166813
0.342254
0.38505
0.353476
0.304861
0.268738
0.248574
0.232304
0.218152
0.208065
0.204575
2.99989
2.9997
2.99911
2.99816
2.99501
2.98995
2.97343
2.94406
2.86322
2.68136
2.29804
1.49707
0.44367
0.119961
0.197608
0.361262
0.400656
0.371514
0.329277
0.300142
0.285635
0.274532
0.265382
0.259541
0.258338
2.99989
2.99971
2.99914
2.99821
2.99516
2.99025
2.9742
2.94579
2.86705
2.69149
2.31694
1.5403
0.488968
0.124727
0.231984
0.382906
0.418659
0.392758
0.357692
0.336077
0.327028
0.32149
0.31829
0.318001
0.320352
2.9999
2.99972
2.99917
2.99828
2.99534
2.99061
2.9751
2.94786
2.8715
2.703
2.33951
1.58499
0.544852
0.147987
0.269999
0.406423
0.438752
0.417393
0.389848
0.375965
0.373439
0.374337
0.378889
0.387211
0.397658
2.9999
2.99973
2.99921
2.99836
2.99554
2.99103
2.97612
2.95029
2.87666
2.71582
2.36618
1.62973
0.613774
0.190177
0.31044
0.427408
0.459759
0.444752
0.426122
0.419473
0.423485
0.432988
0.449674
0.47365
0.506267
2.99991
2.99975
2.99925
2.99844
2.99577
2.99152
2.9773
2.95306
2.88271
2.7304
2.39736
1.68244
0.693848
0.248913
0.352863
0.446649
0.481306
0.474138
0.465392
0.466333
0.476984
0.497855
0.533673
0.587153
0.687243
2.99991
2.99976
2.9993
2.99854
2.99603
2.99206
2.97869
2.95607
2.88966
2.74727
2.43207
1.74535
0.782378
0.321571
0.394413
0.464936
0.503017
0.505009
0.504558
0.51256
0.53301
0.56963
0.62841
0.723902
0.872694
2.99992
2.99978
2.99935
2.99866
2.99633
2.99268
2.98028
2.95953
2.89772
2.76639
2.47243
1.81907
0.883904
0.405895
0.428914
0.483973
0.525207
0.53519
0.541275
0.55688
0.588908
0.640556
0.712987
0.822596
0.969212
2.99993
2.9998
2.99942
2.99879
2.99669
2.99339
2.98213
2.96354
2.90708
2.78896
2.52048
1.90932
1.01219
0.499092
0.458774
0.504084
0.546032
0.563616
0.577238
0.600979
0.640256
0.697514
0.77359
0.87158
0.985702
2.99994
2.99983
2.99949
2.99894
2.99708
2.9942
2.98426
2.96812
2.91789
2.81532
2.57764
2.01802
1.16871
0.60122
0.4862
0.521189
0.56446
0.592202
0.61259
0.641147
0.68297
0.738079
0.810007
0.894609
0.988128
2.99995
2.99985
2.99956
2.99909
2.99751
2.99506
2.98657
2.97295
2.9299
2.84359
2.64066
2.15023
1.35264
0.712397
0.51935
0.546219
0.589716
0.623834
0.647716
0.67705
0.71822
0.76901
0.832784
0.90428
0.983824
2.99996
2.99988
2.99964
2.99924
2.99794
2.99589
2.98888
2.97771
2.94157
2.87467
2.70159
2.31642
1.5981
0.834565
0.574333
0.593699
0.629692
0.662754
0.685392
0.711262
0.749166
0.794773
0.851733
0.912199
0.979459
2.99997
2.9999
2.9997
2.99938
2.9983
2.99662
2.99083
2.98173
2.95169
2.89807
2.75157
2.44157
1.795
0.939234
0.62027
0.636695
0.670317
0.704058
0.724656
0.745874
0.7778
0.817579
0.867416
0.921263
0.977673
2.99997
2.99992
2.99976
2.99949
2.99862
2.99725
2.99252
2.98515
2.9605
2.91646
2.79851
2.5235
1.99138
1.07601
0.695656
0.671275
0.702659
0.733957
0.758413
0.77804
0.805269
0.838731
0.880544
0.927561
0.976081
2.99998
2.99994
2.99981
2.9996
2.99889
2.99781
2.99401
2.98816
2.96835
2.93354
2.83719
2.61004
2.1711
1.29899
0.820387
0.70626
0.726101
0.753072
0.781494
0.803479
0.828375
0.859142
0.893238
0.932809
0.974357
2.99999
2.99995
2.99985
2.99969
2.99914
2.9983
2.99534
2.99088
2.97535
2.94937
2.87377
2.70254
2.35648
1.58769
0.985045
0.765963
0.759766
0.776929
0.803319
0.826846
0.848938
0.875236
0.904716
0.937353
0.972282
2.99999
2.99997
2.99989
2.99976
2.99935
2.99871
2.99646
2.99312
2.98112
2.96248
2.90253
2.787
2.50741
1.92838
1.16706
0.843185
0.804883
0.813585
0.833215
0.855106
0.873029
0.892689
0.916186
0.942292
0.968796
3
2.99998
2.99992
2.99983
2.99952
2.99904
2.99738
2.99492
2.98607
2.9724
2.92841
2.8382
2.63143
2.12908
1.38552
0.939933
0.841068
0.844023
0.859912
0.880404
0.895818
0.909535
0.927028
0.945402
0.962261
3
2.99998
2.99994
2.99987
2.99965
2.9993
2.99806
2.99625
2.98964
2.97979
2.94585
2.8859
2.72628
2.36983
1.70636
1.08625
0.890991
0.877654
0.88766
0.903608
0.916583
0.926372
0.935229
0.943812
0.949984
3
2.99999
2.99996
2.99991
2.99975
2.9995
2.99861
2.99731
2.99256
2.9856
2.96099
2.91999
2.80093
2.55627
2.0191
1.27175
0.960144
0.908949
0.911926
0.922513
0.933552
0.93776
0.937608
0.934471
0.931447
3
3
2.99997
2.99994
2.99983
2.99965
2.99903
2.99812
2.9948
2.98997
2.9727
2.94431
2.86036
2.67819
2.29144
1.56745
1.09233
0.948184
0.933934
0.935925
0.939536
0.936822
0.92765
0.917553
0.907376
3.00001
3
2.99999
2.99995
2.9999
2.99972
2.99944
2.99848
2.99703
2.99188
2.98405
2.95756
2.91118
2.77899
2.52224
1.92021
1.27441
1.00965
0.95668
0.943841
0.935976
0.925635
0.911174
0.895478
0.882828
3.00001
3
2.99999
2.99997
2.99993
2.99981
2.99962
2.99895
2.998
2.99439
2.98937
2.97073
2.94092
2.85075
2.65685
2.25221
1.50799
1.1006
0.968824
0.936713
0.92072
0.903711
0.885689
0.870008
0.859971
3.00001
3
3
2.99998
2.99996
2.99988
2.99975
2.9993
2.99867
2.99627
2.99295
2.98038
2.96132
2.89994
2.78075
2.49398
1.9362
1.27337
0.997844
0.927375
0.899565
0.878258
0.860395
0.848829
0.843628
3.00001
3
3
2.99999
2.99998
2.99992
2.99984
2.99956
2.99915
2.99763
2.99549
2.98787
2.97496
2.93537
2.84655
2.64503
2.15544
1.45537
1.02727
0.893081
0.849971
0.834574
0.826657
0.823175
0.830192
3.00001
3.00001
3
3
2.99998
2.99996
2.99987
2.99974
2.99929
2.99863
2.99617
2.99261
2.97961
2.95825
2.89104
2.75517
2.42314
1.84363
1.13576
0.846891
0.781983
0.781008
0.787256
0.803941
0.828638
3.00001
3.00001
3
3
2.99999
2.99997
2.99993
2.99979
2.99959
2.99884
2.99778
2.99403
2.98752
2.96747
2.92396
2.80927
2.5402
2.02497
1.20337
0.779264
0.669489
0.691831
0.724519
0.770645
0.815245
3.00001
3.00001
3.00001
3
3
2.99998
2.99995
2.99983
2.99968
2.99905
2.99824
2.99476
2.99031
2.97252
2.9417
2.85279
2.63461
2.22471
1.38857
0.783525
0.569226
0.608894
0.666831
0.736273
0.792994
3.00001
3.00001
3.00001
3
3
2.99998
2.99996
2.99986
2.99974
2.99922
2.99854
2.99563
2.9919
2.97636
2.95293
2.87452
2.71379
2.3452
1.64347
0.804759
0.478573
0.532424
0.609769
0.695565
0.757336
3.00001
3.00001
3.00001
3
3
2.99999
2.99997
2.99989
2.99979
2.99935
2.99878
2.99626
2.99311
2.97917
2.95963
2.88661
2.74967
2.3997
1.71725
0.829895
0.398886
0.452146
0.542796
0.637204
0.702025
3.00001
3.00001
3.00001
3.00001
3
2.99999
2.99998
2.99994
2.99986
2.99962
2.99916
2.99775
2.99465
2.9855
2.96443
2.904
2.76123
2.43969
1.75795
0.87054
0.38105
0.397485
0.483946
0.574841
0.636943
3.00001
3.00001
3.00001
3.00001
3
3
2.99999
2.99997
2.99992
2.99975
2.99948
2.99835
2.99627
2.98831
2.97056
2.91417
2.78499
2.43967
1.80934
0.867128
0.381202
0.352285
0.429091
0.513502
0.573782
3.00001
3.00001
3.00001
3.00001
3.00001
3
2.99999
2.99998
2.99993
2.99982
2.99947
2.99874
2.99618
2.99021
2.97146
2.92413
2.79536
2.51756
1.85578
0.984134
0.412332
0.327704
0.388385
0.468931
0.52898
3.00001
3.00001
3.00001
3.00001
3.00001
3
3
2.99998
2.99994
2.99987
2.99956
2.99903
2.99677
2.99189
2.97504
2.93398
2.81484
2.55955
1.9184
1.06182
0.437056
0.290584
0.346293
0.436169
0.50369
3.00001
3.00001
3.00001
3.00001
3.00001
3
3
2.99999
2.99996
2.99988
2.99973
2.999
2.99816
2.99232
2.98137
2.93797
2.8404
2.55555
2.04012
1.12137
0.483806
0.262622
0.330532
0.439366
0.515335
3.00001
3.00001
3.00001
3.00001
3.00001
3
3
2.99999
2.99996
2.99991
2.99972
2.99941
2.99774
2.99568
2.98178
2.95493
2.85458
2.64418
2.07161
1.2666
0.491704
0.207227
0.300795
0.440813
0.525974
3.00001
3.00001
3.00001
3.00001
3.00001
3
3
2.99999
2.99997
2.9999
2.99978
2.99923
2.99835
2.99386
2.98426
2.95128
2.87275
2.65907
2.23232
1.45035
0.552436
0.187173
0.3028
0.454062
0.539264
3.00001
3.00001
3.00001
3.00001
3.00001
3.00001
3
2.99999
2.99997
2.99992
2.99974
2.99947
2.998
2.99561
2.98408
2.95853
2.87701
2.69387
2.2367
1.46787
0.508936
0.127254
0.277403
0.437962
0.528196
3.00001
3.00001
3.00001
3.00001
3.00001
3
3
2.99999
2.99997
2.9999
2.99978
2.99923
2.99821
2.99418
2.98469
2.95567
2.88222
2.69649
2.30472
1.5556
0.605097
0.167374
0.292222
0.434022
0.527884
3.00001
3.00001
3.00001
3.00001
3.00001
3
3
2.99999
2.99995
2.99988
2.99967
2.9992
2.99772
2.99433
2.98356
2.95625
2.88113
2.70369
2.27946
1.52228
0.554645
0.128067
0.262614
0.411805
0.508223
3.00001
3.00001
3.00001
3.00001
3.00001
3
2.99999
2.99996
2.99992
2.99973
2.9995
2.99838
2.99703
2.99065
2.98209
2.94759
2.88519
2.7051
2.31041
1.55507
0.576321
0.149956
0.263358
0.400633
0.493275
3.00001
3.00001
3.00001
3.00001
3.00001
3
2.99999
2.99996
2.99992
2.99972
2.99947
2.99833
2.99693
2.99052
2.98191
2.94762
2.88623
2.70851
2.32106
1.57238
0.595623
0.163778
0.265289
0.395308
0.485218
3.00001
3.00001
3.00001
3.00001
3.00001
3
2.99999
2.99996
2.99992
2.99973
2.99949
2.99836
2.997
2.99057
2.98217
2.94785
2.88749
2.71175
2.32858
1.58858
0.609614
0.17398
0.265319
0.38994
0.477903
3.00001
3.00001
3.00001
3.00001
3.00001
3
3
2.99998
2.99995
2.99986
2.99964
2.99909
2.99764
2.994
2.98372
2.95713
2.88602
2.71997
2.31375
1.58338
0.615636
0.171174
0.259272
0.385397
0.475778
3.00001
3.00001
3.00001
3.00001
3.00001
3
3
2.99999
2.99996
2.99988
2.99969
2.99916
2.99792
2.99414
2.98479
2.9581
2.88887
2.71675
2.35132
1.63843
0.722906
0.250465
0.310582
0.410768
0.492956
3.00001
3.00001
3.00001
3.00001
3.00001
3
3
2.99997
2.99994
2.99979
2.9996
2.99876
2.99751
2.99334
2.98355
2.95805
2.8879
2.72707
2.31919
1.61229
0.619624
0.166248
0.24805
0.372546
0.460416
1.04654
1.07593
0.799804
0.359431
0.245667
0.228815
0.30434
0.357825
0.401353
0.441035
0.479571
0.513665
0.543742
0.56821
0.586843
0.597408
0.600336
0.598842
0.595133
0.588269
0.576974
0.561706
0.542916
0.521847
0.499198
0.475759
0.451746
0.427393
0.402726
0.377761
0.352494
0.326978
0.301454
0.276026
0.2505
0.224321
0.197666
0.170497
0.1438
0.117117
0.0910203
0.0651793
0.0403617
0.0209151
0.0261999
0.0481879
0.0706891
0.0924123
0.114885
0.137304
0.159502
0.180585
0.201418
0.22329
0.24534
0.266783
0.287566
0.308066
0.328203
0.348174
0.36776
0.387214
0.406374
0.425296
0.444067
0.462592
0.480912
0.499137
0.517163
0.535032
0.552854
0.570496
0.588126
0.605587
0.623066
0.640323
0.657686
0.674757
0.691889
0.708823
0.725641
0.74241
0.758976
0.775395
0.791836
0.807846
0.824081
0.839837
0.855658
0.871265
0.886542
0.901866
0.916611
0.931365
0.945356
0.959097
0.971409
0.982923
0.991389
0.998033
1.07364
1.05755
0.871763
0.602815
0.443361
0.31726
0.193823
0.107464
0.0725156
0.117987
0.170478
0.216764
0.256139
0.287915
0.308412
0.316118
0.313853
0.312352
0.308754
0.301919
0.291389
0.276489
0.259077
0.239679
0.219165
0.19799
0.176456
0.154511
0.132332
0.109786
0.0873237
0.0653912
0.0451825
0.0323858
0.0376838
0.0561151
0.075594
0.0953489
0.11677
0.138588
0.160607
0.182862
0.204808
0.226657
0.247611
0.267923
0.287685
0.30749
0.327147
0.346947
0.366483
0.385362
0.403502
0.422043
0.441255
0.460202
0.478486
0.49627
0.513944
0.531302
0.548483
0.56538
0.582161
0.598568
0.615051
0.631012
0.647192
0.662825
0.678687
0.694064
0.709699
0.724877
0.74035
0.755394
0.770685
0.785689
0.800725
0.815786
0.830505
0.845598
0.860051
0.875043
0.889305
0.904112
0.918179
0.932845
0.946599
0.961226
0.974545
0.989182
1.00222
1.01678
1.02947
1.04359
1.05555
1.0687
1.07921
1.09022
1.0973
1.10361
1.05715
1.06115
0.988145
0.874461
0.786927
0.694906
0.59736
0.507503
0.415588
0.335142
0.268157
0.208773
0.157633
0.112699
0.0724827
0.0469832
0.0388165
0.0243985
0.0240061
0.0349726
0.0421694
0.0632399
0.0761967
0.089078
0.10286
0.117704
0.133436
0.15008
0.167554
0.185587
0.204098
0.223171
0.242671
0.262439
0.282027
0.301072
0.319738
0.33824
0.357005
0.375602
0.394401
0.412888
0.431319
0.449354
0.466933
0.48408
0.500821
0.517512
0.534137
0.550769
0.56748
0.583399
0.599041
0.614295
0.630519
0.64668
0.66246
0.677836
0.692934
0.707917
0.722687
0.737356
0.751891
0.766284
0.780506
0.794702
0.808599
0.822655
0.836239
0.850168
0.863504
0.877372
0.890541
0.904389
0.917389
0.931171
0.944019
0.957696
0.970453
0.984033
0.996716
1.01016
1.02283
1.036
1.04869
1.06155
1.07428
1.08705
1.0999
1.11247
1.1252
1.13725
1.14969
1.1611
1.17281
1.18321
1.19344
1.20168
1.20861
1.21206
1.05274
1.08242
1.06876
1.02545
0.978838
0.927058
0.868491
0.79941
0.731288
0.662472
0.598801
0.540912
0.490074
0.446348
0.410806
0.385342
0.370782
0.363851
0.364955
0.37222
0.379804
0.386093
0.392925
0.400279
0.408678
0.417911
0.428318
0.439389
0.451491
0.463952
0.477285
0.490794
0.504883
0.518875
0.533017
0.546622
0.560199
0.573413
0.586921
0.600187
0.613787
0.627045
0.640492
0.653516
0.666425
0.678979
0.691303
0.703735
0.716014
0.728675
0.741251
0.753804
0.765669
0.777598
0.790095
0.803265
0.816064
0.828735
0.840967
0.853466
0.865587
0.878028
0.890108
0.902422
0.91448
0.926633
0.938752
0.950744
0.962973
0.97483
0.987133
0.998969
1.0113
1.02316
1.03547
1.04731
1.05963
1.07142
1.08377
1.09552
1.10785
1.11954
1.13181
1.14344
1.15595
1.1677
1.18031
1.19199
1.20435
1.21596
1.22795
1.23946
1.25096
1.26217
1.27298
1.28347
1.29296
1.3017
1.30819
1.31268
1.04873
1.09127
1.1079
1.1022
1.08495
1.05951
1.02779
0.985173
0.939031
0.888637
0.840399
0.792328
0.749563
0.711604
0.683758
0.663825
0.655316
0.653541
0.658541
0.666337
0.676291
0.684504
0.689227
0.692967
0.696728
0.701156
0.706087
0.711932
0.718252
0.725308
0.732645
0.7404
0.7482
0.756172
0.763991
0.771753
0.779339
0.7869
0.794449
0.802174
0.809841
0.817707
0.825453
0.833363
0.841078
0.848911
0.856572
0.864557
0.872498
0.880939
0.889521
0.898135
0.906428
0.914559
0.923577
0.933097
0.943247
0.952845
0.962824
0.972469
0.982663
0.992632
1.00309
1.01333
1.0239
1.03436
1.04488
1.0555
1.06596
1.0767
1.08713
1.09799
1.10842
1.11937
1.12985
1.1409
1.15151
1.1626
1.1734
1.18445
1.19538
1.20657
1.21782
1.22926
1.24043
1.25191
1.26289
1.27438
1.28515
1.29658
1.30711
1.31838
1.32859
1.33951
1.34915
1.35933
1.36778
1.37624
1.38204
1.3864
1.04158
1.08949
1.12081
1.1343
1.13747
1.13047
1.11506
1.09229
1.06129
1.02795
0.990299
0.954787
0.92106
0.895387
0.878915
0.872363
0.874281
0.881352
0.890202
0.899086
0.907503
0.915921
0.922413
0.925218
0.925652
0.925878
0.926345
0.927268
0.928632
0.930232
0.932096
0.934142
0.936236
0.93847
0.940615
0.942819
0.944971
0.947176
0.949516
0.952027
0.954897
0.957975
0.961407
0.965073
0.969018
0.973228
0.977644
0.982512
0.987482
0.993185
0.998883
1.00519
1.01081
1.01706
1.02334
1.03109
1.03866
1.04706
1.0548
1.0633
1.07134
1.08016
1.08865
1.0978
1.10668
1.11611
1.12528
1.135
1.14439
1.1544
1.16399
1.17425
1.18407
1.19451
1.20458
1.21506
1.22537
1.23582
1.24634
1.2569
1.26783
1.27851
1.28942
1.30013
1.31093
1.32169
1.33235
1.34309
1.3536
1.3642
1.37451
1.38488
1.39486
1.4049
1.41428
1.42368
1.4319
1.43971
1.44539
1.44931
1.03408
1.08094
1.11811
1.14249
1.15621
1.16122
1.15742
1.14528
1.12628
1.1014
1.0738
1.04677
1.02416
1.01002
1.00455
1.00857
1.01851
1.03161
1.04478
1.05666
1.06644
1.07365
1.08
1.0842
1.08456
1.08167
1.0785
1.07546
1.07268
1.07027
1.06821
1.06652
1.06499
1.06376
1.06252
1.06151
1.06046
1.05965
1.05898
1.05862
1.05877
1.05922
1.06014
1.06146
1.06315
1.06533
1.0677
1.07065
1.07381
1.07747
1.08171
1.08611
1.09061
1.09522
1.10043
1.10633
1.11301
1.11986
1.12705
1.13416
1.1417
1.14915
1.15714
1.16502
1.17345
1.18177
1.19052
1.19925
1.20824
1.21737
1.22655
1.23603
1.24537
1.2551
1.26463
1.27451
1.28426
1.29432
1.30449
1.31466
1.32492
1.33512
1.34544
1.35573
1.36602
1.37636
1.38656
1.39686
1.40698
1.41716
1.42715
1.4371
1.44676
1.45632
1.46533
1.47409
1.48195
1.48903
1.49446
1.49783
1.02593
1.07027
1.10676
1.13441
1.1534
1.16369
1.16616
1.16017
1.14696
1.12889
1.10853
1.09026
1.07826
1.07411
1.07893
1.09072
1.107
1.12518
1.14231
1.15756
1.16989
1.17867
1.18426
1.18887
1.19136
1.19039
1.18614
1.18145
1.17688
1.17238
1.1682
1.16434
1.16101
1.15787
1.15509
1.15242
1.14986
1.14741
1.1451
1.14314
1.14144
1.14025
1.13942
1.13911
1.13921
1.13979
1.14075
1.14216
1.14384
1.14611
1.14879
1.15194
1.15497
1.1583
1.16204
1.16658
1.17174
1.17735
1.18334
1.18951
1.19604
1.2027
1.20975
1.21696
1.22451
1.23226
1.24026
1.24851
1.25692
1.26559
1.27441
1.28341
1.2926
1.30186
1.31139
1.32084
1.33081
1.34046
1.35062
1.36034
1.37062
1.38046
1.3908
1.40077
1.4111
1.42119
1.43149
1.44162
1.45185
1.46193
1.47201
1.48192
1.49166
1.50118
1.51025
1.51888
1.52671
1.53363
1.53885
1.5422
1.01647
1.05637
1.09017
1.1163
1.13467
1.14471
1.1478
1.14405
1.13468
1.1227
1.11092
1.10342
1.10206
1.10851
1.12142
1.13936
1.15988
1.18114
1.2011
1.21844
1.23298
1.24391
1.25149
1.25615
1.25984
1.26182
1.26091
1.25693
1.252
1.24669
1.24141
1.23617
1.2312
1.22659
1.22227
1.21812
1.21417
1.21022
1.20655
1.20289
1.19973
1.19677
1.1944
1.19245
1.19107
1.1902
1.18979
1.18989
1.19046
1.19155
1.19319
1.19542
1.19758
1.2001
1.20303
1.20674
1.21103
1.21594
1.2213
1.22698
1.23293
1.2391
1.24555
1.25228
1.25926
1.26661
1.27411
1.28206
1.29006
1.29853
1.30697
1.31585
1.3247
1.33385
1.34313
1.35256
1.36213
1.37165
1.38139
1.39107
1.40092
1.41081
1.42067
1.43078
1.44064
1.45092
1.46079
1.4711
1.48094
1.49115
1.50085
1.51084
1.5202
1.52976
1.5384
1.54707
1.55442
1.56136
1.56579
1.56934
1.00636
1.03851
1.06659
1.08824
1.10331
1.11082
1.11228
1.10876
1.10314
1.09808
1.09632
1.09982
1.10898
1.1231
1.14166
1.16295
1.18568
1.2079
1.2291
1.2476
1.26367
1.27671
1.28689
1.29421
1.29883
1.30222
1.30426
1.30439
1.30145
1.29697
1.2918
1.28663
1.28101
1.27544
1.27008
1.26506
1.26023
1.25568
1.25118
1.247
1.24286
1.23927
1.23594
1.23329
1.23102
1.22941
1.22823
1.22766
1.22757
1.22802
1.2291
1.23074
1.23249
1.23443
1.23683
1.23989
1.24361
1.24788
1.25275
1.25802
1.26373
1.2697
1.27597
1.28255
1.28935
1.29659
1.30395
1.31182
1.31967
1.32807
1.33638
1.34519
1.35393
1.36306
1.37221
1.38146
1.39086
1.40024
1.40985
1.41937
1.42914
1.43885
1.44876
1.45865
1.46863
1.47868
1.48869
1.49882
1.5088
1.51881
1.52862
1.53829
1.54764
1.55664
1.56508
1.57287
1.5798
1.58535
1.58891
1.59125
0.994529
1.01721
1.03678
1.05083
1.0602
1.06458
1.06575
1.06593
1.06714
1.07115
1.07902
1.09126
1.10736
1.12652
1.14783
1.17013
1.19278
1.21475
1.23556
1.25468
1.27157
1.28644
1.29883
1.30916
1.31696
1.3228
1.32663
1.3295
1.33087
1.32998
1.32653
1.3223
1.3177
1.31234
1.30657
1.3009
1.29545
1.29029
1.28539
1.28069
1.2763
1.27217
1.2685
1.26513
1.26244
1.25998
1.25836
1.257
1.25642
1.25616
1.25671
1.25777
1.25921
1.26069
1.2627
1.26517
1.26848
1.27218
1.27665
1.28152
1.28696
1.29268
1.29872
1.30508
1.31164
1.31863
1.32576
1.33337
1.34106
1.34924
1.35746
1.36608
1.37482
1.38371
1.39273
1.40177
1.41105
1.42026
1.42976
1.43917
1.44883
1.45846
1.46827
1.4781
1.488
1.49796
1.50786
1.51786
1.52771
1.53763
1.54728
1.5569
1.566
1.57488
1.58294
1.59043
1.59659
1.60136
1.60363
1.60586
0.978258
0.991168
1.00148
1.00831
1.0128
1.01605
1.01994
1.02603
1.03509
1.04767
1.06304
1.08102
1.10087
1.1218
1.14355
1.16536
1.18707
1.20812
1.2283
1.24738
1.265
1.28122
1.29552
1.30828
1.31899
1.3279
1.33494
1.34023
1.3438
1.34595
1.34681
1.34552
1.34248
1.33881
1.33437
1.32902
1.32338
1.31785
1.3125
1.30765
1.30292
1.29887
1.29476
1.29152
1.28821
1.28579
1.2835
1.28198
1.28082
1.28031
1.28042
1.28125
1.28254
1.28402
1.28581
1.2881
1.29114
1.29465
1.29878
1.30344
1.30865
1.31428
1.32019
1.32646
1.33288
1.33976
1.34674
1.35426
1.36186
1.36997
1.37813
1.38668
1.39525
1.40399
1.41285
1.42176
1.43088
1.43999
1.44936
1.4587
1.46827
1.47779
1.48749
1.49716
1.50693
1.51672
1.52652
1.53634
1.54604
1.55571
1.56509
1.57431
1.58296
1.59118
1.5986
1.60506
1.60996
1.613
1.61382
1.61582
0.95541
0.959476
0.962531
0.965086
0.968598
0.974506
0.983691
0.996082
1.01149
1.02912
1.04844
1.06859
1.08958
1.11064
1.13176
1.15253
1.17311
1.19318
1.21272
1.23158
1.24967
1.26675
1.28262
1.29727
1.31044
1.32218
1.33213
1.34062
1.34721
1.35243
1.35574
1.35777
1.35849
1.35735
1.35492
1.35194
1.34746
1.34223
1.33684
1.3318
1.32698
1.32271
1.31863
1.31519
1.31185
1.30923
1.30671
1.30498
1.30345
1.30276
1.30237
1.30291
1.30399
1.30525
1.30683
1.30871
1.31139
1.31454
1.31835
1.32266
1.32759
1.33301
1.33878
1.34495
1.35129
1.35809
1.36499
1.37242
1.37993
1.38791
1.39599
1.40432
1.41278
1.42134
1.43014
1.43891
1.44796
1.45693
1.46619
1.47538
1.48484
1.49421
1.50382
1.51333
1.52304
1.53267
1.5424
1.55202
1.56162
1.57101
1.58016
1.58895
1.59711
1.6047
1.61136
1.61639
1.61982
1.62075
1.62029
1.62297
0.928382
0.926107
0.925407
0.927648
0.934013
0.945096
0.96004
0.977608
0.996763
1.01672
1.03704
1.05723
1.07734
1.09719
1.11684
1.13631
1.15563
1.17486
1.19378
1.21252
1.23069
1.24854
1.26548
1.28175
1.29681
1.31085
1.3234
1.33471
1.34434
1.35262
1.35901
1.36388
1.36681
1.36858
1.36926
1.36879
1.36695
1.36378
1.35933
1.35459
1.3499
1.34548
1.34148
1.33792
1.33471
1.33197
1.32953
1.32762
1.32611
1.32517
1.32469
1.32494
1.32587
1.32715
1.32872
1.33045
1.3329
1.33593
1.33959
1.34376
1.34852
1.35382
1.35947
1.36553
1.37177
1.37843
1.38526
1.39251
1.39996
1.40779
1.41575
1.4239
1.43223
1.44062
1.44926
1.45784
1.46671
1.47543
1.48448
1.49337
1.5026
1.51171
1.52108
1.53035
1.53974
1.54908
1.55842
1.56769
1.57679
1.58573
1.59423
1.6023
1.60959
1.61624
1.62124
1.62472
1.62548
1.62519
1.62348
1.62597
0.899848
0.895846
0.894416
0.89935
0.911256
0.927977
0.946718
0.966364
0.986349
1.00617
1.02557
1.0446
1.06328
1.08165
1.09994
1.11807
1.13643
1.15476
1.1734
1.19184
1.21037
1.22854
1.24646
1.26361
1.28023
1.29577
1.31051
1.3239
1.33619
1.34702
1.35644
1.36443
1.37077
1.37563
1.37871
1.38078
1.38179
1.38179
1.38014
1.37716
1.37338
1.36934
1.36554
1.36184
1.3587
1.35582
1.35356
1.35161
1.35025
1.34918
1.34874
1.34871
1.34944
1.35067
1.35216
1.35377
1.35584
1.3586
1.36191
1.36583
1.37021
1.37528
1.38068
1.38662
1.3927
1.39927
1.40596
1.41311
1.42046
1.4281
1.43591
1.44382
1.45201
1.46013
1.46864
1.47698
1.4857
1.49423
1.50306
1.51175
1.52072
1.52958
1.53868
1.54769
1.55678
1.56586
1.57475
1.58367
1.5922
1.6005
1.60832
1.61536
1.6219
1.62681
1.63021
1.63087
1.63023
1.62882
1.62448
1.62564
0.875407
0.872305
0.87547
0.886996
0.90458
0.923888
0.943423
0.962754
0.981484
0.999525
1.01709
1.03406
1.05106
1.06778
1.08487
1.10185
1.11939
1.13698
1.15515
1.17334
1.19182
1.21026
1.22854
1.24654
1.26397
1.28094
1.29707
1.31244
1.32677
1.34006
1.3521
1.36291
1.37222
1.3801
1.38638
1.39132
1.39453
1.39698
1.39834
1.39853
1.39706
1.39445
1.39135
1.38783
1.38471
1.38167
1.37938
1.37729
1.37591
1.37475
1.37424
1.37401
1.37449
1.37549
1.37693
1.3783
1.38019
1.38241
1.38562
1.38904
1.39334
1.39786
1.40311
1.40865
1.41466
1.42093
1.42754
1.43448
1.44166
1.44904
1.45667
1.46439
1.47238
1.48035
1.48857
1.49681
1.50519
1.51366
1.52215
1.53078
1.53938
1.5481
1.55683
1.56558
1.57431
1.583
1.59154
1.59991
1.60788
1.61547
1.62215
1.62844
1.63315
1.63636
1.63691
1.63616
1.63435
1.6304
1.62199
1.61974
0.855354
0.857445
0.868808
0.886739
0.906432
0.926017
0.944735
0.962441
0.979219
0.995274
1.01081
1.02608
1.04134
1.05683
1.07263
1.08885
1.10546
1.12253
1.14002
1.15792
1.1761
1.19449
1.21299
1.23139
1.24955
1.26733
1.2846
1.30126
1.31714
1.33222
1.34626
1.35937
1.37118
1.38191
1.39118
1.39915
1.40555
1.41052
1.41395
1.41679
1.41857
1.41909
1.41782
1.41546
1.41257
1.40963
1.40692
1.40453
1.40276
1.40133
1.40054
1.40009
1.40027
1.40104
1.40222
1.40356
1.40499
1.4071
1.40961
1.41304
1.41659
1.42106
1.42564
1.43109
1.43659
1.44279
1.44911
1.45587
1.46278
1.46991
1.4773
1.48481
1.49258
1.50043
1.50842
1.51652
1.52465
1.53289
1.54114
1.54945
1.55783
1.56621
1.57468
1.58313
1.59149
1.59979
1.60782
1.61549
1.62284
1.62915
1.63516
1.63965
1.64265
1.64307
1.64217
1.64019
1.63625
1.62758
1.6141
1.60829
0.846012
0.85786
0.876138
0.895779
0.914733
0.932736
0.949585
0.96515
0.979748
0.993787
1.00764
1.0214
1.03534
1.04969
1.06454
1.08
1.09599
1.11252
1.12951
1.14699
1.1648
1.183
1.20136
1.21989
1.23827
1.25651
1.27442
1.29192
1.30894
1.3253
1.34105
1.35594
1.36993
1.38305
1.39488
1.4057
1.41498
1.42299
1.42922
1.4343
1.43818
1.4412
1.44294
1.44329
1.44181
1.43942
1.43635
1.43368
1.43101
1.42915
1.42759
1.4269
1.42653
1.42703
1.42806
1.42916
1.43058
1.43224
1.43457
1.43745
1.44084
1.44475
1.44914
1.45405
1.45939
1.46522
1.47136
1.47786
1.48456
1.49149
1.49869
1.50593
1.51353
1.52103
1.52885
1.53661
1.54452
1.5525
1.56045
1.56853
1.57652
1.5846
1.59262
1.60064
1.60852
1.6163
1.62362
1.63072
1.63672
1.64238
1.6466
1.64936
1.64963
1.64844
1.64644
1.64173
1.63356
1.61996
1.60388
1.59747
0.845853
0.866481
0.886986
0.906287
0.924027
0.940126
0.954869
0.968441
0.981387
0.99397
1.00658
1.01939
1.03255
1.04624
1.0605
1.07543
1.09094
1.10703
1.12359
1.14068
1.1581
1.17601
1.19409
1.21253
1.2309
1.24933
1.2676
1.28556
1.30337
1.32052
1.33744
1.35347
1.36903
1.38366
1.3974
1.41021
1.42186
1.43238
1.44146
1.44905
1.45508
1.46032
1.46408
1.46665
1.46789
1.46787
1.4662
1.46329
1.46069
1.45787
1.45589
1.45426
1.45353
1.45332
1.454
1.4551
1.45619
1.45771
1.4596
1.46222
1.46513
1.46874
1.4727
1.47731
1.48236
1.48797
1.49392
1.50017
1.50663
1.51339
1.52022
1.52744
1.5346
1.54213
1.54955
1.55722
1.56481
1.57248
1.58018
1.58781
1.59556
1.60311
1.61078
1.61814
1.62551
1.63235
1.639
1.64459
1.64976
1.65368
1.65619
1.65631
1.65499
1.65263
1.648
1.63862
1.62511
1.60959
1.59487
1.58998
0.854089
0.877551
0.8983
0.916212
0.931972
0.946091
0.959052
0.971113
0.9828
0.994437
1.00631
1.01866
1.03136
1.04476
1.05866
1.07333
1.08852
1.10434
1.12062
1.1374
1.15455
1.17212
1.18995
1.20807
1.22636
1.24461
1.263
1.28102
1.29915
1.31666
1.33417
1.35098
1.36755
1.38336
1.39862
1.41305
1.42654
1.43909
1.45045
1.46053
1.46913
1.47631
1.48248
1.48751
1.49099
1.493
1.49388
1.49319
1.49093
1.4884
1.4854
1.48314
1.48122
1.48026
1.48007
1.48068
1.48169
1.48274
1.48435
1.48649
1.48927
1.49248
1.4962
1.50044
1.50521
1.51043
1.51613
1.52202
1.52837
1.53478
1.54158
1.54839
1.5555
1.56259
1.56992
1.57721
1.58465
1.59211
1.5995
1.60701
1.61421
1.6216
1.62847
1.6355
1.64184
1.64806
1.65327
1.65781
1.66134
1.66327
1.66319
1.66154
1.65893
1.65354
1.64425
1.62985
1.61457
1.60058
1.58926
1.58642
0.850193
0.877765
0.899882
0.918056
0.933584
0.947186
0.959733
0.971598
0.983234
0.994969
1.00694
1.01933
1.03208
1.04534
1.05908
1.07339
1.08824
1.10363
1.1195
1.13584
1.15255
1.16971
1.18718
1.20499
1.22303
1.2412
1.25949
1.27765
1.29585
1.31375
1.33161
1.34903
1.36626
1.38291
1.3992
1.41476
1.42977
1.44387
1.4571
1.46923
1.48019
1.4897
1.49782
1.5049
1.51119
1.51554
1.51818
1.51945
1.51975
1.51826
1.51551
1.51249
1.50962
1.50731
1.50586
1.50538
1.50577
1.50663
1.50774
1.50943
1.51181
1.51485
1.51821
1.52227
1.52664
1.5317
1.53699
1.54276
1.54883
1.55516
1.56176
1.56857
1.57545
1.58262
1.58968
1.59694
1.60418
1.61129
1.61862
1.62552
1.63271
1.63934
1.64607
1.65213
1.65784
1.6628
1.66662
1.66979
1.67112
1.67079
1.66886
1.66583
1.65975
1.64949
1.63494
1.61957
1.60574
1.59522
1.58784
1.58697
0.833912
0.863386
0.886403
0.905548
0.922217
0.937219
0.95126
0.9647
0.977837
0.990965
1.00414
1.01751
1.03111
1.04498
1.05922
1.07381
1.08884
1.10424
1.12005
1.13625
1.15274
1.16964
1.1868
1.20435
1.22206
1.23999
1.25798
1.27605
1.29407
1.31207
1.32989
1.34758
1.36501
1.38214
1.39894
1.41527
1.43115
1.44636
1.46095
1.47461
1.48734
1.49891
1.50912
1.51776
1.52532
1.53205
1.53703
1.53991
1.5412
1.54155
1.54078
1.53824
1.53509
1.53154
1.52868
1.52656
1.52563
1.52573
1.52649
1.52753
1.52932
1.53186
1.53517
1.53887
1.54322
1.54796
1.55312
1.55877
1.56472
1.57106
1.57772
1.5845
1.59166
1.59874
1.60608
1.61347
1.62065
1.62815
1.635
1.6422
1.64871
1.65527
1.66125
1.66678
1.67154
1.67522
1.67805
1.67915
1.67869
1.67691
1.67324
1.66697
1.65543
1.6409
1.62541
1.61201
1.60146
1.59514
1.59062
1.5914
0.798753
0.82878
0.853093
0.874465
0.894315
0.912902
0.93032
0.947019
0.963095
0.978734
0.99405
1.00918
1.02424
1.03927
1.05443
1.06974
1.08528
1.10109
1.11714
1.13351
1.15008
1.167
1.18411
1.20154
1.21917
1.23694
1.25481
1.2727
1.29067
1.30853
1.32639
1.34405
1.36162
1.3789
1.39597
1.41259
1.4289
1.44456
1.45973
1.47402
1.48763
1.5001
1.51169
1.52188
1.53087
1.53857
1.54571
1.55102
1.55447
1.55566
1.55574
1.55518
1.55312
1.5501
1.54613
1.54294
1.54012
1.53871
1.53836
1.53891
1.53983
1.54157
1.5442
1.54767
1.55173
1.55632
1.56134
1.56686
1.5728
1.57916
1.5858
1.59277
1.59995
1.6073
1.61486
1.62234
1.63004
1.63744
1.645
1.65198
1.65902
1.66513
1.6711
1.67572
1.67957
1.68215
1.68328
1.6828
1.68126
1.67777
1.67055
1.65878
1.64403
1.62951
1.61601
1.60673
1.5996
1.597
1.59463
1.59632
0.744339
0.775115
0.801268
0.825568
0.848535
0.870598
0.891841
0.912335
0.932202
0.951324
0.969996
0.988045
1.00559
1.02272
1.03958
1.05629
1.07293
1.08962
1.10634
1.12321
1.1402
1.15738
1.17472
1.19225
1.20994
1.22777
1.24561
1.26344
1.2813
1.29909
1.31686
1.3345
1.35201
1.36932
1.38639
1.40312
1.41949
1.43539
1.45072
1.46557
1.47958
1.49305
1.5055
1.51711
1.52751
1.5366
1.54456
1.55173
1.55743
1.5613
1.56307
1.56338
1.56257
1.56096
1.55784
1.55384
1.54984
1.54661
1.54457
1.54393
1.54435
1.54548
1.54722
1.54982
1.55355
1.55793
1.56288
1.56838
1.57436
1.58077
1.5875
1.59455
1.60189