/*--------------------------------*- C++ -*----------------------------------*\
  =========                 |
  \\      /  F ield         | OpenFOAM: The Open Source CFD Toolbox
   \\    /   O peration     | Website:  https://openfoam.org
    \\  /    A nd           | Version:  6
     \\/     M anipulation  |
\*---------------------------------------------------------------------------*/
FoamFile
{
    version     2.0;
    format      ascii;
    class       volScalarField;
    location    "7";
    object      p;
}
// * * * * * * * * * * * * * * * * * * * * * * * * * * * * * * * * * * * * * //

dimensions      [1 -1 -2 0 0 0 0];

internalField   nonuniform List<scalar> 
5250
(
1.00005
1.00028
1.00072
1.00189
1.00408
1.01047
1.02159
1.05882
1.11471
1.34591
1.73985
3.18024
6.99483
15.3604
14.0239
12.2108
11.5515
11.6145
11.8499
12.1343
12.286
12.3741
12.4472
12.5062
12.544
1.00005
1.00028
1.00072
1.00188
1.00406
1.01043
1.02151
1.05859
1.11428
1.34453
1.73694
3.17125
6.96924
15.3089
13.9761
12.1717
11.5311
11.6016
11.8451
12.1247
12.2727
12.3617
12.4371
12.4973
12.5371
1.00005
1.00027
1.00071
1.00186
1.00403
1.01034
1.02133
1.05809
1.11339
1.34147
1.7304
3.15061
6.90886
15.1922
13.8814
12.0925
11.4812
11.561
11.8144
12.0834
12.2239
12.3135
12.3918
12.4533
12.4955
1.00005
1.00027
1.0007
1.00184
1.00397
1.0102
1.02105
1.0573
1.11196
1.33655
1.71985
3.11703
6.8106
15.0104
13.7484
11.9855
11.4039
11.4905
11.7488
12.0033
12.1343
12.2217
12.3003
12.3613
12.4045
1.00005
1.00027
1.00069
1.00181
1.0039
1.01002
1.02067
1.05621
1.10999
1.32974
1.70518
3.07047
6.67545
14.7632
13.5733
11.8547
11.3031
11.3939
11.6516
11.8896
12.0102
12.0936
12.1701
12.2281
12.2708
1.00005
1.00026
1.00067
1.00176
1.00381
1.00978
1.02018
1.0548
1.10744
1.32098
1.68627
3.01075
6.50353
14.4466
13.3561
11.6995
11.1805
11.2718
11.5224
11.7397
11.8463
11.9217
11.9924
12.0464
12.0899
1.00005
1.00025
1.00065
1.00171
1.0037
1.00948
1.01958
1.05308
1.10437
1.31022
1.66325
2.93822
6.29314
14.0561
13.0965
11.5214
11.0391
11.1263
11.3597
11.5504
11.6378
11.6986
11.7553
11.798
11.84
1.00004
1.00024
1.00063
1.00165
1.00356
1.00913
1.01887
1.05108
1.10043
1.29863
1.63247
2.86625
6.03311
13.5876
12.7904
11.3275
10.8821
10.9595
11.163
11.3186
11.3778
11.4116
11.4386
11.4512
11.4794
1.00004
1.00023
1.0006
1.00158
1.00341
1.00873
1.01804
1.0488
1.09557
1.28624
1.59412
2.79522
5.72343
13.0343
12.4172
11.154
10.7157
10.7729
10.9301
11.0421
11.062
11.0515
11.0159
10.9483
10.9146
1.00004
1.00022
1.00057
1.00149
1.00323
1.00826
1.01709
1.04619
1.08995
1.27206
1.5512
2.712
5.38326
12.3925
11.9777
11.001
10.5437
10.5689
10.662
10.7179
10.6953
10.6145
10.4469
10.1921
9.87516
1.00004
1.00021
1.00053
1.0014
1.00302
1.00774
1.01602
1.04322
1.08426
1.25438
1.51199
2.59773
5.03757
11.6608
11.4879
10.8627
10.374
10.3424
10.3737
10.366
10.291
10.0922
9.70796
9.03135
7.46725
1.00003
1.00019
1.00049
1.00129
1.00279
1.00714
1.01478
1.03985
1.07761
1.23457
1.46695
2.47008
4.65497
10.8206
11.057
10.7085
10.2123
10.0994
10.0848
10.0255
9.86124
9.52042
8.96154
8.10684
6.59448
1.00003
1.00017
1.00044
1.00116
1.00252
1.00645
1.01336
1.03593
1.06995
1.21167
1.41397
2.32552
4.21422
9.8184
10.7837
10.5425
10.0664
9.88195
9.81343
9.68429
9.43057
9.01883
8.42299
7.62665
6.58451
1.00003
1.00015
1.00039
1.00102
1.00222
1.00566
1.01175
1.03145
1.06144
1.1855
1.35238
2.16572
3.72157
8.64602
10.6016
10.4115
9.9623
9.67596
9.53702
9.35999
9.06918
8.65006
8.09835
7.41889
6.62102
1.00002
1.00013
1.00033
1.00088
1.0019
1.00483
1.01002
1.02668
1.05228
1.15679
1.29226
1.97657
3.21941
7.30677
10.5469
10.3583
9.86454
9.47057
9.27138
9.07099
8.77878
8.38338
7.89369
7.32189
6.69489
1.00002
1.00011
1.00028
1.00073
1.00158
1.00401
1.00835
1.02189
1.04409
1.12491
1.2429
1.75755
2.71018
5.76185
10.4475
10.2726
9.77717
9.2843
9.03126
8.82031
8.543
8.17958
7.74674
7.25654
6.73227
1.00002
1.00009
1.00023
1.0006
1.0013
1.0033
1.00688
1.01794
1.03628
1.101
1.20008
1.60096
2.35628
4.82201
9.96879
9.987
9.67219
9.1157
8.81445
8.59914
8.34345
8.01407
7.62874
7.20347
6.75509
1.00001
1.00007
1.00019
1.00049
1.00106
1.00269
1.0056
1.0146
1.02941
1.08306
1.15667
1.49918
2.07485
4.1786
8.83959
9.57713
9.40572
8.98989
8.63933
8.40919
8.17322
7.8767
7.53398
7.16312
6.77459
1.00001
1.00006
1.00015
1.00039
1.00085
1.00215
1.00447
1.01165
1.02339
1.06652
1.12183
1.40336
1.81167
3.51687
7.24679
9.26044
9.17533
8.89555
8.51969
8.26461
8.03491
7.77038
7.46967
7.14569
6.80593
1.00001
1.00005
1.00012
1.00031
1.00066
1.00167
1.00348
1.009
1.01815
1.05067
1.09355
1.30225
1.59499
2.83179
5.48041
9.02674
9.05444
8.87327
8.48829
8.17444
7.93397
7.69276
7.4287
7.14991
6.85491
1.00001
1.00003
1.00009
1.00023
1.0005
1.00127
1.00265
1.00679
1.01384
1.03731
1.07259
1.21589
1.42295
2.31667
4.03211
8.38469
8.95053
8.81117
8.47813
8.11687
7.86251
7.64278
7.41979
7.17203
6.9285
1
1.00003
1.00007
1.00017
1.00038
1.00094
1.00197
1.00503
1.0102
1.02768
1.05171
1.16488
1.28993
2.00915
3.21103
6.90947
8.71918
8.66566
8.45494
8.08602
7.82131
7.62437
7.43197
7.22731
7.04544
1
1.00002
1.00005
1.00013
1.00028
1.0007
1.00146
1.00371
1.00757
1.02009
1.03956
1.11476
1.21499
1.68838
2.49654
5.01317
8.35264
8.54211
8.4104
8.10435
7.82956
7.63989
7.47882
7.34141
7.23258
1
1.00001
1.00004
1.00009
1.0002
1.0005
1.00105
1.00266
1.00543
1.01432
1.02838
1.07988
1.15425
1.46603
2.00673
3.77884
7.4336
8.39907
8.33685
8.14482
7.87553
7.70358
7.59657
7.54438
7.51099
1
1.00001
1.00003
1.00007
1.00014
1.00035
1.00074
1.00186
1.00381
1.00999
1.01971
1.05605
1.1025
1.3302
1.66099
2.96155
5.67508
8.10254
8.2816
8.19924
8.00509
7.86418
7.84107
7.8503
7.87399
1
1.00001
1.00002
1.00004
1.0001
1.00022
1.00056
1.00115
1.00294
1.00594
1.01584
1.03102
1.08815
1.17337
1.50901
2.11467
3.93296
7.42144
8.26473
8.299
8.2593
8.19382
8.2068
8.2472
8.31094
1
1
1.00001
1.00003
1.00007
1.00015
1.00038
1.00079
1.002
1.00405
1.01069
1.02081
1.0602
1.10783
1.35603
1.69861
3.09337
5.94306
8.12631
8.53325
8.57045
8.59765
8.65561
8.72833
8.75655
1
1
1.00001
1.00002
1.00005
1.0001
1.00025
1.00053
1.00133
1.0027
1.00708
1.01392
1.03894
1.07291
1.22326
1.43946
2.29634
3.94992
7.70128
8.86586
9.05478
9.12626
9.19241
9.21808
9.20115
1
1
1.00001
1.00001
1.00003
1.00007
1.00016
1.00034
1.00086
1.00174
1.00457
1.00865
1.02608
1.04273
1.16108
1.25264
1.9881
3.03696
6.51338
8.98831
9.63202
9.73945
9.73629
9.70587
9.6133
1
1
1
1.00001
1.00002
1.00005
1.0001
1.00026
1.00054
1.00138
1.00276
1.00744
1.01434
1.04239
1.07643
1.25092
1.49532
2.4929
4.41236
8.9079
10.398
10.4418
10.3735
10.201
9.89155
1
1
1
1.00001
1.00002
1.00003
1.00008
1.00017
1.00042
1.00085
1.00224
1.00422
1.01286
1.02103
1.0799
1.12378
1.4909
1.98231
3.96553
8.23981
10.908
10.9854
10.8417
10.4935
10.0281
1
1
1
1
1.00001
1.00002
1.00006
1.00013
1.00033
1.00068
1.00182
1.00362
1.01008
1.01844
1.06116
1.09643
1.3903
1.70706
3.41323
6.94914
11.5368
11.5145
11.2214
10.6106
10.0543
1
1
1
1
1.00001
1.00002
1.00005
1.0001
1.00027
1.00056
1.00149
1.00298
1.00829
1.01581
1.04858
1.08555
1.29712
1.58932
2.84463
5.6598
11.9047
11.8575
11.4612
10.6603
10.0673
1
1
1
1
1.00001
1.00002
1.00004
1.00008
1.00022
1.00046
1.00125
1.00251
1.00708
1.01365
1.04189
1.07508
1.26376
1.48505
2.73383
5.09977
11.7092
11.8291
11.439
10.651
10.0898
1
1
1
1
1
1.00001
1.00003
1.00005
1.00015
1.00028
1.00088
1.00149
1.00563
1.00858
1.0374
1.05451
1.2525
1.41137
2.64881
4.793
11.2117
11.7226
11.3681
10.6509
10.1433
1
1
1
1
1
1.00001
1.00001
1.00004
1.00007
1.00025
1.0004
1.00162
1.0024
1.01174
1.01625
1.08814
1.1262
1.60747
2.22597
4.88211
10.6612
11.613
11.3208
10.6891
10.2202
1
1
1
1
1
1
1.00001
1.00002
1.00008
1.00013
1.00054
1.00082
1.00387
1.00547
1.02943
1.04039
1.21449
1.33292
2.45826
4.28263
10.2115
11.6673
11.3894
10.7765
10.288
1
1
1
1
1
1
1.00001
1.00002
1.00006
1.0001
1.00043
1.00065
1.00324
1.00455
1.02561
1.03467
1.19407
1.29293
2.35844
4.00083
9.69538
11.836
11.553
10.885
10.3178
1
1
1
1
1
1
1.00001
1.00002
1.00003
1.00012
1.00021
1.00084
1.0012
1.00726
1.00972
1.06262
1.08494
1.47062
1.90305
4.052
8.97618
12.1547
11.8267
11.0068
10.318
1
1
1
1
1
1
1.00001
1.00001
1.00004
1.00007
1.00027
1.00042
1.00191
1.00258
1.01737
1.02266
1.14931
1.21241
2.12661
3.38276
8.30288
12.7607
12.2639
11.1288
10.307
1
1
1
1
1
1
1
1.00002
1.00003
1.0001
1.00016
1.00071
1.00102
1.00593
1.00804
1.04944
1.06859
1.35009
1.68483
3.23768
7.00598
13.4335
12.764
11.2872
10.332
1
1
1
1
1
1
1.00001
1.00001
1.00004
1.00006
1.00024
1.00038
1.00184
1.00257
1.01576
1.02088
1.12678
1.18178
1.8855
2.82592
6.62629
13.5703
12.8606
11.3455
10.368
1
1
1
1
1
1
1.00001
1.00002
1.00003
1.00011
1.00017
1.00076
1.00112
1.00587
1.00801
1.04574
1.06295
1.31429
1.56641
3.00647
6.06293
13.3507
12.7948
11.4752
10.4418
1
1
1
1
1
1
1.00001
1.00002
1.00006
1.0001
1.00035
1.00055
1.00236
1.00331
1.01708
1.02262
1.12484
1.179
1.82685
2.69261
6.22545
13.0295
12.5761
11.3916
10.4367
1
1
1
1
1
1.00001
1.00002
1.00003
1.00009
1.00019
1.00053
1.00107
1.0031
1.00599
1.01867
1.0329
1.12039
1.198
1.78495
2.64884
6.08711
12.7556
12.3766
11.3121
10.4217
1
1
1
1
1
1.00001
1.00002
1.00004
1.0001
1.0002
1.00056
1.00113
1.00319
1.00617
1.01881
1.03326
1.1191
1.19628
1.77001
2.61745
5.98277
12.5729
12.249
11.2707
10.4141
1
1
1
1
1
1.00001
1.00002
1.00003
1.00009
1.00019
1.00054
1.00109
1.00312
1.00605
1.01846
1.03295
1.11721
1.19425
1.75797
2.59225
5.8998
12.4156
12.1328
11.2218
10.3943
1
1
1
1
1
1
1.00001
1.00002
1.00006
1.00011
1.00039
1.00061
1.00249
1.0035
1.01694
1.02234
1.11854
1.16735
1.77192
2.56891
5.85534
12.3481
12.0912
11.2199
10.3813
1
1
1
1
1
1
1.00001
1.00002
1.00004
1.00014
1.00023
1.0009
1.00134
1.00607
1.00824
1.04349
1.05868
1.29459
1.49391
2.87408
5.4403
12.2902
12.0943
11.3399
10.4227
1
1
1
1
1
1
1.00001
1.00003
1.00007
1.00015
1.00043
1.00084
1.00254
1.00408
1.01673
1.02233
1.11557
1.16236
1.76083
2.54082
5.7851
12.2493
12.0137
11.1803
10.3672
4.08268
3.02487
3.22992
4.00098
4.0652
3.97054
3.90118
3.84137
3.77986
3.70516
3.62874
3.55542
3.48905
3.43225
3.38927
3.36741
3.35823
3.35575
3.35944
3.37615
3.4058
3.44741
3.49868
3.55634
3.61776
3.68126
3.74608
3.81175
3.8781
3.94501
4.01231
4.07963
4.14625
4.21189
4.27693
4.34229
4.40705
4.46994
4.52919
4.58442
4.63554
4.68226
4.7247
4.76263
4.7979
4.83142
4.86065
4.8847
4.90261
4.91465
4.92157
4.92392
4.92265
4.91796
4.90799
4.89387
4.87634
4.85516
4.83044
4.8022
4.77074
4.73606
4.69838
4.65786
4.61456
4.5688
4.52067
4.47045
4.41836
4.36464
4.30948
4.25316
4.19579
4.13762
4.07876
4.0194
3.95963
3.89964
3.83949
3.77933
3.71924
3.65932
3.59965
3.54031
3.48138
3.42294
3.36505
3.30784
3.25135
3.19575
3.14105
3.0875
3.03512
2.98425
2.93505
2.88816
2.84406
2.80408
2.76965
2.74533
4.60238
3.69394
3.79216
4.12038
4.06357
3.97736
3.92771
3.87294
3.79535
3.7068
3.62162
3.54245
3.47204
3.41379
3.37827
3.36337
3.35893
3.3574
3.35994
3.37501
3.40377
3.44468
3.49574
3.55335
3.61454
3.67758
3.74179
3.80688
3.87264
3.93903
4.00577
4.07242
4.13838
4.20336
4.26812
4.33418
4.40009
4.46395
4.52377
4.57967
4.6313
4.67854
4.72154
4.76026
4.79559
4.82811
4.85669
4.88024
4.89811
4.91014
4.91703
4.91921
4.91816
4.91396
4.90422
4.88888
4.87096
4.84991
4.82533
4.79727
4.76596
4.7315
4.69407
4.65384
4.61089
4.56546
4.5177
4.46782
4.41607
4.36263
4.30774
4.25159
4.1944
4.13632
4.07754
4.01821
3.95848
3.89849
3.83835
3.7782
3.71811
3.65822
3.59854
3.53925
3.48032
3.42194
3.36406
3.30692
3.25044
3.19489
3.14017
3.08666
3.03428
2.98348
2.93426
2.88735
2.84314
2.803
2.76827
2.74319
5.43331
4.69827
4.48935
4.39757
4.19282
4.02856
3.91882
3.83597
3.76233
3.68901
3.61281
3.53971
3.47349
3.41989
3.38447
3.36597
3.35757
3.34793
3.34857
3.36401
3.39354
3.4342
3.48606
3.54389
3.605
3.66804
3.73243
3.79786
3.86406
3.93107
3.99859
4.0663
4.13355
4.20019
4.26637
4.33278
4.39847
4.46213
4.5219
4.57772
4.62916
4.67629
4.71903
4.75756
4.79248
4.82406
4.85184
4.87479
4.89238
4.90425
4.9108
4.91239
4.91146
4.90777
4.89876
4.88204
4.86312
4.84183
4.81735
4.78948
4.75842
4.72427
4.68722
4.64741
4.60495
4.56007
4.51284
4.46353
4.41225
4.35929
4.30474
4.24893
4.19192
4.13402
4.07528
4.01602
3.95625
3.89627
3.83609
3.77594
3.71582
3.65595
3.59629
3.53702
3.47817
3.41983
3.36206
3.30495
3.24863
3.19319
3.1387
3.08525
3.03301
2.98216
2.933
2.88597
2.84168
2.80129
2.76629
2.74042
5.82806
5.19306
4.82746
4.60258
4.38238
4.15975
3.98481
3.87642
3.78841
3.70816
3.62972
3.55648
3.49287
3.44186
3.40513
3.38141
3.36611
3.35846
3.36038
3.37198
3.39845
3.43677
3.48599
3.54219
3.60232
3.66481
3.72886
3.79414
3.86042
3.9277
3.99551
4.06353
4.13114
4.19815
4.26448
4.33039
4.39522
4.45805
4.51749
4.57311
4.62431
4.67117
4.71355
4.75164
4.78585
4.81629
4.84286
4.86484
4.88178
4.89325
4.89939
4.90024
4.89939
4.89616
4.88809
4.87144
4.85108
4.82902
4.80452
4.77698
4.74634
4.71268
4.67617
4.63696
4.5952
4.55103
4.50457
4.456
4.40547
4.35315
4.29922
4.24386
4.18726
4.12962
4.07113
4.01198
3.95235
3.8924
3.83232
3.77218
3.71217
3.65231
3.59278
3.53355
3.47482
3.41662
3.35913
3.30227
3.24618
3.19087
3.13648
3.08311
3.03091
2.98012
2.93097
2.88396
2.83959
2.7991
2.76355
2.73722
6.05589
5.4908
5.07297
4.78111
4.54325
4.32323
4.13223
3.98749
3.87971
3.79308
3.71701
3.65012
3.59454
3.54864
3.51148
3.48006
3.45309
3.43173
3.41712
3.41718
3.42383
3.44426
3.48665
3.53941
3.59862
3.661
3.7254
3.79145
3.8585
3.92633
3.99455
4.06285
4.13086
4.19826
4.26478
4.33032
4.39443
4.45637
4.51508
4.56992
4.62037
4.66636
4.70784
4.74509
4.77806
4.80706
4.83202
4.85264
4.86867
4.87961
4.88534
4.88547
4.88462
4.88161
4.87418
4.85862
4.83732
4.81426
4.78941
4.76206
4.73186
4.69874
4.66285
4.62431
4.58328
4.53987
4.49421
4.44644
4.39665
4.34505
4.29172
4.23692
4.18074
4.12348
4.06522
4.0063
3.9468
3.887
3.82701
3.76701
3.7071
3.64737
3.58805
3.52919
3.47084
3.41299
3.35568
3.29905
3.24305
3.18794
3.13365
3.08051
3.02843
2.97787
2.92883
2.88203
2.83773
2.79737
2.76162
2.73508
6.1976
5.70195
5.2937
4.97672
4.72123
4.50312
4.31675
4.16834
4.05721
3.97121
3.90516
3.85378
3.8109
3.76784
3.71713
3.65877
3.59766
3.54502
3.5045
3.4799
3.47559
3.48066
3.49815
3.537
3.59463
3.65809
3.72439
3.79199
3.8599
3.92805
3.9961
4.06388
4.13116
4.19758
4.26291
4.32688
4.38925
4.44948
4.50687
4.56066
4.61015
4.65525
4.69586
4.7321
4.76397
4.79175
4.81547
4.83502
4.85023
4.8607
4.8661
4.86604
4.86515
4.86225
4.8554
4.84115
4.82021
4.79668
4.77137
4.74398
4.7141
4.68155
4.64631
4.60851
4.56825
4.52566
4.48083
4.43391
4.38493
4.33412
4.28148
4.22732
4.17165
4.11484
4.05692
3.9983
3.93904
3.87947
3.81968
3.75986
3.70032
3.64109
3.58222
3.52367
3.46552
3.40785
3.35071
3.29427
3.23851
3.18364
3.12963
3.07675
3.02497
2.9747
2.92599
2.87954
2.83563
2.79573
2.76023
2.73429
6.3007
5.86913
5.48919
5.17652
4.92084
4.70707
4.52988
4.3894
4.28564
4.21461
4.16776
4.13344
4.09695
4.04567
3.974
3.88506
3.79169
3.70585
3.63501
3.58192
3.54961
3.54136
3.54537
3.55996
3.5937
3.65343
3.72
3.78839
3.85802
3.92718
3.99549
4.06268
4.12869
4.19344
4.25691
4.31894
4.37937
4.43777
4.49361
4.54632
4.59478
4.63928
4.67929
4.71495
4.74596
4.77286
4.79554
4.8141
4.82855
4.8386
4.84373
4.84362
4.84267
4.83986
4.83344
4.8202
4.80063
4.77744
4.75191
4.72432
4.69455
4.66236
4.62771
4.59058
4.55107
4.50925
4.46524
4.41912
4.37096
4.32091
4.26901
4.21549
4.16041
4.1041
4.04665
3.98841
3.92952
3.87028
3.811
3.75182
3.69284
3.63397
3.57538
3.51707
3.45918
3.4018
3.34499
3.28888
3.23349
3.17897
3.12535
3.07284
3.0215
2.97168
2.92353
2.87771
2.83457
2.79564
2.76082
2.73636
6.38391
6.01019
5.67211
5.38096
5.1393
4.94275
4.78567
4.66822
4.58703
4.53826
4.5099
4.48422
4.44201
4.37152
4.27018
4.14919
4.02154
3.90136
3.79799
3.71521
3.65579
3.62116
3.6137
3.61749
3.63084
3.66166
3.71939
3.78572
3.85337
3.9219
3.99022
4.05713
4.12189
4.18458
4.24543
4.30464
4.36228
4.41819
4.472
4.5232
4.57102
4.61505
4.65481
4.69028
4.72118
4.74764
4.76999
4.78822
4.80233
4.81236
4.81756
4.81742
4.81645
4.81374
4.8077
4.79539
4.77754
4.75537
4.73009
4.70242
4.67263
4.64066
4.60644
4.5699
4.53108
4.49001
4.44677
4.40144
4.35408
4.30479
4.25364
4.2008
4.14638
4.09061
4.03372
3.97594
3.9177
3.85916
3.80059
3.74189
3.6833
3.62474
3.56649
3.50854
3.45105
3.39408
3.33769
3.282
3.22705
3.17297
3.11983
3.06784
3.01709
2.96796
2.92065
2.87588
2.83404
2.7966
2.76313
2.74185
6.46797
6.14563
5.85419
5.60167
5.39365
5.22897
5.10505
5.02143
4.97073
4.9426
4.91962
4.88078
4.81066
4.70348
4.56717
4.41366
4.25681
4.10963
3.98145
3.87647
3.79601
3.74022
3.70868
3.70188
3.70495
3.71597
3.74159
3.79204
3.85119
3.91409
3.97742
4.04215
4.10541
4.16647
4.22518
4.2818
4.33662
4.38983
4.44134
4.49085
4.5378
4.58156
4.62155
4.65738
4.68881
4.71576
4.73849
4.75676
4.77104
4.78143
4.78723
4.78711
4.78623
4.78379
4.77839
4.76742
4.75117
4.73046
4.70604
4.67873
4.64906
4.61726
4.58336
4.54731
4.5091
4.46873
4.42623
4.38168
4.33508
4.28657
4.23615
4.18403
4.13029
4.07518
4.01897
3.96203
3.90467
3.84688
3.78888
3.73068
3.67252
3.61446
3.55667
3.49924
3.44222
3.38576
3.32985
3.2747
3.22025
3.16677
3.11423
3.06294
3.01298
2.96483
2.91869
2.87554
2.83525
2.80008
2.76903
2.75289
6.56792
6.29972
6.05991
5.85739
5.69664
5.57847
5.49907
5.45062
5.42045
5.38973
5.34111
5.26163
5.14751
5.00228
4.83583
4.66043
4.48769
4.32698
4.18548
4.06662
3.97094
3.89772
3.84608
3.81515
3.8029
3.8042
3.81064
3.82747
3.86266
3.9114
3.96702
4.02149
4.07957
4.13804
4.19518
4.25025
4.30321
4.35425
4.40358
4.45119
4.49685
4.54
4.58007
4.61646
4.64879
4.6768
4.70049
4.71985
4.73502
4.7461
4.75279
4.75341
4.75275
4.75062
4.74583
4.73607
4.72141
4.70229
4.67914
4.65259
4.62332
4.59175
4.5581
4.52241
4.48468
4.44491
4.40307
4.35923
4.31335
4.26558
4.21588
4.16448
4.11143
4.05715
4.00194
3.94598
3.88942
3.83233
3.77495
3.71734
3.65978
3.60229
3.54508
3.4882
3.43175
3.37586
3.32055
3.266
3.21221
3.15942
3.10767
3.05729
3.00843
2.96161
2.91726
2.87617
2.83833
2.8068
2.7798
2.77024
6.69889
6.49169
6.31445
6.17267
6.06823
5.99801
5.95225
5.9166
5.87129
5.80614
5.71076
5.58345
5.42861
5.25526
5.07294
4.89031
4.71495
4.55241
4.40677
4.28029
4.17362
4.08609
4.01669
3.96462
3.92912
3.90818
3.90132
3.90308
3.91046
3.92843
3.96504
4.00967
4.05379
4.10319
4.15623
4.20938
4.26139
4.31148
4.35956
4.40571
4.44995
4.49201
4.53156
4.56807
4.6011
4.63028
4.65537
4.67629
4.69295
4.70545
4.71341
4.7157
4.71518
4.71341
4.70938
4.70115
4.68801
4.67055
4.64897
4.62364
4.59516
4.56407
4.53075
4.49542
4.45811
4.41887
4.37764
4.33448
4.28931
4.24227
4.1933
4.14264
4.09054
4.03737
3.98322
3.9282
3.8725
3.8162
3.75958
3.70271
3.64585
3.58905
3.5325
3.47627
3.42048
3.36525
3.31064
3.25681
3.20382
3.15189
3.10115
3.05194
3.00452
2.95955
2.9176
2.87888
2.84487
2.81834
2.79776
2.79508
6.88337
6.7456
6.63621
6.55559
6.49912
6.45634
6.41157
6.35048
6.26253
6.1454
6.00184
5.83773
5.66068
5.47709
5.2932
5.11434
4.94447
4.78618
4.64131
4.51098
4.39604
4.29653
4.21173
4.14124
4.08468
4.04143
4.01104
3.99132
3.98372
3.98525
3.99193
4.00835
4.04209
4.07632
4.11602
4.16203
4.21137
4.2608
4.30878
4.35466
4.39823
4.43937
4.47809
4.51411
4.54727
4.57716
4.60355
4.6261
4.64459
4.65897
4.66873
4.67347
4.6732
4.67197
4.66889
4.6624
4.65085
4.63512
4.61524
4.59138
4.564
4.53367
4.50087
4.46595
4.42907
4.39031
4.34964
4.30712
4.26263
4.21627
4.16806
4.11838
4.06744
4.01538
3.96229
3.90826
3.85351
3.79812
3.74237
3.68633
3.63026
3.57422
3.51842
3.46292
3.4079
3.35343
3.29964
3.24667
3.19464
3.14378
3.09432
3.04666
3.00118
2.95885
2.91952
2.88469
2.85612
2.83625
2.82559
2.82634
7.14423
7.07593
7.02553
6.98639
6.94755
6.89344
6.81233
6.70095
6.562
6.40169
6.22756
6.04608
5.86278
5.68202
5.5066
5.33792
5.17721
5.02529
4.88295
4.75067
4.62924
4.51943
4.4212
4.33455
4.25942
4.19586
4.14377
4.10276
4.07262
4.05215
4.04327
4.04459
4.05064
4.06572
4.09535
4.12253
4.16009
4.2046
4.25124
4.29706
4.34077
4.38191
4.42034
4.45595
4.48887
4.51897
4.5461
4.56987
4.59
4.60615
4.61821
4.62531
4.62657
4.6259
4.62378
4.61904
4.60946
4.59552
4.57745
4.5553
4.52936
4.50012
4.46813
4.43384
4.3975
4.35928
4.31918
4.27727
4.23342
4.18778
4.14056
4.09204
4.04229
3.99136
3.93941
3.88647
3.83279
3.77842
3.72365
3.66854
3.61336
3.55817
3.50323
3.44857
3.39441
3.34083
3.28799
3.23604
3.18517
3.13567
3.08785
3.04221
2.99948
2.96011
2.92451
2.89535
2.87415
2.86363
2.86275
2.86463
7.48955
7.47229
7.45343
7.42069
7.3596
7.25807
7.12204
6.96108
6.78481
6.60128
6.41666
6.23469
6.05759
5.88677
5.72246
5.56429
5.41205
5.26569
5.12547
4.99178
4.86505
4.74647
4.63677
4.5364
4.44558
4.36465
4.29378
4.23317
4.18279
4.14268
4.1128
4.09322
4.08436
4.08549
4.091
4.10489
4.12629
4.15297
4.1923
4.23419
4.27672
4.31808
4.35701
4.39309
4.42636
4.45681
4.4844
4.50891
4.53012
4.54772
4.56159
4.57092
4.57522
4.57491
4.57359
4.57032
4.56337
4.55132
4.53515
4.51487
4.49062
4.46281
4.43196
4.39859
4.36299
4.32544
4.28599
4.24468
4.20152
4.15681
4.11076
4.06344
4.01491
3.9652
3.91445
3.8627
3.81018
3.75693
3.70323
3.64915
3.59496
3.54074
3.48675
3.43305
3.37988
3.32733
3.27561
3.22492
3.1755
3.12774
3.08206
3.03919
3.00002
2.96419
2.93438
2.91286
2.90166
2.90212
2.905
2.91371
7.8935
7.88966
7.87051
7.8177
7.70419
7.53484
7.3477
7.15478
6.9622
6.77415
6.59297
6.41959
6.25387
6.09458
5.94069
5.79112
5.64528
5.50276
5.36375
5.22853
5.09762
4.972
4.85299
4.74127
4.6375
4.54209
4.45551
4.37805
4.31
4.25152
4.20273
4.16365
4.13472
4.1158
4.10734
4.10836
4.11328
4.12444
4.14503
4.17378
4.20999
4.24869
4.28707
4.32401
4.35861
4.39031
4.41883
4.44411
4.46606
4.48463
4.49976
4.51092
4.51793
4.5189
4.51826
4.51619
4.5115
4.50199
4.48781
4.46946
4.44711
4.42106
4.39175
4.35965
4.32512
4.28848
4.24981
4.20921
4.16698
4.12341
4.07858
4.03252
3.98528
3.93687
3.88743
3.83697
3.7857
3.73367
3.68115
3.6282
3.57512
3.52198
3.46907
3.41647
3.36443
3.31312
3.26274
3.21361
3.16603
3.12053
3.07772
3.03874
3.00308
2.97294
2.95108
2.9401
2.94067
2.94453
2.95557
2.982
8.322
8.3076
8.25677
8.13962
7.94563
7.73269
7.52031
7.31613
7.12315
6.94164
6.7707
6.60874
6.45401
6.30448
6.15861
6.0151
5.87334
5.73292
5.59409
5.45717
5.32274
5.19163
5.06522
4.9445
4.83026
4.72318
4.62373
4.53236
4.44938
4.3751
4.30972
4.25345
4.20662
4.16938
4.14171
4.12354
4.11531
4.11627
4.11996
4.12991
4.15083
4.17983
4.2129
4.24889
4.28445
4.31792
4.34828
4.3751
4.39824
4.41784
4.4339
4.4465
4.45499
4.45854
4.45822
4.45693
4.45376
4.44707
4.43499
4.41865
4.3984
4.37443
4.34703
4.3166
4.2835
4.24805
4.21036
4.17081
4.12981
4.08751
4.04399
3.99925
3.95339
3.90636
3.85831
3.80923
3.7593
3.70861
3.65734
3.60566
3.55378
3.50188
3.45017
3.39886
3.34816
3.29832
3.24961
3.20243
3.15727
3.11472
3.07603
3.04099
3.01072
2.98884
2.97786
2.97849
2.98256
2.99444
3.02184
3.08065
8.74264
8.68884
8.56187
8.34777
8.11392
7.88558
7.67045
7.47059
7.2861
7.11539
6.95549
6.80371
6.6576
6.515
6.37428
6.2343
6.09449
5.95469
5.81517
5.67643
5.5391
5.40377
5.27165
5.14395
5.02153
4.90513
4.79531
4.69253
4.59718
4.50954
4.42991
4.35853
4.29553
4.24141
4.19632
4.16046
4.13415
4.11686
4.11017
4.10971
4.11233
4.12139
4.14127
4.17112
4.20375
4.23768
4.2701
4.29951
4.32517
4.34687
4.36453
4.37849
4.38812
4.39395
4.394
4.39335
4.39123
4.38648
4.37673
4.36243
4.34441
4.32273
4.29752
4.2691
4.23777
4.2038
4.1675
4.12943
4.08988
4.04899
4.00689
3.96359
3.91918
3.87362
3.82703
3.77943
3.73093
3.68167
3.63179
3.5815
3.53098
3.48046
3.43016
3.38034
3.33124
3.28322
3.23662
3.19198
3.14996
3.11165
3.07757
3.04767
3.02586
3.01512
3.0158
3.01997
3.03207
3.05959
3.11253
3.20742
9.13658
8.9864
8.74835
8.49522
8.25201
8.02588
7.81906
7.63095
7.45881
7.29873
7.14796
7.00356
6.86298
6.72422
6.58587
6.44707
6.30744
6.16702
6.02617
5.88546
5.74553
5.60698
5.4706
5.33758
5.20879
5.08502
4.96686
4.8548
4.74923
4.65047
4.55883
4.47457
4.39789
4.32911
4.26843
4.2163
4.17298
4.13878
4.11348
4.10029
4.08986
4.08908
4.09204
4.10153
4.12203
4.15119
4.18266
4.21408
4.24323
4.26863
4.28956
4.30593
4.31789
4.32513
4.3271
4.32662
4.32501
4.32125
4.31349
4.30122
4.28539
4.26604
4.24318
4.21701
4.18774
4.15562
4.12117
4.08488
4.04701
4.00775
3.96721
3.92547
3.8826
3.83861
3.79357
3.74753
3.70058
3.65286
3.60451
3.55575
3.50676
3.45781
3.40917
3.36111
3.31399
3.26822
3.22433
3.18305
3.14535
3.11252
3.08339
3.06183
3.05178
3.05258
3.05714
3.07003
3.09939
3.15948
3.22859
3.33227
9.41686
9.15011
8.87556
8.61686
8.38091
8.16791
7.97605
7.80189
7.64127
7.49088
7.34713
7.20708
7.06881
6.93084
6.79226
6.65258
6.51165
6.36968
6.22705
6.08434
5.9421
5.80095
5.66135
5.52434
5.39068
5.26117
5.13642
5.0169
4.90311
4.79526
4.69376
4.59871
4.51051
4.42929
4.35539
4.2889
4.2302
4.17971
4.13784
4.1053
4.08301
4.06767
4.05545
4.05584
4.05964
4.07004
4.09201
4.12012
4.15039
4.17921
4.20461
4.22546
4.24118
4.25183
4.25666
4.25647
4.25541
4.25265
4.24676
4.23611
4.22209
4.20481
4.18423
4.16039
4.13334
4.10343
4.0712
4.03698
4.00105
3.96361
3.9248
3.88475
3.84353
3.8012
3.75781
3.71344
3.66817
3.62213
3.57548
3.52842
3.48119
3.43407
3.38738
3.34148
3.29682
3.25396
3.21366
3.17689
3.14539
3.1175
3.09656
3.08738
3.08838
3.09342
3.10732
3.13826
3.20037
3.28193
3.35213
3.44283
9.56995
9.26199
8.98285
8.7354
8.51661
8.32147
8.14582
7.98494
7.83432
7.69022
7.54978
7.41092
7.27211
7.13253
6.9917
6.84962
6.70635
6.56221
6.41755
6.27285
6.1286
5.98531
5.84333
5.70342
5.56624
5.43244
5.30267
5.17732
5.05697
4.94177
4.83216
4.72821
4.63027
4.53842
4.45299
4.37424
4.30235
4.2377
4.18071
4.13192
4.09182
4.06202
4.03908
4.02052
4.01039
4.0115
4.01644
4.02835
4.05235
4.07899
4.10694
4.13246
4.1537
4.16953
4.17964
4.18259
4.18212
4.18038
4.17632
4.16798
4.1556
4.14001
4.1214
4.09978
4.07505
4.04755
4.01771
3.98577
3.95198
3.91653
3.87963
3.8414
3.80196
3.76139
3.71978
3.67721
3.63375
3.58956
3.54479
3.49968
3.45447
3.40952
3.36518
3.32197
3.28044
3.24142
3.2059
3.17575
3.14962
3.12996
3.12199
3.12326
3.12902
3.14438
3.17804
3.24418
3.32317
3.40624
3.46514
3.53377
9.64222
9.3324
9.07631
8.85739
8.6652
8.4926
8.33299
8.18194
8.03627
7.8935
7.75198
7.61046
7.46822
7.325
7.18079
7.03567
6.88977
6.74337
6.59675
6.4503
6.30437
6.15939
6.01569
5.87366
5.73393
5.59702
5.46353
5.33383
5.2084
5.08741
4.97126
4.85999
4.75396
4.65326
4.55815
4.4688
4.38549
4.30863
4.23852
4.17556
4.12037
4.0735
4.03566
4.00633
3.98031
3.96077
3.95618
3.9577
3.96353
3.97698
4.00092
4.02637
4.05181
4.07377
4.09041
4.10076
4.10364
4.10304
4.10094
4.09603
4.08608
4.07227
4.05545
4.03579
4.01329
3.98828
3.96091
3.93136
3.89984
3.86654
3.83168
3.7954
3.75788
3.71922
3.67952
3.63889
3.59742
3.55528
3.51264
3.46973
3.42692
3.38454
3.34315
3.30332
3.26591
3.232
3.20346
3.1795
3.16169
3.15542
3.15708
3.16388
3.18159
3.21973
3.28774
3.36889
3.4482
3.5174
3.55852
3.60497
9.66606
9.39397
9.18206
9.0004
8.83516
8.67965
8.52988
8.38292
8.23702
8.09143
7.94554
7.79927
7.65247
7.50526
7.3576
7.20954
7.06126
6.9129
6.76469
6.61692
6.46981
6.3237
6.17883
6.0355
5.8942
5.75539
5.61938
5.48657
5.35726
5.23175
5.11026
4.99302
4.8802
4.77199
4.6686
4.57023
4.47714
4.38954
4.30787
4.23251
4.16384
4.10242
4.0491
4.00437
3.96881
3.93504
3.90907
3.89393
3.89232
3.89423
3.90085
3.91555
3.939
3.96316
3.98578
4.0039
4.01564
4.01978
4.01925
4.01712
4.01199
4.00152
3.98705
3.96929
3.9489
3.92619
3.90122
3.87407
3.84486
3.8138
3.7811
3.74692
3.71144
3.67481
3.63717
3.59865
3.55936
3.51952
3.47928
3.43899
3.39901
3.35983
3.32214
3.28671
3.2548
3.22826
3.20671
3.1912
3.18737
3.18962
3.19793
3.21869
3.26252
3.33282
3.41494
3.49479
3.56041
3.6084
3.6316
3.65957
9.70433
9.47491
9.30464
9.15502
9.01126
8.86772
8.72298
8.57596
8.42685
8.27638
8.12515
7.97385
7.82281
7.67191
7.5212
7.37076
7.22067
7.07106
6.922
6.77362
6.62605
6.4795
6.3341
6.1901
6.04779
5.90771
5.77003
5.63493
5.50267
5.37347
5.24761
5.12526
5.00668
4.89205
4.78163
4.67558
4.57421
4.47769
4.38636
4.30048
4.22047
4.14667
4.0796
4.01983
3.968
3.92558
3.88566
3.85213
3.83086
3.81945
3.81962
3.82217
3.82978
3.84611
3.86874
3.89175
3.91143
3.92495
3.93149
3.93119
3.92945
3.92492
3.91534
3.90071
3.88267
3.86223
3.83952
3.81462
3.78769
3.75894
3.72851
3.69655
3.66327
3.62882
3.5934
3.55713
3.52025
3.48292
3.44545
3.40816
3.37165
3.3364
3.30351
3.27387
3.24989
3.23118
3.21775
3.21729
3.22029
3.23053
3.25521
3.30594
3.37931
3.46215
3.54158
3.60672
3.65179
3.67875
3.68791
3.70266
9.77329
9.58759
9.44866
9.31774
9.1824
9.04065
8.89303
8.74197
8.58915
8.43552
8.28195
8.12878
7.97618
7.82384
7.67189
7.52052
7.36986
7.21996
7.0708
6.92241
6.77485
6.6282
6.48257
6.33811
6.19493
6.0536
5.91448
5.77754
5.6429
5.51069
5.38115
5.25449
5.13098
5.01084
4.89433
4.78169
4.67314
4.56894
4.46923
4.3744
4.28459
4.20027
4.12175
4.04957
3.98432
3.9264
3.87764
3.83183
3.79235
3.7634
3.74584
3.73801
3.73882
3.74282
3.75269
3.7727
3.79426
3.81467
3.83031
3.83903
3.84023
3.83923
3.83595
3.82854
3.81417
3.79677
3.77642
3.75367
3.72894
3.70248
3.67439
3.64479
3.61387
3.58179
3.54879
3.51505
3.48081
3.44638
3.41204
3.37844
3.34598
3.3159
3.28897
3.26775
3.25242
3.24205
3.24286
3.24771
3.2613
3.29125
3.35061
3.42639
3.50997
3.58843
3.65255
3.6967
3.72156
3.73176
3.7335
3.73788
9.87051
9.71103
9.58517
9.45946
9.32492
9.18179
9.03262
8.88005
8.72592
8.5713
8.41676
8.26254
8.10887
7.95637
7.80506
7.65483
7.50547
7.35686
7.2089
7.06156
6.91482
6.76873
6.62335
6.47881
6.33507
6.19254
6.05184
5.91308
5.77622
5.64133
5.50856
5.37815
5.25037
5.12549
5.00377
4.88553
4.7709
4.66025
4.55351
4.45118
4.35316
4.26008
4.17201
4.08951
4.01293
3.94284
3.87979
3.82512
3.77423
3.72918
3.69434
3.67065
3.65591
3.65294
3.65456
3.66024
3.67303
3.69418
3.7155
3.7332
3.74475
3.74926
3.74866
3.74632
3.7405
3.72862
3.7118
3.69156
3.66916
3.64498
3.61923
3.59207
3.56366
3.53417
3.50381
3.47287
3.44164
3.41052
3.38005
3.3508
3.32386
3.30007
3.28193
3.27033
3.26391
3.26563
3.27277
3.29083
3.32902
3.39356
3.47279
3.55673
3.63445
3.69701
3.74032
3.76386
3.77274
3.77229
3.77049
3.77076
9.96149
9.80988
9.68859
9.5643
9.42937
9.28569
9.13681
8.98536
8.83286
8.68013
8.52763
8.37569
8.22457
8.07447
7.92536
7.77711
7.62954
7.48251
7.33589
7.18963
7.04368
6.89813
6.75295
6.60829
6.46419
6.3207
6.1785
6.03809
5.89939
5.76224
5.62688
5.49337
5.36214
5.23334
5.10732
4.98432
4.86454
4.74823
4.63564
4.52692
4.42237
4.32207
4.22629
4.13533
4.04951
3.9693
3.89526
3.82784
3.76838
3.71283
3.66313
3.62372
3.59408
3.57507
3.56561
3.56619
3.56945
3.57791