/*--------------------------------*- C++ -*----------------------------------*\
  =========                 |
  \\      /  F ield         | OpenFOAM: The Open Source CFD Toolbox
   \\    /   O peration     | Website:  https://openfoam.org
    \\  /    A nd           | Version:  6
     \\/     M anipulation  |
\*---------------------------------------------------------------------------*/
FoamFile
{
    version     2.0;
    format      ascii;
    class       surfaceScalarField;
    location    "7";
    object      phi;
}
// * * * * * * * * * * * * * * * * * * * * * * * * * * * * * * * * * * * * * //

dimensions      [1 0 -1 0 0 0 0];

internalField   nonuniform List<scalar> 
10325
(
0.00840002
3.62545e-10
0.00840002
2.26546e-09
0.00840001
6.88134e-09
0.00839999
1.82548e-08
0.00839994
4.12469e-08
0.00839982
9.71218e-08
0.0083996
2.04944e-07
0.00839899
4.98132e-07
0.00839791
1.01824e-06
0.00839452
2.87962e-06
0.00838708
6.90693e-06
0.00836401
2.29806e-05
0.00826068
9.63625e-05
0.00776529
0.000484513
0.00712818
0.000632738
0.00645093
0.000675081
0.00578201
0.000667393
0.00510879
0.000671771
0.00445064
0.000656704
0.00376703
0.00068227
0.0030455
0.000720166
0.00229856
0.000745587
0.00154015
0.000757176
0.000772539
0.000766418
0.000771383
0.00840002
7.57837e-10
0.00840002
4.74159e-09
0.00840001
1.43473e-08
0.00839999
3.81762e-08
0.00839994
8.60712e-08
0.00839981
2.04052e-07
0.00839956
4.29335e-07
0.0083989
1.05955e-06
0.0083977
2.14012e-06
0.00839387
6.21708e-06
0.00838523
1.49963e-05
0.00835723
5.08915e-05
0.00823131
0.00021534
0.00768051
0.00102442
0.00707751
0.00123136
0.00646176
0.00128864
0.00583141
0.00129624
0.00517773
0.00132399
0.00449937
0.00133364
0.00379416
0.0013861
0.00306114
0.00145186
0.0023095
0.00149583
0.00154647
0.00151896
0.000775648
0.00153604
0.00154574
0.00840002
1.1858e-09
0.00840002
7.41816e-09
0.00840001
2.2424e-08
0.00839998
5.97406e-08
0.00839993
1.34705e-07
0.00839979
3.20331e-07
0.00839953
6.74192e-07
0.00839881
1.67398e-06
0.0083975
3.37221e-06
0.00839333
9.88804e-06
0.00838386
2.39222e-05
0.00835289
8.17721e-05
0.00821992
0.000341453
0.00766189
0.00157151
0.00705421
0.00183452
0.00645942
0.00188121
0.00585517
0.00189907
0.00522302
0.00195476
0.00454539
0.00200989
0.00383388
0.00209631
0.00309413
0.00219026
0.00232977
0.00225889
0.00155405
0.00229348
0.00077189
0.00231695
0.00231671
0.00840002
1.63577e-09
0.00840002
1.02323e-08
0.00840001
3.09183e-08
0.00839998
8.24111e-08
0.00839993
1.85873e-07
0.00839978
4.4245e-07
0.00839951
9.31829e-07
0.00839876
2.31458e-06
0.00839739
4.6716e-06
0.00839311
1.36721e-05
0.00838338
3.31086e-05
0.00835159
0.000113384
0.00822315
0.000463272
0.00766922
0.00211386
0.00705638
0.00244355
0.00647978
0.00245544
0.00589627
0.00248092
0.00528064
0.00256884
0.00461825
0.00267083
0.00390553
0.00280743
0.00316494
0.00292941
0.00239471
0.00302765
0.00159465
0.00309235
0.000788933
0.00312136
0.0031045
0.00840002
2.09817e-09
0.00840002
1.31237e-08
0.00840001
3.96434e-08
0.00839998
1.05695e-07
0.00839992
2.38426e-07
0.00839978
5.678e-07
0.00839949
1.19633e-06
0.00839873
2.96999e-06
0.00839733
6.00341e-06
0.008393
1.75038e-05
0.00838315
4.24146e-05
0.00835096
0.00014535
0.00822945
0.000578391
0.00769027
0.00264108
0.0070815
0.0030485
0.00651433
0.00302031
0.00594987
0.00304396
0.00535495
0.00316226
0.00471112
0.00331321
0.00401413
0.00350333
0.00327061
0.00367164
0.00249397
0.00380284
0.00168171
0.00390338
0.000840801
0.00396089
0.00394393
0.00840002
2.56008e-09
0.00840002
1.60127e-08
0.00840001
4.837e-08
0.00839998
1.2896e-07
0.00839992
2.90866e-07
0.00839978
6.92761e-07
0.0083995
1.45887e-06
0.00839873
3.63163e-06
0.00839739
7.26372e-06
0.00839294
2.14564e-05
0.00838357
5.12398e-05
0.00835118
0.000177507
0.00824106
0.000682329
0.00772335
0.00314673
0.0071201
0.00364777
0.00656314
0.00357516
0.00602041
0.00358524
0.00545564
0.00372574
0.00483027
0.00393676
0.00415805
0.00417422
0.00343201
0.00439653
0.00264681
0.00458682
0.00180673
0.00474221
0.000918028
0.00484855
0.0048608
0.00840002
3.01986e-09
0.00840002
1.89101e-08
0.00840001
5.71046e-08
0.00839998
1.5241e-07
0.00839992
3.43386e-07
0.00839978
8.19858e-07
0.00839949
1.72477e-06
0.00839877
4.24608e-06
0.00839702
8.93545e-06
0.00839396
2.40237e-05
0.0083805
6.41422e-05
0.00836828
0.000189572
0.00825872
0.000785993
0.00777381
0.00361903
0.00717119
0.00424509
0.00662918
0.00411562
0.00611705
0.00409659
0.00558868
0.0042532
0.00500207
0.00452206
0.00434984
0.00482475
0.00364431
0.00510054
0.00286846
0.00536117
0.00200558
0.0056036
0.00104148
0.00581097
0.00590066
0.00840002
3.50474e-09
0.00840002
2.19569e-08
0.00840001
6.63037e-08
0.00839998
1.77024e-07
0.00839992
3.98725e-07
0.00839977
9.52591e-07
0.00839946
2.00442e-06
0.00839873
4.87998e-06
0.00839687
1.0669e-05
0.00839376
2.66865e-05
0.00838065
7.64359e-05
0.00836771
0.000201521
0.00827484
0.000871933
0.00782415
0.0040578
0.00719902
0.00486418
0.00673248
0.0045804
0.00626283
0.00456563
0.0057687
0.00474696
0.0052251
0.00506471
0.00462132
0.00542718
0.00394617
0.00577423
0.00319272
0.00611336
0.00231829
0.00647661
0.001266
0.00686211
0.00716533
0.00840002
4.03723e-09
0.00840002
2.52835e-08
0.00840001
7.63495e-08
0.00839998
2.03766e-07
0.00839991
4.59105e-07
0.00839975
1.09538e-06
0.00839942
2.30578e-06
0.00839861
5.58776e-06
0.00839691
1.22443e-05
0.0083928
3.0332e-05
0.00838293
8.55166e-05
0.00835436
0.00022903
0.00829553
0.000924608
0.00790698
0.0044338
0.00734142
0.00542281
0.00688435
0.0050366
0.00645423
0.0049954
0.00600723
0.00519328
0.00550586
0.00556529
0.00495819
0.0059731
0.00437303
0.00635744
0.00370061
0.0067837
0.00285079
0.00732481
0.00172319
0.00798766
0.00888685
0.00840002
4.60849e-09
0.00840002
2.88178e-08
0.00840001
8.71665e-08
0.00839997
2.31958e-07
0.0083999
5.23555e-07
0.00839974
1.23982e-06
0.00839941
2.61425e-06
0.00839855
6.34318e-06
0.00839762
1.30724e-05
0.00839155
3.58821e-05
0.00839139
8.51798e-05
0.00833817
0.000280544
0.00831316
0.000944746
0.00798638
0.00474785
0.00748694
0.00591399
0.00706479
0.00545725
0.00668575
0.00537417
0.00628347
0.00559527
0.00587378
0.00597446
0.0054348
0.00641176
0.00495842
0.00683297
0.00440492
0.00733547
0.00372113
0.00800649
0.0027596
0.00894733
0.0116457
0.00840002
5.28161e-09
0.00840002
3.30243e-08
0.0084
9.98688e-08
0.00839997
2.65801e-07
0.00839988
6.00065e-07
0.00839968
1.42084e-06
0.00839927
2.99734e-06
0.00839827
7.23069e-06
0.00839616
1.50817e-05
0.00839133
4.01706e-05
0.0083791
9.68481e-05
0.00834979
0.000308
0.00827843
0.00101182
0.00793095
0.00508206
0.00767594
0.00616478
0.00725749
0.0058771
0.00692311
0.00570754
0.00659014
0.00592646
0.00629887
0.00626394
0.0060338
0.00667532
0.00570606
0.00715973
0.00535758
0.00768223
0.00516235
0.00819906
0.00549429
0.00861214
0.00822477
0.00891123
0.00840002
6.04274e-09
0.00840002
3.77777e-08
0.0084
1.14145e-07
0.00839996
3.04113e-07
0.00839987
6.86815e-07
0.00839963
1.6298e-06
0.00839916
3.44022e-06
0.00839795
8.32674e-06
0.00839562
1.72751e-05
0.00838928
4.59288e-05
0.00837415
0.000111295
0.00833647
0.000343881
0.00824927
0.00109389
0.00784821
0.00546953
0.00774791
0.00625669
0.00741404
0.00621025
0.00714526
0.0059788
0.00695039
0.00612144
0.00676758
0.00644534
0.00658498
0.00685576
0.00644274
0.00730007
0.00642625
0.0076966
0.00664469
0.00797892
0.00726043
0.00799345
0.00738295
0.00809726
0.00840002
6.77032e-09
0.00840002
4.23028e-08
0.0084
1.27599e-07
0.00839996
3.40487e-07
0.00839987
7.69458e-07
0.00839965
1.8316e-06
0.00839918
3.87094e-06
0.00839795
9.42686e-06
0.00839586
1.92401e-05
0.0083897
5.14487e-05
0.00837448
0.000125794
0.00834424
0.000372192
0.0082876
0.00114489
0.00804708
0.00569466
0.00777705
0.00652466
0.00756841
0.00641608
0.00741226
0.00613548
0.00726738
0.00626694
0.0071313
0.0065809
0.00705971
0.00692573
0.00710878
0.00724767
0.00731125
0.00749102
0.00765029
0.00763621
0.00813434
0.0075061
0.00695624
0.00855593
0.00840002
7.16043e-09
0.00840002
4.47206e-08
0.00840001
1.34811e-07
0.00839999
3.59944e-07
0.00839994
8.14565e-07
0.0083998
1.93929e-06
0.00839952
4.11073e-06
0.00839885
9.95667e-06
0.00839749
2.04255e-05
0.00839334
5.48983e-05
0.00839251
0.000125645
0.00835551
0.00040688
0.00836767
0.00112608
0.0083766
0.00566856
0.00810007
0.00680086
0.00792488
0.00659107
0.00773895
0.00632114
0.00762785
0.00637745
0.00757615
0.00663166
0.00759623
0.00690522
0.00770808
0.00713374
0.00795029
0.00724608
0.00829766
0.00728478
0.00870468
0.00709462
0.00668692
0.00896855
0.00840003
7.02062e-09
0.00840003
4.3808e-08
0.00840003
1.31902e-07
0.00840003
3.52238e-07
0.00840004
7.95124e-07
0.00840006
1.89836e-06
0.00840015
3.9784e-06
0.00840013
9.84138e-06
0.00840146
1.89532e-05
0.00839857
5.70286e-05
0.00841347
0.000110105
0.0083985
0.000419399
0.00845763
0.00106202
0.00910483
0.00500088
0.00876606
0.00714389
0.00838178
0.00697858
0.00812794
0.00657585
0.00802315
0.00648082
0.00800777
0.00664456
0.00807382
0.0068371
0.00821096
0.00699422
0.00843484
0.00701918
0.00873375
0.00698199
0.00907032
0.00675319
0.00640409
0.00934692
0.00840003
6.22095e-09
0.00840003
3.8876e-08
0.00840004
1.17554e-07
0.00840008
3.12829e-07
0.00840016
7.07773e-07
0.00840036
1.67072e-06
0.00840077
3.53351e-06
0.0084021
8.3707e-06
0.00840352
1.73512e-05
0.0084147
4.5099e-05
0.00843061
9.34065e-05
0.0085411
0.000306042
0.00883741
0.000761721
0.0107116
0.00309991
0.00990543
0.00795575
0.00907297
0.0078159
0.00869839
0.00695366
0.00849718
0.00668161
0.00844775
0.00669154
0.00850501
0.00677686
0.00864115
0.00685488
0.00884225
0.00681433
0.00909072
0.00672883
0.00934635
0.00649269
0.00615401
0.00958973
0.00840003
5.42343e-09
0.00840003
3.38988e-08
0.00840005
1.02627e-07
0.00840008
2.72663e-07
0.00840017
6.17374e-07
0.00840037
1.44944e-06
0.00840079
3.07907e-06
0.00840189
7.16972e-06
0.00840405
1.50552e-05
0.00841289
3.57505e-05
0.00842085
8.48006e-05
0.00850949
0.000215258
0.00867354
0.000597882
0.00964389
0.00211707
0.00991894
0.0076736
0.00997551
0.0077595
0.00924211
0.00768751
0.00897254
0.00695013
0.00887517
0.00678633
0.00889243
0.00675619
0.00899713
0.00674632
0.00916443
0.00664246
0.00938434
0.00650338
0.00959592
0.00627517
0.00595115
0.00979238
0.00840003
4.76757e-09
0.00840003
2.97879e-08
0.00840004
9.01615e-08
0.00840007
2.39533e-07
0.00840014
5.42361e-07
0.0084003
1.2732e-06
0.00840066
2.70272e-06
0.00840146
6.29063e-06
0.00840324
1.31614e-05
0.00840659
3.20208e-05
0.00842094
6.98411e-05
0.00844509
0.000189554
0.00851888
0.000521779
0.00882868
0.00180123
0.00972617
0.00675727
0.00967506
0.00780455
0.00961523
0.00774315
0.00933901
0.00722342
0.00922822
0.00689375
0.00923142
0.00674897
0.00930748
0.00666558
0.00942274
0.00652155
0.00959709
0.00632249
0.0097812
0.00608302
0.00577452
0.00995047
0.00840003
4.1961e-09
0.00840003
2.62018e-08
0.00840004
7.91481e-08
0.00840007
2.10592e-07
0.00840013
4.76128e-07
0.00840027
1.12316e-06
0.00840058
2.37063e-06
0.00840121
5.59314e-06
0.00840282
1.14764e-05
0.00840518
2.93012e-05
0.00841602
5.85739e-05
0.00842644
0.00017767
0.00851622
0.000430042
0.00876536
0.00154773
0.00976334
0.00574155
0.00979468
0.00776921
0.00971327
0.00782105
0.00955627
0.00737731
0.00949759
0.0069485
0.0095132
0.00672816
0.00959157
0.00658176
0.00968651
0.00642008
0.0098058
0.0061951
0.00995416
0.00592359
0.00562973
0.0100894
0.00840003
3.52877e-09
0.00840003
2.20369e-08
0.00840005
6.66592e-08
0.00840008
1.77149e-07
0.00840015
4.00606e-07
0.00840032
9.42364e-07
0.00840069
1.98712e-06
0.00840155
4.66759e-06
0.00840343
9.52893e-06
0.00840792
2.4486e-05
0.00842038
4.58098e-05
0.00845153
0.000145
0.00854869
0.000331071
0.00894163
0.00115064
0.0110299
0.0036315
0.010462
0.00833361
0.0103283
0.0079531
0.0100145
0.00768837
0.00984701
0.00711161
0.00980282
0.00676674
0.00983836
0.00653846
0.00991726
0.0063334
0.0100095
0.00609349
0.010131
0.00579066
0.00551233
0.0102365
0.00840003
2.88019e-09
0.00840003
1.79836e-08
0.00840005
5.43958e-08
0.00840008
1.44479e-07
0.00840015
3.27255e-07
0.00840031
7.66946e-07
0.00840066
1.6302e-06
0.00840152
3.76168e-06
0.00840312
7.86614e-06
0.00840899
1.8399e-05
0.00841405
4.03446e-05
0.00846388
9.4181e-05
0.00854942
0.000243958
0.00899902
0.000697182
0.0105548
0.00206651
0.011227
0.00764872
0.0109251
0.00825033
0.0105971
0.00801215
0.0103192
0.00738523
0.0101835
0.00689394
0.0101483
0.00656559
0.0101769
0.00629407
0.0102488
0.00600775
0.0103155
0.00570926
0.00541229
0.0103996
0.00840003
2.22448e-09
0.00840003
1.38955e-08
0.00840005
4.21757e-08
0.00840008
1.11662e-07
0.00840015
2.52688e-07
0.00840032
5.88526e-07
0.0084007
1.2432e-06
0.00840156
2.85771e-06
0.00840352
5.86508e-06
0.00840739
1.43392e-05
0.00842079
2.66678e-05
0.00843235
8.17838e-05
0.00852044
0.000154328
0.00863301
0.000581369
0.00920878
0.00148248
0.0109692
0.00586727
0.0110779
0.00813336
0.0109601
0.00812259
0.0106641
0.00767397
0.0105201
0.00703086
0.0104444
0.00662615
0.0104437
0.00627918
0.010486
0.00595226
0.0105156
0.00566166
0.00532226
0.0105847
0.00840003
1.74327e-09
0.00840003
1.08876e-08
0.00840004
3.29939e-08
0.00840006
8.74385e-08
0.00840012
1.97892e-07
0.00840024
4.6154e-07
0.0084005
9.77609e-07
0.00840108
2.24206e-06
0.00840226
4.64324e-06
0.0084055
1.09327e-05
0.00840964
2.23301e-05
0.00843263
5.7918e-05
0.00846794
0.000118237
0.00866499
0.000380941
0.00917784
0.000964596
0.0115528
0.00346691
0.0115121
0.00816467
0.0114124
0.00821553
0.0111651
0.00791384
0.010878
0.00730908
0.0107686
0.00672355
0.0107277
0.00630338
0.0107185
0.00594189
0.0107384
0.00561665
0.00523623
0.0107942
0.00840003
1.33869e-09
0.00840003
8.3295e-09
0.00840004
2.54288e-08
0.00840006
6.68071e-08
0.0084001
1.52377e-07
0.00840021
3.51949e-07
0.00840043
7.52435e-07
0.00840094
1.70417e-06
0.00840198
3.57088e-06
0.00840456
8.21322e-06
0.00840956
1.71845e-05
0.00842594
4.08802e-05
0.00845097
9.21884e-05
0.00859165
0.000237219
0.00891161
0.000646461
0.0101769
0.00218928
0.0116146
0.00670579
0.011601
0.00821886
0.0114579
0.00804711
0.0112188
0.00753674
0.0110876
0.0068388
0.0110219
0.00635089
0.0109829
0.00595431
0.0110072
0.00555996
0.00514781
0.0110648
0.00840003
8.34227e-10
0.00840003
6.83561e-09
0.00840004
1.71446e-08
0.00840005
5.38031e-08
0.0084001
1.02651e-07
0.00840016
2.85143e-07
0.00840041
4.97746e-07
0.0084007
1.4022e-06
0.00840197
2.27545e-06
0.00840321
6.92154e-06
0.00841006
1.01824e-05
0.00841383
3.65262e-05
0.00846066
4.60334e-05
0.0084849
0.000209937
0.00876629
0.000366205
0.00953222
0.00140952
0.0116217
0.00459173
0.0118406
0.00798419
0.0117813
0.00809106
0.0116126
0.00769016
0.0113918
0.00703804
0.0112996
0.00641638
0.0112675
0.00594842
0.0113037
0.00548757
0.00503247
0.0113796
0.00840003
7.46047e-10
0.00840003
4.12863e-09
0.00840004
1.38448e-08
0.00840006
3.35903e-08
0.00840007
8.30591e-08
0.00840018
1.75677e-07
0.00840026
4.11707e-07
0.00840082
8.35209e-07
0.00840109
1.97142e-06
0.00840407
3.90568e-06
0.00840452
9.55685e-06
0.00842217
1.87528e-05
0.00841941
4.78494e-05
0.00852519
0.000103698
0.00861069
0.00027718
0.00926638
0.000748408
0.0114539
0.00239142
0.0122408
0.00716456
0.011934
0.00837145
0.0119331
0.00766263
0.0117681
0.0071739
0.0116414
0.00650616
0.011633
0.00592138
0.0117045
0.00537999
0.00491434
0.0117953
0.00840003
5.32345e-10
0.00840003
2.9746e-09
0.00840004
9.73747e-09
0.00840004
2.41281e-08
0.00840007
5.82589e-08
0.00840012
1.26198e-07
0.00840023
2.87385e-07
0.00840046
6.00772e-07
0.00840103
1.36438e-06
0.00840209
2.81167e-06
0.00840496
6.54192e-06
0.00841042
1.31495e-05
0.00842387
3.36448e-05
0.00846459
6.35379e-05
0.00853654
0.000198544
0.00883822
0.000446009
0.00951037
0.00169762
0.0119754
0.00466072
0.0122525
0.00806199
0.0120972
0.00777995
0.0120415
0.00718458
0.0120186
0.00648978
0.0120652
0.00583867
0.012133
0.00528301
0.00477775
0.012247
0.00840003
3.72592e-10
0.00840003
2.08248e-09
0.00840003
6.77362e-09
0.00840004
1.68659e-08
0.00840006
4.05436e-08
0.00840009
8.8349e-08
0.00840018
2.00267e-07
0.00840035
4.21847e-07
0.00840074
9.51251e-07
0.00840155
1.98067e-06
0.00840346
4.48404e-06
0.00840692
9.5739e-06
0.00841827
2.08585e-05
0.0084366
4.89639e-05
0.00852623
0.00010074
0.00870288
0.000285237
0.0096351
0.000719349
0.0121975
0.00209951
0.0128237
0.00736205
0.0126739
0.00786425
0.0125239
0.00728431
0.012507
0.00646335
0.0125521
0.0057648
0.012678
0.00514157
0.00462777
0.0128162
0.00840003
2.63587e-10
0.00840003
1.16765e-09
0.00840003
4.59969e-09
0.00840004
9.69126e-09
0.00840005
2.72841e-08
0.00840009
4.95936e-08
0.00840015
1.33548e-07
0.00840034
2.2544e-07
0.00840064
6.29414e-07
0.00840162
9.81289e-07
0.00840296
3.02768e-06
0.00840847
3.94005e-06
0.00841242
1.61812e-05
0.00844674
1.40416e-05
0.00844616
9.75861e-05
0.00864357
8.24606e-05
0.00873144
0.000617925
0.00944513
0.00135093
0.0122453
0.00447175
0.012546
0.00746408
0.0126519
0.00712319
0.0127792
0.00631378
0.0129762
0.00554541
0.0131634
0.00493928
0.00453417
0.0132512
0.00840003
1.11658e-10
0.00840003
9.42055e-10
0.00840003
2.29722e-09
0.00840003
7.41448e-09
0.00840005
1.36588e-08
0.00840006
3.87901e-08
0.00840012
6.49517e-08
0.00840015
1.87077e-07
0.00840048
2.91642e-07
0.00840053
9.04238e-07
0.00840224
1.27429e-06
0.00840135
4.62235e-06
0.00841242
4.86482e-06
0.00839907
2.59747e-05
0.00847949
1.48266e-05
0.00841143
0.000144584
0.0088914
0.000126084
0.00945663
0.000759859
0.0119012
0.00194652
0.012538
0.00670149
0.0128698
0.00673761
0.0131804
0.00600291
0.0134111
0.00531432
0.013552
0.00480536
0.00443401
0.0136583
0.00840003
8.34429e-11
0.00840003
4.65769e-10
0.00840003
1.58238e-09
0.00840003
3.83982e-09
0.00840004
9.47913e-09
0.00840006
1.99213e-08
0.00840007
4.57875e-08
0.00840017
9.17172e-08
0.00840027
2.06231e-07
0.00840077
3.97379e-07
0.00840117
9.19305e-07
0.00840401
1.57631e-06
0.00840333
4.65978e-06
0.00842279
6.31981e-06
0.00840753
2.6658e-05
0.00849711
4.03285e-05
0.0084602
0.00015686
0.0088166
0.000381629
0.0093361
0.00137851
0.0110197
0.00479452
0.0120001
0.00574316
0.0127185
0.00530987
0.0132196
0.00482735
0.0135152
0.00452377
0.0042558
0.0137031
0.00840003
5.53006e-11
0.00840003
3.13961e-10
0.00840003
1.01842e-09
0.00840003
2.52335e-09
0.00840003
5.92984e-09
0.00840004
1.26799e-08
0.00840005
2.79021e-08
0.00840007
5.72416e-08
0.0084001
1.26577e-07
0.00840021
2.55823e-07
0.00840042
5.81996e-07
0.00840084
1.15882e-06
0.00840307
2.76347e-06
0.00840361
5.0847e-06
0.00841269
1.52205e-05
0.00843959
2.42973e-05
0.0084704
0.000102981
0.00867878
0.000201076
0.00900697
0.000906089
0.0108098
0.00276967
0.0116722
0.0049458
0.0122792
0.00474621
0.0127142
0.00443269
0.0130827
0.00419185
0.00399238
0.0133804
0.00840003
4.6387e-11
0.00840003
2.6233e-10
0.00840003
8.55584e-10
0.00840003
2.12445e-09
0.00840003
5.04917e-09
0.00840003
1.08897e-08
0.00840003
2.42037e-08
0.00840004
5.02637e-08
0.00840003
1.10357e-07
0.00840004
2.25417e-07
0.00840005
4.97957e-07
0.0084001
9.94218e-07
0.00840027
2.24151e-06
0.00840051
4.28952e-06
0.00840231
1.04517e-05
0.0084076
1.94775e-05
0.00844744
4.96358e-05
0.00848627
0.000139576
0.00904236
0.000310756
0.0103801
0.00122702
0.0111479
0.00406722
0.0117552
0.00408467
0.0120946
0.00406821
0.0124391
0.00387568
0.00367538
0.0127597
0.00840003
5.18717e-11
0.00840003
2.82951e-10
0.00840003
9.22131e-10
0.00840003
2.29062e-09
0.00840003
5.6475e-09
0.00840003
1.25442e-08
0.00840002
2.91859e-08
0.0084
6.41316e-08
0.00839996
1.4213e-07
0.00839983
3.30473e-07
0.00839962
6.35522e-07
0.00839888
1.63922e-06
0.00839818
2.53412e-06
0.00839472
7.31585e-06
0.00839438
8.68941e-06
0.00838305
2.83702e-05
0.008396
2.76316e-05
0.00841125
0.00010818
0.00849688
0.000189526
0.00889707
0.000705479
0.00984011
0.00295807
0.0104173
0.00342595
0.01093
0.00353253
0.0114183
0.00339517
0.00324258
0.0118497
0.00840003
4.172e-11
0.00840003
1.83613e-10
0.00840003
7.21976e-10
0.00840003
1.5121e-09
0.00840003
4.45896e-09
0.00840004
7.74331e-09
0.00840004
2.4015e-08
0.00840006
3.47623e-08
0.00840005
1.26243e-07
0.00840021
1.29124e-07
0.00840002
6.89667e-07
0.00840107
3.09104e-07
0.00839918
3.79386e-06
0.0084057
-6.70481e-07
0.00839113
2.079e-05
0.00843197
-1.80052e-05
0.00834259
0.000109935
0.00854842
-0.000118161
0.00828556
0.000423287
0.00866498
0.000235939
0.00890286
0.0025261
0.00931126
0.00296579
0.00978851
0.00303033
0.0103333
0.00284487
0.00276368
0.0108018
0.00840003
1.37671e-11
0.00840003
1.26659e-10
0.00840003
2.93019e-10
0.00840003
1.02711e-09
0.00840003
1.61932e-09
0.00840003
5.90915e-09
0.00840005
5.81992e-09
0.00840005
3.11538e-08
0.00840015
1.45128e-08
0.00840007
1.64664e-07
0.00840077
-2.75081e-08
0.00839988
9.67685e-07
0.00840432
-7.81604e-07
0.00839611
6.26209e-06
0.00842442
-7.981e-06
0.00835588
4.44601e-05
0.00851286
-5.2256e-05
0.00813117
0.000242802
0.00864828
-9.65103e-05
0.00797078
0.000820663
0.00796671
0.00231905
0.00834886
0.00254459
0.00889233
0.00246809
0.00936499
0.00236746
0.00227658
0.00983852
0.00840003
1.03574e-11
0.00840003
5.76065e-11
0.00840003
1.95052e-10
0.00840003
4.69365e-10
0.00840003
1.20386e-09
0.00840003
2.37773e-09
0.00840003
6.17367e-09
0.00840005
1.15329e-08
0.00840001
3.24947e-08
0.00840011
5.75055e-08
0.00839981
1.75065e-07
0.00840043
2.99636e-07
0.00839819
9.15754e-07
0.00840276
1.52431e-06
0.00838694
4.9465e-06
0.00842217
8.36616e-06
0.00833105
2.67998e-05
0.00850947
5.3426e-05
0.00819563
0.000176807
0.00842577
0.000501545
0.008021
0.00247063
0.00806802
0.00246811
0.00836791
0.00215831
0.00879624
0.00193334
0.00186199
0.00919534
0.00840003
9.40296e-12
0.00840003
2.89714e-11
0.00840003
1.57484e-10
0.00840003
2.34936e-10
0.00840003
1.04095e-09
0.00840003
8.9314e-10
0.00840003
6.41514e-09
0.00840004
2.05758e-09
0.00840002
3.76449e-08
0.00840006
-4.3028e-11
0.00839985
2.46062e-07
0.00840021
-7.08247e-08
0.00839861
1.9819e-06
0.0084015
-1.5149e-06
0.00839004
1.37623e-05
0.00841418
-1.67213e-05
0.00834004
8.7562e-05
0.00848854
-0.000107506
0.00818192
0.000436202
0.00831831
0.000260654
0.00774887
0.00273374
0.00773589
0.00249984
0.00809398
0.00181388
0.0085042
0.00152148
0.00150112
0.00884952
0.00840003
2.07641e-12
0.00840003
3.52047e-11
0.00840003
5.18789e-11
0.00840003
2.87335e-10
0.00840003
2.25892e-10
0.00840003
1.86636e-09
0.00840003
2.03616e-10
0.00840002
1.12801e-08
0.00840006
-3.05409e-09
0.00839997
6.84009e-08
0.00840023
-3.76262e-08
0.00839963
4.6973e-07
0.00840201
-5.23678e-07
0.00839589
4.38119e-06
0.00841414
-5.22273e-06
0.00835813
3.3451e-05
0.00848753
-4.3871e-05
0.00813127
0.000218298
0.00864193
-0.000107123
0.00794198
0.000857883
0.00780488
0.0024677
0.00814276
0.00227685
0.00856941
0.00146524
0.00881377
0.00129129
0.00127006
0.00904241
0.00840003
4.84546e-12
0.00840003
7.93248e-12
0.00840003
7.78327e-11
0.00840003
5.56851e-11
0.00840003
5.39601e-10
0.00840003
-6.78592e-11
0.00840003
3.39105e-09
0.00840004
-2.37674e-09
0.00840001
1.97317e-08
0.0084001
-2.45981e-08
0.00839992
1.23983e-07
0.00840061
-2.47606e-07
0.00839947
8.95922e-07
0.00840612
-2.68277e-06
0.00839189
8.15453e-06
0.00844368
-2.01327e-05
0.00831479
7.2473e-05
0.00862309
-0.000110022
0.00809231
0.00039112
0.00850127
0.000304623
0.00805387
0.00243291
0.00850871
0.00204894
0.00885248
0.00127675
0.00905554
0.00111997
0.00109691
0.00923198
0.00840003
-2.44984e-13
0.00840003
1.76198e-11
0.00840003
4.91061e-12
0.00840003
1.45158e-10
0.00840003
-6.40176e-11
0.00840003
1.0559e-09
0.00840003
-1.12399e-09
0.00840002
6.64214e-09
0.00840005
-9.52526e-09
0.00839997
4.30222e-08
0.00840017
-7.73384e-08
0.00839959
3.34881e-07
0.00840106
-6.94559e-07
0.00839497
2.97321e-06
0.00840878
-6.15097e-06
0.00836112
2.35953e-05
0.00847507
-4.60174e-05
0.00817263
0.000168477
0.00863907
-0.000146028
0.00846599
0.000396174
0.00940962
0.00078391
0.00963914
0.00203116
0.00944907
0.00162537
0.00937719
0.00126684
0.00108066
0.00944339
0.00840003
1.51731e-12
0.00840003
-1.10273e-11
0.00840003
1.45569e-11
0.00840003
-1.07593e-10
0.00840003
1.33303e-10
0.00840003
-1.0073e-09
0.00840003
1.11654e-09
0.00840004
-7.29733e-09
0.00840002
7.79379e-09
0.0084001
-4.99005e-08
0.00839993
6.4483e-08
0.0084006
-3.83803e-07
0.00839906
5.92771e-07
0.00840488
-2.98713e-06
0.0083912
6.11166e-06
0.00843475
-2.05083e-05
0.00832954
5.24478e-05
0.00861111
-0.000119688
0.00818297
0.000254772
0.00865559
-0.000142164
0.00847249
0.000835804
0.00885245
0.00147514
0.00896721
0.00147165
0.00921567
0.00109675
0.00100633
0.00937042
0.00840003
-6.67116e-12
0.00840003
-1.60729e-11
0.00840003
-1.14154e-10
0.00840003
-1.59566e-10
0.00840003
-9.01151e-10
0.00840003
-9.06226e-10
0.00840004
-6.26878e-09
0.00840003
-4.41826e-09
0.00840007
-3.87955e-08
0.00840001
-1.44368e-08
0.00840028
-2.32697e-07
0.0083997
4.89025e-08
0.0084016
-1.38042e-06
0.0083966
1.43431e-06
0.0084109
-8.50445e-06
0.00837282
1.54319e-05
0.00847594
-5.28045e-05
0.00823417
0.000113439
0.00865678
-0.00020151
0.00817784
0.000315231
0.00897496
-0.000131553
0.00930899
0.000961649
0.00945027
0.00128238
0.00938522
0.00124488
0.00101775
0.0094545
0.00840003
-1.27482e-11
0.00840003
-6.26222e-11
0.00840003
-2.16111e-10
0.00840003
-5.58568e-10
0.00840003
-1.52391e-09
0.00840003
-3.85435e-09
0.00840003
-9.22907e-09
0.00840005
-2.39286e-08
0.00840004
-5.1636e-08
0.00840015
-1.35706e-07
0.00840012
-2.62203e-07
0.00840085
-7.11781e-07
0.00840031
-1.10739e-06
0.00840495
-3.34222e-06
0.00839806
-3.10054e-06
0.00842557
-1.24147e-05
0.00836817
-1.5063e-06
0.00850501
-2.77397e-05
0.0082606
3.17804e-05
0.00855634
-2.43815e-06
0.00813244
0.000217797
0.00827426
0.000636708
0.00858147
0.000906435
0.00896708
0.000915684
0.000863871
0.00919212
0.00840003
-1.72623e-12
0.00840003
-7.51137e-12
0.00840003
-4.09206e-11
0.00840003
-1.09605e-10
0.00840003
-3.59117e-10
0.00840002
-9.03458e-10
0.00840001
-2.42984e-09
0.00839999
-5.65701e-09
0.00839995
-1.38628e-08
0.00839983
-3.0442e-08
0.00839962
-6.96656e-08
0.00839902
-1.44467e-07
0.00839815
-3.10238e-07
0.00839529
-5.87185e-07
0.00839287
-1.15756e-06
0.00838258
-1.8278e-06
0.00838043
-2.75194e-06
0.00835602
-2.02833e-06
0.00837267
4.39343e-06
0.00832826
2.86397e-05
0.00832335
0.000159086
0.00827918
0.000537765
0.00844603
0.000669447
0.00871657
0.00066979
0.000662458
0.0089491
0.00840003
4.79476e-12
0.00840003
2.64041e-11
0.00840003
7.88947e-11
0.00840003
2.05979e-10
0.00840003
4.83913e-10
0.00840002
1.11875e-09
0.00840002
2.57466e-09
0.0084
5.59266e-09
0.00839997
1.2639e-08
0.00839991
2.6116e-08
0.00839977
5.7916e-08
0.0083995
1.14081e-07
0.00839893
2.54289e-07
0.00839787
4.40716e-07
0.00839545
1.09347e-06
0.00839284
1.4424e-06
0.00838341
4.42934e-06
0.00838018
4.58319e-06
0.00835901
1.89213e-05
0.00834206
3.00065e-05
0.00832312
0.000137821
0.00831463
0.000441063
0.00842292
0.000491668
0.00861799
0.000467959
0.000464948
0.00880628
0.00840003
1.28985e-11
0.00840003
6.3825e-11
0.00840003
2.32195e-10
0.00840003
6.02777e-10
0.00840003
1.5989e-09
0.00840002
4.05498e-09
0.00840001
9.1875e-09
0.00839999
2.35428e-08
0.00839995
4.82403e-08
0.00839984
1.27514e-07
0.00839966
2.30847e-07
0.00839909
6.5871e-07
0.00839842
9.54665e-07
0.00839568
3.12548e-06
0.00839411
2.7465e-06
0.00838362
1.21857e-05
0.00838368
3.05319e-06
0.00836081
3.29543e-05
0.00838195
-6.25642e-06
0.00832516
6.74122e-05
0.00835444
8.41671e-05
0.00831211
0.000411941
0.00837116
0.000368348
0.00851883
0.000285164
0.00026698
0.00866622
0.00840003
7.29286e-12
0.00840003
1.46257e-11
0.00840003
1.259e-10
0.00840003
1.2178e-10
0.00840003
9.59644e-10
0.00840003
5.45187e-10
0.00840003
6.01881e-09
0.00840004
1.03593e-09
0.00840004
3.40378e-08
0.00840015
-1.21409e-08
0.00840015
1.9034e-07
0.00840095
-1.88577e-07
0.00840067
1.14991e-06
0.00840546
-1.81086e-06
0.00840076
7.56948e-06
0.00842745
-1.49225e-05
0.00838096
4.98164e-05
0.00851937
-0.000103885
0.0082094
0.000301406
0.00852106
-0.000264107
0.00812836
0.000467031
0.008163
0.000322047
0.00827329
0.000191716
0.00851111
-2.03701e-05
7.99494e-05
0.00861591
0.00840003
-2.41955e-12
0.00840003
1.55604e-11
0.00840003
-5.29679e-11
0.00840003
9.4413e-11
0.00840003
-7.30471e-10
0.00840003
-2.12965e-10
0.00840004
-6.39877e-09
0.00840002
-4.9223e-09
0.00840009
-4.21381e-08
0.00840004
-2.83258e-08
0.00840045
-2.38611e-07
0.00840026
-5.80014e-08
0.00840265
-1.30488e-06
0.00839989
9.8759e-07
0.00841512
-7.62772e-06
0.00838635
1.41019e-05
0.00848369
-4.67833e-05
0.00826993
0.000109768
0.00884271
-0.000269933
0.00825057
0.000319233
0.00915517
-0.000427377
0.00947383
-4.31937e-05
0.00948141
6.96378e-05
0.00901891
0.000301364
0.000193828
0.0087697
0.00840003
0.00840003
0.00840003
0.00840003
0.00840003
0.00840002
0.00840001
0.0084
0.00839996
0.00839991
0.00839976
0.00839976
0.0083992
0.00840087
0.0083963
0.0084153
0.00837376
0.00849456
0.00822798
0.00853439
0.00807571
0.00805945
0.00805986
0.00822286
0.00827072
0.00508082
0.00382409
0.00291787
0.00214808
0.00121881
0.00167554
-0.000605653
0.00181802
-0.00123226
0.000626378
-0.00171063
0.000478354
-0.00206574
0.000361474
-0.00233258
0.000268473
-0.00253444
0.000201941
-0.00272208
0.000186296
-0.00288495
0.00016136
-0.00301836
0.000131999
-0.00312511
0.000103251
-0.0032032
7.41818e-05
-0.00324766
3.89108e-05
-0.00326858
1.55188e-05
-0.00327456
6.6095e-07
-0.00327106
-9.11966e-06
-0.00325632
-2.01714e-05
-0.00322892
-3.20659e-05
-0.00318853
-4.45729e-05
-0.00313422
-5.74572e-05
-0.0030662
-6.9975e-05
-0.0029869
-8.00324e-05
-0.00289858
-8.76679e-05
-0.00280323
-9.38357e-05
-0.00270128
-9.94962e-05
-0.00259326
-0.000105134
-0.002479
-0.000110821
-0.00235833
-0.000116888
-0.00223092
-0.000123185
-0.00209721
-0.000129553
-0.00195739
-0.000135866
-0.00181306
-0.000140885
-0.00166295
-0.000147033
-0.00150321
-0.000156744
-0.00133454
-0.000166349
-0.00115596
-0.000176448
-0.000975173
-0.000178836
-0.000790806
-0.000182778
-0.000604429
-0.00018495
-0.000415783
-0.000187327
-0.000222802
-0.000191574
-2.47228e-05
-0.000196725
0.000182922
-0.000206371
0.000389404
-0.000205265
0.000593992
-0.000203
0.000790703
-0.000194912
0.000982437
-0.000189336
0.00116833
-0.000183033
0.0013494
-0.000178171
0.00152418
-0.000171982
0.001696
-0.000168861
0.00186756
-0.000168829
0.00203719
-0.000167136
0.00220226
-0.000162624
0.00236151
-0.00015771
0.00251566
-0.000153665
0.00266444
-0.000149232
0.0028082
-0.000145468
0.00294621
-0.000141082
0.00307956
-0.00013723
0.00320685
-0.000132949
0.00332904
-0.000128778
0.00344585
-0.000124397
0.0035568
-0.000119954
0.00366254