/*--------------------------------*- C++ -*----------------------------------*\
  =========                 |
  \\      /  F ield         | OpenFOAM: The Open Source CFD Toolbox
   \\    /   O peration     | Website:  https://openfoam.org
    \\  /    A nd           | Version:  6
     \\/     M anipulation  |
\*---------------------------------------------------------------------------*/
FoamFile
{
    version     2.0;
    format      ascii;
    class       volVectorField;
    location    "7";
    object      U;
}
// * * * * * * * * * * * * * * * * * * * * * * * * * * * * * * * * * * * * * //

dimensions      [0 1 -1 0 0 0 0];

internalField   nonuniform List<vector> 
5250
(
(2.99996 3.89813e-08 0)
(2.99988 2.49796e-07 0)
(2.99969 7.77629e-07 0)
(2.99929 2.11983e-06 0)
(2.99826 4.9158e-06 0)
(2.99617 1.18742e-05 0)
(2.99035 2.56165e-05 0)
(2.97929 6.29927e-05 0)
(2.94481 0.000128484 0)
(2.86866 0.000347623 0)
(2.65663 0.000758454 0)
(1.99359 0.00212827 0)
(0.57464 0.00560951 0)
(-0.265915 0.0128211 0)
(0.142251 0.019662 0)
(0.487109 0.0255849 0)
(0.578072 0.0289021 0)
(0.526175 0.0311831 0)
(0.42447 0.032117 0)
(0.327123 0.0342103 0)
(0.263929 0.0375337 0)
(0.211258 0.0412326 0)
(0.154017 0.0451229 0)
(0.0915284 0.0501065 0)
(0.0434239 0.0576302 0)
(2.99996 1.20465e-07 0)
(2.99988 7.73603e-07 0)
(2.99969 2.4059e-06 0)
(2.99929 6.57381e-06 0)
(2.99826 1.52358e-05 0)
(2.99619 3.69658e-05 0)
(2.99039 7.96892e-05 0)
(2.97937 0.000197933 0)
(2.94503 0.000401621 0)
(2.86918 0.00110587 0)
(2.65799 0.00243383 0)
(1.99775 0.00693514 0)
(0.582454 0.0184911 0)
(-0.258811 0.0404536 0)
(0.151453 0.0579439 0)
(0.494197 0.071613 0)
(0.580696 0.0779732 0)
(0.526513 0.081531 0)
(0.425436 0.0820143 0)
(0.330523 0.0851659 0)
(0.267745 0.0904203 0)
(0.213667 0.0952385 0)
(0.154897 0.0988143 0)
(0.090887 0.102307 0)
(0.0419003 0.106181 0)
(2.99996 2.08982e-07 0)
(2.99988 1.34408e-06 0)
(2.99969 4.17813e-06 0)
(2.9993 1.14399e-05 0)
(2.99828 2.65167e-05 0)
(2.99622 6.45951e-05 0)
(2.99047 0.000139283 0)
(2.97953 0.000348886 0)
(2.9455 0.000705741 0)
(2.87036 0.00197037 0)
(2.66112 0.00436986 0)
(2.00772 0.0125935 0)
(0.602358 0.0338049 0)
(-0.238103 0.0717925 0)
(0.166614 0.0983788 0)
(0.503147 0.118363 0)
(0.583447 0.128844 0)
(0.526291 0.135896 0)
(0.426193 0.139481 0)
(0.335248 0.14645 0)
(0.273467 0.155489 0)
(0.217558 0.163521 0)
(0.156654 0.169312 0)
(0.0905535 0.173708 0)
(0.0401803 0.176306 0)
(2.99996 3.03378e-07 0)
(2.99988 1.95222e-06 0)
(2.9997 6.06869e-06 0)
(2.99931 1.66327e-05 0)
(2.9983 3.85719e-05 0)
(2.99627 9.41318e-05 0)
(2.9906 0.00020314 0)
(2.9798 0.000510185 0)
(2.94626 0.00103297 0)
(2.87226 0.00289216 0)
(2.66622 0.00643691 0)
(2.02407 0.0185796 0)
(0.634804 0.0497314 0)
(-0.205035 0.103816 0)
(0.187112 0.138866 0)
(0.514277 0.163326 0)
(0.587955 0.177828 0)
(0.528425 0.189084 0)
(0.43001 0.197505 0)
(0.343397 0.209303 0)
(0.282668 0.222702 0)
(0.225069 0.234816 0)
(0.161957 0.244442 0)
(0.0931553 0.251837 0)
(0.0399451 0.255695 0)
(2.99996 4.01478e-07 0)
(2.99989 2.5842e-06 0)
(2.9997 8.03362e-06 0)
(2.99932 2.20287e-05 0)
(2.99833 5.11044e-05 0)
(2.99634 0.000124808 0)
(2.99078 0.00026953 0)
(2.98016 0.000676987 0)
(2.94731 0.00137345 0)
(2.8749 0.00383883 0)
(2.6733 0.00856052 0)
(2.04661 0.02465 0)
(0.679315 0.065628 0)
(-0.16043 0.136343 0)
(0.212427 0.180053 0)
(0.526608 0.208191 0)
(0.59376 0.225903 0)
(0.532925 0.240968 0)
(0.437035 0.254421 0)
(0.354717 0.271269 0)
(0.295128 0.289502 0)
(0.236162 0.306411 0)
(0.171128 0.32068 0)
(0.0995899 0.33209 0)
(0.0420142 0.338333 0)
(2.99996 5.00862e-07 0)
(2.99989 3.22424e-06 0)
(2.99971 1.00232e-05 0)
(2.99933 2.74893e-05 0)
(2.99837 6.37735e-05 0)
(2.99642 0.000155804 0)
(2.991 0.000336438 0)
(2.98064 0.000846373 0)
(2.94866 0.00171093 0)
(2.87829 0.00479995 0)
(2.6824 0.0106979 0)
(2.07536 0.0306991 0)
(0.736377 0.0817231 0)
(-0.103782 0.169986 0)
(0.242722 0.22211 0)
(0.54038 0.253535 0)
(0.600917 0.273652 0)
(0.540056 0.292089 0)
(0.447904 0.310774 0)
(0.370156 0.333269 0)
(0.311885 0.357123 0)
(0.251988 0.379981 0)
(0.184885 0.400441 0)
(0.109497 0.417358 0)
(0.0459628 0.426991 0)
(2.99996 5.99963e-07 0)
(2.99989 3.86385e-06 0)
(2.99972 1.20074e-05 0)
(2.99935 3.29482e-05 0)
(2.99842 7.63856e-05 0)
(2.99653 0.000186888 0)
(2.99128 0.000403305 0)
(2.98121 0.00101018 0)
(2.95032 0.00209099 0)
(2.88243 0.00561599 0)
(2.69348 0.0132348 0)
(2.11028 0.0349541 0)
(0.808904 0.097919 0)
(-0.0328121 0.204635 0)
(0.279122 0.265386 0)
(0.556211 0.298896 0)
(0.609776 0.320707 0)
(0.550623 0.34218 0)
(0.463799 0.366499 0)
(0.391172 0.395462 0)
(0.334531 0.426179 0)
(0.274368 0.456632 0)
(0.205661 0.485753 0)
(0.125354 0.511744 0)
(0.052999 0.528046 0)
(2.99997 7.01534e-07 0)
(2.9999 4.52031e-06 0)
(2.99973 1.4042e-05 0)
(2.99938 3.85539e-05 0)
(2.99848 8.93218e-05 0)
(2.99666 0.000218875 0)
(2.99161 0.000472301 0)
(2.98192 0.00117063 0)
(2.95217 0.00253103 0)
(2.88762 0.00629544 0)
(2.70535 0.0161532 0)
(2.14915 0.0375785 0)
(0.89865 0.113893 0)
(0.0508752 0.240653 0)
(0.32043 0.312157 0)
(0.573695 0.342428 0)
(0.620626 0.36552 0)
(0.565466 0.39027 0)
(0.486081 0.421095 0)
(0.419426 0.457366 0)
(0.365482 0.496278 0)
(0.306605 0.53649 0)
(0.237947 0.578251 0)
(0.15252 0.620229 0)
(0.06676 0.651793 0)
(2.99997 8.10923e-07 0)
(2.9999 5.22527e-06 0)
(2.99974 1.62327e-05 0)
(2.9994 4.45678e-05 0)
(2.99855 0.000103276 0)
(2.9968 0.000253002 0)
(2.99198 0.0005464 0)
(2.98277 0.00134488 0)
(2.95423 0.00296605 0)
(2.89382 0.00713197 0)
(2.71799 0.0187381 0)
(2.1923 0.0420067 0)
(1.00795 0.128351 0)
(0.150791 0.277506 0)
(0.364554 0.361712 0)
(0.586714 0.38394 0)
(0.632858 0.407569 0)
(0.585086 0.435708 0)
(0.515682 0.473757 0)
(0.456112 0.518386 0)
(0.406672 0.565833 0)
(0.352922 0.617668 0)
(0.290089 0.678455 0)
(0.203401 0.748322 0)
(0.0970616 0.82065 0)
(2.99997 9.29599e-07 0)
(2.99991 5.98302e-06 0)
(2.99975 1.85979e-05 0)
(2.99944 5.09725e-05 0)
(2.99862 0.000118219 0)
(2.99697 0.000288335 0)
(2.99241 0.000623189 0)
(2.98376 0.00153272 0)
(2.95658 0.00328317 0)
(2.90079 0.00828902 0)
(2.73257 0.0199888 0)
(2.24127 0.0501987 0)
(1.1325 0.139974 0)
(0.267779 0.314003 0)
(0.412489 0.410545 0)
(0.596483 0.42505 0)
(0.646745 0.447505 0)
(0.609816 0.479229 0)
(0.553231 0.523069 0)
(0.501715 0.575502 0)
(0.459498 0.631296 0)
(0.419383 0.697522 0)
(0.374953 0.783884 0)
(0.306998 0.899787 0)
(0.173729 1.08552 0)
(2.99997 1.0634e-06 0)
(2.99991 6.83833e-06 0)
(2.99977 2.12665e-05 0)
(2.99947 5.82121e-05 0)
(2.99871 0.00013511 0)
(2.99716 0.000328407 0)
(2.99289 0.000710356 0)
(2.98479 0.00174413 0)
(2.95938 0.00365575 0)
(2.90772 0.0095488 0)
(2.75041 0.0215362 0)
(2.29729 0.0587733 0)
(1.26241 0.153187 0)
(0.397255 0.353734 0)
(0.462878 0.451891 0)
(0.602916 0.464869 0)
(0.662154 0.485023 0)
(0.63878 0.520622 0)
(0.596412 0.567173 0)
(0.555411 0.623661 0)
(0.526119 0.688202 0)
(0.511236 0.769538 0)
(0.509519 0.876087 0)
(0.541053 1.01765 0)
(0.578946 1.22292 0)
(2.99997 1.21761e-06 0)
(2.99992 7.83359e-06 0)
(2.99979 2.43635e-05 0)
(2.99951 6.67433e-05 0)
(2.99881 0.000155009 0)
(2.99738 0.000377228 0)
(2.99345 0.000816901 0)
(2.98599 0.00200543 0)
(2.96255 0.00422042 0)
(2.91561 0.0109258 0)
(2.77048 0.0248984 0)
(2.35985 0.0668509 0)
(1.40634 0.172668 0)
(0.531349 0.404622 0)
(0.510628 0.481173 0)
(0.612526 0.499555 0)
(0.680058 0.517791 0)
(0.671027 0.554884 0)
(0.641432 0.602591 0)
(0.615673 0.661745 0)
(0.60623 0.733961 0)
(0.618765 0.822242 0)
(0.654743 0.929879 0)
(0.746657 1.05832 0)
(0.882782 1.19333 0)
(2.99998 1.37768e-06 0)
(2.99993 8.87212e-06 0)
(2.99981 2.7598e-05 0)
(2.99956 7.57368e-05 0)
(2.99893 0.000176113 0)
(2.99764 0.000429785 0)
(2.99409 0.00093249 0)
(2.98738 0.00230188 0)
(2.96621 0.00480669 0)
(2.92484 0.0125032 0)
(2.7935 0.0288771 0)
(2.43161 0.0757717 0)
(1.57853 0.194344 0)
(0.670048 0.46496 0)
(0.551564 0.507551 0)
(0.630034 0.526892 0)
(0.700491 0.542117 0)
(0.705836 0.579648 0)
(0.690242 0.629891 0)
(0.681459 0.691203 0)
(0.690022 0.764435 0)
(0.721532 0.847821 0)
(0.778262 0.940448 0)
(0.880266 1.03845 0)
(1.02231 1.11092 0)
(2.99998 1.49785e-06 0)
(2.99994 9.65386e-06 0)
(2.99983 3.00384e-05 0)
(2.99961 8.25582e-05 0)
(2.99906 0.000192299 0)
(2.99792 0.000470178 0)
(2.99482 0.00102305 0)
(2.98893 0.00252952 0)
(2.97037 0.00526526 0)
(2.93552 0.0138568 0)
(2.81939 0.0312503 0)
(2.51227 0.0852627 0)
(1.77695 0.210307 0)
(0.817137 0.526661 0)
(0.584841 0.53608 0)
(0.648895 0.545581 0)
(0.723527 0.558994 0)
(0.745993 0.59805 0)
(0.742706 0.650486 0)
(0.746125 0.710561 0)
(0.767009 0.777866 0)
(0.80895 0.850297 0)
(0.873425 0.924465 0)
(0.970729 0.995239 0)
(1.09504 1.04094 0)
(2.99998 1.52476e-06 0)
(2.99994 9.82931e-06 0)
(2.99986 3.05868e-05 0)
(2.99967 8.41232e-05 0)
(2.99919 0.000195953 0)
(2.99823 0.000479898 0)
(2.9956 0.00104105 0)
(2.99059 0.00259573 0)
(2.97492 0.00527799 0)
(2.94627 0.0147528 0)
(2.84869 0.0303248 0)
(2.59977 0.0936211 0)
(1.98649 0.221142 0)
(0.970938 0.58868 0)
(0.617493 0.577241 0)
(0.675605 0.573449 0)
(0.756649 0.58039 0)
(0.79297 0.615601 0)
(0.797844 0.665506 0)
(0.80737 0.721159 0)
(0.834112 0.780102 0)
(0.880056 0.840685 0)
(0.945029 0.899321 0)
(1.03285 0.951228 0)
(1.13959 0.983584 0)
(2.99998 1.42375e-06 0)
(2.99995 9.16802e-06 0)
(2.99988 2.85266e-05 0)
(2.99972 7.83052e-05 0)
(2.99933 0.000182239 0)
(2.99853 0.000444694 0)
(2.99638 0.000962847 0)
(2.99214 0.0023819 0)
(2.97975 0.00485843 0)
(2.95603 0.0135286 0)
(2.88062 0.0266718 0)
(2.69371 0.084462 0)
(2.22582 0.196483 0)
(1.1849 0.552733 0)
(0.710239 0.598379 0)
(0.736316 0.6117 0)
(0.808508 0.611485 0)
(0.851329 0.637106 0)
(0.858982 0.679482 0)
(0.868372 0.727871 0)
(0.894774 0.777766 0)
(0.939537 0.827484 0)
(1.00083 0.874085 0)
(1.07908 0.913534 0)
(1.17103 0.939014 0)
(2.99999 1.25201e-06 0)
(2.99996 8.04951e-06 0)
(2.9999 2.50497e-05 0)
(2.99977 6.85346e-05 0)
(2.99945 0.000159538 0)
(2.99879 0.000386198 0)
(2.99703 0.000840718 0)
(2.99354 0.0020221 0)
(2.98354 0.00429977 0)
(2.96402 0.0107579 0)
(2.9043 0.023237 0)
(2.75951 0.0626282 0)
(2.38689 0.148457 0)
(1.39148 0.414819 0)
(0.800988 0.597093 0)
(0.789408 0.645731 0)
(0.849294 0.654889 0)
(0.904258 0.666486 0)
(0.918346 0.696989 0)
(0.92736 0.735798 0)
(0.950903 0.776197 0)
(0.99177 0.815903 0)
(1.04719 0.85258 0)
(1.11586 0.882812 0)
(1.19494 0.902808 0)
(2.99999 1.09574e-06 0)
(2.99997 7.04193e-06 0)
(2.99992 2.19192e-05 0)
(2.99981 5.99147e-05 0)
(2.99955 0.000139535 0)
(2.99901 0.000336882 0)
(2.99758 0.000735128 0)
(2.99476 0.00175355 0)
(2.98651 0.0037572 0)
(2.9714 0.00907321 0)
(2.92143 0.020466 0)
(2.80731 0.0503162 0)
(2.49664 0.123556 0)
(1.59809 0.329962 0)
(0.915523 0.632722 0)
(0.827676 0.683328 0)
(0.87142 0.700974 0)
(0.931635 0.700305 0)
(0.962344 0.717253 0)
(0.977206 0.745481 0)
(1.00001 0.776789 0)
(1.03726 0.807285 0)
(1.08674 0.834974 0)
(1.14675 0.857452 0)
(1.21482 0.872393 0)
(2.99999 9.63781e-07 0)
(2.99998 6.19669e-06 0)
(2.99994 1.92888e-05 0)
(2.99985 5.27781e-05 0)
(2.99964 0.000122915 0)
(2.99921 0.000297462 0)
(2.99807 0.000647865 0)
(2.99582 0.0015557 0)
(2.98921 0.00330716 0)
(2.97756 0.00830286 0)
(2.93696 0.0174629 0)
(2.85175 0.0471883 0)
(2.60323 0.111141 0)
(1.85358 0.311033 0)
(1.09828 0.681197 0)
(0.869893 0.715975 0)
(0.891768 0.73049 0)
(0.947757 0.724844 0)
(0.992479 0.730996 0)
(1.01643 0.751206 0)
(1.0408 0.775941 0)
(1.0751 0.79945 0)
(1.11945 0.81982 0)
(1.17244 0.835547 0)
(1.23153 0.84551 0)
(2.99999 8.30584e-07 0)
(2.99998 5.34062e-06 0)
(2.99995 1.66226e-05 0)
(2.99988 4.54989e-05 0)
(2.99972 0.00010591 0)
(2.99939 0.000256646 0)
(2.99851 0.000557279 0)
(2.99677 0.00134555 0)
(2.99175 0.00283049 0)
(2.98283 0.00733111 0)
(2.95246 0.0144532 0)
(2.89109 0.0426337 0)
(2.70918 0.0946238 0)
(2.16105 0.274889 0)
(1.34948 0.66356 0)
(0.964608 0.734643 0)
(0.942634 0.746044 0)
(0.977329 0.742292 0)
(1.02515 0.740351 0)
(1.05557 0.753676 0)
(1.07971 0.772907 0)
(1.10972 0.791101 0)
(1.14796 0.805616 0)
(1.19395 0.81613 0)
(1.24497 0.821089 0)
(3 6.89097e-07 0)
(2.99999 4.42877e-06 0)
(2.99996 1.37879e-05 0)
(2.99991 3.77029e-05 0)
(2.99979 8.78183e-05 0)
(2.99953 0.0002122 0)
(2.99887 0.000462047 0)
(2.99754 0.00110583 0)
(2.99387 0.00234338 0)
(2.9869 0.00587673 0)
(2.96538 0.0119686 0)
(2.92289 0.0324296 0)
(2.79136 0.0739194 0)
(2.42767 0.201778 0)
(1.6787 0.514501 0)
(1.09258 0.737104 0)
(1.00956 0.759601 0)
(1.022 0.764165 0)
(1.063 0.756853 0)
(1.09668 0.761043 0)
(1.11916 0.772589 0)
(1.14332 0.784252 0)
(1.17497 0.79301 0)
(1.21348 0.798328 0)
(1.25532 0.79755 0)
(3 5.48859e-07 0)
(2.99999 3.52355e-06 0)
(2.99997 1.09715e-05 0)
(2.99993 2.99397e-05 0)
(2.99984 6.97272e-05 0)
(2.99965 0.000167711 0)
(2.99916 0.000365585 0)
(2.99819 0.000865791 0)
(2.99546 0.0018432 0)
(2.99056 0.00448775 0)
(2.97397 0.00931661 0)
(2.94552 0.0242934 0)
(2.84421 0.0528137 0)
(2.58737 0.149251 0)
(1.98817 0.364408 0)
(1.2349 0.761657 0)
(1.04905 0.793825 0)
(1.05186 0.796216 0)
(1.08856 0.784555 0)
(1.12851 0.776582 0)
(1.15283 0.777559 0)
(1.17356 0.781125 0)
(1.19938 0.783393 0)
(1.22954 0.781167 0)
(1.2613 0.772648 0)
(3 4.26616e-07 0)
(2.99999 2.73593e-06 0)
(2.99998 8.51818e-06 0)
(2.99995 2.32036e-05 0)
(2.99988 5.39794e-05 0)
(2.99974 0.000129444 0)
(2.99938 0.000281389 0)
(2.99866 0.00066424 0)
(2.99669 0.00140541 0)
(2.9929 0.00345536 0)
(2.98149 0.00685554 0)
(2.96056 0.0193846 0)
(2.89162 0.0377578 0)
(2.72385 0.118169 0)
(2.30756 0.275849 0)
(1.47731 0.702016 0)
(1.12458 0.808708 0)
(1.09232 0.8176 0)
(1.11453 0.810963 0)
(1.15269 0.795205 0)
(1.18032 0.786414 0)
(1.1997 0.781266 0)
(1.21907 0.774715 0)
(1.23958 0.762216 0)
(1.26097 0.743795 0)
(3 3.31375e-07 0)
(2.99999 2.12666e-06 0)
(2.99998 6.6197e-06 0)
(2.99997 1.80442e-05 0)
(2.99992 4.20037e-05 0)
(2.99982 0.000100798 0)
(2.99956 0.000219686 0)
(2.99904 0.0005179 0)
(2.99764 0.00110307 0)
(2.99492 0.00265059 0)
(2.98702 0.00555617 0)
(2.97205 0.0141335 0)
(2.92557 0.0295282 0)
(2.81759 0.0815751 0)
(2.53411 0.192474 0)
(1.77393 0.524146 0)
(1.24446 0.799775 0)
(1.13724 0.829804 0)
(1.14207 0.829371 0)
(1.17187 0.812127 0)
(1.2009 0.794501 0)
(1.21815 0.779493 0)
(1.2299 0.761028 0)
(1.24067 0.737522 0)
(1.25293 0.709257 0)
(3 2.33634e-07 0)
(3 1.67072e-06 0)
(2.99999 4.84795e-06 0)
(2.99998 1.40421e-05 0)
(2.99994 3.07221e-05 0)
(2.99987 7.84945e-05 0)
(2.99969 0.000159518 0)
(2.99933 0.000404915 0)
(2.99835 0.000789723 0)
(2.99647 0.00208054 0)
(2.99092 0.0038903 0)
(2.98111 0.0110596 0)
(2.94798 0.0199691 0)
(2.87896 0.061973 0)
(2.68117 0.127483 0)
(2.10383 0.385466 0)
(1.45256 0.76937 0)
(1.19355 0.845183 0)
(1.16953 0.843116 0)
(1.18619 0.824674 0)
(1.21146 0.79577 0)
(1.22527 0.767133 0)
(1.2302 0.736485 0)
(1.23419 0.703842 0)
(1.2397 0.667716 0)
(3 1.69912e-07 0)
(3 1.20622e-06 0)
(2.99999 3.51635e-06 0)
(2.99998 1.01399e-05 0)
(2.99996 2.22695e-05 0)
(2.99991 5.65619e-05 0)
(2.9998 0.000115475 0)
(2.99951 0.000290623 0)
(2.99894 0.000570859 0)
(2.99739 0.0014857 0)
(2.99443 0.00279668 0)
(2.98571 0.00793231 0)
(2.96874 0.0137003 0)
(2.91781 0.0444329 0)
(2.79874 0.0859151 0)
(2.47357 0.257483 0)
(1.72996 0.630643 0)
(1.29631 0.831124 0)
(1.20499 0.844365 0)
(1.19997 0.822194 0)
(1.21209 0.787035 0)
(1.22224 0.74626 0)
(1.22451 0.705009 0)
(1.22385 0.663397 0)
(1.22594 0.623001 0)
(3 1.37454e-07 0)
(3 7.87056e-07 0)
(3 2.6433e-06 0)
(2.99999 6.73007e-06 0)
(2.99997 1.67266e-05 0)
(2.99994 3.72514e-05 0)
(2.99986 8.74687e-05 0)
(2.99967 0.000187786 0)
(2.99928 0.000440721 0)
(2.99824 0.000931254 0)
(2.99626 0.00223664 0)
(2.99031 0.00467311 0)
(2.98001 0.0116592 0)
(2.9443 0.0251385 0)
(2.87071 0.0650616 0)
(2.65783 0.154494 0)
(2.04908 0.424369 0)
(1.44609 0.799494 0)
(1.22381 0.846119 0)
(1.1959 0.812351 0)
(1.20148 0.767576 0)
(1.20693 0.7176 0)
(1.20787 0.667787 0)
(1.2088 0.620916 0)
(1.21423 0.579736 0)
(3 9.72994e-08 0)
(3 5.57048e-07 0)
(3 1.87219e-06 0)
(2.99999 4.76435e-06 0)
(2.99998 1.18471e-05 0)
(2.99996 2.63935e-05 0)
(2.99991 6.19579e-05 0)
(2.99978 0.000133272 0)
(2.99952 0.000311874 0)
(2.99883 0.000661296 0)
(2.99751 0.00157101 0)
(2.99369 0.0033051 0)
(2.98667 0.00811802 0)
(2.96456 0.0168728 0)
(2.91971 0.0436553 0)
(2.78937 0.100883 0)
(2.41311 0.271971 0)
(1.74783 0.635676 0)
(1.29456 0.802148 0)
(1.1969 0.78876 0)
(1.18855 0.735216 0)
(1.19008 0.678144 0)
(1.19257 0.625579 0)
(1.19825 0.579192 0)
(1.20829 0.539911 0)
(3 6.84023e-08 0)
(3 3.59196e-07 0)
(3 1.27927e-06 0)
(2.99999 3.08863e-06 0)
(2.99999 8.05717e-06 0)
(2.99997 1.69717e-05 0)
(2.99994 4.19497e-05 0)
(2.99986 8.43514e-05 0)
(2.99969 0.000210113 0)
(2.99925 0.000408752 0)
(2.99844 0.00105431 0)
(2.99585 0.00196832 0)
(2.9919 0.00545161 0)
(2.97555 0.00952982 0)
(2.95091 0.0296388 0)
(2.85132 0.0536343 0)
(2.61085 0.1718 0)
(2.0594 0.383356 0)
(1.35031 0.779063 0)
(1.14357 0.783493 0)
(1.12575 0.706876 0)
(1.1441 0.637903 0)
(1.1624 0.580295 0)
(1.18032 0.535182 0)
(1.20415 0.505131 0)
(3 4.03466e-08 0)
(3 2.31343e-07 0)
(3 7.73348e-07 0)
(3 1.96377e-06 0)
(2.99999 4.83264e-06 0)
(2.99998 1.07001e-05 0)
(2.99996 2.47364e-05 0)
(2.99991 5.27019e-05 0)
(2.99977 0.000121167 0)
(2.99951 0.00025403 0)
(2.99879 0.000597144 0)
(2.99743 0.00121544 0)
(2.99324 0.00306842 0)
(2.98603 0.00594715 0)
(2.96092 0.0167918 0)
(2.91098 0.0335184 0)
(2.7581 0.0985518 0)
(2.35998 0.25023 0)
(1.62095 0.581979 0)
(1.12468 0.704231 0)
(1.0519 0.647176 0)
(1.08466 0.586876 0)
(1.12151 0.533959 0)
(1.16423 0.498259 0)
(1.20918 0.481435 0)
(3 2.09774e-08 0)
(3 1.52735e-07 0)
(3 4.37606e-07 0)
(3 1.27639e-06 0)
(2.99999 2.74632e-06 0)
(2.99999 7.0317e-06 0)
(2.99997 1.39438e-05 0)
(2.99993 3.53635e-05 0)
(2.99985 6.67764e-05 0)
(2.99963 0.000174901 0)
(2.99923 0.000314198 0)
(2.99796 0.00087939 0)
(2.99602 0.00146073 0)
(2.9879 0.00476057 0)
(2.97636 0.00667212 0)
(2.92689 0.0267669 0)
(2.82276 0.040333 0)
(2.53402 0.141347 0)
(1.74658 0.325012 0)
(1.08524 0.60424 0)
(0.921333 0.563399 0)
(0.980728 0.518168 0)
(1.05102 0.481199 0)
(1.12781 0.46593 0)
(1.19612 0.462119 0)
(3 1.49178e-08 0)
(3 8.5624e-08 0)
(3 2.85752e-07 0)
(3 7.25456e-07 0)
(3 1.77496e-06 0)
(2.99999 3.91638e-06 0)
(2.99998 8.93945e-06 0)
(2.99995 1.891e-05 0)
(2.99988 4.24791e-05 0)
(2.99971 8.7604e-05 0)
(2.99937 0.000200977 0)
(2.9984 0.000386736 0)
(2.99666 0.00103718 0)
(2.99064 0.00171637 0)
(2.98156 0.00602437 0)
(2.94273 0.0103425 0)
(2.8694 0.0363956 0)
(2.64034 0.0813753 0)
(1.96023 0.237892 0)
(1.1265 0.527504 0)
(0.790959 0.487346 0)
(0.875495 0.455304 0)
(0.982856 0.434277 0)
(1.09235 0.435996 0)
(1.1749 0.441821 0)
(3 1.09335e-08 0)
(3 6.29578e-08 0)
(3 2.08778e-07 0)
(3 5.28539e-07 0)
(3 1.28144e-06 0)
(2.99999 2.80996e-06 0)
(2.99998 6.37754e-06 0)
(2.99996 1.34124e-05 0)
(2.9999 3.03352e-05 0)
(2.99976 6.28378e-05 0)
(2.99948 0.000144488 0)
(2.99867 0.000295802 0)
(2.99717 0.000705206 0)
(2.99239 0.0013539 0)
(2.98428 0.00381828 0)
(2.95475 0.0065397 0)
(2.89503 0.0223417 0)
(2.71776 0.0476293 0)
(2.19239 0.135233 0)
(1.23282 0.351915 0)
(0.689725 0.381298 0)
(0.775612 0.38913 0)
(0.905752 0.395009 0)
(1.03885 0.407778 0)
(1.13112 0.417723 0)
(3 1.05648e-08 0)
(3 6.03947e-08 0)
(3 2.03717e-07 0)
(3 5.19999e-07 0)
(3 1.30269e-06 0)
(2.99999 2.93215e-06 0)
(2.99999 6.92499e-06 0)
(2.99996 1.52092e-05 0)
(2.99992 3.49687e-05 0)
(2.9998 7.84014e-05 0)
(2.99956 0.000168549 0)
(2.99887 0.000391332 0)
(2.99758 0.000762174 0)
(2.99344 0.00179308 0)
(2.98635 0.00323008 0)
(2.95985 0.00738715 0)
(2.91156 0.0127502 0)
(2.74154 0.0338151 0)
(2.27247 0.0590855 0)
(1.32931 0.165411 0)
(0.596917 0.2846 0)
(0.668419 0.325383 0)
(0.813032 0.354235 0)
(0.960084 0.373122 0)
(1.05839 0.38354 0)
(3 1.0063e-08 0)
(3 5.24479e-08 0)
(3 1.89939e-07 0)
(3 4.59966e-07 0)
(3 1.24691e-06 0)
(3 2.62725e-06 0)
(2.99999 6.97896e-06 0)
(2.99998 1.37614e-05 0)
(2.99995 3.74412e-05 0)
(2.99987 6.88796e-05 0)
(2.99973 0.000196188 0)
(2.99917 0.000317032 0)
(2.9984 0.000985746 0)
(2.99458 0.0012018 0)
(2.98951 0.00473298 0)
(2.96355 0.00272123 0)
(2.92214 0.0215657 0)
(2.75921 0.00491718 0)
(2.31778 0.0778047 0)
(1.40155 0.0983392 0)
(0.583003 0.24464 0)
(0.593238 0.285151 0)
(0.731067 0.314394 0)
(0.876898 0.329391 0)
(0.97374 0.336889 0)
(3 5.96601e-09 0)
(3 3.41471e-08 0)
(3 1.14567e-07 0)
(3 2.93788e-07 0)
(3 7.23331e-07 0)
(3 1.66399e-06 0)
(2.99999 3.7435e-06 0)
(2.99999 8.43838e-06 0)
(2.99996 1.85246e-05 0)
(2.99993 3.93432e-05 0)
(2.99977 9.03615e-05 0)
(2.99955 0.000178777 0)
(2.99834 0.000425815 0)
(2.99683 0.000815467 0)
(2.98763 0.00188765 0)
(2.97543 0.00364011 0)
(2.9133 0.00856455 0)
(2.77851 0.0186573 0)
(2.40352 0.0418984 0)
(1.34967 0.106819 0)
(0.587027 0.232985 0)
(0.525623 0.256462 0)
(0.654516 0.271636 0)
(0.795206 0.277314 0)
(0.891589 0.282516 0)
(3 2.59388e-09 0)
(3 1.97376e-08 0)
(3 5.42901e-08 0)
(3 1.65298e-07 0)
(3 3.27434e-07 0)
(3 9.56055e-07 0)
(3 1.47265e-06 0)
(2.99999 5.12006e-06 0)
(2.99998 6.16189e-06 0)
(2.99992 2.78624e-05 0)
(2.99985 2.14574e-05 0)
(2.99946 0.000166729 0)
(2.99896 3.44227e-05 0)
(2.9959 0.0010604 0)
(2.99211 -0.000318244 0)
(2.96986 0.00694105 0)
(2.93648 -0.00289762 0)
(2.79059 0.0368762 0)
(2.40789 0.0141012 0)
(1.55748 0.116486 0)
(0.635984 0.243571 0)
(0.490455 0.235987 0)
(0.601099 0.226228 0)
(0.738273 0.222407 0)
(0.834465 0.228803 0)
(3 2.12464e-09 0)
(3 9.63579e-09 0)
(3 3.84792e-08 0)
(3 8.15981e-08 0)
(3 2.57188e-07 0)
(3 4.07339e-07 0)
(3 1.51075e-06 0)
(2.99999 1.88511e-06 0)
(2.99998 8.90182e-06 0)
(2.99994 9.11052e-06 0)
(2.99988 5.70195e-05 0)
(2.99955 4.45784e-05 0)
(2.99914 0.000418176 0)
(2.99647 0.000103391 0)
(2.99324 0.00278425 0)
(2.97305 -0.000494574 0)
(2.94398 0.0170258 0)
(2.8081 -0.00136592 0)
(2.45854 0.0793174 0)
(1.6665 0.10071 0)
(0.667452 0.281134 0)
(0.42163 0.237232 0)
(0.539919 0.194528 0)
(0.695637 0.178768 0)
(0.80334 0.185231 0)
(3 1.23427e-09 0)
(3 7.01013e-09 0)
(3 2.37045e-08 0)
(3 5.98985e-08 0)
(3 1.51983e-07 0)
(3 3.3317e-07 0)
(3 8.50341e-07 0)
(2.99999 1.7016e-06 0)
(2.99998 4.74631e-06 0)
(2.99996 9.19857e-06 0)
(2.99988 3.04989e-05 0)
(2.99977 5.70969e-05 0)
(2.99899 0.000228376 0)
(2.99806 0.000447925 0)
(2.99141 0.00147564 0)
(2.98324 0.00283289 0)
(2.93477 0.00835721 0)
(2.83866 0.018186 0)
(2.54483 0.0465149 0)
(1.67257 0.128359 0)
(0.742206 0.302556 0)
(0.382054 0.217032 0)
(0.528122 0.153349 0)
(0.712601 0.139971 0)
(0.832267 0.150231 0)
(3 7.44244e-10 0)
(3 4.72342e-09 0)
(3 1.47024e-08 0)
(3 3.94596e-08 0)
(3 9.14741e-08 0)
(3 2.17921e-07 0)
(3 4.55055e-07 0)
(2.99999 1.12563e-06 0)
(2.99999 2.23848e-06 0)
(2.99996 5.77865e-06 0)
(2.99992 1.21703e-05 0)
(2.99972 3.0213e-05 0)
(2.99948 5.28589e-05 0)
(2.9976 0.000236225 0)
(2.99543 0.000441612 0)
(2.97963 0.00212961 0)
(2.95889 0.00398581 0)
(2.84487 0.0181825 0)
(2.5801 0.0445722 0)
(1.9053 0.129826 0)
(0.73709 0.349767 0)
(0.277042 0.207735 0)
(0.482246 0.129835 0)
(0.715932 0.11964 0)
(0.850643 0.129886 0)
(3 4.94646e-10 0)
(3 2.84992e-09 0)
(3 9.43098e-09 0)
(3 2.38685e-08 0)
(3 5.77106e-08 0)
(3 1.2548e-07 0)
(3 2.9233e-07 0)
(3 5.84634e-07 0)
(2.99999 1.39626e-06 0)
(2.99997 2.71041e-06 0)
(2.9999 6.74903e-06 0)
(2.9998 1.35582e-05 0)
(2.99917 3.07959e-05 0)
(2.99841 4.90763e-05 0)
(2.99318 0.000287056 0)
(2.98658 0.000521025 0)
(2.9508 0.00321117 0)
(2.87934 0.00626832 0)
(2.66346 0.0323072 0)
(2.02343 0.0874293 0)
(0.880222 0.247631 0)
(0.268878 0.162973 0)
(0.489818 0.125159 0)
(0.740522 0.119743 0)
(0.874523 0.123265 0)
(3 1.36802e-10 0)
(3 7.70563e-10 0)
(3 2.45223e-09 0)
(3 5.33388e-09 0)
(3 1.10478e-08 0)
(3 1.47993e-08 0)
(3 2.17784e-08 0)
(2.99999 -1.53276e-08 0)
(2.99999 -7.12531e-08 0)
(2.99996 -4.7039e-07 0)
(2.99993 -8.11471e-07 0)
(2.99974 -4.2519e-06 0)
(2.99951 -9.38076e-06 0)
(2.99783 1.38879e-05 0)
(2.99586 3.65945e-05 0)
(2.98244 0.000505786 0)
(2.96446 0.00111443 0)
(2.87439 0.00494265 0)
(2.67004 0.0176254 0)
(2.14176 0.0364719 0)
(0.816304 0.117477 0)
(0.171324 0.125703 0)
(0.441906 0.133742 0)
(0.712572 0.122397 0)
(0.856624 0.116793 0)
(3 -5.54146e-10 0)
(3 -2.86658e-09 0)
(3 -1.10266e-08 0)
(3 -2.88695e-08 0)
(3 -8.78222e-08 0)
(3 -2.13628e-07 0)
(3 -6.11665e-07 0)
(3 -1.35706e-06 0)
(2.99998 -3.83653e-06 0)
(2.99997 -7.72444e-06 0)
(2.99989 -2.18822e-05 0)
(2.99979 -4.20159e-05 0)
(2.99919 -0.00010969 0)
(2.99845 -0.000200788 0)
(2.99364 -0.00036357 0)
(2.9876 -0.000574248 0)
(2.95523 -0.000343827 0)
(2.89613 -8.60726e-05 0)
(2.69799 0.00599474 0)
(2.12621 0.019484 0)
(0.996411 0.0558137 0)
(0.261469 0.10251 0)
(0.470813 0.125236 0)
(0.708155 0.1203 0)
(0.858027 0.115101 0)
(3 -2.08798e-09 0)
(3 -9.07903e-09 0)
(3 -3.89211e-08 0)
(3 -9.08944e-08 0)
(3 -3.0654e-07 0)
(3 -6.47824e-07 0)
(3 -2.08297e-06 0)
(2.99999 -4.13944e-06 0)
(2.99998 -1.293e-05 0)
(2.99995 -2.36125e-05 0)
(2.9999 -7.49879e-05 0)
(2.99967 -0.000114221 0)
(2.99937 -0.000395384 0)
(2.99761 -0.000389728 0)
(2.99552 -0.00186727 0)
(2.98249 -7.90597e-05 0)
(2.96494 -0.00795894 0)
(2.88133 0.00697498 0)
(2.69055 -0.0256281 0)
(2.19866 0.0173433 0)
(0.889428 -0.00381723 0)
(0.2079 0.0495002 0)
(0.428102 0.085139 0)
(0.673552 0.100005 0)
(0.826773 0.103176 0)
(3 -1.5563e-09 0)
(3 -7.95955e-09 0)
(3 -3.06864e-08 0)
(3 -8.30006e-08 0)
(3 -2.42908e-07 0)
(3 -6.3064e-07 0)
(3 -1.62281e-06 0)
(2.99999 -4.16537e-06 0)
(2.99997 -9.78958e-06 0)
(2.99992 -2.48124e-05 0)
(2.99982 -5.32834e-05 0)
(2.99952 -0.000134798 0)
(2.99896 -0.000248206 0)
(2.99711 -0.000644321 0)
(2.99401 -0.000863061 0)
(2.9818 -0.00234696 0)
(2.96266 -0.00156721 0)
(2.88358 -0.00433944 0)
(2.70037 0.00264382 0)
(2.22487 0.00824574 0)
(0.922672 0.0295495 0)
(0.243091 0.0566223 0)
(0.429931 0.0747003 0)
(0.656046 0.0819715 0)
(0.803574 0.0858219 0)
(3 3.2993e-10 0)
(3 2.20009e-09 0)
(3 4.98181e-09 0)
(3 1.27972e-08 0)
(3 1.9126e-08 0)
(3 3.30161e-08 0)
(2.99999 3.16571e-08 0)
(2.99999 9.53858e-09 0)
(2.99997 -1.31306e-07 0)
(2.99992 -5.23608e-07 0)
(2.99981 -1.54683e-06 0)
(2.9995 -3.96494e-06 0)
(2.99892 -7.64018e-06 0)
(2.99706 -1.98453e-05 0)
(2.99392 -7.02613e-06 0)
(2.98186 -5.03664e-05 0)
(2.96286 0.000276771 0)
(2.88521 0.00044028 0)
(2.7059 0.00339622 0)
(2.23815 0.00811853 0)
(0.953392 0.0247667 0)
(0.268778 0.042756 0)
(0.435494 0.05288 0)
(0.649149 0.057262 0)
(0.793048 0.0625921 0)
(3 1.90239e-09 0)
(3 1.01648e-08 0)
(3 3.67503e-08 0)
(3 9.93153e-08 0)
(3 2.67258e-07 0)
(3 6.82047e-07 0)
(3 1.64093e-06 0)
(2.99999 4.11147e-06 0)
(2.99997 9.20835e-06 0)
(2.99992 2.30638e-05 0)
(2.99982 4.73723e-05 0)
(2.99952 0.000122332 0)
(2.99894 0.000217709 0)
(2.99711 0.000586624 0)
(2.99398 0.000794348 0)
(2.98208 0.00224016 0)
(2.96314 0.00203624 0)
(2.88659 0.00558987 0)
(2.70969 0.00429413 0)
(2.24947 0.00904551 0)
(0.975923 0.0194024 0)
(0.287176 0.0285042 0)
(0.436708 0.0313195 0)
(0.640947 0.0327034 0)
(0.782471 0.0397159 0)
(3 2.17099e-09 0)
(3 8.94413e-09 0)
(3 4.13735e-08 0)
(3 9.05531e-08 0)
(3 3.18336e-07 0)
(3 6.31021e-07 0)
(3 2.0521e-06 0)
(2.99999 3.74362e-06 0)
(2.99998 1.20666e-05 0)
(2.99995 1.97221e-05 0)
(2.99989 6.65555e-05 0)
(2.99965 9.19317e-05 0)
(2.99933 0.000351212 0)
(2.99757 0.000328827 0)
(2.99547 0.00174961 0)
(2.98301 0.00023226 0)
(2.96629 0.0081468 0)
(2.88771 -0.00505672 0)
(2.70964 0.0318117 0)
(2.24635 -0.00437656 0)
(0.984514 0.0552874 0)
(0.279378 0.0493804 0)
(0.425926 0.0374053 0)
(0.633911 0.0178924 0)
(0.780868 0.0159265 0)
(3 5.23981e-10 0)
(3 3.23034e-09 0)
(3 7.76976e-09 0)
(3 2.24321e-08 0)
(3 1.91609e-08 0)
(3 7.97838e-09 0)
(3 -1.48215e-07 0)
(2.99999 -8.17282e-07 0)
(2.99998 -1.98522e-06 0)
(2.99996 -7.89276e-06 0)
(2.99988 -1.3225e-05 0)
(2.99976 -5.01008e-05 0)
(2.99914 -6.10108e-05 0)
(2.99839 -0.000196234 0)
(2.99382 -0.000187791 0)
(2.98818 -0.000387942 0)
(2.95754 -0.000146631 0)
(2.90577 1.79654e-05 0)
(2.71918 0.00137428 0)
(2.20889 0.00415149 0)
(1.17884 0.0101168 0)
(0.415283 0.012784 0)
(0.512303 0.0124531 0)
(0.67804 0.0129686 0)
(0.813906 0.0147786 0)
(3 -2.60151e-10 0)
(3 1.53369e-09 0)
(3 -5.85322e-09 0)
(3 7.79129e-09 0)
(3 -8.78757e-08 0)
(3 -6.77009e-08 0)
(3 -8.47593e-07 0)
(2.99999 -1.06339e-06 0)
(2.99998 -6.17202e-06 0)
(2.99994 -7.24463e-06 0)
(2.99986 -3.78903e-05 0)
(2.99961 -3.028e-05 0)
(2.9992 -0.000214929 0)
(2.99746 2.74957e-05 0)
(2.99529 -0.00121701 0)
(2.98305 0.00152968 0)
(2.9667 -0.00656456 0)
(2.88907 0.0103087 0)
(2.71389 -0.0277757 0)
(2.25679 0.0137834 0)
(0.998966 -0.0364887 0)
(0.273562 -0.028552 0)
(0.407678 -0.0180853 0)
(0.613233 0.00392694 0)
(0.758692 0.0144724 0)
(1.07801 1.17473 0)
(1.24947 1.06473 0)
(0.926273 0.901487 0)
(0.0960917 0.603103 0)
(-0.429489 0.0366733 0)
(-0.402102 0.00980091 0)
(-0.533772 0.010223 0)
(-0.626315 0.0162672 0)
(-0.700289 0.0248913 0)
(-0.768029 0.0284453 0)
(-0.832224 0.0278874 0)
(-0.88952 0.0249715 0)
(-0.938696 0.0205773 0)
(-0.978798 0.0152177 0)
(-1.00857 0.00956046 0)
(-1.02513 0.00605607 0)
(-1.02951 0.00450801 0)
(-1.02665 0.00435486 0)
(-1.01998 0.00456321 0)
(-1.00817 0.00455095 0)
(-0.989296 0.00417117 0)
(-0.963737 0.00363933 0)
(-0.932532 0.003048 0)
(-0.897295 0.00258703 0)
(-0.859487 0.00227797 0)
(-0.820103 0.00201675 0)
(-0.779681 0.00167985 0)
(-0.738482 0.0011691 0)
(-0.696628 0.000454265 0)
(-0.654114 -0.000485011 0)
(-0.610966 -0.00163394 0)
(-0.567276 -0.00304159 0)
(-0.523352 -0.00484091 0)
(-0.479544 -0.00715942 0)
(-0.435302 -0.0101844 0)
(-0.389939 -0.0137465 0)
(-0.343553 -0.0171464 0)
(-0.296153 -0.0198615 0)
(-0.249456 -0.0218361 0)
(-0.202598 -0.0236663 0)
(-0.156506 -0.025208 0)
(-0.110285 -0.026791 0)
(-0.0642376 -0.0284749 0)
(-0.0197032 -0.0306104 0)
(0.0315302 -0.0329147 0)
(0.0771158 -0.0328109 0)
(0.118684 -0.0317141 0)
(0.157712 -0.029868 0)
(0.197414 -0.0281486 0)
(0.236633 -0.0265378 0)
(0.275184 -0.0251075 0)
(0.311637 -0.0236818 0)
(0.347475 -0.0227745 0)
(0.384871 -0.0225247 0)
(0.422509 -0.0221651 0)
(0.458836 -0.0211968 0)
(0.493986 -0.0202262 0)
(0.528413 -0.0194126 0)
(0.562181 -0.0186681 0)
(0.595357 -0.0179682 0)
(0.627899 -0.0172727 0)
(0.659887 -0.0166034 0)
(0.691261 -0.0159417 0)
(0.722104 -0.015293 0)
(0.752402 -0.0146593 0)
(0.782185 -0.0140264 0)
(0.811486 -0.0134022 0)
(0.840331 -0.012776 0)
(0.868729 -0.0121537 0)
(0.896738 -0.0115272 0)
(0.924363 -0.0109105 0)
(0.951634 -0.0102899 0)