/*--------------------------------*- C++ -*----------------------------------*\
  =========                 |
  \\      /  F ield         | OpenFOAM: The Open Source CFD Toolbox
   \\    /   O peration     | Website:  https://openfoam.org
    \\  /    A nd           | Version:  6
     \\/     M anipulation  |
\*---------------------------------------------------------------------------*/
FoamFile
{
    version     2.0;
    format      ascii;
    class       surfaceScalarField;
    location    "1";
    object      phi;
}
// * * * * * * * * * * * * * * * * * * * * * * * * * * * * * * * * * * * * * //

dimensions      [1 0 -1 0 0 0 0];

internalField   nonuniform List<scalar> 
10325
(
0.00840003
1.71992e-10
0.00840001
1.12101e-09
0.00839999
3.35503e-09
0.00839987
9.46464e-09
0.0083997
2.20018e-08
0.00839899
5.68198e-08
0.00839795
1.25052e-07
0.00839361
3.28229e-07
0.00838756
6.97524e-07
0.00836168
1.98632e-06
0.00832072
4.39959e-06
0.00819211
1.44631e-05
0.00802459
4.13455e-05
0.00712102
0.000177244
0.00483253
0.000876676
0.00512601
0.000637915
0.00504206
0.000531246
0.00466622
0.000573922
0.00414336
0.000626713
0.00354568
0.000672963
0.00290116
0.000687779
0.00222329
0.000749769
0.00147548
0.000825369
0.000692625
0.000845438
0.000719748
0.00840003
3.45465e-10
0.00840001
2.2556e-09
0.00839999
6.72967e-09
0.00839988
1.90691e-08
0.00839971
4.42928e-08
0.00839902
1.15349e-07
0.008398
2.53453e-07
0.00839371
6.74712e-07
0.00838777
1.42159e-06
0.00836197
4.15607e-06
0.0083221
9.02929e-06
0.00819235
3.06586e-05
0.00801712
8.62359e-05
0.00709851
0.00037637
0.00469145
0.00184645
0.00501967
0.00125179
0.00503218
0.000970121
0.00473418
0.00107087
0.0042422
0.00122165
0.00364944
0.00134111
0.00296338
0.00141539
0.00226176
0.00152099
0.00153808
0.00162453
0.000781438
0.001664
0.00152711
0.00840003
5.01557e-10
0.00840002
3.282e-09
0.00839999
9.78072e-09
0.00839989
2.78319e-08
0.00839973
6.46881e-08
0.00839908
1.69667e-07
0.00839812
3.73648e-07
0.00839402
1.00497e-06
0.00838833
2.12167e-06
0.00836314
6.29932e-06
0.00832555
1.35539e-05
0.00819718
4.72045e-05
0.00801465
0.000129555
0.00711734
0.000575036
0.00467649
0.00279543
0.00505044
0.00184187
0.00511389
0.00137065
0.00483088
0.00155422
0.00434721
0.00180717
0.00375396
0.00200945
0.00304392
0.00216313
0.00231971
0.00230973
0.00157669
0.00243819
0.000807945
0.00249138
0.0023569
0.00840003
6.14458e-10
0.00840002
4.03719e-09
0.0084
1.2033e-08
0.00839991
3.44161e-08
0.00839977
8.00359e-08
0.0083992
2.11236e-07
0.00839834
4.66467e-07
0.0083946
1.26255e-06
0.00838929
2.70372e-06
0.00836568
8.05024e-06
0.00833039
1.73168e-05
0.00820728
6.12097e-05
0.00802541
0.000167803
0.00720574
0.000735661
0.0048413
0.00359547
0.00525326
0.00242324
0.00530526
0.00180311
0.00500683
0.00205499
0.0045071
0.00240736
0.00389781
0.00269305
0.00317448
0.00291659
0.00242142
0.00311964
0.00163558
0.00328777
0.000815409
0.00336354
0.0031875
0.00840003
6.68955e-10
0.00840002
4.41219e-09
0.0084
1.31914e-08
0.00839994
3.78425e-08
0.00839983
8.78198e-08
0.00839936
2.32881e-07
0.00839866
5.12947e-07
0.00839553
1.40204e-06
0.00839066
3.02216e-06
0.00837004
9.12778e-06
0.00833861
1.9622e-05
0.00822491
7.0383e-05
0.00805306
0.000194983
0.00735918
0.000834197
0.0052386
0.00407972
0.00565595
0.00302441
0.00563621
0.00233073
0.00526332
0.00262925
0.00472734
0.00303921
0.00409831
0.00339016
0.00334557
0.00368928
0.00255938
0.00395196
0.00174233
0.00415891
0.000882351
0.00426756
0.0040787
0.00840003
6.97317e-10
0.00840002
4.52549e-09
0.00840001
1.36078e-08
0.00839997
3.83444e-08
0.0083999
8.82685e-08
0.00839956
2.30869e-07
0.00839908
5.03511e-07
0.0083967
1.38221e-06
0.00839314
2.96039e-06
0.00837661
9.11842e-06
0.00835178
1.94931e-05
0.00825507
7.08082e-05
0.00810928
0.000198157
0.00759822
0.00082853
0.00603134
0.0039788
0.00633566
0.00370584
0.00607544
0.00308271
0.00557595
0.00331551
0.00499194
0.00371088
0.00433939
0.00410389
0.00355686
0.00447808
0.00274897
0.00479292
0.00188607
0.00506562
0.000961473
0.00522798
0.00503991
0.00840003
7.59236e-10
0.00840002
4.8165e-09
0.00840002
1.4536e-08
0.00839999
3.96253e-08
0.00839995
9.03931e-08
0.00839975
2.23883e-07
0.00839949
4.80628e-07
0.00839808
1.23866e-06
0.00839601
2.60716e-06
0.00838515
7.74904e-06
0.00836975
1.62561e-05
0.00830103
5.92963e-05
0.00820366
0.000167065
0.00793989
0.000685004
0.00721244
0.00317388
0.00719165
0.00449626
0.00653372
0.00408541
0.00590281
0.00407538
0.00528733
0.00440331
0.00462355
0.00481754
0.00383298
0.00525898
0.00299656
0.00564959
0.00210476
0.00599124
0.00109956
0.00625767
0.00613119
0.00840003
8.44048e-10
0.00840003
5.29929e-09
0.00840002
1.60109e-08
0.0084
4.29325e-08
0.00839997
9.74576e-08
0.00839985
2.33598e-07
0.00839968
4.97198e-07
0.00839893
1.20782e-06
0.00839788
2.51449e-06
0.00839293
6.82177e-06
0.00838709
1.3587e-05
0.00835782
4.62064e-05
0.00832649
0.000117857
0.00830009
0.000461184
0.00838874
0.00195606
0.00782533
0.00547589
0.00690062
0.00522472
0.00620641
0.00486683
0.00558899
0.00508754
0.00494521
0.00549879
0.00416833
0.00600793
0.00334429
0.0064725
0.00242117
0.00693248
0.00131961
0.00737233
0.00743328
0.00840003
9.38941e-10
0.00840003
5.88356e-09
0.00840002
1.77804e-08
0.0084
4.74781e-08
0.00839998
1.07528e-07
0.00839988
2.55354e-07
0.00839974
5.40819e-07
0.00839921
1.29088e-06
0.00839842
2.66676e-06
0.00839529
6.87742e-06
0.00839034
1.43638e-05
0.00837535
4.13891e-05
0.00834472
0.000113208
0.0083657
0.000367435
0.00845301
0.0015208
0.00799143
0.00584852
0.00716197
0.00611393
0.00647807
0.00562452
0.00590666
0.00571051
0.00531751
0.00611449
0.00459965
0.00668506
0.00384483
0.00721655
0.00298204
0.00779707
0.00179944
0.00855969
0.00921054
0.00840003
1.04363e-09
0.00840003
6.52314e-09
0.00840002
1.97372e-08
0.00840001
5.24758e-08
0.00839998
1.18763e-07
0.0083999
2.79609e-07
0.00839977
5.91337e-07
0.00839936
1.38938e-06
0.0083987
2.86491e-06
0.00839649
7.21828e-06
0.00839296
1.47509e-05
0.00838199
4.18172e-05
0.00836104
0.00011092
0.0083484
0.000328917
0.00828035
0.00137397
0.00789501
0.00587631
0.00721769
0.00664631
0.00670926
0.00614821
0.00625672
0.00619322
0.00578015
0.00660825
0.00521431
0.00721381
0.00460857
0.00779872
0.00386112
0.00853506
0.00281459
0.00960356
0.011999
0.00840003
1.17336e-09
0.00840003
7.32428e-09
0.00840002
2.21546e-08
0.00840001
5.88522e-08
0.00839998
1.33253e-07
0.00839989
3.12951e-07
0.00839975
6.63079e-07
0.00839933
1.54517e-06
0.0083986
3.19715e-06
0.00839649
7.87806e-06
0.00839285
1.61488e-05
0.00838288
4.44646e-05
0.00836365
0.000113945
0.00831705
0.000346402
0.00827774
0.00128205
0.00791256
0.00600403
0.00729789
0.00713721
0.00697157
0.00649105
0.00668785
0.00649933
0.00635419
0.00695149
0.00599851
0.00752161
0.00562739
0.00812839
0.0054098
0.00872427
0.00574443
0.00926356
0.0085467
0.00917319
0.00840003
1.30715e-09
0.00840003
8.15991e-09
0.00840002
2.46844e-08
0.00840001
6.55652e-08
0.00839998
1.48563e-07
0.00839989
3.48511e-07
0.00839974
7.39455e-07
0.0083993
1.71597e-06
0.00839858
3.55506e-06
0.00839629
8.72253e-06
0.00839325
1.73307e-05
0.0083818
4.92601e-05
0.0083674
0.000116848
0.00831058
0.000379509
0.00827385
0.00123562
0.00794616
0.00612998
0.0076373
0.00736159
0.00728865
0.00686214
0.00703463
0.00677971
0.00683072
0.00715447
0.00666601
0.0076465
0.00661297
0.00813356
0.0068611
0.00843288
0.00759759
0.00851944
0.00772797
0.00840759
0.00840003
1.43738e-09
0.00840003
8.96514e-09
0.00840002
2.70571e-08
0.00840001
7.20016e-08
0.00839998
1.63204e-07
0.00839989
3.84602e-07
0.00839973
8.17549e-07
0.00839925
1.90773e-06
0.00839847
3.9636e-06
0.00839604
9.64696e-06
0.00839155
1.98522e-05
0.00838113
5.28878e-05
0.00835799
0.000128149
0.00831035
0.000405215
0.0082352
0.00123491
0.00784111
0.00633355
0.00789461
0.00724747
0.00759788
0.00718995
0.00743787
0.00697888
0.00736481
0.0072293
0.0073585
0.00762109
0.00750387
0.00793509
0.00784979
0.00802957
0.00848235
0.00786781
0.00727028
0.0089346
0.00840003
1.4842e-09
0.00840003
9.27317e-09
0.00840002
2.79828e-08
0.00840001
7.46703e-08
0.00839999
1.69515e-07
0.00839992
4.01239e-07
0.0083998
8.5662e-07
0.00839939
2.00578e-06
0.00839875
4.2094e-06
0.0083967
1.00812e-05
0.00839254
2.18219e-05
0.00838367
5.41399e-05
0.00836803
0.000132828
0.0083304
0.000413586
0.00828203
0.00121503
0.00814676
0.00626678
0.00799103
0.00738426
0.00788557
0.00732233
0.00784954
0.00706718
0.00788221
0.00720644
0.00799355
0.00748291
0.00820489
0.00767705
0.00851859
0.0076656
0.00895886
0.00738838
0.00685694
0.00935825
0.00840003
1.43751e-09
0.00840003
8.96603e-09
0.00840003
2.7056e-08
0.00840002
7.20438e-08
0.00840001
1.63449e-07
0.00839998
3.85381e-07
0.00839995
8.19713e-07
0.00839977
1.9116e-06
0.00839967
3.95635e-06
0.00839839
9.89375e-06
0.00840086
1.80213e-05
0.0083866
5.96549e-05
0.00840154
0.000111843
0.00833602
0.000453933
0.00832633
0.00116814
0.00864591
0.00572749
0.00850902
0.00754257
0.0083519
0.00750936
0.00827879
0.00718883
0.00834522
0.00715446
0.00850376
0.00729989
0.00873629
0.00739978
0.00900368
0.00733349
0.00929831
0.00703568
0.00651237
0.00960025
0.00840003
1.2936e-09
0.00840003
8.09548e-09
0.00840003
2.44632e-08
0.00840003
6.52754e-08
0.00840003
1.48177e-07
0.00840001
3.50363e-07
0.00840002
7.4626e-07
0.0083999
1.74741e-06
0.00839987
3.63543e-06
0.00839932
8.87442e-06
0.008398
1.79231e-05
0.00839796
5.10414e-05
0.00840217
9.95384e-05
0.00844963
0.000377316
0.00861628
0.000952097
0.00987969
0.00418892
0.00949671
0.00795289
0.00905476
0.00799988
0.00884855
0.00745577
0.00883763
0.00719878
0.00895747
0.0071757
0.00915678
0.00716199
0.0093908
0.00704705
0.00960814
0.00675238
0.00627134
0.00979535
0.00840003
1.12295e-09
0.00840003
7.03939e-09
0.00840003
2.12919e-08
0.00840003
5.683e-08
0.00840004
1.29096e-07
0.00840004
3.04789e-07
0.00840008
6.50195e-07
0.0084001
1.51347e-06
0.00840029
3.16092e-06
0.00840052
7.52755e-06
0.00840125
1.56734e-05
0.0084076
3.89547e-05
0.00841023
8.93401e-05
0.00851958
0.000244711
0.00879189
0.000661934
0.0104107
0.00244822
0.0100471
0.00823796
0.00992724
0.00809535
0.0094671
0.00796377
0.00936844
0.00735144
0.00940416
0.00714163
0.00952529
0.00701175
0.00969383
0.00683828
0.00984331
0.00653678
0.00609548
0.00995887
0.00840003
9.60706e-10
0.00840003
6.01371e-09
0.00840003
1.81721e-08
0.00840003
4.84948e-08
0.00840004
1.10134e-07
0.00840006
2.6026e-07
0.00840011
5.55501e-07
0.00840015
1.29435e-06
0.00840038
2.70666e-06
0.00840062
6.41065e-06
0.00840161
1.34547e-05
0.00840342
3.29558e-05
0.00841244
7.30104e-05
0.00844359
0.000195023
0.00851549
0.000560953
0.00898091
0.00191644
0.0100594
0.00696712
0.0100262
0.00809575
0.00994935
0.00804427
0.00978737
0.00755283
0.00977893
0.00716634
0.00986609
0.00691839
0.00998941
0.0066791
0.0100968
0.00638166
0.00596929
0.0101545
0.00840003
7.84309e-10
0.00840003
4.90918e-09
0.00840003
1.48644e-08
0.00840004
3.95785e-08
0.00840005
8.98593e-08
0.00840008
2.11437e-07
0.00840015
4.50152e-07
0.00840026
1.04509e-06
0.00840063
2.16849e-06
0.00840107
5.20889e-06
0.00840325
1.03622e-05
0.00840345
2.87958e-05
0.00842184
4.97753e-05
0.00841284
0.000187619
0.00855699
0.000389289
0.00874999
0.00167085
0.0103207
0.00518129
0.0104002
0.0080152
0.0102927
0.00816424
0.010126
0.00776522
0.0101074
0.00721132
0.010144
0.0068696
0.0102267
0.00657476
0.0103078
0.00626043
0.00587682
0.0103405
0.00840003
6.30929e-10
0.00840003
3.94538e-09
0.00840003
1.19116e-08
0.00840004
3.17571e-08
0.00840005
7.20633e-08
0.00840008
1.69948e-07
0.00840014
3.6262e-07
0.00840026
8.40698e-07
0.00840054
1.76288e-06
0.00840117
4.12204e-06
0.00840213
8.67563e-06
0.00840863
2.02249e-05
0.00840535
4.68586e-05
0.00848388
0.000102777
0.00852882
0.000297667
0.00942818
0.000781206
0.0118775
0.00247122
0.0114469
0.00838565
0.0112536
0.00835465
0.0108671
0.00816934
0.0106066
0.00752036
0.0105518
0.0069512
0.0105452
0.0065651
0.0105616
0.00620861
0.00583023
0.0105514
0.00840003
4.56048e-10
0.00840003
2.8558e-09
0.00840003
8.68199e-09
0.00840004
2.30094e-08
0.00840006
5.22067e-08
0.00840009
1.21539e-07
0.00840018
2.58166e-07
0.00840036
5.89174e-07
0.00840082
1.21995e-06
0.0084017
2.841e-06
0.00840425
5.69901e-06
0.00840789
1.45565e-05
0.00842574
2.63076e-05
0.00843378
8.53876e-05
0.00855541
0.000158719
0.00867146
0.000630058
0.00938766
0.00163375
0.0114098
0.00613005
0.0115338
0.00820746
0.0114062
0.0082777
0.0110427
0.00790439
0.0109398
0.0070778
0.010876
0.00663864
0.010846
0.00622271
0.00582285
0.0108191
0.00840003
3.38736e-10
0.00840003
2.1211e-09
0.00840003
6.42877e-09
0.00840004
1.7063e-08
0.00840005
3.86733e-08
0.00840007
9.02168e-08
0.00840013
1.9162e-07
0.00840023
4.37727e-07
0.00840047
9.10197e-07
0.00840091
2.10296e-06
0.00840195
4.32361e-06
0.00840451
1.03615e-05
0.00840786
2.10053e-05
0.00842776
5.59193e-05
0.00846271
0.000114584
0.00867926
0.000374429
0.00926761
0.000982011
0.011632
0.00346779
0.0118485
0.00793341
0.011923
0.00822025
0.0117715
0.00807813
0.0114054
0.00746808
0.011248
0.00680482
0.011149
0.00631653
0.00588453
0.0110742
0.00840003
2.43342e-10
0.00840003
1.52195e-09
0.00840003
4.61737e-09
0.00840004
1.22486e-08
0.00840004
2.77721e-08
0.00840006
6.48647e-08
0.00840011
1.37989e-07
0.00840019
3.15933e-07
0.0084004
6.58999e-07
0.0084008
1.52165e-06
0.00840175
3.1384e-06
0.00840369
7.44504e-06
0.0084081
1.5216e-05
0.00841919
3.83563e-05
0.00844862
8.12739e-05
0.00856702
0.000225431
0.00894863
0.000602388
0.0102036
0.00207502
0.0119567
0.00601247
0.0121052
0.00807094
0.0121551
0.00804298
0.011816
0.0078332
0.01167
0.00697293
0.011543
0.00644867
0.00599461
0.0114175
0.00840003
1.68798e-10
0.00840003
1.05345e-09
0.00840003
3.20576e-09
0.00840003
8.46851e-09
0.00840004
1.92686e-08
0.00840006
4.48818e-08
0.00840009
9.59329e-08
0.00840016
2.19328e-07
0.00840032
4.60899e-07
0.00840066
1.0604e-06
0.00840145
2.20859e-06
0.00840317
5.14723e-06
0.00840667
1.07636e-05
0.00841507
2.56294e-05
0.00844015
5.43472e-05
0.00850564
0.000139989
0.00874802
0.000346426
0.0096087
0.00111995
0.0122086
0.00317297
0.0125864
0.00764868
0.012623
0.00802209
0.0124917
0.00798184
0.0121005
0.00738257
0.0119038
0.00665732
0.00614418
0.0117504
0.00840003
9.40019e-11
0.00840003
7.12804e-10
0.00840003
1.90317e-09
0.00840003
5.65354e-09
0.00840004
1.1391e-08
0.00840005
2.97119e-08
0.00840009
5.53306e-08
0.00840015
1.43665e-07
0.00840033
2.55491e-07
0.00840061
6.87602e-07
0.00840155
1.16428e-06
0.0084028
3.36326e-06
0.00840792
5.11584e-06
0.00841301
1.78604e-05
0.00844092
2.21162e-05
0.00846445
0.000106464
0.00864647
0.000138951
0.00902164
0.000707689
0.0103136
0.0017746
0.0126219
0.00520689
0.0128228
0.0078017
0.0129731
0.00781533
0.0126805
0.00767589
0.0123472
0.00701164
0.00639171
0.0121039
0.00840003
7.09758e-11
0.00840003
3.93839e-10
0.00840003
1.31863e-09
0.00840003
3.20935e-09
0.00840004
7.91508e-09
0.00840005
1.68137e-08
0.00840006
3.92865e-08
0.00840012
8.03743e-08
0.00840016
1.88387e-07
0.00840045
3.7918e-07
0.00840061
9.06463e-07
0.00840205
1.80616e-06
0.00840224
4.40676e-06
0.00841071
8.85e-06
0.00840731
2.18035e-05
0.00847148
4.57614e-05
0.00847066
0.000114047
0.0088898
0.000284244
0.00980486
0.000825863
0.0124461
0.00225113
0.0132755
0.00688424
0.0132629
0.00781335
0.0132786
0.00765911
0.0128709
0.00743175
0.00668357
0.0125945
0.00840003
4.34866e-11
0.00840003
2.44314e-10
0.00840003
7.98641e-10
0.00840003
1.98059e-09
0.00840003
4.74388e-09
0.00840004
1.02684e-08
0.00840006
2.30333e-08
0.00840008
4.80905e-08
0.00840016
1.06439e-07
0.00840031
2.18613e-07
0.00840068
4.86544e-07
0.00840143
9.81146e-07
0.00840324
2.28251e-06
0.00840754
4.23959e-06
0.00841564
1.18753e-05
0.00844113
1.86237e-05
0.00847528
7.1692e-05
0.00862978
0.000113508
0.00892216
0.000512555
0.00989294
0.00117282
0.0125966
0.00398252
0.0132383
0.00712523
0.0134667
0.00742782
0.0134368
0.00747474
0.00705524
0.0130792
0.00840003
2.71342e-11
0.00840003
1.52002e-10
0.00840003
4.9623e-10
0.00840003
1.23256e-09
0.00840003
2.96732e-09
0.00840004
6.44807e-09
0.00840004
1.46401e-08
0.00840006
3.07279e-08
0.00840009
6.93824e-08
0.00840015
1.43714e-07
0.00840028
3.27682e-07
0.00840055
6.72946e-07
0.00840108
1.56044e-06
0.00840196
3.18374e-06
0.00840538
7.57091e-06
0.00840747
1.54976e-05
0.00843668
3.87148e-05
0.00845646
8.45818e-05
0.00872475
0.000232798
0.0092557
0.000604587
0.0112218
0.00198398
0.0131534
0.00510385
0.0134136
0.00711582
0.0136535
0.00721638
0.00717595
0.0135266
0.00840003
1.71617e-11
0.00840003
8.37326e-11
0.00840003
3.0392e-10
0.00840003
6.89255e-10
0.00840003
1.82223e-09
0.00840003
3.62627e-09
0.00840004
9.07925e-09
0.00840005
1.72924e-08
0.00840007
4.35287e-08
0.00840013
8.03704e-08
0.00840023
2.075e-07
0.0084005
3.71079e-07
0.00840096
9.90794e-07
0.00840231
1.71154e-06
0.00840448
4.8085e-06
0.00841165
7.77723e-06
0.0084232
2.4364e-05
0.00846712
3.66214e-05
0.00855665
0.000129948
0.00888392
0.000240859
0.0100119
0.000814834
0.012524
0.00230679
0.0137183
0.00582435
0.0137908
0.00712832
0.00694571
0.0140123
0.00840003
6.9305e-12
0.00840003
5.07324e-11
0.00840003
1.39369e-10
0.00840003
4.11215e-10
0.00840003
8.49882e-10
0.00840003
2.1934e-09
0.00840004
4.21715e-09
0.00840004
1.06854e-08
0.00840006
1.97696e-08
0.00840008
5.10555e-08
0.00840019
9.11458e-08
0.00840028
2.43668e-07
0.00840081
4.19792e-07
0.00840115
1.1698e-06
0.00840387
1.92011e-06
0.00840494
5.75867e-06
0.00841973
8.64866e-06
0.00842086
2.98192e-05
0.00850558
4.1777e-05
0.00855184
0.000163387
0.00907346
0.000303437
0.0102281
0.0010254
0.0128899
0.00291094
0.0139639
0.00598307
0.00686395
0.0140276
0.00840003
3.91357e-12
0.00840003
2.15099e-11
0.00840003
7.42572e-11
0.00840003
1.82775e-10
0.00840003
4.66066e-10
0.00840003
1.00713e-09
0.00840003
2.42233e-09
0.00840004
5.04125e-09
0.00840004
1.2053e-08
0.00840007
2.46415e-08
0.00840009
5.93522e-08
0.0084002
1.20498e-07
0.00840028
2.8904e-07
0.0084008
5.92968e-07
0.00840109
1.38447e-06
0.00840373
2.84528e-06
0.00840442
6.64214e-06
0.00841974
1.32355e-05
0.00842168
3.29041e-05
0.00851373
6.53008e-05
0.00861101
0.000177056
0.00921267
0.000423531
0.0107358
0.00130217
0.013357
0.00316002
0.00604009
0.0141057
0.00840003
1.6437e-12
0.00840003
9.31087e-12
0.00840003
3.10758e-11
0.00840003
7.85049e-11
0.00840003
1.91498e-10
0.00840003
4.23124e-10
0.00840003
9.57269e-10
0.00840003
2.03609e-09
0.00840004
4.47245e-09
0.00840005
9.33217e-09
0.00840008
2.02985e-08
0.00840015
4.09554e-08
0.00840029
9.33309e-08
0.00840062
1.72481e-07
0.00840114
4.57356e-07
0.00840265
7.67654e-07
0.00840504
2.38932e-06
0.00841117
3.95463e-06
0.0084256
1.3258e-05
0.00845183
2.22289e-05
0.0085393
7.95191e-05
0.00876041
0.000147365
0.00948395
0.000554318
0.0113181
0.00121596
0.00353711
0.0136466
0.00840003
8.00331e-13
0.00840003
4.45694e-12
0.00840003
1.49894e-11
0.00840003
3.74649e-11
0.00840003
9.3037e-11
0.00840003
2.04235e-10
0.00840003
4.78875e-10
0.00840003
1.01236e-09
0.00840003
2.36507e-09
0.00840004
4.91119e-09
0.00840004
1.16231e-08
0.00840005
2.39574e-08
0.00840007
5.71201e-08
0.0084001
1.20266e-07
0.00840019
2.7865e-07
0.00840023
6.11212e-07
0.00840086
1.33824e-06
0.00840133
2.91435e-06
0.00840631
6.53026e-06
0.00841257
1.37723e-05
0.0084507
3.4655e-05
0.00851424
7.36133e-05
0.00884075
0.000207414
0.0094972
0.000515732
0.0014837
0.011497
0.00840003
3.76998e-13
0.00840003
2.12144e-12
0.00840003
6.97848e-12
0.00840003
1.74678e-11
0.00840003
4.19796e-11
0.00840003
9.19292e-11
0.00840003
2.05434e-10
0.00840003
4.33844e-10
0.00840003
9.4643e-10
0.00840003
1.97013e-09
0.00840004
4.24547e-09
0.00840006
8.64339e-09
0.00840009
1.89357e-08
0.00840017
3.52112e-08
0.0084003
8.78052e-08
0.00840072
1.39062e-07
0.00840061
4.62508e-07
0.00840279
7.51973e-07
0.00840481
2.64976e-06
0.00840952
4.68005e-06
0.00842635
1.44448e-05
0.00846201
2.7407e-05
0.00857467
8.17017e-05
0.00887456
0.000173682
0.0005599
0.00975504
0.00840003
1.71318e-13
0.00840003
9.03428e-13
0.00840003
3.1859e-12
0.00840003
7.62167e-12
0.00840003
1.95734e-11
0.00840003
4.09386e-11
0.00840003
9.94797e-11
0.00840003
1.99809e-10
0.00840003
4.8515e-10
0.00840003
9.53773e-10
0.00840003
2.36284e-09
0.00840004
4.50163e-09
0.00840004
1.16313e-08
0.00840005
2.08948e-08
0.00840006
5.63699e-08
0.00840009
9.57782e-08
0.00840019
2.68062e-07
0.00840037
4.46652e-07
0.00840127
1.34031e-06
0.0084033
2.15861e-06
0.00840865
7.19167e-06
0.00842457
1.02834e-05
0.00845906
3.96473e-05
0.00857252
5.55192e-05
0.000218375
0.00889464
0.00840003
5.99332e-14
0.00840003
4.02967e-13
0.00840003
1.19027e-12
0.00840003
3.31261e-12
0.00840003
7.17654e-12
0.00840003
1.73652e-11
0.00840003
3.48702e-11
0.00840003
8.28364e-11
0.00840003
1.60102e-10
0.00840003
3.89455e-10
0.00840003
7.08857e-10
0.00840003
1.84971e-09
0.00840004
3.03311e-09
0.00840004
9.28708e-09
0.00840008
1.40389e-08
0.00840009
4.93913e-08
0.00840025
7.28839e-08
0.00840039
2.55262e-07
0.00840117
3.57127e-07
0.00840173
1.31276e-06
0.00840712
1.66034e-06
0.00840885
7.13538e-06
0.00844268
7.64255e-06
0.00844881
3.95387e-05
4.60797e-05
0.00863233
0.00840003
2.53381e-14
0.00840003
1.48349e-13
0.00840003
4.89432e-13
0.00840003
1.2109e-12
0.00840003
2.85482e-12
0.00840003
5.99436e-12
0.00840003
1.30903e-11
0.00840003
2.59192e-11
0.00840003
5.69029e-11
0.00840003
1.05634e-10
0.00840003
2.46504e-10
0.00840003
4.24895e-10
0.00840003
1.06545e-09
0.00840004
1.68546e-09
0.00840005
4.79384e-09
0.00840009
6.70078e-09
0.00840008
2.55186e-08
0.0084003
3.58933e-08
0.00840039
1.56336e-07
0.00840129
2.24389e-07
0.00840189
8.79394e-07
0.00840765
1.2705e-06
0.00840906
5.19497e-06
0.00844322
7.35659e-06
3.04608e-05
0.00844958
0.00840003
1.11756e-14
0.00840003
6.09806e-14
0.00840003
2.07548e-13
0.00840003
4.99385e-13
0.00840003
1.20543e-12
0.00840003
2.49009e-12
0.00840003
5.57361e-12
0.00840003
1.09631e-11
0.00840003
2.45427e-11
0.00840003
4.73297e-11
0.00840003
1.09778e-10
0.00840003
2.09113e-10
0.00840003
5.15576e-10
0.00840003
9.61869e-10
0.00840003
2.54567e-09
0.00840003
4.59163e-09
0.00840004
1.2865e-08
0.00840005
2.23401e-08
0.0084001
6.7752e-08
0.00840017
1.131e-07
0.0084006
3.62989e-07
0.00840082
5.48708e-07
0.00840494
1.84898e-06
0.00839422
2.977e-06
1.12589e-05
0.00843466
0.00840003
3.95474e-15
0.00840003
2.57601e-14
0.00840003
7.73127e-14
0.00840003
2.0719e-13
0.00840003
4.48906e-13
0.00840003
1.02113e-12
0.00840003
2.0345e-12
0.00840003
4.44581e-12
0.00840003
8.55856e-12
0.00840003
1.89367e-11
0.00840003
3.51716e-11
0.00840003
8.32064e-11
0.00840003
1.42753e-10
0.00840003
3.85155e-10
0.00840003
5.86575e-10
0.00840003
1.89224e-09
0.00840005
2.66759e-09
0.00840006
9.93508e-09
0.0084001
1.27125e-08
0.00840017
5.26584e-08
0.00840048
6.49461e-08
0.00840064
2.94723e-07
0.00840099
4.3268e-07
0.00840297
1.32734e-06
1.80777e-06
0.00840625
0.00840003
1.57253e-15
0.00840003
8.89788e-15
0.00840003
3.00648e-14
0.00840003
7.27922e-14
0.00840003
1.73502e-13
0.00840003
3.57584e-13
0.00840003
7.77841e-13
0.00840003
1.52022e-12
0.00840003
3.24102e-12
0.00840003
6.12238e-12
0.00840003
1.34371e-11
0.00840003
2.37725e-11
0.00840003
5.73407e-11
0.00840003
8.78925e-11
0.00840003
2.47252e-10
0.00840003
3.24761e-10
0.00840003
1.12196e-09
0.00840004
1.4824e-09
0.00840004
5.61242e-09
0.0084001
7.70935e-09
0.00840008
3.15525e-08
0.00840043
3.48347e-08
0.00840057
2.09325e-07
0.00840115
3.01041e-07
9.69677e-07
0.00840246
0.00840003
4.9998e-16
0.00840003
3.25299e-15
0.00840003
9.94376e-15
0.00840003
2.64136e-14
0.00840003
5.77714e-14
0.00840003
1.28805e-13
0.00840003
2.57684e-13
0.00840003
5.42347e-13
0.00840003
1.03993e-12
0.00840003
2.19072e-12
0.00840003
3.94541e-12
0.00840003
9.07458e-12
0.00840003
1.46031e-11
0.00840003
4.05227e-11
0.00840003
6.21898e-11
0.00840003
1.93006e-10
0.00840003
3.01455e-10
0.00840003
9.3523e-10
0.00840003
1.28497e-09
0.00840004
4.47069e-09
0.00840006
5.39174e-09
0.00840006
2.22472e-08
0.00840031
2.16182e-08
0.00840036
1.44038e-07
2.06268e-07
0.00840055
0.00840003
1.77267e-16
0.00840003
1.01855e-15
0.00840003
3.44576e-15
0.00840003
8.40604e-15
0.00840003
1.98635e-14
0.00840003
4.10521e-14
0.00840003
8.74151e-14
0.00840003
1.70355e-13
0.00840003
3.49467e-13
0.00840003
6.52555e-13
0.00840003
1.36332e-12
0.00840003
2.36692e-12
0.00840003
5.4263e-12
0.00840003
8.45996e-12
0.00840003
2.33868e-11
0.00840003
3.40726e-11
0.00840003
1.12397e-10
0.00840003
1.44692e-10
0.00840003
6.81798e-10
0.00840003
8.51403e-10
0.00840004
4.01857e-09
0.00840004
5.35112e-09
0.00840004
2.20284e-08
0.00840019
2.41862e-08
1.19488e-07
0.00840051
0.00840003
5.2367e-17
0.00840003
3.49276e-16
0.00840003
1.05889e-15
0.00840003
2.83584e-15
0.00840003
6.18489e-15
0.00840003
1.37098e-14
0.00840003
2.72316e-14
0.00840003
5.65634e-14
0.00840003
1.0764e-13
0.00840003
2.18719e-13
0.00840003
4.03414e-13
0.00840003
8.31059e-13
0.00840003
1.4574e-12
0.00840003
3.28898e-12
0.00840003
5.08745e-12
0.00840003
1.41889e-11
0.00840003
1.80478e-11
0.00840003
6.97778e-11
0.00840003
7.74087e-11
0.00840003
4.16599e-10
0.00840004
5.13301e-10
0.00840003
2.54506e-09
0.00840006
3.1817e-09
0.00840005
1.85458e-08
2.01152e-08
0.00840014
0.00840003
1.85941e-17
0.00840003
1.01915e-16
0.00840003
3.5616e-16
0.00840003
8.6541e-16
0.00840003
2.02637e-15
0.00840003
4.22484e-15
0.00840003
8.88344e-15
0.00840003
1.74967e-14
0.00840003
3.54328e-14
0.00840003
6.79358e-14
0.00840003
1.35179e-13
0.00840003
2.54223e-13
0.00840003
5.01349e-13
0.00840003
9.02829e-13
0.00840003
1.88601e-12
0.00840003
2.90353e-12
0.00840003
7.63521e-12
0.00840003
9.80042e-12
0.00840003
3.86508e-11
0.00840003
5.74194e-11
0.00840003
2.15201e-10
0.00840003
3.97334e-10
0.00840003
1.23265e-09
0.00840006
1.84523e-09
9.60035e-09
0.00840005
0.00840003
2.6563e-18
0.00840003
3.4315e-17
0.00840003
1.088e-16
0.00840003
2.86338e-16
0.00840003
6.53611e-16
0.00840003
1.38846e-15
0.00840003
2.92407e-15
0.00840003
5.83721e-15
0.00840003
1.19713e-14
0.00840003
2.34541e-14
0.00840003
4.80707e-14
0.00840003
9.39009e-14
0.00840003
1.9451e-13
0.00840003
3.78378e-13
0.00840003
8.00771e-13
0.00840003
1.54383e-12
0.00840003
3.4055e-12
0.00840003
6.51284e-12
0.00840003
1.57995e-11
0.00840003
2.98459e-11
0.00840003
8.787e-11
0.00840003
1.54675e-10
0.00840003
5.60309e-10
0.00840003
9.38012e-10
3.52341e-09
0.00840003
0.00840003
5.31259e-18
0.00840003
1.50704e-17
0.00840003
3.89229e-17
0.00840003
9.58977e-17
0.00840003
2.18358e-16
0.00840003
4.6431e-16
0.00840003
9.84374e-16
0.00840003
1.97989e-15
0.00840003
4.16911e-15
0.00840003
8.27149e-15
0.00840003
1.76877e-14
0.00840003
3.51634e-14
0.00840003
7.73309e-14
0.00840003
1.54579e-13
0.00840003
3.50446e-13
0.00840003
7.00788e-13
0.00840003
1.64405e-12
0.00840003
3.25732e-12
0.00840003
8.01545e-12
0.00840003
1.56233e-11
0.00840003
4.0897e-11
0.00840003
7.75435e-11
0.00840003
2.21797e-10
0.00840003
4.0749e-10
1.30438e-09
0.00840003
0.00840003
-1.0842e-19
0.00840003
2.43945e-18
0.00840003
1.26852e-17
0.00840003
2.94903e-17
0.00840003
7.35089e-17
0.00840003
1.49755e-16
0.00840003
3.31576e-16
0.00840003
6.7684e-16
0.00840003
1.46113e-15
0.00840003
2.95185e-15
0.00840003
6.48372e-15
0.00840003
1.31029e-14
0.00840003
2.96459e-14
0.00840003
6.03101e-14
0.00840003
1.4037e-13
0.00840003
2.86251e-13
0.00840003
6.82806e-13
0.00840003
1.37906e-12
0.00840003
3.39625e-12
0.00840003
6.72271e-12
0.00840003
1.73034e-11
0.00840003
3.31763e-11
0.00840003
9.10577e-11
0.00840003
1.68274e-10
4.97922e-10
0.00840003
0.00840003
-2.22261e-18
0.00840003
-3.03577e-18
0.00840003
-2.87314e-18
0.00840003
-3.30682e-18
0.00840003
8.67362e-18
0.00840003
3.70526e-17
0.00840003
1.01698e-16
0.00840003
2.21042e-16
0.00840003
5.14264e-16
0.00840003
1.01292e-15
0.00840003
2.38481e-15
0.00840003
4.61111e-15
0.00840003
1.12385e-14
0.00840003
2.16076e-14
0.00840003
5.45303e-14
0.00840003
1.03922e-13
0.00840003
2.71261e-13
0.00840003
5.03829e-13
0.00840003
1.37763e-12
0.00840003
2.4463e-12
0.00840003
7.14519e-12
0.00840003
1.18294e-11
0.00840003
3.78969e-11
0.00840003
5.77595e-11
2.03734e-10
0.00840003
0.00840003
2.71051e-19
0.00840003
-3.25261e-19
0.00840003
-1.89735e-18
0.00840003
3.79471e-19
0.00840003
1.51788e-18
0.00840003
8.53809e-18
0.00840003
2.63461e-17
0.00840003
6.46184e-17
0.00840003
1.3913e-16
0.00840003
3.29652e-16
0.00840003
6.27753e-16
0.00840003
1.53534e-15
0.00840003
2.8424e-15
0.00840003
7.24892e-15
0.00840003
1.32114e-14
0.00840003
3.49857e-14
0.00840003
6.19688e-14
0.00840003
1.71875e-13
0.00840003
2.87992e-13
0.00840003
8.61673e-13
0.00840003
1.30463e-12
0.00840003
4.44553e-12
0.00840003
5.82184e-12
0.00840003
2.3478e-11
2.83681e-11
0.00840003
0.00840003
0.00840003
0.00840003
0.00840003
0.00840003
0.00840003
0.00840003
0.00840003
0.00840003
0.00840003
0.00840003
0.00840003
0.00840003
0.00840003
0.00840003
0.00840003
0.00840003
0.00840003
0.00840003
0.00840003
0.00840003
0.00840003
0.00840003
0.00840003
0.00840003
0.00543104
0.00371863
0.0037791
0.00163654
0.00288076
0.000888976
0.00234302
0.000530828
0.00202157
0.000316854
0.00183789
0.000181565
0.00174057
9.57961e-05
0.00171724
2.29395e-05
0.00175721
-4.02663e-05
0.0019794
-0.000217829
0.00213339
-0.000151346
0.00223285
-9.845e-05
0.00227746
-4.54649e-05
0.0022917
-1.47298e-05
0.00228949
1.17801e-06
0.00228508
2.7589e-06
0.00228797
-5.4171e-06
0.00229798
-1.34966e-05
0.00231355
-1.98744e-05
0.00233334
-2.49874e-05
0.00235317
-2.57278e-05
0.00237085
-2.41889e-05
0.00238629
-2.24122e-05
0.00240078
-2.13187e-05
0.00241419
-2.02447e-05
0.00242641
-1.91188e-05
0.00243768
-1.82189e-05
0.00244857
-1.77289e-05
0.00245895
-1.73642e-05
0.00246871
-1.70288e-05
0.00247757
-1.67184e-05
0.00248516
-1.64308e-05
0.00249154
-1.6078e-05
0.00249683
-1.5665e-05
0.00250094
-1.52198e-05
0.00250362
-1.47015e-05
0.00250464
-1.41221e-05
0.00250388
-1.35278e-05
0.00250146
-1.29227e-05
0.00249763
-1.23101e-05
0.00249266
-1.17179e-05
0.00248681
-1.11521e-05
0.00248016
-1.06266e-05
0.00247263
-1.01965e-05
0.00246457
-9.78692e-06
0.00245647
-9.33321e-06
0.0024483
-8.99369e-06
0.00243995
-8.7807e-06
0.0024315
-8.56512e-06
0.00242325
-8.34929e-06
0.00241556
-8.18191e-06
0.00240874
-8.0513e-06
0.0024031
-7.94099e-06
0.00239892
-7.84089e-06
0.00239637
-7.74138e-06
0.00239553
-7.62392e-06
0.00239628
-7.48026e-06
0.0023983
-7.32041e-06
0.00240116
-7.13912e-06
0.00240423
-6.91939e-06
0.00240703
-6.65802e-06
0.00240939
-6.3689e-06
0.00241113
-6.06089e-06
0.00241223
-5.73325e-06
0.00241298
-5.37518e-06
0.00241356