/*--------------------------------*- C++ -*----------------------------------*\
  =========                 |
  \\      /  F ield         | OpenFOAM: The Open Source CFD Toolbox
   \\    /   O peration     | Website:  https://openfoam.org
    \\  /    A nd           | Version:  6
     \\/     M anipulation  |
\*---------------------------------------------------------------------------*/
FoamFile
{
    version     2.0;
    format      ascii;
    class       volScalarField;
    location    "1";
    object      T;
}
// * * * * * * * * * * * * * * * * * * * * * * * * * * * * * * * * * * * * * //

dimensions      [0 0 0 1 0 0 0];

internalField   nonuniform List<scalar> 
5250
(
1.00001
1.00003
1.0001
1.00019
1.00057
1.00108
1.00323
1.00635
1.01775
1.04114
1.0983
1.28425
1.72223
2.66079
3.07148
2.78772
2.78451
2.747
2.75728
2.78425
2.84874
2.88705
2.89411
2.91274
3.14622
1.00001
1.00003
1.0001
1.00019
1.00056
1.00107
1.00319
1.00627
1.01754
1.04059
1.09691
1.28079
1.70914
2.65305
3.06948
2.783
2.78359
2.74639
2.75683
2.78311
2.84641
2.88456
2.89146
2.90745
3.1347
1.00001
1.00003
1.00009
1.00018
1.00055
1.00104
1.00311
1.0061
1.01708
1.03939
1.09407
1.27275
1.68124
2.63132
3.06237
2.77856
2.78399
2.74608
2.75653
2.78179
2.84396
2.88237
2.88936
2.90306
3.11766
1.00001
1.00003
1.00009
1.00018
1.00053
1.001
1.00299
1.00584
1.01641
1.03751
1.08987
1.25922
1.6428
2.58773
3.04534
2.77501
2.78657
2.74576
2.75514
2.77827
2.83893
2.8781
2.88429
2.8968
3.11019
1.00001
1.00003
1.00009
1.00017
1.00051
1.00096
1.00284
1.00551
1.01554
1.03504
1.08439
1.24073
1.59463
2.51272
3.01918
2.77915
2.78861
2.7433
2.75118
2.77215
2.83043
2.86803
2.87606
2.88615
3.09097
1.00001
1.00003
1.00008
1.00016
1.00048
1.0009
1.00268
1.00514
1.01453
1.03217
1.07791
1.2183
1.5357
2.39699
2.98515
2.77816
2.79467
2.74198
2.74736
2.76532
2.81861
2.85906
2.86342
2.87252
3.0744
1.00001
1.00003
1.00008
1.00016
1.00045
1.00085
1.00251
1.00478
1.01351
1.02922
1.0711
1.19436
1.47099
2.24581
2.9287
2.77545
2.80324
2.74104
2.74185
2.75405
2.80167
2.83805
2.84729
2.84927
3.03691
1.00001
1.00002
1.00008
1.00015
1.00043
1.00081
1.00238
1.00447
1.01269
1.0267
1.06545
1.17312
1.41142
2.07884
2.84499
2.77051
2.79627
2.73909
2.73388
2.74386
2.78128
2.81931
2.81899
2.82327
2.99991
1.00001
1.00002
1.00007
1.00014
1.00041
1.00076
1.00224
1.0042
1.01196
1.02479
1.06139
1.15814
1.37524
1.95617
2.7955
2.77978
2.78069
2.73218
2.72169
2.7279
2.7623
2.79041
2.79142
2.77188
2.90991
1.00001
1.00002
1.00007
1.00013
1.00038
1.00071
1.0021
1.00391
1.01125
1.02293
1.05759
1.14598
1.34468
1.86119
2.77659
2.78
2.76381
2.70938
2.69938
2.7025
2.72748
2.74843
2.74139
2.71113
2.79543
1.00001
1.00002
1.00006
1.00012
1.00035
1.00066
1.00196
1.00362
1.01051
1.02108
1.05389
1.13422
1.31603
1.80974
2.73724
2.76827
2.74614
2.69229
2.6737
2.67228
2.68217
2.69871
2.6847
2.58615
2.56044
1.00001
1.00002
1.00006
1.00011
1.00032
1.0006
1.00179
1.0033
1.00965
1.01911
1.04966
1.12196
1.2861
1.75245
2.66614
2.75192
2.71377
2.67694
2.65291
2.64235
2.64155
2.6376
2.61624
2.5054
2.4022
1.00001
1.00002
1.00005
1.0001
1.00029
1.00054
1.0016
1.00294
1.00868
1.01699
1.04491
1.1084
1.25377
1.68502
2.57489
2.71913
2.68192
2.66384
2.62405
2.60777
2.60105
2.58799
2.5606
2.48364
2.35319
1.00001
1.00001
1.00004
1.00009
1.00025
1.00046
1.00139
1.00254
1.00756
1.01465
1.03913
1.09435
1.21614
1.61049
2.44384
2.67242
2.67318
2.6514
2.60383
2.57298
2.55784
2.54099
2.5143
2.46466
2.35649
1
1.00001
1.00004
1.00007
1.00021
1.00039
1.00116
1.00212
1.00629
1.01228
1.03186
1.08063
1.17551
1.53139
2.28882
2.59504
2.64986
2.63053
2.59284
2.54903
2.52332
2.50081
2.47241
2.44078
2.37584
1
1.00001
1.00003
1.00006
1.00017
1.00032
1.00094
1.00172
1.00515
1.00979
1.027
1.06142
1.14319
1.40181
2.03046
2.51805
2.63123
2.60482
2.57403
2.52863
2.4968
2.47119
2.44027
2.40689
2.36796
1
1.00001
1.00002
1.00005
1.00013
1.00025
1.00075
1.00136
1.00408
1.0076
1.02169
1.04542
1.11557
1.28295
1.80352
2.3589
2.5815
2.56694
2.54427
2.49822
2.46279
2.44375
2.41394
2.38528
2.35483
1
1.00001
1.00002
1.00004
1.0001
1.00019
1.00058
1.00104
1.00316
1.0058
1.01674
1.03502
1.08628
1.22535
1.56235
2.24204
2.5337
2.54025
2.51897
2.48265
2.44017
2.41136
2.38349
2.35472
2.32795
1
1
1.00001
1.00003
1.00008
1.00014
1.00043
1.00077
1.00233
1.00429
1.01222
1.02577
1.06376
1.17357
1.39284
2.0055
2.41631
2.50691
2.49678
2.47213
2.42475
2.39164
2.36871
2.33484
2.31005
1
1
1.00001
1.00002
1.00006
1.0001
1.00031
1.00056
1.00169
1.00304
1.00912
1.01735
1.04761
1.10544
1.27084
1.6252
2.25747
2.4318
2.44712
2.43985
2.41572
2.37151
2.3414
2.31853
2.28932
1
1
1.00001
1.00001
1.00004
1.00007
1.00021
1.00038
1.00115
1.00207
1.00607
1.01185
1.03096
1.0779
1.17323
1.50298
2.13818
2.37173
2.4045
2.39809
2.38674
2.35923
2.3257
2.29676
2.27134
1
1
1
1.00001
1.00003
1.00005
1.00015
1.00026
1.00081
1.00142
1.0044
1.00795
1.02292
1.04926
1.11941
1.31617
1.82602
2.25932
2.37898
2.37352
2.35299
2.33332
2.30441
2.28179
2.25778
1
1
1
1.00001
1.00002
1.00003
1.0001
1.00018
1.00054
1.00094
1.00293
1.0052
1.01543
1.03104
1.0799
1.19346
1.51285
2.02622
2.31522
2.34452
2.33498
2.31147
2.27982
2.25108
2.22987
1
1
1
1
1.00001
1.00002
1.00006
1.00011
1.00034
1.0006
1.00187
1.00325
1.00984
1.01906
1.0504
1.12275
1.29161
1.70749
2.14567
2.28653
2.30208
2.29274
2.27144
2.24225
2.21645
1
1
1
1
1.00001
1.00001
1.00004
1.00007
1.0002
1.00035
1.00108
1.00191
1.00553
1.01107
1.02893
1.07398
1.16787
1.46643
2.00656
2.20766
2.23922
2.24674
2.2397
2.22439
2.20266
1
1
1
1
1
1.00001
1.00002
1.00005
1.00009
1.00028
1.0005
1.00153
1.00271
1.0081
1.01585
1.04169
1.09839
1.23796
1.58137
2.03518
2.21085
2.2144
2.21016
2.19369
2.17435
1
1
1
1
1
1.00001
1.00001
1.00003
1.00005
1.00016
1.00028
1.00084
1.0015
1.00415
1.00877
1.0215
1.05946
1.13012
1.38979
1.85788
2.13236
2.1926
2.19041
2.1716
2.15366
1
1
1
1
1
1
1.00001
1.00002
1.00003
1.0001
1.00017
1.00055
1.00091
1.00302
1.005
1.01594
1.02964
1.08274
1.17995
1.53154
1.88968
2.11699
2.15438
2.15352
2.14096
1
1
1
1
1
1
1
1.00001
1.00002
1.00005
1.00009
1.00029
1.00049
1.00159
1.00263
1.00834
1.01495
1.04299
1.09074
1.24129
1.50816
1.93571
2.10517
2.11487
2.11334
1
1
1
1
1
1
1
1
1.00001
1.00002
1.00006
1.00011
1.00034
1.00058
1.00185
1.00317
1.00978
1.01862
1.05275
1.11346
1.32134
1.59969
1.97944
2.08772
2.08853
1
1
1
1
1
1
1
1
1
1.00001
1.00002
1.00007
1.00012
1.00041
1.00067
1.00222
1.00376
1.01194
1.0224
1.06523
1.13625
1.4072
1.68469
1.9819
2.05582
1
1
1
1
1
1
1
1
1
1
1.00001
1.00002
1.00005
1.00012
1.00025
1.00073
1.00145
1.00464
1.00921
1.02766
1.06399
1.16323
1.39457
1.79745
1.97547
1
1
1
1
1
1
1
1
1
1
1
1.00002
1.00002
1.00009
1.00014
1.0005
1.00076
1.00278
1.00442
1.01493
1.02722
1.07858
1.16709
1.48199
1.73659
1
1
1
1
1
1
1
1
1
1
1
1
1.00001
1.00002
1.00005
1.00009
1.00031
1.00086
1.00159
1.00609
1.01032
1.03335
1.06735
1.18255
1.3923
1
1
1
1
1
1
1
1
1
1
1
1
1
1.00002
1.00002
1.00009
1.00013
1.0005
1.00076
1.00271
1.00444
1.01448
1.02765
1.07877
1.16902
1
1
1
1
1
1
1
1
1
1
1
1
1
1
1.00001
1.00002
1.00006
1.00011
1.00036
1.00066
1.00194
1.00422
1.01152
1.02814
1.07243
1
1
1
1
1
1
1
1
1
1
1
1
1
1
1
1
1.00002
1.00004
1.00009
1.00027
1.00058
1.00159
1.00394
1.01067
1.02644
1
1
1
1
1
1
1
1
1
1
1
1
1
1
1
1
1.00001
1.00002
1.00003
1.00013
1.0002
1.00067
1.00122
1.00455
1.0087
1
1
1
1
1
1
1
1
1
1
1
1
1
1
1
1
1
1
1.00001
1.00003
1.00005
1.00021
1.00029
1.00173
1.00098
1
1
1
1
1
1
1
1
1
1
1
1
1
1
1
1
1
1
1
1
1.00003
1.00003
1.00018
1.00021
1.00149
1
1
1
1
1
1
1
1
1
1
1
1
1
1
1
1
1
1
1
1
1
1.00002
1.00002
1.00014
1.00016
1
1
1
1
1
1
1
1
1
1
1
1
1
1
1
1
1
1
1
1
1
1.00001
1.00001
1.00004
1.00009
1
1
1
1
1
1
1
1
1
1
1
1
1
1
1
1
1
1
1
1
1
1
1
1.00001
1.00005
1
1
1
1
1
1
1
1
1
1
1
1
1
1
1
1
1
1
1
1
1
1
1
1
1.00001
1
1
1
1
1
1
1
1
1
1
1
1
1
1
1
1
1
1
1
1
1
1
1
1
1
1
1
1
1
1
1
1
1
1
1
1
1
1
1
1
1
1
1
1
1
1
1
1
1
1
1
1
1
1
1
1
1
1
1
1
1
1
1
1
1
1
1
1
1
1
1
1
1
1
1
1
1
1
1
1
1
1
1
1
1
1
1
1
1
1
1
1
1
1
1
1
1
1
1
1
1
1
1
1
1
1
1
1
1
1
1
1
1
1
1
1
1
1
1
1
1
1
1
1
1
1
1
1
1
1
1
1
1
1
1
1
1
1
1
1
1
1
1
1
1
1
1
1
1
1
2.46145
2.29317
2.18515
2.11468
2.11069
2.13789
2.22457
2.28297
2.40718
2.49543
2.57343
2.59906
2.60421
2.59615
2.59158
2.58638
2.58311
2.58173
2.5814
2.58168
2.58264
2.58323
2.58394
2.584
2.58405
2.58404
2.58394
2.58364
2.58308
2.58275
2.58278
2.58319
2.58438
2.58624
2.58826
2.5904
2.59281
2.59561
2.59868
2.60168
2.60427
2.60624
2.60751
2.60802
2.60797
2.60741
2.60585
2.60369
2.60131
2.59866
2.59557
2.59188
2.58745
2.582
2.57546
2.56767
2.5587
2.54894
2.5388
2.52883
2.51974
2.51186
2.50526
2.50014
2.49614
2.49277
2.48983
2.48727
2.48487
2.48241
2.4797
2.47667
2.47319
2.4688
2.46378
2.45862
2.45354
2.44876
2.44298
2.43748
2.43261
2.42587
2.41803
2.4083
2.3975
2.3888
2.38349
2.38183
2.38234
2.38522
2.39366
2.40352
2.41157
2.41378
2.41376
2.40307
2.38346
2.30981
2.26099
2.08985
2.32013
2.21796
2.15504
2.11533
2.10967
2.11315
2.12872
2.12274
2.10456
2.08019
2.07312
2.07512
2.08686
2.09714
2.11507
2.12043
2.12683
2.12566
2.12359
2.12231
2.1214
2.12122
2.12135
2.12171
2.12201
2.12197
2.12172
2.12105
2.11986
2.11852
2.1172
2.11605
2.11522
2.11476
2.11465
2.11472
2.11503
2.11579
2.11707
2.11877
2.1208
2.12293
2.12481
2.12623
2.1272
2.12763
2.12761
2.1272
2.12599
2.12389
2.12166
2.11932
2.11695
2.11462
2.11223
2.10976
2.10716
2.10431
2.1013
2.09782
2.09369
2.08917
2.08421
2.0788
2.0736
2.06886
2.06459
2.06119
2.05874
2.05683
2.05528
2.05424
2.05334
2.05243
2.05162
2.05128
2.05057
2.04884
2.04708
2.04476
2.04342
2.04318
2.04291
2.04174
2.03818
2.03277
2.02748
2.02177
2.01632
2.01091
2.00798
2.00771
2.00961
2.01512
2.02362
2.02802
2.03239
2.03146
2.0322
1.9975
2.27712
2.20338
2.14577
2.09548
2.05477
2.01035
1.96063
1.91921
1.88199
1.85621
1.8423
1.84401
1.84935
1.85847
1.87754
1.88952
1.90308
1.90736
1.91286
1.91434
1.91422
1.91395
1.9135
1.91251
1.91097
1.9093
1.90759
1.9061
1.90507
1.90455
1.90445
1.9046
1.90522
1.9065
1.90793
1.90938
1.91084
1.91241
1.91405
1.91555
1.91676
1.91766
1.91822
1.91839
1.91833
1.91797
1.91703
1.91575
1.91437
1.91294
1.91162
1.91053
1.90972
1.90923
1.90907
1.9091
1.90927
1.90972
1.91038
1.91092
1.91112
1.91101
1.91038
1.90874
1.90616
1.9031
1.89978
1.89646
1.89337
1.89066
1.88848
1.88685
1.88555
1.88459
1.88427
1.88431
1.88438
1.88447
1.88493
1.88473
1.88473
1.88529
1.88641
1.88679
1.8866
1.88596
1.88537
1.8842
1.88181
1.8783
1.87516
1.87313
1.87271
1.873
1.87477
1.87784
1.88234
1.88227
1.88384
1.86369
2.26735
2.19195
2.12588
2.06706
2.01042
1.96015
1.912
1.87001
1.83372
1.8058
1.78565
1.77194
1.76154
1.75938
1.75845
1.76088
1.76653
1.77237
1.77814
1.78239
1.78366
1.78438
1.78215
1.7788
1.77553
1.77235
1.76896
1.76663
1.76577
1.76579
1.76626
1.76766
1.77011
1.77291
1.77592
1.77906
1.78213
1.78488
1.78708
1.78858
1.78926
1.78932
1.78903
1.78806
1.78637
1.78483
1.78365
1.78305
1.78302
1.78332
1.78438
1.78664
1.78954
1.79272
1.79607
1.79948
1.80285
1.80609
1.80908
1.81163
1.81361
1.81474
1.81497
1.81471
1.81364
1.81116
1.8081
1.80508
1.80234
1.79986
1.79774
1.79606
1.79464
1.79358
1.79311
1.79309
1.79317
1.79321
1.79349
1.79311
1.79278
1.79299
1.79361
1.79385
1.79371
1.79356
1.79391
1.79469
1.79494
1.79477
1.79405
1.79312
1.79268
1.79164
1.79074
1.78938
1.78909
1.78559
1.78357
1.75288
2.28101
2.19945
2.12935
2.06836
2.01218
1.96086
1.91449
1.87032
1.83217
1.7947
1.76336
1.73338
1.70983
1.69132
1.67778
1.67055
1.66731
1.6678
1.66987
1.67184
1.67609
1.67824
1.67963
1.68286
1.68237
1.68242
1.68269
1.6834
1.68397
1.68428
1.68453
1.68473
1.68493
1.68513
1.68533
1.68545
1.68546
1.68538
1.68509
1.68436
1.68298
1.68126
1.67945
1.67779
1.67653
1.67592
1.6759
1.67626
1.6775
1.68022
1.68383
1.68794
1.69246
1.69733
1.70247
1.70776
1.71302
1.71802
1.72252
1.72632
1.72925
1.73118
1.73216
1.73244
1.73238
1.732
1.73118
1.73052
1.73014
1.7297
1.72933
1.72934
1.72947
1.72977
1.73021
1.73115
1.73275
1.73368
1.73469
1.73505
1.73518
1.73579
1.73666
1.73695
1.73685
1.73682
1.73735
1.73882
1.7405
1.74127
1.74145
1.74115
1.74045
1.73843
1.73709
1.73366
1.73096
1.72048
1.71335
1.67189
2.30501
2.22544
2.14745
2.08015
2.02194
1.96861
1.92135
1.87654
1.83606
1.79813
1.76379
1.73278
1.70461
1.67984
1.65806
1.64152
1.62793
1.6188
1.61293
1.61098
1.61039
1.61147
1.61365
1.6162
1.61916
1.62457
1.62577
1.62769
1.62871
1.63051
1.63114
1.631
1.63062
1.62985
1.62867
1.62722
1.62557
1.62367
1.62144
1.61893
1.61636
1.61396
1.61195
1.61052
1.60989
1.60989
1.61021
1.61125
1.61339
1.61613
1.61927
1.6228
1.62675
1.63109
1.63577
1.64061
1.64537
1.64976
1.65359
1.65671
1.65903
1.66062
1.66155
1.66219
1.66281
1.66346
1.66412
1.66475
1.66545
1.66629
1.66713
1.66806
1.66911
1.67041
1.67195
1.67408
1.67721
1.67982
1.68147
1.68249
1.68299
1.68404
1.68521
1.68562
1.68557
1.68561
1.6862
1.68776
1.68962
1.69053
1.69094
1.69086
1.6906
1.68911
1.68727
1.68136
1.6761
1.65944
1.64909
1.6036
2.31011
2.25333
2.18659
2.11529
2.04914
1.98927
1.93711
1.89032
1.84734
1.80807
1.77162
1.73838
1.70749
1.68012
1.65396
1.63185
1.61078
1.59499
1.58095
1.57185
1.56473
1.5615
1.56158
1.56228
1.56409
1.56783
1.57149
1.5755
1.57907
1.58152
1.58336
1.58489
1.58498
1.58459
1.58357
1.58181
1.57961
1.5772
1.57469
1.57214
1.56968
1.56747
1.56573
1.56468
1.56436
1.56442
1.56484
1.56601
1.56821
1.57089
1.57398
1.57744
1.58122
1.58524
1.58935
1.59331
1.59695
1.60001
1.60248
1.60433
1.60559
1.60644
1.60716
1.60792
1.60877
1.60964
1.61048
1.61145
1.6126
1.61376
1.61484
1.61611
1.6179
1.62033
1.62338
1.62708
1.63162
1.63594
1.63827
1.63973
1.64157
1.64231
1.64351
1.64441
1.64448
1.64475
1.64556
1.64734
1.64964
1.6509
1.65176
1.65175
1.65145
1.64905
1.64595
1.63682
1.62941
1.60838
1.59615
1.54812
2.30043
2.26055
2.21203
2.15352
2.09127
2.03052
1.97276
1.92051
1.87322
1.83029
1.7909
1.75503
1.72158
1.69079
1.66231
1.63645
1.61276
1.59172
1.57285
1.55742
1.54494
1.53693
1.53084
1.52928
1.53
1.53207
1.53471
1.53802
1.54202
1.5453
1.54807
1.54972
1.5499
1.54968
1.54887
1.54706
1.54415
1.54085
1.53742
1.53412
1.53111
1.52861
1.52696
1.5263
1.52629
1.52659
1.52751
1.52938
1.53173
1.53446
1.53756
1.54096
1.54457
1.54821
1.55162
1.55457
1.55689
1.55854
1.55961
1.56021
1.56049
1.56067
1.56088
1.56115
1.56161
1.56239
1.56341
1.56462
1.56593
1.56744
1.56928
1.57187
1.5754
1.57984
1.58469
1.58995
1.59557
1.60048
1.60353
1.60505
1.60663
1.60846
1.60951
1.61055
1.61168
1.61264
1.61456
1.61693
1.62009
1.62209
1.62379
1.62381
1.62317
1.61875
1.61378
1.60048
1.59075
1.56547
1.55219
1.50179
2.28366
2.25485
2.22042
2.17826
2.12771
2.07239
2.01643
1.96194
1.91149
1.86456
1.82195
1.78251
1.74656
1.71317
1.68215
1.65344
1.62689
1.60297
1.58173
1.56361
1.54814
1.53606
1.52731
1.52144
1.51819
1.51732
1.51789
1.51939
1.52111
1.522
1.52287
1.5233
1.52318
1.52254
1.52088
1.51851
1.51577
1.51253
1.50863
1.50481
1.50147
1.49898
1.49779
1.4977
1.49805
1.49916
1.50128
1.50373
1.50642
1.50926
1.5122
1.51519
1.51807
1.5206
1.52259
1.52396
1.52467
1.52481
1.52471
1.5243
1.52347
1.52292
1.52283
1.52292
1.52327
1.52413
1.5253
1.52663
1.52823
1.5303
1.53317
1.53705
1.54202
1.54782
1.55373
1.55978
1.56578
1.57084
1.57384
1.5759
1.5779
1.58028
1.5834
1.58617
1.59034
1.59461
1.60032
1.60565
1.61207
1.61644
1.62024
1.62036
1.61936
1.61264
1.60539
1.58722
1.57458
1.54376
1.52885
1.47004
2.27079
2.24793
2.21905
2.18828
2.15178
2.1076
2.05858
2.00742
1.95692
1.90869
1.863
1.82054
1.78105
1.74453
1.71125
1.68046
1.65296
1.62806
1.6058
1.5866
1.56976
1.55554
1.54376
1.53391
1.52621
1.52012
1.51561
1.51212
1.50941
1.50807
1.5068
1.50522
1.50344
1.50192
1.49971
1.49694
1.49396
1.49146
1.48916
1.48669
1.48431
1.48276
1.48244
1.48271
1.48373
1.48564
1.48771
1.48993
1.49223
1.49451
1.49664
1.49851
1.50002
1.50096
1.50121
1.5011
1.50057
1.4992
1.49726
1.49533
1.49356
1.49237
1.49197
1.492
1.49224
1.49289
1.49402
1.49556
1.49778
1.50091
1.50495
1.50999
1.5159
1.5224
1.52834
1.53441
1.5403
1.54576
1.54937
1.55289
1.55801
1.56496
1.57487
1.58482
1.59728
1.60951
1.62474
1.63646
1.64995
1.65868
1.66429
1.66414
1.66229
1.65084
1.63937
1.61312
1.59586
1.55645
1.53824
1.46461
2.2445
2.23223
2.21388
2.18885
2.1606
2.1287
2.0898
2.04561
1.99803
1.9504
1.90375
1.85951
1.8181
1.77974
1.74469
1.71267
1.684
1.65803
1.63519
1.61451
1.59632
1.58009
1.56522
1.55227
1.54018
1.52929
1.51992
1.51157
1.50439
1.49862
1.49368
1.48966
1.48637
1.48344
1.48064
1.47773
1.47561
1.47472
1.47416
1.47398
1.4741
1.47469
1.47576
1.47717
1.47852
1.47986
1.48126
1.48259
1.4837
1.48451
1.48498
1.48509
1.485
1.48455
1.48331
1.48091
1.478
1.47475
1.47152
1.46864
1.46632
1.46489
1.46438
1.46439
1.46459
1.46524
1.46666
1.46894
1.47213
1.47632
1.48132
1.4871
1.49347
1.50006
1.50636
1.51306
1.51966
1.52729
1.5357
1.5476
1.56451
1.58367
1.60951
1.63624
1.66746
1.69588
1.72307
1.74055
1.75273
1.75426
1.7519
1.74329
1.73374
1.71243
1.69747
1.66435
1.64503
1.59783
1.58412
1.49237
2.23287
2.20639
2.19214
2.17832
2.15763
2.13107
2.10111
2.06637
2.02598
1.98242
1.93769
1.89381
1.85191
1.81288
1.77694
1.74411
1.71438
1.68733
1.66297
1.64066
1.62048
1.60184
1.58462
1.56884
1.55377
1.54031
1.52739
1.51594
1.50577
1.49653
1.48905
1.48255
1.47685
1.4727
1.46955
1.46666
1.46465
1.46437
1.46464
1.46547
1.46697
1.46877
1.47087
1.47248
1.4735
1.47448
1.47498
1.47501
1.4749
1.47454
1.47377
1.47257
1.4708
1.46833
1.46509
1.46121
1.45696
1.45265
1.44877
1.44572
1.44366
1.44267
1.44251
1.44268
1.44334
1.44497
1.4475
1.4507
1.4547
1.4595
1.46479
1.47076
1.4779
1.48532
1.493
1.50409
1.51863
1.53969
1.56541
1.59817
1.64146
1.68916
1.73021
1.75573
1.77223
1.77547
1.77424
1.76817
1.76003
1.74629
1.73726
1.71671
1.70525
1.67953
1.66375
1.62864
1.61266
1.57103
1.56138
1.48424
2.20838
2.18705
2.16476
2.15202
2.13909
2.12261
2.09839
2.06935
2.03648
1.99914
1.95893
1.91788
1.87728
1.83845
1.80188
1.76802
1.73675
1.70821
1.6821
1.65837
1.63669
1.61698
1.59875
1.58212
1.56655
1.55223
1.53891
1.52657
1.51531
1.50473
1.49545
1.4867
1.47925
1.47264
1.46698
1.46296
1.46009
1.4579
1.45739
1.45765
1.45836
1.45985
1.46179
1.46325
1.46444
1.46571
1.46598
1.46578
1.46522
1.46403
1.46229
1.45985
1.45658
1.45247
1.44769
1.44253
1.43737
1.4327
1.42899
1.42655
1.4254
1.42524
1.42549
1.4264
1.42841
1.43108
1.43425
1.43785
1.44222
1.44787
1.45425
1.46203
1.47234
1.48628
1.509
1.53844
1.57818
1.63033
1.68824
1.7281
1.75074
1.75689
1.7576
1.75583
1.75323
1.74799
1.74277
1.73062
1.72229
1.70328
1.69236
1.66939
1.65676
1.6288
1.61323
1.57891
1.56262
1.52494
1.51041
1.45617
2.19326
2.17131
2.14957
2.12567
2.11328
2.10136
2.08569
2.06421
2.03699
2.006
1.97125
1.93419
1.89638
1.85877
1.82246
1.78793
1.75566
1.72583
1.6985
1.67367
1.65115
1.63088
1.61255
1.59598
1.581
1.56729
1.55467
1.54291
1.53175
1.5209
1.5105
1.50024
1.49045
1.48142
1.47304
1.46605
1.46005
1.4555
1.45265
1.45051
1.44945
1.4495
1.44987
1.45076
1.4516
1.45287
1.4536
1.45349
1.45299
1.45185
1.44977
1.44665
1.44249
1.43753
1.4321
1.42666
1.42168
1.4176
1.41483
1.41357
1.41342
1.4137
1.41468
1.41679
1.41938
1.42242
1.42591
1.43131
1.43761
1.44579
1.45833
1.47846
1.50913
1.55089
1.6079
1.67153
1.71579
1.73081
1.73216
1.73115
1.73017
1.72729
1.72488
1.719
1.71386
1.70245
1.69534
1.67823
1.66826
1.64733
1.63598
1.61191
1.59939
1.57215
1.55742
1.52571
1.51023
1.47751
1.46365
1.42163
2.18287
2.16335
2.14315
2.12152
2.09757
2.0829
2.07159
2.05614
2.03453
2.00865
1.9794
1.94684
1.91242
1.87712
1.84217
1.80814
1.77568
1.74506
1.71677
1.69074
1.66735
1.64636
1.62788
1.61157
1.59714
1.58427
1.5725
1.56132
1.55059
1.53971
1.52879
1.51766
1.50644
1.49538
1.48474
1.4748
1.46585
1.45804
1.45149
1.44609
1.44207
1.43935
1.43721
1.43619
1.43618
1.43635
1.43694
1.4372
1.437
1.43632
1.43481
1.43196
1.428
1.4233
1.41836
1.41364
1.40952
1.40634
1.40459
1.40423
1.40441
1.40515
1.40684
1.40937
1.41268
1.41775
1.42439
1.4341
1.44895
1.47849
1.51863
1.57555
1.64585
1.70129
1.71926
1.71752
1.71458
1.71056
1.7066
1.70062
1.69553
1.68696
1.68213
1.671
1.66455
1.64981
1.64077
1.62165
1.61142
1.59005
1.57893
1.55603
1.54442
1.51929
1.50583
1.4775
1.46346
1.43448
1.42249
1.38799
2.1565
2.14472
2.13156
2.11519
2.09528
2.07601
2.05963
2.04552
2.02848
2.00703
1.98237
1.95455
1.92407
1.89185
1.85883
1.82621
1.79462
1.76455
1.73643
1.71039
1.68676
1.66549
1.64673
1.63028
1.61586
1.6031
1.59135
1.58029
1.56922
1.55804
1.54641
1.53426
1.52189
1.50918
1.49661
1.48431
1.47258
1.46155
1.45171
1.44294
1.43544
1.42949
1.42484
1.42167
1.41978
1.41877
1.41868
1.41885
1.41887
1.41862
1.41782
1.41598
1.41306
1.40964
1.40611
1.40278
1.39987
1.39765
1.3966
1.39658
1.39696
1.39816
1.4012
1.40607
1.41299
1.42476
1.44436
1.48173
1.53288
1.6086
1.6788
1.71511
1.71366
1.70901
1.70361
1.69473
1.68661
1.67733
1.67024
1.66042
1.65458
1.64274
1.63574
1.62101
1.61198
1.59449
1.58398
1.56423
1.55427
1.53398
1.52369
1.50243
1.49185
1.46943
1.45771
1.4331
1.42075
1.39503
1.38472
1.3566
2.13145
2.11272
2.09928
2.08905
2.08081
2.06718
2.05174
2.03749
2.02362
2.0054
1.98304
1.95872
1.93185
1.90287
1.87234
1.84123
1.81045
1.78094
1.75326
1.72765
1.70434
1.68338
1.66473
1.64824
1.63364
1.62067
1.60871
1.59742
1.5861
1.57462
1.56244
1.54982
1.53643
1.52272
1.5087
1.49456
1.4807
1.4671
1.45418
1.44222
1.4314
1.42207
1.41456
1.40864
1.40458
1.40228
1.40114
1.40082
1.4009
1.40096
1.40079
1.40013
1.39861
1.39672
1.39467
1.39258
1.39082
1.38952
1.3893
1.38979
1.39207
1.39618
1.40358
1.416
1.44117
1.48561
1.5518
1.63961
1.70348
1.71735
1.7127
1.70798
1.69724
1.68626
1.67401
1.66196
1.65204
1.64174
1.63345
1.62205
1.6121
1.59868
1.58702
1.57088
1.5591
1.54108
1.53025
1.51125
1.50167
1.48211
1.47241
1.4527
1.44316
1.4231
1.41272
1.39106
1.38024
1.35748
1.34843
1.32585
2.12458
2.1046
2.08647
2.06992
2.05493
2.04292
2.03112
2.01848
2.00578
1.99369
1.97872
1.95779
1.93397
1.90817
1.8806
1.852
1.82294
1.79428
1.76698
1.74172
1.71883
1.69825
1.67986
1.66345
1.64867
1.63533
1.62297
1.61132
1.59981
1.58815
1.57588
1.56287
1.54897
1.53423
1.51886
1.50297
1.48707
1.47121
1.45608
1.44165
1.42858
1.41701
1.40714
1.3994
1.39354
1.38944
1.38714
1.38595
1.38544
1.38538
1.38528
1.38501
1.38442
1.38376
1.38304
1.38227
1.38205
1.38238
1.38449
1.38825
1.39536
1.40887
1.43795
1.48804
1.57082
1.66254
1.71717
1.71541
1.71276
1.70538
1.6934
1.67869
1.66435
1.65026
1.63791
1.62609
1.61507
1.60354
1.59219
1.57843
1.56546
1.54972
1.53679
1.51936
1.50745
1.48966
1.47889
1.46074
1.45188
1.43364
1.42477
1.40674
1.39804
1.38013
1.37106
1.35212
1.34271
1.32254
1.31454
1.29623
2.10093
2.08767
2.07381
2.06008
2.046
2.0314
2.01828
2.00667
1.9951
1.9825
1.96967
1.9536
1.93314
1.90961
1.88429
1.8579
1.83099
1.80395
1.77741
1.75213
1.72867
1.70764
1.68908
1.67267
1.65811
1.6448
1.63251
1.62071
1.6092
1.59752
1.58531
1.57227
1.55815
1.54294
1.52671
1.50968
1.49225
1.4748
1.45779
1.44178
1.42703
1.41395
1.40268
1.39348
1.38612
1.38084
1.37693
1.37447
1.37296
1.3719
1.37138
1.37103
1.37049
1.37058
1.37114
1.37211
1.37408
1.37814
1.38593
1.40059
1.4331
1.48552
1.58104
1.67514
1.7205
1.71345
1.71147
1.70147
1.68838
1.6723
1.65645
1.64029
1.6267
1.61287
1.60057
1.5873
1.57429
1.56038
1.54645
1.53054
1.51674
1.49991
1.48688
1.46978
1.45837
1.44128
1.4317
1.41508
1.40694
1.39032
1.38234
1.3662
1.35838
1.34234
1.33429
1.31747
1.30915
1.29138
1.28351
1.26848
2.0842
2.06854
2.05101
2.03612
2.0255
2.01541
2.00401
1.99199
1.98098
1.9694
1.95494
1.94019
1.92331
1.90451
1.8822
1.85769
1.83237
1.80724
1.78237
1.75818
1.73517
1.71368
1.69412
1.67689
1.66185
1.64854
1.63643
1.62495
1.61368
1.60219
1.59023
1.5774
1.56351
1.54832
1.53197
1.51458
1.49654
1.47833
1.46046
1.44338
1.42766
1.41363
1.40144
1.39119
1.3828
1.37614
1.37095
1.36697
1.36389
1.3616
1.35975
1.35863
1.35828
1.35945
1.36158
1.36554
1.37281
1.38851
1.42334
1.4795
1.57168
1.67292
1.71955
1.71048
1.70772
1.69639
1.68262
1.66632
1.64949
1.63354
1.61844
1.6036
1.58958
1.5752
1.56123
1.54608
1.53149
1.51585
1.50117
1.48488
1.47113
1.45455
1.44254
1.42592
1.41598
1.39965
1.39142
1.37575
1.36829
1.35325
1.34595
1.33107
1.32381
1.30913
1.30191
1.28689
1.27933
1.26392
1.25581
1.24316
2.06377
2.05822
2.04204
2.02291
2.00638
1.99501
1.98602
1.97634
1.96521
1.95466
1.94309
1.92938
1.91271
1.89284
1.87267
1.85136
1.82897
1.80591
1.78252
1.75983
1.73794
1.71721
1.69772
1.67982
1.66367
1.64936
1.6367
1.62518
1.61409
1.60296
1.59124
1.57871
1.56518
1.55041
1.53446
1.51741
1.49965
1.48156
1.4637
1.44653
1.43053
1.41598
1.40322
1.39224
1.38298
1.37525
1.36875
1.36332
1.35867
1.35478
1.35179
1.34984
1.35183
1.35506
1.36175
1.37582
1.40787
1.46789
1.54808
1.65767
1.71685
1.70812
1.70515
1.69409
1.67921
1.66366
1.64782
1.63148
1.61579
1.59964
1.58415
1.56852
1.55362
1.53826
1.52313
1.50756
1.49251
1.47702
1.46242
1.44685
1.43373
1.41792
1.40677
1.39139
1.38187
1.36691
1.35883
1.3441
1.33698
1.32296
1.31591
1.30176
1.29485
1.28119
1.2745
1.26085
1.25344
1.24005
1.23207
1.22064
2.02761
2.03746
2.03112
2.01743
1.99998
1.98354
1.97086
1.9599
1.94895
1.93748
1.92581
1.91485
1.90261
1.88635
1.86663
1.845
1.82301
1.80094
1.77926
1.75831
1.73758
1.71776
1.69904
1.68148
1.6652
1.65033
1.63668
1.62421
1.61259
1.60134
1.58988
1.5778
1.5647
1.55051
1.5351
1.51876
1.50167
1.48425
1.46699
1.45024
1.4345
1.42002
1.40698
1.39548
1.38541
1.37663
1.36904
1.36235
1.35654
1.35189
1.34872
1.3522
1.35752
1.36797
1.39776
1.4524
1.52735
1.64018
1.71137
1.70697
1.70689
1.69556
1.68105
1.66584
1.64958
1.63315
1.61606
1.5987
1.58209
1.56553
1.54962
1.53366
1.51885
1.50317
1.48849
1.47308
1.45877
1.44357
1.43006
1.41522
1.40297
1.38803
1.37809
1.36313
1.35449
1.34035
1.3323
1.31888
1.31168
1.29863
1.29151
1.2783
1.27158
1.25885
1.25252
1.23996
1.23272
1.22042
1.21327
1.20222
1.94557
1.9945
2.01104
2.00708
1.99714
1.98071
1.96353
1.94938
1.93692
1.92463
1.91267
1.89988
1.8878
1.87632
1.86154
1.84268
1.82145
1.79927
1.7773
1.75568
1.73529
1.71585
1.69768
1.68084
1.66508
1.65045
1.63685
1.62413
1.61206
1.60036
1.58877
1.57689
1.56433
1.55071
1.53594
1.52027
1.5039
1.48727
1.4706
1.45445
1.43893
1.42454
1.41129
1.39937
1.38871
1.37927
1.37086
1.36349
1.35808
1.35682
1.35994
1.37032
1.39217
1.44175
1.51589
1.62911
1.71078
1.71015
1.71131
1.69988
1.68592
1.66927
1.65243
1.63442
1.61577
1.59735
1.57952
1.5621
1.54571
1.52929
1.51359
1.49813
1.4833
1.46815
1.4541
1.43935
1.42574
1.41115
1.39902
1.3849
1.37379
1.36012
1.3505
1.33712
1.32865
1.31559
1.30787
1.29564
1.2885
1.27646
1.26938
1.25743
1.25129
1.23982
1.23407
1.22242
1.21654
1.20496
1.19902
1.18862
1.77087
1.92289
1.9668
1.98536
1.98335
1.97609
1.96061
1.94342
1.93034
1.91864
1.90664
1.89356
1.87974
1.86494
1.85022
1.83574
1.81827
1.79823
1.77687
1.75541
1.73474
1.715
1.69631
1.67895
1.66312
1.64897
1.63604
1.62376
1.61197
1.60041
1.58896
1.57724
1.56492
1.55188
1.53796
1.52309
1.50739
1.49118
1.47484
1.45883
1.44345
1.429
1.41566
1.40351
1.39252
1.383
1.37497
1.36906
1.37311
1.37783
1.39427
1.44566
1.50559
1.62357
1.71383
1.72406
1.72304
1.71056
1.69603
1.67902
1.65858
1.63795
1.61771
1.59725
1.57789
1.55943
1.54186
1.52493
1.50879
1.49253
1.47734
1.46178
1.44741
1.43297
1.41957
1.40549
1.39242
1.3791
1.36761
1.35439
1.34407
1.3311
1.32203
1.3097
1.30102
1.28916
1.28132
1.27021
1.26296
1.25195
1.24494
1.23456
1.22883
1.21901
1.21385
1.20382
1.19903
1.18924
1.18437
1.17626
1.47638
1.69742
1.89147
1.93768
1.95833
1.95664
1.95031
1.93757
1.92029
1.90885
1.89968
1.88883
1.87598
1.86116
1.84528
1.82825
1.81159
1.79445
1.77533
1.75506
1.73455
1.71481
1.69619
1.67856
1.66227
1.64719
1.6336
1.62155
1.61056
1.59974
1.58876
1.57744
1.5658
1.55349
1.54033
1.52618
1.51114
1.49542
1.47938
1.46342
1.44802
1.43347
1.4201
1.40812
1.39721
1.39002
1.38799
1.39377
1.40505
1.43828
1.52056
1.61929
1.71704
1.74401
1.74185
1.72959
1.71403
1.69529
1.67331
1.65061
1.62808
1.60588
1.58464
1.56421
1.54503
1.5264
1.50897
1.49176
1.47538
1.459
1.44372
1.42827
1.41466
1.40065
1.38786
1.3738
1.3619
1.34903
1.3381
1.32556
1.31539
1.30352
1.29424
1.28272
1.27355
1.26258
1.25434
1.24394
1.23621
1.22614
1.21874
1.20997
1.20374
1.19589
1.19034
1.18235
1.178
1.17035
1.16584
1.16041
1.16786
1.46486
1.67196
1.86094
1.90634
1.92682
1.92603
1.92175
1.91153
1.89546
1.88371
1.87554
1.8667
1.85462
1.83968
1.82275
1.8046
1.78631
1.76872
1.75089
1.73212
1.71315
1.69461
1.67707
1.6607
1.64538
1.63145
1.61871
1.60723
1.59671
1.5866
1.57624
1.56533
1.5537
1.54138
1.52813
1.51408
1.49922
1.48389
1.46836
1.45322
1.43855
1.42545
1.4151
1.40815
1.41058
1.42361
1.44534
1.50841
1.62584
1.73453
1.77204
1.76348
1.749
1.73733
1.71856
1.6958
1.67115
1.64654
1.62222
1.59867
1.57634
1.55537
1.53541
1.51659
1.49833
1.4807
1.46336
1.44663
1.42971
1.41425
1.39883
1.38536
1.37139
1.3585
1.34535
1.33385
1.32164
1.31081
1.29892
1.28886
1.27783
1.26825
1.25739
1.248
1.23767
1.22913
1.21923
1.21103
1.20187
1.19405
1.18665
1.17954
1.1736
1.16665
1.16124
1.15593
1.15019
1.14562
1.14164
1.06964
1.15951
1.43903
1.65379
1.83255
1.87841
1.8955
1.89687
1.89423
1.88639
1.87218
1.85971
1.8492
1.83936
1.82719
1.81213
1.79521
1.77759
1.75994
1.74247
1.72536
1.70807
1.69086
1.6741
1.65834
1.64378
1.63023
1.61759
1.60591
1.59499
1.58468
1.57455
1.56433
1.55356
1.54196
1.52964
1.51643
1.50268
1.48819
1.47364
1.45911
1.44669
1.43467
1.4377
1.44076
1.45874
1.5179
1.60673
1.74102
1.80494
1.79641
1.78029
1.7624
1.74163
1.72012
1.69666
1.67216
1.64618
1.62041
1.59543
1.57175
1.5499
1.52963
1.51003
1.49201
1.47346
1.45609
1.43823
1.42129
1.4041
1.38841
1.37271
1.3588
1.34415
1.33171
1.31905
1.30806
1.29621
1.2854
1.27422
1.26415
1.25365
1.24387
1.23339
1.22401
1.21433
1.20568
1.19663
1.18845
1.18011
1.17245
1.16585
1.15849
1.15339
1.146
1.14219
1.13595
1.13152
1.12665
1.12324
1.02492
1.05735
1.15432
1.34502
1.68491
1.81858
1.85901
1.86979
1.87175
1.86924
1.86343
1.85144
1.83914
1.8279
1.81637
1.80345
1.78805
1.77113
1.75415
1.7376
1.72138
1.70529
1.68916
1.67329
1.658
1.64352
1.63012
1.61774
1.60616
1.59521
1.58485
1.57476
1.56463
1.55411
1.54331
1.53158
1.51948
1.50616
1.4935
1.47967
1.46943
1.46601
1.46906
1.48482
1.52009
1.62449
1.74056
1.83044
1.82511
1.81159
1.7947
1.77107
1.74648
1.72189
1.69753
1.67243
1.64686
1.62055
1.59531
1.57083
1.54846
1.52714
1.50743
1.488
1.46961
1.45084
1.43347
1.4153
1.39901
1.38176
1.36648
1.35087
1.33688
1.32208
1.30932
1.29607
1.28447
1.27239
1.26157
1.25082
1.24078
1.23054
1.22074
1.21067
1.20168
1.19257
1.18423
1.17588
1.16791