/*--------------------------------*- C++ -*----------------------------------*\
  =========                 |
  \\      /  F ield         | OpenFOAM: The Open Source CFD Toolbox
   \\    /   O peration     | Website:  https://openfoam.org
    \\  /    A nd           | Version:  6
     \\/     M anipulation  |
\*---------------------------------------------------------------------------*/
FoamFile
{
    version     2.0;
    format      ascii;
    class       volVectorField;
    location    "1";
    object      U;
}
// * * * * * * * * * * * * * * * * * * * * * * * * * * * * * * * * * * * * * //

dimensions      [0 1 -1 0 0 0 0];

internalField   nonuniform List<vector> 
5250
(
(2.99999 1.84927e-08 0)
(2.99997 1.24014e-07 0)
(2.99993 3.81716e-07 0)
(2.99984 1.10812e-06 0)
(2.99961 2.64851e-06 0)
(2.99912 7.03334e-06 0)
(2.99774 1.58921e-05 0)
(2.99505 4.27049e-05 0)
(2.98643 9.25556e-05 0)
(2.97089 0.000263817 0)
(2.91323 0.000572232 0)
(2.77854 0.00172032 0)
(2.37608 0.00422971 0)
(1.08325 0.0125921 0)
(0.0765552 0.02889 0)
(-0.260646 0.0205693 0)
(0.0775689 0.0196777 0)
(0.36401 0.0243007 0)
(0.444113 0.029315 0)
(0.386062 0.0336865 0)
(0.276019 0.0368602 0)
(0.191569 0.0419091 0)
(0.140208 0.0487863 0)
(0.106401 0.0555435 0)
(0.0854031 0.0594692 0)
(2.99999 5.56373e-08 0)
(2.99997 3.74021e-07 0)
(2.99993 1.15077e-06 0)
(2.99984 3.35118e-06 0)
(2.99961 8.01304e-06 0)
(2.99913 2.13934e-05 0)
(2.99777 4.83462e-05 0)
(2.99511 0.000131095 0)
(2.98661 0.0002831 0)
(2.97128 0.000821189 0)
(2.91438 0.00176589 0)
(2.78189 0.00544766 0)
(2.38485 0.0133186 0)
(1.10492 0.0405561 0)
(0.0871217 0.0915496 0)
(-0.270663 0.0601875 0)
(0.0838739 0.0535216 0)
(0.372569 0.0644457 0)
(0.448543 0.0759154 0)
(0.387842 0.0842863 0)
(0.278904 0.0892599 0)
(0.1968 0.0969443 0)
(0.144507 0.105795 0)
(0.10615 0.112009 0)
(0.0826766 0.113799 0)
(2.99999 9.10724e-08 0)
(2.99997 6.14128e-07 0)
(2.99993 1.88924e-06 0)
(2.99985 5.5247e-06 0)
(2.99962 1.32239e-05 0)
(2.99915 3.55471e-05 0)
(2.99782 8.04865e-05 0)
(2.99523 0.000220551 0)
(2.98697 0.000476432 0)
(2.97209 0.001407 0)
(2.91691 0.00300198 0)
(2.78918 0.0095403 0)
(2.40496 0.0229969 0)
(1.15842 0.0727006 0)
(0.116319 0.165533 0)
(-0.277343 0.101216 0)
(0.0938992 0.0857235 0)
(0.385622 0.104387 0)
(0.45649 0.125878 0)
(0.391466 0.141936 0)
(0.283315 0.153116 0)
(0.204227 0.166718 0)
(0.150184 0.17968 0)
(0.105151 0.187606 0)
(0.0781414 0.190869 0)
(2.99999 1.19995e-07 0)
(2.99998 8.11954e-07 0)
(2.99994 2.49839e-06 0)
(2.99985 7.33974e-06 0)
(2.99963 1.75897e-05 0)
(2.99918 4.75881e-05 0)
(2.99791 0.000108102 0)
(2.99541 0.000298538 0)
(2.98753 0.000651295 0)
(2.97332 0.00194045 0)
(2.92089 0.00413558 0)
(2.80034 0.0134328 0)
(2.43744 0.0321718 0)
(1.24989 0.104092 0)
(0.166393 0.241099 0)
(-0.279668 0.139717 0)
(0.108909 0.116132 0)
(0.405654 0.143656 0)
(0.470718 0.176278 0)
(0.400372 0.201263 0)
(0.292794 0.220692 0)
(0.216213 0.241082 0)
(0.159156 0.258929 0)
(0.106307 0.270777 0)
(0.0741795 0.279333 0)
(2.99999 1.37994e-07 0)
(2.99998 9.36273e-07 0)
(2.99994 2.88325e-06 0)
(2.99986 8.5026e-06 0)
(2.99965 2.03691e-05 0)
(2.99921 5.54286e-05 0)
(2.99801 0.000126045 0)
(2.99564 0.000351113 0)
(2.98825 0.000774759 0)
(2.97491 0.00233259 0)
(2.92614 0.00498941 0)
(2.81507 0.0165198 0)
(2.48111 0.0399686 0)
(1.37923 0.13032 0)
(0.237087 0.311265 0)
(-0.273358 0.17702 0)
(0.13129 0.149391 0)
(0.433298 0.186451 0)
(0.491172 0.228818 0)
(0.41491 0.261681 0)
(0.307506 0.289421 0)
(0.23186 0.316681 0)
(0.171634 0.339883 0)
(0.112338 0.356486 0)
(0.0739854 0.372123 0)
(2.99999 1.46903e-07 0)
(2.99998 9.88661e-07 0)
(2.99994 3.05086e-06 0)
(2.99986 8.92646e-06 0)
(2.99966 2.12524e-05 0)
(2.99925 5.75883e-05 0)
(2.99812 0.00013011 0)
(2.9959 0.000365356 0)
(2.98907 0.000807349 0)
(2.97673 0.00247844 0)
(2.93234 0.00531666 0)
(2.83266 0.0179816 0)
(2.53389 0.0443342 0)
(1.54657 0.14536 0)
(0.332377 0.363952 0)
(-0.250333 0.215349 0)
(0.161094 0.192662 0)
(0.467836 0.237435 0)
(0.516562 0.285877 0)
(0.434178 0.324697 0)
(0.327419 0.360259 0)
(0.252156 0.395123 0)
(0.188279 0.425172 0)
(0.12204 0.447883 0)
(0.0761754 0.471057 0)
(2.99999 1.5661e-07 0)
(2.99998 1.03295e-06 0)
(2.99994 3.19884e-06 0)
(2.99987 9.11861e-06 0)
(2.99968 2.14845e-05 0)
(2.99929 5.62489e-05 0)
(2.99824 0.000125126 0)
(2.99615 0.000341819 0)
(2.98989 0.000744591 0)
(2.97855 0.00227897 0)
(2.93874 0.00483636 0)
(2.85108 0.0166953 0)
(2.59037 0.0419366 0)
(1.73916 0.138991 0)
(0.4533 0.370443 0)
(-0.208958 0.250675 0)
(0.197849 0.248608 0)
(0.504912 0.297643 0)
(0.543692 0.34767 0)
(0.457556 0.390472 0)
(0.353349 0.433722 0)
(0.278895 0.477568 0)
(0.211458 0.516656 0)
(0.138023 0.5487 0)
(0.0822673 0.582604 0)
(2.99999 1.72387e-07 0)
(2.99998 1.11911e-06 0)
(2.99995 3.47583e-06 0)
(2.99988 9.66659e-06 0)
(2.9997 2.26141e-05 0)
(2.99933 5.6633e-05 0)
(2.99833 0.000124268 0)
(2.99637 0.000318782 0)
(2.99058 0.000682023 0)
(2.98003 0.00196214 0)
(2.94412 0.00401577 0)
(2.86671 0.0135477 0)
(2.63984 0.0331735 0)
(1.91854 0.10861 0)
(0.582694 0.30235 0)
(-0.157636 0.283064 0)
(0.238783 0.315825 0)
(0.538833 0.364967 0)
(0.570102 0.412811 0)
(0.484726 0.458079 0)
(0.386688 0.509381 0)
(0.314739 0.564136 0)
(0.245263 0.615847 0)
(0.1649 0.663993 0)
(0.0952398 0.717796 0)
(2.99999 1.91709e-07 0)
(2.99998 1.23716e-06 0)
(2.99995 3.84613e-06 0)
(2.99988 1.05895e-05 0)
(2.99971 2.47013e-05 0)
(2.99936 6.06028e-05 0)
(2.99843 0.000132264 0)
(2.99657 0.000326539 0)
(2.99117 0.000693689 0)
(2.98123 0.00185501 0)
(2.94818 0.00379725 0)
(2.87752 0.0113831 0)
(2.6719 0.0274243 0)
(2.02824 0.0802593 0)
(0.707644 0.222943 0)
(-0.0855851 0.328635 0)
(0.286443 0.391111 0)
(0.568114 0.434851 0)
(0.594913 0.478097 0)
(0.516434 0.525337 0)
(0.429792 0.586185 0)
(0.363952 0.653387 0)
(0.297819 0.722348 0)
(0.216264 0.799395 0)
(0.126101 0.89993 0)
(2.99999 2.13168e-07 0)
(2.99998 1.37204e-06 0)
(2.99995 4.26717e-06 0)
(2.99989 1.16975e-05 0)
(2.99973 2.7246e-05 0)
(2.9994 6.62561e-05 0)
(2.99853 0.000144202 0)
(2.99679 0.000350236 0)
(2.99177 0.000741513 0)
(2.98253 0.00191297 0)
(2.95183 0.00398051 0)
(2.8879 0.0109372 0)
(2.69771 0.0271214 0)
(2.11209 0.0693209 0)
(0.862715 0.201034 0)
(0.0310956 0.376483 0)
(0.337596 0.460289 0)
(0.591697 0.496438 0)
(0.618583 0.536869 0)
(0.554939 0.587743 0)
(0.485243 0.659093 0)
(0.43117 0.740057 0)
(0.382623 0.834959 0)
(0.322428 0.961047 0)
(0.204324 1.18375 0)
(2.99999 2.38373e-07 0)
(2.99998 1.5318e-06 0)
(2.99996 4.7672e-06 0)
(2.9999 1.30367e-05 0)
(2.99975 3.03625e-05 0)
(2.99945 7.34363e-05 0)
(2.99864 0.000159865 0)
(2.99702 0.000383747 0)
(2.99239 0.000813265 0)
(2.98384 0.00205233 0)
(2.95546 0.00424374 0)
(2.89814 0.0114071 0)
(2.72029 0.027717 0)
(2.19187 0.0688491 0)
(1.03963 0.199736 0)
(0.176373 0.412573 0)
(0.395942 0.518856 0)
(0.612086 0.543738 0)
(0.645377 0.582742 0)
(0.602084 0.64041 0)
(0.55445 0.720084 0)
(0.524321 0.815527 0)
(0.520525 0.934919 0)
(0.563616 1.08899 0)
(0.635955 1.32952 0)
(2.99999 2.66706e-07 0)
(2.99998 1.71368e-06 0)
(2.99996 5.33533e-06 0)
(2.99991 1.45859e-05 0)
(2.99977 3.39967e-05 0)
(2.99949 8.2084e-05 0)
(2.99876 0.000178995 0)
(2.99728 0.000427143 0)
(2.99306 0.000907463 0)
(2.98529 0.00226318 0)
(2.95937 0.00462132 0)
(2.90871 0.0124816 0)
(2.74449 0.0289644 0)
(2.27342 0.076011 0)
(1.22847 0.203609 0)
(0.344706 0.451135 0)
(0.45835 0.570281 0)
(0.622922 0.584243 0)
(0.675778 0.619961 0)
(0.656807 0.683021 0)
(0.634635 0.766452 0)
(0.636078 0.87003 0)
(0.673552 0.995489 0)
(0.779318 1.13969 0)
(0.955709 1.30314 0)
(3 2.95094e-07 0)
(2.99999 1.89765e-06 0)
(2.99996 5.90917e-06 0)
(2.99992 1.6176e-05 0)
(2.9998 3.77457e-05 0)
(2.99955 9.13023e-05 0)
(2.99889 0.000199528 0)
(2.99757 0.000476556 0)
(2.99381 0.00101551 0)
(2.98683 0.00251818 0)
(2.96371 0.00517707 0)
(2.91961 0.0137688 0)
(2.77154 0.0313566 0)
(2.35936 0.0850004 0)
(1.42467 0.214149 0)
(0.526078 0.503072 0)
(0.521918 0.603726 0)
(0.634851 0.622378 0)
(0.709087 0.653213 0)
(0.715183 0.715046 0)
(0.717043 0.797183 0)
(0.745211 0.896769 0)
(0.80912 1.00899 0)
(0.930002 1.1258 0)
(1.11195 1.21897 0)
(3 3.14131e-07 0)
(2.99999 2.02313e-06 0)
(2.99997 6.30003e-06 0)
(2.99993 1.72913e-05 0)
(2.99982 4.04149e-05 0)
(2.99961 9.82059e-05 0)
(2.99904 0.000215489 0)
(2.9979 0.000517228 0)
(2.99465 0.00111117 0)
(2.98863 0.00272847 0)
(2.96848 0.00585747 0)
(2.9317 0.0147658 0)
(2.80181 0.0340189 0)
(2.45257 0.0925068 0)
(1.63944 0.227417 0)
(0.705703 0.563202 0)
(0.578404 0.624503 0)
(0.659749 0.650747 0)
(0.742913 0.676656 0)
(0.772797 0.734295 0)
(0.793698 0.811614 0)
(0.837795 0.900108 0)
(0.91441 0.992682 0)
(1.03261 1.08145 0)
(1.19472 1.14248 0)
(3 3.14144e-07 0)
(2.99999 2.02377e-06 0)
(2.99997 6.30302e-06 0)
(2.99994 1.73067e-05 0)
(2.99985 4.04694e-05 0)
(2.99967 9.83642e-05 0)
(2.9992 0.000215871 0)
(2.99825 0.000518056 0)
(2.99553 0.00111077 0)
(2.99064 0.00276737 0)
(2.97348 0.00563705 0)
(2.94426 0.015797 0)
(2.83401 0.0329396 0)
(2.55171 0.102116 0)
(1.86743 0.241297 0)
(0.885839 0.629862 0)
(0.627678 0.656948 0)
(0.690697 0.674938 0)
(0.779713 0.693363 0)
(0.830398 0.744031 0)
(0.863807 0.813434 0)
(0.914307 0.889815 0)
(0.992968 0.965282 0)
(1.10357 1.03269 0)
(1.24532 1.07802 0)
(3 2.93652e-07 0)
(2.99999 1.8917e-06 0)
(2.99998 5.89078e-06 0)
(2.99995 1.61695e-05 0)
(2.99988 3.77924e-05 0)
(2.99973 9.17995e-05 0)
(2.99935 0.000201136 0)
(2.99858 0.000482725 0)
(2.9964 0.00103011 0)
(2.99226 0.00259717 0)
(2.97909 0.00509846 0)
(2.9554 0.0154579 0)
(2.87138 0.0293505 0)
(2.66221 0.101196 0)
(2.13315 0.233797 0)
(1.11687 0.647907 0)
(0.716799 0.688905 0)
(0.750744 0.709254 0)
(0.833066 0.717538 0)
(0.89485 0.754151 0)
(0.933128 0.811131 0)
(0.98219 0.875041 0)
(1.05543 0.936769 0)
(1.15464 0.989767 0)
(1.27773 1.02542 0)
(3 2.5983e-07 0)
(2.99999 1.67526e-06 0)
(2.99998 5.21386e-06 0)
(2.99996 1.43217e-05 0)
(2.99991 3.34748e-05 0)
(2.99979 8.13928e-05 0)
(2.99949 0.000178549 0)
(2.99888 0.000428644 0)
(2.99718 0.000918811 0)
(2.9939 0.00226843 0)
(2.98401 0.00474955 0)
(2.96516 0.0127487 0)
(2.90452 0.026323 0)
(2.758 0.0789926 0)
(2.37679 0.186872 0)
(1.38583 0.537584 0)
(0.849745 0.693296 0)
(0.827591 0.742153 0)
(0.886347 0.75621 0)
(0.955513 0.774085 0)
(0.998785 0.814471 0)
(1.0446 0.864412 0)
(1.10944 0.913561 0)
(1.19619 0.955587 0)
(1.30223 0.984539 0)
(3 2.24036e-07 0)
(2.99999 1.44464e-06 0)
(2.99999 4.49602e-06 0)
(2.99997 1.2351e-05 0)
(2.99993 2.88782e-05 0)
(2.99984 7.02019e-05 0)
(2.9996 0.000154189 0)
(2.99913 0.000369331 0)
(2.99784 0.000793899 0)
(2.99533 0.00193245 0)
(2.98769 0.00413355 0)
(2.97395 0.0102776 0)
(2.92658 0.022949 0)
(2.81863 0.0585302 0)
(2.52182 0.143862 0)
(1.65135 0.393567 0)
(0.990694 0.719486 0)
(0.890085 0.774308 0)
(0.925067 0.797032 0)
(0.99409 0.801215 0)
(1.05029 0.82485 0)
(1.09731 0.860426 0)
(1.15538 0.89766 0)
(1.23081 0.93011 0)
(1.32191 0.953095 0)
(3 1.87625e-07 0)
(3 1.20862e-06 0)
(2.99999 3.76162e-06 0)
(2.99998 1.0321e-05 0)
(2.99995 2.4118e-05 0)
(2.99988 5.85407e-05 0)
(2.99971 0.000128422 0)
(2.99936 0.000307266 0)
(2.9984 0.00065861 0)
(2.99657 0.00160948 0)
(2.99086 0.00338657 0)
(2.98131 0.00886419 0)
(2.94494 0.017862 0)
(2.87304 0.0525463 0)
(2.64914 0.120733 0)
(1.96122 0.352661 0)
(1.21723 0.773036 0)
(0.962933 0.81827 0)
(0.970653 0.832045 0)
(1.02849 0.829068 0)
(1.09279 0.835226 0)
(1.14285 0.857607 0)
(1.19626 0.885258 0)
(1.26215 0.910503 0)
(1.34085 0.929015 0)
(3 1.52167e-07 0)
(3 9.79931e-07 0)
(2.99999 3.05021e-06 0)
(2.99998 8.36442e-06 0)
(2.99996 1.95445e-05 0)
(2.99991 4.73829e-05 0)
(2.99979 0.000103952 0)
(2.99953 0.000248168 0)
(2.99885 0.000532496 0)
(2.99751 0.00129769 0)
(2.99366 0.00272173 0)
(2.98628 0.00711177 0)
(2.96359 0.0142796 0)
(2.91559 0.0412859 0)
(2.77581 0.0931804 0)
(2.35586 0.268486 0)
(1.57994 0.665717 0)
(1.11909 0.819692 0)
(1.05899 0.848424 0)
(1.0822 0.85406 0)
(1.13851 0.849207 0)
(1.19089 0.858465 0)
(1.23958 0.877088 0)
(1.29596 0.896226 0)
(1.36283 0.910881 0)
(3 1.16872e-07 0)
(3 7.51756e-07 0)
(3 2.3399e-06 0)
(2.99999 6.40261e-06 0)
(2.99997 1.49463e-05 0)
(2.99994 3.6087e-05 0)
(2.99985 7.90771e-05 0)
(2.99968 0.000187489 0)
(2.99922 0.000402288 0)
(2.99832 0.000965664 0)
(2.99566 0.00204581 0)
(2.99114 0.00506113 0)
(2.97425 0.010766 0)
(2.94673 0.0276171 0)
(2.84138 0.0636134 0)
(2.57329 0.173378 0)
(1.95141 0.43884 0)
(1.26352 0.832073 0)
(1.12177 0.87933 0)
(1.12626 0.889657 0)
(1.17259 0.879647 0)
(1.23027 0.873015 0)
(1.28024 0.879258 0)
(1.33045 0.89035 0)
(1.38758 0.900217 0)
(3 8.54557e-08 0)
(3 5.48633e-07 0)
(3 1.7072e-06 0)
(2.99999 4.65395e-06 0)
(2.99998 1.08413e-05 0)
(2.99996 2.59956e-05 0)
(2.9999 5.67099e-05 0)
(2.99978 0.000133235 0)
(2.99946 0.000283615 0)
(2.99883 0.000676719 0)
(2.99704 0.00140645 0)
(2.9937 0.00357503 0)
(2.98298 0.0069549 0)
(2.96413 0.0205993 0)
(2.89754 0.0400185 0)
(2.73685 0.129184 0)
(2.32851 0.305857 0)
(1.54319 0.762122 0)
(1.22064 0.889707 0)
(1.18379 0.911293 0)
(1.20782 0.90992 0)
(1.26178 0.896557 0)
(1.31616 0.891557 0)
(1.36472 0.893649 0)
(1.41532 0.897901 0)
(3 6.25855e-08 0)
(3 4.02019e-07 0)
(3 1.25104e-06 0)
(2.99999 3.41417e-06 0)
(2.99999 7.95944e-06 0)
(2.99997 1.91275e-05 0)
(2.99993 4.18311e-05 0)
(2.99985 9.85175e-05 0)
(2.99964 0.000211049 0)
(2.99922 0.000502015 0)
(2.99805 0.00106215 0)
(2.99583 0.00260388 0)
(2.98902 0.0054064 0)
(2.97671 0.0142708 0)
(2.93541 0.0293649 0)
(2.84222 0.0843199 0)
(2.58716 0.201467 0)
(1.8903 0.552667 0)
(1.37833 0.866905 0)
(1.25275 0.92111 0)
(1.25154 0.932645 0)
(1.29114 0.923331 0)
(1.34591 0.90977 0)
(1.39517 0.904178 0)
(1.44254 0.902816 0)
(3 4.43136e-08 0)
(3 2.84446e-07 0)
(3 8.84884e-07 0)
(3 2.41445e-06 0)
(2.99999 5.62568e-06 0)
(2.99998 1.35395e-05 0)
(2.99996 2.96271e-05 0)
(2.99991 6.99836e-05 0)
(2.99977 0.000150319 0)
(2.99951 0.000357916 0)
(2.99877 0.000760418 0)
(2.99738 0.00184675 0)
(2.99313 0.00389596 0)
(2.98584 0.00980333 0)
(2.9596 0.0208548 0)
(2.90937 0.0545593 0)
(2.75108 0.130796 0)
(2.28027 0.360953 0)
(1.66975 0.768521 0)
(1.36893 0.906618 0)
(1.31872 0.937155 0)
(1.33134 0.943182 0)
(1.37592 0.930223 0)
(1.42652 0.91732 0)
(1.47185 0.910909 0)
(3 2.82565e-08 0)
(3 1.94186e-07 0)
(3 5.77469e-07 0)
(3 1.63438e-06 0)
(3 3.65831e-06 0)
(2.99999 9.12779e-06 0)
(2.99997 1.91002e-05 0)
(2.99994 4.70088e-05 0)
(2.99987 9.57827e-05 0)
(2.99971 0.000239556 0)
(2.99928 0.000477314 0)
(2.99849 0.00123249 0)
(2.99596 0.00237087 0)
(2.99203 0.00660779 0)
(2.97571 0.0118634 0)
(2.95051 0.0378473 0)
(2.85201 0.0720491 0)
(2.59671 0.236173 0)
(2.05207 0.545603 0)
(1.512 0.898863 0)
(1.38505 0.955082 0)
(1.37451 0.964972 0)
(1.39984 0.95693 0)
(1.44789 0.938711 0)
(1.49716 0.925738 0)
(3 1.77385e-08 0)
(3 1.21224e-07 0)
(3 3.61193e-07 0)
(3 1.01665e-06 0)
(3 2.27807e-06 0)
(2.99999 5.63397e-06 0)
(2.99999 1.1797e-05 0)
(2.99996 2.86852e-05 0)
(2.99992 5.85074e-05 0)
(2.99981 0.000144419 0)
(2.99959 0.00028845 0)
(2.99898 0.000739772 0)
(2.99783 0.00140017 0)
(2.99434 0.00402552 0)
(2.98813 0.00677165 0)
(2.96726 0.0236732 0)
(2.92579 0.0386441 0)
(2.79676 0.138512 0)
(2.44577 0.319985 0)
(1.85939 0.730807 0)
(1.51563 0.915575 0)
(1.44502 0.959164 0)
(1.44228 0.969849 0)
(1.4739 0.961195 0)
(1.52055 0.944447 0)
(3 1.23071e-08 0)
(3 7.03432e-08 0)
(3 2.3551e-07 0)
(3 5.98398e-07 0)
(3 1.48303e-06 0)
(3 3.30066e-06 0)
(2.99999 7.72129e-06 0)
(2.99998 1.65996e-05 0)
(2.99996 3.86649e-05 0)
(2.99989 8.20102e-05 0)
(2.99977 0.000193363 0)
(2.99943 0.000406325 0)
(2.99884 0.000980671 0)
(2.99681 0.00203081 0)
(2.99401 0.00515246 0)
(2.98071 0.0105392 0)
(2.96275 0.0285077 0)
(2.88194 0.0629542 0)
(2.69398 0.177964 0)
(2.26038 0.434465 0)
(1.6888 0.838311 0)
(1.51185 0.949501 0)
(1.48343 0.977033 0)
(1.49643 0.982089 0)
(1.53498 0.969043 0)
(3 7.5932e-09 0)
(3 4.34237e-08 0)
(3 1.45222e-07 0)
(3 3.68593e-07 0)
(3 9.10692e-07 0)
(3 2.02343e-06 0)
(2.99999 4.70171e-06 0)
(2.99999 1.00764e-05 0)
(2.99997 2.31865e-05 0)
(2.99993 4.88558e-05 0)
(2.99986 0.000113271 0)
(2.99965 0.000234606 0)
(2.99925 0.000562479 0)
(2.99809 0.00110417 0)
(2.99599 0.00297888 0)
(2.9893 0.00531513 0)
(2.97718 0.017455 0)
(2.93778 0.031591 0)
(2.84819 0.107857 0)
(2.61115 0.247637 0)
(2.03265 0.64249 0)
(1.65672 0.914736 0)
(1.55073 0.979474 0)
(1.53637 0.994922 0)
(1.55269 0.9927 0)
(3 4.76273e-09 0)
(3 2.5922e-08 0)
(3 8.97153e-08 0)
(3 2.21616e-07 0)
(3 5.66271e-07 0)
(3 1.22877e-06 0)
(3 2.97022e-06 0)
(2.99999 6.21398e-06 0)
(2.99999 1.50063e-05 0)
(2.99996 3.08274e-05 0)
(2.99992 7.56139e-05 0)
(2.99981 0.000152969 0)
(2.9996 0.000383703 0)
(2.99899 0.000763267 0)
(2.99789 0.0019835 0)
(2.99446 0.00382441 0)
(2.98858 0.0106234 0)
(2.96871 0.0202664 0)
(2.92905 0.0598431 0)
(2.81331 0.126534 0)
(2.47812 0.371298 0)
(1.975 0.73302 0)
(1.67533 0.933678 0)
(1.60322 0.985455 0)
(1.59337 0.999996 0)
(3 2.59041e-09 0)
(3 1.46876e-08 0)
(3 4.93679e-08 0)
(3 1.25284e-07 0)
(3 3.12882e-07 0)
(3 6.99301e-07 0)
(3 1.6472e-06 0)
(3 3.55839e-06 0)
(2.99999 8.30555e-06 0)
(2.99998 1.76904e-05 0)
(2.99996 4.14806e-05 0)
(2.99991 8.74654e-05 0)
(2.99978 0.000207114 0)
(2.99953 0.000432491 0)
(2.99881 0.00104229 0)
(2.99753 0.00213442 0)
(2.9933 0.00536806 0)
(2.98626 0.010854 0)
(2.96117 0.0284665 0)
(2.91199 0.0634444 0)
(2.76035 0.16426 0)
(2.36207 0.435124 0)
(1.91767 0.777546 0)
(1.7025 0.932446 0)
(1.6523 0.981061 0)
(3 1.16596e-09 0)
(3 7.78264e-09 0)
(3 2.35727e-08 0)
(3 6.61498e-08 0)
(3 1.52236e-07 0)
(3 3.7636e-07 0)
(3 8.14798e-07 0)
(3 1.96292e-06 0)
(3 4.15436e-06 0)
(2.99999 1.00372e-05 0)
(2.99998 2.09224e-05 0)
(2.99995 5.13075e-05 0)
(2.9999 0.000105048 0)
(2.99975 0.000263835 0)
(2.99946 0.000522437 0)
(2.99859 0.00136377 0)
(2.9971 0.00257339 0)
(2.99197 0.00715609 0)
(2.98346 0.0130569 0)
(2.95299 0.0384713 0)
(2.89189 0.0767058 0)
(2.70856 0.218707 0)
(2.26075 0.523484 0)
(1.89051 0.830017 0)
(1.7382 0.943508 0)
(3 5.97522e-10 0)
(3 3.34757e-09 0)
(3 1.14056e-08 0)
(3 2.91729e-08 0)
(3 7.45032e-08 0)
(3 1.68562e-07 0)
(3 4.05351e-07 0)
(3 8.85457e-07 0)
(3 2.10359e-06 0)
(3 4.51956e-06 0)
(2.99999 1.07647e-05 0)
(2.99998 2.28533e-05 0)
(2.99997 5.48389e-05 0)
(2.99991 0.000115258 0)
(2.99983 0.000279983 0)
(2.99947 0.000578698 0)
(2.99901 0.00144984 0)
(2.99676 0.00292782 0)
(2.99389 0.0077509 0)
(2.97901 0.0156444 0)
(2.95781 0.0431719 0)
(2.87224 0.0956046 0)
(2.65483 0.269265 0)
(2.25478 0.586714 0)
(1.88295 0.86388 0)
(3 2.62784e-10 0)
(3 1.48544e-09 0)
(3 5.03124e-09 0)
(3 1.28451e-08 0)
(3 3.23685e-08 0)
(3 7.26683e-08 0)
(3 1.7127e-07 0)
(3 3.69636e-07 0)
(3 8.53888e-07 0)
(3 1.80178e-06 0)
(3 4.16011e-06 0)
(2.99999 8.51578e-06 0)
(2.99998 2.03963e-05 0)
(2.99995 3.97061e-05 0)
(2.99989 0.000103918 0)
(2.99971 0.000195479 0)
(2.99939 0.000555414 0)
(2.99832 0.0010363 0)
(2.99661 0.00316492 0)
(2.99026 0.00583224 0)
(2.98014 0.0194029 0)
(2.94332 0.0373254 0)
(2.86456 0.117747 0)
(2.65837 0.274737 0)
(2.20351 0.628882 0)
(3 1.26587e-10 0)
(3 7.12897e-10 0)
(3 2.41511e-09 0)
(3 6.14708e-09 0)
(3 1.55383e-08 0)
(3 3.49234e-08 0)
(3 8.33385e-08 0)
(3 1.80988e-07 0)
(3 4.29009e-07 0)
(3 9.18703e-07 0)
(3 2.19815e-06 0)
(3 4.66808e-06 0)
(2.99999 1.13376e-05 0)
(2.99998 2.39368e-05 0)
(2.99997 5.91465e-05 0)
(2.9999 0.000123807 0)
(2.99983 0.000312952 0)
(2.9994 0.000642021 0)
(2.99884 0.00168332 0)
(2.99631 0.00335421 0)
(2.99272 0.00923724 0)
(2.97715 0.0184443 0)
(2.95191 0.0516734 0)
(2.86399 0.11471 0)
(2.63697 0.308086 0)
(3 5.89553e-11 0)
(3 3.27674e-10 0)
(3 1.11548e-09 0)
(3 2.80102e-09 0)
(3 7.05338e-09 0)
(3 1.55513e-08 0)
(3 3.6717e-08 0)
(3 7.78212e-08 0)
(3 1.80896e-07 0)
(3 3.75326e-07 0)
(3 8.72191e-07 0)
(3 1.74946e-06 0)
(3 4.18508e-06 0)
(2.99999 7.62394e-06 0)
(2.99998 2.02833e-05 0)
(2.99995 3.19919e-05 0)
(2.99989 0.000106101 0)
(2.99971 0.000170031 0)
(2.99941 0.000618395 0)
(2.99832 0.00107162 0)
(2.99676 0.00364348 0)
(2.99016 0.00640935 0)
(2.98086 0.0215978 0)
(2.94341 0.0395609 0)
(2.86682 0.125387 0)
(3 2.48643e-11 0)
(3 1.40429e-10 0)
(3 4.74617e-10 0)
(3 1.20208e-09 0)
(3 3.02155e-09 0)
(3 6.73205e-09 0)
(3 1.6022e-08 0)
(3 3.46053e-08 0)
(3 8.18531e-08 0)
(3 1.75672e-07 0)
(3 4.17534e-07 0)
(3 8.93397e-07 0)
(3 2.15166e-06 0)
(3 4.58957e-06 0)
(2.99999 1.12448e-05 0)
(2.99999 2.3901e-05 0)
(2.99996 5.93583e-05 0)
(2.99992 0.000124223 0)
(2.99977 0.000314918 0)
(2.99956 0.000638202 0)
(2.99854 0.00169577 0)
(2.99743 0.00328004 0)
(2.99084 0.00921994 0)
(2.98276 0.0178314 0)
(2.94619 0.0495048 0)
(3 9.1684e-12 0)
(3 5.87844e-11 0)
(3 1.80946e-10 0)
(3 4.89891e-10 0)
(3 1.1172e-09 0)
(3 2.63497e-09 0)
(3 5.57922e-09 0)
(3 1.27964e-08 0)
(3 2.6342e-08 0)
(3 6.05e-08 0)
(3 1.20195e-07 0)
(3 2.87034e-07 0)
(3 5.27754e-07 0)
(3 1.43061e-06 0)
(3 2.49988e-06 0)
(3 7.65289e-06 0)
(2.99999 1.40038e-05 0)
(2.99997 4.23811e-05 0)
(2.99994 7.94014e-05 0)
(2.9998 0.00024156 0)
(2.99965 0.000423955 0)
(2.9987 0.00142457 0)
(2.99779 0.00231645 0)
(2.99152 0.00851126 0)
(2.98392 0.0144217 0)
(3 3.92601e-12 0)
(3 2.24698e-11 0)
(3 7.4231e-11 0)
(3 1.85813e-10 0)
(3 4.46644e-10 0)
(3 9.5964e-10 0)
(3 2.14249e-09 0)
(3 4.35489e-09 0)
(3 9.74944e-09 0)
(3 1.88189e-08 0)
(3 4.43291e-08 0)
(3 8.1502e-08 0)
(3 2.04786e-07 0)
(3 3.58631e-07 0)
(3 9.94847e-07 0)
(3 1.61771e-06 0)
(3 5.4823e-06 0)
(2.99999 8.8673e-06 0)
(2.99997 3.43343e-05 0)
(2.99992 5.58217e-05 0)
(2.99985 0.000204512 0)
(2.99955 0.000325037 0)
(2.99917 0.00123676 0)
(2.99715 0.00198482 0)
(2.99522 0.00780328 0)
(3 1.62678e-12 0)
(3 9.29215e-12 0)
(3 3.06074e-11 0)
(3 7.6933e-11 0)
(3 1.84593e-10 0)
(3 4.01103e-10 0)
(3 8.97197e-10 0)
(3 1.86831e-09 0)
(3 4.1652e-09 0)
(3 8.58598e-09 0)
(3 1.96488e-08 0)
(3 4.07382e-08 0)
(3 9.67409e-08 0)
(3 2.02954e-07 0)
(3 4.99343e-07 0)
(3 1.05447e-06 0)
(3 2.67324e-06 0)
(3 5.58086e-06 0)
(2.99999 1.46244e-05 0)
(2.99999 2.95164e-05 0)
(2.99995 8.02918e-05 0)
(2.99988 0.000153679 0)
(2.9997 0.000441873 0)
(2.99946 0.000794431 0)
(2.99778 0.0025979 0)
(3 5.94354e-13 0)
(3 3.67903e-12 0)
(3 1.14355e-11 0)
(3 2.99893e-11 0)
(3 6.83757e-11 0)
(3 1.54044e-10 0)
(3 3.23835e-10 0)
(3 6.99624e-10 0)
(3 1.4274e-09 0)
(3 3.07776e-09 0)
(3 6.15314e-09 0)
(3 1.3674e-08 0)
(3 2.62578e-08 0)
(3 6.22968e-08 0)
(3 1.11662e-07 0)
(3 2.99145e-07 0)
(3 5.1717e-07 0)
(3 1.60531e-06 0)
(3 2.61239e-06 0)
(2.99999 8.98027e-06 0)
(2.99999 1.48783e-05 0)
(2.99996 5.30108e-05 0)
(2.99991 0.000113575 0)
(2.99975 0.000283687 0)
(2.9996 0.000510009 0)
(3 2.22792e-13 0)
(3 1.29144e-12 0)
(3 4.19599e-12 0)
(3 1.05691e-11 0)
(3 2.49764e-11 0)
(3 5.39926e-11 0)
(3 1.17205e-10 0)
(3 2.40503e-10 0)
(3 5.09452e-10 0)
(3 1.02045e-09 0)
(3 2.17411e-09 0)
(3 4.25172e-09 0)
(3 9.43075e-09 0)
(3 1.7562e-08 0)
(3 4.24454e-08 0)
(3 7.5001e-08 0)
(3 2.0511e-07 0)
(3 3.73915e-07 0)
(3 1.03572e-06 0)
(3 1.98605e-06 0)
(3 5.82805e-06 0)
(2.99999 9.45067e-06 0)
(2.99997 3.88896e-05 0)
(2.99993 8.12495e-05 0)
(2.99981 0.000219274 0)
(3 7.27945e-14 0)
(3 4.49906e-13 0)
(3 1.40189e-12 0)
(3 3.65986e-12 0)
(3 8.34148e-12 0)
(3 1.85605e-11 0)
(3 3.87707e-11 0)
(3 8.16933e-11 0)
(3 1.63873e-10 0)
(3 3.42434e-10 0)
(3 6.56982e-10 0)
(3 1.44788e-09 0)
(3 2.61047e-09 0)
(3 6.54313e-09 0)
(3 1.20891e-08 0)
(3 3.26655e-08 0)
(3 6.50632e-08 0)
(3 1.69104e-07 0)
(3 3.35556e-07 0)
(3 8.97678e-07 0)
(3 1.70476e-06 0)
(3 4.90254e-06 0)
(2.99999 8.32395e-06 0)
(2.99997 3.01955e-05 0)
(2.99995 6.22461e-05 0)
(3 2.47613e-14 0)
(3 1.44432e-13 0)
(3 4.66868e-13 0)
(3 1.17955e-12 0)
(3 2.76606e-12 0)
(3 5.9633e-12 0)
(3 1.27188e-11 0)
(3 2.58684e-11 0)
(3 5.31824e-11 0)
(3 1.04115e-10 0)
(3 2.15623e-10 0)
(3 4.01111e-10 0)
(3 8.77794e-10 0)
(3 1.5568e-09 0)
(3 3.7751e-09 0)
(3 6.73187e-09 0)
(3 1.78017e-08 0)
(3 3.0296e-08 0)
(3 1.11624e-07 0)
(3 1.96137e-07 0)
(3 7.35106e-07 0)
(3 1.41052e-06 0)
(3 4.52492e-06 0)
(2.99999 8.46247e-06 0)
(2.99998 2.65759e-05 0)
(3 7.63387e-15 0)
(3 4.72802e-14 0)
(3 1.46684e-13 0)
(3 3.84954e-13 0)
(3 8.71295e-13 0)
(3 1.93591e-12 0)
(3 4.00203e-12 0)
(3 8.38326e-12 0)
(3 1.66617e-11 0)
(3 3.41515e-11 0)
(3 6.62401e-11 0)
(3 1.36266e-10 0)
(3 2.55654e-10 0)
(3 5.55559e-10 0)
(3 9.68495e-10 0)
(3 2.38112e-09 0)
(3 3.74332e-09 0)
(3 1.16434e-08 0)
(3 1.78928e-08 0)
(3 7.37105e-08 0)
(3 1.21489e-07 0)
(3 4.7427e-07 0)
(3 7.42224e-07 0)
(3 3.57417e-06 0)
(2.99999 5.63083e-06 0)
(3 2.26551e-15 0)
(3 1.423e-14 0)
(3 4.78583e-14 0)
(3 1.19863e-13 0)
(3 2.82621e-13 0)
(3 6.06379e-13 0)
(3 1.30211e-12 0)
(3 2.64906e-12 0)
(3 5.51161e-12 0)
(3 1.0991e-11 0)
(3 2.25567e-11 0)
(3 4.45952e-11 0)
(3 9.08533e-11 0)
(3 1.74529e-10 0)
(3 3.71375e-10 0)
(3 6.38221e-10 0)
(3 1.59323e-09 0)
(3 2.46151e-09 0)
(3 8.27149e-09 0)
(3 1.42913e-08 0)
(3 4.81107e-08 0)
(3 9.34876e-08 0)
(3 3.00835e-07 0)
(3 4.76729e-07 0)
(3 2.2775e-06 0)
(3 8.41114e-16 0)
(3 5.27472e-15 0)
(3 1.54989e-14 0)
(3 4.00609e-14 0)
(3 9.31215e-14 0)
(3 2.01672e-13 0)
(3 4.38534e-13 0)
(3 9.00035e-13 0)
(3 1.92715e-12 0)
(3 3.89858e-12 0)
(3 8.42241e-12 0)
(3 1.70392e-11 0)
(3 3.75349e-11 0)
(3 7.61046e-11 0)
(3 1.72399e-10 0)
(3 3.48175e-10 0)
(3 8.27558e-10 0)
(3 1.64411e-09 0)
(3 4.25424e-09 0)
(3 8.1335e-09 0)
(3 2.41024e-08 0)
(3 4.35598e-08 0)
(3 1.52669e-07 0)
(3 2.7084e-07 0)
(3 1.01088e-06 0)
(3 5.66882e-16 0)
(3 1.95363e-15 0)
(3 5.53196e-15 0)
(3 1.34245e-14 0)
(3 3.16726e-14 0)
(3 6.75588e-14 0)
(3 1.48892e-13 0)
(3 3.07437e-13 0)
(3 6.75835e-13 0)
(3 1.38328e-12 0)
(3 3.10429e-12 0)
(3 6.36751e-12 0)
(3 1.47391e-11 0)
(3 3.04162e-11 0)
(3 7.26313e-11 0)
(3 1.50011e-10 0)
(3 3.70011e-10 0)
(3 7.55491e-10 0)
(3 1.94828e-09 0)
(3 3.88538e-09 0)
(3 1.06297e-08 0)
(3 2.03126e-08 0)
(3 6.06407e-08 0)
(3 1.09235e-07 0)
(3 3.65066e-07 0)
(3 -2.22375e-16 0)
(3 -2.22539e-16 0)
(3 6.8785e-16 0)
(3 2.31769e-15 0)
(3 8.22137e-15 0)
(3 1.98156e-14 0)
(3 4.83266e-14 0)
(3 1.03625e-13 0)
(3 2.38099e-13 0)
(3 4.91303e-13 0)
(3 1.14713e-12 0)
(3 2.35045e-12 0)
(3 5.66321e-12 0)
(3 1.16154e-11 0)
(3 2.88438e-11 0)
(3 5.89786e-11 0)
(3 1.5053e-10 0)
(3 3.02484e-10 0)
(3 8.01853e-10 0)
(3 1.56036e-09 0)
(3 4.36516e-09 0)
(3 8.08099e-09 0)
(3 2.44479e-08 0)
(3 4.26621e-08 0)
(3 1.41072e-07 0)
(3 -2.29206e-16 0)
(3 -4.12194e-16 0)
(3 -6.97559e-16 0)
(3 -7.94007e-16 0)
(3 3.28785e-16 0)
(3 3.97496e-15 0)
(3 1.35036e-14 0)
(3 3.22087e-14 0)
(3 7.80173e-14 0)
(3 1.65277e-13 0)
(3 3.87566e-13 0)
(3 8.08948e-13 0)
(3 1.93443e-12 0)
(3 4.03799e-12 0)
(3 9.89749e-12 0)
(3 2.06021e-11 0)
(3 5.16671e-11 0)
(3 1.05958e-10 0)
(3 2.73991e-10 0)
(3 5.47558e-10 0)
(3 1.47539e-09 0)
(3 2.83856e-09 0)
(3 8.10965e-09 0)
(3 1.48974e-08 0)
(3 4.57181e-08 0)
(3 2.54819e-17 0)
(3 5.80954e-17 0)
(3 2.60633e-17 0)
(3 3.21629e-16 0)
(3 5.58829e-16 0)
(3 1.43916e-15 0)
(3 3.54575e-15 0)
(3 8.00776e-15 0)
(3 1.72246e-14 0)
(3 4.07304e-14 0)
(3 8.00655e-14 0)
(3 1.96228e-13 0)
(3 3.79309e-13 0)
(3 9.67341e-13 0)
(3 1.84825e-12 0)
(3 4.87589e-12 0)
(3 9.06508e-12 0)
(3 2.49721e-11 0)
(3 4.39051e-11 0)
(3 1.30326e-10 0)
(3 2.05998e-10 0)
(3 6.99646e-10 0)
(3 9.50474e-10 0)
(3 3.84616e-09 0)
(3 4.89781e-09 0)
(1.24061 1.28986 0)
(1.68564 1.19901 0)
(1.96685 1.08787 0)
(2.14611 0.961681 0)
(2.25347 0.81296 0)
(2.29033 0.636755 0)
(2.2773 0.443967 0)
(2.23395 0.248931 0)
(2.13012 0.0727218 0)
(1.99463 -0.0475804 0)
(1.88664 -0.0701525 0)
(1.83943 -0.0442065 0)
(1.83278 -0.00584325 0)
(1.8401 0.0214219 0)
(1.8489 0.0356357 0)
(1.85928 0.0369435 0)
(1.86765 0.0295625 0)
(1.87485 0.0195935 0)
(1.88201 0.0103529 0)
(1.88846 0.00291016 0)
(1.89498 -0.00146598 0)
(1.90302 -0.00325144 0)
(1.91274 -0.00364654 0)
(1.92353 -0.003648 0)
(1.93474 -0.00345515 0)
(1.94642 -0.00319143 0)
(1.95879 -0.0030157 0)
(1.97185 -0.00305972 0)
(1.9854 -0.00325899 0)
(1.99934 -0.00354229 0)
(2.01358 -0.00385914 0)
(2.02799 -0.0041698 0)
(2.0425 -0.00440514 0)
(2.05715 -0.00454575 0)
(2.07192 -0.00460923 0)
(2.08669 -0.00458959 0)
(2.10139 -0.00449824 0)
(2.11595 -0.00436603 0)
(2.1303 -0.00420567 0)
(2.14437 -0.00402227 0)
(2.1581 -0.00383314 0)
(2.17145 -0.0036465 0)
(2.18442 -0.00347193 0)
(2.19698 -0.00333867 0)
(2.20911 -0.00321843 0)
(2.22094 -0.00307161 0)
(2.23254 -0.00296813 0)
(2.24392 -0.0029366 0)
(2.25511 -0.0029154 0)
(2.26619 -0.00288318 0)
(2.2772 -0.00285883 0)
(2.2882 -0.00283915 0)
(2.29924 -0.0028154 0)
(2.31033 -0.00278246 0)
(2.32149 -0.00273491 0)
(2.33273 -0.00266346 0)
(2.34402 -0.002569 0)
(2.35537 -0.00246137 0)
(2.36676 -0.00233972 0)
(2.37814 -0.00220016 0)
(2.38948 -0.00204789 0)
(2.40074 -0.0018927 0)
(2.41186 -0.00173157 0)
(2.42279 -0.0015587 0)
(2.43346 -0.00137316 0)
(2.44377 -0.00117349 0)
(2.45363 -0.000961277 0)
(2.46293 -0.000739193 0)
(2.47159 -0.000513289 0)
(2.47953 -0.000286658 0)
(2.48667 -6.10098e-05 0)
(2.49296 0.000157584 0)
(2.49837 0.000370187 0)
(2.50289 0.000576308 0)
(2.50656 0.000766488 0)
(2.5094 0.000961969 0)
(2.51149 0.00113228 0)
(2.51291 0.0013053 0)
(2.51371 0.00140871 0)
(2.514 0.00151464 0)
(2.51407 0.00163485 0)
(2.51412 0.00176083 0)
(2.51395 0.00188299 0)
(2.51323 0.00197273 0)
(2.5119 0.00200652 0)
(2.51033 0.0019769 0)
(2.50891 0.00188598 0)
(2.50803 0.00180524 0)
(2.50775 0.00152516 0)
(2.50769 0.00107452 0)
(2.50795 0.000477892 0)
(2.50884 -0.000328018 0)
(2.51069 -0.000659027 0)
(2.51374 -0.00140149 0)
(2.51694 -0.00257748 0)
(2.52163 -0.00286298 0)
(2.52767 -0.00361596 0)
(2.5348 -0.00364157 0)
(2.54134 -0.00372067 0)
(2.54984 -0.00287827 0)
(1.36512 1.21988 0)
(1.70708 1.05305 0)
(1.9484 0.847265 0)
(2.10315 0.623063 0)
(2.18666 0.394558 0)
(2.21478 0.179972 0)
(2.21737 -0.000289944 0)
(2.22007 -0.143688 0)
(2.23354 -0.238991 0)
(2.24792 -0.274245 0)
(2.25387 -0.254401 0)
(2.25475 -0.207133 0)
(2.24643 -0.15418 0)
(2.23166 -0.109458 0)
(2.21825 -0.0772177 0)
(2.20943 -0.0589299 0)
(2.2067 -0.0508987 0)
(2.20903 -0.0487079 0)
(2.21384 -0.0495256 0)
(2.21933 -0.0506947 0)
(2.22546 -0.0506468 0)
(2.23182 -0.0493512 0)
(2.23823 -0.0473295 0)
(2.2449 -0.04508 0)
(2.25196 -0.0426323 0)
(2.25944 -0.0401099 0)
(2.26744 -0.0376256 0)
(2.27605 -0.0353619 0)
(2.28524 -0.0333955 0)
(2.2949 -0.0317218 0)
(2.30493 -0.0302953 0)
(2.31523 -0.0290548 0)
(2.32575 -0.0279252 0)
(2.33646 -0.0268584 0)
(2.34732 -0.0258161 0)
(2.3583 -0.0247785 0)
(2.36929 -0.0237396 0)