/*--------------------------------*- C++ -*----------------------------------*\
  =========                 |
  \\      /  F ield         | OpenFOAM: The Open Source CFD Toolbox
   \\    /   O peration     | Website:  https://openfoam.org
    \\  /    A nd           | Version:  6
     \\/     M anipulation  |
\*---------------------------------------------------------------------------*/
FoamFile
{
    version     2.0;
    format      ascii;
    class       surfaceScalarField;
    location    "62";
    object      phi;
}
// * * * * * * * * * * * * * * * * * * * * * * * * * * * * * * * * * * * * * //

dimensions      [0 3 -1 0 0 0 0];

internalField   nonuniform List<scalar> 
1300
(
3.75095
5.62643
-3.3437
3.75095
-7.75037
5.62643
-4.25907
4.25907
-0.480792
0.480792
1.87648
1.87447
-2.43887
2.43887
-1.8775
1.8775
-2.52704
2.52704
-5.248
5.248
-5.07004
5.07004
4.70366
-4.70366
-6.32148
6.32148
-0.975525
0.975525
-3.55925
3.55925
3.17257
-3.17257
-1.95151
1.95151
-0.0169062
0.0169062
-0.554086
4.30504
3.19687
3.19687
-1.96352
1.96352
-4.87434
4.87434
6.2225
-6.2225
5.26623
-5.26623
-1.92253
-2.48676
1.80329
-11.5082
-5.94708
-5.94708
-8.44099
8.44099
-2.81456
2.81187
2.94698
-2.94698
-1.72824
1.72824
-4.27346
0.0143956
-4.27346
4.2309
0.0281661
4.2309
-0.559227
0.0784355
-0.559227
3.92759
-3.92759
0.390545
0.0902466
0.390545
3.06722
-3.06722
-1.87686
3.75334
1.87409
-1.87209
6.17713
-1.87887
3.75334
-6.07303
6.07303
-2.66889
0.230026
-2.66889
2.23986
0.199008
2.23986
-6.88107
6.88107
-1.93337
0.055871
-1.93337
1.88727
-0.00977089
1.88727
2.88695
-2.88695
-2.63232
0.105286
-2.63232
2.38994
0.137096
2.38994
0.353392
5.27304
-5.97982
8.79169
-5.27304
0.0250397
5.21017
0.0378236
5.21017
-5.10531
0.0352715
-5.10531
5.01253
0.0575131
5.01253
4.7938
-0.0901398
4.7938
-4.82221
0.118555
-4.82221
-3.35943
-4.07957
-6.48267
0.161191
-6.48267
-1.03607
0.0605454
-1.03607
0.867432
0.108093
0.867432
-3.71347
3.71347
-3.91964
0.360385
-3.91964
3.12755
0.0450184
3.12755
1.86812
1.88283
5.61908
-5.61908
2.44651
-1.90256
-0.0489568
-1.90256
-2.01167
-3.25456
2.01167
-0.0601548
-0.238385
0.221479
-0.238385
3.1571
0.0397698
3.1571
2.2477
0.142246
-2.2477
0.284173
3.29589
-3.29589
1.30685
0.656676
1.30685
-5.55844
5.55844
4.96153
0.0509958
-4.96153
0.0871909
6.15739
0.0651081
6.15739
-6.20764
-0.0148578
-6.20764
2.48577
-4.97253
-2.64163
6.13396
0.187525
-6.13396
0.186879
2.91842
0.0285594
2.91842
-2.91988
2.91988
-2.98404
0.0370592
-2.98404
-2.15129
0.423054
-2.15129
1.41336
0.314879
1.41336
-4.18578
-0.0876812
-4.18578
-4.07761
0.157972
4.07761
0.153293
1.11414
-1.11414
-0.645455
0.0862279
-0.645455
-4.03219
-0.153588
4.03219
-0.104604
-3.87089
-0.0566945
-3.87089
-3.02177
0.0377389
3.02177
0.0454426
3.11207
0.0450307
-3.11207
0.0448495
-1.87099
3.75382
-1.87996
3.75406
-5.69136
-0.381671
-5.69136
6.35797
-0.284942
6.35797
3.08649
0.472758
-3.08649
0.417599
2.09986
0.139996
2.09986
-6.85556
-0.0255108
-6.85556
6.8851
-0.00403529
6.8851
2.00445
0.0954152
-2.00445
0.0710756
1.88416
0.00310831
1.88416
2.9142
-0.0272546
2.9142
-2.88109
-0.00586312
-2.88109
2.79296
-2.79296
2.72026
0.0726919
-2.72026
0.0879406
-11.1241
11.1093
-0.0362107
-11.0879
5.17396
5.17396
4.24814
0.545662
4.24814
-5.01657
0.194354
-5.01657
2.66089
-5.30251
3.09948
-6.45892
4.68063
-16.1888
4.2977
-8.37728
6.73393
-6.73393
6.61538
0.118549
-6.61538
0.132705
-1.13452
0.0984505
-1.13452
-3.11796
-0.595507
-3.11796
4.36113
-0.647667
4.36113
-3.0278
3.0278
-3.07651
0.0487087
3.07651
0.0510365
1.88115
0.00301254
-1.88115
-0.0214058
0.300821
0.089724
-0.300821
0.0624358
3.51554
-0.219643
3.51554
-3.09338
-0.202511
-3.09338
-1.22389
0.0893698
1.22389
0.0829558
-5.80736
0.248922
-5.80736
-11.1817
0.093828
-11.1439
-6.11381
-6.11381
2.32718
11.1189
-2.89663
0.015543
2.89663
0.0217872
2.97539
0.0524173
-2.97539
0.0555062
-2.8599
0.0669484
2.8599
0.0599754
-2.51973
0.368441
-2.51973
-1.0271
1.0271
-1.17595
0.148848
1.17595
0.23741
1.41211
-0.297973
1.41211
0.758998
0.108435
-0.758998
0.113543
-3.82012
-0.0507719
-3.82012
6.59472
-0.236747
6.59472
-2.96503
-0.128353
2.96503
-0.0508235
-0.0347842
11.144
-5.13918
0.0338697
5.13918
-11.2092
11.243
-3.22592
0.706192
3.22592
1.02221
5.28454
0.273901
-5.28454
0.267967
6.82494
0.0601637
-6.82494
0.0910127
-2.62807
-0.489894
-2.62807
-5.09516
-0.596204
5.09516
-0.734022
-11.4819
-0.203894
11.6858
-11.4244
6.01125
0.146135
-6.01125
11.3892
-0.99463
-0.119509
0.99463
0.0324694
1.75038
-0.338272
1.75038
3.72899
-0.213457
-3.72899
-0.0911302
-6.74945
-0.106107
6.74945
-0.154729
-2.17911
-0.448958
2.17911
-0.428724
-4.26736
4.30713
1.90977
-2.33819
-2.63434
-5.59276
1.85521
1.89861
4.30172
-10.1736
-6.01522
-9.98671
7.21425
-6.94628
-9.33449
9.24435
7.90199
-7.95869
-5.77763
5.82866
6.4845
-6.43906
1.87938
1.87396
8.03738
-7.80736
-15.6974
15.3157
7.58931
-7.53344
15.8511
-15.8766
-17.8979
17.9581
-5.69593
5.80122
-6.74145
6.73559
-6.97707
6.92625
-2.79453
-3.66439
13.1515
-12.9903
8.56295
-8.6119
-8.64964
9.01002
3.38459
0.922541
3.42962
-1.88183
3.76121
-1.87151
3.78127
2.74104
-5.53556
2.56148
-5.19581
4.34984
4.2131
-4.28969
-1.30307
-5.92824
5.9568
-5.80947
5.86945
9.15624
-9.14184
-1.88498
3.75894
-1.86908
3.76769
-3.42318
-2.35444
3.37816
0.923554
8.08671
5.06474
-8.27424
-1.71247
-8.01301
7.79955
-8.21196
8.00945
-0.437675
5.83824
-5.40057
4.43666
-1.65269
7.49094
5.56155
5.7559
5.8604
-5.5865
1.08588
-6.48644
-6.39925
-2.35853
2.44476
2.24492
-2.15467
6.11973
1.78226
6.01513
-5.79049
-2.16819
-5.84127
3.81997
2.00869
3.86868
4.08189
2.40261
4.11963
3.02979
-3.03657
0.00677838
-3.05917
6.08896
0.722371
-5.41362
-4.49006
4.99365
3.04373
5.19266
-5.56826
-2.2391
-5.15066
-9.59592
-6.10145
-10.1921
10.101
5.21471
9.81604
-11.979
11.8242
4.88041
2.7089
4.87064
-4.95307
-2.58037
-4.88199
11.6768
-2.63472
-9.04206
-10.3478
-7.55017
10.3518
5.49929
10.9944
6.96371
11.0854
4.43215
7.24463
-9.93143
2.38126
-3.86328
-1.83266
-3.77533
3.65949
2.14173
3.79659
-4.21848
-2.52297
-4.20293
-4.29429
-2.68278
4.32155
2.41404
-4.415
-3.79696
4.54335
2.3829
4.06217
-10.0774
4.31511
-7.9795
-9.22295
-3.76732
-9.09024
3.53297
2.59617
-6.12913
-2.0026
8.50148
-4.28837
7.19841
-5.19371
-3.41819
-5.21512
-6.9466
-1.70304
-6.78863
-8.93344
8.44355
-9.21605
8.56838
12.5467
-5.6561
-6.89059
-3.96696
-2.4721
3.92211
-0.492496
-3.71006
3.71684
0.0511441
3.83242
4.75496
4.26246
-3.88209
-1.92738
-3.82658
3.82116
2.04829
3.88811
6.83356
2.32268
6.86172
-6.5916
-2.55024
-6.67928
9.11043
-8.68737
2.81165
-2.72228
5.36832
2.64113
-5.14868
-2.86433
6.24143
-3.21136
-3.03007
-12.3466
10.8076
1.53897
-4.85564
-0.418972
-0.402066
-5.57366
-3.76083
5.4551
0.300801
11.1084
7.34757
-5.51475
5.76367
6.17109
6.22209
-0.177168
5.89717
-5.19098
5.27756
-2.68036
-2.59721
5.45791
-5.6115
-1.22137
-5.52597
4.3046
0.403626
1.55687
-1.3354
-1.82692
-0.531606
-1.71338
1.26945
0.975469
1.35918
0.932352
1.5124
-2.92564
0.563833
2.36181
-1.99329
-1.59084
-3.77252
-1.14642
4.91894
5.71392
2.08563
-5.62279
-0.218477
2.59837
-2.49028
-0.804164
-2.96836
2.21801
-3.02217
-3.48293
-1.91543
5.39836
-3.36877
-0.457807
3.31636
0.552325
-3.82797
-2.10027
3.79091
0.328718
-3.12849
6.19012
-3.06162
-5.05588
2.52892
3.56004
4.53761
-4.79014
2.44906
2.34109
-1.2301
4.26649
0.926171
4.40648
-7.01031
4.77121
5.7139
3.29613
-6.18665
1.03599
-5.97431
8.59649
-7.43898
-1.15751
4.16551
4.43098
7.05147
5.49522
-5.71914
12.7706
-1.19355
-6.24543
7.16787
-3.87174
4.87698
-8.74872
-10.3722
4.12677
-9.21716
11.0717
-1.85458
-3.61237
-8.36659
12.8295
-1.2127
-11.6168
8.60334
-4.29246
-4.34514
8.6376
-6.92718
6.92551
-1.99545
-4.93006
-10.1615
-5.71506
10.2677
1.55658
-9.91045
12.2917
-2.66582
4.15986
0.710781
4.16297
3.33394
-5.46274
2.12879
3.59324
-5.58869
2.06827
-7.53101
-6.76876
12.1084
-5.33968
-10.5361
-9.56386
-0.972227
2.55398
9.73773
-9.51769
7.45014
2.06755
3.29839
0.589721
-3.37108
-0.404254
0.237777
4.51348
-4.75126
4.03436
4.17661
3.22631
1.28717
3.84902
2.10778
-3.8708
-0.332129
-4.16751
1.48473
-1.75347
-3.69269
5.17742
-4.06156
0.368868
-2.74741
-3.49439
6.2418
-4.58007
3.03632
3.1538
5.0846
-4.91471
1.42032
-2.39106
-2.52365
2.64124
-4.39471
1.99835
3.17907
4.38124
0.584276
5.91233
6.19611
-8.5085
0.528999
11.2609
-9.54839
2.48298
8.60243
-9.93312
0.36926
-8.72098
0.975529
-5.2639
-5.1536
5.21825
-6.92129
-3.53047
6.23831
0.623415
-6.3916
-0.397026
-6.07105
-2.86239
-6.52
-3.04743
-6.16862
-8.76658
-1.67942
-7.08715
6.76413
-6.71739
-3.47473
7.45141
1.11698
-7.4829
7.36339
-7.54303
7.20476
0.0947684
3.62207
4.35723
1.88513
-2.39197
4.2771
-5.06892
7.3916
-8.72859
3.65967
4.2181
-6.76834
-4.51049
5.06312
4.04731
5.378
8.93428
-10.3939
1.45964
-10.6668
12.006
-1.33916
-16.4516
5.78479
-7.51735
2.43627
0.37538
2.53472
0.560127
2.49309
-3.05322
-2.16215
-2.07919
-2.43456
-3.49756
5.93212
1.07864
-3.4622
2.38357
-3.58648
4.66512
-0.0529759
-3.40923
5.19157
-2.69848
5.56695
-3.63946
1.92749
3.54296
5.84379
-2.30083
4.42249
-1.78136
1.9394
-4.24023
-1.55816
-2.95672
5.09845
-3.28508
3.65395
-0.347191
4.00114
-4.06299
0.85163
-0.836677
3.33993
3.62411
4.33093
-3.04376
2.93938
-4.72073
-1.30086
-4.13646
-0.957384
-0.190251
-3.7904
3.98065
6.01682
-6.20707
-5.28738
9.53331
-4.24594
7.70914
-5.444
-2.26514
-4.29638
-4.39099
3.92794
1.96923
9.67837
0.17955
-5.62355
-5.01143
-3.98922
3.10717
2.17039
-1.774
3.31298
2.17607
-0.619195
0.410745
0.94843
1.77071
-1.35997
0.324529
1.44618
-1.01087
1.75205
0.846318
-1.86049
0.147106
-1.27634
3.49435
1.08547
-2.06094
0.700972
0.903612
-3.58397
5.04753
-2.70374
-2.34379
5.95114
1.1482
-3.85194
4.37777
-3.97415
2.43136
-3.57777
-1.42058
-5.39473
-3.61247
-2.49814
4.88171
-3.43398
5.51961
1.39878
-5.30113
6.69991
-3.6281
1.71267
-3.06949
3.91581
-1.03702
-2.03247
2.88746
2.5109
-3.11598
0.147614
-0.228519
2.41328
-2.64179
-0.608893
-2.60218
-4.57574
4.90446
-2.10398
4.55303
2.17313
-1.91734
6.47037
1.80795
-3.72529
-3.24793
-3.70574
-1.3842
3.15341
-0.604321
-4.27767
-5.53438
4.18226
0.22423
-7.05779
7.9044
-0.846605
-4.01406
-0.757149
4.92265
-6.07425
0.485561
-4.00598
3.89842
4.82459
5.04882
-11.3801
-0.236754
-6.16537
1.1153
-7.28067
5.54629
-3.54536
7.67213
-10.3422
6.8675
-9.22526
6.51462
-0.76605
6.25364
-4.12484
2.78842
-8.50348
-6.94689
5.51026
-2.80136
6.22104
-3.17042
9.39146
-5.83623
5.29822
4.09323
-1.03446
-4.18066
-5.28355
4.24909
0.0146783
4.17765
4.98678
-2.87899
4.65465
2.26304
-4.65409
-2.13167
-6.48775
1.83366
-3.33395
-1.92212
3.75578
3.16248
3.7522
1.23213
-3.34795
7.23186
-8.20408
-1.89218
-3.26142
5.26332
-1.01423
3.41878
-6.6802
-1.84513
4.7613
-0.729064
-4.03224
0.894794
-4.42526
1.66713
-6.09239
5.25416
-5.65119
2.254
-9.77136
-5.22889
-5.19642
-2.27993
-5.2631
-7.5871
5.30718
-1.80231
5.56107
-8.53021
7.80114
-3.47579
8.78297
-5.4653
-1.0547
5.89402
1.31073
10.0937
0.151745
-4.66224
-1.93233
3.74905
-1.81672
1.17484
-3.63865
0.110399
2.48582
3.46532
-6.79043
0.0220828
-4.64016
-3.91217
7.95948
5.62114
11.638
1.24405
9.14783
-1.18836
10.3919
4.18964
4.42705
-3.01532
4.47496
0.965331
4.625
-0.881847
2.80933
1.65287
1.71341
0.776862
2.29535
1.32875
3.14698
0.0937645
-1.98543
4.63786
-8.62707
-0.985694
-8.08141
1.16294
5.42839
-4.26545
2.9001
-0.729708
1.08338
-0.134912
-1.28137
1.41628
-2.73212
-1.90056
-0.45438
-1.62927
2.33024
1.86508
-1.87586
-0.856263
0.330522
-3.94299
3.24725
-3.09964
-0.588731
6.11118
-2.88586
0.244063
-1.17319
-2.35812
-2.88973
2.74262
6.1744
0.295973
3.11278
5.20043
3.10016
0.221169
3.82426
-5.67884
-3.70675
-5.91559
-0.369303
4.55335
1.73848
7.99925
5.83172
4.81749
-1.86272
-10.0668
6.5214
-2.04644
5.18224
-1.15
-4.94239
5.07033
2.32127
-5.69375
0.0425603
-4.89983
-6.94627
-0.482345
8.28349
-9.61136
8.55665
5.69426
1.3929
-4.4404
-0.756025
4.29155
0.135504
10.5274
-0.909489
-7.08166
7.99115
-4.5189
3.53321
0.687994
2.62498
2.10427
1.37457
-5.7071
-9.97255
-2.04148
-1.54248
-4.38528
0.533665
-2.39875
6.07867
-2.54546
3.81354
5.44569
6.52907
-2.05226
-4.15481
6.2982
-2.48466
4.04441
)
;

boundaryField
{
    wall-4
    {
        type            calculated;
        value           uniform 0;
    }
    velocity-inlet-5
    {
        type            calculated;
        value           uniform -3.75095;
    }
    velocity-inlet-6
    {
        type            calculated;
        value           uniform -5.62643;
    }
    pressure-outlet-7
    {
        type            calculated;
        value           nonuniform List<scalar> 8(3.3437 7.75037 4.40929 9.70488 7.43901 5.12739 5.76037 8.97833);
    }
    wall-8
    {
        type            calculated;
        value           uniform 0;
    }
    frontAndBackPlanes
    {
        type            empty;
        value           nonuniform 0();
    }
}


// ************************************************************************* //
