/*--------------------------------*- C++ -*----------------------------------*\
  =========                 |
  \\      /  F ield         | OpenFOAM: The Open Source CFD Toolbox
   \\    /   O peration     | Website:  https://openfoam.org
    \\  /    A nd           | Version:  6
     \\/     M anipulation  |
\*---------------------------------------------------------------------------*/
FoamFile
{
    version     2.0;
    format      ascii;
    class       volScalarField;
    location    "3.5";
    object      Ma;
}
// * * * * * * * * * * * * * * * * * * * * * * * * * * * * * * * * * * * * * //

dimensions      [0 0 0 0 0 0 0];

internalField   nonuniform List<scalar> 
5250
(
2.99989
2.9997
2.99911
2.99815
2.99499
2.9899
2.97329
2.94388
2.86255
2.6808
2.29626
1.49486
0.429477
0.0808764
0.119791
0.303149
0.350942
0.317726
0.25637
0.198636
0.161094
0.129882
0.0966695
0.0629055
0.0437842
2.99989
2.9997
2.99911
2.99816
2.99501
2.98994
2.97339
2.94411
2.86307
2.68207
2.29861
1.49957
0.43468
0.0795471
0.129775
0.309734
0.354853
0.320881
0.260703
0.205827
0.170419
0.140834
0.110447
0.0823157
0.0689571
2.99989
2.9997
2.99912
2.99817
2.99505
2.99003
2.97362
2.94461
2.8642
2.68491
2.30393
1.51121
0.447688
0.0762487
0.147721
0.320148
0.361559
0.327262
0.269882
0.220598
0.189595
0.163773
0.138713
0.117955
0.109069
2.99989
2.99971
2.99913
2.9982
2.99512
2.99017
2.97399
2.94541
2.86599
2.6895
2.31261
1.53066
0.468862
0.076419
0.171419
0.333924
0.371529
0.338088
0.285235
0.24287
0.217152
0.195971
0.176572
0.161854
0.15616
2.99989
2.99971
2.99915
2.99824
2.99522
2.99037
2.97449
2.94652
2.86843
2.69603
2.32462
1.559
0.500303
0.086254
0.200167
0.350943
0.384439
0.352923
0.305845
0.270482
0.250026
0.233723
0.219455
0.209333
0.205989
2.9999
2.99972
2.99917
2.99828
2.99534
2.99062
2.97509
2.94797
2.8715
2.70372
2.34033
1.58583
0.541172
0.110797
0.232603
0.369641
0.399848
0.371697
0.331424
0.303153
0.287773
0.276246
0.267238
0.261467
0.260256
2.9999
2.99973
2.9992
2.99834
2.99548
2.99093
2.97585
2.94976
2.87529
2.71331
2.35998
1.61941
0.594534
0.149639
0.267924
0.387059
0.416683
0.393671
0.361142
0.339982
0.330471
0.324426
0.320926
0.320712
0.323244
2.9999
2.99974
2.99923
2.99841
2.99566
2.99131
2.97676
2.95192
2.87994
2.72473
2.38398
1.6602
0.658073
0.200964
0.306265
0.405604
0.435759
0.418911
0.39498
0.380488
0.377268
0.378149
0.383098
0.391564
0.402264
2.99991
2.99975
2.99927
2.99849
2.99587
2.99174
2.97787
2.95437
2.88549
2.73821
2.41187
1.71001
0.729904
0.263183
0.346426
0.423834
0.456225
0.446932
0.432215
0.425443
0.428865
0.43822
0.455369
0.480279
0.514227
2.99992
2.99977
2.99932
2.99858
2.99612
2.99225
2.97917
2.95719
2.89205
2.75385
2.44444
1.76857
0.811926
0.336607
0.383309
0.441165
0.477006
0.476829
0.47066
0.471847
0.483583
0.506022
0.542784
0.597628
0.701654
2.99992
2.99979
2.99937
2.99869
2.99642
2.99285
2.98071
2.96054
2.89986
2.77241
2.48383
1.84164
0.913116
0.418333
0.412757
0.463424
0.499973
0.507469
0.508947
0.518455
0.541446
0.580492
0.641493
0.74174
0.899428
2.99993
2.99981
2.99943
2.99882
2.99676
2.99355
2.98252
2.96444
2.909
2.79462
2.53094
1.93184
1.04003
0.509048
0.442083
0.482649
0.521499
0.537746
0.547961
0.566593
0.600324
0.653998
0.730382
0.848597
1.01344
2.99994
2.99983
2.9995
2.99896
2.99716
2.99435
2.98464
2.96898
2.9199
2.82021
2.58877
2.03741
1.19448
0.607099
0.46772
0.499534
0.542225
0.568853
0.587574
0.613522
0.654451
0.713257
0.795992
0.906448
1.04332
2.99995
2.99986
2.99957
2.99911
2.99757
2.99517
2.98688
2.97362
2.93136
2.84864
2.64861
2.17567
1.38238
0.717567
0.502099
0.527087
0.571449
0.605219
0.627951
0.65768
0.700778
0.75873
0.836348
0.934029
1.04884
2.99996
2.99988
2.99965
2.99926
2.99798
2.99599
2.98914
2.9783
2.943
2.87862
2.70938
2.34055
1.63641
0.836437
0.558278
0.579237
0.617357
0.650536
0.672927
0.7004
0.742695
0.796583
0.866885
0.94991
1.04684
2.99997
2.9999
2.99971
2.99939
2.99832
2.99666
2.99094
2.98196
2.95223
2.8993
2.75454
2.44599
1.80532
0.922559
0.59351
0.620792
0.659934
0.69604
0.717595
0.741463
0.778895
0.828052
0.891193
0.96425
1.04614
2.99997
2.99992
2.99976
2.9995
2.99862
2.99726
2.99252
2.98517
2.96046
2.91653
2.79832
2.52189
1.98975
1.06061
0.674729
0.656434
0.693464
0.728494
0.755275
0.778762
0.812111
0.855204
0.910217
0.974924
1.04614
2.99998
2.99994
2.99981
2.99959
2.99888
2.99779
2.99395
2.98806
2.96797
2.93302
2.83544
2.60688
2.16311
1.28372
0.803115
0.692339
0.716339
0.747342
0.780149
0.80793
0.840052
0.880716
0.928142
0.984499
1.04697
2.99999
2.99995
2.99985
2.99968
2.99913
2.99827
2.99526
2.99072
2.97487
2.9485
2.87141
2.69748
2.34428
1.56368
0.968011
0.752787
0.750328
0.77172
0.803637
0.833849
0.865279
0.902228
0.945971
0.994628
1.04929
2.99999
2.99997
2.99989
2.99976
2.99934
2.99868
2.99639
2.99297
2.98076
2.9617
2.90062
2.78374
2.49795
1.9156
1.15294
0.83531
0.800529
0.81178
0.836513
0.8656
0.893651
0.925942
0.963906
1.00751
1.05433
3
2.99998
2.99992
2.99982
2.9995
2.99902
2.9973
2.99478
2.98559
2.9717
2.9259
2.83577
2.6234
2.11796
1.36776
0.931984
0.841804
0.848539
0.869324
0.897018
0.9227
0.950514
0.983227
1.02106
1.06285
3
2.99998
2.99994
2.99987
2.99964
2.99928
2.99801
2.99615
2.98936
2.97925
2.94445
2.8828
2.71968
2.3516
1.68051
1.07849
0.895719
0.887474
0.90202
0.925897
0.951829
0.976516
1.00382
1.03578
1.07202
3
2.99999
2.99996
2.99991
2.99974
2.99948
2.99857
2.99725
2.99238
2.98524
2.96006
2.91835
2.79531
2.55287
1.99617
1.27178
0.972598
0.926838
0.935149
0.954921
0.979475
1.0029
1.02733
1.05467
1.08546
3
3
2.99997
2.99994
2.99982
2.99964
2.99901
2.9981
2.99472
2.98989
2.97246
2.94426
2.85899
2.67385
2.2943
1.53969
1.10887
0.976527
0.96944
0.979641
1.00016
1.02428
1.0478
1.07287
1.10053
3
3
2.99998
2.99996
2.99988
2.99976
2.99934
2.99871
2.99645
2.99321
2.98127
2.96324
2.90425
2.79369
2.51774
1.97919
1.30305
1.05471
1.01736
1.01553
1.02893
1.04955
1.07095
1.09317
1.11727
3.00001
3
2.99999
2.99997
2.99994
2.99982
2.99963
2.99899
2.99806
2.99465
2.98969
2.9726
2.94206
2.85876
2.66613
2.27659
1.55793
1.16178
1.05442
1.04638
1.05435
1.07257
1.09545
1.11626
1.13749
3.00001
3
3
2.99998
2.99996
2.99988
2.99976
2.99934
2.99874
2.99647
2.99337
2.98151
2.96415
2.90585
2.79945
2.52799
2.01055
1.36975
1.12508
1.08776
1.08675
1.09995
1.12024
1.1404
1.15943
3.00001
3.00001
3
2.99999
2.99998
2.99993
2.99985
2.99959
2.99923
2.99785
2.99597
2.98909
2.97817
2.9434
2.86885
2.69699
2.2675
1.63722
1.22237
1.12001
1.1129
1.1231
1.14107
1.16339
1.18334
3.00001
3.00001
3
3
2.99999
2.99996
2.99991
2.99974
2.9995
2.9986
2.99738
2.99252
2.98601
2.96092
2.92152
2.79965
2.57083
2.01765
1.44344
1.19285
1.14806
1.1479
1.16014
1.17987
1.20267
3.00001
3.00001
3.00001
3
2.99999
2.99998
2.99994
2.99988
2.99967
2.99937
2.99829
2.99667
2.99126
2.98129
2.95196
2.88525
2.72752
2.35499
1.7427
1.31914
1.19332
1.17436
1.18057
1.19611
1.21715
3.00001
3.00001
3.00001
3
3
2.99999
2.99997
2.99992
2.99984
2.99955
2.99914
2.99766
2.99547
2.98785
2.97428
2.93288
2.84097
2.63461
2.16694
1.56223
1.28458
1.22143
1.21258
1.21856
1.23282
3.00001
3.00001
3.00001
3.00001
3
3
2.99999
2.99995
2.9999
2.99972
2.99947
2.99846
2.99722
2.99189
2.98517
2.95832
2.91547
2.78985
2.52561
1.99994
1.46813
1.2715
1.2436
1.24261
1.25199
3.00001
3.00001
3.00001
3.00001
3.00001
3
3
2.99997
2.99995
2.99984
2.99969
2.9991
2.99837
2.99521
2.99147
2.97517
2.95298
2.87399
2.73191
2.37713
1.7994
1.39992
1.28204
1.2663
1.26818
3.00001
3.00001
3.00001
3.00001
3.00001
3
3
2.99999
2.99997
2.99991
2.99983
2.99952
2.99913
2.99747
2.9955
2.98704
2.97568
2.93287
2.85521
2.65637
2.22814
1.66347
1.37439
1.3051
1.29383
3.00001
3.00001
3.00001
3.00001
3.00001
3.00001
3
3
2.99999
2.99996
2.99991
2.99975
2.99954
2.99863
2.99758
2.99281
2.98712
2.96262
2.92673
2.80954
2.59201
2.09068
1.60647
1.37994
1.32939
3.00001
3.00001
3.00001
3.00001
3.00001
3.00001
3.00001
3
3
2.99999
2.99997
2.99993
2.99982
2.99961
2.9991
2.99787
2.99487
2.9865
2.96391
2.91021
2.7731
2.48268
1.9625
1.54051
1.38141
3.00001
3.00001
3.00001
3.00001
3.00001
3.00001
3.00001
3.00001
3
3
2.99999
2.99998
2.99994
2.99988
2.99967
2.99945
2.99811
2.99621
2.98628
2.96299
2.89649
2.74105
2.3812
1.86992
1.50335
3.00001
3.00001
3.00001
3.00001
3.00001
3.00001
3.00001
3.00001
3.00001
3
3
2.99998
2.99996
2.99985
2.99974
2.99915
2.99855
2.99524
2.99175
2.97382
2.95123
2.86086
2.71529
2.32354
1.83306
3.00001
3.00001
3.00001
3.00001
3.00001
3.00001
3.00001
3.00001
3.00001
3.00001
3
3
2.99997
2.99995
2.99983
2.99969
2.99907
2.99834
2.99497
2.99073
2.97234
2.94563
2.84958
2.69424
2.27014
3.00001
3.00001
3.00001
3.00001
3.00001
3.00001
3.00001
3.00001
3.00001
3.00001
3
3
2.99999
2.99997
2.99994
2.99982
2.99967
2.99902
2.99824
2.99475
2.99017
2.97101
2.94194
2.84144
2.67585
3.00001
3.00001
3.00001
3.00001
3.00001
3.00001
3.00001
3.00001
3.00001
3.00001
3.00001
3.00001
3
3
2.99998
2.99995
2.99991
2.99969
2.99941
2.99802
2.99718
2.98953
2.97574
2.93792
2.8383
3.00001
3.00001
3.00001
3.00001
3.00001
3.00001
3.00001
3.00001
3.00001
3.00001
3.00001
3.00001
3.00001
3
3
2.99999
2.99996
2.9999
2.99971
2.99944
2.99796
2.99736
2.98917
2.97484
2.93633
3.00001
3.00001
3.00001
3.00001
3.00001
3.00001
3.00001
3.00001
3.00001
3.00001
3.00001
3.00001
3.00001
3.00001
3
3
2.99999
2.99996
2.9999
2.99972
2.99947
2.99798
2.99747
2.98858
2.96727
3.00001
3.00001
3.00001
3.00001
3.00001
3.00001
3.00001
3.00001
3.00001
3.00001
3.00001
3.00001
3.00001
3.00001
3.00001
3
3
2.99999
2.99996
2.99992
2.99966
2.99892
2.9983
2.99293
2.98925
3.00001
3.00001
3.00001
3.00001
3.00001
3.00001
3.00001
3.00001
3.00001
3.00001
3.00001
3.00001
3.00001
3.00001
3.00001
3.00001
3
3
2.99998
2.99995
2.99975
2.99946
2.9974
2.99678
2.98158
3.00001
3.00001
3.00001
3.00001
3.00001
3.00001
3.00001
3.00001
3.00001
3.00001
3.00001
3.00001
3.00001
3.00001
3.00001
3.00001
3
3
2.99998
2.99996
2.99977
2.99949
2.99753
2.99728
2.98308
3.00001
3.00001
3.00001
3.00001
3.00001
3.00001
3.00001
3.00001
3.00001
3.00001
3.00001
3.00001
3.00001
3.00001
3.00001
3.00001
3
3
2.99998
2.99996
2.99969
2.99931
2.99643
2.99708
2.97991
3.00001
3.00001
3.00001
3.00001
3.00001
3.00001
3.00001
3.00001
3.00001
3.00001
3.00001
3.00001
3.00001
3.00001
3.00001
3.00001
3
3
2.99998
2.99996
2.99964
2.99923
2.99599
2.99433
2.97209
3.00001
3.00001
3.00001
3.00001
3.00001
3.00001
3.00001
3.00001
3.00001
3.00001
3.00001
3.00001
3.00001
3.00001
3.00001
3.00001
3.00001
3
2.99999
2.99994
2.99985
2.99939
2.99882
2.99508
2.99812
3.00001
3.00001
3.00001
3.00001
3.00001
3.00001
3.00001
3.00001
3.00001
3.00001
3.00001
3.00001
3.00001
3.00001
3.00001
3.00001
3
3
2.99998
2.99995
2.99964
2.99921
2.99598
2.99406
2.97251
1.12219
1.34256
1.49296
1.58245
1.60569
1.57126
1.50248
1.42372
1.30521
1.19364
1.11724
1.08415
1.07645
1.07694
1.07704
1.07538
1.07085
1.06294
1.05164
1.03829
1.01833
0.981277
0.90664
0.760622
0.482092
0.194831
0.108029
0.141174
0.164907
0.211467
0.277922
0.342727
0.395222
0.434204
0.460778
0.476226
0.48474
0.48629
0.475578
0.45025
0.41139
0.363298
0.309859
0.255564
0.201476
0.148243
0.0994717
0.0567405
0.0400045
0.0754365
0.0974884
0.129499
0.164197
0.19647
0.22658
0.256414
0.287532
0.317217
0.345759
0.372675
0.399166
0.424394
0.449432
0.473267
0.497023
0.51961
0.54231
0.563825
0.585642
0.60624
0.62735
0.647178
0.667678
0.686894
0.706907
0.725605
0.745162
0.763557
0.782614
0.800858
0.819552
0.837624
0.856107
0.873989
0.892268
0.910043
0.928039
0.945777
0.963557
0.981175
0.99893
1.01627
1.03413
1.05114
1.06884
1.08538
1.10194
1.11673
1.12907
1.13755
1.1774
1.32151
1.42045
1.47686
1.4949
1.48954
1.48429
1.49623
1.52087
1.53864
1.54143
1.53024
1.50968
1.48531
1.46489
1.45189
1.44562
1.44178
1.43789
1.43175
1.4189
1.39098
1.33167
1.20901
0.966155
0.654876
0.460732
0.368043
0.298319
0.233438
0.17045
0.113885
0.0760474
0.0940215
0.14804
0.196357
0.223933
0.23602
0.220745
0.185565
0.145359
0.104486
0.0730935
0.0765492
0.112831
0.136539
0.170573
0.20557
0.239084
0.270132
0.299212
0.329027
0.358949
0.387655
0.414526
0.440214
0.467116
0.493567
0.51914
0.543114
0.566862
0.589463
0.612067
0.633559
0.655249
0.675775
0.696701
0.716407
0.736612
0.755576
0.77513
0.793475
0.81249
0.83039
0.848997
0.866655
0.884824
0.902436
0.920116
0.937712
0.955026
0.972413
0.989606
1.0066
1.02371
1.04037
1.05734
1.07377
1.09064
1.10701
1.12397
1.14046
1.15744
1.17409
1.19077
1.20742
1.22306
1.23844
1.25029
1.25968
1.16734
1.27572
1.36603
1.44174
1.50932
1.57584
1.63955
1.6949
1.73882
1.76717
1.77431
1.77086
1.75905
1.73765
1.71175
1.69056
1.67503
1.66404
1.6571
1.65068
1.64173
1.62448
1.58371
1.50595
1.32423
1.04987
0.817956
0.70168
0.630475
0.56463
0.495867
0.428448
0.362711
0.298978
0.236575
0.178067
0.127874
0.0915505
0.0834701
0.128581
0.180498
0.230773
0.274191
0.311587
0.341823
0.368366
0.394805
0.421025
0.446354
0.470122
0.493203
0.515965
0.539263
0.561848
0.583597
0.603886
0.62503
0.646863
0.668454
0.688756
0.708864
0.728142
0.747668
0.766242
0.785255
0.803218
0.821791
0.83937
0.857466
0.874894
0.892315
0.909724
0.92635
0.943777
0.959773
0.977168
0.992982
1.01022
1.02613
1.04321
1.05923
1.07607
1.09221
1.10878
1.12479
1.14129
1.157
1.17353
1.18909
1.20555
1.22093
1.23716
1.25247
1.26848
1.28365
1.29928
1.31384
1.32786
1.33929
1.34698
1.15835
1.25761
1.34666
1.42884
1.5053
1.57654
1.64181
1.69936
1.74705
1.78262
1.80873
1.82519
1.83258
1.83333
1.83063
1.82157
1.80769
1.7941
1.78108
1.76889
1.75877
1.74677
1.72417
1.67597
1.57122
1.3659
1.08504
0.947536
0.876957
0.809882
0.75278
0.694997
0.635055
0.575831
0.514944
0.457735
0.405205
0.368377
0.365652
0.393588
0.436209
0.480499
0.520091
0.550305
0.571674
0.587084
0.602005
0.616849
0.632871
0.648199
0.664019
0.679571
0.695946
0.712148
0.7285
0.74349
0.759409
0.776003
0.79394
0.810476
0.827198
0.843128
0.859559
0.875558
0.891631
0.907744
0.923375
0.93974
0.955059
0.971518
0.986666
1.00306
1.01823
1.03453
1.04975
1.06595
1.08119
1.09724
1.11271
1.12856
1.14456
1.16008
1.17655
1.19175
1.20848
1.22369
1.24052
1.25567
1.27259
1.28766
1.3047
1.31974
1.33681
1.35169
1.36866
1.38308
1.39931
1.41227
1.42507
1.43209
1.14495
1.23796
1.32395
1.40364
1.47796
1.54689
1.61037
1.66852
1.7211
1.76823
1.80982
1.84454
1.87182
1.89104
1.90078
1.90144
1.89929
1.89229
1.88121
1.86958
1.85731
1.84435
1.82873
1.79745
1.73795
1.59663
1.38513
1.15526
1.05047
0.997966
0.945273
0.89293
0.843852
0.788636
0.731151
0.670132
0.611623
0.575625
0.576801
0.604785
0.646619
0.689848
0.726325
0.751993
0.764864
0.76966
0.772289
0.77621
0.782146
0.789567
0.79816
0.807632
0.818315
0.829395
0.841069
0.851997
0.86355
0.876134
0.890423
0.904661
0.918464
0.932452
0.946412
0.961134
0.975108
0.989751
1.00349
1.01832
1.0326
1.04785
1.0624
1.07746
1.09182
1.1067
1.12132
1.13626
1.15152
1.16632
1.18192
1.19639
1.21206
1.22637
1.24229
1.25685
1.27319
1.2877
1.30428
1.31879
1.33519
1.34986
1.366
1.38084
1.39692
1.41201
1.42783
1.44299
1.45793
1.47201
1.48392
1.49215
1.13296
1.21817
1.29886
1.37433
1.44511
1.51108
1.57306
1.63052
1.68436
1.73356
1.77886
1.81935
1.8552
1.8852
1.90922
1.9259
1.9363
1.93933
1.93894
1.93541
1.92838
1.91832
1.90536
1.88719
1.85038
1.78012
1.61783
1.39876
1.21357
1.12987
1.08533
1.04191
0.994109
0.943428
0.885552
0.814565
0.749245
0.71816
0.723203
0.751738
0.794544
0.839161
0.875578
0.900421
0.915353
0.918189
0.91279
0.906731
0.903582
0.903933
0.906943
0.911923
0.918509
0.926307
0.93473
0.943089
0.951244
0.960496
0.971584
0.98445
0.997053
1.00966
1.0217
1.03452
1.04737
1.06102
1.07434
1.08799
1.10124
1.11505
1.12877
1.14313
1.15733
1.17167
1.186
1.20017
1.21485
1.22915
1.24424
1.25858
1.27395
1.28824
1.30388
1.31781
1.33371
1.3475
1.36371
1.37779
1.39412
1.40864
1.42477
1.43965
1.45539
1.47032
1.48564
1.50042
1.51504
1.5289
1.54095
1.54929
1.12285
1.19986
1.27473
1.34566
1.41295
1.47616
1.53597
1.59214
1.6451
1.69465
1.74094
1.78378
1.82316
1.85885
1.89072
1.91819
1.94055
1.95697
1.9681
1.97282
1.97275
1.97052
1.96466
1.95431
1.93548
1.89543
1.81528
1.63677
1.40842
1.25919
1.1885
1.14681
1.10485
1.05217
0.981778
0.896452
0.828162
0.804239
0.813288
0.843554
0.891121
0.943175
0.983072
1.00618
1.02014
1.02692
1.0234
1.01301
1.0026
0.994963
0.991995
0.992039
0.994875
0.99951
1.00543
1.01175
1.01806
1.02524
1.03386
1.0448
1.0563
1.06812
1.07949
1.0913
1.10319
1.11587
1.12863
1.14192
1.15493
1.1682
1.18128
1.19476
1.20847
1.22249
1.23673
1.25076
1.26505
1.27882
1.29338
1.30714
1.32233
1.33592
1.35139
1.36486
1.38037
1.39416
1.40952
1.42385
1.43895
1.45354
1.46853
1.48315
1.49814
1.51292
1.52751
1.54231
1.55599
1.5698
1.58114
1.58943
1.11428
1.18349
1.25214
1.31867
1.38227
1.44288
1.50031
1.55486
1.60642
1.65531
1.7013
1.74477
1.78523
1.82328
1.85797
1.89023
1.9184
1.94378
1.96395
1.97998
1.99065
1.99591
1.99604
1.99411
1.98509
1.9676
1.92565
1.84034
1.64841
1.42052
1.29187
1.22652
1.177
1.11416
1.02072
0.91877
0.857577
0.846261
0.86108
0.899801
0.954399
1.00974
1.05127
1.07716
1.09069
1.09806
1.10041
1.09445
1.08275
1.07068
1.06171
1.0576
1.05685
1.05902
1.06326
1.06874
1.07447
1.08082
1.08805
1.09738
1.10807
1.11959
1.13091
1.1425
1.15399
1.16606
1.17823
1.19104
1.20385
1.21703
1.23007
1.24316
1.25628
1.26938
1.283
1.2964
1.31077
1.32425
1.33911
1.35231
1.36713
1.38009
1.39489
1.40819
1.42287
1.43665
1.45103
1.46515
1.47942
1.49374
1.5081
1.52238
1.53667
1.55076
1.56488
1.57865
1.59249
1.60545
1.61731
1.62519
1.1082
1.1698
1.23212
1.29372
1.35372
1.41143
1.46683
1.51966
1.57002
1.61808
1.66352
1.70703
1.74775
1.78677
1.82285
1.85722
1.88856
1.91781
1.94388
1.96695
1.98636
2.00117
2.01131
2.01543
2.014
2.00743
1.99085
1.94805
1.86044
1.66144
1.42959
1.30329
1.22537
1.13355
1.00371
0.897538
0.858932
0.860693
0.884019
0.931959
0.993308
1.04601
1.08655
1.11436
1.13255
1.14283
1.14736
1.14847
1.14371
1.13388
1.12424
1.11629
1.11275
1.11197
1.11432
1.11887
1.12443
1.13053
1.13699
1.14503
1.15461
1.16556
1.17666
1.18805
1.19924
1.2108
1.22235
1.2344
1.24657
1.25915
1.27193
1.28482
1.29796
1.31074
1.32403
1.33649
1.35012
1.36261
1.37689
1.38955
1.40416
1.41707
1.43145
1.44465
1.45857
1.47217
1.48585
1.49967
1.51325
1.52688
1.5404
1.55382
1.56738
1.58081
1.59458
1.60795
1.62161
1.6343
1.64608
1.65377
1.10607
1.16024
1.21618
1.27214
1.32775
1.38199
1.43458
1.4855
1.53414
1.58117
1.62584
1.66882
1.7097
1.74863
1.78577
1.8207
1.85401
1.88483
1.91404
1.94036
1.9648
1.9858
2.00384
2.01748
2.02466
2.02461
2.01984
2.00186
1.96168
1.86332
1.67456
1.42027
1.26725
1.10573
0.935717
0.85292
0.840043
0.852648
0.891849
0.949671
1.00703
1.05541
1.09385
1.12405
1.14839
1.16627
1.17792
1.18407
1.18706
1.18743
1.18231
1.17573
1.16996
1.167
1.16685
1.16984
1.17477
1.18094
1.187
1.19387
1.2018
1.21152
1.22184
1.23265
1.24332
1.25425
1.26519
1.27646
1.28784
1.29937
1.31119
1.32296
1.33539
1.34744
1.36052
1.37257
1.38607
1.39787
1.41133
1.42308
1.43643
1.44862
1.46179
1.47456
1.48755
1.50067
1.51368
1.5269
1.54015
1.55338
1.56678
1.58007
1.59346
1.60666
1.62008
1.63306
1.64625
1.65856
1.67008
1.6776
1.10778
1.15595
1.20562
1.25667
1.30713
1.35789
1.40689
1.45541
1.50185
1.5472
1.59065
1.63263
1.67283
1.71153
1.74837
1.78383
1.81732
1.84941
1.87947
1.90807
1.93428
1.95913
1.9807
2.00069
2.01616
2.02526
2.0253
2.01954
1.99873
1.95445
1.84158
1.64033
1.33615
1.04947
0.84131
0.79661
0.803016
0.833845
0.886907
0.946561
0.998945
1.04464
1.08495
1.12104
1.15347
1.18193
1.20385
1.21926
1.22878
1.23573
1.24019
1.23896
1.23436
1.22905
1.22583
1.2251
1.2271
1.2314
1.23637
1.24163
1.24738
1.25475
1.26334
1.27287
1.28252
1.29248
1.30245
1.31269
1.32312
1.33366
1.34463
1.35542
1.36703
1.3781
1.39055
1.40194
1.41497
1.42648
1.43958
1.45139
1.46418
1.47638
1.48876
1.50123
1.51352
1.5261
1.53867
1.55134
1.56422
1.57695
1.58987
1.60264
1.61562
1.62832
1.64149
1.65418
1.66727
1.67946
1.69103
1.6986
1.11206
1.15465
1.19918
1.24493
1.29166
1.3379
1.38448
1.4295
1.47442
1.51736
1.55981
1.60027
1.63994
1.67766
1.71457
1.74935
1.7835
1.81532
1.84656
1.87547
1.90349
1.92945
1.95371
1.97629
1.99565
2.01175
2.01787
2.01495
2.00196
1.97143
1.89139
1.7454
1.43914
1.04608
0.775477
0.728102
0.747815
0.797105
0.868601
0.934498
0.992524
1.04534
1.09374
1.1368
1.17507
1.20851
1.23724
1.25904
1.27498
1.2851
1.29227
1.29563
1.29636
1.29178
1.28601
1.28102
1.27861
1.27864
1.28119
1.28513
1.2891
1.29435
1.3009
1.30913
1.31782
1.32699
1.33625
1.34569
1.35542
1.36517
1.37556
1.38568
1.39693
1.40746
1.41956
1.43031
1.44264
1.45347
1.46564
1.47687
1.48881
1.50066
1.51248
1.52473
1.53664
1.5489
1.56115
1.57336
1.58597
1.59828
1.61096
1.6233
1.63601
1.64831
1.66109
1.67345
1.68617
1.69813
1.70953
1.7171
1.11986
1.15738
1.19698
1.23811
1.2801
1.32308
1.36551
1.40846
1.45006
1.49162
1.53179
1.57109
1.60958
1.64618
1.68276
1.71663
1.75092
1.78234
1.8139
1.84309
1.87155
1.89861
1.92349
1.94792
1.96819
1.98663
1.99281
1.99003
1.97917
1.94667
1.88146
1.7427
1.54911
1.2606
0.964453
0.839633
0.846479
0.878917
0.931318
0.991962
1.04775
1.09819
1.14112
1.17753
1.21068
1.2418
1.26914
1.29245
1.31063
1.32462
1.33341
1.33989
1.34241
1.34367
1.33989
1.33399
1.32789
1.32437
1.32316
1.32485
1.32776
1.33128
1.33569
1.34214
1.35009
1.35878
1.36765
1.37655
1.38583
1.39495
1.40494
1.41444
1.42526
1.43517
1.44671
1.45691
1.46877
1.47937
1.49114
1.50219
1.51368
1.52514
1.53652
1.54815
1.55971
1.57125
1.58319
1.59472
1.60696
1.61873
1.63106
1.64296
1.65539
1.66737
1.67985
1.692
1.70445
1.71631
1.72753
1.73522
1.13117
1.16434
1.19948
1.23628
1.27459
1.3133
1.35311
1.39194
1.43208
1.46995
1.50937
1.54583
1.58361
1.61862
1.65402
1.68771
1.72032
1.75253
1.78246
1.81283
1.84016
1.86839
1.89281
1.91784
1.93752
1.95235
1.95338
1.94712
1.92649
1.878
1.77502
1.6432
1.51563
1.40478
1.22451
1.03336
0.944893
0.941279
0.963802
1.00304
1.05321
1.10227
1.14655
1.18521
1.22053
1.25296
1.28151
1.30683
1.3289
1.34715
1.36114
1.37083
1.37755
1.38158
1.38335
1.38155
1.37695
1.37093
1.36707
1.36499
1.36573
1.36818
1.37111
1.37531
1.38127
1.38886
1.39731
1.4057
1.41477
1.42338
1.43314
1.44208
1.45263
1.46188
1.47286
1.48248
1.49371
1.50393
1.51514
1.52595
1.53706
1.54826
1.55945
1.57074
1.58223
1.59336
1.60514
1.61625
1.62816
1.63951
1.65147
1.66302
1.67505
1.68686
1.69891
1.71089
1.72292
1.73465
1.74557
1.75326
1.14411
1.17345
1.20506
1.23833
1.27272
1.30825
1.34446
1.38096
1.41746
1.45413
1.48982
1.52606
1.56039
1.59558
1.62837
1.66194
1.6933
1.72472
1.75463
1.78375
1.81188
1.83846
1.86372
1.88597
1.90267
1.9068
1.90117
1.88411
1.84206
1.75021
1.63066
1.53623
1.48943
1.45263
1.38864
1.27179
1.13151
1.03816
1.0154
1.02853
1.05278
1.09288
1.13803
1.18185
1.22154
1.2568
1.28776
1.31558
1.34065
1.36226
1.38046
1.39457
1.40531
1.41297
1.41803
1.41964
1.42002
1.41659
1.41184
1.40683
1.40459
1.40427
1.40629
1.40894
1.41283
1.41808
1.42564
1.43348
1.44249
1.45078
1.46041
1.46901
1.47918
1.48805
1.4985
1.50794
1.51858
1.52873
1.53937
1.54995
1.56056
1.57128
1.58218
1.59292
1.60428
1.61502
1.62659
1.63746
1.64897
1.66009
1.67154
1.68293
1.69437
1.70606
1.71762
1.72943
1.74103
1.75252
1.76315
1.77053
1.16084
1.18642
1.21441
1.24405
1.27563
1.30736
1.34073
1.37407
1.40819
1.44191
1.47594
1.50922
1.54267
1.57505
1.60748
1.63869
1.66973
1.69973
1.72896
1.75754
1.78437
1.81069
1.83287
1.85162
1.85622
1.85091
1.83526
1.7931
1.71052
1.59449
1.51144
1.48028
1.47481
1.47219
1.45514
1.41416
1.335
1.22474
1.12345
1.07857
1.0796
1.09721
1.12788
1.16881
1.21069
1.24973
1.28528
1.31725
1.34595
1.37065
1.39237
1.41109
1.42613
1.43794
1.44656
1.45282
1.45586
1.45706
1.45552
1.45189
1.44696
1.44433
1.44324
1.44459
1.44706
1.45018
1.45529
1.46172
1.47038
1.47837
1.48787
1.49618
1.50583
1.51445
1.52422
1.5336
1.54357
1.5537
1.56376
1.57413
1.58428
1.59456
1.60507
1.61533
1.62635
1.6368
1.64804
1.65874
1.66987
1.68083
1.69182
1.70306
1.71403
1.72544
1.73659
1.74803
1.75937
1.77035
1.78089
1.78769
1.17979
1.202
1.22644
1.25278
1.28087
1.31054
1.34029
1.37111
1.40232
1.43394
1.4655
1.49706
1.52832
1.55932
1.58989
1.61996
1.64953
1.67835
1.70663
1.7335
1.75949
1.78196
1.79992
1.80476
1.79909
1.78196
1.744
1.65672
1.54501
1.47177
1.45103
1.45461
1.46697
1.47809
1.48017
1.47214
1.446
1.38967
1.30185
1.20143
1.14243
1.13078
1.14291
1.16396
1.198
1.23651
1.27631
1.31267
1.34526
1.3743
1.3998
1.42236
1.44177
1.45778
1.47045
1.48022
1.48811
1.49251
1.49393
1.49404
1.49146
1.48691
1.48399
1.48203
1.48277
1.4848
1.48769
1.49178
1.49857
1.50588
1.5152
1.5233
1.53269
1.54107
1.55044
1.5595
1.56902
1.57877
1.58848
1.59853
1.6084
1.61834
1.62847
1.63834
1.64892
1.659
1.66991
1.68027
1.69119
1.70179
1.7126
1.72349
1.73425
1.74529
1.75619
1.76716
1.77826
1.78871
1.79912
1.80544
1.20241
1.22223
1.24299
1.26548
1.28955
1.31563
1.34307
1.37094
1.39939
1.42853
1.45787
1.48757
1.51688
1.5466
1.57538
1.60458
1.63244
1.66057
1.68672
1.71236
1.73423
1.75077
1.75478
1.74799
1.7287
1.68887
1.59862
1.49252
1.42987
1.41634
1.42563
1.43981
1.45977
1.48204
1.49365
1.49437
1.48923
1.47182
1.43285
1.36456
1.28142
1.21353
1.18615
1.1896
1.20445
1.22992
1.26556
1.30259
1.339
1.37237
1.40221
1.42893
1.45213
1.47235
1.4895
1.50326
1.5142
1.52311
1.52845
1.5308
1.53152
1.53012
1.52693
1.52315
1.52094
1.52081
1.52265
1.52491
1.52864
1.53421
1.54251
1.5503
1.55954
1.5678
1.57684
1.5855
1.59456
1.60379
1.6132
1.62278
1.63251
1.64202
1.65198
1.6614
1.67162
1.68128
1.69178
1.70181
1.71243
1.72281
1.73337
1.74407
1.75458
1.76534
1.77599
1.78659
1.79755
1.80759
1.81796
1.82399
1.22291
1.24225
1.26185
1.28213
1.30335
1.325
1.34869
1.37381
1.39979
1.42608
1.45321
1.48044
1.50825
1.53562
1.56362
1.59045
1.61784
1.64316
1.66813
1.68883
1.70344
1.70563
1.69726
1.67715
1.62853
1.53982
1.43788
1.38631
1.37861
1.39111
1.40769
1.43227
1.45724
1.48024
1.49672
1.50596
1.50774
1.50593
1.49512
1.46899
1.42242
1.35798
1.28858
1.24883
1.24025
1.25031
1.26779
1.29648
1.32964
1.36475
1.39882
1.4296
1.45736
1.48141
1.50285
1.52079
1.53569
1.54752
1.55712
1.56398
1.56745
1.5684
1.56809
1.56583
1.562
1.56002
1.55881
1.56016
1.56217
1.56516
1.57046
1.57716
1.58599
1.59422
1.60312
1.61155
1.62026
1.62908
1.63807
1.64724
1.65661
1.66582
1.67543
1.68458
1.6944
1.70372
1.7138
1.72352
1.73378
1.7439
1.75411
1.7645
1.7747
1.78509
1.79549
1.80563
1.81635
1.82591
1.83599
1.84175
1.23752
1.25679
1.27585
1.29535
1.31555
1.33664
1.35807
1.38016
1.40327
1.42736
1.45194
1.4774
1.50258
1.52853
1.5539
1.57943
1.60381
1.62668
1.64614
1.65714
1.65702
1.64702
1.62221
1.57158
1.47505
1.37881
1.3405
1.33945
1.35345
1.37481
1.40245
1.42945
1.45328
1.4734
1.49187
1.5067
1.51796
1.52322
1.52439
1.52012
1.50521
1.4756
1.42695
1.3685
1.31879
1.29656
1.29777
1.30965
1.32947
1.359
1.39116
1.42475
1.45603
1.4845
1.51009
1.5323
1.55132
1.56739
1.58016
1.59086
1.59905
1.60349
1.60512
1.60549
1.6043
1.6012
1.5988
1.59676
1.59753
1.59919
1.60172
1.60585
1.61267
1.62042
1.62926
1.63772
1.64624
1.65478
1.66335
1.67213
1.68105
1.68988
1.69912
1.70791
1.71739
1.72635
1.73607
1.74542
1.75528
1.76509
1.77494
1.78501
1.79491
1.80488
1.81506
1.8247
1.83513
1.84417
1.85374
1.85911
1.25196
1.2701
1.28761
1.30571
1.32455
1.34464
1.36536
1.38697
1.40883
1.43144
1.45404
1.47719
1.50085
1.52436
1.54766
1.57021
1.59057
1.60736
1.61439
1.60995
1.59729
1.56547
1.50773
1.41172
1.32396
1.29631
1.30165
1.31748
1.34232
1.37327
1.40097
1.42462
1.44617
1.46553
1.48441
1.50237
1.5188
1.53302
1.5422
1.54608
1.5466
1.54027
1.52251
1.4905
1.44506
1.39371
1.36005
1.34863
1.35523
1.36814
1.38998
1.41916
1.44972
1.48221
1.51097
1.53771
1.56092
1.5816
1.59863
1.6128
1.62428
1.63368
1.63948
1.64227
1.64277
1.6424
1.64016
1.63719
1.63506
1.6349
1.63639
1.63845
1.64197
1.64759
1.65571
1.66399
1.67238
1.68067
1.68892
1.69719
1.70573
1.71405
1.72298
1.73139
1.74053
1.74912
1.75837
1.76733
1.7767
1.7861
1.7956
1.80519
1.81495
1.8244
1.8344
1.84354
1.85342
1.86188
1.87046
1.87525
1.26707
1.28521
1.30186
1.31796
1.33494
1.35328
1.3726
1.39286
1.41386
1.43524
1.45721
1.479
1.50084
1.52203
1.54232
1.56019
1.57298
1.57559
1.56711
1.54984
1.51018
1.44015
1.34603
1.27456
1.25728
1.26722
1.28547
1.31307
1.34478
1.37283
1.3971
1.41858
1.43867
1.45814
1.47751
1.49685
1.51566
1.53399
1.54997
1.56268
1.56994
1.57282
1.57275
1.5651
1.54608
1.51315
1.47163
1.42984
1.40755
1.40352
1.41174
1.42587
1.44923
1.47792
1.50713
1.53745
1.56502
1.58956
1.61147
1.62981
1.6455
1.65779
1.66829
1.67546
1.67914
1.68
1.68013
1.67891
1.67585
1.67401
1.67249
1.67373
1.67542
1.67826
1.68333
1.69054
1.69863
1.70672
1.71484
1.72275
1.73101
1.73891
1.74746
1.75548
1.76417
1.77238
1.78115
1.78963
1.79853
1.80737
1.81648
1.82554
1.83493
1.8439
1.85342
1.86201
1.87112
1.87853
1.88562
1.88956
1.28004
1.29744
1.31605
1.33333
1.34913
1.36514
1.38222
1.4005
1.41975
1.43958
1.45996
1.48015
1.50008
1.51822
1.53353
1.54124
1.53958
1.52802
1.50336
1.45599
1.37119
1.28097
1.23014
1.22262
1.23515
1.25752
1.28822
1.31907
1.34632
1.37006
1.39164
1.41188
1.43168
1.45167
1.47151
1.49198
1.51196
1.53209
1.55124
1.56911
1.58422
1.59456
1.6015
1.60438
1.60391
1.59534
1.57579
1.54408
1.50635
1.47425
1.45856
1.45958
1.46853
1.48382
1.50779
1.5352
1.56385
1.59213
1.61806
1.64078
1.66087
1.67758
1.69115
1.70251
1.71083
1.71566
1.71745
1.71778
1.71728
1.71475
1.71242
1.71035
1.71107
1.71239
1.71464
1.71871
1.72521
1.73295
1.74099
1.74874
1.75681
1.76435
1.77252
1.78015
1.78838
1.79626
1.80455
1.81263
1.82105
1.82931
1.83801
1.84634
1.85532
1.86354
1.87231
1.87997
1.88767
1.89358
1.89938
1.90242
1.2967
1.30958
1.32813
1.34657
1.36408
1.38
1.39598
1.41185
1.42838
1.44559
1.46345
1.48053
1.49638
1.5083
1.51167
1.50408
1.48876
1.45549
1.39392
1.30425
1.2242
1.19002
1.19041
1.20514
1.23107
1.26488
1.2952
1.32137
1.34429
1.3653
1.38539
1.40541
1.42554
1.44618
1.46703
1.48819
1.50941
1.5304
1.55138
1.5711
1.59059
1.60717
1.62097
1.63039
1.63798
1.6406
1.63976
1.63064
1.61047
1.58046
1.54669
1.52266
1.51158
1.51559
1.52465
1.54036
1.56483
1.5915
1.61898
1.64569
1.66954
1.6908
1.70867
1.72377
1.73568
1.74524
1.75145
1.75409
1.75461
1.75451
1.75278
1.74981
1.74789
1.74753
1.74844
1.75018
1.7535
1.7591
1.76676
1.7743
1.78222
1.7896
1.79743
1.80486
1.81274
1.82032
1.82838
1.83606
1.84417
1.85185
1.86002
1.86766
1.87583
1.88314
1.8908
1.89678
1.90287
1.90717
1.9109
1.91295
1.32027
1.32453
1.33815
1.35677
1.37452
1.39178
1.40764
1.42395
1.43935
1.45459
1.46817
1.4801
1.48573
1.48339
1.47094
1.44867
1.40412
1.32714
1.23569
1.17371
1.15414