/*--------------------------------*- C++ -*----------------------------------*\
  =========                 |
  \\      /  F ield         | OpenFOAM: The Open Source CFD Toolbox
   \\    /   O peration     | Website:  https://openfoam.org
    \\  /    A nd           | Version:  6
     \\/     M anipulation  |
\*---------------------------------------------------------------------------*/
FoamFile
{
    version     2.0;
    format      ascii;
    class       volScalarField;
    location    "3.5";
    object      p;
}
// * * * * * * * * * * * * * * * * * * * * * * * * * * * * * * * * * * * * * //

dimensions      [1 -1 -2 0 0 0 0];

internalField   nonuniform List<scalar> 
5250
(
1.00005
1.00026
1.00067
1.00177
1.00383
1.00982
1.02028
1.05498
1.10812
1.3216
1.68917
3.01483
6.52813
14.6201
13.643
12.0436
11.4659
11.5342
11.7712
12.0491
12.1985
12.2874
12.3609
12.4204
12.4581
1.00005
1.00026
1.00067
1.00176
1.00381
1.00978
1.0202
1.05475
1.10769
1.32021
1.68622
3.00593
6.50301
14.5652
13.5918
12.0049
11.4471
11.5224
11.7667
12.0394
12.1852
12.2749
12.3507
12.4112
12.451
1.00005
1.00026
1.00067
1.00175
1.00378
1.00969
1.02002
1.05425
1.10677
1.31716
1.67966
2.98561
6.44435
14.4401
13.4881
11.9263
11.4002
11.484
11.7363
11.9978
12.1364
12.2265
12.3048
12.3664
12.4086
1.00005
1.00025
1.00066
1.00172
1.00373
1.00955
1.01974
1.05346
1.10531
1.31226
1.66906
2.9526
6.34902
14.2441
13.3416
11.8201
11.3279
11.4171
11.6717
11.917
12.0463
12.1346
12.2128
12.2736
12.3166
1.00004
1.00025
1.00064
1.00169
1.00365
1.00937
1.01935
1.05235
1.10336
1.30537
1.65439
2.90671
6.21325
13.9759
13.1527
11.6891
11.235
11.3262
11.5758
11.8035
11.9217
12.0056
12.0815
12.1392
12.1819
1.00004
1.00024
1.00063
1.00165
1.00356
1.00912
1.01886
1.05098
1.10045
1.29793
1.63112
2.86411
6.02423
13.633
12.9161
11.5412
11.1225
11.2105
11.4455
11.6526
11.7578
11.8334
11.9029
11.9558
11.999
1.00004
1.00023
1.00061
1.00159
1.00345
1.00882
1.01825
1.04929
1.09689
1.28865
1.60285
2.81106
5.79165
13.2074
12.6177
11.4027
10.9958
11.0718
11.2785
11.4603
11.5471
11.6075
11.6628
11.7045
11.7459
1.00004
1.00023
1.00058
1.00153
1.00331
1.00846
1.01751
1.04726
1.09257
1.27754
1.56956
2.74616
5.52365
12.6976
12.2615
11.2617
10.8543
10.91
11.0745
11.2253
11.2858
11.3171
11.3399
11.35
11.3769
1.00004
1.00021
1.00055
1.00145
1.00314
1.00804
1.01665
1.04488
1.08785
1.26368
1.53595
2.65855
5.23527
12.0996
11.8465
11.1231
10.7012
10.7276
10.8346
10.9442
10.9644
10.9503
10.9072
10.8338
10.7956
1.00004
1.0002
1.00052
1.00136
1.00295
1.00755
1.01564
1.04211
1.08245
1.24731
1.49945
2.5525
4.91957
11.4149
11.3934
10.9959
10.543
10.5212
10.5695
10.6192
10.5926
10.5012
10.3183
10.05
9.71264
1.00003
1.00019
1.00048
1.00126
1.00273
1.00697
1.01445
1.03885
1.07598
1.22824
1.45545
2.42985
4.5467
10.5822
11.0969
10.8137
10.3766
10.2854
10.2923
10.2715
10.177
9.95433
9.55356
8.84187
7.19221
1.00003
1.00017
1.00043
1.00114
1.00246
1.00629
1.01306
1.03503
1.06853
1.20579
1.40409
2.28802
4.11762
9.59665
10.8711
10.6612
10.2321
10.0619
10.0126
9.91642
9.71833
9.35499
8.77533
7.86487
6.22661
1.00003
1.00015
1.00038
1.001
1.00216
1.00552
1.01146
1.0306
1.05985
1.18067
1.34065
2.13696
3.6325
8.43511
10.7285
10.5505
10.1165
9.83821
9.71437
9.55653
9.27901
8.84298
8.20652
7.33029
6.13179
1.00002
1.00013
1.00033
1.00086
1.00185
1.00471
1.00979
1.02597
1.05135
1.15152
1.28638
1.94139
3.14363
7.09998
10.715
10.5189
10.0055
9.60816
9.41426
9.2143
8.90295
8.45246
7.84689
7.08119
6.15242
1.00002
1.00011
1.00027
1.00071
1.00155
1.00391
1.00816
1.02131
1.04301
1.12084
1.23688
1.72749
2.64113
5.54216
10.6425
10.4418
9.89856
9.39052
9.13245
8.90785
8.59341
8.16134
7.61232
6.95396
6.19913
1.00002
1.00009
1.00023
1.00059
1.00129
1.00326
1.0068
1.01771
1.03582
1.09977
1.19718
1.59463
2.3424
4.81727
10.1187
10.1171
9.75773
9.17552
8.8651
8.63012
8.33096
7.92977
7.43797
6.8689
6.23733
1.00001
1.00007
1.00019
1.00049
1.00106
1.00268
1.00559
1.01457
1.02938
1.08304
1.15627
1.5011
2.07306
4.20494
8.91909
9.62415
9.4367
8.99748
8.64139
8.38903
8.10636
7.738
7.29619
6.79744
6.25325
1.00001
1.00006
1.00015
1.00039
1.00086
1.00216
1.00451
1.01175
1.02364
1.06701
1.12337
1.40647
1.82208
3.54666
7.33502
9.27935
9.18215
8.87922
8.48497
8.20107
7.92019
7.58159
7.18345
6.73831
6.25922
1.00001
1.00005
1.00012
1.00031
1.00067
1.00169
1.00354
1.00915
1.01848
1.05148
1.09556
1.30709
1.60978
2.87024
5.59951
9.05436
9.046
8.84106
8.41811
8.06804
7.77178
7.45239
7.08962
6.6898
6.26282
1.00001
1.00004
1.00009
1.00024
1.00052
1.00129
1.00271
1.00693
1.01412
1.03799
1.07445
1.21892
1.43399
2.33648
4.08667
8.45096
8.92165
8.76016
8.38203
7.96735
7.64819
7.34263
7.00973
6.64798
6.26441
1
1.00003
1.00007
1.00018
1.00039
1.00097
1.00203
1.00516
1.01052
1.02829
1.05391
1.16686
1.30021
2.02392
3.26497
7.02504
8.65356
8.57763
8.3193
7.87956
7.53888
7.24297
6.93751
6.60963
6.26378
1
1.00002
1.00005
1.00013
1.00029
1.00071
1.0015
1.0038
1.00777
1.02061
1.04057
1.11791
1.21989
1.70992
2.54369
5.15018
8.28386
8.37723
8.22478
7.86667
7.47369
7.1649
6.87711
6.57658
6.26221
1
1.00001
1.00004
1.00009
1.00021
1.00051
1.00108
1.00272
1.00557
1.01465
1.02908
1.08117
1.15994
1.47069
2.02535
3.79839
7.39506
8.19187
8.09897
7.83786
7.4514
7.12065
6.83558
6.55617
6.26473
1
1.00001
1.00003
1.00007
1.00014
1.00036
1.00075
1.00189
1.00386
1.01008
1.0198
1.05664
1.10133
1.33728
1.64418
2.99658
5.6967
7.86769
7.89654
7.7742
7.47249
7.12151
6.82003
6.54422
6.26921
1
1.00001
1.00002
1.00005
1.0001
1.00024
1.00051
1.00128
1.00262
1.00676
1.01349
1.0367
1.07067
1.20865
1.41131
2.22401
3.70791
7.2234
7.79229
7.71512
7.50156
7.14214
6.82471
6.54556
6.27825
1
1
1.00001
1.00003
1.00007
1.00015
1.00037
1.00077
1.00193
1.00391
1.01028
1.0196
1.0586
1.09906
1.34881
1.64802
3.00088
5.62289
7.49593
7.58375
7.47855
7.20957
6.84609
6.55326
6.2903
1
1
1.00001
1.00002
1.00005
1.0001
1.00024
1.0005
1.00126
1.00255
1.00664
1.01311
1.03596
1.06895
1.20231
1.40528
2.16722
3.60094
6.84629
7.46316
7.41294
7.2383
6.89273
6.57617
6.30953
1
1
1.00001
1.00001
1.00003
1.00006
1.00015
1.00031
1.00078
1.00157
1.00407
1.00777
1.02269
1.0377
1.13728
1.21202
1.81975
2.62649
5.2781
7.12204
7.27232
7.19022
6.96958
6.62517
6.33586
1
1
1
1.00001
1.00002
1.00004
1.0001
1.0002
1.0005
1.00102
1.00263
1.00523
1.01412
1.02711
1.07875
1.15079
1.45196
1.94694
3.46786
6.2842
7.07677
7.06282
6.95036
6.70092
6.38343
1
1
1
1
1.00001
1.00002
1.00005
1.00013
1.00026
1.00064
1.00126
1.00342
1.0061
1.01961
1.03007
1.12044
1.17796
1.71513
2.36555
4.63616
6.60943
6.92747
6.87727
6.71942
6.42479
1
1
1
1
1.00001
1.00001
1.00003
1.00007
1.00017
1.00034
1.00087
1.0017
1.00466
1.0083
1.02701
1.04175
1.16592
1.25811
1.93858
2.89801
5.55939
6.66278
6.74747
6.68529
6.51772
1
1
1
1
1
1.00001
1.00002
1.00004
1.0001
1.00021
1.00054
1.00108
1.00283
1.00549
1.01532
1.02778
1.08769
1.14858
1.49968
1.97163
3.43666
6.01034
6.60194
6.59687
6.51904
1
1
1
1
1
1
1.00001
1.00003
1.00006
1.00013
1.00032
1.00064
1.00166
1.00325
1.0088
1.01642
1.04868
1.08633
1.2765
1.53348
2.52656
4.44312
6.13365
6.48245
6.46893
1
1
1
1
1
1
1.00001
1.00001
1.00003
1.00007
1.00017
1.00035
1.0009
1.00174
1.00471
1.00856
1.02607
1.04217
1.15401
1.23967
1.85805
2.68278
5.04332
6.1667
6.36428
1
1
1
1
1
1
1
1.00001
1.00002
1.00004
1.00009
1.00019
1.00048
1.00094
1.0025
1.00472
1.01354
1.02383
1.0765
1.12991
1.43023
1.81349
3.09624
5.30709
6.11226
1
1
1
1
1
1
1
1
1.00001
1.00002
1.00003
1.00008
1.00014
1.00043
1.00061
1.00234
1.00288
1.01476
1.01684
1.09762
1.12233
1.56842
1.94617
3.56727
5.45552
1
1
1
1
1
1
1
1
1
1.00001
1.00002
1.00003
1.00007
1.00011
1.00034
1.00044
1.00189
1.00204
1.01443
1.01456
1.11307
1.12823
1.68453
2.11593
3.94587
1
1
1
1
1
1
1
1
1
1
1.00001
1.00002
1.00005
1.0001
1.00028
1.00053
1.00154
1.0028
1.00888
1.01498
1.05257
1.08402
1.30178
1.52826
2.49337
1
1
1
1
1
1
1
1
1
1
1
1.00001
1.00002
1.00006
1.00012
1.00033
1.0006
1.00177
1.00305
1.01003
1.01582
1.05839
1.09015
1.32548
1.57123
1
1
1
1
1
1
1
1
1
1
1
1.00001
1.00001
1.00003
1.00007
1.00013
1.00035
1.00063
1.00192
1.0031
1.01089
1.0158
1.06333
1.09172
1.34622
1
1
1
1
1
1
1
1
1
1
1
1
1
1.00001
1.00002
1.00006
1.00007
1.0003
1.00044
1.00166
1.00225
1.01042
1.01022
1.06967
1.07572
1
1
1
1
1
1
1
1
1
1
1
1
1
1
1.00001
1.00001
1.00005
1.00007
1.00029
1.00043
1.00154
1.00218
1.01049
1.01138
1.07018
1
1
1
1
1
1
1
1
1
1
1
1
1
1
1
1.00001
1.00001
1.00005
1.00006
1.00027
1.00041
1.00146
1.00208
1.01099
1.01552
1
1
1
1
1
1
1
1
1
1
1
1
1
1
1
1
1.00001
1.00001
1.00004
1.00005
1.00038
1.00049
1.00227
1.0033
1.01286
1
1
1
1
1
1
1
1
1
1
1
1
1
1
1
1
1
1.00001
1.00002
1.00003
1.00024
1.00027
1.00184
1.00428
1.00871
1
1
1
1
1
1
1
1
1
1
1
1
1
1
1
1
1
1.00001
1.00002
1.00002
1.00021
1.00026
1.00169
1.00434
1.00711
1
1
1
1
1
1
1
1
1
1
1
1
1
1
1
1
1
1.00001
1.00002
1.00002
1.00026
1.00028
1.00282
1.00712
1.00837
1
1
1
1
1
1
1
1
1
1
1
1
1
1
1
1
1
1.00001
1.00002
1.00002
1.00027
1.00029
1.00296
1.00695
1.01371
1
1
1
1
1
1
1
1
1
1
1
1
1
1
1
1
1
1.00001
1.00001
1.00005
1.0001
1.00055
1.00083
1.00336
1.00697
1
1
1
1
1
1
1
1
1
1
1
1
1
1
1
1
1
1.00001
1.00002
1.00002
1.00028
1.00031
1.0029
1.00713
1.01364
3.57006
1.94634
1.24986
0.917982
0.750112
0.690705
0.697611
0.726837
0.802632
0.965795
1.13383
1.23304
1.26718
1.26747
1.26671
1.26772
1.27164
1.28092
1.29963
1.32076
1.34753
1.39565
1.49441
1.70003
2.1357
2.98919
3.4269
3.48858
3.49032
3.47604
3.4423
3.40251
3.36463
3.33415
3.31961
3.31534
3.31712
3.33541
3.38278
3.468
3.58536
3.72164
3.86443
4.00258
4.13293
4.25284
4.35304
4.43373
4.49991
4.5569
4.60897
4.64205
4.6587
4.66495
4.66313
4.65552
4.63809
4.61269
4.58267
4.54935
4.51157
4.47056
4.42585
4.37878
4.32888
4.27723
4.22333
4.16816
4.11128
4.05357
3.99475
3.93547
3.87561
3.81559
3.75522
3.69492
3.63456
3.57445
3.51455
3.45508
3.39605
3.33755
3.27959
3.22215
3.16525
3.10885
3.05297
2.99761
2.94284
2.88865
2.83518
2.78238
2.73041
2.67923
2.62915
2.58033
2.53347
2.48984
2.45149
2.42602
4.00629
2.53236
1.75506
1.36104
1.18206
1.13026
1.13118
1.13077
1.12445
1.10746
1.11201
1.12751
1.16132
1.20699
1.24909
1.27886
1.29612
1.30609
1.31472
1.32518
1.34396
1.37943
1.46369
1.62954
2.01233
2.80799
3.40355
3.50151
3.48883
3.46412
3.43443
3.40816
3.37941
3.34753
3.3205
3.30343
3.29836
3.31094
3.35875
3.44396
3.55821
3.69153
3.83401
3.97319
4.10734
4.23579
4.33809
4.42031
4.4875
4.54396
4.59255
4.62582
4.6439
4.65103
4.64988
4.64409
4.62926
4.60332
4.57313
4.54017
4.50318
4.46282
4.41882
4.37225
4.32293
4.27172
4.21839
4.16364
4.10731
4.04997
3.99158
3.93256
3.87301
3.81313
3.75299
3.69277
3.63254
3.57247
3.51262
3.45316
3.39413
3.33563
3.27767
3.22024
3.16338
3.10703
3.05123
2.99595
2.94126
2.88713
2.83372
2.78098
2.72907
2.67796
2.62785
2.579
2.53194
2.48807
2.44909
2.423
4.73595
3.59071
2.77769
2.23378
1.85473
1.58267
1.38648
1.24728
1.15204
1.08234
1.05853
1.06219
1.07594
1.10715
1.16126
1.20805
1.24781
1.27662
1.29585
1.31057
1.32558
1.35195
1.4053
1.52343
1.77371
2.32811
3.2234
3.46655
3.4692
3.4523
3.42215
3.39543
3.36497
3.33531
3.31497
3.30534
3.30707
3.32327
3.36576
3.43923
3.54548
3.67581
3.81552
3.95549
4.08984
4.21497
4.31811
4.40081
4.46778
4.52329
4.56887
4.60216
4.62196
4.63057
4.62997
4.62611
4.61498
4.59137
4.56009
4.52704
4.491
4.45169
4.40879
4.36306
4.31462
4.26411
4.21159
4.15752
4.10197
4.04528
3.98753
3.92903
3.86985
3.81033
3.75039
3.69042
3.63028
3.57034
3.51051
3.45109
3.39203
3.33351
3.27555
3.21812
3.1613
3.10501
3.04929
2.99411
2.93955
2.88561
2.83232
2.77967
2.72779
2.67667
2.62652
2.57753
2.53027
2.48597
2.44625
2.41929
5.13923
4.20125
3.4237
2.81374
2.34333
1.9845
1.71676
1.51829
1.37403
1.27916
1.21698
1.17958
1.16176
1.1629
1.1687
1.18314
1.21205
1.24225
1.2712
1.29987
1.32462
1.3482
1.37922
1.45776
1.59935
1.95677
2.70598
3.31901
3.45278
3.45238
3.43874
3.40947
3.37897
3.353
3.33938
3.34068
3.35312
3.38372
3.4299
3.49092
3.57547
3.68089
3.79847
3.91652
4.04055
4.16531
4.27461
4.36388
4.43457
4.49127
4.53601
4.56948
4.59086
4.60139
4.60131
4.59906
4.59136
4.57338
4.54201
4.50824
4.47263
4.43439
4.39289
4.3484
4.30119
4.25176
4.20033
4.14727
4.09269
4.03691
3.97996
3.92218
3.86358
3.80451
3.74496
3.68525
3.62535
3.56554
3.50585
3.44643
3.38747
3.3289
3.27104
3.21358
3.15695
3.10071
3.04535
2.9903
2.93607
2.88214
2.82908
2.77638
2.72465
2.67342
2.62333
2.57412
2.52669
2.48185
2.44132
2.41311
5.38974
4.59865
3.89118
3.293
2.80348
2.41142
2.10191
1.85911
1.66886
1.52056
1.40529
1.3177
1.25318
1.21044
1.18231
1.17952
1.18267
1.19228
1.21278
1.23864
1.26333
1.29119
1.32114
1.36511
1.46225
1.65283
2.07519
2.92243
3.35749
3.44901
3.45254
3.44418
3.42246
3.40776
3.41259
3.43434
3.48747
3.55819
3.60793
3.64254
3.68376
3.73409
3.79501
3.86559
3.95353
4.07534
4.19712
4.30326
4.38582
4.44808
4.4946
4.52878
4.55173
4.56437
4.56628
4.56484
4.55961
4.54687
4.52056
4.48663
4.45088
4.41341
4.37336
4.33048
4.28485
4.23686
4.18679
4.135
4.08164
4.02695
3.97099
3.91404
3.85616
3.79765
3.73859
3.67921
3.61965
3.55999
3.50053
3.44114
3.38233
3.32377
3.26607
3.20877
3.15252
3.09648
3.04142
2.98647
2.93246
2.87863
2.82573
2.77314
2.72151
2.67035
2.62023
2.57099
2.52328
2.47807
2.4367
2.40688
5.56077
4.88518
4.25488
3.69518
3.21476
2.81091
2.47627
2.20076
1.97501
1.79043
1.64015
1.51852
1.42109
1.34557
1.28857
1.24983
1.22495
1.21533
1.2166
1.22168
1.23351
1.25374
1.27744
1.3089
1.36182
1.4722
1.69661
2.16603
3.03347
3.37339
3.44941
3.47671
3.48231
3.495
3.52884
3.60692
3.74793
3.84891
3.88238
3.88163
3.87357
3.84943
3.8318
3.84379
3.88057
3.95717
4.07835
4.20405
4.30909
4.38702
4.44249
4.48086
4.5064
4.52127
4.52567
4.52471
4.52114
4.51224
4.49322
4.46174
4.42627
4.38911
4.35009
4.30872
4.26478
4.21844
4.16991
4.11953
4.06746
4.01394
3.95906
3.90303
3.84597
3.7881
3.72959
3.67061
3.61141
3.55199
3.49275
3.4335
3.37486
3.31651
3.25919
3.20213
3.14611
3.09021
3.03531
2.98052
2.92668
2.87304
2.82029
2.7679
2.71636
2.66534
2.61522
2.566
2.51808
2.47253
2.43047
2.39905
5.67663
5.09454
4.5364
4.02258
3.56427
3.16384
2.8194
2.52573
2.27709
2.06731
1.89092
1.74296
1.61928
1.51643
1.43136
1.36293
1.31005
1.27131
1.24614
1.23064
1.23095
1.2339
1.24222
1.25955
1.2875
1.34436
1.46573
1.723
2.27777
3.07902
3.37813
3.46882
3.52408
3.57953
3.68817
3.89858
4.13572
4.25034
4.24824
4.22294
4.15123
4.00526
3.88966
3.85115
3.86067
3.89218
3.95953
4.07113
4.19168
4.29295
4.36752
4.41834
4.45138
4.47044
4.47853
4.47811
4.47594
4.47021
4.45764
4.43233
4.39863
4.36213
4.32401
4.28402
4.24175
4.19716
4.15034
4.10155
4.05093
3.99873
3.94503
3.89005
3.83392
3.77681
3.71897
3.6605
3.60175
3.54267
3.48375
3.4248
3.36665
3.30869
3.25172
3.19485
3.13898
3.08329
3.02852
2.97404
2.92035
2.86705
2.81449
2.76237
2.71097
2.66015
2.61009
2.56095
2.51293
2.46709
2.42456
2.39149
5.75871
5.251
4.75525
4.2871
3.85693
3.46975
3.12661
2.82584
2.56421
2.3379
2.14268
1.97489
1.83072
1.70737
1.60192
1.51255
1.43732
1.37556
1.32704
1.28972
1.26546
1.24826
1.24838
1.25169
1.25995
1.28828
1.33888
1.47463
1.74282
2.35647
3.09968
3.40016
3.53395
3.68549
3.9346
4.34322
4.66419
4.73346
4.70928
4.62363
4.43003
4.18223
3.99904
3.89633
3.8694
3.87748
3.90476
3.96248
4.05624
4.16548
4.26081
4.332
4.3812
4.41015
4.4248
4.42784
4.42673
4.42312
4.41469
4.39704
4.36764
4.33302
4.29592
4.25704
4.21617
4.17318
4.12799
4.08077
4.03162
3.98077
3.9283
3.87441
3.81927
3.763
3.70593
3.64804
3.58986
3.53115
3.47279
3.41439
3.35679
3.29917
3.24242
3.18578
3.13004
3.07463
3.02001
2.96588
2.91239
2.85943
2.80707
2.75523
2.70403
2.65342
2.60353
2.55445
2.50651
2.4604
2.41765
2.38307
5.82029
5.37103
4.92758
4.5013
4.10099
3.73208
3.39727
3.09691
2.82967
2.5936
2.38569
2.2035
2.0438
1.90445
1.78268
1.67683
1.5849
1.50562
1.43798
1.38133
1.33592
1.30055
1.27621
1.26221
1.26334
1.26888
1.29596
1.34204
1.48306
1.75761
2.39401
3.14185
3.49654
3.81874
4.34626
4.98236
5.27429
5.2648
5.19426
5.00658
4.66448
4.36784
4.14879
4.00212
3.9188
3.89123
3.89598
3.91536
3.95888
4.03414
4.12905
4.21722
4.28646
4.33319
4.36012
4.37254
4.37259
4.37092
4.36588
4.35459
4.33177
4.3005
4.26511
4.22744
4.18786
4.14632
4.10269
4.05704
4.00941
3.95998
3.90885
3.85616
3.80213
3.74682
3.69064
3.63347
3.576
3.51799
3.4605
3.40273
3.3456
3.28832
3.2318
3.17547
3.1199
3.06483
3.01044
2.95665
2.90346
2.85084
2.7988
2.74729
2.69639
2.64603
2.5964
2.54746
2.49967
2.45343
2.41062
2.37475
5.86712
5.46442
5.06447
4.67528
4.304
3.95571
3.63343
3.33883
3.07157
2.8312
2.61573
2.42365
2.25265
2.10089
1.96632
1.84719
1.74195
1.64912
1.56771
1.49658
1.4352
1.3835
1.34083
1.30934
1.28483
1.28417
1.29008
1.30402
1.37275
1.48575
1.81311
2.46165
3.29112
3.99484
5.0688
5.75779
5.85718
5.79949
5.61983
5.2492
4.87027
4.56062
4.32352
4.14668
4.0225
3.94453
3.90581
3.90722
3.91704
3.94448
4.00116
4.08284
4.16445
4.23057
4.2767
4.30373
4.31419
4.31371
4.31108
4.30429
4.28972
4.26357
4.23093
4.19485
4.15656
4.11637
4.07421
4.0301
3.98403
3.93609
3.88641
3.83502
3.78224
3.72798
3.67282
3.6165
3.56007
3.50308
3.44642
3.3893
3.33262
3.27581
3.21957
3.16364
3.10833
3.05362
2.99954
2.9461
2.89327
2.84099
2.78931
2.73813
2.68756
2.63749
2.58817
2.53946
2.4919
2.44565
2.40292
2.36607
5.90546
5.5397
5.17504
4.81782
4.47288
4.14517
3.83717
3.55135
3.28797
3.04733
2.82849
2.63044
2.45177
2.29098
2.1466
2.01708
1.90114
1.79742
1.7049
1.62255
1.54959
1.48543
1.42961
1.382
1.34452
1.31417
1.31203
1.31846
1.33789
1.41204
1.549
1.92215
2.66772
3.98853
5.92372
6.46318
6.41547
6.24521
5.87654
5.43089
5.05136
4.74714
4.5023
4.30666
4.15331
4.03822
3.95889
3.91376
3.9036
3.90668
3.9218
3.9585
4.02884
4.10046
4.16444
4.21127
4.23911
4.24959
4.24895
4.24577
4.2377
4.22052
4.19247
4.15863
4.12171
4.0828
4.04208
3.99957
3.95521
3.90895
3.86089
3.81098
3.75958
3.70652
3.65254
3.59745
3.54231
3.48637
3.43054
3.37414
3.31796
3.26171
3.20581
3.15033
3.09536
3.04105
2.98736
2.9343
2.8819
2.83002
2.77876
2.72798
2.67782
2.62812
2.57916
2.53075
2.48349
2.43733
2.39479
2.35722
5.93441
5.60127
5.26695
4.93699
4.61586
4.30708
4.01385
3.73786
3.48067
3.24229
3.02306
2.82195
2.63862
2.47149
2.32004
2.18244
2.05826
1.9457
1.84441
1.75292
1.67083
1.5972
1.53171
1.47366
1.42406
1.38216
1.35679
1.3595
1.37045
1.42174
1.51209
1.7884
2.32785
3.64211
6.30231
7.01293
6.90346
6.60322
6.10164
5.62581
5.23679
4.92758
4.67767
4.47012
4.29828
4.15811
4.04757
3.96555
3.91297
3.89023
3.88658
3.89259
3.91424
3.96178
4.02708
4.08877
4.1367
4.16688
4.17883
4.17832
4.17508
4.1665
4.14818
4.11881
4.08364
4.04583
4.00636
3.9654
3.92286
3.87846
3.83222
3.78396
3.73408
3.68239
3.62991
3.57631
3.52249
3.46768
3.41276
3.3572
3.30164
3.24601
3.19058
3.13559
3.08105
3.02716
2.97393
2.92128
2.86936
2.81791
2.76713
2.71678
2.66708
2.6178
2.56925
2.52122
2.47433
2.42837
2.3861
2.34803
5.96318
5.65435
5.34488
5.0384
4.73784
4.44666
4.1673
3.90201
3.65195
3.41788
3.20028
2.99851
2.81289
2.64177
2.48549
2.34197
2.21144
2.09203
1.98358
1.8848
1.79515
1.71401
1.64066
1.57503
1.51742
1.46874
1.4354
1.43751
1.45507
1.48815
1.59926
1.80487
2.27169
3.2016
5.16949
6.93804
6.98051
6.82557
6.43658
5.93993
5.49841
5.15804
4.88472
4.65536
4.46167
4.29938
4.16322
4.05195
3.96538
3.90435
3.87204
3.85555
3.857
3.86774
3.89513
3.95037
4.00736
4.05589
4.08795
4.10292
4.10258
4.09961
4.0914
4.07362
4.04259
4.00616
3.96762
3.92784
3.88691
3.84436
3.80009
3.75364
3.7055
3.65557
3.6049
3.55292
3.50046
3.44687
3.39294
3.33831
3.28349
3.22856
3.17374
3.11929
3.06532
3.01189
2.95921
2.90703
2.85565
2.8047
2.75444
2.70459
2.6554
2.6066
2.55852
2.51094
2.46446
2.41879
2.37687
2.33845
5.98826
5.70196
5.41391
5.12615
4.84287
4.5669
4.3008
4.04567
3.80377
3.5748
3.3606
3.15985
2.97379
2.80081
2.64133
2.49411
2.35864
2.23432
2.12001
2.0156
1.91972
1.8326
1.75315
1.68194
1.62048
1.56924
1.55148
1.55709
1.59338
1.65016
1.82937
2.15579
2.68324
3.19772
3.94385
5.31082
6.4605
6.63454
6.54283
6.27354
5.83067
5.45586
5.14067
4.86934
4.64403
4.45678
4.29699
4.16023
4.04606
3.95462
3.88698
3.84461
3.82062
3.81028
3.81509
3.83225
3.87006
3.92189
3.9692
4.00352
4.02114
4.0229
4.02058
4.01294
3.99561
3.9639
3.92696
3.88802
3.84812
3.80697
3.76449
3.7199
3.67386
3.6261
3.57741
3.52717
3.47618
3.42393
3.37109
3.31748
3.26353
3.20939
3.1553
3.10148
3.04816
2.99528
2.9432
2.89157
2.84075
2.79036
2.74067
2.69139
2.64273
2.5945
2.54693
2.49986
2.45386
2.40856
2.36706
2.32843
6.01206
5.74266
5.47114
5.20118
4.93382
4.67184
4.41768
4.17278
3.93875
3.71617
3.50579
3.30794
3.12239
2.94942
2.7881
2.63864
2.49983
2.37171
2.25317
2.14407
2.04356
1.95174
1.86812
1.79516
1.73305
1.7022
1.70742
1.72708
1.80525
1.94689
2.27791
2.72881
3.06744
3.27009
3.55138
4.07065
4.90413
5.91248
6.32669
6.2935
6.14724
5.83378
5.49658
5.15845
4.88148
4.6514
4.45628
4.29059
4.15026
4.03216
3.9361
3.86205
3.81184
3.77996
3.75874
3.75996
3.76866
3.79068
3.83503
3.87926
3.91446
3.93521
3.93972
3.93779
3.93096
3.91509
3.88367
3.84705
3.80796
3.76743
3.72599
3.68309
3.63929
3.59383
3.54722
3.4989
3.44947
3.3987
3.34705
3.2946
3.24164
3.18842
3.1352
3.08211
3.02955
2.97732
2.92591
2.87491
2.8247
2.77495
2.72584
2.67721
2.62911
2.58152
2.5345
2.48801
2.44256
2.39769
2.35671
2.31799
6.03586
5.78066
5.52374
5.26689
5.01374
4.76458
4.52143
4.28594
4.05987
3.84374
3.63833
3.44382
3.26045
3.08812
2.92666
2.77577
2.63507
2.50416
2.38255
2.27004
2.16623
2.07174
1.9876
1.91768
1.87506
1.87891
1.90936
1.96724
2.14451
2.48149
2.92743
3.20817
3.32645
3.36866
3.45849
3.63027
3.94915
4.50412
5.39083
5.99757
6.08264
6.0179
5.82959
5.49874
5.18548
4.90222
4.65679
4.45216
4.28074
4.13533
4.01224
3.91119
3.8314
3.77359
3.7348
3.70647
3.69841
3.70254
3.71636
3.74672
3.78687
3.82236
3.84546
3.85289
3.85148
3.84573
3.83173
3.8031
3.76711
3.7272
3.68608
3.64421
3.60212
3.55877
3.51423
3.46793
3.4202
3.37106
3.32077
3.26964
3.21783
3.16565
3.11343
3.06121
3.00949
2.95802
2.90733
2.85704
2.8075
2.75844
2.70996
2.66203
2.61455
2.56764
2.52124
2.47537
2.43057
2.38618
2.34583
2.30718
6.06098
5.81524
5.56953
5.32508
5.08275
4.84555
4.61449
4.38877
4.17043
3.96079
3.7605
3.56992
3.38922
3.21845
3.05751
2.90625
2.76442
2.63181
2.50825
2.39378
2.28895
2.19574
2.11813
2.0713
2.07553
2.10607
2.17286
2.36946
2.74187
3.19375
3.44473
3.508
3.49942
3.47161
3.46836
3.49873
3.59891
3.80819
4.24685
4.96056
5.64345
5.90049
5.87189
5.75498
5.50338
5.22272
4.91952
4.669
4.45366
4.27111
4.11807
3.98915
3.88242
3.79662
3.73121
3.68703
3.65133
3.63113
3.63268
3.64038
3.65914
3.69423
3.72722
3.75178
3.76291
3.76208
3.75768
3.74608
3.72183
3.68621
3.64608
3.60462
3.5633
3.52133
3.47851
3.43413
3.38823
3.34086
3.29218
3.24251
3.19204
3.14106
3.08995
3.03873
2.98795
2.93735
2.88746
2.83795
2.78915
2.74082
2.69306
2.64583
2.59906
2.55284
2.50717
2.46196
2.4179
2.37409
2.33447
2.29614
6.08346
5.84542
5.61147
5.37892
5.14657
4.91827
4.69647
4.48174
4.27253
4.06988
3.87501
3.68858
3.51074
3.34193
3.18188
3.0309
2.88864
2.75546
2.63142
2.51762
2.41665
2.33322
2.28678
2.29283
2.32297
2.41899
2.62088
3.06115
3.5068
3.73401
3.74219
3.72179
3.66523
3.55274
3.471
3.47559
3.50448
3.58365
3.74063
4.0702
4.58335
5.23923
5.64268
5.67452
5.62407
5.47812
5.20231
4.9426
4.68034
4.45537
4.26254
4.10055
3.96435
3.85097
3.75867
3.6859
3.63462
3.59223
3.56375
3.55928
3.56266
3.57382
3.59804
3.62931
3.6553
3.67004
3.66984
3.66704
3.65847
3.6391
3.60465
3.56518
3.52417
3.4825
3.44056
3.39764
3.35352
3.30803
3.26117
3.21317
3.16425
3.11463
3.06477
3.01467
2.96493
2.91529
2.8663
2.81764
2.76964
2.7221
2.6751
2.62865
2.58264
2.53717
2.49229
2.44781
2.40459
2.36153
2.32275
2.28514
6.11391
5.8753
5.649
5.42695
5.2092
4.99328
4.77837
4.56879
4.36695
4.17165
3.98272
3.80065
3.62611
3.45936
3.30085
3.15056
3.00917
2.87697
2.75572
2.64889
2.56179
2.52086
2.52953
2.56818
2.68063
2.92898
3.4368
3.86438
4.04004
4.03242
3.99051
3.89321
3.75438
3.63583
3.54608
3.49716
3.50042
3.52238
3.57949
3.69638
3.92103
4.27884
4.81723
5.27927
5.4742
5.45444
5.36881
5.17668
4.93901
4.68942
4.458
4.25636
4.08416
3.93941
3.81815
3.7182
3.63839
3.57897
3.53102
3.49653
3.47964
3.48107
3.48755
3.50306
3.53111
3.55616
3.57313
3.57724
3.57548
3.56897
3.55364
3.52262
3.48455
3.44326
3.40138
3.35911
3.31634
3.27263
3.22769
3.18153
3.13435
3.08628
3.03784
2.989
2.9404
2.89183
2.84381
2.79608
2.74896
2.70228
2.65611
2.61048
2.56532
2.52067
2.47667
2.43307
2.39081
2.34879
2.311
2.27484
6.14938
5.90872
5.68884
5.47702
5.26856
5.06188
4.85846
4.6581
4.46162
4.27022
4.0847
3.90653
3.73518
3.57111
3.41466
3.26658
3.12812
3.00098
2.89097
2.80279
2.77459
2.78796
2.83542
2.98312
3.27639
3.8657
4.2572
4.36642
4.34864
4.28111
4.13791
3.98241
3.85055
3.74587
3.66185
3.59476
3.54561
3.53441
3.54381
3.57549
3.64887
3.79473
4.04228
4.42952
4.89082
5.20061
5.2541
5.22182
5.1193
4.90471
4.69449
4.45931
4.25176
4.06942
3.91491
3.78504
3.67677
3.58915
3.52137
3.46855
3.42647
3.40016
3.3982
3.40104
3.41027
3.43013
3.45563
3.47549
3.48357
3.48254
3.47771
3.46547
3.43982
3.40307
3.36178
3.3196
3.27745
3.23502
3.1918
3.14752
3.1022
3.05588
3.00903
2.96163
2.91431
2.86691
2.81996
2.77325
2.72708
2.68133
2.63608
2.59135
2.54712
2.5034
2.46042
2.41789
2.37679
2.33632
2.2998
2.2664
6.22282
5.96298
5.73827
5.53181
5.33154
5.13317
4.93638
4.74201
4.55085
4.36462
4.18409
4.00873
3.83964
3.67846
3.52543
3.38255
3.25163
3.14233
3.05424
3.04974
3.07069
3.13895
3.32446
3.71062
4.32403
4.67507
4.70878
4.67769
4.58353
4.39716
4.22915
4.09004
3.97759
3.88289
3.79877
3.72148
3.65082
3.59351
3.54925
3.55105
3.56243
3.59942
3.68402
3.85007
4.09945
4.48846
4.83392
5.03991
5.03168
4.98363
4.8668
4.65909
4.46022
4.2427
4.05595
3.89166
3.75176
3.63501
3.53902
3.46259
3.4053
3.35583
3.32293
3.311
3.31235
3.31821
3.33199
3.35627
3.37625
3.38841
3.38799
3.38484
3.37579
3.35606
3.32005
3.27959
3.23783
3.19594
3.15388
3.11121
3.06775
3.02328
2.9782
2.93241
2.88655
2.84047
2.79471
2.74912
2.704
2.65927
2.61504
2.5713
2.52816
2.48552
2.44377
2.40267
2.36309
2.32503
2.29045
2.26217
6.33437
6.06102
5.81791
5.60259
5.40003
5.20415
5.0122
4.82308
4.63692
4.45477
4.27735
4.10602
3.94174
3.7854
3.63927
3.50803
3.39965
3.32904
3.33391
3.36891
3.4747
3.71938
4.22893
4.81083
5.09228
5.08542
5.02724
4.88443
4.68007
4.4976
4.35001
4.23019
4.1276
4.0339
3.94433
3.8571
3.77233
3.69281
3.62137
3.56539
3.53758
3.53884
3.55084
3.59244
3.68588
3.85848
4.11656
4.46444
4.72395
4.83222
4.81719
4.75652
4.61782
4.42466
4.23658
4.03925
3.86878
3.71991
3.59389
3.48933
3.40433
3.3391
3.28548
3.2464
3.22458
3.22477
3.2278
3.2366
3.2552
3.27652
3.29178
3.29369
3.29177
3.28495
3.26889
3.23638
3.19749
3.1562
3.11466
3.07303
3.0311
2.98841
2.94518
2.90118
2.85696
2.81239
2.76799
2.72366
2.67972
2.63613
2.59307
2.55048
2.50861
2.46734
2.42716
2.38808
2.35084
2.31654
2.28597
2.26386
6.37456
6.17068
5.91068
5.67852
5.4712
5.27602
5.08533
4.89857
4.71655
4.53923
4.36706
4.20126
4.04363
3.89741
3.76934
3.66625
3.62297
3.63626
3.69213
3.84339
4.16983
4.82007
5.33159
5.50099
5.4782
5.3841
5.1847
4.96751
4.78026
4.628
4.50168
4.39104
4.28832
4.18904
4.09087
3.99371
3.89783
3.80493
3.71634
3.63595
3.56673
3.52258
3.50212
3.50023
3.51203
3.5563
3.65559
3.82772
4.0855
4.36842
4.57086
4.61586
4.59584
4.52747
4.377
4.20061
4.02355
3.84342
3.68836
3.55365
3.44022
3.34729
3.27389
3.21636
3.17031
3.14302
3.13607
3.13761
3.14353
3.15701
3.17797
3.1944
3.19909
3.19786
3.19271
3.17973
3.15264
3.11528
3.07477
3.03372
2.99278
2.95153
2.91003
2.86787
2.82542
2.78255
2.7397
2.69682
2.65426
2.61198
2.57029
2.5291
2.48883
2.44939
2.4115
2.3755
2.34216
2.31443
2.28828
2.27181
6.33455
6.22835
6.00225
5.75726
5.53943
5.34127
5.15456
4.97359
4.79665
4.62291
4.45606
4.29855
4.15389
4.03314
3.93814
3.93916
3.96551
4.05442
4.27771
4.74572
5.42092
5.86044
5.92455
5.88217
5.75074
5.49583
5.265
5.07382
4.91926
4.78892
4.67161
4.56017
4.45088
4.34227
4.23425
4.12734
4.02213
3.91947
3.82049
3.72603
3.63808
3.56086
3.49718
3.46592
3.43695
3.43665
3.4491
3.4954
3.59771
3.77067
4.01408
4.23826
4.39664
4.3991
4.37553
4.30428
4.15199
3.98416
3.81706
3.65407
3.51284
3.39199
3.29126
3.21021
3.14789
3.0972
3.06368
3.04864
3.04912
3.05255
3.06147
3.07994
3.09619
3.1044
3.10381
3.10021
3.09018
3.06843
3.03309
2.9935
2.95336
2.91317
2.87308
2.83262
2.79197
2.75092
2.70982
2.66859
2.62767
2.58698
2.54699
2.50761
2.46953
2.4328
2.39859
2.36769
2.34181
2.31881
2.29889
2.29166
6.24057
6.2005
6.08183
5.84379
5.61447
5.41014
5.22242
5.04449
4.87278
4.7094
4.55431
4.41641
4.30342
4.24346
4.25353
4.30568
4.45161
4.77308
5.4272
6.05849
6.37624
6.36597
6.28813
6.09922
5.82969
5.58442
5.38578
5.22609
5.09042
4.96628
4.8463
4.72729
4.60852
4.4903
4.37321
4.25776
4.14466
4.03408
3.92672
3.82286
3.72367
3.63017
3.54501
3.47173
3.41876
3.38379
3.35363
3.35375
3.3672
3.41455
3.5171
3.68496
3.90671
4.08834
4.20253
4.1965
4.16422
4.08476
3.93131
3.77553
3.61708
3.47055
3.34367
3.23639
3.14854
3.07964
3.02517
2.98582
2.96461
2.96153
2.96329
2.96939
2.98279
2.99921
3.01103
3.01086
3.00849
3.00102
2.98407
2.95054
2.91301
2.87394
2.83491
2.79584
2.75688
2.71766
2.6785
2.63916
2.60022
2.56151
2.52376
2.48694
2.4522
2.41994
2.39213
2.36954
2.34823
2.3339
2.32776
2.3311
6.04096
6.11697
6.06667
5.93678
5.70469
5.48832
5.29639
5.121
4.95788
4.80662
4.67943
4.5769
4.56436
4.58864
4.68031
4.90965
5.39515
6.1503
6.7027
6.87237
6.83744
6.70889
6.43855
6.15674
5.91288
5.7143
5.55023
5.40743
5.27517
5.14648
5.01816
4.88936
4.76067
4.63296
4.50722
4.38389
4.26339
4.14589
4.03159
3.92065
3.81347
3.71073
3.61301
3.52239
3.44085
3.37418
3.32616
3.2851
3.25435
3.25567
3.27043
3.31767
3.41867
3.58226
3.77486
3.92751
4.00204
3.9936
3.95836
3.8755
3.72067
3.5731
3.42723
3.29573
3.18274
3.08851
3.01287
2.95422
2.90976
2.88343
2.87429
2.87521
2.87939
2.8893
2.90554
2.91819
2.9196
2.91806
2.91233
2.89835
2.86975
2.8338
2.79611
2.75819
2.72073
2.68325
2.64612
2.60896
2.57243
2.53635
2.50184
2.46904
2.43975
2.41607
2.39532
2.37958
2.36921
2.37144
2.38122
2.40831
5.51144
5.95115
5.98879
5.93458
5.80249
5.58437
5.38264
5.20757
5.05575
4.93513
4.87119
4.88118
4.93561
5.09326
5.43915
6.14498
6.91122
7.36182
7.37321
7.30935
7.12958
6.79498
6.49274
6.24667
6.05035
5.8863
5.73906
5.59871
5.46008
5.3212
5.18196
5.04309
4.90555
4.77008
4.63717
4.50716
4.38019
4.25636
4.1357
4.01834
3.90437
3.79411
3.68791
3.58649
3.49101
3.40373
3.32524
3.26642
3.21343
3.1738
3.14478
3.1476