/*--------------------------------*- C++ -*----------------------------------*\
  =========                 |
  \\      /  F ield         | OpenFOAM: The Open Source CFD Toolbox
   \\    /   O peration     | Website:  https://openfoam.org
    \\  /    A nd           | Version:  6
     \\/     M anipulation  |
\*---------------------------------------------------------------------------*/
FoamFile
{
    version     2.0;
    format      ascii;
    class       surfaceScalarField;
    location    "3.5";
    object      phi;
}
// * * * * * * * * * * * * * * * * * * * * * * * * * * * * * * * * * * * * * //

dimensions      [1 0 -1 0 0 0 0];

internalField   nonuniform List<scalar> 
10325
(
0.00840002
3.68408e-10
0.00840002
2.30191e-09
0.00840001
6.99135e-09
0.00839999
1.85448e-08
0.00839994
4.19146e-08
0.00839983
9.8622e-08
0.00839963
2.08233e-07
0.008399
5.03568e-07
0.00839799
1.03297e-06
0.00839455
2.87994e-06
0.0083872
6.87974e-06
0.00836505
2.28806e-05
0.0082727
8.89248e-05
0.00779313
0.000473385
0.00714575
0.000645518
0.00645689
0.000688347
0.00578262
0.000674206
0.00510888
0.000673844
0.00445074
0.000657833
0.00376737
0.000683298
0.00304685
0.000720407
0.00230086
0.000745811
0.00154434
0.000756361
0.000773914
0.000770289
0.000773512
0.00840002
7.68915e-10
0.00840002
4.80994e-09
0.00840001
1.45552e-08
0.00839999
3.87221e-08
0.00839994
8.73535e-08
0.00839981
2.06887e-07
0.00839959
4.35807e-07
0.00839891
1.0687e-06
0.00839778
2.17042e-06
0.00839392
6.19712e-06
0.00838542
1.48943e-05
0.00835864
5.03851e-05
0.00824688
0.000197272
0.00771085
0.00100322
0.00709115
0.00126333
0.00646179
0.00131717
0.00582348
0.00131246
0.00516824
0.00132921
0.00449079
0.00133494
0.00378638
0.00138762
0.00305591
0.00145083
0.00230539
0.00149609
0.00154197
0.00151954
0.000776092
0.001536
0.00154919
0.00840002
1.20035e-09
0.00840002
7.50714e-09
0.00840001
2.2691e-08
0.00839998
6.04437e-08
0.00839993
1.36378e-07
0.0083998
3.23994e-07
0.00839956
6.82923e-07
0.00839882
1.68399e-06
0.00839758
3.41823e-06
0.00839341
9.8224e-06
0.00838408
2.37501e-05
0.00835435
8.08283e-05
0.00823527
0.000312944
0.00769024
0.001542
0.00706298
0.00188858
0.00645275
0.00192677
0.00584032
0.00192478
0.00520756
0.00196206
0.00453176
0.00201042
0.0038215
0.00209775
0.00308381
0.00218843
0.00232469
0.00225507
0.00155078
0.00229327
0.000768098
0.0023187
0.00231714
0.00840002
1.64533e-09
0.00840002
1.02915e-08
0.00840001
3.10992e-08
0.00839998
8.28762e-08
0.00839993
1.86906e-07
0.00839979
4.44718e-07
0.00839954
9.36154e-07
0.00839878
2.33064e-06
0.00839758
4.6229e-06
0.00839309
1.37738e-05
0.00838389
3.24645e-05
0.00835238
0.000113084
0.00823476
0.000427183
0.00768787
0.00208266
0.00705981
0.00251481
0.0064641
0.00252215
0.00587667
0.00251229
0.00526317
0.00257572
0.00460357
0.00266946
0.00389646
0.00280473
0.0031535
0.00293098
0.0023841
0.00302424
0.00159202
0.00308526
0.000788514
0.00312154
0.00310505
0.00840002
2.10258e-09
0.00840002
1.31746e-08
0.00840001
3.97861e-08
0.00839998
1.0623e-07
0.00839993
2.39226e-07
0.00839978
5.71704e-07
0.00839952
1.20263e-06
0.00839881
2.92823e-06
0.008397
6.43254e-06
0.00839426
1.59847e-05
0.00837953
4.6699e-05
0.00837265
0.000120914
0.00824375
0.000552715
0.00771431
0.00260502
0.00707426
0.00315168
0.00649771
0.00309822
0.00593594
0.00307429
0.0053484
0.00316341
0.0047015
0.00331627
0.00400696
0.0034994
0.0032734
0.00366416
0.00249299
0.00380426
0.00167633
0.0039017
0.000840153
0.00395804
0.00394471
0.00840002
2.59755e-09
0.00840002
1.62713e-08
0.00840001
4.91403e-08
0.00839998
1.3117e-07
0.00839992
2.95438e-07
0.00839977
7.05637e-07
0.00839949
1.48438e-06
0.00839868
3.62233e-06
0.00839721
7.8579e-06
0.00839276
1.99329e-05
0.00838228
5.64347e-05
0.00835294
0.000150285
0.00824942
0.000651942
0.0077356
0.00311251
0.0070769
0.00380713
0.00656137
0.00361382
0.00603142
0.00360429
0.0054713
0.00372368
0.00484609
0.00394086
0.0041616
0.00418398
0.00343417
0.00439143
0.00265848
0.00457964
0.00181598
0.00474396
0.000919785
0.00485417
0.00486378
0.00840002
3.13071e-09
0.00840002
1.96063e-08
0.00840001
5.92066e-08
0.00839998
1.5801e-07
0.00839991
3.55964e-07
0.00839975
8.49494e-07
0.00839945
1.78753e-06
0.00839861
4.34293e-06
0.00839695
9.46985e-06
0.00839265
2.37059e-05
0.00838161
6.66722e-05
0.00835325
0.000178801
0.00826527
0.000735722
0.00780432
0.00356717
0.00719825
0.0044099
0.00665961
0.00415241
0.00614945
0.00411441
0.00561793
0.00425543
0.00503053
0.0045279
0.0043834
0.00483087
0.00366943
0.00510558
0.00288409
0.0053652
0.00202099
0.00560689
0.00105324
0.00582216
0.00591682
0.00840002
3.69737e-09
0.00840002
2.31298e-08
0.00840001
6.99295e-08
0.00839997
1.86227e-07
0.00839991
4.20078e-07
0.00839974
9.9689e-07
0.00839943
2.10044e-06
0.00839855
5.09569e-06
0.00839725
1.06975e-05
0.0083919
2.8504e-05
0.00838631
7.13236e-05
0.00834447
0.00022103
0.00828369
0.000792218
0.0078776
0.00396701
0.00730703
0.00497745
0.00679307
0.00466619
0.00630685
0.00460039
0.00580938
0.00475255
0.00525822
0.00507853
0.00465477
0.00543402
0.00398326
0.00577715
0.00323259
0.00611607
0.00234797
0.00649137
0.00128258
0.00688706
0.00719919
0.00840002
4.33738e-09
0.00840002
2.71196e-08
0.0084
8.20549e-08
0.00839997
2.18266e-07
0.00839989
4.92788e-07
0.0083997
1.16554e-06
0.00839934
2.45895e-06
0.00839838
5.93617e-06
0.00839661
1.23159e-05
0.00839131
3.32783e-05
0.008382
7.93695e-05
0.00834634
0.000257592
0.00827443
0.000859233
0.00789743
0.004338
0.00737871
0.00549314
0.00694343
0.00510105
0.00650687
0.00503678
0.00604465
0.00521447
0.00556423
0.00555841
0.00502206
0.00597599
0.00443317
0.00636585
0.00375265
0.0067965
0.00289889
0.00734526
0.00176096
0.00802468
0.00895986
0.00840002
5.09518e-09
0.00840002
3.18569e-08
0.0084
9.63036e-08
0.00839996
2.56394e-07
0.00839987
5.78811e-07
0.00839964
1.37155e-06
0.0083992
2.89312e-06
0.00839803
6.97908e-06
0.00839558
1.46007e-05
0.00838971
3.86136e-05
0.00837386
9.3805e-05
0.00833885
0.000293716
0.00822637
0.000966179
0.00772147
0.0048413
0.00761163
0.00559616
0.00710566
0.00560609
0.00671008
0.00543249
0.00629767
0.00562677
0.00591851
0.00593724
0.00552008
0.00637405
0.00505362
0.00683229
0.00448264
0.00736739
0.0037888
0.00803899
0.00282395
0.00898982
0.0117842
0.00840002
5.89949e-09
0.00840002
3.68725e-08
0.0084
1.11424e-07
0.00839996
2.96811e-07
0.00839986
6.70683e-07
0.00839962
1.59075e-06
0.00839913
3.36112e-06
0.00839784
8.13332e-06
0.00839539
1.68033e-05
0.00838844
4.49994e-05
0.00837254
0.000107836
0.00833308
0.000334912
0.00824462
0.00104836
0.00783427
0.0052452
0.00750833
0.00592115
0.00722123
0.00589303
0.00693552
0.00571883
0.00667012
0.00589254
0.00638626
0.00622117
0.00610638
0.00665388
0.0057807
0.00715761
0.00545626
0.00769182
0.005274
0.0082209
0.00563498
0.00862831
0.00815977
0.00925916
0.00840002
6.65644e-09
0.00840002
4.15855e-08
0.0084
1.2532e-07
0.00839996
3.34702e-07
0.00839987
7.56568e-07
0.00839963
1.80403e-06
0.00839915
3.81649e-06
0.00839786
9.26616e-06
0.00839536
1.92428e-05
0.00838995
4.97087e-05
0.00836985
0.000126332
0.00835041
0.000355631
0.0082851
0.00110712
0.00800905
0.0055131
0.0076492
0.00628141
0.00741009
0.00613296
0.00721542
0.00591495
0.00701657
0.0060918
0.00679342
0.00644434
0.00660647
0.00684058
0.0064988
0.00726492
0.00653376
0.00765684
0.00678689
0.00796825
0.00744313
0.00797251
0.00725984
0.00834345
0.00840002
6.9375e-09
0.00840002
4.33224e-08
0.00840002
1.30705e-07
0.0084
3.48736e-07
0.00839996
7.89578e-07
0.00839986
1.8769e-06
0.00839967
3.97948e-06
0.00839909
9.67481e-06
0.00839892
1.93724e-05
0.00839306
5.47354e-05
0.00840124
0.00011735
0.00834657
0.000408404
0.00836203
0.00108741
0.00836731
0.00549644
0.00800363
0.00664616
0.0077754
0.00636273
0.00755348
0.0061381
0.00739646
0.00624981
0.0072769
0.00656437
0.00720652
0.00691123
0.007246
0.00722529
0.00745095
0.0074516
0.00783396
0.00758495
0.00837841
0.00742783
0.00680192
0.00883641
0.00840003
6.79582e-09
0.00840003
4.24039e-08
0.00840003
1.2751e-07
0.00840003
3.40937e-07
0.00840005
7.69354e-07
0.00840006
1.84193e-06
0.00840016
3.85743e-06
0.00840015
9.53333e-06
0.00840078
1.87293e-05
0.00839989
5.4849e-05
0.00840902
0.000107743
0.00841117
0.000404124
0.00846864
0.00102651
0.00922455
0.00472737
0.00875484
0.00711933
0.00828133
0.00683917
0.00798716
0.00643434
0.00783729
0.00640053
0.00777351
0.00662851
0.00778706
0.00689777
0.00788653
0.00712617
0.00811705
0.00722145
0.00847897
0.0072234
0.00891889
0.00698828
0.00646211
0.00925892
0.00840003
5.83477e-09
0.00840003
3.64662e-08
0.00840005
1.10495e-07
0.00840009
2.93446e-07
0.00840019
6.64331e-07
0.00840045
1.56025e-06
0.00840098
3.30473e-06
0.00840266
7.74757e-06
0.00840518
1.61271e-05
0.00841858
4.08255e-05
0.00843935
8.65493e-05
0.00857248
0.000268742
0.00892623
0.000670431
0.0109977
0.0026375
0.0100861
0.00803637
0.00906484
0.00786514
0.00863997
0.0068628
0.00839182
0.00665103
0.00830173
0.00671975
0.00833406
0.00686608
0.00845887
0.00700154
0.00867357
0.00700688
0.00896903
0.00692821
0.00930035
0.00665727
0.00618633
0.0095765
0.00840003
5.11765e-09
0.00840003
3.1984e-08
0.00840004
9.68661e-08
0.00840008
2.57181e-07
0.00840016
5.8207e-07
0.00840034
1.36476e-06
0.00840073
2.896e-06
0.00840166
6.73436e-06
0.00840363
1.41136e-05
0.00841064
3.34219e-05
0.00841732
7.95205e-05
0.00848527
0.000199311
0.00859459
0.00056112
0.00925302
0.00197481
0.00980457
0.0074833
0.00994856
0.00772259
0.0091822
0.00763128
0.00887595
0.00695905
0.00875973
0.00683732
0.00877308
0.00685386
0.00889274
0.00688251
0.00909213
0.0068078
0.00935457
0.00666573
0.00961816
0.00639387
0.0059654
0.00983933
0.00840003
4.58269e-09
0.00840003
2.86228e-08
0.00840004
8.66245e-08
0.00840007
2.3008e-07
0.00840012
5.20886e-07
0.00840025
1.22253e-06
0.00840054
2.59362e-06
0.00840117
6.04057e-06
0.00840266
1.26103e-05
0.00840482
3.09048e-05
0.00841766
6.65501e-05
0.00843097
0.000184701
0.00849155
0.000499463
0.00871783
0.00174589
0.00953795
0.00665546
0.00955089
0.0077076
0.00948386
0.00769755
0.0092311
0.00721284
0.0091304
0.00693898
0.00914196
0.00684327
0.00923839
0.00678669
0.00938959
0.00665691
0.0096052
0.00645009
0.0098298
0.00616897
0.00577836
0.0100168
0.00840003
4.10584e-09
0.00840003
2.56377e-08
0.00840004
7.74385e-08
0.00840006
2.06095e-07
0.00840011
4.66119e-07
0.00840022
1.09997e-06
0.00840048
2.32376e-06
0.00840097
5.48208e-06
0.00840233
1.12685e-05
0.00840421
2.87318e-05
0.00841286
5.76205e-05
0.00842154
0.000174764
0.00849574
0.000423677
0.00871758
0.00152337
0.00961248
0.00575281
0.00963672
0.0076821
0.00957195
0.00776151
0.009438
0.00734686
0.00940468
0.00697319
0.00944557
0.006803
0.00954436
0.00668911
0.00966876
0.00653291
0.00981983
0.00629982
0.00999224
0.0059967
0.00562836
0.0101422
0.00840003
3.5162e-09
0.00840003
2.19571e-08
0.00840004
6.63759e-08
0.00840007
1.76538e-07
0.00840014
3.99322e-07
0.00840028
9.40876e-07
0.00840061
1.98572e-06
0.00840136
4.67304e-06
0.00840307
9.55906e-06
0.00840693
2.46392e-05
0.00841832
4.58926e-05
0.0084446
0.00014737
0.00852985
0.000336249
0.00887171
0.0011834
0.0108526
0.00376114
0.0102955
0.00823827
0.0101555
0.00790136
0.00987962
0.00762303
0.00974815
0.00710589
0.00974494
0.00680742
0.00981275
0.00662202
0.00991691
0.00642948
0.0100301
0.00618639
0.0101468
0.00588031
0.00551933
0.0102558
0.00840003
2.88673e-09
0.00840003
1.80239e-08
0.00840004
5.45378e-08
0.00840008
1.44811e-07
0.00840015
3.27892e-07
0.00840031
7.68408e-07
0.00840066
1.63034e-06
0.00840153
3.77118e-06
0.00840321
7.84432e-06
0.00840915
1.85429e-05
0.0084147
4.02195e-05
0.00846561
9.57049e-05
0.0085543
0.000246788
0.00902601
0.000710137
0.0106829
0.00210008
0.0111707
0.00774583
0.0108675
0.00820425
0.0105026
0.00798832
0.0102293
0.00738054
0.0101151
0.00692264
0.0101158
0.00662255
0.0101694
0.00637692
0.0102466
0.00610984
0.0103216
0.00580499
0.00545504
0.0103858
0.00840003
2.27566e-09
0.00840003
1.42122e-08
0.00840004
4.31096e-08
0.00840007
1.14204e-07
0.00840014
2.58627e-07
0.0084003
6.02814e-07
0.00840065
1.2772e-06
0.00840146
2.93005e-06
0.00840322
6.06269e-06
0.00840702
1.45743e-05
0.00841911
2.81358e-05
0.00843251
8.16202e-05
0.00851726
0.000161247
0.00864458
0.000580598
0.00922707
0.00151445
0.0109651
0.0059998
0.0110684
0.00810017
0.010923
0.00813316
0.0106129
0.00769119
0.0104564
0.00708015
0.0104019
0.00667779
0.0104104
0.00636953
0.0104501
0.00607107
0.0105004
0.00575511
0.00541495
0.01054
0.00840003
1.79861e-09
0.00840003
1.1231e-08
0.00840004
3.40333e-08
0.00840007
9.02088e-08
0.00840012
2.04224e-07
0.00840024
4.76484e-07
0.0084005
1.00967e-06
0.0084011
2.31699e-06
0.00840235
4.79732e-06
0.00840551
1.13206e-05
0.00841061
2.30251e-05
0.00843082
6.08937e-05
0.00847248
0.000119522
0.00864419
0.000407172
0.00915339
0.00100331
0.0114237
0.0037206
0.0114314
0.00809143
0.011389
0.0081767
0.0111543
0.00792658
0.0108619
0.00737297
0.0107209
0.00682016
0.010669
0.0064222
0.0106582
0.00608303
0.0106672
0.00574691
0.00539669
0.0106854
0.00840003
1.39265e-09
0.00840003
8.69678e-09
0.00840004
2.63502e-08
0.00840006
6.98489e-08
0.00840011
1.58122e-07
0.00840021
3.68996e-07
0.00840044
7.82219e-07
0.00840095
1.79429e-06
0.00840201
3.72281e-06
0.00840459
8.68257e-06
0.00840952
1.80728e-05
0.0084274
4.27335e-05
0.00844647
0.000100169
0.00861039
0.00024216
0.00891967
0.000694566
0.010421
0.00221683
0.0116692
0.00683844
0.0116604
0.00818494
0.0114784
0.00810888
0.0112103
0.00764142
0.0110787
0.00695245
0.0109868
0.00651508
0.0109393
0.00613107
0.0109088
0.00577835
0.00542593
0.0108804
0.00840003
1.03857e-09
0.00840003
6.46688e-09
0.00840004
1.97389e-08
0.00840006
5.18928e-08
0.0084001
1.18238e-07
0.00840019
2.72945e-07
0.00840039
5.82278e-07
0.00840086
1.31643e-06
0.00840184
2.74304e-06
0.00840417
6.33023e-06
0.0084094
1.2832e-05
0.00841907
3.27469e-05
0.00845858
6.10532e-05
0.00850464
0.000195119
0.00877422
0.000425766
0.00935446
0.00163334
0.0116229
0.00456651
0.011831
0.00797768
0.0118375
0.00810241
0.0116756
0.00780296
0.0113828
0.00724504
0.0112647
0.00663407
0.0111892
0.00620751
0.0111398
0.00582818
0.00546902
0.0110969
0.00840003
6.44425e-10
0.00840003
5.09251e-09
0.00840004
1.30964e-08
0.00840005
4.01229e-08
0.00840009
7.82722e-08
0.00840015
2.11412e-07
0.00840035
3.78793e-07
0.00840063
1.02785e-06
0.00840163
1.73581e-06
0.00840297
4.98541e-06
0.00840794
7.84258e-06
0.00841535
2.53408e-05
0.00844215
3.48104e-05
0.00849395
0.000141766
0.0087168
0.000205136
0.00944743
0.000896967
0.0117261
0.0022932
0.0125828
0.00710661
0.0123771
0.00830312
0.0121532
0.00802663
0.0118166
0.00758289
0.0116285
0.00682391
0.0114947
0.00634143
0.0113983
0.00592456
0.00554801
0.0113193
0.00840003
5.41311e-10
0.00840003
3.00644e-09
0.00840004
1.0061e-08
0.00840005
2.44574e-08
0.00840007
6.02584e-08
0.00840015
1.27679e-07
0.00840022
2.97811e-07
0.00840064
6.06418e-07
0.008401
1.41719e-06
0.00840323
2.81952e-06
0.00840484
6.8056e-06
0.00841714
1.28918e-05
0.00841547
3.56571e-05
0.00851044
6.00338e-05
0.00849864
0.000212563
0.00900828
0.000431865
0.00949077
0.00174045
0.0120237
0.00458056
0.0124756
0.00786171
0.0125699
0.00793566
0.012407
0.00774382
0.0120604
0.00716723
0.0118429
0.00655882
0.0117056
0.00606265
0.00566129
0.0115929
0.00840003
3.81889e-10
0.00840003
2.13013e-09
0.00840003
6.97163e-09
0.00840004
1.72522e-08
0.00840006
4.16974e-08
0.0084001
9.02041e-08
0.00840019
2.05737e-07
0.00840036
4.297e-07
0.0084008
9.76791e-07
0.0084016
2.01254e-06
0.00840375
4.61505e-06
0.00840705
9.67405e-06
0.0084207
2.16322e-05
0.00843164
4.95331e-05
0.00853747
0.000105031
0.00868182
0.000288668
0.00967021
0.000741419
0.0121609
0.00209973
0.0130441
0.00698188
0.012925
0.00804962
0.0128666
0.0077966
0.0124986
0.00753219
0.0122511
0.00680726
0.0120504
0.00626406
0.00581601
0.0118961
0.00840003
2.45266e-10
0.00840003
1.38501e-09
0.00840003
4.50813e-09
0.00840004
1.12441e-08
0.00840005
2.67566e-08
0.00840009
5.81093e-08
0.00840016
1.29398e-07
0.00840032
2.70817e-07
0.00840069
5.96243e-07
0.00840147
1.22866e-06
0.00840329
2.76326e-06
0.00840761
5.39315e-06
0.00841527
1.3831e-05
0.00844135
2.34679e-05
0.00846677
7.89234e-05
0.00862602
0.000128792
0.00882414
0.000540324
0.00969734
0.0012244
0.0123568
0.00431154
0.0129376
0.00746224
0.0130644
0.00766492
0.0129912
0.00760398
0.0126658
0.00713357
0.0124325
0.00649783
0.00599996
0.0122488
0.00840003
1.86198e-10
0.00840003
8.86443e-10
0.00840003
3.27357e-09
0.00840004
7.28652e-09
0.00840004
1.95353e-08
0.00840006
3.79879e-08
0.00840009
9.68775e-08
0.00840019
1.79086e-07
0.00840031
4.64769e-07
0.00840072
8.22574e-07
0.00840122
2.24872e-06
0.00840289
3.70553e-06
0.0084054
1.1271e-05
0.00841284
1.6017e-05
0.00843291
5.85541e-05
0.00848596
7.59203e-05
0.00870497
0.000319825
0.00932891
0.000599232
0.0116926
0.00194363
0.013033
0.00611549
0.013071
0.00762424
0.0131931
0.00748066
0.0130113
0.00731603
0.0127612
0.00674869
0.00620971
0.0125519
0.00840003
8.49294e-11
0.00840003
6.30418e-10
0.00840003
1.68969e-09
0.00840003
5.00588e-09
0.00840004
1.00589e-08
0.00840006
2.59562e-08
0.0084001
4.80028e-08
0.00840016
1.22806e-07
0.0084004
2.15498e-07
0.00840064
5.75758e-07
0.00840195
9.36581e-07
0.00840278
2.82101e-06
0.00841019
3.78923e-06
0.00841075
1.52084e-05
0.00845411
1.48121e-05
0.00844087
8.83168e-05
0.00867826
8.24594e-05
0.00874452
0.000530674
0.00965978
0.00102703
0.0125165
0.00325205
0.0131972
0.00694304
0.0132623
0.00741647
0.0132531
0.00732569
0.0129571
0.00704465
0.0064002
0.0127668
0.00840003
5.84205e-11
0.00840003
3.27826e-10
0.00840003
1.09252e-09
0.00840003
2.66497e-09
0.00840004
6.4497e-09
0.00840005
1.36101e-08
0.00840007
3.08148e-08
0.00840013
6.2213e-08
0.0084002
1.40068e-07
0.00840049
2.76077e-07
0.00840077
6.38026e-07
0.00840238
1.204e-06
0.00840304
3.06287e-06
0.00841297
5.17598e-06
0.00841106
1.63637e-05
0.00847446
2.44789e-05
0.008459
9.68357e-05
0.00882368
0.000165705
0.00919369
0.000655278
0.010886
0.00155809
0.0131181
0.00470606
0.0134113
0.00712086
0.0135032
0.00723383
0.0134146
0.00713374
0.00669887
0.0131164
0.00840003
3.69342e-11
0.00840003
2.07768e-10
0.00840003
6.79383e-10
0.00840003
1.68336e-09
0.00840003
4.02326e-09
0.00840004
8.66101e-09
0.00840005
1.93909e-08
0.00840007
4.0185e-08
0.00840012
8.92103e-08
0.00840021
1.82464e-07
0.00840044
4.08793e-07
0.0084008
8.31032e-07
0.00840195
1.89587e-06
0.00840328
3.81729e-06
0.00841043
9.11633e-06
0.00841685
1.80839e-05
0.0084653
4.78644e-05
0.00853548
9.58801e-05
0.00889513
0.00029387
0.00971959
0.00073251
0.0122461
0.00217729
0.013515
0.00584827
0.0135583
0.00718947
0.0137351
0.00695634
0.00689354
0.0135412
0.00840003
2.33941e-11
0.00840003
1.31351e-10
0.00840003
4.29606e-10
0.00840003
1.06454e-09
0.00840003
2.55127e-09
0.00840004
5.50152e-09
0.00840004
1.2375e-08
0.00840006
2.57137e-08
0.00840009
5.74211e-08
0.00840015
1.17802e-07
0.00840029
2.65538e-07
0.00840058
5.4089e-07
0.00840123
1.23711e-06
0.00840252
2.51258e-06
0.00840574
5.8438e-06
0.00841197
1.18447e-05
0.00843099
2.85745e-05
0.00846693
5.99455e-05
0.00860781
0.000151773
0.0089584
0.000382218
0.00995834
0.00117379
0.0127682
0.00303343
0.0136634
0.00629313
0.0137126
0.00690703
0.00673213
0.0138739
0.00840003
1.41896e-11
0.00840003
8.0093e-11
0.00840003
2.61321e-10
0.00840003
6.49861e-10
0.00840003
1.54759e-09
0.00840003
3.34464e-09
0.00840004
7.45076e-09
0.00840005
1.55165e-08
0.00840007
3.41674e-08
0.00840012
7.03183e-08
0.00840023
1.55375e-07
0.00840045
3.18114e-07
0.00840096
7.09889e-07
0.00840203
1.43295e-06
0.00840451
3.30899e-06
0.00840989
6.43e-06
0.00842205
1.61834e-05
0.00845212
2.95695e-05
0.00851541
8.75155e-05
0.00873059
0.000164754
0.00932689
0.000574749
0.0110311
0.00132393
0.0133025
0.00401575
0.013811
0.00639639
0.00663893
0.0139034
0.00840003
9.20916e-12
0.00840003
4.7265e-11
0.00840003
1.64984e-10
0.00840003
3.86434e-10
0.00840003
9.78005e-10
0.00840003
2.00523e-09
0.00840004
4.76714e-09
0.00840004
9.40757e-09
0.00840005
2.23471e-08
0.00840008
4.31956e-08
0.00840013
1.05378e-07
0.00840025
1.96714e-07
0.00840045
5.04992e-07
0.00840098
8.90767e-07
0.00840183
2.44047e-06
0.00840431
3.93073e-06
0.0084085
1.189e-05
0.00842172
1.63323e-05
0.00845062
5.8141e-05
0.00854234
7.32521e-05
0.00882084
0.000294432
0.009574
0.000569061
0.0120069
0.0015804
0.0136354
0.00476406
0.00633964
0.0139318
0.00840003
3.96602e-12
0.00840003
2.67671e-11
0.00840003
7.7199e-11
0.00840003
2.13504e-10
0.00840003
4.55858e-10
0.00840003
1.08118e-09
0.00840003
2.14315e-09
0.00840004
4.9166e-09
0.00840005
9.42274e-09
0.00840007
2.1995e-08
0.00840014
3.96661e-08
0.00840023
1.00804e-07
0.00840057
1.62772e-07
0.00840096
4.767e-07
0.00840276
6.63045e-07
0.00840416
2.37519e-06
0.0084134
2.7429e-06
0.00841619
1.30386e-05
0.00846313
1.1546e-05
0.00846224
7.24761e-05
0.00869407
6.42113e-05
0.0088676
0.000390154
0.00978903
0.000656175
0.0126214
0.0019238
0.00514497
0.0138128
0.00840003
1.8734e-12
0.00840003
1.09292e-11
0.00840003
3.59598e-11
0.00840003
8.87767e-11
0.00840003
2.0579e-10
0.00840003
4.31125e-10
0.00840003
9.06399e-10
0.00840004
1.79261e-09
0.00840004
3.63965e-09
0.00840006
6.8062e-09
0.00840008
1.41538e-08
0.00840016
2.36399e-08
0.00840027
5.18191e-08
0.00840067
7.40484e-08
0.00840114
1.8917e-07
0.00840335
1.83702e-07
0.00840503
8.30398e-07
0.00841777
5.37885e-07
0.00842204
6.58918e-06
0.00848897
6.15875e-06
0.00849572
5.56393e-05
0.00881045
7.57728e-05
0.00906351
0.000401204
0.0101793
0.000803343
0.00252146
0.0127961
0.00840003
1.05279e-12
0.00840003
5.41482e-12
0.00840003
1.90751e-11
0.00840003
4.41959e-11
0.00840003
1.10209e-10
0.00840003
2.18555e-10
0.00840003
5.06737e-10
0.00840003
9.4427e-10
0.00840003
2.19729e-09
0.00840004
3.92557e-09
0.00840004
9.4818e-09
0.00840005
1.63635e-08
0.00840006
4.17204e-08
0.00840006
6.94193e-08
0.00840006
1.91043e-07
0.00839994
3.01843e-07
0.00839981
9.31333e-07
0.00839899
1.35367e-06
0.00840052
4.93891e-06
0.00839991
6.78295e-06
0.00842669
2.84076e-05
0.00846204
4.0534e-05
0.00869471
0.000166987
0.00916539
0.000333171
0.00100858
0.0106745
0.00840003
4.68807e-13
0.00840003
3.25171e-12
0.00840003
9.19004e-12
0.00840003
2.58396e-11
0.00840003
5.39216e-11
0.00840003
1.30236e-10
0.00840003
2.49905e-10
0.00840003
5.90008e-10
0.00840003
1.08812e-09
0.00840003
2.62848e-09
0.00840004
4.70718e-09
0.00840004
1.1858e-08
0.00840006
2.07162e-08
0.00840008
5.47282e-08
0.00840018
9.27497e-08
0.00840021
2.61914e-07
0.00840073
4.15437e-07
0.00840074
1.31072e-06
0.00840383
1.85855e-06
0.00840361
6.85577e-06
0.00842362
8.51724e-06
0.00842679
3.67389e-05
0.00854853
4.56837e-05
0.00868455
0.000195
0.000364406
0.00932921
0.00840003
3.01026e-13
0.00840003
1.56838e-12
0.00840003
5.49788e-12
0.00840003
1.28216e-11
0.00840003
3.21913e-11
0.00840003
6.51247e-11
0.00840003
1.52542e-10
0.00840003
2.95112e-10
0.00840003
6.90384e-10
0.00840003
1.30464e-09
0.00840003
3.13993e-09
0.00840004
5.76042e-09
0.00840005
1.45708e-08
0.00840008
2.55061e-08
0.0084001
6.87805e-08
0.00840025
1.13929e-07
0.00840033
3.31293e-07
0.00840114
4.9593e-07
0.00840138
1.5764e-06
0.00840611
2.12823e-06
0.00840671
7.80257e-06
0.00843452
9.00364e-06
0.00843859
4.11458e-05
0.00858887
4.53857e-05
0.000208105
0.00874274
0.00840003
1.27455e-13
0.00840003
8.50965e-13
0.00840003
2.48375e-12
0.00840003
6.79187e-12
0.00840003
1.45522e-11
0.00840003
3.39331e-11
0.00840003
6.71673e-11
0.00840003
1.50816e-10
0.00840003
2.88618e-10
0.00840003
6.5243e-10
0.00840003
1.19784e-09
0.00840004
2.87619e-09
0.00840005
4.79605e-09
0.00840006
1.31732e-08
0.00840011
1.87978e-08
0.00840018
5.97969e-08
0.00840043
7.27326e-08
0.00840055
2.81159e-07
0.00840192
3.37048e-07
0.00840281
1.32482e-06
0.00841246
1.64898e-06
0.0084087
7.26129e-06
0.00847243
6.32315e-06
0.00845614
4.14528e-05
3.75976e-05
0.00864216
0.00840003
6.67202e-14
0.00840003
3.63366e-13
0.00840003
1.24315e-12
0.00840003
2.96128e-12
0.00840003
7.15824e-12
0.00840003
1.46222e-11
0.00840003
3.24327e-11
0.00840003
6.28055e-11
0.00840003
1.37131e-10
0.00840003
2.55962e-10
0.00840003
5.7356e-10
0.00840003
1.00173e-09
0.00840004
2.47107e-09
0.00840005
3.72902e-09
0.00840005
1.11076e-08
0.0084001
1.38475e-08
0.00840012
5.06683e-08
0.00840035
5.41217e-08
0.00840043
2.35434e-07
0.00840154
2.78486e-07
0.00840181
1.06857e-06
0.00840915
1.30463e-06
0.00840849
6.6958e-06
0.0084595
5.29655e-06
3.82933e-05
0.00844007
0.00840003
2.6094e-14
0.00840003
1.70508e-13
0.00840003
5.09983e-13
0.00840003
1.36053e-12
0.00840003
2.93577e-12
0.00840003
6.59163e-12
0.00840003
1.29964e-11
0.00840003
2.78762e-11
0.00840003
5.24199e-11
0.00840003
1.13819e-10
0.00840003
2.02169e-10
0.00840003
4.68803e-10
0.00840003
7.48614e-10
0.00840003
2.02576e-09
0.00840004
2.71039e-09
0.00840005
9.06248e-09
0.00840009
9.9182e-09
0.0084001
4.26234e-08
0.0084003
4.29018e-08
0.00840038
2.07609e-07
0.00840129
2.14507e-07
0.00840185
9.20342e-07
0.00840767
6.13104e-07
0.00839879
5.61448e-06
3.98315e-06
0.00844096
0.00840003
1.16348e-14
0.00840003
6.79906e-14
0.00840003
2.22727e-13
0.00840003
5.49064e-13
0.00840003
1.26638e-12
0.00840003
2.63161e-12
0.00840003
5.51606e-12
0.00840003
1.0803e-11
0.00840003
2.20546e-11
0.00840003
4.16523e-11
0.00840003
8.5955e-11
0.00840003
1.54774e-10
0.00840003
3.33119e-10
0.00840003
5.47662e-10
0.00840003
1.28074e-09
0.00840004
1.90525e-09
0.00840004
5.65e-09
0.00840007
7.7362e-09
0.00840011
2.81014e-08
0.00840038
4.16374e-08
0.00839985
1.28775e-07
0.00840132
2.02504e-07
0.00840189
5.75038e-07
0.00840283
6.15655e-10
3.2538e-06
0.00840683
0.00840003
4.81196e-15
0.00840003
2.81944e-14
0.00840003
9.15243e-14
0.00840003
2.27892e-13
0.00840003
5.17663e-13
0.00840003
1.08425e-12
0.00840003
2.22435e-12
0.00840003
4.39058e-12
0.00840003
8.69391e-12
0.00840003
1.67609e-11
0.00840003
3.28761e-11
0.00840003
6.35442e-11
0.00840003
1.24236e-10
0.00840003
2.39822e-10
0.00840003
4.64271e-10
0.00840003
8.65607e-10
0.00840004
1.45898e-09
0.00840005
2.81531e-09
0.00840005
5.05349e-09
0.00840009
9.74163e-09
0.00840016
2.90199e-08
0.00840052
4.98663e-08
0.00839941
1.0819e-07
0.00839699
1.20687e-07
3.40467e-07
0.00840465
0.00840003
2.10015e-15
0.00840003
1.22335e-14
0.00840003
3.97267e-14
0.00840003
9.86456e-14
0.00840003
2.24953e-13
0.00840003
4.72705e-13
0.00840003
9.7089e-13
0.00840003
1.94239e-12
0.00840003
3.76625e-12
0.00840003
7.49434e-12
0.00840003
1.44231e-11
0.00840003
2.74335e-11
0.00840003
5.74027e-11
0.00840003
9.78639e-11
0.00840003
1.99233e-10
0.00840003
3.20277e-10
0.00840003
3.99546e-10
0.00840004
9.02641e-10
0.00840003
-8.73416e-10
0.00840009
-1.76669e-09
0.0084001
-1.51716e-08
0.00839999
-1.32907e-08
0.00840065
-4.21878e-07
0.00839635
-1.30679e-06
-8.32396e-07
0.00841215
0.00840003
9.12952e-16
0.00840003
5.30251e-15
0.00840003
1.72144e-14
0.00840003
4.29566e-14
0.00840003
9.81217e-14
0.00840003
2.08427e-13
0.00840003
4.26138e-13
0.00840003
8.79356e-13
0.00840003
1.70467e-12
0.00840003
3.35666e-12
0.00840003
5.91736e-12
0.00840003
1.08909e-11
0.00840003
1.21029e-11
0.00840003
2.3949e-11
0.00840003
1.47343e-11
0.00840003
4.8064e-11
0.00840003
4.27836e-10
0.00840003
2.02119e-10
0.00840001
4.1059e-09
0.00840015
8.26658e-09
0.00840001
-1.62834e-08
0.00840011
-7.85412e-09
0.00839853
-1.98738e-07
0.00839554
-2.35511e-07
-2.5206e-06
0.00839518
0.00840003
4.54606e-16
0.00840003
2.11864e-15
0.00840003
7.96748e-15
0.00840003
1.68187e-14
0.00840003
4.48294e-14
0.00840003
7.23579e-14
0.00840003
2.11329e-13
0.00840003
2.19492e-13
0.00840003
9.92544e-13
0.00840003
4.94171e-13
0.00840003
5.38104e-12
0.00840003
5.92751e-13
0.00840003
3.62506e-11
0.00840003
-4.01776e-12
0.00840003
2.61296e-10
0.00840003
-1.45057e-10
0.00840003
1.38109e-09
0.00840002
-6.87697e-10
0.00840004
4.55277e-09
0.00840002
-2.00852e-08
0.00839989
1.04587e-07
0.00840032
-1.31666e-07
0.00839747
9.89635e-07
0.0083962
1.78356e-06
2.8993e-06
0.00838949
0.00840003
7.73036e-17
0.00840003
1.00316e-15
0.00840003
1.81848e-15
0.00840003
7.60779e-15
0.00840003
6.78543e-15
0.00840003
3.75509e-14
0.00840003
-1.2226e-14
0.00840003
1.53266e-13
0.00840003
-3.18828e-13
0.00840003
6.69191e-13
0.00840003
-2.80771e-12
0.00840003
4.14111e-12
0.00840003
-2.30851e-11
0.00840003
2.5952e-11
0.00840003
-2.06075e-10
0.00840003
2.32089e-10
0.00840003
-1.22397e-09
0.00840004
9.44275e-10
0.00839998
-3.69597e-09
0.0084001
2.24608e-08
0.00839981
-1.05056e-07
0.0083998
1.2404e-07
0.00840273
-1.03168e-06
0.00840247
-1.94713e-06
-3.29479e-06
0.0084294
0.00840003
0.00840003
0.00840003
0.00840003
0.00840003
0.00840003
0.00840003
0.00840003
0.00840003
0.00840003
0.00840003
0.00840003
0.00840003
0.00840003
0.00840003
0.00840003
0.00840003
0.00840003
0.00840002
0.00840008
0.0083999
0.00840018
0.00839902
0.00839362
0.0083957
0.00558063
0.00367844
0.00393907
0.00164153
0.00303919
0.000899884
0.00250121
0.000538014
0.00218327
0.000317975
0.00200091
0.000182461
0.0019112
8.9828e-05
0.00189894
1.24004e-05
0.00201251
-0.000113368
0.00223883
-0.000225972
0.00238185
-0.000142709
0.00246198
-7.98936e-05
0.00248554
-2.33736e-05
0.00248136
4.33174e-06
0.00246785
1.36288e-05
0.00245926
8.70926e-06
0.00245874
5.12134e-07
0.00246554
-6.76437e-06
0.00247224
-7.18599e-06
0.00247395
-3.12408e-06
0.00246629
3.48005e-06
0.00243761
1.72349e-05
0.00236727
4.36883e-05
0.00220129
0.00011359
0.00178584
0.000274884
0.000871557
0.000722708
0.000167862
0.000671497
-0.000376587
0.000545103
-0.000871864
0.00049737
-0.00131077
0.000440587
-0.00168836
0.000379072
-0.00199697
0.0003079
-0.00222234
0.000232968
-0.00236739
0.000151557
-0.00248095
0.000115267
-0.00256405
8.6506e-05
-0.00260137
3.93061e-05
-0.00260519
4.02996e-06
-0.00257034
-3.91694e-05
-0.00247848
-0.000100633
-0.00232115
-0.000169941
-0.00210408
-0.000229646
-0.00183774
-0.000277411
-0.00154763
-0.000299882
-0.00124305
-0.000310324
-0.000896587
-0.000347823
-0.000561233
-0.000332862
-0.00022774
-0.000327998
0.00011615
-0.000336527
0.000470052
-0.00034566
0.000783232
-0.000304517
0.00106926
-0.00027812
0.00133954
-0.000263571
0.00159156
-0.000246917
0.00182746
-0.000232058
0.0020512
-0.000221502
0.00226967
-0.000218514
0.00247494
-0.000206959
0.00266912
-0.000197488
0.00285113
-0.000186832
0.0030222
-0.000177126
0.00318205
-0.000166945
0.00333197
-0.000157912
0.00347177
-0.000148575
0.00360213
-0.000140196
0.00372358
-0.000131633
0.00383652
-0.000123885
0.00394146
-0.000115885
0.00403875
-0.000108589
0.00412903
-0.000100955
0.0042127