/*--------------------------------*- C++ -*----------------------------------*\
  =========                 |
  \\      /  F ield         | OpenFOAM: The Open Source CFD Toolbox
   \\    /   O peration     | Website:  https://openfoam.org
    \\  /    A nd           | Version:  6
     \\/     M anipulation  |
\*---------------------------------------------------------------------------*/
FoamFile
{
    version     2.0;
    format      ascii;
    class       volScalarField;
    location    "3.5";
    object      T;
}
// * * * * * * * * * * * * * * * * * * * * * * * * * * * * * * * * * * * * * //

dimensions      [0 0 0 1 0 0 0];

internalField   nonuniform List<scalar> 
5250
(
1.00006
1.00013
1.0004
1.00079
1.00226
1.00436
1.01193
1.02506
1.06096
1.15242
1.36378
1.92219
2.79847
2.76298
2.79134
2.74723
2.73012
2.74815
2.76082
2.7748
2.78274
2.78717
2.79225
2.79423
2.79781
1.00006
1.00013
1.0004
1.00079
1.00225
1.00434
1.01189
1.02495
1.06073
1.15175
1.36237
1.9177
2.79685
2.76346
2.78893
2.74563
2.7294
2.74727
2.75982
2.77322
2.78054
2.78476
2.78954
2.79179
2.79555
1.00005
1.00013
1.0004
1.00078
1.00223
1.0043
1.01178
1.02472
1.06023
1.15026
1.35923
1.90601
2.79331
2.76455
2.78317
2.74208
2.72769
2.74536
2.75808
2.77086
2.77805
2.7822
2.78625
2.78743
2.79097
1.00005
1.00013
1.00039
1.00077
1.0022
1.00424
1.01162
1.02435
1.05945
1.14785
1.35412
1.88635
2.78761
2.76623
2.77413
2.7369
2.72402
2.74074
2.7537
2.7655
2.77138
2.77661
2.78136
2.78159
2.78367
1.00005
1.00013
1.00039
1.00076
1.00216
1.00416
1.01141
1.02383
1.05842
1.14439
1.3472
1.85726
2.77798
2.76838
2.76421
2.72879
2.71886
2.73541
2.74781
2.75947
2.76512
2.76651
2.77113
2.7736
2.77467
1.00005
1.00012
1.00038
1.00074
1.0021
1.00405
1.01114
1.02318
1.05703
1.14086
1.33664
1.83919
2.76985
2.77018
2.75576
2.71793
2.70876
2.72409
2.73645
2.74601
2.75552
2.75866
2.75792
2.75811
2.76053
1.00005
1.00012
1.00036
1.00071
1.00204
1.00391
1.01082
1.02236
1.05534
1.13641
1.32364
1.81716
2.75134
2.76628
2.74871
2.71192
2.70213
2.71391
2.72604
2.73202
2.73561
2.73954
2.74418
2.74147
2.74089
1.00005
1.00011
1.00035
1.00068
1.00196
1.00375
1.01042
1.02139
1.05325
1.13114
1.30801
1.79039
2.72247
2.76048
2.73471
2.70271
2.69179
2.70175
2.71029
2.71943
2.72144
2.72097
2.71656
2.71431
2.71008
1.00005
1.00011
1.00033
1.00065
1.00186
1.00356
1.00994
1.02028
1.05078
1.12452
1.29114
1.7571
2.67947
2.75001
2.71749
2.70084
2.68237
2.68941
2.69042
2.69398
2.69584
2.69431
2.68999
2.67427
2.65735
1.00004
1.0001
1.00031
1.00061
1.00175
1.00334
1.00936
1.019
1.04785
1.11672
1.2722
1.71845
2.61733
2.73566
2.68689
2.68906
2.67744
2.67965
2.67862
2.67538
2.66709
2.65802
2.63968
2.61394
2.54835
1.00004
1.00009
1.00029
1.00056
1.00162
1.00308
1.00868
1.01749
1.04437
1.10765
1.24958
1.66911
2.54694
2.703
2.69229
2.66516
2.657
2.65977
2.66086
2.65559
2.63747
2.6197
2.58534
2.51585
2.37914
1.00004
1.00008
1.00026
1.00051
1.00147
1.00278
1.00787
1.01573
1.04033
1.09683
1.22316
1.60786
2.45053
2.65936
2.68386
2.66364
2.6432
2.63676
2.63471
2.62731
2.6097
2.57183
2.52662
2.45389
2.30528
1.00003
1.00007
1.00023
1.00045
1.00129
1.00243
1.00693
1.01369
1.03541
1.08496
1.19018
1.53998
2.3278
2.60481
2.67304
2.65774
2.63442
2.61998
2.60867
2.59761
2.57601
2.5412
2.47132
2.40638
2.29087
1.00003
1.00006
1.0002
1.00038
1.0011
1.00207
1.00593
1.01158
1.03046
1.0707
1.16081
1.44531
2.15962
2.5315
2.65621
2.64255
2.62478
2.5991
2.58478
2.56561
2.54181
2.51325
2.45215
2.38629
2.29177
1.00002
1.00005
1.00016
1.00032
1.00091
1.00172
1.00492
1.00945
1.02555
1.05537
1.13381
1.33824
1.92032
2.45246
2.61877
2.60564
2.59837
2.5805
2.55938
2.54079
2.50376
2.47693
2.42326
2.37243
2.2958
1.00002
1.00004
1.00014
1.00027
1.00076
1.00143
1.00411
1.00784
1.02146
1.0455
1.11257
1.2759
1.76114
2.41035
2.60804
2.56742
2.56388
2.55198
2.53797
2.52298
2.48874
2.45612
2.40266
2.35007
2.29046
1.00002
1.00004
1.00011
1.00022
1.00063
1.00118
1.00339
1.00644
1.01768
1.03803
1.08981
1.23941
1.57457
2.31546
2.5721
2.5647
2.53462
2.52037
2.50374
2.49362
2.46808
2.44267
2.39808
2.34419
2.28934
1.00001
1.00003
1.00009
1.00018
1.00051
1.00095
1.00275
1.00518
1.01431
1.03044
1.07249
1.19553
1.44556
2.10677
2.49147
2.55348
2.52494
2.51162
2.48544
2.4667
2.44553
2.41559
2.3857
2.34111
2.29057
1.00001
1.00002
1.00007
1.00014
1.0004
1.00074
1.00216
1.00401
1.01129
1.02319
1.05666
1.14698
1.33079
1.90606
2.34123
2.51373
2.50969
2.49729
2.47432
2.45121
2.42725
2.40026
2.3668
2.33358
2.28995
1.00001
1.00002
1.00005
1.00011
1.0003
1.00057
1.00165
1.00303
1.00874
1.01688
1.04474
1.10124
1.24609
1.6025
2.27343
2.44493
2.46633
2.46167
2.45019
2.42887
2.40736
2.38196
2.35292
2.31862
2.28523
1.00001
1.00001
1.00004
1.00008
1.00023
1.00042
1.00123
1.00225
1.00655
1.01251
1.03279
1.07783
1.17325
1.48682
2.14105
2.38742
2.44309
2.436
2.42611
2.4064
2.38728
2.36567
2.33948
2.30869
2.2747
1
1.00001
1.00003
1.00006
1.00017
1.00031
1.00091
1.00165
1.00485
1.00906
1.02496
1.05399
1.12799
1.33504
1.87482
2.27447
2.41178
2.40923
2.39651
2.38294
2.36418
2.34563
2.32604
2.30118
2.27135
1
1.00001
1.00002
1.00004
1.00012
1.00022
1.00065
1.00118
1.00348
1.00641
1.01813
1.03653
1.09446
1.21608
1.61153
2.10636
2.36062
2.38505
2.37669
2.36171
2.34162
2.32207
2.3019
2.28118
2.2582
1
1.00001
1.00002
1.00003
1.00008
1.00016
1.00045
1.00082
1.00242
1.00439
1.01239
1.02523
1.06263
1.16036
1.36537
1.89841
2.23908
2.35003
2.35438
2.34754
2.33275
2.31268
2.29219
2.2704
2.24688
1
1
1.00001
1.00002
1.00006
1.00011
1.0003
1.00055
1.00163
1.00293
1.00854
1.01623
1.04326
1.09618
1.23809
1.55278
2.13241
2.27975
2.29808
2.30863
2.30302
2.29035
2.27497
2.25757
2.23788
1
1
1.00001
1.00002
1.00003
1.00009
1.00016
1.00046
1.00084
1.00244
1.0045
1.01216
1.02669
1.06197
1.16545
1.37763
1.88601
2.22049
2.28549
2.28486
2.27927
2.26878
2.25201
2.23688
2.22068
1
1
1
1.00001
1.00002
1.00006
1.0001
1.00031
1.00054
1.00162
1.00286
1.00847
1.0158
1.0428
1.09261
1.23443
1.52436
2.06101
2.23598
2.25337
2.25385
2.245
2.23037
2.21548
2.20227
1
1
1
1.00001
1.00001
1.00004
1.00007
1.00019
1.00033
1.00099
1.00176
1.00486
1.00987
1.02423
1.06327
1.1365
1.40017
1.90017
2.15657
2.2356
2.23462
2.22296
2.21105
2.19238
2.17638
1
1
1
1
1.00001
1.00002
1.00004
1.00012
1.00022
1.00065
1.00113
1.00346
1.0061
1.01787
1.03523
1.09324
1.20664
1.61207
1.95415
2.18094
2.21448
2.2127
2.20055
2.18506
2.16435
1
1
1
1
1.00001
1.00001
1.00003
1.00005
1.00015
1.00028
1.00077
1.00148
1.00379
1.00864
1.02031
1.05562
1.12356
1.34763
1.82464
2.0583
2.16512
2.18697
2.18332
2.17478
2.15779
1
1
1
1
1
1.00001
1.00001
1.00004
1.00007
1.00021
1.00037
1.00106
1.00201
1.0053
1.01187
1.02883
1.07753
1.17176
1.45965
1.94374
2.09773
2.13997
2.14747
2.14516
2.13999
1
1
1
1
1
1
1.00001
1.00003
1.00004
1.00013
1.00023
1.00072
1.0012
1.00376
1.00651
1.01886
1.03895
1.09638
1.23652
1.6129
1.961
2.11753
2.12551
2.12432
2.11449
1
1
1
1
1
1
1.00001
1.00002
1.00003
1.00008
1.00014
1.00042
1.0007
1.00224
1.00371
1.01146
1.02106
1.05799
1.12682
1.33094
1.68069
2.01702
2.10784
2.11038
2.10743
1
1
1
1
1
1
1
1.00001
1.00001
1.00004
1.00007
1.00023
1.00038
1.00117
1.00196
1.0059
1.01096
1.0298
1.06931
1.16293
1.41118
1.84674
2.03584
2.08719
2.09052
1
1
1
1
1
1
1
1
1.00001
1.00002
1.00004
1.00012
1.0002
1.00065
1.00105
1.00334
1.00566
1.01713
1.03348
1.08882
1.19923
1.55315
1.8278
2.0262
2.06519
1
1
1
1
1
1
1
1
1
1.00001
1.00002
1.00004
1.00008
1.00018
1.00037
1.00102
1.00201
1.0066
1.01499
1.04423
1.10483
1.2739
1.65826
1.87924
2.01866
1
1
1
1
1
1
1
1
1
1
1.00001
1.00001
1.00003
1.00005
1.00017
1.00018
1.00097
1.0012
1.00696
1.01446
1.05234
1.11845
1.34234
1.72689
1.91732
1
1
1
1
1
1
1
1
1
1
1
1.00001
1.00002
1.00007
1.00012
1.00041
1.00063
1.00224
1.00364
1.01216
1.02216
1.06548
1.13644
1.38509
1.66316
1
1
1
1
1
1
1
1
1
1
1
1.00001
1.00002
1.00003
1.00008
1.00014
1.00044
1.00073
1.00231
1.00417
1.0126
1.02505
1.07105
1.14745
1.42703
1
1
1
1
1
1
1
1
1
1
1
1
1.00001
1.00002
1.00003
1.00009
1.00015
1.00046
1.00079
1.00239
1.00448
1.01308
1.02709
1.07499
1.15808
1
1
1
1
1
1
1
1
1
1
1
1
1
1
1.00001
1.00003
1.00004
1.00016
1.00023
1.001
1.00083
1.00529
1.00965
1.03075
1.07605
1
1
1
1
1
1
1
1
1
1
1
1
1
1
1
1.00001
1.00002
1.00004
1.00014
1.00022
1.00107
1.00072
1.00551
1.01025
1.03157
1
1
1
1
1
1
1
1
1
1
1
1
1
1
1
1
1.00001
1.00002
1.00004
1.00014
1.00021
1.00108
1.00064
1.0058
1.01516
1
1
1
1
1
1
1
1
1
1
1
1
1
1
1
1
1
1.00001
1.00003
1.00003
1.00017
1.0005
1.00072
1.00345
1.00507
1
1
1
1
1
1
1
1
1
1
1
1
1
1
1
1
1
1
1.00002
1.00002
1.00014
1.0002
1.00129
1.0012
1.01096
1
1
1
1
1
1
1
1
1
1
1
1
1
1
1
1
1
1
1.00001
1.00001
1.00013
1.00019
1.00122
1.00097
1.01019
1
1
1
1
1
1
1
1
1
1
1
1
1
1
1
1
1
1
1.00002
1.00001
1.00018
1.00025
1.00174
1.00098
1.01235
1
1
1
1
1
1
1
1
1
1
1
1
1
1
1
1
1
1
1.00002
1.00001
1.0002
1.00027
1.00195
1.00229
1.01445
1
1
1
1
1
1
1
1
1
1
1
1
1
1
1
1
1
1
1.00001
1.00004
1.00005
1.00031
1.00047
1.00244
0.999856
1
1
1
1
1
1
1
1
1
1
1
1
1
1
1
1
1
1
1.00002
1.00001
1.00021
1.00028
1.00194
1.00244
1.01418
2.25007
2.09534
1.99376
1.93441
1.9307
1.96559
2.03676
2.10299
2.20661
2.29444
2.35297
2.37641
2.38143
2.38077
2.38045
2.38183
2.38613
2.39192
2.40111
2.41231
2.42968
2.46167
2.52981
2.647
2.84891
3.04552
3.11815
3.12564
3.11574
3.10596
3.09591
3.06906
3.04446
3.03476
3.02226
3.01039
3.00531
3.00393
3.00596
3.01347
3.02366
3.03337
3.04614
3.05299
3.05782
3.06001
3.0602
3.05852
3.0517
3.04121
3.03201
3.02759
3.01764
3.01209
3.0016
2.99648
2.98481
2.97836
2.96487
2.95816
2.94434
2.93728
2.92313
2.9155
2.90124
2.8936
2.8787
2.87084
2.85522
2.84718
2.83078
2.8226
2.80585
2.79745
2.78048
2.77193
2.75527
2.74578
2.7304
2.71965
2.70499
2.69359
2.67875
2.66686
2.65173
2.63879
2.62378
2.60955
2.59449
2.57979
2.56398
2.54994
2.53306
2.51995
2.50288
2.49007
2.47469
2.46287
2.45193
2.44562
2.17818
2.06263
1.99004
1.94869
1.93498
1.93976
1.94742
1.93699
1.91437
1.89778
1.89186
1.90072
1.91553
1.93459
1.95093
1.96205
1.96695
1.97002
1.97311
1.9779
1.98908
2.01222
2.06589
2.1745
2.39068
2.70837
2.85067
2.9469
3.02663
3.07846
3.11667
3.14746
3.16753
3.17601
3.17046
3.15466
3.14284
3.13925
3.14577
3.14606
3.13801
3.11591
3.09817
3.06673
3.03112
3.00557
2.97514
2.94616
2.92184
2.89568
2.87421
2.85305
2.8331
2.81549
2.79589
2.78104
2.76236
2.74846
2.73018
2.71758
2.70025
2.68818
2.67153
2.66024
2.64362
2.63295
2.61628
2.60601
2.58982
2.58017
2.56468
2.55548
2.54053
2.53127
2.5166
2.50661
2.49285
2.48158
2.46938
2.45719
2.44608
2.43423
2.42295
2.41223
2.40042
2.39024
2.37808
2.36781
2.35506
2.34424
2.33066
2.31878
2.30461
2.29137
2.27738
2.26263
2.24988
2.23494
2.22541
2.21517
2.19127
2.09796
2.02196
1.96097
1.90967
1.85697
1.8072
1.76453
1.73179
1.7097
1.7046
1.70722
1.71671
1.73151
1.75124
1.76743
1.77879
1.78769
1.79255
1.79768
1.80483
1.81811
1.85387
1.91363
2.102
2.28876
2.51858
2.67225
2.71788
2.76581
2.8523
2.92367
2.99398
3.0609
3.1127
3.14836
3.16768
3.17737
3.17279
3.14952
3.10615
3.054
3.00318
2.94959
2.90958
2.87292
2.84116
2.81334
2.78781
2.76793
2.74718
2.73125
2.71256
2.69912
2.68229
2.66942
2.6546
2.64196
2.62663
2.61417
2.59895
2.58711
2.57155
2.56066
2.54524
2.53503
2.51963
2.50904
2.49425
2.48235
2.46961
2.45619
2.4463
2.43163
2.42382
2.40855
2.40072
2.38572
2.37682
2.36235
2.35254
2.33903
2.32843
2.31591
2.30553
2.29304
2.28363
2.27103
2.26219
2.24974
2.24122
2.22939
2.22074
2.2093
2.20037
2.18907
2.17994
2.16994
2.16216
2.1578
2.20265
2.11886
2.04423
1.97548
1.91353
1.85694
1.80564
1.76151
1.7249
1.69856
1.67908
1.66723
1.66188
1.66194
1.66388
1.67029
1.68069
1.6905
1.69983
1.70915
1.7163
1.72596
1.74279
1.78289
1.87011
2.02641
2.33616
2.42921
2.47619
2.56245
2.60686
2.65471
2.71683
2.77166
2.83728
2.89556
2.94349
2.97246
2.96394
2.92725
2.87414
2.82352
2.77427
2.73519
2.70185
2.68435
2.66638
2.65474
2.63783
2.62747
2.61372
2.60455
2.59296
2.58585
2.57493
2.56754
2.55509
2.54654
2.53318
2.52508
2.51298
2.50428
2.49194
2.48163
2.47048
2.45871
2.44914
2.43533
2.42656
2.41167
2.40294
2.38788
2.37838
2.36338
2.35322
2.3386
2.32821
2.31427
2.30285
2.2899
2.27639
2.26479
2.24953
2.23909
2.2232
2.21305
2.19707
2.18696
2.17069
2.16066
2.14409
2.13404
2.1175
2.10789
2.09165
2.08285
2.06773
2.06048
2.04895
2.04683
2.21805
2.14171
2.07022
2.00404
1.94256
1.88642
1.83573
1.79005
1.74953
1.71375
1.68246
1.65715
1.63719
1.62349
1.61628
1.61651
1.61823
1.62364
1.63192
1.6402
1.64934
1.65883
1.67021
1.695
1.73947
1.8735
2.00292
2.2677
2.36438
2.38582
2.43463
2.48665
2.51978
2.57072
2.61934
2.67116
2.714
2.74133
2.73733
2.70885
2.66665
2.62832
2.59193
2.56916
2.56092
2.55877
2.5581
2.55586
2.55302
2.55005
2.54554
2.54011
2.53177
2.52576
2.51785
2.51221
2.50305
2.49379
2.48218
2.47235
2.46347
2.45278
2.44222
2.42815
2.41833
2.40564
2.39765
2.38471
2.37447
2.35999
2.34871
2.3353
2.32503
2.31262
2.30136
2.28891
2.27541
2.26387
2.24946
2.23954
2.22532
2.21617
2.20159
2.19211
2.17645
2.16703
2.15069
2.14125
2.12566
2.11561
2.10093
2.09025
2.07584
2.0643
2.05046
2.03824
2.02586
2.01438
2.00488
1.99854
2.22389
2.1567
2.09182
2.03082
1.97312
1.92006
1.87011
1.82502
1.78269
1.7453
1.71095
1.68102
1.65447
1.63288
1.61542
1.60381
1.59614
1.59444
1.59479
1.59762
1.60253
1.60966
1.61926
1.632
1.66063
1.71152
1.86363
2.00522
2.20357
2.30082
2.32356
2.35359
2.39998
2.44214
2.4845
2.54093
2.59056
2.61014
2.60527
2.5806
2.54317
2.50911
2.48172
2.46459
2.45159
2.44788
2.45345
2.45991
2.4638
2.46393
2.46125
2.45617
2.44881
2.44055
2.43308
2.42668
2.42165
2.41444
2.40514
2.39245
2.38187
2.37126
2.36354
2.3529
2.34298
2.33026
2.31982
2.30859
2.29958
2.28856
2.27818
2.26546
2.25356
2.24138
2.22943
2.21834
2.20564
2.1945
2.18079
2.1699
2.15579
2.14573
2.13132
2.12263
2.10771
2.09955
2.08398
2.07496
2.05919
2.0488
2.0338
2.02238
2.00856
1.99698
1.98421
1.97268
1.96098
1.95004
1.94046
1.93398
2.22853
2.16807
2.10821
2.05205
1.99806
1.94793
1.90029
1.85619
1.81478
1.77663
1.74134
1.70917
1.67993
1.65393
1.63089
1.61121
1.59534
1.58382
1.57595
1.57267
1.57283
1.57453
1.57881
1.58622
1.59963
1.63004
1.68834
1.84672
2.02136
2.1619
2.24725
2.27804
2.3076
2.35259
2.41019
2.476
2.52818
2.54515
2.53746
2.50921
2.47349
2.43125
2.39726
2.3819
2.37116
2.36367
2.36601
2.3751
2.38327
2.39133
2.39239
2.39165
2.38735
2.3818
2.37604
2.37124
2.36728
2.36159
2.35476
2.34398
2.33417
2.32384
2.31597
2.30685
2.2983
2.28741
2.27706
2.26535
2.25545
2.245
2.23568
2.22509
2.21388
2.20177
2.18912
2.17748
2.16519
2.15495
2.14226
2.13259
2.11848
2.10955
2.09482
2.08643
2.07193
2.06272
2.04895
2.03827
2.0254
2.01402
2.00153
1.99005
1.97752
1.96554
1.95392
1.94157
1.93154
1.92015
1.91208
1.90538
2.23614
2.18023
2.12477
2.07118
2.02039
1.9721
1.92685
1.884
1.84401
1.80626
1.77132
1.73838
1.7084
1.6801
1.65511
1.63149
1.61183
1.5934
1.57971
1.56811
1.56097
1.55715
1.55695
1.55843
1.56566
1.57806
1.60985
1.67113
1.83921
2.02096
2.13307
2.20862
2.25517
2.30619
2.38654
2.46779
2.51786
2.52049
2.50723
2.47302
2.42843
2.38067
2.34607
2.32465
2.31407
2.30634
2.30028
2.30477
2.31495
2.32468
2.33234
2.33308
2.3322
2.329
2.3244
2.31941
2.31544
2.31044
2.30497
2.29643
2.28728
2.27679
2.26795
2.25867
2.25052
2.24088
2.23165
2.22078
2.2105
2.19939
2.18919
2.17909
2.16916
2.15952
2.14829
2.13798
2.12466
2.11442
2.1002
2.09127
2.07739
2.06924
2.05571
2.04675
2.03389
2.02378
2.01205
2.00112
1.98984
1.97842
1.96689
1.95557
1.94417
1.93322
1.92211
1.91164
1.9006
1.89073
1.8812
1.87526
2.24298
2.19296
2.14198
2.09156
2.04251
1.99587
1.95129
1.90935
1.86978
1.83225
1.79751
1.76409
1.73379
1.70437
1.67818
1.65279
1.6305
1.60939
1.59109
1.57486
1.5613
1.55113
1.54412
1.54126
1.54287
1.5472
1.55974
1.59254
1.65504
1.82788
2.01828
2.12517
2.20444
2.28724
2.4024
2.48994
2.51682
2.51431
2.49354
2.45622
2.39803
2.3499
2.31484
2.29448
2.27757
2.26503
2.25967
2.25682
2.26109
2.27031
2.27549
2.28177
2.28231
2.28369
2.28189
2.27834
2.27462
2.26993
2.26574
2.25908
2.2513
2.24144
2.23239
2.22287
2.21465
2.20561
2.19725
2.18772
2.17833
2.16793
2.15725
2.14649
2.13522
2.12534
2.1141
2.10567
2.09379
2.08568
2.0721
2.06336
2.04887
2.03944
2.02591
2.01592
2.00403
1.99323
1.98233
1.97122
1.9608
1.95032
1.94014
1.93017
1.91984
1.90973
1.89869
1.88845
1.8772
1.86741
1.85779
1.85201
2.24419
2.20167
2.15628
2.11125
2.06563
2.02149
1.97886
1.93755
1.89897
1.86141
1.82668
1.79323
1.76197
1.73254
1.7046
1.67893
1.65432
1.63226
1.61105
1.59269
1.5752
1.56087
1.54814
1.53902
1.53397
1.53408
1.53869
1.55139
1.58222
1.65924
1.79218
2.03191
2.1494
2.30984
2.46452
2.53565
2.5358
2.52491
2.49528
2.44319
2.3874
2.34218
2.31071
2.28782
2.26509
2.24675
2.23238
2.22713
2.22752
2.2257
2.23011
2.23304
2.23706
2.23901
2.23969
2.23668
2.23266
2.22685
2.22206
2.21617
2.21023
2.20184
2.19331
2.18398
2.17566
2.16685
2.15854
2.14968
2.14098
2.13227
2.12303
2.11426
2.10372
2.09464
2.08261
2.07399
2.06129
2.05368
2.04118
2.03373
2.02177
2.01319
2.002
1.99205
1.98165
1.9711
1.96097
1.95046
1.93997
1.92961
1.91888
1.90845
1.89776
1.88751
1.87668
1.86677
1.85615
1.84681
1.83762
1.83208
2.24075
2.20254
2.16361
2.12191
2.08226
2.04035
2.00169
1.96195
1.92528
1.88892
1.85485
1.82199
1.79101
1.76131
1.7336
1.70691
1.6823
1.65864
1.63703
1.61636
1.59803
1.58018
1.56569
1.55129
1.54132
1.53472
1.53504
1.54026
1.55559
1.58761
1.67966
1.82095
2.10041
2.33009
2.5622
2.58158
2.57193
2.53875
2.49239
2.43796
2.3945
2.35687
2.32415
2.29358
2.26304
2.23289
2.21169
2.19729
2.1915
2.18663
2.18096
2.18079
2.18273
2.18714
2.18881
2.18909
2.1871
2.18283
2.17874
2.17443
2.17052
2.16492
2.15874
2.15107
2.14376
2.13586
2.12843
2.12065
2.11282
2.1052
2.09677
2.08932
2.07972
2.07209
2.06064
2.05261
2.03984
2.03152
2.01877
2.00975
1.99816
1.98836
1.97822
1.9681
1.95865
1.94866
1.9389
1.9291
1.91891
1.90919
1.89909
1.8894
1.87921
1.86966
1.859
1.84936
1.83864
1.82928
1.8199
1.81413
2.23831
2.20406
2.16843
2.1319
2.09359
2.057
2.0185
1.98311
1.94619
1.91264
1.87837
1.84702
1.81569
1.78697
1.75834
1.73251
1.70644
1.6834
1.66002
1.63946
1.61904
1.60069
1.58365
1.56759
1.55456
1.54313
1.53924
1.54231
1.55161
1.57437
1.63809
1.74319
2.04256
2.28415
2.61524
2.63678
2.61814
2.57031
2.50341
2.45615
2.41317
2.36495
2.31729
2.27742
2.2425
2.21192
2.18418
2.16583
2.15174
2.14393
2.13717
2.13513
2.1314
2.13482
2.138
2.1418
2.14315
2.14343
2.14146
2.13782
2.13511
2.13063
2.12597
2.11949
2.11312
2.10587
2.09882
2.09167
2.08423
2.07739
2.06919
2.06235
2.05264
2.04544
2.03406
2.02669
2.01496
2.00757
1.9966
1.98833
1.97826
1.96856
1.95913
1.9488
1.93958
1.92973
1.92013
1.91082
1.90075
1.89152
1.88154
1.87239
1.86243
1.85341
1.84329
1.83404
1.82389
1.81476
1.80566
1.79982
2.23187
2.20187
2.17011
2.13715
2.10393
2.06873
2.03536
1.99993
1.96728
1.93339
1.90169
1.8706
1.83996
1.81214
1.78293
1.75808
1.73105
1.70841
1.68423
1.66326
1.64236
1.6227
1.60544
1.58742
1.57414
1.56042
1.55723
1.55887
1.56773
1.59312
1.63965
1.75677
1.89461
2.14777
2.42604
2.53605
2.52592
2.49523
2.45701
2.41301
2.36152
2.30453
2.26516
2.24012
2.21497
2.18622
2.16099
2.13949
2.12414
2.11043
2.10325
2.09545
2.09381
2.09042
2.09365
2.09738
2.10261
2.10455
2.10579
2.10417
2.10196
2.09902
2.09584
2.09066
2.08449
2.07742
2.07037
2.06371
2.05646
2.05029
2.04228
2.03628
2.02703
2.02084
2.01029
2.00359
1.99248
1.98493
1.97437
1.96584
1.95627
1.94695
1.93797
1.9286
1.91962
1.91095
1.90156
1.89336
1.88368
1.87523
1.86561
1.85704
1.84731
1.83861
1.82881
1.81969
1.80983
1.80067
1.79181
1.78561
2.22148
2.1944
2.16643
2.13735
2.10633
2.076
2.04322
2.01355
1.9798
1.95155
1.91821
1.89125
1.85987
1.83376
1.80551
1.77983
1.75519
1.73026
1.70868
1.68518
1.6662
1.64445
1.62814
1.60893
1.59633
1.58483
1.58577
1.58907
1.60705
1.64274
1.72293
1.82041
1.93616
2.02618
2.18819
2.36227
2.44989
2.45097
2.42732
2.4027
2.36016
2.30606
2.26631
2.23754
2.20698
2.17621
2.15103
2.12884
2.10885
2.09203
2.07882
2.06994
2.06335
2.05911
2.05592
2.05706
2.06004
2.06527
2.0674
2.06961
2.0691
2.06692
2.06491
2.06163
2.05737
2.05184
2.04507
2.03905
2.03162
2.02609
2.01792
2.01266
2.00358
1.99837
1.98868
1.98286
1.97289
1.96574
1.95606
1.94755
1.93833
1.92902
1.91987
1.9107
1.90127
1.89294
1.88334
1.87555
1.86613
1.85817
1.84893
1.84072
1.83149
1.82281
1.81359
1.80452
1.79527
1.78615
1.7778
1.7715
2.21524
2.19051
2.16367
2.13596
2.10832
2.07953
2.05031
2.02106
1.99207
1.96243
1.93489
1.90519
1.87938
1.85052
1.82626
1.7992
1.77594
1.75153
1.72918
1.70739
1.68643
1.66713
1.64852
1.63278
1.62054
1.6183
1.62374
1.63623
1.66875
1.74378
1.83382
1.91835
1.95943
1.99104
2.04258
2.14865
2.27517
2.35791
2.38525
2.3752
2.35924
2.31784
2.27874
2.24151
2.20355
2.17102
2.14469
2.12049
2.09767
2.0784
2.06205
2.04975
2.03961
2.03293
2.02759
2.02652
2.02523
2.02848
2.03154
2.03669
2.03787
2.03877
2.03682
2.03499
2.03184
2.02886
2.02279
2.01737
2.00955
2.00442
1.9961
1.99116
1.98234
1.97735
1.96844
1.96242
1.95345
1.9459
1.93719
1.92871
1.9202
1.91152
1.90254
1.89408
1.88439
1.87639
1.86671
1.85892
1.84988
1.8419
1.83335
1.82504
1.8167
1.80789
1.79939
1.79034
1.78172
1.77285
1.76493
1.75915
2.20184
2.18107
2.15743
2.13274
2.10537
2.08056
2.05269
2.02628
1.99832
1.97182
1.94438
1.9186
1.89185
1.86708
1.84141
1.81773
1.79358
1.77083
1.74874
1.72698
1.70746
1.68726
1.67202
1.65728
1.65558
1.65886
1.67256
1.70847
1.76592
1.86255
1.93867
1.96655
1.96996
1.97025
1.98476
2.02029
2.09651
2.18488
2.27907
2.334
2.33244
2.312
2.28886
2.25444
2.21339
2.17936
2.14851
2.11973
2.09329
2.07231
2.0536
2.03695
2.02382
2.01285
2.0056
1.99954
1.99686
1.99518
1.99632
1.99864
2.0035
2.00486
2.00653
2.00548
2.00357
2.00182
1.99806
1.99424
1.98653
1.98179
1.97364
1.96893
1.96086
1.95573
1.94796
1.94147
1.93369
1.92568
1.91791
1.90945
1.90159
1.89346
1.88489
1.87702
1.86761
1.85973
1.85029
1.84233
1.83362
1.82553
1.81749
1.80909
1.80136
1.79275
1.78478
1.7762
1.76785
1.75976
1.75186
1.74713
2.18745
2.1708
2.15096
2.12894
2.10481
2.07852
2.05445
2.02898
2.00354
1.97766
1.9523
1.92702
1.90236
1.87799
1.85423
1.83103
1.80832
1.7865
1.76492
1.74507
1.72522
1.70923
1.69545
1.69309
1.69745
1.71298
1.7415
1.80958
1.90364
1.97066
1.98812
1.98433
1.97147
1.96158
1.96282
1.97037
1.99394
2.04578
2.11548
2.21655
2.27372
2.28617
2.27482
2.2606
2.2275
2.19583
2.15964
2.12576
2.09697
2.07136
2.04916
2.02916
2.01191
1.9979
1.98641
1.97785
1.97037
1.96597
1.96457
1.96373
1.96552
1.97005
1.97186
1.97447
1.97405
1.97281
1.97085
1.96853
1.96291
1.95889
1.95099
1.94646
1.93871
1.93363
1.9263
1.92002
1.91283
1.90523
1.89783
1.88966
1.88198
1.87419
1.86603
1.85859
1.8497
1.84214
1.83299
1.82527
1.81657
1.80877
1.80069
1.79261
1.78491
1.77675
1.76895
1.76103
1.7529
1.74561
1.7378
1.73388
2.16252
2.14818
2.13409
2.11807
2.10013
2.07813
2.05413
2.03091
2.00767
1.98358
1.95964
1.93517
1.91188
1.88755
1.86533
1.84178
1.82081
1.79845
1.77926
1.75921
1.74351
1.73086
1.72881
1.73521
1.75169
1.78248
1.85826
1.94408
2.00027
2.01358
2.00426
1.9921
1.97744
1.95911
1.94981
1.95078
1.95574
1.97238
2.00609
2.06995
2.14331
2.20656
2.24052
2.23727
2.2213
2.20358
2.17133
2.13694
2.10509
2.07531
2.04888
2.02467
2.00437
1.98648
1.97119
1.95877
1.94909
1.94098
1.93606
1.93372
1.93279
1.93386
1.93631
1.9398
1.94195
1.94283
1.94147
1.94037
1.93791
1.93489
1.92821
1.92388
1.91635
1.91134
1.9045
1.8987
1.89207
1.88518
1.87798
1.87043
1.8626
1.85529
1.84709
1.84016
1.83163
1.82454
1.81582
1.80835
1.79983
1.79206
1.78408
1.77599
1.76843
1.76046
1.75285
1.74534
1.7372
1.73043
1.72246
1.71893
2.14631
2.12954
2.11349
2.09794
2.08228
2.06838
2.05055
2.02999
2.00835
1.98724
1.96492
1.94308
1.92013
1.8985
1.87531
1.85466
1.8321
1.81316
1.79278
1.77775
1.76601
1.76526
1.77312
1.78888
1.83243
1.89957
1.9863
2.03356
2.04212
2.02915
2.01908
1.99937
1.98039
1.95986
1.94762
1.93987
1.94049
1.94264
1.95339
1.97726
2.02018
2.07288
2.14244
2.18042
2.19132
2.1828
2.16948
2.14195
2.11415
2.08315
2.05248
2.02532
2.00038
1.97969
1.96049
1.945
1.93172
1.92158
1.91323
1.90696
1.90356
1.90262
1.90273
1.90438
1.90835
1.90945
1.91181
1.91084
1.90997
1.90857
1.90505
1.90143
1.89436
1.88934
1.88278
1.87724
1.87103
1.86463
1.85789
1.8508
1.84333
1.83626
1.82837
1.82161
1.81353
1.80669
1.79845
1.79118
1.783
1.77535
1.76767
1.75982
1.7525
1.74493
1.73747
1.73054
1.72254
1.71634
1.70858
1.70533
2.1405
2.12316
2.10575
2.0883
2.07105
2.05365
2.03753
2.02149
2.00418
1.98541
1.96623
1.94543
1.92593
1.90476
1.88499
1.86431
1.84523
1.82697
1.81191
1.80325
1.80349
1.81306
1.83336
1.87362
1.95526
2.03625
2.07214
2.07374
2.06068
2.04548
2.02387
2.00172
1.98177
1.96601
1.95027
1.93959
1.92997
1.9275
1.92803
1.9324
1.94622
1.97212
2.01627
2.06796
2.1166
2.14268
2.14184
2.12969
2.11632
2.08921
2.06076
2.03064
2.00301
1.97808
1.95543
1.9363
1.92009
1.90596
1.89515
1.88566
1.87841
1.8743
1.87258
1.87222
1.87313
1.87623
1.87764
1.88084
1.88061
1.88015
1.87913
1.8771
1.87226
1.86759
1.86113
1.85552
1.84953
1.84341
1.83716
1.83049
1.82354
1.81683
1.80934
1.80287
1.7951
1.78858
1.7807
1.77377
1.766
1.75856
1.75124
1.74364
1.73654
1.72944
1.72203
1.71569
1.70786
1.70223
1.69491
1.692
2.12836
2.1151
2.10081
2.08469
2.06824
2.05029
2.03272
2.01451
1.99722
1.97909
1.96205
1.94438
1.92578
1.90756
1.88938
1.87173
1.85599
1.84314
1.8374
1.8416
1.85305
1.88279
1.92572
2.00627
2.0824
2.11018
2.10524
2.09055
2.07265
2.04703
2.02401
2.0053
1.98701
1.97165
1.95597
1.94154
1.92867
1.91753
1.91057
1.90887
1.9097
1.91612
1.93233
1.96206
2.00029
2.05136
2.08274
2.09863
2.0935
2.08052
2.06286
2.03779
2.01185
1.98134
1.95665
1.93303
1.91334
1.89496
1.88057
1.86807
1.85829
1.84998
1.84474
1.84176
1.84153
1.84184
1.8439
1.84673
1.84945
1.85061
1.85014
1.84943
1.84753
1.84458
1.83883
1.83335
1.82761
1.82188
1.81606
1.8101
1.80354
1.79746
1.79017
1.78407
1.77659
1.77038
1.76305
1.75648
1.74932
1.74229
1.73525
1.72822
1.72102
1.71452
1.70708
1.70121
1.6939
1.68875
1.68238
1.68
2.10626
2.09481
2.08456
2.07432
2.06176
2.04644
2.02998
2.01262
1.99475
1.97705
1.95868
1.94136
1.92401
1.90786
1.89217
1.87847
1.86885
1.8674
1.8758
1.88997
1.92658
1.97987
2.06131
2.12417
2.1405
2.13063
2.11683
2.09573
2.06877
2.04591
2.02609
2.00865
1.99224
1.97655
1.96101
1.94556
1.93094
1.91604
1.90408
1.89395
1.88924
1.8891
1.88994
1.89742
1.91477
1.94553
1.98047
2.023
2.04512
2.05076
2.04386
2.03296
2.01279
1.98686
1.96223
1.93496
1.91046
1.88929
1.86997
1.85445
1.84038
1.83018
1.82071
1.81458
1.81105
1.8105
1.81074
1.81199
1.81559
1.81697
1.82014
1.81963
1.81924
1.81808
1.81528
1.8107
1.80526
1.79993
1.79431
1.78887
1.78255
1.77692
1.77
1.76425
1.75726
1.75141
1.74462
1.73859
1.73195
1.72561
1.71894
1.71253
1.70563
1.69959
1.69255
1.68716
1.68049
1.67628
1.67128
1.66974
2.09527
2.08119
2.06768
2.0549
2.04499
2.0349
2.02288
2.00855
1.99257
1.97605
1.95872
1.94205
1.92533
1.91071
1.89859
1.89297
1.89461
1.90528
1.92711
1.96565
2.03594
2.1138
2.15973
2.16686
2.15433
2.13806
2.11377
2.0881
2.0658
2.04674
2.0292
2.01307
1.99741
1.98136
1.96612
1.94951
1.93419
1.91799
1.90305
1.88897
1.87705
1.86975
1.86468
1.86481
1.86563
1.87351
1.89097
1.91914
1.95296
1.98385
2.00216
2.00172
1.99372
1.98225
1.96139
1.93755
1.9127
1.88792
1.86482
1.8454
1.82776
1.81336
1.8018
1.79192
1.78503
1.78079
1.77946
1.77975
1.78044
1.78346
1.78546
1.78918
1.78932
1.78928
1.78859
1.78671
1.78269
1.77759
1.77207
1.76688
1.76078
1.75555
1.74904
1.74364
1.73716
1.7315
1.72524
1.71955
1.71342
1.70777
1.70146
1.69598
1.68939
1.68418
1.67788
1.67328
1.6679
1.66503
1.66108
1.66063
2.08681
2.07428
2.05738
2.04224
2.02723
2.0159
2.00468
1.99468
1.98387
1.97169
1.9575
1.94412
1.93046
1.92056
1.91628
1.92338
1.93653
1.96607
2.01524
2.08975
2.15932
2.19084
2.1911
2.17685
2.15872
2.13093
2.10631
2.08524
2.06684
2.05019
2.03465
2.01906
2.00352
1.98705
1.97045
1.95333
1.93611
1.91931
1.90211
1.88708
1.8709
1.85868
1.84724
1.84115
1.83509
1.83489
1.83574
1.84396
1.86198
1.88794
1.92057
1.94186
1.95667
1.95306
1.94472
1.93324
1.91178
1.88873
1.86497
1.84175
1.82129
1.80281
1.78778
1.77463
1.76496
1.75703
1.75189
1.74998
1.75022
1.7509
1.75288
1.7565
1.75934
1.76102
1.76133
1.76095
1.75944
1.75628
1.75088
1.74597
1.74007
1.73496
1.72882
1.72342
1.71719
1.71167
1.70541
1.70001
1.69402
1.68897
1.68317
1.67841
1.6727
1.66834
1.66302
1.65995
1.65594
1.65456
1.65239
1.65292
2.07229
2.0681
2.05575
2.03852
2.02276
2.00651
1.99371
1.97989
1.96882
1.95783
1.94936
1.94097
1.9383
1.9408
1.95306
1.97122
2.00929
2.06992
2.14892
2.20185
2.22098
2.21503
2.20089
2.17954
2.15158
2.12713
2.10631
2.0883
2.07172
2.05577
2.03962
2.02317
2.00641
1.98917
1.97176
1.95428
1.93629
1.9194
1.9013
1.88488
1.86766
1.85205
1.83706
1.82427
1.81488
1.80746
1.80137
1.80205
1.80375
1.81243
1.8304
1.85434
1.8851
1.90233
1.91145
1.90783
1.89988
1.88614
1.86488
1.84314
1.82069
1.79908
1.78045
1.76447
1.75077
1.74063
1.73186
1.72666
1.72393
1.7241
1.72521
1.72674
1.7307
1.73274
1.7361
1.7362
1.73598
1.7348
1.73211
1.7273
1.72173
1.71629
1.71035
1.70493
1.69892
1.69366
1.68737
1.68223
1.67595
1.67125
1.66553
1.66156
1.65621
1.65358
1.6493
1.64812
1.64573
1.64607
1.64717
1.64905
2.03931
2.04834
2.04425
2.03511
2.02083
2.00503
1.99122
1.97718
1.96469
1.95424
1.94783
1.94817
1.95685
1.97299
2.00216
2.0525
2.12658
2.19994
2.23886
2.24614
2.23738
2.21942
2.19386
2.16716
2.14396
2.12413
2.10673
2.09052
2.07419
2.05773
2.04065
2.02368
2.00598
1.98844
1.97023
1.95224
1.9341
1.91598
1.89818
1.88037
1.86306
1.84608
1.83012
1.81499
1.8017
1.79063
1.78215
1.77561
1.76976
1.77081
1.77371
1.78341
1.8012
1.8248
1.8506
1.86598
1.87059
1.86615
1.85923
1.845
1.82236
1.80136
1.78064
1.76111
1.7441
1.7301
1.71874
1.70975
1.70407
1.70027
1.70037
1.70153
1.70273
1.70608
1.70893
1.71206
1.71267
1.71263
1.7118
1.70971
1.70494
1.70019
1.6939
1.68904
1.68272
1.67793
1.67155
1.66689
1.66043
1.65606
1.65033
1.64675
1.64289
1.64075
1.6387
1.63801
1.639
1.641
1.64777
1.65041
2.01194
2.02483
2.02524
2.01911
2.01334
2.00151
1.98888
1.97785
1.96749
1.96017
1.96282
1.97338
1.99259
2.03229
2.09455
2.17648
2.23835
2.26508
2.26229
2.25053
2.23082
2.2026
2.17722
2.1552
2.13602
2.11893
2.1028
2.08694
2.07059
2.05369
2.03629
2.01854
2.00072
1.98291
1.96523
1.94758
1.9301
1.91259
1.89527
1.87797
1.86096
1.84416
1.82767
1.81186
1.79637
1.78276
1.76982
1.76003
1.75128
1.74514
1.74055
1.74141
1.7447
1.75517
1.77113
1.7943
1.81541
1.82931
1.83049
1.82564
1.8173
1.80324
1.78122
1.76094
1.74135
1.7236
1.70846