/*--------------------------------*- C++ -*----------------------------------*\
  =========                 |
  \\      /  F ield         | OpenFOAM: The Open Source CFD Toolbox
   \\    /   O peration     | Website:  https://openfoam.org
    \\  /    A nd           | Version:  6
     \\/     M anipulation  |
\*---------------------------------------------------------------------------*/
FoamFile
{
    version     2.0;
    format      ascii;
    class       volVectorField;
    location    "3.5";
    object      U;
}
// * * * * * * * * * * * * * * * * * * * * * * * * * * * * * * * * * * * * * //

dimensions      [0 1 -1 0 0 0 0];

internalField   nonuniform List<vector> 
5250
(
(2.99996 3.96117e-08 0)
(2.99989 2.5385e-07 0)
(2.99971 7.90295e-07 0)
(2.99933 2.15427e-06 0)
(2.99836 4.99774e-06 0)
(2.99641 1.20651e-05 0)
(2.99097 2.60537e-05 0)
(2.98053 6.37937e-05 0)
(2.9485 0.000130858 0)
(2.87785 0.000349848 0)
(2.68158 0.000765701 0)
(2.07251 0.0021193 0)
(0.718434 0.00554124 0)
(-0.133784 0.0132068 0)
(0.199084 0.0205129 0)
(0.50177 0.0263518 0)
(0.579117 0.029407 0)
(0.525768 0.0314966 0)
(0.424744 0.0323777 0)
(0.32908 0.0344843 0)
(0.266057 0.0377952 0)
(0.212828 0.0414921 0)
(0.155031 0.0453731 0)
(0.0922589 0.0504508 0)
(0.0446642 0.05804 0)
(2.99996 1.22287e-07 0)
(2.99989 7.85273e-07 0)
(2.99971 2.44256e-06 0)
(2.99933 6.67337e-06 0)
(2.99837 1.54755e-05 0)
(2.99642 3.75197e-05 0)
(2.99101 8.09883e-05 0)
(2.98061 0.000200131 0)
(2.94871 0.000408843 0)
(2.87838 0.00111037 0)
(2.68294 0.00245127 0)
(2.07661 0.00687944 0)
(0.72672 0.0181689 0)
(-0.12548 0.0417256 0)
(0.208052 0.0606935 0)
(0.507877 0.0739129 0)
(0.580853 0.0793479 0)
(0.525456 0.082252 0)
(0.42516 0.0825329 0)
(0.331874 0.0857066 0)
(0.269239 0.090905 0)
(0.214648 0.0957059 0)
(0.155414 0.0993718 0)
(0.0911294 0.103016 0)
(0.0428773 0.107026 0)
(2.99996 2.11738e-07 0)
(2.99989 1.36178e-06 0)
(2.99971 4.23407e-06 0)
(2.99934 1.15927e-05 0)
(2.99838 2.68918e-05 0)
(2.99645 6.54628e-05 0)
(2.99109 0.000141396 0)
(2.98078 0.000352174 0)
(2.94919 0.000718112 0)
(2.87956 0.00197486 0)
(2.68604 0.00439452 0)
(2.08631 0.0124647 0)
(0.747494 0.0331238 0)
(-0.102813 0.0741759 0)
(0.223724 0.103347 0)
(0.515785 0.122527 0)
(0.582521 0.131315 0)
(0.524612 0.13715 0)
(0.425665 0.140342 0)
(0.336339 0.147361 0)
(0.274605 0.156372 0)
(0.21825 0.164285 0)
(0.157027 0.170156 0)
(0.0906781 0.174814 0)
(0.0409058 0.177562 0)
(2.99996 3.05972e-07 0)
(2.99989 1.96884e-06 0)
(2.99971 6.12084e-06 0)
(2.99935 1.67746e-05 0)
(2.99841 3.89105e-05 0)
(2.9965 9.49244e-05 0)
(2.99122 0.000204941 0)
(2.98105 0.00051439 0)
(2.94995 0.00103782 0)
(2.88146 0.00290429 0)
(2.69109 0.00646287 0)
(2.10219 0.0183923 0)
(0.781261 0.0493297 0)
(-0.0669578 0.108032 0)
(0.245331 0.146043 0)
(0.525784 0.169494 0)
(0.585752 0.181379 0)
(0.526194 0.190775 0)
(0.429626 0.198644 0)
(0.344744 0.21042 0)
(0.283843 0.223869 0)
(0.225704 0.235991 0)
(0.162331 0.245692 0)
(0.0933458 0.253289 0)
(0.0406523 0.257351 0)
(2.99996 4.02981e-07 0)
(2.99989 2.59536e-06 0)
(2.99972 8.06394e-06 0)
(2.99936 2.21261e-05 0)
(2.99844 5.12731e-05 0)
(2.99657 0.000125472 0)
(2.99139 0.000270713 0)
(2.98141 0.000673969 0)
(2.95101 0.00142581 0)
(2.8841 0.0036787 0)
(2.69813 0.00907733 0)
(2.1245 0.0222926 0)
(0.831251 0.0659793 0)
(-0.0161669 0.142599 0)
(0.273379 0.18978 0)
(0.538066 0.215788 0)
(0.590677 0.230063 0)
(0.530782 0.242852 0)
(0.437585 0.256029 0)
(0.357015 0.272805 0)
(0.297033 0.290906 0)
(0.237405 0.307836 0)
(0.171961 0.322316 0)
(0.0999385 0.333994 0)
(0.0426755 0.340458 0)
(2.99997 5.05364e-07 0)
(2.9999 3.25641e-06 0)
(2.99973 1.01146e-05 0)
(2.99938 2.77708e-05 0)
(2.99848 6.43205e-05 0)
(2.99666 0.00015766 0)
(2.99162 0.000340142 0)
(2.98193 0.000839914 0)
(2.95224 0.00184343 0)
(2.88786 0.00446084 0)
(2.7057 0.0118342 0)
(2.15048 0.0260689 0)
(0.896855 0.0827292 0)
(0.0452107 0.178781 0)
(0.305074 0.2367 0)
(0.55082 0.260688 0)
(0.596986 0.27691 0)
(0.538799 0.293341 0)
(0.450315 0.312716 0)
(0.37393 0.335466 0)
(0.31487 0.359234 0)
(0.254101 0.382034 0)
(0.186617 0.402658 0)
(0.110576 0.419916 0)
(0.0467958 0.42987 0)
(2.99997 6.1591e-07 0)
(2.9999 3.96826e-06 0)
(2.99974 1.23275e-05 0)
(2.9994 3.38413e-05 0)
(2.99853 7.84074e-05 0)
(2.99677 0.000192073 0)
(2.99189 0.000414605 0)
(2.98256 0.00102273 0)
(2.95377 0.00224245 0)
(2.89245 0.00543994 0)
(2.7151 0.0142437 0)
(2.18276 0.0319528 0)
(0.981219 0.0986018 0)
(0.123999 0.215791 0)
(0.340405 0.285368 0)
(0.559656 0.305074 0)
(0.604224 0.322597 0)
(0.550678 0.342554 0)
(0.468675 0.368622 0)
(0.396619 0.398094 0)
(0.338955 0.428797 0)
(0.277818 0.45952 0)
(0.208399 0.489082 0)
(0.127244 0.515543 0)
(0.0542489 0.532393 0)
(2.99997 7.34165e-07 0)
(2.9999 4.72627e-06 0)
(2.99975 1.4689e-05 0)
(2.99942 4.02736e-05 0)
(2.99859 9.33796e-05 0)
(2.9969 0.000228007 0)
(2.99223 0.000492604 0)
(2.98332 0.00121248 0)
(2.95561 0.00261391 0)
(2.89788 0.00653084 0)
(2.72645 0.0160907 0)
(2.22109 0.0392486 0)
(1.07997 0.112453 0)
(0.218408 0.252555 0)
(0.380598 0.334148 0)
(0.567532 0.350059 0)
(0.612898 0.368084 0)
(0.566776 0.391003 0)
(0.493295 0.42366 0)
(0.426153 0.46053 0)
(0.371145 0.499595 0)
(0.311782 0.540259 0)
(0.242498 0.582999 0)
(0.155798 0.626011 0)
(0.0686604 0.658649 0)
(2.99997 8.63906e-07 0)
(2.99991 5.5554e-06 0)
(2.99976 1.72748e-05 0)
(2.99945 4.7284e-05 0)
(2.99866 0.000109715 0)
(2.99705 0.000266763 0)
(2.99262 0.000576809 0)
(2.98417 0.00141604 0)
(2.95783 0.0029831 0)
(2.90368 0.00773116 0)
(2.7405 0.017716 0)
(2.26621 0.0473933 0)
(1.18812 0.126038 0)
(0.32646 0.289661 0)
(0.424638 0.38185 0)
(0.5747 0.393552 0)
(0.623494 0.411782 0)
(0.587514 0.438211 0)
(0.524965 0.476452 0)
(0.464401 0.521484 0)
(0.413951 0.569627 0)
(0.360151 0.62265 0)
(0.297002 0.685263 0)
(0.208967 0.757099 0)
(0.10043 0.832222 0)
(2.99997 1.0142e-06 0)
(2.99991 6.52194e-06 0)
(2.99977 2.02839e-05 0)
(2.99948 5.5523e-05 0)
(2.99874 0.000128902 0)
(2.99723 0.000313284 0)
(2.99307 0.000678019 0)
(2.98514 0.00166122 0)
(2.96043 0.0034997 0)
(2.91011 0.00906518 0)
(2.75704 0.0205385 0)
(2.31774 0.0556908 0)
(1.30555 0.144707 0)
(0.443456 0.336612 0)
(0.468647 0.418497 0)
(0.578144 0.434866 0)
(0.635358 0.453351 0)
(0.611995 0.484479 0)
(0.562845 0.525902 0)
(0.511486 0.577948 0)
(0.469219 0.635244 0)
(0.429886 0.704133 0)
(0.385588 0.793098 0)
(0.316955 0.912758 0)
(0.180537 1.10544 0)
(2.99997 1.18216e-06 0)
(2.99992 7.60572e-06 0)
(2.99979 2.36566e-05 0)
(2.99952 6.48141e-05 0)
(2.99884 0.000150576 0)
(2.99744 0.000366474 0)
(2.99361 0.000794051 0)
(2.98631 0.00194929 0)
(2.96349 0.0041021 0)
(2.91779 0.0106237 0)
(2.77643 0.0242318 0)
(2.3784 0.0649457 0)
(1.44757 0.167714 0)
(0.563714 0.394024 0)
(0.508413 0.447432 0)
(0.593229 0.469523 0)
(0.652529 0.488244 0)
(0.640856 0.523694 0)
(0.605176 0.568325 0)
(0.567445 0.625951 0)
(0.540202 0.693823 0)
(0.525977 0.778529 0)
(0.5251 0.887786 0)
(0.560407 1.03446 0)
(0.604566 1.24866 0)
(2.99998 1.35003e-06 0)
(2.99993 8.6967e-06 0)
(2.99981 2.70559e-05 0)
(2.99957 7.42908e-05 0)
(2.99895 0.00017287 0)
(2.99769 0.000422195 0)
(2.99423 0.000917302 0)
(2.98765 0.00226101 0)
(2.96707 0.00475737 0)
(2.92676 0.0122154 0)
(2.79898 0.028617 0)
(2.44848 0.0737307 0)
(1.61697 0.189822 0)
(0.69327 0.45661 0)
(0.540316 0.482269 0)
(0.610619 0.497631 0)
(0.674125 0.514198 0)
(0.675708 0.553074 0)
(0.653554 0.603295 0)
(0.632917 0.66547 0)
(0.625647 0.740992 0)
(0.638276 0.832229 0)
(0.676523 0.94348 0)
(0.777544 1.0782 0)
(0.932773 1.22376 0)
(2.99998 1.46164e-06 0)
(2.99994 9.42061e-06 0)
(2.99983 2.93159e-05 0)
(2.99962 8.05818e-05 0)
(2.99908 0.000187763 0)
(2.99798 0.000459117 0)
(2.99496 0.000999551 0)
(2.98922 0.00247292 0)
(2.97113 0.00513052 0)
(2.93753 0.0136246 0)
(2.82405 0.0304056 0)
(2.52693 0.0841404 0)
(1.81069 0.206587 0)
(0.829823 0.521001 0)
(0.56394 0.516457 0)
(0.627466 0.519115 0)
(0.699377 0.534237 0)
(0.718063 0.576359 0)
(0.708388 0.631514 0)
(0.702769 0.695613 0)
(0.713514 0.770853 0)
(0.747013 0.857183 0)
(0.808914 0.954718 0)
(0.924644 1.05935 0)
(1.09315 1.13959 0)
(2.99998 1.47662e-06 0)
(2.99995 9.52055e-06 0)
(2.99986 2.96284e-05 0)
(2.99968 8.15155e-05 0)
(2.99921 0.000189929 0)
(2.99827 0.000465431 0)
(2.99571 0.00100975 0)
(2.99078 0.00252143 0)
(2.97565 0.0051195 0)
(2.94758 0.014472 0)
(2.85348 0.0291966 0)
(2.61397 0.0925611 0)
(2.01982 0.217404 0)
(0.980394 0.585062 0)
(0.594242 0.562597 0)
(0.655254 0.552083 0)
(0.737065 0.560236 0)
(0.770062 0.599187 0)
(0.769326 0.653733 0)
(0.772946 0.715742 0)
(0.795236 0.784762 0)
(0.840815 0.860131 0)
(0.912891 0.939067 0)
(1.02506 1.01541 0)
(1.17716 1.06555 0)
(2.99999 1.35805e-06 0)
(2.99995 8.74373e-06 0)
(2.99988 2.72089e-05 0)
(2.99973 7.46675e-05 0)
(2.99935 0.000173788 0)
(2.99856 0.000423794 0)
(2.99647 0.000917864 0)
(2.99233 0.00226044 0)
(2.98035 0.00466336 0)
(2.95721 0.0127035 0)
(2.88485 0.0254559 0)
(2.70645 0.0788136 0)
(2.26018 0.184002 0)
(1.201 0.522861 0)
(0.696957 0.574847 0)
(0.724507 0.591031 0)
(0.797752 0.594897 0)
(0.836853 0.625886 0)
(0.839284 0.674212 0)
(0.844809 0.729864 0)
(0.870405 0.78959 0)
(0.919485 0.852209 0)
(0.992558 0.91426 0)
(1.09545 0.96989 0)
(1.22747 1.0046 0)
(2.99999 1.17761e-06 0)
(2.99996 7.56337e-06 0)
(2.9999 2.3539e-05 0)
(2.99978 6.42887e-05 0)
(2.99946 0.000149569 0)
(2.9988 0.000360848 0)
(2.99706 0.000785062 0)
(2.99362 0.00187689 0)
(2.98373 0.00399243 0)
(2.9645 0.00982963 0)
(2.90535 0.0215265 0)
(2.76231 0.0560736 0)
(2.39208 0.133328 0)
(1.38458 0.366617 0)
(0.769361 0.57164 0)
(0.769886 0.629848 0)
(0.837524 0.644322 0)
(0.893496 0.661832 0)
(0.905165 0.698267 0)
(0.912975 0.743992 0)
(0.938633 0.792984 0)
(0.986485 0.843163 0)
(1.05543 0.89124 0)
(1.14713 0.932266 0)
(1.26076 0.957705 0)
(2.99999 1.04299e-06 0)
(2.99997 6.70071e-06 0)
(2.99992 2.08589e-05 0)
(2.99982 5.69878e-05 0)
(2.99955 0.000132689 0)
(2.99901 0.000320109 0)
(2.99758 0.000698068 0)
(2.99476 0.00166442 0)
(2.98651 0.00356069 0)
(2.97144 0.00861484 0)
(2.9212 0.0193669 0)
(2.80718 0.0477422 0)
(2.49401 0.117218 0)
(1.58353 0.311532 0)
(0.888825 0.61722 0)
(0.805904 0.675024 0)
(0.8566 0.696496 0)
(0.920475 0.700207 0)
(0.951745 0.722778 0)
(0.968647 0.757642 0)
(0.996491 0.796716 0)
(1.04283 0.836062 0)
(1.10672 0.872902 0)
(1.18812 0.903584 0)
(1.286 0.922853 0)
(2.99999 9.34198e-07 0)
(2.99997 6.00647e-06 0)
(2.99993 1.86986e-05 0)
(2.99985 5.11662e-05 0)
(2.99964 0.000119182 0)
(2.9992 0.000288454 0)
(2.99805 0.000628338 0)
(2.99578 0.00150925 0)
(2.98912 0.00320724 0)
(2.97731 0.00807673 0)
(2.93636 0.0168897 0)
(2.84999 0.0461631 0)
(2.5985 0.107779 0)
(1.83835 0.303826 0)
(1.07663 0.66921 0)
(0.8508 0.707177 0)
(0.876642 0.726046 0)
(0.936998 0.724445 0)
(0.984506 0.737196 0)
(1.01256 0.764754 0)
(1.04406 0.797321 0)
(1.08908 0.829195 0)
(1.14851 0.85795 0)
(1.22163 0.881301 0)
(1.30688 0.896009 0)
(2.99999 8.19528e-07 0)
(2.99998 5.27139e-06 0)
(2.99995 1.6409e-05 0)
(2.99988 4.49426e-05 0)
(2.99972 0.00010467 0)
(2.99938 0.000253887 0)
(2.99848 0.000551909 0)
(2.99671 0.00133362 0)
(2.9916 0.00281117 0)
(2.98248 0.00728466 0)
(2.95159 0.0143469 0)
(2.88859 0.0425711 0)
(2.70271 0.0943287 0)
(2.14123 0.274975 0)
(1.32395 0.664078 0)
(0.944785 0.729298 0)
(0.927725 0.74314 0)
(0.967675 0.742202 0)
(1.02043 0.746134 0)
(1.0562 0.767308 0)
(1.08875 0.794931 0)
(1.13066 0.821851 0)
(1.18466 0.845292 0)
(1.25012 0.863579 0)
(1.32509 0.874873 0)
(3 6.88448e-07 0)
(2.99998 4.42526e-06 0)
(2.99996 1.37772e-05 0)
(2.99991 3.76866e-05 0)
(2.99978 8.77837e-05 0)
(2.99952 0.000212284 0)
(2.99885 0.000462103 0)
(2.99749 0.001108 0)
(2.99375 0.00234552 0)
(2.98658 0.00591555 0)
(2.96476 0.0119708 0)
(2.92107 0.0328894 0)
(2.7874 0.074904 0)
(2.41619 0.205821 0)
(1.65754 0.523995 0)
(1.08092 0.733169 0)
(1.0022 0.759036 0)
(1.01713 0.766583 0)
(1.06349 0.763875 0)
(1.10359 0.775855 0)
(1.13505 0.796364 0)
(1.17198 0.817723 0)
(1.21929 0.836329 0)
(1.27678 0.850513 0)
(1.34256 0.858952 0)
(3 5.55064e-07 0)
(2.99999 3.56346e-06 0)
(2.99997 1.10964e-05 0)
(2.99993 3.02837e-05 0)
(2.99984 7.05361e-05 0)
(2.99964 0.000169695 0)
(2.99914 0.000369972 0)
(2.99813 0.000876487 0)
(2.99535 0.00186651 0)
(2.99021 0.00453735 0)
(2.97345 0.00949297 0)
(2.94395 0.0244447 0)
(2.84106 0.0538645 0)
(2.57817 0.150096 0)
(1.96724 0.367883 0)
(1.22585 0.755626 0)
(1.0507 0.792011 0)
(1.05405 0.801824 0)
(1.09607 0.795035 0)
(1.14344 0.792982 0)
(1.17743 0.803816 0)
(1.21123 0.81869 0)
(1.25259 0.832274 0)
(1.30271 0.842542 0)
(1.36016 0.848271 0)
(3 4.38069e-07 0)
(2.99999 2.81021e-06 0)
(2.99998 8.75117e-06 0)
(2.99995 2.3852e-05 0)
(2.99988 5.55324e-05 0)
(2.99974 0.000133255 0)
(2.99937 0.000290271 0)
(2.99862 0.000684713 0)
(2.9966 0.00145516 0)
(2.99271 0.00354745 0)
(2.98096 0.00716472 0)
(2.95953 0.019791 0)
(2.88823 0.0388194 0)
(2.71443 0.12078 0)
(2.28358 0.282712 0)
(1.46218 0.71243 0)
(1.12862 0.813145 0)
(1.10061 0.828362 0)
(1.12564 0.826334 0)
(1.17375 0.815575 0)
(1.2151 0.815732 0)
(1.24857 0.823299 0)
(1.28521 0.831902 0)
(1.32885 0.838419 0)
(1.37906 0.841697 0)
(3 3.43127e-07 0)
(2.99999 2.2021e-06 0)
(2.99998 6.85775e-06 0)
(2.99996 1.8702e-05 0)
(2.99991 4.3559e-05 0)
(2.99981 0.000104619 0)
(2.99954 0.000228164 0)
(2.99901 0.000538583 0)
(2.99758 0.00114793 0)
(2.99479 0.00276214 0)
(2.98675 0.00580509 0)
(2.97113 0.014764 0)
(2.92419 0.0310103 0)
(2.8139 0.0850903 0)
(2.52584 0.203827 0)
(1.76276 0.547309 0)
(1.25805 0.806415 0)
(1.15807 0.841241 0)
(1.16318 0.851719 0)
(1.20172 0.842287 0)
(1.2465 0.832293 0)
(1.28243 0.831216 0)
(1.31653 0.834391 0)
(1.35503 0.837444 0)
(1.39912 0.838515 0)
(3 2.61406e-07 0)
(3 1.67741e-06 0)
(2.99999 5.22213e-06 0)
(2.99997 1.4232e-05 0)
(2.99994 3.31323e-05 0)
(2.99987 7.9462e-05 0)
(2.99968 0.000173188 0)
(2.99932 0.000407723 0)
(2.99833 0.000868083 0)
(2.99644 0.00207739 0)
(2.99081 0.00436399 0)
(2.98115 0.0108519 0)
(2.94707 0.0231455 0)
(2.87963 0.0606941 0)
(2.67711 0.141843 0)
(2.08435 0.394853 0)
(1.45778 0.792486 0)
(1.22419 0.861598 0)
(1.20435 0.873048 0)
(1.2252 0.867061 0)
(1.26819 0.851565 0)
(1.3098 0.843056 0)
(1.34538 0.840541 0)
(1.38119 0.84003 0)
(1.42042 0.838887 0)
(3 1.80956e-07 0)
(3 1.27306e-06 0)
(2.99999 3.73209e-06 0)
(2.99998 1.07003e-05 0)
(2.99996 2.36166e-05 0)
(2.99991 5.95952e-05 0)
(2.99979 0.000122296 0)
(2.99954 0.000305153 0)
(2.99888 0.000603162 0)
(2.99759 0.00155451 0)
(2.99397 0.00293563 0)
(2.98717 0.00832892 0)
(2.96636 0.0141124 0)
(2.92456 0.0477591 0)
(2.80014 0.0863622 0)
(2.44943 0.28781 0)
(1.79351 0.635621 0)
(1.34656 0.850166 0)
(1.26786 0.878109 0)
(1.26545 0.882914 0)
(1.29601 0.870943 0)
(1.3376 0.856592 0)
(1.37376 0.849715 0)
(1.40786 0.846025 0)
(1.44339 0.84271 0)
(3 1.27491e-07 0)
(3 8.90394e-07 0)
(3 2.6212e-06 0)
(2.99999 7.47751e-06 0)
(2.99997 1.65562e-05 0)
(2.99994 4.15118e-05 0)
(2.99987 8.55667e-05 0)
(2.99968 0.000211664 0)
(2.9993 0.000421926 0)
(2.9983 0.00106849 0)
(2.99641 0.00206711 0)
(2.9906 0.00550366 0)
(2.98104 0.0102761 0)
(2.94586 0.0296042 0)
(2.87766 0.0579678 0)
(2.66666 0.170124 0)
(2.09704 0.42425 0)
(1.52683 0.815976 0)
(1.3246 0.886808 0)
(1.30242 0.897435 0)
(1.31861 0.891648 0)
(1.35827 0.874703 0)
(1.39927 0.862844 0)
(1.43347 0.855782 0)
(1.46649 0.850117 0)
(3 9.92631e-08 0)
(3 5.6878e-07 0)
(3 1.90871e-06 0)
(2.99999 4.85848e-06 0)
(2.99998 1.20652e-05 0)
(2.99996 2.68651e-05 0)
(2.99991 6.30368e-05 0)
(2.99979 0.000135507 0)
(2.99955 0.000317055 0)
(2.9989 0.000671089 0)
(2.99764 0.00159695 0)
(2.9941 0.0033215 0)
(2.98746 0.00835768 0)
(2.96733 0.0167976 0)
(2.92585 0.0455346 0)
(2.80685 0.10215 0)
(2.46627 0.281767 0)
(1.8547 0.653421 0)
(1.44693 0.858311 0)
(1.36592 0.894708 0)
(1.35889 0.902917 0)
(1.3847 0.893749 0)
(1.42444 0.877461 0)
(1.45931 0.866978 0)
(1.49054 0.859511 0)
(3 6.74322e-08 0)
(3 3.86388e-07 0)
(3 1.29562e-06 0)
(3 3.29418e-06 0)
(2.99999 8.15453e-06 0)
(2.99997 1.81221e-05 0)
(2.99994 4.22436e-05 0)
(2.99987 9.05358e-05 0)
(2.99972 0.000209826 0)
(2.99932 0.000442678 0)
(2.99859 0.00103985 0)
(2.99634 0.00216714 0)
(2.99283 0.0052504 0)
(2.97882 0.0108848 0)
(2.95808 0.0277289 0)
(2.87453 0.060517 0)
(2.67794 0.166276 0)
(2.2207 0.402321 0)
(1.60155 0.810767 0)
(1.41247 0.899599 0)
(1.38887 0.915808 0)
(1.40208 0.915489 0)
(1.43839 0.899939 0)
(1.47879 0.88346 0)
(1.51204 0.872522 0)
(3 4.63913e-08 0)
(3 2.503e-07 0)
(3 8.73732e-07 0)
(3 2.14402e-06 0)
(2.99999 5.48259e-06 0)
(2.99998 1.17473e-05 0)
(2.99996 2.83335e-05 0)
(2.99992 5.81716e-05 0)
(2.99982 0.00014045 0)
(2.99956 0.000280436 0)
(2.99906 0.000700485 0)
(2.99768 0.00131462 0)
(2.99508 0.00367984 0)
(2.98725 0.00602341 0)
(2.97246 0.0207082 0)
(2.92708 0.0316901 0)
(2.82146 0.119182 0)
(2.55055 0.239245 0)
(1.91094 0.647912 0)
(1.53384 0.866338 0)
(1.44287 0.914819 0)
(1.43421 0.926624 0)
(1.45358 0.921336 0)
(1.49111 0.904665 0)
(1.5289 0.890505 0)
(3 2.91518e-08 0)
(3 1.67003e-07 0)
(3 5.60307e-07 0)
(3 1.42512e-06 0)
(3 3.53131e-06 0)
(2.99999 7.85351e-06 0)
(2.99998 1.83386e-05 0)
(2.99995 3.93779e-05 0)
(2.99989 9.15102e-05 0)
(2.99977 0.000193992 0)
(2.99944 0.000455834 0)
(2.99888 0.000962043 0)
(2.99691 0.00229391 0)
(2.99413 0.00484238 0)
(2.98174 0.0117411 0)
(2.96428 0.0258727 0)
(2.89042 0.0626111 0)
(2.7293 0.157407 0)
(2.32377 0.376154 0)
(1.7178 0.794259 0)
(1.50179 0.909816 0)
(1.46429 0.933782 0)
(1.4707 0.938108 0)
(1.50034 0.927567 0)
(1.53914 0.909783 0)
(3 1.54131e-08 0)
(3 1.04049e-07 0)
(3 3.11899e-07 0)
(3 8.67997e-07 0)
(3 1.94102e-06 0)
(2.99999 4.70917e-06 0)
(2.99999 9.76743e-06 0)
(2.99997 2.31726e-05 0)
(2.99994 4.64476e-05 0)
(2.99986 0.000112073 0)
(2.9997 0.000216664 0)
(2.99924 0.00055548 0)
(2.99847 0.000994286 0)
(2.99575 0.00294837 0)
(2.99187 0.00478389 0)
(2.9748 0.0170109 0)
(2.9489 0.0279185 0)
(2.85015 0.0997219 0)
(2.60847 0.223274 0)
(2.10286 0.56727 0)
(1.64095 0.876826 0)
(1.52058 0.938297 0)
(1.5017 0.949965 0)
(1.51251 0.947417 0)
(1.54436 0.931337 0)
(3 1.02526e-08 0)
(3 5.88605e-08 0)
(3 1.96231e-07 0)
(3 4.98109e-07 0)
(3 1.219e-06 0)
(3 2.69139e-06 0)
(2.99999 6.16917e-06 0)
(2.99998 1.30927e-05 0)
(2.99996 2.97583e-05 0)
(2.99991 6.21197e-05 0)
(2.99981 0.000143424 0)
(2.99953 0.000292774 0)
(2.99901 0.000714205 0)
(2.9975 0.00138186 0)
(2.99487 0.00382143 0)
(2.98607 0.00695423 0)
(2.97162 0.0220911 0)
(2.92088 0.0426925 0)
(2.80533 0.132342 0)
(2.52025 0.315516 0)
(1.92895 0.711275 0)
(1.61703 0.899248 0)
(1.5487 0.942711 0)
(1.54029 0.952671 0)
(1.55444 0.947679 0)
(3 6.48654e-09 0)
(3 3.72038e-08 0)
(3 1.24421e-07 0)
(3 3.16018e-07 0)
(3 7.77765e-07 0)
(3 1.72271e-06 0)
(3 3.98239e-06 0)
(2.99999 8.50477e-06 0)
(2.99998 1.95231e-05 0)
(2.99995 4.1177e-05 0)
(2.99989 9.54615e-05 0)
(2.99972 0.000199911 0)
(2.99942 0.000471914 0)
(2.99855 0.00097627 0)
(2.997 0.00238983 0)
(2.99216 0.00482658 0)
(2.98387 0.0126738 0)
(2.95602 0.0254005 0)
(2.89913 0.0696123 0)
(2.73767 0.161088 0)
(2.29582 0.413538 0)
(1.83183 0.772847 0)
(1.62848 0.901407 0)
(1.58312 0.936891 0)
(1.57889 0.9468 0)
(3 4.04102e-09 0)
(3 2.31738e-08 0)
(3 7.74842e-08 0)
(3 1.96756e-07 0)
(3 4.84174e-07 0)
(3 1.07226e-06 0)
(3 2.47747e-06 0)
(2.99999 5.28937e-06 0)
(2.99999 1.21213e-05 0)
(2.99997 2.55496e-05 0)
(2.99994 5.9001e-05 0)
(2.99985 0.000123442 0)
(2.99969 0.000288941 0)
(2.99923 0.000599063 0)
(2.99843 0.0014362 0)
(2.99584 0.00292028 0)
(2.99192 0.00736621 0)
(2.9762 0.0148315 0)
(2.95223 0.039515 0)
(2.86329 0.086679 0)
(2.63594 0.240246 0)
(2.19191 0.552868 0)
(1.76926 0.845772 0)
(1.6416 0.927473 0)
(1.61262 0.948143 0)
(3 2.51585e-09 0)
(3 1.39848e-08 0)
(3 4.77442e-08 0)
(3 1.19184e-07 0)
(3 2.98072e-07 0)
(3 6.50002e-07 0)
(3 1.52589e-06 0)
(3 3.20634e-06 0)
(2.99999 7.47732e-06 0)
(2.99998 1.54723e-05 0)
(2.99997 3.65517e-05 0)
(2.99992 7.43812e-05 0)
(2.99983 0.000180288 0)
(2.99959 0.000355761 0)
(2.99914 0.000901362 0)
(2.9978 0.00167738 0)
(2.99556 0.00462403 0)
(2.98787 0.00778616 0)
(2.9752 0.0246252 0)
(2.93137 0.0403393 0)
(2.83532 0.134101 0)
(2.59032 0.280993 0)
(2.06585 0.670351 0)
(1.75743 0.877364 0)
(1.66415 0.938282 0)
(3 1.4166e-09 0)
(3 8.11593e-09 0)
(3 2.71353e-08 0)
(3 6.88732e-08 0)
(3 1.69327e-07 0)
(3 3.74692e-07 0)
(3 8.64724e-07 0)
(3 1.8452e-06 0)
(3 4.2225e-06 0)
(2.99999 8.9264e-06 0)
(2.99999 2.05099e-05 0)
(2.99997 4.3348e-05 0)
(2.99993 0.000100583 0)
(2.99988 0.000212236 0)
(2.99965 0.000498548 0)
(2.9994 0.00104122 0)
(2.99786 0.0025032 0)
(2.99633 0.00512021 0)
(2.98601 0.01253 0)
(2.97375 0.0258364 0)
(2.91414 0.0627391 0)
(2.79809 0.150266 0)
(2.50427 0.339446 0)
(1.98069 0.732549 0)
(1.74637 0.895733 0)
(3 6.27858e-10 0)
(3 4.0579e-09 0)
(3 1.24306e-08 0)
(3 3.34562e-08 0)
(3 7.55718e-08 0)
(3 1.74883e-07 0)
(3 3.64314e-07 0)
(3 8.09965e-07 0)
(3 1.62697e-06 0)
(3 3.60952e-06 0)
(2.99999 6.93625e-06 0)
(2.99999 1.60706e-05 0)
(2.99998 2.83315e-05 0)
(2.99995 7.28889e-05 0)
(2.99991 0.000114267 0)
(2.99972 0.000349328 0)
(2.99955 0.00049412 0)
(2.99799 0.0019844 0)
(2.99665 0.00277581 0)
(2.9843 0.0126237 0)
(2.97124 0.0199245 0)
(2.89785 0.0756493 0)
(2.75421 0.15981 0)
(2.42239 0.41259 0)
(1.93803 0.759778 0)
(3 3.14626e-10 0)
(3 1.76616e-09 0)
(3 5.91141e-09 0)
(3 1.46368e-08 0)
(3 3.51821e-08 0)
(3 7.45201e-08 0)
(3 1.64177e-07 0)
(3 3.27234e-07 0)
(3 7.04958e-07 0)
(3 1.32956e-06 0)
(3 2.94472e-06 0)
(2.99999 5.10566e-06 0)
(2.99998 1.18382e-05 0)
(2.99995 1.85782e-05 0)
(2.9999 4.82888e-05 0)
(2.99975 6.17262e-05 0)
(2.99949 0.000226526 0)
(2.99859 0.000238781 0)
(2.99717 0.00163163 0)
(2.99184 0.0019801 0)
(2.98372 0.013375 0)
(2.95296 0.0201663 0)
(2.89319 0.0904429 0)
(2.72844 0.182933 0)
(2.31073 0.498902 0)
(3 1.63603e-10 0)
(3 9.41689e-10 0)
(3 3.11821e-09 0)
(3 7.8864e-09 0)
(3 1.90032e-08 0)
(3 4.15315e-08 0)
(3 9.3081e-08 0)
(3 1.95012e-07 0)
(3 4.32901e-07 0)
(3 8.95758e-07 0)
(3 2.01956e-06 0)
(3 4.17108e-06 0)
(2.99999 9.66399e-06 0)
(2.99998 2.0005e-05 0)
(2.99995 4.79415e-05 0)
(2.99989 9.91485e-05 0)
(2.99971 0.000247717 0)
(2.99943 0.000506201 0)
(2.99842 0.00133274 0)
(2.99694 0.00266278 0)
(2.99099 0.00736561 0)
(2.98225 0.0146145 0)
(2.94878 0.0405723 0)
(2.88466 0.0894371 0)
(2.70241 0.226295 0)
(3 8.2773e-11 0)
(3 5.22855e-10 0)
(3 1.63119e-09 0)
(3 4.35448e-09 0)
(3 1.00289e-08 0)
(3 2.32128e-08 0)
(3 4.96426e-08 0)
(3 1.11516e-07 0)
(3 2.33333e-07 0)
(3 5.26315e-07 0)
(3 1.09667e-06 0)
(3 2.50429e-06 0)
(3 5.24896e-06 0)
(2.99999 1.2102e-05 0)
(2.99998 2.55053e-05 0)
(2.99994 5.99485e-05 0)
(2.99988 0.00012494 0)
(2.99969 0.000302938 0)
(2.99941 0.000607331 0)
(2.99831 0.0015726 0)
(2.99685 0.00303174 0)
(2.99036 0.00829788 0)
(2.98147 0.0164846 0)
(2.94573 0.0436563 0)
(2.87788 0.098954 0)
(3 4.60706e-11 0)
(3 2.64634e-10 0)
(3 8.79086e-10 0)
(3 2.22651e-09 0)
(3 5.40251e-09 0)
(3 1.18622e-08 0)
(3 2.68501e-08 0)
(3 5.66145e-08 0)
(3 1.26773e-07 0)
(3 2.63911e-07 0)
(3 5.95391e-07 0)
(3 1.23725e-06 0)
(3 2.81672e-06 0)
(3 5.87903e-06 0)
(2.99999 1.34833e-05 0)
(2.99998 2.79817e-05 0)
(2.99995 6.56086e-05 0)
(2.99991 0.000132623 0)
(2.99975 0.000326135 0)
(2.99952 0.000623962 0)
(2.99842 0.00168071 0)
(2.99741 0.003101 0)
(2.99005 0.0087747 0)
(2.9827 0.0168274 0)
(2.94389 0.0455886 0)
(3 2.08779e-11 0)
(3 1.30945e-10 0)
(3 4.0903e-10 0)
(3 1.08242e-09 0)
(3 2.48227e-09 0)
(3 5.64674e-09 0)
(3 1.19614e-08 0)
(3 2.60858e-08 0)
(3 5.37016e-08 0)
(3 1.16203e-07 0)
(3 2.33864e-07 0)
(3 5.17427e-07 0)
(3 1.00027e-06 0)
(3 2.34314e-06 0)
(3 4.28418e-06 0)
(2.99999 1.05771e-05 0)
(2.99999 1.83321e-05 0)
(2.99996 5.02078e-05 0)
(2.99992 9.02587e-05 0)
(2.99976 0.000254874 0)
(2.99956 0.000462619 0)
(2.99844 0.00147014 0)
(2.99738 0.00240521 0)
(2.99003 0.00858469 0)
(2.98227 0.0146149 0)
(3 9.9795e-12 0)
(3 5.77961e-11 0)
(3 1.89716e-10 0)
(3 4.79106e-10 0)
(3 1.1368e-09 0)
(3 2.46322e-09 0)
(3 5.37522e-09 0)
(3 1.1078e-08 0)
(3 2.35887e-08 0)
(3 4.75683e-08 0)
(3 1.01477e-07 0)
(3 1.99594e-07 0)
(3 4.41696e-07 0)
(3 8.28896e-07 0)
(3 1.98348e-06 0)
(3 3.52115e-06 0)
(2.99999 9.16344e-06 0)
(2.99999 1.5932e-05 0)
(2.99996 4.46285e-05 0)
(2.99992 8.50777e-05 0)
(2.99977 0.000217629 0)
(2.99959 0.000405493 0)
(2.99842 0.00129995 0)
(2.99722 0.00213431 0)
(2.98967 0.00795636 0)
(3 4.05662e-12 0)
(3 2.5508e-11 0)
(3 7.91007e-11 0)
(3 2.07885e-10 0)
(3 4.69546e-10 0)
(3 1.04828e-09 0)
(3 2.16617e-09 0)
(3 4.61029e-09 0)
(3 9.14847e-09 0)
(3 1.943e-08 0)
(3 3.7216e-08 0)
(3 8.1645e-08 0)
(3 1.47247e-07 0)
(3 3.52563e-07 0)
(3 5.75894e-07 0)
(3 1.57278e-06 0)
(3 2.39959e-06 0)
(2.99999 7.65358e-06 0)
(2.99999 1.18538e-05 0)
(2.99995 4.08708e-05 0)
(2.99991 6.08157e-05 0)
(2.99967 0.00019651 0)
(2.99938 0.00021318 0)
(2.99809 0.000967312 0)
(2.9968 0.00136039 0)
(3 1.76832e-12 0)
(3 1.0321e-11 0)
(3 3.35315e-11 0)
(3 8.44838e-11 0)
(3 1.96946e-10 0)
(3 4.21613e-10 0)
(3 8.95539e-10 0)
(3 1.81071e-09 0)
(3 3.7354e-09 0)
(3 7.33764e-09 0)
(3 1.51284e-08 0)
(3 2.89816e-08 0)
(3 6.08853e-08 0)
(3 1.10347e-07 0)
(3 2.40456e-07 0)
(3 4.06502e-07 0)
(3 1.00785e-06 0)
(3 1.63484e-06 0)
(2.99999 4.91425e-06 0)
(2.99997 8.66152e-06 0)
(2.99994 2.53213e-05 0)
(2.99976 4.39142e-05 0)
(2.99933 0.000115254 0)
(2.99858 2.3932e-05 0)
(2.99786 0.000625171 0)
(3 7.43192e-13 0)
(3 4.3227e-12 0)
(3 1.40578e-11 0)
(3 3.53996e-11 0)
(3 8.23068e-11 0)
(3 1.76329e-10 0)
(3 3.71775e-10 0)
(3 7.54785e-10 0)
(3 1.52821e-09 0)
(3 3.04404e-09 0)
(3 6.13368e-09 0)
(3 1.20285e-08 0)
(3 2.49983e-08 0)
(3 4.73989e-08 0)
(3 9.70735e-08 0)
(3 1.76966e-07 0)
(3 2.84238e-07 0)
(3 5.30585e-07 0)
(2.99999 5.60444e-07 0)
(2.99997 3.98461e-07 0)
(2.99995 9.39745e-08 0)
(2.99977 2.97304e-06 0)
(2.99935 -7.11648e-05 0)
(2.99872 -0.000263705 0)
(2.99824 -0.00010874 0)
(3 3.23953e-13 0)
(3 1.87987e-12 0)
(3 6.14015e-12 0)
(3 1.54722e-11 0)
(3 3.61931e-11 0)
(3 7.80965e-11 0)
(3 1.65257e-10 0)
(3 3.42646e-10 0)
(3 6.88666e-10 0)
(3 1.39733e-09 0)
(3 2.72963e-09 0)
(3 5.18501e-09 0)
(3 9.79795e-09 0)
(3 1.65153e-08 0)
(3 3.03062e-08 0)
(3 4.40187e-08 0)
(3 1.18059e-07 0)
(3 1.13214e-07 0)
(2.99999 4.9349e-07 0)
(2.99997 9.88549e-07 0)
(2.99995 -5.53746e-06 0)
(2.99967 -8.88167e-06 0)
(2.99902 -0.000132328 0)
(2.99854 -0.000395758 0)
(2.99824 -0.000941991 0)
(3 1.47038e-13 0)
(3 7.98922e-13 0)
(3 2.71605e-12 0)
(3 6.55942e-12 0)
(3 1.60117e-11 0)
(3 3.23134e-11 0)
(3 7.51205e-11 0)
(3 1.34166e-10 0)
(3 3.36743e-10 0)
(3 5.06045e-10 0)
(3 1.50062e-09 0)
(3 1.65104e-09 0)
(3 6.88907e-09 0)
(3 3.4652e-09 0)
(3 4.28903e-08 0)
(3 -8.50208e-09 0)
(3 3.00639e-07 0)
(3 -5.81286e-09 0)
(3 1.55332e-06 0)
(2.99997 -1.73668e-06 0)
(2.99994 1.6493e-05 0)
(2.99963 -2.14935e-05 0)
(2.9989 0.000162446 0)
(2.99775 0.000407995 0)
(2.99347 0.000327334 0)
(3 5.71989e-14 0)
(3 3.35205e-13 0)
(3 1.05462e-12 0)
(3 2.66511e-12 0)
(3 5.72595e-12 0)
(3 1.24107e-11 0)
(3 2.27857e-11 0)
(3 4.26391e-11 0)
(3 7.72671e-11 0)
(3 1.28555e-10 0)
(3 2.98021e-10 0)
(3 5.44774e-10 0)
(3 1.71983e-09 0)
(3 3.16217e-09 0)
(3 8.6572e-09 0)
(3 1.67036e-08 0)
(3 3.32242e-08 0)
(3 5.24647e-08 0)
(2.99999 1.80857e-07 0)
(2.99998 3.65868e-07 0)
(2.99992 -4.18452e-07 0)
(2.99984 -1.22805e-06 0)
(2.99951 -7.22811e-06 0)
(2.99872 -2.1867e-05 0)
(2.99789 -4.32947e-05 0)
(3 8.29592e-15 0)
(3 1.0405e-13 0)
(3 1.97771e-13 0)
(3 7.90341e-13 0)
(3 7.20101e-13 0)
(3 3.91799e-12 0)
(3 -1.88443e-12 0)
(3 1.45642e-11 0)
(3 -4.43342e-11 0)
(3 5.17119e-11 0)
(3 -4.12488e-10 0)
(3 2.99068e-10 0)
(3 -3.61104e-09 0)
(3 1.46387e-09 0)
(3 -3.48979e-08 0)
(3 1.49467e-08 0)
(3 -2.20612e-07 0)
(3 2.04225e-08 0)
(3 -7.15416e-07 0)
(2.99996 3.77924e-06 0)
(2.99994 -1.8472e-05 0)
(2.99962 1.58419e-05 0)
(2.99887 -0.000211544 0)
(2.9977 -0.000536972 0)
(2.9935 -0.00106708 0)
(1.17076 1.20947 0)
(1.5871 1.12154 0)
(1.8485 1.01339 0)
(2.01313 0.889584 0)
(2.10414 0.741889 0)
(2.12827 0.568493 0)
(2.11023 0.380554 0)
(2.05531 0.195951 0)
(1.9386 0.030698 0)
(1.80722 -0.0545585 0)
(1.71282 -0.056883 0)
(1.67113 -0.022355 0)
(1.6611 0.0151791 0)
(1.66127 0.0373311 0)
(1.66115 0.0438219 0)
(1.65917 0.0396227 0)
(1.65387 0.0303269 0)
(1.6438 0.020524 0)
(1.6295 0.0144896 0)
(1.61259 0.0124193 0)
(1.58725 0.0133765 0)
(1.53948 0.0181396 0)
(1.44177 0.0278983 0)
(1.2365 0.0496497 0)
(0.808857 0.0887159 0)
(0.300431 0.159203 0)
(-0.066135 0.178929 0)
(-0.18665 0.165698 0)
(-0.263286 0.12414 0)
(-0.366678 0.0666304 0)
(-0.488644 0.0188507 0)
(-0.600383 -0.0060517 0)
(-0.689556 -0.00745479 0)
(-0.75639 0.00488477 0)
(-0.800825 0.0188139 0)
(-0.825896 0.0249676 0)
(-0.840026 0.0228047 0)
(-0.84268 0.0158684 0)
(-0.824528 0.00491115 0)
(-0.781579 -0.00616875 0)
(-0.715169 -0.0161055 0)
(-0.632212 -0.0258149 0)
(-0.539625 -0.0356615 0)
(-0.444268 -0.0450056 0)
(-0.348098 -0.0543349 0)
(-0.251586 -0.0628606 0)
(-0.161702 -0.0642798 0)
(-0.0738321 -0.0662996 0)
(0.0111908 -0.0689823 0)
(0.11203 -0.0689623 0)
(0.159167 -0.059007 0)
(0.219199 -0.0521941 0)
(0.281201 -0.047789 0)
(0.338134 -0.0439633 0)
(0.390471 -0.0403685 0)
(0.442245 -0.0378184 0)
(0.495401 -0.0366766 0)
(0.546338 -0.034877 0)
(0.594446 -0.0328544 0)
(0.640232 -0.0308247 0)
(0.684318 -0.0289483 0)
(0.726837 -0.0271682 0)
(0.767975 -0.0255365 0)
(0.807739 -0.0239799 0)
(0.846279 -0.022536 0)
(0.883632 -0.0211488 0)
(0.919907 -0.0198495 0)
(0.955137 -0.0185837 0)
(0.989428 -0.0173874 0)
(1.02281 -0.0162127 0)
(1.0554 -0.0151051 0)
(1.0872 -0.0140249 0)
(1.11833 -0.0130054 0)
(1.1488 -0.0120196 0)
(1.1787 -0.0111059 0)
(1.20802 -0.010218 0)
(1.23686 -0.00938423 0)
(1.26521 -0.00857746 0)
(1.29316 -0.00780911 0)
(1.3207 -0.0070738 0)
(1.34789 -0.00637349 0)
(1.37471 -0.00571388 0)
(1.40117 -0.0050962 0)
(1.42726 -0.00452223 0)
(1.45297 -0.00399458 0)
(1.4783 -0.00350708 0)
(1.50324 -0.00305942 0)
(1.52781 -0.00264255 0)
(1.55204 -0.00225509 0)
(1.57593 -0.00188575 0)
(1.59953 -0.00153432 0)
(1.62283 -0.00119768 0)
(1.64587 -0.000877208 0)
(1.66861 -0.000572664 0)
(1.69096 -0.000258961 0)
(1.71272 6.51297e-05 0)
(1.73348 0.000451859 0)
(1.75255 0.000922063 0)
(1.76797 0.00161387 0)
(1.77894 0.00253978 0)
(1.31257 1.13874 0)
(1.62865 0.974494 0)
(1.84853 0.773411 0)
(1.9854 0.555393 0)
(2.05224 0.335341 0)
(2.07019 0.134472 0)
(2.07106 -0.0325984 0)
(2.07611 -0.161493 0)