/*--------------------------------*- C++ -*----------------------------------*\
  =========                 |
  \\      /  F ield         | OpenFOAM: The Open Source CFD Toolbox
   \\    /   O peration     | Website:  https://openfoam.org
    \\  /    A nd           | Version:  6
     \\/     M anipulation  |
\*---------------------------------------------------------------------------*/
FoamFile
{
    version     2.0;
    format      ascii;
    class       volScalarField;
    location    "1.5";
    object      Ma;
}
// * * * * * * * * * * * * * * * * * * * * * * * * * * * * * * * * * * * * * //

dimensions      [0 0 0 0 0 0 0];

internalField   nonuniform List<scalar> 
26250
(
3.04646
3.07711
3.10397
3.12689
3.14755
3.16477
3.18045
3.19057
3.19033
3.17695
3.13663
3.00748
2.73528
2.02921
1.05543
0.530503
0.55801
0.622173
0.67322
0.676486
0.657247
0.606664
0.511247
0.368294
0.257265
3.04645
3.07712
3.10396
3.1269
3.14754
3.16477
3.18043
3.1906
3.19037
3.17715
3.13708
3.00875
2.73783
2.03548
1.0665
0.549358
0.567317
0.6279
0.678026
0.680215
0.659773
0.607638
0.510629
0.366023
0.253403
3.04643
3.07714
3.10395
3.12692
3.14752
3.16477
3.18042
3.1907
3.19051
3.17758
3.13809
3.01061
2.74186
2.04112
1.07336
0.552294
0.567828
0.627787
0.677167
0.678759
0.656316
0.6025
0.50637
0.363644
0.252873
3.04624
3.07733
3.10379
3.1271
3.1473
3.16493
3.18026
3.19106
3.19094
3.17877
3.14312
3.01429
2.75115
2.05165
1.08369
0.569765
0.58
0.636702
0.683665
0.684408
0.659333
0.60393
0.510065
0.369853
0.259738
3.04578
3.07781
3.10324
3.12762
3.14671
3.16563
3.17947
3.1919
3.19024
3.18463
3.1379
3.03946
2.72347
2.10607
1.12867
0.597089
0.600224
0.652486
0.693803
0.692607
0.665948
0.610301
0.517748
0.379013
0.270669
3.04772
3.07574
3.10531
3.12543
3.14882
3.16346
3.18182
3.18932
3.19297
3.18104
3.15056
3.02366
2.77343
2.08346
1.13093
0.625234
0.619068
0.665341
0.706145
0.704695
0.678109
0.624523
0.534271
0.3969
0.290788
3.04563
3.07795
3.10313
3.12776
3.14661
3.16579
3.17938
3.19226
3.19114
3.18602
3.14196
3.04846
2.74776
2.15132
1.2
0.661864
0.643393
0.685493
0.722909
0.720925
0.695116
0.644822
0.558427
0.424634
0.323612
3.04784
3.07572
3.10552
3.12535
3.14922
3.16304
3.18229
3.18896
3.19358
3.18276
3.15199
3.03631
2.8021
2.14385
1.21994
0.687914
0.664139
0.703709
0.739333
0.738683
0.715738
0.67086
0.591853
0.466291
0.377464
3.04818
3.07547
3.10575
3.12505
3.1494
3.16273
3.18245
3.18877
3.19399
3.18386
3.15246
3.04461
2.82047
2.18335
1.28294
0.730793
0.694609
0.729041
0.760943
0.761623
0.742077
0.704486
0.636796
0.528501
0.468253
3.04822
3.07529
3.10589
3.1248
3.14954
3.16258
3.18255
3.18907
3.19547
3.18588
3.15793
3.05457
2.84012
2.23793
1.3361
0.787056
0.738336
0.764147
0.790012
0.791362
0.775848
0.747868
0.699796
0.625698
0.636892
2.96754
2.95205
2.94112
2.93518
2.92973
2.92707
2.92339
2.91976
2.90541
2.8814
2.80793
2.65287
2.30044
1.55622
0.463379
0.143099
0.0761644
0.273789
0.321246
0.279707
0.244494
0.174772
0.0880851
0.0514496
0.108195
2.96754
2.95204
2.94112
2.93518
2.92974
2.92707
2.92339
2.91978
2.90546
2.88154
2.80832
2.65341
2.30238
1.55974
0.473907
0.117125
0.0942036
0.283341
0.324526
0.275694
0.239031
0.168462
0.0942717
0.0788157
0.113833
2.96754
2.95205
2.94112
2.93518
2.92973
2.92706
2.9234
2.91982
2.9056
2.88187
2.80902
2.65521
2.30577
1.56496
0.480893
0.12036
0.107664
0.292167
0.330315
0.283913
0.246514
0.183918
0.130429
0.123135
0.13442
2.96753
2.95205
2.94112
2.93517
2.92973
2.92705
2.92343
2.91989
2.90585
2.88245
2.81011
2.6581
2.31105
1.57376
0.49847
0.10746
0.131005
0.306943
0.342434
0.301904
0.265969
0.215152
0.176773
0.170649
0.165534
2.96759
2.95197
2.94117
2.9351
2.92978
2.92701
2.92351
2.92002
2.90674
2.88278
2.81721
2.65305
2.32588
1.57495
0.494963
0.112923
0.153584
0.322012
0.357514
0.325253
0.292048
0.253335
0.225912
0.219531
0.203978
2.96766
2.95195
2.94121
2.93511
2.92979
2.92705
2.9235
2.92002
2.90646
2.88411
2.8138
2.66674
2.33015
1.60449
0.552857
0.104132
0.187043
0.343867
0.377959
0.352115
0.324198
0.297023
0.278583
0.272086
0.252255
2.96759
2.95196
2.94118
2.9351
2.92979
2.92701
2.92355
2.92015
2.90746
2.88484
2.8218
2.6658
2.35183
1.61978
0.569845
0.119159
0.217886
0.366371
0.400749
0.381424
0.361359
0.345003
0.336007
0.331537
0.313954
2.96768
2.95196
2.94122
2.93515
2.9298
2.92707
2.92353
2.92018
2.9073
2.88654
2.81953
2.68125
2.36198
1.66178
0.642009
0.149361
0.256901
0.392831
0.426684
0.414019
0.40305
0.397283
0.398967
0.399954
0.394957
2.96772
2.95196
2.94124
2.93514
2.92981
2.92706
2.92357
2.9203
2.908
2.88791
2.82373
2.69051
2.38432
1.7035
0.703087
0.193307
0.300316
0.421582
0.455336
0.449759
0.448831
0.452975
0.468158
0.483706
0.508239
2.96774
2.95192
2.94126
2.93508
2.92984
2.92703
2.92363
2.92055
2.909
2.88985
2.82933
2.70001
2.40629
1.74759
0.761864
0.24999
0.345888
0.448342
0.484812
0.487002
0.495703
0.51148
0.545021
0.586894
0.693248
2.98563
2.97032
2.95096
2.93559
2.9191
2.90741
2.8939
2.88354
2.86362
2.83201
2.74703
2.56982
2.19477
1.37784
0.240104
0.419418
0.0440735
0.187005
0.214584
0.139734
0.0474348
0.0820419
0.094319
0.0672933
0.0590567
2.98561
2.97035
2.95093
2.93562
2.91906
2.90744
2.89387
2.88357
2.8636
2.83226
2.74681
2.57171
2.19496
1.37788
0.244613
0.413944
0.0533962
0.200881
0.221985
0.149457
0.0919089
0.118317
0.13052
0.112265
0.0951517
2.98564
2.97032
2.95096
2.93559
2.9191
2.90741
2.89391
2.88358
2.8638
2.83239
2.74801
2.57194
2.1992
1.38571
0.254299
0.403997
0.0743574
0.221038
0.235423
0.170558
0.135944
0.159378
0.174527
0.166468
0.144339
2.9856
2.97035
2.95093
2.93562
2.91906
2.90744
2.89388
2.88365
2.86394
2.83299
2.74867
2.57604
2.20357
1.39531
0.275073
0.381216
0.0997395
0.245365
0.255726
0.203714
0.179126
0.203655
0.221522
0.221079
0.197045
2.98557
2.97039
2.95089
2.93565
2.91903
2.90748
2.89387
2.88375
2.8642
2.83381
2.75002
2.58149
2.21118
1.4118
0.304654
0.351111
0.128321
0.271992
0.281248
0.243151
0.222861
0.249551
0.269517
0.276131
0.252443
2.98558
2.97037
2.9509
2.93565
2.91904
2.90748
2.89389
2.88385
2.86467
2.83467
2.75271
2.58659
2.22348
1.4388
0.340173
0.320589
0.159327
0.300169
0.311016
0.285964
0.270286
0.298803
0.321003
0.334226
0.313995
2.98555
2.97041
2.95087
2.93569
2.919
2.90752
2.89388
2.884
2.8652
2.83601
2.75564
2.59556
2.23863
1.47823
0.386646
0.286288
0.19211
0.330173
0.343716
0.329813
0.322013
0.350818
0.37668
0.399118
0.386535
2.98554
2.97043
2.95085
2.93571
2.91898
2.90755
2.8939
2.88416
2.86589
2.83744
2.75954
2.60504
2.2574
1.52885
0.440958
0.251293
0.226565
0.360938
0.378319
0.37369
0.376101
0.405335
0.438576
0.471851
0.474606
2.98551
2.97047
2.95081
2.93575
2.91895
2.9076
2.8939
2.88434
2.8666
2.83914
2.7635
2.61548
2.27901
1.57247
0.507792
0.21739
0.264413
0.391664
0.412673
0.417514
0.431105
0.462387
0.505754
0.555269
0.590678
2.98557
2.97037
2.95092
2.93564
2.91908
2.90748
2.894
2.8846
2.86757
2.8411
2.76832
2.62291
2.30213
1.60883
0.573971
0.199329
0.305699
0.422026
0.446575
0.459983
0.484524
0.52237
0.580314
0.653849
0.77564
2.96753
2.95206
2.94111
2.93518
2.92973
2.92706
2.9234
2.91981
2.90555
2.88168
2.80828
2.65398
2.3007
1.55603
0.466297
0.119554
0.0831524
0.278798
0.327694
0.289958
0.236191
0.157298
0.0790744
0.0499524
0.100742
2.96757
2.952
2.94115
2.93512
2.92977
2.92701
2.92348
2.91991
2.90623
2.88135
2.81408
2.64423
2.30804
1.54322
0.437909
0.158898
0.0780526
0.276249
0.322396
0.279276
0.23088
0.157123
0.091243
0.0777736
0.115522
2.96753
2.95205
2.94111
2.93518
2.92973
2.92704
2.92343
2.91986
2.90575
2.88214
2.80907
2.65669
2.3043
1.56181
0.475794
0.119031
0.106926
0.289823
0.327402
0.280122
0.238676
0.177998
0.130013
0.122322
0.135539
2.96757
2.952
2.94115
2.93512
2.92976
2.92701
2.92349
2.91994
2.90639
2.88207
2.8154
2.64862
2.31683
1.55845
0.468968
0.119836
0.126588
0.302611
0.337689
0.296837
0.260109
0.212341
0.177358
0.169427
0.164297
2.96757
2.95199
2.94115
2.93512
2.92976
2.92701
2.9235
2.91997
2.90654
2.88272
2.81659
2.65271
2.32496
1.57241
0.494062
0.10948
0.154174
0.319583
0.353688
0.321062
0.28806
0.252031
0.226558
0.217961
0.202046
2.96759
2.95198
2.94116
2.93511
2.92977
2.92702
2.92352
2.92005
2.90692
2.88364
2.81876
2.65837
2.33652
1.59299
0.52744
0.110749
0.183897
0.340139
0.374286
0.348714
0.321404
0.296249
0.279032
0.270401
0.250207
2.96758
2.95202
2.94115
2.93517
2.92976
2.92708
2.9235
2.92013
2.90678
2.88517
2.8163
2.67229
2.34464
1.63045
0.597915
0.121828
0.220772
0.36587
0.399
0.379243
0.359617
0.344577
0.336323
0.329904
0.311991
2.9676
2.95203
2.94115
2.93519
2.92977
2.9271
2.92353
2.92022
2.90732
2.88639
2.81963
2.681
2.36322
1.66418
0.645805
0.150915
0.25963
0.39385
0.426583
0.413026
0.402047
0.397026
0.399268
0.398484
0.393119
2.9677
2.95197
2.94123
2.93515
2.92981
2.92706
2.92356
2.9203
2.908
2.88787
2.82367
2.69039
2.38429
1.70425
0.704831
0.194269
0.301908
0.422734
0.456115
0.449583
0.448267
0.452638
0.468567
0.48249
0.506583
2.96775
2.95192
2.94127
2.93509
2.92983
2.92702
2.92362
2.92054
2.90897
2.8898
2.82923
2.6999
2.40612
1.74808
0.763202
0.251332
0.347262
0.449589
0.486089
0.487579
0.495693
0.511233
0.545326
0.585872
0.691915
3.04628
3.07731
3.10378
3.12709
3.14734
3.16494
3.1803
3.19102
3.19084
3.17819
3.14188
3.01017
2.74312
2.03044
1.04809
0.540492
0.562195
0.625483
0.678574
0.682416
0.661939
0.610968
0.52062
0.379087
0.25976
3.04571
3.07787
3.10317
3.12767
3.14668
3.16563
3.17947
3.19169
3.18945
3.18349
3.1346
3.03321
2.70205
2.06718
1.09091
0.553154
0.578454
0.639817
0.684579
0.681971
0.655891
0.597972
0.501616
0.358408
0.248782
3.04626
3.07724
3.10397
3.12676
3.14778
3.16434
3.18085
3.19038
3.19118
3.1792
3.14693
3.01412
2.75498
2.03625
1.0477
0.547023
0.567234
0.628521
0.676637
0.677422
0.652416
0.595442
0.504455
0.36562
0.254957
3.0457
3.0779
3.10315
3.12768
3.14667
3.16561
3.17949
3.19159
3.18943
3.18304
3.13496
3.03041
2.71053
2.09385
1.10874
0.583527
0.593265
0.64852
0.689737
0.687381
0.660282
0.602742
0.512184
0.372983
0.260749
3.04573
3.07786
3.10318
3.12765
3.1467
3.16559
3.17953
3.19145
3.18944
3.18144
3.13583
3.02918
2.72103
2.11998
1.11223
0.596233
0.599764
0.652264
0.692481
0.690693
0.664192
0.608561
0.519839
0.381533
0.270781
3.04577
3.07781
3.10322
3.12765
3.14671
3.16563
3.1795
3.19179
3.19015
3.18391
3.13845
3.03788
2.73272
2.13301
1.15127
0.627536
0.62012
0.666655
0.705358
0.702933
0.676104
0.622162
0.534936
0.398023
0.289856
3.04661
3.07694
3.10421
3.12658
3.14797
3.16439
3.18113
3.19056
3.19179
3.18083
3.14878
3.02844
2.78576
2.11272
1.17796
0.653978
0.638498
0.68178
0.720199
0.718175
0.692541
0.642524
0.559061
0.425213
0.321981
3.04663
3.07716
3.10406
3.12693
3.14776
3.16463
3.18093
3.19054
3.19158
3.18163
3.14861
3.03593
2.80066
2.14869
1.23323
0.690299
0.663909
0.7029
0.738541
0.737515
0.71403
0.669053
0.592998
0.466513
0.375586
3.04793
3.07577
3.1055
3.12537
3.14912
3.16305
3.18215
3.18907
3.19358
3.18339
3.1524
3.04453
2.82053
2.18451
1.2834
0.732617
0.695657
0.729902
0.761494
0.761929
0.741525
0.703391
0.638076
0.529374
0.466529
3.04823
3.07528
3.10592
3.12479
3.14953
3.16256
3.18253
3.18904
3.19538
3.18581
3.15781
3.05458
2.84056
2.23797
1.33666
0.787741
0.739092
0.765146
0.791091
0.792353
0.776558
0.747759
0.700688
0.626662
0.635411
3.04521
3.07817
3.10294
3.12782
3.14642
3.16588
3.17941
3.19302
3.19464
3.19031
3.1576
3.08101
2.82882
2.34363
1.42798
0.833091
0.7757
0.795199
0.81604
0.81996
0.811209
0.798294
0.78113
0.771789
0.831008
3.04763
3.07576
3.10534
3.12522
3.149
3.1632
3.18212
3.19061
3.19855
3.19045
3.16762
3.07676
2.88326
2.35055
1.46279
0.90504
0.826579
0.834096
0.848157
0.854448
0.852367
0.849836
0.85321
0.880149
0.957981
3.04539
3.07815
3.10277
3.12807
3.14629
3.16624
3.17936
3.19422
3.19765
3.19525
3.16744
3.10476
2.89315
2.49539
1.62668
0.989006
0.872041
0.868005
0.878429
0.888402
0.893276
0.899894
0.91499
0.95454
1.03229
3.04708
3.07652
3.10466
3.12602
3.14841
3.16386
3.1816
3.19191
3.20068
3.19514
3.17523
3.10722
2.94299
2.53397
1.72345
1.08554
0.92322
0.905655
0.911872
0.923504
0.934711
0.94732
0.969577
1.01144
1.08378
3.0471
3.07656
3.10451
3.12637
3.14806
3.16433
3.18129
3.19286
3.20243
3.19832
3.18279
3.12707
2.9978
2.66241
1.94782
1.21977
0.983022
0.956605
0.959373
0.97141
0.984544
0.998208
1.02165
1.06129
1.12512
3.04534
3.07798
3.10336
3.12716
3.14732
3.16518
3.1803
3.19422
3.20275
3.20249
3.19052
3.15521
3.04627
2.81262
2.21962
1.39862
1.0593
1.01884
1.01646
1.02882
1.04351
1.05746
1.07872
1.11299
1.16633
3.04534
3.0784
3.10246
3.12849
3.1457
3.16667
3.17909
3.19527
3.20248
3.20439
3.19744
3.16955
3.08507
2.89284
2.39419
1.59241
1.11246
1.04407
1.0457
1.0626
1.08383
1.10205
1.12445
1.15643
1.20123
3.0456
3.078
3.10286
3.12812
3.14619
3.16632
3.17956
3.19528
3.20286
3.20727
3.2015
3.17804
3.11439
2.94182
2.54847
1.76404
1.19906
1.07738
1.07017
1.08314
1.10457
1.12976
1.15506
1.18707
1.22978
3.04614
3.0774
3.10338
3.12761
3.14648
3.16606
3.17964
3.19522
3.20377
3.21038
3.20584
3.18891
3.14143
3.00123
2.71182
1.9911
1.35309
1.14537
1.11659
1.11644
1.13255
1.15651
1.18088
1.21083
1.24949
3.04746
3.07615
3.10477
3.12629
3.1477
3.16499
3.18069
3.19408
3.20611
3.21315
3.2129
3.20224
3.17069
3.07534
2.86542
2.33011
1.56567
1.22881
1.17134
1.16197
1.17152
1.19151
1.2151
1.24125
1.27587
3.04537
3.07835
3.10273
3.12824
3.14617
3.16639
3.17961
3.19543
3.20507
3.2161
3.2159
3.21266
3.18649
3.12205
2.94901
2.56745
1.84723
1.32941
1.21129
1.19594
1.20102
1.22032
1.24672
1.2742
1.30474
3.0466
3.07683
3.10448
3.12628
3.14828
3.16416
3.18172
3.19344
3.20706
3.21466
3.22073
3.21605
3.20131
3.15366
3.03066
2.75725
2.10381
1.48955
1.27607
1.24256
1.23857
1.25241
1.27547
1.30257
1.33417
3.04622
3.07711
3.10388
3.12694
3.14738
3.16517
3.18065
3.19457
3.20602
3.2167
3.22252
3.22208
3.21254
3.18074
3.10193
2.89712
2.4335
1.71426
1.36366
1.29279
1.28067
1.28674
1.3053
1.33054
1.35904
3.04576
3.07789
3.10307
3.12795
3.14638
3.16621
3.17963
3.19551
3.20513
3.21768
3.22284
3.22582
3.22111
3.20138
3.14516
3.01232
2.66762
2.00891
1.47836
1.33364
1.3129
1.3164
1.33336
1.35899
1.38451
3.04594
3.07754
3.10354
3.12723
3.14702
3.16548
3.18009
3.19506
3.20567
3.21715
3.22469
3.22934
3.22633
3.2142
3.18022
3.08605
2.87465
2.34128
1.7021
1.41681
1.35837
1.35062
1.35779
1.37994
1.41075
3.04581
3.07765
3.10334
3.12752
3.14677
3.16576
3.18014
3.19496
3.20599
3.21714
3.22544
3.23207
3.23034
3.22493
3.2046
3.14326
3.00452
2.66804
2.0162
1.54226
1.40875
1.38874
1.38995
1.40477
1.4312
3.04605
3.07758
3.10348
3.12747
3.14689
3.16566
3.18016
3.195
3.20572
3.21747
3.22522
3.23357
3.23539
3.23315
3.22145
3.18269
3.09709
2.88314
2.39318
1.74172
1.48619
1.43573
1.42859
1.433
1.45226
3.04641
3.07715
3.10387
3.12693
3.14736
3.16508
3.18067
3.19444
3.20625
3.21699
3.22573
3.23388
3.23831
3.23796
3.23124
3.20851
3.15408
3.01522
2.67717
2.05646
1.59386
1.47147
1.45614
1.45796
1.47234
3.04614
3.07752
3.10349
3.12735
3.14699
3.16541
3.1804
3.19469
3.20605
3.21715
3.2257
3.23414
3.23922
3.2408
3.2379
3.2243
3.19572
3.09951
2.91609
2.39778
1.82516
1.55381
1.49641
1.48991
1.49436
3.04586
3.07772
3.1034
3.12743
3.14701
3.16544
3.18042
3.19473
3.20606
3.21714
3.22586
3.23407
3.24035
3.24455
3.24297
3.23667
3.21894
3.16254
3.04662
2.74135
2.17312
1.69498
1.55189
1.52606
1.52423
3.04609
3.07758
3.10347
3.12745
3.14693
3.16555
3.18035
3.19476
3.20607
3.21716
3.22576
3.23426
3.24056
3.24629
3.24715
3.24501
3.23521
3.20356
3.13191
2.95988
2.53536
1.93546
1.64611
1.56957
1.55667
3.04619
3.07735
3.10372
3.12711
3.14727
3.16517
3.18067
3.19441
3.20631
3.21694
3.22592
3.23418
3.24077
3.24697
3.25007
3.24977
3.24438
3.22691
3.18546
3.08318
2.82676
2.30471
1.79319
1.62013
1.58814
3.04622
3.07729
3.10375
3.12709
3.14722
3.16528
3.18051
3.19463
3.20613
3.21711
3.22583
3.23426
3.24075
3.24726
3.25092
3.25251
3.25046
3.24047
3.22013
3.15102
3.01867
2.65345
2.11287
1.73893
1.63028
3.04612
3.0775
3.10354
3.12737
3.14695
3.16555
3.18027
3.19483
3.20597
3.21724
3.22573
3.23433
3.24077
3.24726
3.25189
3.25554
3.2546
3.25029
3.23884
3.20267
3.12255
2.92796
2.50992
1.9492
1.71033
3.04632
3.07731
3.10373
3.12716
3.14716
3.1653
3.1805
3.19457
3.20618
3.21703
3.22588
3.23421
3.24083
3.24726
3.25205
3.25646
3.25759
3.25616
3.25036
3.22966
3.18765
3.07479
2.81034
2.29761
1.84479
3.04625
3.07731
3.10376
3.12708
3.14729
3.16515
3.1807
3.19439
3.20639
3.21685
3.22608
3.23401
3.24105
3.24708
3.25227
3.25678
3.25951
3.25931
3.25664
3.24483
3.22433
3.14861
3.02331
2.63479
2.15311
3.04618
3.07741
3.10365
3.12721
3.14715
3.16531
3.18054
3.19456
3.20624
3.21698
3.22597
3.23411
3.24096
3.24719
3.25219
3.25703
3.26021
3.26199
3.261
3.25605
3.24495
3.20815
3.1344
2.94077
2.55836
3.04628
3.07732
3.10375
3.12712
3.14725
3.16522
3.18062
3.1945
3.20627
3.21698
3.22593
3.23415
3.24092
3.24719
3.25225
3.25698
3.26068
3.26356
3.2637
3.26193
3.25653
3.23641
3.19907
3.09124
2.85999
3.04627
3.0773
3.10376
3.12708
3.14728
3.16516
3.18069
3.19441
3.20638
3.21687
3.22605
3.23405
3.24101
3.24712
3.2523
3.25699
3.26073
3.26419
3.26583
3.26548
3.26284
3.25253
3.23371
3.17099
3.05578
3.04624
3.07734
3.10371
3.12714
3.14722
3.16523
3.18062
3.19448
3.2063
3.21695
3.22597
3.23414
3.24092
3.2472
3.25225
3.25702
3.26078
3.26432
3.26667
3.26759
3.26673
3.26211
3.25313
3.22043
3.15931
3.04628
3.07731
3.10376
3.1271
3.14727
3.16518
3.18065
3.19446
3.2063
3.21696
3.22593
3.23418
3.24088
3.24724
3.2522
3.25707
3.26074
3.26439
3.26706
3.26918
3.26898
3.26779
3.26277
3.24794
3.21415
3.04629
3.07727
3.10379
3.12706
3.1473
3.16514
3.1807
3.19441
3.20637
3.21688
3.22605
3.23404
3.24103
3.24709
3.25234
3.25696
3.26083
3.26436
3.26714
3.2697
3.27087
3.27054
3.26859
3.26044
3.24671
3.04626
3.07731
3.10375
3.1271
3.14726
3.16519
3.18065
3.19446
3.20631
3.21695
3.22596
3.23414
3.24093
3.24719
3.25227
3.25701
3.26081
3.26438
3.26718
3.26984
3.27158
3.2723
3.27167
3.26834
3.26172
3.04631
3.07727
3.10379
3.12707
3.14729
3.16516
3.18068
3.19442
3.20635
3.2169
3.22601
3.23409
3.24097
3.24715
3.25229
3.257
3.26081
3.26439
3.26718
3.26988
3.27187
3.27347
3.27339
3.27231
3.26924
3.04628
3.07729
3.10377
3.12708
3.14728
3.16517
3.18066
3.19444
3.20633
3.21691
3.22601
3.23408
3.241
3.24711
3.25234
3.25694
3.26088
3.26431
3.26725
3.26984
3.27194
3.27386
3.27478
3.27465
3.27328
3.04629
3.07728
3.10378
3.12707
3.14728
3.16517
3.18066
3.19445
3.20632
3.21693
3.226
3.2341
3.24098
3.24714
3.25231
3.25698
3.26083
3.26435
3.26722
3.26986
3.27197
3.27392
3.27528
3.27591
3.27551
3.04633
3.07724
3.10383
3.12702
3.14734
3.16512
3.18071
3.1944
3.20636
3.21689
3.22602
3.23408
3.241
3.24712
3.25233
3.25695
3.26085
3.26433
3.26723
3.26984
3.27199
3.27393
3.27548
3.27668
3.27689
3.04629
3.07727
3.10379
3.12706
3.1473
3.16516
3.18068
3.19443
3.20635
3.2169
3.22602
3.23408
3.241
3.24712
3.25234
3.25695
3.26087
3.26433
3.26724
3.26984
3.272
3.27393
3.27552
3.27691
3.27776
3.04631
3.07727
3.1038
3.12706
3.1473
3.16515
3.18068
3.19443
3.20634
3.21692
3.226
3.2341
3.24098
3.24713
3.25232
3.25696
3.26085
3.26433
3.26723
3.26984
3.27198
3.27394
3.27551
3.27697
3.27802
3.04633
3.07724
3.10382
3.12703
3.14732
3.16514
3.18069
3.19442
3.20634
3.21691
3.226
3.23409
3.24098
3.24713
3.25232
3.25696
3.26085
3.26433
3.26723
3.26984
3.27199
3.27394
3.27553
3.27697
3.27812
2.96797
2.95155
2.94159
2.93467
2.93024
2.92653
2.92422
2.92033
2.91287
2.88734
2.84052
2.71533
2.41038
1.82599
0.776868
0.304775
0.383796
0.468944
0.510791
0.523267
0.542064
0.571591
0.627037
0.70801
0.881353
2.96816
2.95147
2.94172
2.93454
2.93031
2.92646
2.92434
2.92068
2.91389
2.89164
2.84492
2.73496
2.43749
1.90229
0.867534
0.380696
0.417913
0.484935
0.533232
0.557039
0.58628
0.628275
0.698906
0.804047
0.971404
2.96766
2.95186
2.94125
2.93498
2.92992
2.92691
2.92413
2.92147
2.91499
2.89343
2.853
2.74677
2.47611
1.96555
0.971126
0.472001
0.448387
0.504102
0.55539
0.588322
0.625825
0.675732
0.751971
0.859318
1.00199
2.96768
2.95202
2.94121
2.93516
2.92984
2.92707
2.92403
2.92179
2.91607
2.89904
2.86019
2.77295
2.52465
2.06689
1.14263
0.581375
0.482409
0.524736
0.576403
0.617028
0.66072
0.715003
0.78926
0.890162
1.01409
2.96788
2.95178
2.9414
2.93496
2.92998
2.92695
2.92405
2.92186
2.91534
2.90369
2.86738
2.78572
2.5968
2.13494
1.30969
0.698285
0.523893
0.55381
0.601617
0.646468
0.692358
0.747181
0.817576
0.908947
1.02086
2.96819
2.9514
2.94175
2.93452
2.93037
2.9265
2.92457
2.92167
2.91813
2.90434
2.88034
2.81074
2.64733
2.30643
1.52153
0.842169
0.590676
0.604529
0.63883
0.681718
0.72576
0.779978
0.844693
0.924677
1.02468
2.96827
2.95131
2.94178
2.93448
2.93039
2.92648
2.92465
2.92192
2.91928
2.90831
2.88991
2.8328
2.71023
2.43546
1.82765
1.0049
0.672135
0.666985
0.688248
0.72542
0.762751
0.811653
0.872071
0.941527
1.02788
2.96829
2.95147
2.94155
2.93482
2.92999
2.92692
2.92424
2.92258
2.91958
2.91366
2.89471
2.85344
2.75751
2.50094
2.00814
1.13956
0.740156
0.709741
0.731821
0.763454
0.798646
0.84244
0.89735
0.959
1.03237
2.96819
2.95133
2.94177
2.93447
2.93039
2.9265
2.92466
2.92234
2.9206
2.91578
2.9004
2.86833
2.79066
2.58226
2.18346
1.36009
0.855288
0.748933
0.766549
0.792524
0.828364
0.86898
0.918575
0.975133
1.03821
2.96792
2.95167
2.9415
2.9348
2.93013
2.92681
2.92445
2.92263
2.92081
2.9174
2.90444
2.88277
2.81664
2.67176
2.34866
1.63946
1.01716
0.813545
0.806037
0.822595
0.855221
0.893664
0.938625
0.989437
1.04584
2.96795
2.95156
2.94154
2.93469
2.93018
2.9267
2.92454
2.9225
2.92118
2.91803
2.9116
2.89009
2.85021
2.73682
2.49986
1.93171
1.20605
0.895294
0.854085
0.862639
0.886999
0.922668
0.962118
1.00672
1.05592
2.96772
2.95186
2.94134
2.93497
2.93002
2.92692
2.92446
2.92266
2.92137
2.91927
2.91467
2.89859
2.86956
2.78847
2.59933
2.19202
1.42756
0.989865
0.89606
0.898935
0.918006
0.952955
0.988862
1.02771
1.07089
2.96783
2.95173
2.94141
2.9349
2.93001
2.92693
2.92433
2.92285
2.92113
2.9199
2.9156
2.90753
2.88319
2.82578
2.69415
2.36941
1.71396
1.1442
0.964304
0.942381
0.951488
0.977851
1.01292
1.04767
1.08528
2.96814
2.95144
2.94169
2.93461
2.9303
2.92665
2.9246
2.92258
2.92147
2.91994
2.91811
2.91038
2.89703
2.85536
2.76395
2.5544
2.06446
1.35951
1.04594
0.991457
0.991526
1.00777
1.03746
1.06985
1.10417
2.96809
2.95148
2.94167
2.93461
2.93028
2.92664
2.92459
2.92256
2.92153
2.92
2.91874
2.91351
2.90453
2.87457
2.81393
2.664
2.29935
1.64043
1.1636
1.04237
1.03062
1.03773
1.06005
1.09057
1.12165
2.96802
2.95154
2.9416
2.93469
2.93021
2.92671
2.92455
2.92259
2.92151
2.92015
2.91917
2.91598
2.91021
2.88936
2.85362
2.74518
2.52979
2.00213
1.36382
1.11924
1.07694
1.0752
1.08931
1.11428
1.14173
2.96787
2.9517
2.94147
2.93479
2.93015
2.92675
2.92454
2.92263
2.9215
2.92028
2.91954
2.91776
2.91386
2.90029
2.87631
2.8063
2.65529
2.30616
1.64559
1.23196
1.1248
1.112
1.11711
1.13642
1.16217
2.96789
2.95173
2.94141
2.93489
2.93002
2.92691
2.92436
2.92283
2.92131
2.9205
2.91939
2.91854
2.91544
2.90938
2.89011
2.85229
2.74842
2.53228
2.00126
1.42592
1.20254
1.16126
1.15512
1.16562
1.18717
2.96807
2.95156
2.94157
2.93473
2.93017
2.92676
2.92449
2.92269
2.92144
2.92038
2.91958
2.91874
2.91742
2.91206
2.90308
2.87403
2.81309
2.67158
2.30995
1.69948
1.30408
1.206
1.19227
1.19518
1.20953
2.96801
2.95158
2.94157
2.93472
2.9302
2.92672
2.92455
2.92262
2.92152
2.92028
2.9197
2.91872
2.91793
2.91491
2.90956
2.89051
2.85777
2.75904
2.56357
2.07768
1.505
1.27714
1.23732
1.22973
1.23623
2.96796
2.95162
2.94153
2.93475
2.93017
2.92675
2.92452
2.92266
2.92149
2.92033
2.91968
2.91882
2.9183
2.91669
2.91346
2.90162
2.88188
2.82074
2.69534
2.39574
1.80894
1.40234
1.28518
1.26574
1.26337
2.96788
2.95173
2.94143
2.93489
2.93004
2.9269
2.92439
2.92279
2.92137
2.92045
2.91956
2.91898
2.91837
2.9177
2.91577
2.90873
2.89745
2.86063
2.78742
2.60873
2.20005
1.62398
1.36512
1.31106
1.29856
2.96803
2.95158
2.94156
2.93476
2.93014
2.9268
2.92446
2.92273
2.92141
2.92043
2.91957
2.91899
2.91837
2.91791
2.91688
2.91282
2.90626
2.88361
2.84187
2.73133
2.47576
1.95965
1.50191
1.36177
1.3349
2.96801
2.95158
2.94156
2.93474
2.93017
2.92676
2.92451
2.92266
2.92149
2.92033
2.91968
2.91888
2.9185
2.91784
2.91733
2.91525
2.9115
2.89832
2.87532
2.80591
2.66853
2.31405
1.77594
1.46304
1.37798
2.96793
2.95166
2.94149
2.9348
2.93012
2.9268
2.92448
2.92269
2.92146
2.92036
2.91966
2.9189
2.91849
2.91791
2.9176
2.91664
2.91453
2.90687
2.89452
2.85439
2.77935
2.58083
2.18476
1.654
1.44696
2.96792
2.95168
2.94147
2.93484
2.93007
2.92687
2.9244
2.92278
2.92137
2.92046
2.91956
2.91901
2.91837
2.91806
2.91752
2.91716
2.9157
2.91278
2.90339
2.88528
2.83557
2.72778
2.46606
1.98175
1.57783
2.96801
2.95159
2.94156
2.93475
2.93017
2.92677
2.9245
2.92268
2.92146
2.92037
2.91964
2.91893
2.91845
2.91799
2.91762
2.91727
2.91674
2.91463
2.91068
2.89807
2.87471
2.80579
2.67596
2.30823
1.84636
2.96793
2.95166
2.94149
2.93481
2.93012
2.92681
2.92447
2.92271
2.92144
2.92037
2.91965
2.91891
2.91849
2.91794
2.91768
2.91727
2.91701
2.91624
2.91347
2.90828
2.89301
2.86185
2.78167
2.60849
2.20141
2.96792
2.95168
2.94147
2.93484
2.93008
2.92686
2.92442
2.92277
2.92138
2.92045
2.91956
2.919
2.91839
2.91803
2.91761
2.91735
2.91701
2.91665
2.9152
2.91264
2.90365
2.88832
2.84078
2.75009
2.51091
2.96799
2.95161
2.94154
2.93476
2.93015
2.92679
2.92448
2.92271
2.92144
2.92039
2.91962
2.91896
2.91843
2.918
2.91762
2.91735
2.91704
2.91683
2.91633
2.91443
2.91107
2.90012
2.88011
2.82277
2.70772
2.96798
2.95162
2.94153
2.93477
2.93014
2.92679
2.92448
2.9227
2.92145
2.92037
2.91964
2.91892
2.91847
2.91796
2.91767
2.91729
2.91712
2.9168
2.91658
2.91572
2.91407
2.90818
2.89844
2.86751
2.80887
2.96793
2.95167
2.94148
2.93483
2.93009
2.92684
2.92443
2.92276
2.92139
2.92044
2.91958
2.91899
2.9184
2.91803
2.91761
2.91735
2.91706
2.91687
2.91664
2.91636
2.91529
2.9132
2.90671
2.89419
2.85989
2.96798
2.95162
2.94153
2.93478
2.93014
2.9268
2.92447
2.92271
2.92144
2.9204
2.91961
2.91895
2.91844
2.918
2.91764
2.91734
2.91707
2.91687
2.91667
2.91651
2.91613
2.9147
2.91228
2.90393
2.88976
2.96797
2.95163
2.94152
2.93478
2.93014
2.9268
2.92447
2.92271
2.92144
2.92039
2.91963
2.91894
2.91846
2.91797
2.91766
2.91731
2.91711
2.91684
2.91671
2.91649
2.91633
2.91571
2.91455
2.91023
2.90341
2.96796
2.95164
2.94151
2.9348
2.93011
2.92683
2.92445
2.92274
2.92141
2.92042
2.9196
2.91897
2.91842
2.91801
2.91763
2.91734
2.91708
2.91687
2.91669
2.91652
2.91641
2.9162
2.9156
2.91353
2.91016
2.96798
2.95162
2.94153
2.93478
2.93014
2.9268
2.92447
2.92271
2.92144
2.92039
2.91962
2.91894
2.91845
2.91798
2.91765
2.91732
2.91709
2.91686
2.91669
2.91653
2.9164
2.91627
2.91603
2.91508
2.91351
2.96794
2.95166
2.94149
2.93481
2.93011
2.92683
2.92444
2.92274
2.92141
2.92042
2.9196
2.91897
2.91843
2.918
2.91763
2.91734
2.91708
2.91686
2.91669
2.91652
2.91641
2.91627
2.91618
2.9159
2.91487
2.96797
2.95163
2.94152
2.93479
2.93013
2.92681
2.92446
2.92273
2.92142
2.92041
2.9196
2.91896
2.91843
2.91801
2.91763
2.91734
2.91707
2.91688
2.91668
2.91654
2.9164
2.91629
2.91619
2.91607
2.91573
2.96796
2.95164
2.94151
2.93479
2.93012
2.92681
2.92446
2.92273
2.92142
2.92041
2.91961
2.91896
2.91844
2.918
2.91764
2.91733
2.91708
2.91687
2.91668
2.91654
2.91639
2.9163
2.91618
2.91612
2.91598
2.96795
2.95165
2.9415
2.93481
2.93011
2.92683
2.92445
2.92274
2.92141
2.92042
2.9196
2.91897
2.91843
2.918
2.91764
2.91733
2.91708
2.91686
2.91669
2.91652
2.91641
2.91628
2.9162
2.91611
2.91603
2.98647
2.96952
2.95174
2.93483
2.91988
2.90665
2.895
2.88377
2.86987
2.83775
2.77986
2.63816
2.30509
1.67896
0.594535
0.212146
0.344478
0.44755
0.476764
0.499555
0.535196
0.582464
0.656845
0.761338
0.958024
2.98652
2.96948
2.95178
2.93475
2.91988
2.90663
2.89503
2.88403
2.87055
2.8404
2.78628
2.65195
2.3379
1.74257
0.675648
0.261856
0.376953
0.463492
0.501748
0.535083
0.58313
0.640371
0.725892
0.847027
1.03648
2.9865
2.96942
2.95187
2.93478
2.92007
2.90665
2.89529
2.88442
2.87206
2.84934
2.79005
2.6683
2.40588
1.78542
0.82083
0.339218
0.399399
0.471859
0.522358
0.565958
0.624175
0.687739
0.776277
0.893909
1.04889
2.9877
2.96824
2.95301
2.93357
2.92107
2.90553
2.89612
2.88363
2.87357
2.85209
2.79969
2.69036
2.45428
1.88115
0.952052
0.430989
0.410767
0.48039
0.540946
0.59201
0.658227
0.725237
0.811054
0.91716
1.04645
2.98602
2.97013
2.95119
2.93539
2.91941
2.90714
2.89484
2.88489
2.87342
2.85346
2.81245
2.72238
2.48542
2.04273
1.10256
0.53504
0.42214
0.486974
0.557388
0.612334
0.68214
0.751425
0.834777
0.93112
1.03861
2.98703
2.96897
2.9523
2.93429
2.92043
2.90619
2.89576
2.8842
2.8745
2.85499
2.82338
2.73839
2.55239
2.16834
1.3068
0.66264
0.456183
0.508726
0.578865
0.631893
0.700171
0.774544
0.851681
0.940548
1.03587
2.9872
2.96881
2.95245
2.93406
2.92058
2.90593
2.89594
2.88416
2.87571
2.85955
2.83399
2.76452
2.6234
2.30902
1.59568
0.809325
0.521074
0.559581
0.611954
0.657803
0.717356
0.790488
0.86912
0.948978
1.03463
2.98621
2.96943
2.95197
2.93441
2.92043
2.90615
2.89595
2.8844
2.87669
2.86336
2.84247
2.78434
2.66993
2.41151
1.81543
0.94186
0.58718
0.610741
0.64535
0.688711
0.736068
0.805428
0.879291
0.959393
1.03603
2.98616
2.96996
2.95134
2.93531
2.91942
2.90726
2.89476
2.88583
2.87572
2.86685
2.84836
2.80358
2.7076
2.50336
1.97624
1.13447
0.692436
0.64221
0.674484
0.71518
0.757277
0.814628
0.887595
0.962269
1.03976
2.98586
2.97003
2.95128
2.93523
2.91953
2.90706
2.89495
2.88564
2.87605
2.86745
2.8501
2.82038
2.74236
2.56516
2.19618
1.37703
0.833709
0.677188
0.702751
0.736915
0.777148
0.824774
0.890684
0.963981
1.03673
2.98683
2.96946
2.9517
2.9351
2.91952
2.90723
2.89483
2.88588
2.87614
2.86888
2.85553
2.83329
2.77511
2.64845
2.37912
1.77039
0.993758
0.745591
0.743834
0.764393
0.799852
0.841884
0.892581
0.962178
1.03323
2.9864
2.96962
2.95164
2.93498
2.91976
2.90692
2.89522
2.88548
2.87681
2.86884
2.85932
2.83811
2.80096
2.70277
2.47922
2.02242
1.15832
0.817822
0.777436
0.796443
0.826712
0.863223
0.905493
0.95843
1.02828
2.98661
2.96937
2.95189
2.93473
2.91999
2.90668
2.89535
2.8853
2.87686
2.86904
2.86117
2.84623
2.81762
2.74882
2.57752
2.23732
1.48042
0.95235
0.820486
0.828896
0.852978
0.885775
0.921188
0.963779
1.01851
2.98682
2.96915
2.95207
2.93453
2.92009
2.90663
2.89533
2.88542
2.87687
2.86945
2.86236
2.85285
2.82913
2.78413
2.67248
2.41829
1.8491
1.1359
0.889448
0.867323
0.882094
0.909743
0.94087
0.975989
1.01879
2.98627
2.96962
2.95167
2.93482
2.91993
2.90663
2.89546
2.88522
2.87714
2.86944
2.86298