/*--------------------------------*- C++ -*----------------------------------*\
  =========                 |
  \\      /  F ield         | OpenFOAM: The Open Source CFD Toolbox
   \\    /   O peration     | Website:  https://openfoam.org
    \\  /    A nd           | Version:  6
     \\/     M anipulation  |
\*---------------------------------------------------------------------------*/
FoamFile
{
    version     2.0;
    format      ascii;
    class       volScalarField;
    location    "1.5";
    object      p;
}
// * * * * * * * * * * * * * * * * * * * * * * * * * * * * * * * * * * * * * //

dimensions      [1 -1 -2 0 0 0 0];

internalField   nonuniform List<scalar> 
26250
(
0.957637
0.911025
0.875231
0.84392
0.820537
0.796897
0.783052
0.763249
0.763274
0.770851
0.778955
0.889582
0.997641
1.77761
3.22545
7.58496
7.47255
7.07668
6.58358
6.53046
6.58237
6.75106
7.11813
7.67013
8.42008
0.957635
0.911024
0.875232
0.843917
0.820543
0.79689
0.78306
0.763232
0.763254
0.770715
0.778783
0.888647
0.996006
1.77023
3.20628
7.53716
7.45099
7.08857
6.58714
6.53363
6.58497
6.75376
7.12035
7.66828
8.41714
0.957624
0.911033
0.875229
0.843922
0.820548
0.79688
0.78308
0.763169
0.763181
0.770366
0.778301
0.887108
0.993208
1.76211
3.18364
7.48537
7.40591
7.06191
6.5705
6.52272
6.57635
6.74833
7.11539
7.65243
8.40054
0.957578
0.911104
0.875177
0.844002
0.820469
0.796968
0.782994
0.763101
0.763048
0.769005
0.776353
0.883047
0.985269
1.75235
3.15036
7.4009
7.3344
7.01694
6.54023
6.49992
6.5576
6.7325
7.09757
7.61851
8.37332
0.957524
0.911211
0.875048
0.844205
0.820155
0.797491
0.782121
0.764707
0.760797
0.763357
0.795663
0.826072
1.09509
1.52555
3.24011
7.25199
7.23149
6.93438
6.49472
6.46203
6.52184
6.69785
7.06025
7.56814
8.33219
0.957707
0.910964
0.87519
0.844046
0.820306
0.797261
0.782533
0.763849
0.762233
0.766817
0.773193
0.874456
0.968929
1.71636
3.04094
7.1223
7.11025
6.87044
6.43493
6.40271
6.46286
6.63646
6.99366
7.4919
8.27066
0.957525
0.911248
0.875006
0.844272
0.820042
0.797627
0.781892
0.764896
0.760053
0.762387
0.792717
0.821229
1.07523
1.47868
3.09086
6.87052
6.98059
6.77251
6.35826
6.32593
6.38298
6.54819
6.89122
7.37653
8.17294
0.957778
0.910902
0.875221
0.84399
0.820301
0.797269
0.782416
0.764066
0.761508
0.765914
0.77226
0.866361
0.952462
1.64717
2.83959
6.64746
6.84796
6.65649
6.27014
6.23066
6.28139
6.43019
6.74343
7.19877
8.00208
0.957855
0.910807
0.875247
0.843938
0.820309
0.797277
0.782363
0.764175
0.761136
0.765437
0.771461
0.861165
0.942678
1.59966
2.71441
6.34423
6.68637
6.52066
6.17547
6.11773
6.15783
6.27932
6.53973
6.92333
7.67038
0.957791
0.910889
0.875188
0.844068
0.820146
0.797547
0.781921
0.76468
0.759925
0.763283
0.76886
0.853456
0.930193
1.54326
2.59608
6.01204
6.49509
6.36603
6.07938
5.99174
6.0156
6.09566
6.27019
6.50129
6.97827
1.03458
1.06941
1.09342
1.10976
1.12295
1.13211
1.14054
1.14771
1.15993
1.19616
1.24973
1.46527
1.83034
3.20053
6.81977
16.1944
14.9003
13.4599
13.0428
13.1751
13.3336
13.6089
14.0388
14.4586
14.9558
1.03458
1.06941
1.09343
1.10976
1.12296
1.13211
1.14055
1.1477
1.15988
1.19604
1.24918
1.4648
1.82635
3.19637
6.78949
16.0569
14.8662
13.431
13.026
13.1708
13.3241
13.5925
14.0017
14.397
14.8956
1.03457
1.06941
1.09342
1.10976
1.12296
1.1321
1.14055
1.14766
1.15978
1.19568
1.2485
1.46264
1.82106
3.18416
6.74531
15.9711
14.7671
13.3419
12.961
13.1132
13.2771
13.5296
13.8965
14.2496
14.7523
1.03454
1.06945
1.09339
1.1098
1.12292
1.13214
1.14052
1.14761
1.15959
1.19506
1.24725
1.45913
1.81161
3.16623
6.67009
15.7801
14.6116
13.2037
12.8459
12.9989
13.1782
13.4089
13.7249
14.0305
14.5377
1.0345
1.06951
1.09332
1.10991
1.12278
1.13233
1.14026
1.14778
1.15885
1.19516
1.23807
1.46335
1.7796
3.15393
6.60045
15.5257
14.4055
13.0294
12.6939
12.8408
13.0375
13.2414
13.5067
13.7594
14.2635
1.03455
1.06946
1.09336
1.10987
1.12282
1.13226
1.14036
1.14767
1.15918
1.19342
1.24295
1.44953
1.77801
3.1102
6.41231
15.1965
14.1738
12.8344
12.5096
12.6435
12.8474
13.0162
13.2338
13.4313
13.9169
1.0345
1.06954
1.09329
1.10996
1.12271
1.1324
1.14014
1.14777
1.15836
1.19295
1.23368
1.4492
1.73877
3.07739
6.25272
14.7923
13.8883
12.6031
12.2925
12.4128
12.6053
12.7297
12.892
13.0221
13.4686
1.03459
1.06944
1.09337
1.10985
1.1228
1.13227
1.14027
1.14765
1.15858
1.1909
1.23704
1.43386
1.72737
3.01009
5.98432
14.3155
13.5715
12.3507
12.0465
12.148
12.3071
12.3781
12.472
12.5127
12.8732
1.03462
1.0694
1.09339
1.10981
1.12281
1.13225
1.14025
1.14761
1.15811
1.18934
1.23334
1.42332
1.6991
2.93494
5.71997
13.7469
13.1871
12.083
11.7762
11.8503
11.9553
11.9592
11.9537
11.8578
12.0319
1.03459
1.06942
1.09339
1.10981
1.12284
1.13224
1.14024
1.14745
1.15737
1.18719
1.22773
1.41171
1.6656
2.85454
5.46063
13.082
12.7106
11.8174
11.4869
11.5244
11.5504
11.4902
11.343
10.9936
10.7453
1.00895
1.03175
1.05932
1.08747
1.11324
1.13831
1.15841
1.18219
1.20078
1.24803
1.31856
1.57877
2.02213
3.63122
8.02421
18.9252
17.0846
15.4276
15.0017
15.266
15.4573
15.6681
16.012
16.3549
16.6633
1.00894
1.03176
1.05931
1.08747
1.11324
1.13831
1.15843
1.18215
1.20084
1.24757
1.31939
1.57615
2.02387
3.62611
8.01095
18.8673
17.0218
15.3694
14.9738
15.2549
15.448
15.632
15.946
16.2577
16.5669
1.00894
1.03176
1.05931
1.08747
1.11324
1.13831
1.15841
1.18216
1.20065
1.2476
1.31758
1.57591
2.01537
3.6112
7.95581
18.7442
16.8954
15.2454
14.8965
15.2098
15.3856
15.5205
15.7742
16.0286
16.3407
1.00892
1.03177
1.0593
1.08749
1.11323
1.13831
1.15842
1.1821
1.2006
1.24671
1.31763
1.57039
2.0109
3.58638
7.87282
18.5218
16.7134
15.0736
14.7644
15.1107
15.2534
15.3343
15.5181
15.7089
16.0128
1.00891
1.03179
1.05929
1.08751
1.11322
1.13832
1.15842
1.18203
1.20047
1.24556
1.31699
1.56313
2.00167
3.54867
7.74829
18.2277
16.4845
14.8618
14.5864
14.9437
15.0726
15.1023
15.2106
15.3235
15.6064
1.00892
1.03178
1.05929
1.0875
1.11322
1.13832
1.1584
1.182
1.20012
1.24466
1.31416
1.55665
1.98241
3.49389
7.56634
17.8528
16.2075
14.6156
14.3637
14.7091
14.8376
14.8134
14.8419
14.8687
15.1124
1.00893
1.03177
1.0593
1.08749
1.11322
1.13831
1.15837
1.18193
1.19981
1.24294
1.312
1.54517
1.96135
3.42032
7.33751
17.4002
15.8862
14.3337
14.0981
14.408
14.5372
14.458
14.401
14.3205
14.4957
1.00895
1.03176
1.05932
1.08747
1.11322
1.1383
1.15834
1.18187
1.19936
1.2412
1.30855
1.5333
1.93376
3.33258
7.06902
16.8547
15.5167
14.0198
13.7944
14.0567
14.1608
14.0279
13.8809
13.6636
13.7225
1.00896
1.03174
1.05933
1.08745
1.11323
1.13829
1.15831
1.18179
1.19886
1.23929
1.30456
1.52136
1.89849
3.25886
6.75811
16.2071
15.0782
13.6848
13.4594
13.6675
13.7163
13.5245
13.2668
12.8602
12.69
1.00896
1.03171
1.05938
1.08736
1.11337
1.1381
1.15849
1.18151
1.19787
1.23791
1.29695
1.51424
1.84576
3.2053
6.4321
15.4454
14.5542
13.3355
13.1023
13.2451
13.219
12.958
12.5481
11.877
11.2606
1.03453
1.06945
1.09338
1.1098
1.12291
1.13214
1.14053
1.14766
1.1598
1.19578
1.24934
1.4632
1.8295
3.19345
6.81353
16.0711
14.8871
13.4358
12.9833
13.0828
13.3171
13.6161
13.9986
14.406
14.8883
1.03449
1.0695
1.09333
1.10988
1.12281
1.13229
1.14032
1.1478
1.15919
1.19668
1.24108
1.47305
1.80823
3.20732
6.85169
16.104
14.8136
13.3801
12.9671
13.0961
13.3156
13.6014
13.9671
14.3514
14.8305
1.0345
1.06948
1.09335
1.10984
1.12288
1.13219
1.14049
1.14764
1.15968
1.19526
1.24871
1.45963
1.82447
3.17606
6.76606
15.9374
14.7256
13.2969
12.92
13.0729
13.2698
13.5321
13.8649
14.2061
14.696
1.03446
1.06955
1.09328
1.10995
1.12276
1.13236
1.14027
1.14782
1.15909
1.19593
1.23986
1.46834
1.79481
3.18023
6.73197
15.7466
14.5719
13.1691
12.8232
12.9843
13.171
13.4021
13.6951
13.9893
14.4897
1.03444
1.06957
1.09326
1.10999
1.12272
1.13241
1.14022
1.14782
1.159
1.19526
1.23879
1.46405
1.78268
3.15487
6.62299
15.4808
14.3755
13.008
12.6806
12.831
13.0288
13.2282
13.4798
13.723
14.2207
1.03447
1.06955
1.09329
1.10995
1.12274
1.13238
1.14021
1.14779
1.15873
1.19426
1.23668
1.45764
1.76398
3.12055
6.45927
15.1678
14.1469
12.8203
12.5013
12.637
12.8395
13.0019
13.2104
13.3993
13.8792
1.03455
1.06945
1.09339
1.1098
1.1229
1.13215
1.14044
1.14757
1.15889
1.19247
1.23979
1.44462
1.75096
3.07447
6.19985
14.78
13.893
12.6057
12.2883
12.4081
12.5972
12.7152
12.8719
12.9938
13.4358
1.03458
1.06943
1.0934
1.10977
1.12291
1.13212
1.14043
1.14752
1.15854
1.19105
1.23716
1.43467
1.7268
3.0097
5.97334
14.2994
13.5733
12.3533
12.0437
12.1433
12.2988
12.3641
12.4546
12.4887
12.8459
1.03462
1.06939
1.0934
1.10978
1.12285
1.13221
1.14028
1.14758
1.15811
1.18939
1.2334
1.42357
1.69921
2.93498
5.71642
13.7339
13.1829
12.0856
11.7737
11.8459
11.9479
11.9464
11.9383
11.8384
12.0112
1.0346
1.0694
1.0934
1.10979
1.12285
1.13222
1.14026
1.14746
1.15739
1.18724
1.22785
1.41185
1.66607
2.85418
5.45901
13.0711
12.7032
11.8141
11.4822
11.5186
11.543
11.4803
11.3297
10.9775
10.7297
0.957571
0.911093
0.875171
0.843988
0.82048
0.796946
0.78302
0.763074
0.763035
0.769321
0.77691
0.88581
0.990435
1.77388
3.21554
7.54062
7.44523
7.06524
6.55275
6.48833
6.54886
6.72992
7.10344
7.62387
8.37614
0.957493
0.911215
0.875062
0.844163
0.820227
0.797389
0.782279
0.764578
0.761365
0.764093
0.79794
0.830108
1.11008
1.57471
3.34667
7.51063
7.42689
7.02093
6.54663
6.50057
6.55941
6.73855
7.10878
7.62389
8.3501
0.957537
0.911131
0.875143
0.844044
0.820419
0.797058
0.782909
0.763233
0.763224
0.768037
0.775332
0.881721
0.981237
1.76617
3.19464
7.48115
7.38398
7.01295
6.5361
6.49905
6.55824
6.73577
7.10065
7.60475
8.33304
0.957454
0.911272
0.875002
0.844257
0.820126
0.797533
0.782138
0.764737
0.761387
0.764109
0.798587
0.830611
1.10743
1.54826
3.29902
7.34917
7.30353
6.95631
6.51173
6.48525
6.54443
6.7194
7.07939
7.57266
8.31586
0.957438
0.911306
0.874969
0.84432
0.820051
0.797626
0.782042
0.764775
0.761608
0.764396
0.798829
0.830545
1.10203
1.51951
3.25755
7.21868
7.1963
6.89285
6.47032
6.44829
6.50854
6.68241
7.0395
7.52497
8.28074
0.957475
0.911261
0.87501
0.844262
0.820105
0.797557
0.782058
0.764757
0.760918
0.763506
0.796287
0.826469
1.09039
1.50182
3.18548
7.06893
7.07865
6.83434
6.41566
6.39023
6.45024
6.62159
6.9742
7.4528
8.22235
0.957621
0.911052
0.875201
0.843966
0.82048
0.796951
0.78297
0.763086
0.762823
0.767339
0.773828
0.872583
0.963681
1.68328
2.93733
6.89111
6.97834
6.76106
6.3438
6.3132
6.37
6.533
6.8728
7.34129
8.12846
0.957674
0.911012
0.875216
0.843913
0.820511
0.796878
0.783036
0.763053
0.762757
0.767294
0.773872
0.868032
0.955853
1.63801
2.82931
6.63241
6.8459
6.65215
6.26111
6.21888
6.26906
6.41552
6.72638
7.16792
7.96316
0.957819
0.910838
0.875257
0.843907
0.820375
0.797167
0.782513
0.763957
0.761457
0.765784
0.771436
0.861514
0.942726
1.5992
2.71136
6.33485
6.68516
6.51935
6.17211
6.10859
6.14781
6.2668
6.52376
6.89834
7.63708
0.957794
0.910869
0.875196
0.844044
0.820173
0.797515
0.781967
0.76467
0.759844
0.763482
0.769126
0.853452
0.929915
1.54249
2.59335
6.00299
6.49071
6.36202
6.07532
5.98298
6.00616
6.08423
6.25607
6.48316
6.95325
0.957441
0.911356
0.874905
0.844443
0.81981
0.797972
0.781347
0.765269
0.757789
0.759695
0.781565
0.801421
1.01518
1.29553
2.6281
5.66555
6.25533
6.17294
5.96482
5.85132
5.8553
5.87895
5.89791
5.81989
5.26689
0.957605
0.911119
0.87499
0.844386
0.819768
0.79812
0.781023
0.765687
0.75633
0.759427
0.76389
0.836342
0.903443
1.42291
2.33036
5.24017
6.03111
5.98647
5.85184
5.71803
5.68227
5.64885
5.56731
5.34264
4.73637
0.957374
0.911464
0.874725
0.844689
0.819465
0.79847
0.780562
0.766107
0.754825
0.755858
0.774045
0.789965
0.965612
1.18049
2.28218
4.72354
5.82877
5.81894
5.74199
5.59847
5.52571
5.44637
5.31824
5.06177
4.54137
0.957501
0.911295
0.874767
0.844664
0.819386
0.79863
0.780268
0.766466
0.753909
0.756001
0.75971
0.81582
0.870773
1.25419
1.9302
4.12808
5.6603
5.70322
5.64279
5.50497
5.38725
5.2672
5.10444
4.84642
4.40954
0.957457
0.911369
0.874647
0.844858
0.819102
0.799056
0.779611
0.767228
0.751854
0.753322
0.756178
0.801758
0.845432
1.14758
1.66012
3.35171
5.53624
5.65778
5.59042
5.43109
5.26731
5.11509
4.93299
4.68084
4.30435
0.957232
0.911652
0.874525
0.845031
0.818982
0.799224
0.779386
0.767399
0.750931
0.751026
0.757986
0.765529
0.857996
0.947154
1.55396
2.56525
5.27421
5.60964
5.54481
5.38101
5.16543
4.98757
4.79563
4.55272
4.22136
0.95719
0.911726
0.874437
0.845142
0.818892
0.799303
0.779326
0.767403
0.750633
0.750349
0.753587
0.759617
0.830959
0.898056
1.38705
2.18862
4.68991
5.47491
5.44083
5.31657
5.07162
4.87532
4.67994
4.44735
4.15409
0.957261
0.911617
0.87453
0.844998
0.819076
0.799011
0.779752
0.766673
0.75154
0.747646
0.750096
0.755874
0.809712
0.872686
1.24357
1.90443
3.99143
5.24369
5.26482
5.19677
5.02342
4.79228
4.58611
4.36288
4.09728
0.957404
0.911413
0.874694
0.844746
0.819366
0.798569
0.780365
0.765702
0.752619
0.74443
0.745908
0.750322
0.789736
0.842093
1.10853
1.60447
3.14625
4.99566
5.17263
5.1216
4.98042
4.73796
4.52047
4.30161
4.05446
0.957568
0.911175
0.874884
0.844479
0.819665
0.79813
0.780973
0.764693
0.753797
0.740521
0.740651
0.747068
0.75404
0.834943
0.911474
1.43688
2.25916
4.53267
5.07778
5.05099
4.9497
4.72864
4.48631
4.25958
4.0255
0.957364
0.911458
0.874748
0.84462
0.819575
0.798226
0.780826
0.764909
0.753224
0.740939
0.736578
0.7381
0.757071
0.774597
0.921266
1.12747
1.96639
3.75952
4.89145
4.94574
4.88735
4.72659
4.46546
4.23066
4.00225
0.957458
0.91131
0.874832
0.84457
0.819562
0.798328
0.78062
0.76524
0.752662
0.741514
0.73435
0.735969
0.739035
0.778441
0.82338
1.06894
1.50718
2.84102
4.60008
4.86066
4.82367
4.70699
4.46786
4.22278
3.9941
0.957409
0.911386
0.874746
0.844701
0.819398
0.798574
0.780265
0.765783
0.751781
0.742514
0.731373
0.731598
0.737962
0.745765
0.814754
0.888102
1.33868
2.03349
4.00898
4.71984
4.71402
4.65325
4.48645
4.2277
3.9963
0.957337
0.911496
0.874666
0.844785
0.819347
0.798607
0.780267
0.76575
0.751817
0.742342
0.730999
0.729374
0.73164
0.736027
0.783063
0.829398
1.13355
1.62246
3.14153
4.45816
4.62801
4.59127
4.47933
4.24748
4.00813
0.95736
0.91144
0.874739
0.84468
0.819487
0.798411
0.780546
0.765344
0.752385
0.741431
0.731972
0.725809
0.726948
0.730086
0.758259
0.793344
0.973592
1.28128
2.21717
4.00801
4.52392
4.516
4.45458
4.29691
4.03851
0.957361
0.911439
0.874743
0.844668
0.81951
0.798356
0.780646
0.765154
0.75272
0.740799
0.732754
0.723096
0.722934
0.72468
0.741333
0.761467
0.878725
1.05799
1.73862
3.17396
4.30287
4.44804
4.41401
4.30676
4.08772
0.95739
0.911414
0.874739
0.844669
0.819479
0.798408
0.780545
0.765321
0.752457
0.741182
0.732053
0.723666
0.718969
0.719889
0.729028
0.739833
0.814414
0.905826
1.34728
2.10561
3.88969
4.34572
4.33963
4.29059
4.15781
0.957431
0.911365
0.87476
0.84465
0.81947
0.798442
0.780463
0.765468
0.752204
0.741582
0.731367
0.724482
0.716372
0.716543
0.721209
0.726823
0.773785
0.824995
1.12005
1.59447
3.0307
4.10816
4.27096
4.24593
4.15825
0.957398
0.911415
0.874733
0.84468
0.819457
0.798447
0.780466
0.765449
0.752232
0.741525
0.731423
0.724294
0.716136
0.714496
0.716032
0.720378
0.744597
0.783413
0.940019
1.23011
2.0492
3.62336
4.14117
4.17145
4.13689
0.957368
0.911446
0.874734
0.844676
0.819481
0.798406
0.780535
0.765337
0.752404
0.741252
0.731834
0.723564
0.716977
0.711227
0.711652
0.713408
0.728155
0.747707
0.844948
1.00431
1.5604
2.74353
3.84509
4.09316
4.08273
0.95739
0.911419
0.87474
0.844669
0.819481
0.798404
0.780541
0.765327
0.752426
0.741215
0.731891
0.723457
0.716955
0.71051
0.708002
0.70884
0.716437
0.725018
0.78694
0.853824
1.21638
1.79007
3.25366
3.92863
4.018
0.957411
0.911387
0.874762
0.844648
0.819492
0.798405
0.780524
0.765366
0.752354
0.741334
0.731696
0.723756
0.716404
0.711122
0.705452
0.705608
0.709393
0.713671
0.748771
0.787559
0.995946
1.32935
2.30345
3.56813
3.91412
0.957416
0.911382
0.874766
0.844649
0.819487
0.798413
0.780512
0.765377
0.752341
0.741343
0.731686
0.723754
0.716397
0.711014
0.705163
0.703685
0.704755
0.707574
0.725145
0.751231
0.861411
1.05197
1.64224
2.82188
3.67712
0.957405
0.911404
0.874746
0.844666
0.819474
0.798417
0.780518
0.765356
0.752384
0.741267
0.731816
0.723536
0.716751
0.710363
0.705966
0.700778
0.701098
0.702073
0.712003
0.723288
0.789425
0.875796
1.2254
1.84051
3.20989
0.957427
0.911376
0.87476
0.844647
0.819487
0.798404
0.780528
0.765351
0.752384
0.741275
0.731797
0.723574
0.716673
0.710495
0.70562
0.700967
0.698627
0.699144
0.703721
0.709703
0.745667
0.78967
1.00281
1.34595
2.33386
0.957423
0.911379
0.874766
0.844642
0.819494
0.798399
0.780527
0.765357
0.752366
0.741307
0.73174
0.723667
0.716522
0.710731
0.705208
0.70144
0.696976
0.697046
0.699044
0.702322
0.720664
0.74936
0.857681
1.04905
1.60231
0.957414
0.911392
0.874758
0.844652
0.819486
0.798406
0.780522
0.765359
0.752365
0.741304
0.731749
0.723645
0.716565
0.710644
0.705352
0.701115
0.697183
0.69497
0.695445
0.696912
0.706287
0.719539
0.778252
0.870385
1.17716
0.957424
0.911378
0.874765
0.844644
0.819492
0.7984
0.780529
0.765351
0.752377
0.741287
0.731775
0.723607
0.716624
0.710552
0.705493
0.700858
0.697453
0.693724
0.693158
0.693792
0.698154
0.704469
0.736348
0.78067
0.963321
0.957425
0.911376
0.874767
0.844641
0.819495
0.798397
0.780532
0.765349
0.752379
0.741287
0.731771
0.723618
0.716598
0.710603
0.705396
0.701024
0.697106
0.694112
0.691274
0.691423
0.693444
0.696463
0.712766
0.737942
0.831842
0.957422
0.911381
0.874764
0.844645
0.819492
0.7984
0.780529
0.765351
0.752376
0.741289
0.731768
0.72362
0.716594
0.710608
0.705388
0.701032
0.697084
0.694061
0.690994
0.689887
0.690373
0.691821
0.699636
0.711148
0.761536
0.957427
0.911375
0.874767
0.84464
0.819495
0.798397
0.780531
0.765349
0.752379
0.741286
0.731774
0.723611
0.716612
0.710577
0.70544
0.700941
0.697234
0.693778
0.691329
0.688525
0.688376
0.688827
0.692714
0.697033
0.724481
0.95743
0.911371
0.874771
0.844637
0.819497
0.798395
0.780533
0.765348
0.75238
0.741285
0.731774
0.723613
0.716606
0.710588
0.705418
0.700981
0.697159
0.693904
0.691058
0.688791
0.686831
0.686967
0.6885
0.690854
0.703141
0.957427
0.911375
0.874768
0.84464
0.819495
0.798396
0.780531
0.765349
0.752378
0.741287
0.731771
0.723615
0.716603
0.710593
0.705411
0.700991
0.697143
0.693923
0.691019
0.688778
0.686534
0.685691
0.686042
0.687056
0.692882
0.957431
0.91137
0.87477
0.844637
0.819497
0.798395
0.780532
0.765348
0.752379
0.741286
0.731773
0.723613
0.716606
0.710587
0.705422
0.700972
0.697176
0.693864
0.691118
0.688582
0.686764
0.68469
0.684606
0.684991
0.687541
0.95743
0.911372
0.87477
0.844638
0.819496
0.798396
0.780531
0.765349
0.752379
0.741286
0.731772
0.723614
0.716605
0.710589
0.705418
0.700979
0.697162
0.693891
0.691066
0.688674
0.686558
0.68491
0.68337
0.683434
0.684498
0.957431
0.91137
0.874771
0.844637
0.819497
0.798395
0.780531
0.765349
0.752378
0.741286
0.731772
0.723614
0.716604
0.71059
0.705416
0.700981
0.697159
0.693895
0.691061
0.688676
0.686553
0.684863
0.683263
0.682472
0.682678
0.957436
0.911364
0.874775
0.844633
0.8195
0.798393
0.780533
0.765347
0.752379
0.741285
0.731773
0.723613
0.716605
0.710589
0.705418
0.700979
0.697164
0.693886
0.691076
0.68865
0.686596
0.684772
0.68335
0.68193
0.681554
0.957432
0.911369
0.874772
0.844636
0.819498
0.798394
0.780532
0.765347
0.752379
0.741285
0.731773
0.723613
0.716605
0.710589
0.705418
0.70098
0.697161
0.693892
0.691065
0.688669
0.68656
0.684834
0.683219
0.682075
0.680791
0.957434
0.911368
0.874772
0.844635
0.819497
0.798394
0.780532
0.765348
0.752379
0.741285
0.731773
0.723613
0.716605
0.710588
0.705419
0.700978
0.697164
0.693888
0.691073
0.688658
0.686578
0.684803
0.683265
0.68197
0.680862
0.957437
0.911364
0.874774
0.844633
0.819499
0.798393
0.780533
0.765347
0.752379
0.741285
0.731773
0.723613
0.716606
0.710587
0.70542
0.700976
0.697168
0.693882
0.691082
0.688643
0.686602
0.684768
0.683318
0.681884
0.68096
1.03445
1.06953
1.09337
1.1098
1.123
1.13191
1.14086
1.14595
1.15841
1.17733
1.24614
1.33279
1.77605
2.52252
5.42547
12.2891
12.1519
11.537
11.1896
11.1765
11.1288
10.9673
10.6194
9.84959
8.00363
1.03447
1.06949
1.0934
1.10975
1.12305
1.13183
1.14093
1.14559
1.1576
1.17331
1.24103
1.31165
1.73815
2.39098
5.08724
11.471
11.6641
11.2913
10.9178
10.8347
10.7074
10.4294
9.91621
8.9463
7.04412
1.03439
1.0696
1.09325
1.10994
1.12283
1.13208
1.1406
1.14559
1.15635
1.17215
1.23214
1.30096
1.68832
2.2759
4.72906
10.4745
11.3167
11.0605
10.6669
10.5116
10.3122
9.94402
9.35756
8.40524
6.94985
1.03438
1.06963
1.09319
1.11002
1.12269
1.13227
1.14031
1.14579
1.15548
1.16773
1.22283
1.27828
1.62285
2.12505
4.23915
9.33086
11.0808
10.8831
10.4565
10.2186
9.9643
9.55409
8.95447
8.09919
6.95535
1.03434
1.06967
1.09312
1.11014
1.1225
1.13263
1.13969
1.14703
1.15315
1.17192
1.19568
1.31048
1.44574
2.17486
3.54635
8.00631
10.9459
10.7628
10.299
9.96333
9.66485
9.24088
8.66586
7.90706
6.96064
1.03421
1.06981
1.09306
1.11022
1.12249
1.1326
1.13982
1.14634
1.15317
1.16452
1.20085
1.24799
1.47367
1.81542
3.18544
6.39787
10.8162
10.6606
10.1791
9.7411
9.40597
8.98522
8.44389
7.76911
6.95906
1.03417
1.06986
1.09301
1.11029
1.12242
1.13268
1.13966
1.14643
1.15207
1.16165
1.19022
1.22967
1.40257
1.65127
2.70804
4.96613
10.4167
10.4184
10.0767
9.54472
9.16497
8.76512
8.25893
7.65539
6.95077
1.03423
1.06979
1.09306
1.11023
1.12242
1.13271
1.13949
1.1467
1.15065
1.16117
1.17479
1.23392
1.29757
1.6613
2.23548
4.39226
9.3345
10.0391
9.83525
9.36403
8.95522
8.56914
8.09831
7.55094
6.93064
1.03433
1.06969
1.09313
1.11012
1.12251
1.13257
1.1396
1.14648
1.15039
1.159
1.17005
1.21772
1.26611
1.55897
1.97327
3.71516
7.70156
9.67126
9.56589
9.22681
8.79029
8.4004
7.95945
7.46106
6.90426
1.03443
1.06957
1.09323
1.10998
1.12266
1.13235
1.13987
1.14603
1.15078
1.1571
1.16765
1.2009
1.24817
1.45023
1.77966
3.02292
5.90905
9.37796
9.37926
9.16278
8.6998
8.28027
7.85037
7.38631
6.88275
1.03436
1.06965
1.09321
1.11
1.1227
1.13227
1.14003
1.14568
1.15131
1.15534
1.16589
1.18249
1.23945
1.32968
1.6715
2.34425
4.39284
8.66483
9.21902
9.05347
8.64151
8.18907
7.76252
7.32539
6.85881
1.0344
1.06959
1.09325
1.10996
1.12273
1.13225
1.14006
1.14562
1.15127
1.15461
1.16266
1.17517
1.21821
1.27678
1.54235
1.98758
3.58403
7.23055
8.91898
8.85554
8.59017
8.11792
7.69089
7.27405
6.84423
1.03436
1.06965
1.09318
1.11006
1.12262
1.13242
1.13981
1.146
1.15062
1.15546
1.15973
1.17311
1.18951
1.27014
1.36465
1.85238
2.74017
5.47284
8.48486
8.66003
8.49648
8.10332
7.65302
7.24085
6.83435
1.03429
1.06973
1.09312
1.11013
1.12256
1.13248
1.13977
1.14601
1.15062
1.15504
1.15914
1.16599
1.18712
1.21541
1.34666
1.51478
2.31027
3.78139
7.55832
8.46421
8.36973
8.08271
7.65005
7.23631
6.83657
1.03431
1.06969
1.09316
1.11008
1.12263
1.13239
1.13989
1.14586
1.15078
1.15479
1.15886
1.16386
1.17854
1.19955
1.28761
1.40108
1.95366
2.94683
5.9334
8.1184
8.17904
8.03349
7.67017
7.24464
6.84778
1.03433
1.06967
1.09318
1.11005
1.12266
1.13234
1.13996
1.14576
1.1509
1.15457
1.15872
1.16235
1.17194
1.18786
1.24032
1.32996
1.64119
2.26034
4.01605
7.40113
8.03388
7.95114
7.69196
7.27188
6.87588
1.03436
1.06964
1.09318
1.11004
1.12265
1.13236
1.13992
1.14581
1.15082
1.15461
1.15848
1.16114
1.16788
1.17845
1.21427
1.26759
1.48066
1.85331
3.11308
5.87776
7.71732
7.79401
7.66775
7.34328
6.93296
1.03437
1.06963
1.09319
1.11003
1.12264
1.13238
1.13986
1.1459
1.15067
1.15483
1.15806
1.16142
1.1649
1.17444
1.18977
1.24274
1.32926
1.64159
2.2575
3.97194
7.0216
7.64193
7.59015
7.3847
6.98535
1.03434
1.06967
1.09317
1.11006
1.12263
1.13239
1.13987
1.14588
1.1507
1.15476
1.15814
1.16101
1.16413
1.16899
1.18352
1.20369
1.29249
1.39991
1.94485
2.87263
5.57099
7.29862
7.43811
7.34497
7.08528
1.03433
1.06968
1.09317
1.11006
1.12264
1.13237
1.1399
1.14583
1.15078
1.15466
1.15823
1.16088
1.16388
1.16714
1.17586
1.19046
1.2383
1.32109
1.60061
2.1534
3.65555
6.54538
7.25791
7.2372
7.09443
1.03435
1.06966
1.09318
1.11005
1.12264
1.13236
1.1399
1.14584
1.15077
1.15467
1.15821
1.16084
1.1637
1.1659
1.17151
1.18054
1.21072
1.25649
1.43557
1.73698
2.77289
4.96825
6.81928
7.11414
7.05244
1.03436
1.06964
1.0932
1.11003
1.12265
1.13237
1.13989
1.14586
1.15073
1.15473
1.15812
1.16092
1.16348
1.16541
1.16887
1.17465
1.19246
1.21912
1.32468
1.47712
2.09254
3.21103
5.8885
6.86708
6.93398
1.03435
1.06965
1.09319
1.11004
1.12264
1.13238
1.13988
1.14587
1.15071
1.15474
1.15811
1.16093
1.16343
1.1654
1.16779
1.17154
1.18218
1.19878
1.26003
1.3499
1.71592
2.37733
4.23925
6.28525
6.77842
1.03435
1.06966
1.09318
1.11005
1.12264
1.13238
1.13988
1.14587
1.15073
1.15472
1.15814
1.1609
1.16345
1.16537
1.16753
1.16985
1.17598
1.18624
1.2196
1.27643
1.4686
1.83724
2.88615
5.06793
6.43241
1.03436
1.06965
1.09319
1.11004
1.12264
1.13237
1.13989
1.14586
1.15073
1.15473
1.15812
1.16092
1.16342
1.16537
1.16738
1.1689
1.17258
1.17873
1.19761
1.22854
1.33484
1.52073
2.11454
3.28959
5.69076
1.03436
1.06965
1.09319
1.11004
1.12264
1.13237
1.13988
1.14587
1.15072
1.15475
1.15809
1.16096
1.16335
1.16546
1.16719
1.16892
1.17072
1.17542
1.18314
1.20858
1.24933
1.39542
1.6619
2.45477
4.15274
1.03436
1.06965
1.09319
1.11005
1.12264
1.13238
1.13988
1.14587
1.15071
1.15475
1.15809
1.16097
1.16335
1.16545
1.16719
1.16876
1.17025
1.17253
1.1786
1.1888
1.22167
1.27891
1.46337
1.82153
2.78704
1.03437
1.06964
1.09319
1.11004
1.12264
1.13237
1.13988
1.14587
1.15072
1.15474
1.1581
1.16095
1.16336
1.16544
1.16719
1.16874
1.17003
1.17161
1.17431
1.18206
1.19439
1.23722
1.30615
1.54357
1.98841
1.03437
1.06964
1.09319
1.11004
1.12265
1.13237
1.13989
1.14586
1.15072
1.15474
1.1581
1.16095
1.16336
1.16545
1.16717
1.16876
1.16997
1.17135
1.17293
1.17719
1.18419
1.20705
1.24502
1.37252
1.60954
1.03436
1.06965
1.09319
1.11004
1.12264
1.13237
1.13988
1.14587
1.15072
1.15474
1.1581
1.16095
1.16336
1.16544
1.16719
1.16871
1.17003
1.17113
1.17235
1.17429
1.17955
1.1883
1.2169
1.26547
1.42501
1.03436
1.06965
1.09319
1.11004
1.12264
1.13237
1.13988
1.14587
1.15072
1.15474
1.1581
1.16095
1.16337
1.16542
1.16721
1.16869
1.17004
1.1711
1.17222
1.17332
1.17613
1.1808
1.19565
1.21921
1.30322
1.03437
1.06964
1.09319
1.11004
1.12265
1.13237
1.13989
1.14587
1.15072
1.15474
1.1581
1.16095
1.16337
1.16543
1.1672
1.16871
1.17001
1.17114
1.17209
1.17305
1.1743
1.17758
1.18299
1.20066
1.22894
1.03436
1.06965
1.09319
1.11004
1.12264
1.13237
1.13988
1.14587
1.15072
1.15474
1.1581
1.16095
1.16336
1.16543
1.1672
1.16871
1.17001
1.17112
1.17211
1.1729
1.17384
1.17529
1.1792
1.18574
1.20683
1.03436
1.06965
1.09319
1.11004
1.12264
1.13237
1.13989
1.14587
1.15072
1.15474
1.1581
1.16095
1.16337
1.16543
1.1672
1.1687
1.17002
1.17111
1.17212
1.17287
1.17373
1.17452
1.17656
1.17993
1.19079
1.03437
1.06965
1.09319
1.11004
1.12265
1.13237
1.13989
1.14587
1.15072
1.15474
1.1581
1.16095
1.16337
1.16543
1.1672
1.16871
1.17001
1.17112
1.17209
1.1729
1.17363
1.17422
1.17529
1.17715
1.18247
1.03436
1.06965
1.09319
1.11004
1.12265
1.13237
1.13989
1.14587
1.15072
1.15474
1.1581
1.16095
1.16336
1.16543
1.1672
1.16871
1.17001
1.17113
1.17209
1.1729
1.17363
1.17421
1.17489
1.17587
1.17846
1.03437
1.06964
1.0932
1.11004
1.12265
1.13237
1.13989
1.14586
1.15072
1.15474
1.1581
1.16095
1.16337
1.16543
1.1672
1.16871
1.17001
1.17112
1.17209
1.1729
1.17362
1.17422
1.17476
1.17536
1.17641
1.03437
1.06964
1.09319
1.11004
1.12265
1.13237
1.13989
1.14586
1.15072
1.15474
1.1581
1.16095
1.16337
1.16543
1.1672
1.16871
1.17001
1.17113
1.17208
1.17291
1.17361
1.17423
1.17474
1.17521
1.17585
1.03437
1.06964
1.0932
1.11004
1.12265
1.13237
1.13989
1.14586
1.15072
1.15474
1.1581
1.16095
1.16337
1.16543
1.1672
1.16871
1.17001
1.17113
1.17208
1.17291
1.17361
1.17423
1.17473
1.17521
1.17557
1.03437
1.06964
1.0932
1.11004
1.12265
1.13237
1.13989
1.14586
1.15072
1.15474
1.1581
1.16095
1.16337
1.16543
1.1672
1.16871
1.17001
1.17112
1.17209
1.1729
1.17362
1.17421
1.17475
1.17519
1.17558
1.00891
1.03171
1.05947
1.08714
1.11383
1.13727
1.15989
1.17887
1.2014
1.22953
1.31606
1.43312
1.95015
2.90615
6.31048
14.5286
13.946
12.9859
12.7396
12.8029
12.7039
12.3378
11.7309
10.6389
8.32608
1.00888
1.03172
1.05947
1.08713
1.11388
1.13718
1.16
1.17856
1.20109
1.2273
1.30907
1.41605
1.90523
2.76126
5.95032
13.5908
13.3703
12.7171
12.4046
12.3707
12.1837
11.7008
10.9118
9.60444
7.24804
1.0088
1.03187
1.05928
1.08742
1.11343
1.13789
1.15878
1.18041
1.19643
1.22893
1.27696
1.45817
1.70021
2.83951
5.2646
12.5403
12.9381
12.5285
12.1057
11.9706
11.6826
11.1154
10.2626
9.00654
7.22648
1.00869
1.03203
1.05913
1.08758
1.11327
1.13803
1.15864
1.18035
1.19602
1.22645
1.26766
1.43173
1.63726
2.66453
4.7124
11.2856
12.7062
12.3464
11.8302
11.5881
11.2429
10.6614
9.82245
8.69964
7.27419
1.0088
1.03182
1.05935
1.08729
1.11367
1.1374
1.15964
1.17847
1.19929
1.21812
1.27865
1.34685
1.69337
2.23918
4.34433
9.76686
12.6031
12.22
11.5846
11.2411
10.8802
10.3065
9.52817
8.544
7.37792
1.00873
1.03189
1.05932
1.08728
1.11378
1.1372
1.15995
1.17795
1.19928
1.21734
1.26566
1.33472
1.60828
2.06704
3.75332
7.99341
12.5771
12.1367
11.3701
10.9343
10.5661
10.0204
9.30696
8.44337
7.45074
1.00872
1.03192
1.0593
1.0873
1.11375
1.13723
1.15987
1.17791
1.19852
1.21438
1.25235
1.31404
1.51803
1.88602
3.12677
6.12072
12.3785
11.9565
11.1894
10.6748
10.2899
9.77647
9.12541
8.35653
7.49299
1.00881
1.03181
1.05935
1.08726
1.11373
1.13727
1.15975
1.17793
1.19791
1.21166
1.2435
1.29224
1.46416
1.7196
2.78473
5.13099
11.4885
11.4754
11.0561
10.4458
10.0198
9.55527
8.96821
8.27798
7.51338
1.00887
1.03174
1.05941
1.0872
1.11373
1.13732
1.15959
1.17814
1.19717
1.21083
1.23759
1.2736
1.41913
1.59277
2.51043
4.22872
9.63939
11.0433
10.7844
10.2393
9.78969
9.35303
8.82018
8.20533
7.5238
1.00889
1.03173
1.05939
1.08726
1.11359
1.13759
1.15909
1.17902
1.19538
1.21348
1.22999
1.27583
1.3392
1.60174
2.03874
3.62884
7.54574
10.8552
10.6343
10.124
9.63765
9.18477
8.69205
8.13473
7.52392
1.00883
1.03181
1.05936
1.08728
1.11362
1.13754
1.15915
1.1789
1.19534
1.2127
1.22614
1.26052
1.3087
1.49764
1.78305
2.8797
5.35006
10.4482
10.426
10.0971
9.54007
9.05243
8.58147
8.07167
7.51971
1.00885
1.03178
1.05939
1.08724
1.11369
1.1374
1.15941
1.17839
1.19617
1.21057
1.22738
1.24682
1.30523
1.38429
1.73119
2.29689
4.42351
9.16324
10.168
9.97225
9.48922
8.95365
8.48685
8.01409
7.511
1.00881
1.03183
1.05933
1.0873
1.11363
1.13746
1.15936
1.17843
1.19609
1.21035
1.22629
1.24069
1.2854
1.33735
1.59474
1.97714
3.48472
6.98879
9.87437
9.76857
9.41591
8.8854
8.41535
7.96579
7.50462
1.00878
1.03188
1.05929
1.08736
1.11357