/*--------------------------------*- C++ -*----------------------------------*\
  =========                 |
  \\      /  F ield         | OpenFOAM: The Open Source CFD Toolbox
   \\    /   O peration     | Website:  https://openfoam.org
    \\  /    A nd           | Version:  6
     \\/     M anipulation  |
\*---------------------------------------------------------------------------*/
FoamFile
{
    version     2.0;
    format      ascii;
    class       surfaceScalarField;
    location    "1.5";
    object      phi;
}
// * * * * * * * * * * * * * * * * * * * * * * * * * * * * * * * * * * * * * //

dimensions      [1 0 -1 0 0 0 0];

internalField   nonuniform List<scalar> 
72625
(
0.00162356
2.78508e-10
5.8735e-05
0.00157663
8.4834e-10
4.69207e-05
0.00153807
-9.76154e-11
3.85873e-05
0.00150614
9.68547e-10
3.19327e-05
0.00147909
-7.01235e-10
2.70772e-05
0.00145658
9.79575e-10
2.24878e-05
0.00143677
-7.94631e-10
1.97619e-05
0.00142085
2.44368e-09
1.59281e-05
0.00140574
8.01914e-09
1.51289e-05
0.00139181
3.67236e-08
1.39752e-05
0.00138315
7.30364e-08
8.7082e-06
0.00136714
2.79014e-07
1.59307e-05
0.00138376
6.22948e-07
-1.70586e-05
0.00133827
2.77749e-06
4.31862e-05
0.00153137
8.34738e-06
-0.000200198
0.00177753
4.60639e-05
-0.00029058
0.00175367
4.96569e-05
-2.54943e-05
0.0015667
4.00289e-05
0.000147247
0.00147607
4.07344e-05
4.64621e-05
0.00141328
4.11319e-05
1.51364e-05
0.00134495
4.221e-05
1.89306e-05
0.00125786
4.40592e-05
3.22031e-05
0.00108197
4.69515e-05
9.52112e-05
0.000702737
5.3663e-05
0.000313298
6.48855e-05
0.000639447
0.00162356
2.04208e-09
5.87342e-05
0.00157663
1.21391e-09
4.69213e-05
0.00153807
-2.91426e-10
3.85871e-05
0.00150614
8.33052e-10
3.19332e-05
0.00147909
-2.89774e-09
2.70773e-05
0.00145657
3.03134e-09
2.24875e-05
0.00143677
-5.60979e-09
1.97629e-05
0.00142085
1.1843e-08
1.59245e-05
0.00140572
2.49696e-08
1.51337e-05
0.00139181
9.5065e-08
1.39452e-05
0.00138299
2.24093e-07
8.78024e-06
0.00136715
6.1363e-07
1.57113e-05
0.0013833
1.34195e-06
-1.66849e-05
0.0013404
4.12803e-06
4.20325e-05
0.00153019
1.21221e-05
-0.000192228
0.00177975
6.42932e-05
-0.000266141
0.00178237
8.94662e-05
-4.2194e-05
0.00158362
9.80079e-05
0.000139891
0.00148716
9.60327e-05
3.65832e-05
0.00142293
9.78898e-05
1.01685e-06
0.00134887
0.000101775
6.86535e-06
0.0012574
0.000106936
1.68546e-05
0.00107376
0.000114233
8.28123e-05
0.000691258
0.000131756
0.000293025
0.000149514
0.000607957
0.00162356
8.51137e-09
5.87317e-05
0.00157664
-6.1677e-09
4.69235e-05
0.00153808
5.1154e-09
3.8586e-05
0.00150615
-8.43129e-09
3.19343e-05
0.00147908
4.35835e-09
2.70776e-05
0.00145657
-5.19835e-09
2.24857e-05
0.00143677
-4.96818e-09
1.9766e-05
0.00142085
4.01115e-08
1.59177e-05
0.00140579
-1.37291e-08
1.51277e-05
0.0013917
3.53369e-07
1.39194e-05
0.00138249
8.00201e-07
8.7298e-06
0.00136683
7.91307e-07
1.56788e-05
0.00138056
4.57136e-06
-1.67694e-05
0.00134135
2.41167e-06
4.14381e-05
0.00152234
2.73476e-05
-0.000194823
0.00176024
0.000102055
-0.000273521
0.00176045
0.000139316
-4.92085e-05
0.00157352
0.000152021
0.000132729
0.00147939
0.000155863
2.97955e-05
0.0014113
0.000162897
-2.98579e-06
0.00133786
0.00017247
-4.88858e-06
0.00124511
0.000184609
2.49868e-06
0.0010531
0.000198355
7.52572e-05
0.000673835
0.000223096
0.000278379
0.000243845
0.000581357
0.00162358
1.0003e-08
5.87182e-05
0.00157667
-2.04543e-08
4.69397e-05
0.00153811
2.11167e-08
3.85725e-05
0.00150615
-3.24685e-08
3.19503e-05
0.00147904
4.82731e-08
2.70594e-05
0.00145658
-8.20462e-08
2.25027e-05
0.00143672
1.36409e-07
1.97475e-05
0.00142114
-2.61317e-07
1.59121e-05
0.00140588
3.54148e-07
1.51287e-05
0.0013913
1.17209e-06
1.36655e-05
0.00138713
-3.47843e-06
8.54354e-06
0.0013598
1.32781e-05
1.49862e-05
0.00140976
-2.74237e-05
-1.77053e-05
0.00131742
5.47632e-05
4.04842e-05
0.00153811
-2.98276e-06
-0.000188683
0.00175973
0.000152028
-0.000268819
0.00176808
0.000190172
-5.77696e-05
0.00157673
0.000217818
0.000125684
0.00148463
0.000216578
2.68917e-05
0.00141029
0.000229531
1.35623e-06
0.00133989
0.000247684
-1.19182e-05
0.00124663
0.000270119
-5.3557e-06
0.0010487
0.000291088
7.32592e-05
0.000670904
0.000324582
0.000268811
0.000355707
0.000561532
0.00162365
-3.40881e-08
5.86962e-05
0.00157662
4.02939e-08
4.6968e-05
0.00153815
-2.75757e-08
3.8539e-05
0.00150607
3.0065e-08
3.19941e-05
0.00147918
-3.2153e-08
2.69959e-05
0.00145642
4.99637e-08
2.26041e-05
0.00143709
-8.76007e-08
1.95776e-05
0.00142038
1.79812e-07
1.62504e-05
0.00140638
-3.11461e-07
1.46975e-05
0.00139578
-5.83503e-07
1.23802e-05
0.00137264
4.80415e-06
1.48868e-05
0.00139947
-1.04124e-05
-2.97559e-06
0.00130895
3.90805e-05
2.43571e-05
0.0014659
-4.07245e-05
-6.10505e-05
0.00143093
8.6032e-05
-5.26861e-05
0.00173014
0.000159797
-0.000303814
0.00174103
0.000238372
-5.72321e-05
0.00158656
0.000254329
0.000117077
0.00149799
0.000270965
2.81473e-05
0.00141566
0.000294903
9.0202e-06
0.00134552
0.000323892
-1.34392e-05
0.00124889
0.000357986
-5.50364e-06
0.00104181
0.000391216
7.42824e-05
0.000663437
0.000435546
0.000260207
0.000477875
0.000543312
0.0016234
3.34714e-08
5.87918e-05
0.00157662
-5.70854e-08
4.68616e-05
0.00153798
3.20323e-08
3.86264e-05
0.00150609
-4.36237e-08
3.19055e-05
0.00147904
4.68612e-08
2.70803e-05
0.00145663
-6.2994e-08
2.25089e-05
0.00143668
1.17019e-07
1.97092e-05
0.00142104
-1.80868e-07
1.60176e-05
0.00140756
4.27331e-07
1.50636e-05
0.00139051
8.81618e-07
1.33205e-05
0.00139047
-3.78833e-06
8.46878e-06
0.00135393
1.27276e-05
1.39693e-05
0.00143882
-2.78809e-05
-1.76009e-05
0.00130045
6.02863e-05
3.7801e-05
0.0015576
2.78317e-06
-0.000172045
0.00174306
0.000238212
-0.000257717
0.00177454
0.000285181
-8.02272e-05
0.00159854
0.000317866
0.000112286
0.00150761
0.00033028
2.64838e-05
0.00142473
0.000360901
9.85687e-06
0.00135806
0.000400235
-1.57729e-05
0.00125916
0.000447352
-3.7537e-06
0.00104562
0.000497341
7.50427e-05
0.000665612
0.000557974
0.000249874
0.000621739
0.000523075
0.00162369
-4.78004e-08
5.86929e-05
0.00157663
4.59033e-08
4.69744e-05
0.00153817
-3.49848e-08
3.85306e-05
0.00150606
4.52689e-08
3.20041e-05
0.00147919
-3.72496e-08
2.6979e-05
0.0014564
6.6742e-08
2.26261e-05
0.00143709
-8.35452e-08
1.9542e-05
0.00142042
1.58576e-07
1.62934e-05
0.00140655
-2.79976e-07
1.45968e-05
0.00139575
-6.71682e-07
1.23858e-05
0.00137314
4.18191e-06
1.47463e-05
0.001397
-8.58083e-06
-2.34959e-06
0.00130887
3.653e-05
2.40705e-05
0.00146519
-3.18217e-05
-6.32252e-05
0.00143306
8.01204e-05
-4.40876e-05
0.00173895
0.00024542
-0.000306101
0.00177387
0.000328344
-7.83671e-05
0.00161515
0.000371761
0.000105022
0.00152469
0.000388711
2.64541e-05
0.00144161
0.000427297
8.80061e-06
0.00137407
0.000475894
-1.51419e-05
0.00127171
0.000535225
1.53757e-07
0.00105737
0.000605733
7.38364e-05
0.000677167
0.00069349
0.000236039
0.000800896
0.000498604
0.00162347
-1.47174e-08
5.88092e-05
0.00157668
3.34467e-09
4.68471e-05
0.00153801
1.0929e-09
3.86369e-05
0.00150618
6.93968e-09
3.18925e-05
0.00147901
7.34498e-09
2.70912e-05
0.00145658
2.09669e-09
2.24988e-05
0.00143674
1.64867e-08
1.97089e-05
0.00142069
-1.29623e-08
1.60462e-05
0.00140603
8.18097e-08
1.49897e-05
0.00139176
1.28893e-07
1.33755e-05
0.00138545
2.29113e-07
8.97854e-06
0.00136205
2.15236e-06
1.36135e-05
0.0014111
2.35178e-06
-1.39944e-05
0.00132571
2.12581e-05
3.25936e-05
0.00151815
4.96183e-05
-0.000161038
0.00174813
0.000297829
-0.000274217
0.00177436
0.000380691
-7.81253e-05
0.00162618
0.000428523
9.29209e-05
0.00153785
0.00044633
2.60737e-05
0.00146006
0.00049148
5.83342e-06
0.00139309
0.000548295
-1.32408e-05
0.00128952
0.000619449
4.24385e-06
0.00108111
0.000712575
7.07271e-05
0.000705773
0.000842388
0.000217438
0.00104192
0.000465019
0.00162349
1.35416e-08
5.88342e-05
0.00157661
3.12589e-09
4.68233e-05
0.00153795
5.89527e-09
3.86501e-05
0.00150609
-1.29322e-08
3.18789e-05
0.00147895
1.53678e-08
2.70985e-05
0.00145649
-3.64357e-08
2.24957e-05
0.00143673
5.24599e-08
1.97054e-05
0.00142054
-6.13946e-08
1.60685e-05
0.00140612
2.42434e-07
1.496e-05
0.00139217
5.95677e-07
1.34325e-05
0.00138094
1.0087e-06
9.2284e-06
0.00136852
2.05894e-06
1.35983e-05
0.00137748
6.46039e-06
-1.21206e-05
0.00135161
1.78214e-05
3.01507e-05
0.00148752
6.45518e-05
-0.000149601
0.00175454
0.000321289
-0.000280917
0.00178255
0.000427983
-7.3268e-05
0.00164991
0.000485282
7.86553e-05
0.00155999
0.000503798
2.7175e-05
0.0014872
0.000553342
2.24094e-06
0.001421
0.000615768
-1.039e-05
0.00131692
0.000698056
9.26244e-06
0.00112013
0.00081305
6.50246e-05
0.000764766
0.00100015
0.00018713
0.00140308
0.000403495
0.0016234
5.88236e-05
6.75775e-08
0.00157665
4.68347e-05
-6.09414e-08
0.00153792
3.86408e-05
4.56919e-08
0.00150607
3.18969e-05
-5.40861e-08
0.00147897
2.70693e-05
4.079e-08
0.00145642
2.25437e-05
-6.16916e-08
0.00143679
1.96203e-05
6.65215e-08
0.0014207
1.61946e-05
-6.021e-08
0.00140472
1.47278e-05
3.23522e-07
0.00139193
1.32631e-05
9.87364e-07
0.00138614
9.27333e-06
-1.80492e-06
0.00136396
1.33625e-05
1.10241e-05
0.00139862
-1.16374e-05
-1.6479e-05
0.00132607
2.86496e-05
6.32703e-05
0.00151015
-0.000149443
3.04486e-05
0.00178356
-0.0002756
0.000334644
0.00179913
-5.84713e-05
0.000473974
0.00169076
5.50495e-05
0.000542122
0.00159535
2.98222e-05
0.000563545
0.00152866
-7.9946e-07
0.000611396
0.00146194
-3.77026e-06
0.000675706
0.00136489
1.14559e-05
0.000767104
0.00118127
5.53491e-05
0.000907413
0.000872569
0.000148629
0.00114821
0.000295063
0.00198069
0.00172977
-4.55477e-11
7.16662e-06
0.00176404
1.07785e-09
1.26522e-05
0.00178822
-1.21512e-11
1.44075e-05
0.00180604
1.60071e-09
1.4113e-05
0.0018199
-5.68363e-10
1.32274e-05
0.00183055
1.76234e-09
1.18289e-05
0.00183939
-3.67603e-10
1.09054e-05
0.00184587
2.33814e-09
9.45049e-06
0.00185209
1.28295e-08
8.91672e-06
0.00185748
3.60641e-08
8.61033e-06
0.00185865
1.47681e-07
7.59677e-06
0.00186803
2.45682e-07
6.58166e-06
0.00184765
1.22761e-06
3.05501e-06
0.00189679
2.67675e-06
-7.8086e-06
0.00178246
1.61523e-05
-9.4803e-05
0.00162326
0.000163477
-0.000293177
0.00135454
0.000141031
9.80154e-05
0.00130644
0.000158205
1.91839e-05
0.0011223
0.000169853
2.58182e-05
0.00114885
0.00018234
-0.000226008
0.000946762
0.00019407
1.41255e-05
0.000654744
0.000206104
0.000121297
0.000273517
0.000260169
0.000225899
-6.73081e-06
0.00030133
0.000294127
0.000242086
0.000397748
0.00172976
1.63576e-09
7.16584e-06
0.00176403
1.10449e-09
1.26532e-05
0.00178822
9.96349e-10
1.44063e-05
0.00180604
1.09276e-09
1.41145e-05
0.0018199
-4.25124e-10
1.32246e-05
0.00183054
1.45566e-09
1.18342e-05
0.0018394
-5.85815e-10
1.08966e-05
0.00184586
8.29444e-09
9.46068e-06
0.00185213
2.91702e-08
8.87813e-06
0.00185737
1.03774e-07
8.69989e-06
0.00185921
2.44654e-07
7.07825e-06
0.00186729
7.56366e-07
7.39214e-06
0.00184975
2.02146e-06
1.13977e-06
0.00189502
6.42887e-06
-6.29245e-06
0.00179336
2.68524e-05
-9.35764e-05
0.00164544
0.000170289
-0.000119738
0.00137097
0.000278491
8.99095e-05
0.00131101
0.000325208
1.42137e-05
0.00110612
0.00035873
1.71883e-05
0.00110858
0.000407147
-0.000257805
0.000886564
0.000414199
-3.30932e-06
0.000567091
0.000444876
0.000103079
0.000194414
0.000528915
0.000194977
-3.07028e-05
0.000574125
0.000247448
0.000481788
0.000345242
0.00172976
5.30329e-09
7.16612e-06
0.00176404
-1.79575e-09
1.26522e-05
0.00178822
4.15677e-09
1.44072e-05
0.00180605
-3.42702e-09
1.41132e-05
0.00181989
2.46633e-09
1.32272e-05
0.00183054
-1.38896e-09
1.18296e-05
0.0018394
-7.48036e-10
1.09048e-05
0.00184586
1.93255e-08
9.44918e-06
0.00185209
4.67272e-08
8.91228e-06
0.00185739
1.94738e-07
8.59929e-06
0.00185863
4.08213e-07
7.55541e-06
0.00186724
1.55935e-06
6.54984e-06
0.00184766
3.40862e-06
2.53542e-06
0.00189236
1.10579e-05
-7.13821e-06
0.00178817
4.47111e-05
-0.000100502
0.00161923
0.000295917
-0.000226156
0.00135197
0.000405773
8.63509e-05
0.00129562
0.000478725
1.71371e-05
0.00110099
0.000539536
9.11458e-06
0.00108135
0.00061592
-0.00022214
0.000854665
0.000640665
-1.57116e-05
0.00052552
0.000687857
9.6693e-05
0.000165704
0.00078834
0.00018244
-3.64118e-05
0.000829617
0.00022764
0.000715296
0.000320505
0.00172975
6.81294e-09
7.16331e-06
0.00176405
-8.79144e-09
1.26564e-05
0.00178822
1.08201e-08
1.44029e-05
0.00180606
-1.59296e-08
1.41194e-05
0.00181987
2.06936e-08
1.32199e-05
0.00183056
-2.93835e-08
1.18382e-05
0.00183938
3.99541e-08
1.08936e-05
0.00184588
-2.03593e-08
9.45885e-06
0.00185206
1.48728e-07
8.87224e-06
0.00185722
5.15407e-08
8.71264e-06
0.00185728
2.0354e-06
7.09474e-06
0.0018667
6.27082e-09
7.40918e-06
0.00184387
9.07821e-06
6.45902e-07
0.00188984
1.09973e-05
-4.6869e-06
0.00179633
4.98159e-05
-9.21011e-05
0.00163803
0.000400242
-0.000209378
0.0013539
0.000552393
7.48934e-05
0.00129204
0.000633851
1.41678e-05
0.00111242
0.000715061
-2.37237e-06
0.00106908
0.000817464
-0.000185418
0.00084945
0.000860797
-2.25905e-05
0.00051901
0.000931511
9.18166e-05
0.000173356
0.00104128
0.000171101
-2.17508e-05
0.00108356
0.000213136
0.000957585
0.000307048
0.00172976
-1.00345e-08
7.16003e-06
0.00176404
8.96496e-09
1.2662e-05
0.00178821
-9.42671e-09
1.43958e-05
0.00180605
9.01246e-09
1.41296e-05
0.00181988
-1.22332e-08
1.32065e-05
0.00183058
1.64675e-08
1.18492e-05
0.00183934
-2.32303e-08
1.08849e-05
0.0018461
2.90459e-08
9.43469e-06
0.00185216
-5.69641e-08
8.85922e-06
0.00185515
4.00378e-07
9.10655e-06
0.00186812
-7.38271e-07
4.86823e-06
0.00184986
3.76467e-06
1.18354e-05
0.00189167
2.48158e-06
-9.81879e-06
0.00180613
2.13329e-05
1.5089e-05
0.00180084
0.000103449
-9.24737e-05
0.00159095
0.00052191
-0.00020715
0.00133882
0.000680822
6.24031e-05
0.00128505
0.000772198
1.42855e-05
0.00112881
0.000878577
-1.16296e-05
0.00106322
0.00100199
-0.00013791
0.000854771
0.00107443
-2.81944e-05
0.000537587
0.00117182
8.28245e-05
0.000204092
0.00129432
0.000159334
4.80792e-06
0.00134297
0.000202367
0.00121947
0.000295346
0.0017298
1.10944e-08
7.16184e-06
0.00176403
-1.7279e-08
1.26618e-05
0.00178825
1.06586e-08
1.43974e-05
0.00180604
-1.95208e-08
1.41269e-05
0.0018199
1.91562e-08
1.32097e-05
0.0018306
-2.50352e-08
1.18461e-05
0.00183936
3.9688e-08
1.08878e-05
0.00184597
-1.12933e-08
9.45403e-06
0.00185195
1.67046e-07
8.8939e-06
0.00185675
1.55705e-07
8.78994e-06
0.00185561
2.15041e-06
6.95518e-06
0.0018648
9.25834e-07
7.93252e-06
0.00184041
1.16912e-05
-1.03784e-06
0.00187825
1.95888e-05
2.29077e-06
0.00180874
9.47751e-05
-8.52844e-05
0.00165383
0.00063533
-0.000206733
0.00136564
0.000828705
5.63302e-05
0.00130114
0.000917807
1.33589e-05
0.00115384
0.00103498
-1.6121e-05
0.00106758
0.00117356
-0.000101895
0.000870326
0.00128012
-3.32454e-05
0.000572091
0.0014054
7.14121e-05
0.000251678
0.00154666
0.000147634
4.43381e-05
0.0016109
0.000191149
0.00151627
0.000279233
0.00172977
-1.78397e-08
7.15966e-06
0.00176405
1.02171e-08
1.26643e-05
0.00178822
-1.54836e-08
1.43933e-05
0.00180605
1.57826e-08
1.41326e-05
0.00181987
-1.52435e-08
1.32041e-05
0.00183059
2.46652e-08
1.18472e-05
0.0018393
-1.91803e-08
1.08904e-05
0.00184611
2.82352e-08
9.43228e-06
0.00185201
-2.84675e-08
8.9098e-06
0.00185508
4.56654e-07
9.08036e-06
0.00186735
-2.99692e-07
5.11636e-06
0.00185057
4.00663e-06
1.16979e-05
0.00189241
5.90156e-06
-1.07679e-05
0.00179578
2.95284e-05
2.4297e-05
0.001814
0.000138175
-9.70162e-05
0.00162385
0.000737701
-0.000205082
0.00137358
0.000952696
4.75121e-05
0.00131322
0.00105228
1.41107e-05
0.00117589
0.00118068
-1.71445e-05
0.00107973
0.0013346
-8.15292e-05
0.000896441
0.00147248
-3.44617e-05
0.000628269
0.00162419
5.90354e-05
0.000323731
0.00179557
0.00013436
0.000101465
0.00188955
0.000180387
0.00186239
0.000261341
0.00172984
-7.1753e-09
7.16422e-06
0.00176403
1.5938e-09
1.26612e-05
0.00178827
-1.77831e-09
1.4398e-05
0.00180604
3.94068e-09
1.41243e-05
0.00181991
3.40255e-09
1.3212e-05
0.00183058
2.43662e-09
1.18406e-05
0.00183936
1.24167e-08
1.08948e-05
0.00184595
1.37803e-08
9.4553e-06
0.00185187
1.07814e-07
8.93747e-06
0.00185656
4.17723e-07
8.82125e-06
0.00185729
1.10114e-06
6.94648e-06
0.00186329
3.47572e-06
8.50514e-06
0.00184841
9.90043e-06
-2.6811e-06
0.00186195
3.54519e-05
1.43927e-05
0.00180509
0.000135567
-9.40841e-05
0.00166773
0.00083146
-0.00021254
0.00140796
0.00109502
3.84392e-05
0.00133478
0.00118632
1.53395e-05
0.00120629
0.00131621
-1.66721e-05
0.00110573
0.0014836
-6.53832e-05
0.000938541
0.00164833
-3.06843e-05
0.000703528
0.00182488
4.78027e-05
0.000419046
0.00203591
0.000118782
0.000180489
0.00217763
0.000167847
0.0022792
0.000235444
0.00172987
6.73099e-09
7.16652e-06
0.00176401
6.45133e-09
1.26597e-05
0.00178826
3.64843e-09
1.43979e-05
0.00180601
4.38285e-09
1.41235e-05
0.0018199
1.9993e-09
1.32103e-05
0.00183055
-7.96971e-10
1.18433e-05
0.00183936
1.47132e-08
1.08916e-05
0.00184595
1.49666e-08
9.45891e-06
0.00185187
2.1781e-07
8.94166e-06
0.00185642
5.49824e-07
8.81199e-06
0.00185832
2.01535e-06
6.91632e-06
0.00186376
3.35917e-06
8.32682e-06
0.00185182
1.4613e-05
-2.18038e-06
0.00186978
3.30933e-05
1.25957e-05
0.00180096
0.000149818
-8.58708e-05
0.00169002
0.000899718
-0.000218221
0.00144855
0.00124098
2.47195e-05
0.00136688
0.00130918
1.7524e-05
0.00124955
0.00143996
-1.54114e-05
0.00114905
0.00161591
-5.12867e-05
0.00099831
0.00180488
-2.50625e-05
0.000808454
0.0019917
3.64407e-05
0.000574031
0.00224403
9.57223e-05
0.000319155
0.00247291
0.00014738
0.00280635
0.000201348
0.00172984
7.1627e-06
2.87734e-08
0.00176402
1.26649e-05
-6.77796e-09
0.00178825
1.43924e-05
1.12214e-08
0.00180601
1.41346e-05
8.0287e-09
0.00181991
1.31974e-05
-2.09329e-08
0.00183054
1.1857e-05
5.07182e-08
0.00183939
1.08819e-05
-9.23236e-08
0.00184588
9.44998e-06
2.51671e-07
0.00185189
9.00981e-06
-7.84423e-08
0.00185502
8.67609e-06
2.08708e-06
0.00186178
7.05766e-06
-2.40239e-06
0.00185448
7.44086e-06
1.71865e-05
0.00187435
-9.18287e-08
-1.55748e-05
0.00183748
6.61181e-06
9.46794e-05
0.00181963
-7.086e-05
9.57991e-05
0.00171104
-0.000220059
0.000970862
0.00152767
-1.27323e-07
0.00136942
0.00140188
2.83023e-05
0.00143781
0.00129813
-1.41633e-05
0.00154725
0.00120383
-3.86558e-05
0.00172638
0.00109825
-2.39452e-05
0.00191891
0.000948437
2.90068e-05
0.00212464
0.000759251
7.74649e-05
0.0024151
0.000555664
0.000113507
0.00270963
0.000143544
0.00351946
0.00169386
1.06362e-09
-7.16339e-06
0.00171917
-1.30024e-10
-1.26546e-05
0.00174798
1.14239e-09
-1.44034e-05
0.00177621
-3.54015e-10
-1.4116e-05
0.00180266
4.64795e-10
-1.32244e-05
0.00182632
8.87704e-10
-1.183e-05
0.00184813
-2.18489e-09
-1.09047e-05
0.00186702
7.76546e-09
-9.45169e-06
0.00188487
-8.09257e-09
-8.9118e-06
0.00190211
9.86218e-08
-8.62658e-06
0.00191756
-1.11543e-07
-7.63397e-06
0.00193041
6.48061e-07
-6.49847e-06
0.0019375
-1.62704e-08
-3.27799e-06
0.00191748
2.41234e-06
8.66744e-06
0.00172975
9.84808e-06
9.2374e-05
0.00120438
0.000118372
0.00012415
0.00118049
0.000203035
-9.70816e-05
0.000921171
0.000265826
-1.0791e-05
0.000665594
0.000278399
-8.03222e-06
5.8689e-05
0.000282932
0.000105585
-0.00027244
0.000346022
-8.37697e-06
-0.000408778
0.000393278
-0.000137606
-0.000429475
0.000463963
-0.000215411
-0.000350946
0.000496359
-0.000277626
0.000429295
-0.000368126
0.00169386
9.57827e-10
-7.15988e-06
0.00171917
6.23155e-10
-1.26596e-05
0.00174798
6.81167e-10
-1.43978e-05
0.00177621
8.93369e-10
-1.41244e-05
0.00180266
-2.06992e-10
-1.32146e-05
0.00182633
-5.96007e-10
-1.18373e-05
0.00184812
2.56876e-09
-1.08994e-05
0.001867
-2.43495e-09
-9.4204e-06
0.00188471
4.20541e-08
-8.8674e-06
0.00190265
1.87995e-08
-9.05064e-06
0.00191454
4.47182e-07
-5.27736e-06
0.00193397
3.06732e-07
-1.1247e-05
0.00192602
2.75756e-06
7.06006e-06
0.00192353
6.96323e-06
-9.42322e-06
0.00172588
3.61849e-05
8.72959e-05
0.0011887
0.000248724
0.000297873
0.00115619
0.000389474
-7.95416e-05
0.00093198
0.000490112
-8.66022e-06
0.000692214
0.000527807
-2.56837e-06
-1.52158e-05
0.000563306
0.000178185
-0.000340402
0.000657726
8.19849e-07
-0.000467192
0.000733692
-0.000112831
-0.000443935
0.000821895
-0.000184666
-0.000324981
0.00086289
-0.000235187
0.000791795
-0.000328075
0.00169386
2.28677e-09
-7.16039e-06
0.00171917
-6.18696e-10
-1.26585e-05
0.00174798
1.99932e-09
-1.43996e-05
0.00177621
-1.50479e-09
-1.41211e-05
0.00180266
2.55729e-10
-1.32204e-05
0.00182632
-1.69283e-10
-1.18327e-05
0.00184813
-1.97526e-09
-1.09042e-05
0.00186701
1.14365e-08
-9.44338e-06
0.00188486
1.71107e-08
-8.90242e-06
0.00190202
2.0667e-07
-8.6382e-06
0.00191768
1.63026e-07
-7.70476e-06
0.00192985
1.5425e-06
-6.40792e-06
0.00193707
2.47185e-06
-3.59882e-06
0.00191583
1.12247e-05
8.77559e-06
0.00172021
5.47722e-05
8.6464e-05
0.00118757
0.000424783
0.000141282
0.00113889
0.000584459
-7.47904e-05
0.000929305
0.0007046
-9.21442e-06
0.000691288
0.000767958
-5.11997e-07
-1.92018e-05
0.000842556
0.000220598
-0.000341965
0.000941972
1.33378e-05
-0.000452781
0.00103956
-0.000101118
-0.000421343
0.00114792
-0.000173594
-0.000310261
0.00120021
-0.000217938
0.00112534
-0.000309819
0.00169386
1.64769e-09
-7.15651e-06
0.00171918
-1.22438e-09
-1.26645e-05
0.00174797
1.53007e-09
-1.4393e-05
0.00177622
-2.4056e-09
-1.41315e-05
0.00180266
4.90296e-10
-1.32081e-05
0.00182633
-6.25987e-10
-1.18437e-05
0.00184812
-3.07024e-10
-1.08959e-05
0.001867
1.46505e-08
-9.42152e-06
0.00188473
3.78552e-08
-8.8757e-06
0.00190252
2.73815e-07
-9.02159e-06
0.00191476
3.72257e-07
-5.2628e-06
0.00193319
2.11274e-06
-1.11058e-05
0.00192515
4.23066e-06
7.72013e-06
0.00192557
1.71036e-05
-1.19493e-05
0.0017272
8.26198e-05
8.84261e-05
0.0011894
0.000574205
0.000189943
0.00113096
0.00077034
-6.69696e-05
0.000934631
0.000907703
-1.22084e-05
0.000686717
0.00100334
5.1407e-06
3.99779e-05
0.00113264
0.000183605
-0.000284768
0.00121453
2.1069e-05
-0.000401726
0.00133782
-9.22331e-05
-0.000381763
0.00146378
-0.000163699
-0.000288359
0.00152858
-0.000205109
0.00145538
-0.000298461
0.00169386
-1.31931e-09
-7.15471e-06
0.00171918
-5.79046e-11
-1.26682e-05
0.00174797
-1.63998e-09
-1.43894e-05
0.00177624
-1.98378e-10
-1.41378e-05
0.00180265
-7.22938e-10
-1.32004e-05
0.00182634
-2.20877e-10
-1.18542e-05
0.00184811
5.18851e-09
-1.08827e-05
0.00186698
1.01133e-08
-9.43752e-06
0.00188465
8.1597e-08
-8.84635e-06
0.00190298
2.50887e-07
-9.0774e-06
0.00191228
8.71719e-07
-4.83755e-06
0.00193623
2.23234e-06
-1.17217e-05
0.00191453
7.25895e-06
9.65538e-06
0.00193664
2.49167e-05
-1.55379e-05
0.00173725
0.000119108
8.02387e-05
0.00120461
0.000731788
0.000178968
0.00112877
0.000952889
-5.69926e-05
0.00094558
0.00109939
-1.32936e-05
0.000696252
0.00122502
1.20488e-05
0.000148343
0.0014174
0.000137964
-0.000191526
0.00149056
2.78147e-05
-0.000329167
0.00163794
-8.15866e-05
-0.000326094
0.00177506
-0.000153871
-0.000253603
0.00185754
-0.000196004
0.00179673
-0.00028805
0.00169386
-2.20031e-09
-7.15845e-06
0.00171918
-2.89409e-10
-1.26636e-05
0.00174798
-2.45034e-09
-1.43934e-05
0.00177623
-3.61444e-10
-1.41325e-05
0.00180265
-2.84728e-10
-1.32048e-05
0.00182634
1.20383e-09
-1.18491e-05
0.00184811
5.82195e-09
-1.08882e-05
0.00186699
1.94618e-08
-9.43379e-06
0.00188479
7.82951e-08
-8.89674e-06
0.00190255
4.30733e-07
-9.02189e-06
0.00191486
8.25834e-07
-5.23673e-06
0.00193324
3.52946e-06
-1.12503e-05
0.00192293
8.45284e-06
8.93085e-06
0.00193423
3.2864e-05
-1.8417e-05
0.00174141
0.000147786
9.0046e-05
0.00121458
0.000875402
0.000190364
0.00113337
0.00112925
-5.26562e-05
0.000962028
0.00127996
-1.46751e-05
0.000721268
0.00143219
1.56436e-05
0.000267658
0.00167936
0.00010201
-8.24311e-05
0.00176757
3.325e-05
-0.000238145
0.0019301
-6.98402e-05
-0.000254034
0.00208322
-0.000143632
-0.000203403
0.00218697
-0.00018623
0.00215668
-0.000273543
0.00169386
-3.18586e-09
-7.16245e-06
0.00171918
-4.39232e-10
-1.26587e-05
0.00174798
-2.55877e-09
-1.44004e-05
0.00177623
6.13144e-10
-1.41211e-05
0.00180264
1.08741e-09
-1.32156e-05
0.00182633
2.10575e-09
-1.18427e-05
0.00184811
8.93628e-09
-1.08848e-05
0.00186702
2.12962e-08
-9.47715e-06
0.00188476
1.10677e-07
-8.86832e-06
0.00190277
4.57049e-07
-8.82155e-06
0.00191422
1.15652e-06
-6.62414e-06
0.00193489
3.8376e-06
-8.75304e-06
0.00191948
1.05888e-05
3.36686e-06
0.00194593
3.95606e-05
-1.0796e-05
0.00174591
0.000168891
9.3013e-05
0.00122473
0.00100295
0.000200848
0.00114447
0.00129576
-4.93835e-05
0.000983769
0.00145245
-1.59596e-05
0.00075955
0.0016215
1.62116e-05
0.000382653
0.00190683
8.11726e-05
3.46855e-05
0.00203986
3.47371e-05
-0.000124693
0.0022008
-5.76081e-05
-0.000153781
0.00237823
-0.000131495
-0.000132473
0.00252467
-0.000176643
0.00255045
-0.000256951
0.00169387
-2.63435e-09
-7.16697e-06
0.00171918
1.55224e-09
-1.26545e-05
0.00174798
-5.57167e-10
-1.44035e-05
0.00177621
2.04587e-09
-1.41159e-05
0.00180264
3.57005e-09
-1.32196e-05
0.00182633
8.7362e-10
-1.18372e-05
0.00184811
1.33384e-08
-1.08903e-05
0.00186703
2.16057e-08
-9.4771e-06
0.00188484
1.26404e-07
-8.88915e-06
0.00190246
5.45832e-07
-8.77572e-06
0.00191629
1.27619e-06
-6.90735e-06
0.00193329
4.31067e-06
-8.48129e-06
0.00192714
1.222e-05
2.82513e-06
0.00195363
3.98957e-05
-1.46942e-05
0.00176199
0.000179381
9.73942e-05
0.00124964
0.00110998
0.000208407
0.0011529
0.0014621
-3.93874e-05
0.00100918
0.00161074
-1.65049e-05
0.000803432
0.00179419
1.63304e-05
0.000489256
0.00210424
6.52461e-05
0.000176034
0.00228607
3.12832e-05
1.77052e-05
0.00244832
-4.63712e-05
-3.44598e-05
0.00266399
-0.000116605
-3.27392e-05
0.00285621
-0.000165075
0.00299175
-0.000232262
0.00169388
-2.24623e-10
-7.16752e-06
0.00171917
8.60944e-09
-1.26573e-05
0.00174798
-4.07632e-09
-1.44001e-05
0.0017762
1.43383e-08
-1.41202e-05
0.00180265
-1.03894e-08
-1.32128e-05
0.00182631
1.71934e-08
-1.18418e-05
0.0018481
5.98091e-09
-1.08905e-05
0.00186701
9.94308e-09
-9.46306e-06
0.00188471
3.12907e-07
-8.93135e-06
0.00190259
3.36265e-07
-8.80827e-06
0.00191583
2.27607e-06
-6.91212e-06
0.00193474
2.39552e-06
-8.3419e-06
0.00192552
1.90607e-05
2.15467e-06
0.00196109
2.93877e-05
-1.25756e-05
0.00179153
0.000189837
8.64043e-05
0.00128642
0.00119134
0.000222433
0.00115916
0.00163149
-2.38415e-05
0.00103375
0.00175558
-1.81381e-05
0.000856286
0.00194147
1.57847e-05
0.000601848
0.00227269
5.15181e-05
0.000335629
0.00249958
2.57902e-05
0.000187539
0.00266101
-3.49779e-05
0.000125929
0.00291169
-9.38337e-05
0.000110189
0.00316345
-0.000145264
0.0035098
-0.000199527
0.00169383
-7.16288e-06
1.07032e-08
0.00171918
-1.26638e-05
5.69787e-09
0.00174797
-1.43927e-05
-8.6744e-09
0.00177622
-1.41331e-05
3.83632e-08
0.00180266
-1.31981e-05
-6.5375e-08
0.00182624
-1.18565e-05
1.28414e-07
0.00184822
-1.08816e-05
-2.07321e-07
0.00186671
-9.45147e-06
4.27232e-07
0.00188554
-9.00822e-06
-4.90239e-07
0.00190185
-8.6771e-06
1.61194e-06
0.00192107
-7.06613e-06
-3.0072e-06
0.00192184
-7.4624e-06
1.73232e-05
0.00195571
2.45539e-08
-1.4465e-05
0.00191272
-6.62727e-06
8.88975e-05
0.00183681
7.08427e-05
0.000135835
0.00132792
0.000223663
0.00127739
0.00115284
1.46161e-06
0.00179702
0.00106128
-2.80063e-05
0.00188845
0.000914583
1.4847e-05
0.00206167
0.000727835
3.92046e-05
0.00239804
0.000517548
2.46406e-05
0.00266092
0.00038997
-2.7929e-05
0.00283435
0.000346727
-7.59295e-05
0.00310267
0.000330875
-0.000111695
0.00340032
-0.00014237
0.00412986
0.00172975
8.55026e-09
-5.87199e-05
0.00176404
-7.28428e-09
-4.69367e-05
0.0017882
1.02699e-08
-3.85739e-05
0.00180605
-1.32538e-08
-3.19475e-05
0.00181987
1.7762e-08
-2.70638e-05
0.00183056
-2.56881e-08
-2.24984e-05
0.00183937
3.33637e-08
-1.9753e-05
0.00184585
-2.05483e-08
-1.59025e-05
0.00185194
1.20033e-07
-1.50952e-05
0.00185722
-1.42014e-07
-1.36915e-05
0.00185645
1.70518e-06
-8.38589e-06
0.00186722
-1.70107e-06
-1.52962e-05
0.00184043
5.30025e-06
1.91134e-05
0.00189393
-1.91218e-06
-4.21864e-05
0.00179708
-1.06713e-05
0.000207188
0.00166167
6.34961e-06
0.000261339
0.00138827
0.0001365
3.64494e-05
0.00133566
0.000168428
-0.000143969
0.00116962
0.000171448
-4.73978e-05
0.00110316
0.000172105
-3.08354e-05
0.000907132
0.000189261
-1.13313e-05
0.000572168
0.000219737
-1.47834e-05
0.000214323
0.000257954
-0.000112649
-5.15173e-05
0.00030051
-0.000310766
0.000221797
-0.000636284
0.00172974
-1.68361e-09
-5.86898e-05
0.00176404
7.18485e-09
-4.69724e-05
0.0017882
-4.85769e-09
-3.85393e-05
0.00180605
1.0626e-08
-3.19901e-05
0.00181987
-1.56151e-08
-2.70058e-05
0.00183057
2.19511e-08
-2.25887e-05
0.00183935
-3.65497e-08
-1.96017e-05
0.0018461
2.99985e-08
-1.62232e-05
0.00185223
-9.49839e-08
-1.47682e-05
0.00185521
2.93827e-07
-1.23932e-05
0.00186824
-1.44922e-06
-1.49921e-05
0.00184931
3.16104e-06
3.16681e-06
0.00189007
-3.082e-06
-2.44191e-05
0.00181481
1.15181e-05
5.37035e-05
0.00179011
4.44155e-05
6.47248e-05
0.00153494
0.000238428
0.000326517
0.00131786
0.000254066
1.7545e-05
0.00128407
0.000312236
-0.000134995
0.00111541
0.000346465
-4.29253e-05
0.00108475
0.000375032
-2.20838e-05
0.000855563
0.000415165
-4.66414e-06
0.000512151
0.000466686
-7.12142e-06
0.000154816
0.000536414
-0.000102492
-5.67621e-05
0.000571398
-0.000293599
0.000443848
-0.000599435
0.00172974
8.79377e-09
-5.87146e-05
0.00176405
-7.49098e-09
-4.69411e-05
0.0017882
1.08174e-08
-3.85729e-05
0.00180607
-1.53349e-08
-3.19482e-05
0.00181986
1.78732e-08
-2.70632e-05
0.00183058
-2.93801e-08
-2.25022e-05
0.00183936
3.34763e-08
-1.97456e-05
0.00184591
-2.82368e-08
-1.59236e-05
0.00185196
1.11185e-07
-1.51479e-05
0.00185727
-1.00222e-07
-1.34651e-05
0.00185461
1.84294e-06
-8.16072e-06
0.00186763
-1.2945e-06
-1.46588e-05
0.00183302
7.52685e-06
2.13624e-05
0.0018919
3.33358e-06
-4.08985e-05
0.00179146
2.74858e-05
0.000211392
0.00162634
0.000289999
0.000262387
0.0013431
0.000416111
4.3299e-05
0.00127618
0.000479856
-0.000127248
0.00108415
0.000532636
-2.97735e-05
0.00105157
0.000605933
-5.77225e-06
0.000824331
0.000638432
9.39561e-06
0.000486642
0.000706304
7.63194e-06
0.000150923
0.000789221
-8.62281e-05
-3.74429e-05
0.000818982
-0.000275392
0.000680626
-0.000575144
0.00172974
2.64563e-09
-5.86853e-05
0.00176405
-2.52313e-09
-4.69799e-05
0.0017882
1.83664e-09
-3.85308e-05
0.00180606
-5.96322e-09
-3.20027e-05
0.00181986
1.72628e-09
-2.69914e-05
0.0018306
-6.36064e-09
-2.26087e-05
0.00183933
9.47974e-10
-1.95821e-05
0.00184611
6.50178e-09
-1.6249e-05
0.00185213
1.93991e-08
-1.47875e-05
0.00185537
1.85869e-07
-1.24653e-05
0.00186707
3.58086e-07
-1.53076e-05
0.00185093
1.72002e-06
2.39186e-06
0.00188854
4.1093e-06
-2.55022e-05
0.00180927