/*--------------------------------*- C++ -*----------------------------------*\
  =========                 |
  \\      /  F ield         | OpenFOAM: The Open Source CFD Toolbox
   \\    /   O peration     | Website:  https://openfoam.org
    \\  /    A nd           | Version:  6
     \\/     M anipulation  |
\*---------------------------------------------------------------------------*/
FoamFile
{
    version     2.0;
    format      ascii;
    class       volScalarField;
    location    "1.5";
    object      T;
}
// * * * * * * * * * * * * * * * * * * * * * * * * * * * * * * * * * * * * * //

dimensions      [0 0 0 1 0 0 0];

internalField   nonuniform List<scalar> 
26250
(
0.980217
0.967287
0.955994
0.946464
0.937929
0.930849
0.924489
0.920296
0.919781
0.926288
0.939522
1.00077
1.10849
1.54536
2.43539
2.66202
2.64079
2.605
2.5601
2.55745
2.5706
2.60156
2.70392
2.82627
2.86779
0.980223
0.967283
0.955996
0.946457
0.937931
0.930847
0.924498
0.920283
0.919773
0.926195
0.939348
1.00017
1.10741
1.54077
2.42713
2.64969
2.63365
2.59908
2.55729
2.55673
2.57157
2.60497
2.7113
2.83121
2.87156
0.980239
0.967268
0.956004
0.946444
0.937945
0.930845
0.924511
0.920237
0.919733
0.926016
0.938924
0.99934
1.1053
1.53728
2.42118
2.64808
2.63371
2.59818
2.55893
2.55918
2.5766
2.61259
2.72226
2.8388
2.87534
0.980362
0.967149
0.956103
0.946335
0.938077
0.930753
0.924614
0.920045
0.919614
0.925609
0.936434
0.998124
1.09949
1.53624
2.41722
2.64179
2.62992
2.59439
2.55779
2.5582
2.5787
2.61591
2.72889
2.83884
2.87112
0.980655
0.966849
0.956431
0.946025
0.938408
0.930368
0.925012
0.919615
0.920694
0.920881
0.943108
0.97664
1.13294
1.49695
2.2665
2.6095
2.60512
2.5723
2.54394
2.54658
2.57081
2.60991
2.72651
2.83825
2.86898
0.979409
0.96816
0.95516
0.947355
0.937158
0.931631
0.923683
0.921045
0.918705
0.924741
0.933001
0.994359
1.08723
1.52111
2.37712
2.60629
2.60269
2.57309
2.54067
2.54214
2.56412
2.59982
2.71212
2.8309
2.86442
0.980745
0.966762
0.9565
0.945947
0.938469
0.930284
0.925071
0.919454
0.920317
0.920419
0.941353
0.973197
1.12056
1.46525
2.20138
2.57468
2.5762
2.55179
2.52565
2.52891
2.55255
2.58846
2.69504
2.81723
2.85507
0.979329
0.968176
0.955035
0.947411
0.936924
0.931889
0.923405
0.921294
0.918472
0.923905
0.932984
0.988378
1.0745
1.47897
2.3036
2.56957
2.56866
2.54161
2.5151
2.51733
2.53944
2.57511
2.67335
2.79234
2.83323
0.979112
0.968338
0.954892
0.947596
0.936811
0.932074
0.923309
0.921427
0.918307
0.92337
0.933228
0.98432
1.06679
1.44967
2.24886
2.54283
2.54903
2.5214
2.49803
2.50043
2.52123
2.55465
2.64932
2.75579
2.78994
0.979089
0.968452
0.954801
0.94775
0.936719
0.932175
0.923242
0.921332
0.917758
0.92257
0.930892
0.979922
1.05905
1.41298
2.20022
2.50948
2.52594
2.50125
2.48211
2.48386
2.50199
2.52739
2.60708
2.70489
2.69128
1.01422
1.02103
1.0263
1.02897
1.03183
1.03303
1.03508
1.03671
1.04378
1.05485
1.08941
1.16895
1.3644
1.86364
2.80266
2.72885
2.77769
2.75921
2.79408
2.83821
2.89178
2.893
2.84791
2.87001
2.86535
1.01422
1.02103
1.0263
1.02897
1.03183
1.03304
1.03508
1.0367
1.04375
1.0548
1.08919
1.16885
1.36288
1.86111
2.79951
2.73001
2.77313
2.75433
2.79125
2.83477
2.8879
2.88412
2.8407
2.86848
2.86365
1.01422
1.02103
1.0263
1.02897
1.03183
1.03304
1.03507
1.03668
1.04369
1.05464
1.08887
1.16791
1.36068
1.85782
2.79714
2.73028
2.77336
2.75373
2.79131
2.83322
2.88296
2.87331
2.83015
2.86392
2.8592
1.01423
1.02103
1.0263
1.02897
1.03183
1.03305
1.03506
1.03665
1.04357
1.05435
1.08839
1.16643
1.35718
1.8515
2.79237
2.73074
2.76739
2.74983
2.78729
2.82843
2.87141
2.85521
2.81678
2.85446
2.84991
1.01418
1.02108
1.02626
1.02903
1.03179
1.03308
1.035
1.03661
1.04297
1.05479
1.08339
1.1727
1.34409
1.85591
2.80033
2.73737
2.76565
2.74841
2.78307
2.8259
2.86368
2.84225
2.80268
2.83884
2.84172
1.01414
1.02109
1.02624
1.02902
1.03179
1.03305
1.03502
1.03659
1.04329
1.05359
1.08662
1.16257
1.34397
1.83104
2.77692
2.73362
2.74798
2.74043
2.77618
2.82062
2.85049
2.82502
2.78761
2.82596
2.83083
1.01418
1.02109
1.02625
1.02903
1.03178
1.03309
1.03498
1.03656
1.04266
1.05378
1.08132
1.16637
1.32656
1.82689
2.78317
2.74093
2.73596
2.73048
2.76929
2.81401
2.83855
2.81189
2.76542
2.79995
2.81033
1.01412
1.02109
1.02623
1.029
1.03178
1.03304
1.035
1.03652
1.04292
1.05246
1.08392
1.15588
1.32298
1.79388
2.75188
2.73489
2.71175
2.71442
2.7596
2.80294
2.82346
2.79354
2.74061
2.77552
2.78238
1.01409
1.02109
1.02622
1.02901
1.03177
1.03306
1.03498
1.03648
1.04258
1.05184
1.08185
1.15131
1.30886
1.76522
2.72537
2.72933
2.68626
2.69252
2.74385
2.78298
2.79783
2.77483
2.70823
2.72482
2.71522
1.01408
1.02112
1.0262
1.02904
1.03175
1.03308
1.03494
1.03637
1.04208
1.05104
1.07886
1.14724
1.29566
1.73728
2.70082
2.71771
2.66477
2.67216
2.72737
2.76741
2.77453
2.75159
2.67121
2.67224
2.62704
1.00635
1.01266
1.02151
1.02798
1.03569
1.0406
1.04705
1.05144
1.06113
1.07593
1.1166
1.21106
1.42603
2.03551
2.84997
2.62415
2.79727
2.82615
2.84141
2.71407
2.81042
2.83783
2.80798
2.81245
2.77621
1.00637
1.01264
1.02153
1.02796
1.03571
1.04058
1.04707
1.05142
1.06118
1.07571
1.11691
1.2094
1.42633
2.03706
2.84692
2.62685
2.79959
2.82477
2.83967
2.70832
2.81435
2.82843
2.80134
2.80654
2.76754
1.00635
1.01266
1.02151
1.02799
1.03569
1.0406
1.04704
1.05142
1.06104
1.07575
1.11611
1.20993
1.42309
2.03057
2.84272
2.6328
2.80119
2.82094
2.83368
2.69575
2.81311
2.82181
2.79267
2.79602
2.75598
1.00638
1.01264
1.02154
1.02796
1.03572
1.04057
1.04706
1.05137
1.06101
1.07536
1.116
1.20703
1.42077
2.02381
2.83342
2.64309
2.801
2.81405
2.82008
2.67977
2.8057
2.81341
2.78079
2.78528
2.74336
1.0064
1.01262
1.02156
1.02794
1.03574
1.04055
1.04708
1.05132
1.06092
1.07488
1.11554
1.20348
1.41635
2.01075
2.82042
2.65713
2.79889
2.80381
2.80633
2.66746
2.78799
2.80274
2.76682
2.76286
2.72329
1.00639
1.01263
1.02155
1.02794
1.03573
1.04055
1.04707
1.05128
1.06066
1.07452
1.11412
1.20105
1.40838
1.98603
2.80973
2.66997
2.79153
2.79537
2.79277
2.65405
2.76094
2.78725
2.74637
2.74726
2.70651
1.00641
1.0126
1.02158
1.02792
1.03576
1.04053
1.04708
1.0512
1.06043
1.0738
1.11285
1.19574
1.3996
1.94358
2.80216
2.6882
2.77889
2.77897
2.77919
2.64282
2.72386
2.77632
2.72792
2.71453
2.67058
1.00642
1.01259
1.02159
1.0279
1.03578
1.0405
1.04708
1.05112
1.06009
1.07312
1.11097
1.19061
1.38848
1.88751
2.79492
2.69466
2.77104
2.76578
2.75927
2.62953
2.68757
2.75274
2.69584
2.68404
2.63825
1.00644
1.01256
1.02162
1.02787
1.0358
1.04047
1.04709
1.05103
1.05976
1.07229
1.10909
1.18529
1.37404
1.85196
2.77815
2.698
2.75382
2.75464
2.74715
2.61253
2.64101
2.72955
2.66884
2.63753
2.56107
1.0064
1.01263
1.02154
1.02795
1.03571
1.04056
1.04702
1.05094
1.05921
1.07154
1.10636
1.18393
1.35648
1.83057
2.76975
2.70257
2.71921
2.73938
2.73087
2.60082
2.5954
2.68816
2.62819
2.58131
2.46165
1.01423
1.02102
1.02631
1.02897
1.03183
1.03304
1.03507
1.03669
1.04371
1.05469
1.08931
1.1681
1.36461
1.86259
2.80042
2.72989
2.77193
2.75147
2.77774
2.84655
2.89241
2.8808
2.85077
2.87356
2.86601
1.0142
1.02106
1.02628
1.02901
1.0318
1.03308
1.03502
1.03666
1.0432
1.05549
1.0848
1.17708
1.35628
1.87591
2.81028
2.73425
2.78428
2.76419
2.79365
2.8494
2.8919
2.87625
2.84483
2.87469
2.87102
1.01423
1.02102
1.0263
1.02897
1.03183
1.03305
1.03506
1.03666
1.04362
1.05445
1.08902
1.1664
1.36265
1.85806
2.79536
2.72965
2.77302
2.75463
2.79175
2.84443
2.88566
2.86372
2.83278
2.87051
2.86602
1.01419
1.02106
1.02628
1.02901
1.0318
1.03308
1.03501
1.03665
1.04315
1.05511
1.08426
1.17481
1.35046
1.86573
2.80358
2.73548
2.77478
2.75439
2.79166
2.83766
2.87571
2.85083
2.81803
2.86045
2.85672
1.01419
1.02107
1.02628
1.02902
1.0318
1.03308
1.03501
1.03663
1.0431
1.05477
1.08378
1.17269
1.34512
1.85661
2.7973
2.73943
2.76801
2.75228
2.78827
2.83387
2.86716
2.83899
2.80159
2.84399
2.84728
1.01418
1.02107
1.02627
1.02902
1.03179
1.03308
1.035
1.0366
1.04292
1.05433
1.08277
1.16992
1.33719
1.8436
2.79028
2.7403
2.75608
2.7464
2.78197
2.827
2.85354
2.82255
2.78548
2.82995
2.83528
1.01419
1.02105
1.02628
1.02898
1.03181
1.03303
1.03502
1.03654
1.04316
1.05314
1.08533
1.16065
1.33375
1.81447
2.76573
2.73325
2.73037
2.73013
2.77399
2.82048
2.8417
2.80914
2.76268
2.80325
2.81433
1.01418
1.02104
1.02628
1.02896
1.0318
1.03302
1.035
1.0365
1.0429
1.05255
1.08381
1.15614
1.32191
1.79262
2.7511
2.7333
2.70556
2.70972
2.76042
2.80864
2.82806
2.79211
2.73853
2.77944
2.78666
1.0141
1.02108
1.02622
1.029
1.03178
1.03305
1.03498
1.03647
1.04258
1.05187
1.08187
1.15139
1.30891
1.76463
2.72413
2.72939
2.68325
2.68877
2.7435
2.78919
2.80527
2.77771
2.70612
2.72886
2.72054
1.01408
1.02111
1.0262
1.02904
1.03176
1.03308
1.03495
1.03637
1.04209
1.05106
1.07892
1.14728
1.29583
1.73684
2.69962
2.71698
2.66307
2.66925
2.72361
2.76908
2.77936
2.75584
2.67136
2.67725
2.63063
0.980335
0.967162
0.956108
0.94634
0.938055
0.930744
0.924593
0.920072
0.919648
0.92587
0.936877
1.00006
1.10278
1.55119
2.44499
2.65709
2.63817
2.60331
2.55698
2.55066
2.56451
2.59578
2.68754
2.81186
2.86873
0.980701
0.966805
0.956476
0.945992
0.93843
0.930364
0.925012
0.9197
0.921043
0.921285
0.944534
0.978888
1.14316
1.52769
2.2983
2.63326
2.61433
2.58141
2.54078
2.54119
2.55882
2.59607
2.69833
2.83086
2.88772
0.980348
0.967202
0.955988
0.946539
0.937789
0.931098
0.924269
0.920416
0.919542
0.925514
0.93434
0.998777
1.09479
1.55439
2.44739
2.65561
2.63741
2.60118
2.56013
2.55762
2.57542
2.61155
2.70892
2.83127
2.88382
0.980701
0.966789
0.95649
0.94599
0.938434
0.930377
0.924999
0.919741
0.921046
0.921477
0.944195
0.980924
1.139
1.50522
2.27652
2.61512
2.60657
2.57519
2.54379
2.54603
2.56735
2.60468
2.70514
2.83089
2.88105
0.980685
0.966817
0.956466
0.946008
0.938415
0.930388
0.924979
0.919798
0.921004
0.92237
0.943659
0.982269
1.13368
1.48261
2.26581
2.60565
2.60069
2.56978
2.54071
2.54288
2.56458
2.60107
2.7004
2.82913
2.87838
0.980658
0.966844
0.956445
0.946006
0.938408
0.930366
0.924999
0.919664
0.920723
0.921231
0.942677
0.978112
1.12808
1.47573
2.23847
2.58819
2.58506
2.5565
2.52896
2.5319
2.55439
2.59057
2.68918
2.821
2.872
0.98012
0.967396
0.955841
0.946653
0.937675
0.931073
0.92411
0.92036
0.919293
0.924744
0.934174
0.991854
1.08215
1.49904
2.34005
2.58647
2.58337
2.55542
2.52493
2.52694
2.54811
2.58049
2.6716
2.8069
2.8622
0.980109
0.967261
0.955941
0.946443
0.937807
0.930931
0.92423
0.920368
0.919399
0.924278
0.934687
0.988061
1.07645
1.46963
2.29025
2.56849
2.56942
2.54474
2.51743
2.51944
2.54047
2.57302
2.65241
2.78781
2.84187
0.979272
0.968145
0.955052
0.947398
0.936986
0.931884
0.923484
0.921248
0.918498
0.923603
0.933205
0.984349
1.06675
1.4492
2.24975
2.54003
2.54622
2.51861
2.49847
2.5017
2.5242
2.55848
2.63663
2.74892
2.79904
0.979079
0.968455
0.954787
0.947754
0.936727
0.932185
0.923253
0.921347
0.917791
0.922578
0.930952
0.979931
1.05878
1.41296
2.19991
2.50821
2.52359
2.49793
2.48017
2.48243
2.5006
2.53011
2.60226
2.70026
2.69723
0.981015
0.966619
0.956613
0.945914
0.938572
0.930244
0.925064
0.919172
0.918715
0.919142
0.934778
0.959933
1.08389
1.33195
1.99397
2.46457
2.49679
2.4769
2.46759
2.47026
2.4849
2.5012
2.5493
2.59445
2.51717
0.979459
0.968152
0.95513
0.947496
0.937028
0.931839
0.923482
0.920643
0.916615
0.920697
0.927154
0.9699
1.04194
1.34061
2.0542
2.40498
2.45786
2.44575
2.43827
2.44123
2.44936
2.46963
2.50107
2.49868
2.42343
0.980896
0.966637
0.956709
0.945769
0.938639
0.930055
0.925092
0.918661
0.917568
0.91728
0.930619
0.950829
1.05346
1.2369
1.82282
2.34
2.43453
2.43427
2.42416
2.41738
2.41722
2.42696
2.44354
2.43345
2.38565
0.979812
0.967673
0.955545
0.947021
0.937367
0.931471
0.923783
0.920038
0.915893
0.918621
0.924889
0.95582
1.02005
1.22862
1.81632
2.25572
2.38634
2.40481
2.40128
2.39536
2.39285
2.39905
2.40048
2.38853
2.35076
0.979796
0.967651
0.95563
0.946816
0.937564
0.931213
0.923955
0.919606
0.915304
0.917335
0.922041
0.947323
0.996809
1.15801
1.67316
2.13339
2.34041
2.35942
2.36053
2.35675
2.35936
2.36956
2.36813
2.35471
2.321
0.980921
0.966746
0.956337
0.946331
0.937999
0.930717
0.924538
0.918882
0.915382
0.914939
0.920667
0.932414
0.98318
1.07429
1.42868
2.06558
2.29126
2.30659
2.31627
2.30542
2.30425
2.30957
2.30905
2.30011
2.27518
0.980919
0.966484
0.956889
0.945527
0.938968
0.929839
0.925245
0.918298
0.915621
0.914316
0.917608
0.926977
0.965802
1.03972
1.31421
1.94331
2.26078
2.30503
2.30353
2.29135
2.27738
2.27145
2.2641
2.2517
2.23354
0.980754
0.96674
0.956649
0.945746
0.938684
0.930031
0.924997
0.918277
0.915556
0.913207
0.915882
0.924241
0.951958
1.02189
1.2196
1.78692
2.1825
2.28692
2.29286
2.28245
2.27012
2.25435
2.24032
2.22105
2.19263
0.980412
0.967119
0.956332
0.946051
0.938525
0.930173
0.924982
0.918301
0.91521
0.912048
0.914208
0.920136
0.940141
0.998269
1.13078
1.61501
2.03355
2.22357
2.25198
2.26229
2.25456
2.2406
2.22793
2.20854
2.1798
0.979569
0.967907
0.955483
0.946851
0.937807
0.930783
0.924402
0.918942
0.914098
0.911229
0.910845
0.915907
0.926469
0.97049
1.05127
1.35907
1.92876
2.16286
2.20427
2.21895
2.21356
2.20329
2.19206
2.17904
2.1515
0.980911
0.966515
0.956738
0.945665
0.938721
0.929968
0.925023
0.918198
0.914705
0.909859
0.910259
0.910384
0.922491
0.946025
1.02441
1.2101
1.65288
2.08583
2.18628
2.20018
2.19668
2.18166
2.16332
2.14246
2.11981
0.980118
0.967471
0.955659
0.946859
0.937454
0.931289
0.923785
0.919362
0.913568
0.910802
0.907877
0.91019
0.914974
0.935647
0.9851
1.11045
1.52238
1.92658
2.12928
2.15882
2.17204
2.16237
2.14802
2.12578
2.09319
0.980362
0.967297
0.956022
0.946462
0.937984
0.930699
0.924393
0.918737
0.914149
0.909818
0.907481
0.907208
0.911525
0.923176
0.95796
1.04023
1.29589
1.80436
2.05056
2.10871
2.12684
2.12506
2.11692
2.1034
2.07916
0.980656
0.966803
0.956522
0.945844
0.938585
0.930089
0.924988
0.918199
0.914669
0.909303
0.907518
0.905854
0.90805
0.914867
0.939827
0.99051
1.15831
1.59811
1.96458
2.08749
2.10333
2.10124
2.08847
2.06945
2.05526
0.980544
0.967022
0.956235
0.946282
0.938205
0.930511
0.924736
0.918439
0.914392
0.909599
0.906691
0.90459
0.906015
0.910233
0.924523
0.96201
1.05322
1.37249
1.76006
2.02056
2.07537
2.08239
2.07647
2.05649
2.02644
0.980625
0.966956
0.956362
0.9461
0.938358
0.930343
0.924707
0.918485
0.914231
0.909589
0.906423
0.90357
0.904459
0.90597
0.914544
0.93844
0.997881
1.15579
1.53416
1.90413
2.03296
2.05053
2.05107
2.03946
2.0127
0.980469
0.967002
0.956274
0.946135
0.938283
0.930404
0.924695
0.918475
0.914372
0.909432
0.906557
0.903008
0.90238
0.902842
0.907882
0.92273
0.959572
1.04789
1.30296
1.76686
1.96862
2.01454
2.01778
2.01382
1.99617
0.980241
0.967275
0.95603
0.946463
0.938004
0.930751
0.924391
0.918806
0.914059
0.909728
0.906256
0.902977
0.901206
0.901018
0.903984
0.912366
0.935684
0.989591
1.15461
1.54468
1.87479
1.99096
1.99864
1.99673
1.98198
0.980413
0.967042
0.956267
0.94621
0.938223
0.930556
0.924551
0.918656
0.914178
0.909633
0.906286
0.902859
0.900885
0.900062
0.901242
0.906478
0.917518
0.957327
1.03311
1.33597
1.67012
1.91986
1.97137
1.9708
1.96563
0.980591
0.96691
0.956324
0.946157
0.938211
0.930533
0.924544
0.918633
0.914178
0.90963
0.90622
0.902893
0.900457
0.89863
0.899377
0.901528
0.908742
0.931126
0.978932
1.12076
1.42727
1.79432
1.9227
1.94143
1.94103
0.980449
0.967003
0.956279
0.94615
0.938258
0.930468
0.924584
0.918612
0.914172
0.909615
0.906281
0.902794
0.900393
0.898
0.897702
0.898206
0.90241
0.914248
0.945279
1.01266
1.22836
1.62832
1.83876
1.90277
1.91051
0.980383
0.967148
0.956122
0.946353
0.938057
0.930694
0.924395
0.918816
0.914031
0.90975
0.90618
0.902862
0.900274
0.89778
0.896556
0.896406
0.898769
0.905202
0.922641
0.961722
1.07786
1.38041
1.72422
1.86623
1.88744
0.980363
0.967181
0.956104
0.946366
0.938083
0.930631
0.924489
0.918691
0.914133
0.909652
0.906236
0.902815
0.900296
0.897652
0.896271
0.89546
0.896313
0.900134
0.907997
0.935936
0.989688
1.17206
1.46798
1.76443
1.85575
0.980428
0.967054
0.956237
0.946197
0.938245
0.930472
0.924627
0.918572
0.914231
0.909571
0.9063
0.902766
0.900308
0.897637
0.895909
0.894331
0.894763
0.896224
0.900904
0.914664
0.948142
1.02991
1.23196
1.6068
1.78947
0.9803
0.967174
0.95612
0.946326
0.938121
0.93062
0.924492
0.918722
0.914108
0.909694
0.906213
0.902836
0.900267
0.897654
0.895828
0.894014
0.893579
0.893958
0.896329
0.904301
0.921464
0.965354
1.08605
1.38017
1.68157
0.980344
0.967171
0.956102
0.946374
0.938043
0.930708
0.924378
0.918826
0.913987
0.909799
0.906097
0.902953
0.900142
0.897771
0.895702
0.893932
0.892826
0.892779
0.893846
0.898571
0.906143
0.937563
0.986869
1.18849
1.4403
0.98039
0.96711
0.956167
0.946293
0.938128
0.930611
0.924473
0.918731
0.914072
0.909722
0.906158
0.902898
0.900192
0.897705
0.895765
0.893805
0.892601
0.891798
0.892215
0.894037
0.898368
0.912796
0.942177
1.02535
1.20374
0.980327
0.967167
0.956108
0.946348
0.93807
0.930663
0.924426
0.918764
0.914059
0.90972
0.906183
0.902871
0.900221
0.897701
0.895741
0.893829
0.892419
0.891224
0.891167
0.891737
0.893867
0.90178
0.91647
0.959232
1.06149
0.980332
0.967178
0.9561
0.946374
0.938048
0.930702
0.924385
0.918817
0.913996
0.909785
0.906112
0.90293
0.900165
0.897743
0.895703
0.89384
0.892386
0.891002
0.890358
0.890383
0.891444
0.895513
0.902568
0.927895
0.973534
0.98035
0.967151
0.956128
0.946338
0.938086
0.93066
0.924427
0.918775
0.914038
0.909741
0.906159
0.902878
0.900216
0.897696
0.895732
0.893827
0.892368
0.890954
0.890044
0.889619
0.889959
0.891734
0.895127
0.908009
0.932535
0.980324
0.967175
0.9561
0.946363
0.938056
0.930686
0.924404
0.918789
0.914039
0.909731
0.906183
0.902856
0.900242
0.897673
0.895763
0.893792
0.892398
0.890914
0.889913
0.889023
0.889122
0.889426
0.891529
0.897036
0.910782
0.980315
0.967195
0.956083
0.946388
0.938036
0.930711
0.924381
0.918819
0.913999
0.909782
0.906114
0.902932
0.900156
0.897755
0.895686
0.893856
0.892347
0.890941
0.889867
0.888844
0.888382
0.888438
0.889209
0.892463
0.897515
0.980336
0.96717
0.956107
0.946361
0.938061
0.930682
0.924408
0.918786
0.914036
0.909738
0.906166
0.902876
0.900212
0.897704
0.895724
0.893829
0.892356
0.890936
0.88985
0.888794
0.888123
0.887789
0.888045
0.889308
0.891847
0.980305
0.967195
0.956084
0.946381
0.938044
0.930703
0.924391
0.918811
0.914013
0.909767
0.906138
0.902905
0.900188
0.897724
0.895712
0.893834
0.892359
0.890927
0.88986
0.88877
0.888025
0.887353
0.887391
0.887755
0.888933
0.980321
0.967185
0.956093
0.946375
0.938051
0.930693
0.924402
0.9188
0.914022
0.909762
0.906137
0.902912
0.900173
0.897745
0.895684
0.893868
0.892319
0.890969
0.889818
0.888798
0.887981
0.887219
0.886857
0.886848
0.887401
0.980316
0.967191
0.956089
0.946378
0.938049
0.930693
0.924401
0.918794
0.914026
0.909752
0.906144
0.902902
0.900182
0.897731
0.8957
0.893847
0.892344
0.890946
0.889835
0.888789
0.887974
0.887196
0.886675
0.886395
0.886554
0.980291
0.967218
0.95606
0.946409
0.938017
0.930725
0.924373
0.918822
0.914005
0.909771
0.906132
0.902913
0.900175
0.897743
0.89569
0.893861
0.892333
0.890958
0.889829
0.888795
0.887967
0.887194
0.886599
0.886114
0.886025
0.980315
0.967195
0.956084
0.946386
0.93804
0.930703
0.92439
0.918808
0.914012
0.909767
0.906131
0.902914
0.900171
0.897743
0.895686
0.893862
0.892326
0.89096
0.889821
0.888799
0.887957
0.887199
0.886575
0.886039
0.885692
0.980305
0.967199
0.956078
0.946387
0.938036
0.930704
0.924389
0.918805
0.914018
0.909759
0.906142
0.902903
0.900184
0.897734
0.895696
0.893858
0.892333
0.89096
0.889828
0.888797
0.887968
0.88719
0.886587
0.886008
0.885605
0.98029
0.967215
0.956064
0.946401
0.938025
0.930715
0.924382
0.918813
0.914015
0.909764
0.906142
0.902907
0.900185
0.897737
0.895698
0.893858
0.892336
0.890957
0.889828
0.888795
0.887963
0.887189
0.886579
0.886004
0.885567
1.01393
1.02137
1.02597
1.02932
1.03148
1.03341
1.03459
1.03655
1.03999
1.05214
1.07539
1.13172
1.30779
1.69424
2.59846
2.71581
2.65984
2.67043
2.71659
2.74762
2.74885
2.72718
2.62659
2.58207
2.45013
1.0138
1.02143
1.02588
1.02941
1.03144
1.03346
1.03453
1.0364
1.03963
1.04972
1.07402
1.12078
1.29517
1.62904
2.51312
2.69856
2.65129
2.66613
2.70786
2.72593
2.72153
2.69881
2.59178
2.50367
2.37411
1.01414
1.02116
1.02621
1.02911
1.0317
1.03315
1.0347
1.03594
1.03902
1.04919
1.06955
1.11593
1.27201
1.58112
2.42344
2.65639
2.65
2.65354
2.68725
2.69927
2.69374
2.67168
2.57444
2.47089
2.33455
1.01412
1.02105
1.02623
1.02899
1.03176
1.03304
1.03477
1.03576
1.03867
1.0462
1.06665
1.10239
1.24563
1.50749
2.2754
2.59585
2.64225
2.64546
2.66927
2.67161
2.6581
2.63305
2.56253
2.45946
2.33375
1.01399
1.02121
1.0261
1.02913
1.03164
1.03315
1.03471
1.03581
1.03903
1.04464
1.06085
1.1041
1.19065
1.47796
2.22228
2.50621
2.61928
2.62199
2.64211
2.64366
2.62656
2.60209
2.54793
2.46028
2.33943
1.01377
1.02147
1.02585
1.02944
1.03137
1.03346
1.03439
1.03599
1.03761
1.04431
1.05586
1.08712
1.17458
1.35518
1.98723
2.43816
2.59097
2.60104
2.62537
2.62628
2.60263
2.56078
2.51882
2.45761
2.35146
1.01371
1.02153
1.02583
1.02946
1.03136
1.03348
1.03434
1.0359
1.0371
1.0425
1.05112
1.07747
1.14143
1.28119
1.67295
2.38749
2.54077
2.56007
2.59037
2.59846
2.58513
2.5402
2.48894
2.44661
2.36709
1.0137
1.02143
1.02599
1.02923
1.03164
1.03318
1.03462
1.03551
1.03703
1.0399
1.04846
1.06993
1.11104
1.2567
1.56127
2.28019
2.51886
2.55202
2.56338
2.57107
2.56071
2.52168
2.46948
2.43232
2.37856
1.01377
1.02153
1.02584
1.02948
1.03136
1.03348
1.03434
1.03571
1.03649
1.03891
1.04593
1.06255
1.09551
1.21286
1.43329
2.06829
2.45564
2.53959
2.53518
2.53991
2.53072
2.50225
2.45767
2.41814
2.38192
1.01396
1.02129
1.02604
1.02924
1.03155
1.03325
1.0345
1.03551
1.03646
1.03805
1.04446
1.05458
1.0853
1.16019
1.33423
1.8339
2.32443
2.50203
2.51687
2.5173
2.51005
2.48495
2.4462
2.40997
2.37759
1.01394
1.02136
1.02601
1.02932
1.03152
1.03332
1.03444
1.03558
1.03629
1.03787
1.04085
1.05123
1.07004
1.12501
1.24783
1.65847
2.1604
2.43331
2.47587
2.47869
2.47177
2.44932
2.41996
2.39048
2.3663
1.01409
1.02116
1.02614
1.02912
1.03163
1.03317
1.03451
1.03548
1.03621
1.03728
1.03943
1.04721
1.06125
1.09833
1.19902
1.43931
1.98689
2.36322
2.44779
2.44878
2.43754
2.4048
2.37839
2.35665
2.33776
1.01402
1.02125
1.0261
1.02917
1.03163
1.03317
1.03459
1.03537
1.03636
1.03699
1.03912
1.04309
1.05384
1.08391
1.14354
1.33032
1.82297
2.22913
2.3882
2.4172
2.41422
2.39017
2.35606
2.33498
2.32091
1.01381
1.02145
1.0259
1.02937
1.03143
1.03336
1.0344
1.03556
1.03615
1.03703
1.0379
1.04171
1.04808
1.06699
1.1152
1.21487
1.52657
2.1085
2.32928
2.36555
2.37337
2.36219
2.33473
2.31124
2.29498
1.01384
1.02142
1.02592
1.02937
1.03144
1.03337
1.03441
1.03557
1.03611
1.03702
1.03763
1.04025
1.04441
1.05842
1.08924
1.15824
1.37327
1.87691
2.24317
2.33478
2.34085
2.33818
2.32213
2.30027
2.28324
1.01389
1.02137
1.02596
1.02931
1.03149
1.03332
1.03444
1.03554
1.03613
1.03694
1.03745
1.03907
1.04167
1.05197
1.06818
1.12196
1.23048
1.60485
2.0514
2.28228
2.30349
2.30559
2.29406
2.27846
2.26386
1.01399
1.02127
1.02605
1.02924
1.03153
1.03329
1.03444
1.03552
1.03614
1.03687
1.03729
1.0382
1.04002
1.04666
1.05789
1.09084
1.16781
1.3671
1.80547
2.1885
2.27527
2.28046
2.27693
2.26159
2.2482
1.01398
1.02125
1.02609
1.02918
1.03162
1.03318
1.03457
1.03538
1.03627
1.03672
1.0374
1.03784
1.03938
1.04219
1.05137
1.06921
1.11969
1.23056
1.60128
1.9964
2.20663
2.23177
2.24143
2.23465
2.21956
1.01386
1.02136
1.02598
1.02929
1.03152
1.03329
1.03448
1.03548
1.03619
1.03681
1.03729
1.03777
1.03842
1.0411
1.04529
1.05865
1.09026
1.15367
1.36978
1.82367
2.12745
2.20589
2.2104
2.20915
2.2008
1.0139
1.02135
1.02598
1.02929
1.0315
1.03332
1.03444
1.03553
1.03613
1.03688
1.03721
1.03782
1.03821
1.03974
1.04213
1.05154
1.06631
1.11529
1.21244
1.54663
1.94214
2.15722
2.17247
2.17906
2.17516
1.01393
1.02133
1.02601
1.02927
1.03152
1.03329
1.03446
1.0355
1.03615
1.03685
1.03723
1.03776
1.03805
1.03888
1.04036
1.04622
1.0553
1.08438
1.14756
1.31203
1.68716
2.04753
2.14307
2.14929
2.15614
1.01398
1.02125
1.02608
1.02918
1.03161
1.03319
1.03455
1.03541
1.03624
1.03676
1.03731
1.03766
1.03805
1.03839
1.03931
1.04284
1.04798
1.06536
1.10214
1.18894
1.42629
1.87373
2.07905
2.10907
2.1212
1.01388
1.02135
1.02599
1.02927
1.03154
1.03326
1.0345
1.03545
1.03621
1.03678
1.0373
1.03765
1.03805
1.03831
1.03882
1.04088
1.04382
1.05474
1.07481
1.12691
1.26471
1.62045
1.9665
2.07892
2.09089
1.01389
1.02135
1.02599
1.02928
1.03152
1.03329
1.03446
1.0355
1.03615
1.03685
1.03723
1.03773
1.03796
1.03838
1.03865
1.0397
1.04139
1.04786
1.05827
1.09208
1.15895
1.37113
1.72617
1.99718
2.06128
1.01395
1.0213
1.02604
1.02924
1.03156
1.03326
1.03449
1.03548
1.03617
1.03683
1.03724
1.03772
1.03797
1.03834
1.03853
1.03903
1.04
1.04383
1.04934
1.06881
1.10445
1.2079
1.42488
1.84478
2.01266
1.01395
1.02128
1.02605
1.02921
1.03159
1.03321
1.03454
1.03542
1.03623
1.03676
1.03731
1.03764
1.03805
1.03825
1.0386
1.03879
1.03952
1.04088
1.04538
1.05385
1.07718
1.13031
1.2709
1.57247
1.90222
1.0139
1.02134
1.02599
1.02928
1.03152
1.03328
1.03447
1.03549
1.03617
1.03682
1.03725
1.0377
1.038
1.0383
1.03853
1.03875
1.03903
1.04008
1.04188
1.04797
1.0586
1.09252
1.15424
1.38529
1.66203
1.01395
1.02129
1.02604
1.02923
1.03156
1.03325
1.0345
1.03547
1.03618
1.03682
1.03725
1.03771
1.03797
1.03833
1.03849
1.03877
1.03891
1.0393
1.04065
1.04306
1.05022
1.06499
1.10308
1.19067
1.44681
1.01396
1.02128
1.02605
1.02921
1.03158
1.03322
1.03453
1.03542
1.03623
1.03676
1.03731
1.03765
1.03804
1.03827
1.03855
1.03871
1.03893
1.03912
1.03986
1.04102
1.04543
1.05234
1.07545
1.1185
1.2489
1.01391
1.02133
1.026
1.02926
1.03153
1.03327
1.03448
1.03547
1.03618
1.03681
1.03727
1.03768
1.03801
1.03829
1.03854
1.03872
1.03892
1.03904
1.0393
1.04025
1.04177
1.04707
1.05622
1.08385
1.13916
1.01392
1.02132
1.02601
1.02926
1.03154
1.03327
1.03449
1.03547
1.03618
1.03682
1.03726
1.0377
1.03799
1.03832
1.0385
1.03875
1.03887
1.03908
1.0392
1.03964
1.04039
1.04331
1.0477
1.0625
1.09088
1.01395
1.02129
1.02605
1.02922
1.03158
1.03323
1.03452
1.03543
1.03622
1.03677
1.0373
1.03766
1.03803
1.03827
1.03854
1.03871
1.03891
1.03903
1.03919
1.03933
1.03987
1.04083
1.04394
1.04977
1.06582
1.01391
1.02132
1.02601
1.02926
1.03154
1.03326
1.03449
1.03547
1.03619
1.0368
1.03727
1.03768
1.03801
1.03829
1.03853
1.03872
1.0389
1.03903
1.03918
1.03927
1.03946
1.04019
1.04127
1.04538
1.05175
1.01392
1.02132
1.02602
1.02925
1.03154
1.03326
1.03449
1.03547
1.03619
1.03681
1.03726
1.03769
1.03799
1.03831
1.03851
1.03874
1.03888
1.03906
1.03914
1.03929
1.03938
1.0397
1.04023
1.04239
1.04546
1.01393
1.02131
1.02603
1.02924
1.03156
1.03324
1.03451
1.03544
1.03621
1.03679
1.03729
1.03767
1.03802
1.03829
1.03853
1.03872
1.0389
1.03904
1.03916
1.03928
1.03935
1.03946
1.03975
1.04079
1.04228
1.01391
1.02132
1.02601
1.02926
1.03154
1.03326
1.03449
1.03547
1.03619
1.03681
1.03727
1.03769
1.038
1.0383
1.03852
1.03874
1.03889
1.03905
1.03916
1.03927
1.03935
1.03944
1.03956
1.04005
1.04074
1.01394
1.0213
1.02604
1.02923
1.03156
1.03324
1.03451
1.03544
1.03621
1.03679
1.03728
1.03767
1.03802
1.03829
1.03853
1.03873
1.03889
1.03904
1.03916
1.03927
1.03935
1.03944
1.0395
1.03964
1.04015
1.01392
1.02132
1.02602
1.02925
1.03155
1.03325
1.0345
1.03546
1.0362
1.03679
1.03728
1.03768
1.03802
1.03829
1.03853
1.03872
1.0389
1.03903
1.03917
1.03926
1.03936
1.03943
1.0395
1.03957
1.03974
1.01393
1.02131
1.02602
1.02924
1.03155
1.03325
1.0345
1.03546
1.0362
1.0368
1.03728
1.03768
1.03801
1.03829
1.03852
1.03873
1.0389
1.03904
1.03917
1.03926
1.03936
1.03943
1.03951
1.03955
1.03962
1.01394
1.0213
1.02603
1.02923
1.03156
1.03324
1.03451
1.03545
1.03621
1.03679
1.03728
1.03767
1.03802
1.03829
1.03853
1.03873
1.03889
1.03904
1.03916
1.03927
1.03935
1.03944
1.03949
1.03956
1.0396
1.0058
1.0132
1.02099
1.02849
1.03517
1.04111
1.04639
1.05148
1.05792
1.07317
1.10218
1.16886
1.36457
1.81035
2.73269
2.71581
2.69994
2.72354
2.71718
2.5895
2.55561
2.64353
2.59317
2.51313
2.31314
1.00576
1.01322
1.02096
1.02854
1.03517
1.04112
1.04639
1.05134
1.05761
1.07187
1.09904
1.16185
1.34672
1.75701
2.66816
2.70681
2.69007
2.7171
2.70648
2.57845
2.51468
2.58214
2.54938
2.45939
2.2659
1.00578
1.01327
1.02089
1.02854
1.03502
1.04115
1.04615
1.05127
1.05674
1.0676
1.09529
1.16136
1.29057
1.71489
2.65893
2.67611
2.66428
2.70712
2.6981
2.57915
2.48796
2.52936
2.51142
2.4397
2.27423
1.00496
1.01408
1.0201
1.02938
1.03431
1.04195
1.04557
1.05188
1.05585
1.06647
1.09063
1.15001
1.26268
1.64874
2.59007
2.63468
2.66115
2.68563
2.68039
2.58555
2.45395
2.46686
2.463
2.42502
2.3002
1.0061
1.01278
1.02137
1.0281
1.03551
1.04077
1.04656
1.05086
1.05636
1.06519
1.08661
1.12566
1.26301
1.52027
2.37113
2.59738
2.66394
2.67559
2.66734
2.6027
2.4491
2.42898
2.41544
2.39279
2.32508
1.00542
1.01357
1.0206
1.02887
1.03479
1.04144
1.04591
1.05141
1.05563
1.06512
1.08016
1.1204
1.2211
1.44025
2.16757
2.53243
2.65478
2.66005
2.65404
2.61791
2.46637
2.38583
2.37693
2.35762
2.31865
1.0053
1.01368
1.0205
1.02903
1.03468
1.04163
1.04579
1.05149
1.05502
1.063
1.07473
1.10837
1.18056
1.35401
1.90369
2.45314
2.61276
2.63281
2.63294
2.61441
2.50235
2.38924
2.33012
2.32023
2.29974
1.00597
1.01326
1.02083
1.02879
1.03479
1.04148
1.04579
1.05137
1.05456
1.06106
1.07074
1.09866
1.15904
1.29099
1.69033
2.45597
2.59114
2.59509
2.61746
2.60568
2.5489
2.41046
2.33092
2.27785
2.26781
1.00601
1.0129
1.02126
1.02816
1.0355
1.04069
1.04665
1.05036
1.05538
1.05898
1.06818
1.08856
1.1411
1.23411
1.58867
2.36871
2.54373
2.59418
2.59708
2.58884
2.55747
2.46527
2.3475
2.27935
2.23123
1.00621
1.01286
1.0213
1.02822
1.03541
1.04085
1.04648
1.05057
1.05508
1.05892
1.06725
1.08171
1.11819
1.2148
1.42275
2.11581
2.44695
2.58188
2.58324
2.57783
2.55379
2.50675
2.39454
2.29461
2.2331
1.00555
1.01324
1.02101
1.02831
1.03542
1.04073
1.04657
1.05041
1.05508
1.05821
1.06466
1.07537
1.1026
1.17082
1.31188
1.71067
2.3807
2.52873
2.54597
2.54844
2.53836
2.50772
2.45377
2.33603
2.24822
1.00584
1.01313
1.02106
1.0284
1.03526
1.04095
1.04631
1.05067
1.05468
1.0583
1.06276
1.07295
1.09134
1.1376
1.26444
1.5409
2.25328
2.499
2.51608
2.50431
2.49825
2.48735
2.45676
2.39536
2.28035
1.0057
1.0133
1.02088
1.02857
1.03509
1.04112
1.04622
1.05081
1.05467
1.05825
1.06192
1.06879
1.08352
1.1143
1.21086
1.39785
1.94017
2.41261
2.49586
2.48783
2.47068
2.45958
2.44558
2.41327
2.34321
1.00556
1.01345
1.02076
1.02871
1.03502
1.04116
1.04623
1.05073
1.05466
1.05806
1.06132