/*--------------------------------*- C++ -*----------------------------------*\
  =========                 |
  \\      /  F ield         | OpenFOAM: The Open Source CFD Toolbox
   \\    /   O peration     | Website:  https://openfoam.org
    \\  /    A nd           | Version:  6
     \\/     M anipulation  |
\*---------------------------------------------------------------------------*/
FoamFile
{
    version     2.0;
    format      ascii;
    class       volVectorField;
    location    "1.5";
    object      U;
}
// * * * * * * * * * * * * * * * * * * * * * * * * * * * * * * * * * * * * * //

dimensions      [0 1 -1 0 0 0 0];

internalField   nonuniform List<vector> 
26250
(
(3.01561 2.12104e-07 -0.0579727)
(3.02577 3.96893e-07 -0.0597665)
(3.03428 8.838e-08 -0.0611307)
(3.04139 6.66288e-07 -0.0622685)
(3.04763 -2.76455e-07 -0.0631591)
(3.0527 8.7895e-07 -0.0640153)
(3.05732 -5.77342e-07 -0.064582)
(3.06007 2.40828e-06 -0.0654241)
(3.05898 6.17458e-06 -0.0659677)
(3.05686 3.04783e-05 -0.0674563)
(3.03949 5.90823e-05 -0.0698161)
(3.00764 0.000228078 -0.0772006)
(2.87841 0.000494642 -0.0907633)
(2.51903 0.00190138 -0.133263)
(1.63128 0.00480823 -0.22748)
(0.821138 0.0130934 -0.27338)
(0.869174 0.0152877 -0.258023)
(0.973386 0.0132219 -0.24644)
(1.04769 0.0124268 -0.249965)
(1.05156 0.0118869 -0.253867)
(1.02193 0.0116713 -0.256792)
(0.94318 0.0117177 -0.260294)
(0.796566 0.0122398 -0.268449)
(0.554526 0.013708 -0.275077)
(0.337916 0.0156395 -0.274542)
(3.01561 1.76727e-06 -0.0579731)
(3.02576 4.65072e-07 -0.0597662)
(3.03428 7.61294e-07 -0.0611308)
(3.04139 6.98477e-07 -0.062268)
(3.04763 -9.08979e-07 -0.0631593)
(3.0527 2.18961e-06 -0.0640152)
(3.05732 -2.69848e-06 -0.0645825)
(3.06008 1.12e-05 -0.0654235)
(3.059 2.80653e-05 -0.065966)
(3.05691 0.00011411 -0.0674513)
(3.03965 0.000223977 -0.0697932)
(3.008 0.000670886 -0.0771786)
(2.87969 0.00140375 -0.0906298)
(2.52308 0.00438945 -0.133047)
(1.64594 0.0110822 -0.226794)
(0.851578 0.0284933 -0.271401)
(0.883438 0.0365312 -0.25658)
(0.981586 0.037407 -0.244526)
(1.05466 0.0383392 -0.248676)
(1.05711 0.0388423 -0.252964)
(1.02582 0.0395623 -0.255992)
(0.944847 0.0405238 -0.259687)
(0.795826 0.0425438 -0.267948)
(0.549458 0.047381 -0.274144)
(0.327057 0.0510595 -0.273526)
(3.01561 8.03742e-06 -0.0579738)
(3.02576 -3.90486e-06 -0.0597653)
(3.03428 4.60457e-06 -0.0611311)
(3.04139 -7.97697e-06 -0.0622672)
(3.04763 3.98469e-06 -0.0631599)
(3.0527 -8.14319e-06 -0.0640154)
(3.05733 2.0779e-06 -0.0645826)
(3.0601 2.5229e-05 -0.0654216)
(3.05906 6.05033e-05 -0.0659621)
(3.05703 0.000365162 -0.0674388)
(3.03994 0.000769302 -0.0697628)
(3.00863 0.00175798 -0.0771118)
(2.88117 0.00355226 -0.0904334)
(2.52722 0.0069393 -0.132778)
(1.65471 0.016591 -0.226015)
(0.855848 0.0417994 -0.271134)
(0.883387 0.0572023 -0.255993)
(0.980043 0.0650049 -0.243458)
(1.05219 0.0700217 -0.247766)
(1.05362 0.0736984 -0.251989)
(1.01915 0.0775102 -0.255323)
(0.935242 0.08137 -0.259005)
(0.786962 0.0862985 -0.266937)
(0.540442 0.0951918 -0.272496)
(0.316975 0.0980654 -0.271611)
(3.01561 1.41079e-05 -0.0579796)
(3.02576 -1.14914e-05 -0.0597585)
(3.03427 1.57643e-05 -0.0611362)
(3.04139 -2.76316e-05 -0.0622606)
(3.04763 3.4511e-05 -0.0631683)
(3.0527 -6.45566e-05 -0.0640086)
(3.05735 9.26573e-05 -0.0645894)
(3.06013 -0.000163625 -0.0654095)
(3.05928 0.000237546 -0.0659457)
(3.05749 0.00145418 -0.0674372)
(3.04078 -0.00180935 -0.0696191)
(3.01046 0.00990636 -0.077027)
(2.88333 -0.00912502 -0.0898446)
(2.53915 0.0404124 -0.132325)
(1.6695 0.0256781 -0.225467)
(0.88323 0.0694306 -0.269608)
(0.900975 0.0902256 -0.254566)
(0.991288 0.10346 -0.241613)
(1.0596 0.110493 -0.246036)
(1.05936 0.11627 -0.250044)
(1.02053 0.123315 -0.253614)
(0.933265 0.130716 -0.256962)
(0.787905 0.138532 -0.264534)
(0.541589 0.150076 -0.26923)
(0.314461 0.151568 -0.268024)
(3.01561 -1.83125e-05 -0.057993)
(3.02576 3.37179e-06 -0.059743)
(3.03426 1.1952e-06 -0.061154)
(3.0414 -5.90141e-06 -0.0622421)
(3.04761 2.00956e-05 -0.0631902)
(3.05275 -2.9053e-05 -0.0639772)
(3.05725 4.7436e-05 -0.0646304)
(3.06021 -7.82466e-05 -0.0653369)
(3.0604 4.13385e-05 -0.0660575)
(3.0553 0.000442556 -0.067386)
(3.04654 0.000948672 -0.0691703)
(3.00274 0.00243805 -0.0774102)
(2.89749 0.00538201 -0.0883044)
(2.57326 0.0122012 -0.133907)
(1.68534 0.0320129 -0.214184)
(0.92377 0.0815388 -0.265187)
(0.928806 0.112012 -0.251618)
(1.01073 0.128824 -0.238634)
(1.07033 0.141106 -0.242975)
(1.06642 0.153073 -0.246788)
(1.02437 0.16699 -0.250798)
(0.93532 0.181239 -0.253834)
(0.790394 0.194951 -0.261045)
(0.54136 0.21011 -0.265515)
(0.309612 0.211196 -0.264049)
(3.01561 -4.5128e-07 -0.057933)
(3.02578 -6.12058e-06 -0.0598128)
(3.03427 3.13129e-07 -0.0610871)
(3.0414 -9.61235e-06 -0.0623159)
(3.04762 8.5621e-06 -0.06312)
(3.05272 -1.2792e-05 -0.0640513)
(3.05731 2.52631e-05 -0.0645471)
(3.06012 -5.68908e-06 -0.0654429)
(3.05971 0.00012134 -0.0658869)
(3.05824 0.000288354 -0.0674319)
(3.04239 0.000801881 -0.069369)
(3.01414 0.00163351 -0.076756)
(2.89049 0.00515062 -0.0883762)
(2.56623 0.0137182 -0.130809)
(1.72924 0.0400091 -0.22015)
(0.968186 0.106745 -0.264686)
(0.956538 0.140933 -0.250272)
(1.02845 0.158881 -0.236834)
(1.08549 0.175002 -0.240763)
(1.07975 0.192164 -0.244172)
(1.0356 0.212459 -0.247885)
(0.947022 0.233681 -0.250081)
(0.802087 0.255275 -0.256222)
(0.548888 0.276907 -0.260754)
(0.31075 0.280149 -0.25915)
(3.0156 -1.09269e-05 -0.0579968)
(3.02577 -2.68846e-06 -0.0597385)
(3.03426 -7.1471e-06 -0.0611575)
(3.04141 2.5043e-06 -0.0622377)
(3.0476 3.24204e-06 -0.0631944)
(3.05276 5.24663e-06 -0.0639708)
(3.05726 2.32808e-05 -0.0646373)
(3.06029 -7.39019e-06 -0.0653214)
(3.06064 0.00010585 -0.0660449)
(3.05587 0.000237614 -0.067316)
(3.04764 0.000441822 -0.0690167)
(3.00634 0.0018565 -0.0769426)
(2.90738 0.00476805 -0.0869512)
(2.60074 0.0165287 -0.131495)
(1.76763 0.0525342 -0.206646)
(1.02082 0.134151 -0.260386)
(0.988408 0.169342 -0.246568)
(1.05227 0.193282 -0.233359)
(1.10379 0.212612 -0.237371)
(1.09613 0.234366 -0.240659)
(1.05165 0.260195 -0.244299)
(0.965787 0.288095 -0.246007)
(0.821733 0.319684 -0.250948)
(0.564455 0.352665 -0.254954)
(0.319066 0.365 -0.252917)
(3.01561 -4.76023e-05 -0.0579283)
(3.02578 1.78106e-05 -0.059814)
(3.03427 -1.79521e-05 -0.0610802)
(3.04141 3.43617e-05 -0.0623189)
(3.04762 -7.6169e-06 -0.0631074)
(3.05274 5.00282e-05 -0.0640658)
(3.0573 -2.88199e-05 -0.064533)
(3.06019 9.56802e-05 -0.0654516)
(3.05991 -0.00011478 -0.0659)
(3.05852 -0.000643954 -0.0672943)
(3.04374 0.00326791 -0.0692363)
(3.01764 -0.00463733 -0.0761866)
(2.90323 0.0193561 -0.0868428)
(2.60404 -0.00773725 -0.127859)
(1.83839 0.0610943 -0.211881)
(1.0604 0.154112 -0.260341)
(1.01744 0.195306 -0.244223)
(1.07461 0.224652 -0.231006)
(1.12196 0.247198 -0.234291)
(1.11437 0.274722 -0.23727)
(1.0719 0.306888 -0.240324)
(0.991569 0.342654 -0.241475)
(0.852404 0.387011 -0.2451)
(0.593993 0.439192 -0.247811)
(0.340577 0.477363 -0.244552)
(3.01561 -8.9222e-07 -0.0579175)
(3.02579 1.3416e-06 -0.0598235)
(3.03427 7.60713e-06 -0.0610734)
(3.04142 -4.64393e-06 -0.0623297)
(3.04762 2.02873e-05 -0.0631022)
(3.05275 -2.58801e-05 -0.064076)
(3.05729 5.53173e-05 -0.0645291)
(3.06022 -5.30842e-05 -0.0654548)
(3.06003 0.000264149 -0.0658881)
(3.05869 0.000696957 -0.0672241)
(3.0446 0.00122757 -0.0691817)
(3.01968 0.00358948 -0.075785)
(2.91184 0.00735849 -0.0861216)
(2.62566 0.0272154 -0.125471)
(1.91162 0.0677019 -0.206374)
(1.12148 0.184603 -0.257342)
(1.05768 0.230932 -0.240481)
(1.10404 0.263213 -0.227889)
(1.14535 0.285543 -0.230355)
(1.13827 0.316741 -0.233295)
(1.09895 0.35379 -0.235623)
(1.0267 0.397523 -0.236071)
(0.899175 0.456922 -0.238799)
(0.649444 0.539141 -0.239319)
(0.388294 0.637648 -0.23314)
(3.01561 6.1766e-05 -0.0579172)
(3.02579 -2.09748e-05 -0.0598274)
(3.03427 3.19629e-05 -0.0610704)
(3.04142 -4.75693e-05 -0.0623342)
(3.0476 3.15568e-05 -0.0631027)
(3.05277 -8.27432e-05 -0.0640725)
(3.05728 8.50493e-05 -0.0645395)
(3.06036 -0.000101664 -0.0654242)
(3.06053 0.000490978 -0.0658877)
(3.05931 0.00147386 -0.0671813)
(3.04607 -0.000468096 -0.0689129)
(3.02278 0.0108769 -0.0753703)
(2.92153 -0.00300091 -0.0849372)
(2.65673 0.0586419 -0.122495)
(1.97042 0.0690615 -0.201031)
(1.20396 0.202385 -0.253057)
(1.11993 0.259133 -0.235795)
(1.14904 0.29932 -0.225054)
(1.18028 0.323958 -0.226086)
(1.17236 0.358633 -0.229088)
(1.13731 0.399315 -0.230442)
(1.07558 0.451446 -0.229993)
(0.970386 0.5308 -0.230914)
(0.755603 0.659921 -0.229176)
(0.487283 0.898666 -0.215918)
(2.98855 -4.24622e-08 -0.00143324)
(2.98291 4.68541e-07 -0.00328689)
(2.97954 1.05087e-07 -0.00492973)
(2.97738 9.09983e-07 -0.006446)
(2.97598 -7.75211e-08 -0.00768023)
(2.975 1.05928e-06 -0.00889976)
(2.97419 6.89636e-08 -0.00973382)
(2.97284 1.48411e-06 -0.0108174)
(2.96829 7.91823e-06 -0.0112547)
(2.95934 2.26057e-05 -0.0120809)
(2.93074 9.02989e-05 -0.013509)
(2.86818 0.000148315 -0.0161303)
(2.68699 0.000635781 -0.0224627)
(2.12421 0.00118559 -0.0333424)
(0.773208 0.00472392 -0.0625463)
(-0.226475 0.0193994 -0.0649013)
(0.108735 0.023215 -0.0612458)
(0.450201 0.0269851 -0.0584921)
(0.532552 0.0302146 -0.0618082)
(0.465547 0.0340715 -0.064457)
(0.408872 0.0359732 -0.0662716)
(0.287441 0.0378675 -0.0656592)
(0.127415 0.0435236 -0.0629914)
(0.0405984 0.0478339 -0.060504)
(0.171217 0.034056 -0.0553825)
(2.98855 1.12053e-06 -0.00143312)
(2.98291 9.04566e-07 -0.00328707)
(2.97954 1.10843e-06 -0.00492953)
(2.97738 1.44718e-06 -0.00644627)
(2.97598 3.23527e-07 -0.00767997)
(2.975 1.87507e-06 -0.00889991)
(2.97419 4.82727e-07 -0.00973391)
(2.97285 7.06376e-06 -0.0108168)
(2.96831 2.75295e-05 -0.0112569)
(2.95941 8.98242e-05 -0.0120732)
(2.93084 0.000245421 -0.0135363)
(2.86864 0.000591076 -0.0160937)
(2.68775 0.00172795 -0.0225551)
(2.12756 0.00393007 -0.033383)
(0.790334 0.0128822 -0.0627504)
(-0.177792 0.0395524 -0.0653936)
(0.133252 0.05623 -0.0607592)
(0.461298 0.0706578 -0.0577408)
(0.532589 0.0809802 -0.0612863)
(0.450722 0.0906901 -0.0639344)
(0.38956 0.0943884 -0.0658439)
(0.260494 0.0988381 -0.0649907)
(0.0953354 0.110837 -0.0622239)
(0.0180999 0.11803 -0.0596662)
(0.158497 0.0948812 -0.0546162)
(2.98855 5.0616e-06 -0.00143331)
(2.98291 -5.10007e-07 -0.00328689)
(2.97954 3.95324e-06 -0.00492957)
(2.97738 -2.22063e-06 -0.00644614)
(2.97598 2.27812e-06 -0.00767988)
(2.975 -1.97046e-06 -0.00890035)
(2.9742 1.55184e-06 -0.00973299)
(2.97286 1.43235e-05 -0.010819)
(2.96836 5.40428e-05 -0.011254)
(2.95952 0.00018528 -0.012084)
(2.93115 0.000432302 -0.013506)
(2.86943 0.00119295 -0.0161328)
(2.68954 0.00299776 -0.0224527)
(2.13278 0.00708091 -0.0333168)
(0.801543 0.021706 -0.0625824)
(-0.178382 0.059054 -0.0651532)
(0.141204 0.0924883 -0.0604528)
(0.466227 0.120103 -0.0571777)
(0.530093 0.140905 -0.0608232)
(0.44567 0.160356 -0.0635586)
(0.377977 0.167577 -0.065156)
(0.249541 0.17561 -0.0638887)
(0.0859787 0.192474 -0.060883)
(0.0058984 0.199979 -0.0582809)
(0.147127 0.164844 -0.0533125)
(2.98855 9.15977e-06 -0.00143431)
(2.98291 -3.76672e-06 -0.00328523)
(2.97953 9.71585e-06 -0.00493075)
(2.97737 -1.00257e-05 -0.00644426)
(2.97597 1.32547e-05 -0.00768205)
(2.975 -1.683e-05 -0.0088979)
(2.97421 2.14835e-05 -0.00973557)
(2.97289 5.91544e-06 -0.0108193)
(2.96845 0.000130848 -0.0112568)
(2.95971 0.000197492 -0.0120985)
(2.93164 0.00157334 -0.0135626)
(2.87073 0.00133346 -0.0161146)
(2.69222 0.00676153 -0.0225766)
(2.14112 0.0107342 -0.0331206)
(0.830109 0.0291299 -0.0624149)
(-0.141379 0.0856199 -0.0649192)
(0.163174 0.131414 -0.0599955)
(0.476522 0.169712 -0.0565271)
(0.531887 0.200781 -0.0601801)
(0.448068 0.23034 -0.0630629)
(0.374605 0.242248 -0.0640901)
(0.251598 0.254909 -0.0623565)
(0.0939413 0.275117 -0.0592141)
(0.00279649 0.282696 -0.0565641)
(0.138509 0.23717 -0.0515512)
(2.98855 -2.76457e-06 -0.00143558)
(2.98291 -3.54101e-06 -0.00328263)
(2.97953 1.26805e-06 -0.00493402)
(2.97738 -6.826e-06 -0.00643908)
(2.97597 6.66001e-06 -0.00769056)
(2.97501 -1.00016e-05 -0.00888329)
(2.97421 1.20163e-05 -0.00975966)
(2.97296 3.78065e-06 -0.0107741)
(2.96851 5.80482e-05 -0.0113118)
(2.96066 0.000275745 -0.0122185)
(2.93228 0.000827423 -0.013084)
(2.87297 0.00209825 -0.0173459)
(2.69642 0.00628805 -0.020053)
(2.14521 0.0138087 -0.0368178)
(0.824761 0.046454 -0.0604627)
(-0.128224 0.1193 -0.0650544)
(0.176654 0.174512 -0.0597925)
(0.483738 0.218724 -0.0560745)
(0.534351 0.258174 -0.0594641)
(0.455481 0.295954 -0.0624398)
(0.375931 0.314557 -0.0630726)
(0.2601 0.333238 -0.0609301)
(0.11317 0.356269 -0.0574596)
(0.00629215 0.365786 -0.0545497)
(0.130955 0.314057 -0.0495341)
(2.98855 1.01429e-06 -0.00143051)
(2.98291 -3.67579e-06 -0.00328943)
(2.97953 7.28573e-07 -0.00493012)
(2.97738 -6.17172e-06 -0.00644338)
(2.97597 3.86191e-06 -0.00768629)
(2.97501 -5.74371e-06 -0.0088895)
(2.97422 1.0564e-05 -0.00974763)
(2.97293 1.14362e-05 -0.0107962)
(2.96868 7.48088e-05 -0.0112661)
(2.96034 0.000365354 -0.0121087)
(2.9331 0.000919909 -0.0135767)
(2.87529 0.00280125 -0.0160386)
(2.70122 0.00783405 -0.0224793)
(2.17081 0.0181821 -0.0323269)
(0.917236 0.0605971 -0.0614091)
(-0.0490987 0.151848 -0.0645998)
(0.215062 0.215412 -0.0590247)
(0.500215 0.266051 -0.0551514)
(0.542938 0.313637 -0.058606)
(0.466061 0.358756 -0.0615976)
(0.38274 0.386357 -0.0619324)
(0.274548 0.412697 -0.0594417)
(0.140437 0.439911 -0.0556472)
(0.0199524 0.453941 -0.0524025)
(0.125396 0.402723 -0.0471401)
(2.98855 -4.71258e-06 -0.00143604)
(2.98291 -3.12252e-06 -0.00328115)
(2.97953 -4.48331e-06 -0.00493564)
(2.97738 -1.94053e-06 -0.00643671)
(2.97597 7.97395e-07 -0.00769385)
(2.97502 7.15652e-07 -0.00887912)
(2.97422 1.17519e-05 -0.00976499)
(2.97302 1.43563e-05 -0.0107663)
(2.9688 9.16698e-05 -0.0113153)
(2.96137 0.000417818 -0.0121849)
(2.93426 0.00118355 -0.0130514)
(2.87897 0.00322734 -0.0170937)
(2.70866 0.00959099 -0.0197582)
(2.18893 0.0227566 -0.035616)
(0.945712 0.0767068 -0.0591914)
(-0.00405887 0.186217 -0.0649968)
(0.244072 0.258649 -0.0584581)
(0.514139 0.314981 -0.054336)
(0.552436 0.369091 -0.0577138)
(0.478306 0.42066 -0.0605079)
(0.396154 0.458292 -0.0607284)
(0.296394 0.493432 -0.0579934)
(0.176473 0.52744 -0.053671)
(0.045617 0.55063 -0.0498596)
(0.124215 0.50953 -0.0442028)
(2.98855 -1.89579e-05 -0.00142925)
(2.98292 6.01118e-07 -0.00329045)
(2.97953 -1.20496e-05 -0.00492982)
(2.97738 8.79899e-06 -0.00644407)
(2.97598 -4.96349e-06 -0.00768643)
(2.97502 1.5639e-05 -0.00888883)
(2.97423 1.05289e-06 -0.00974967)
(2.973 2.3865e-05 -0.0107868)
(2.96901 5.06464e-05 -0.0112668)
(2.96126 0.00053158 -0.0120533)
(2.93542 0.000499206 -0.0134844)
(2.88261 0.00412803 -0.015742)
(2.71666 0.00873962 -0.0220003)
(2.22532 0.0285136 -0.0309911)
(1.05936 0.0915203 -0.0602683)
(0.0875357 0.221742 -0.0646478)
(0.289865 0.302742 -0.0573945)
(0.533072 0.36313 -0.0533692)
(0.565661 0.423347 -0.056684)
(0.495095 0.481485 -0.0592244)
(0.41795 0.529593 -0.0592962)
(0.32778 0.574714 -0.0563622)
(0.223008 0.619541 -0.0516658)
(0.0874854 0.658855 -0.047273)
(0.132326 0.644084 -0.0408524)
(2.98855 -4.51724e-07 -0.00142742)
(2.98292 3.74624e-06 -0.00329263)
(2.97954 1.18535e-06 -0.00492937)
(2.97739 6.43748e-06 -0.00644512)
(2.97598 1.98862e-06 -0.00768636)
(2.97502 6.14711e-06 -0.00888847)
(2.97424 1.02493e-05 -0.00975041)
(2.97305 3.52667e-05 -0.0107818)
(2.96923 0.00019272 -0.011264)
(2.96179 0.000674812 -0.0120237)
(2.93698 0.00185718 -0.013414)
(2.88684 0.00476016 -0.0156243)
(2.72768 0.0125584 -0.0215225)
(2.26283 0.0339214 -0.0307502)
(1.15516 0.0965073 -0.0593822)
(0.183182 0.2535 -0.064573)
(0.340493 0.350952 -0.0562998)
(0.55395 0.411026 -0.0523435)
(0.582701 0.475677 -0.0554426)
(0.517733 0.539968 -0.0577425)
(0.449069 0.598869 -0.057536)
(0.371844 0.65429 -0.0546823)
(0.284609 0.714217 -0.0495623)
(0.154226 0.782165 -0.0442725)
(0.157134 0.821776 -0.0367444)
(2.98855 2.67238e-05 -0.00142925)
(2.98292 8.38029e-06 -0.00328957)
(2.97954 1.18452e-05 -0.00493228)
(2.97738 1.20357e-05 -0.00643944)
(2.97597 -1.20132e-05 -0.00769406)
(2.97502 3.06199e-05 -0.00887675)
(2.97425 -4.7939e-05 -0.00976617)
(2.97316 0.000165635 -0.0107617)
(2.96954 0.000116905 -0.0112716)
(2.96265 0.00173354 -0.0120532)
(2.93875 -8.2571e-05 -0.0133067)
(2.89189 0.0124347 -0.015694)
(2.73892 0.00127218 -0.0207775)
(2.3024 0.0609897 -0.0310933)
(1.24724 0.0930432 -0.0582329)
(0.290932 0.284731 -0.0642541)
(0.392624 0.401997 -0.055253)
(0.567859 0.46047 -0.0513354)
(0.601046 0.526175 -0.0541127)
(0.546556 0.595357 -0.0563087)
(0.488928 0.66302 -0.0557744)
(0.429367 0.729859 -0.0528487)
(0.368305 0.809678 -0.047399)
(0.262675 0.921795 -0.0415845)
(0.213264 1.10271 -0.0329944)
(2.9951 8.03534e-07 1.20694e-06)
(2.98906 1.2566e-07 -9.25499e-07)
(2.98253 8.60184e-07 1.13472e-06)
(2.97637 1.3132e-08 -9.8147e-07)
(2.97073 2.84813e-07 9.0722e-07)
(2.96583 6.51274e-07 -6.40996e-07)
(2.96118 -9.95823e-07 3.63871e-07)
(2.95676 4.3145e-06 1.38065e-06)
(2.94984 -3.2073e-06 3.3372e-06)
(2.93755 5.78751e-05 9.45217e-06)
(2.90276 -4.92851e-05 9.36426e-06)
(2.82804 0.000313766 4.6543e-05)
(2.62091 5.51871e-05 1.76057e-05)
(1.96577 0.000776862 0.00012287)
(0.405334 0.00213954 7.16253e-05)
(-0.679342 0.0105075 0.000589632)
(-0.0697957 0.0237099 7.46341e-05)
(0.312023 0.0383998 0.000152813)
(0.358588 0.0474349 0.000392371)
(0.224577 0.0505828 0.000575555)
(-0.0418646 0.0676085 0.000106042)
(-0.118046 0.0718761 -4.56938e-05)
(-0.138879 0.0754484 0.000246464)
(-0.0865019 0.0724783 0.000315598)
(0.0811684 0.0556242 0.0003941)
(2.9951 1.49568e-06 2.44029e-06)
(2.98906 3.08411e-07 -2.63382e-06)
(2.98253 1.387e-06 2.75127e-06)
(2.97637 3.79865e-07 -3.47995e-06)
(2.97073 4.34887e-07 3.94282e-06)
(2.96583 3.32707e-07 -4.88819e-06)
(2.96119 3.90869e-07 5.84342e-06)
(2.95676 3.94506e-06 -2.43994e-06)
(2.94989 2.17632e-05 1.75761e-05)
(2.93752 7.71045e-05 -1.58742e-05)
(2.90294 0.000199411 0.000197185)
(2.82818 0.000563698 -0.000186057)
(2.62142 0.00135779 0.000376944)
(1.96658 0.00390642 -0.000190404)
(0.412561 0.0118043 -0.000714019)
(-0.669952 0.0356435 -0.000225758)
(-0.0579957 0.0679591 0.000297405)
(0.323052 0.0981075 0.000321491)
(0.357331 0.110656 0.000385526)
(0.220456 0.109068 0.000461808)
(-0.0863667 0.127727 5.45523e-05)
(-0.138407 0.142962 -5.60055e-05)
(-0.153625 0.155309 0.000209637)
(-0.100871 0.158735 0.000271989)
(0.0796878 0.136772 0.000377534)
(2.9951 2.4043e-06 1.9006e-06)
(2.98906 9.88295e-08 -1.84944e-06)
(2.98253 2.00815e-06 1.89638e-06)
(2.97637 -3.75342e-07 -2.19244e-06)
(2.97073 2.17947e-07 2.00745e-06)
(2.96583 -4.9653e-07 -2.16472e-06)
(2.96119 1.71053e-07 1.49651e-06)
(2.95678 6.33151e-06 5.87637e-07)
(2.9499 3.72456e-05 2.48163e-06)
(2.9377 0.000147318 1.05701e-05)
(2.90316 0.000364019 -5.2348e-06)
(2.82905 0.00109937 6.79022e-05)
(2.6235 0.00262209 -7.11217e-05)
(1.97459 0.00769901 0.000140982)
(0.428094 0.0238078 -0.000239025)
(-0.65196 0.0682294 0.000162276)
(-0.0418251 0.117211 0.000235724)
(0.334282 0.161491 0.000284276)
(0.352304 0.181478 0.000267537)
(0.213933 0.180697 0.000246883)
(-0.0941614 0.207657 4.64001e-05)
(-0.136066 0.230572 -1.58217e-05)
(-0.150821 0.249632 0.000191342)
(-0.107422 0.256791 0.000260106)
(0.0717361 0.228627 0.000327376)
(2.9951 2.95135e-06 2.44812e-06)
(2.98906 -5.44835e-07 -2.71954e-06)
(2.98253 2.51846e-06 2.98966e-06)
(2.97637 -2.01575e-06 -3.89285e-06)
(2.97073 1.3653e-07 4.42076e-06)
(2.96583 -5.49851e-07 -5.87803e-06)
(2.96119 -1.46846e-06 6.51924e-06)
(2.95679 1.57431e-05 -5.34924e-06)
(2.95 3.80804e-05 1.25479e-05)
(2.93779 0.000301878 -2.16081e-05)
(2.90372 0.000359869 0.000180027)
(2.83016 0.00204815 -0.000207992)
(2.62656 0.00354212 0.00035004)
(1.98494 0.0117256 -0.000244046)
(0.461629 0.0358994 -0.000716939)
(-0.611375 0.101628 0.000163452)
(-0.0188532 0.165857 0.000226517)
(0.346814 0.221665 0.000219149)
(0.348529 0.250894 0.000147519)
(0.211404 0.257908 8.84366e-05)
(-0.0736834 0.29085 4.54357e-05)
(-0.120978 0.319454 4.23746e-05)
(-0.138287 0.342543 0.000181612)
(-0.109067 0.352473 0.000248459)
(0.0634792 0.320134 0.000281419)
(2.9951 2.3118e-07 1.77831e-06)
(2.98906 -9.17579e-07 -1.73932e-06)
(2.98253 -1.96615e-07 1.5952e-06)
(2.97637 -1.88373e-06 -2.09807e-06)
(2.97073 -3.67231e-07 1.68471e-06)
(2.96583 -7.21206e-07 -2.09104e-06)
(2.9612 2.92046e-06 1.10986e-06)
(2.95681 1.63309e-05 -1.1395e-06)
(2.95014 7.77208e-05 -3.82916e-06)
(2.93798 0.000339779 -2.48998e-06)
(2.90454 0.000766643 -1.75692e-05)
(2.83196 0.00254048 -1.59151e-05)
(2.63152 0.00588802 -6.43254e-05)
(2.00186 0.0178774 -1.64261e-05)
(0.508791 0.0538974 -0.000263408)
(-0.555563 0.137537 0.000222387)
(0.00738699 0.214551 0.000172532)
(0.359776 0.279257 0.000136619)
(0.348249 0.317338 8.66729e-05)
(0.211957 0.335829 5.94323e-05)
(-0.0348756 0.370478 5.45829e-05)
(-0.0984592 0.406013 8.34086e-05)
(-0.117609 0.432605 0.000165119)
(-0.105528 0.446683 0.000221308)
(0.0571662 0.412649 0.000252909)
(2.9951 -2.6147e-06 2.545e-06)
(2.98906 -6.10785e-07 -2.35029e-06)
(2.98253 -2.82549e-06 1.80707e-06)
(2.97637 -7.52049e-07 -2.27748e-06)
(2.97073 -5.56469e-07 2.06757e-06)
(2.96584 5.30174e-07 -2.98032e-06)
(2.96121 7.34907e-06 3.76966e-06)
(2.95685 2.01455e-05 -3.04861e-06)
(2.95028 0.000104396 1.12693e-05)
(2.93838 0.000440065 -2.06595e-05)
(2.90553 0.00105773 0.000152666)
(2.8347 0.00336955 -0.000183576)
(2.6387 0.00815294 0.000293783)
(2.0275 0.0247421 -0.000181241)
(0.565499 0.0731095 -0.000557576)
(-0.493762 0.174958 0.000145084)
(0.0361665 0.263733 0.000155936)
(0.372993 0.335771 9.02889e-05)
(0.3523 0.38214 5.40792e-05)
(0.21668 0.412413 3.91565e-05)
(0.0119513 0.448949 5.01369e-05)
(-0.06974 0.493954 9.10882e-05)
(-0.0891685 0.524445 0.000145864)
(-0.0960552 0.545582 0.000197806)
(0.0538793 0.513749 0.000226825)
(2.9951 -3.99814e-06 -1.41229e-06)
(2.98906 -7.93893e-07 2.63746e-06)
(2.98253 -3.99159e-06 -2.74077e-06)
(2.97637 -2.49073e-07 4.26453e-06)
(2.97073 -6.4959e-09 -5.14026e-06)
(2.96584 2.19505e-06 6.64029e-06)
(2.96122 9.69453e-06 -7.68091e-06)
(2.95689 2.71375e-05 5.08086e-06)
(2.95049 0.00012456 -1.33233e-05)
(2.93879 0.000570566 1.19152e-05)
(2.90697 0.00125732 -0.000148979)
(2.83823 0.00428801 0.000103819)
(2.64838 0.0100419 -0.000256094)
(2.06059 0.0309395 5.09837e-05)
(0.640991 0.0896464 0.000642302)
(-0.418834 0.211906 6.40454e-05)
(0.0689664 0.312733 -2.75379e-05)
(0.386887 0.39149 -1.65904e-05)
(0.360706 0.445224 2.81129e-05)
(0.226804 0.485835 2.90652e-05)
(0.0597587 0.528081 5.09318e-05)
(-0.032371 0.583645 9.33092e-05)
(-0.0512189 0.620026 0.00012743)
(-0.0780992 0.652924 0.000177875)
(0.0553429 0.629241 0.00020071)
(2.9951 -4.35896e-06 2.43968e-07)
(2.98906 1.72382e-07 5.46989e-07)
(2.98253 -3.38807e-06 -1.00764e-06)
(2.97637 2.06959e-06 2.07729e-06)
(2.97073 1.28796e-06 -2.8102e-06)
(2.96584 4.55898e-06 3.92887e-06)
(2.96123 1.19153e-05 -4.03399e-06)
(2.95695 3.17537e-05 3.40267e-06)
(2.95073 0.000152955 9.56599e-07)
(2.93934 0.000631969 -3.77457e-06)
(2.90861 0.00153809 -3.00118e-06)
(2.84248 0.00468765 -1.84615e-05)
(2.65995 0.012116 1.20088e-05)
(2.10016 0.0336432 6.85099e-06)
(0.730005 0.102695 0.000137372)
(-0.329515 0.248155 8.61242e-05)
(0.102739 0.362886 -1.0616e-05)
(0.401212 0.446476 -1.7343e-05)
(0.372342 0.506241 1.85623e-05)
(0.243313 0.554975 2.93479e-05)
(0.106633 0.607279 5.23811e-05)
(0.0168517 0.672295 9.13333e-05)
(-0.000988498 0.720097 0.000111628)
(-0.0480078 0.771541 0.000155056)
(0.0640792 0.768218 0.000172705)
(2.9951 -2.15193e-06 8.49383e-08)
(2.98906 5.44968e-06 2.63725e-07)
(2.98253 -3.41283e-06 -4.50615e-07)
(2.97638 1.22943e-05 8.14392e-07)
(2.97073 -7.55809e-06 -9.0741e-07)
(2.96585 1.91694e-05 1.22503e-06)
(2.96124 -1.78941e-08 -9.43766e-07)
(2.95701 4.61943e-05 7.24411e-07)
(2.951 0.000241758 1.46675e-07)
(2.93996 0.000652191 -1.25052e-06)
(2.91034 0.0021576 -1.53139e-06)
(2.84749 0.00450481 -5.75265e-06)
(2.67139 0.0153668 -2.25131e-06)
(2.13968 0.032038 -7.30006e-07)
(0.839329 0.108975 4.59288e-05)
(-0.218543 0.282386 7.213e-05)
(0.139444 0.416035 2.54568e-05)
(0.414368 0.500861 -1.68201e-05)
(0.386059 0.564617 1.66393e-05)
(0.266596 0.619948 2.75192e-05)
(0.156315 0.682934 4.68007e-05)
(0.0766348 0.760071 8.47758e-05)
(0.0643051 0.823722 0.000101654)
(0.00800265 0.901745 0.000129608)
(0.083147 0.941616 0.000134701)
(2.9951 7.84054e-06 -5.89932e-08)
(2.98906 1.17979e-05 3.68846e-07)
(2.98253 -6.9198e-06 -1.13643e-07)
(2.97637 3.51075e-05 4.60563e-07)
(2.97074 -4.54638e-05 -2.98577e-07)
(2.96585 8.83054e-05 3.82909e-07)
(2.96125 -0.000116674 -3.5782e-07)
(2.95715 0.000260095 -2.65644e-08)
(2.95124 -6.41737e-05 -4.43408e-07)
(2.94096 0.00121819 -1.24971e-06)
(2.91181 -0.000353154 -3.12618e-06)
(2.85393 0.0113815 -3.24156e-06)
(2.68123 0.00401331 -1.02458e-05)
(2.17609 0.052287 6.245e-06)
(0.949543 0.104107 2.17004e-05)
(-0.0888671 0.315406 6.27744e-05)
(0.178188 0.471555 4.56459e-05)
(0.42514 0.554213 2.20827e-05)
(0.401503 0.6192 3.2063e-05)
(0.296327 0.680059 3.73997e-05)
(0.210825 0.751569 4.75484e-05)
(0.148982 0.843398 6.67651e-05)
(0.149353 0.928855 8.96673e-05)
(0.104029 1.04534 0.000111395)
(0.123822 1.21063 0.000107294)
(2.98855 6.48583e-06 0.00143512)
(2.98291 -1.7301e-06 0.00328496)
(2.97954 6.16586e-06 0.00493148)
(2.97738 -5.81479e-06 0.00644401)
(2.97598 8.66752e-06 0.00768194)
(2.975 -1.20857e-05 0.00889834)
(2.9742 1.51499e-05 0.00973468)
(2.97286 -3.82965e-06 0.0108222)
(2.96835 7.89811e-05 0.0112614)
(2.95941 -4.2168e-05 0.0121217)
(2.93096 0.00105946 0.0135634)
(2.86832 -0.000395806 0.0162289)
(2.6875 0.00257707 0.0226348)
(2.12335 0.000619167 0.0334666)
(0.777793 -0.00314771 0.0626718)
(-0.186176 -0.00402468 0.0658867)
(0.123819 0.00887088 0.0612865)
(0.45829 0.0204503 0.0584624)
(0.541968 0.0268221 0.0618989)
(0.483759 0.0318096 0.0655033)
(0.394356 0.0372497 0.0667197)
(0.255003 0.0441173 0.0656177)
(0.106568 0.0493953 0.0634701)
(0.0319691 0.0490804 0.0611497)
(0.157733 0.032817 0.0559463)
(2.98855 4.96414e-06 0.00143718)
(2.98291 -4.00853e-07 0.0032817)
(2.97953 4.07245e-06 0.00493436)
(2.97738 -2.26934e-06 0.00643936)
(2.97597 2.46227e-06 0.00768897)
(2.97501 -3.87692e-06 0.00888596)
(2.9742 1.97913e-07 0.00975535)
(2.97292 2.92136e-06 0.0107808)
(2.96831 1.89273e-05 0.011306)
(2.96018 8.80784e-05 0.0122451)
(2.93093 0.000168536 0.013074)
(2.86876 0.000656328 0.0175185)
(2.68785 0.00127494 0.0201045)
(2.11332 0.00367945 0.0371473)
(0.731507 0.00971083 0.0609178)
(-0.252779 0.0292548 0.0654414)
(0.102255 0.0521481 0.0615366)
(0.44999 0.0707667 0.0586998)
(0.529236 0.080263 0.0619334)
(0.458939 0.085986 0.0649556)
(0.375646 0.09305 0.0662242)
(0.237059 0.102929 0.0649355)
(0.08395 0.11276 0.0626221)
(0.0112766 0.116718 0.0603141)
(0.165816 0.0879833 0.0554852)
(2.98855 5.11243e-06 0.00143581)
(2.98291 -9.814e-07 0.00328405)
(2.97953 4.69801e-06 0.00493213)
(2.97737 -3.77551e-06 0.00644253)
(2.97597 3.04322e-06 0.00768373)
(2.975 -6.40532e-06 0.00889523)
(2.97421 5.56973e-07 0.00973768)
(2.97288 -2.19519e-06 0.0108173)
(2.96842 1.04411e-05 0.0112531)
(2.95953 0.000107903 0.0121452)
(2.9314 0.0002558 0.0135816)
(2.86917 0.000874284 0.0162695)
(2.68976 0.00251037 0.0227134)
(2.12864 0.00614288 0.0333227)
(0.79278 0.020865 0.0622545)
(-0.174246 0.0636259 0.0653034)
(0.138202 0.0943993 0.0607735)
(0.461907 0.121182 0.0577662)
(0.525352 0.139631 0.0613283)
(0.44166 0.154941 0.0642418)
(0.364064 0.16601 0.0654392)
(0.2331 0.179801 0.0637798)
(0.0810083 0.193839 0.0612165)
(0.00415594 0.198639 0.0589527)
(0.159894 0.155408 0.0541578)
(2.98855 8.55386e-06 0.00143784)
(2.98291 -3.90391e-06 0.00328049)
(2.97953 7.84731e-06 0.00493577)
(2.97738 -1.16416e-05 0.00643701)
(2.97597 9.80779e-06 0.00769183)
(2.97501 -2.02773e-05 0.0088819)
(2.97421 1.61658e-05 0.00975926)
(2.97293 -8.66196e-06 0.0107752)
(2.9684 8.25212e-05 0.0112996)
(2.96039 7.80524e-05 0.0122252)
(2.93158 0.00136785 0.0130199)
(2.87075 0.00058519 0.0173892)
(2.69229 0.00588888 0.019924)
(2.12837 0.00820675 0.0370045)
(0.782421 0.0274362 0.0604529)
(-0.165729 0.0867718 0.0654821)
(0.151622 0.133437 0.0605765)
(0.469033 0.170177 0.0572393)
(0.524248 0.199571 0.0606396)
(0.441164 0.226658 0.0634988)
(0.363364 0.241628 0.064367)
(0.239869 0.259052 0.062404)
(0.0936289 0.276288 0.0595122)
(0.00280576 0.280768 0.0571964)
(0.148587 0.228693 0.0522854)
(2.98855 -1.62242e-06 0.00143806)
(2.98291 -1.69656e-06 0.00327986)
(2.97953 -2.70321e-06 0.00493643)
(2.97738 -3.58581e-06 0.00643563)
(2.97596 -1.9197e-06 0.00769374)
(2.97501 -3.75532e-06 0.00887924)
(2.97421 4.11865e-06 0.00976208)
(2.97294 8.32877e-06 0.0107722)
(2.96849 5.6063e-05 0.0112908)
(2.96058 0.000277628 0.0121908)
(2.93217 0.000680806 0.0130034)
(2.87259 0.00212176 0.0172323)
(2.69639 0.00592933 0.019884)
(2.14215 0.0140264 0.0369276)
(0.822732 0.048208 0.0599884)
(-0.118785 0.120161 0.0654672)
(0.177564 0.175051 0.0601889)
(0.479789 0.218406 0.0565642)
(0.528135 0.257464 0.0598554)
(0.448751 0.29461 0.062806)
(0.367128 0.314831 0.0633248)
(0.251784 0.336466 0.061046)
(0.114981 0.356722 0.0577058)
(0.00746392 0.363339 0.0551139)
(0.138236 0.307582 0.0501665)
(2.98855 -1.55651e-05 0.00143716)
(2.98291 1.4914e-06 0.00328107)
(2.97953 -1.59067e-05 0.00493531)
(2.97738 8.94501e-06 0.00643724)
(2.97597 -1.54902e-05 0.00769206)
(2.97501 1.96223e-05 0.00888124)
(2.97422 -9.16855e-06 0.00976095)
(2.97298 2.57386e-05 0.0107718)
(2.96862 3.97388e-05 0.0113004)
(2.96091 0.000409195 0.0121946)
(2.93306 0.000271724 0.0130049)
(2.87531 0.00297367 0.0172029)
(2.70179 0.00693586 0.0197913)
(2.16256 0.0180417 0.0363808)
(0.876177 0.0707099 0.0595468)
(-0.0694011 0.156662 0.0651987)
(0.205927 0.21737 0.0595715)
(0.493877 0.265958 0.0556247)
(0.5368 0.313202 0.0589443)
(0.460169 0.358022 0.0618933)
(0.376087 0.386609 0.0621571)
(0.268822 0.414609 0.0595733)
(0.143321 0.43956 0.0558448)
(0.0220258 0.451258 0.0528921)
(0.130139 0.397853 0.0477015)
(2.98855 -1.74212e-05 0.0014333)
(2.98291 -7.21494e-07 0.00328662)
(2.97953 -1.65969e-05 0.00493017)
(2.97738 8.32837e-06 0.0064453)
(2.97598 -1.3644e-05 0.00768142)
(2.97501 2.14894e-05 0.00889801)
(2.97422 -7.50567e-06 0.00973508)
(2.97297 2.97596e-05 0.0108146)
(2.96881 4.91707e-05 0.0112442)
(2.96081 0.0004725 0.0120548)
(2.93396 0.000357989 0.0135208)