/*--------------------------------*- C++ -*----------------------------------*\
  =========                 |
  \\      /  F ield         | OpenFOAM: The Open Source CFD Toolbox
   \\    /   O peration     | Website:  https://openfoam.org
    \\  /    A nd           | Version:  6
     \\/     M anipulation  |
\*---------------------------------------------------------------------------*/
FoamFile
{
    version     2.0;
    format      ascii;
    class       volScalarField;
    location    "50";
    object      p;
}
// * * * * * * * * * * * * * * * * * * * * * * * * * * * * * * * * * * * * * //

dimensions      [0 2 -2 0 0 0 0];

internalField   nonuniform List<scalar> 
918
(
0.537457
1.2597
0.00536666
0.537366
-0.0105354
1.2274
-0.4904
0.670676
0.518589
-0.113291
-0.0507019
0.517589
1.08465
0.850833
-1.16718
-0.0125375
0.636401
-0.41331
0.516582
-0.065847
0.697801
0.52528
0.527748
0.518539
0.576526
0.806127
0.961618
-0.00142636
0.00905623
0.00459318
-0.0117488
-0.0317406
-0.027406
1.11055
1.16245
1.18563
0.485289
0.319465
-0.386424
-0.436381
-0.420634
-0.515669
0.665953
0.664131
-0.205133
0.673414
0.677784
0.504356
0.517981
0.518818
0.519957
0.518844
0.520131
0.392755
-0.11769
-0.146888
-0.0967654
-0.0941604
0.0463443
-0.0551794
-0.0590746
-0.0484288
-0.0488614
0.434744
0.513332
0.510298
0.522464
0.531846
1.19987
1.17362
1.19968
1.11022
1.12778
1.06165
1.03456
0.872862
0.896174
0.833474
0.820604
-1.62927
-2.583
-0.585859
-0.305637
-0.0102224
-0.0116143
-0.00963381
0.630303
0.631589
0.636823
0.642047
1.03316
-0.386074
-0.455098
0.517087
0.515601
0.524803
0.525708
0.520662
0.52067
-0.0575747
-0.0555891
-0.0529387
-0.0634316
-0.0582481
0.68926
0.687232
0.51798
0.51543
0.540884
0.561961
0.551847
0.25485
0.583613
0.598661
0.667405
0.814776
0.80201
0.814126
0.936967
0.904452
0.993806
1.01546
0.0142555
-0.000820775
-0.0167891
-0.0183414
-0.017183
0.481048
0.474646
0.502141
0.488897
0.491923
0.223776
0.072125
0.402257
0.426288
-0.306587
-0.351711
-0.449516
-0.448817
-0.5494
0.595513
0.660094
0.656506
-0.219581
-0.146311
-0.271881
-0.0888565
-0.145112
0.495362
0.501571
0.49767
0.512987
0.507171
0.509588
0.522063
0.519236
0.520835
0.450906
0.584658
0.31249
0.285768
-0.272639
-0.164748
-0.253705
-0.0834109
-0.0778403
0.0568462
0.0840971
0.0338692
0.0210126
-0.068361
-0.0617658
-0.0649322
-0.0487453
-0.0523261
0.426255
0.413325
0.445883
0.453337
0.501089
0.502498
0.506772
0.504814
0.98594
1.00856
1.01465
0.990852
-3.56801
-6.21479
0.0433461
0.204479
-0.00857224
-0.0100609
-0.000237848
-0.00792803
0.000397527
-0.00201659
-0.0142145
-0.0154789
-0.0120626
-0.011756
0.626785
0.628015
0.993193
1.02618
0.983363
0.959262
0.506407
0.508311
0.512938
0.509825
-0.0502442
-0.0526115
-0.049637
0.678224
0.684087
0.682609
0.214336
0.126568
0.30535
0.336226
0.622178
0.606172
0.619967
0.727201
0.765812
1.03201
1.05615
1.04026
1.05297
1.10377
1.12667
1.09181
0.459739
0.470597
0.464908
0.505244
0.50292
0.503936
0.500097
0.501185
0.499729
-0.0402504
-0.414931
0.478232
0.480418
0.468478
0.474319
0.681058
0.763808
0.642598
0.651448
0.64982
-0.0406375
-0.0878345
0.244747
0.216846
0.365943
0.400214
0.382228
0.960949
0.921001
0.969223
0.94438
0.909361
0.933514
-0.352219
-2.1241
-1.11526
0.608787
0.410666
0.502645
0.00443981
-0.0129322
-0.00879288
1.02663
1.06605
0.65563
0.840048
0.793468
0.791187
0.818182
0.878365
0.810217
0.845218
0.877079
0.854496
0.548734
0.486474
0.500955
0.840314
0.896412
0.0904155
0.0141257
-0.00948633
0.107562
0.175603
0.144724
1.0399
0.951806
1.01601
0.515668
0.516605
-0.0106449
-0.0295185
0.520707
0.520424
-0.017166
-0.00742678
0.521064
-0.938145
0.0965462
0.510162
0.499942
0.516701
-0.0809046
0.326
-0.0553969
0.0305336
-0.00492274
0.512764
0.44688
0.404889
0.000652855
-0.0207928
-0.0566844
-0.213752
0.513409
0.511773
0.516081
0.516908
0.517673
-0.0189115
-0.0185138
-0.0128587
-0.0527395
-0.0476961
-0.0595697
0.480161
0.500038
-0.188306
0.516373
0.518462
0.518175
0.512307
0.517291
0.515888
-0.0150559
-0.0207043
-0.0218256
0.195526
0.332131
0.70533
0.780922
0.654415
0.48636
0.188412
0.640778
0.693655
0.618498
0.748975
0.653963
0.665995
0.162642
0.020885
0.165817
0.0986399
0.507045
0.506423
0.49749
0.49439
0.511499
0.509185
0.514378
0.511559
0.514735
0.515903
-0.0396227
-0.0740886
-0.0888047
-0.137249
0.287921
0.552923
0.221936
0.24826
0.156129
-0.0472539
-0.0458196
-0.0545056
-0.0596612
-0.0109343
-0.0209748
0.0254432
0.0319948
0.0143889
-0.0131005
-0.0200407
-0.0201159
-0.0257866
0.506034
0.505348
0.511178
0.519698
0.456392
0.460092
0.426536
0.445286
0.431516
0.371446
0.401719
0.378758
-0.0103015
0.00105618
-0.00388005
-0.0193492
-0.0181734
-0.0409039
-0.0340769
-0.0308702
-0.0278655
-0.0325132
-0.0503924
-0.0512836
-0.177361
-0.294606
0.947133
0.890706
0.129432
0.503335
0.508982
0.506163
0.510816
0.514021
0.514673
0.512262
0.508763
0.500158
0.501549
0.498425
0.499453
-0.127886
-0.235676
-0.0680015
-0.139122
0.146027
0.611938
0.340112
0.286411
0.271605
0.494699
0.710169
0.628176
0.690442
0.68323
-0.39215
0.0189135
-0.321181
0.22831
0.215985
0.730192
0.77264
0.790325
0.74688
0.703029
-0.0310361
0.54576
-0.0622157
-0.0137548
0.175037
0.0615015
0.669163
0.635096
0.640929
0.658133
0.670215
0.649905
0.632076
0.627379
0.654156
0.658789
0.495577
0.22443
0.18312
0.136725
0.624788
0.521761
0.574095
0.494736
0.502586
0.50505
0.503957
0.484942
0.49228
0.487975
0.495019
0.498639
0.506043
0.506247
0.502165
0.504034
-0.0676516
-0.0727274
-0.066562
-0.125473
-0.127663
-0.171454
-0.0848335
0.0944726
0.0404327
0.230887
0.360335
0.0725336
-0.0490903
-0.0327311
0.0192884
0.186155
0.182987
0.0485203
0.162876
0.116448
0.110657
0.199089
0.223374
-0.0342242
-0.0351126
-0.0378987
-0.0441218
0.00730792
0.10749
0.0908652
-0.00890558
-0.0169411
-0.0430307
-0.0445947
-0.0102124
-0.0244242
-0.0184401
-0.00373468
-0.0483049
-0.0216762
-0.00975819
-0.00844353
-0.0124761
-0.0108893
0.499429
0.501575
0.501494
0.509707
0.524444
0.539475
0.501939
0.477567
0.468599
0.471702
0.444749
0.454068
0.449129
0.464913
0.486682
0.495712
0.49303
0.495756
0.477872
0.47961
0.465017
0.469597
0.438908
0.420619
0.410357
-0.0463723
-0.0125187
-0.0257251
-0.0412447
-0.0148149
-0.0254866
-0.0153251
0.00180008
-0.0154013
-0.0138756
-0.0224922
-0.0307318
-0.0313608
-0.079033
0.00443154
-0.178891
-0.22888
-0.281546
0.877555
1.01429
0.803153
0.591209
0.599834
0.82012
0.916802
0.550681
0.7269
0.761071
0.566741
0.853181
0.507211
0.506842
0.504738
0.50393
0.504879
-0.0190772
0.08168
0.0971417
0.153784
0.27052
0.377206
0.301916
0.188968
0.323041
0.347383
0.609307
0.616182
0.571281
0.593705
0.593392
0.407745
0.488931
0.5296
0.480858
0.554194
0.587837
0.534821
0.577131
0.498002
0.44821
0.440104
0.39658
0.429756
0.411608
0.38627
0.498986
0.475615
0.486618
0.476115
0.497725
0.519211
0.521892
0.546348
0.559845
0.476959
0.424683
0.441158
0.469106
0.426106
0.443029
0.464514
0.174724
0.0790581
0.243518
-0.0843637
0.00400391
0.0414703
-5.61914e-05
-0.0444138
0.262313
-0.378286
-0.323754
-1.00529
0.489103
0.862283
0.628228
0.641939
0.668895
0.653132
0.662797
0.673374
0.678072
0.614765
0.62698
0.630111
0.600521
0.627676
0.629969
0.637275
0.499156
0.402692
0.400678
0.336656
0.199297
0.239316
0.429407
0.361068
0.287466
0.281662
0.451991
0.318273
0.395662
0.451195
0.376379
0.30958
0.540277
0.586446
0.577069
0.550207
0.440325
0.471227
0.480547
0.527603
0.565791
0.593079
0.493683
0.499994
0.500932
0.498181
0.496425
0.499546
0.499788
0.502068
0.502395
0.504945
0.504342
-0.0531785
-0.0412923
-0.0583293
-0.0623747
0.00153069
-0.0126059
-6.70926e-05
-0.0272013
-0.0187639
-0.0199205
-0.0378438
-0.0518903
-0.0448428
-0.0321587
0.0619757
0.076222
0.085378
0.0488421
0.258905
0.397876
0.459776
0.350171
0.201294
0.212635
0.283605
0.00716543
0.0235234
0.00890656
0.0609713
0.0395042
-0.0379298
-0.0423322
-0.0431793
-0.0328602
-0.0251605
-0.046833
-0.0463351
-0.0356918
-0.0431209
-0.0441662
-0.0475423
0.47924
0.472163
0.475795
0.468204
0.466365
0.483224
0.487617
0.488953
0.494453
0.49706
0.486692
0.492722
0.496719
-0.0158513
-0.0350899
-0.035399
-0.0291865
-0.0318184
-0.0321504
-0.0349509
0.120013
0.02576
0.060504
-0.00780425
-0.133138
-0.0739328
0.490826
0.487366
0.480677
0.709588
0.548565
0.466349
0.563852
0.682098
0.267049
0.467656
0.301009
0.879489
0.783656
0.929102
0.548123
0.246714
0.410171
0.422762
0.261557
0.384567
0.337276
0.214448
0.252257
0.280946
0.364392
0.249199
0.227847
-0.0136675
0.165011
0.277334
0.259191
0.388417
0.446202
0.253036
0.16852
0.116443
0.589187
0.608003
0.61804
0.590782
0.612806
0.560752
0.551279
0.56849
0.577873
0.572288
-0.641743
-0.229938
-1.43103
-0.839048
-0.387287
0.518635
0.51002
0.743281
0.649657
0.684329
0.666996
0.605329
0.570848
0.613916
0.633804
0.329478
0.418589
0.401592
0.382819
0.326009
0.266372
0.544011
0.550607
0.574431
0.599353
0.575488
0.602032
0.492337
0.492168
0.490945
0.487259
0.485782
0.488903
0.0238561
-0.000520044
0.0333495
0.0249908
0.0062153
0.00574167
-0.0159491
-0.027813
-0.0268792
-0.0261147
-0.0163965
-0.0141651
0.162547
0.102979
0.0155639
0.0570547
-0.00834268
-0.090157
-0.0914496
-0.00411916
0.0941965
0.0764021
0.385379
0.653178
0.479747
0.65219
0.444536
0.549127
0.463788
0.437724
0.467146
0.365547
0.453966
0.0277983
-0.17153
-0.228161
0.814292
0.771383
0.558601
0.307506
0.193597
0.490686
0.518756
0.480271
0.504965
0.556996
0.53687
0.0060372
0.100907
0.174159
0.483591
0.26937
0.287307
0.278188
0.440569
0.412464
)
;

boundaryField
{
    wall-4
    {
        type            zeroGradient;
    }
    velocity-inlet-5
    {
        type            zeroGradient;
    }
    velocity-inlet-6
    {
        type            zeroGradient;
    }
    pressure-outlet-7
    {
        type            fixedValue;
        value           uniform 0;
    }
    wall-8
    {
        type            zeroGradient;
    }
    frontAndBackPlanes
    {
        type            empty;
    }
}


// ************************************************************************* //
