/*--------------------------------*- C++ -*----------------------------------*\
  =========                 |
  \\      /  F ield         | OpenFOAM: The Open Source CFD Toolbox
   \\    /   O peration     | Website:  https://openfoam.org
    \\  /    A nd           | Version:  6
     \\/     M anipulation  |
\*---------------------------------------------------------------------------*/
FoamFile
{
    version     2.0;
    format      ascii;
    class       surfaceScalarField;
    location    "50";
    object      phi;
}
// * * * * * * * * * * * * * * * * * * * * * * * * * * * * * * * * * * * * * //

dimensions      [0 3 -1 0 0 0 0];

internalField   nonuniform List<scalar> 
1300
(
3.75095
5.62643
-3.31261
3.75095
-7.76081
5.62643
-4.22299
4.22299
-0.664773
0.664773
1.87646
1.87449
-2.57456
2.57456
-2.00638
2.00638
-2.5414
2.5414
-5.24793
5.24793
-5.06917
5.06917
4.70993
-4.70993
-6.31552
6.31552
-1.03213
1.03213
-3.6261
3.6261
3.17276
-3.17276
-1.9823
1.9823
-0.110351
0.110351
-0.554101
4.30505
3.19685
3.19685
-1.96184
1.96184
-4.87467
4.87467
6.22218
-6.22218
5.25369
-5.25369
-1.94108
-2.45176
1.81228
-11.5513
-5.94853
-5.94853
-8.44102
8.44102
-2.81459
2.81184
2.94624
-2.94624
-1.73423
1.73423
-4.22724
0.00424307
-4.22724
4.19669
0.0263038
4.19669
-0.739814
0.0750416
-0.739814
3.88162
-3.88162
0.550878
0.113894
0.550878
3.06706
-3.06706
-1.87687
3.75333
1.87408
-1.87208
6.17713
-1.87888
3.75337
-6.06176
6.06176
-2.79358
0.219023
-2.79358
2.37083
0.203722
2.37083
-6.85903
6.85903
-2.05287
0.0464926
-2.05287
2.00489
0.00149244
2.00489
2.8838
-2.8838
-2.63935
0.097949
-2.63935
2.40676
0.13464
2.40676
0.353474
5.27296
-5.9799
8.79175
-5.27296
0.0250254
5.21024
0.0376923
5.21024
-5.10538
0.036209
-5.10538
5.01331
0.0558642
5.01331
4.80265
-0.0927238
4.80265
-4.82616
0.116234
-4.82616
-3.37842
-4.07093
-6.47437
0.158845
-6.47437
-1.07381
0.0416757
-1.07381
0.956993
0.0751398
0.956993
-3.69568
3.69568
-3.94305
0.31695
-3.94305
3.12774
0.0450198
3.12774
1.86812
1.88283
5.61908
-5.61908
2.44631
-1.9515
-0.0307948
-1.9515
-2.05278
-3.20091
2.05278
-0.070489
-0.325629
0.215278
-0.325629
3.15705
0.0398063
3.15705
2.24535
0.161417
-2.24535
0.283507
3.2835
-3.2835
1.2998
0.662035
1.2998
-5.55892
5.55892
4.9619
0.05141
-4.9619
0.0872248
6.15738
0.0648062
6.15738
-6.20747
-0.0147153
-6.20747
2.50494
-4.9567
-2.60896
6.13111
0.18441
-6.13111
0.182585
2.9173
0.0289409
2.9173
-2.9203
2.9203
-2.98357
0.0373331
-2.98357
-2.1585
0.424273
-2.1585
1.41771
0.316521
1.41771
-4.13223
-0.0950116
-4.13223
-4.07475
0.1317
4.07475
0.121942
1.0934
-1.0934
-0.806544
0.0667297
-0.806544
-3.98051
-0.151714
3.98051
-0.0988906
-3.83112
-0.0505066
-3.83112
-3.02147
0.0378972
3.02147
0.0455942
3.11198
0.0450677
-3.11198
0.0449162
-1.87099
3.75382
-1.87997
3.75405
-5.67977
-0.381989
-5.67977
6.35005
-0.288291
6.35005
3.18107
0.445032
-3.18107
0.387488
2.22075
0.150088
2.22074
-6.8342
-0.0248236
-6.8342
6.86248
-0.00344874
6.86248
2.12113
0.0996172
-2.12113
0.0682539
1.98583
0.0190547
1.98583
2.90964
-0.0258363
2.90964
-2.8789
-0.00490831
-2.8789
2.7948
-2.7948
2.7225
0.0723017
-2.7225
0.0831488
-11.1242
11.1095
-0.0361892
-11.088
5.17405
5.17405
4.25874
0.543909
4.25874
-5.01843
0.192272
-5.01843
2.66844
-5.27739
3.07905
-6.45747
4.6823
-16.2336
4.31501
-8.38595
6.71597
-6.71597
6.60128
0.114684
-6.60128
0.126913
-1.15324
0.079434
-1.15324
-3.08391
-0.611767
-3.08391
4.34343
-0.647748
4.34343
-3.02806
3.02806
-3.07672
0.0486588
3.07672
0.0510185
1.96375
0.0220801
-1.96375
0.0122536
0.425326
0.125552
-0.425326
0.0996973
3.49826
-0.21476
3.49826
-3.08496
-0.198545
-3.08496
-1.23126
0.0780133
1.23126
0.0685478
-5.80728
0.248366
-5.80728
-11.1816
0.0935509
-11.1439
-6.11392
-6.11392
2.3271
11.1188
-2.89505
0.0161579
2.89505
0.0222419
2.97569
0.0523703
-2.97569
0.0553958
-2.86044
0.0656338
2.86044
0.0598626
-2.52823
0.369724
-2.52823
-1.02616
1.02616
-1.17996
0.153808
1.17996
0.237742
1.38399
-0.290592
1.38399
0.88504
0.0719529
-0.88504
0.0784962
-3.7902
-0.0409123
-3.7902
6.58296
-0.232909
6.58296
-2.95869
-0.126267
2.95869
-0.0490487
-0.0347608
11.1442
-5.13929
0.0339079
5.13929
-11.2091
11.243
-3.23602
0.707793
3.23602
1.02272
5.2855
0.273419
-5.2855
0.267065
6.80415
0.0583272
-6.80415
0.0881844
-2.59953
-0.484382
-2.59953
-5.08153
-0.598243
5.08153
-0.738101
-11.482
-0.203178
11.6851
-11.4261
6.01046
0.146917
-6.01046
11.3899
-0.983851
-0.109547
0.983851
0.0423056
1.7209
-0.336905
1.7209
3.70638
-0.208119
-3.70638
-0.0838214
-6.73258
-0.101626
6.73258
-0.149617
-2.15029
-0.449242
2.15029
-0.429394
-4.2673
4.3071
1.90983
-2.36289
-2.59381
-5.5638
1.85508
1.89874
4.30139
-10.1929
-6.0407
-10.0103
7.21269
-6.94562
-9.34877
9.25605
7.84449
-7.895
-5.77794
5.82896
6.48421
-6.43861
1.87928
1.87405
7.99395
-7.77493
-15.7142
15.3322
7.56667
-7.52018
15.8443
-15.8691
-17.8931
17.9514
-5.69836
5.79631
-6.73814
6.73323
-6.97073
6.92168
-2.82562
-3.63185
13.1653
-13.0065
8.57782
-8.60862
-8.64076
8.95771
3.38454
0.922569
3.4296
-1.88192
3.76121
-1.87145
3.78128
2.70838
-5.534
2.56901
-5.16282
4.35813
4.21969
-4.28764
-1.27616
-5.92706
5.956
-5.81139
5.87125
9.07221
-9.06797
-1.88496
3.75901
-1.86909
3.76783
-3.42338
-2.35456
3.37836
0.923032
8.10254
5.0628
-8.28695
-1.72338
-7.98174
7.77362
-8.19871
8.00017
-0.436615
5.83654
-5.39993
4.43806
-1.6544
7.49094
5.55829
5.75056
5.85996
-5.58654
1.08567
-6.48559
-6.39837
-2.42997
2.4967
2.35163
-2.23773
6.0669
1.77759
5.96801
-5.76137
-2.13363
-5.80228
3.82022
2.00875
3.86888
4.08137
2.40283
4.11927
3.02994
-3.03629
0.00634989
-3.05902
6.08895
0.722717
-5.41358
-4.49055
4.99941
2.99454
5.20313
-5.5622
-2.21273
-5.17471
-9.60906
-6.1051
-10.2073
10.1079
5.22427
9.81962
-11.9841
11.8345
4.85901
2.70766
4.8605
-4.96595
-2.55423
-4.89769
11.6698
-2.62542
-9.04434
-10.3414
-7.55166
10.3448
5.49943
10.9933
6.95811
11.0815
4.4322
7.23756
-9.93163
2.37996
-3.86336
-1.835
-3.78021
3.65578
2.14053
3.79042
-4.21735
-2.52079
-4.20119
-4.29264
-2.67809
4.31848
2.41475
-4.40968
-3.78904
4.53595
2.38573
4.05511
-10.0958
4.33083
-7.96269
-9.2255
-3.781
-9.09858
3.49886
2.61311
-6.11197
-2.03514
8.47411
-4.25442
7.19795
-5.20652
-3.40209
-5.19427
-6.90171
-1.73905
-6.77001
-8.94981
8.46543
-9.23763
8.58988
12.6183
-5.67939
-6.93891
-3.96686
-2.47176
3.92194
-0.492335
-3.71021
3.71656
0.0509977
3.83228
4.75484
4.26251
-3.88281
-1.92858
-3.82741
3.82351
2.04774
3.88914
6.78847
2.28374
6.81478
-6.52769
-2.54028
-6.6227
9.12791
-8.70364
2.83658
-2.75857
5.35135
2.64882
-5.13659
-2.84515
6.23739
-3.19149
-3.0459
-12.353
10.832
1.52103
-4.86208
-0.424019
-0.313668
-5.58062
-3.76816
5.46438
0.286177
11.1182
7.35001
-5.51492
5.76328
6.17021
6.22162
-0.176742
5.91011
-5.20231
5.31006
-2.64477
-2.66529
5.41214
-5.56385
-1.21056
-5.48012
4.26956
0.404156
1.64272
-1.42744
-1.87578
-0.554195
-1.79728
1.35869
0.992935
1.48424
0.911755
1.58495
-2.9134
0.577745
2.33566
-2.00165
-1.65999
-3.73604
-1.13523
4.87128
5.67796
2.09567
-5.59414
-0.208146
2.63192
-2.55678
-0.791662
-2.94438
2.18059
-2.97225
-3.50301
-1.88219
5.3852
-3.36911
-0.458303
3.31674
0.552136
-3.82754
-2.09952
3.79021
0.329066
-3.12786
6.19013
-3.06227
-5.05644
2.52892
3.56004
4.53766
-4.79049
2.44875
2.34174
-1.23046
4.27998
0.923143
4.43007
-6.98092
4.76819
5.7126
3.24512
-6.15763
0.982919
-5.998
8.46722
-7.3205
-1.14673
4.0246
4.44262
7.08806
5.53024
-5.71413
12.8022
-1.09871
-6.22179
7.09671
-3.8516
4.81219
-8.66379
-10.3424
4.12064
-9.24522
11.0512
-1.80599
-3.61047
-8.37363
12.8557
-1.21308
-11.6426
8.60654
-4.26484
-4.3024
8.56723
-6.89026
6.85663
-1.98121
-4.87542
-10.1555
-5.7136
10.2571
1.57736
-9.88763
12.2676
-2.65007
4.14054
0.71996
4.1596
3.30979
-5.43916
2.12936
3.58046
-5.56167
2.07427
-7.51342
-6.75966
12.106
-5.34631
-10.5407
-9.55418
-0.986483
2.55384
9.71375
-9.51195
7.45662
2.05533
3.30059
0.588551
-3.37289
-0.407317
0.239389
4.51622
-4.75561
4.02981
4.19123
3.23951
1.27671
3.84796
2.10804
-3.8702
-0.330994
-4.16501
1.48692
-1.75026
-3.68959
5.17651
-4.06234
0.372753
-2.74435
-3.49593
6.24028
-4.57935
3.03688
3.15325
5.08463
-4.91397
1.41804
-2.39245
-2.52151
2.6443
-4.39456
1.99232
3.18419
4.37805
0.589016
5.8958
6.21017
-8.50891
0.546224
11.273
-9.5496
2.4758
8.60566
-9.93241
0.378235
-8.72035
0.986262
-5.24068
-5.12571
5.15094
-6.88999
-3.51285
6.21974
0.595039
-6.34168
-0.42833
-6.07735
-2.87245
-6.5266
-3.07009
-6.16754
-8.78422
-1.68612
-7.0981
6.77931
-6.71429
-3.49302
7.45239
1.13749
-7.48727
7.37772
-7.55332
7.21642
0.0945003
3.62206
4.35701
1.88525
-2.3916
4.27685
-5.07121
7.35495
-8.71264
3.64143
4.18157
-6.72185
-4.53107
5.07143
4.05648
5.38795
8.96372
-10.4414
1.47768
-10.7168
12.0571
-1.34027
-16.5143
5.79747
-7.5506
2.49717
0.339413
2.57661
0.583403
2.49477
-3.07817
-2.17517
-2.10662
-2.41693
-3.49505
5.91197
1.09831
-3.43863
2.34032
-3.57175
4.67006
-0.0232571
-3.41538
5.21044
-2.71568
5.54986
-3.59501
1.95485
3.52171
5.8323
-2.31059
4.42151
-1.77269
1.91869
-4.22928
-1.57636
-2.95684
5.09736
-3.28345
3.6562
-0.341752
3.99795
-4.0806
0.889107
-0.841088
3.35014
3.63365
4.329
-3.05229
2.94617
-4.71887
-1.28311
-4.12985
-0.945659
-0.20597
-3.83641
4.04238
6.04786
-6.25383
-5.29822
9.55312
-4.2549
7.72203
-5.45313
-2.26889
-4.30623
-4.39741
3.93651
1.9736
9.69563
0.179822
-5.63296
-5.02249
-3.99977
3.14566
2.1644
-1.83342
3.35445
2.14709
-0.504373
0.457406
1.02684
1.80555
-1.34814
0.300903
1.50464
-1.12653
1.82575
0.806168
-1.8977
0.100424
-1.2584
3.43898
1.07726
-2.07019
0.722055
0.917035
-3.56181
5.00772
-2.69311
-2.3146
5.92475
1.13404
-3.82715
4.34608
-3.94193
2.4137
-3.54893
-1.41346
-5.35538
-3.57779
-2.51316
4.85348
-3.39881
5.49448
1.35047
-5.28633
6.6368
-3.618
1.73582
-3.06841
3.87458
-1.05206
-2.01635
2.915
2.4702
-3.09773
0.15335
-0.182728
2.39968
-2.58241
-0.572571
-2.57422
-4.57518
4.90425
-2.10451
4.55326
2.17235
-1.91679
6.47005
1.8086
-3.72539
-3.24785
-3.70615
-1.38365
3.15401
-0.59391
-4.30378
-5.46933
4.20417
0.225907
-6.90396
7.80769
-0.903723
-3.90942
-0.858773
4.88337
-6.03841
0.476743
-3.96415
3.84354
4.76668
4.99259
-11.422
-0.220648
-6.19769
1.11779
-7.31548
5.56041
-3.58775
7.70839
-10.3519
6.85892
-9.21445
6.56166
-0.753817
6.23744
-4.10807
2.8069
-8.5205
-6.94314
5.48373
-2.77607
6.20369
-3.1411
9.34479
-5.79116
5.26741
4.07738
-1.00981
-4.18446
-5.26462
4.25481
0.00278451
4.16238
4.9851
-2.87706
4.65411
2.26124
-4.65369
-2.13332
-6.4887
1.83501
-3.33545
-1.92066
3.75567
3.16397
3.75252
1.23415
-3.3452
7.2075
-8.19398
-1.86119
-3.26452
5.2502
-0.995389
3.39257
-6.6571
-1.84811
4.80011
-0.739352
-4.06076
0.879273
-4.39212
1.6838
-6.07592
5.2062
-5.63453
2.2499
-9.8005
-5.23737
-5.19506
-2.28093
-5.27239
-7.61221
5.33127
-1.81474
5.56298
-8.57182
7.83247
-3.4853
8.81657
-5.47164
-1.05496
5.90103
1.31539
10.132
0.141694
-4.67277
-1.94536
3.81
-1.86464
1.2003
-3.69472
0.115287
2.46696
3.45779
-6.73652
0.014675
-4.65809
-3.91721
7.97369
5.63591
11.6838
1.24237
9.16707
-1.19338
10.4094
4.19457
4.43231
-3.04741
4.52509
0.994974
4.63641
-0.871957
2.82681
1.70465
1.74632
0.810455
2.29516
1.33849
3.18427
0.106096
-2.00052
4.64506
-8.64483
-0.987897
-8.10092
1.15513
5.42605
-4.27092
2.96033
-0.795934
1.09569
-0.0755845
-1.4153
1.49089
-2.74087
-1.91968
-0.415035
-1.6
2.32205
1.83899
-1.90702
-0.833856
0.32302
-3.90081
3.22591
-3.07256
-0.602368
6.03444
-2.85426
0.271849
-1.11844
-2.30237
-2.85656
2.75614
6.17482
0.295237
3.11255
5.19948
3.09997
0.222904
3.88302
-5.68901
-3.63041
-5.90966
-0.349245
4.53413
1.72968
7.98407
5.80706
4.81168
-1.84542
-10.0394
6.5594
-2.03431
5.21913
-1.15836
-4.91755
5.05594
2.29901
-5.65097
0.0164449
-4.90111
-6.93542
-0.486466
8.31894
-9.64549
8.59053
5.71808
1.38002
-4.44577
-0.749285
4.29197
0.140345
10.5498
-0.904814
-7.1285
8.03331
-4.52123
3.53333
0.70831
2.64614
2.1992
1.40326
-5.72523
-9.99615
-2.01883
-1.54297
-4.33344
0.537841
-2.37683
6.0924
-2.55906
3.8235
5.47425
6.56994
-2.05975
-4.19408
6.31464
-2.49114
4.0788
)
;

boundaryField
{
    wall-4
    {
        type            calculated;
        value           uniform 0;
    }
    velocity-inlet-5
    {
        type            calculated;
        value           uniform -3.75095;
    }
    velocity-inlet-6
    {
        type            calculated;
        value           uniform -5.62643;
    }
    pressure-outlet-7
    {
        type            calculated;
        value           nonuniform List<scalar> 8(3.31261 7.76081 4.39284 9.73903 7.44936 5.11389 5.74748 8.99732);
    }
    wall-8
    {
        type            calculated;
        value           uniform 0;
    }
    frontAndBackPlanes
    {
        type            empty;
        value           nonuniform 0();
    }
}


// ************************************************************************* //
