/*--------------------------------*- C++ -*----------------------------------*\
  =========                 |
  \\      /  F ield         | OpenFOAM: The Open Source CFD Toolbox
   \\    /   O peration     | Website:  https://openfoam.org
    \\  /    A nd           | Version:  6
     \\/     M anipulation  |
\*---------------------------------------------------------------------------*/
FoamFile
{
    version     2.0;
    format      ascii;
    class       volVectorField;
    location    "50";
    object      U;
}
// * * * * * * * * * * * * * * * * * * * * * * * * * * * * * * * * * * * * * //

dimensions      [0 1 -1 0 0 0 0];

internalField   nonuniform List<vector> 
918
(
(0.985048 -0.000711434 0)
(0.00533808 2.96625 0)
(-0.000452992 0.875501 0)
(0.979574 0.00195996 0)
(-0.0130643 2.06484 3.09657e-20)
(-0.00709362 2.94855 -2.63185e-18)
(0.804096 1.11009 4.32756e-19)
(0.228077 0.0938116 -1.49137e-20)
(0.999921 -0.000242713 0)
(0.0852922 0.713651 0)
(0.0135666 0.482833 0)
(0.734364 -0.0176984 0)
(0.0102266 2.93153 0)
(0.00346458 2.79438 0)
(-0.00114799 3.18604 8.22624e-19)
(-0.0129553 1.91897 1.13512e-20)
(0.300795 0.0225514 9.93841e-19)
(0.230229 1.12404 3.47187e-19)
(0.964424 0.00673161 0)
(-0.0145173 0.441832 0)
(0.0433715 0.13249 -7.01823e-19)
(1.00183 -0.00456407 0)
(0.999851 -0.00893118 0)
(0.975159 -0.0060549 0)
(0.593073 -0.0348405 0)
(0.022206 2.64457 0)
(-0.0124007 2.91197 9.67534e-19)
(-0.00276445 0.934666 0)
(-0.0220246 1.16616 0)
(-0.00122836 0.906124 0)
(-0.0204868 2.60448 0)
(-0.00403282 2.11587 -2.47317e-20)
(-0.00882027 1.89368 0)
(-0.022144 2.98761 -9.50365e-23)
(-0.0164922 3.0055 2.04491e-18)
(0.0023084 3.00058 0)
(0.871588 -0.00968092 0)
(0.377419 0.919469 1.66788e-19)
(0.803484 1.12607 -5.38339e-19)
(0.938274 0.98736 5.46251e-19)
(0.667173 1.20926 -9.97364e-20)
(0.679306 1.17912 5.72466e-19)
(0.248838 0.173668 1.45496e-20)
(0.234222 0.0764824 0)
(1.14529 0.524052 0)
(0.218957 0.163905 6.63459e-20)
(0.198831 0.0945845 -6.88493e-20)
(0.920472 -0.00702348 0)
(1.00026 7.35923e-05 0)
(0.999909 0.000319081 0)
(1.0037 -0.00728436 0)
(1.0009 -0.000945115 0)
(1.00011 -1.06376e-05 0)
(0.0934487 1.83849 -7.45089e-19)
(0.035154 0.890109 0)
(0.131524 0.788313 0)
(0.0189929 0.844301 0)
(0.0430384 0.643637 0)
(0.00469924 2.0186 0)
(-0.00652668 0.754659 0)
(0.00954658 0.510491 0)
(-0.00385368 0.747357 0)
(0.0074683 0.483383 0)
(0.84203 -0.0157488 0)
(0.839144 0.0339537 0)
(0.766212 -0.00781647 0)
(0.808964 0.045005 0)
(0.7022 -0.0172989 0)
(0.0139515 3.00021 9.77567e-19)
(0.0111754 3.00603 0)
(0.00624533 3.00387 0)
(0.011897 2.99713 1.11146e-23)
(0.00827739 2.95872 -1.45291e-18)
(0.0122069 2.98286 0)
(0.00901679 2.90475 0)
(0.0209744 2.93148 2.27143e-24)
(0.00411738 2.82433 0)
(0.0259221 2.91882 0)
(-0.000258931 2.74486 0)
(0.308614 3.58452 0)
(-0.122505 3.66758 0)
(0.151504 3.27714 -7.65614e-19)
(0.00495141 3.01179 0)
(-0.0258273 1.99361 0)
(-0.0062055 2.17567 -1.11955e-20)
(-0.0080065 1.93025 9.9033e-21)
(0.389035 0.142072 -3.44357e-19)
(0.315874 -0.000879768 -3.33851e-19)
(0.353343 0.158321 -1.03365e-18)
(0.279328 0.0321561 -6.76517e-19)
(0.261966 1.0088 0)
(0.326511 1.2501 -3.60141e-19)
(0.403254 1.15508 5.93433e-19)
(0.987817 0.00812428 0)
(0.943358 0.0057946 0)
(1.00028 0.000672564 0)
(1.00254 0.00906895 0)
(1.00312 0.00897044 -2.64504e-18)
(0.992134 0.00945004 1.99875e-18)
(-0.0129669 0.758605 0)
(-0.0103762 0.448173 0)
(-0.0449318 1.01557 0)
(-0.0411214 0.809839 0)
(-0.0141654 0.433504 0)
(0.044783 0.147221 2.17065e-19)
(0.103374 0.117597 0)
(0.993616 -0.00769823 0)
(0.954022 -0.00647684 0)
(0.750458 0.0494983 0)
(0.684483 0.055206 0)
(0.659912 -0.0211347 0)
(0.974809 -0.00388774 0)
(0.611985 0.0588702 0)
(0.450453 -0.0315194 1.48592e-18)
(-0.0410873 2.86046 7.68804e-19)
(0.0334888 2.91437 0)
(0.0422118 2.89251 0)
(0.00349904 2.70218 0)
(-0.00860697 2.98648 9.26478e-19)
(-0.0140415 2.8946 0)
(-0.0110152 2.9916 -2.8511e-18)
(-0.0116631 2.92958 9.7043e-19)
(-0.0321136 1.33747 0)
(-0.0054243 1.36618 0)
(-0.00691406 2.13973 5.76329e-22)
(-0.00680693 2.09914 0)
(-0.0166358 1.90377 0)
(0.938594 -0.00531495 0)
(0.856753 -0.0110592 0)
(0.86358 0.00535145 0)
(0.949452 -0.006233 0)
(0.883449 -0.00805298 0)
(0.501618 1.12011 -2.11722e-19)
(0.548936 1.19036 0)
(0.338915 0.853533 3.23238e-20)
(0.282694 0.718248 0)
(0.901716 1.02195 -1.53514e-19)
(1.02165 0.830226 3.0455e-19)
(0.384549 1.31594 0)
(0.527807 1.26833 0)
(0.580592 1.19564 0)
(0.0990596 0.178245 -2.9568e-19)
(0.268315 0.17313 0)
(0.235157 0.0767428 1.90835e-19)
(0.985635 0.88534 0)
(1.06137 0.734746 0)
(1.09068 0.669307 -2.38956e-19)
(1.12814 0.582751 0)
(1.18337 0.38865 4.52242e-20)
(0.957358 -0.00716109 0)
(0.962648 -0.00814796 0)
(0.900773 -0.0073495 0)
(0.983908 -0.00813505 0)
(0.974385 -0.00805514 0)
(0.936496 -0.00655184 0)
(1.0002 0.00250065 0)
(1.00077 0.00124549 0)
(1 0.000766011 0)
(0.0432223 2.08537 4.14691e-19)
(0.145421 1.78187 0)
(0.0173114 2.2015 6.30642e-19)
(0.0530674 1.88864 -5.29252e-19)
(0.167407 1.10464 -2.84778e-19)
(0.0506174 0.968765 0)
(0.121633 0.963647 0)
(0.00835209 0.808953 0)
(0.0216863 0.583777 0)
(-0.00307762 2.25137 -6.50122e-22)
(0.0179701 2.02471 0)
(-0.00452534 2.25131 -2.39062e-20)
(0.00408948 2.02994 3.49042e-20)
(0.00047026 0.774607 0)
(-0.00130582 0.764613 0)
(0.00956328 0.538444 0)
(-0.0010616 0.747784 0)
(0.0036993 0.477204 0)
(0.938245 0.013434 0)
(0.854308 -0.011873 0)
(0.927768 0.0045757 0)
(0.845161 -0.0128528 0)
(0.812201 -0.00206939 0)
(0.898524 0.0229742 0)
(0.872869 0.0282377 0)
(0.788363 -0.00518591 0)
(0.0103904 3.06713 -9.1298e-21)
(0.0150125 3.05934 0)
(0.01236 2.97036 0)
(0.00756947 2.87656 0)
(0.899468 3.98152 0)
(1.19451 3.37653 9.42347e-19)
(0.0822011 3.09348 0)
(-0.0164142 2.91989 0)
(-0.011357 1.39019 0)
(-0.02916 1.69673 0)
(-0.0188834 1.52744 0)
(-0.0307391 2.56219 -1.13521e-20)
(-0.0144887 2.25232 0)
(-0.0200542 2.39922 0)
(0.000988832 1.95634 1.11508e-21)
(-0.00448623 2.24877 -1.29039e-20)
(-0.00504469 2.21402 -1.02223e-20)
(-0.00402823 1.94186 0)
(0.419416 0.118587 5.265e-19)
(0.344418 -0.00827126 -5.16486e-19)
(0.235286 1.58469 0)
(0.285653 0.745377 -3.21469e-19)
(0.179409 1.6851 -1.07013e-18)
(0.243801 1.21275 1.07095e-18)
(0.901816 0.00604969 0)
(0.967162 0.0105481 0)
(0.975014 0.00978589 0)
(0.923107 0.00592497 0)
(-0.0139374 0.753925 0)
(-0.00615752 0.756796 0)
(-0.000361423 0.450676 0)
(0.18243 0.160521 6.0956e-19)
(0.144205 0.146601 -7.21751e-19)
(0.147315 0.10323 0)
(1.10002 0.0881497 2.45932e-20)
(1.08383 0.0409234 0)
(1.01447 0.0428164 0)
(0.910115 -0.00236683 0)
(0.455649 0.095415 0)
(0.518059 0.071622 -2.38142e-18)
(0.383182 -0.0109275 8.96444e-19)
(0.0106941 2.97693 8.10425e-19)
(-0.0334396 2.86148 4.54918e-20)
(0.00817737 3.05312 -1.92491e-20)
(0.0158414 3.04327 7.20284e-19)
(-0.0118843 2.99999 3.1896e-20)
(-0.0122643 2.95233 -1.28653e-22)
(-0.0150638 3.01326 -5.94978e-19)
(0.0144825 3.02645 4.19574e-19)
(0.00759815 3.03496 -6.82009e-19)
(0.934142 0.00190568 0)
(0.939109 -0.00128183 0)
(0.847407 -0.0111347 0)
(0.9565 0.0115932 0)
(0.942688 0.0130204 0)
(0.881825 0.00568924 0)
(0.91617 0.0182533 0)
(0.925609 0.0150034 0)
(0.838202 0.00168603 0)
(0.674895 1.41983 1.674e-20)
(0.693098 1.53068 0)
(0.121698 0.30497 6.85165e-20)
(0.204348 0.644192 5.4325e-19)
(0.23788 0.692326 -3.18169e-19)
(0.219813 0.513344 6.3045e-19)
(0.332242 0.815968 1.56486e-18)
(0.128769 0.229981 3.75885e-19)
(0.327825 0.173854 7.19008e-19)
(0.295667 0.182729 1.86283e-19)
(0.25168 0.0565953 3.56779e-19)
(1.17752 0.438153 7.9748e-20)
(1.20583 0.242597 7.85254e-20)
(0.00669606 2.24358 2.46596e-19)
(0.039381 1.95022 0)
(0.970044 0.0325087 0)
(0.944841 0.0188465 0)
(0.868335 -0.015533 0)
(0.0121665 3.07465 0)
(0.0167789 2.94394 1.27708e-18)
(0.013947 2.95686 0)
(0.00587682 2.85009 -1.26734e-18)
(0.00945523 3.08973 3.12271e-19)
(0.0117537 3.0835 0)
(0.713885 1.82803 -1.7255e-19)
(1.23912 2.63409 5.83336e-19)
(0.698726 2.00636 -1.40516e-18)
(0.0224077 2.97598 -7.08615e-19)
(0.0410076 2.9989 0)
(-0.038282 2.87945 0)
(-0.00553213 2.23074 -1.2834e-20)
(-0.00418507 2.25239 2.13877e-20)
(0.00144282 1.99124 -7.49065e-21)
(0.265234 1.39258 1.03028e-18)
(0.276568 0.545089 -7.08192e-19)
(0.0707648 2.00173 7.52939e-19)
(0.121911 1.87397 -9.03309e-19)
(0.206358 1.53082 1.00541e-19)
(0.00535397 3.12039 -1.85763e-18)
(0.014315 3.12056 2.04549e-18)
(-0.00518078 2.98079 8.68033e-19)
(-0.00121441 2.97504 -8.33872e-19)
(-0.0177105 2.87737 -8.84126e-19)
(0.0118192 3.10089 -2.32266e-18)
(0.00570934 3.10536 2.34158e-18)
(0.256675 0.687115 0)
(0.208911 0.650927 -1.15039e-18)
(0.0705645 0.212578 5.05716e-19)
(0.342127 0.933569 1.11446e-18)
(0.193785 0.272661 -1.71619e-18)
(1.18789 0.173037 5.14677e-20)
(1.20255 0.300271 0)
(1.18348 0.119536 4.20799e-21)
(-0.00180406 2.26057 -1.38657e-21)
(0.00178809 2.24759 0)
(0.0296367 1.98474 0)
(0.313869 1.31275 -3.68676e-19)
(0.352178 1.1603 -7.98043e-19)
(0.225159 0.381823 1.4251e-18)
(1.00643 -0.00970189 0)
(1.00774 -0.00779892 4.86253e-19)
(-0.0282723 1.31866 0)
(-0.0350333 1.32183 0)
(1.00245 0.00329028 1.36356e-21)
(1.00321 0.00784211 9.98126e-19)
(-0.0218722 2.54762 1.43772e-20)
(-0.0259133 2.59044 0)
(0.0415422 3.17274 5.09428e-19)
(0.377037 3.54789 0)
(1.14749 0.684835 -5.63543e-20)
(1.0119 0.0107384 -2.80405e-21)
(1.0208 -0.00908698 0)
(1.00159 0.000253242 1.56021e-22)
(0.107954 1.36389 0)
(0.140181 2.59215 0)
(0.024129 1.31488 0)
(-0.00291242 2.6362 1.54047e-20)
(-0.0218381 2.58536 4.41957e-21)
(0.997934 0.0273177 2.70392e-21)
(1.06248 0.00546582 0)
(1.09868 0.0277045 0)
(-0.0280728 1.73894 0)
(-0.0176931 2.58889 0)
(-0.00497313 1.31455 0)
(0.295592 1.48277 -1.71333e-19)
(1.01149 -0.0090815 0)
(1.0097 -0.0130016 0)
(1.0023 0.000949451 6.23376e-19)
(1.00548 -0.00493298 -7.34015e-19)
(1.00113 -0.000872909 0)
(-0.0125698 1.45759 0)
(-0.00787454 1.37053 0)
(-0.0102429 1.41577 0)
(-0.00944428 1.30271 0)
(-0.0195772 1.2894 0)
(-0.00900335 1.27293 0)
(1.03547 -0.00447422 0)
(1.01916 0.0150099 -8.95707e-22)
(0.802143 1.3011 2.72098e-19)
(1.00236 0.000371178 -6.21777e-19)
(1.00339 0.00448327 7.4272e-19)
(1.00128 0.00210222 0)
(1.01124 0.00966184 6.19736e-19)
(1.00692 0.00751336 -7.54371e-19)
(1.00722 0.0111841 0)
(-0.0231932 2.61786 0)
(-0.0262582 2.59806 -2.40796e-20)
(-0.0234675 2.61164 1.69924e-20)
(1.2372 0.269537 5.36977e-19)
(1.16143 0.0877439 0)
(0.0447612 3.09054 -1.00232e-18)
(0.0511849 2.87225 -7.08631e-20)
(0.103739 3.20112 1.34271e-18)
(0.122428 3.21354 -2.91844e-19)
(0.143889 3.25931 0)
(0.0232477 3.13772 2.76227e-19)
(0.0617388 3.16177 9.98445e-19)
(0.0621137 3.17867 -5.16354e-19)
(0.0273714 3.12926 0)
(0.610998 0.286662 0)
(0.551484 0.322434 0)
(1.12808 0.716141 1.31691e-19)
(1.09508 0.850439 -1.20853e-19)
(1.187 0.603675 0)
(1.21651 0.53776 0)
(1.01579 0.0120411 -1.15136e-18)
(1.01474 0.0128037 1.44759e-18)
(1.02561 -0.0087911 0)
(1.02394 -0.0103574 0)
(1.00666 0.00299107 0)
(1.0109 0.00418622 0)
(1.00433 0.00218415 0)
(1.0095 0.00643089 0)
(1.00693 0.00505796 0)
(1.00449 0.00530429 0)
(0.0963445 1.36136 0)
(0.0793177 1.33926 0)
(0.133261 1.40883 0)
(0.133167 1.40856 0)
(0.146865 2.61737 0)
(0.188581 2.68688 -4.19882e-19)
(0.108037 2.67719 0)
(0.0820651 2.67644 1.69387e-19)
(0.0275681 2.68017 -1.68644e-19)
(0.0136822 1.32216 0)
(0.0169835 1.25364 0)
(0.0169227 1.33611 0)
(0.0330034 1.28166 0)
(-0.000947775 1.99186 1.31535e-20)
(-0.0215275 2.61332 -1.87047e-20)
(-0.00948216 2.6783 -3.16366e-21)
(-0.0201861 2.6908 0)
(-0.0230304 2.62021 -4.92711e-21)
(-0.0216096 2.61563 1.78995e-20)
(0.00700096 1.99024 -8.30508e-21)
(-0.00888287 2.40635 2.50953e-20)
(-0.0142964 2.42856 3.58684e-21)
(1.00957 0.0387872 1.16819e-18)
(1.00535 0.0176089 -1.45494e-18)
(1.00265 0.0446521 -1.1953e-18)
(0.975339 0.0316406 1.50533e-18)
(1.0641 0.00875239 0)
(1.04948 -0.00661912 0)
(1.09163 0.036277 0)
(1.07497 0.01431 0)
(1.07367 0.000311381 0)
(1.13998 0.0773388 0)
(1.11392 0.044453 0)
(1.11643 0.0368224 0)
(-0.0263764 2.4404 2.12034e-21)
(-0.0159492 2.01941 0)
(-0.0171773 2.22344 0)
(-0.0196019 2.60953 -1.21331e-20)
(-0.0166692 2.61979 3.35846e-22)
(0.00334377 1.57372 -4.30106e-20)
(-0.00348389 1.49946 4.38998e-20)
(-0.015324 1.3899 0)
(-0.0190582 1.3955 0)
(-0.0228009 1.38916 0)
(-0.00246205 1.316 0)
(0.00971476 1.24665 0)
(0.376387 1.50486 2.84785e-19)
(0.424387 1.50959 1.51416e-19)
(0.593078 2.47279 -2.51633e-19)
(0.386063 2.56601 6.97554e-19)
(0.352331 2.0665 6.89122e-20)
(1.02062 -0.00806366 0)
(1.01575 -0.00939713 0)
(1.01482 -0.013242 0)
(1.00766 -0.000624534 0)
(1.00491 -0.00065324 0)
(1.00798 -0.00453086 0)
(1.00953 -0.00350916 0)
(1.01461 -0.00437058 0)
(1.01992 0.0160222 1.12979e-18)
(1.01747 0.0147427 -1.42881e-18)
(1.02033 0.018245 -1.1394e-18)
(1.01802 0.0167647 1.42273e-18)
(0.75754 1.34766 0)
(0.696432 1.38316 2.38899e-19)
(0.865531 1.22778 9.35775e-20)
(0.902155 1.18651 -1.24191e-19)
(1.16688 2.61957 2.77227e-19)
(0.769232 0.122736 5.83256e-19)
(1.16909 0.10467 0)
(1.21004 0.197172 -4.35107e-19)
(1.19071 0.153423 -1.80767e-20)
(1.01428 0.161907 0)
(0.0809584 3.02119 3.58779e-19)
(0.0848397 2.90429 -1.18716e-18)
(0.0307898 2.36401 7.52846e-19)
(0.13454 -0.154606 -3.58083e-19)
(0.344919 3.45096 -2.46662e-19)
(0.194685 3.34308 0)
(0.225751 3.40151 3.21306e-19)
(0.225655 3.07958 -1.24655e-18)
(0.259153 3.19952 0)
(0.00666758 3.12245 5.17783e-20)
(0.0168006 3.13126 -5.96036e-19)
(0.0158942 3.12705 8.77256e-19)
(0.0334485 3.14011 0)
(0.0315037 3.1496 0)
(1.26208 2.58531 0)
(0.533155 0.804909 -5.25983e-19)
(1.01466 1.02109 -3.34359e-21)
(0.978889 1.07335 0)
(0.848764 0.959912 -1.10328e-19)
(1.07146 0.898412 2.65106e-20)
(0.38602 0.346387 -8.79135e-19)
(0.679453 0.310449 -2.31538e-20)
(0.61028 0.222494 4.02681e-19)
(0.576084 0.349233 2.97698e-20)
(0.481936 0.316495 -1.19607e-18)
(0.640163 0.31627 0)
(0.697732 0.41331 6.75437e-19)
(0.698964 0.418426 0)
(0.613385 0.339049 0)
(0.553028 0.26716 0)
(0.785751 0.646259 3.98847e-19)
(1.2463 0.300513 -4.39179e-19)
(1.23688 0.432958 0)
(1.24002 0.388985 0)
(0.719373 0.182692 6.06359e-19)
(0.836225 0.546168 -3.78553e-19)
(0.755296 0.507834 6.73836e-19)
(0.955677 0.435014 -6.94575e-19)
(1.01864 0.0145702 7.65803e-19)
(1.01722 0.0136037 -7.7418e-19)
(1.01608 0.0142003 0)
(1.03681 -0.00468381 0)
(1.03028 -0.00778178 -7.26125e-19)
(1.02844 -0.0106765 7.18624e-19)
(1.02476 0.0106754 0)
(1.02283 0.0147183 0)
(1.01265 0.00457454 0)
(1.01455 0.00910162 0)
(1.01622 0.00408468 0)
(1.01546 0.00283788 0)
(0.0654039 1.35691 0)
(0.064988 1.31795 0)
(0.140844 1.40667 5.00418e-20)
(0.267901 1.47711 8.16254e-20)
(0.162083 1.44946 1.8086e-19)
(0.194896 1.45389 -2.93391e-19)
(0.146731 1.41462 0)
(0.131706 1.58396 -9.27759e-20)
(0.133093 1.57598 0)
(0.353392 2.02247 -1.00307e-19)
(0.32849 2.34894 6.30545e-19)
(0.189489 1.45774 8.086e-20)
(0.266158 1.3818 2.1655e-20)
(0.196514 1.38089 -1.76422e-20)
(0.280355 1.32037 -9.47105e-20)
(0.248297 1.57823 0)
(0.260494 1.62484 1.02815e-19)
(0.0246054 2.2716 -1.56791e-20)
(0.0351352 2.67504 0)
(0.0652592 2.41457 9.44917e-20)
(0.0604734 2.43539 0)
(0.0673619 2.69388 -1.8804e-19)
(0.0412619 2.70855 0)
(0.0230245 1.4296 3.98171e-20)
(0.0337401 1.48845 0)
(0.0296751 1.39281 0)
(0.019523 1.39477 -4.63043e-20)
(-0.000707937 2.66325 -1.21515e-21)
(0.0228479 2.6977 1.92796e-19)
(0.00657808 2.73282 1.10535e-21)
(-0.000476499 1.83771 -6.47854e-21)
(-0.00496787 1.68937 -7.03683e-21)
(0.0130551 1.30269 0)
(0.0155986 1.22993 0)
(0.0355199 1.58309 -1.05207e-20)
(0.0352232 1.45921 -2.95092e-20)
(0.0313234 1.53005 3.30041e-20)
(0.0413095 1.61014 0)
(-0.0280125 2.27398 9.15993e-20)
(-0.0302202 2.55679 -3.88889e-20)
(-0.016958 2.45442 4.83649e-21)
(-0.00522841 1.85518 7.85617e-21)
(-0.0258485 2.50826 4.73114e-21)
(-0.022389 2.44832 -8.22152e-22)
(1.01819 0.0214071 -7.71597e-19)
(1.01425 0.0275342 7.76551e-19)
(1.01306 0.016584 0)
(1.01203 0.0694929 1.06345e-18)
(0.990792 0.0562552 -1.2263e-18)
(0.951267 0.053024 1.37271e-18)
(1.01336 0.114917 -1.44682e-19)
(1.04365 -0.00485767 0)
(1.05177 -0.00070697 6.95422e-19)
(1.04 -0.00827293 -6.95122e-19)
(1.07152 0.042451 -4.12535e-20)
(1.06449 0.0278724 3.56201e-19)
(1.06448 0.064043 0)
(1.05406 0.0531168 -1.28282e-19)
(1.03227 0.0438318 0)
(1.0254 0.0390618 0)
(1.02766 0.0134486 0)
(1.02401 0.0159616 0)
(1.04061 0.0329851 2.63713e-19)
(1.03941 0.0282097 -5.83761e-19)
(1.05266 0.0376459 -2.79056e-19)
(1.04817 0.0376035 -3.07937e-19)
(1.07722 0.0683937 5.89436e-19)
(1.10078 0.0542546 0)
(1.10761 0.0926704 0)
(-0.0245995 2.28149 5.95217e-20)
(-0.0253083 2.02628 2.13931e-21)
(-0.0210037 2.03525 0)
(-0.0280825 2.45225 -5.92679e-20)
(-0.0246025 2.41024 -4.17054e-21)
(-0.0318082 2.48137 7.08427e-21)
(-0.0203596 2.62855 -1.50137e-20)
(-0.023621 2.57155 5.57648e-22)
(-0.0222064 2.52371 -5.37861e-21)
(-0.0157364 2.62296 1.26241e-20)
(-0.0200355 2.6245 -1.40327e-20)
(-0.00571898 1.48918 -1.6908e-22)
(0.000737078 1.6229 -3.95263e-20)
(0.364476 1.44109 -1.21242e-19)
(0.364106 1.36948 1.91848e-20)
(0.638944 1.43134 -2.31434e-19)
(0.514362 1.50192 -1.47232e-19)
(0.568272 1.46232 0)
(0.609489 2.42898 2.21758e-19)
(0.668109 2.43629 3.38011e-19)
(0.423525 2.52229 8.28535e-20)
(0.401968 2.5513 -6.32892e-19)
(0.502108 2.49224 5.77357e-19)
(0.548649 2.48536 0)
(0.491555 2.53161 -5.52784e-19)
(0.257901 2.6052 1.14342e-18)
(0.360246 2.5706 -6.54083e-20)
(0.286164 2.66297 -1.58771e-18)
(0.967493 2.39665 7.11991e-19)
(0.848571 2.3976 0)
(1.01145 0.00133 2.52675e-20)
(1.01532 -0.00526683 -2.06282e-20)
(1.01769 -0.00405186 -3.77147e-19)
(1.01553 -0.00113478 3.7575e-19)
(1.01307 0.0017636 0)
(0.627024 1.29897 0)
(0.670498 1.18892 0)
(0.785702 1.1102 0)
(0.658093 1.14414 0)
(1.19752 2.63548 5.08449e-20)
(1.09032 2.38604 0)
(0.823515 2.18719 3.50126e-21)
(0.824892 2.44768 0)
(0.918725 2.53614 -4.29626e-19)
(0.950563 2.48562 2.86953e-19)
(0.794597 0.157143 0)
(0.752825 0.137663 1.58644e-19)
(0.918761 0.156023 9.22288e-19)
(0.825551 0.135652 -3.46769e-19)
(0.7771 0.0850373 -1.06276e-18)
(1.08574 0.23928 -8.49373e-19)
(0.985491 0.304903 -8.25255e-21)
(0.929402 0.339855 8.27165e-19)
(1.01953 0.250965 6.96289e-19)
(0.936244 0.198012 -1.22005e-18)
(0.895088 0.210623 1.53155e-19)
(0.934127 0.30272 -3.19356e-19)
(0.910153 0.214769 0)
(1.00091 0.200384 5.97484e-19)
(1.05653 0.214081 0)
(1.05041 0.223438 0)
(1.12329 0.121588 2.70052e-19)
(1.06523 0.188814 -1.05641e-20)
(1.07883 0.240757 -1.53931e-19)
(1.11365 0.206695 0)
(1.02334 0.0481154 5.97597e-19)
(1.03842 0.0622211 7.42806e-19)
(1.03272 0.0459442 -5.92768e-19)
(1.0423 0.0680436 -4.98074e-19)
(1.0149 0.0738749 -7.53091e-19)
(0.989266 0.166307 0)
(0.991824 0.107012 0)
(0.961293 0.0671743 -4.8734e-19)
(0.90704 0.0977648 1.92969e-19)
(1.03972 0.114508 6.88653e-19)
(1.07514 0.13357 -7.90479e-19)
(1.06907 0.175526 7.09996e-19)
(1.03624 0.152778 0)
(1.08521 0.119405 0)
(1.05748 0.109298 -3.23647e-19)
(1.04414 0.106029 -5.6011e-19)
(0.591066 1.10475 1.13994e-19)
(0.621603 1.42509 -1.95701e-20)
(1.14734 2.7278 -2.42904e-19)
(1.19992 3.11028 1.93184e-21)
(1.25598 2.73649 -1.2553e-19)
(1.29681 2.70797 1.81546e-20)
(1.27283 2.33131 -3.74505e-20)
(1.18778 3.01619 -7.08649e-20)
(1.20681 2.97313 2.19003e-19)
(1.18197 3.26422 -1.24161e-19)
(1.4008 2.98014 1.54017e-19)
(1.41269 2.91821 0)
(0.565176 0.827738 -4.76559e-20)
(0.225595 1.2174 4.85173e-19)
(0.505125 0.407661 5.6191e-19)
(0.386136 0.169268 6.44067e-19)
(0.516297 0.345118 6.75658e-19)
(0.548662 0.444701 -1.09252e-18)
(0.552456 0.438053 8.96329e-19)
(0.495621 0.360114 -3.41899e-19)
(0.406231 0.296244 7.73529e-19)
(0.742349 0.243131 -3.48303e-19)
(0.703399 0.271519 0)
(0.658523 0.194136 8.25783e-21)
(0.737037 0.500958 3.67338e-19)
(0.699649 0.473539 -1.33582e-18)
(0.632327 0.449229 1.90124e-20)
(0.629531 0.424845 0)
(0.708541 0.715833 3.77618e-19)
(0.825884 0.792971 4.16619e-19)
(0.761213 0.845453 -4.85518e-19)
(0.894903 0.813868 -1.55505e-19)
(0.927356 0.854667 -3.70494e-20)
(0.935169 0.862065 3.79928e-20)
(0.874885 0.671464 -6.78388e-19)
(0.945709 0.717995 1.44577e-19)
(0.997461 0.721814 0)
(0.994491 0.697583 -1.87721e-19)
(1.02914 0.329014 2.16211e-19)
(1.15466 0.329402 2.62756e-19)
(1.07063 0.276981 3.47767e-19)
(0.991876 0.373243 -4.28677e-19)
(1.04668 0.477025 0)
(1.13136 0.41946 0)
(0.896856 0.414187 2.55762e-21)
(0.84491 0.300868 0)
(0.887078 0.29044 3.93244e-19)
(0.908877 0.336214 6.968e-21)
(0.970932 0.480897 1.94478e-18)
(0.902555 0.541448 4.99763e-19)
(0.922709 0.492247 -5.34561e-19)
(0.843791 0.471754 5.68513e-19)
(0.816379 0.447376 3.56047e-19)
(0.792155 0.414921 -3.49083e-19)
(1.02807 -0.000412289 6.23277e-19)
(1.02033 0.000395028 0)
(1.01898 0.00124199 4.06639e-19)
(1.02252 -0.000930614 -9.2055e-19)
(1.02251 0.00441 4.4846e-19)
(1.02009 0.0114229 -9.38501e-19)
(1.02087 0.0111858 0)
(1.01981 0.0119315 -1.95479e-19)
(1.01649 0.00767578 4.89878e-19)
(1.01671 0.0107944 -2.45925e-19)
(1.01734 0.0104484 1.79982e-19)
(0.0275965 1.32777 0)
(0.0307973 1.3628 0)
(0.0437663 1.3352 0)
(0.0474615 1.29206 0)
(0.0758159 1.37586 -2.62277e-20)
(0.0873954 1.35013 -4.3097e-21)
(0.0647069 1.55149 -2.29699e-21)
(0.0959948 1.3817 -4.23314e-20)
(0.0400033 1.46852 2.69675e-20)
(0.0434324 1.46538 -2.15095e-20)
(0.0671828 1.37498 -3.04165e-20)
(0.0581983 1.37907 5.97783e-20)
(0.0484473 1.35518 9.33483e-21)
(0.0407848 1.37715 4.70709e-21)
(0.104011 2.38573 -1.03127e-19)
(0.0931047 2.42895 0)
(0.145445 2.02996 9.40181e-20)
(0.11766 1.70137 3.37102e-20)
(0.217762 2.02455 -8.55009e-20)
(0.211159 2.43326 0)
(0.259954 2.38483 -5.91675e-19)
(0.293577 2.38414 4.30226e-19)
(0.257063 1.99507 -2.08477e-19)
(0.141639 2.16058 1.51031e-19)
(0.108874 2.26917 0)
(0.0189486 1.86699 -1.66668e-20)
(-0.00631038 2.39151 -3.91999e-20)
(0.00271775 2.14243 0)
(0.00381202 2.45401 -1.51371e-20)
(0.0263412 2.29817 1.82831e-20)
(0.0113311 1.40851 -7.27928e-21)
(0.0129195 1.39507 1.2735e-19)
(0.0129919 1.40112 -4.04284e-20)
(0.0166268 1.40148 -3.71632e-20)
(0.0222934 1.43273 0)
(0.0115892 1.38495 0)
(0.00263973 1.30021 -5.08247e-20)
(0.0100185 1.37233 1.42023e-20)
(0.0124866 1.37347 0)
(0.00769624 1.29287 -3.79663e-20)
(0.0161311 1.22355 7.71897e-20)
(1.04222 0.0145323 0)
(1.04857 0.0100557 -6.50532e-20)
(1.03892 0.0236119 -4.70365e-19)
(1.04923 0.0226353 0)
(1.05435 0.0219387 0)
(1.03619 0.0125352 -6.74619e-21)
(1.03027 0.0128546 7.55502e-19)
(1.03187 0.0169634 9.18288e-19)
(1.02563 0.0207402 0)
(1.02206 0.0213195 0)
(1.03542 0.0255058 4.69234e-19)
(1.02539 0.0275897 0)
(1.02353 0.027669 0)
(-0.0179121 2.02623 0)
(-0.00259843 1.65071 -1.46293e-21)
(-0.00622541 1.75825 -2.71073e-20)
(0.000525987 1.38199 0)
(-0.00253788 1.55024 -1.91333e-20)
(-0.0106144 1.46041 1.36683e-20)
(-0.00689915 1.39487 0)
(0.407129 1.65136 0)
(0.360548 1.30884 -2.57282e-20)
(0.279058 1.34697 0)
(0.428827 1.31468 -4.1852e-20)
(0.462961 1.46745 0)
(0.448742 1.41089 4.19663e-20)
(1.04059 2.68224 -1.52077e-20)
(0.982614 2.41658 -8.94713e-19)
(0.943283 2.21111 1.01513e-18)
(0.864643 2.39004 2.39856e-19)
(0.854695 2.49942 0)
(0.922286 2.49581 0)
(0.95132 2.39006 0)
(0.927833 2.37926 -9.28559e-19)
(0.694634 2.46788 -3.77144e-19)
(0.803116 2.45135 -9.70395e-20)
(0.810793 2.42959 7.31648e-20)
(0.705085 2.40888 0)
(0.809578 2.40307 0)
(0.771141 2.41877 -3.64988e-19)
(0.768062 2.47866 0)
(0.6218 1.07279 0)
(0.520287 0.880603 -5.44392e-19)
(0.524133 0.947237 -3.15068e-20)
(0.50717 1.08921 0)
(0.493345 0.999593 8.34539e-19)
(0.792353 0.882855 -1.34375e-19)
(0.796427 1.01391 0)
(0.775221 0.993507 1.87528e-19)
(0.665066 1.02206 0)
(0.660896 0.932913 0)
(1.16516 2.76306 -2.18856e-19)
(1.14038 2.8214 -8.85295e-20)
(0.926625 2.34834 7.21525e-20)
(0.903009 2.32869 -7.51268e-20)
(1.13453 2.74113 0)
(1.08645 2.70948 9.02969e-20)
(1.10254 2.50361 -2.98014e-19)
(1.00352 2.26013 -2.86472e-20)
(0.503032 1.35103 0)
(0.522476 1.0934 -1.00476e-19)
(0.589767 1.18571 0)
(0.860468 0.222647 0)
(0.774193 0.173993 0)
(0.703042 0.140621 0)
(0.860598 0.221716 -6.0459e-19)
(0.762662 0.217209 3.63374e-19)
(0.922117 0.0810287 -4.00026e-19)
(0.93942 0.132582 0)
(0.914185 0.144969 1.72092e-19)
(0.849805 0.10228 6.90127e-19)
(0.807459 0.0683755 -4.32318e-19)
(1.10132 3.35713 -6.8133e-19)
(1.16741 3.27989 0)
(1.1203 3.44233 -1.58137e-18)
(0.660331 3.58761 1.31783e-18)
(1.03151 3.08386 1.23542e-19)
(0.529575 0.806508 5.68356e-19)
(0.514111 0.778435 0)
(0.368844 0.433037 -1.46615e-19)
(0.472768 0.648614 8.56231e-19)
(0.531841 0.40903 -1.98712e-19)
(0.51363 0.477408 2.30503e-19)
(0.682309 0.529522 4.77814e-19)
(0.725417 0.561958 0)
(0.650038 0.582964 0)
(0.623162 0.538352 0)
(1.00268 0.60575 9.47739e-20)
(0.95673 0.584754 -4.83628e-19)
(0.96828 0.59964 3.67114e-19)
(1.03197 0.535903 -3.59562e-19)
(1.07749 0.507211 0)
(1.08135 0.594541 -9.4025e-20)
(0.87335 0.405802 -7.92581e-19)
(0.865145 0.396467 -1.01443e-18)
(0.804835 0.388199 6.24608e-19)
(0.809285 0.349894 -6.46801e-19)
(0.850169 0.311064 -5.0695e-19)
(0.803038 0.311971 6.22722e-19)
(1.02657 0.00644284 -4.69351e-19)
(1.0262 0.00656917 9.45924e-19)
(1.02982 0.000717824 6.04056e-19)
(1.03399 0.00140988 -7.25414e-19)
(1.03371 0.011356 0)
(1.02982 0.0115628 -1.18187e-18)
(0.0858922 1.65427 1.11399e-20)
(0.0511826 1.59473 0)
(0.0941755 1.70346 6.24465e-20)
(0.10762 1.67837 -5.59955e-20)
(0.0567717 1.54794 4.26926e-21)
(0.0413202 1.54086 0)
(0.00512337 1.68749 0)
(-0.00473246 1.49581 9.04596e-21)
(-0.0039056 1.43754 -8.11975e-21)
(-0.00648772 1.54738 4.48465e-21)
(-0.0013918 1.88635 1.24487e-20)
(-0.0128069 1.94107 -3.82865e-21)
(0.495556 1.37654 -2.53503e-19)
(0.497765 1.37358 2.77174e-19)
(0.445055 1.30577 -8.1775e-21)
(0.429841 1.30163 7.4186e-21)
(0.618514 1.30543 0)
(0.546364 1.3986 1.16047e-19)
(0.547215 1.401 -1.13015e-19)
(0.477613 1.29059 7.8809e-21)
(0.521006 1.24941 0)
(0.585935 1.2179 0)
(0.669027 2.43103 5.55456e-19)
(0.663336 2.45621 1.27507e-18)
(0.719425 2.47299 -8.76705e-19)
(0.620019 2.44623 -2.05463e-19)
(0.556877 2.54192 2.76239e-19)
(0.496453 2.50574 -7.18008e-19)
(0.991653 2.39418 -5.718e-19)
(1.02551 2.4122 0)
(0.949625 2.19563 -6.29808e-19)
(1.05685 2.69031 0)
(1.05611 2.67261 0)
(0.612295 2.30428 2.55223e-20)
(1.12319 3.07666 9.15835e-20)
(1.00409 2.97713 -1.44931e-19)
(0.331578 0.837444 0)
(0.341004 0.73454 -3.02581e-19)
(0.537815 0.663785 -3.07797e-19)
(0.377178 2.14948 0)
(0.408075 2.74754 -8.69084e-20)
(0.419426 2.48542 0)
(0.715044 0.675419 -8.07285e-19)
(0.774879 0.679781 1.12944e-18)
(0.788417 0.648576 -1.07022e-18)
(0.688727 0.642847 -1.02673e-19)
(0.750508 0.600601 -4.22141e-19)
(0.977563 2.7624 -6.93717e-20)
(1.01655 2.76609 -2.01572e-19)
(0.564635 2.22779 4.08216e-19)
(0.6145 1.74875 -3.2805e-19)
(0.712385 1.86796 -4.84597e-19)
(0.982383 2.40315 -1.3625e-19)
(0.981179 2.35789 3.55882e-19)
(0.658478 1.78464 3.26054e-20)
(0.465185 1.31544 1.70912e-19)
)
;

boundaryField
{
    wall-4
    {
        type            noSlip;
    }
    velocity-inlet-5
    {
        type            fixedValue;
        value           uniform (1 0 0);
    }
    velocity-inlet-6
    {
        type            fixedValue;
        value           uniform (0 3 0);
    }
    pressure-outlet-7
    {
        type            zeroGradient;
    }
    wall-8
    {
        type            noSlip;
    }
    frontAndBackPlanes
    {
        type            empty;
    }
}


// ************************************************************************* //
