/*--------------------------------*- C++ -*----------------------------------*\
  =========                 |
  \\      /  F ield         | OpenFOAM: The Open Source CFD Toolbox
   \\    /   O peration     | Website:  https://openfoam.org
    \\  /    A nd           | Version:  6
     \\/     M anipulation  |
\*---------------------------------------------------------------------------*/
FoamFile
{
    version     2.0;
    format      ascii;
    class       volScalarField;
    location    "2.5";
    object      Ma;
}
// * * * * * * * * * * * * * * * * * * * * * * * * * * * * * * * * * * * * * //

dimensions      [0 0 0 0 0 0 0];

internalField   nonuniform List<scalar> 
5250
(
2.99989
2.99971
2.99913
2.9982
2.99513
2.99019
2.97405
2.94546
2.86633
2.68979
2.31408
1.53456
0.46771
0.0440405
0.136262
0.306131
0.349166
0.315442
0.254317
0.197717
0.160654
0.129073
0.0966472
0.0646115
0.0443945
2.99989
2.99971
2.99914
2.99821
2.99515
2.99023
2.97416
2.94569
2.86686
2.69108
2.31649
1.53946
0.473145
0.0458304
0.145936
0.312547
0.352909
0.318598
0.258808
0.205082
0.170129
0.140245
0.110522
0.0834392
0.0687745
2.99989
2.99971
2.99915
2.99823
2.9952
2.99032
2.97439
2.9462
2.86797
2.69402
2.32185
1.55192
0.487632
0.0511113
0.163961
0.322949
0.359472
0.325142
0.268463
0.220269
0.189566
0.163402
0.138722
0.118334
0.108336
2.99989
2.99971
2.99916
2.99825
2.99526
2.99046
2.97473
2.94701
2.86968
2.69842
2.33051
1.56797
0.51119
0.0664357
0.187544
0.336501
0.369295
0.336306
0.284542
0.242973
0.217295
0.195757
0.176528
0.161864
0.155253
2.9999
2.99972
2.99918
2.99829
2.99536
2.99066
2.9752
2.94815
2.87206
2.70439
2.34279
1.58862
0.545032
0.0929302
0.215524
0.350814
0.381314
0.351307
0.305715
0.270934
0.250213
0.233435
0.21933
0.209239
0.2051
2.9999
2.99973
2.9992
2.99834
2.99548
2.99092
2.97583
2.94962
2.87521
2.71227
2.35897
1.61644
0.589473
0.130326
0.247159
0.366445
0.395815
0.37014
0.331456
0.303333
0.288119
0.276143
0.266955
0.261278
0.259546
2.9999
2.99974
2.99923
2.99839
2.99563
2.99123
2.97661
2.95144
2.87915
2.72198
2.37924
1.65108
0.643733
0.177698
0.282299
0.383625
0.412915
0.392638
0.361765
0.339934
0.330272
0.32432
0.320892
0.320499
0.322451
2.99991
2.99975
2.99926
2.99846
2.99581
2.99162
2.97755
2.95361
2.88397
2.73353
2.40374
1.69335
0.707194
0.234516
0.319887
0.401196
0.431935
0.418217
0.396034
0.380946
0.37729
0.377824
0.382864
0.39132
0.401627
2.99991
2.99976
2.9993
2.99854
2.99603
2.99206
2.9787
2.95609
2.88973
2.74736
2.43235
1.74487
0.780054
0.300968
0.356271
0.41868
0.451897
0.446076
0.432524
0.425453
0.428903
0.438349
0.455309
0.480323
0.513576
2.99992
2.99978
2.99935
2.99864
2.99629
2.99259
2.98007
2.95906
2.89663
2.76377
2.46691
1.80849
0.867512
0.375614
0.38678
0.440081
0.474301
0.476297
0.470444
0.471396
0.483283
0.505668
0.542793
0.597925
0.70173
2.99993
2.9998
2.9994
2.99876
2.9966
2.99322
2.98168
2.96259
2.90487
2.78339
2.50902
1.88719
0.977639
0.458547
0.416221
0.460299
0.497417
0.506961
0.509267
0.518846
0.541183
0.580706
0.641307
0.741937
0.898345
2.99994
2.99982
2.99946
2.99889
2.99696
2.99394
2.98358
2.96666
2.91436
2.80725
2.5588
1.9849
1.11647
0.551677
0.444189
0.479202
0.518535
0.537857
0.548895
0.56742
0.600656
0.653187
0.730829
0.850473
1.01484
2.99994
2.99984
2.99954
2.99904
2.99736
2.99476
2.98576
2.97127
2.92583
2.83273
2.61948
2.09653
1.27785
0.651081
0.472298
0.501333
0.543989
0.572082
0.590229
0.615492
0.655395
0.712921
0.793345
0.9062
1.04411
2.99995
2.99987
2.99961
2.99918
2.99776
2.99555
2.98793
2.97575
2.93671
2.86222
2.67645
2.24773
1.49182
0.762166
0.516632
0.540167
0.581143
0.612805
0.6332
0.661034
0.703334
0.761085
0.836727
0.932644
1.04841
2.99996
2.99989
2.99967
2.99932
2.99814
2.9963
2.98997
2.97998
2.94717
2.88838
2.72861
2.3937
1.70562
0.874069
0.56813
0.591233
0.628477
0.660558
0.679081
0.703658
0.743955
0.797739
0.868613
0.95045
1.04678
2.99997
2.99991
2.99973
2.99944
2.99846
2.99694
2.99168
2.98344
2.95615
2.907
2.77533
2.47905
1.88794
0.974622
0.622743
0.631534
0.668608
0.702813
0.722583
0.74499
0.780384
0.828244
0.891285
0.964505
1.04607
2.99998
2.99993
2.99978
2.99954
2.99875
2.99751
2.99322
2.98655
2.96421
2.92415
2.81623
2.55864
2.07012
1.15232
0.728386
0.664005
0.693134
0.725047
0.753862
0.778742
0.812805
0.855121
0.909495
0.974043
1.04552
2.99998
2.99995
2.99983
2.99964
2.999
2.99803
2.9946
2.98936
2.97141
2.94037
2.85294
2.64818
2.24622
1.39672
0.869382
0.704124
0.716556
0.744219
0.777618
0.806528
0.839612
0.881226
0.927838
0.983659
1.04602
2.99999
2.99996
2.99987
2.99972
2.99924
2.99849
2.99586
2.99195
2.97798
2.95605
2.88708
2.74782
2.43056
1.78493
1.05188
0.781332
0.76536
0.780184
0.807448
0.836382
0.866411
0.903691
0.947239
0.995957
1.0498
2.99999
2.99997
2.9999
2.99979
2.99942
2.99885
2.99684
2.99387
2.98312
2.96668
2.91274
2.80843
2.55914
1.99993
1.22158
0.846086
0.803368
0.817828
0.842034
0.871123
0.898317
0.92945
0.967059
1.01011
1.05726
3
2.99998
2.99993
2.99985
2.99957
2.99914
2.99765
2.99545
2.98749
2.97522
2.93562
2.85439
2.66545
2.20033
1.46962
0.970948
0.844474
0.849039
0.870388
0.89988
0.927868
0.955783
0.987913
1.02526
1.06671
3
2.99999
2.99995
2.99989
2.99969
2.99937
2.99828
2.99668
2.99081
2.98214
2.95195
2.9003
2.75661
2.45401
1.83506
1.14316
0.90655
0.888702
0.903449
0.929038
0.957057
0.983125
1.0106
1.0422
1.0778
3
2.99999
2.99997
2.99992
2.99978
2.99955
2.99877
2.99763
2.99341
2.9873
2.96546
2.92914
2.8251
2.59474
2.12754
1.33175
0.979704
0.92131
0.932467
0.954733
0.983098
1.00923
1.03522
1.06293
1.0936
3
3
2.99998
2.99995
2.99985
2.99969
2.99914
2.99834
2.99539
2.99118
2.97581
2.9513
2.87554
2.71164
2.37225
1.65045
1.14404
0.97799
0.967466
0.980595
1.00444
1.03154
1.05634
1.08178
1.10946
3
3
2.99999
2.99997
2.9999
2.99979
2.99942
2.99887
2.99687
2.99405
2.98339
2.96774
2.91465
2.81471
2.57061
2.04482
1.35472
1.06459
1.01465
1.01668
1.03252
1.05604
1.07924
1.10245
1.12702
3.00001
3
3
2.99998
2.99994
2.99984
2.99968
2.99912
2.9983
2.99532
2.99098
2.97567
2.94997
2.87295
2.70612
2.35138
1.65712
1.20764
1.06351
1.05054
1.05945
1.07886
1.1025
1.12431
1.14618
3.00001
3
3
2.99999
2.99997
2.9999
2.99979
2.99942
2.99889
2.99687
2.99415
2.98345
2.96842
2.91546
2.82024
2.5796
2.07659
1.42694
1.14915
1.09754
1.09473
1.10656
1.12641
1.14742
1.16707
3.00001
3.00001
3
2.99999
2.99998
2.99994
2.99987
2.99964
2.99931
2.99808
2.9964
2.99007
2.98068
2.94902
2.88655
2.73252
2.3646
1.76273
1.28256
1.13925
1.12429
1.13134
1.14809
1.16965
1.18894
3.00001
3.00001
3
3
2.99999
2.99996
2.99992
2.99977
2.99956
2.99877
2.9977
2.9934
2.98775
2.96534
2.93217
2.82184
2.62844
2.11844
1.53357
1.23489
1.16562
1.15945
1.16728
1.18459
1.20578
3.00001
3.00001
3.00001
3
3
2.99999
2.99995
2.99989
2.9997
2.99942
2.99839
2.99697
2.9916
2.98369
2.95637
2.90657
2.77141
2.48337
1.90836
1.41125
1.22485
1.19597
1.19352
1.20398
1.22113
3.00001
3.00001
3.00001
3
3
2.99999
2.99998
2.99993
2.99987
2.99964
2.99931
2.99821
2.99632
2.99073
2.9784
2.94643
2.86813
2.69817
2.27529
1.6813
1.31964
1.2296
1.21919
1.22457
1.23859
3.00001
3.00001
3.00001
3.00001
3
3
2.99999
2.99996
2.99992
2.99976
2.99955
2.99869
2.99765
2.993
2.98744
2.96371
2.92902
2.81682
2.60806
2.10309
1.55064
1.30582
1.25387
1.24839
1.25612
3.00001
3.00001
3.00001
3.00001
3.00001
3
3
2.99998
2.99996
2.99987
2.99975
2.99928
2.99871
2.99619
2.99323
2.98026
2.96281
2.89861
2.78216
2.50511
1.94929
1.49306
1.31307
1.28164
1.28
3.00001
3.00001
3.00001
3.00001
3.00001
3
3
2.99999
2.99998
2.99994
2.99988
2.99968
2.99939
2.99839
2.99683
2.99174
2.98123
2.95119
2.8809
2.72044
2.33198
1.78734
1.4227
1.31877
1.30418
3.00001
3.00001
3.00001
3.00001
3.00001
3.00001
3
3
2.99999
2.99997
2.99993
2.99979
2.99962
2.99886
2.99802
2.99394
2.98939
2.96814
2.9402
2.8367
2.66523
2.20259
1.70625
1.42387
1.34819
3.00001
3.00001
3.00001
3.00001
3.00001
3.00001
3.00001
3
3
2.99999
2.99996
2.99992
2.99976
2.99957
2.99875
2.99775
2.99352
2.98785
2.96584
2.93021
2.81933
2.61433
2.13477
1.66765
1.43783
3.00001
3.00001
3.00001
3.00001
3.00001
3.00001
3.00001
3.00001
3
3
2.99999
2.99996
2.99991
2.99974
2.99953
2.99867
2.99758
2.99323
2.98685
2.96379
2.92237
2.80211
2.5664
2.09613
1.63789
3.00001
3.00001
3.00001
3.00001
3.00001
3.00001
3.00001
3.00001
3.00001
3
3
2.99998
2.99996
2.99987
2.99977
2.9993
2.9988
2.99637
2.99377
2.98125
2.96569
2.90366
2.79969
2.53848
2.07168
3.00001
3.00001
3.00001
3.00001
3.00001
3.00001
3.00001
3.00001
3.00001
3.00001
3
3
2.99998
2.99996
2.99987
2.99977
2.99931
2.99878
2.99641
2.99349
2.98091
2.96299
2.89623
2.78632
2.48987
3.00001
3.00001
3.00001
3.00001
3.00001
3.00001
3.00001
3.00001
3.00001
3.00001
3.00001
3
3
2.99998
2.99996
2.99988
2.99978
2.99932
2.99879
2.99632
2.99329
2.97982
2.96089
2.88836
2.77563
3.00001
3.00001
3.00001
3.00001
3.00001
3.00001
3.00001
3.00001
3.00001
3.00001
3.00001
3.00001
3.00001
3
3
2.99997
2.99994
2.9998
2.99961
2.99863
2.99819
2.99293
2.98153
2.95772
2.88353
3.00001
3.00001
3.00001
3.00001
3.00001
3.00001
3.00001
3.00001
3.00001
3.00001
3.00001
3.00001
3.00001
3.00001
3
3
2.99998
2.99994
2.99982
2.99965
2.9986
2.99824
2.99241
2.98112
2.95653
3.00001
3.00001
3.00001
3.00001
3.00001
3.00001
3.00001
3.00001
3.00001
3.00001
3.00001
3.00001
3.00001
3.00001
3.00001
3
3
2.99998
2.99995
2.99981
2.99966
2.99857
2.99835
2.99266
2.9821
3.00001
3.00001
3.00001
3.00001
3.00001
3.00001
3.00001
3.00001
3.00001
3.00001
3.00001
3.00001
3.00001
3.00001
3.00001
3.00001
3
3
2.99998
2.99995
2.99977
2.99967
2.99857
2.99848
2.9927
3.00001
3.00001
3.00001
3.00001
3.00001
3.00001
3.00001
3.00001
3.00001
3.00001
3.00001
3.00001
3.00001
3.00001
3.00001
3.00001
3.00001
3
3
2.99999
2.99994
2.99989
2.9996
2.99933
2.99684
3.00001
3.00001
3.00001
3.00001
3.00001
3.00001
3.00001
3.00001
3.00001
3.00001
3.00001
3.00001
3.00001
3.00001
3.00001
3.00001
3.00001
3
3
2.99999
2.99998
2.99991
2.99985
2.99948
2.99898
3.00001
3.00001
3.00001
3.00001
3.00001
3.00001
3.00001
3.00001
3.00001
3.00001
3.00001
3.00001
3.00001
3.00001
3.00001
3.00001
3.00001
3.00001
3.00001
3
2.99999
2.99999
2.99993
2.99987
2.9995
3.00001
3.00001
3.00001
3.00001
3.00001
3.00001
3.00001
3.00001
3.00001
3.00001
3.00001
3.00001
3.00001
3.00001
3.00001
3.00001
3.00001
3.00001
3.00001
3
3
2.99999
2.99997
2.99989
2.9998
3.00001
3.00001
3.00001
3.00001
3.00001
3.00001
3.00001
3.00001
3.00001
3.00001
3.00001
3.00001
3.00001
3.00001
3.00001
3.00001
3.00001
3.00001
3.00001
3.00001
3.00001
3
2.99999
2.99993
2.9999
3.00001
3.00001
3.00001
3.00001
3.00001
3.00001
3.00001
3.00001
3.00001
3.00001
3.00001
3.00001
3.00001
3.00001
3.00001
3.00001
3.00001
3.00001
3.00001
3.00001
3
3
2.99998
2.99995
2.99977
1.12121
1.34143
1.49144
1.58028
1.60277
1.56806
1.49982
1.42076
1.30298
1.19305
1.11938
1.08841
1.08173
1.08283
1.08337
1.08251
1.07958
1.07443
1.06746
1.06155
1.05717
1.05402
1.05173
1.04999
1.04865
1.04764
1.04696
1.0466
1.04648
1.04655
1.04679
1.04692
1.04687
1.04625
1.04434
1.03998
1.03068
1.01025
0.965485
0.868658
0.662404
0.266632
0.159744
0.349058
0.267148
0.236004
0.198624
0.15814
0.120617
0.0799459
0.0530945
0.0772657
0.114245
0.151402
0.190219
0.228122
0.265013
0.29892
0.331608
0.365213
0.399648
0.432733
0.465235
0.496378
0.527397
0.557223
0.587284
0.616197
0.64537
0.673363
0.701594
0.728653
0.756013
0.78212
0.808442
0.833298
0.858265
0.881653
0.905212
0.927219
0.949546
0.970389
0.991696
1.01156
1.032
1.05098
1.07069
1.08894
1.10807
1.12576
1.14439
1.16156
1.17973
1.1965
1.21424
1.23053
1.24756
1.26219
1.27593
1.28317
1.17779
1.32106
1.41946
1.47502
1.49277
1.48799
1.48294
1.49532
1.52037
1.53848
1.54133
1.53079
1.51127
1.48858
1.46939
1.45751
1.45218
1.44983
1.4484
1.44695
1.4452
1.44339
1.44152
1.43994
1.43862
1.4376
1.43703
1.43653
1.43653
1.43653
1.43677
1.43702
1.43717
1.43699
1.43596
1.43291
1.42565
1.40904
1.37153
1.28813
1.10946
0.750066
0.38847
0.201237
0.14978
0.114449
0.111511
0.166054
0.223471
0.273814
0.319384
0.360775
0.398054
0.433129
0.468219
0.502806
0.536883
0.568323
0.598179
0.627651
0.658181
0.687457
0.716458
0.744333
0.772143
0.798859
0.825533
0.85124
0.877091
0.901989
0.926955
0.950889
0.974903
0.997928
1.02111
1.04335
1.06573
1.08717
1.10867
1.12933
1.14997
1.1699
1.1898
1.20909
1.22857
1.24748
1.26687
1.28535
1.30471
1.32263
1.34205
1.35931
1.3789
1.39552
1.41507
1.43124
1.44995
1.46546
1.48034
1.49006
1.16796
1.27599
1.36576
1.44139
1.50885
1.57555
1.63902
1.69429
1.7381
1.76661
1.77371
1.77049
1.75915
1.7384
1.71345
1.69345
1.67874
1.66919
1.66343
1.65952
1.65657
1.65419
1.65214
1.65054
1.64904
1.64795
1.64689
1.64616
1.64551
1.64512
1.64494
1.64501
1.64508
1.64504
1.6446
1.64288
1.63813
1.6269
1.6008
1.54156
1.4077
1.12354
0.751672
0.528668
0.440067
0.399198
0.399084
0.440476
0.489958
0.533783
0.572829
0.606145
0.636093
0.664138
0.69319
0.72247
0.751969
0.779617
0.805578
0.830432
0.855883
0.881089
0.905685
0.929204
0.952565
0.975279
0.998179
1.02035
1.04275
1.06426
1.08594
1.1066
1.12734
1.14712
1.16707
1.18619
1.20545
1.22385
1.24221
1.25976
1.27736
1.29428
1.31179
1.32852
1.34621
1.36246
1.38029
1.3961
1.41391
1.42948
1.44731
1.46282
1.48032
1.4967
1.51312
1.5304
1.54571
1.56274
1.57535
1.58695
1.15824
1.25763
1.34665
1.42879
1.50468
1.57588
1.64115
1.6986
1.74616
1.78157
1.80779
1.82454
1.83251
1.83344
1.83139
1.82321
1.8106
1.79806
1.78588
1.77572
1.76774
1.76313
1.76006
1.75897
1.7582
1.75809
1.75807
1.75775
1.75762
1.75724
1.75716
1.75702
1.75704
1.75712
1.75661
1.75586
1.75278
1.74611
1.72794
1.68938
1.59901
1.39941
1.05611
0.743948
0.621186
0.576232
0.580787
0.628852
0.688045
0.735419
0.772771
0.804768
0.831028
0.852617
0.873597
0.894173
0.91561
0.936502
0.956727
0.975878
0.995112
1.0149
1.0346
1.05384
1.07274
1.09136
1.11023
1.12856
1.14735
1.1654
1.18403
1.20192
1.22024
1.23783
1.25573
1.27291
1.29033
1.30695
1.32379
1.33975
1.35626
1.37171
1.38805
1.40293
1.41931
1.43398
1.45029
1.46484
1.48109
1.49549
1.51127
1.52637
1.54089
1.55722
1.57116
1.58803
1.60176
1.61858
1.63031
1.64224
1.14461
1.23776
1.32369
1.40355
1.4782
1.54678
1.6103
1.6681
1.72088
1.76773
1.8096
1.84432
1.87218
1.89143
1.90213
1.90332
1.90168
1.89531
1.88565
1.87451
1.86431
1.85415
1.84661
1.8406
1.83705
1.83436
1.83327
1.83231
1.83218
1.83196
1.83189
1.83184
1.83161
1.83159
1.8311
1.83052
1.82809
1.82354
1.81041
1.78461
1.71952
1.58365
1.28704
0.921931
0.718531
0.665072
0.677733
0.739203
0.816086
0.881166
0.92863
0.962291
0.988906
1.00867
1.02305
1.03448
1.04549
1.05751
1.06988
1.08216
1.09418
1.10732
1.12158
1.13638
1.1514
1.16648
1.18216
1.19739
1.21335
1.22876
1.24498
1.26066
1.27702
1.29279
1.30923
1.32492
1.34143
1.35693
1.37351
1.38871
1.405
1.41971
1.43571
1.45018
1.46603
1.48031
1.49597
1.51008
1.52517
1.53965
1.55352
1.56873
1.58201
1.59707
1.61025
1.62565
1.63859
1.65403
1.66528
1.67608
1.13283
1.21797
1.29877
1.37412
1.44502
1.51094
1.57299
1.63052
1.68446
1.73389
1.77942
1.82013
1.85622
1.88657
1.91097
1.92816
1.93927
1.94321
1.94314
1.9406
1.93419
1.92593
1.91647
1.90734
1.89869
1.89234
1.88782
1.88528
1.88412
1.88376
1.88413
1.88446
1.88476
1.88485
1.88486
1.8842
1.88293
1.87849
1.86974
1.84733
1.79835
1.68853
1.46436
1.06643
0.782224
0.728457
0.769395
0.83886
0.92383
0.998021
1.05232
1.08915
1.11191
1.12574
1.13518
1.13954
1.14133
1.14251
1.14582
1.15105
1.15716
1.16397
1.17262
1.18357
1.19604
1.20906
1.22302
1.23671
1.25123
1.26546
1.28059
1.29541
1.31108
1.32622
1.34227
1.3574
1.37364
1.3888
1.40504
1.42009
1.43625
1.45117
1.46727
1.48207
1.49806
1.51287
1.52838
1.54337
1.55782
1.57303
1.58649
1.60127
1.61434
1.62873
1.64135
1.65547
1.66769
1.6814
1.69232
1.70068
1.12225
1.19952
1.2747
1.34594
1.41345
1.47695
1.53685
1.59335
1.64633
1.69629
1.74254
1.7859
1.82523
1.86154
1.8934
1.92159
1.94408
1.96138
1.97282
1.97873
1.97911
1.9779
1.97387
1.96733
1.95998
1.95164
1.94428
1.93765
1.93356
1.93029
1.92919
1.92836
1.92862
1.92886
1.92888
1.92833
1.92686
1.92197
1.91247
1.88811
1.84127
1.73029
1.54696
1.2527
0.988545
0.895667
0.924333
0.964882
1.0173
1.07064
1.11689
1.15184
1.17576
1.19086
1.19732
1.2007
1.20241
1.20217
1.20124
1.20139
1.20384
1.20794
1.21266
1.21926
1.2288
1.24026
1.25299
1.26588
1.27953
1.29316
1.30765
1.32198
1.33729
1.35205
1.36783
1.3827
1.39845
1.4132
1.42904
1.44401
1.46011
1.47516
1.49122
1.50632
1.52206
1.53747
1.55257
1.56833
1.58269
1.59821
1.61214
1.62704
1.64027
1.65462
1.66719
1.68092
1.69299
1.70525
1.71653
1.72233
1.11335
1.18256
1.25158
1.31851
1.38261
1.44379
1.50161
1.55675
1.60859
1.65802
1.70425
1.74813
1.78889
1.82717
1.86229
1.89462
1.9234
1.94876
1.96972
1.98602
1.99728
2.00411
2.00631
2.00589
2.0036
1.99891
1.99244
1.98518
1.9777
1.97133
1.96645
1.96332
1.96166
1.96093
1.96056
1.95954
1.95627
1.94955
1.93265
1.89835
1.82417
1.67572
1.48294
1.33362
1.20381
1.08419
1.03287
1.03473
1.05824
1.09096
1.13032
1.16363
1.19513
1.21935
1.23456
1.24346
1.24753
1.24961
1.25034
1.2498
1.24823
1.24855
1.25107
1.25462
1.25991
1.26808
1.27926
1.29142
1.30461
1.31802
1.33244
1.34666
1.36182
1.3764
1.39189
1.40651
1.42195
1.43652
1.45198
1.46659
1.48212
1.49697
1.5124
1.52766
1.54281
1.55868
1.57362
1.58974
1.60456
1.6203
1.63462
1.64984
1.66343
1.6778
1.69079
1.70391
1.71681
1.72789
1.73898
1.74398
1.10852
1.16995
1.23216
1.29395
1.35408
1.41227
1.46801
1.5214
1.57224
1.62072
1.66676
1.71045
1.75183
1.79081
1.82756
1.86176
1.89368
1.9228
1.94929
1.97248
1.99223
2.00769
2.01891
2.02624
2.02929
2.02929
2.028
2.02474
2.0193
2.01327
2.0067
2.00081
1.99595
1.99236
1.9894
1.98607
1.97942
1.96566
1.93431
1.87135
1.73669
1.55318
1.42163
1.36695
1.3195
1.25691
1.19066
1.14083
1.12269
1.13211
1.14958
1.17493
1.20408
1.22733
1.249
1.2669
1.27833
1.28444
1.28806
1.28956
1.28935
1.28874
1.28841
1.2904
1.29346
1.29801
1.30531
1.31593
1.32848
1.34176
1.35619
1.37046
1.3855
1.39994
1.41506
1.4296
1.44479
1.45926
1.47432
1.48868
1.50355
1.51808
1.53277
1.54781
1.56242
1.57805
1.59285
1.60878
1.62385
1.6398
1.65464
1.67028
1.68476
1.69942
1.71341
1.72638
1.73963
1.75079
1.76128
1.76566
1.10835
1.16244
1.21807
1.27407
1.32945
1.38386
1.43649
1.48762
1.53659
1.58385
1.62895
1.67216
1.71339
1.75257
1.7899
1.82506
1.85842
1.88945
1.9186
1.94517
1.96959
1.99092
2.0095
2.02406
2.03526
2.04262
2.04651
2.04675
2.04609
2.04369
2.03953
2.03382
2.02729
2.02022
2.01304
2.00443
1.99023
1.96069
1.90223
1.77789
1.59653
1.45436
1.40321
1.38662
1.37544
1.35535
1.32596
1.28582
1.2432
1.21228
1.20007
1.20673
1.21936
1.23812
1.26049
1.27854
1.29498
1.30887
1.31676
1.32174
1.3245
1.32569
1.32579
1.32634
1.32819
1.33102
1.33531
1.34247
1.35353
1.36643
1.38078
1.39515
1.40996
1.42419
1.43887
1.45301
1.46756
1.4815
1.49588
1.50984
1.52414
1.53841
1.55263
1.56741
1.58167
1.59688
1.61149
1.62707
1.6421
1.65803
1.67308
1.68884
1.70369
1.71861
1.73299
1.74643
1.75964
1.77111
1.78151
1.78551
1.11212
1.16001
1.20957
1.2604
1.31097
1.36133
1.4106
1.45864
1.50542
1.55043
1.59418
1.63595
1.67645
1.71493
1.75212
1.78726
1.82109
1.85285
1.88322
1.91147
1.93814
1.96257
1.98509
2.005
2.0224
2.03641
2.04728
2.05476
2.059
2.05985
2.05923
2.05698
2.0519
2.04429
2.03328
2.01729
1.98845
1.93192
1.81744
1.6374
1.48233
1.41782
1.40304
1.40277
1.40624
1.40757
1.40304
1.39022
1.36858
1.33812
1.3036
1.27667
1.26485
1.26768
1.27728
1.29054
1.30734
1.3213
1.33349
1.34421
1.35178
1.35682
1.36066
1.3629
1.36454
1.36682
1.36995
1.37466
1.38247
1.39329
1.40676
1.42047
1.43477
1.44849
1.46257
1.47605
1.48991
1.50321
1.51686
1.53031
1.54394
1.55781
1.57139
1.58572
1.59953
1.61431
1.62858
1.64385
1.65858
1.67436
1.68933
1.7051
1.71992
1.73498
1.74934
1.76298
1.77622
1.78769
1.7983
1.80228
1.1176
1.16014
1.20464
1.25039
1.29699
1.34342
1.38963
1.43495
1.47927
1.52252
1.56434
1.60498
1.64412
1.6819
1.71833
1.7532
1.78688
1.81884
1.84968
1.87872
1.90658
1.93261
1.95723
1.97996
2.00084
2.01964
2.03592
2.04943
2.05971
2.06679
2.06966
2.06915
2.06668
2.05985
2.04593
2.01859
1.96509
1.86101
1.68572
1.52051
1.43784
1.41685
1.41605
1.42252
1.43122
1.44121
1.44975
1.4526
1.45086
1.44038
1.41947
1.39075
1.35789
1.33292
1.3205
1.31899
1.32679
1.33684
1.35063
1.36401
1.37522
1.38489
1.39267
1.3979
1.40205
1.40478
1.40741
1.41084
1.41622
1.42392
1.43479
1.44671
1.45976
1.47261
1.48601
1.499
1.5124
1.52538
1.53853
1.55166
1.56478
1.57842
1.59166
1.60572
1.61924
1.63359
1.64745
1.66223
1.67639
1.69157
1.70603
1.72136
1.7358
1.75063
1.76475
1.77825
1.79132
1.80258
1.81301
1.81684
1.127
1.16441
1.20363
1.24484
1.28656
1.3296
1.37181
1.41472
1.45615
1.49754
1.53752
1.5767
1.61474
1.65148
1.6873
1.72156
1.75503
1.78683
1.81785
1.84722
1.87573
1.90259
1.92851
1.95266
1.97582
1.99689
2.0168
2.03417
2.0497
2.06186
2.06927
2.06954
2.06694
2.05773
2.03766
1.99074
1.90096
1.73475
1.56222
1.46322
1.43435
1.43092
1.43655
1.44552
1.45735
1.47036
1.48352
1.49338
1.49893
1.5011
1.49914
1.48871
1.46896
1.44267
1.41351
1.38966
1.37662
1.37263
1.37893
1.38627
1.39705
1.40918
1.41948
1.4275
1.43441
1.43923
1.44323
1.44649
1.45043
1.45561
1.46346
1.47274
1.48406
1.49581
1.50864
1.52128
1.53459
1.54754
1.56075
1.57373
1.58682
1.60015
1.61341
1.62718
1.64054
1.65456
1.66789
1.68211
1.69571
1.71028
1.72425
1.73919
1.75333
1.76779
1.7817
1.79489
1.80776
1.81886
1.82902
1.83267
1.13988
1.17265
1.20733
1.24401
1.28179
1.32036
1.35968
1.39849
1.43804
1.47611
1.51475
1.55158
1.58863
1.62386
1.65895
1.69238
1.72535
1.75684
1.78771
1.81711
1.84592
1.87311
1.89987
1.92471
1.94928
1.97161
1.99359
2.01315
2.03138
2.04699
2.05615
2.05611
2.05166
2.03585
2.00132
1.91977
1.77549
1.60265
1.49264
1.45387
1.44847
1.45438
1.46375
1.47525
1.48797
1.50182
1.51444
1.52604
1.53558
1.54356
1.54874
1.55175
1.55069
1.54168
1.52353
1.49883
1.46997
1.44527
1.4296
1.42274
1.42594
1.4306
1.43853
1.44828
1.45772
1.46477
1.4717
1.47692
1.48201
1.48652
1.49272
1.49989
1.50944
1.51967
1.53162
1.54357
1.55663
1.56933
1.58272
1.59552
1.60869
1.62151
1.63466
1.64794
1.66112
1.67485
1.68793
1.70202
1.71524
1.72961
1.7432
1.75774
1.77189
1.78611
1.80033
1.81355
1.82666
1.83793
1.84849
1.85223
1.15422
1.18333
1.2144
1.24679
1.28082
1.31561
1.35129
1.38739
1.42329
1.45973
1.49509
1.53093
1.56542
1.60001
1.63333
1.66628
1.69832
1.72933
1.75995
1.78897
1.81796
1.8451
1.87219
1.89759
1.92239
1.94624
1.96822
1.9901
2.0084
2.02539
2.03138
2.02925
2.01966
1.99051
1.92643
1.79279
1.62493
1.51038
1.46872
1.46184
1.46907
1.47979
1.49336
1.50784
1.52142
1.5333
1.54418
1.55501
1.56627
1.57698
1.5876
1.59635
1.60226
1.60462
1.60317
1.594
1.57532
1.55006
1.52169
1.49471
1.47556
1.46621
1.46506
1.46968
1.47639
1.48557
1.4955
1.5035
1.512
1.51867
1.52564
1.5321
1.54026
1.54865
1.55896
1.56943
1.58154
1.59332
1.60617
1.61835
1.63131
1.64355
1.65639
1.66894
1.68172
1.69489
1.70758
1.72128
1.73413
1.7481
1.76145
1.77539
1.78929
1.80306
1.81741
1.8307
1.84443
1.856
1.86767
1.87187
1.17011
1.1959
1.22357
1.25278
1.28316
1.31478
1.34694
1.38022
1.41361
1.44695
1.48092
1.51361
1.54741
1.57923
1.61225
1.64301
1.67482
1.70454
1.73469
1.76342
1.79172
1.81924
1.84572
1.87183
1.89635
1.92092
1.94313
1.96513
1.98374
1.99573
1.99627
1.98912
1.96717
1.91422
1.79417
1.62969
1.51345
1.47103
1.46671
1.47602
1.48906
1.50421
1.5214
1.53602
1.54952
1.5617
1.57347
1.58494
1.59645
1.60846
1.62027
1.63111
1.64051
1.64811
1.65286
1.65518
1.654
1.64568
1.62762
1.60193
1.57215
1.54382
1.52173
1.51055
1.50728
1.51192
1.51818
1.52754
1.53874
1.54811
1.55778
1.56534
1.57346
1.58089
1.58971
1.59849
1.60908
1.61963
1.63168
1.64323
1.65575
1.66753
1.68002
1.69223
1.70473
1.71746
1.72979
1.74285
1.75536
1.76872
1.7817
1.79521
1.80869
1.82196
1.83604
1.84913
1.863
1.87448
1.88693
1.8914
1.18724
1.20944
1.2336
1.2597
1.28719
1.31619
1.34579
1.37591
1.40723
1.43827
1.46993
1.50141
1.53261
1.56402
1.59444
1.62532
1.65472
1.68472
1.71311
1.74174
1.76931
1.79621
1.82287
1.84801
1.87336
1.89667
1.91988
1.93979
1.95579
1.95901
1.95293
1.93548
1.89031
1.78421
1.62204
1.50193
1.45953
1.45812
1.47112
1.48651
1.50611
1.52488
1.54218
1.55656
1.57082
1.58456
1.59823
1.61181
1.62479
1.63728
1.6491
1.66103
1.67272
1.6843
1.69436
1.70274
1.70676
1.70866
1.70709
1.69863
1.68037
1.65456
1.62369
1.59284
1.56786
1.55411
1.54925
1.55343
1.55983
1.56957
1.58155
1.59147
1.60207
1.61047
1.61927
1.62715
1.63634
1.6454
1.65624
1.66692
1.67896
1.69043
1.70264
1.71448
1.7268
1.73931
1.75172
1.76453
1.77684
1.78976
1.80241
1.81557
1.82895
1.84203
1.85589
1.86873
1.88271
1.89384
1.9067
1.91135
1.20765
1.22682
1.24741
1.26983
1.29415
1.31983
1.3474
1.37465
1.40353
1.43218
1.46214
1.49123
1.5216
1.55054
1.5808
1.60934
1.639
1.66688
1.69562
1.72275
1.75021
1.77663
1.80246
1.82812
1.85189
1.87622
1.89666
1.91528
1.92064
1.91591
1.90027
1.86008
1.76654
1.60351
1.4808
1.43805
1.43806
1.45325
1.4726
1.49584
1.51944
1.53924
1.55683
1.5724
1.58786
1.60236
1.61781
1.63317
1.64861
1.66363
1.67797
1.6917
1.70496
1.71757
1.72935
1.74002
1.74916
1.75619
1.75953
1.76065
1.75874
1.75038
1.73227
1.70681
1.6746
1.64091
1.61216
1.59553
1.58937
1.59368
1.60138
1.61196
1.62459
1.63523
1.64624
1.65486
1.66397
1.67205
1.68166
1.69108
1.70218
1.71291
1.72466
1.736
1.74791
1.75997
1.7723
1.78497
1.79739
1.81021
1.8228
1.83557
1.84882
1.86138
1.87521
1.88761
1.90175
1.9126
1.92568
1.93048
1.22524
1.24414
1.26383
1.28424
1.30623
1.32832
1.35257
1.37762
1.40395
1.43047
1.45767
1.48537
1.51288
1.54124
1.56858
1.59718
1.62405
1.65242
1.67867
1.70636
1.73199
1.75856
1.78343
1.80866
1.83195
1.8544
1.87278
1.88089
1.87572
1.86049
1.82551
1.73411
1.57913
1.45331
1.40906
1.41048
1.42708
1.44858
1.4758
1.50268
1.52695
1.54771
1.5672
1.58479
1.60231
1.61873
1.6355
1.6517
1.66833
1.68447
1.70043
1.7157
1.73041
1.74423
1.75768
1.7702
1.78178
1.79166
1.80023
1.80665
1.81018
1.8118
1.81061
1.80312
1.78582
1.75931
1.72487
1.68793
1.65479
1.63422
1.63066
1.63537
1.64382
1.6552
1.66755
1.67821
1.68911
1.69792
1.70733
1.7159
1.72608
1.73586
1.74697
1.75775
1.76929
1.78091
1.79292
1.80542
1.81775
1.8304
1.84305
1.85538
1.86861
1.88069
1.89427
1.90611
1.92022
1.93074
1.94391
1.94886
1.24101
1.25942
1.278
1.29689
1.31761
1.33896
1.3615
1.3845
1.4083
1.43275
1.45766
1.48326
1.50921
1.53519
1.56147
1.58759
1.61395
1.63974
1.66602
1.69123
1.71704
1.74161
1.76638
1.78972
1.8121
1.83065
1.84007
1.83519
1.82188
1.78584
1.70716
1.54915
1.42
1.37475
1.37721
1.3948
1.41928
1.4493
1.47975
1.50634
1.53027
1.55203
1.5731
1.593
1.6129
1.63168
1.65029
1.66758
1.68454
1.70151
1.71859
1.73605
1.75287
1.76944
1.78452
1.79856
1.81115
1.82308
1.83396
1.84433
1.8532
1.86023
1.86366
1.86509
1.86374
1.85628
1.83904
1.81134
1.77535
1.73202
1.69232
1.67089
1.67013
1.67529
1.68446
1.69609
1.70802
1.71889
1.72948
1.73868
1.74876
1.758
1.7686
1.77894
1.79014
1.80132
1.81298
1.82516
1.83751
1.85003
1.86272
1.87483
1.88791
1.89979
1.91338
1.92495
1.93922
1.94972
1.96306
1.9681
1.25791
1.27587
1.29347
1.31088
1.32938
1.34906
1.36982
1.39154
1.41396
1.43708
1.46065
1.48439
1.50832
1.53309
1.55737
1.58234
1.60689
1.63166
1.65609
1.68063
1.70454
1.72849
1.75124
1.77307
1.79128
1.80037
1.79558
1.78203
1.74659
1.66881
1.51124
1.38226
1.33918
1.343
1.36244
1.38867
1.42137
1.45262
1.48124
1.50662
1.53072
1.5536
1.57607
1.5978
1.61929
1.63997
1.6603
1.67959
1.6988
1.71693
1.73522
1.75323
1.77164
1.78928
1.80629
1.82191
1.83643
1.84989
1.86269
1.87465
1.8858
1.89582
1.90495
1.9119
1.91617
1.91767
1.91654
1.90895
1.89149
1.86102
1.81991
1.77018
1.72232
1.70743
1.70809
1.71389
1.72372
1.73602
1.74745
1.75837
1.76915
1.77847
1.78904
1.79905
1.80994
1.82067
1.83199
1.84363
1.85567
1.86796
1.88083
1.89294
1.90627
1.91809
1.93179
1.94316
1.9576
1.96816
1.98194
1.98729
1.27134
1.29106
1.30907
1.32621
1.34336
1.36123
1.38015
1.39999
1.42064
1.44213
1.46413
1.48668
1.5094
1.5322
1.55554
1.57859
1.60204
1.62534
1.64858
1.67174
1.69454
1.71666
1.7375
1.75516
1.76314
1.75777
1.74385
1.70813
1.62762
1.47329
1.34449
1.30481
1.31014
1.33052
1.35911
1.39365
1.42564
1.45433
1.48108
1.50598
1.53074
1.55434
1.57814
1.60103
1.62406
1.64618
1.66795
1.68906
1.70963
1.72988
1.74954
1.76891
1.78759
1.80599
1.82388
1.84086
1.85733
1.87245
1.88695
1.90023
1.91335
1.92551
1.9374
1.94786
1.95728
1.96424
1.96803
1.96926
1.96783
1.95958
1.94049
1.90742
1.8565
1.79742
1.75057
1.74224
1.74571
1.75301
1.76259
1.77493
1.7871
1.79752
1.80869
1.81867
1.82927
1.83962
1.85068
1.86184
1.87362
1.88537
1.89815
1.90992
1.92322
1.93484
1.94881
1.95996
1.97461
1.98517
1.99902
2.00499
1.28921
1.30434
1.32364
1.34127
1.35826
1.37511
1.39245
1.4108
1.42964
1.4494
1.46962
1.49059
1.51193
1.5336
1.55525
1.57724
1.59915
1.6212
1.64305
1.66476
1.68591
1.70545
1.72262
1.72852
1.72306
1.70773
1.66813
1.58901
1.43259
1.30366
1.26937
1.27677
1.29801
1.32848
1.36533
1.39811
1.42777
1.45476
1.48086
1.50619
1.5313
1.55565
1.58017
1.60389
1.62785
1.65071
1.67388
1.69593
1.71827
1.73979
1.7613
1.78205
1.8019
1.82101
1.83909
1.85724
1.87463
1.89183
1.90793
1.92354
1.93784
1.95187
1.96479
1.97736
1.98889
1.99963
2.0089
2.01613
2.01931
2.02013
2.01789
2.00772
1.98425
1.94533
1.8817
1.81396
1.78447
1.77692
1.78198
1.79045
1.80346
1.81351
1.82604
1.83696
1.84804
1.85846
1.86936
1.87998
1.89145
1.90255
1.9152
1.92659
1.94003
1.95106
1.96499
1.97576
1.99021
2.00082
2.0147
2.02137
1.30653
1.31826
1.33522
1.35443
1.37199
1.38891
1.40522
1.42212
1.43935
1.45735
1.47582
1.49513
1.51488
1.53527
1.55577
1.57652
1.59738
1.61818
1.63886
1.65892
1.67729
1.69299
1.6977
1.69074
1.67407
1.63203
1.54922
1.39189
1.26352
1.23479
1.24501
1.26692
1.29907
1.33664
1.37076
1.4006
1.42828
1.45454
1.48083
1.5064
1.53205
1.55714
1.58208
1.60658
1.63084
1.65477
1.67853
1.70187
1.72525
1.74798
1.77066
1.79219
1.81346
1.83358
1.85327
1.87196
1.89028
1.90814
1.92562
1.94238
1.95854
1.97382
1.98853
2.00265
2.01613
2.02882
2.04042
2.0508
2.05933
2.06599
2.06793
2.06791
2.06411
2.05088
2.02114
1.97159
1.89833
1.82873
1.81671
1.8145
1.82117
1.82984
1.84268
1.85434
1.86599
1.87681
1.88833
1.89889
1.91027
1.92051
1.9328
1.94322
1.95664
1.96737
1.98121
1.99177
2.00581
2.01615
2.02931
2.03654
1.33419
1.33629
1.34774
1.36515
1.38367
1.40126
1.41776
1.43416
1.45047
1.4672
1.48408
1.50142
1.51909
1.53771
1.55667
1.57629
1.59552
1.61525
1.63414
1.65184
1.66553
1.66927
1.66078
1.64201
1.59611
1.50862
1.35005
1.22442
1.20024
1.21448
1.23826
1.2719
1.30948
1.34364
1.37426
1.40206
1.42879
1.45483
1.48107
1.50693
1.53302
1.55839
1.58393
1.60873
1.63374