/*--------------------------------*- C++ -*----------------------------------*\
  =========                 |
  \\      /  F ield         | OpenFOAM: The Open Source CFD Toolbox
   \\    /   O peration     | Website:  https://openfoam.org
    \\  /    A nd           | Version:  6
     \\/     M anipulation  |
\*---------------------------------------------------------------------------*/
FoamFile
{
    version     2.0;
    format      ascii;
    class       volScalarField;
    location    "2.5";
    object      p;
}
// * * * * * * * * * * * * * * * * * * * * * * * * * * * * * * * * * * * * * //

dimensions      [1 -1 -2 0 0 0 0];

internalField   nonuniform List<scalar> 
5250
(
1.00005
1.00025
1.00066
1.00172
1.00372
1.00954
1.0197
1.05342
1.10498
1.31212
1.66709
2.94869
6.33992
14.2922
13.474
11.9934
11.4642
11.5362
11.7738
12.0462
12.1926
12.2807
12.3552
12.413
12.4472
1.00005
1.00025
1.00065
1.00171
1.0037
1.0095
1.01962
1.05318
1.10454
1.31072
1.6641
2.93967
6.31457
14.2356
13.4223
11.9555
11.4468
11.5252
11.7691
12.0361
12.1792
12.2682
12.3448
12.404
12.4408
1.00004
1.00025
1.00065
1.0017
1.00367
1.00941
1.01944
1.05268
1.10365
1.30759
1.65752
2.91925
6.25413
14.1062
13.3169
11.8785
11.4031
11.4887
11.7384
11.9939
12.1304
12.2201
12.2993
12.3602
12.4003
1.00004
1.00025
1.00064
1.00167
1.00362
1.00928
1.01916
1.0519
1.10208
1.30323
1.6451
2.89337
6.14967
13.904
13.1667
11.7767
11.3353
11.4243
11.6728
11.9128
12.0408
12.1286
12.2079
12.2687
12.3101
1.00004
1.00024
1.00062
1.00164
1.00354
1.00909
1.01878
1.05083
1.09977
1.29755
1.62648
2.86197
5.99888
13.627
12.9655
11.6644
11.248
11.3348
11.5729
11.7977
11.9169
12.0006
12.0773
12.1355
12.1768
1.00004
1.00024
1.00061
1.0016
1.00345
1.00884
1.01827
1.04944
1.09687
1.28983
1.60371
2.8171
5.80904
13.271
12.7123
11.5448
11.1427
11.2211
11.4388
11.6452
11.7529
11.8287
11.8991
11.9528
11.9944
1.00004
1.00023
1.00059
1.00154
1.00333
1.00853
1.01765
1.04771
1.09325
1.2803
1.57592
2.76095
5.58196
12.8336
12.4033
11.4158
11.0197
11.0831
11.2692
11.4526
11.5432
11.6032
11.6589
11.7018
11.7422
1.00004
1.00022
1.00056
1.00147
1.00319
1.00817
1.0169
1.04564
1.08894
1.26874
1.54417
2.69059
5.32306
12.3119
12.0374
11.2838
10.8812
10.9222
11.063
11.2169
11.2816
11.3135
11.3375
11.3484
11.3736
1.00004
1.00021
1.00053
1.0014
1.00302
1.00773
1.01601
1.0432
1.08421
1.25424
1.51188
2.59678
5.04065
11.7026
11.6261
11.154
10.7294
10.7401
10.824
10.937
10.9604
10.9465
10.9038
10.8326
10.7919
1.00003
1.00019
1.0005
1.0013
1.00282
1.00722
1.01495
1.0403
1.07852
1.23722
1.47331
2.48699
4.70967
10.9717
11.2985
10.9831
10.5623
10.526
10.5666
10.6142
10.5887
10.498
10.3157
10.0494
9.70982
1.00003
1.00018
1.00045
1.00119
1.00258
1.00661
1.0137
1.03687
1.07167
1.21731
1.42623
2.36051
4.31982
10.0942
11.0524
10.8201
10.3974
10.2909
10.2912
10.2685
10.1725
9.9502
9.5498
8.8382
7.18821
1.00003
1.00016
1.00041
1.00107
1.00231
1.00591
1.01226
1.03285
1.06427
1.19334
1.37316
2.21276
3.8765
9.04852
10.8719
10.6844
10.2659
10.066
10.0068
9.91045
9.71332
9.3521
8.77523
7.86623
6.22761
1.00002
1.00014
1.00035
1.00093
1.00201
1.00512
1.01062
1.02837
1.05517
1.16803
1.31007
2.053
3.39845
7.82681
10.7914
10.6067
10.1414
9.83075
9.70111
9.54805
9.27471
8.84112
8.20466
7.32977
6.13522
1.00002
1.00012
1.0003
1.00079
1.00171
1.00434
1.00903
1.02383
1.04755
1.13762
1.26319
1.84568
2.91607
6.41512
10.7499
10.5516
10.0235
9.59558
9.3978
9.20592
8.9015
8.45525
7.84798
7.08234
6.15574
1.00002
1.0001
1.00025
1.00066
1.00143
1.00361
1.00754
1.01965
1.03978
1.11075
1.22022
1.66201
2.49707
5.19307
10.4826
10.3738
9.90307
9.37188
9.11382
8.89951
8.59393
8.16518
7.61694
6.95955
6.2046
1.00001
1.00008
1.00021
1.00054
1.00118
1.00299
1.00623
1.01626
1.0328
1.09221
1.17811
1.55141
2.228
4.5464
9.68294
9.94575
9.68232
9.15987
8.86168
8.63313
8.33832
7.93842
7.44729
6.87903
6.2479
1.00001
1.00007
1.00017
1.00044
1.00096
1.00243
1.00506
1.01323
1.02652
1.07578
1.13914
1.46075
1.94756
3.91238
8.19728
9.51067
9.37603
9.02319
8.67145
8.4127
8.12652
7.75533
7.31237
6.81274
6.26791
1.00001
1.00005
1.00014
1.00035
1.00076
1.00193
1.00403
1.01048
1.02107
1.05965
1.10946
1.36028
1.72118
3.23281
6.58322
9.32954
9.25271
8.96598
8.54867
8.24581
7.95468
7.61076
7.21056
6.76042
6.27827
1.00001
1.00004
1.0001
1.00027
1.00059
1.00148
1.0031
1.00795
1.01618
1.04386
1.08471
1.25455
1.51537
2.52284
4.63717
9.04983
9.16088
8.94605
8.50397
8.12878
7.81598
7.48745
7.11898
6.71505
6.28294
1.00001
1.00003
1.00008
1.00021
1.00045
1.00113
1.00237
1.00605
1.01233
1.03321
1.06408
1.19482
1.363
2.206
3.72956
8.10137
8.95203
8.82419
8.46928
8.02755
7.68858
7.37336
7.03511
6.66901
6.28136
1
1.00002
1.00006
1.00016
1.00034
1.00084
1.00176
1.0045
1.00913
1.02481
1.04624
1.14812
1.25782
1.90856
2.96694
6.35379
8.63953
8.59579
8.38309
7.94856
7.57846
7.2679
6.95629
6.62454
6.27577
1
1.00002
1.00004
1.00011
1.00025
1.00062
1.00129
1.00329
1.00671
1.01774
1.03508
1.09969
1.19171
1.58524
2.27147
4.35656
8.19813
8.47416
8.31477
7.94017
7.52045
7.19226
6.89355
6.58716
6.26578
1
1.00001
1.00003
1.00008
1.00018
1.00044
1.00093
1.00235
1.00481
1.01264
1.02496
1.07118
1.13154
1.42001
1.87716
3.52547
7.04025
8.23017
8.15897
7.91443
7.49833
7.14259
6.84413
6.55746
6.26381
1
1.00001
1.00002
1.00006
1.00013
1.00031
1.00065
1.00165
1.00336
1.00881
1.01733
1.04954
1.08865
1.29679
1.5551
2.7643
5.14629
7.80013
7.95629
7.83384
7.5182
7.13127
6.81335
6.53332
6.25884
1
1.00001
1.00002
1.00004
1.00009
1.00021
1.00045
1.00112
1.0023
1.00594
1.01187
1.03246
1.06137
1.18915
1.34808
2.1266
3.44734
6.90476
7.77825
7.71427
7.51228
7.14177
6.8126
6.52539
6.25905
1
1
1.00001
1.00002
1.00006
1.00013
1.00032
1.00067
1.00169
1.00342
1.00902
1.01743
1.05098
1.08944
1.30336
1.56709
2.76365
5.06121
7.36092
7.55686
7.45871
7.19306
6.82746
6.5294
6.26339
1
1
1.00001
1.00002
1.00004
1.00009
1.00021
1.00044
1.00111
1.00226
1.00588
1.01164
1.03194
1.06037
1.18352
1.34206
2.07292
3.32084
6.4819
7.37167
7.3386
7.18886
6.87205
6.54934
6.27807
1
1
1
1.00001
1.00003
1.00005
1.00013
1.00028
1.00069
1.0014
1.00363
1.00704
1.01992
1.03456
1.11844
1.18863
1.69685
2.37393
4.58872
6.90974
7.21166
7.13826
6.93684
6.59943
6.3126
1
1
1
1.00001
1.00002
1.00003
1.00008
1.00018
1.00044
1.0009
1.00232
1.00462
1.01241
1.02393
1.06865
1.13084
1.39243
1.80522
3.18111
5.80768
6.95366
7.00419
6.91894
6.70481
6.38613
1
1
1
1
1.00001
1.00002
1.00005
1.00011
1.00023
1.00058
1.00117
1.00306
1.00594
1.0166
1.03004
1.09601
1.16298
1.55549
2.1027
3.83554
6.35538
6.8753
6.85176
6.73231
6.48083
1
1
1
1
1.00001
1.00001
1.00003
1.00006
1.00014
1.00028
1.00071
1.00132
1.00388
1.00608
1.02288
1.03169
1.13838
1.20066
1.80686
2.55876
4.97947
6.52033
6.74166
6.69385
6.55286
1
1
1
1
1
1.00001
1.00002
1.00004
1.00009
1.00018
1.00046
1.00091
1.0024
1.00469
1.01293
1.02419
1.07225
1.1336
1.40957
1.83299
3.1505
5.59027
6.4986
6.59487
6.53292
1
1
1
1
1
1
1.00001
1.00002
1.00005
1.0001
1.00026
1.00051
1.00133
1.00259
1.00703
1.01301
1.03901
1.06708
1.22624
1.3977
2.23055
3.68944
5.85688
6.43353
6.44574
1
1
1
1
1
1
1.00001
1.00001
1.00003
1.00005
1.00013
1.00025
1.00064
1.00115
1.00348
1.00509
1.02073
1.0258
1.12912
1.16846
1.73464
2.33709
4.40526
5.97563
6.30612
1
1
1
1
1
1
1
1.00001
1.00001
1.00003
1.00008
1.00015
1.00039
1.00077
1.00206
1.00392
1.01118
1.02005
1.06287
1.10876
1.35454
1.67002
2.79523
4.80379
5.92261
1
1
1
1
1
1
1
1
1.00001
1.00002
1.00004
1.00009
1.00017
1.00045
1.00086
1.00235
1.00425
1.01286
1.02131
1.07354
1.11728
1.40924
1.74583
2.93994
4.97147
1
1
1
1
1
1
1
1
1
1.00001
1.00002
1.00004
1.0001
1.00019
1.00049
1.00091
1.00258
1.0043
1.01436
1.02079
1.08441
1.11764
1.4661
1.78371
3.03414
1
1
1
1
1
1
1
1
1
1
1.00001
1.00002
1.00005
1.0001
1.00025
1.00048
1.00128
1.00232
1.00681
1.01132
1.03766
1.05813
1.21015
1.3511
2.05142
1
1
1
1
1
1
1
1
1
1
1
1.00001
1.00002
1.00005
1.0001
1.00026
1.00047
1.00133
1.00228
1.0072
1.01119
1.04065
1.06034
1.2272
1.37591
1
1
1
1
1
1
1
1
1
1
1
1
1.00001
1.00002
1.00005
1.00009
1.00026
1.00046
1.00136
1.00225
1.00757
1.01123
1.04335
1.06282
1.2402
1
1
1
1
1
1
1
1
1
1
1
1
1
1.00001
1.00001
1.00004
1.00005
1.00021
1.0003
1.00114
1.00134
1.00765
1.00769
1.04767
1.05786
1
1
1
1
1
1
1
1
1
1
1
1
1
1
1.00001
1.00001
1.00003
1.00004
1.00019
1.00029
1.001
1.00151
1.00732
1.00895
1.04782
1
1
1
1
1
1
1
1
1
1
1
1
1
1
1
1
1.00001
1.00003
1.00004
1.00018
1.0003
1.00095
1.00138
1.00695
1.00752
1
1
1
1
1
1
1
1
1
1
1
1
1
1
1
1
1
1
1.00003
1.00003
1.00018
1.00034
1.00087
1.0012
1.0069
1
1
1
1
1
1
1
1
1
1
1
1
1
1
1
1
1
1
1.00001
1.00001
1.00006
1.00008
1.00037
1.0005
1.00211
1
1
1
1
1
1
1
1
1
1
1
1
1
1
1
1
1
1
1.00001
1.00001
1.00003
1.00005
1.00019
1.00023
1.0012
1
1
1
1
1
1
1
1
1
1
1
1
1
1
1
1
1
1
1
1
1.00001
1.00002
1.00006
1.00008
1.00045
1
1
1
1
1
1
1
1
1
1
1
1
1
1
1
1
1
1
1
1
1.00001
1.00001
1.00004
1.00005
1.00021
1
1
1
1
1
1
1
1
1
1
1
1
1
1
1
1
1
1
1
1
1
1.00001
1.00001
1.00006
1.00008
1
1
1
1
1
1
1
1
1
1
1
1
1
1
1
1
1
1
1
1
1
1
1.00002
1.00003
1.00017
3.56788
1.94655
1.25116
0.920146
0.752954
0.694597
0.701733
0.73152
0.808527
0.973103
1.13724
1.23277
1.26504
1.26489
1.26361
1.26423
1.26706
1.27404
1.28817
1.30187
1.31277
1.32101
1.32738
1.33258
1.33701
1.34082
1.34402
1.34665
1.3486
1.35007
1.35116
1.35195
1.35266
1.35393
1.35657
1.36218
1.37453
1.40208
1.4638
1.60258
1.91471
2.63747
4.04551
4.14852
4.07624
4.08128
4.12083
4.1729
4.25097
4.35385
4.45738
4.53696
4.59349
4.63475
4.66775
4.69456
4.70941
4.70949
4.70383
4.68704
4.65273
4.61633
4.57691
4.53392
4.48628
4.43555
4.38174
4.32626
4.2684
4.20875
4.14679
4.08341
4.01866
3.95331
3.88724
3.82079
3.75379
3.68655
3.61918
3.55201
3.48523
3.419
3.35348
3.28862
3.22461
3.16128
3.09883
3.0369
2.9758
2.91511
2.85536
2.796
2.73758
2.67955
2.62268
2.56653
2.51227
2.46038
2.4142
2.37824
4.00719
2.5345
1.75781
1.36543
1.18732
1.13514
1.1358
1.13509
1.12791
1.10985
1.11428
1.12932
1.1621
1.2058
1.24613
1.27495
1.29139
1.29979
1.30544
1.31062
1.31601
1.32176
1.32751
1.33292
1.33774
1.34185
1.34516
1.34781
1.34969
1.3511
1.35205
1.35269
1.35316
1.35398
1.35587
1.36001
1.37
1.39207
1.44405
1.56297
1.83887
2.48691
3.8944
4.18944
4.12134
4.10353
4.12303
4.16677
4.24611
4.34867
4.44468
4.52106
4.57794
4.62292
4.65723
4.68143
4.69328
4.69279
4.68818
4.67431
4.64429
4.60682
4.56701
4.52424
4.47748
4.42755
4.37456
4.31946
4.26204
4.20266
4.14116
4.07812
4.01381
3.94875
3.88305
3.81685
3.7502
3.68324
3.61618
3.54923
3.48267
3.41658
3.35119
3.2864
3.22246
3.15913
3.09679
3.03488
2.97408
2.91336
2.85385
2.79446
2.73611
2.67799
2.62126
2.56507
2.51065
2.4586
2.41136
2.37471
4.74035
3.59465
2.78184
2.237
1.85727
1.58493
1.38864
1.24975
1.15432
1.08455
1.06066
1.06422
1.07763
1.1081
1.16049
1.2058
1.24351
1.27039
1.2875
1.29876
1.30736
1.31432
1.32026
1.32541
1.32997
1.33398
1.3375
1.34061
1.34329
1.34554
1.34718
1.34841
1.34928
1.34991
1.35139
1.35397
1.36184
1.37542
1.41747
1.49577
1.71561
2.20117
3.39407
4.21788
4.2636
4.2426
4.24387
4.25654
4.28585
4.34446
4.40752
4.47219
4.53305
4.58714
4.62895
4.6555
4.66701
4.66671
4.66354
4.65367
4.63113
4.59432
4.55424
4.51162
4.46589
4.41707
4.3652
4.31078
4.25399
4.19506
4.13418
4.07165
4.0079
3.94327
3.87803
3.81223
3.74604
3.67945
3.61282
3.54619
3.47995
3.41403
3.34882
3.28414
3.2205
3.15723
3.09513
3.03297
2.97251
2.9116
2.85215
2.79274
2.73419
2.67636
2.61913
2.56341
2.50837
2.45652
2.40833
2.36998
5.14413
4.20621
3.42804
2.81805
2.34723
1.98764
1.71965
1.52088
1.37687
1.28215
1.21985
1.18224
1.16312
1.164
1.1691
1.18217
1.20851
1.23689
1.26374
1.28963
1.3107
1.32526
1.33447
1.33973
1.3427
1.34426
1.34545
1.34671
1.34814
1.34962
1.35096
1.35203
1.35279
1.35333
1.35404
1.35603
1.3598
1.37148
1.39297
1.45743
1.58416
1.91928
2.63197
4.08802
4.59663
4.60689
4.58637
4.5215
4.41469
4.37034
4.37678
4.39882
4.44725
4.50664
4.56222
4.59966
4.62055
4.62565
4.6239
4.61765
4.603
4.57325
4.53445
4.49183
4.44681
4.39925
4.34884
4.29562
4.23994
4.18195
4.12201
4.0603
3.99735
3.93338
3.86883
3.80364
3.73812
3.67213
3.60611
3.53994
3.47418
3.40865
3.34397
3.27954
3.21611
3.15281
3.09081
3.02885
2.96813
2.90749
2.84791
2.78887
2.73011
2.67283
2.61503
2.5603
2.50442
2.45317
2.40429
2.36438
5.39621
4.60546
3.89754
3.29819
2.80819
2.41584
2.10621
1.86292
1.67236
1.52368
1.4079
1.31965
1.25441
1.21084
1.18211
1.17717
1.1799
1.18837
1.20676
1.2308
1.25285
1.27631
1.29623
1.31143
1.3224
1.32968
1.33425
1.3371
1.33871
1.3399
1.34081
1.3417
1.34258
1.34355
1.34434
1.34598
1.34912
1.35728
1.37317
1.41616
1.50596
1.73703
2.26647
3.54679
5.07365
5.20813
5.13218
4.93322
4.66041
4.46709
4.37673
4.36854
4.37632
4.40018
4.44984
4.49821
4.53955
4.56405
4.57138
4.56964
4.56282
4.54654
4.51372
4.4722
4.42702
4.37981
4.33042
4.27846
4.22417
4.1675
4.10884
4.0482
3.98623
3.92307
3.85933
3.79485
3.7301
3.66476
3.59948
3.53396
3.46893
3.40382
3.33941
3.27507
3.21168
3.14849
3.08639
3.02462
2.96374
2.90342
2.84365
2.78487
2.72603
2.66899
2.6114
2.55653
2.5007
2.44935
2.40023
2.35918
5.5712
4.89512
4.26411
3.70333
3.22216
2.81748
2.48208
2.2057
1.97907
1.79353
1.64242
1.52008
1.42188
1.34552
1.28779
1.2479
1.22231
1.21031
1.21118
1.21529
1.22513
1.24297
1.26239
1.28295
1.30356
1.32054
1.33306
1.34126
1.34582
1.34794
1.3482
1.34814
1.348
1.34803
1.34833
1.34904
1.35167
1.35671
1.37159
1.40141
1.47851
1.65194
2.0666
3.04918
5.15846
5.79649
5.70392
5.4563
5.07402
4.73585
4.52649
4.40392
4.35455
4.35667
4.36447
4.3843
4.42501
4.46586
4.49438
4.50751
4.50632
4.50007
4.48401
4.45075
4.40685
4.35893
4.30929
4.25785
4.20463
4.14932
4.09207
4.03277
3.97201
3.90988
3.84709
3.78341
3.7195
3.65501
3.59062
3.52578
3.46123
3.39643
3.33225
3.26813
3.20485
3.14189
3.07978
3.01826
2.95732
2.89728
2.83754
2.77897
2.72041
2.66336
2.60626
2.55114
2.496
2.4441
2.39524
2.35376
5.69108
5.10807
4.54857
4.03315
3.57326
3.1714
2.82553
2.53068
2.28074
2.06994
1.89243
1.74364
1.61903
1.51541
1.42955
1.36033
1.3067
1.26683
1.24097
1.22366
1.22285
1.22481
1.23072
1.24322
1.25915
1.27625
1.29465
1.31053
1.32286
1.33165
1.33688
1.3397
1.34042
1.3405
1.34082
1.34148
1.34427
1.34958
1.36547
1.39587
1.47462
1.6321
2.00251
2.78697
4.49808
5.96589
5.94158
5.79479
5.46451
5.12739
4.81758
4.5885
4.44596
4.35992
4.33202
4.33334
4.33936
4.35691
4.39223
4.42121
4.43756
4.43705
4.43221
4.4176
4.38636
4.34065
4.29017
4.23812
4.18489
4.13018
4.07396
4.01593
3.9565
3.89561
3.83396
3.77139
3.70859
3.64503
3.58133
3.51702
3.45288
3.38847
3.32455
3.26075
3.19759
3.13493
3.07283
3.01157
2.95065
2.89078
2.83116
2.77267
2.71442
2.65739
2.60067
2.54533
2.49105
2.43819
2.39065
2.348
5.7761
5.26665
4.76908
4.29896
3.86673
3.47768
3.13261
2.83028
2.56705
2.33948
2.14303
1.97424
1.82919
1.70505
1.59899
1.50896
1.43326
1.3709
1.3217
1.28388
1.25821
1.24125
1.2351
1.23608
1.2397
1.24785
1.26143
1.27668
1.29368
1.30983
1.32284
1.33237
1.33834
1.34165
1.34315
1.34538
1.34963
1.36075
1.38192
1.43661
1.54113
1.7858
2.27193
3.06752
3.79402
4.70644
5.43884
5.60423
5.55478
5.39683
5.09542
4.87723
4.66084
4.48734
4.38474
4.32411
4.30124
4.30057
4.30469
4.31812
4.34539
4.36138
4.36135
4.35749
4.34507
4.31736
4.27106
4.21919
4.16535
4.11005
4.05381
3.99641
3.93806
3.87853
3.81838
3.75725
3.69556
3.63289
3.56986
3.50615
3.44245
3.37852
3.31488
3.25148
3.18847
3.12615
3.06416
3.00314
2.94241
2.88273
2.82334
2.76506
2.70711
2.65023
2.594
2.5386
2.48505
2.43161
2.386
2.34138
5.83699
5.38533
4.93963
4.5113
4.10888
3.73816
3.40149
3.09955
2.83082
2.59342
2.38444
2.2012
2.04081
1.9007
1.77855
1.67221
1.58007
1.50051
1.43263
1.37575
1.32973
1.29403
1.26808
1.25126
1.24165
1.24199
1.24407
1.24942
1.26027
1.27335
1.28784
1.30246
1.31489
1.32488
1.3326
1.33967
1.34952
1.37106
1.4139
1.5112
1.70665
2.12052
2.83672
3.24805
3.52131
3.88652
4.33551
4.85438
5.21805
5.24853
5.20017
5.07055
4.84802
4.68834
4.53702
4.40196
4.32334
4.2805
4.26205
4.254
4.25693
4.26532
4.28029
4.28122
4.27822
4.26809
4.24418
4.19937
4.14763
4.09168
4.03431
3.9763
3.91827
3.85983
3.80104
3.74122
3.68066
3.61899
3.55676
3.49377
3.43061
3.36722
3.30393
3.24097
3.17824
3.11626
3.05455
2.9938
2.93336
2.87393
2.81483
2.75678
2.69916
2.64248
2.58667
2.53137
2.47838
2.42465
2.38066
2.33436
5.88121
5.47504
5.0723
4.68096
4.30766
3.95771
3.6339
3.33795
3.0696
2.82815
2.61194
2.41912
2.24769
2.0955
1.96076
1.84147
1.73624
1.64343
1.5621
1.49102
1.42964
1.37762
1.33478
1.30113
1.27552
1.25884
1.2476
1.24676
1.24792
1.2515
1.25916
1.27091
1.2844
1.30014
1.31583
1.33308
1.35522
1.39832
1.48728
1.66804
2.0363
2.75807
3.1641
3.33036
3.42715
3.55478
3.73508
3.9872
4.34014
4.68702
4.92375
4.94433
4.91195
4.82617
4.66351
4.54188
4.43314
4.32681
4.26198
4.22588
4.20209
4.18976
4.1914
4.19576
4.1967
4.19444
4.18622
4.1663
4.12568
4.07317
4.01547
3.9565
3.89807
3.83984
3.78163
3.72276
3.66326
3.60271
3.54145
3.47935
3.41685
3.35409
3.29124
3.22875
3.16639
3.10478
3.04345
2.98303
2.92297
2.86389
2.80517
2.74745
2.69024
2.63388
2.5785
2.52346
2.47094
2.41724
2.37431
2.32705
5.91277
5.54522
5.17798
4.8185
4.47177
4.14241
3.83329
3.54634
3.28231
3.04101
2.82186
2.62353
2.44484
2.28404
2.13985
2.0105
1.89488
1.79141
1.69922
1.61706
1.54431
1.48013
1.42407
1.37607
1.33592
1.30394
1.27898
1.2622
1.25071
1.24826
1.24924
1.25267
1.26022
1.27517
1.29386
1.32265
1.36482
1.44899
1.61852
1.95604
2.63857
3.11811
3.29835
3.35974
3.39076
3.41724
3.46418
3.55328
3.69212
3.88701
4.17624
4.46458
4.67084
4.7164
4.6974
4.63975
4.51843
4.41299
4.32802
4.2455
4.18739
4.15287
4.12598
4.11306
4.11283
4.11204
4.10939
4.10189
4.08405
4.04621
3.99382
3.93667
3.8784
3.81978
3.76134
3.70267
3.64379
3.58415
3.52385
3.46274
3.40105
3.33906
3.27683
3.21491
3.15306
3.09193
3.03108
2.97112
2.91152
2.85289
2.79463
2.73734
2.68057
2.62461
2.56966
2.51496
2.46293
2.40935
2.36706
2.31951
5.93532
5.59995
5.26418
4.93258
4.60986
4.2999
4.00564
3.72914
3.47144
3.2331
3.01381
2.81308
2.63002
2.46347
2.31244
2.17549
2.05174
1.93975
1.8388
1.74765
1.66572
1.59209
1.52632
1.46782
1.41627
1.37175
1.33406
1.30375
1.27977
1.26361
1.2536
1.25423
1.25704
1.26758
1.28563
1.32611
1.40264
1.55942
1.86126
2.47088
3.03412
3.26249
3.33552
3.36355
3.36146
3.35344
3.34008
3.34696
3.37483
3.44053
3.56938
3.7543
4.01905
4.27767
4.45555
4.52632
4.51456
4.47485
4.38701
4.29095
4.22029
4.15352
4.09939
4.06419
4.04032
4.02912
4.02733
4.02353
4.01478
3.99562
3.95838
3.90973
3.85543
3.79825
3.74011
3.68151
3.62285
3.56373
3.50416
3.44393
3.38312
3.32199
3.26053
3.19931
3.13811
3.07758
3.01732
2.95793
2.8989
2.84082
2.78311
2.72635
2.6701
2.61461
2.56016
2.50585
2.45433
2.40093
2.35923
2.3115
5.95975
5.64812
5.33673
5.02888
4.72719
4.43546
4.15568
3.89048
3.64054
3.40702
3.18988
2.98896
2.8039
2.63375
2.47802
2.33539
2.20534
2.08651
1.97839
1.87978
1.79023
1.70873
1.63495
1.56813
1.50803
1.45424
1.40641
1.36521
1.32932
1.30263
1.27883
1.27637
1.27941
1.28864
1.31845
1.37436
1.50708
1.76505
2.29884
2.91214
3.20273
3.29723
3.33463
3.33129
3.31837
3.2894
3.25034
3.22155
3.22384
3.23472
3.26413
3.32949
3.45594
3.62939
3.86018
4.09711
4.2619
4.35576
4.34746
4.32016
4.2632
4.17849
4.11104
4.05276
4.00448
3.9712
3.95144
3.93992
3.93385
3.92293
3.901
3.86651
3.82218
3.77099
3.71598
3.65874
3.60065
3.54184
3.48272
3.42308
3.36306
3.30275
3.2422
3.18181
3.12146
3.0617
3.00218
2.94352
2.88517
2.82775
2.77069
2.71452
2.65888
2.6039
2.55002
2.49614
2.44514
2.39202
2.35081
2.303
5.97636
5.68839
5.39845
5.11057
4.82765
4.55235
4.28689
4.03281
3.79176
3.56406
3.35074
3.15126
2.96604
2.79407
2.63534
2.48869
2.35383
2.22959
2.11564
2.01083
1.91489
1.82674
1.74625
1.67248
1.60534
1.54424
1.48885
1.43965
1.39489
1.35973
1.32635
1.3243
1.32937
1.3445
1.39579
1.49279
1.72248
2.17534
2.7804
3.13846
3.25821
3.29143
3.28859
3.27638
3.24874
3.20972
3.17596
3.1472
3.12588
3.11256
3.11519
3.12632
3.15477
3.21524
3.32866
3.48862
3.69834
3.91906
4.08453
4.19424
4.19441
4.18145
4.14551
4.07264
4.00361
3.95177
3.908
3.87587
3.85535
3.84095
3.82625
3.80411
3.77266
3.73209
3.68448
3.63169
3.576
3.51831
3.45983
3.40065
3.34129
3.28167
3.22205
3.16254
3.10317
3.04434
2.9857
2.9279
2.87033
2.81368
2.75735
2.70182
2.64687
2.59241
2.53915
2.48573
2.43526
2.38255
2.34146
2.29404
5.99159
5.722
5.4513
5.18191
4.91603
4.65584
4.40358
4.16063
3.92816
3.70722
3.49818
3.30146
3.117
2.9446
2.78404
2.63464
2.49621
2.36771
2.24908
2.13913
2.03785
1.94413
1.85792
1.77836
1.70525
1.63818
1.57669
1.52107
1.4711
1.42891
1.39752
1.39896
1.41305
1.44058
1.5396
1.71935
2.12561
2.72895
3.10555
3.24603
3.27363
3.2683
3.24835
3.206
3.16347
3.12948
3.10404
3.07931
3.05562
3.03268
3.01426
3.00005
3.00229
3.01176
3.03628
3.08808
3.19039
3.34098
3.53637
3.74706
3.92432
4.03997
4.06785
4.05831
4.02992
3.96837
3.90014
3.85074
3.80687
3.77397
3.75077
3.73014
3.70711
3.67735
3.64001
3.59539
3.54538
3.49121
3.4348
3.37676
3.31825
3.2593
3.20052
3.14187
3.0835
3.02564
2.96802
2.91117
2.85452
2.7987
2.74318
2.68835
2.63413
2.58026
2.52765
2.47476
2.42479
2.37264
2.33123
2.28469
6.00784
5.75426
5.50062
5.24763
4.99744
4.75162
4.51063
4.27742
4.05309
3.83839
3.63422
3.44036
3.25772
3.08542
2.92421
2.77289
2.63195
2.50021
2.3778
2.26378
2.15797
2.05968
1.96858
1.88416
1.80601
1.73392
1.66762
1.60695
1.55476
1.50844
1.49842
1.50561
1.52814
1.61417
1.77151
2.14418
2.7527
3.14343
3.28823
3.29717
3.2879
3.25996
3.20367
3.15355
3.10993
3.07271
3.04095
3.01295
2.98901
2.96402
2.93928
2.91568
2.89652
2.88073
2.88259
2.89049
2.91145
2.95649
3.04926
3.19145
3.37923
3.58745
3.77923
3.9024
3.95248
3.9448
3.91976
3.86467
3.79771
3.74796
3.70181
3.66729
3.6392
3.61164
3.58158
3.54577
3.50408
3.45654
3.4049
3.34996
3.29344
3.23575
3.17796
3.12015
3.0627
3.00577
2.94916
2.89327
2.83762
2.78267
2.72804
2.67397
2.62052
2.5673
2.51536
2.46306
2.41362
2.3621
2.32041
2.27465
6.03108
5.78952
5.5494
5.31062
5.073
4.83909
4.61015
4.38592
4.16907
3.96004
3.76022
3.56949
3.38857
3.21721
3.05559
2.90343
2.7605
2.62656
2.50112
2.38392
2.2745
2.17238
2.07733
1.98878
1.90654
1.83044
1.7602
1.69799
1.64317
1.61627
1.62142
1.64016
1.71921
1.86434
2.2159
2.845
3.25031
3.39225
3.38941
3.3702
3.32264
3.2505
3.18574
3.13239
3.0867
3.0464
3.00735
2.97015
2.93565
2.90409
2.87579
2.84778
2.82069
2.79565
2.77516
2.7579
2.75902
2.7651
2.7831
2.8234
2.90809
3.04337
3.22568
3.43661
3.64224
3.77768
3.84528
3.83797
3.81408
3.76269
3.69663
3.64555
3.59564
3.55636
3.52186
3.48781
3.45204
3.41169
3.36689
3.31751
3.26505
3.21013
3.15419
3.09763
3.0412
2.98514
2.92946
2.87445
2.81975
2.76568
2.71196
2.65869
2.60605
2.55352
2.50227
2.45058
2.40172
2.35082
2.30904
2.26388
6.06575
5.83412
5.60555
5.37636
5.14702
4.92014
4.70002
4.4855
4.27625
4.0728
3.87733
3.68966
3.51091
3.34055
3.17931
3.02656
2.8826
2.74687
2.61936
2.49957
2.38731
2.28217
2.1838
2.09204
2.00647
1.92743
1.8558
1.79372
1.75158
1.75427
1.78103
1.82945
2.00612
2.33355
2.98999
3.42026
3.55451
3.54693
3.51464
3.44111
3.33846
3.25011
3.18236
3.12752
3.08033
3.03809
2.99339
2.95068
2.90785
2.86646
2.82797
2.79271
2.76041
2.72954
2.70022
2.67375
2.6516
2.63418
2.63263
2.6372
2.65325
2.69049
2.76831
2.8972
3.07639
3.293
3.51481
3.66692
3.7463
3.73851
3.71295
3.65848
3.59197
3.53741
3.48415
3.44023
3.40046
3.36126
3.32105
3.27741
3.23047
3.18012
3.12763
3.07347
3.01873
2.96385
2.90916
2.85497
2.80112
2.74786
2.695
2.64249
2.59069
2.53888
2.48838
2.4373
2.38907
2.33878
2.29704
2.25242
6.11771
5.88139
5.65753
5.43737
5.22007
5.00373
4.78901
4.57795
4.3736
4.17576
3.98477
3.80086
3.62444
3.45594
3.29526
3.14289
2.9982
2.8617
2.73254
2.61111
2.49658
2.38919
2.28826
2.19407
2.10636
2.02638
1.95697
1.90476
1.90675
1.92258
1.99658
2.13785
2.49634
3.18525
3.6428
3.76752
3.75549
3.70942
3.60842
3.48044
3.37082
3.28243
3.21005
3.14733
3.09089
3.03793
2.98975
2.94452
2.89585
2.8488
2.80221
2.75757
2.71603
2.67836
2.64319
2.61019
2.57919
2.55153
2.52834
2.50997
2.50709
2.51119
2.52562
2.55895
2.63036
2.75503
2.93373
3.15882
3.39908
3.57904
3.64607
3.63789
3.60899
3.54708
3.48163
3.42288
3.36772
3.31971
3.27597
3.23323
3.1898
3.14413
3.09617
3.04577
2.99391
2.94107
2.88785
2.83473
2.7818
2.72929
2.67724
2.62543
2.57445
2.52333
2.4736
2.42318
2.37563
2.32587
2.28439
2.24027
6.18979
5.93783
5.71245
5.49683
5.28527
5.07551
4.86836
4.665
4.4662
4.27304
4.08547
3.90405
3.73016
3.56354
3.40417
3.25236
3.10791
2.97089
2.84111
2.71836
2.60256
2.49341
2.39094
2.29542
2.2074
2.13178
2.06973
2.06953
2.08447
2.16288
2.30424
2.68795
3.41666
3.89921
4.02325
4.00724
3.94617
3.81459
3.66225
3.53347
3.42903
3.34088
3.26286
3.19117
3.12429
3.06097
3.00152
2.9446
2.89239
2.8426
2.79082
2.74074
2.69175
2.64502
2.60145
2.56218
2.52507
2.49063
2.45864
2.43044
2.40643
2.38793
2.38341
2.38689
2.40009
2.43093
2.49788
2.61994
2.79806
3.03836
3.31148
3.50137
3.54337
3.53181
3.49726
3.429
3.36587
3.30186
3.24639
3.19605
3.14976
3.10503
3.05998
3.01331
2.96513
2.91537
2.86454
2.81313
2.76149
2.7099
2.6587
2.60758
2.55735
2.5069
2.45793
2.40814
2.36129
2.3121
2.27087
2.22733
6.26927
6.00217
5.76864
5.55415
5.3475
5.14409
4.94309
4.74533
4.55149
4.36218
4.17855
4.00174
3.83009
3.66542
3.50743
3.35659
3.21268
3.07575
2.94567
2.82236
2.7057
2.59572
2.49285
2.39773
2.31577
2.24834
2.24618
2.2619
2.34394
2.49659
2.90632
3.68859
4.18939
4.30424
4.28344
4.204
4.03842
3.87014
3.72752
3.60926
3.50763
3.41577
3.33051
3.24966
3.17278
3.09943
3.02978
2.96357
2.90128
2.84208
2.78741
2.73448
2.68088
2.62877
2.57825
2.53032
2.48573
2.44545
2.4076
2.37245
2.34003
2.31163
2.28722
2.26877
2.26324
2.26645
2.27884
2.30863
2.37324
2.49298
2.68281
2.9347
3.25941
3.41117
3.43579
3.41991
3.37734
3.30387
3.24251
3.17654
3.12078
3.07053
3.0237
2.97804
2.93253
2.88587
2.83804
2.78909
2.73942
2.68923
2.63916
2.58884
2.5394
2.48961
2.44138
2.39221
2.3461
2.29738
2.25638
2.21378
6.37232
6.09203
5.83773
5.61483
5.40854
5.20927
5.01365
4.82104
4.6319
4.4469
4.26692
4.09259
3.92467
3.76234
3.60648
3.45701
3.31409
3.17768
3.04776
2.92439
2.8076
2.69798
2.59649
2.50881
2.4368
2.43616
2.45385
2.53976
2.7089
3.151
4.00257
4.5131
4.60782
4.58049
4.48282
4.2845
4.10068
3.94583
3.81592
3.70187
3.59783
3.49977
3.40651
3.31691
3.23115
3.14888
3.07043
2.99563
2.92467
2.85734
2.7938
2.73359
2.67753
2.62234
2.56771
2.51448
2.46331
2.4152
2.37087
2.33
2.29201
2.25677
2.22435
2.19608
2.17181
2.15342
2.1481
2.15122
2.16347
2.1937
2.25954
2.37932
2.59301
2.88671
3.21108
3.31977
3.31851
3.2981
3.25
3.17519
3.11236
3.05098
2.99587
2.9457
2.89917
2.8536
2.80809
2.76176
2.71458
2.66638
2.61798
2.56886
2.52046
2.47142
2.42402
2.37544
2.33004
2.28204
2.24137
2.19935
6.37162
6.19618
5.93068
5.68871
5.47379
5.27372
5.08091
4.89257
4.70803
4.52782
4.35211
4.18114
4.01562
3.8561
3.7026
3.55477
3.41305
3.27755
3.1483
3.02552
2.91002
2.80265
2.71043
2.63504
2.63613
2.66568
2.7313
2.96285
3.40563
4.36344
4.86778
4.93184
4.89609
4.77669
4.55344
4.35056
4.18276
4.04137
3.91654
3.80118
3.69208
3.58722
3.48634
3.38895
3.29543
3.20542
3.11939
3.037
2.9586
2.88386
2.81291
2.7455
2.68156
2.62105
2.56435
2.50784
2.45297
2.39963
2.34874
2.30114
2.25763
2.21695
2.17916
2.14439
2.11246
2.08462
2.06124
2.04268
2.03923
2.04262
2.05568
2.0884
2.15889
2.29654
2.52842
2.90031
3.13044
3.21643
3.20668
3.17382
3.1093
3.04743
2.98238
2.92416
2.87191
2.82314
2.7771
2.73184
2.68669
2.64064
2.59441
2.54697
2.50009
2.45209
2.40577
2.35777
2.31328
2.26617
2.22575
2.18432
6.29647
6.21181
6.01912
5.76855
5.54109
5.3367
5.14511
4.96059
4.78064
4.60498
4.43327
4.26619
4.10411
3.94761
3.79641
3.65104
3.51105
3.37689
3.24891
3.12812
3.01604
2.91959
2.84408
2.8463
2.87956
2.95746
3.21226
3.71122
4.76778
5.25877
5.2879
5.23631
5.08511
4.83902
4.61821
4.43638
4.28352
4.14798
4.02258
3.90294
3.78759
3.67578
3.56781
3.46344
3.36298
3.26627
3.17355
3.08462
2.99971
2.91847
2.84109
2.76719
2.69687
2.62995
2.56628
2.50614
2.44957
2.39276
2.33812
2.28552
2.23569
2.18946
2.14683
2.10711
2.07012
2.0361
2.00509
1.97768
1.9561
1.9376
1.93741
1.94178
1.95692
1.99576
2.07766
2.24545
2.51115
2.92105
3.0542
3.09927
3.08531
3.04564
2.9768
2.91566
2.85475
2.7994
2.74926
2.70223
2.65725
2.61247
2.56823
2.52273
2.47775
2.4313
2.38623
2.33952
2.2956
2.2497
2.20962
2.16881
6.16592
6.14855
6.05464
5.85354
5.61626
5.40289
5.20987
5.02819
4.85268
4.68165
4.51491
4.35237
4.19387
4.03945
3.89019
3.74704
3.60923
3.47721
3.35203
3.2361
3.13662
3.06454
3.06886
3.1052
3.20886
3.48865
4.07789
5.20915
5.69222
5.68619
5.60333
5.40127
5.13743
4.90224
4.70795
4.5431
4.39649
4.26016
4.13023
4.00441
3.88247
3.76399
3.64947
3.53868
3.43203
3.32928
3.23068
3.13599
3.04535
2.95846
2.87542
2.79586
2.71995
2.64735
2.57816
2.51237
2.44955
2.39069
2.33406
2.27839
2.22473
2.17351
2.12549
2.08116
2.0397
2.00108
1.96531
1.93235
1.90287
1.87613
1.85656
1.8405
1.84181
1.84894
1.86893
1.91811
2.01862
2.22268
2.5693
2.86991
2.98279
2.97944
2.95841
2.91292
2.84809
2.78625
2.72963
2.67727
2.6293
2.58368
2.54025
2.49628
2.4532
2.40866
2.36523
2.32007
2.27719
2.2324
2.19314
2.15304
5.85535
6.03746
6.01222
5.91356
5.70734
5.48326
5.28277
5.10062
4.92849
4.76179
4.59902
4.43987
4.28464
4.13412
3.9876
3.84508
3.70864
3.58008
3.46182
3.36014
3.2963
3.30413
3.34972
3.48863
3.82112
4.54529
5.70863
6.14524
6.12581
6.00123
5.73256
5.44941
5.20338
4.998
4.82185
4.66326
4.51534
4.37381
4.23719
4.1044
3.97568
3.85072
3.73001
3.61334
3.50105
3.39287
3.28901
3.18918
3.09348
3.00157
2.91357
2.82907
2.74828
2.67075
2.59677
2.52597
2.45853
2.39438
2.3334
2.2761
2.22006
2.16593
2.11394
2.06471
2.01905
1.97641
1.93664
1.89955
1.86539
1.83375
1.80583
1.78078
1.76188
1.75211
1.75427
1.76413
1.79119
1.85441
1.98534
2.23875
2.65162
2.80567
2.87704
2.86865
2.83764
2.77582
2.7195
2.66064
2.60738
2.55819
2.51313
2.4691
2.42704
2.38415
2.34245
2.2991
2.25769
2.21427
2.17611
2.137
5.08083
5.7925
5.92333
5.89216
5.796
5.59419
5.37798
5.18489
5.01048
4.84596
4.68635
4.53026
4.37749
4.22859
4.08376
3.94487
3.8125
3.6926
3.59043
3.54147
3.5547
3.62109
3.79083
4.22033
5.10512
6.25255
6.6201
6.58172
6.41695
6.08476
5.77793
5.5199
5.30518
5.11848
4.94852
4.78823
4.63459
4.48578
4.34165
4.20166
4.06626
3.93509
3.80862
3.68649
3.56904
3.45588
3.34723
3.24272
3.14247
3.04609
2.95369
2.86486
2.7798
2.69801
2.61985
2.54478
2.4732
2.40468
2.33953
2.27745
2.21881
2.16313
2.10864
2.05634
2.00658
1.9601
1.91675
1.87617
1.8383
1.80301
1.7704
1.74053
1.7136