/*--------------------------------*- C++ -*----------------------------------*\
  =========                 |
  \\      /  F ield         | OpenFOAM: The Open Source CFD Toolbox
   \\    /   O peration     | Website:  https://openfoam.org
    \\  /    A nd           | Version:  6
     \\/     M anipulation  |
\*---------------------------------------------------------------------------*/
FoamFile
{
    version     2.0;
    format      ascii;
    class       surfaceScalarField;
    location    "2.5";
    object      phi;
}
// * * * * * * * * * * * * * * * * * * * * * * * * * * * * * * * * * * * * * //

dimensions      [1 0 -1 0 0 0 0];

internalField   nonuniform List<scalar> 
10325
(
0.00840002
3.69137e-10
0.00840002
2.30616e-09
0.00840001
6.99871e-09
0.00839999
1.85773e-08
0.00839994
4.19909e-08
0.00839982
9.89537e-08
0.0083996
2.09037e-07
0.00839898
5.06387e-07
0.00839788
1.04022e-06
0.0083945
2.89241e-06
0.00838708
6.93401e-06
0.00836379
2.31436e-05
0.00827095
8.73322e-05
0.00778517
0.000473485
0.00712826
0.00065252
0.00643302
0.000693574
0.00575891
0.000674322
0.00508691
0.000670608
0.00443093
0.000655769
0.00374999
0.000683457
0.00302879
0.000720688
0.00228395
0.000745702
0.00152777
0.000757354
0.000760068
0.000762857
0.000756624
0.00840002
7.64071e-10
0.00840002
4.78089e-09
0.00840001
1.44615e-08
0.00839999
3.84935e-08
0.00839994
8.67869e-08
0.00839981
2.05866e-07
0.00839957
4.33076e-07
0.0083989
1.07213e-06
0.00839774
2.12788e-06
0.00839388
6.28273e-06
0.00838558
1.47303e-05
0.00835761
5.09928e-05
0.00824671
0.000192778
0.0077039
0.001004
0.00707292
0.00127924
0.00643717
0.00132777
0.00579993
0.00131188
0.0051471
0.00132209
0.00447248
0.00133006
0.00377145
0.00138701
0.00304211
0.00144956
0.00229609
0.00149247
0.00153912
0.0015154
0.000771959
0.00152532
0.00152483
0.00840002
1.18604e-09
0.00840002
7.43256e-09
0.00840001
2.24547e-08
0.00839998
5.99239e-08
0.00839993
1.3491e-07
0.0083998
3.22037e-07
0.00839953
6.76627e-07
0.00839884
1.65762e-06
0.00839736
3.54493e-06
0.00839396
9.21657e-06
0.00838268
2.54944e-05
0.00836307
7.07667e-05
0.00823952
0.00031093
0.00769178
0.00153914
0.00704711
0.00191907
0.0064298
0.00194303
0.00582258
0.00191921
0.00519372
0.00194945
0.00452029
0.002003
0.00381378
0.00209592
0.00307683
0.00218603
0.00232075
0.00224935
0.00155002
0.00228733
0.000766835
0.00230388
0.00228793
0.00840002
1.64172e-09
0.00840002
1.02908e-08
0.00840001
3.10771e-08
0.00839998
8.29944e-08
0.00839992
1.86825e-07
0.00839978
4.46703e-07
0.0083995
9.39149e-07
0.00839877
2.28645e-06
0.00839716
5.04113e-06
0.00839355
1.2403e-05
0.00838155
3.67593e-05
0.008359
9.23778e-05
0.00823351
0.00043
0.00768321
0.00207638
0.00701961
0.00257664
0.00644872
0.0025127
0.00587124
0.00249754
0.00526112
0.0025587
0.00459855
0.00266509
0.00389472
0.00280241
0.00315556
0.00292499
0.00238744
0.00301829
0.00159504
0.00308102
0.000788481
0.00310599
0.00307294
0.00840002
2.13506e-09
0.00840002
1.33728e-08
0.00840001
4.03853e-08
0.00839998
1.07792e-07
0.00839992
2.42829e-07
0.00839977
5.79759e-07
0.00839946
1.22e-06
0.00839867
2.97814e-06
0.00839717
6.42893e-06
0.00839268
1.64677e-05
0.00838287
4.57777e-05
0.00834921
0.000125289
0.00823992
0.000532689
0.00770944
0.00259482
0.0070643
0.00321556
0.0064979
0.00307783
0.00593862
0.00305712
0.00535131
0.00314465
0.00470634
0.00330957
0.00400784
0.00350332
0.00327291
0.00366006
0.00249902
0.00379319
0.00168288
0.00389806
0.000838886
0.0039451
0.00390855
0.00840002
2.65457e-09
0.00840002
1.66247e-08
0.00840001
5.02104e-08
0.00839998
1.33988e-07
0.00839991
3.01903e-07
0.00839975
7.20228e-07
0.00839944
1.51596e-06
0.00839863
3.68824e-06
0.00839696
7.98394e-06
0.00839271
2.02784e-05
0.00838178
5.5988e-05
0.00835223
0.000153888
0.00825258
0.000626569
0.00776052
0.00307486
0.0071361
0.00383372
0.00657412
0.00363951
0.00603109
0.00360098
0.00546361
0.00371153
0.00484414
0.00392786
0.00417242
0.00417769
0.00343891
0.004395
0.00265762
0.00457464
0.00182302
0.00473363
0.000924939
0.00484066
0.00483069
0.00840002
3.20768e-09
0.00840002
2.00795e-08
0.00840001
6.06744e-08
0.00839997
1.61759e-07
0.00839991
3.64688e-07
0.00839974
8.67666e-07
0.00839941
1.82763e-06
0.00839857
4.42485e-06
0.00839692
9.52876e-06
0.00839243
2.43019e-05
0.00838285
6.49334e-05
0.00835004
0.000185517
0.0082654
0.00070624
0.0078172
0.00351072
0.0072197
0.00442528
0.00668081
0.0041778
0.00615842
0.00412419
0.00561673
0.00425253
0.00502106
0.00452201
0.00438019
0.00482099
0.00367788
0.00509837
0.00289302
0.00536015
0.00202266
0.00560539
0.00105197
0.00580664
0.00587752
0.00840002
3.81489e-09
0.00840002
2.38564e-08
0.00840001
7.21718e-08
0.00839997
1.92018e-07
0.0083999
4.33422e-07
0.00839972
1.02574e-06
0.00839936
2.16303e-06
0.00839845
5.2351e-06
0.00839707
1.08298e-05
0.0083914
2.94747e-05
0.00838568
7.02101e-05
0.00834008
0.000229489
0.00826935
0.00077297
0.00784471
0.00392313
0.00728658
0.00497742
0.00680712
0.00465691
0.00631973
0.00461247
0.00581568
0.0047563
0.00526355
0.00507137
0.00465933
0.00542806
0.00398562
0.00577316
0.00323711
0.00610938
0.00235418
0.00648986
0.00128407
0.00687553
0.00715713
0.00840002
4.52409e-09
0.00840002
2.82894e-08
0.0084
8.55538e-08
0.00839996
2.27697e-07
0.00839988
5.14013e-07
0.00839967
1.2171e-06
0.00839924
2.56711e-06
0.00839817
6.19782e-06
0.00839601
1.29005e-05
0.00839047
3.45068e-05
0.00837725
8.29601e-05
0.00834048
0.000264541
0.00823491
0.000874714
0.00774074
0.00440532
0.00747524
0.0052366
0.0069506
0.00518188
0.0065
0.00506365
0.00602066
0.00523555
0.00555615
0.00553383
0.00502721
0.00595762
0.00444364
0.00635756
0.00376086
0.00679263
0.0029066
0.0073448
0.00175789
0.00802223
0.00891127
0.00840002
5.31788e-09
0.00840002
3.32522e-08
0.0084
1.00463e-07
0.00839996
2.67686e-07
0.00839986
6.04382e-07
0.00839962
1.43451e-06
0.00839914
3.02719e-06
0.00839791
7.31039e-06
0.00839536
1.53363e-05
0.00838918
4.01607e-05
0.00837289
9.86634e-05
0.00833367
0.000302117
0.00822867
0.000975081
0.00773894
0.00488266
0.00743194
0.00553845
0.00706877
0.00554615
0.00669883
0.00543467
0.00630352
0.00563082
0.00590946
0.0059271
0.0055127
0.0063543
0.0050571
0.00681411
0.00449146
0.00735866
0.00379974
0.00803827
0.00282687
0.00899301
0.0117338
0.00840002
6.0925e-09
0.00840002
3.80736e-08
0.0084
1.14979e-07
0.00839996
3.06498e-07
0.00839986
6.92707e-07
0.00839963
1.64546e-06
0.00839915
3.47615e-06
0.00839787
8.48083e-06
0.00839604
1.70534e-05
0.00838855
4.70683e-05
0.00837569
0.000110902
0.00833244
0.000343608
0.00825661
0.00104586
0.00787148
0.00525482
0.00747739
0.00593054
0.00718421
0.00583997
0.00694682
0.00567323
0.00669713
0.0058806
0.00640275
0.00622053
0.00610454
0.00665162
0.00577736
0.00714108
0.00546327
0.00767339
0.00528538
0.00821785
0.00563253
0.0086463
0.0081489
0.00921447
0.00840002
6.72027e-09
0.00840002
4.19858e-08
0.00840001
1.26412e-07
0.00839997
3.37981e-07
0.00839989
7.64467e-07
0.00839969
1.82561e-06
0.00839927
3.8694e-06
0.00839827
9.35065e-06
0.00839544
1.97427e-05
0.00839213
4.97713e-05
0.0083765
0.000125667
0.00835615
0.000362433
0.00832354
0.00107302
0.00814186
0.00542112
0.00775027
0.0063231
0.00748643
0.00610514
0.00724851
0.00591237
0.00703627
0.00609334
0.00680964
0.00644735
0.00661568
0.00684517
0.00649604
0.00726021
0.00653606
0.00763209
0.00681756
0.00793656
0.00748259
0.00798407
0.00727101
0.00835937
0.00840003
6.71842e-09
0.00840002
4.19321e-08
0.00840002
1.26494e-07
0.00840002
3.3729e-07
0.00840002
7.62749e-07
0.00840001
1.81265e-06
0.00840002
3.82354e-06
0.00839985
9.40217e-06
0.00840149
1.79994e-05
0.00839568
5.49227e-05
0.00841441
0.000106453
0.00836687
0.000407934
0.00839769
0.00103804
0.00868842
0.00511315
0.00827462
0.00674036
0.00790068
0.00648152
0.00761923
0.00619407
0.00744202
0.00627012
0.00731281
0.00657533
0.00723397
0.00692474
0.00725549
0.00723862
0.00742899
0.00745826
0.00781156
0.00755427
0.00839016
0.00740699
0.00680338
0.00885858
0.00840003
6.30913e-09
0.00840003
3.94024e-08
0.00840004
1.18784e-07
0.00840005
3.16933e-07
0.00840009
7.15254e-07
0.00840018
1.70308e-06
0.00840041
3.56731e-06
0.00840102
8.6798e-06
0.00840149
1.74192e-05
0.00840704
4.87408e-05
0.00841738
9.55792e-05
0.00847579
0.000347311
0.00864953
0.000861052
0.00994965
0.00379219
0.00922665
0.00746851
0.00851214
0.00719929
0.00813378
0.00657354
0.00791765
0.00648511
0.00782743
0.0066638
0.00783613
0.00691447
0.00793959
0.00713583
0.00815856
0.0072387
0.00848205
0.00723059
0.0089139
0.00697687
0.00645135
0.00926744
0.00840003
5.5297e-09
0.00840003
3.45552e-08
0.00840005
1.0466e-07
0.00840008
2.77956e-07
0.00840016
6.29782e-07
0.00840037
1.47714e-06
0.00840077
3.14313e-06
0.00840206
7.30223e-06
0.00840397
1.54037e-05
0.00841533
3.69484e-05
0.00842495
8.54613e-05
0.00853829
0.000232231
0.00879487
0.000604131
0.0102941
0.00228281
0.00994329
0.00781395
0.00937146
0.00777139
0.00878719
0.00715945
0.00845772
0.00681501
0.00832949
0.00679056
0.00834429
0.00689803
0.00847295
0.00700616
0.00870787
0.00700349
0.00900571
0.00693166
0.00932508
0.00665775
0.00618357
0.00959359
0.00840003
4.91331e-09
0.00840003
3.07066e-08
0.00840004
9.29465e-08
0.00840007
2.46974e-07
0.00840014
5.59174e-07
0.00840029
1.31309e-06
0.00840062
2.79008e-06
0.00840136
6.4918e-06
0.00840303
1.36533e-05
0.00840715
3.24642e-05
0.00841663
7.55114e-05
0.00845712
0.000190063
0.00850648
0.000555939
0.00891219
0.00186992
0.00965137
0.0070611
0.0096438
0.00777136
0.00917304
0.00762866
0.00891083
0.00707733
0.00879335
0.00690785
0.0087958
0.00689496
0.00890028
0.00690055
0.00909904
0.00680394
0.00937378
0.00665605
0.0096447
0.0063862
0.00596076
0.00986746
0.00840003
4.40545e-09
0.00840003
2.75152e-08
0.00840004
8.32095e-08
0.00840006
2.21179e-07
0.00840012
5.00493e-07
0.00840025
1.17736e-06
0.00840054
2.49048e-06
0.00840114
5.84144e-06
0.00840265
1.20596e-05
0.00840433
3.04374e-05
0.0084175
6.20877e-05
0.0084209
0.000185548
0.00851435
0.00046184
0.00870597
0.0016719
0.00939545
0.0063605
0.00942023
0.00774367
0.00937158
0.00767507
0.00919996
0.00724735
0.00913459
0.00697136
0.00916599
0.00686215
0.00926493
0.00680046
0.00940473
0.00666313
0.00961844
0.00644137
0.00984897
0.00615495
0.00576694
0.0100423
0.00840003
3.88947e-09
0.00840003
2.42914e-08
0.00840004
7.3255e-08
0.00840006
1.95331e-07
0.00840012
4.41447e-07
0.00840024
1.0466e-06
0.00840051
2.20461e-06
0.00840104
5.25479e-06
0.00840237
1.06791e-05
0.00840454
2.808e-05
0.00841242
5.35659e-05
0.00842408
0.000172425
0.00848176
0.000401601
0.00862993
0.00152444
0.00992395
0.00505688
0.00985976
0.00780653
0.00967011
0.00786227
0.00948609
0.00742887
0.00944847
0.00700778
0.00949403
0.00681497
0.00960445
0.00668904
0.00972454
0.00654198
0.00986117
0.00630308
0.0100213
0.00599349
0.00561932
0.0101683
0.00840003
3.15114e-09
0.00840003
1.96748e-08
0.00840005
5.96328e-08
0.00840008
1.5809e-07
0.00840017
3.57793e-07
0.00840037
8.36385e-07
0.00840078
1.77015e-06
0.00840183
4.09295e-06
0.008404
8.48163e-06
0.00841147
2.05795e-05
0.00841725
4.16418e-05
0.00848288
0.000111481
0.00857497
0.000279933
0.00934572
0.000805513
0.0117956
0.00253734
0.010958
0.00864458
0.0106796
0.00814417
0.010107
0.00800369
0.00991192
0.00720298
0.00985928
0.00686391
0.00990256
0.00664307
0.0100005
0.00644203
0.0101058
0.00619671
0.0102099
0.00588854
0.00552706
0.0103014
0.00840003
2.55575e-09
0.00840003
1.59596e-08
0.00840004
4.83292e-08
0.00840007
1.28213e-07
0.00840014
2.90377e-07
0.00840029
6.78635e-07
0.00840061
1.44172e-06
0.00840136
3.31153e-06
0.00840287
6.91804e-06
0.00840723
1.6121e-05
0.00841382
3.46631e-05
0.00844085
8.4176e-05
0.00852055
0.00019858
0.00870464
0.000621996
0.00946754
0.00176085
0.0110376
0.00706959
0.0109254
0.00825847
0.0108157
0.00811317
0.0104226
0.00759435
0.010269
0.00701432
0.0102318
0.00667671
0.0102637
0.00640757
0.0103278
0.00613087
0.0103966
0.005819
0.00547151
0.0104519
0.00840003
2.01821e-09
0.00840003
1.26014e-08
0.00840004
3.81903e-08
0.00840007
1.01221e-07
0.00840013
2.29018e-07
0.00840027
5.34694e-07
0.00840058
1.12949e-06
0.00840127
2.60591e-06
0.00840281
5.34319e-06
0.00840567
1.31546e-05
0.00841607
2.42829e-05
0.00842321
7.63415e-05
0.00848517
0.000136909
0.00856181
0.000543457
0.00899318
0.00132952
0.0108153
0.00523355
0.0110205
0.00804948
0.010971
0.00815887
0.010771
0.00779123
0.0105956
0.00718938
0.0105234
0.00674794
0.010512
0.00641696
0.0105348
0.00610569
0.0105708
0.0057811
0.00543419
0.0106066
0.00840003
1.56697e-09
0.00840003
9.78567e-09
0.00840004
2.96651e-08
0.00840006
7.8599e-08
0.00840011
1.77914e-07
0.00840023
4.14672e-07
0.00840048
8.78656e-07
0.00840105
2.0118e-06
0.0084022
4.17111e-06
0.00840553
9.74292e-06
0.00840957
2.01473e-05
0.00843637
4.908e-05
0.00846269
0.000110316
0.00870604
0.000298543
0.00922966
0.000804907
0.0117991
0.00265725
0.011674
0.00816176
0.0116002
0.00822832
0.0113008
0.00808954
0.0110106
0.00748033
0.0108636
0.00689578
0.0107974
0.00648287
0.0107653
0.00613513
0.0107527
0.00579135
0.00543556
0.0107494
0.00840003
1.19289e-09
0.00840003
7.45059e-09
0.00840004
2.26007e-08
0.00840006
5.98437e-08
0.0084001
1.35455e-07
0.0084002
3.15258e-07
0.0084004
6.67841e-07
0.00840087
1.52518e-06
0.00840187
3.1594e-06
0.00840419
7.33787e-06
0.00840914
1.5097e-05
0.00842087
3.69618e-05
0.00845287
7.77955e-05
0.00853877
0.000211129
0.00877343
0.000568059
0.00951808
0.00190786
0.0114712
0.00619192
0.0116571
0.00804091
0.01163
0.00811506
0.0113315
0.0077807
0.011202
0.00702583
0.0111047
0.00658038
0.0110494
0.00619026
0.011006
0.00583244
0.00547926
0.01096
0.00840003
8.94902e-10
0.00840003
5.56896e-09
0.00840004
1.69973e-08
0.00840005
4.46537e-08
0.00840009
1.01707e-07
0.00840016
2.3467e-07
0.00840033
5.00348e-07
0.0084007
1.1317e-06
0.00840149
2.35669e-06
0.0084033
5.44362e-06
0.00840729
1.10409e-05
0.00841596
2.79266e-05
0.00844029
5.32933e-05
0.008488
0.000161133
0.00869048
0.000364574
0.00930712
0.00128566
0.0117324
0.00374281
0.0119386
0.00783415
0.0119502
0.00810663
0.0118424
0.00789187
0.0115106
0.00735881
0.0113646
0.00672694
0.0112758
0.00627892
0.011219
0.00589034
0.00552769
0.0111697
0.00840003
5.57552e-10
0.00840003
4.42489e-09
0.00840004
1.13438e-08
0.00840005
3.48607e-08
0.00840008
6.79444e-08
0.00840013
1.84173e-07
0.0084003
3.30491e-07
0.00840052
8.99941e-07
0.00840134
1.52351e-06
0.00840235
4.38329e-06
0.00840644
6.88794e-06
0.00841171
2.23848e-05
0.00843493
2.97674e-05
0.00846697
0.000127845
0.00866565
0.000164259
0.00912478
0.000822097
0.010855
0.00200341
0.012316
0.00635532
0.0123129
0.00810926
0.0122022
0.00800309
0.0118635
0.0076986
0.0116932
0.00689781
0.0115632
0.0064074
0.0114635
0.00599
0.00560206
0.0113887
0.00840003
4.69747e-10
0.00840003
2.60752e-09
0.00840003
8.73109e-09
0.00840005
2.12225e-08
0.00840006
5.22447e-08
0.00840014
1.10642e-07
0.00840021
2.57353e-07
0.00840058
5.23068e-07
0.00840087
1.21997e-06
0.00840281
2.42275e-06
0.00840374
5.87068e-06
0.00841494
1.1115e-05
0.00841364
3.05958e-05
0.00848818
5.29686e-05
0.00847143
0.000179016
0.00891743
0.000373888
0.00949394
0.00141952
0.0120343
0.00379529
0.0125031
0.00763598
0.0125505
0.0079563
0.0124418
0.00780781
0.0120689
0.00727156
0.0118634
0.0066143
0.0117297
0.00612383
0.00571155
0.0116205
0.00840003
3.31043e-10
0.00840003
1.84678e-09
0.00840003
6.04868e-09
0.00840004
1.49751e-08
0.00840006
3.6209e-08
0.00840009
7.83722e-08
0.00840016
1.78765e-07
0.00840031
3.73456e-07
0.00840067
8.48886e-07
0.00840133
1.74895e-06
0.00840313
4.02198e-06
0.00840584
8.34665e-06
0.00841697
1.92086e-05
0.00842784
4.17958e-05
0.00850779
9.79294e-05
0.00864182
0.000237885
0.00936286
0.000694345
0.0112603
0.00188582
0.0128235
0.00605835
0.0128275
0.00794873
0.0128346
0.00779871
0.0125297
0.00757633
0.0122433
0.00690345
0.0120413
0.00632761
0.00586668
0.0118875
0.00840003
2.17213e-10
0.00840003
1.22337e-09
0.00840003
3.98297e-09
0.00840004
9.92839e-09
0.00840005
2.36902e-08
0.00840008
5.14845e-08
0.00840014
1.15131e-07
0.00840027
2.41239e-07
0.00840058
5.33876e-07
0.00840122
1.10133e-06
0.00840274
2.47676e-06
0.00840611
4.93428e-06
0.00841297
1.21586e-05
0.00843307
2.18055e-05
0.00846208
6.7611e-05
0.00858554
0.000115227
0.00883464
0.000441155
0.00970116
0.00101518
0.0122311
0.00349969
0.0129512
0.00721996
0.013048
0.00770086
0.0129469
0.00767647
0.0126431
0.00720788
0.0124152
0.00655788
0.00604665
0.0122358
0.00840003
1.62895e-10
0.00840003
7.72803e-10
0.00840003
2.86917e-09
0.00840004
6.36536e-09
0.00840004
1.71116e-08
0.00840006
3.31056e-08
0.00840009
8.46055e-08
0.00840017
1.55416e-07
0.0084003
4.03462e-07
0.00840068
7.11968e-07
0.00840121
1.92719e-06
0.00840287
3.25032e-06
0.00840548
9.4146e-06
0.00841243
1.4735e-05
0.00843102
4.83547e-05
0.00847336
7.2215e-05
0.00863995
0.000271595
0.00911803
0.000537187
0.0108546
0.0017541
0.0128525
0.00520186
0.0130664
0.00748298
0.0132219
0.0075218
0.013061
0.00736985
0.0127819
0.00683948
0.00627063
0.01256
0.00840003
8.00257e-11
0.00840003
5.84462e-10
0.00840003
1.57439e-09
0.00840003
4.63893e-09
0.00840004
9.43924e-09
0.00840005
2.43258e-08
0.00840009
4.59478e-08
0.00840012
1.17236e-07
0.00840031
2.12917e-07
0.00840046
5.60128e-07
0.00840141
9.68434e-07
0.00840188
2.74595e-06
0.00840704
4.21207e-06
0.00840745
1.40878e-05
0.00843871
1.72129e-05
0.0084351
7.43092e-05
0.00862613
8.12182e-05
0.0087479
0.000410325
0.0097266
0.000772016
0.0125404
0.00235621
0.0134104
0.00660446
0.013375
0.00755833
0.0134331
0.00731327
0.0131589
0.00711633
0.00652678
0.0129069
0.00840003
5.09623e-11
0.00840003
2.87692e-10
0.00840003
9.59323e-10
0.00840003
2.34478e-09
0.00840004
5.6453e-09
0.00840005
1.191e-08
0.00840007
2.66996e-08
0.00840013
5.37279e-08
0.00840022
1.1926e-07
0.00840055
2.32575e-07
0.00840097
5.34756e-07
0.00840275
9.56407e-07
0.0084043
2.58938e-06
0.00841459
3.77301e-06
0.00841748
1.39276e-05
0.00847345
1.82714e-05
0.00847272
8.03278e-05
0.00876046
0.000120685
0.00898555
0.000543405
0.0101308
0.00119911
0.0128148
0.00389907
0.0134701
0.00689835
0.0135787
0.00720451
0.0135544
0.0071414
0.00680352
0.0132802
0.00840003
3.24675e-11
0.00840003
1.82283e-10
0.00840003
5.96309e-10
0.00840003
1.47623e-09
0.00840003
3.53458e-09
0.00840004
7.60427e-09
0.00840005
1.70716e-08
0.00840007
3.53387e-08
0.0084001
7.87465e-08
0.00840017
1.60768e-07
0.00840034
3.61971e-07
0.00840055
7.34914e-07
0.00840143
1.67829e-06
0.00840174
3.42911e-06
0.00840754
7.98486e-06
0.00840905
1.65794e-05
0.00844814
4.05792e-05
0.00847778
8.9945e-05
0.00878373
0.000235312
0.00934561
0.000632556
0.0113777
0.00186061
0.0132951
0.00496682
0.0135775
0.00691885
0.0137779
0.00694102
0.00692683
0.0136553
0.00840003
2.00401e-11
0.00840003
1.12226e-10
0.00840003
3.67306e-10
0.00840003
9.09465e-10
0.00840003
2.18664e-09
0.00840004
4.7167e-09
0.00840004
1.0667e-08
0.00840005
2.21848e-08
0.00840008
4.99232e-08
0.00840014
1.0265e-07
0.00840026
2.33167e-07
0.00840051
4.79884e-07
0.00840108
1.08998e-06
0.00840219
2.29254e-06
0.008405
5.06673e-06
0.00841042
1.10587e-05
0.00842664
2.37693e-05
0.00846326
5.28456e-05
0.0085741
0.000122188
0.00891072
0.000292391
0.00989013
0.000871827
0.012632
0.00219664
0.0137293
0.00581398
0.0138021
0.00686724
0.00670206
0.014028
0.00840003
1.06034e-11
0.00840003
6.05045e-11
0.00840003
1.97192e-10
0.00840003
4.92083e-10
0.00840003
1.15739e-09
0.00840003
2.49719e-09
0.00840004
5.44335e-09
0.00840005
1.12876e-08
0.00840007
2.40905e-08
0.00840013
4.92414e-08
0.00840025
1.04905e-07
0.00840052
2.09769e-07
0.00840112
4.64951e-07
0.00840254
8.54213e-07
0.00840531
2.21543e-06
0.00841287
3.37079e-06
0.00842446
1.17726e-05
0.00846063
1.62076e-05
0.00851242
6.85357e-05
0.00869543
0.000108372
0.00910668
0.000455861
0.010298
0.00099542
0.0129096
0.0031796
0.0138068
0.00596347
0.00663716
0.0138714
0.00840003
6.66603e-12
0.00840003
3.33463e-11
0.00840003
1.1935e-10
0.00840003
2.73445e-10
0.00840003
7.02872e-10
0.00840003
1.39618e-09
0.00840003
3.37359e-09
0.00840004
6.36885e-09
0.00840005
1.54729e-08
0.00840007
2.82843e-08
0.0084001
7.07638e-08
0.00840018
1.25686e-07
0.00840031
3.26058e-07
0.00840059
5.64662e-07
0.00840124
1.53203e-06
0.00840204
2.53514e-06
0.00840616
7.50588e-06
0.00841066
1.1557e-05
0.00843926
3.93095e-05
0.00848725
5.92508e-05
0.00872078
0.000220121
0.00925539
0.000457722
0.0110886
0.00133958
0.0133198
0.0037135
0.00602061
0.0139315
0.00840003
3.03636e-12
0.00840003
2.13897e-11
0.00840003
5.96632e-11
0.00840003
1.70209e-10
0.00840003
3.53598e-10
0.00840003
8.72474e-10
0.00840003
1.67578e-09
0.00840004
4.04994e-09
0.00840004
7.50254e-09
0.00840005
1.84611e-08
0.00840009
3.32746e-08
0.00840013
8.451e-08
0.0084003
1.48676e-07
0.00840047
3.92764e-07
0.00840133
6.62036e-07
0.00840195
1.89067e-06
0.00840654
2.89206e-06
0.00840839
9.55573e-06
0.00843508
1.26512e-05
0.00844276
5.05261e-05
0.00859974
6.42939e-05
0.00878224
0.000271763
0.00958758
0.000533132
0.0118123
0.00148205
0.00417818
0.0136435
0.00840003
1.88616e-12
0.00840003
1.06239e-11
0.00840003
3.52279e-11
0.00840003
8.62794e-11
0.00840003
2.07081e-10
0.00840003
4.38198e-10
0.00840003
9.7959e-10
0.00840003
1.98595e-09
0.00840004
4.38513e-09
0.00840005
8.73712e-09
0.00840006
1.94052e-08
0.00840011
3.82493e-08
0.00840017
8.6046e-08
0.00840039
1.67218e-07
0.00840066
3.86804e-07
0.00840182
7.2342e-07
0.00840289
1.79844e-06
0.00840935
3.12027e-06
0.00841295
8.88321e-06
0.00844978
1.41605e-05
0.00846528
4.7442e-05
0.00866135
7.82042e-05
0.00891594
0.000273911
0.00979934
0.000598384
0.00171746
0.0122514
0.00840003
1.08942e-12
0.00840003
5.67585e-12
0.00840003
1.96803e-11
0.00840003
4.62785e-11
0.00840003
1.15176e-10
0.00840003
2.34496e-10
0.00840003
5.44641e-10
0.00840003
1.05651e-09
0.00840003
2.44241e-09
0.00840004
4.61263e-09
0.00840005
1.08493e-08
0.00840006
2.00354e-08
0.0084001
4.82867e-08
0.00840018
8.73178e-08
0.00840034
2.16825e-07
0.00840068
3.78611e-07
0.00840145
9.95036e-07
0.00840293
1.62432e-06
0.00840694
4.72887e-06
0.00841411
6.95348e-06
0.00843756
2.3542e-05
0.00848279
3.24227e-05
0.00863129
0.000122388
0.00901413
0.000213989
0.000714761
0.0100051
0.00840003
4.59315e-13
0.00840003
3.09175e-12
0.00840003
8.98964e-12
0.00840003
2.48506e-11
0.00840003
5.3266e-11
0.00840003
1.26891e-10
0.00840003
2.51247e-10
0.00840003
5.84225e-10
0.00840003
1.1073e-09
0.00840003
2.62611e-09
0.00840004
4.75083e-09
0.00840005
1.15955e-08
0.00840007
2.03592e-08
0.00840011
5.09659e-08
0.00840024
8.7686e-08
0.00840038
2.28308e-07
0.008401
3.72753e-07
0.00840153
1.05801e-06
0.0084047
1.54982e-06
0.00840634
5.12059e-06
0.00842342
6.45157e-06
0.00842902
2.58979e-05
0.00852044
3.07077e-05
0.00859802
0.000132995
0.000217054
0.00909388
0.00840003
2.33913e-13
0.00840003
1.27739e-12
0.00840003
4.37913e-12
0.00840003
1.0447e-11
0.00840003
2.53938e-11
0.00840003
5.18916e-11
0.00840003
1.17256e-10
0.00840003
2.25512e-10
0.00840003
5.24544e-10
0.00840003
9.48493e-10
0.00840003
2.41764e-09
0.00840004
4.20798e-09
0.00840005
1.12842e-08
0.00840008
1.93211e-08
0.00840011
5.25034e-08
0.00840024
8.64679e-08
0.00840035
2.44106e-07
0.00840103
3.7045e-07
0.00840139
1.12664e-06
0.0084049
1.57349e-06
0.00840562
5.52145e-06
0.00842519
6.24872e-06
0.00842692
2.78965e-05
0.00852966
2.97736e-05
0.000137515
0.00860453
0.00840003
8.98103e-14
0.00840003
5.8431e-13
0.00840003
1.75546e-12
0.00840003
4.67157e-12
0.00840003
1.01123e-11
0.00840003
2.26474e-11
0.00840003
4.47204e-11
0.00840003
9.64296e-11
0.00840003
1.7863e-10
0.00840003
4.0532e-10
0.00840003
6.81827e-10
0.00840003
1.74213e-09
0.00840004
2.65729e-09
0.00840005
7.88161e-09
0.00840009
1.07696e-08
0.00840012
3.78276e-08
0.00840032
4.5745e-08
0.00840044
1.87434e-07
0.00840127
2.29406e-07
0.00840215
8.86315e-07
0.00840886
1.05527e-06
0.00840663
5.14127e-06
0.0084355
4.40006e-06
0.0084356
2.81218e-05
2.63628e-05
0.00854492
0.00840003
4.03902e-14
0.00840003
2.27539e-13
0.00840003
7.64807e-13
0.00840003
1.84918e-12
0.00840003
4.34444e-12
0.00840003
8.90068e-12
0.00840003
1.89454e-11
0.00840003
3.64402e-11
0.00840003
7.65815e-11
0.00840003
1.37776e-10
0.00840003
3.11371e-10
0.00840003
5.01991e-10
0.00840003
1.29427e-09
0.00840004
1.84151e-09
0.00840004
5.84384e-09
0.00840007
7.11693e-09
0.00840008
2.95148e-08
0.00840023
3.01894e-08
0.00840029
1.48698e-07
0.00840095
1.77691e-07
0.00840128
6.82457e-07
0.00840452
8.33045e-07
0.00840502
4.58099e-06
0.00842447
4.03234e-06
2.72213e-05
0.00842291
0.00840003
1.50206e-14
0.00840003
9.65916e-14
0.00840003
2.94207e-13
0.00840003
7.70993e-13
0.00840003
1.67382e-12
0.00840003
3.64636e-12
0.00840003
7.17815e-12
0.00840003
1.47772e-11
0.00840003
2.73644e-11
0.00840003
5.75279e-11
0.00840003
9.71389e-11
0.00840003
2.23437e-10
0.00840003
3.32871e-10
0.00840003
9.05451e-10
0.00840004
1.13995e-09
0.00840004
4.12494e-09
0.00840006
4.40819e-09
0.00840006
2.43723e-08
0.00840019
2.2432e-08
0.00840022
1.31278e-07
0.00840072
1.67734e-07
0.0084007
5.68378e-07
0.00840617
7.36381e-07
0.00840275
4.18016e-06
3.40462e-06
0.00843825
0.00840003
6.29282e-15
0.00840003
3.71167e-14
0.00840003
1.20967e-13
0.00840003
2.99115e-13
0.00840003
6.81914e-13
0.00840003
1.41109e-12
0.00840003
2.89854e-12
0.00840003
5.60924e-12
0.00840003
1.11862e-11
0.00840003
2.0634e-11
0.00840003
4.2269e-11
0.00840003
7.32782e-11
0.00840003
1.60329e-10
0.00840003
2.64265e-10
0.00840003
6.40557e-10
0.00840004
1.06572e-09
0.00840004
2.84574e-09
0.00840006
4.33982e-09
0.00840006
1.8336e-08
0.00840017
2.66051e-08
0.0084002
1.11203e-07
0.00840055
2.37947e-07
0.00840045
4.85587e-07
0.00840562
7.53445e-07
3.41293e-06
0.00840247
0.00840003
2.4748e-15
0.00840003
1.47363e-14
0.00840003
4.75138e-14
0.00840003
1.18747e-13
0.00840003
2.66171e-13
0.00840003
5.55058e-13
0.00840003
1.10981e-12
0.00840003
2.16359e-12
0.00840003
4.11632e-12
0.00840003
7.65785e-12
0.00840003
1.45924e-11
0.00840003
2.51713e-11
0.00840003
5.05788e-11
0.00840003
7.67908e-11
0.00840003
1.83598e-10
0.00840003
2.33967e-10
0.00840003
8.36936e-10
0.00840004
1.03418e-09
0.00840005
4.87385e-09
0.00840008
8.78994e-09
0.00840013
2.79303e-08
0.00840041
5.32588e-08
0.00840059
1.79831e-07
0.008401
3.22437e-07
8.05317e-07
0.00840379
0.00840003
1.12161e-15
0.00840003
6.48559e-15
0.00840003
2.11067e-14
0.00840003
5.21649e-14
0.00840003
1.1977e-13
0.00840003
2.50064e-13
0.00840003
5.23971e-13
0.00840003
1.03097e-12
0.00840003
2.12308e-12
0.00840003
4.08707e-12
0.00840003
8.55445e-12
0.00840003
1.66028e-11
0.00840003
3.54372e-11
0.00840003
7.1458e-11
0.00840003
1.54155e-10
0.00840003
3.26529e-10
0.00840003
7.0993e-10
0.00840003
1.54507e-09
0.00840003
3.42297e-09
0.00840003
7.33977e-09
0.00840004
1.77576e-08
0.00840006
3.25873e-08
0.00840016
9.37906e-08
0.00840029
1.57814e-07
5.02423e-07
0.00840056
0.00840003
4.69026e-16
0.00840003
2.74097e-15
0.00840003
8.87897e-15
0.00840003
2.21543e-14
0.00840003
5.02881e-14
0.00840003
1.05855e-13
0.00840003
2.17274e-13
0.00840003
4.32761e-13
0.00840003
8.5492e-13
0.00840003
1.67086e-12
0.00840003
3.26185e-12
0.00840003
6.22251e-12
0.00840003
1.25799e-11
0.00840003
2.22456e-11
0.00840003
4.99199e-11
0.00840003
7.75641e-11
0.00840003
2.11919e-10
0.00840003
3.03518e-10
0.00840003
1.03949e-09
0.00840004
1.57797e-09
0.00840005
5.11751e-09
0.0084001
1.01949e-08
0.0084001
2.45454e-08
0.00840039
4.65018e-08
1.62789e-07
0.00840048
0.00840003
2.26598e-16
0.00840003
1.21897e-15
0.00840003
4.1391e-15
0.00840003
9.88933e-15
0.00840003
2.37336e-14
0.00840003
4.85116e-14
0.00840003
1.07084e-13
0.00840003
2.07092e-13
0.00840003
4.54559e-13
0.00840003
8.48155e-13
0.00840003
1.94275e-12
0.00840003
3.47704e-12
0.00840003
8.5858e-12
0.00840003
1.46125e-11
0.00840003
3.89017e-11
0.00840003
6.0651e-11
0.00840003
1.74468e-10
0.00840003
2.44859e-10
0.00840003
7.78641e-10
0.00840003
1.05152e-09
0.00840003
4.04373e-09
0.00840004
4.13866e-09
0.00840005
2.07344e-08
0.0084001
1.2975e-08
8.5816e-08
0.00840055
0.00840003
7.07442e-17
0.00840003
4.91686e-16
0.00840003
1.43825e-15
0.00840003
3.92362e-15
0.00840003
8.32852e-15
0.00840003
1.92064e-14
0.00840003
3.72343e-14
0.00840003
8.30365e-14
0.00840003
1.50486e-13
0.00840003
3.54492e-13
0.00840003
5.70325e-13
0.00840003
1.54371e-12
0.00840003
2.02664e-12
0.00840003
6.84206e-12
0.00840003
6.85458e-12
0.00840003
3.26674e-11
0.00840003
2.46296e-11
0.00840003
1.54114e-10
0.00840003
9.17899e-11
0.00840003
6.23137e-10
0.00840004
-1.91363e-10
0.00840003
3.34595e-09
0.00840008
-4.95109e-09
0.00840002
1.64728e-08
-3.53573e-08
0.00840033
0.00840003
0.00840003
0.00840003
0.00840003
0.00840003
0.00840003
0.00840003
0.00840003
0.00840003
0.00840003
0.00840003
0.00840003
0.00840003
0.00840003
0.00840003
0.00840003
0.00840003
0.00840003
0.00840003
0.00840003
0.00840004
0.00840003
0.00840003
0.00840005
0.00840013
0.00555552
0.00365751
0.0039234
0.00163139
0.00302879
0.000894228
0.00249482
0.000533746
0.00217992
0.000314819
0.0019992
0.000180685
0.00191108
8.80988e-05
0.00190025
1.08615e-05
0.00202168
-0.000121408
0.00224229
-0.000220585
0.0023826
-0.000140561
0.00246147
-7.93437e-05
0.00248563
-2.48101e-05
0.0024827
2.26771e-06
0.00247055
1.1417e-05
0.00246295
6.85616e-06
0.00246371
-1.54239e-06
0.0024725
-9.71224e-06
0.0024834
-1.19553e-05
0.00249317
-1.08728e-05
0.00250072
-8.77632e-06
0.00250652
-7.06762e-06
0.0025113
-6.05876e-06
0.00251553
-5.5811e-06
0.00251946
-5.3909e-06
0.00252319
-5.26418e-06
0.00252673
-5.066e-06
0.00252994
-4.8049e-06
0.00253261
-4.40485e-06
0.00253505
-4.06519e-06
0.00253692
-3.682e-06
0.00253805
-3.25468e-06
0.00253853
-2.71479e-06
0.0025379
-1.93201e-06
0.00253506
-5.62132e-07
0.00252825
1.8436e-06
0.00251413
6.15103e-06
0.00248478
1.48522e-05
0.00242342
3.29428e-05
0.00229172
7.21198e-05
0.00200998
0.00016569
0.00124569
0.000437481
-0.000298275
0.00116632
-0.000972085
0.000772372
-0.00117624
0.000274694
-0.00117056
4.25798e-05
-0.00101647
-0.000156507
-0.000823558
-0.000224387
-0.00057366
-0.000266285
-0.000249066
-0.000328914
0.000111329
-0.000371557
0.000473173
-0.000395859
0.000817313
-0.000389022
0.00114384
-0.000359409
0.00146403
-0.000332912
0.00177113
-0.000305848
0.00205874
-0.000284139
0.00232857
-0.000264233
0.00258314
-0.000249384
0.00282624
-0.000241231
0.00306462
-0.000233391
0.00329576
-0.000219731
0.00351618
-0.00020716
0.00372551
-0.000195228
0.00392368
-0.000184725
0.00411076
-0.000173521
0.004288
-0.000163222
0.00445423
-0.000152244
0.00461018
-0.000142335
0.00475482
-0.000132051
0.00488938