/*--------------------------------*- C++ -*----------------------------------*\
  =========                 |
  \\      /  F ield         | OpenFOAM: The Open Source CFD Toolbox
   \\    /   O peration     | Website:  https://openfoam.org
    \\  /    A nd           | Version:  6
     \\/     M anipulation  |
\*---------------------------------------------------------------------------*/
FoamFile
{
    version     2.0;
    format      ascii;
    class       volScalarField;
    location    "2.5";
    object      T;
}
// * * * * * * * * * * * * * * * * * * * * * * * * * * * * * * * * * * * * * //

dimensions      [0 0 0 1 0 0 0];

internalField   nonuniform List<scalar> 
5250
(
1.00005
1.00013
1.00039
1.00077
1.00219
1.00424
1.01159
1.02435
1.05926
1.14783
1.35321
1.88052
2.7919
2.7718
2.78388
2.74705
2.73163
2.74884
2.7639
2.77495
2.7824
2.7884
2.78965
2.79801
2.82103
1.00005
1.00013
1.00039
1.00077
1.00219
1.00422
1.01154
1.02424
1.05902
1.14715
1.35178
1.87597
2.78997
2.77206
2.78132
2.74541
2.7309
2.74783
2.7629
2.7733
2.7802
2.78598
2.7871
2.79498
2.81805
1.00005
1.00013
1.00039
1.00076
1.00217
1.00418
1.01144
1.024
1.05855
1.1456
1.34868
1.86335
2.78522
2.77248
2.77487
2.74141
2.72907
2.74572
2.76106
2.77089
2.77757
2.78329
2.7842
2.79169
2.81468
1.00005
1.00013
1.00038
1.00075
1.00214
1.00412
1.01129
1.02363
1.05779
1.14349
1.34305
1.85102
2.77985
2.77487
2.76996
2.73591
2.72511
2.74092
2.75618
2.76626
2.7721
2.77715
2.77812
2.78504
2.80656
1.00005
1.00012
1.00037
1.00073
1.00209
1.00403
1.01109
1.02312
1.05672
1.1408
1.33469
1.83758
2.77276
2.77489
2.76248
2.7288
2.71884
2.73368
2.74826
2.75565
2.76439
2.76945
2.76877
2.77582
2.79844
1.00005
1.00012
1.00036
1.00071
1.00204
1.00392
1.01082
1.02245
1.05531
1.1371
1.32409
1.81941
2.75474
2.77172
2.75596
2.72303
2.71331
2.72551
2.74062
2.74624
2.7488
2.75723
2.75833
2.76155
2.78086
1.00005
1.00012
1.00035
1.00069
1.00197
1.00378
1.01048
1.02163
1.05354
1.13257
1.31096
1.79669
2.72881
2.76697
2.74346
2.7149
2.70427
2.71475
2.72762
2.73658
2.73719
2.73729
2.73904
2.74376
2.76245
1.00005
1.00011
1.00034
1.00066
1.00189
1.00361
1.01007
1.02065
1.05137
1.12712
1.29555
1.76878
2.69403
2.75859
2.72805
2.71211
2.69635
2.70373
2.71004
2.7175
2.72019
2.72187
2.71428
2.71667
2.73054
1.00004
1.0001
1.00032
1.00062
1.00179
1.00342
1.00956
1.01952
1.04881
1.12018
1.27883
1.73469
2.64021
2.7477
2.70039
2.70042
2.69073
2.69643
2.69764
2.69664
2.69461
2.69005
2.68588
2.67286
2.67719
1.00004
1.0001
1.0003
1.00058
1.00168
1.00319
1.00896
1.01818
1.04574
1.11208
1.25891
1.69184
2.58109
2.72058
2.70375
2.6779
2.67295
2.67786
2.68406
2.68277
2.67112
2.66058
2.63595
2.61123
2.5608
1.00004
1.00009
1.00027
1.00053
1.00154
1.00292
1.00824
1.01659
1.04206
1.1026
1.23486
1.63853
2.50152
2.68508
2.69545
2.67728
2.65425
2.65455
2.65803
2.6552
2.64366
2.61898
2.58444
2.51342
2.39521
1.00003
1.00008
1.00024
1.00048
1.00138
1.00261
1.0074
1.01473
1.03792
1.0909
1.2074
1.57234
2.39068
2.63771
2.68415
2.6716
2.64982
2.63658
2.63334
2.62649
2.61149
2.58021
2.52223
2.43992
2.30113
1.00003
1.00007
1.00021
1.00041
1.0012
1.00225
1.00643
1.01268
1.03266
1.07923
1.17357
1.50128
2.25682
2.57606
2.66997
2.65612
2.64034
2.61946
2.60648
2.59256
2.57379
2.54596
2.48944
2.40696
2.28713
1.00002
1.00006
1.00018
1.00035
1.00101
1.00191
1.00545
1.01061
1.02818
1.06379
1.14812
1.39778
2.05296
2.50612
2.6493
2.63488
2.62471
2.60428
2.58743
2.56364
2.53341
2.50122
2.45136
2.39299
2.29303
1.00002
1.00005
1.00015
1.00029
1.00084
1.00159
1.00454
1.00871
1.02375
1.05052
1.12547
1.30514
1.86559
2.41446
2.61687
2.59053
2.58725
2.57686
2.56716
2.54989
2.51259
2.47838
2.41684
2.36964
2.2947
1.00002
1.00004
1.00012
1.00024
1.0007
1.00131
1.00377
1.0072
1.01963
1.04223
1.10152
1.25968
1.67108
2.37768
2.5925
2.57477
2.55801
2.53766
2.53094
2.52036
2.494
2.4646
2.40721
2.3503
2.29005
1.00001
1.00003
1.0001
1.0002
1.00057
1.00107
1.00308
1.00585
1.01593
1.03466
1.08102
1.22176
1.51051
2.23281
2.53964
2.56508
2.54189
2.52539
2.50375
2.49303
2.46703
2.44706
2.40468
2.34986
2.29209
1.00001
1.00003
1.00008
1.00016
1.00045
1.00085
1.00245
1.00462
1.01277
1.02705
1.06459
1.17345
1.39096
2.03635
2.43431
2.54449
2.53022
2.51665
2.48873
2.46824
2.44513
2.41166
2.38733
2.34598
2.29557
1.00001
1.00002
1.00006
1.00012
1.00035
1.00065
1.00188
1.00347
1.00997
1.01952
1.05058
1.11935
1.28584
1.68576
2.30971
2.48714
2.49219
2.48861
2.47533
2.45225
2.43224
2.40051
2.36652
2.33243
2.29226
1.00001
1.00002
1.00005
1.00009
1.00027
1.00049
1.00144
1.00264
1.00768
1.01471
1.03895
1.09071
1.20815
1.56048
2.2449
2.44648
2.46475
2.45083
2.44308
2.4242
2.40667
2.38432
2.35402
2.32022
2.28375
1
1.00001
1.00004
1.00007
1.0002
1.00037
1.00107
1.00196
1.00566
1.011
1.02814
1.06919
1.15162
1.43601
2.06753
2.36176
2.44657
2.43883
2.42339
2.40366
2.38271
2.36332
2.3395
2.30968
2.27634
1
1.00001
1.00003
1.00005
1.00015
1.00027
1.00079
1.00143
1.0042
1.00778
1.02172
1.04522
1.11197
1.27204
1.74662
2.21585
2.40339
2.40809
2.39677
2.38076
2.36006
2.33997
2.32138
2.29874
2.27135
1
1.00001
1.00002
1.00004
1.0001
1.00019
1.00056
1.00102
1.00301
1.00552
1.01558
1.03214
1.07843
1.1989
1.4838
2.07223
2.35841
2.39108
2.37808
2.36304
2.33965
2.31784
2.29573
2.27509
2.2525
1
1
1.00001
1.00003
1.00007
1.00014
1.0004
1.00071
1.00211
1.00383
1.0109
1.02199
1.05509
1.14112
1.31575
1.80363
2.21161
2.3525
2.35635
2.3473
2.33046
2.3082
2.28667
2.26444
2.24096
1
1
1.00001
1.00002
1.00005
1.00009
1.00027
1.00049
1.00144
1.00257
1.00759
1.01427
1.03827
1.08761
1.20502
1.52341
2.10548
2.2782
2.30982
2.30932
2.30199
2.28593
2.26881
2.24982
2.22927
1
1
1
1.00001
1.00003
1.00008
1.00014
1.0004
1.00073
1.00214
1.00394
1.01087
1.02273
1.05632
1.14398
1.33068
1.813
2.17466
2.28497
2.2874
2.28112
2.26883
2.251
2.23383
2.21662
1
1
1
1.00001
1.00002
1.00005
1.00009
1.00027
1.00048
1.00144
1.00252
1.00761
1.01393
1.03826
1.08421
1.20238
1.49593
2.03434
2.21755
2.24967
2.25091
2.24253
2.22863
2.21347
2.19927
1
1
1
1.00001
1.00001
1.00003
1.00006
1.00017
1.0003
1.00089
1.00156
1.00449
1.00864
1.0222
1.05394
1.12096
1.33618
1.7977
2.1088
2.22528
2.22824
2.22167
2.20925
2.19028
2.17501
1
1
1
1
1.00001
1.00002
1.00004
1.00011
1.00019
1.00057
1.00099
1.00306
1.00532
1.01595
1.03028
1.08336
1.17679
1.53429
1.87498
2.1467
2.20267
2.20527
2.19885
2.18489
2.1659
1
1
1
1
1.00001
1.00001
1.00003
1.00005
1.00014
1.00025
1.00074
1.00132
1.00382
1.00724
1.01936
1.0435
1.10464
1.26264
1.68477
1.98167
2.1456
2.16318
2.17237
2.16694
2.15622
1
1
1
1
1
1.00001
1.00001
1.00003
1.00006
1.00017
1.00031
1.00078
1.00168
1.00387
1.01023
1.02253
1.06477
1.1369
1.39844
1.85961
2.07304
2.14171
2.14528
2.14135
2.13361
1
1
1
1
1
1
1.00001
1.00002
1.00004
1.00011
1.00019
1.00061
1.00101
1.00328
1.00547
1.01675
1.03194
1.0853
1.18759
1.54204
1.88687
2.0928
2.12626
2.12581
2.11795
1
1
1
1
1
1
1
1.00001
1.00002
1.00006
1.00011
1.00034
1.00056
1.00178
1.00294
1.00909
1.01668
1.04606
1.10442
1.24627
1.58565
1.93082
2.08399
2.10255
2.10164
1
1
1
1
1
1
1
1.00001
1.00001
1.00003
1.00005
1.00015
1.00027
1.00071
1.00145
1.00345
1.00898
1.02045
1.05893
1.12823
1.36032
1.77254
1.99179
2.07832
2.08391
1
1
1
1
1
1
1
1
1.00001
1.00002
1.00003
1.0001
1.00016
1.00054
1.00086
1.00285
1.00463
1.01481
1.02697
1.07703
1.15973
1.47747
1.75017
1.99168
2.05127
1
1
1
1
1
1
1
1
1
1.00001
1.00002
1.00004
1.00011
1.00019
1.00058
1.00099
1.00296
1.00544
1.01537
1.03234
1.08415
1.18993
1.52004
1.77891
1.97758
1
1
1
1
1
1
1
1
1
1
1.00001
1.00002
1.00004
1.00012
1.00021
1.00061
1.00107
1.00302
1.00603
1.01588
1.03696
1.09189
1.22085
1.54795
1.80866
1
1
1
1
1
1
1
1
1
1
1
1.00001
1.00002
1.00006
1.0001
1.00033
1.00052
1.0017
1.00275
1.00865
1.01556
1.04444
1.09579
1.23405
1.49991
1
1
1
1
1
1
1
1
1
1
1
1
1.00001
1.00002
1.00006
1.0001
1.00032
1.00054
1.00165
1.00293
1.00867
1.01705
1.04817
1.10264
1.26788
1
1
1
1
1
1
1
1
1
1
1
1
1
1.00001
1.00002
1.00006
1.0001
1.00032
1.00054
1.00169
1.00305
1.00919
1.01811
1.05252
1.10763
1
1
1
1
1
1
1
1
1
1
1
1
1
1
1
1.00002
1.00003
1.0001
1.00015
1.00072
1.00048
1.00353
1.00787
1.0204
1.0551
1
1
1
1
1
1
1
1
1
1
1
1
1
1
1
1
1.00001
1.00003
1.00009
1.00014
1.00076
1.00048
1.00388
1.00808
1.02099
1
1
1
1
1
1
1
1
1
1
1
1
1
1
1
1
1
1.00001
1.00002
1.00009
1.00013
1.00078
1.00044
1.0038
1.00741
1
1
1
1
1
1
1
1
1
1
1
1
1
1
1
1
1
1
1.00002
1.00002
1.00011
1.00013
1.0008
1.00036
1.00378
1
1
1
1
1
1
1
1
1
1
1
1
1
1
1
1
1
1
1.00001
1.00001
1.00003
1.00004
1.0002
1.00024
1.00174
1
1
1
1
1
1
1
1
1
1
1
1
1
1
1
1
1
1
1
1.00001
1.00001
1.00004
1.00007
1.00023
1.00049
1
1
1
1
1
1
1
1
1
1
1
1
1
1
1
1
1
1
1
1
1.00001
1.00001
1.00004
1.00005
1.00025
1
1
1
1
1
1
1
1
1
1
1
1
1
1
1
1
1
1
1
1
1
1.00001
1.00001
1.00005
1.0001
1
1
1
1
1
1
1
1
1
1
1
1
1
1
1
1
1
1
1
1
1
1
1.00001
1.00004
1.00004
1
1
1
1
1
1
1
1
1
1
1
1
1
1
1
1
1
1
1
1
1
1
1.00002
1.00002
1.00012
2.2673
2.11236
2.0108
1.95186
1.94896
1.9847
2.05574
2.1234
2.22676
2.31393
2.37139
2.3932
2.39822
2.39711
2.39727
2.3983
2.40177
2.40595
2.41212
2.41737
2.42151
2.42482
2.42742
2.42965
2.43159
2.43335
2.43479
2.43592
2.43697
2.43779
2.43823
2.43917
2.44014
2.44147
2.44421
2.44966
2.45955
2.48009
2.5235
2.61492
2.8003
3.05797
3.33993
3.2537
3.22883
3.23651
3.29928
3.33016
3.33365
3.33517
3.33369
3.32184
3.29599
3.2837
3.26249
3.24597
3.22169
3.19738
3.16899
3.14299
3.11077
3.08342
3.05127
3.02538
2.99346
2.96986
2.94089
2.92055
2.89534
2.8774
2.8542
2.837
2.81437
2.79784
2.77675
2.76236
2.7439
2.73206
2.71593
2.70602
2.69148
2.68279
2.66927
2.66143
2.64868
2.6417
2.62964
2.62341
2.61185
2.60596
2.59457
2.58872
2.57742
2.57121
2.55984
2.55335
2.54193
2.53674
2.52794
2.53195
2.18142
2.07005
1.99942
1.96037
1.94817
1.95281
1.96094
1.95022
1.92721
1.91
1.90419
1.91256
1.92695
1.94488
1.96074
1.97113
1.97579
1.97801
1.97943
1.98089
1.98274
1.9845
1.98658
1.98826
1.98987
1.99131
1.99218
1.99347
1.99386
1.99463
1.99499
1.9955
1.99612
1.99696
1.9986
2.0021
2.00965
2.02578
2.06132
2.14082
2.30944
2.65788
3.03502
3.20843
3.23671
3.22963
3.20459
3.14948
3.08654
3.03893
2.99625
2.96088
2.92405
2.89512
2.86721
2.84558
2.82172
2.80184
2.77954
2.75986
2.73345
2.71113
2.68403
2.65904
2.63
2.60541
2.57944
2.55829
2.53535
2.51677
2.49666
2.48086
2.46353
2.45006
2.4347
2.42246
2.40816
2.39651
2.38313
2.37192
2.35945
2.34863
2.33675
2.32625
2.31431
2.30387
2.29096
2.28048
2.26607
2.25573
2.23947
2.22961
2.21141
2.20193
2.18251
2.1727
2.15398
2.14272
2.12883
2.12119
2.18983
2.09914
2.02591
1.96618
1.91596
1.86333
1.81415
1.7716
1.73917
1.7169
1.71212
1.7147
1.72395
1.73877
1.75815
1.77363
1.78512
1.79283
1.79756
1.80097
1.80366
1.80592
1.80807
1.80973
1.81156
1.81286
1.81437
1.81545
1.81662
1.81754
1.81833
1.81882
1.8195
1.82024
1.82121
1.82323
1.82843
1.83812
1.86258
1.9128
2.03423
2.31015
2.66735
2.86953
2.96357
2.99584
2.98622
2.94137
2.88529
2.83577
2.79371
2.76164
2.73134
2.70754
2.67899
2.65195
2.62336
2.59945
2.57551
2.55506
2.53342
2.51311
2.49152
2.47142
2.44887
2.42751
2.4041
2.38368
2.362
2.34427
2.32573
2.31146
2.29678
2.28583
2.27402
2.26499
2.25493
2.24733
2.23918
2.23315
2.22618
2.2209
2.21314
2.20745
2.19775
2.19186
2.18017
2.17399
2.16092
2.15395
2.13938
2.13106
2.1162
2.10397
2.09085
2.07475
2.06295
2.04499
2.03532
2.02075
2.20276
2.11911
2.04527
1.97723
1.91745
1.86141
1.81037
1.76656
1.73015
1.70417
1.6847
1.6729
1.66711
1.66729
1.66886
1.67501
1.68459
1.69384
1.70326
1.71082
1.71754
1.72108
1.72424
1.72525
1.72663
1.72722
1.7277
1.72869
1.72923
1.7303
1.73088
1.73177
1.73249
1.73311
1.73454
1.73577
1.73917
1.74556
1.76164
1.79437
1.87063
2.054
2.32869
2.71053
2.81715
2.82127
2.81345
2.77465
2.72119
2.67763
2.64872
2.62375
2.59912
2.58056
2.56244
2.54724
2.52855
2.51194
2.49365
2.47598
2.45818
2.44005
2.42173
2.40303
2.38367
2.36413
2.34284
2.32369
2.30293
2.28565
2.26663
2.251
2.23428
2.22068
2.20639
2.19495
2.18281
2.17342
2.16328
2.15599
2.14705
2.14131
2.13242
2.12762
2.11801
2.11315
2.10318
2.09804
2.08764
2.08209
2.07221
2.06382
2.05639
2.04373
2.03665
2.02144
2.0133
1.99588
1.98849
1.9735
2.21779
2.14118
2.07041
2.00428
1.9423
1.88734
1.83684
1.79222
1.7515
1.71654
1.68505
1.66012
1.63961
1.62632
1.6183
1.61842
1.61983
1.62514
1.63213
1.64086
1.64826
1.65634
1.66196
1.66715
1.6699
1.6727
1.67369
1.67521
1.67566
1.67645
1.67707
1.67767
1.67863
1.67924
1.6806
1.68165
1.68468
1.68892
1.7012
1.72172
1.77781
1.88979
2.1855
2.49459
2.73615
2.75439
2.74354
2.69684
2.63545
2.56811
2.51847
2.49203
2.47029
2.45309
2.44108
2.43267
2.4248
2.41571
2.40736
2.39815
2.3886
2.37691
2.36411
2.34963
2.33359
2.31672
2.29734
2.28003
2.26064
2.24438
2.22625
2.21111
2.19456
2.18087
2.1657
2.15372
2.13969
2.12945
2.11649
2.10813
2.09666
2.09006
2.07981
2.07409
2.0645
2.05935
2.05034
2.04548
2.0378
2.03153
2.02651
2.01776
2.01341
2.00418
1.99908
1.98791
1.98188
1.96834
1.96251
1.95091
2.22268
2.15547
2.0904
2.0301
1.97241
1.91983
1.8701
1.82525
1.78316
1.74571
1.71128
1.68132
1.65474
1.63295
1.61532
1.60336
1.5953
1.59284
1.59303
1.59499
1.59996
1.60568
1.61279
1.61919
1.6258
1.63048
1.63413
1.63624
1.63741
1.63822
1.6383
1.63856
1.63887
1.63947
1.64009
1.64142
1.64298
1.64753
1.65475
1.67343
1.7124
1.80402
1.9929
2.36544
2.69399
2.6905
2.64075
2.60092
2.54615
2.47335
2.41523
2.37774
2.35603
2.34494
2.33774
2.33789
2.33996
2.34459
2.34595
2.34532
2.34381
2.34039
2.3341
2.32406
2.31083
2.29633
2.27866
2.26254
2.24434
2.22855
2.21104
2.19588
2.17893
2.16472
2.14841
2.13586
2.12069
2.10956
2.09558
2.08552
2.07257
2.06352
2.05138
2.04311
2.03176
2.0238
2.01406
2.00581
1.99896
1.99012
1.98558
1.97762
1.97359
1.9661
1.96244
1.95475
1.95084
1.94212
1.93771
1.93262
2.22993
2.16784
2.10679
2.0498
1.99551
1.94502
1.89765
1.85328
1.81238
1.77385
1.73911
1.70638
1.67766
1.6509
1.62827
1.60776
1.59214
1.57964
1.57188
1.56739
1.5673
1.56816
1.57106
1.5757
1.58063
1.58671
1.5916
1.59674
1.59935
1.60222
1.60284
1.60404
1.60407
1.60427
1.60475
1.6057
1.60731
1.612
1.6195
1.63974
1.67441
1.77219
1.90672
2.17728
2.42489
2.53618
2.50874
2.48042
2.441
2.39599
2.34994
2.31675
2.29471
2.27979
2.27776
2.27896
2.28278
2.28816
2.29383
2.29934
2.30238
2.30235
2.30126
2.29769
2.28942
2.27819
2.26346
2.24863
2.23199
2.21662
2.19964
2.18443
2.16704
2.15229
2.13526
2.12199
2.10667
2.09493
2.08055
2.06921
2.05506
2.04426
2.03106
2.02084
2.00919
1.99874
1.98931
1.97843
1.97119
1.96114
1.95498
1.94641
1.94172
1.93423
1.93066
1.92399
1.92069
1.91569
1.91091
1.91223
2.24038
2.18397
2.12689
2.07195
2.0198
1.97016
1.92421
1.88031
1.84012
1.80165
1.76665
1.73331
1.70316
1.67477
1.64932
1.62589
1.60545
1.58736
1.57272
1.56118
1.55341
1.54846
1.54681
1.54705
1.54859
1.55168
1.55602
1.5609
1.56605
1.57039
1.57384
1.57605
1.57723
1.57793
1.57831
1.57926
1.58208
1.58723
1.60037
1.62597
1.68155
1.7991
1.95129
2.08498
2.20952
2.3288
2.39449
2.40476
2.38912
2.3678
2.32707
2.29802
2.26881
2.24747
2.23664
2.23206
2.23331
2.2365
2.24165
2.24734
2.25625
2.26292
2.26475
2.26448
2.26218
2.25633
2.24475
2.23131
2.21557
2.20033
2.18288
2.1671
2.14919
2.13406
2.11694
2.10322
2.0878
2.0756
2.06145
2.05018
2.03682
2.02575
2.01344
2.00197
1.9911
1.97871
1.96895
1.95648
1.94744
1.93632
1.92867
1.91893
1.913
1.90517
1.90041
1.89504
1.88992
1.88751
1.88348
1.88717
2.2456
2.19587
2.14509
2.09397
2.0445
1.99654
1.95119
1.90801
1.86752
1.82928
1.79351
1.75998
1.7286
1.69949
1.67225
1.64737
1.6242
1.60351
1.58465
1.56847
1.55466
1.54397
1.53622
1.53111
1.52895
1.52895
1.52979
1.53179
1.53546
1.53934
1.54378
1.54766
1.551
1.55338
1.55547
1.55782
1.56265
1.57239
1.59564
1.64069
1.74952
1.88436
2.00599
2.0557
2.10279
2.16273
2.22858
2.28678
2.32006
2.31311
2.30264
2.28579
2.25798
2.23928
2.22189
2.20668
2.19851
2.19811
2.20031
2.20538
2.21256
2.21933
2.22652
2.2283
2.22812
2.22646
2.22168
2.21111
2.19686
2.18217
2.16485
2.1487
2.1309
2.11545
2.09857
2.08415
2.06859
2.05578
2.04192
2.03049
2.01811
2.00709
1.99597
1.98436
1.97419
1.96177
1.9517
1.93916
1.92892
1.9168
1.9074
1.89626
1.88784
1.879
1.87167
1.86635
1.86035
1.85753
1.85491
1.86025
2.24453
2.20182
2.1572
2.11179
2.06686
2.02219
1.97949
1.93764
1.89831
1.86029
1.82466
1.79075
1.75883
1.72895
1.7007
1.67462
1.64996
1.62755
1.60647
1.58775
1.5704
1.55574
1.54271
1.53291
1.52506
1.52019
1.51733
1.51737
1.51783
1.51953
1.52219
1.526
1.53029
1.53506
1.53988
1.54583
1.55566
1.57682
1.61799
1.71735
1.84583
1.97682
2.02589
2.04198
2.05163
2.07113
2.09832
2.13858
2.18558
2.2241
2.24821
2.24352
2.23627
2.22359
2.2023
2.18852
2.17748
2.16855
2.16882
2.17117
2.17603
2.18155
2.18769
2.19267
2.19426
2.19399
2.19183
2.18585
2.17353
2.15936
2.14239
2.12614
2.10876
2.09345
2.07731
2.06339
2.04896
2.03685
2.02412
2.013
2.00141
1.99029
1.9797
1.96808
1.95811
1.94614
1.93596
1.92372
1.91306
1.9005
1.89012
1.87829
1.8686
1.85878
1.85026
1.84357
1.83742
1.83359
1.83108
1.83724
2.23946
2.20134
2.16219
2.12079
2.08048
2.03966
2.00009
1.96157
1.92394
1.88834
1.85346
1.82095
1.78921
1.75983
1.73129
1.70506
1.67969
1.65655
1.63433
1.6142
1.59512
1.57808
1.56229
1.54866
1.53663
1.52718
1.5197
1.51468
1.51164
1.51111
1.51153
1.51304
1.51646
1.52156
1.52916
1.54002
1.56029
1.60006
1.68756
1.81833
1.95393
2.01478
2.02718
2.02683
2.02303
2.02271
2.02749
2.04092
2.0637
2.09442
2.1315
2.16476
2.18469
2.1868
2.18285
2.17718
2.16531
2.15911
2.15489
2.15144
2.15043
2.15142
2.15241
2.15452
2.15649
2.15664
2.15527
2.15154
2.14323
2.13182
2.11643
2.10149
2.08529
2.07116
2.05641
2.04384
2.03074
2.0197
2.00817
1.99766
1.98708
1.9763
1.96664
1.95548
1.946
1.93451
1.92456
1.91254
1.90203
1.88933
1.87864
1.86633
1.85626
1.84571
1.83683
1.82931
1.82275
1.81857
1.81537
1.82137
2.23812
2.20296
2.16656
2.12934
2.09097
2.05335
2.01561
1.97903
1.94349
1.90883
1.87586
1.84381
1.81342
1.78428
1.7564
1.73017
1.70483
1.68136
1.6586
1.63774
1.61762
1.59928
1.5819
1.56612
1.5517
1.53882
1.52776
1.51862
1.51173
1.50697
1.50509
1.5056
1.50706
1.51203
1.52172
1.54038
1.57762
1.65359
1.78556
1.92119
1.99739
2.01516
2.0149
2.00818
2.00149
1.99326
1.9855
1.98462
1.98693
1.99857
2.02179
2.05059
2.08906
2.12172
2.14084
2.15139
2.14848
2.14481
2.136
2.12816
2.12295
2.11903
2.1154
2.1148
2.11406
2.11448
2.11398
2.11205
2.10667
2.09918
2.08743
2.07544
2.06168
2.04941
2.03621
2.02459
2.01231
2.00156
1.99075
1.9804
1.97048
1.95966
1.95021
1.93918
1.92982
1.91883
1.90934
1.89801
1.88831
1.87654
1.86657
1.8548
1.84513
1.83467
1.82589
1.81826
1.81171
1.80759
1.80449
1.81052
2.22992
2.19982
2.16873
2.13471
2.10157
2.06538
2.03192
1.99589
1.96305
1.92903
1.89727
1.86597
1.83593
1.80739
1.77948
1.75354
1.72795
1.7044
1.68119
1.6599
1.63905
1.61997
1.60137
1.58461
1.56824
1.55396
1.54002
1.52856
1.51774
1.50996
1.50478
1.50492
1.50706
1.51365
1.52747
1.5619
1.62386
1.75181
1.88697
1.97688
2.00167
2.00422
1.99873
1.99218
1.98147
1.97071
1.95929
1.95021
1.94689
1.94777
1.95078
1.96235
1.98391
2.01135
2.04407
2.07431
2.09216
2.10551
2.10271
2.10076
2.0957
2.08912
2.08377
2.08124
2.07844
2.07818
2.07718
2.07626
2.07341
2.06945
2.06164
2.05329
2.0419
2.03118
2.0187
2.00751
1.99508
1.98399
1.97255
1.96205
1.95162
1.94098
1.93088
1.91997
1.91042
1.8997
1.8909
1.88038
1.8715
1.86067
1.85133
1.84004
1.83061
1.82056
1.81185
1.80448
1.79801
1.79388
1.79106
1.79711
2.2167
2.19116
2.16436
2.13477
2.10449
2.07349
2.0411
2.01041
1.9773
1.94757
1.9154
1.88675
1.85648
1.82932
1.80134
1.77588
1.75029
1.72669
1.70331
1.68174
1.66032
1.64089
1.6213
1.60405
1.58627
1.57119
1.55552
1.54259
1.52986
1.51967
1.5135
1.51384
1.51756
1.52916
1.55321
1.61577
1.71842
1.85457
1.95173
1.9868
1.99164
1.98616
1.97828
1.96796
1.9573
1.94401
1.9329
1.92326
1.91673
1.91094
1.90876
1.90794
1.90963
1.91934
1.93869
1.96403
1.99753
2.02829
2.04961
2.06541
2.06628
2.06816
2.0671
2.06395
2.05868
2.05684
2.05328
2.05162
2.04774
2.04485
2.03868
2.03247
2.02264
2.01349
2.00168
1.99123
1.97874
1.96774
1.9554
1.94483
1.93367
1.92369
1.91327
1.90296
1.89323
1.88264
1.87386
1.86315
1.85461
1.8438
1.83483
1.82401
1.81417
1.80427
1.79454
1.78677
1.77948
1.77468
1.7708
1.77624
2.20619
2.18255
2.15738
2.13203
2.10446
2.07681
2.04795
2.01866
1.99022
1.96013
1.93251
1.90303
1.87613
1.84814
1.82224
1.79627
1.77143
1.74784
1.7242
1.70288
1.6808
1.66136
1.64121
1.62325
1.6055
1.58854
1.57367
1.55793
1.54621
1.53399
1.53095
1.53214
1.54006
1.56148
1.60771
1.71309
1.83677
1.9368
1.9758
1.98306
1.97533
1.96601
1.9538
1.94118
1.92895
1.91884
1.91039
1.90223
1.89317
1.88516
1.87622
1.86899
1.86528
1.86637
1.86992
1.88105
1.9024
1.93005
1.96197
1.99528
2.0215
2.03798
2.04626
2.0463
2.04488
2.04021
2.03278
2.0284
2.02074
2.01557
2.00802
2.00215
1.9934
1.98622
1.97622
1.96759
1.95618
1.94649
1.9348
1.92518
1.91404
1.90491
1.89473
1.88557
1.87621
1.8664
1.85794
1.84762
1.8394
1.82901
1.82015
1.81019
1.80048
1.7911
1.78077
1.77247
1.76359
1.7579
1.75158
1.75565
2.19608
2.1741
2.15066
2.12638
2.10181
2.07616
2.05094
2.0236
1.99678
1.97044
1.94241
1.9175
1.88937
1.86554
1.83825
1.81545
1.78965
1.7676
1.74397
1.72249
1.70117
1.68063
1.66133
1.64204
1.62482
1.60676
1.59181
1.57582
1.56364
1.55521
1.55538
1.56197
1.5774
1.61666
1.71354
1.83412
1.9325
1.97276
1.97833
1.96969
1.9571
1.94497
1.92933
1.91792
1.90738
1.89843
1.88913
1.87968
1.8701
1.85983
1.85017
1.84239
1.83667
1.83227
1.8312
1.83243
1.83567
1.84536
1.86552
1.89375
1.9272
1.95981
1.98873
2.00489
2.01521
2.0136
2.01063
2.00396
1.99367
1.98615
1.97585
1.96889
1.96011
1.95377
1.94532
1.93854
1.92893
1.92064
1.9098
1.90085
1.89019
1.88164
1.87183
1.86301
1.85385
1.84457
1.83645
1.82712
1.81923
1.80978
1.80132
1.79195
1.78278
1.7741
1.76402
1.75581
1.74637
1.74061
1.73261
1.73573
2.1847
2.16688
2.14664
2.12421
2.10113
2.07628
2.05206
2.02809
2.00178
1.97712
1.95114
1.92583
1.90115
1.87572
1.85231
1.8274
1.80531
1.78137
1.76028
1.7381
1.71747
1.69752
1.67745
1.65956
1.64063
1.62454
1.60745
1.59428
1.58249
1.58127
1.58692
1.59876
1.63305
1.71868
1.8387
1.94105
1.98098
1.98334
1.97098
1.95905
1.94183
1.92724
1.91312
1.90334
1.89203
1.88133
1.87041
1.85919
1.84868
1.83865
1.82999
1.82118
1.81267
1.8038
1.79682
1.79079
1.791
1.79284
1.7968
1.8069
1.82733
1.85488
1.88823
1.92254
1.95335
1.97102
1.98208
1.97989
1.97504
1.96705
1.95483
1.94597
1.93447
1.92692
1.91828
1.91233
1.90429
1.89772
1.8882
1.88002
1.86959
1.86104
1.85133
1.84285
1.83366
1.82444
1.81576
1.80659
1.79871
1.78983
1.78173
1.77274
1.76352
1.75494
1.74507
1.73707
1.72723
1.72191
1.71301
1.71545
2.1607
2.14721
2.13282
2.11643
2.09734
2.07651
2.05202
2.03074
2.00644
1.98394
1.95854
1.9359
1.91015
1.88802
1.86258
1.84097
1.81651
1.79563
1.77246
1.75224
1.73087
1.71107
1.69186
1.67244
1.65579
1.63717
1.62365
1.60945
1.60698
1.60965
1.62355
1.65387
1.72288
1.85501
1.95678
1.99652
1.9982
1.98421
1.96923
1.95126
1.93217
1.91717
1.90304
1.89125
1.87836
1.86756
1.85476
1.84216
1.82936
1.81706
1.80557
1.79472
1.78446
1.77528
1.76728
1.76072
1.75568
1.75237
1.75361
1.75647
1.76082
1.77071
1.79053
1.81606
1.84932
1.88518
1.9191
1.93857
1.94922
1.94657
1.93853
1.92885
1.91552
1.90564
1.8944
1.88753
1.87947
1.87408
1.866
1.85927
1.84975
1.84184
1.83239
1.82436
1.81558
1.80689
1.798
1.78876
1.7803
1.77131
1.763
1.75449
1.74526
1.73741
1.72737
1.71997
1.70965
1.70463
1.69521
1.69706
2.14828
2.13183
2.11502
2.09911
2.08142
2.06659
2.0477
2.0283
2.00658
1.9856
1.96369
1.94118
1.91958
1.8961
1.87517
1.8512
1.83108
1.80733
1.78797
1.7652
1.74633
1.72516
1.70687
1.68726
1.67044
1.65338
1.64036
1.63416
1.63972
1.65077
1.67718
1.75527
1.86595
1.97463
2.01876
2.01925
2.00486
1.9902
1.96869
1.94725
1.92696
1.91082
1.8946
1.88104
1.86652
1.85354
1.83911
1.82624
1.81287
1.80057
1.78851
1.77733
1.76643
1.75659
1.74689
1.73848
1.73114
1.72609
1.72198
1.71959
1.71995
1.72128
1.72403
1.73215
1.74972
1.77564
1.81008
1.84747
1.88386
1.9072
1.91181
1.90845
1.90014
1.88929
1.87688
1.86766
1.85758
1.85127
1.84352
1.83787
1.82932
1.82235
1.81334
1.80571
1.79707
1.78881
1.78018
1.77094
1.76237
1.75342
1.74474
1.73682
1.7274
1.72018
1.71043
1.70381
1.69338
1.68874
1.67907
1.68034
2.14031
2.12507
2.1085
2.09289
2.07422
2.05659
2.03787
2.01985
2.00121
1.98211
1.96291
1.94262
1.92193
1.90158
1.88069
1.8603
1.83931
1.81949
1.79839
1.77936
1.75876
1.74032
1.72095
1.70359
1.68623
1.673
1.66504
1.67076
1.67882
1.70911
1.77222
1.88927
2.00301
2.04857
2.04676
2.03224
2.01454
1.99162
1.9658
1.94384
1.92391
1.90654
1.88909
1.87334
1.8567
1.84187
1.8267
1.81358
1.80063
1.78783
1.77508
1.76143
1.74878
1.73599
1.72518
1.71556
1.70799
1.70091
1.69491
1.68879
1.68387
1.6801
1.68022
1.68145
1.68423
1.692
1.70865
1.73495
1.76805
1.81118
1.85256
1.87651
1.87747
1.87343
1.86498
1.8544
1.8436
1.83487
1.82611
1.81985
1.81146
1.805
1.79627
1.78868
1.78
1.77201
1.76359
1.75461
1.74568
1.73673
1.72773
1.71999
1.71065
1.70358
1.69363
1.68727
1.67643
1.67164
1.66161
1.66246
2.12026
2.10871
2.09539
2.08241
2.06758
2.05129
2.03394
2.01573
1.99724
1.97825
1.95909
1.94043
1.92203
1.902
1.88349
1.86351
1.84461
1.82518
1.80643
1.78726
1.76915
1.75051
1.73353
1.71652
1.7034
1.69575
1.70126
1.70995
1.73959
1.80306
1.92109
2.0358
2.07871
2.07487
2.0572
2.03936
2.01322
1.98768
1.96343
1.94311
1.92319
1.90475
1.88631
1.86898
1.85155
1.83531
1.81919
1.80464
1.78955
1.77598
1.76161
1.74794
1.73363
1.72058
1.70832
1.69789
1.68853
1.68018
1.67231
1.66514
1.65851
1.65285
1.64727
1.64342
1.64174
1.6424
1.64447
1.65193
1.66784
1.696
1.73382
1.77818
1.82981
1.84561
1.84518
1.84077
1.83314
1.82219
1.81298
1.80499
1.79619
1.7901
1.78145
1.77408
1.76541
1.75762
1.74928
1.74086
1.73215
1.72333
1.71375
1.70576
1.69578
1.6886
1.67833
1.67211
1.66086
1.65581
1.64494
1.64499
2.108
2.0927
2.07946
2.0667
2.05407
2.04064
2.02583
2.01003
1.99344
1.97581
1.95784
1.93928
1.92105
1.90325
1.8845
1.86679
1.8483
1.83023
1.8123
1.79437
1.77686
1.76008
1.74402
1.73107
1.72451
1.73027
1.73991
1.76894
1.83794
1.95314
2.06788
2.10693
2.10138
2.08208
2.06142
2.03363
2.00743
1.98443
1.96238
1.94264
1.92191
1.90328
1.88363
1.8657
1.84696
1.82979
1.81282
1.79666
1.78102
1.76542
1.75036
1.73523
1.72115
1.70761
1.69497
1.68366
1.67266
1.66319
1.65388
1.64583
1.63732
1.62971
1.6217
1.61514
1.60897
1.60489
1.60374
1.6045
1.60661
1.61426
1.63117
1.6587
1.70587
1.75732
1.80746
1.8179
1.81446
1.80779
1.80254
1.79286
1.78244
1.77565
1.7667
1.75967
1.75149
1.74409
1.7358
1.72779
1.71913
1.71094
1.70125
1.69361
1.68351
1.67649
1.66561
1.65957
1.64786
1.64267
1.63161
1.63038
2.09156
2.08177
2.06608
2.05279
2.03965
2.02714
2.0143
1.99993
1.98551
1.96971
1.95375
1.93668
1.91935
1.90175
1.88472
1.86726
1.85024
1.83303
1.81628
1.79956
1.78341
1.76865
1.7554
1.75159
1.75491
1.76937
1.80228
1.86457
1.99416
2.10381
2.13729
2.12986
2.10932
2.08603
2.05453
2.02815
2.00356
1.98192
1.96038
1.93973
1.91914
1.90007
1.88029
1.86205
1.84287
1.82575
1.80747
1.7911
1.77357
1.75723
1.74035
1.72445
1.70967
1.69569
1.68334
1.67074
1.65923
1.64762
1.63723
1.62679
1.61769
1.60833
1.60011
1.59178
1.58435
1.57731
1.57142
1.56673
1.5662
1.56721
1.56987
1.57903
1.59927
1.63046
1.68638
1.75145
1.77777
1.78962
1.78737
1.78071
1.76857
1.76377
1.75384
1.74605
1.73763
1.73034
1.72221
1.71491
1.70647
1.69907
1.68928
1.68203
1.67151
1.66529
1.65437
1.64881
1.63732
1.63192
1.62077
1.61821
2.08081
2.06942
2.05673
2.04088
2.02718
2.01376
2.00204
1.98939
1.97687
1.9633
1.9494
1.93407
1.91828
1.9015
1.88497
1.86825
1.85159
1.83521
1.81895
1.80347
1.78961
1.77742
1.77451
1.77966
1.79452
1.83044
1.89486
2.02451
2.13549
2.16551
2.15609
2.13678
2.11083
2.07823
2.04897
2.0248
2.00197
1.9807
1.95838
1.93768
1.91666
1.89692
1.87728
1.85846
1.83982
1.82158
1.8033
1.78551
1.7672
1.74982
1.73211
1.71619
1.70025
1.68594
1.67178
1.65881
1.64622
1.63431
1.62265
1.6117
1.60104
1.59099
1.58114
1.57165
1.56258
1.55414
1.54672
1.54026
1.53556
1.53149
1.53224
1.534
1.53773
1.54884
1.57327
1.61403
1.67105
1.74616
1.75548
1.75844
1.75369
1.75022
1.74003
1.73145
1.72331
1.71621
1.70746
1.70042
1.69203
1.68586
1.67645
1.67055
1.65983
1.65389
1.643
1.63762
1.62675
1.62166
1.61166
1.60809
2.06044
2.05821
2.04835
2.03364
2.01802
2.00268
1.98924
1.97613
1.96394
1.95144
1.93939
1.92697
1.91444
1.90009
1.88522
1.86914
1.85425
1.83816
1.82334
1.80908
1.79855
1.79552
1.80283
1.81829
1.85844
1.92512
2.0572
2.16503
2.19141
2.17985
2.16177
2.13462
2.10136
2.07172
2.04538
2.02262
2.00054
1.97936
1.95741
1.93649
1.91502
1.89533
1.87509
1.85638
1.83688
1.81825
1.79905
1.78033
1.76149
1.74349
1.72564
1.70883
1.69201
1.67639
1.66102
1.64704
1.63366
1.62128
1.60905
1.59708
1.58526
1.57393
1.56328
1.5535
1.54456
1.53637
1.52869
1.52167
1.51476
1.5087
1.50431
1.50054
1.50107
1.50301
1.50887
1.52344
1.55048
1.60793
1.67267
1.71618
1.73261
1.7301
1.72275
1.71569
1.70886
1.70063
1.69156
1.68479
1.67609
1.67031
1.66079
1.65586
1.64611
1.64097
1.63084
1.62578
1.61559
1.61055
1.60163
1.59867
2.02213
2.03403
2.03405
2.02696
2.01398
1.99934
1.98492
1.97097
1.95715
1.94391
1.93072
1.91788
1.90566
1.89318
1.88193
1.86822
1.85459
1.84135
1.82835
1.82019
1.81758
1.82626
1.84446
1.88541
1.96935
2.09573
2.19567
2.21692
2.20055
2.18398
2.15469
2.12289
2.09276
2.06698
2.04289
2.02123
1.99893
1.97761
1.95535
1.93426
1.91289
1.8928
1.87252
1.85308
1.83314
1.81379
1.79403
1.775
1.75586
1.73762
1.71915
1.70183
1.68425
1.66822
1.6521
1.63746
1.62294
1.60948
1.59637
1.58409
1.57199
1.56054
1.54972
1.53983
1.53073
1.52241
1.51427
1.50693
1.49931
1.49266
1.48608
1.47985
1.47579
1.47329
1.4738
1.47561
1.48382
1.50241
1.53956
1.60376
1.68197
1.69278
1.70118
1.6982
1.69484
1.68484
1.67594
1.66951
1.65985
1.65382
1.64437
1.63937
1.63005
1.6249
1.61539
1.61076
1.60153
1.59726
1.5888
1.58712
1.97418
2.00079
2.00579
2.00544
2.00114
1.99206
1.97996
1.96768
1.95465
1.94163
1.92822
1.91462
1.9013
1.88815
1.87534
1.86354
1.85244
1.84246
1.83675
1.83832
1.8495
1.87211
1.92235
2.01184
2.14407
2.232
2.24505
2.22475
2.20361
2.17264
2.14181
2.11382
2.08721
2.06332
2.04006
2.01828
1.99606
1.97462
1.95236
1.93118
1.90934
1.88892
1.86786
1.84794
1.82737
1.8077
1.78772
1.76858
1.74949
1.73113
1.71289
1.69551
1.678
1.66173
1.64501
1.62977
1.61421
1.59994
1.58594
1.57294
1.56076
1.54938
1.53878
1.5289
1.51989
1.51146
1.50358
1.49578
1.48815
1.48023
1.47273
1.46456
1.4578
1.4513
1.44598
1.44565
1.44628
1.44996
1.46162
1.48643
1.54172
1.61068
1.66099
1.67576
1.67426
1.66855
1.66207
1.65626
1.64469