/*--------------------------------*- C++ -*----------------------------------*\
  =========                 |
  \\      /  F ield         | OpenFOAM: The Open Source CFD Toolbox
   \\    /   O peration     | Website:  https://openfoam.org
    \\  /    A nd           | Version:  6
     \\/     M anipulation  |
\*---------------------------------------------------------------------------*/
FoamFile
{
    version     2.0;
    format      ascii;
    class       volVectorField;
    location    "2.5";
    object      U;
}
// * * * * * * * * * * * * * * * * * * * * * * * * * * * * * * * * * * * * * //

dimensions      [0 1 -1 0 0 0 0];

internalField   nonuniform List<vector> 
5250
(
(2.99996 3.96901e-08 0)
(2.99989 2.54496e-07 0)
(2.99972 7.92268e-07 0)
(2.99935 2.16179e-06 0)
(2.99841 5.01737e-06 0)
(2.99651 1.21346e-05 0)
(2.99123 2.62261e-05 0)
(2.98109 6.43722e-05 0)
(2.95002 0.00013217 0)
(2.88175 0.000353927 0)
(2.6919 0.000776537 0)
(2.10437 0.00214656 0)
(0.781474 0.00559873 0)
(-0.0720642 0.0135204 0)
(0.226387 0.0209282 0)
(0.506686 0.0266822 0)
(0.576333 0.0295125 0)
(0.522044 0.0314359 0)
(0.421561 0.0323423 0)
(0.327546 0.0345233 0)
(0.265292 0.0378479 0)
(0.21149 0.041547 0)
(0.154911 0.0453842 0)
(0.0957169 0.0501891 0)
(0.0472978 0.0576436 0)
(2.99996 1.21844e-07 0)
(2.99989 7.82806e-07 0)
(2.99972 2.43436e-06 0)
(2.99935 6.65609e-06 0)
(2.99842 1.54313e-05 0)
(2.99652 3.74795e-05 0)
(2.99127 8.08385e-05 0)
(2.98117 0.000201271 0)
(2.95024 0.000406 0)
(2.88228 0.00112212 0)
(2.69329 0.00247068 0)
(2.10852 0.00692934 0)
(0.790085 0.0184965 0)
(-0.0631391 0.042848 0)
(0.235343 0.0620325 0)
(0.512434 0.0748151 0)
(0.577753 0.0794878 0)
(0.521734 0.0819118 0)
(0.42224 0.0823149 0)
(0.330601 0.0856927 0)
(0.26871 0.0909068 0)
(0.213645 0.0956678 0)
(0.155578 0.0991959 0)
(0.0946825 0.102441 0)
(0.0454401 0.106133 0)
(2.99996 2.09679e-07 0)
(2.99989 1.34985e-06 0)
(2.99972 4.19344e-06 0)
(2.99936 1.14957e-05 0)
(2.99843 2.66205e-05 0)
(2.99656 6.5037e-05 0)
(2.99135 0.000140116 0)
(2.98134 0.000349032 0)
(2.95072 0.000730013 0)
(2.88347 0.0019071 0)
(2.69642 0.00460842 0)
(2.11841 0.0115086 0)
(0.813107 0.0337502 0)
(-0.038164 0.0760672 0)
(0.251819 0.105757 0)
(0.52017 0.123852 0)
(0.579133 0.131357 0)
(0.521192 0.136484 0)
(0.423553 0.139993 0)
(0.335788 0.147258 0)
(0.274598 0.156231 0)
(0.217685 0.164095 0)
(0.157339 0.169773 0)
(0.0939459 0.173971 0)
(0.0432196 0.176541 0)
(2.99997 3.04045e-07 0)
(2.99989 1.95929e-06 0)
(2.99972 6.08425e-06 0)
(2.99937 1.67041e-05 0)
(2.99845 3.86661e-05 0)
(2.99661 9.4789e-05 0)
(2.99147 0.000204298 0)
(2.98162 0.000505076 0)
(2.95143 0.00110565 0)
(2.88553 0.00267823 0)
(2.70082 0.00711823 0)
(2.13319 0.0155909 0)
(0.850828 0.0500607 0)
(-0.00117173 0.110662 0)
(0.273442 0.150518 0)
(0.529867 0.170397 0)
(0.58223 0.180704 0)
(0.523516 0.18956 0)
(0.428726 0.198355 0)
(0.34499 0.210451 0)
(0.284369 0.223659 0)
(0.225636 0.235607 0)
(0.162798 0.245088 0)
(0.0963521 0.252356 0)
(0.0427522 0.256554 0)
(2.99997 4.06084e-07 0)
(2.9999 2.61687e-06 0)
(2.99973 8.12767e-06 0)
(2.99938 2.23168e-05 0)
(2.99849 5.16833e-05 0)
(2.99667 0.000126691 0)
(2.99165 0.000273295 0)
(2.98203 0.000675029 0)
(2.95238 0.00148057 0)
(2.8885 0.00358222 0)
(2.70658 0.00949373 0)
(2.15339 0.0209005 0)
(0.905117 0.0665933 0)
(0.0504256 0.14636 0)
(0.299407 0.196657 0)
(0.537836 0.215788 0)
(0.585819 0.228328 0)
(0.528556 0.240849 0)
(0.437687 0.255509 0)
(0.357537 0.272847 0)
(0.297542 0.290752 0)
(0.237478 0.307434 0)
(0.172456 0.321638 0)
(0.102716 0.333131 0)
(0.0446548 0.340183 0)
(2.99997 5.14987e-07 0)
(2.9999 3.31789e-06 0)
(2.99974 1.03075e-05 0)
(2.9994 2.82937e-05 0)
(2.99853 6.55612e-05 0)
(2.99676 0.000160548 0)
(2.99188 0.000346587 0)
(2.98254 0.000855707 0)
(2.95364 0.00186479 0)
(2.89222 0.00457201 0)
(2.71441 0.0117833 0)
(2.18017 0.0270096 0)
(0.974892 0.0824309 0)
(0.117411 0.182459 0)
(0.33017 0.243604 0)
(0.545245 0.261459 0)
(0.590835 0.275692 0)
(0.537024 0.291561 0)
(0.451311 0.312106 0)
(0.374555 0.335248 0)
(0.315273 0.35887 0)
(0.254225 0.381603 0)
(0.186966 0.402013 0)
(0.113152 0.419185 0)
(0.0488735 0.430047 0)
(2.99997 6.30317e-07 0)
(2.9999 4.05929e-06 0)
(2.99974 1.26138e-05 0)
(2.99942 3.46028e-05 0)
(2.99858 8.02182e-05 0)
(2.99687 0.000196102 0)
(2.99216 0.000423692 0)
(2.98318 0.00104228 0)
(2.95521 0.00226903 0)
(2.89678 0.00557784 0)
(2.72412 0.0140657 0)
(2.21287 0.0332755 0)
(1.05893 0.0972961 0)
(0.198765 0.218778 0)
(0.365711 0.291355 0)
(0.552393 0.307258 0)
(0.597394 0.322789 0)
(0.549273 0.341783 0)
(0.470356 0.368425 0)
(0.397279 0.397987 0)
(0.339183 0.428398 0)
(0.278033 0.458927 0)
(0.208774 0.488319 0)
(0.129451 0.514858 0)
(0.0562234 0.532974 0)
(2.99997 7.55076e-07 0)
(2.99991 4.8577e-06 0)
(2.99976 1.51021e-05 0)
(2.99944 4.13628e-05 0)
(2.99864 9.5951e-05 0)
(2.99701 0.000233637 0)
(2.9925 0.000505087 0)
(2.98394 0.0012403 0)
(2.9571 0.00263883 0)
(2.90206 0.00673288 0)
(2.73593 0.0158426 0)
(2.2517 0.0410157 0)
(1.15538 0.111541 0)
(0.293692 0.255852 0)
(0.40524 0.339018 0)
(0.559108 0.352039 0)
(0.605865 0.368754 0)
(0.565807 0.390843 0)
(0.495647 0.423536 0)
(0.427141 0.460339 0)
(0.371415 0.49926 0)
(0.311904 0.539689 0)
(0.242746 0.58219 0)
(0.157925 0.62535 0)
(0.0708171 0.659872 0)
(2.99997 8.96617e-07 0)
(2.99991 5.76542e-06 0)
(2.99977 1.79296e-05 0)
(2.99947 4.90711e-05 0)
(2.99871 0.00011389 0)
(2.99717 0.000276751 0)
(2.9929 0.000598612 0)
(2.9848 0.00146868 0)
(2.9594 0.00308069 0)
(2.90775 0.00803397 0)
(2.75057 0.0181124 0)
(2.29759 0.0494528 0)
(1.26093 0.128773 0)
(0.399145 0.29929 0)
(0.446094 0.379153 0)
(0.563043 0.395403 0)
(0.615164 0.413578 0)
(0.585818 0.439728 0)
(0.526906 0.47648 0)
(0.465366 0.521107 0)
(0.414392 0.569185 0)
(0.360492 0.62204 0)
(0.297192 0.684452 0)
(0.210887 0.756424 0)
(0.102869 0.833997 0)
(2.99997 1.05822e-06 0)
(2.99992 6.80855e-06 0)
(2.99978 2.11742e-05 0)
(2.99951 5.80087e-05 0)
(2.9988 0.000134709 0)
(2.99735 0.000327881 0)
(2.99337 0.000709992 0)
(2.98583 0.00174143 0)
(2.96212 0.0036825 0)
(2.91452 0.00947797 0)
(2.76781 0.0216881 0)
(2.35159 0.0580606 0)
(1.38556 0.150647 0)
(0.509571 0.352378 0)
(0.484513 0.411974 0)
(0.575058 0.433518 0)
(0.628854 0.453709 0)
(0.609512 0.485786 0)
(0.563506 0.525822 0)
(0.512537 0.577453 0)
(0.469925 0.634854 0)
(0.430394 0.703611 0)
(0.385807 0.792316 0)
(0.31858 0.912171 0)
(0.183308 1.10788 0)
(2.99998 1.22686e-06 0)
(2.99992 7.89765e-06 0)
(2.9998 2.45643e-05 0)
(2.99955 6.73648e-05 0)
(2.9989 0.000156566 0)
(2.99758 0.000381666 0)
(2.99394 0.000827312 0)
(2.98706 0.00204163 0)
(2.96532 0.00424831 0)
(2.92267 0.0111367 0)
(2.78801 0.025424 0)
(2.41475 0.0676925 0)
(1.53646 0.173692 0)
(0.627689 0.413018 0)
(0.516162 0.44781 0)
(0.591546 0.466176 0)
(0.649104 0.485165 0)
(0.639724 0.522488 0)
(0.605809 0.567767 0)
(0.568822 0.625478 0)
(0.541527 0.693553 0)
(0.526926 0.778148 0)
(0.525642 0.88691 0)
(0.561656 1.03349 0)
(0.608042 1.25031 0)
(2.99998 1.37764e-06 0)
(2.99993 8.8807e-06 0)
(2.99982 2.76297e-05 0)
(2.9996 7.59532e-05 0)
(2.99902 0.000176889 0)
(2.99783 0.000432727 0)
(2.99459 0.000941523 0)
(2.98842 0.00232567 0)
(2.96909 0.00487945 0)
(2.93203 0.012592 0)
(2.81149 0.029205 0)
(2.48773 0.0766241 0)
(1.71548 0.192694 0)
(0.758889 0.476301 0)
(0.542683 0.484856 0)
(0.608272 0.49345 0)
(0.672607 0.509975 0)
(0.67756 0.551042 0)
(0.655786 0.602768 0)
(0.634829 0.665303 0)
(0.627246 0.740778 0)
(0.639404 0.831872 0)
(0.677101 0.942697 0)
(0.77801 1.0768 0)
(0.934723 1.2232 0)
(2.99998 1.44494e-06 0)
(2.99994 9.31487e-06 0)
(2.99985 2.89866e-05 0)
(2.99965 7.97099e-05 0)
(2.99915 0.000185746 0)
(2.99812 0.000454559 0)
(2.99533 0.000988646 0)
(2.99004 0.00245537 0)
(2.97321 0.00503968 0)
(2.94277 0.013754 0)
(2.83756 0.0294243 0)
(2.56735 0.0863991 0)
(1.90845 0.207276 0)
(0.893891 0.541259 0)
(0.564083 0.526673 0)
(0.628177 0.52246 0)
(0.703361 0.535368 0)
(0.724035 0.577112 0)
(0.712917 0.632271 0)
(0.705534 0.695958 0)
(0.71535 0.770598 0)
(0.748551 0.856543 0)
(0.81026 0.954103 0)
(0.92528 1.05851 0)
(1.09387 1.13877 0)
(2.99998 1.40073e-06 0)
(2.99995 9.02186e-06 0)
(2.99987 2.80707e-05 0)
(2.9997 7.70948e-05 0)
(2.99928 0.000179398 0)
(2.99841 0.000438391 0)
(2.99606 0.000948113 0)
(2.99149 0.00236464 0)
(2.9778 0.00474242 0)
(2.95205 0.0136686 0)
(2.86769 0.0264009 0)
(2.65602 0.0867363 0)
(2.12799 0.201371 0)
(1.07073 0.556168 0)
(0.623043 0.564742 0)
(0.671951 0.563281 0)
(0.750465 0.568535 0)
(0.782541 0.604655 0)
(0.778125 0.657211 0)
(0.777997 0.717594 0)
(0.797974 0.785145 0)
(0.842688 0.85948 0)
(0.914662 0.937874 0)
(1.02628 1.01401 0)
(1.17796 1.06434 0)
(2.99999 1.27292e-06 0)
(2.99996 8.19001e-06 0)
(2.99989 2.5485e-05 0)
(2.99975 6.98345e-05 0)
(2.9994 0.000162517 0)
(2.99867 0.000394965 0)
(2.99674 0.000856857 0)
(2.99291 0.00208558 0)
(2.98195 0.0043733 0)
(2.96041 0.0114006 0)
(2.89463 0.0236443 0)
(2.73376 0.0686925 0)
(2.32411 0.160302 0)
(1.27893 0.457126 0)
(0.722874 0.56754 0)
(0.735415 0.603901 0)
(0.804606 0.611986 0)
(0.846909 0.638058 0)
(0.848073 0.681626 0)
(0.850686 0.734074 0)
(0.874084 0.791588 0)
(0.922016 0.852697 0)
(0.99449 0.913485 0)
(1.09685 0.968263 0)
(1.2284 1.00272 0)
(2.99999 1.12284e-06 0)
(2.99997 7.21514e-06 0)
(2.99991 2.24594e-05 0)
(2.99979 6.13795e-05 0)
(2.9995 0.000142956 0)
(2.9989 0.000344987 0)
(2.9973 0.000753364 0)
(2.99415 0.0017943 0)
(2.98501 0.00385561 0)
(2.96772 0.00925128 0)
(2.91272 0.0210587 0)
(2.78189 0.0515868 0)
(2.43729 0.125882 0)
(1.46435 0.337937 0)
(0.807629 0.594243 0)
(0.775746 0.652014 0)
(0.834995 0.668059 0)
(0.89118 0.677688 0)
(0.906122 0.707394 0)
(0.915301 0.749027 0)
(0.941209 0.795586 0)
(0.988971 0.844166 0)
(1.05759 0.890923 0)
(1.14882 0.930921 0)
(1.26196 0.955693 0)
(2.99999 1.00196e-06 0)
(2.99997 6.44055e-06 0)
(2.99993 2.00471e-05 0)
(2.99983 5.48219e-05 0)
(2.99959 0.000127668 0)
(2.99911 0.000308571 0)
(2.99781 0.000672621 0)
(2.99526 0.00160972 0)
(2.98772 0.00343522 0)
(2.97437 0.00845863 0)
(2.92803 0.0184383 0)
(2.82775 0.0473096 0)
(2.54164 0.114801 0)
(1.69358 0.310821 0)
(0.963027 0.648052 0)
(0.810595 0.68839 0)
(0.85037 0.705747 0)
(0.910711 0.70582 0)
(0.946584 0.725859 0)
(0.967221 0.759176 0)
(0.997128 0.797231 0)
(1.04449 0.835708 0)
(1.10873 0.871669 0)
(1.19009 0.901734 0)
(1.28766 0.920553 0)
(2.99999 8.91877e-07 0)
(2.99998 5.73936e-06 0)
(2.99994 1.78631e-05 0)
(2.99987 4.89556e-05 0)
(2.99968 0.00011403 0)
(2.99929 0.000276934 0)
(2.99826 0.000602031 0)
(2.99624 0.00145852 0)
(2.99032 0.00307157 0)
(2.97985 0.00797672 0)
(2.94358 0.015964 0)
(2.86827 0.0467923 0)
(2.64709 0.104616 0)
(1.96926 0.307558 0)
(1.15974 0.703498 0)
(0.858219 0.724561 0)
(0.875984 0.72924 0)
(0.932626 0.72393 0)
(0.982234 0.734929 0)
(1.01238 0.761996 0)
(1.0451 0.794639 0)
(1.0907 0.826537 0)
(1.15059 0.855186 0)
(1.22407 0.878401 0)
(1.30923 0.893095 0)
(2.99999 7.57012e-07 0)
(2.99998 4.86799e-06 0)
(2.99995 1.51522e-05 0)
(2.9999 4.14803e-05 0)
(2.99975 9.65736e-05 0)
(2.99945 0.000234051 0)
(2.99868 0.000508528 0)
(2.99713 0.00122703 0)
(2.99279 0.0025851 0)
(2.98475 0.00665474 0)
(2.95915 0.0132317 0)
(2.90693 0.0380023 0)
(2.75477 0.0862716 0)
(2.30466 0.243574 0)
(1.47719 0.611128 0)
(0.996933 0.724199 0)
(0.952665 0.743161 0)
(0.98095 0.743313 0)
(1.02927 0.7446 0)
(1.06357 0.764367 0)
(1.09494 0.791766 0)
(1.13573 0.818844 0)
(1.18892 0.842518 0)
(1.254 0.860857 0)
(1.3287 0.87224 0)
(3 6.13608e-07 0)
(2.99999 3.93834e-06 0)
(2.99997 1.22623e-05 0)
(2.99992 3.34536e-05 0)
(2.99981 7.78759e-05 0)
(2.99958 0.000187281 0)
(2.99899 0.000407986 0)
(2.99781 0.000966439 0)
(2.99454 0.00205973 0)
(2.98841 0.00500467 0)
(2.9689 0.010505 0)
(2.93291 0.0265656 0)
(2.81222 0.0614853 0)
(2.49319 0.159652 0)
(1.78396 0.409235 0)
(1.10518 0.727948 0)
(1.00417 0.763138 0)
(1.02003 0.773787 0)
(1.06812 0.768964 0)
(1.11148 0.777321 0)
(1.14372 0.796253 0)
(1.17989 0.817071 0)
(1.22614 0.835504 0)
(1.28278 0.84962 0)
(1.34785 0.857959 0)
(3 4.91795e-07 0)
(2.99999 3.15688e-06 0)
(2.99997 9.83066e-06 0)
(2.99994 2.68221e-05 0)
(2.99986 6.24705e-05 0)
(2.99969 0.000150194 0)
(2.99925 0.000327444 0)
(2.99837 0.000774817 0)
(2.99593 0.00164956 0)
(2.99154 0.00402366 0)
(2.97662 0.00825676 0)
(2.95139 0.0223112 0)
(2.86001 0.0455639 0)
(2.63309 0.138582 0)
(2.08757 0.327787 0)
(1.27822 0.769856 0)
(1.04449 0.80856 0)
(1.04768 0.812663 0)
(1.09118 0.803249 0)
(1.14444 0.797927 0)
(1.18359 0.806517 0)
(1.219 0.820352 0)
(1.26034 0.833564 0)
(1.30997 0.843689 0)
(1.36695 0.849477 0)
(3 3.85481e-07 0)
(2.99999 2.47318e-06 0)
(2.99998 7.70133e-06 0)
(2.99996 2.09942e-05 0)
(2.9999 4.88633e-05 0)
(2.99977 0.000117314 0)
(2.99945 0.000255227 0)
(2.99881 0.000603414 0)
(2.99707 0.00127791 0)
(2.9937 0.00314606 0)
(2.98382 0.00625888 0)
(2.96509 0.0175844 0)
(2.90663 0.034705 0)
(2.7657 0.106331 0)
(2.41245 0.248317 0)
(1.56885 0.659105 0)
(1.15234 0.804538 0)
(1.10382 0.826722 0)
(1.12657 0.82893 0)
(1.17658 0.81885 0)
(1.22135 0.818537 0)
(1.25678 0.825925 0)
(1.2939 0.834654 0)
(1.3375 0.841392 0)
(1.38737 0.844818 0)
(3 2.96742e-07 0)
(2.99999 1.90343e-06 0)
(2.99999 5.92749e-06 0)
(2.99997 1.61502e-05 0)
(2.99993 3.7595e-05 0)
(2.99984 9.01385e-05 0)
(2.99961 0.000196427 0)
(2.99915 0.000462325 0)
(2.99791 0.000984702 0)
(2.99552 0.00235439 0)
(2.98846 0.00496019 0)
(2.97581 0.0122882 0)
(2.93368 0.0264987 0)
(2.84026 0.0684768 0)
(2.58635 0.164714 0)
(1.86556 0.441433 0)
(1.2838 0.784539 0)
(1.15282 0.836996 0)
(1.1585 0.851814 0)
(1.20036 0.844437 0)
(1.25066 0.834914 0)
(1.28989 0.834875 0)
(1.32528 0.839003 0)
(1.36396 0.842651 0)
(1.4078 0.843793 0)
(3 2.24481e-07 0)
(3 1.43947e-06 0)
(2.99999 4.48122e-06 0)
(2.99998 1.22e-05 0)
(2.99995 2.83846e-05 0)
(2.99989 6.79609e-05 0)
(2.99973 0.000147969 0)
(2.9994 0.000347573 0)
(2.99854 0.000738812 0)
(2.99689 0.00176521 0)
(2.99198 0.00368449 0)
(2.98355 0.00932367 0)
(2.95362 0.0189618 0)
(2.8962 0.051925 0)
(2.71844 0.120597 0)
(2.19099 0.335537 0)
(1.53164 0.740736 0)
(1.2379 0.847168 0)
(1.20492 0.868144 0)
(1.22575 0.86869 0)
(1.27247 0.855566 0)
(1.31781 0.848216 0)
(1.35453 0.846652 0)
(1.39018 0.846972 0)
(1.42909 0.84623 0)
(3 1.56169e-07 0)
(3 1.1009e-06 0)
(2.99999 3.22345e-06 0)
(2.99999 9.25245e-06 0)
(2.99996 2.04093e-05 0)
(2.99992 5.15829e-05 0)
(2.99981 0.000105881 0)
(2.99959 0.000264865 0)
(2.99901 0.000523849 0)
(2.99788 0.00135369 0)
(2.99469 0.00255703 0)
(2.98883 0.00725292 0)
(2.96987 0.0123086 0)
(2.93512 0.0416612 0)
(2.82086 0.0739998 0)
(2.51133 0.251005 0)
(1.88187 0.568048 0)
(1.36735 0.843989 0)
(1.26469 0.882357 0)
(1.26269 0.890286 0)
(1.29589 0.880228 0)
(1.34153 0.8658 0)
(1.38039 0.858547 0)
(1.41544 0.854933 0)
(1.45111 0.85196 0)
(3 1.10456e-07 0)
(3 7.73277e-07 0)
(3 2.27346e-06 0)
(2.99999 6.49701e-06 0)
(2.99998 1.43757e-05 0)
(2.99995 3.61193e-05 0)
(2.99988 7.44262e-05 0)
(2.99972 0.000184508 0)
(2.99939 0.000367704 0)
(2.99851 0.000933184 0)
(2.99685 0.00180468 0)
(2.99179 0.00483375 0)
(2.9833 0.00885188 0)
(2.95262 0.0266565 0)
(2.89398 0.0484986 0)
(2.70802 0.154576 0)
(2.19939 0.375875 0)
(1.60126 0.7794 0)
(1.34342 0.882963 0)
(1.3079 0.902124 0)
(1.32168 0.90197 0)
(1.3616 0.887035 0)
(1.40406 0.874468 0)
(1.43952 0.866882 0)
(1.47319 0.861244 0)
(3 8.61015e-08 0)
(3 4.93047e-07 0)
(3 1.65486e-06 0)
(2.99999 4.21252e-06 0)
(2.99998 1.04553e-05 0)
(2.99996 2.3277e-05 0)
(2.99992 5.4512e-05 0)
(2.99981 0.000117028 0)
(2.9996 0.000273347 0)
(2.99903 0.000577629 0)
(2.99792 0.0013787 0)
(2.99478 0.00285581 0)
(2.98901 0.00723779 0)
(2.97067 0.0145653 0)
(2.93631 0.0398261 0)
(2.82723 0.0884795 0)
(2.52754 0.249598 0)
(1.94642 0.594693 0)
(1.47756 0.863221 0)
(1.37267 0.908691 0)
(1.36221 0.917584 0)
(1.38536 0.909235 0)
(1.42524 0.892384 0)
(1.46234 0.880774 0)
(1.49485 0.872309 0)
(3 5.89488e-08 0)
(3 3.37592e-07 0)
(3 1.13298e-06 0)
(3 2.88143e-06 0)
(2.99999 7.14308e-06 0)
(2.99998 1.58875e-05 0)
(2.99995 3.71025e-05 0)
(2.99988 7.96079e-05 0)
(2.99975 0.0001849 0)
(2.9994 0.000390625 0)
(2.99873 0.000919455 0)
(2.99676 0.00192012 0)
(2.99352 0.00467074 0)
(2.98155 0.00955759 0)
(2.96326 0.0251643 0)
(2.89259 0.0521008 0)
(2.72917 0.150646 0)
(2.33548 0.362419 0)
(1.6914 0.779781 0)
(1.43809 0.905567 0)
(1.39876 0.927359 0)
(1.40732 0.928972 0)
(1.44083 0.914352 0)
(1.48091 0.896306 0)
(1.51439 0.88382 0)
(3 4.08695e-08 0)
(3 2.19982e-07 0)
(3 7.69307e-07 0)
(3 1.88518e-06 0)
(2.99999 4.83111e-06 0)
(2.99999 1.03373e-05 0)
(2.99997 2.49927e-05 0)
(2.99993 5.12394e-05 0)
(2.99984 0.000123909 0)
(2.99962 0.000247438 0)
(2.99917 0.000614187 0)
(2.99796 0.00117809 0)
(2.99568 0.00315894 0)
(2.98889 0.00552853 0)
(2.97617 0.0175285 0)
(2.93695 0.0288624 0)
(2.84953 0.101047 0)
(2.61579 0.207921 0)
(2.01867 0.578469 0)
(1.58941 0.864512 0)
(1.46047 0.927202 0)
(1.4429 0.939469 0)
(1.457 0.93442 0)
(1.49226 0.91603 0)
(1.53034 0.898365 0)
(3 2.6119e-08 0)
(3 1.49534e-07 0)
(3 5.02223e-07 0)
(3 1.27774e-06 0)
(3 3.17326e-06 0)
(2.99999 7.06652e-06 0)
(2.99998 1.65552e-05 0)
(2.99996 3.5637e-05 0)
(2.9999 8.30876e-05 0)
(2.99979 0.000176892 0)
(2.99949 0.000415433 0)
(2.99893 0.000886491 0)
(2.9973 0.00208187 0)
(2.99446 0.00449149 0)
(2.98483 0.0105529 0)
(2.96902 0.0233211 0)
(2.91227 0.0556225 0)
(2.78718 0.13588 0)
(2.45502 0.32945 0)
(1.84275 0.742297 0)
(1.55058 0.902591 0)
(1.48859 0.937127 0)
(1.48453 0.943774 0)
(1.50563 0.934973 0)
(1.5414 0.916134 0)
(3 1.40839e-08 0)
(3 9.49219e-08 0)
(3 2.85287e-07 0)
(3 7.94686e-07 0)
(3 1.78569e-06 0)
(3 4.34631e-06 0)
(2.99999 9.08709e-06 0)
(2.99998 2.164e-05 0)
(2.99995 4.39519e-05 0)
(2.99988 0.000105813 0)
(2.99976 0.000210385 0)
(2.99938 0.000520608 0)
(2.99883 0.00100596 0)
(2.99651 0.00263887 0)
(2.99359 0.0048473 0)
(2.9794 0.0142116 0)
(2.95945 0.0254434 0)
(2.87585 0.0785371 0)
(2.68482 0.177099 0)
(2.24757 0.452827 0)
(1.71196 0.824182 0)
(1.54428 0.923733 0)
(1.51483 0.945566 0)
(1.52089 0.947614 0)
(1.54865 0.935326 0)
(3 8.97042e-09 0)
(3 5.15071e-08 0)
(3 1.71389e-07 0)
(3 4.34637e-07 0)
(3 1.0595e-06 0)
(3 2.3333e-06 0)
(2.99999 5.31052e-06 0)
(2.99999 1.12043e-05 0)
(2.99997 2.52048e-05 0)
(2.99992 5.19622e-05 0)
(2.99984 0.00011945 0)
(2.9996 0.000234257 0)
(2.99916 0.000593572 0)
(2.99789 0.00105189 0)
(2.99559 0.00318455 0)
(2.98842 0.00544836 0)
(2.97537 0.0182694 0)
(2.93429 0.0339712 0)
(2.84004 0.109888 0)
(2.599 0.256077 0)
(2.03461 0.630319 0)
(1.67229 0.878627 0)
(1.56828 0.939869 0)
(1.55057 0.953285 0)
(1.56074 0.951764 0)
(3 5.64565e-09 0)
(3 3.23535e-08 0)
(3 1.08354e-07 0)
(3 2.75325e-07 0)
(3 6.7955e-07 0)
(3 1.50742e-06 0)
(3 3.50052e-06 0)
(2.99999 7.49409e-06 0)
(2.99998 1.73145e-05 0)
(2.99996 3.66605e-05 0)
(2.99991 8.56491e-05 0)
(2.99978 0.000180767 0)
(2.99954 0.000427572 0)
(2.99885 0.000905306 0)
(2.99763 0.00215847 0)
(2.99376 0.00458563 0)
(2.98739 0.0110795 0)
(2.96452 0.0240158 0)
(2.92321 0.0590282 0)
(2.79312 0.139536 0)
(2.42807 0.35982 0)
(1.94479 0.722521 0)
(1.67246 0.892183 0)
(1.6038 0.938862 0)
(1.59254 0.952438 0)
(3 3.29481e-09 0)
(3 1.88911e-08 0)
(3 6.30919e-08 0)
(3 1.60088e-07 0)
(3 3.93088e-07 0)
(3 8.6925e-07 0)
(3 2.00168e-06 0)
(3 4.26426e-06 0)
(2.99999 9.73093e-06 0)
(2.99998 2.0459e-05 0)
(2.99996 4.70235e-05 0)
(2.99989 9.81324e-05 0)
(2.99979 0.000228618 0)
(2.99945 0.000472306 0)
(2.999 0.00112972 0)
(2.99689 0.00227792 0)
(2.99456 0.00578507 0)
(2.98118 0.0113814 0)
(2.9644 0.0314747 0)
(2.88887 0.0650178 0)
(2.71335 0.187998 0)
(2.33796 0.443194 0)
(1.84566 0.790617 0)
(1.66725 0.913665 0)
(1.62694 0.947378 0)
(3 1.85682e-09 0)
(3 1.02275e-08 0)
(3 3.49656e-08 0)
(3 8.6448e-08 0)
(3 2.1513e-07 0)
(3 4.61745e-07 0)
(3 1.07281e-06 0)
(3 2.20142e-06 0)
(2.99999 5.06128e-06 0)
(2.99999 1.01392e-05 0)
(2.99997 2.3572e-05 0)
(2.99994 4.58527e-05 0)
(2.99986 0.000111007 0)
(2.99966 0.000201911 0)
(2.99929 0.000549689 0)
(2.99819 0.000875369 0)
(2.9963 0.00297541 0)
(2.99003 0.00436356 0)
(2.97953 0.0175952 0)
(2.94379 0.0276522 0)
(2.8683 0.10451 0)
(2.6683 0.219045 0)
(2.18326 0.573235 0)
(1.82647 0.837801 0)
(1.69232 0.929769 0)
(3 1.04321e-09 0)
(3 5.98336e-09 0)
(3 1.99597e-08 0)
(3 5.06194e-08 0)
(3 1.23979e-07 0)
(3 2.7368e-07 0)
(3 6.28199e-07 0)
(3 1.33534e-06 0)
(3 3.04115e-06 0)
(2.99999 6.38589e-06 0)
(2.99999 1.46945e-05 0)
(2.99997 3.06915e-05 0)
(2.99993 7.17955e-05 0)
(2.99984 0.000149513 0)
(2.99962 0.000356589 0)
(2.99922 0.000735692 0)
(2.99794 0.00181044 0)
(2.99595 0.00368388 0)
(2.98853 0.0094433 0)
(2.97714 0.0194033 0)
(2.93511 0.0504031 0)
(2.84943 0.116651 0)
(2.61632 0.286453 0)
(2.12578 0.654436 0)
(1.82085 0.879096 0)
(3 5.29273e-10 0)
(3 3.47164e-09 0)
(3 1.05864e-08 0)
(3 2.89226e-08 0)
(3 6.55807e-08 0)
(3 1.55653e-07 0)
(3 3.28038e-07 0)
(3 7.569e-07 0)
(3 1.5542e-06 0)
(3 3.60132e-06 0)
(2.99999 7.29064e-06 0)
(2.99998 1.71498e-05 0)
(2.99997 3.43644e-05 0)
(2.99992 8.24778e-05 0)
(2.99983 0.000162277 0)
(2.99958 0.000405234 0)
(2.99918 0.000767683 0)
(2.99774 0.00206348 0)
(2.99583 0.00372093 0)
(2.9872 0.0109974 0)
(2.9758 0.0197327 0)
(2.92741 0.059448 0)
(2.83285 0.126339 0)
(2.58725 0.327723 0)
(2.09294 0.686745 0)
(3 3.19937e-10 0)
(3 1.78793e-09 0)
(3 6.0539e-09 0)
(3 1.51093e-08 0)
(3 3.7295e-08 0)
(3 8.08166e-08 0)
(3 1.86176e-07 0)
(3 3.86509e-07 0)
(3 8.80526e-07 0)
(3 1.79433e-06 0)
(3 4.11606e-06 0)
(2.99999 8.28489e-06 0)
(2.99998 1.92612e-05 0)
(2.99996 3.82209e-05 0)
(2.99991 9.11034e-05 0)
(2.99979 0.000174825 0)
(2.99958 0.000442392 0)
(2.99891 0.000796597 0)
(2.99786 0.00225338 0)
(2.99411 0.0037502 0)
(2.98865 0.012189 0)
(2.9674 0.0202087 0)
(2.92995 0.0668297 0)
(2.81686 0.131614 0)
(2.51075 0.365316 0)
(3 1.66521e-10 0)
(3 9.55124e-10 0)
(3 3.17859e-09 0)
(3 8.05121e-09 0)
(3 1.95963e-08 0)
(3 4.31272e-08 0)
(3 9.78944e-08 0)
(3 2.07292e-07 0)
(3 4.62823e-07 0)
(3 9.69375e-07 0)
(3 2.15877e-06 0)
(3 4.48821e-06 0)
(2.99999 1.00781e-05 0)
(2.99998 2.07771e-05 0)
(2.99996 4.73922e-05 0)
(2.99992 9.64489e-05 0)
(2.99979 0.000225757 0)
(2.99958 0.000449719 0)
(2.99888 0.00109874 0)
(2.99786 0.00212048 0)
(2.99378 0.00552036 0)
(2.98812 0.0105004 0)
(2.96502 0.0285719 0)
(2.9252 0.0596609 0)
(2.79942 0.152932 0)
(3 7.45365e-11 0)
(3 4.70907e-10 0)
(3 1.46666e-09 0)
(3 3.91541e-09 0)
(3 8.99734e-09 0)
(3 2.08189e-08 0)
(3 4.44158e-08 0)
(3 9.94701e-08 0)
(3 2.08049e-07 0)
(3 4.64273e-07 0)
(3 9.6883e-07 0)
(3 2.17452e-06 0)
(3 4.54177e-06 0)
(2.99999 1.02571e-05 0)
(2.99998 2.13776e-05 0)
(2.99996 4.86966e-05 0)
(2.99992 9.99438e-05 0)
(2.99979 0.000233622 0)
(2.99959 0.000460523 0)
(2.99885 0.00115182 0)
(2.99784 0.00218865 0)
(2.99347 0.00578642 0)
(2.98755 0.0111273 0)
(2.96308 0.0299181 0)
(2.92049 0.0635125 0)
(3 3.48069e-11 0)
(3 2.01155e-10 0)
(3 6.61415e-10 0)
(3 1.66812e-09 0)
(3 3.97603e-09 0)
(3 8.59644e-09 0)
(3 1.90024e-08 0)
(3 3.89207e-08 0)
(3 8.64476e-08 0)
(3 1.71763e-07 0)
(3 3.99581e-07 0)
(3 7.98895e-07 0)
(3 1.89849e-06 0)
(3 3.89944e-06 0)
(2.99999 9.19486e-06 0)
(2.99999 1.90922e-05 0)
(2.99997 4.51156e-05 0)
(2.99994 9.1826e-05 0)
(2.99983 0.000225088 0)
(2.9997 0.000434133 0)
(2.9989 0.00115534 0)
(2.9982 0.00215345 0)
(2.99323 0.00597003 0)
(2.98771 0.011341 0)
(2.96174 0.0309185 0)
(3 1.39992e-11 0)
(3 8.6754e-11 0)
(3 2.71355e-10 0)
(3 7.08076e-10 0)
(3 1.60998e-09 0)
(3 3.57412e-09 0)
(3 7.42035e-09 0)
(3 1.57718e-08 0)
(3 3.11865e-08 0)
(3 6.73348e-08 0)
(3 1.27404e-07 0)
(3 2.88261e-07 0)
(3 5.27531e-07 0)
(3 1.28989e-06 0)
(3 2.28538e-06 0)
(3 6.20547e-06 0)
(2.99999 1.07967e-05 0)
(2.99997 3.18045e-05 0)
(2.99995 5.86281e-05 0)
(2.99985 0.000167323 0)
(2.99972 0.000289583 0)
(2.99895 0.00102168 0)
(2.99819 0.0016653 0)
(2.99313 0.00592694 0)
(2.98737 0.0105947 0)
(3 5.95789e-12 0)
(3 3.47655e-11 0)
(3 1.12945e-10 0)
(3 2.8473e-10 0)
(3 6.6416e-10 0)
(3 1.42324e-09 0)
(3 3.02393e-09 0)
(3 6.10642e-09 0)
(3 1.26507e-08 0)
(3 2.45645e-08 0)
(3 5.21854e-08 0)
(3 9.66459e-08 0)
(3 2.18001e-07 0)
(3 3.88449e-07 0)
(3 9.82825e-07 0)
(3 1.70059e-06 0)
(3 5.06044e-06 0)
(2.99999 8.95943e-06 0)
(2.99997 2.72007e-05 0)
(2.99995 5.38561e-05 0)
(2.99985 0.000144745 0)
(2.99974 0.000254272 0)
(2.999 0.000942873 0)
(2.99833 0.00162094 0)
(2.99312 0.00580734 0)
(3 2.29164e-12 0)
(3 1.42341e-11 0)
(3 4.43285e-11 0)
(3 1.15143e-10 0)
(3 2.59442e-10 0)
(3 5.67117e-10 0)
(3 1.16109e-09 0)
(3 2.39828e-09 0)
(3 4.66412e-09 0)
(3 9.64723e-09 0)
(3 1.77643e-08 0)
(3 3.82432e-08 0)
(3 6.62517e-08 0)
(3 1.57389e-07 0)
(3 2.52961e-07 0)
(3 7.32898e-07 0)
(3 1.09955e-06 0)
(3 4.33181e-06 0)
(2.99999 6.83502e-06 0)
(2.99997 2.58591e-05 0)
(2.99994 5.03451e-05 0)
(2.99986 0.000145088 0)
(2.99977 0.000235625 0)
(2.99902 0.000910375 0)
(2.99835 0.00137679 0)
(3 9.42666e-13 0)
(3 5.53841e-12 0)
(3 1.78571e-11 0)
(3 4.50015e-11 0)
(3 1.03666e-10 0)
(3 2.20552e-10 0)
(3 4.58986e-10 0)
(3 9.14844e-10 0)
(3 1.83974e-09 0)
(3 3.50448e-09 0)
(3 7.16566e-09 0)
(3 1.28754e-08 0)
(3 2.78248e-08 0)
(3 4.72691e-08 0)
(3 1.13873e-07 0)
(3 1.92995e-07 0)
(3 5.36718e-07 0)
(3 8.45287e-07 0)
(3 3.56443e-06 0)
(2.99999 6.04594e-06 0)
(2.99998 2.32276e-05 0)
(2.99995 5.35814e-05 0)
(2.9999 0.000124052 0)
(2.99968 0.000208377 0)
(2.99944 0.000790015 0)
(3 3.86704e-13 0)
(3 2.26393e-12 0)
(3 7.3166e-12 0)
(3 1.84302e-11 0)
(3 4.25085e-11 0)
(3 9.06211e-11 0)
(3 1.88844e-10 0)
(3 3.78381e-10 0)
(3 7.61075e-10 0)
(3 1.46571e-09 0)
(3 2.99132e-09 0)
(3 5.48139e-09 0)
(3 1.17969e-08 0)
(3 2.04421e-08 0)
(3 4.91526e-08 0)
(3 8.11647e-08 0)
(3 2.39437e-07 0)
(3 4.00947e-07 0)
(3 1.3988e-06 0)
(3 2.6363e-06 0)
(2.99999 8.02216e-06 0)
(2.99997 1.40915e-05 0)
(2.99995 4.73706e-05 0)
(2.99983 8.72763e-05 0)
(2.99971 0.000259568 0)
(3 1.71029e-13 0)
(3 9.91088e-13 0)
(3 3.23805e-12 0)
(3 8.1507e-12 0)
(3 1.91101e-11 0)
(3 4.10585e-11 0)
(3 8.82178e-11 0)
(3 1.79902e-10 0)
(3 3.79361e-10 0)
(3 7.61105e-10 0)
(3 1.62787e-09 0)
(3 3.26938e-09 0)
(3 7.22159e-09 0)
(3 1.46185e-08 0)
(3 3.36803e-08 0)
(3 6.86433e-08 0)
(3 1.65598e-07 0)
(3 3.35998e-07 0)
(3 8.48785e-07 0)
(3 1.68326e-06 0)
(3 4.45501e-06 0)
(2.99999 8.37313e-06 0)
(2.99998 2.40186e-05 0)
(2.99994 4.13104e-05 0)
(2.99987 0.00013928 0)
(3 7.47767e-14 0)
(3 4.24761e-13 0)
(3 1.40064e-12 0)
(3 3.49413e-12 0)
(3 8.25512e-12 0)
(3 1.76021e-11 0)
(3 3.80061e-11 0)
(3 7.67573e-11 0)
(3 1.61638e-10 0)
(3 3.17526e-10 0)
(3 6.74817e-10 0)
(3 1.27524e-09 0)
(3 2.85914e-09 0)
(3 4.98085e-09 0)
(3 1.23514e-08 0)
(3 1.8695e-08 0)
(3 5.4589e-08 0)
(3 7.245e-08 0)
(3 2.64773e-07 0)
(3 3.61364e-07 0)
(3 1.44211e-06 0)
(2.99999 2.21073e-06 0)
(2.99999 7.85312e-06 0)
(2.99997 9.33525e-06 0)
(2.99994 4.65489e-05 0)
(3 3.20144e-14 0)
(3 1.84651e-13 0)
(3 6.08067e-13 0)
(3 1.53313e-12 0)
(3 3.65325e-12 0)
(3 7.93374e-12 0)
(3 1.74606e-11 0)
(3 3.62807e-11 0)
(3 7.83919e-11 0)
(3 1.61692e-10 0)
(3 3.50974e-10 0)
(3 7.29499e-10 0)
(3 1.60808e-09 0)
(3 3.37861e-09 0)
(3 7.5616e-09 0)
(3 1.59438e-08 0)
(3 3.59477e-08 0)
(3 7.38781e-08 0)
(3 1.69749e-07 0)
(3 3.29528e-07 0)
(3 7.85773e-07 0)
(3 1.52551e-06 0)
(2.99999 3.26299e-06 0)
(2.99998 6.1999e-06 0)
(2.99995 1.07441e-05 0)
(3 7.59756e-15 0)
(3 5.22606e-14 0)
(3 1.56531e-13 0)
(3 4.26641e-13 0)
(3 9.39068e-13 0)
(3 2.18355e-12 0)
(3 4.39967e-12 0)
(3 9.89888e-12 0)
(3 1.8638e-11 0)
(3 4.40825e-11 0)
(3 7.37192e-11 0)
(3 1.98024e-10 0)
(3 2.68983e-10 0)
(3 8.93488e-10 0)
(3 8.91853e-10 0)
(3 4.35407e-09 0)
(3 3.14945e-09 0)
(3 2.13533e-08 0)
(3 1.23422e-08 0)
(3 8.84858e-08 0)
(3 -6.04252e-08 0)
(3 4.61092e-07 0)
(2.99999 -1.16153e-06 0)
(2.99997 2.11894e-06 0)
(2.99994 -8.44455e-06 0)
(1.17661 1.21071 0)
(1.59432 1.12212 0)
(1.85637 1.01325 0)
(2.02116 0.888413 0)
(2.1118 0.739514 0)
(2.13547 0.565464 0)
(2.11709 0.377158 0)
(2.06133 0.192729 0)
(1.94415 0.0277549 0)
(1.81401 -0.0543048 0)
(1.72286 -0.0559567 0)
(1.68362 -0.0221751 0)
(1.67513 0.0141981 0)
(1.67612 0.0358322 0)
(1.67686 0.0422737 0)
(1.67599 0.0382635 0)
(1.67283 0.0290416 0)
(1.66644 0.0190331 0)
(1.65782 0.0121896 0)
(1.65046 0.00862078 0)
(1.64507 0.00720761 0)
(1.64128 0.00679632 0)
(1.6386 0.00665963 0)
(1.63663 0.00647204 0)
(1.6352 0.00615702 0)
(1.63421 0.00575063 0)
(1.63364 0.00531886 0)
(1.63347 0.0048991 0)
(1.63363 0.00453084 0)
(1.63402 0.00419891 0)
(1.63454 0.00392894 0)
(1.63506 0.00373019 0)
(1.6353 0.00363202 0)
(1.63477 0.0036932 0)
(1.6327 0.00401405 0)
(1.6277 0.00477756 0)
(1.6164 0.00630164 0)
(1.59094 0.00946338 0)
(1.53364 0.0157274 0)
(1.4044 0.0281984 0)
(1.10724 0.0521927 0)
(0.455508 0.0995494 0)
(-0.229829 0.18002 0)
(-0.615098 0.134493 0)
(-0.479894 0.0116527 0)
(-0.42094 -0.0554577 0)
(-0.35223 -0.0780731 0)
(-0.276545 -0.0824849 0)
(-0.201705 -0.0883958 0)
(-0.111435 -0.0943311 0)
(-0.0137837 -0.0959568 0)
(0.107161 -0.0913662 0)
(0.190116 -0.0829124 0)
(0.264134 -0.074188 0)
(0.337004 -0.0668943 0)
(0.406537 -0.0603849 0)
(0.472513 -0.0547436 0)
(0.532213 -0.0494319 0)
(0.588599 -0.0449945 0)
(0.646104 -0.0419702 0)
(0.70375 -0.0397541 0)
(0.758954 -0.0371524 0)
(0.811928 -0.0346183 0)
(0.862775 -0.0322735 0)
(0.911982 -0.030164 0)
(0.959864 -0.0281477 0)
(1.00679 -0.0262632 0)
(1.05277 -0.024439 0)
(1.0979 -0.0227343 0)
(1.14202 -0.0210765 0)
(1.18514 -0.019483 0)
(1.22717 -0.0178952 0)
(1.26818 -0.0163512 0)
(1.30815 -0.014834 0)
(1.34708 -0.0133934 0)
(1.38491 -0.012017 0)
(1.42165 -0.0107315 0)
(1.45724 -0.00951416 0)
(1.49177 -0.00837446 0)
(1.52525 -0.00729597 0)
(1.55778 -0.00628752 0)
(1.58941 -0.00534044 0)
(1.62021 -0.00446407 0)
(1.65023 -0.00364707 0)
(1.67955 -0.00289496 0)
(1.70819 -0.00219063 0)
(1.73624 -0.00155769 0)
(1.76374 -0.000974764 0)
(1.79078 -0.000488807 0)
(1.8173 -1.3784e-05 0)
(1.84334 0.000377491 0)
(1.86888 0.000771742 0)
(1.89397 0.00113312 0)
(1.91858 0.00150146 0)
(1.94272 0.0018438 0)
(1.96629 0.00220318 0)
(1.98904 0.00260523 0)
(2.0103 0.00307909 0)
(2.02866 0.0038974 0)
(2.04178 0.00496613 0)
(1.31542 1.13828 0)
(1.63238 0.973654 0)
(1.85276 0.771899 0)
(1.98976 0.553192 0)
(2.05682 0.332756 0)
(2.07515 0.13205 0)
(2.07632 -0.0346706 0)
(2.08184 -0.162991 0)
(2.09685 -0.240848 0)
(2.11051 -0.257989 0)
(2.11453 -0.229191 0)
(2.10936 -0.179841 0)
(2.09388 -0.129196 0)
(2.07406 -0.0884438 0)
(2.0566 -0.0617947 0)