/*--------------------------------*- C++ -*----------------------------------*\
  =========                 |
  \\      /  F ield         | OpenFOAM: The Open Source CFD Toolbox
   \\    /   O peration     | Website:  https://openfoam.org
    \\  /    A nd           | Version:  6
     \\/     M anipulation  |
\*---------------------------------------------------------------------------*/
FoamFile
{
    version     2.0;
    format      ascii;
    class       volScalarField;
    location    "11";
    object      p;
}
// * * * * * * * * * * * * * * * * * * * * * * * * * * * * * * * * * * * * * //

dimensions      [0 2 -2 0 0 0 0];

internalField   nonuniform List<scalar> 
918
(
0.171443
0.949048
0.00598816
0.171429
0.000784685
0.917459
-0.857957
0.365743
0.151937
-0.125027
0.0234685
0.143946
0.774208
0.542263
-1.51936
0.0120214
0.319006
-0.63862
0.149533
0.00554498
0.441829
0.159071
0.16175
0.152939
0.201347
0.515319
0.653267
-0.00153162
-0.00144253
-0.00139423
0.000356693
-0.000596814
0.00729268
0.80059
0.852558
0.875621
0.119673
0.0218183
-0.734182
-0.805426
-0.763546
-0.891832
0.350034
0.352036
-0.540696
0.361584
0.370845
0.141739
0.151453
0.152177
0.153875
0.152538
0.154213
0.310128
-0.148685
-0.234613
-0.0856138
-0.078543
0.0835238
0.0181839
0.00764393
0.0257155
0.0259314
0.0808859
0.140068
0.134984
0.147185
0.159629
0.88924
0.862884
0.888846
0.800071
0.817533
0.751245
0.72472
0.562968
0.58637
0.525946
0.514712
-1.98493
-2.93987
-0.9314
-0.643851
0.000580343
0.0203721
0.0296887
0.298899
0.302497
0.312497
0.321468
0.817081
-0.624623
-0.804074
0.149794
0.147539
0.158222
0.159698
0.154262
0.154895
0.0117999
0.0144933
-0.00348638
0.00602416
0.00374358
0.418006
0.411366
0.15291
0.14847
0.166776
0.190559
0.178559
-0.0842113
0.222773
0.247682
0.346056
0.510802
0.503192
0.513644
0.628633
0.594136
0.684769
0.705681
0.00722985
0.00208583
0.0101377
0.0103386
0.0106604
0.119046
0.112952
0.12921
0.121973
0.126472
-0.0766012
-0.231734
0.108845
0.121955
-0.659922
-0.714178
-0.72217
-0.778288
-0.885281
0.0872719
0.340379
0.34457
-0.555539
-0.46828
-0.617925
-0.42188
-0.48266
0.127031
0.136305
0.130125
0.145621
0.141966
0.142575
0.155261
0.152598
0.154274
0.345303
0.425065
0.255885
0.234458
-0.430764
-0.275228
-0.384596
-0.0282894
-0.012339
0.0923217
0.108569
0.0773346
0.0724368
-0.00450308
0.000728704
-0.00873093
0.0257138
0.0281115
0.0744215
0.0647569
0.089675
0.0957903
0.13209
0.130752
0.134402
0.133837
0.676715
0.698374
0.70507
0.681862
-3.9228
-6.55039
-0.286975
-0.12283
0.000359766
0.00117075
-9.0003e-05
0.00043879
0.00272517
0.000156773
0.0450024
0.0378038
0.032635
0.0333828
0.287323
0.28578
0.809803
0.858351
0.73889
0.719388
0.134728
0.139217
0.145447
0.141176
0.0276474
0.0196394
0.0295016
0.371544
0.390368
0.389048
-0.124478
-0.207715
-0.0339012
-0.00714066
0.277134
0.255251
0.28233
0.409944
0.449812
0.720668
0.745257
0.729897
0.743114
0.793838
0.816621
0.781494
0.10072
0.10974
0.105613
0.137358
0.134287
0.135593
0.129786
0.132096
0.131789
-0.352155
-0.72616
0.0201088
0.0913886
0.161536
0.128771
0.258488
0.443623
0.320495
0.333012
0.336779
-0.361638
-0.419383
0.201747
0.180827
0.0210989
0.0493656
0.0351981
0.65302
0.612108
0.66085
0.635847
0.600824
0.625955
-0.665724
-2.44375
-1.42515
0.284059
0.0802949
0.175221
0.0623971
0.0495454
0.0510735
0.843717
0.876293
0.475319
0.612695
0.571912
0.477739
0.506211
0.567495
0.496333
0.532619
0.568191
0.544165
-0.072435
-0.0956528
-0.135422
0.560392
0.660967
-0.23516
-0.307783
-0.341455
0.119837
0.155159
0.13711
0.861901
0.730567
0.837848
0.150725
0.15131
0.00925563
0.0132069
0.153706
0.153067
0.00547227
0.0112251
0.181465
-1.30565
-0.236154
0.145836
0.133831
0.150311
-0.0950617
0.295149
0.0245548
0.0921845
0.0589926
0.137663
0.0909936
0.0516451
0.00769729
0.0188406
0.0162084
-0.449799
0.146008
0.143504
0.149492
0.151016
0.151555
0.00963024
0.0094907
0.00536159
0.0125845
0.00812444
0.009208
0.12091
0.129179
-0.529498
0.149971
0.151666
0.151433
0.147437
0.150253
0.149594
0.0163068
0.012737
0.0137767
-0.126192
-0.005438
0.397033
0.494886
0.326178
0.14435
-0.146329
0.316305
0.378727
0.287417
0.441199
0.320883
0.34062
-0.189194
-0.311478
-0.148775
-0.215684
0.142986
0.140619
0.131709
0.125704
0.143044
0.14206
0.147195
0.146227
0.148528
0.14913
-0.0563874
-0.0556776
-0.125412
-0.201571
0.320871
0.410547
0.239912
0.239408
0.145358
0.025608
0.0264658
0.0233747
0.00821618
0.0633775
0.0631646
0.0749419
0.0760774
0.0484507
0.0463323
0.0576168
0.0570435
0.0604446
0.13319
0.134296
0.13758
0.145642
0.0967753
0.1006
0.0702002
0.0885557
0.0778332
0.0255371
0.0527724
0.0310707
0.00775385
0.0102817
0.00810135
0.0240844
0.031472
0.0149045
0.01319
0.012671
0.0101664
0.0114875
0.0192361
0.0234402
-0.440473
-0.524255
0.83035
0.663544
0.160303
0.137674
0.142282
0.139313
0.14468
0.147333
0.147063
0.144034
0.142637
0.130145
0.133144
0.128631
0.127256
-0.491468
-0.582988
-0.433744
-0.495559
-0.152358
0.263764
0.00250133
-0.0599416
-0.070821
0.144346
0.332022
0.305654
0.427122
0.424555
-0.758634
-0.319451
-0.669408
-0.130817
-0.186047
0.41553
0.462861
0.483826
0.43661
0.386217
-0.349772
0.153966
-0.404386
-0.383766
-0.208851
-0.268934
0.369708
0.307819
0.313939
0.331133
0.35096
0.308454
0.29475
0.287128
0.320216
0.327177
0.140821
-0.0835345
-0.140162
-0.179466
0.28617
0.169309
0.221416
0.143055
0.134035
0.13766
0.136519
0.123725
0.127018
0.122616
0.129556
0.130863
0.140424
0.139861
0.135764
0.138585
-0.0341317
-0.0179199
-0.10418
-0.314972
-0.239105
-0.317762
-0.170024
0.12527
0.119175
0.277149
0.300929
0.0566515
-0.246982
-0.159043
-0.262484
0.118208
0.0458011
0.106783
0.159496
0.17922
0.1438
0.20949
0.193648
0.0407474
0.051599
0.0309435
0.0305339
0.0987962
0.121917
0.113964
0.0485596
0.0475157
0.0255361
0.026025
0.0742906
0.0430146
0.0570522
0.0665372
0.0226217
0.025295
0.0289015
0.0427532
0.0403786
0.0436624
0.129165
0.131557
0.130215
0.14343
0.155141
0.166704
0.141055
0.11488
0.105824
0.109201
0.090149
0.093839
0.0996925
0.106364
0.121394
0.127623
0.127087
0.128414
0.112248
0.114581
0.101026
0.10603
0.0905593
0.0740116
0.0589109
0.0175882
0.0123805
0.0153363
0.0144814
0.00891606
0.0101469
0.0428912
0.0338063
0.0395304
0.0351387
0.0374911
0.0175883
0.0192499
-0.409309
-0.312123
-0.579298
-0.513506
-0.58528
0.777107
0.829564
0.652859
0.468811
0.528156
0.687455
0.758747
0.431069
0.520839
0.533728
-0.130723
0.588134
0.142219
0.140807
0.137229
0.136555
0.139631
-0.400381
-0.325855
-0.289739
-0.240315
-0.0312425
0.0884467
-0.169524
-0.283612
-0.101876
-0.133281
0.25559
0.268662
0.215321
0.241802
0.235692
0.073498
0.140396
0.186193
0.141834
0.197183
0.221248
0.170843
0.206575
0.148599
0.107712
0.10643
0.0540967
0.0815521
0.0628077
0.0362218
0.128609
0.110853
0.119204
0.112286
0.129239
0.161901
0.154899
0.173664
0.195061
0.120095
0.0808161
0.0935903
0.117054
0.074353
0.0863153
0.105047
-0.0343704
-0.0662606
-0.0324909
-0.433167
-0.309475
-0.281089
-0.319108
-0.373604
-0.053633
-0.734327
-0.653706
-1.33728
0.106143
0.480112
0.328824
0.343754
0.346525
0.32407
0.332147
0.357825
0.365244
0.278665
0.299233
0.301081
0.249696
0.284697
0.294363
0.300536
0.112673
0.0352088
0.024685
-0.0185459
-0.14388
-0.11885
0.072431
0.0042253
-0.0672424
-0.0698908
0.100593
0.00116062
0.0646101
0.10068
0.0502584
-0.0143633
0.195214
0.245475
0.244959
0.216292
0.128444
0.140105
0.162005
0.200313
0.228892
0.25686
0.127756
0.134423
0.135947
0.13235
0.129002
0.13213
0.132641
0.133854
0.134161
0.134663
0.134269
0.00807029
0.0204624
-0.00750511
-0.000258159
-0.00355186
-0.0293706
0.0575401
-0.0187371
0.0346895
0.0333476
-0.0027485
-0.0132208
-0.000437379
0.0181931
0.170631
0.196771
0.182403
0.132062
0.226345
0.388393
0.381092
0.341122
0.20715
0.232721
0.316576
0.086176
0.0941892
0.0818834
0.105756
0.0998726
0.0286648
0.0295252
0.0350797
0.0416651
0.0378341
0.0313426
0.0254013
0.0262872
0.0299307
0.0277402
0.0265205
0.114809
0.110227
0.111208
0.104728
0.103945
0.117627
0.12055
0.122856
0.127601
0.128184
0.120943
0.124677
0.127421
0.0292731
0.0247313
0.0261281
0.0252429
0.0268396
0.0216887
0.0207333
-0.497299
-0.394782
-0.293223
-0.553554
-0.49296
-0.495316
-0.086512
-0.259761
-0.195733
0.40705
0.187788
0.115616
0.110626
0.256048
-0.251987
0.0381968
-0.197512
0.721296
0.55946
0.703991
0.271628
-0.121909
0.0275019
0.0511561
-0.0619053
-0.00586807
-0.0403804
-0.156691
-0.128722
-0.0938589
-0.00426018
-0.0919498
-0.0204447
-0.186757
-0.197298
-0.0961346
-0.144833
0.0983633
0.161934
-0.245929
-0.166913
-0.289618
0.240728
0.25819
0.274487
0.251487
0.270409
0.200555
0.191179
0.211287
0.217848
0.211727
-0.993503
-0.589296
-1.79766
-1.23466
-0.801647
0.128543
0.12139
0.330795
0.252024
0.330186
0.318368
0.267523
0.235361
0.246064
0.28365
-0.00974304
0.0913502
0.0544093
0.0821792
0.0163295
-0.0526313
0.21226
0.2127
0.24095
0.269665
0.229753
0.271018
0.125747
0.126992
0.124835
0.123266
0.118372
0.120614
0.0929776
0.0703579
0.117294
0.0992008
0.0620644
0.0508275
0.0368188
0.0313496
0.0297224
0.0301251
0.0326374
0.0374303
-0.488312
-0.536934
-0.644473
-0.631951
-0.443194
-0.520265
-0.527574
-0.58326
-0.512983
-0.420266
0.124422
0.506406
0.257821
0.585143
0.359741
0.525202
-0.0941515
0.108085
0.0515445
-0.0715988
-0.0760839
-0.344634
-0.541072
-0.609728
0.373201
0.334784
0.1435
-0.111641
-0.243062
0.055063
0.149165
0.109737
0.150261
0.202524
0.199765
-0.371854
-0.2684
-0.196988
0.105131
-0.0244388
-0.0627571
-0.0329589
0.0708863
0.0253214
)
;

boundaryField
{
    wall-4
    {
        type            zeroGradient;
    }
    velocity-inlet-5
    {
        type            zeroGradient;
    }
    velocity-inlet-6
    {
        type            zeroGradient;
    }
    pressure-outlet-7
    {
        type            fixedValue;
        value           uniform 0;
    }
    wall-8
    {
        type            zeroGradient;
    }
    frontAndBackPlanes
    {
        type            empty;
    }
}


// ************************************************************************* //
