/*--------------------------------*- C++ -*----------------------------------*\
  =========                 |
  \\      /  F ield         | OpenFOAM: The Open Source CFD Toolbox
   \\    /   O peration     | Website:  https://openfoam.org
    \\  /    A nd           | Version:  6
     \\/     M anipulation  |
\*---------------------------------------------------------------------------*/
FoamFile
{
    version     2.0;
    format      ascii;
    class       surfaceScalarField;
    location    "11";
    object      phi;
}
// * * * * * * * * * * * * * * * * * * * * * * * * * * * * * * * * * * * * * //

dimensions      [0 3 -1 0 0 0 0];

internalField   nonuniform List<scalar> 
1300
(
3.75095
5.62643
-6.27707
3.75095
-6.1478
5.62643
-4.38503
4.38503
-1.50136
1.50136
1.87596
1.87499
-4.79561
4.79561
-4.95226
4.95226
-2.87564
2.87564
-5.24785
5.24785
-5.06788
5.06788
4.72638
-4.72638
-4.96965
4.96965
-1.93267
1.93267
-4.58247
4.58247
3.17754
-3.17754
-5.18694
5.18694
-0.572247
0.572247
-0.553581
4.30453
3.19737
3.19737
-2.5989
2.5989
-4.85681
4.85681
6.22114
-6.22114
9.50961
-9.50961
-3.23253
-3.39145
1.36609
-8.11924
-4.78172
-4.78172
-8.44109
8.44109
-2.81466
2.81177
2.98146
-2.98146
-1.65894
1.65894
-4.36654
-0.0184896
-4.36654
4.3943
-0.00927005
4.3943
-1.63024
0.128882
-1.63024
4.08944
-4.08944
1.33338
0.167981
1.33338
3.06644
-3.06644
-1.8771
3.75306
1.87386
-1.8726
6.17713
-1.87835
3.75335
-4.95624
4.95624
-4.84753
0.0519181
-4.84753
4.79413
0.00148018
4.79413
-5.28997
5.28997
-4.87352
-0.0787398
-4.87352
5.03044
-0.0781769
5.03044
3.08573
-3.08573
-2.8987
0.0230593
-2.8987
2.82472
0.0509255
2.82472
0.353606
5.27282
-5.98004
8.79181
-5.27282
0.024973
5.20987
0.0379777
5.20987
-5.10451
0.0366301
-5.10451
5.01049
0.0573906
5.01049
4.81642
-0.0900464
4.81642
-4.84245
0.116072
-4.84245
-3.33983
-3.28839
-5.05338
0.0837305
-5.05338
-1.95855
0.0258731
-1.95855
1.89794
0.0347296
1.89794
-3.68013
3.68013
-4.40251
-0.179964
-4.40251
3.14239
0.0351575
3.14239
1.86641
1.88455
5.61736
-5.61736
2.43982
-5.18061
-0.00632619
-5.18061
-5.21219
-4.29742
5.21219
-0.0252522
-0.880211
0.307964
-0.880211
3.16112
0.036248
3.16112
2.73369
0.0910291
-2.73369
0.134794
3.49538
-3.49538
1.96418
0.634718
1.96418
-5.56665
5.56665
4.95448
0.0560173
-4.95448
0.0976696
6.15755
0.0635902
6.15755
-6.20667
-0.0144645
-6.20667
3.37131
-6.76276
-3.38495
4.88544
0.0842098
-4.88544
0.103721
2.99639
-0.0149301
2.99639
-2.94007
2.94007
-2.9951
0.0136388
-2.9951
-2.08706
0.428123
-2.08706
1.30241
0.356525
1.30241
-4.32022
-0.0463162
-4.32022
-4.31517
-0.0873403
4.31517
0.0791294
0.669703
-0.669703
-1.78441
0.154168
-1.78441
-4.18025
-0.139966
4.18025
-0.0908128
-4.0553
-0.0341414
-4.0553
-3.02646
0.0313634
3.02646
0.0399794
3.11534
0.0457844
-3.11534
0.0488983
-1.87146
3.756
-1.87949
3.75335
-4.74483
-0.211409
-4.74483
5.0778
-0.121568
5.0778
4.79979
-0.217318
-4.79979
-0.0477364
4.79262
0.0015094
4.79262
-5.24864
-0.0413294
-5.24864
5.28021
0.0097618
5.28021
4.79594
-0.0033221
-4.79594
-0.0775782
5.09701
-0.0665718
5.09701
3.14144
-0.055712
3.14144
-3.04949
-0.0362434
-3.04949
2.9355
-2.9355
2.92403
0.0114771
-2.92403
0.0253241
-11.1262
11.1118
-0.0370424
-11.0892
5.17283
5.17283
4.24304
0.573387
4.24304
-5.02987
0.187421
-5.02987
3.34588
-6.73084
3.31625
-6.65608
3.31012
-11.4294
3.35458
-6.64297
5.18224
-5.18224
5.12697
0.055267
-5.12697
0.073594
-1.99928
0.0407376
-1.99928
-3.20278
-0.477349
-3.20278
4.12463
-0.444501
4.12463
-3.04575
3.04575
-3.09965
0.0539011
3.09965
0.0427372
5.15023
-0.0532219
-5.15023
-0.0303802
1.09866
0.234724
-1.09866
0.218447
3.68976
-0.194378
3.68976
-3.30539
-0.189983
-3.30539
-2.01042
0.0111384
2.01042
-0.0462455
-5.81205
0.245393
-5.81205
-11.1821
0.0929075
-11.1441
-6.11377
-6.11377
2.32732
11.1191
-3.0197
-0.0297885
3.0197
-0.023309
2.98085
0.064898
-2.98085
0.0407751
-2.93503
-0.000471694
2.93503
0.00504056
-2.46983
0.382772
-2.46983
-0.679316
0.679316
-0.999506
0.320189
0.999506
0.302907
1.14739
-0.477682
1.14739
1.85592
0.0420208
-1.85592
0.0715109
-3.97022
-0.0850802
-3.97022
5.13102
-0.0532166
5.13102
-3.19806
-0.107332
3.19806
-0.0566188
-0.0350562
11.1468
-5.13777
0.0332596
5.13777
-11.2104
11.2437
-3.19699
0.727154
3.19699
1.04605
5.29595
0.270705
-5.29595
0.266076
5.22682
0.0533866
-5.22682
0.0445811
-2.79769
-0.405091
-2.79769
-4.46501
-0.279817
4.46501
-0.340381
-11.4823
-0.200903
11.6832
-11.4249
6.01295
0.144598
-6.01295
11.3883
-0.438227
-0.231476
0.438227
0.241089
1.71498
-0.567592
1.71498
3.87993
-0.190172
-3.87993
-0.0902932
-5.16982
-0.0788217
5.16982
-0.0387977
-2.25661
-0.541072
2.25661
-0.541637
-4.27094
4.30719
1.9062
-3.36271
-3.40005
-7.66013
1.85966
1.89635
4.29948
-7.04209
-4.38728
-6.93837
7.23949
-6.97341
-9.39874
9.3087
7.42711
-7.46126
-5.76267
5.80541
6.38922
-6.34924
1.87722
1.87583
10.0827
-10.0308
-11.1273
10.9159
10.174
-10.2527
10.8129
-10.8543
-12.4225
12.4759
-5.75384
5.7769
-6.62078
6.58454
-6.78456
6.72794
-3.30122
-3.35487
9.07628
-8.99255
11.7607
-11.767
-8.96425
8.78428
3.39047
0.916718
3.43625
-1.88576
3.76298
-1.86759
3.77378
3.38041
-6.68162
3.35043
-6.75048
6.06359
5.69709
-6.03834
-1.62179
-5.86247
5.84754
-5.86312
5.86816
8.81183
-8.83032
-1.88118
3.75701
-1.87217
3.76852
-3.4107
-2.35198
3.37554
0.923937
5.57528
3.50099
-5.65949
-1.27888
-7.61999
7.42982
-7.86387
7.67389
-0.463135
5.84269
-5.37956
4.39367
-1.62176
7.46445
5.61773
5.80515
5.86521
-5.59451
1.1082
-6.48775
-6.39008
-2.69682
2.85098
2.64072
-2.47274
5.87398
1.55313
5.78317
-5.44821
-2.01304
-5.53329
3.79284
2.01258
3.84674
4.00599
2.38323
4.03736
3.05635
-3.03396
-0.0223897
-3.06354
6.11988
0.723057
-5.41551
-4.49158
6.72438
3.35835
6.72586
-6.47383
-3.55699
-6.52156
-6.77677
-4.3505
-7.05659
6.96283
3.95302
6.84127
-8.08596
8.04716
6.81253
3.36145
6.73435
-6.73302
-3.5197
-6.8106
10.5272
-2.68397
-7.84325
-6.97983
-5.4427
6.97007
3.84286
7.5657
4.91021
7.61028
3.57375
6.95348
-7.41661
1.97391
-3.83792
-1.91593
-3.81259
3.73279
2.04411
3.78372
-4.14345
-2.47733
-4.17324
-4.2044
-2.58016
4.26012
2.32442
-4.31217
-3.5517
4.4195
2.30844
3.01819
-7.40547
3.62478
-6.97965
-6.32714
-2.66541
-6.25354
4.11484
2.61104
-6.72588
-2.56679
10.9391
-5.24197
9.31727
-7.31814
-4.44887
-7.34852
-6.05973
-2.90452
-6.14707
-6.85018
6.44509
-6.55254
6.10804
13.5844
-4.93674
-8.64762
-3.94585
-2.40339
3.89695
-0.4607
-3.72754
3.70515
0.035444
3.80923
4.72595
4.26525
-3.88856
-1.97456
-3.84778
3.86467
2.00349
3.8642
6.37682
2.43501
6.36755
-6.36577
-2.46456
-6.41208
9.01308
-8.58496
2.92296
-2.91182
5.11699
2.5569
-4.92261
-2.69738
6.00218
-3.01162
-2.99056
-12.3568
10.8797
1.47714
-4.89236
-0.498691
0.0735559
-5.60955
-3.78919
5.49348
0.311668
11.1913
7.40215
-5.5168
5.76219
6.16638
6.2224
-0.167685
5.87015
-5.143
5.26303
-2.40551
-2.85752
5.30652
-5.44648
-1.10557
-5.32523
4.21966
0.336687
1.92071
-1.61275
-2.15168
-0.545134
-2.08017
1.59051
1.05021
1.82524
1.01629
1.8347
-2.85771
0.509164
2.34855
-1.84142
-1.96358
-3.56691
-0.917516
4.48442
5.38472
2.0451
-5.29443
-0.238862
2.80649
-2.77176
-0.846244
-2.72066
1.96084
-2.80709
-3.33921
-1.90523
5.24444
-3.36889
-0.478894
3.30399
0.542744
-3.73883
-2.12363
3.72519
0.312163
-3.10406
6.17288
-3.06883
-5.07862
2.5502
3.56968
4.56278
-4.85079
2.47311
2.37768
-1.28111
5.87313
0.852731
5.87464
-8.69105
5.13406
6.72394
2.06035
-6.50662
-0.0149452
-8.70599
10.08
-8.08961
-1.99037
5.72273
4.35725
5.97448
7.60988
-5.00671
10.9812
0.368828
-8.45844
8.33716
-6.27681
4.04603
-10.3228
-11.6559
3.19747
-7.33428
8.6917
-1.35741
-2.36114
-5.72482
9.69542
-1.06323
-8.63219
5.77804
-5.41275
-5.34423
10.757
-8.09672
8.86393
-2.6787
-6.18523
-6.77547
-4.07878
6.85429
1.19287
-9.95022
11.9241
-2.99674
5.9403
0.794055
5.87372
3.97227
-6.00974
2.03748
4.12446
-6.80316
2.77908
-8.78882
-4.88951
9.55196
-4.66245
-7.55492
-6.75978
-0.795141
2.03568
9.88845
-6.9459
5.34777
1.59812
3.32812
0.536077
-3.3396
-0.472994
0.347621
4.43562
-4.78324
4.13134
4.22237
3.29132
1.1443
3.82885
2.01869
-3.80554
-0.367699
-4.01802
1.43787
-1.6936
-3.45603
4.8939
-3.90273
0.446696
-2.62558
-3.4629
6.08849
-4.54151
3.0538
3.11908
5.05729
-4.81381
1.3509
-2.38953
-2.42428
2.55182
-4.24543
1.84382
3.05007
4.15226
0.600561
4.84768
4.70428
-7.45872
0.479069
8.20527
-6.9264
1.69469
5.91559
-7.04246
0.282684
-5.97086
1.1019
-6.34386
-5.62398
3.6473
-6.55182
-6.67555
5.51256
0.854995
-5.59169
-0.555381
-4.67996
-2.17023
-5.22103
-2.12694
-4.4256
-7.13366
-1.54215
-5.59151
4.90295
-4.73401
-2.32258
5.07439
1.03365
-7.62667
7.3952
-7.21208
6.64449
0.0520473
3.6531
4.31729
1.9139
-2.37199
4.28589
-4.35459
6.7896
-8.62694
4.27235
4.14644
-6.611
-4.4805
4.93353
4.07955
5.29005
9.63901
-10.4637
0.8247
-11.5238
12.7799
-1.25609
-17.5956
6.07179
-7.9566
2.64159
0.281371
2.68233
0.644547
2.3135
-2.95805
-2.26727
-2.31352
-2.22183
-3.23122
5.45305
1.15241
-3.18215
2.02974
-3.46219
4.6146
0.0816041
-3.26376
5.05882
-2.74532
5.34019
-3.38058
1.95961
3.25687
5.48559
-2.22872
4.16015
-1.60325
1.76846
-3.99718
-1.46276
-2.95556
4.99967
-3.13293
3.57962
-0.216434
3.79606
-3.93808
0.926453
-0.646759
3.57561
3.7104
4.17722
-3.03292
2.81052
-4.41377
-1.18666
-3.81321
-0.763134
-0.115258
-4.08907
4.20433
6.30458
-6.41984
-5.35011
9.50861
-4.15851
7.68214
-5.49266
-2.18948
-4.25393
-4.33103
3.87115
1.999
9.68114
0.134061
-5.62672
-5.00894
-3.96289
3.25264
2.0104
-2.14018
3.61731
2.06662
-0.145909
0.618391
1.20685
1.87174
-1.25335
0.187456
1.68429
-1.42529
2.0764
0.730087
-2.11842
0.038253
-1.3705
3.33134
0.978045
-2.02826
0.774902
1.00477
-3.41028
4.57933
-2.28774
-2.29159
5.5841
1.1975
-3.48525
4.12773
-3.79104
2.31114
-3.22866
-1.1741
-4.96514
-3.41201
-2.42546
4.4552
-3.02759
5.07269
1.11599
-4.83383
5.94982
-3.46277
1.55754
-3.04788
3.77796
-1.15182
-1.89605
2.64468
2.59976
-2.8248
0.104133
-0.180116
2.16184
-2.34195
-0.645247
-2.48667
-4.54482
4.85699
-2.1243
4.5974
2.1616
-1.92569
6.5231
1.8352
-3.76089
-3.24342
-3.72231
-1.38321
3.17957
-0.980527
-5.83007
-7.16576
5.83339
0.0412435
-8.80465
10.2959
-1.49122
-5.4463
0.312238
5.41049
-7.60526
0.802107
-4.82618
5.46968
6.32241
6.36365
-8.84775
0.215555
-4.89472
1.65415
-6.54888
6.0114
-3.95119
7.14866
-8.06365
5.74107
-7.03
5.1583
-1.39058
5.61847
-3.581
2.22478
-6.30357
-5.1107
6.99518
-3.63372
7.78923
-4.12652
11.9157
-7.12326
6.95205
4.96369
-1.41145
-5.93707
-6.83548
5.42403
0.11657
5.99029
4.89738
-2.87869
4.52968
2.19307
-4.5826
-2.05235
-6.42801
1.84541
-3.30893
-1.86904
3.71445
3.18826
3.72433
1.29017
-3.25134
6.69306
-7.4882
-2.03061
-3.59337
6.74495
-1.32091
4.04778
-7.64115
-2.29608
7.74498
-3.02961
-4.71537
-2.80824
-3.86731
2.85239
-6.7197
3.69943
-4.25481
2.30862
-10.2652
-5.31805
-5.07696
-2.22898
-4.9831
-8.0062
5.77722
-1.93441
5.46078
-9.41028
6.38067
-3.36964
9.14686
-4.60581
-0.61522
5.14745
1.49705
10.6439
0.191529
-4.67202
-1.77338
3.98786
-2.21448
1.47926
-3.89755
0.0903106
2.32161
3.26249
-6.54127
-0.0697221
-4.74175
-3.90497
7.98452
5.60365
11.9082
1.44451
9.25386
-1.26934
10.6984
4.02071
4.32362
-4.27152
5.09622
-0.0671832
4.20517
-0.813397
2.77301
1.86893
1.8948
0.876957
2.25287
1.45753
3.17933
0.221274
-2.09225
4.69145
-8.65434
-0.935265
-8.08095
1.22775
5.55292
-4.32517
3.05741
-1.04702
0.84293
0.205142
-1.7748
1.56966
-2.65238
-1.92071
-0.236424
-1.46633
2.24123
1.86501
-2.00481
-0.647568
0.254531
-3.66654
2.97413
-2.86999
-0.27023
5.67959
-2.56468
0.222726
-1.00714
-2.26395
-2.80908
2.77083
6.19322
0.329875
3.12439
5.18686
3.06323
0.184537
4.82405
-6.18146
-3.96478
-5.9659
0.0454968
5.45599
2.06207
7.82638
7.02576
5.70485
-1.9363
-9.42451
8.60516
-3.50895
7.34907
-2.6337
-4.086
3.76638
3.02322
-4.62137
0.366563
-3.71944
-7.22839
-1.61028
7.99095
-9.03363
8.41841
6.24818
-0.656669
-4.419
-0.65796
4.09881
0.224804
10.9232
-0.927166
-7.21694
8.14411
-4.62575
3.69048
0.90515
2.71216
2.47481
1.4278
-5.78915
-10.1143
-1.84528
-1.56501
-4.13686
0.347561
-2.21257
6.17996
-2.48947
3.99048
5.65463
6.49756
-2.24803
-4.17182
6.40654
-2.41606
4.08151
)
;

boundaryField
{
    wall-4
    {
        type            calculated;
        value           uniform 0;
    }
    velocity-inlet-5
    {
        type            calculated;
        value           uniform -3.75095;
    }
    velocity-inlet-6
    {
        type            calculated;
        value           uniform -5.62643;
    }
    pressure-outlet-7
    {
        type            calculated;
        value           nonuniform List<scalar> 8(6.27707 6.1478 6.62398 6.75316 6.62822 6.75627 6.66214 6.6647);
    }
    wall-8
    {
        type            calculated;
        value           uniform 0;
    }
    frontAndBackPlanes
    {
        type            empty;
        value           nonuniform 0();
    }
}


// ************************************************************************* //
