/*--------------------------------*- C++ -*----------------------------------*\
  =========                 |
  \\      /  F ield         | OpenFOAM: The Open Source CFD Toolbox
   \\    /   O peration     | Website:  https://openfoam.org
    \\  /    A nd           | Version:  6
     \\/     M anipulation  |
\*---------------------------------------------------------------------------*/
FoamFile
{
    version     2.0;
    format      ascii;
    class       volVectorField;
    location    "11";
    object      U;
}
// * * * * * * * * * * * * * * * * * * * * * * * * * * * * * * * * * * * * * //

dimensions      [0 1 -1 0 0 0 0];

internalField   nonuniform List<vector> 
918
(
(0.984916 -0.000803584 0)
(0.00531247 2.96627 0)
(-0.00589651 1.66629 0)
(0.979814 0.00170541 0)
(-0.000813024 1.63768 -2.94466e-22)
(-0.00704114 2.94854 -1.95121e-18)
(0.857627 1.13477 7.53361e-19)
(0.512673 0.243071 -7.98632e-21)
(0.999908 -0.000285872 0)
(0.0741567 1.39261 0)
(-0.0133777 1.45499 0)
(0.852285 -0.00542966 0)
(0.0100583 2.93145 0)
(0.00184217 2.79384 0)
(-0.00276436 3.19904 1.14496e-18)
(-0.00236491 1.55613 -1.50679e-20)
(0.608706 0.10772 4.89315e-19)
(0.267564 1.44953 5.38229e-19)
(0.966805 0.0129419 0)
(0.00323687 1.54356 0)
(0.208411 0.291171 -4.34201e-19)
(1.00127 -0.00446046 0)
(0.999727 -0.00928971 0)
(0.974415 -0.00692785 0)
(0.775431 -0.0149009 0)
(0.0247892 2.6342 0)
(-0.0130813 2.91147 6.70569e-19)
(-0.0088136 1.68962 0)
(-0.0108352 1.76866 0)
(-0.00894935 1.68749 0)
(0.00309484 1.80095 0)
(0.00113298 1.65168 2.33125e-22)
(0.00154966 1.56489 0)
(-0.0221847 2.98756 -6.85114e-23)
(-0.0165573 3.00552 1.51718e-18)
(0.00228971 3.00068 0)
(0.891995 -0.00575144 0)
(0.339283 0.894745 -2.77321e-20)
(0.83501 1.16553 -1.1094e-18)
(0.984844 1.00437 1.02793e-18)
(0.701841 1.25687 -1.72463e-19)
(0.703818 1.24402 9.56256e-19)
(0.555589 0.307239 7.79144e-21)
(0.54707 0.206696 0)
(1.2072 0.55769 0)
(0.502264 0.327858 3.57255e-20)
(0.478506 0.246952 -3.70669e-20)
(0.920495 -0.00121965 0)
(1.00042 0.000304761 0)
(0.999972 0.000314028 0)
(1.00467 -0.00748232 0)
(1.00051 -0.000467648 0)
(1.00008 -4.5666e-05 0)
(0.0429861 1.58458 -5.89947e-19)
(0.0372811 1.54629 0)
(0.113918 1.43165 0)
(0.0269489 1.56118 0)
(0.0402763 1.40341 0)
(0.000781766 1.60501 0)
(-0.020484 1.57401 0)
(-0.0127671 1.43709 0)
(-0.0187489 1.60473 0)
(-0.013083 1.48231 0)
(0.92256 0.00654068 0)
(0.917768 0.00395461 0)
(0.863296 -0.0020559 0)
(0.912484 0.00954178 0)
(0.834095 0.00166537 0)
(0.0140048 3.00014 7.15146e-19)
(0.011282 3.00559 0)
(0.00648768 3.00401 0)
(0.0119777 2.99692 7.98738e-24)
(0.00826696 2.95872 -1.06288e-18)
(0.0123897 2.983 0)
(0.00912461 2.90442 0)
(0.021907 2.93061 1.45894e-24)
(0.00327258 2.82398 0)
(0.0278619 2.91777 0)
(-0.00233104 2.74322 0)
(0.306719 3.59469 0)
(-0.122935 3.67815 0)
(0.149606 3.28838 -1.06564e-18)
(0.00512821 3.02096 0)
(0.00976038 1.7674 0)
(-0.00324831 1.65468 1.48652e-20)
(-0.00135112 1.55885 -2.83907e-20)
(0.680125 0.155649 -1.676e-19)
(0.632028 0.0537517 -1.59357e-19)
(0.641569 0.194429 -5.01687e-19)
(0.604145 0.131832 -3.35548e-19)
(0.264821 1.22876 0)
(0.208689 1.46696 -5.93992e-19)
(0.394913 1.35728 9.87138e-19)
(0.989341 0.0125173 0)
(0.948522 0.0126534 0)
(1.00027 0.00092866 0)
(1.00225 0.0096166 0)
(1.00294 0.0113067 -7.8374e-19)
(0.991608 0.00824505 5.93493e-19)
(-0.000711088 1.64363 0)
(0.00429969 1.54986 0)
(-0.010826 1.69939 0)
(-0.00571666 1.65783 0)
(0.00135775 1.55141 0)
(0.278381 0.307446 1.3323e-19)
(0.317445 0.282583 0)
(0.991947 -0.00692118 0)
(0.955071 -0.00288032 0)
(0.884324 0.0292319 0)
(0.851256 0.033648 0)
(0.805381 0.0107058 0)
(1.04366 0.00768271 0)
(0.810778 0.0191372 0)
(0.705794 -0.0371818 6.20827e-19)
(-0.0376647 2.86487 3.78572e-19)
(0.0364827 2.912 0)
(0.0468086 2.88843 0)
(0.00166265 2.69767 0)
(-0.0084787 2.98569 6.25245e-19)
(-0.0146499 2.89518 0)
(-0.0111297 2.99119 -1.95897e-18)
(-0.0121813 2.92933 6.71704e-19)
(-0.006855 1.8068 0)
(-0.00319378 1.80118 0)
(4.96133e-05 1.66158 -3.55392e-22)
(0.000508329 1.64969 0)
(0.000655008 1.55379 0)
(0.945865 0.000561269 0)
(0.890801 0.00459806 0)
(0.876793 -0.00316213 0)
(0.947068 -0.00219889 0)
(0.892893 -0.00194916 0)
(0.476467 1.08243 2.29796e-20)
(0.519647 1.15768 0)
(0.275113 0.821513 5.80526e-21)
(0.228335 0.693295 0)
(0.951179 1.0482 -3.01751e-19)
(1.08491 0.85574 6.1749e-19)
(0.365127 1.38129 0)
(0.557042 1.32394 0)
(0.584392 1.28225 0)
(0.149228 -0.0687077 -7.96284e-20)
(0.585887 0.289709 0)
(0.577995 0.199303 9.83695e-20)
(1.04688 0.909267 0)
(1.12556 0.751541 0)
(1.15746 0.692665 -5.42209e-19)
(1.1994 0.602771 0)
(1.25234 0.410534 5.24165e-20)
(0.953416 -0.000911598 0)
(0.957438 -0.00455569 0)
(0.907966 -0.00330331 0)
(0.985748 -0.00433943 0)
(0.973905 -0.00186785 0)
(0.941496 -0.00145016 0)
(1.00071 0.00300476 0)
(1.00046 0.00110432 0)
(0.99995 0.000589411 0)
(0.0290678 1.66353 3.23262e-19)
(0.0786905 1.54974 0)
(0.00726178 1.69627 5.10862e-19)
(0.0165373 1.59014 -4.33693e-19)
(0.0670848 1.51112 -4.49911e-19)
(0.0459831 1.55661 0)
(0.139164 1.42855 0)
(0.00243174 1.55872 0)
(0.0203286 1.37882 0)
(-0.000174237 1.68411 -1.24824e-21)
(0.00736557 1.60352 0)
(-0.0067957 1.69147 -6.4898e-20)
(-0.00923976 1.59806 1.2303e-19)
(0.000568663 1.55565 0)
(-0.0181421 1.5628 0)
(0.000680356 1.40283 0)
(-0.0166387 1.62668 0)
(-0.00840096 1.50449 0)
(0.984273 0.0183761 0)
(0.941703 0.0095986 0)
(0.968685 0.00997996 0)
(0.91386 0.004268 0)
(0.86934 -0.00636869 0)
(0.935972 0.00379494 0)
(0.929713 0.0096934 0)
(0.866384 0.00408472 0)
(0.0107796 3.06652 -6.28186e-21)
(0.0145458 3.05925 0)
(0.0127787 2.97001 0)
(0.00806822 2.87584 0)
(0.889053 3.98733 0)
(1.18104 3.37433 1.01673e-18)
(0.0820444 3.10285 0)
(-0.017107 2.92487 0)
(-0.00494426 1.796 0)
(0.00292866 1.77227 0)
(0.00380846 1.77631 0)
(0.00388206 1.78518 2.75434e-21)
(0.00877516 1.7704 0)
(0.00952776 1.77644 0)
(-0.00240693 1.56543 5.14181e-21)
(-0.00300406 1.67247 3.60165e-20)
(-0.0011816 1.66423 2.89996e-20)
(-0.00371959 1.56201 0)
(0.69664 0.124616 2.41148e-19)
(0.66731 0.049454 -2.34086e-19)
(0.222463 1.32961 0)
(0.325206 1.05698 -2.71144e-19)
(0.161044 1.44209 -7.99738e-19)
(0.201752 1.36335 7.99497e-19)
(0.909725 0.0142295 0)
(0.971965 0.0189965 0)
(0.977813 0.0131027 0)
(0.933564 0.015264 0)
(-0.0142458 1.63677 0)
(-0.00243692 1.64355 0)
(-0.000576961 1.52638 0)
(0.462142 0.349866 3.26917e-19)
(0.395335 0.322927 -4.00417e-19)
(0.402049 0.251546 0)
(1.16309 0.0876858 -1.05229e-20)
(1.15052 0.035418 0)
(1.07392 0.0399295 0)
(0.988723 -0.00328429 0)
(0.723254 0.0970541 0)
(0.760769 0.0449178 -1.00851e-18)
(0.681757 0.0288761 3.95528e-19)
(0.0118291 2.97891 4.66397e-19)
(-0.0319849 2.86439 4.72636e-20)
(0.00882913 3.05308 -1.3483e-20)
(0.015009 3.0439 5.15504e-19)
(-0.0120987 2.99984 2.23462e-20)
(-0.0122089 2.95216 -9.08963e-23)
(-0.0150865 3.01343 -4.29574e-19)
(0.0135988 3.02726 2.99779e-19)
(0.00736168 3.03417 -4.7986e-19)
(0.965007 0.00794969 0)
(0.958142 0.00724957 0)
(0.900042 0.00615281 0)
(0.959218 0.0158875 0)
(0.943735 0.0121562 0)
(0.880499 0.0131073 0)
(0.937393 -0.00366575 0)
(0.934446 -0.00324894 0)
(0.869228 -0.0110666 0)
(0.648987 1.38731 2.89513e-19)
(0.669299 1.503 0)
(0.19755 0.154132 -5.23027e-21)
(0.132045 0.414439 7.5968e-20)
(0.167801 0.603567 -8.51441e-20)
(0.221185 0.479877 1.87923e-19)
(0.414868 0.608453 6.26824e-19)
(0.19131 0.105425 2.92919e-19)
(0.638084 0.220099 3.65396e-19)
(0.615293 0.254998 8.92769e-20)
(0.594084 0.156183 1.87734e-19)
(1.23863 0.458395 3.57177e-19)
(1.26572 0.24841 3.74373e-19)
(-0.00801288 1.69609 2.0224e-19)
(0.0011781 1.58525 0)
(1.02703 0.0227569 0)
(1.00216 0.0147482 0)
(0.958822 -0.00406412 0)
(0.0117687 3.07378 0)
(0.0174484 2.94298 8.54325e-19)
(0.0144538 2.95595 0)
(0.005834 2.84909 -8.48055e-19)
(0.00828572 3.08942 2.04506e-19)
(0.0121837 3.0819 0)
(0.685828 1.80468 -2.4534e-19)
(1.22187 2.62443 8.16136e-19)
(0.67283 1.98717 -1.63668e-18)
(0.0236514 2.98166 -3.49887e-19)
(0.0425355 3.00827 0)
(-0.0350555 2.88459 0)
(-0.0110621 1.67438 -8.99212e-21)
(-0.00316651 1.6745 -8.53121e-20)
(-0.00492776 1.57948 -5.53628e-21)
(0.272508 1.23082 8.62802e-19)
(0.350689 0.892443 -5.82558e-19)
(0.0484502 1.62166 5.43341e-19)
(0.0892641 1.55067 -6.52942e-19)
(0.129917 1.46651 7.44267e-20)
(0.00563218 3.12064 -1.07419e-18)
(0.013493 3.12096 1.18086e-18)
(-0.00447987 2.9807 5.53847e-19)
(-0.000558967 2.97627 -5.00192e-19)
(-0.0172839 2.87899 -5.64107e-19)
(0.012486 3.09987 -1.49456e-18)
(0.0053232 3.10494 1.50949e-18)
(0.335851 0.505289 0)
(0.154095 0.413705 2.92169e-19)
(0.141504 -0.140618 -1.17338e-19)
(0.414642 0.785947 8.05599e-19)
(0.343565 0.392478 -1.23376e-18)
(1.24311 0.173555 -8.29612e-20)
(1.26005 0.309355 0)
(1.23997 0.121104 1.51247e-19)
(0.0012579 1.68217 -1.62579e-21)
(-0.00696798 1.68052 0)
(0.00324728 1.58368 0)
(0.307202 1.07907 -3.06228e-19)
(0.363806 0.955541 -6.69368e-19)
(0.341975 0.671843 1.14099e-18)
(1.00377 -0.00821557 0)
(1.00631 -0.00745083 1.41903e-19)
(-0.00602233 1.80201 0)
(-0.00998157 1.80733 0)
(1.0032 0.00287591 1.02947e-21)
(1.00393 0.00767047 2.94142e-19)
(0.00355508 1.78727 -3.62497e-21)
(0.00156997 1.78708 0)
(0.045607 3.18542 1.63775e-19)
(0.381388 3.56317 0)
(1.0787 0.685367 9.24724e-20)
(1.00933 0.00594466 -2.33544e-21)
(1.00669 -0.0181897 0)
(1.00083 0.000189937 2.53502e-22)
(-0.0267636 1.74339 0)
(0.0280496 1.84996 0)
(-0.0262132 1.78976 0)
(0.0115361 1.80201 9.03693e-20)
(-0.00971637 1.8017 4.13377e-20)
(1.00463 0.00860401 2.29156e-21)
(1.04551 0.0156854 0)
(1.07641 0.0249922 0)
(-0.00449186 1.77796 0)
(-0.00401631 1.79496 0)
(-0.00756952 1.79413 0)
(0.00116202 1.54448 -3.94632e-19)
(1.01246 -0.0107286 0)
(1.01359 -0.0168513 0)
(1.00434 -0.000481325 1.79531e-19)
(1.00479 -0.00538171 -2.16142e-19)
(1.00131 -0.00189111 0)
(-0.0102787 1.78563 0)
(-0.00450065 1.79782 0)
(-0.00656707 1.79224 0)
(-0.00646039 1.79724 0)
(-0.00641175 1.79529 0)
(-0.00723014 1.7973 0)
(1.02093 0.0116596 0)
(1.02423 0.00417358 -7.61812e-22)
(0.729816 1.25993 5.43174e-19)
(1.00201 -0.00068556 -1.76955e-19)
(1.00318 0.00311698 2.18206e-19)
(1.00102 0.00174983 0)
(1.00881 0.00752157 1.72343e-19)
(1.00785 0.00794647 -2.1544e-19)
(1.00787 0.00614316 0)
(-0.00238049 1.79497 0)
(0.00272847 1.78821 1.46264e-20)
(0.00328323 1.7894 -1.13873e-20)
(1.17002 0.267395 -1.89644e-19)
(1.11043 0.0809198 0)
(0.0591034 3.08929 -5.54293e-19)
(0.0565149 2.86396 -4.27352e-20)
(0.120559 3.20539 6.9586e-19)
(0.131834 3.21912 -5.7511e-20)
(0.150013 3.27094 0)
(0.0251446 3.13974 1.32459e-19)
(0.0718911 3.1639 5.48121e-19)
(0.0704845 3.18577 -2.52553e-19)
(0.0305135 3.12759 0)
(0.705657 0.357892 0)
(0.609999 0.399473 0)
(1.07976 0.724846 -3.26204e-19)
(1.02421 0.868638 4.75664e-19)
(1.10499 0.582806 0)
(1.13782 0.553517 0)
(1.01063 0.00643919 -3.35143e-19)
(1.00817 0.00706013 4.12733e-19)
(1.00763 -0.0183903 0)
(1.00791 -0.0158497 0)
(1.01392 -0.00616845 0)
(1.01488 0.00191639 0)
(1.00401 0.0033716 0)
(1.00903 0.00790485 0)
(1.00747 0.0045267 0)
(1.0046 0.0049929 0)
(-0.0172605 1.75799 0)
(-0.0217112 1.77413 0)
(-0.0361549 1.73855 0)
(-0.0619162 1.70921 0)
(0.0281825 1.85474 0)
(0.0569552 1.85341 -3.38744e-19)
(0.00782935 1.85064 0)
(-0.000401059 1.83547 1.55867e-19)
(-0.00580671 1.81722 -1.68364e-19)
(-0.0264191 1.79181 0)
(-0.0222481 1.79255 0)
(-0.0231177 1.79287 0)
(-0.0193511 1.79521 0)
(-0.00745512 1.80148 -4.68394e-20)
(-0.00951627 1.802 5.6643e-20)
(0.00336907 1.80748 7.47118e-20)
(-0.00451657 1.80255 0)
(-0.00783263 1.80515 -9.4605e-20)
(-0.00662252 1.80297 -5.41886e-20)
(-0.00635676 1.80231 3.8702e-20)
(-0.0100445 1.79983 -7.74517e-20)
(-0.00806842 1.80384 -9.25904e-20)
(1.01043 0.0143848 3.04128e-19)
(1.00844 0.00314227 -3.89146e-19)
(1.00635 0.0207499 -3.25056e-19)
(0.990471 0.0224396 4.14093e-19)
(1.03949 0.0166834 0)
(1.04348 0.00958528 0)
(1.0636 0.0331936 0)
(1.04565 0.0154434 0)
(1.06112 0.0100295 0)
(1.0989 0.0621434 0)
(1.07662 0.0452749 0)
(1.09975 0.04292 0)
(0.00302606 1.77688 -1.39301e-21)
(-0.00525967 1.77139 0)
(0.000616609 1.7728 0)
(-0.00539964 1.79746 1.58611e-20)
(-0.00446659 1.79612 -8.01393e-22)
(-0.0125191 1.77797 1.60556e-20)
(-0.00999737 1.78503 -1.58536e-20)
(-0.00914452 1.79473 0)
(-0.00845974 1.79588 0)
(-0.00938043 1.79612 0)
(-0.00787236 1.79423 0)
(-0.00948199 1.79641 0)
(0.122867 1.45296 7.76828e-19)
(0.234768 1.39741 3.05446e-19)
(0.40679 1.88273 -2.05193e-19)
(0.252354 1.80231 5.30244e-19)
(-0.0784551 2.28526 8.53154e-20)
(1.0082 -0.0180966 0)
(1.01383 -0.0163839 0)
(1.0104 -0.0207358 0)
(1.01088 -0.00545425 0)
(1.00494 -0.00226394 0)
(1.00466 -0.00455733 0)
(1.00827 -0.0061757 0)
(1.00711 -0.0108832 0)
(1.02516 0.00394348 2.92148e-19)
(1.0237 0.00618875 -3.87277e-19)
(1.02378 0.0038787 -2.8223e-19)
(1.02039 0.00462725 3.5743e-19)
(0.740532 1.27157 0)
(0.591692 1.32326 6.58001e-19)
(0.837568 1.17291 4.01888e-19)
(0.870931 1.16525 -5.35641e-19)
(1.14658 2.58447 -4.74238e-19)
(0.809256 0.12112 2.43941e-19)
(1.1137 0.0902672 0)
(1.16869 0.183634 1.62766e-19)
(1.15479 0.146016 7.74615e-21)
(0.972861 0.136307 0)
(0.118491 3.03373 -1.15542e-19)
(0.107613 2.9021 -6.27864e-19)
(0.0562115 2.34276 4.31858e-19)
(0.172619 0.113447 -1.94541e-19)
(0.343355 3.46155 -4.96179e-19)
(0.197063 3.34752 0)
(0.229549 3.41696 6.46337e-19)
(0.237753 3.08797 -1.21863e-19)
(0.287328 3.21651 0)
(0.00788111 3.12155 2.93311e-20)
(0.018964 3.13081 -3.61759e-19)
(0.0175267 3.12658 5.32471e-19)
(0.0380794 3.13995 0)
(0.0363647 3.15174 0)
(1.22899 2.56501 0)
(0.501003 0.830922 -1.85482e-19)
(0.964699 1.03617 -2.28574e-19)
(0.969508 1.05691 0)
(0.847963 0.922075 8.69456e-20)
(1.01587 0.886352 2.96168e-20)
(0.442902 0.46803 -4.76944e-19)
(0.730436 0.341271 -2.46854e-20)
(0.739768 0.293329 1.91418e-19)
(0.609682 0.431597 1.53382e-20)
(0.557073 0.432316 -6.32556e-19)
(0.704596 0.370675 0)
(0.66336 0.436245 3.18919e-19)
(0.674382 0.442577 0)
(0.664842 0.404141 0)
(0.676414 0.36148 0)
(0.717676 0.62796 8.2698e-20)
(1.1636 0.271841 1.30847e-19)
(1.16658 0.414849 0)
(1.17257 0.392649 0)
(0.794153 0.219261 2.84317e-19)
(0.777663 0.533988 -1.49379e-19)
(0.697385 0.493548 2.40196e-19)
(0.866958 0.418158 -2.01821e-19)
(1.01958 0.00958538 2.09088e-19)
(1.01256 0.00963028 -2.17292e-19)
(1.0142 0.012606 0)
(1.01806 0.00954337 0)
(1.00991 -0.00642461 -1.86606e-19)
(1.00693 -0.00602932 1.86888e-19)
(1.02499 0.0074982 0)
(1.02304 0.00481253 0)
(1.01754 0.00574314 0)
(1.02033 0.0116644 0)
(1.02833 0.00409082 0)
(1.02115 0.00133507 0)
(-0.0183069 1.78205 0)
(-0.0146263 1.78278 0)
(-0.0510379 1.75486 6.42629e-20)
(-0.0182424 1.59367 1.69053e-19)
(-0.0533952 1.70176 3.3309e-19)
(-0.0590715 1.64495 -5.59364e-19)
(-0.0886808 1.74496 0)
(-0.0780169 1.84294 -9.67766e-20)
(-0.0488396 1.83329 0)
(-0.0405154 2.2388 -1.1829e-19)
(0.0712715 2.09321 4.80495e-19)
(-0.111906 1.86702 8.67475e-20)
(-0.119399 1.65236 1.07058e-19)
(-0.11387 1.71865 -8.56197e-20)
(-0.171357 1.65237 2.00037e-19)
(-0.108108 1.94004 0)
(-0.120294 1.97372 -9.10373e-20)
(-0.0199353 1.81116 -4.25109e-20)
(-0.0159444 1.81857 0)
(-0.0184157 1.80536 1.8935e-19)
(-0.021022 1.80922 0)
(-0.00700817 1.83019 -1.718e-19)
(-0.0101809 1.82469 0)
(-0.0115091 1.79429 -3.6265e-20)
(-0.0029904 1.79793 0)
(-0.00760363 1.80191 0)
(-0.0130689 1.79513 4.07537e-20)
(0.00501308 1.80808 3.82576e-22)
(0.000131654 1.81858 2.03167e-19)
(0.0108652 1.81116 1.3194e-21)
(-0.0121974 1.79128 3.177e-20)
(-0.0121568 1.79219 1.9147e-20)
(-0.0209279 1.7962 0)
(-0.0171576 1.79749 0)
(-0.00723959 1.79418 1.04882e-19)
(-0.00185622 1.79637 6.61578e-20)
(-0.00264832 1.79585 -9.50293e-20)
(-0.0148456 1.80074 0)
(-0.009407 1.7872 -5.55237e-20)
(-0.00822999 1.79637 2.48894e-20)
(-0.0093431 1.79626 -7.80825e-21)
(-0.0107481 1.79143 -3.94825e-20)
(-0.00621295 1.80002 -1.33932e-20)
(-0.00751416 1.80213 6.40889e-20)
(1.01906 0.00647915 -1.94909e-19)
(1.01171 0.00761974 2.02887e-19)
(1.012 0.00443392 0)
(0.993133 0.048717 2.91565e-19)
(0.988623 0.0293599 -3.56125e-19)
(0.965488 0.0298308 4.14875e-19)
(0.988902 0.0954618 -3.82592e-20)
(1.02547 0.00918938 0)
(1.03574 0.010432 1.58857e-19)
(1.03586 0.00597634 -1.57606e-19)
(1.03261 0.037112 -8.37316e-21)
(1.032 0.0241604 7.46408e-20)
(1.00788 0.0435355 0)
(1.00031 0.0401719 -2.92259e-20)
(1.00808 0.021846 0)
(1.01559 0.0157522 0)
(1.02296 0.00895291 0)
(1.02067 0.00557889 0)
(1.01312 0.0217659 6.01896e-20)
(1.02137 0.0138435 -1.3923e-19)
(1.02018 0.0355091 -5.91287e-20)
(1.01212 0.038495 -7.12457e-20)
(1.00782 0.0424783 1.13907e-19)
(1.04596 0.0446725 0)
(1.04189 0.0826305 0)
(-0.00975634 1.78729 -2.04768e-20)
(-0.0108572 1.77823 -1.76505e-21)
(-0.0100962 1.77985 0)
(-0.00329862 1.79032 2.16781e-20)
(-0.00577723 1.7856 2.98849e-21)
(-0.00297368 1.78934 -3.62404e-21)
(-0.00567901 1.80288 4.74404e-20)
(-0.00676619 1.80014 -2.92586e-21)
(-0.00620058 1.79928 1.37758e-20)
(-0.00428426 1.80023 -2.47329e-20)
(-0.00429953 1.80047 2.89664e-20)
(-0.0119613 1.78588 5.21821e-22)
(-0.0140859 1.77945 2.48675e-20)
(0.0082896 1.37843 -3.94539e-19)
(-0.143626 1.67622 -4.26291e-19)
(0.60052 1.29911 -6.31783e-19)
(0.402366 1.30827 -2.93463e-19)
(0.472325 1.34175 0)
(0.436608 1.94841 2.15961e-19)
(0.590097 1.79238 3.11984e-19)
(0.29133 1.80745 8.10112e-20)
(0.250123 2.01336 -5.46737e-19)
(0.26474 2.11461 5.73372e-19)
(0.388045 1.85984 0)
(0.345668 1.79804 -4.64138e-19)
(0.0915664 1.84153 8.83255e-19)
(0.191771 1.8177 -6.58166e-20)
(0.121357 1.8101 -1.20083e-18)
(0.918435 2.44785 -2.65237e-19)
(0.783653 2.21618 0)
(1.01269 -0.0146998 7.04589e-21)
(1.00794 -0.0138023 -5.71113e-21)
(1.00577 -0.0129337 -9.90188e-20)
(1.02006 -0.0137576 1.00509e-19)
(1.02462 -0.0139175 0)
(0.73169 1.12241 0)
(0.745442 1.10128 0)
(0.760612 1.08752 0)
(0.703201 1.13246 0)
(1.16293 2.62227 2.92815e-20)
(1.04972 2.31402 0)
(1.04613 2.31074 -2.80294e-21)
(0.775449 2.67519 0)
(1.02497 2.67961 1.49434e-19)
(1.04073 2.62213 -9.84013e-20)
(0.822152 0.145501 0)
(0.803318 0.157583 7.1063e-20)
(0.880018 0.125784 3.48135e-19)
(0.845479 0.101577 -1.465e-19)
(0.858324 0.0724252 -4.12949e-19)
(1.00604 0.215018 -1.49662e-19)
(0.91946 0.249436 -1.23832e-20)
(0.905723 0.270169 2.97907e-19)
(0.95849 0.180321 2.0622e-19)
(0.901569 0.168661 -4.23714e-19)
(0.879341 0.173362 5.68057e-20)
(0.938647 0.238315 -9.72422e-20)
(0.899919 0.186339 0)
(0.976463 0.161178 1.98234e-19)
(0.999399 0.17837 0)
(0.997029 0.185225 0)
(1.04287 0.0991507 4.41157e-20)
(1.01162 0.162029 -1.10129e-20)
(0.999587 0.225752 -2.73648e-20)
(1.04085 0.195794 0)
(1.00673 0.0258565 1.48931e-19)
(1.00435 0.034309 1.71231e-19)
(1.00925 0.0303174 -1.47213e-19)
(1.00972 0.0385054 -1.14963e-19)
(1.00193 0.0526528 -2.0605e-19)
(0.951576 0.13258 0)
(0.987901 0.0926554 0)
(0.963065 0.0404983 -1.50727e-19)
(0.922983 0.0556554 6.67021e-20)
(1.00732 0.0850439 1.67835e-19)
(1.00563 0.0993019 -1.47818e-19)
(1.01584 0.147578 1.42031e-19)
(1.01362 0.134496 0)
(1.02066 0.0793172 0)
(1.00887 0.0717447 -6.36817e-20)
(1.01425 0.06964 -1.30387e-19)
(0.696359 1.20464 -6.57063e-20)
(0.656585 1.45719 8.87713e-20)
(1.09969 2.74142 3.81348e-20)
(1.17148 3.12818 -7.16518e-20)
(1.22874 2.72217 5.016e-19)
(1.26875 2.69351 -2.74126e-19)
(1.24192 2.29315 -3.2634e-20)
(1.15824 3.02302 1.95907e-19)
(1.1809 2.97121 -1.81596e-19)
(1.15355 3.27683 -2.45592e-19)
(1.37582 2.97519 3.04649e-19)
(1.38759 2.91261 0)
(0.495316 0.865803 -8.57587e-21)
(0.259052 1.28486 2.52635e-19)
(0.484407 0.542795 3.07454e-19)
(0.348308 0.331152 3.65946e-19)
(0.559357 0.447846 3.49998e-19)
(0.536434 0.510469 -5.5076e-19)
(0.535078 0.507366 4.60368e-19)
(0.52157 0.466747 -1.85467e-19)
(0.506144 0.424654 4.26019e-19)
(0.786526 0.256293 -1.5517e-19)
(0.756743 0.286761 0)
(0.759358 0.260919 1.24378e-20)
(0.676159 0.524281 1.61774e-19)
(0.642032 0.485078 -5.99436e-19)
(0.609968 0.501168 2.24948e-20)
(0.625102 0.460152 0)
(0.66119 0.724624 1.00196e-19)
(0.754012 0.752815 2.42882e-20)
(0.708269 0.788533 -3.62635e-20)
(0.787858 0.791234 3.38079e-21)
(0.882874 0.824142 2.22006e-20)
(0.888836 0.838046 -2.2727e-20)
(0.789163 0.627545 -1.46238e-19)
(0.86236 0.715613 -3.15074e-21)
(0.929213 0.712357 0)
(0.934739 0.683438 1.97329e-20)
(0.954096 0.293506 3.86802e-20)
(1.07783 0.267984 -3.84791e-20)
(0.9937 0.236685 6.11639e-20)
(0.927976 0.334914 -9.54264e-20)
(0.960933 0.430883 0)
(1.04872 0.384037 0)
(0.815512 0.370025 2.05259e-21)
(0.842966 0.277316 0)
(0.839295 0.253537 1.64738e-19)
(0.874806 0.268357 6.68838e-21)
(0.868437 0.428431 5.51405e-19)
(0.823235 0.488549 1.31625e-19)
(0.823187 0.445315 -1.92528e-19)
(0.755945 0.426405 2.05573e-19)
(0.738751 0.435819 1.49187e-19)
(0.717615 0.440778 -1.46255e-19)
(1.02121 0.0125626 1.63011e-19)
(1.03014 0.00219492 0)
(1.02702 -0.000919347 1.10593e-19)
(1.01574 0.00319033 -2.46028e-19)
(1.03315 0.00638644 1.16164e-19)
(1.02989 0.00651965 -2.45471e-19)
(1.02565 0.00639655 0)
(1.02208 0.00756712 -5.12762e-20)
(1.02945 0.00468765 1.28801e-19)
(1.02479 0.00893687 -6.74038e-20)
(1.02318 0.00946291 4.85296e-20)
(-0.00576814 1.79979 0)
(-0.00876384 1.80171 0)
(-0.00493536 1.79415 0)
(-0.00247501 1.79508 0)
(-0.0364674 1.78724 -2.27411e-20)
(-0.0342936 1.77276 7.23474e-21)
(-0.0577333 1.82481 -3.30139e-20)
(-0.0650095 1.77305 -5.25687e-20)
(-0.00781564 1.79979 -5.4409e-20)
(-0.0183619 1.79699 3.89235e-20)
(-0.025704 1.79395 -6.60521e-21)
(-0.0140396 1.80772 1.23934e-20)
(-0.00848865 1.80472 1.28566e-21)
(-0.00707685 1.80423 -4.56996e-21)
(-0.0186619 1.81254 -2.10695e-19)
(-0.00736975 1.82857 0)
(-0.0219761 1.81831 1.17692e-19)
(-0.0278516 1.82073 7.89942e-20)
(-0.014001 1.946 -8.23148e-20)
(0.08161 1.90274 0)
(0.0670177 1.9417 -5.35434e-19)
(0.0858801 2.01732 3.73663e-19)
(0.00531378 1.88248 -2.31562e-19)
(-0.0188167 1.84584 1.29481e-19)
(-0.00371533 1.85553 0)
(-0.00683787 1.7983 -1.33874e-19)
(-0.00575635 1.80241 -1.78005e-19)
(-0.00521061 1.80093 0)
(-0.00330623 1.81051 -4.9121e-21)
(-0.0150031 1.81097 6.83304e-20)
(-0.0224966 1.79128 5.20771e-21)
(-0.0234881 1.79093 -9.47269e-20)
(-0.022226 1.78386 2.11583e-20)
(-0.018717 1.78093 3.74751e-20)
(-0.0145594 1.79467 0)
(-0.0175256 1.78313 0)
(-0.0111963 1.79632 2.81785e-20)
(-0.010403 1.78234 -8.89088e-21)
(-0.0164404 1.78281 0)
(-0.0161566 1.79815 2.25377e-20)
(-0.0127678 1.79829 -4.25009e-20)
(1.02209 0.0184581 0)
(1.02352 0.0168404 -1.48468e-20)
(1.02027 0.0126008 -1.09813e-19)
(1.02283 0.0184353 0)
(1.02293 0.0238028 0)
(1.02297 0.00676156 -5.93304e-21)
(1.02315 0.00765756 1.86565e-19)
(1.02005 0.00791435 2.26861e-19)
(1.01977 0.00805726 0)
(1.01855 0.00757864 0)
(1.01925 0.0118699 1.13648e-19)
(1.01778 0.0103193 0)
(1.01919 0.0102564 0)
(-0.0122915 1.78878 0)
(-0.0135665 1.77797 2.3465e-21)
(-0.0135819 1.78003 1.28594e-20)
(-0.0110109 1.78237 0)
(-0.0129389 1.7808 1.85128e-20)
(-0.0100939 1.78359 -8.41267e-21)
(-0.00898357 1.78288 0)
(0.181465 2.40663 0)
(-0.235797 1.79732 9.20641e-19)
(-0.102878 2.17523 0)
(0.0778494 1.41041 -1.31172e-18)
(0.271801 1.09483 0)
(0.125045 1.30763 5.98058e-19)
(1.08901 2.82193 6.18912e-21)
(0.953724 2.53614 3.29416e-19)
(0.814463 2.23577 -2.9887e-19)
(0.832244 2.3103 1.33433e-19)
(0.929438 2.64004 0)
(0.975048 2.58871 0)
(0.886183 2.40089 0)
(0.909309 2.27483 -4.11497e-19)
(0.406028 2.68937 2.74329e-20)
(0.742756 2.71684 1.68532e-20)
(0.757666 2.6725 -1.25041e-20)
(0.563262 2.03827 0)
(0.742938 2.18761 0)
(0.678202 2.00913 -2.93313e-19)
(0.582537 2.59693 0)
(0.633203 1.08421 0)
(0.492013 0.932823 -8.6556e-21)
(0.505775 0.971816 3.89373e-22)
(0.5238 1.09507 0)
(0.485797 1.09444 2.3233e-20)
(0.753996 0.852027 3.22829e-20)
(0.785466 0.992283 0)
(0.750775 0.942538 -1.05189e-19)
(0.61546 1.04623 0)
(0.6062 0.934718 0)
(1.15405 2.76891 4.5434e-20)
(1.12689 2.82363 5.18949e-20)
(0.988865 2.28781 -1.34904e-19)
(1.03553 2.30991 5.79041e-20)
(1.12889 2.7709 0)
(1.13809 2.75124 -7.16585e-20)
(1.05144 2.47966 -9.2872e-20)
(0.903044 2.15136 -2.27451e-20)
(0.817985 1.57553 0)
(0.755044 1.13524 5.77992e-20)
(0.734324 1.11725 0)
(0.846123 0.197396 0)
(0.817965 0.168964 0)
(0.78596 0.189741 0)
(0.842109 0.201362 -2.6061e-19)
(0.804975 0.208414 1.61965e-19)
(0.924125 0.0543709 -1.32501e-19)
(0.923686 0.0971914 0)
(0.890648 0.104536 6.44857e-20)
(0.883191 0.0616128 2.53028e-19)
(0.89074 0.0570753 -1.57164e-19)
(1.07713 3.36565 -9.4399e-19)
(1.1409 3.2946 0)
(1.1051 3.45322 -2.0585e-18)
(0.647138 3.60254 1.73537e-18)
(1.00747 3.13242 4.80279e-19)
(0.510226 0.839409 1.48998e-19)
(0.442382 0.871207 0)
(0.386604 0.550192 -6.85599e-20)
(0.40223 0.680285 3.00523e-19)
(0.49597 0.530397 -9.82525e-20)
(0.490679 0.54514 1.07886e-19)
(0.607081 0.526762 2.18035e-19)
(0.62604 0.567038 0)
(0.585555 0.607588 0)
(0.53541 0.548118 0)
(0.919998 0.571873 -6.68718e-20)
(0.85567 0.526126 -1.25611e-19)
(0.888112 0.566727 2.29803e-20)
(0.907147 0.478128 -9.19489e-20)
(0.988372 0.465097 0)
(0.979754 0.563587 8.1402e-21)
(0.788153 0.378822 -3.23104e-19)
(0.79916 0.356034 -3.84292e-19)
(0.771062 0.40106 2.53125e-19)
(0.772675 0.353629 -3.03168e-19)
(0.831405 0.288193 -2.06759e-19)
(0.811642 0.290262 2.59891e-19)
(1.03138 0.00801118 -1.17162e-19)
(1.03054 0.0101923 2.42196e-19)
(1.02317 0.015718 1.53123e-19)
(1.02604 0.0178153 -1.8062e-19)
(1.02127 0.022053 0)
(1.02462 0.00994733 -2.97495e-19)
(-0.0171893 1.80404 2.44457e-20)
(-0.024912 1.8024 0)
(-0.0239596 1.80122 2.21498e-19)
(-0.0221846 1.81588 -2.08354e-19)
(-0.0466435 1.81779 6.07642e-20)
(-0.0421322 1.81094 0)
(-0.011621 1.78789 0)
(-0.0125933 1.78286 -1.02524e-20)
(-0.01325 1.78001 8.78938e-21)
(-0.0125073 1.78035 1.66364e-21)
(-0.0115617 1.78713 -1.83329e-20)
(-0.0113245 1.78865 1.13542e-20)
(0.800025 1.65306 1.0211e-18)
(0.622547 1.76046 -1.09233e-18)
(0.227725 1.40428 8.51095e-19)
(0.248405 1.95578 -5.89643e-20)
(0.733135 1.06346 0)
(0.467627 1.05732 6.88005e-19)
(0.54946 1.08628 -6.66593e-19)
(0.381628 0.949239 -8.33798e-19)
(0.709804 1.01363 0)
(0.755353 1.06986 0)
(0.281423 2.65035 -4.14983e-20)
(0.397641 2.45487 8.80995e-19)
(0.51398 2.52835 -5.89881e-19)
(0.33994 2.38585 -1.81863e-19)
(0.0986379 2.48878 2.52295e-19)
(0.198316 2.27324 -6.87776e-19)
(0.916659 2.42348 1.67797e-19)
(0.954722 2.38767 0)
(0.801535 2.12065 -9.28487e-20)
(1.07054 2.76552 0)
(1.06396 2.79294 0)
(0.593267 2.36348 3.66018e-19)
(1.10445 3.14071 4.46457e-19)
(0.981549 3.02944 -5.18571e-19)
(0.34672 0.970513 0)
(0.348964 0.863792 -1.03267e-19)
(0.517375 0.773997 -3.78916e-20)
(0.368026 2.18942 0)
(0.43328 2.80612 -3.4085e-19)
(0.409952 2.53094 0)
(0.669234 0.670925 -2.07757e-19)
(0.722062 0.676776 2.90908e-19)
(0.717933 0.627407 -2.78562e-19)
(0.613263 0.635377 -3.42578e-20)
(0.660508 0.601091 -1.46993e-19)
(0.939405 2.82551 -3.38231e-19)
(1.00791 2.83773 2.58341e-19)
(0.527817 2.22588 -1.64229e-19)
(0.60658 1.84888 6.52157e-20)
(0.646047 1.93028 2.85359e-21)
(0.937418 2.47656 -1.21121e-19)
(0.954951 2.43818 -5.72816e-20)
(0.605318 1.85787 -7.46764e-22)
(0.421627 1.40609 -1.06375e-20)
)
;

boundaryField
{
    wall-4
    {
        type            noSlip;
    }
    velocity-inlet-5
    {
        type            fixedValue;
        value           uniform (1 0 0);
    }
    velocity-inlet-6
    {
        type            fixedValue;
        value           uniform (0 3 0);
    }
    pressure-outlet-7
    {
        type            zeroGradient;
    }
    wall-8
    {
        type            noSlip;
    }
    frontAndBackPlanes
    {
        type            empty;
    }
}


// ************************************************************************* //
