/*--------------------------------*- C++ -*----------------------------------*\
  =========                 |
  \\      /  F ield         | OpenFOAM: The Open Source CFD Toolbox
   \\    /   O peration     | Website:  https://openfoam.org
    \\  /    A nd           | Version:  6
     \\/     M anipulation  |
\*---------------------------------------------------------------------------*/
FoamFile
{
    version     2.0;
    format      ascii;
    class       volScalarField;
    location    "5";
    object      Ma;
}
// * * * * * * * * * * * * * * * * * * * * * * * * * * * * * * * * * * * * * //

dimensions      [0 0 0 0 0 0 0];

internalField   nonuniform List<scalar> 
5250
(
2.99989
2.99969
2.99909
2.99812
2.9949
2.98972
2.97281
2.94293
2.8602
2.67599
2.28602
1.47222
0.407708
0.101321
0.110907
0.301598
0.352008
0.31915
0.257596
0.199168
0.161362
0.13009
0.0969113
0.0630198
0.0436337
2.99989
2.99969
2.9991
2.99812
2.99492
2.98976
2.97292
2.94316
2.86072
2.67724
2.28833
1.47684
0.412816
0.0993118
0.12115
0.308303
0.356056
0.322429
0.262004
0.206477
0.170806
0.141193
0.110784
0.0825231
0.0689764
2.99989
2.9997
2.9991
2.99814
2.99496
2.98985
2.97314
2.94366
2.86184
2.68004
2.29358
1.48828
0.425617
0.0938045
0.139296
0.318782
0.362903
0.328905
0.271178
0.221248
0.190041
0.164177
0.139139
0.118185
0.109207
2.99989
2.9997
2.99912
2.99817
2.99503
2.98999
2.97351
2.94445
2.86363
2.68458
2.30214
1.50742
0.446462
0.0888732
0.162944
0.332544
0.37301
0.339739
0.286461
0.243402
0.21762
0.196392
0.177
0.162221
0.156453
2.99989
2.99971
2.99913
2.9982
2.99512
2.99019
2.97401
2.94555
2.86611
2.69094
2.3142
1.5347
0.475557
0.0907166
0.191097
0.349233
0.385839
0.354303
0.30667
0.270723
0.250283
0.234084
0.219854
0.209718
0.206367
2.99989
2.99971
2.99916
2.99825
2.99525
2.99044
2.97465
2.94697
2.86924
2.69922
2.32966
1.56991
0.515361
0.105935
0.223702
0.369023
0.401632
0.372953
0.331772
0.303097
0.28796
0.276504
0.267545
0.261861
0.260691
2.9999
2.99972
2.99918
2.9983
2.99539
2.99075
2.97539
2.94873
2.87298
2.7086
2.34898
1.60224
0.565428
0.137337
0.259309
0.388846
0.419225
0.394971
0.361341
0.339745
0.330351
0.324504
0.321077
0.320826
0.32345
2.9999
2.99973
2.99921
2.99837
2.99557
2.99111
2.97629
2.95084
2.8775
2.71997
2.37237
1.64247
0.628021
0.183616
0.297618
0.407707
0.438471
0.420229
0.395055
0.380515
0.377234
0.378075
0.382981
0.3915
0.402107
2.99991
2.99975
2.99925
2.99845
2.99577
2.99154
2.97736
2.95327
2.88293
2.73321
2.39999
1.69089
0.699533
0.242611
0.338256
0.426542
0.459171
0.447979
0.432256
0.42528
0.42872
0.437854
0.454691
0.479396
0.51306
2.99991
2.99976
2.9993
2.99854
2.99602
2.99204
2.97864
2.95601
2.88935
2.74853
2.43183
1.74839
0.7804
0.313306
0.378
0.445065
0.480404
0.478105
0.471341
0.472193
0.483317
0.505039
0.541487
0.595863
0.698843
2.99992
2.99978
2.99935
2.99864
2.9963
2.99261
2.98013
2.95921
2.89689
2.76633
2.46943
1.81749
0.875209
0.393941
0.411332
0.465242
0.503258
0.5092
0.509933
0.51865
0.540523
0.578646
0.638969
0.737758
0.89229
2.99993
2.9998
2.99941
2.99877
2.99663
2.99328
2.98188
2.96298
2.90574
2.78754
2.51448
1.90242
0.995732
0.483025
0.441512
0.486236
0.525559
0.539249
0.548057
0.565517
0.598776
0.652237
0.72713
0.842458
1.00039
2.99994
2.99982
2.99947
2.99891
2.99701
2.99406
2.98389
2.96743
2.91596
2.81277
2.56894
2.00724
1.149
0.583358
0.470591
0.505013
0.546398
0.569705
0.586437
0.611467
0.651951
0.710725
0.791867
0.898551
1.02658
2.99995
2.99985
2.99955
2.99906
2.99743
2.99491
2.98617
2.97221
2.9278
2.84022
2.63162
2.13287
1.32627
0.691502
0.50315
0.530031
0.572581
0.604241
0.625897
0.655247
0.697625
0.7548
0.830785
0.925174
1.03153
2.99996
2.99987
2.99962
2.99921
2.99786
2.99574
2.98845
2.97691
2.93941
2.87024
2.69116
2.29251
1.55796
0.810012
0.555144
0.575233
0.612145
0.644716
0.6673
0.695769
0.738044
0.791121
0.858864
0.939399
1.02967
2.99997
2.9999
2.99969
2.99935
2.99823
2.99649
2.99048
2.98105
2.94987
2.89471
2.74273
2.426
1.76327
0.918981
0.605244
0.623326
0.657172
0.689744
0.710521
0.734933
0.77264
0.822036
0.881884
0.951764
1.02849
2.99997
2.99992
2.99975
2.99947
2.99855
2.99713
2.99219
2.98452
2.95885
2.91322
2.79046
2.50917
1.95921
1.04352
0.674454
0.661734
0.69453
0.726331
0.75026
0.772871
0.805057
0.849054
0.901757
0.963272
1.0297
2.99998
2.99993
2.9998
2.99957
2.99883
2.99769
2.99367
2.98756
2.9665
2.93039
2.82926
2.59439
2.13746
1.2501
0.792493
0.696327
0.719786
0.748847
0.779089
0.8047
0.834287
0.873429
0.919551
0.973173
1.032
2.99999
2.99995
2.99984
2.99967
2.99909
2.99819
2.99503
2.9903
2.97364
2.94617
2.86586
2.68578
2.31765
1.52043
0.946265
0.749079
0.750192
0.773083
0.804259
0.833006
0.86169
0.896996
0.938081
0.98394
1.0354
2.99999
2.99996
2.99988
2.99975
2.99931
2.99863
2.99625
2.99269
2.98009
2.96018
2.89778
2.77505
2.48538
1.88903
1.13126
0.831275
0.799832
0.811936
0.836326
0.864253
0.890834
0.921307
0.957841
0.998056
1.0418
2.99999
2.99997
2.99991
2.99981
2.99948
2.99897
2.99718
2.99454
2.98495
2.97047
2.92233
2.83052
2.60988
2.09421
1.33659
0.919732
0.84084
0.849845
0.870441
0.896343
0.920807
0.94667
0.977703
1.01351
1.05183
3
2.99998
2.99994
2.99986
2.99962
2.99924
2.99792
2.99598
2.98888
2.97832
2.942
2.87742
2.70776
2.32207
1.6352
1.05947
0.892271
0.887306
0.902275
0.925488
0.950034
0.97339
0.998585
1.02897
1.06225
3
2.99999
2.99996
2.9999
2.99973
2.99946
2.99851
2.99712
2.99207
2.9846
2.95845
2.9151
2.78646
2.53899
1.95646
1.25316
0.968758
0.927247
0.935253
0.954641
0.977898
0.999807
1.02251
1.04794
1.07658
3
3
2.99997
2.99993
2.99981
2.99962
2.99897
2.99801
2.99448
2.98945
2.97116
2.94195
2.85347
2.66292
2.27053
1.50711
1.09627
0.974435
0.968768
0.97882
0.9983
1.02087
1.04285
1.06639
1.09198
3
3
2.99998
2.99996
2.99988
2.99975
2.99931
2.99866
2.99631
2.99294
2.98065
2.96178
2.90107
2.78734
2.50107
1.95884
1.28726
1.04878
1.01506
1.01358
1.02644
1.04605
1.06617
1.08712
1.10966
3.00001
3
2.99999
2.99997
2.99993
2.99981
2.99962
2.99895
2.99798
2.99443
2.98926
2.97154
2.93968
2.85264
2.65466
2.2496
1.5266
1.14634
1.04928
1.04279
1.05097
1.06865
1.0903
1.10997
1.13018
3.00001
3
3
2.99998
2.99996
2.99988
2.99975
2.99931
2.99869
2.99634
2.9931
2.98088
2.96265
2.90301
2.79154
2.51407
1.98383
1.34751
1.11515
1.08281
1.08239
1.09555
1.11552
1.13447
1.15275
3.00001
3
3
2.99999
2.99998
2.99992
2.99985
2.99957
2.99918
2.99772
2.99574
2.9883
2.97712
2.93995
2.86309
2.68408
2.24249
1.60084
1.20415
1.11296
1.1075
1.11843
1.13644
1.15867
1.17766
3.00001
3.00001
3
3
2.99999
2.99995
2.9999
2.99973
2.99948
2.99853
2.99725
2.99215
2.98534
2.95915
2.91794
2.79227
2.55035
1.98785
1.41475
1.17831
1.14031
1.14228
1.15622
1.17672
1.19832
3.00001
3.00001
3.00001
3
2.99999
2.99998
2.99994
2.99987
2.99964
2.99931
2.99811
2.9964
2.99041
2.98032
2.94883
2.87956
2.71417
2.31962
1.69713
1.29184
1.18172
1.16714
1.17524
1.19144
1.21248
3.00001
3.00001
3.00001
3
3
2.99999
2.99997
2.99991
2.99982
2.99948
2.99903
2.99726
2.9949
2.98578
2.97213
2.92531
2.8348
2.61439
2.13939
1.52871
1.26805
1.2136
1.20671
1.21294
1.22732
3.00001
3.00001
3.00001
3.00001
3
3
2.99998
2.99995
2.99989
2.99969
2.99942
2.99833
2.99698
2.99127
2.98399
2.95536
2.90882
2.77488
2.48586
1.94176
1.43282
1.25734
1.23504
1.23511
1.24527
3.00001
3.00001
3.00001
3.00001
3
3
2.99999
2.99997
2.99994
2.99982
2.99966
2.99901
2.99822
2.99475
2.99068
2.97287
2.94891
2.86324
2.71191
2.32698
1.74509
1.37452
1.27082
1.25693
1.25888
3.00001
3.00001
3.00001
3.00001
3.00001
3
3
2.99999
2.99997
2.9999
2.99981
2.99946
2.99902
2.99713
2.99495
2.98522
2.97312
2.92478
2.84594
2.63161
2.19633
1.62718
1.36003
1.29673
1.28283
3.00001
3.00001
3.00001
3.00001
3.00001
3.00001
3
3
2.99999
2.99995
2.9999
2.99972
2.99949
2.99852
2.99738
2.99231
2.98617
2.96034
2.92152
2.79843
2.5607
2.05137
1.57011
1.35717
1.31066
3.00001
3.00001
3.00001
3.00001
3.00001
3.00001
3.00001
3
3
2.99999
2.99996
2.99992
2.99978
2.99957
2.99896
2.9977
2.99438
2.98558
2.96149
2.90275
2.75386
2.42767
1.89185
1.48405
1.34071
3.00001
3.00001
3.00001
3.00001
3.00001
3.00001
3.00001
3.00001
3
3
2.99999
2.99997
2.99993
2.99984
2.99962
2.99927
2.99786
2.99522
2.98443
2.95712
2.88331
2.71182
2.31398
1.78166
1.41938
3.00001
3.00001
3.00001
3.00001
3.00001
3.00001
3.00001
3.00001
3.00001
3
3
2.99997
2.99995
2.99982
2.99969
2.99899
2.99829
2.99438
2.99016
2.96884
2.94037
2.83168
2.64677
2.17931
1.63959
3.00001
3.00001
3.00001
3.00001
3.00001
3.00001
3.00001
3.00001
3.00001
3.00001
3
3
2.99998
2.99995
2.99987
2.99966
2.99934
2.99762
2.99645
2.98671
2.96495
2.91106
2.74171
2.38137
1.72528
3.00001
3.00001
3.00001
3.00001
3.00001
3.00001
3.00001
3.00001
3.00001
3.00001
3
3
2.99999
2.99998
2.99992
2.99978
2.99934
2.99856
2.99432
2.99411
2.96787
2.96481
2.80723
2.47252
1.72963
3.00001
3.00001
3.00001
3.00001
3.00001
3.00001
3.00001
3.00001
3.00001
3.00001
3.00001
3
3
2.99999
2.99997
2.99982
2.9996
2.99845
2.99714
2.98668
2.98578
2.92332
2.78516
2.42612
1.68655
3.00001
3.00001
3.00001
3.00001
3.00001
3.00001
3.00001
3.00001
3.00001
3.00001
3.00001
3.00001
3
2.99999
2.99995
2.9999
2.99947
2.99881
2.99391
2.98599
2.94182
2.93658
2.84375
2.50068
1.71381
3.00001
3.00001
3.00001
3.00001
3.00001
3.00001
3.00001
3.00001
3.00001
3.00001
3.00001
3.00001
3
2.99999
2.99998
2.99988
2.99972
2.99878
2.99764
2.98771
2.98778
2.92557
2.79684
2.44567
1.6971
3.00001
3.00001
3.00001
3.00001
3.00001
3.00001
3.00001
3.00001
3.00001
3.00001
3.00001
3.00001
3
3
2.99997
2.99993
2.9996
2.99903
2.99595
2.99453
2.97084
2.97316
2.8239
2.50625
1.75362
3.00001
3.00001
3.00001
3.00001
3.00001
3.00001
3.00001
3.00001
3.00001
3.00001
3.00001
3.00001
3
3
2.99998
2.99994
2.99966
2.99912
2.99601
2.99656
2.97016
2.97815
2.8362
2.5237
1.77822
3.00001
3.00001
3.00001
3.00001
3.00001
3.00001
3.00001
3.00001
3.00001
3.00001
3.00001
3.00001
3
3
2.99998
2.99996
2.99971
2.99924
2.9967
2.99537
2.97437
2.973
2.83706
2.54045
1.81163
3.00001
3.00001
3.00001
3.00001
3.00001
3.00001
3.00001
3.00001
3.00001
3.00001
3.00001
3.00001
3.00001
3
2.99999
2.99998
2.99975
2.99939
2.99727
2.99558
2.97465
2.97544
2.84527
2.56623
1.85618
3.00001
3.00001
3.00001
3.00001
3.00001
3.00001
3.00001
3.00001
3.00001
3.00001
3.00001
3.00001
3
3
2.99999
2.99996
2.99976
2.99946
2.99762
2.99515
2.97587
2.97597
2.84691
2.59865
1.90648
3.00001
3.00001
3.00001
3.00001
3.00001
3.00001
3.00001
3.00001
3.00001
3.00001
3.00001
3.00001
3
3
2.99998
2.99987
2.99965
2.99861
2.99684
2.98706
2.98458
2.95617
2.87194
2.6015
2.04241
3.00001
3.00001
3.00001
3.00001
3.00001
3.00001
3.00001
3.00001
3.00001
3.00001
3.00001
3.00001
3
3
2.99998
2.99996
2.99977
2.99946
2.99781
2.99541
2.97902
2.97097
2.86808
2.64145
2.01754
1.10243
1.22613
1.13122
0.785043
0.365445
0.324999
0.146312
0.237164
0.328268
0.401383
0.447098
0.477605
0.503819
0.532552
0.561265
0.58559
0.606244
0.623331
0.638939
0.654667
0.669495
0.684064
0.698742
0.711637
0.720408
0.725172
0.727976
0.726549
0.717041
0.697034
0.667697
0.630182
0.587297
0.54123
0.493848
0.446511
0.399601
0.354699
0.311843
0.271116
0.232755
0.195461
0.159327
0.123363
0.0889934
0.0563345
0.0310864
0.0391233
0.0601002
0.0846432
0.112184
0.140311
0.167885
0.193647
0.218967
0.245538
0.272867
0.298981
0.324593
0.349199
0.373785
0.397468
0.421266
0.444085
0.467129
0.489242
0.511521
0.532907
0.554518
0.575196
0.596126
0.616139
0.636379
0.655659
0.675143
0.693646
0.712192
0.729815
0.747173
0.763669
0.779537
0.794501
0.808528
0.821511
0.833321
0.843873
0.853056
0.860624
0.867123
0.873427
0.879348
0.884655
0.889336
0.894187
0.899543
0.905282
0.911505
0.917835
0.9241
0.931841
1.14546
1.20265
1.11251
0.867601
0.588629
0.345079
0.276979
0.202937
0.14727
0.09028
0.0734864
0.143633
0.213702
0.274759
0.323191
0.357998
0.381042
0.398227
0.415229
0.432885
0.4498
0.4655
0.480546
0.494627
0.504692
0.50956
0.511453
0.508885
0.496463
0.473585
0.440817
0.400159
0.354912
0.307877
0.261693
0.216671
0.174897
0.134881
0.0979917
0.066734
0.048806
0.0592518
0.07971
0.103989
0.131114
0.158872
0.186409
0.212527
0.237591
0.262392
0.287886
0.312965
0.337986
0.361406
0.384377
0.407721
0.432209
0.455685
0.478769
0.500883
0.52303
0.54448
0.56597
0.586778
0.607587
0.627734
0.647926
0.667457
0.687123
0.706048
0.725157
0.743515
0.761957
0.779774
0.797521
0.814671
0.831695
0.847969
0.864041
0.87926
0.893998
0.9079
0.920967
0.933127
0.94426
0.954241
0.963097
0.970533
0.976955
0.983309
0.989322
0.995004
1.00019
1.0054
1.01109
1.01684
1.02313
1.02927
1.03526
1.04243
1.1307
1.18341
1.16289
1.06761
0.928105
0.781339
0.683338
0.619559
0.553794
0.476218
0.399137
0.323918
0.257001
0.19561
0.13662
0.0835922
0.0500642
0.0760423
0.118102
0.156252
0.18736
0.21262
0.23411
0.252961
0.267827
0.274165
0.273583
0.266218
0.250588
0.225767
0.192712
0.156569
0.120797
0.095041
0.088303
0.105266
0.121949
0.146739
0.173038
0.20014
0.22721
0.253406
0.278083
0.302302
0.326426
0.350334
0.373549
0.396075
0.417659
0.439093
0.460453
0.481891
0.503002
0.52322
0.542752
0.562514
0.583211
0.603819
0.623754
0.643159
0.662291
0.681109
0.699812
0.718152
0.736445
0.754298
0.772219
0.789598
0.807087
0.824053
0.841032
0.857592
0.874062
0.890122
0.906098
0.921536
0.936883
0.951597
0.966022
0.979819
0.993025
1.00557
1.01733
1.02822
1.0383
1.04731
1.05547
1.06244
1.06857
1.07445
1.08031
1.08596
1.09145
1.09686
1.10244
1.10792
1.11394
1.11971
1.12519
1.1316
1.12456
1.18698
1.20933
1.18502
1.1222
1.04388
0.971901
0.918751
0.867309
0.807828
0.741324
0.672341
0.610865
0.553115
0.495679
0.438084
0.381912
0.327695
0.278634
0.233172
0.19007
0.149704
0.112827
0.078727
0.0495027
0.0253616
0.00426885
0.019463
0.0455028
0.0920377
0.135792
0.179605
0.220068
0.257305
0.291732
0.321362
0.347657
0.372522
0.396381
0.419131
0.441022
0.461699
0.481345
0.500275
0.51909
0.537415
0.555568
0.572937
0.59009
0.606777
0.623723
0.640539
0.65751
0.673683
0.689348
0.704934
0.721721
0.738712
0.755517
0.771633
0.78778
0.803511
0.819491
0.835001
0.850831
0.866154
0.881763
0.896938
0.912288
0.927278
0.942339
0.957022
0.971769
0.98605
1.00042
1.01426
1.02806
1.04132
1.05427
1.06664
1.07852
1.08962
1.10018
1.10984
1.11887
1.12705
1.13449
1.14106
1.14705
1.15253
1.15817
1.16382
1.16962
1.17512
1.1808
1.18624
1.19203
1.19721
1.20197
1.20783
1.11511
1.18403
1.22675
1.23988
1.22344
1.18659
1.14406
1.10776
1.07435
1.03684
0.99191
0.944646
0.895333
0.845027
0.793559
0.741279
0.690443
0.638966
0.592014
0.547833
0.505351
0.463926
0.423562
0.385348
0.350952
0.323092
0.305602
0.29497
0.309381
0.341693
0.382882
0.425983
0.467233
0.503485
0.533239
0.556919
0.576539
0.594153
0.611038
0.627112
0.642811
0.657402
0.671544
0.684871
0.698207
0.711067
0.724018
0.736467
0.748898
0.761036
0.773468
0.785938
0.798854
0.811269
0.823232
0.835018
0.847838
0.86133
0.874963
0.888036
0.901354
0.914289
0.927711
0.940709
0.954072
0.967004
0.980173
0.993057
1.00617
1.01908
1.03224
1.04511
1.05814
1.07072
1.08329
1.09539
1.10734
1.11889
1.13023
1.14106
1.15159
1.16131
1.1706
1.17892
1.1868
1.19379
1.20054
1.20663
1.21263
1.21827
1.22431
1.23027
1.2367
1.24271
1.24884
1.25433
1.26001
1.26466
1.26882
1.27384
1.1063
1.17361
1.2265
1.2588
1.26922
1.26176
1.24302
1.22394
1.20495
1.18427
1.15992
1.13117
1.09855
1.0631
1.02497
0.985078
0.943086
0.902898
0.860766
0.818919
0.776936
0.735639
0.695085
0.656074
0.620059
0.588488
0.561563
0.545348
0.550951
0.578363
0.616512
0.65789
0.696338
0.73037
0.756415
0.772949
0.782953
0.791133
0.79853
0.806548
0.814958
0.823583
0.83222
0.840769
0.849379
0.857854
0.866379
0.874668
0.883112
0.891414
0.900082
0.908933
0.918405
0.92764
0.936696
0.945527
0.955367
0.965905
0.977136
0.987848
0.998798
1.00942
1.02055
1.03162
1.04312
1.05453
1.06608
1.07742
1.08879
1.09993
1.11124
1.12237
1.13382
1.14509
1.15653
1.16761
1.17849
1.18868
1.19858
1.20764
1.21653
1.22466
1.23263
1.23988
1.24703
1.25345
1.2599
1.26586
1.27188
1.2777
1.28386
1.2902
1.29698
1.30363
1.31039
1.31614
1.3221
1.32654
1.33028
1.33492
1.09847
1.16352
1.21722
1.25931
1.28581
1.2968
1.2976
1.29308
1.2864
1.27897
1.26774
1.25411
1.23533
1.21457
1.18968
1.16323
1.13357
1.10241
1.06992
1.03656
1.0009
0.963187
0.922909
0.883664
0.844914
0.807199
0.76798
0.744612
0.745868
0.770715
0.807366
0.849089
0.887191
0.919018
0.943812
0.958344
0.962715
0.96137
0.958835
0.957641
0.958411
0.960866
0.964382
0.968268
0.972654
0.977154
0.982065
0.987066
0.992506
0.998145
1.00447
1.01108
1.01838
1.0254
1.03219
1.03851
1.04572
1.05373
1.06297
1.07209
1.08161
1.09075
1.10018
1.10935
1.11889
1.12837
1.13826
1.1481
1.15826
1.16829
1.17851
1.18856
1.19858
1.20837
1.21803
1.22737
1.23669
1.24549
1.25421
1.26217
1.26985
1.27677
1.2835
1.28955
1.29573
1.30144
1.30765
1.31364
1.32038
1.32688
1.33416
1.34105
1.34885
1.35567
1.36323
1.3693
1.37556
1.37997
1.38339
1.3873
1.09252
1.15296
1.20729
1.25167
1.28717
1.31041
1.32396
1.33135
1.33485
1.33651
1.3361
1.33234
1.3258
1.3155
1.30267
1.28627
1.26796
1.24662
1.22325
1.19704
1.1679
1.13452
1.09874
1.06118
1.01849
0.968177
0.916306
0.888941
0.890038
0.914078
0.950796
0.993055
1.03381
1.06652
1.09145
1.10782
1.11456
1.1128
1.10494
1.0955
1.088
1.08252
1.07976
1.07841
1.07864
1.07972
1.08136
1.0835
1.08624
1.0892
1.09276
1.09654
1.10116
1.10595
1.11093
1.11567
1.12109
1.12725
1.13446
1.14178
1.1494
1.15698
1.16493
1.17289
1.18127
1.18967
1.19847
1.20727
1.21628
1.22518
1.2341
1.2429
1.25177
1.26043
1.26916
1.27741
1.28563
1.29322
1.3006
1.30729
1.31366
1.31935
1.32489
1.33005
1.3354
1.34086
1.34678
1.35316
1.36015
1.36742
1.37548
1.38325
1.39181
1.39935
1.40763
1.4142
1.42116
1.42591
1.4295
1.4331
1.0894
1.14313
1.1959
1.24189
1.28061
1.31135
1.33403
1.3499
1.36173
1.37022
1.37685
1.38088
1.38245
1.38124
1.37701
1.36908
1.35964
1.34608
1.33066
1.31043
1.28533
1.25661
1.22385
1.18635
1.13444
1.06898
1.00848
0.984304
0.989758
1.01309
1.04919
1.09391
1.13822
1.17191
1.19567
1.21229
1.22167
1.22425
1.22015
1.21027
1.19714
1.18451
1.1745
1.1675
1.16323
1.16063
1.15959
1.1592
1.15967
1.16052
1.16189
1.1638
1.16646
1.16963
1.17322
1.17652
1.18023
1.18466
1.19033
1.19655
1.20329
1.21007
1.21704
1.22395
1.23105
1.23827
1.24577
1.25356
1.26168
1.26994
1.27834
1.28651
1.29467
1.3024
1.31001
1.31715
1.32407
1.33053
1.33674
1.3425
1.348
1.35313
1.35812
1.36301
1.36821
1.37376
1.38014
1.38705
1.395
1.40331
1.41265
1.42152
1.43123
1.43961
1.44875
1.45593
1.46354
1.46873
1.47269
1.4761
1.08948
1.13753
1.18517
1.23032
1.27048
1.30497
1.33288
1.35523
1.37308
1.38748
1.39932
1.40918
1.41662
1.42189
1.42409
1.42402
1.42066
1.41369
1.40313
1.38672
1.36428
1.33922
1.30682
1.26186
1.19372
1.11347
1.05835
1.04497
1.05576
1.07969
1.11722
1.16377
1.20752
1.24276
1.26824
1.28518
1.29675
1.30299
1.30431
1.30011
1.29115
1.27789
1.26211
1.24827
1.2367
1.22851
1.22277
1.21937
1.21746
1.21669
1.21665
1.21739
1.21872
1.22074
1.22322
1.22564
1.22817
1.23124
1.23539
1.24059
1.24632
1.25249
1.2589
1.26555
1.27237
1.27921
1.28622
1.2932
1.30042
1.30767
1.31513
1.32256
1.32998
1.33713
1.344
1.3504
1.35631
1.36172
1.36662
1.37128
1.37573
1.38024
1.38499
1.38995
1.3956
1.4017
1.40878
1.41652
1.42531
1.4346
1.44465
1.4543
1.46467
1.4739
1.48382
1.49179
1.50012
1.50603
1.5105
1.51387
1.09364
1.13633
1.17956
1.2215
1.26081
1.2961
1.3271
1.35296
1.37507
1.39362
1.40956
1.42324
1.43504
1.44478
1.45218
1.4569
1.45829
1.45624
1.44722
1.43291
1.41262
1.38726
1.348
1.28621
1.19866
1.12061
1.0853
1.08394
1.09787
1.126
1.16647
1.21067
1.25047
1.28363
1.31042
1.33053
1.34422
1.35312
1.35853
1.35946
1.35603
1.34897
1.33692
1.3206
1.30441
1.2902
1.27944
1.27147
1.26649
1.26315
1.26174
1.26087
1.26116
1.26219
1.26382
1.26577
1.26785
1.27036
1.27377
1.27822
1.28338
1.28887
1.29469
1.30063
1.30685
1.3132
1.31977
1.32642
1.33318
1.33997
1.34676
1.3535
1.36005
1.36637
1.3723
1.37789
1.38295
1.38766
1.39189
1.39591
1.39985
1.40392
1.40859
1.41394
1.42026
1.42758
1.43574
1.44479
1.45459
1.4645
1.47499
1.48504
1.49591
1.50564
1.5162
1.52509
1.53425
1.54119
1.54655
1.55032
1.0992
1.13762
1.17692
1.21561
1.25321
1.2881
1.32003
1.34822
1.37262
1.39409
1.41284
1.42948
1.44372
1.45655
1.46669
1.47473
1.4784
1.47721
1.46806
1.4536
1.43295
1.3999
1.34398
1.25695
1.16774
1.11474
1.10298
1.10944
1.12753
1.159
1.19931
1.23786
1.27268
1.30317
1.32966
1.3517
1.36951
1.38271
1.39139
1.39616
1.3979
1.39648
1.39165
1.38193
1.36738
1.35087
1.33509
1.32203
1.31197
1.30539
1.30111
1.2992
1.29834
1.29884
1.30009
1.30187
1.30364
1.30557
1.30802
1.31147
1.31588
1.32087
1.32629
1.332
1.33796
1.34408
1.35032
1.35667
1.36301
1.36933
1.37549
1.38148
1.38706
1.39236
1.39712
1.40155
1.40553
1.40935
1.4131
1.41687
1.42092
1.42533
1.43032
1.43628
1.44305
1.45112
1.46019
1.47022
1.48092
1.49167
1.50339
1.51413
1.52596
1.53618
1.54708
1.55624
1.56528
1.57266
1.57807
1.58219
1.10818
1.14228
1.17757
1.21315
1.24813
1.28187
1.31341
1.34247
1.36845
1.39173
1.41204
1.43055
1.44662
1.46073
1.47215
1.48059
1.48375
1.47963
1.4693
1.45192
1.42298
1.37023
1.28705
1.19588
1.13461
1.11506
1.11697
1.12689
1.14925
1.18209
1.21692
1.24972
1.28003
1.30776
1.33328
1.35617
1.37645
1.39361
1.40718
1.41683
1.42253
1.42491
1.42534
1.42257
1.41594
1.40469
1.38969
1.37416
1.36041
1.34917
1.34139
1.33625
1.33376
1.33277
1.33342
1.33485
1.33672
1.33856
1.34068
1.34346
1.34715
1.35155
1.35638
1.36156
1.36701
1.37266
1.37842
1.38421
1.3899
1.39548
1.40076
1.40581
1.41045
1.41483
1.41875
1.42245
1.4258
1.42913
1.43238
1.43599
1.4399
1.44474
1.45033
1.45718
1.46518
1.47435
1.48439
1.49485
1.5061
1.51713
1.52908
1.54017
1.55217
1.56277
1.57401
1.58364
1.59318
1.60098
1.60694
1.61126
1.12058
1.15065
1.18252
1.21461
1.24705
1.27896
1.30952
1.33823
1.36464
1.38864
1.41014
1.42896
1.44569
1.4595
1.47015
1.47535
1.47385
1.46575
1.45089
1.42358
1.37102
1.29172
1.20408
1.14466
1.1208
1.11928
1.12553
1.14163
1.16657
1.19508
1.2231
1.25048
1.27665
1.30228
1.32675
1.35004
1.37173
1.39125
1.40856
1.42297
1.43461
1.44246
1.4471
1.44861
1.4489
1.44579
1.43841
1.42707
1.41295
1.39937
1.38731
1.37856
1.37226
1.36914
1.3677
1.36824
1.36964
1.37142
1.37317
1.37528
1.37811
1.38189
1.38618
1.39085
1.39572
1.40073
1.4058
1.41084
1.41579
1.42054
1.42494
1.42909
1.43276
1.43618
1.4391
1.44196
1.44461
1.44753
1.45066
1.45442
1.45889
1.46439
1.47101
1.47887
1.48782
1.49755
1.50798
1.51887
1.53045
1.54181
1.554
1.56522
1.57745
1.58808
1.59941
1.60903
1.61856
1.62636
1.63237
1.63655
1.1346
1.16158
1.19003
1.21984
1.24965
1.27917
1.30827
1.33598
1.3621
1.38593
1.40753
1.4263
1.44171
1.45359
1.45891
1.45817
1.45133
1.43668
1.40825
1.35384
1.27604
1.19624
1.14386
1.12155
1.11908
1.12315
1.13493
1.15392
1.17625
1.19875
1.22147
1.24439
1.26797
1.29171
1.31547
1.33886
1.36136
1.38269
1.40252
1.42042
1.43643
1.44968
1.46022
1.46722
1.47145
1.47357
1.47423
1.471
1.46317
1.4518
1.43875
1.4265
1.41617
1.40902
1.40428
1.40251
1.40228
1.40352
1.40519
1.40679
1.40873
1.41131
1.41474
1.41863
1.4228
1.42709
1.43137
1.43557
1.43953
1.44321
1.44645
1.44939
1.45189
1.45419
1.45629
1.45848
1.46085
1.46356
1.46692
1.47099
1.47618
1.4826
1.49021
1.49894
1.50834
1.51867
1.52948
1.54074
1.55248
1.56394
1.57615
1.58724
1.59936
1.60979
1.62101
1.63042
1.63982
1.64754
1.65345
1.65769
1.15211
1.17611
1.20166
1.22848
1.25614
1.28355
1.31064
1.33638
1.36129
1.38399
1.4044
1.42117
1.43395
1.43871
1.43735
1.43019
1.41413
1.38254
1.3244
1.24862
1.17854
1.13522
1.11812
1.11663
1.11994
1.12966
1.14481
1.16166
1.17892
1.19678
1.21574
1.23595
1.25756
1.27995
1.30314
1.32629
1.34944
1.37178
1.39349
1.41386
1.43313
1.45022
1.46582
1.47836
1.48861
1.49508
1.49983
1.50228
1.50274
1.49902
1.49049
1.4784
1.46631
1.45481
1.44638
1.44021
1.43743
1.43609
1.43669
1.43777
1.43914
1.44069
1.44284
1.44556
1.44885
1.4522
1.45548
1.45856
1.4613
1.46365
1.46565
1.46734
1.46875
1.47017
1.47172
1.47351
1.4757
1.47855
1.48222
1.48719
1.49334
1.5008
1.50909
1.51838
1.52833
1.53898
1.55015
1.5614
1.57334
1.58465
1.59693
1.60779
1.61969
1.6299
1.64072
1.64989
1.65873
1.66608
1.67144
1.67542
1.17212
1.193
1.2155
1.23943
1.26443
1.2897
1.31507
1.33943
1.36206
1.38244
1.39947
1.41199
1.41598
1.41289
1.40439
1.3851
1.34891
1.28802
1.21636
1.15683
1.12369
1.11298
1.11351
1.11741
1.12666
1.13953
1.15248
1.16561
1.17926
1.19442
1.21116
1.22996
1.2501
1.27183
1.29413
1.31723
1.34018
1.36324
1.38578
1.40787
1.42899
1.44894
1.4676
1.48428
1.49918
1.51104
1.52025
1.52633
1.53128
1.53313
1.53281
1.52775
1.51823
1.50592
1.4941
1.48373
1.47644
1.47138
1.46938
1.46832
1.46882
1.46962
1.47066
1.47183
1.47344
1.4754
1.47749
1.47931
1.48067
1.48177
1.48265
1.48324
1.48371
1.48459
1.48607
1.48782
1.49009
1.49325
1.49791
1.50388
1.51094
1.51898
1.52781
1.53761
1.54794
1.55895
1.57027
1.58151
1.5933
1.60434
1.6164
1.62695
1.63861
1.64848
1.65906
1.66786
1.6763
1.68322
1.68801
1.69168
1.19588
1.21446
1.2338
1.25405
1.27566
1.2977
1.32012
1.34157
1.3614
1.37795
1.38902
1.39127
1.38579
1.375
1.35156
1.30893
1.2466
1.18323
1.13663
1.11332
1.10803
1.11067
1.11724
1.12738
1.13832
1.14878
1.15866
1.16921
1.18094
1.19466
1.21017
1.22785
1.24691
1.26774
1.28923
1.31188
1.33445
1.35768
1.38036
1.40334
1.42519
1.44695
1.46707
1.48665
1.50419
1.52037
1.53385
1.54487
1.55302
1.55939
1.56338
1.56453
1.56283
1.55595
1.54504
1.53291
1.52152
1.51213
1.50575
1.50166
1.49965
1.49873
1.49835
1.49834
1.49858
1.4989
1.49925
1.49948
1.49954
1.49927
1.49884
1.49853
1.49865
1.49984
1.50139
1.50336
1.50619
1.51029
1.51592
1.52252
1.53021
1.53891
1.54835
1.55853
1.56914
1.58018
1.59158
1.60276
1.61447
1.6252
1.63698
1.64719
1.65851
1.66787
1.67787
1.68595
1.69364
1.69972
1.70356
1.70675
1.21713
1.23561
1.25352
1.27197
1.29025
1.30858
1.32619
1.34298
1.35676
1.36456
1.36446
1.35623
1.34121
1.31203
1.26315
1.20301
1.15071
1.11802
1.10567
1.10561
1.11028
1.11931
1.13065
1.14064
1.14908
1.15698
1.16496
1.17406
1.18477
1.19753
1.21223
1.22879
1.2469
1.26649
1.28721
1.3087
1.33092
1.35331
1.37619
1.39882
1.42137
1.44353
1.46514
1.48618
1.50594
1.52474
1.5417
1.55713
1.56938
1.57969
1.58732
1.59331
1.59576
1.59618
1.59251
1.58386
1.57167
1.55959
1.54865
1.54029
1.53421
1.53021
1.52757
1.52563
1.52403
1.52253
1.52119
1.51959
1.5183
1.51682
1.51558
1.51468
1.51545
1.51676
1.51854
1.5211
1.52485
1.52998
1.53637
1.54373
1.55205
1.56115
1.57086
1.58117
1.59184
1.60274
1.61392
1.62478
1.63618
1.64655
1.65775
1.66745
1.67798
1.68675
1.69591
1.70312
1.7099
1.71497
1.7176
1.72021
1.232
1.2506
1.26828
1.28547
1.30244
1.31779
1.33146
1.34036
1.34244
1.33726
1.32512
1.30333
1.26529
1.21188
1.15823
1.11899
1.10075
1.09744
1.10255
1.11165
1.12417
1.13584
1.14522
1.1525
1.15857
1.16463
1.17158
1.17996
1.19009
1.20218
1.21607
1.2317
1.24882
1.2674
1.28711
1.30776
1.32919
1.35114
1.37359
1.39612
1.41898
1.44145
1.46404
1.4857
1.5072
1.52746
1.54715
1.56505
1.58167
1.59555
1.60716
1.6162
1.62351
1.62783
1.62896
1.62757
1.62099
1.61017
1.5973
1.58468
1.57357
1.56494
1.5582
1.55328
1.54924
1.54572
1.5425
1.53941
1.53679
1.5344
1.53283
1.53233
1.53371
1.53522
1.53731
1.54055
1.5454
1.55123
1.55828
1.56609
1.57477
1.58406
1.59384
1.60411
1.61462
1.62539
1.63642
1.64701
1.658
1.66798
1.67846
1.68764
1.69725
1.70526
1.71338
1.71948
1.72501
1.72866
1.72992
1.7319
1.24598
1.26314
1.2788
1.29375
1.30726
1.3184
1.3241
1.32191
1.31174
1.29488
1.26382
1.2159
1.16117
1.11658
1.0928
1.08572
1.09035
1.10003
1.11513
1.13079
1.14338
1.15264
1.15922
1.16425
1.1689
1.17407
1.18044
1.18835
1.19791
1.20927
1.22233
1.23707
1.25323
1.2708
1.28957
1.30945
1.33014
1.35155
1.37345
1.39581
1.41836
1.44116
1.46379
1.48638
1.50849
1.53015
1.55108
1.57113
1.58987
1.607
1.62219
1.63454
1.645
1.65261
1.65805
1.65967
1.65973
1.6557
1.64592
1.63226
1.61716
1.60322
1.59147
1.58179
1.57428
1.56791
1.56273
1.5582
1.55443
1.55168
1.55022
1.55075
1.55193
1.55368
1.55646
1.56054
1.56634
1.57296
1.58056
1.58866
1.59748
1.60681
1.61646
1.6266
1.63687
1.64735
1.65783
1.66802
1.67829
1.68788
1.69758
1.7063
1.71482
1.72213
1.72875
1.73414
1.73778
1.74004
1.73992
1.74179
1.25996
1.27621
1.28928
1.29968
1.30649
1.30632
1.29819
1.28448
1.25841
1.21677
1.16193
1.11206
1.08068
1.06938
1.07268
1.08244
1.09957
1.12055
1.13833
1.15244
1.16262
1.16948
1.17435
1.17833
1.18238
1.18708
1.19294
1.20022
1.20913
1.21965
1.23181
1.24559
1.26094
1.27774
1.29572
1.31477
1.33467
1.3554
1.37672
1.39861
1.42081
1.44332
1.46584
1.48847
1.51077
1.53285
1.5544
1.57539
1.59538
1.61455
1.63172
1.6478
1.66073
1.67178
1.67962
1.68542
1.68752
1.68797
1.68528
1.6766
1.66274
1.64553
1.62887
1.6138
1.60107
1.59116
1.58313
1.57727
1.57299
1.57017
1.56919
1.57045
1.57185
1.57397
1.57756
1.58274
1.58912
1.59606
1.60394
1.61218
1.62099
1.63015
1.63963
1.64933
1.65914
1.66902
1.67897
1.68868
1.69827
1.70736
1.71611
1.72406
1.73135
1.73752
1.74251
1.74649
1.74816
1.74885
1.74775
1.74965
1.26986
1.28406
1.2964
1.2992
1.2926
1.27786
1.25449
1.21604
1.16054
1.10431
1.06413
1.04733
1.0472
1.05568
1.07399
1.09905
1.12221
1.14219
1.15804
1.16981
1.17801
1.18372
1.18815
1.19199
1.19608
1.20064
1.20625
1.21302
1.22129
1.23093
1.24227
1.25507
1.2695
1.28527
1.30243
1.32059
1.33975
1.35969
1.38046
1.40181
1.42358
1.44569
1.46791
1.49039
1.5127
1.53492
1.5569
1.57829
1.59936
1.61932
1.63847
1.65608
1.67212
1.68581
1.69718
1.70503
1.71017
1.71232
1.71304
1.711
1.70296
1.68967
1.67166
1.65298
1.63512
1.62041
1.60886
1.60052
1.5951
1.59233
1.59207
1.59332
1.595
1.59795
1.60235
1.60802
1.61444
1.62172
1.62935
1.63769
1.64621
1.65521
1.66416
1.67331
1.68255
1.69172
1.70106
1.71006
1.71895
1.7273
1.73499
1.74204
1.74781
1.75273
1.75607
1.75779
1.7579
1.75682
1.75497
1.75643
1.28206
1.28691
1.28979
1.27948
1.25967
1.22423
1.16916
1.10465
1.05185
1.02372
1.01728
1.02389
1.0412
1.06759
1.09503
1.11986
1.14096
1.15815
1.17139
1.1813
1.18896
1.19509
1.20028
1.20494
1.20944
1.21418
1.21952
1.22574
1.23319
1.24197
1.25237
1.26435
1.27803
1.29302
1.30961
1.32705
1.34583
1.36509
1.3855
1.40621
1.42759
1.44923
1.47115
1.49346
1.51564
1.53802
1.56006
1.58182
1.60331
1.62396
1.64413
1.66317
1.68076
1.69696
1.71061
1.72193
1.72949
1.73338
1.73514
1.73541
1.73263
1.72438
1.71135
1.69399
1.67473
1.65651
1.64091
1.62919
1.62146
1.61722
1.61694
1.61802
1.61983
1.62297
1.62812
1.63406
1.64068
1.64775
1.65551
1.66361
1.67189
1.6804
1.68877
1.69752
1.70596
1.71469
1.72312
1.73138
1.73943
1.74666
1.75355
1.75892
1.76365
1.76659
1.76807
1.76796
1.76667
1.76465
1.76078
1.76099
1.29347
1.28068
1.26251