/*--------------------------------*- C++ -*----------------------------------*\
  =========                 |
  \\      /  F ield         | OpenFOAM: The Open Source CFD Toolbox
   \\    /   O peration     | Website:  https://openfoam.org
    \\  /    A nd           | Version:  6
     \\/     M anipulation  |
\*---------------------------------------------------------------------------*/
FoamFile
{
    version     2.0;
    format      ascii;
    class       volScalarField;
    location    "5";
    object      p;
}
// * * * * * * * * * * * * * * * * * * * * * * * * * * * * * * * * * * * * * //

dimensions      [1 -1 -2 0 0 0 0];

internalField   nonuniform List<scalar> 
5250
(
1.00005
1.00027
1.00069
1.0018
1.0039
1.00999
1.02065
1.05588
1.11028
1.32661
1.70306
3.05209
6.63913
14.8005
13.7329
12.0683
11.4648
11.5314
11.7685
12.051
12.2029
12.2923
12.3664
12.4261
12.4645
1.00005
1.00027
1.00068
1.0018
1.00388
1.00995
1.02056
1.05565
1.10984
1.32524
1.70014
3.04326
6.61408
14.7463
13.6821
12.0295
11.4454
11.5191
11.7637
12.0413
12.1895
12.2798
12.3563
12.417
12.4573
1.00005
1.00026
1.00068
1.00178
1.00385
1.00986
1.02039
1.05515
1.10893
1.32222
1.69362
3.02305
6.55542
14.6232
13.5795
11.9507
11.3974
11.4797
11.733
11.9997
12.1406
12.2313
12.3105
12.3724
12.4153
1.00005
1.00026
1.00067
1.00176
1.0038
1.00973
1.02011
1.05437
1.10747
1.31736
1.68307
2.99015
6.45992
14.4305
13.4351
11.8441
11.3229
11.4111
11.6679
11.9186
12.0504
12.1391
12.2183
12.2795
12.323
1.00005
1.00025
1.00066
1.00172
1.00372
1.00954
1.01972
1.05327
1.10546
1.31059
1.66835
2.94416
6.32703
14.1676
13.2481
11.7118
11.2267
11.3178
11.5714
11.8049
11.9255
12.01
12.0869
12.1454
12.1884
1.00004
1.00025
1.00064
1.00168
1.00363
1.0093
1.01922
1.05187
1.10291
1.30192
1.64911
2.88689
6.15215
13.8302
13.0175
11.5564
11.1104
11.2002
11.4418
11.654
11.761
11.8375
11.908
11.9616
12.0051
1.00004
1.00024
1.00062
1.00163
1.00352
1.009
1.01862
1.0502
1.09933
1.29293
1.62042
2.8362
5.92076
13.4133
12.7327
11.3964
10.9778
11.0591
11.2767
11.4625
11.5506
11.6119
11.6688
11.7113
11.7532
1.00004
1.00023
1.0006
1.00156
1.00338
1.00865
1.0179
1.04821
1.09517
1.28182
1.58783
2.77145
5.65125
12.912
12.3834
11.2469
10.8315
10.8948
11.0734
11.2273
11.2887
11.3218
11.3469
11.3582
11.3859
1.00004
1.00022
1.00057
1.00149
1.00322
1.00823
1.01705
1.04587
1.09039
1.26848
1.55267
2.6891
5.35643
12.3229
11.9744
11.101
10.6732
10.7098
10.8332
10.9462
10.9683
10.9565
10.9177
10.8466
10.8103
1.00004
1.00021
1.00053
1.0014
1.00303
1.00775
1.01606
1.04317
1.08513
1.25239
1.51692
2.58401
5.04193
11.6446
11.5168
10.9625
10.5065
10.5067
10.5623
10.6194
10.5959
10.5104
10.3348
10.0708
9.74194
1.00003
1.00019
1.0005
1.0013
1.00281
1.00719
1.01491
1.04003
1.07895
1.23387
1.47535
2.46344
4.68406
10.8491
11.1288
10.7981
10.3385
10.2669
10.2824
10.2682
10.1837
9.97227
9.5775
8.87861
7.25902
1.00003
1.00017
1.00045
1.00118
1.00256
1.00654
1.01357
1.03635
1.0717
1.21218
1.42619
2.32432
4.26785
9.89801
10.8629
10.6302
10.1791
10.0349
9.99955
9.919
9.73671
9.3784
8.80678
7.91608
6.31759
1.00003
1.00015
1.0004
1.00105
1.00227
1.00579
1.01202
1.03205
1.06318
1.18764
1.3638
2.17782
3.78052
8.77778
10.6798
10.4935
10.0618
9.81622
9.7118
9.56529
9.29638
8.86841
8.24557
7.39744
6.25129
1.00002
1.00013
1.00034
1.0009
1.00195
1.00497
1.01031
1.02737
1.05399
1.16014
1.30145
2.00026
3.28326
7.48051
10.6107
10.4267
9.94987
9.59232
9.41854
9.22764
8.92305
8.48247
7.89488
7.15931
6.27656
1.00002
1.00011
1.00029
1.00076
1.00164
1.00415
1.00866
1.02265
1.04569
1.12926
1.25201
1.78699
2.78414
5.98843
10.5282
10.3479
9.84567
9.37904
9.14152
8.92588
8.61814
8.19767
7.66656
7.03882
6.33068
1.00002
1.00009
1.00024
1.00063
1.00136
1.00342
1.00715
1.01858
1.03773
1.10425
1.20829
1.62037
2.40463
4.94163
10.123
10.0977
9.72989
9.18152
8.88724
8.65797
8.36251
7.97253
7.4979
6.9554
6.36147
1.00001
1.00008
1.0002
1.00051
1.00111
1.0028
1.00585
1.0152
1.03069
1.08607
1.16482
1.51451
2.12935
4.29178
9.10947
9.66498
9.46573
9.01654
8.67115
8.42415
8.14285
7.78548
7.36018
6.88416
6.37257
1.00001
1.00006
1.00016
1.00041
1.0009
1.00226
1.00472
1.01224
1.02471
1.06947
1.12915
1.42021
1.85886
3.642
7.55039
9.30051
9.19947
8.89467
8.50847
8.23228
7.95726
7.62896
7.2446
6.82069
6.37115
1.00001
1.00005
1.00012
1.00032
1.0007
1.00177
1.0037
1.00955
1.01936
1.05361
1.10062
1.31897
1.64372
2.95593
5.84967
9.08193
9.06058
8.84719
8.42064
8.08966
7.80597
7.49793
7.14891
6.76701
6.3665
1.00001
1.00004
1.0001
1.00025
1.00054
1.00134
1.00282
1.0072
1.01465
1.03944
1.07711
1.22673
1.4552
2.36496
4.22207
8.55112
8.94264
8.77312
8.38549
7.98718
7.68082
7.38603
7.06614
6.72153
6.35964
1
1.00003
1.00007
1.00019
1.0004
1.00101
1.00212
1.00539
1.01099
1.02941
1.05689
1.17195
1.31529
2.05942
3.36146
7.24203
8.68498
8.59842
8.32589
7.89723
7.56899
7.28395
6.99054
6.67775
6.35054
1
1.00002
1.00005
1.00014
1.0003
1.00075
1.00156
1.00397
1.00811
1.02153
1.04238
1.1234
1.22991
1.74719
2.6308
5.3937
8.32937
8.3736
8.22319
7.87374
7.4963
7.20118
6.92609
6.6401
6.34167
1
1.00001
1.00004
1.0001
1.00021
1.00054
1.00112
1.00284
1.00582
1.01524
1.03047
1.08414
1.16883
1.48709
2.0747
3.88659
7.50944
8.20437
8.10739
7.84461
7.4697
7.15478
6.88345
6.61744
6.34236
1
1.00001
1.00003
1.00007
1.00015
1.00037
1.00078
1.00197
1.00403
1.01051
1.02073
1.05879
1.10641
1.34886
1.6759
3.07026
5.88024
7.91314
7.9141
7.78651
7.4883
7.15582
6.86868
6.60516
6.34424
1
1.00001
1.00002
1.00005
1.0001
1.00025
1.00053
1.00133
1.00272
1.00702
1.01401
1.038
1.07397
1.21431
1.43355
2.25531
3.80159
7.33538
7.82711
7.74378
7.52694
7.17741
6.87347
6.60626
6.3498
1
1
1.00001
1.00003
1.00007
1.00016
1.00038
1.0008
1.00201
1.00406
1.01068
1.02036
1.061
1.10348
1.36179
1.68155
3.0793
5.82896
7.56708
7.62533
7.51483
7.24347
6.89358
6.61259
6.35994
1
1
1.00001
1.00002
1.00005
1.0001
1.00025
1.00052
1.00131
1.00266
1.0069
1.01361
1.03735
1.07165
1.21023
1.42207
2.20647
3.70575
6.98638
7.5206
7.4631
7.28173
6.93612
6.63127
6.37352
1
1
1.00001
1.00001
1.00003
1.00006
1.00016
1.00033
1.00082
1.00166
1.00429
1.00829
1.02371
1.04029
1.14322
1.22509
1.85152
2.72233
5.51048
7.21356
7.32976
7.24087
7.01095
6.67118
6.38957
1
1
1
1.00001
1.00002
1.00004
1.0001
1.00021
1.00053
1.00107
1.00276
1.0055
1.0148
1.0284
1.08254
1.1566
1.47456
1.99356
3.56997
6.45242
7.14887
7.1246
6.99461
6.72277
6.41944
1
1
1
1.00001
1.00001
1.00003
1.00006
1.00014
1.00028
1.0007
1.00139
1.00365
1.00676
1.02061
1.03259
1.12705
1.18808
1.76113
2.45896
4.89273
6.71841
6.97184
6.91782
6.75107
6.45922
1
1
1
1
1.00001
1.00002
1.00004
1.00008
1.00019
1.00039
1.00098
1.00195
1.00516
1.0098
1.02872
1.04976
1.17069
1.28893
1.97548
3.01444
5.75326
6.73873
6.785
6.72046
6.54916
1
1
1
1
1
1.00001
1.00002
1.00005
1.00011
1.00023
1.00059
1.00118
1.00308
1.00595
1.01657
1.02983
1.09515
1.15836
1.54733
2.06302
3.69374
6.14036
6.65098
6.63991
6.5571
1
1
1
1
1
1.00001
1.00001
1.00003
1.00007
1.00014
1.00035
1.0007
1.00182
1.00356
1.0096
1.01801
1.05276
1.09483
1.29885
1.58244
2.64331
4.68646
6.23143
6.5365
6.52014
1
1
1
1
1
1
1.00001
1.00002
1.00004
1.00008
1.0002
1.00039
1.001
1.00197
1.00522
1.00979
1.02823
1.0493
1.161
1.27439
1.89804
2.81099
5.26269
6.27008
6.44861
1
1
1
1
1
1
1
1.00001
1.00002
1.00004
1.0001
1.00021
1.00052
1.00103
1.00271
1.00509
1.01455
1.02536
1.08249
1.13635
1.46519
1.86987
3.21708
5.51578
6.2623
1
1
1
1
1
1
1
1
1.00001
1.00002
1.00004
1.00009
1.00017
1.00047
1.00071
1.00255
1.00312
1.01575
1.01761
1.10635
1.12929
1.63937
2.05731
3.90464
5.72275
1
1
1
1
1
1
1
1
1
1.00001
1.00002
1.00003
1.00008
1.00013
1.00041
1.00054
1.00226
1.00246
1.01657
1.01688
1.12774
1.14887
1.761
2.32877
4.40125
1
1
1
1
1
1
1
1
1
1
1.00001
1.00002
1.00006
1.00012
1.00033
1.00062
1.00181
1.00329
1.01058
1.01772
1.06421
1.10185
1.38154
1.68117
2.96532
1
1
1
1
1
1
1
1
1
1
1
1.00001
1.00002
1.00006
1.00009
1.00034
1.00049
1.00199
1.0027
1.0139
1.01647
1.09678
1.11187
1.72809
2.27218
1
1
1
1
1
1
1
1
1
1
1
1
1.00001
1.00002
1.00009
1.00013
1.00066
1.00103
1.00404
1.01068
1.01333
1.01086
1.21436
1.23752
2.72001
1
1
1
1
1
1
1
1
1
1
1
1
1
1.00002
1.00002
1.00017
1.00024
1.00142
1.00243
1.00887
1.00865
1.07903
1.07698
1.66286
2.21666
1
1
1
1
1
1
1
1
1
1
1
1
1.00001
1.00001
1.00005
1.00008
1.00039
1.00054
1.00565
1.00781
1.04399
1.10963
1.15549
1.18346
2.66516
1
1
1
1
1
1
1
1
1
1
1
1
1
1.00001
1.00002
1.00012
1.00014
1.00109
1.00223
1.00688
1.01202
1.07147
1.08178
1.63031
2.16699
1
1
1
1
1
1
1
1
1
1
1
1
1
1
1.00003
1.00004
1.0004
1.00065
1.00283
1.00714
1.01475
1.01295
1.18849
1.20545
2.65271
1
1
1
1
1
1
1
1
1
1
1
1
1
1
1.00002
1.00003
1.00036
1.00062
1.00262
1.00799
1.00867
1.00658
1.17634
1.19045
2.59159
1
1
1
1
1
1
1
1
1
1
1
1
1
1
1.00002
1.00002
1.00029
1.00041
1.00256
1.00541
1.01384
1.00912
1.17293
1.1814
2.53961
1
1
1
1
1
1
1
1
1
1
1
1
1
1
1.00001
1.00002
1.0002
1.00027
1.00233
1.00472
1.01397
1.00806
1.16217
1.16282
2.47382
1
1
1
1
1
1
1
1
1
1
1
1
1
1
1.00002
1.00002
1.00019
1.00021
1.0022
1.00337
1.01535
1.01976
1.14134
1.14931
2.40648
1
1
1
1
1
1
1
1
1
1
1
1
1
1.00001
1.00001
1.00012
1.00015
1.00133
1.00241
1.00875
1.02488
1.03862
1.03658
1.44861
1.80884
1
1
1
1
1
1
1
1
1
1
1
1
1
1
1.00002
1.00003
1.0002
1.00023
1.00208
1.00298
1.01403
1.02574
1.1171
1.14743
2.23604
3.7302
2.24316
2.13809
2.38067
3.16625
3.58565
3.5217
3.43355
3.31828
3.22007
3.15121
3.09233
3.02679
2.95921
2.89831
2.84871
2.80949
2.7756
2.74309
2.71157
2.68128
2.65123
2.62077
2.59872
2.58875
2.58564
2.58553
2.60182
2.64074
2.70629
2.79736
2.90865
3.03349
3.16529
3.29879
3.43068
3.55774
3.67591
3.78446
3.88337
3.97265
4.05474
4.13072
4.19903
4.25857
4.30952
4.3525
4.39006
4.42472
4.45164
4.46914
4.47927
4.48279
4.48195
4.4774
4.46646
4.44749
4.42549
4.39988
4.3714
4.33916
4.30429
4.26625
4.22624
4.18364
4.13955
4.09353
4.04643
3.99798
3.94891
3.89902
3.84895
3.79858
3.74845
3.69856
3.6494
3.6011
3.55413
3.50879
3.46558
3.42497
3.38753
3.35379
3.32435
3.2998
3.28075
3.26777
3.26182
3.26244
3.26406
3.26677
3.27206
3.28014
3.28752
3.28913
3.28711
3.28148
3.27244
3.25854
3.25059
4.19779
2.87553
2.72719
2.90974
3.46004
3.61399
3.53514
3.42194
3.31355
3.22879
3.1566
3.09565
3.02365
2.94936
2.88504
2.83677
2.80213
2.77244
2.74096
2.70916
2.67889
2.65073
2.62471
2.60207
2.58996
2.58551
2.585
2.5987
2.63505
2.69901
2.78901
2.89959
3.024
3.1555
3.2876
3.41781
3.54465
3.66223
3.77038
3.86916
3.95799
4.04001
4.11847
4.18848
4.24893
4.30079
4.34503
4.3832
4.4168
4.44346
4.46134
4.47191
4.47569
4.47504
4.47135
4.46172
4.44262
4.42004
4.39442
4.36616
4.33441
4.29981
4.26214
4.22227
4.17999
4.13603
4.09027
4.0433
3.99507
3.94612
3.89642
3.84644
3.79623
3.7462
3.69647
3.64744
3.59933
3.55256
3.50748
3.46461
3.42441
3.38739
3.35413
3.32521
3.30116
3.28249
3.26968
3.26338
3.26388
3.26514
3.26734
3.27168
3.27783
3.28339
3.28306
3.28107
3.27559
3.26529
3.25059
3.24348
4.96176
3.98084
3.50067
3.49911
3.57263
3.61951
3.55984
3.4152
3.28438
3.20078
3.13449
3.08044
3.01442
2.94648
2.8883
2.84397
2.80911
2.77702
2.74178
2.70665
2.67414
2.64557
2.62073
2.59959
2.58401
2.57671
2.5753
2.58678
2.61924
2.67859
2.76554
2.87472
2.99914
3.13111
3.26276
3.39313
3.52527
3.64493
3.75475
3.855
3.94581
4.02921
4.1066
4.17624
4.23691
4.28925
4.33408
4.3726
4.40548
4.43181
4.45026
4.46136
4.46556
4.46506
4.46217
4.45412
4.43685
4.41306
4.38709
4.35904
4.3279
4.29375
4.2566
4.21703
4.17516
4.13146
4.08605
4.03932
3.99141
3.94267
3.89325
3.84347
3.79352
3.7437
3.69424
3.64549
3.59775
3.5514
3.50687
3.46468
3.42524
3.3891
3.35679
3.32882
3.30564
3.28759
3.27492
3.26785
3.26715
3.26757
3.26861
3.2705
3.27296
3.27412
3.27278
3.26911
3.26255
3.25138
3.23663
3.23126
5.35569
4.55534
3.99617
3.73615
3.66367
3.64237
3.58507
3.45467
3.3112
3.21134
3.14001
3.07573
3.00619
2.93919
2.88336
2.83927
2.80435
2.77246
2.73755
2.70265
2.67109
2.64328
2.61972
2.60041
2.58584
2.57641
2.5737
2.58158
2.60857
2.66354
2.75031
2.85821
2.97946
3.11105
3.24474
3.37685
3.50625
3.62594
3.73549
3.83561
3.92679
4.01034
4.08716
4.15676
4.21802
4.2712
4.31675
4.35565
4.38828
4.41443
4.43328
4.44491
4.44956
4.44917
4.44689
4.44038
4.42591
4.40185
4.37539
4.34727
4.31661
4.28311
4.24669
4.20772
4.16643
4.12324
4.07834
4.03208
3.98466
3.93635
3.8874
3.83805
3.78856
3.73921
3.69031
3.64216
3.59515
3.54967
3.50626
3.46526
3.42723
3.39265
3.36201
3.33568
3.31395
3.29693
3.28456
3.27666
3.27329
3.27209
3.27089
3.26887
3.26595
3.26223
3.25686
3.24964
3.24028
3.22897
3.21495
3.21126
5.59033
4.90524
4.35711
3.98963
3.79758
3.70211
3.63711
3.53142
3.38827
3.2639
3.17493
3.09842
3.02535
2.95808
2.90028
2.85324
2.81487
2.77892
2.74184
2.70617
2.67415
2.64666
2.62412
2.60654
2.59389
2.58702
2.58859
2.59921
2.62744
2.6815
2.7588
2.856
2.96848
3.08537
3.21217
3.34186
3.47003
3.59169
3.70374
3.80587
3.89869
3.98341
4.06063
4.13063
4.19266
4.24683
4.29326
4.33278
4.3656
4.39193
4.41129
4.42369
4.42906
4.4288
4.42706
4.42196
4.41035
4.38768
4.36113
4.33275
4.30238
4.26956
4.234
4.19584
4.15534
4.11283
4.06863
4.02302
3.97626
3.9286
3.88031
3.83162
3.78286
3.73427
3.68623
3.63908
3.5932
3.54919
3.50739
3.46827
3.43235
3.40004
3.37173
3.34759
3.32769
3.3118
3.29952
3.29031
3.28374
3.27861
3.27316
3.26603
3.25693
3.24657
3.23556
3.22385
3.21132
3.199
3.18542
3.18353
5.74358
5.1514
4.6384
4.24526
3.98052
3.81792
3.71641
3.61468
3.49222
3.36782
3.25459
3.15841
3.07676
3.00545
2.94203
2.88748
2.84024
2.79726
2.75823
2.72211
2.68998
2.66379
2.64452
2.63267
2.62759
2.63013
2.64187
2.67089
2.71281
2.7587
2.8158
2.88728
2.97224
3.0688
3.16578
3.28013
3.40708
3.53566
3.65589
3.76446
3.86134
3.94774
4.02537
4.09544
4.15797
4.21307
4.26071
4.30132
4.335
4.36203
4.38226
4.39569
4.40224
4.40216
4.40094
4.39703
4.38778
4.36866
4.34266
4.31424
4.28408
4.25184
4.21717
4.18
4.14051
4.09897
4.0557
4.01098
3.96511
3.91834
3.87098
3.82327
3.77555
3.72812
3.6814
3.63572
3.5917
3.54969
3.51024
3.47376
3.44074
3.41145
3.3861
3.36462
3.34675
3.3319
3.3193
3.30807
3.2975
3.28685
3.27527
3.26154
3.24557
3.22813
3.21042
3.1932
3.17682
3.1627
3.14873
3.14815
5.8431
5.3279
4.86106
4.46952
4.17196
3.96176
3.81578
3.69953
3.58282
3.46229
3.34508
3.23981
3.14779
3.06758
2.99655
2.93434
2.87989
2.83198
2.78932
2.75161
2.72012
2.6978
2.68599
2.68625
2.69124
2.70885
2.75121
2.82109
2.87791
2.91244
2.94166
2.97525
3.01434
3.06697
3.13301
3.19969
3.30721
3.43911
3.57154
3.69661
3.80665
3.90104
3.98254
4.05391
4.11665
4.17204
4.22054
4.26225
4.29716
4.32543
4.34702
4.36188
4.36999
4.37076
4.36989
4.36684
4.35948
4.34404
4.32002
4.29246
4.26274
4.231
4.19711
4.16096
4.12264
4.08229
4.04022
3.99668
3.952
3.90643
3.86032
3.81393
3.76766
3.72185
3.67696
3.6334
3.59189
3.5527
3.5164
3.48337
3.45398
3.4283
3.40629
3.38754
3.37143
3.35701
3.34323
3.32897
3.3135
3.29628
3.27746
3.25584
3.23233
3.20765
3.1832
3.16005
3.13905
3.1219
3.1066
3.10651
5.90957
5.4546
5.03226
4.65884
4.34904
4.10959
3.92985
3.79
3.66727
3.54787
3.43097
3.32204
3.22229
3.13336
3.0553
2.98646
2.92638
2.87393
2.82875
2.79089
2.76266
2.74912
2.75026
2.75804
2.78172
2.83727
2.95097
3.06591
3.12996
3.14434
3.14203
3.13287
3.11256
3.11347
3.12586
3.162
3.22957
3.32005
3.4427
3.58247
3.71217
3.82574
3.92144
4.00142
4.06807
4.12493
4.17423
4.21634
4.25208
4.28141
4.30445
4.321
4.33102
4.33369
4.33308
4.33081
4.32518
4.31321
4.29214
4.26638
4.23761
4.20656
4.17351
4.13844
4.10141
4.06247
4.02186
3.97979
3.93661
3.89259
3.84811
3.80349
3.75918
3.71557
3.67313
3.6326
3.59429
3.55872
3.5264
3.49756
3.47236
3.4506
3.4319
3.41549
3.4004
3.38538
3.36921
3.35081
3.32949
3.3054
3.27814
3.24851
3.21751
3.18594
3.15519
3.12625
3.10026
3.0793
3.06108
3.06105
5.95682
5.55039
5.16355
4.81331
4.50874
4.25375
4.05022
3.88832
3.75289
3.63037
3.51421
3.40396
3.30046
3.20486
3.12214
3.04656
2.9811
2.92452
2.87745
2.84074
2.82104
2.82211
2.83037
2.85622
2.91857
3.05179
3.25687
3.40423
3.44508
3.43766
3.40994
3.34504
3.2504
3.18436
3.16606
3.17345
3.20092
3.26094
3.33765
3.44112
3.5675
3.69721
3.81643
3.91732
3.99949
4.0659
4.11989
4.16434
4.20057
4.2307
4.25494
4.2731
4.28533
4.29072
4.29051
4.28916
4.28533
4.27677
4.2594
4.23598
4.20878
4.17889
4.14689
4.11303
4.0774
4.04006
4.00117
3.9609
3.91958
3.87752
3.83514
3.79282
3.75107
3.71027
3.6713
3.63439
3.60019
3.56912
3.54151
3.51741
3.49662
3.47866
3.46273
3.44774
3.43242
3.41538
3.39544
3.37172
3.34409
3.31257
3.27691
3.23966
3.20188
3.16411
3.12771
3.09346
3.06255
3.03739
3.01525
3.01408
5.98958
5.62269
5.26953
4.93978
4.64375
4.38732
4.17108
3.99204
3.84278
3.71291
3.59443
3.48332
3.37866
3.28095
3.19259
3.11192
3.04245
2.98316
2.936
2.90385
2.90388
2.91072
2.93506
2.99633
3.12946
3.39864
3.67089
3.80008
3.79729
3.77227
3.70438
3.56414
3.42101
3.31351
3.2483
3.22629
3.23065
3.24971
3.29603
3.3567
3.43648
3.53757
3.66251
3.78228
3.88885
3.97698
4.04665
4.1007
4.14239
4.17504
4.20044
4.21968
4.23338
4.24134
4.24281
4.24216
4.23979
4.23399
4.22168
4.20107
4.17603
4.14787
4.11735
4.08494
4.05088
4.0153
3.97834
3.94019
3.90114
3.86152
3.82179
3.78242
3.74389
3.70695
3.67209
3.63981
3.61061
3.58475
3.56231
3.54302
3.52634
3.51143
3.49716
3.48215
3.46497
3.44431
3.41926
3.38951
3.355
3.31494
3.273
3.22954
3.18595
3.14279
3.10146
3.06255
3.0272
2.99791
2.97176
2.96776
6.01608
5.68162
5.35553
5.04659
4.76217
4.50768
4.28593
4.09613
3.9346
3.79578
3.67241
3.5593
3.45381
3.35517
3.2642
3.18184
3.10947
3.05078
3.00697
2.9965
3.00258
3.02574
3.08583
3.21938
3.49555
3.88152
4.13928
4.18738
4.16759
4.10399
3.96441
3.77674
3.61207
3.48281
3.38906
3.32885
3.2956
3.29592
3.30308
3.32662
3.37579
3.42994
3.50654
3.61184
3.72897
3.8391
3.93324
4.00863
4.06595
4.10832
4.13905
4.16139
4.17649
4.18626
4.1905
4.19028
4.18902
4.18548
4.17753
4.16136
4.13925
4.11347
4.08501
4.05447
4.02228
3.9887
3.95395
3.91826
3.88192
3.84531
3.80891
3.77323
3.7389
3.70669
3.67694
3.65017
3.62667
3.60645
3.58918
3.57426
3.56079
3.54761
3.53335
3.51648
3.49563
3.46983
3.43881
3.40184
3.35915
3.31377
3.26656
3.21812
3.16993
3.12241
3.07701
3.03426
2.99518
2.96229
2.93255
2.92475
6.03583
5.72852
5.42693
5.13689
4.86493
4.61563
4.39241
4.19645
4.02652
3.87817
3.74819
3.63167
3.52483
3.42612
3.33529
3.25377
3.18418
3.13059
3.1084
3.11326
3.13478
3.19352
3.3271
3.60593
4.05393
4.4243
4.55631
4.545
4.49669
4.38159
4.17875
3.98304
3.81548
3.67742
3.56642
3.47986
3.4155
3.37331
3.35015
3.35154
3.36126
3.38733
3.42392
3.47836
3.56237
3.66646
3.77382
3.87166
3.95305
4.01583
4.06129
4.0927
4.11367
4.1264
4.13331
4.13442
4.13386
4.13187
4.12696
4.11645
4.09809
4.07545
4.04976
4.0217
3.99184
3.96064
3.92847
3.89566
3.86257
3.82964
3.79734
3.76625
3.73729
3.71069
3.68695
3.66638
3.64892
3.63419
3.62147
3.60983
3.5981
3.58486
3.56859
3.54789
3.52164
3.48961
3.45068
3.40618
3.35881
3.30884
3.25752
3.20524
3.15356
3.10276
3.05433
3.00871
2.96678
2.93108
2.89856
2.88689
6.05868
5.77157
5.48819
5.21456
4.95442
4.71172
4.48971
4.29039
4.11387
3.95921
3.8226
3.7015
3.59285
3.49487
3.40692
3.33131
3.27131
3.24082
3.24515
3.26666
3.32712
3.46558
3.75445
4.23188
4.66584
4.87492
4.87293
4.84174
4.756
4.57772
4.37395
4.18838
4.0267
3.88627
3.76409
3.65847
3.56901
3.49597
3.44057
3.4029
3.38328
3.38506
3.39475
3.41626
3.45481
3.51117
3.60129
3.69908
3.79618
3.88202
3.95064
4.00119
4.03581
4.05782
4.06989
4.07488
4.07482
4.07395
4.0713
4.06513
4.05237
4.03364
4.01145
3.98661
3.95977
3.93158
3.90258
3.87324
3.84407
3.81559
3.78824
3.76313
3.74026
3.7202
3.70315
3.68903
3.67732
3.66722
3.65771
3.64767
3.63571
3.62024
3.59981
3.57357
3.54034
3.49983
3.45423
3.40547
3.35388
3.30023
3.24575
3.19076
3.13678
3.08389
3.03353
2.98606
2.94231
2.90466
2.87035
2.85543
6.07812
5.80948
5.54332
5.28357
5.03291
4.79641
4.5771
4.37695
4.19685
4.03679
3.89561
3.77106
3.6616
3.56585
3.48604
3.42425
3.39329
3.39809
3.42197
3.48878
3.64075
3.95538
4.44776
4.89531
5.13289
5.15897
5.13561
5.06558
4.9182
4.73476
4.55654
4.39183
4.23987
4.0991
3.96867
3.84891
3.74072
3.64518
3.56333
3.49618
3.4453
3.41094
3.39628
3.39881
3.40716
3.42733
3.46839
3.5311
3.61806
3.71035
3.79756
3.87173
3.92893
3.96873
3.9939
4.00697
4.01217
4.01206
4.01105
4.00808
4.00139
3.98781
3.96992
3.94901
3.92604
3.90178
3.87684
3.85184
3.82752
3.80433
3.78343
3.76491
3.74907
3.73616
3.72595
3.71777
3.71065
3.70363
3.69549
3.68497
3.67051
3.65052
3.62401
3.58959
3.54818
3.50203
3.45223
3.39922
3.34421
3.28776
3.23116
3.17455
3.11939
3.06553
3.01438
2.96614
2.9216
2.88303
2.84794
2.83089
6.09702
5.84282
5.58946
5.3404
5.10033
4.87071
4.65498
4.45588
4.27478
4.11222
3.96821
3.84311
3.73604
3.64968
3.58611
3.56019
3.56725
3.5976
3.67803
3.85541
4.21683
4.71241
5.13839
5.36237
5.39648
5.37761
5.31952
5.19674
5.04059
4.88517
4.73551
4.58933
4.44562
4.30494
4.16876
4.039
3.9175
3.80577
3.70512
3.61654
3.54111
3.47967
3.43377
3.40253
3.3936
3.39466
3.40142
3.42203
3.46643
3.53451
3.61703
3.70351
3.78199
3.84558
3.89203
3.92222
3.93889
3.94597
3.94651
3.94585
3.94342
3.93754
3.92541
3.90936
3.89102
3.87165
3.85184
3.83237
3.81396
3.79765
3.78392
3.77288
3.76447
3.75872
3.75456
3.75081
3.74649
3.74053
3.73172
3.71827
3.69892
3.67192
3.63654
3.59479
3.54845
3.49779
3.44387
3.3876
3.33012
3.27193
3.21428
3.15709
3.10176
3.04795
2.99697
2.94894
2.90462
2.8662
2.83132
2.81348
6.11566
5.87211
5.62988
5.39106
5.1591
4.93693
4.72722
4.53085
4.35019
4.18796
4.04552
3.92391
3.82859
3.76138
3.74451
3.75538
3.79539
3.8972
4.11348
4.53
5.0198
5.4012
5.58635
5.60475
5.58639
5.53245
5.42151
5.29331
5.16499
5.03791
4.9086
4.77472
4.63678
4.49673
4.35757
4.2218
4.09172
3.969
3.85506
3.75083
3.65729
3.57496
3.50518
3.44858
3.40647
3.38401
3.37317
3.3735
3.38009
3.40184
3.44908
3.5223
3.60319
3.68357
3.75348
3.80755
3.84424
3.86656
3.8767
3.88096
3.8808
3.87959
3.87591
3.8678
3.85549
3.84233
3.82863
3.81584
3.80465
3.79663
3.79091
3.78738
3.78657
3.78666
3.78631
3.78501
3.78181
3.775
3.76335
3.7441
3.71605
3.68041
3.63897
3.59232
3.54104
3.48641
3.42942
3.37098
3.31216
3.25328
3.19555
3.13868
3.08403
3.03111
2.98117
2.93429
2.89117
2.85404
2.82043
2.80342
6.13325
5.8975
5.66382
5.43447
5.21136
4.99652
4.79234
4.60175
4.42731
4.27134
4.13701
4.03144
3.9589
3.95469
3.97103
4.02424
4.1567
4.42982
4.87781
5.34849
5.67289
5.80977
5.80643
5.78075
5.71837
5.61195
5.50415
5.40013
5.29645
5.18766
5.07017
4.94381
4.81007
4.67196
4.53227
4.3939
4.2589
4.12926
4.00623
3.89095
3.78411
3.68651
3.59877
3.522
3.45687
3.40521
3.36849
3.35195
3.33645
3.33757
3.34688
3.37275
3.42694
3.50098
3.58123
3.65555
3.71652
3.7616
3.7906
3.80777
3.8156
3.82012
3.82068
3.82024
3.81857
3.81464
3.80842
3.80346
3.80172
3.80235
3.80422
3.80793
3.81377
3.81824
3.81783
3.81616
3.81194
3.80297
3.78482
3.75635
3.72101
3.6798
3.63283
3.58133
3.52622
3.46872
3.40986
3.35036
3.29126
3.23265
3.17566
3.1199
3.06662
3.01531
2.96719
2.92234
2.88138
2.84665
2.81528
2.80061
6.14552
5.91611
5.69271
5.4731
5.25868
5.05212
4.85744
4.67653
4.51229
4.37157
4.2616
4.1925
4.19508
4.22002
4.29501
4.46412
4.80928
5.26786
5.6861
5.93946
6.01859
6.00776
5.96765
5.88267
5.78479
5.69047
5.6035
5.51868
5.4289
5.32952
5.21878
5.09758
4.96784
4.83243
4.69381
4.55486
4.41754
4.28387
4.15488
4.03189
3.91534
3.80637
3.70529
3.613
3.53027
3.45812
3.3978
3.35102
3.32219
3.30099
3.28949
3.29247
3.30634
3.33902
3.40433
3.47806
3.55448
3.62295
3.6769
3.71518
3.7398
3.75554
3.76565
3.77348
3.78015
3.78584
3.79085
3.79646
3.80371
3.81318
3.82369
3.83483
3.84423
3.84642
3.84537
3.84207
3.83439
3.81821
3.79126
3.75703
3.71601
3.66922
3.61769
3.56253
3.50486
3.44574
3.38615
3.32662
3.26811
3.21054
3.15503
3.10107
3.04988
3.00096
2.95544
2.91345
2.87557
2.84426
2.81611
2.80534
6.16323
5.93546
5.71993
5.51096
5.30889
5.11576
4.9335
4.76663
4.62468
4.51664
4.46402
4.47241
4.51301
4.61987
4.8495
5.25349
5.69398
6.02841
6.20292
6.21618
6.19591
6.1393
6.03422
5.93893
5.85679
5.78426
5.71413
5.6398
5.55633
5.46138
5.35468
5.23743
5.11154
4.97948
4.84346
4.70568
4.56797
4.43196
4.29909
4.17052
4.04694
3.92925
3.8178
3.71369
3.61753
3.53007
3.45208
3.38501
3.33032
3.29151
3.26405
3.24292
3.24068
3.24668
3.26629
3.30946
3.37952
3.45696
3.53105
3.59409
3.64313
3.67907
3.70537
3.72585
3.74366
3.76063
3.7773
3.79445
3.8116
3.82922
3.8457
3.86252
3.86896
3.86814
3.86519
3.85821
3.84394
3.81891
3.78602
3.74597
3.6999
3.64896
3.59431
3.53705
3.47818
3.41863
3.35931
3.30065
3.24356
3.18791
3.13463
3.08319
3.03463
2.9886
2.94621
2.90779
2.87388
2.84683
2.82308
2.81769
6.19345
5.96195
5.75325
5.55624
5.36833
5.19163
5.0309
4.9002
4.80099
4.77717
4.79497
4.85958
5.01468
5.33355
5.7584
6.14245
6.38028
6.44906
6.43358
6.38209
6.27488
6.16901
6.07652
6.00274
5.94204
5.88543
5.82514
5.75616
5.67597
5.58391
5.48044
5.36684
5.24475
5.11612
4.98283
4.84671
4.70942
4.57244
4.43721
4.30454
4.17581
4.05142
3.93253
3.81948
3.71307
3.61379
3.52255
3.44008
3.36768
3.30684
3.25931
3.22702
3.20057
3.18653
3.18905
3.20136
3.23115
3.2917
3.36556
3.44452
3.51883
3.58215
3.63332
3.67423
3.70838
3.73899
3.76779
3.79571
3.82231
3.84632
3.86733
3.88125
3.88156
3.87971
3.8742
3.8622
3.83955
3.80745
3.7684
3.72339
3.67364
3.62021
3.56404
3.50611
3.44727
3.38844
3.33048
3.27375
3.21887
3.16566
3.11488
3.06622
3.02061
2.97801
2.93946
2.90554
2.87647
2.85473
2.8377
2.83748
6.25875
6.011
5.80225
5.61756
5.44854
5.29869
5.18148
5.11231
5.11846
5.15707
5.26628
5.5033
5.90991
6.32299
6.61138
6.73024
6.71793
6.66607
6.55046
6.40811
6.2869
6.19459
6.1273
6.0758
6.03069
5.98377
5.92931
5.86424
5.78738
5.69867
5.59884
5.48908
5.3708
5.2456
5.11505
4.98073
4.84408
4.70653
4.56941
4.43392
4.30105
4.17173
4.04667
3.92658
3.81211
3.70382
3.60243
3.50845
3.42295
3.34652
3.28114
3.22694
3.18872
3.15946
3.14006
3.1405
3.14741
3.16743
3.21064
3.28489
3.37201
3.46066
3.54136
3.61043
3.66827
3.71729
3.76006
3.79767
3.83123
3.85829
3.87949
3.88597
3.88484
3.88097
3.87177
3.85243
3.82156
3.78332
3.73938
3.6909
3.63899
3.58448
3.52812
3.47083
3.41347
3.3567
3.30102
3.24669
3.19422
3.14365
3.0956
3.05014
3.00805
2.96967
2.93598
2.90738
2.88444
2.86931
2.86196
2.86294
6.36651
6.10946
5.89139
5.71248
5.56991
5.47281
5.46055
5.48274
5.5625
5.74865
6.12635
6.56534
6.91685
7.09549
7.08765
7.03686
6.91201
6.71504
6.54657
6.41022
6.30811
6.23773
6.18907
6.15093
6.11448
6.07342
6.02372
5.96327
5.89117
5.80733
5.7122
5.60674
5.49223
5.37007
5.24178
5.1088
4.97266
4.83472
4.69623
4.55846
4.42239
4.28908
4.15924
4.03366
3.91289
3.79763
3.68829
3.5856
3.48989
3.40237
3.32345
3.25469
3.1974
3.15348
3.12419
3.10353
3.10028
3.10567
3.12239
3.15928
3.22636
3.32263
3.42426
3.52246
3.61024
3.68461
3.74587
3.79512
3.83335
3.86128
3.87962
3.8792
3.87654
3.86952
3.85382
3.82538
3.78925
3.74716
3.70055
3.65048
3.59785
3.54352
3.48836
3.43312
3.37821
3.32401
3.27094
3.21926
3.16949
3.12191
3.0771
3.03546
2.99772
2.96456
2.93676
2.91427
2.89933
2.89208
2.89247
2.89502
6.43175
6.24068
6.02221
5.86676
5.80082
5.81412
5.87448
6.0308
6.36033
6.84063
7.27266
7.53354
7.54857
7.50632
7.38293
7.13471
6.90878
6.712
6.55454
6.43623
6.35474
6.29883
6.25793
6.22392
6.19055
6.15311
6.10823
6.05361
5.98795
5.91049
5.82122
5.72069
5.61007
5.49073
5.36427
5.2322
5.09608
4.95737
4.81748
4.67756
4.53876
4.40206
4.26825
4.1382
4.01241
3.8916
3.77622
3.66676
3.56379
3.46781
3.37958
3.30005
3.23011
3.17163
3.12499
3.09416
3.07862
3.07935
3.08491
3.10076
3.13555
3.2031
3.29774
3.40882
3.52064
3.62225
3.70727
3.77326
3.8197
3.85051
3.86101
3.85928
3.85371
3.84144
3.81704
3.78397
3.74502
3.7014
3.65407
3.60393
3.55199
3.49931
3.44641
3.39374
3.34157
3.29024
3.24009
3.19147
3.14491
3.10087
3.06001
3.02299
2.99062
2.96394
2.94234
2.92839
2.92258
2.92328
2.92638
2.93516
6.42702
6.35492
6.20427
6.1692
6.20199
6.31844
6.58222
7.09987
7.63366
8.00265
8.10158
8.06447
7.93896
7.67554
7.3925
7.13163
6.91278
6.73501
6.59791
6.49933
6.42798
6.37373
6.33069
6.29411
6.25981
6.22397
6.18321
6.13459
6.07591
6.00564
5.92306
5.82813
5.72179
5.60539
5.48071
5.34936
5.21324
5.07372
4.93256
4.79075
4.64966
4.51016
4.37317
4.23955
4.10979
3.9847
3.86461
3.75013
3.64169
3.53964
3.44479
3.35779
3.27939
3.21106
3.1534
3.10946
3.07778
3.07108
3.07378
3.08272
3.10304
3.14382
3.21013
3.30072
3.41076
3.52376
3.62729
3.71204
3.77267
3.81145
3.82218
3.81983
3.81261
3.7969
3.76812
3.73245
3.69217
3.64829
3.60148
3.55276
3.50304
3.45288
3.40268
3.35288
3.30371
3.25557
3.20874
3.16368
3.12094
3.08116
3.04514
3.01378
2.98824
2.9681
2.95528
2.95153
2.95259
2.95673
2.96706
2.99033
6.43058
6.48544
6.52912
6.6401
6.88655
7.35516
7.97878
8.49372
8.72537
8.70092
8.58865
8.33145
7.98357
7.66502
7.38665
7.1488
6.95458
6.8035
6.68833
6.59653
6.52176
6.46009
6.40869
6.36492
6.32592
6.2885
6.24925
6.20475
6.15198
6.08852
6.0129
5.9244
5.82335
5.71092
5.5888
5.45888
5.32313
5.18321
5.04095
4.89753
4.75446
4.61255
4.47297
4.33644
4.20362
4.07526
3.95168
3.83362
3.72146
3.61574
3.51695
3.42553
3.34238
3.26831
3.20424
3.1516
3.11207
3.08603
3.0854
3.08869
3.09931
3.12394
3.17117
3.23068
3.31401
3.41111
3.51219
3.60496
3.67947
3.73162
3.75605
3.75502
3.7498
3.737
3.71076
3.67395
3.63316
3.58981
3.54478
3.49868
3.45185
3.40466
3.35754
3.31088
3.26505
3.22041
3.17735
3.13639
3.09818
3.06359
3.03347
3.00944
2.99112
2.97948
2.97813
2.97964
2.985
2.99781
3.01933
3.06204
6.38519
6.77662
7.15527
7.61858
8.29835
9.00303
9.42833
9.42262
9.33214
9.09029
8.66855
8.29952
7.9602
7.66819
7.41783
7.21326
7.05334
6.92458
6.81457
6.71822
6.63359
6.55976
6.49587
6.44074
6.39258
6.3489
6.30665
6.26239
6.21272
6.15448
6.0854
6.00397
5.90968
5.80299
5.68524
5.55828
5.42418
5.28485
5.14231
4.99797
4.85354
4.70991
4.56839
4.42964
4.29458
4.16386
4.03793
3.91753
3.80303
3.69502
3.59389
3.50026
3.41472
3.33797
3.27092
3.21437
3.1698
3.1372
3.12191
3.12257
3.12641
3.13686
3.16019
3.19765
3.24773
3.31247
3.38886
3.46886
3.5448
3.60739
3.65031
3.66421
3.66257
3.65603
3.64055
3.6092
3.57055
3.52888
3.4861
3.44276
3.39901
3.35513
3.31146
3.26837
3.22625
3.18552
3.14673
3.11051
3.07775
3.04941
3.02685
3.01118
3.00098
3.0013
3.00388
3.01133
3.02775
3.05955
3.08553
3.13251
6.14325
7.44708
8.48675
9.54384
10.2125
10.3362
10.2445
9.97158
9.45383
9.02468
8.61291
8.25355
7.96455
7.71168
7.50588
7.3435
7.20446
7.07997
6.96517
6.85859
6.76043
6.67135
6.59171
6.52145
6.45972
6.40492
6.35469
6.30601
6.25563
6.20006
6.13636
6.06202
5.97571
5.87682
5.76585