/*--------------------------------*- C++ -*----------------------------------*\
  =========                 |
  \\      /  F ield         | OpenFOAM: The Open Source CFD Toolbox
   \\    /   O peration     | Website:  https://openfoam.org
    \\  /    A nd           | Version:  6
     \\/     M anipulation  |
\*---------------------------------------------------------------------------*/
FoamFile
{
    version     2.0;
    format      ascii;
    class       surfaceScalarField;
    location    "5";
    object      phi;
}
// * * * * * * * * * * * * * * * * * * * * * * * * * * * * * * * * * * * * * //

dimensions      [1 0 -1 0 0 0 0];

internalField   nonuniform List<scalar> 
10325
(
0.00840002
3.66356e-10
0.00840002
2.28838e-09
0.00840001
6.95279e-09
0.00839999
1.84335e-08
0.00839995
4.16746e-08
0.00839985
9.79646e-08
0.00839965
2.06931e-07
0.00839911
4.99275e-07
0.00839813
1.02797e-06
0.00839511
2.85562e-06
0.00838828
6.84386e-06
0.00836553
2.26456e-05
0.00827471
8.99265e-05
0.00779775
0.000475139
0.00715513
0.000641832
0.00647017
0.000684262
0.00579719
0.000672295
0.00512287
0.000673657
0.0044629
0.000659214
0.00377853
0.000683693
0.00305534
0.000722514
0.00230779
0.000746919
0.00154851
0.000758682
0.000775859
0.000772046
0.000775279
0.00840002
7.65915e-10
0.00840002
4.78969e-09
0.00840001
1.44987e-08
0.00839999
3.85527e-08
0.00839994
8.69954e-08
0.00839983
2.05832e-07
0.00839961
4.33786e-07
0.00839902
1.06128e-06
0.00839792
2.16234e-06
0.00839446
6.1575e-06
0.00838648
1.48339e-05
0.00835903
4.9996e-05
0.00824801
0.000200037
0.00771514
0.00100618
0.00710183
0.00125434
0.00647688
0.0013085
0.00584049
0.00130801
0.00518454
0.00132892
0.0045063
0.0013367
0.0037991
0.00139021
0.00306769
0.00145324
0.00231298
0.00150099
0.00154951
0.00152154
0.000781193
0.00153974
0.00155589
0.00840002
1.19842e-09
0.00840002
7.49303e-09
0.00840001
2.26584e-08
0.00839999
6.03269e-08
0.00839994
1.36159e-07
0.00839982
3.23165e-07
0.00839957
6.81444e-07
0.00839893
1.67718e-06
0.00839771
3.40979e-06
0.00839392
9.7978e-06
0.00838508
2.3681e-05
0.00835459
8.03846e-05
0.00823577
0.000317947
0.00769531
0.00154479
0.00707565
0.00187317
0.00647039
0.00191304
0.00585911
0.00191859
0.0052244
0.00196298
0.00454775
0.00201259
0.00383461
0.00210263
0.003095
0.00219215
0.00233473
0.0022606
0.00155347
0.00230219
0.000770198
0.00232239
0.00232549
0.00840002
1.65078e-09
0.00840002
1.03205e-08
0.00840001
3.11891e-08
0.00839999
8.30956e-08
0.00839993
1.87573e-07
0.00839981
4.45862e-07
0.00839955
9.40561e-07
0.00839888
2.32064e-06
0.00839761
4.71315e-06
0.00839367
1.35841e-05
0.0083845
3.28534e-05
0.00835273
0.000112047
0.00823526
0.000434502
0.00769563
0.00208253
0.00707388
0.00249404
0.00648341
0.00250275
0.00589476
0.00250651
0.00527891
0.00257803
0.0046168
0.00267389
0.00391001
0.00280877
0.00316284
0.00293868
0.00239214
0.00303062
0.00159945
0.00309424
0.000790616
0.00313058
0.00311547
0.00840002
2.10569e-09
0.00840002
1.3167e-08
0.00840001
3.97858e-08
0.00839999
1.06027e-07
0.00839993
2.39228e-07
0.00839981
5.69195e-07
0.00839955
1.19952e-06
0.00839887
2.97121e-06
0.00839763
5.98693e-06
0.00839364
1.74191e-05
0.00838444
4.20483e-05
0.00835424
0.000142165
0.00824263
0.000545185
0.00771344
0.00260979
0.00709186
0.00311472
0.00651082
0.00308304
0.00594488
0.0030717
0.0053555
0.00316671
0.00470864
0.00331974
0.0040124
0.003504
0.00327892
0.00367141
0.00249639
0.00381245
0.00167839
0.00391158
0.000840855
0.00396741
0.00395567
0.00840002
2.56288e-09
0.00840002
1.60531e-08
0.00840001
4.84934e-08
0.00839998
1.29425e-07
0.00839993
2.91597e-07
0.0083998
6.96244e-07
0.00839954
1.46565e-06
0.00839892
3.56267e-06
0.00839709
7.83754e-06
0.00839494
1.94175e-05
0.0083799
5.70677e-05
0.00837624
0.000145593
0.00825378
0.000666598
0.00774889
0.0031126
0.00711152
0.00375101
0.00656969
0.0036242
0.00603304
0.00360764
0.00546931
0.00372974
0.00484648
0.00394189
0.00416437
0.00418541
0.00343449
0.0044003
0.00265787
0.00458824
0.00181681
0.00475185
0.000919737
0.00486374
0.00487455
0.00840002
3.06877e-09
0.00840002
1.92131e-08
0.00840001
5.80432e-08
0.00839998
1.5484e-07
0.00839992
3.48973e-07
0.00839978
8.32203e-07
0.0083995
1.75202e-06
0.00839877
4.26797e-06
0.00839741
9.21224e-06
0.00839311
2.35723e-05
0.00838464
6.55043e-05
0.00835159
0.000178417
0.00826755
0.000749558
0.00779608
0.00358201
0.00716408
0.00438171
0.00665815
0.00412948
0.00615191
0.00411311
0.00561901
0.00426183
0.00502519
0.00453472
0.00437525
0.00483439
0.0036642
0.00511055
0.00287863
0.00537298
0.00201404
0.00561554
0.00105064
0.00582625
0.00592437
0.00840002
3.61837e-09
0.00840002
2.26388e-08
0.00840001
6.84264e-08
0.00839998
1.82338e-07
0.00839992
4.11313e-07
0.00839977
9.77685e-07
0.00839946
2.06075e-06
0.0083987
4.99753e-06
0.00839728
1.06523e-05
0.00839293
2.77655e-05
0.00838569
7.27289e-05
0.00835044
0.000213388
0.00828647
0.000812541
0.0078747
0.00399156
0.00730058
0.0049545
0.00678982
0.0046396
0.0063085
0.0045936
0.00581048
0.00475904
0.0052577
0.00508636
0.00464721
0.00544382
0.00397252
0.00578405
0.00322138
0.00612291
0.00233987
0.00649596
0.00127558
0.00688947
0.00719906
0.00840002
4.22297e-09
0.00840002
2.63985e-08
0.00840001
7.98676e-08
0.00839998
2.12459e-07
0.00839991
4.79833e-07
0.00839974
1.13515e-06
0.00839941
2.39624e-06
0.00839859
5.78992e-06
0.00839725
1.20093e-05
0.0083922
3.26495e-05
0.00838715
7.78029e-05
0.00834546
0.000254701
0.00829165
0.00086548
0.00792662
0.00435429
0.00739989
0.00547973
0.0069424
0.00509633
0.00649862
0.0050365
0.00604841
0.00520829
0.00555538
0.00557826
0.0050067
0.00599123
0.00441135
0.00637852
0.00373093
0.00680248
0.00288
0.00734563
0.00174833
0.00801991
0.00894611
0.00840002
4.92144e-09
0.00840002
3.07635e-08
0.0084
9.30634e-08
0.00839997
2.47587e-07
0.00839989
5.59263e-07
0.0083997
1.32294e-06
0.0083993
2.79327e-06
0.00839833
6.72687e-06
0.00839634
1.40187e-05
0.00839133
3.74942e-05
0.00837942
8.97186e-05
0.00834666
0.000287051
0.00825988
0.000951421
0.00784941
0.00476229
0.00758145
0.00574637
0.00711569
0.00556154
0.0067261
0.0054251
0.00629252
0.00564081
0.00590941
0.00595997
0.00549484
0.00640438
0.00502511
0.00684686
0.00445843
0.00736742
0.00376369
0.00803942
0.00279977
0.00898247
0.0117447
0.00840002
5.71347e-09
0.00840002
3.57114e-08
0.0084
1.07947e-07
0.00839996
2.87459e-07
0.00839987
6.49526e-07
0.00839965
1.53957e-06
0.00839919
3.25265e-06
0.00839804
7.84868e-06
0.00839572
1.63431e-05
0.00838951
4.35383e-05
0.008375
0.000104201
0.00833479
0.000326845
0.00824046
0.00104478
0.00780059
0.0051995
0.00760735
0.00593796
0.00725188
0.00591631
0.0069285
0.00574763
0.00664593
0.00592227
0.00635418
0.00625049
0.00608389
0.00667332
0.00575802
0.00717089
0.00541605
0.00770836
0.00522596
0.00822714
0.00557336
0.00863188
0.00817878
0.00913438
0.00840002
6.50039e-09
0.00840002
4.06372e-08
0.0084
1.2261e-07
0.00839996
3.27277e-07
0.00839987
7.39364e-07
0.00839964
1.76207e-06
0.00839917
3.72196e-06
0.00839795
9.04116e-06
0.00839541
1.88882e-05
0.00838974
4.90309e-05
0.00836919
0.000124708
0.00834649
0.000349092
0.00826292
0.00112729
0.0079645
0.00549507
0.0076371
0.00626416
0.00738048
0.00617192
0.00718536
0.00594173
0.00699301
0.00611357
0.00678662
0.00645555
0.00660063
0.00685763
0.00647736
0.00729347
0.0064928
0.00768824
0.00672692
0.007992
0.00735875
0.00799656
0.007301
0.00822944
0.00840002
7.04198e-09
0.00840002
4.39715e-08
0.00840001
1.32511e-07
0.00839998
3.53886e-07
0.00839992
8.00904e-07
0.00839977
1.90828e-06
0.00839944
4.04626e-06
0.00839866
9.78689e-06
0.00839725
2.02951e-05
0.00839279
5.3307e-05
0.00839026
0.000127066
0.00834883
0.000390325
0.00836406
0.00111055
0.00829447
0.00556143
0.00795985
0.00659804
0.00774218
0.00638882
0.00751967
0.00616328
0.00735328
0.00627829
0.00722046
0.00658713
0.00714381
0.00693271
0.00719025
0.00724396
0.00739871
0.00747857
0.00776758
0.00761878
0.00828414
0.00747877
0.00686672
0.0087063
0.00840003
6.99965e-09
0.00840003
4.36661e-08
0.00840003
1.31566e-07
0.00840003
3.51126e-07
0.00840004
7.92968e-07
0.00840005
1.89107e-06
0.00840013
3.96366e-06
0.00840013
9.75281e-06
0.00840136
1.90647e-05
0.0083984
5.60663e-05
0.00841538
0.000110083
0.00839065
0.000414412
0.00844786
0.00105243
0.00896467
0.00504063
0.00858439
0.00697796
0.00819072
0.0067821
0.00792013
0.00643269
0.00777773
0.00641956
0.00771327
0.00664923
0.00772168
0.00692232
0.00781666
0.00714671
0.00804694
0.00724538
0.00840741
0.00725262
0.00883342
0.00704967
0.00655586
0.00913624
0.00840003
6.35984e-09
0.00840003
3.97036e-08
0.00840004
1.19927e-07
0.00840007
3.19285e-07
0.00840014
7.22139e-07
0.00840032
1.70807e-06
0.00840067
3.60671e-06
0.0084018
8.59628e-06
0.00840317
1.76848e-05
0.00841219
4.68728e-05
0.00842665
9.55681e-05
0.00851712
0.000323265
0.00876573
0.000803022
0.0104399
0.00336176
0.00965617
0.00776131
0.00885697
0.00758097
0.00846915
0.00681975
0.00826237
0.00662492
0.0081996
0.0067099
0.00824823
0.00687255
0.00837424
0.00701535
0.00858168
0.00703737
0.00887451
0.00695118
0.00921101
0.00671109
0.00628091
0.00947789
0.00840003
5.52409e-09
0.00840003
3.45089e-08
0.00840005
1.04519e-07
0.00840009
2.77497e-07
0.00840018
6.28717e-07
0.00840041
1.47365e-06
0.00840088
3.13775e-06
0.00840218
7.27216e-06
0.00840446
1.5394e-05
0.00841481
3.63944e-05
0.00842437
8.59569e-05
0.00852381
0.000223289
0.00872421
0.000602525
0.00990382
0.00217962
0.00992134
0.00774141
0.00978071
0.00771992
0.00906707
0.00753241
0.00876918
0.00692088
0.00866148
0.00681592
0.00868509
0.00684717
0.00881433
0.00688174
0.00900682
0.00684434
0.00924726
0.00669985
0.00950955
0.00644722
0.00605205
0.00973286
0.00840003
4.83212e-09
0.00840003
3.01847e-08
0.00840005
9.14235e-08
0.00840008
2.42672e-07
0.00840016
5.48963e-07
0.00840034
1.28766e-06
0.00840075
2.72469e-06
0.00840165
6.35959e-06
0.00840382
1.32085e-05
0.0084078
3.23045e-05
0.00842245
7.12689e-05
0.00845531
0.000189954
0.00852081
0.000536623
0.00888393
0.00181502
0.00975062
0.00687023
0.00967761
0.00779095
0.00948192
0.00772665
0.00919494
0.00720596
0.00907363
0.00693516
0.00907094
0.00684747
0.00916989
0.00678187
0.00933145
0.00668049
0.00953173
0.00649038
0.00974498
0.00622725
0.00587052
0.00992271
0.00840003
4.30232e-09
0.00840003
2.68551e-08
0.00840004
8.12049e-08
0.00840007
2.15821e-07
0.00840013
4.88321e-07
0.00840026
1.14879e-06
0.00840056
2.42932e-06
0.0084012
5.69815e-06
0.00840266
1.17427e-05
0.00840519
2.96762e-05
0.00841681
5.96586e-05
0.00842535
0.000180908
0.00852532
0.000436384
0.00875766
0.0015814
0.0096676
0.00595583
0.00970071
0.00775618
0.00963072
0.00779527
0.00946217
0.00737303
0.00939146
0.00700391
0.00939972
0.00683571
0.00947313
0.00670522
0.00959636
0.00655654
0.00974511
0.00633416
0.00991703
0.00604972
0.00571682
0.0100628
0.00840003
3.73086e-09
0.00840003
2.32771e-08
0.00840004
7.02947e-08
0.00840007
1.87003e-07
0.00840014
4.23281e-07
0.00840029
9.97397e-07
0.0084006
2.11179e-06
0.00840133
4.95297e-06
0.00840285
1.02163e-05
0.00840651
2.59292e-05
0.00841646
4.97006e-05
0.00844199
0.000154928
0.00851801
0.000360071
0.0088057
0.00129231
0.0106218
0.00413528
0.0102461
0.00813016
0.010103
0.00793704
0.00985192
0.00762167
0.00973954
0.00711697
0.00972939
0.00684167
0.0097772
0.00665452
0.00986582
0.00646598
0.00996302
0.00623094
0.0100753
0.00593198
0.00559683
0.0101894
0.00840003
2.99774e-09
0.00840003
1.87182e-08
0.00840005
5.67268e-08
0.00840008
1.5043e-07
0.00840017
3.40585e-07
0.00840037
7.96258e-07
0.00840079
1.68716e-06
0.00840184
3.89538e-06
0.00840397
8.0773e-06
0.00841058
1.92616e-05
0.00841962
4.06349e-05
0.00847366
0.000100591
0.00857474
0.000258584
0.00914109
0.000725313
0.011041
0.00223193
0.0111765
0.00799132
0.0108776
0.00823462
0.0104798
0.00801763
0.0102078
0.00738855
0.0100983
0.00694746
0.0100895
0.00665983
0.0101371
0.00641595
0.010202
0.00616102
0.0102633
0.00586443
0.00552701
0.0103275
0.00840003
2.38123e-09
0.00840003
1.48645e-08
0.00840005
4.50815e-08
0.00840008
1.19382e-07
0.00840015
2.70298e-07
0.00840031
6.29604e-07
0.00840066
1.33395e-06
0.00840149
3.05643e-06
0.00840324
6.33007e-06
0.0084074
1.50525e-05
0.00841801
3.00096e-05
0.00843568
8.26202e-05
0.00852435
0.000169877
0.00865567
0.000592946
0.009313
0.00157279
0.0110454
0.00625305
0.011115
0.00816295
0.0109476
0.00818287
0.0106159
0.00771886
0.0104495
0.00711169
0.0103857
0.00671965
0.0103832
0.00641533
0.0104194
0.0061212
0.0104598
0.00581815
0.00548513
0.0104957
0.00840003
1.89012e-09
0.00840003
1.17958e-08
0.00840004
3.57407e-08
0.00840007
9.47143e-08
0.00840012
2.14427e-07
0.00840025
5.00238e-07
0.00840052
1.05967e-06
0.00840114
2.43316e-06
0.00840244
5.0259e-06
0.00840554
1.19119e-05
0.00841153
2.40015e-05
0.00842911
6.47963e-05
0.00847515
0.000123765
0.00862668
0.000440472
0.00913291
0.0010654
0.0113096
0.00407081
0.0113765
0.00809381
0.0113514
0.0082063
0.0111239
0.00794464
0.0108432
0.00739053
0.010703
0.00685735
0.0106449
0.00646945
0.0106298
0.0061328
0.0106359
0.00580653
0.00546767
0.0106476
0.00840003
1.45688e-09
0.00840003
9.09732e-09
0.00840004
2.75797e-08
0.00840006
7.30726e-08
0.00840011
1.6543e-07
0.00840022
3.8567e-07
0.00840047
8.17767e-07
0.00840102
1.87259e-06
0.00840215
3.89524e-06
0.00840498
9.05085e-06
0.00841
1.89598e-05
0.00843013
4.45135e-05
0.0084476
0.000106141
0.00863343
0.000253995
0.00896295
0.000735658
0.0107131
0.00231822
0.0117157
0.00708684
0.0116571
0.00826251
0.0114539
0.00814604
0.0111961
0.00764636
0.0110607
0.00699023
0.0109696
0.00655692
0.0109189
0.00617981
0.0108864
0.00583419
0.00549005
0.0108589
0.00840003
1.09273e-09
0.00840003
6.80025e-09
0.00840004
2.07462e-08
0.00840006
5.45336e-08
0.0084001
1.24237e-07
0.0084002
2.8679e-07
0.0084004
6.11926e-07
0.00840089
1.38348e-06
0.0084019
2.88478e-06
0.00840431
6.64471e-06
0.00840967
1.35624e-05
0.00841975
3.42432e-05
0.00846228
6.43293e-05
0.00851044
0.000205151
0.00880049
0.00044752
0.00936576
0.00174719
0.0115996
0.00484941
0.0117992
0.00806379
0.0118046
0.00813815
0.0116304
0.00781733
0.0113623
0.00725516
0.0112521
0.00666381
0.0111785
0.0062504
0.0111268
0.00588113
0.00552639
0.011085
0.00840003
6.72292e-10
0.00840003
5.30834e-09
0.00840004
1.36599e-08
0.00840005
4.1796e-08
0.00840009
8.15197e-08
0.00840016
2.19779e-07
0.00840037
3.93835e-07
0.00840069
1.06677e-06
0.00840177
1.80307e-06
0.00840326
5.17504e-06
0.00840869
8.1401e-06
0.00841683
2.62453e-05
0.00844468
3.66376e-05
0.0085034
0.000145351
0.00873463
0.000219796
0.009555
0.000918996
0.0120196
0.00239544
0.0126333
0.00743132
0.0124001
0.00836141
0.0121207
0.00809281
0.0118144
0.00756014
0.0116271
0.00684997
0.0114985
0.00637614
0.0114043
0.00597017
0.0056015
0.0113242
0.00840003
5.64902e-10
0.00840003
3.13676e-09
0.00840004
1.05007e-08
0.00840005
2.55327e-08
0.00840007
6.29346e-08
0.00840015
1.33408e-07
0.00840024
3.10951e-07
0.00840068
6.3323e-07
0.00840107
1.47694e-06
0.00840338
2.93572e-06
0.00840503
7.08148e-06
0.00841755
1.34013e-05
0.00841599
3.71944e-05
0.00850928
6.25636e-05
0.00851313
0.000221944
0.00900907
0.000455955
0.00950399
0.00183999
0.012062
0.004866
0.0124675
0.00796426
0.0125962
0.00796735
0.0123798
0.00777299
0.012056
0.00716788
0.0118466
0.00658147
0.0117157
0.00609776
0.00570653
0.011607
0.00840003
3.93397e-10
0.00840003
2.19809e-09
0.00840003
7.19471e-09
0.00840004
1.7816e-08
0.00840006
4.30077e-08
0.0084001
9.30436e-08
0.0084002
2.11743e-07
0.00840039
4.42034e-07
0.00840087
1.00182e-06
0.00840175
2.0612e-06
0.00840412
4.72525e-06
0.00840781
9.81198e-06
0.00842221
2.22699e-05
0.00843571
5.05328e-05
0.00854547
0.000108321
0.00871679
0.000298519
0.00974162
0.000775331
0.0124416
0.00219721
0.0131096
0.00731075
0.0129638
0.0081075
0.0128533
0.00787592
0.012495
0.00752071
0.012259
0.00681451
0.0120658
0.00628849
0.00585354
0.0119161
0.00840003
2.56325e-10
0.00840003
1.44551e-09
0.00840003
4.70287e-09
0.00840004
1.17247e-08
0.00840005
2.79273e-08
0.00840009
6.06585e-08
0.00840016
1.35356e-07
0.00840032
2.8346e-07
0.00840069
6.25987e-07
0.00840146
1.29135e-06
0.00840329
2.90307e-06
0.00840738
5.74612e-06
0.00841529
1.43785e-05
0.00844085
2.51574e-05
0.00846621
8.20645e-05
0.00862741
0.000138011
0.00883504
0.000562441
0.00972454
0.00130847
0.012434
0.00459206
0.0129495
0.00758333
0.0131117
0.00770565
0.0129996
0.00762922
0.0126796
0.00713319
0.0124469
0.00651977
0.00603311
0.0122645
0.00840003
1.92198e-10
0.00840003
9.09253e-10
0.00840003
3.37921e-09
0.00840004
7.4812e-09
0.00840004
2.01331e-08
0.00840007
3.88951e-08
0.0084001
9.94935e-08
0.0084002
1.82628e-07
0.00840035
4.75152e-07
0.0084008
8.37237e-07
0.00840142
2.28101e-06
0.00840337
3.79599e-06
0.00840636
1.13699e-05
0.00841499
1.65432e-05
0.00843675
6.00823e-05
0.00849756
7.73567e-05
0.00872416
0.000334284
0.00940564
0.000625412
0.0119665
0.00202453
0.0130977
0.00644187
0.0131156
0.00768226
0.0132141
0.0075274
0.012985
0.00736128
0.0127554
0.0067488
0.00622784
0.0125581
0.00840003
8.82475e-11
0.00840003
6.62326e-10
0.00840003
1.76118e-09
0.00840003
5.25586e-09
0.00840004
1.04749e-08
0.00840006
2.72242e-08
0.00840011
4.98863e-08
0.00840016
1.28477e-07
0.00840041
2.23355e-07
0.00840065
5.97421e-07
0.00840195
9.78033e-07
0.00840289
2.8467e-06
0.0084102
4.06308e-06
0.00841173
1.49418e-05
0.00845595
1.59325e-05
0.00844458
8.82983e-05
0.00868996
8.91374e-05
0.00875619
0.000557619
0.00965447
0.00112344
0.0125435
0.0035454
0.0131642
0.00705853
0.0132379
0.00745191
0.0132504
0.00734638
0.0129528
0.00704396
0.00640979
0.0127686
0.00840003
6.48961e-11
0.00840003
3.62301e-10
0.00840003
1.20725e-09
0.00840003
2.94201e-09
0.00840004
7.1593e-09
0.00840005
1.51403e-08
0.00840006
3.45827e-08
0.00840012
7.01562e-08
0.00840019
1.59544e-07
0.00840047
3.17175e-07
0.00840071
7.3392e-07
0.00840212
1.43427e-06
0.0084027
3.45627e-06
0.00841119
6.46094e-06
0.00840953
1.746e-05
0.0084674
3.04345e-05
0.00845748
9.84786e-05
0.00882861
0.000186231
0.00927743
0.000672732
0.0111768
0.00164329
0.0132135
0.00501622
0.0134056
0.00725673
0.0134886
0.0072605
0.0133921
0.00713787
0.00670061
0.0130992
0.00840003
4.073e-11
0.00840003
2.29251e-10
0.00840003
7.49586e-10
0.00840003
1.85864e-09
0.00840003
4.44215e-09
0.00840004
9.57603e-09
0.00840005
2.14315e-08
0.00840008
4.45005e-08
0.00840014
9.86234e-08
0.00840025
2.02136e-07
0.00840054
4.51168e-07
0.00840105
9.18048e-07
0.00840241
2.08772e-06
0.00840469
4.17005e-06
0.00841207
1.00189e-05
0.00842315
1.9349e-05
0.00846851
5.26782e-05
0.00855411
0.000100829
0.00889856
0.000326589
0.00974264
0.00079815
0.0123203
0.00242981
0.0135014
0.0060712
0.0135376
0.00722207
0.0136795
0.00699399
0.00687607
0.0135018
0.00840003
2.56641e-11
0.00840003
1.44275e-10
0.00840003
4.71756e-10
0.00840003
1.16947e-09
0.00840003
2.79874e-09
0.00840004
6.03473e-09
0.00840004
1.35406e-08
0.00840006
2.81266e-08
0.0084001
6.25752e-08
0.00840017
1.28304e-07
0.00840033
2.87757e-07
0.00840066
5.85656e-07
0.00840141
1.33284e-06
0.00840289
2.69392e-06
0.00840658
6.27978e-06
0.00841335
1.25645e-05
0.00843489
3.09161e-05
0.00847239
6.32457e-05
0.00862932
0.000168523
0.00901235
0.000415145
0.0101207
0.00131831
0.0128274
0.00335729
0.0136164
0.00642993
0.0136725
0.00693558
0.0067588
0.0137875
0.00840003
1.58232e-11
0.00840003
8.91752e-11
0.00840003
2.90906e-10
0.00840003
7.23064e-10
0.00840003
1.72438e-09
0.00840003
3.72687e-09
0.00840004
8.32364e-09
0.00840005
1.7336e-08
0.00840007
3.83211e-08
0.00840012
7.88568e-08
0.00840024
1.75207e-07
0.00840046
3.58394e-07
0.00840099
8.03993e-07
0.00840204
1.63644e-06
0.00840457
3.73012e-06
0.00840965
7.48572e-06
0.00842261
1.78249e-05
0.00845057
3.52708e-05
0.00852599
9.24973e-05
0.00874844
0.000192289
0.00944984
0.000614863
0.0113537
0.00145044
0.0134769
0.0042986
0.0138297
0.00657854
0.00672113
0.0138617
0.00840003
1.01389e-11
0.00840003
5.19961e-11
0.00840003
1.8182e-10
0.00840003
4.25344e-10
0.00840003
1.0765e-09
0.00840003
2.2024e-09
0.00840004
5.23091e-09
0.00840004
1.02931e-08
0.00840006
2.44017e-08
0.00840009
4.71268e-08
0.00840015
1.13819e-07
0.00840029
2.15125e-07
0.00840056
5.40103e-07
0.00840122
9.71469e-07
0.00840232
2.62301e-06
0.00840555
4.25073e-06
0.00841044
1.28844e-05
0.00842813
1.76109e-05
0.00845667
6.35772e-05
0.0085726
7.66617e-05
0.00886339
0.000322781
0.00970546
0.000606835
0.0123329
0.00166901
0.013768
0.00513419
0.00650224
0.0139841
0.00840003
4.40861e-12
0.00840003
2.98323e-11
0.00840003
8.57904e-11
0.00840003
2.37832e-10
0.00840003
5.06559e-10
0.00840003
1.20509e-09
0.00840003
2.38244e-09
0.00840004
5.48573e-09
0.00840005
1.05074e-08
0.00840008
2.43837e-08
0.00840015
4.51035e-08
0.00840025
1.09896e-07
0.00840061
1.85758e-07
0.00840106
5.17382e-07
0.00840295
7.30312e-07
0.00840466
2.55705e-06
0.00841472
2.82495e-06
0.00841858
1.37404e-05
0.00847098
1.1371e-05
0.00846939
7.75296e-05
0.00872904
6.44478e-05
0.0088984
0.000434382
0.009838
0.000728603
0.0127803
0.00218146
0.00539879
0.0138684
0.00840003
2.12108e-12
0.00840003
1.23593e-11
0.00840003
4.06907e-11
0.00840003
1.00435e-10
0.00840003
2.33438e-10
0.00840003
4.89602e-10
0.00840003
1.03469e-09
0.00840004
2.05329e-09
0.00840004
4.18214e-09
0.00840006
7.99324e-09
0.00840009
1.62358e-08
0.00840017
2.86368e-08
0.00840029
6.19226e-08
0.00840072
9.05452e-08
0.00840123
2.30869e-07
0.00840355
2.41515e-07
0.00840537
1.01269e-06
0.00841846
6.99127e-07
0.00842239
7.28028e-06
0.00849358
6.63984e-06
0.00849696
5.95363e-05
0.00884981
8.2174e-05
0.00914755
0.000425686
0.0104452
0.000876796
0.00267546
0.013149
0.00840003
1.22166e-12
0.00840003
6.30906e-12
0.00840003
2.2157e-11
0.00840003
5.16586e-11
0.00840003
1.28845e-10
0.00840003
2.59281e-10
0.00840003
6.0161e-10
0.00840003
1.1526e-09
0.00840003
2.68167e-09
0.00840004
4.99747e-09
0.00840004
1.20969e-08
0.00840005
2.16736e-08
0.00840005
5.67277e-08
0.00840005
9.39329e-08
0.00840001
2.70732e-07
0.00839985
4.05657e-07
0.00839956
1.27649e-06
0.00839848
1.77928e-06
0.00839914
6.45922e-06
0.0083984
7.24487e-06
0.00842063
3.54218e-05
0.00846971
3.31379e-05
0.00868405
0.000201876
0.00930736
0.000248396
0.000842719
0.0111056
0.00840003
5.64959e-13
0.00840003
3.82082e-12
0.00840003
1.09296e-11
0.00840003
3.02659e-11
0.00840003
6.41596e-11
0.00840003
1.51906e-10
0.00840003
2.9795e-10
0.00840003
6.83619e-10
0.00840003
1.27556e-09
0.00840004
3.02955e-09
0.00840004
5.22141e-09
0.00840005
1.37174e-08
0.00840009
1.94512e-08
0.00840011
6.37171e-08
0.00840031
5.96525e-08
0.00840039
2.83574e-07
0.00840193
1.56342e-07
0.00840115
1.1246e-06
0.0084134
3.85502e-07
0.00840082
4.4812e-06
0.00846051
5.11382e-06
0.00841118
5.68217e-05
0.00854216
-1.8829e-05
0.00852804
0.000316499
3.27769e-05
0.00931623
0.00840003
3.24995e-13
0.00840003
1.7149e-12
0.00840003
5.97619e-12
0.00840003
1.39518e-11
0.00840003
3.44095e-11
0.00840003
6.87387e-11
0.00840003
1.57101e-10
0.00840003
2.88587e-10
0.00840003
6.86389e-10
0.00840003
1.09744e-09
0.00840004
2.99698e-09
0.00840005
3.80439e-09
0.00840005
1.36729e-08
0.0084001
1.1688e-08
0.00840005
7.59545e-08
0.0084003
1.42142e-08
0.00839996
3.94239e-07
0.00840107
-4.32486e-08
0.00839794
1.25814e-06
0.00837629
9.8874e-07
0.0083915
3.24691e-06
0.00859819
-3.62787e-05
0.00840369
6.85929e-05
0.00894684
-0.000287573
0.000510726
0.0083878
0.00840003
1.25964e-13
0.00840003
8.7399e-13
0.00840003
2.4923e-12
0.00840003
6.92775e-12
0.00840003
1.43137e-11
0.00840003
3.38826e-11
0.00840003
6.21231e-11
0.00840003
1.48912e-10
0.00840003
2.27417e-10
0.00840003
6.49156e-10
0.00840003
6.6888e-10
0.00840003
2.77398e-09
0.00840005
7.97786e-10
0.00840004
1.22908e-08
0.00840014
-9.58986e-09
0.00839999
8.94025e-08
0.0084004
-8.40257e-08
0.00839925
6.82357e-07
0.00840467
-1.72338e-06
0.00839916
6.69848e-07
0.00847318
-1.82209e-05
0.00839925
-2.11812e-05
0.00858947
-5.33407e-05
0.00787341
0.000401021
-0.000379383
0.00871428
0.00840003
6.8669e-14
0.00840003
3.38884e-13
0.00840003
1.25485e-12
0.00840003
2.77593e-12
0.00840003
7.16286e-12
0.00840003
1.31357e-11
0.00840003
3.2388e-11
0.00840003
4.90697e-11
0.00840003
1.48184e-10
0.00840003
1.34022e-10
0.00840003
7.33284e-10
0.00840003
2.88755e-10
0.00840003
4.26738e-09
0.00840005
7.27354e-10
0.0084
2.93894e-08
0.00840014
-1.96667e-08
0.00839988
2.03286e-07
0.0083994
-3.34297e-07
0.00839505
2.40245e-06
0.00839309
8.14452e-07
0.00834754
1.99271e-05
0.00828175
2.80582e-05
0.0080863
6.15844e-05
0.00872865
-0.000343517
0.000503786
0.00785457
0.00840003
2.17096e-14
0.00840003
1.82384e-13
0.00840003
4.61847e-13
0.00840003
1.44075e-12
0.00840003
2.64488e-12
0.00840003
7.24747e-12
0.00840003
1.09189e-11
0.00840003
3.51904e-11
0.00840003
3.08365e-11
0.00840003
1.85543e-10
0.00840003
4.09789e-11
0.00840003
9.94884e-10
0.00840004
-1.3433e-10
0.00840003
5.95738e-09
0.00840007
-5.6678e-09
0.00839996
6.4433e-08
0.00840046
-1.2397e-07
0.00839928
3.67657e-07
0.00839589
-4.49166e-07
0.00840511
6.40511e-07
0.00839468
-1.5609e-06
0.00838221
3.39528e-05
0.00855623
-3.73311e-05
0.0076606
0.000352609
-0.000257377
0.00851774
0.00840003
1.23273e-14
0.00840003
7.03627e-14
0.00840003
2.3155e-13
0.00840003
5.47964e-13
0.00840003
1.28589e-12
0.00840003
2.48021e-12
0.00840003
5.9071e-12
0.00840003
9.34546e-12
0.00840003
3.13689e-11
0.00840003
3.90927e-11
0.00840003
1.79785e-10
0.00840003
2.63179e-10
0.00840003
1.23796e-09
0.00840004
1.98011e-09
0.00840001
7.64555e-09
0.00840006
1.07736e-08
0.00839949
5.65409e-08
0.0083992
6.45115e-08
0.00840012
3.45405e-07
0.00839496
6.3844e-08
0.00840955
2.88192e-06
0.00845254
5.21971e-06
0.00834708
9.9043e-06
0.00870863
7.50725e-06
8.5801e-05
0.00823931
0.00840003
6.49193e-15
0.00840003
3.73729e-14
0.00840003
1.15966e-13
0.00840003
2.83696e-13
0.00840003
6.06947e-13
0.00840003
1.24367e-12
0.00840003
2.3201e-12
0.00840003
4.28645e-12
0.00840003
8.17824e-12
0.00840003
1.2314e-11
0.00840003
3.42243e-11
0.00840003
5.81333e-11
0.00840003
1.98416e-10
0.00840003
8.79201e-11
0.00840001
3.89826e-09
0.00839998
6.85078e-09
0.00839955
4.94057e-08
0.00839826
1.3833e-07
0.00839869
1.08002e-07
0.00837712
1.14725e-06
0.00841677
-1.06571e-06
0.00840374
-3.30744e-06
0.00839946
4.16685e-06
0.00836563
5.76034e-06
5.58219e-05
0.00833045
0.00840003
3.82604e-15
0.00840003
2.14433e-14
0.00840003
6.72713e-14
0.00840003
1.70596e-13
0.00840003
3.53317e-13
0.00840003
7.95223e-13
0.00840003
9.82875e-13
0.00840003
2.33184e-12
0.00840003
-1.43267e-12
0.00840003
-2.50253e-12
0.00840003
-2.46275e-11
0.00840003
-6.15455e-11
0.00840003
-6.74264e-11
0.00840004
-1.3476e-10
0.00840002
9.00396e-10
0.00840012
1.43147e-09
0.00839967
3.56571e-08
0.0083991
7.8793e-08
0.00839913
1.84783e-07
0.00840056
6.50442e-07
0.00839057
3.6099e-07
0.00848189
-2.95173e-07
0.00837683
4.11025e-06
0.00835555
1.25315e-05
6.74781e-05
0.00827863
0.00840003
1.58489e-15
0.00840003
8.77152e-15
0.00840003
3.18638e-14
0.00840003
1.00253e-13
0.00840003
2.61204e-13
0.00840003
8.31611e-13
0.00840003
1.23107e-12
0.00840003
5.7676e-12
0.00840003
1.59306e-12
0.00840003
1.97428e-11
0.00840003
-4.35553e-11
0.00840003
-2.97945e-11
0.00840003
-5.82091e-10
0.00840002
-7.6753e-10
0.00840005
-4.54947e-09
0.00839998
-6.66139e-09
0.00839982
-2.38174e-08
0.00839955
-1.45527e-08
0.00839908
-1.34147e-07
0.00839805
4.92286e-07
0.00839055
-1.33976e-06
0.00851522
-5.23762e-06
0.0084
6.81778e-06
0.0084003
1.72366e-05
5.8099e-05
0.00831595
0.00840003
2.75198e-15
0.00840003
-1.55368e-14
0.00840003
3.11236e-14
0.00840003
-1.22578e-13
0.00840003
2.3394e-13
0.00840003
-1.14049e-12
0.00840003
2.43214e-12
0.00840003
-1.07828e-11
0.00840003
1.83421e-11
0.00840003
-7.50057e-11
0.00840003
1.24974e-10
0.00840003
-4.62686e-10
0.00840003
6.24459e-10
0.00840003
-3.13518e-09
0.00840002
5.08633e-09
0.0084001
-6.42218e-08
0.00840005
3.05108e-08
0.00840082
-7.02427e-07
0.00840055
-1.40625e-07
0.00839947
-3.22984e-06
0.0084147
-4.98473e-06
0.00842134
-9.6961e-06
0.00832403
5.25963e-05
0.00883357
-0.000179239
0.000344656
0.00807363
0.00840003
-3.57212e-15
0.00840003
1.13289e-14
0.00840003
-4.50042e-14
0.00840003
8.61325e-14
0.00840003
-3.22276e-13
0.00840003
8.46941e-13
0.00840003
-2.62727e-12
0.00840003
9.45738e-12
0.00840003
-1.70023e-11
0.00840003
7.84953e-11
0.00840003
-9.47142e-11
0.00840003
5.26369e-10
0.00840003
-5.10367e-10
0.00840002
3.3407e-09
0.00840002
-5.38501e-09
0.00839984
6.23062e-08
0.00839985
-3.71579e-08
0.00839782
6.84048e-07
0.0083959
2.09368e-07
0.00838825
3.41927e-06
0.00834463
5.9683e-06
0.00833163
9.66075e-06
0.00857738
-4.02713e-05
0.00797312
0.00019132
-0.000352808
0.00855152
0.00840003
0.00840003
0.00840003
0.00840003
0.00840003
0.00840003
0.00840003
0.00840003
0.00840003
0.00840003
0.00840003
0.00840003
0.00840003
0.00840003
0.00840003
0.00840006
0.00840003
0.00840072
0.0084005
0.00840268
0.00840829
0.00837887
0.00836172
0.00817733
0.00809567
0.00539213
0.00373407
0.00362597
0.00175033
0.00231929
0.00126601
0.00135053
0.000921851
0.000340617
0.000947356
-0.00060922
0.000935102
-0.0010938
0.000478472
-0.00158674
0.000497159
-0.00197281
0.000381547
-0.00225032
0.00027085
-0.0024034
0.000141528
-0.00249591
7.94732e-05
-0.00258197
7.8282e-05
-0.00267693
8.605e-05
-0.00276358
8.21594e-05
-0.00283524
6.95214e-05
-0.00289337
5.59476e-05
-0.00293827
4.72726e-05
-0.00298124
4.50246e-05
-0.00302342
4.38388e-05
-0.00306118
4.03465e-05
-0.00309398
3.41169e-05
-0.00311951
2.70724e-05
-0.00314667
2.94778e-05
-0.0031755
3.13753e-05
-0.00320051
2.75255e-05
-0.00321776
1.97243e-05
-0.00322749
1.18225e-05
-0.00322374
-2.29953e-06
-0.00319949
-2.44305e-05
-0.00314873
-5.25136e-05
-0.00306804
-8.35724e-05
-0.00295775
-0.000114468
-0.00281913
-0.00014244
-0.00266004
-0.000164349
-0.0024801
-0.00018521
-0.00228213
-0.000203254
-0.00207553
-0.000212624
-0.00186306
-0.000217675
-0.00164697
-0.000221993
-0.00143229
-0.000221192
-0.00121553
-0.000223114
-0.000990118
-0.00023219
-0.000756841
-0.000240348
-0.000524515
-0.000239541
-0.000289941
-0.000241763
-4.82431e-05
-0.000248753
0.000207285
-0.000262291
0.000452115
-0.000251212
0.000683669
-0.000237351
0.000905373
-0.000226984
0.00111995
-0.000219362
0.00132674
-0.000211273
0.0015254
-0.000202683
0.0017183
-0.000196555
0.00190981
-0.000194031
0.00209788
-0.000190409
0.00227965
-0.000183136
0.00245385
-0.000175328
0.00262009
-0.000166717
0.00277957
-0.000159361
0.00293157
-0.000151186
0.00307682
-0.000144208
0.00321462
-0.000136206
0.00334662
-0.000129423
0.0034712
-0.000121801
0.00358951