/*--------------------------------*- C++ -*----------------------------------*\
  =========                 |
  \\      /  F ield         | OpenFOAM: The Open Source CFD Toolbox
   \\    /   O peration     | Website:  https://openfoam.org
    \\  /    A nd           | Version:  6
     \\/     M anipulation  |
\*---------------------------------------------------------------------------*/
FoamFile
{
    version     2.0;
    format      ascii;
    class       volScalarField;
    location    "5";
    object      T;
}
// * * * * * * * * * * * * * * * * * * * * * * * * * * * * * * * * * * * * * //

dimensions      [0 0 0 1 0 0 0];

internalField   nonuniform List<scalar> 
5250
(
1.00006
1.00013
1.00041
1.00081
1.0023
1.00444
1.01215
1.02546
1.06208
1.15469
1.36989
1.94815
2.80115
2.75745
2.796
2.74765
2.72935
2.74797
2.75993
2.77454
2.78215
2.78712
2.79149
2.79434
2.79625
1.00006
1.00013
1.00041
1.0008
1.00229
1.00442
1.01211
1.02536
1.06185
1.15404
1.3685
1.94368
2.79967
2.75804
2.79365
2.74605
2.72864
2.74696
2.75919
2.77268
2.78031
2.78436
2.78897
2.79172
2.79293
1.00006
1.00013
1.00041
1.0008
1.00227
1.00438
1.01201
1.02513
1.06136
1.15256
1.36539
1.93197
2.79654
2.75942
2.78783
2.74234
2.72675
2.74475
2.75743
2.7703
2.77768
2.78228
2.78488
2.78827
2.78955
1.00005
1.00013
1.0004
1.00079
1.00224
1.00432
1.01185
1.02476
1.06058
1.15017
1.36034
1.91227
2.79152
2.76154
2.77929
2.73783
2.72337
2.74061
2.75259
2.76557
2.76995
2.77667
2.78029
2.78076
2.78135
1.00005
1.00013
1.00039
1.00077
1.0022
1.00423
1.01163
1.02425
1.05949
1.14683
1.35328
1.88437
2.78406
2.76367
2.76671
2.73086
2.71891
2.73618
2.74671
2.75932
2.76473
2.76638
2.77068
2.77338
2.77363
1.00005
1.00013
1.00038
1.00075
1.00214
1.00413
1.01135
1.02359
1.05815
1.14251
1.34421
1.84945
2.7718
2.76781
2.75725
2.71886
2.70962
2.72611
2.73789
2.74726
2.75362
2.75795
2.75734
2.75698
2.75803
1.00005
1.00012
1.00037
1.00073
1.00208
1.00399
1.01102
1.02279
1.05646
1.13824
1.33117
1.8287
2.76154
2.76517
2.74868
2.70878
2.7001
2.71456
2.72625
2.73516
2.7382
2.73996
2.74374
2.74257
2.73965
1.00005
1.00012
1.00036
1.0007
1.002
1.00383
1.01064
1.02184
1.05445
1.13292
1.31593
1.80243
2.73503
2.76058
2.73903
2.70022
2.68903
2.69977
2.70975
2.7187
2.72214
2.72159
2.71628
2.71325
2.70852
1.00005
1.00011
1.00034
1.00067
1.00191
1.00364
1.01016
1.02074
1.05202
1.12656
1.29871
1.77048
2.69625
2.7519
2.72186
2.69749
2.68029
2.68776
2.69001
2.69603
2.69766
2.69584
2.69118
2.67598
2.65683
1.00004
1.0001
1.00032
1.00063
1.0018
1.00343
1.0096
1.01949
1.04915
1.11889
1.2801
1.73246
2.63709
2.73985
2.69347
2.68795
2.67314
2.67692
2.67483
2.6729
2.66827
2.65988
2.64065
2.61434
2.54712
1.00004
1.0001
1.0003
1.00058
1.00167
1.00318
1.00893
1.01805
1.04578
1.11009
1.25849
1.6862
2.57036
2.71166
2.68543
2.67334
2.6582
2.66023
2.65959
2.65353
2.63627
2.62199
2.58972
2.5208
2.38626
1.00004
1.00009
1.00027
1.00053
1.00152
1.00289
1.00816
1.01635
1.04186
1.09973
1.23313
1.629
2.47495
2.6767
2.67738
2.66143
2.64154
2.6391
2.6361
2.62714
2.60724
2.56915
2.52917
2.46069
2.31932
1.00003
1.00008
1.00024
1.00047
1.00135
1.00255
1.00727
1.01435
1.03733
1.08791
1.20213
1.55802
2.35817
2.62271
2.66899
2.65475
2.62951
2.61992
2.61242
2.60169
2.58019
2.54097
2.47202
2.41144
2.30616
1.00003
1.00007
1.00021
1.0004
1.00116
1.00219
1.00625
1.01221
1.03201
1.07493
1.16854
1.47472
2.2074
2.55168
2.65567
2.64119
2.62258
2.59684
2.58496
2.5667
2.54637
2.51744
2.45526
2.38977
2.30429
1.00002
1.00006
1.00017
1.00034
1.00097
1.00183
1.00522
1.01006
1.02713
1.05947
1.14203
1.36802
1.99215
2.46874
2.62478
2.61161
2.60401
2.58384
2.56382
2.54277
2.50792
2.48282
2.4344
2.37984
2.30759
1.00002
1.00005
1.00014
1.00028
1.0008
1.00151
1.00431
1.00822
1.02256
1.04745
1.11872
1.28625
1.80698
2.39575
2.59828
2.57066
2.56736
2.55712
2.54317
2.52702
2.49321
2.45661
2.41435
2.3647
2.30738
1.00002
1.00004
1.00012
1.00023
1.00066
1.00123
1.00354
1.00672
1.01843
1.03938
1.09398
1.2443
1.60248
2.32874
2.56561
2.55955
2.53559
2.52369
2.51043
2.49981
2.47783
2.44141
2.40228
2.35342
2.30335
1.00001
1.00003
1.00009
1.00018
1.00053
1.00099
1.00288
1.00539
1.01502
1.03158
1.07546
1.20171
1.46276
2.14361
2.49747
2.548
2.52079
2.50902
2.48719
2.47127
2.45625
2.42622
2.39407
2.35154
2.3025
1.00001
1.00002
1.00007
1.00014
1.00042
1.00078
1.00226
1.00419
1.01188
1.0242
1.05928
1.15239
1.34725
1.94298
2.36512
2.51565
2.5096
2.49424
2.47234
2.44758
2.43086
2.40471
2.37604
2.34546
2.30282
1.00001
1.00002
1.00006
1.00011
1.00032
1.00059
1.00171
1.00315
1.00903
1.01758
1.04588
1.1054
1.25306
1.61644
2.27345
2.4483
2.47029
2.46453
2.45324
2.43036
2.40989
2.38707
2.3571
2.32923
2.29832
1.00001
1.00001
1.00004
1.00008
1.00024
1.00044
1.00129
1.00235
1.00685
1.01299
1.03463
1.07998
1.18043
1.50115
2.16117
2.39107
2.44133
2.43191
2.42424
2.4084
2.38919
2.37096
2.34555
2.31559
2.28708
1
1.00001
1.00003
1.00006
1.00018
1.00033
1.00095
1.00173
1.00507
1.00947
1.02606
1.05658
1.13347
1.35332
1.91409
2.29052
2.41304
2.40932
2.39513
2.38245
2.36582
2.34841
2.33266
2.3079
2.28232
1
1.00001
1.00002
1.00004
1.00013
1.00023
1.00068
1.00124
1.00362
1.00668
1.01887
1.03782
1.09914
1.22199
1.65275
2.11808
2.36261
2.38399
2.3763
2.36097
2.34235
2.32421
2.30649
2.28815
2.26718
1
1.00001
1.00002
1.00003
1.00009
1.00016
1.00047
1.00085
1.00253
1.00457
1.01303
1.02623
1.06531
1.16549
1.38057
1.92857
2.2511
2.3508
2.3545
2.34763
2.33353
2.31467
2.29622
2.27601
2.25567
1
1
1.00001
1.00002
1.00006
1.00011
1.00032
1.00058
1.00169
1.00305
1.00882
1.01685
1.04479
1.09855
1.2487
1.56131
2.13878
2.2855
2.30124
2.31091
2.30534
2.29275
2.27818
2.26177
2.24395
1
1
1.00001
1.00002
1.00003
1.00009
1.00017
1.00048
1.00087
1.00254
1.00469
1.01261
1.0278
1.06493
1.17099
1.39661
1.9071
2.23272
2.28936
2.28868
2.28285
2.2724
2.25676
2.24251
2.22684
1
1
1
1.00001
1.00002
1.00006
1.00011
1.00032
1.00056
1.00169
1.00298
1.00875
1.01648
1.04397
1.09646
1.24166
1.53885
2.07553
2.24301
2.25612
2.25708
2.24903
2.23411
2.22101
2.20818
1
1
1
1.00001
1.00001
1.00004
1.00007
1.0002
1.00035
1.00105
1.00185
1.00527
1.01028
1.02594
1.06588
1.14321
1.41378
1.92455
2.17188
2.23976
2.23877
2.22624
2.21487
2.19617
2.18198
1
1
1
1
1.00001
1.00002
1.00004
1.00013
1.00023
1.00068
1.00118
1.00363
1.00638
1.01867
1.03695
1.09643
1.21813
1.63294
1.98028
2.19244
2.21987
2.21677
2.20379
2.18667
2.16694
1
1
1
1
1.00001
1.00001
1.00003
1.00006
1.00017
1.0003
1.00086
1.00158
1.00422
1.00899
1.0217
1.05834
1.12933
1.37064
1.86047
2.08283
2.17554
2.19349
2.18782
2.17865
2.16078
1
1
1
1
1
1.00001
1.00002
1.00005
1.00008
1.00024
1.00042
1.00126
1.00222
1.00643
1.01251
1.03313
1.07896
1.18277
1.47258
1.9658
2.11197
2.14587
2.15281
2.15075
2.14544
1
1
1
1
1
1.00001
1.00001
1.00003
1.00005
1.00015
1.00025
1.00078
1.0013
1.00404
1.00705
1.02011
1.04225
1.10298
1.26026
1.65633
1.98975
2.12858
2.13153
2.13039
2.12021
1
1
1
1
1
1
1.00001
1.00002
1.00003
1.00009
1.00015
1.00046
1.00077
1.00245
1.00404
1.01256
1.02283
1.06327
1.1363
1.36666
1.7208
2.04042
2.11747
2.11895
2.11563
1
1
1
1
1
1
1
1.00001
1.00002
1.00005
1.00008
1.00025
1.00042
1.00134
1.00218
1.00685
1.01191
1.03434
1.07242
1.17703
1.42412
1.86678
2.046
2.09314
2.10201
1
1
1
1
1
1
1
1
1.00001
1.00003
1.00004
1.00013
1.00022
1.0007
1.00113
1.00357
1.00609
1.01806
1.0361
1.09358
1.21756
1.57962
1.85755
2.04348
2.07741
1
1
1
1
1
1
1
1
1
1.00001
1.00002
1.00004
1.0001
1.0002
1.00043
1.0011
1.00222
1.00705
1.01582
1.04823
1.11292
1.30963
1.71358
1.92642
2.04976
1
1
1
1
1
1
1
1
1
1
1.00001
1.00002
1.00004
1.00007
1.00018
1.00027
1.00106
1.00164
1.00785
1.01708
1.05894
1.13314
1.38048
1.78664
1.98972
1
1
1
1
1
1
1
1
1
1
1.00001
1.00002
1.00003
1.00009
1.00013
1.00048
1.00074
1.00265
1.00435
1.01439
1.02735
1.07913
1.17282
1.49128
1.81172
1
1
1
1
1
1
1
1
1
1
1
1.00001
1.00001
1.00003
1.00005
1.00017
1.00025
1.00122
1.00109
1.00668
1.01456
1.04539
1.11881
1.34204
1.90678
1
1
1
1
1
1
1
1
1
1
1
1
1.00001
1.00001
1.00004
1.00009
1.00032
1.00059
1.00277
1.00213
1.0195
1.00516
1.10501
1.26006
1.79344
1
1
1
1
1
1
1
1
1
1
1
1
1
1.00001
1.00001
1.0001
1.00015
1.00075
1.00109
1.00751
1.0026
1.04122
1.09401
1.31321
1.97921
1
1
1
1
1
1
1
1
1
1
1
1
1
1.00001
1.00003
1.00004
1.0003
1.00033
1.00312
1.0055
1.02825
1.02401
1.08885
1.24015
1.81528
1
1
1
1
1
1
1
1
1
1
1
1
1
1.00001
1.00001
1.00007
1.0001
1.0006
1.0009
1.00691
1.00195
1.04065
1.08858
1.30204
1.96858
1
1
1
1
1
1
1
1
1
1
1
1
1
1
1.00002
1.00002
1.00021
1.0004
1.00201
1.00207
1.01746
1.00198
1.09764
1.23743
1.77957
1
1
1
1
1
1
1
1
1
1
1
1
1
1
1.00002
1.00002
1.00017
1.00037
1.00198
1.00107
1.0188
0.999452
1.08921
1.22646
1.75574
1
1
1
1
1
1
1
1
1
1
1
1
1
1
1.00001
1.00001
1.00016
1.0003
1.00165
1.0017
1.01521
1.00342
1.09001
1.21549
1.73684
1
1
1
1
1
1
1
1
1
1
1
1
1
1
1.00001
1
1.00014
1.00022
1.00135
1.0016
1.01492
1.00252
1.08581
1.19932
1.71049
1
1
1
1
1
1
1
1
1
1
1
1
1
1
1.00001
1.00001
1.00013
1.00017
1.00119
1.00179
1.01344
1.0035
1.08746
1.17677
1.69076
1
1
1
1
1
1
1
1
1
1
1
1
1
1.00001
1.00001
1.00007
1.00013
1.00068
1.00132
1.00632
1.00599
1.02475
1.05198
1.21364
1.59539
1
1
1
1
1
1
1
1
1
1
1
1
1
1
1.00001
1.00001
1.00012
1.00018
1.00109
1.00174
1.01131
1.00863
1.07453
1.15457
1.61489
2.26488
2.19856
2.30973
2.66809
2.92524
2.99295
2.95697
2.94148
2.93304
2.89445
2.87921
2.85263
2.83919
2.82131
2.80014
2.7888
2.77225
2.7611
2.75287
2.74048
2.73164
2.72167
2.7108
2.70238
2.69595
2.69256
2.68968
2.69083
2.69661
2.71057
2.7284
2.75206
2.77626
2.80118
2.82594
2.84517
2.86554
2.88
2.89425
2.90635
2.91359
2.92063
2.92603
2.93012
2.9317
2.93218
2.93202
2.92784
2.91965
2.91697
2.91045
2.90654
2.89841
2.89367
2.88412
2.87822
2.86646
2.85984
2.84688
2.84022
2.82651
2.81926
2.80471
2.79731
2.78243
2.77372
2.75917
2.75017
2.73533
2.72614
2.71143
2.70185
2.68735
2.67788
2.6638
2.65428
2.6412
2.63143
2.61982
2.61009
2.60016
2.59132
2.58327
2.5761
2.57011
2.56526
2.56158
2.55954
2.55888
2.55794
2.55737
2.55765
2.55897
2.55905
2.55842
2.55757
2.55518
2.55361
2.54896
2.54784
2.20824
2.15547
2.24708
2.5186
2.69582
2.94111
2.99421
3.03912
3.08611
3.09927
3.05205
2.96795
2.96583
2.97385
2.95926
2.93999
2.93217
2.92449
2.91223
2.90098
2.89192
2.88468
2.87657
2.8707
2.86666
2.86363
2.86243
2.86386
2.86892
2.88016
2.89062
2.90632
2.9198
2.93099
2.93948
2.94542
2.94958
2.95105
2.9472
2.94553
2.93752
2.93123
2.91713
2.90721
2.89606
2.88559
2.87291
2.8621
2.84817
2.83883
2.82381
2.81423
2.79882
2.78897
2.77474
2.76452
2.748
2.73647
2.72123
2.71059
2.69565
2.68421
2.66927
2.65755
2.64307
2.6316
2.61735
2.60605
2.59157
2.58055
2.56625
2.55528
2.54186
2.53063
2.51791
2.50683
2.49432
2.48389
2.47201
2.4621
2.4517
2.44242
2.43384
2.42597
2.41909
2.41352
2.40876
2.40551
2.40367
2.40123
2.39935
2.39765
2.39682
2.39574
2.39324
2.39125
2.38744
2.38501
2.37979
2.37707
2.22717
2.17756
2.19133
2.28015
2.40911
2.50996
2.64227
2.71773
2.80673
2.92995
2.99796
3.00532
3.01779
3.04538
3.05815
3.05089
3.01658
2.97565
2.97261
2.9753
2.97601
2.98667
2.99619
2.99647
2.99181
2.98835
2.98778
2.9869
2.98609
2.98928
2.99355
2.99466
2.98701
2.98345
2.96959
2.95408
2.94574
2.92909
2.91542
2.90123
2.88913
2.87301
2.85917
2.8459
2.83254
2.81767
2.80396
2.78833
2.77499
2.7602
2.74629
2.73113
2.71676
2.70281
2.68839
2.67476
2.66012
2.6456
2.63121
2.61719
2.60317
2.59001
2.57627
2.56372
2.55008
2.53809
2.52435
2.51287
2.49951
2.4882
2.47569
2.46448
2.45265
2.44189
2.43033
2.42024
2.40911
2.39953
2.38947
2.38037
2.37178
2.36372
2.3565
2.35023
2.34443
2.34012
2.33618
2.33366
2.33197
2.33033
2.32847
2.3271
2.32571
2.32429
2.32208
2.32032
2.31667
2.31441
2.30945
2.30723
2.23149
2.18192
2.15942
2.18098
2.24346
2.30033
2.36651
2.4208
2.47603
2.54775
2.64997
2.76686
2.8439
2.89766
2.93783
2.96878
2.97462
2.96735
2.96097
2.96285
2.96924
2.97673
2.98398
2.99071
2.99704
3.00381
3.00562
3.002
2.99347
2.97726
2.9598
2.93735
2.9088
2.88145
2.85329
2.83393
2.81081
2.79271
2.7761
2.76322
2.75088
2.7409
2.7313
2.72307
2.71268
2.70394
2.69268
2.68389
2.67281
2.66365
2.65191
2.64144
2.62914
2.61839
2.60654
2.59594
2.58295
2.57134
2.55796
2.54649
2.53338
2.52218
2.50896
2.49811
2.48485
2.47399
2.46095
2.44977
2.43709
2.42576
2.41349
2.40254
2.39062
2.38024
2.36865
2.35859
2.34765
2.33792
2.32811
2.3193
2.31078
2.30354
2.2964
2.2907
2.28528
2.28095
2.27734
2.27488
2.27276
2.27174
2.27011
2.26867
2.26655
2.26528
2.26302
2.26133
2.25775
2.25598
2.25203
2.25004
2.24165
2.18597
2.15224
2.14089
2.15652
2.1895
2.22504
2.25727
2.2901
2.32361
2.37272
2.43005
2.49608
2.56445
2.63271
2.69953
2.75285
2.81616
2.85127
2.86999
2.87975
2.8876
2.89696
2.906
2.91438
2.91484
2.91144
2.90193
2.88161
2.85483
2.82781
2.79488
2.76436
2.72884
2.69663
2.67061
2.64964
2.63242
2.61575
2.60265
2.58983
2.58202
2.57385
2.56903
2.56261
2.55835
2.55204
2.54753
2.54166
2.53696
2.53046
2.52441
2.51625
2.50887
2.5009
2.49386
2.48531
2.47687
2.46693
2.45859
2.44791
2.43894
2.42741
2.41819
2.40716
2.3983
2.38818
2.3793
2.36917
2.35972
2.34891
2.33907
2.32822
2.31885
2.30903
2.30051
2.29173
2.28358
2.27509
2.26725
2.25911
2.25247
2.24578
2.24106
2.23629
2.23333
2.22985
2.22764
2.22469
2.22255
2.21913
2.21653
2.21262
2.20999
2.20645
2.20449
2.20086
2.19978
2.1964
2.19604
2.24565
2.19665
2.15378
2.12773
2.12169
2.12922
2.1476
2.16418
2.18222
2.20049
2.22229
2.25009
2.28409
2.32305
2.36741
2.41333
2.46518
2.50617
2.55748
2.60694
2.65451
2.69322
2.72409
2.74753
2.76702
2.78154
2.7899
2.78551
2.77361
2.7398
2.69888
2.65339
2.61098
2.57307
2.54388
2.52304
2.51151
2.50015
2.49277
2.48505
2.47856
2.47263
2.46697
2.46175
2.45629
2.45186
2.44743
2.44455
2.44106
2.43875
2.43523
2.43184
2.42663
2.42184
2.41558
2.41019
2.40265
2.39584
2.387
2.38008
2.37142
2.36414
2.3547
2.34586
2.33542
2.32574
2.31566
2.30673
2.29777
2.28986
2.28115
2.27307
2.26349
2.25426
2.24398
2.23453
2.22513
2.21753
2.21001
2.20442
2.19815
2.19323
2.18748
2.18304
2.17783
2.17431
2.17021
2.16748
2.16444
2.16211
2.15898
2.15582
2.15162
2.14783
2.1431
2.14069
2.13621
2.13514
2.13217
2.13167
2.25038
2.19888
2.16147
2.12792
2.10778
2.1022
2.10311
2.1086
2.11675
2.12307
2.13493
2.1456
2.16488
2.18321
2.20929
2.2343
2.26557
2.29771
2.33143
2.3646
2.40177
2.43983
2.48169
2.5179
2.55473
2.57918
2.60886
2.6139
2.60914
2.579
2.54142
2.49779
2.46164
2.42936
2.40614
2.39124
2.38463
2.38571
2.38796
2.3886
2.38781
2.3856
2.38251
2.38033
2.37741
2.37505
2.37177
2.36918
2.36561
2.36225
2.35699
2.35191
2.34567
2.34103
2.33611
2.33299
2.32781
2.32272
2.3146
2.30737
2.29837
2.29111
2.28291
2.27625
2.26857
2.26155
2.25328
2.24555
2.23678
2.2287
2.22001
2.21192
2.2039
2.19648
2.18916
2.18242
2.17508
2.1687
2.16163
2.15609
2.15035
2.14609
2.14143
2.1382
2.13401
2.1312
2.12692
2.12378
2.11882
2.11517
2.10965
2.10595
2.0997
2.09648
2.09037
2.08778
2.08297
2.08204
2.07962
2.08011
2.25623
2.20596
2.16325
2.13255
2.10427
2.08838
2.08028
2.07628
2.07628
2.07688
2.07815
2.0829
2.08913
2.09972
2.111
2.12711
2.14305
2.16321
2.18445
2.20915
2.23512
2.26567
2.29899
2.33329
2.37373
2.4138
2.45768
2.47202
2.46916
2.44361
2.40581
2.36772
2.32846
2.29869
2.27697
2.2612
2.25304
2.25339
2.25832
2.26569
2.27132
2.27697
2.27933
2.28226
2.28311
2.28302
2.28256
2.28174
2.2798
2.27837
2.27597
2.27438
2.2714
2.26904
2.26544
2.26257
2.25813
2.25383
2.2481
2.24303
2.23729
2.23201
2.22569
2.21972
2.21266
2.20605
2.19839
2.19115
2.18348
2.17645
2.16949
2.16294
2.15609
2.14968
2.14263
2.13664
2.13005
2.1247
2.1191
2.11479
2.11052
2.1076
2.10453
2.1023
2.09953
2.0968
2.0934
2.08961
2.08495
2.08036
2.07415
2.06936
2.06232
2.05808
2.05102
2.04792
2.04194
2.04058
2.03766
2.03785
2.25967
2.2183
2.17243
2.13664
2.10752
2.08461
2.06825
2.05819
2.05056
2.0466
2.04292
2.04171
2.04221
2.04418
2.04854
2.05801
2.06543
2.07892
2.09119
2.10955
2.13073
2.15479
2.18486
2.21447
2.26195
2.31334
2.36599
2.38225
2.3763
2.35273
2.31924
2.28103
2.24225
2.21313
2.19191
2.17769
2.16926
2.16595
2.16909
2.17663
2.18772
2.19798
2.20573
2.21099
2.21374
2.21607
2.21661
2.21779
2.21783
2.21803
2.2179
2.21742
2.21607
2.21477
2.21238
2.21078
2.20831
2.20565
2.20135
2.19672
2.19113
2.18598
2.1806
2.17587
2.17099
2.16615
2.16078
2.15478
2.14798
2.1409
2.13348
2.12679
2.12007
2.11441
2.10869
2.10387
2.09894
2.09466
2.09021
2.08629
2.08244
2.07924
2.07629
2.0738
2.07101
2.06815
2.06408
2.05979
2.0537
2.04784
2.03981
2.03338
2.02456
2.01919
2.011
2.00725
2.00061
1.99894
1.9956
1.99554
2.26016
2.22357
2.18549
2.14835
2.11649
2.08926
2.06862
2.05226
2.03948
2.02978
2.02219
2.01573
2.01162
2.00842
2.00859
2.00942
2.01321
2.02053
2.03017
2.04349
2.06336
2.08377
2.11162
2.14914
2.20537
2.2721
2.31822
2.32767
2.3169
2.29322
2.26243
2.22196
2.18352
2.15279
2.13021
2.11562
2.10519
2.09938
2.09675
2.09994
2.10706
2.11661
2.13012
2.1414
2.15222
2.15958
2.16564
2.1691
2.17138
2.17246
2.17311
2.17286
2.17229
2.17134
2.17001
2.16891
2.1678
2.16635
2.16402
2.16043
2.15624
2.15129
2.14607
2.14056
2.13498
2.12975
2.12439
2.11953
2.11414
2.10884
2.10288
2.09693
2.09077
2.08501
2.07959
2.07492
2.07097
2.06773
2.06523
2.06281
2.06059
2.05806
2.05514
2.05233
2.04859
2.04502
2.04017
2.035
2.02839
2.02152
2.0131
2.006
1.99682
1.99033
1.9813
1.97645
1.96901
1.96639
1.96264
1.96245
2.2538
2.22208
2.18843
2.15546
2.12429
2.09696
2.0727
2.05399
2.03741
2.02401
2.01267
2.00329
1.99512
1.98839
1.98353
1.9808
1.98091
1.98296
1.99227
2.00332
2.02235
2.04237
2.07628
2.12647
2.19936
2.26407
2.29339
2.29251
2.27841
2.2531
2.21873
2.18082
2.14637
2.11847
2.09511
2.07794
2.0656
2.05777
2.0532
2.05154
2.05452
2.0607
2.07013
2.08406
2.0972
2.10951
2.11837
2.12579
2.13003
2.13398
2.13518
2.1374
2.13793
2.13779
2.13736
2.13642
2.13517
2.13338
2.1309
2.12765
2.12368
2.11962
2.11521
2.11095
2.10626
2.10156
2.09652
2.09149
2.08633
2.08114
2.07594
2.07066
2.06559
2.06063
2.05623
2.05205
2.0487
2.04564
2.04346
2.04155
2.03988
2.03818
2.03555
2.0322
2.02762
2.02196
2.01571
2.00876
2.00113
1.99395
1.98569
1.97876
1.96953
1.96284
1.95321
1.94692
1.93834
1.93391
1.92894
1.92765
2.25156
2.22122
2.18996
2.15999
2.12989
2.10282
2.07775
2.05625
2.03855
2.02269
2.009
1.9967
1.9871
1.97742
1.97074
1.96449
1.96322
1.96435
1.97327
1.98627
2.0039
2.03135
2.07706
2.15024
2.22416
2.27045
2.27715
2.2706
2.25242
2.22654
2.19162
2.1587
2.12853
2.10234
2.07908
2.06012
2.04449
2.033
2.02524
2.02131
2.01959
2.02071
2.0247
2.03248
2.04467
2.05853
2.07243
2.0838
2.09314
2.09877
2.10323
2.10478
2.10642
2.10626
2.1057
2.10463
2.10373
2.10271
2.10141
2.09936
2.09642
2.09282
2.08866
2.08424
2.07953
2.07472
2.06977
2.06472
2.05975
2.05477
2.05014
2.04564
2.04183
2.03822
2.03548
2.03293
2.03099
2.02906
2.02703
2.02507
2.02273
2.0202
2.01735
2.01341
2.009
2.00296
1.99609
1.988
1.97906
1.97066
1.96012
1.95226
1.94143
1.93427
1.92466
1.91842
1.91092
1.90605
1.90185
1.8997
2.24405
2.21751
2.18971
2.16163
2.13434
2.10777
2.08337
2.06079
2.04128
2.02376
2.00947
1.99544
1.98392
1.97352
1.9655
1.95929
1.95754
1.96145
1.97072
1.98696
2.01064
2.0554
2.12438
2.20121
2.25392
2.2684
2.26576
2.25611
2.23619
2.2074
2.17753
2.14913
2.12253
2.09854
2.07626
2.05666
2.03909
2.02412
2.01248
2.0045
1.9998
1.99818
1.99765
2.00007
2.00601
2.01514
2.02787
2.04143
2.05283
2.06275
2.06927
2.07428
2.07647
2.07814
2.0778
2.07708
2.07576
2.0746
2.07324
2.07152
2.06921
2.06623
2.06285
2.05913
2.05512
2.05084
2.04647
2.04205
2.03787
2.03381
2.03021
2.0268
2.02394
2.02112
2.01894
2.01674
2.01512
2.01341
2.0121
2.01028
2.00853
2.00549
2.00202
1.99701
1.99095
1.98362
1.97538
1.96708
1.95758
1.94918
1.93877
1.93056
1.91987
1.91216
1.90215
1.8951
1.88681
1.88118
1.8762
1.87347
2.23207
2.20912
2.18343
2.15931
2.13424
2.10926
2.08552
2.06346
2.04347
2.02547
2.00965
1.99649
1.98426
1.97455
1.96675
1.96379
1.96557
1.97375
1.98748
2.00998
2.05602
2.1199
2.19646
2.24539
2.26636
2.26548
2.25927
2.24453
2.22317
2.1982
2.17412
2.14974
2.12723
2.10452
2.0833
2.06306
2.04423
2.02774
2.01283
2.00069
1.9903
1.9836
1.97911
1.97874
1.97803
1.98061
1.98677
1.99569
2.00773
2.01897
2.0297
2.03671
2.04294
2.04556
2.04786
2.04767
2.04703
2.04601
2.04515
2.04398
2.04234
2.03973
2.03673
2.03337
2.02992
2.02639
2.02286
2.01936
2.01593
2.01262
2.00976
2.007
2.00493
2.00289
2.00168
2.00032
1.99949
1.9982
1.9969
1.99479
1.99209
1.98827
1.98344
1.97737
1.97026
1.96245
1.95402
1.94534
1.93558
1.92682
1.91619
1.90787
1.89686
1.88921
1.87913
1.87217
1.86396
1.85837
1.85343
1.85082
2.22358
2.20169
2.17903
2.15445
2.13124
2.10881
2.08601
2.0647
2.04456
2.02685
2.01067
1.99717
1.98676
1.97842
1.97651
1.97792
1.98486
1.99888
2.02319
2.07006
2.13432
2.20506
2.24753
2.26823
2.26789
2.2639
2.25307
2.23666
2.21663
2.19681
2.17654
2.1567
2.13578
2.11499
2.09412
2.07348
2.05386
2.03534
2.01817
2.00291
1.98881
1.9776
1.96858
1.96271
1.9588
1.95765
1.95649
1.95914
1.96573
1.97522
1.9864
1.99673
2.00616
2.01238
2.01756
2.01929
2.02033
2.01966
2.01874
2.01804
2.01699
2.01558
2.01346
2.01093
2.00808
2.00515
2.00231
1.99953
1.99707
1.9948
1.99313
1.99166
1.99077
1.98994
1.98942
1.98874
1.98792
1.98686
1.98502
1.98266
1.97903
1.97424
1.96835
1.96118
1.95369
1.94508
1.93631
1.92715
1.91732
1.90847
1.89787
1.88984
1.87906
1.8717
1.86175
1.85502
1.84689
1.84115
1.83623
1.83313
2.20963
2.19007
2.16939
2.14746
2.12451
2.10298
2.08188
2.06332
2.04417
2.02744
2.01219
2.00049
1.99128
1.9903
1.99265
2.00042
2.01607
2.04358
2.09417
2.15724
2.22018
2.25688
2.2733
2.27275
2.26937
2.26051
2.24692
2.2317
2.21618
2.20024
2.18347
2.16587
2.14665
2.12714
2.10627
2.08589
2.06509
2.04568
2.02643
2.00893
1.9919
1.97776
1.96393
1.954
1.94447
1.93963
1.93533
1.93401
1.93363
1.93687
1.94389
1.95471
1.96472
1.97536
1.98236
1.98877
1.99101
1.99344
1.99324
1.99305
1.99259
1.99191
1.99065
1.98916
1.98696
1.98491
1.98305
1.98139
1.98006
1.97918
1.97869
1.97851
1.97864
1.97864
1.97855
1.97824
1.97754
1.97618
1.97416
1.97064
1.96604
1.95988
1.95321
1.94545
1.93733
1.92851
1.91926
1.91035
1.90013
1.89159
1.88072
1.87301
1.86247
1.85525
1.84585
1.83921
1.83185
1.82634
1.82207
1.81906
2.19421
2.17876
2.16129
2.14174
2.12071
2.09991
2.0786
2.05896
2.04177
2.02687
2.01497
2.00656
2.00542
2.0096
2.01882
2.03832
2.06848
2.1224
2.18424
2.23854
2.26674
2.27681
2.27642
2.27317
2.2653
2.25363
2.24168
2.22903
2.21654
2.20251
2.18775
2.17056
2.15285
2.13291
2.11325
2.09235
2.07241
2.05202
2.03254
2.01323
1.99513
1.97828
1.9624
1.9488
1.93617
1.9269
1.91876
1.91487
1.91085
1.91023
1.91046
1.91489
1.92276
1.93357
1.94356
1.95315
1.95943
1.96486
1.96653
1.96886
1.96884
1.96892
1.96887
1.96864
1.96799
1.96738
1.96666
1.96607
1.96604
1.96625
1.96675
1.96755
1.9685
1.96913
1.96902
1.9686
1.96769
1.96602
1.96279
1.95826
1.95251
1.94584
1.93866
1.93038
1.92187
1.91253
1.90309
1.89421
1.88428
1.87614
1.86552
1.8581
1.84767
1.84073
1.83133
1.82485
1.81765
1.81228
1.80839
1.80537
2.16875
2.15578
2.14284
2.12936
2.1131
2.09604
2.07723
2.05981
2.0435
2.03023
2.02248
2.02252
2.02919
2.03948
2.06249
2.09864
2.1544
2.21048
2.25273
2.27538
2.28024
2.27798
2.27311
2.26422
2.2544
2.24466
2.23563
2.22529
2.21437
2.20137
2.18747
2.17107
2.15433
2.13515
2.11651
2.09594
2.07673
2.05598
2.03695
2.01659
1.99869
1.97979
1.96381
1.94718
1.93336
1.91993
1.90957
1.90033
1.89421
1.8894
1.8865
1.88599
1.88736
1.89311
1.90236
1.91294
1.92274
1.93125
1.93691
1.94116
1.94342
1.94497
1.94626
1.94706
1.94764
1.94843
1.9493
1.95024
1.9512
1.95278
1.9546
1.9562
1.95757
1.95742
1.9571
1.95641
1.95489
1.9522
1.94775
1.94257
1.93623
1.92882
1.92084
1.91214
1.90326
1.89399
1.8843
1.87539
1.86535
1.85754
1.84717
1.84008
1.83001
1.82358
1.81477
1.809
1.80244
1.79778
1.79474
1.79204
2.15118
2.13484
2.12137
2.10758
2.0954
2.0832
2.07203
2.05943
2.04886
2.04301
2.0434
2.05261
2.06629
2.09205
2.13438
2.18707
2.23535
2.26599
2.27917
2.28052
2.27677
2.27096
2.262
2.2527
2.24484
2.23692
2.22936
2.22073
2.21085
2.19894
2.18553
2.17052
2.1545
2.13708
2.11876
2.10014
2.08073
2.0618
2.04188
2.0228
2.00373
1.98518
1.9672
1.94944
1.93334
1.91765
1.90403
1.89101
1.88159
1.87278
1.86753
1.86226
1.86105
1.86079
1.86386
1.87092
1.88132
1.89129
1.90092
1.90819
1.91392
1.91797
1.92101
1.92366
1.92608
1.92857
1.93078
1.9337
1.93585
1.93862
1.94094
1.94336
1.94347
1.94332
1.94258
1.9411
1.9386
1.93472
1.92935
1.92321
1.91608
1.9083
1.90007
1.89127
1.88227
1.87323
1.86382
1.85538
1.84574
1.83833
1.82879
1.82211
1.81306
1.807
1.79902
1.79395
1.78805
1.78415
1.78206
1.77973
2.14479
2.12755
2.11141
2.09655
2.08199
2.07102
2.06058
2.05677
2.05808
2.06468
2.07802
2.09879
2.13117
2.17833
2.22591
2.2631
2.28051
2.28649
2.28227
2.27752
2.26769
2.25805
2.25047
2.24414
2.2386
2.23289
2.2263
2.21837
2.20895
2.19759
2.18485
2.17066
2.15545
2.13888
2.12145
2.10336
2.08457
2.06552
2.04587
2.02656
2.00654
1.98755
1.96784
1.95002
1.93164
1.91516
1.89847
1.88405
1.87005
1.85919
1.84965
1.84298
1.83741
1.83421
1.83392
1.83506
1.84073
1.84968
1.86074
1.87152
1.88141
1.88917
1.89593
1.90101
1.9056
1.90986
1.91383
1.91785
1.92123
1.92476
1.92722
1.92916
1.92831
1.92774
1.92674
1.92463
1.92068
1.9162
1.91025
1.90375
1.89628
1.88829
1.87998
1.8712
1.86237
1.85338
1.84409
1.83577
1.82648
1.81916
1.81044
1.80404
1.79604
1.79053
1.78357
1.77942
1.77462
1.77189
1.77086
1.76906
2.13428
2.1212
2.10817
2.09472
2.08301
2.07271
2.06748
2.07001
2.08099
2.09653
2.12525
2.16765
2.21564
2.25853
2.27979
2.2911
2.28812
2.28302
2.27215
2.26058
2.25126
2.24425
2.23922
2.23517
2.23101
2.22623
2.22023
2.21275
2.20384
2.19321
2.18124
2.16773
2.15331
2.13757
2.12081
2.10295
2.08457
2.06557
2.04633
2.02666
2.00708
1.98714
1.96776
1.9483
1.9297
1.91151
1.89415
1.87761
1.86247
1.84883
1.83687
1.82768
1.81938
1.81466
1.81031
1.81034
1.81074
1.81442
1.82302
1.83435
1.8475
1.8597
1.87025
1.87969
1.88709
1.89402
1.89968
1.90492
1.90953
1.91305
1.9156
1.91572
1.91549
1.91455
1.91252
1.90959
1.90462
1.89915
1.89256
1.88579
1.87819
1.87014
1.86199
1.85331
1.84477
1.83594
1.82722
1.81909
1.81064
1.80337
1.79544
1.78903
1.78218
1.77681
1.77148
1.76714
1.76438
1.76218
1.7624
1.76065
2.11246
2.10255
2.09592
2.09004
2.08492
2.0843
2.09282
2.10338
2.12693
2.15848
2.20681
2.25247
2.2806
2.29514
2.29322
2.28636
2.27606
2.26001
2.24683
2.23645
2.22918
2.22452
2.22103
2.21806
2.21474
2.21085
2.20581
2.19941
2.19129
2.18173
2.17072
2.15826
2.14425
2.12884
2.11258
2.09546
2.07785
2.05951
2.04086
2.02169
2.00253
1.9831
1.96406
1.94487
1.92645
1.90829
1.89089
1.87403
1.85836
1.84308
1.83039
1.81761
1.80859
1.80002
1.79523
1.79113
1.79112
1.79168
1.79436
1.80258
1.81395
1.82878
1.84311
1.85661
1.86862
1.87794
1.88624
1.89233
1.89713
1.90056
1.90249
1.90129
1.90043
1.89916
1.89643
1.89203
1.88637
1.88064
1.87373
1.86678
1.8592
1.85146
1.84351
1.83534
1.82716
1.81898
1.81069
1.80285
1.79507
1.78798
1.78109
1.7751
1.76947
1.76485
1.76118
1.75774
1.75677
1.7555
1.75643
1.75462
2.10381
2.09278
2.08332
2.08372
2.09231
2.10849
2.13125
2.16235
2.21084
2.25822
2.29331
2.30904
2.30978
2.30319
2.29199
2.27196
2.25359
2.23821
2.22643
2.21776
2.21204
2.20868
2.20608
2.20393
2.2009
2.19753
2.19279
2.18699
2.17952
2.17108
2.16085
2.14965
2.13679
2.12289
2.10754
2.09165
2.07486
2.05755
2.03931
2.02064
2.00182
1.98283
1.96414
1.94511
1.92668
1.90841
1.8905
1.87353
1.85657
1.84117
1.8262
1.81286
1.80064
1.7907
1.78214
1.77714
1.7736
1.77337
1.77397
1.77614
1.78376
1.79458
1.81029
1.82607
1.84207
1.855
1.86553
1.87347
1.87878
1.88179
1.88242
1.8814
1.88023
1.87784
1.87412
1.86908
1.86362
1.85725
1.85093
1.8437
1.83672
1.82905
1.82174
1.81418
1.80658
1.79923
1.79151
1.78437
1.77719
1.77065
1.76478
1.75929
1.75515
1.75137
1.74904
1.74781
1.74765
1.74842
1.74977
1.74837
2.1009
2.09595
2.08996
2.10026
2.11694
2.1496
2.1964
2.25141
2.29948
2.32726
2.33488
2.32993
2.31817
2.29627
2.27411
2.25476
2.23873
2.22591
2.21612
2.20893
2.20363
2.19974
2.19648
2.19355
2.19062
2.18739
2.18347
2.1788
2.17277
2.16566
2.15666
2.14626
2.13393
2.12078
2.1056
2.09038
2.07328
2.05664
2.03815
2.02013
2.00129
1.98262
1.96387
1.9446
1.92598
1.90702
1.8889
1.87122
1.85377
1.83757
1.82145
1.80657
1.79311
1.78047
1.77049
1.76218
1.75713
1.75505
1.75522
1.75613
1.75921
1.76728
1.77882
1.79403
1.81075
1.82644
1.84011
1.85036
1.85705
1.86133
1.86119
1.86
1.85842
1.856
1.85111
1.84567
1.83975
1.83373
1.82693
1.82007
1.81315
1.806
1.79934
1.792
1.7854
1.77819
1.77155
1.76505
1.7586
1.75319
1.74761
1.7439
1.74009
1.73825
1.73719
1.73733
1.73851
1.73988
1.7427
1.74249
2.09353
2.10426
2.11677
2.1427
2.18203
2.23689
2.29355
2.32879
2.34078
2.33842
2.32741
2.31163
2.28736
2.26712
2.24789
2.23162
2.21861
2.20845
2.20071
2.19457
2.18975
2.18595
2.18277
2.18011
2.17735
2.17464
2.17074
2.16678
2.16091
2.15417
2.14577
2.13599
2.12483
2.11195
2.09815
2.08299
2.06684
2.05019
2.03224
2.01434
1.99519
1.97641
1.95697
1.9378
1.91897
1.90004
1.88218
1.86399
1.84684
1.83015
1.81424
1.79969
1.78608
1.77412
1.76405
1.75527
1.74987
1.74607
1.74619
1.74698
1.74864
1.75343
1.76246
1.77269
1.78689
1.80169
1.81681
1.82847
1.83713
1.84325
1.84374
1.84315
1.84185
1.83911
1.8344
1.82839
1.82237
1.81619
1.80946
1.80263
1.79564
1.78912
1.78224
1.77556
1.76889
1.76201
1.75582
1.74913
1.74386
1.73808
1.73438
1.7305
1.72854
1.7275
1.7278
1.72905
1.73062
1.73394
1.7387
1.74065
2.08693
2.13147
2.18343
2.24013
2.30397
2.34819
2.37442
2.3731
2.36255
2.34406
2.31489
2.28872
2.26495
2.24456
2.22713
2.21267
2.20125
2.19198
2.18413
2.1771
2.17121
2.16572
2.16126
2.15707
2.15327
2.14986
2.1459
2.14228
2.13714
2.13189
2.12458
2.11654
2.10641
2.09509
2.08236
2.0683
2.05293
2.03687
2.01975
2.0027
1.98456
1.96692
1.94849
1.93055
1.9125
1.89456
1.87738
1.86003
1.84386
1.82793
1.81286
1.79885
1.78565
1.77389
1.76357
1.75452
1.74832
1.74306
1.74236
1.74288
1.74449
1.74615
1.75103
1.7579
1.76732
1.77784
1.78958
1.80055
1.81192
1.81918
1.82379
1.82361
1.82286
1.82122
1.81756
1.81241
1.80677
1.80048
1.79454
1.7881
1.78208
1.77596
1.76997
1.76422
1.75773
1.75227
1.74566
1.74111
1.73508
1.73171
1.72747
1.72576
1.72424
1.72452
1.72529
1.72758
1.73042
1.73575
1.74142
1.74337
2.10255
2.21244
2.30332
2.3713
2.40985
2.40831
2.39726
2.37838
2.34535
2.31796
2.29372
2.27162
2.25287
2.23743
2.22475
2.2138
2.20396
2.19455
2.18585
2.1774
2.16984
2.16261
2.15648
2.15074
2.14566
2.14115
2.13674
2.13284
2.12791
2.12321
2.11645
2.1091
2.09975
2.08916
2.07708
2.06362
2.04909
2.03378
2.01757
2.00127
1.98378
1.9668