/*--------------------------------*- C++ -*----------------------------------*\
  =========                 |
  \\      /  F ield         | OpenFOAM: The Open Source CFD Toolbox
   \\    /   O peration     | Website:  https://openfoam.org
    \\  /    A nd           | Version:  6
     \\/     M anipulation  |
\*---------------------------------------------------------------------------*/
FoamFile
{
    version     2.0;
    format      ascii;
    class       volVectorField;
    location    "5";
    object      U;
}
// * * * * * * * * * * * * * * * * * * * * * * * * * * * * * * * * * * * * * //

dimensions      [0 1 -1 0 0 0 0];

internalField   nonuniform List<vector> 
5250
(
(2.99996 3.93911e-08 0)
(2.99989 2.52321e-07 0)
(2.9997 7.85707e-07 0)
(2.99932 2.1406e-06 0)
(2.99833 4.96707e-06 0)
(2.99634 1.19789e-05 0)
(2.99081 2.58765e-05 0)
(2.98015 6.31949e-05 0)
(2.94764 0.000130065 0)
(2.87552 0.000346104 0)
(2.67561 0.00075883 0)
(2.05487 0.00209914 0)
(0.682342 0.00551405 0)
(-0.167741 0.0130648 0)
(0.184335 0.0203026 0)
(0.499245 0.0261456 0)
(0.580805 0.0292874 0)
(0.528117 0.0314546 0)
(0.426717 0.0323854 0)
(0.329955 0.0344853 0)
(0.266478 0.0378174 0)
(0.213169 0.0415468 0)
(0.155407 0.0454492 0)
(0.0924188 0.0505614 0)
(0.0438287 0.0583336 0)
(2.99996 1.21743e-07 0)
(2.99989 7.81446e-07 0)
(2.9997 2.43118e-06 0)
(2.99932 6.63871e-06 0)
(2.99834 1.53987e-05 0)
(2.99635 3.72948e-05 0)
(2.99085 8.05337e-05 0)
(2.98023 0.000198493 0)
(2.94785 0.000406714 0)
(2.87604 0.00110014 0)
(2.67695 0.00243157 0)
(2.05893 0.00682576 0)
(0.690494 0.0181135 0)
(-0.159684 0.0412651 0)
(0.19339 0.060025 0)
(0.505605 0.0733277 0)
(0.582813 0.0790811 0)
(0.528024 0.0822492 0)
(0.427288 0.0826498 0)
(0.332926 0.0858285 0)
(0.269866 0.0910341 0)
(0.215199 0.0958977 0)
(0.155953 0.0995387 0)
(0.0915142 0.103135 0)
(0.0422674 0.107245 0)
(2.99996 2.11208e-07 0)
(2.99989 1.35775e-06 0)
(2.99971 4.2224e-06 0)
(2.99933 1.15541e-05 0)
(2.99835 2.68073e-05 0)
(2.99639 6.51848e-05 0)
(2.99093 0.000140835 0)
(2.9804 0.000349911 0)
(2.94832 0.000715103 0)
(2.87721 0.0019603 0)
(2.68004 0.00436432 0)
(2.0686 0.0123902 0)
(0.710982 0.0330835 0)
(-0.137474 0.0733593 0)
(0.208962 0.102119 0)
(0.513738 0.121466 0)
(0.584795 0.130849 0)
(0.527357 0.137171 0)
(0.427812 0.140537 0)
(0.337371 0.147608 0)
(0.275274 0.156655 0)
(0.218838 0.164631 0)
(0.157571 0.170544 0)
(0.0909772 0.175125 0)
(0.040286 0.177892 0)
(2.99996 3.06349e-07 0)
(2.99989 1.9706e-06 0)
(2.99971 6.12839e-06 0)
(2.99934 1.67891e-05 0)
(2.99838 3.8974e-05 0)
(2.99644 9.49763e-05 0)
(2.99106 0.000205379 0)
(2.98067 0.000512259 0)
(2.94908 0.00104622 0)
(2.87909 0.00288452 0)
(2.68506 0.00644533 0)
(2.08445 0.0183527 0)
(0.744332 0.0489495 0)
(-0.10232 0.1065 0)
(0.230278 0.144098 0)
(0.523982 0.167944 0)
(0.588424 0.180759 0)
(0.529057 0.190855 0)
(0.431641 0.198905 0)
(0.345592 0.210735 0)
(0.284412 0.224254 0)
(0.226234 0.236461 0)
(0.162785 0.24618 0)
(0.0937057 0.253764 0)
(0.0401296 0.257817 0)
(2.99996 4.039e-07 0)
(2.99989 2.59894e-06 0)
(2.99971 8.08162e-06 0)
(2.99935 2.2152e-05 0)
(2.99841 5.14164e-05 0)
(2.99651 0.000125455 0)
(2.99124 0.000271177 0)
(2.98104 0.000678679 0)
(2.95013 0.00138212 0)
(2.88173 0.00382116 0)
(2.69209 0.0086111 0)
(2.10657 0.0241697 0)
(0.790791 0.0653834 0)
(-0.0543623 0.140671 0)
(0.257086 0.186925 0)
(0.535854 0.214303 0)
(0.593305 0.229682 0)
(0.533247 0.243146 0)
(0.438906 0.256278 0)
(0.357269 0.273115 0)
(0.297149 0.291357 0)
(0.237634 0.308405 0)
(0.17212 0.322949 0)
(0.10007 0.334609 0)
(0.0421786 0.34109 0)
(2.99996 5.01971e-07 0)
(2.99989 3.23207e-06 0)
(2.99972 1.00448e-05 0)
(2.99937 2.75552e-05 0)
(2.99845 6.38889e-05 0)
(2.99659 0.000156257 0)
(2.99147 0.000337478 0)
(2.98151 0.00083773 0)
(2.95147 0.00178391 0)
(2.88514 0.00455993 0)
(2.70098 0.0113737 0)
(2.13481 0.0275188 0)
(0.854065 0.0821526 0)
(0.00829004 0.176047 0)
(0.290205 0.231863 0)
(0.550183 0.259897 0)
(0.600143 0.277327 0)
(0.540952 0.294203 0)
(0.450947 0.313068 0)
(0.37372 0.335733 0)
(0.314602 0.359662 0)
(0.253943 0.382584 0)
(0.186457 0.403242 0)
(0.11051 0.420519 0)
(0.0463026 0.430453 0)
(2.99997 6.05522e-07 0)
(2.9999 3.90002e-06 0)
(2.99973 1.21177e-05 0)
(2.99939 3.32531e-05 0)
(2.9985 7.7065e-05 0)
(2.9967 0.000188666 0)
(2.99174 0.000407426 0)
(2.98214 0.00100443 0)
(2.95297 0.00220159 0)
(2.88975 0.00535043 0)
(2.71012 0.0140996 0)
(2.16647 0.0313541 0)
(0.93444 0.0985122 0)
(0.0829239 0.212787 0)
(0.326229 0.279998 0)
(0.563056 0.304196 0)
(0.608328 0.323227 0)
(0.552557 0.343738 0)
(0.468648 0.369225 0)
(0.396062 0.398553 0)
(0.338365 0.429339 0)
(0.277226 0.460076 0)
(0.207795 0.489563 0)
(0.126794 0.515958 0)
(0.0536409 0.532676 0)
(2.99997 7.1901e-07 0)
(2.9999 4.62864e-06 0)
(2.99974 1.43868e-05 0)
(2.99941 3.94503e-05 0)
(2.99856 9.14904e-05 0)
(2.99683 0.000223498 0)
(2.99206 0.000483054 0)
(2.98288 0.00118977 0)
(2.95479 0.00257288 0)
(2.89509 0.00640659 0)
(2.72138 0.016066 0)
(2.20475 0.0382639 0)
(1.03244 0.11308 0)
(0.175134 0.2498 0)
(0.366271 0.329328 0)
(0.57239 0.348155 0)
(0.617683 0.368035 0)
(0.56849 0.391887 0)
(0.492762 0.424368 0)
(0.425373 0.461194 0)
(0.370291 0.500259 0)
(0.310701 0.540823 0)
(0.241339 0.583235 0)
(0.154904 0.625995 0)
(0.0678306 0.658284 0)
(2.99997 8.43111e-07 0)
(2.99991 5.42243e-06 0)
(2.99975 1.68628e-05 0)
(2.99944 4.61731e-05 0)
(2.99863 0.000107176 0)
(2.99698 0.000260803 0)
(2.99245 0.000564328 0)
(2.98373 0.00138536 0)
(2.95695 0.00293804 0)
(2.901 0.00755714 0)
(2.73499 0.017644 0)
(2.24941 0.0462215 0)
(1.1417 0.12615 0)
(0.282352 0.286799 0)
(0.410634 0.377896 0)
(0.580655 0.391936 0)
(0.62881 0.411948 0)
(0.589102 0.438577 0)
(0.524031 0.477498 0)
(0.46319 0.522556 0)
(0.412633 0.570582 0)
(0.358387 0.623211 0)
(0.294974 0.685108 0)
(0.207256 0.756332 0)
(0.0991518 0.830376 0)
(2.99997 9.83219e-07 0)
(2.99991 6.32049e-06 0)
(2.99977 1.96612e-05 0)
(2.99947 5.37963e-05 0)
(2.99871 0.000124939 0)
(2.99715 0.000303386 0)
(2.99289 0.000656962 0)
(2.98468 0.00160837 0)
(2.9595 0.00337939 0)
(2.9073 0.00880939 0)
(2.75134 0.0198004 0)
(2.30064 0.0543249 0)
(1.25933 0.141861 0)
(0.401212 0.328592 0)
(0.457201 0.419308 0)
(0.586508 0.434101 0)
(0.641096 0.453783 0)
(0.613785 0.48494 0)
(0.562268 0.527348 0)
(0.509827 0.579691 0)
(0.467047 0.636522 0)
(0.426924 0.704395 0)
(0.382343 0.792508 0)
(0.313731 0.910932 0)
(0.177992 1.10104 0)
(2.99997 1.14348e-06 0)
(2.99992 7.35379e-06 0)
(2.99978 2.28761e-05 0)
(2.99951 6.26385e-05 0)
(2.9988 0.000145539 0)
(2.99736 0.000353819 0)
(2.9934 0.000766743 0)
(2.98579 0.00187764 0)
(2.96246 0.00395685 0)
(2.9146 0.0102553 0)
(2.77016 0.0231736 0)
(2.35923 0.0628974 0)
(1.39366 0.162981 0)
(0.525035 0.380993 0)
(0.501115 0.450822 0)
(0.597337 0.470987 0)
(0.657624 0.490679 0)
(0.642454 0.526315 0)
(0.604634 0.570959 0)
(0.565039 0.62811 0)
(0.536385 0.694633 0)
(0.521559 0.778393 0)
(0.52022 0.886962 0)
(0.554038 1.03202 0)
(0.59505 1.2433 0)
(2.99998 1.31325e-06 0)
(2.99993 8.45572e-06 0)
(2.9998 2.63017e-05 0)
(2.99955 7.21661e-05 0)
(2.99891 0.000167788 0)
(2.9976 0.000409497 0)
(2.99401 0.000888422 0)
(2.9871 0.0021868 0)
(2.96592 0.00462816 0)
(2.9232 0.0118568 0)
(2.79209 0.0277994 0)
(2.42705 0.0713871 0)
(1.55523 0.187412 0)
(0.654643 0.442659 0)
(0.538076 0.482058 0)
(0.614628 0.501458 0)
(0.678563 0.518818 0)
(0.67598 0.557197 0)
(0.651293 0.606308 0)
(0.628378 0.667323 0)
(0.620158 0.741741 0)
(0.63262 0.832308 0)
(0.669745 0.942684 0)
(0.767795 1.0756 0)
(0.915089 1.21808 0)
(2.99998 1.45609e-06 0)
(2.99993 9.38557e-06 0)
(2.99983 2.92024e-05 0)
(2.9996 8.02808e-05 0)
(2.99903 0.000186983 0)
(2.99787 0.000457607 0)
(2.99471 0.00099577 0)
(2.98863 0.00245675 0)
(2.96988 0.00519967 0)
(2.93377 0.0133252 0)
(2.81645 0.0311907 0)
(2.50413 0.0809131 0)
(1.75248 0.205157 0)
(0.797663 0.506214 0)
(0.570706 0.515126 0)
(0.633854 0.52468 0)
(0.702695 0.539683 0)
(0.716418 0.580578 0)
(0.704399 0.63423 0)
(0.697244 0.697566 0)
(0.707003 0.772545 0)
(0.739695 0.858118 0)
(0.799531 0.954375 0)
(0.910689 1.05717 0)
(1.06864 1.13507 0)
(2.99998 1.50977e-06 0)
(2.99994 9.73036e-06 0)
(2.99985 3.02836e-05 0)
(2.99966 8.32734e-05 0)
(2.99917 0.000194006 0)
(2.99818 0.000475038 0)
(2.99548 0.0010305 0)
(2.99029 0.00256041 0)
(2.97428 0.0052681 0)
(2.94466 0.0143825 0)
(2.84459 0.0303344 0)
(2.58853 0.0906837 0)
(1.95856 0.216281 0)
(0.946486 0.569478 0)
(0.601431 0.557304 0)
(0.65968 0.553911 0)
(0.73632 0.563595 0)
(0.764965 0.602451 0)
(0.762835 0.656298 0)
(0.765995 0.717811 0)
(0.787666 0.786667 0)
(0.831935 0.861463 0)
(0.901235 0.939359 0)
(1.00826 1.01436 0)
(1.14954 1.06321 0)
(2.99998 1.43643e-06 0)
(2.99995 9.24762e-06 0)
(2.99987 2.87821e-05 0)
(2.99971 7.90048e-05 0)
(2.99931 0.000183911 0)
(2.99847 0.000448859 0)
(2.99624 0.000971364 0)
(2.99184 0.00240107 0)
(2.979 0.00492104 0)
(2.95431 0.0136193 0)
(2.87579 0.0269191 0)
(2.68 0.0854041 0)
(2.18994 0.198816 0)
(1.14571 0.554181 0)
(0.681771 0.5866 0)
(0.714525 0.594653 0)
(0.78722 0.596705 0)
(0.824932 0.627278 0)
(0.827876 0.67547 0)
(0.834542 0.731077 0)
(0.860527 0.790932 0)
(0.908691 0.853347 0)
(0.979069 0.914957 0)
(1.0766 0.970085 0)
(1.19897 1.00451 0)
(2.99999 1.27777e-06 0)
(2.99996 8.21422e-06 0)
(2.9999 2.55722e-05 0)
(2.99976 6.99749e-05 0)
(2.99943 0.000162974 0)
(2.99874 0.000394641 0)
(2.99691 0.000859604 0)
(2.99328 0.00206939 0)
(2.98296 0.00440122 0)
(2.96257 0.0110881 0)
(2.90087 0.0237203 0)
(2.75061 0.065408 0)
(2.36526 0.153723 0)
(1.35472 0.433598 0)
(0.77826 0.588312 0)
(0.773356 0.633015 0)
(0.834549 0.642107 0)
(0.884163 0.659387 0)
(0.893798 0.696429 0)
(0.901732 0.742822 0)
(0.927429 0.79262 0)
(0.974158 0.843233 0)
(1.04064 0.891485 0)
(1.12768 0.93295 0)
(1.23307 0.959308 0)
(2.99999 1.11351e-06 0)
(2.99997 7.15117e-06 0)
(2.99992 2.22638e-05 0)
(2.99981 6.08019e-05 0)
(2.99953 0.000141556 0)
(2.99897 0.000341299 0)
(2.99747 0.000744357 0)
(2.99452 0.00177311 0)
(2.98598 0.00380055 0)
(2.97 0.0091726 0)
(2.91856 0.0207169 0)
(2.79846 0.0510361 0)
(2.477 0.124708 0)
(1.55703 0.333923 0)
(0.88426 0.620599 0)
(0.815445 0.675168 0)
(0.861883 0.693 0)
(0.919815 0.696651 0)
(0.945906 0.719964 0)
(0.960426 0.755505 0)
(0.986656 0.795251 0)
(1.03069 0.835259 0)
(1.09168 0.872741 0)
(1.16872 0.904326 0)
(1.25963 0.924949 0)
(2.99999 9.82143e-07 0)
(2.99997 6.30923e-06 0)
(2.99993 1.96422e-05 0)
(2.99984 5.36793e-05 0)
(2.99962 0.000124945 0)
(2.99917 0.000301807 0)
(2.99797 0.000656491 0)
(2.99559 0.00157368 0)
(2.98869 0.00333775 0)
(2.97628 0.00834928 0)
(2.934 0.0176836 0)
(2.84364 0.0471982 0)
(2.58271 0.111984 0)
(1.80376 0.310426 0)
(1.05868 0.669114 0)
(0.857108 0.707679 0)
(0.882956 0.725522 0)
(0.940014 0.723432 0)
(0.98305 0.737074 0)
(1.00776 0.764637 0)
(1.03661 0.796912 0)
(1.07878 0.828939 0)
(1.13482 0.858221 0)
(1.20342 0.882517 0)
(1.28243 0.898643 0)
(2.99999 8.63734e-07 0)
(2.99998 5.5536e-06 0)
(2.99995 1.72941e-05 0)
(2.99988 4.7342e-05 0)
(2.9997 0.000110339 0)
(2.99935 0.000267238 0)
(2.99841 0.000582185 0)
(2.99655 0.00140056 0)
(2.99123 0.00296673 0)
(2.98159 0.00759594 0)
(2.94954 0.0151405 0)
(2.88282 0.0442186 0)
(2.68833 0.0981254 0)
(2.0998 0.287127 0)
(1.28662 0.679974 0)
(0.933366 0.735118 0)
(0.925102 0.746024 0)
(0.968379 0.743597 0)
(1.01958 0.748094 0)
(1.05205 0.769122 0)
(1.08215 0.796165 0)
(1.12152 0.822815 0)
(1.17241 0.846374 0)
(1.23365 0.865342 0)
(1.30302 0.877991 0)
(2.99999 7.23464e-07 0)
(2.99998 4.64883e-06 0)
(2.99996 1.44774e-05 0)
(2.99991 3.95866e-05 0)
(2.99977 9.22513e-05 0)
(2.9995 0.000222872 0)
(2.9988 0.000485793 0)
(2.99739 0.00116174 0)
(2.9935 0.00246739 0)
(2.98608 0.00619304 0)
(2.96348 0.0125624 0)
(2.91742 0.0345004 0)
(2.781 0.0790997 0)
(2.39186 0.217093 0)
(1.61323 0.554012 0)
(1.07186 0.736833 0)
(1.00026 0.761446 0)
(1.01745 0.767795 0)
(1.06321 0.765157 0)
(1.1003 0.777582 0)
(1.12933 0.798157 0)
(1.16387 0.819493 0)
(1.20827 0.838228 0)
(1.26203 0.852909 0)
(1.32304 0.862554 0)
(3 5.78351e-07 0)
(2.99999 3.71004e-06 0)
(2.99997 1.15538e-05 0)
(2.99993 3.14963e-05 0)
(2.99983 7.33178e-05 0)
(2.99963 0.000176069 0)
(2.9991 0.000383391 0)
(2.99804 0.000906514 0)
(2.99515 0.00192692 0)
(2.9897 0.00468159 0)
(2.97248 0.0097695 0)
(2.94142 0.025081 0)
(2.835 0.056114 0)
(2.56136 0.151729 0)
(1.92757 0.381212 0)
(1.20691 0.752314 0)
(1.05003 0.789604 0)
(1.05529 0.801732 0)
(1.09705 0.795766 0)
(1.14163 0.794756 0)
(1.173 0.806109 0)
(1.20437 0.821155 0)
(1.24299 0.834925 0)
(1.28976 0.845629 0)
(1.34305 0.852348 0)
(3 4.59259e-07 0)
(2.99999 2.94555e-06 0)
(2.99998 9.17483e-06 0)
(2.99995 2.50022e-05 0)
(2.99987 5.82204e-05 0)
(2.99972 0.00013966 0)
(2.99934 0.000304286 0)
(2.99856 0.000717512 0)
(2.99644 0.00152462 0)
(2.99237 0.00369997 0)
(2.98007 0.00757015 0)
(2.95763 0.0204953 0)
(2.88251 0.0404443 0)
(2.6984 0.125198 0)
(2.24318 0.293571 0)
(1.42853 0.728243 0)
(1.11945 0.817291 0)
(1.09821 0.831152 0)
(1.12429 0.828158 0)
(1.17119 0.817891 0)
(1.21044 0.818615 0)
(1.24187 0.826342 0)
(1.27624 0.835029 0)
(1.31713 0.841841 0)
(1.36382 0.845754 0)
(3 3.59872e-07 0)
(2.99999 2.30883e-06 0)
(2.99998 7.19145e-06 0)
(2.99996 1.96054e-05 0)
(2.99991 4.56634e-05 0)
(2.9998 0.000109615 0)
(2.99952 0.000239033 0)
(2.99897 0.000563934 0)
(2.99747 0.00120163 0)
(2.99454 0.0028928 0)
(2.98623 0.00606865 0)
(2.96966 0.015524 0)
(2.92114 0.03244 0)
(2.80524 0.0902048 0)
(2.50593 0.215704 0)
(1.72993 0.577546 0)
(1.24662 0.814385 0)
(1.15606 0.844529 0)
(1.16195 0.853467 0)
(1.19972 0.843989 0)
(1.24223 0.834745 0)
(1.27588 0.833932 0)
(1.30789 0.837196 0)
(1.34401 0.8405 0)
(1.38518 0.842025 0)
(3 2.74136e-07 0)
(3 1.75858e-06 0)
(2.99999 5.47574e-06 0)
(2.99997 1.49177e-05 0)
(2.99994 3.47291e-05 0)
(2.99986 8.32418e-05 0)
(2.99967 0.000181474 0)
(2.99928 0.000426804 0)
(2.99826 0.000910301 0)
(2.99627 0.00217219 0)
(2.99044 0.00459102 0)
(2.98025 0.0113212 0)
(2.94506 0.0244136 0)
(2.87412 0.0635231 0)
(2.66366 0.148697 0)
(2.05177 0.413172 0)
(1.43233 0.80858 0)
(1.21647 0.867377 0)
(1.20106 0.875874 0)
(1.22276 0.868377 0)
(1.2642 0.852874 0)
(1.30333 0.844749 0)
(1.33694 0.842491 0)
(1.3707 0.842271 0)
(1.40757 0.841703 0)
(3 1.89777e-07 0)
(3 1.3337e-06 0)
(2.99999 3.91143e-06 0)
(2.99998 1.12047e-05 0)
(2.99996 2.47347e-05 0)
(2.99991 6.23448e-05 0)
(2.99978 0.000128018 0)
(2.99952 0.000319023 0)
(2.99883 0.000631455 0)
(2.99749 0.00162384 0)
(2.99375 0.00308148 0)
(2.98661 0.00866935 0)
(2.96528 0.014838 0)
(2.92104 0.0494911 0)
(2.79335 0.0906203 0)
(2.4293 0.29885 0)
(1.76452 0.656091 0)
(1.33686 0.852466 0)
(1.26504 0.87792 0)
(1.26349 0.881861 0)
(1.29322 0.869722 0)
(1.33246 0.856345 0)
(1.36632 0.850176 0)
(1.39841 0.84703 0)
(1.43181 0.844399 0)
(3 1.33024e-07 0)
(3 9.28327e-07 0)
(2.99999 2.73372e-06 0)
(2.99999 7.79283e-06 0)
(2.99997 1.72546e-05 0)
(2.99994 4.32157e-05 0)
(2.99986 8.90675e-05 0)
(2.99966 0.000220036 0)
(2.99927 0.000438528 0)
(2.99823 0.00110946 0)
(2.99626 0.00214589 0)
(2.9902 0.00569931 0)
(2.98024 0.0107531 0)
(2.94364 0.0304509 0)
(2.87201 0.0610274 0)
(2.65275 0.175271 0)
(2.06184 0.439629 0)
(1.50015 0.826743 0)
(1.31601 0.888081 0)
(1.29813 0.89644 0)
(1.31545 0.889414 0)
(1.3541 0.872642 0)
(1.39288 0.861753 0)
(1.42513 0.855484 0)
(1.45629 0.850623 0)
(3 1.03037e-07 0)
(3 5.90595e-07 0)
(3 1.98224e-06 0)
(2.99999 5.04695e-06 0)
(2.99998 1.25316e-05 0)
(2.99996 2.79089e-05 0)
(2.99991 6.54123e-05 0)
(2.99978 0.000140576 0)
(2.99953 0.000328195 0)
(2.99885 0.00069368 0)
(2.99755 0.00164994 0)
(2.99387 0.00341384 0)
(2.98694 0.00866361 0)
(2.96608 0.0172928 0)
(2.92268 0.0472032 0)
(2.79941 0.106068 0)
(2.4434 0.293323 0)
(1.82065 0.673742 0)
(1.43166 0.86004 0)
(1.35936 0.892967 0)
(1.35441 0.899932 0)
(1.3809 0.89021 0)
(1.4194 0.874871 0)
(1.45234 0.865564 0)
(1.4819 0.859233 0)
(3 6.98585e-08 0)
(3 4.00428e-07 0)
(3 1.34245e-06 0)
(2.99999 3.41339e-06 0)
(2.99999 8.4467e-06 0)
(2.99997 1.87692e-05 0)
(2.99994 4.3728e-05 0)
(2.99986 9.36959e-05 0)
(2.9997 0.000216985 0)
(2.99929 0.00045754 0)
(2.9985 0.00107425 0)
(2.99615 0.00223655 0)
(2.99237 0.00541858 0)
(2.9778 0.0112735 0)
(2.95575 0.0286108 0)
(2.86914 0.0629694 0)
(2.66082 0.171888 0)
(2.18121 0.417512 0)
(1.57311 0.821264 0)
(1.40182 0.899577 0)
(1.38253 0.913548 0)
(1.39759 0.911862 0)
(1.43414 0.896497 0)
(1.47324 0.882012 0)
(1.50494 0.872509 0)
(3 4.82255e-08 0)
(3 2.59567e-07 0)
(3 9.07641e-07 0)
(3 2.2236e-06 0)
(2.99999 5.69455e-06 0)
(2.99998 1.21818e-05 0)
(2.99996 2.94298e-05 0)
(2.99991 6.03531e-05 0)
(2.99981 0.000145953 0)
(2.99954 0.000291654 0)
(2.99901 0.000726099 0)
(2.99756 0.00138218 0)
(2.99485 0.00378914 0)
(2.98664 0.00636942 0)
(2.97129 0.0214684 0)
(2.9236 0.0333302 0)
(2.81207 0.12378 0)
(2.52778 0.250944 0)
(1.87468 0.670188 0)
(1.51246 0.869748 0)
(1.43244 0.913559 0)
(1.42742 0.924631 0)
(1.44981 0.918785 0)
(1.48743 0.902964 0)
(1.52299 0.890026 0)
(3 3.01537e-08 0)
(3 1.72835e-07 0)
(3 5.79215e-07 0)
(3 1.47274e-06 0)
(3 3.64161e-06 0)
(2.99999 8.09024e-06 0)
(2.99998 1.88325e-05 0)
(2.99995 4.03704e-05 0)
(2.99988 9.34505e-05 0)
(2.99975 0.000197634 0)
(2.9994 0.000462989 0)
(2.99876 0.000970646 0)
(2.9967 0.00232698 0)
(2.99368 0.00483792 0)
(2.98063 0.0120224 0)
(2.96224 0.0258325 0)
(2.88361 0.0649642 0)
(2.71079 0.162579 0)
(2.2815 0.391547 0)
(1.67952 0.809388 0)
(1.48485 0.912828 0)
(1.45434 0.934271 0)
(1.46373 0.93769 0)
(1.49501 0.926067 0)
(1.53325 0.90869 0)
(3 1.64661e-08 0)
(3 1.11404e-07 0)
(3 3.3371e-07 0)
(3 9.30713e-07 0)
(3 2.08226e-06 0)
(2.99999 5.0656e-06 0)
(2.99999 1.05285e-05 0)
(2.99997 2.50358e-05 0)
(2.99993 5.04095e-05 0)
(2.99984 0.000121348 0)
(2.99965 0.000237891 0)
(2.99915 0.000597055 0)
(2.99822 0.00110203 0)
(2.99536 0.00312735 0)
(2.99066 0.0051563 0)
(2.97331 0.017958 0)
(2.94444 0.0292168 0)
(2.84132 0.105507 0)
(2.58546 0.235229 0)
(2.05918 0.594754 0)
(1.61862 0.880895 0)
(1.51079 0.937018 0)
(1.49498 0.948603 0)
(1.50675 0.945477 0)
(1.53879 0.929409 0)
(3 1.1357e-08 0)
(3 6.51737e-08 0)
(3 2.17704e-07 0)
(3 5.53236e-07 0)
(3 1.35936e-06 0)
(3 3.01024e-06 0)
(2.99999 6.94077e-06 0)
(2.99998 1.48025e-05 0)
(2.99996 3.38632e-05 0)
(2.9999 7.11914e-05 0)
(2.99979 0.000164576 0)
(2.99949 0.000342878 0)
(2.99892 0.000813379 0)
(2.99729 0.00165255 0)
(2.99447 0.00420691 0)
(2.98491 0.00821263 0)
(2.96954 0.0233536 0)
(2.91388 0.0469046 0)
(2.78718 0.139048 0)
(2.47674 0.332883 0)
(1.88355 0.732893 0)
(1.59611 0.904155 0)
(1.53698 0.942854 0)
(1.53133 0.951263 0)
(1.54738 0.945206 0)
(3 7.13873e-09 0)
(3 4.09564e-08 0)
(3 1.36908e-07 0)
(3 3.47726e-07 0)
(3 8.55068e-07 0)
(3 1.89352e-06 0)
(3 4.36956e-06 0)
(2.99999 9.32599e-06 0)
(2.99998 2.13373e-05 0)
(2.99994 4.49445e-05 0)
(2.99987 0.000103648 0)
(2.9997 0.000216587 0)
(2.99936 0.000508109 0)
(2.99842 0.00104482 0)
(2.99671 0.00255651 0)
(2.99147 0.00509335 0)
(2.98235 0.0136181 0)
(2.9523 0.0266169 0)
(2.88982 0.0761093 0)
(2.71473 0.174407 0)
(2.24391 0.453094 0)
(1.79385 0.798169 0)
(1.60989 0.909908 0)
(1.57 0.939534 0)
(1.56786 0.945829 0)
(3 4.46074e-09 0)
(3 2.55874e-08 0)
(3 8.55415e-08 0)
(3 2.17241e-07 0)
(3 5.34418e-07 0)
(3 1.18357e-06 0)
(3 2.7331e-06 0)
(2.99999 5.83496e-06 0)
(2.99999 1.33601e-05 0)
(2.99997 2.81594e-05 0)
(2.99993 6.49575e-05 0)
(2.99983 0.000135899 0)
(2.99965 0.000317633 0)
(2.99914 0.000659423 0)
(2.99821 0.00157498 0)
(2.99542 0.00321546 0)
(2.99075 0.00804521 0)
(2.97452 0.0163471 0)
(2.94687 0.0430274 0)
(2.85345 0.0953499 0)
(2.60791 0.261806 0)
(2.14335 0.590535 0)
(1.74258 0.864791 0)
(1.62728 0.933567 0)
(1.60018 0.947954 0)
(3 2.79146e-09 0)
(3 1.55093e-08 0)
(3 5.2982e-08 0)
(3 1.32228e-07 0)
(3 3.30938e-07 0)
(3 7.21516e-07 0)
(3 1.69539e-06 0)
(3 3.56177e-06 0)
(2.99999 8.31561e-06 0)
(2.99998 1.72208e-05 0)
(2.99996 4.06321e-05 0)
(2.99991 8.31576e-05 0)
(2.99982 0.000200302 0)
(2.99955 0.000401214 0)
(2.99907 0.00100191 0)
(2.99763 0.00191251 0)
(2.99524 0.00509456 0)
(2.98694 0.00902808 0)
(2.97366 0.0265466 0)
(2.92607 0.0455013 0)
(2.82186 0.144262 0)
(2.56043 0.302392 0)
(2.02243 0.699349 0)
(1.72635 0.885234 0)
(1.64097 0.935868 0)
(3 1.56415e-09 0)
(3 8.96506e-09 0)
(3 2.99527e-08 0)
(3 7.60167e-08 0)
(3 1.86624e-07 0)
(3 4.12728e-07 0)
(3 9.50305e-07 0)
(3 2.02576e-06 0)
(3 4.62284e-06 0)
(2.99999 9.74493e-06 0)
(2.99998 2.23537e-05 0)
(2.99997 4.70482e-05 0)
(2.99992 0.000108559 0)
(2.99986 0.000229005 0)
(2.9996 0.000533569 0)
(2.99933 0.00111224 0)
(2.99769 0.00265478 0)
(2.99608 0.00540757 0)
(2.98479 0.0132802 0)
(2.9718 0.0270963 0)
(2.90442 0.0665887 0)
(2.77358 0.160266 0)
(2.45059 0.357272 0)
(1.91804 0.7509 0)
(1.69902 0.893178 0)
(3 7.02077e-10 0)
(3 4.54485e-09 0)
(3 1.39135e-08 0)
(3 3.75042e-08 0)
(3 8.47104e-08 0)
(3 1.96497e-07 0)
(3 4.09604e-07 0)
(3 9.13937e-07 0)
(3 1.83933e-06 0)
(3 4.08308e-06 0)
(2.99999 7.97325e-06 0)
(2.99999 1.80524e-05 0)
(2.99997 3.3091e-05 0)
(2.99993 8.13046e-05 0)
(2.99989 0.000130391 0)
(2.99966 0.000384127 0)
(2.99944 0.000531227 0)
(2.99766 0.00209967 0)
(2.9961 0.00280469 0)
(2.98223 0.0133998 0)
(2.96699 0.0202027 0)
(2.88552 0.0821773 0)
(2.71332 0.172109 0)
(2.33947 0.445216 0)
(1.85161 0.761651 0)
(3 3.59413e-10 0)
(3 2.01975e-09 0)
(3 6.76563e-09 0)
(3 1.67924e-08 0)
(3 4.04785e-08 0)
(3 8.62873e-08 0)
(3 1.91146e-07 0)
(3 3.86106e-07 0)
(3 8.36508e-07 0)
(3 1.63064e-06 0)
(3 3.59017e-06 0)
(2.99999 6.55636e-06 0)
(2.99998 1.55609e-05 0)
(2.99995 2.49326e-05 0)
(2.99989 6.74097e-05 0)
(2.99971 9.06368e-05 0)
(2.99939 0.000316762 0)
(2.99833 0.000365675 0)
(2.99665 0.00205506 0)
(2.99012 0.00230585 0)
(2.98027 0.0154871 0)
(2.9415 0.0203585 0)
(2.86466 0.0987978 0)
(2.6554 0.177446 0)
(2.15287 0.485263 0)
(3 1.92099e-10 0)
(3 1.10337e-09 0)
(3 3.66508e-09 0)
(3 9.27603e-09 0)
(3 2.2482e-08 0)
(3 4.93142e-08 0)
(3 1.11513e-07 0)
(3 2.35503e-07 0)
(3 5.26418e-07 0)
(3 1.10921e-06 0)
(3 2.49244e-06 0)
(3 5.29689e-06 0)
(2.99999 1.19575e-05 0)
(2.99998 2.56355e-05 0)
(2.99995 5.68713e-05 0)
(2.9999 0.00012165 0)
(2.99971 0.00026949 0)
(2.99944 0.000550781 0)
(2.99807 0.00135949 0)
(2.99667 0.00231237 0)
(2.98644 0.00802442 0)
(2.97633 0.0172321 0)
(2.89978 0.0359679 0)
(2.75721 0.0914198 0)
(2.37809 0.142839 0)
(3 9.56886e-11 0)
(3 6.00911e-10 0)
(3 1.87946e-09 0)
(3 4.98601e-09 0)
(3 1.14878e-08 0)
(3 2.62165e-08 0)
(3 5.60324e-08 0)
(3 1.22068e-07 0)
(3 2.55313e-07 0)
(3 5.46496e-07 0)
(3 1.12509e-06 0)
(3 2.4314e-06 0)
(3 4.72778e-06 0)
(2.99999 1.08386e-05 0)
(2.99998 2.00323e-05 0)
(2.99991 4.33371e-05 0)
(2.99981 8.14528e-05 0)
(2.99943 0.000152126 0)
(2.99847 0.000210905 0)
(2.99729 0.000805216 0)
(2.99666 0.00134304 0)
(2.97244 0.00370467 0)
(2.95094 0.00712833 0)
(2.77541 0.0163555 0)
(2.31613 0.0287054 0)
(3 4.84874e-11 0)
(3 2.81416e-10 0)
(3 9.23113e-10 0)
(3 2.33614e-09 0)
(3 5.53892e-09 0)
(3 1.20309e-08 0)
(3 2.6157e-08 0)
(3 5.38047e-08 0)
(3 1.14266e-07 0)
(3 2.24494e-07 0)
(3 4.77696e-07 0)
(3 8.79321e-07 0)
(3 1.94275e-06 0)
(2.99999 3.32246e-06 0)
(2.99998 9.2866e-06 0)
(2.99996 1.56636e-05 0)
(2.99981 4.77143e-05 0)
(2.99957 0.000110129 0)
(2.99876 -8.53386e-05 0)
(2.99786 0.000202972 0)
(2.98965 -0.00293372 0)
(2.98293 -0.0120145 0)
(2.91313 -0.00412906 0)
(2.78021 0.00293853 0)
(2.37269 0.00893387 0)
(3 2.09271e-11 0)
(3 1.30245e-10 0)
(3 4.07263e-10 0)
(3 1.06528e-09 0)
(3 2.42151e-09 0)
(3 5.3926e-09 0)
(3 1.11568e-08 0)
(3 2.37916e-08 0)
(3 4.65075e-08 0)
(3 9.82868e-08 0)
(3 1.81941e-07 0)
(3 3.99135e-07 0)
(3 6.93736e-07 0)
(2.99999 1.77033e-06 0)
(2.99999 2.93761e-06 0)
(2.99995 1.00673e-05 0)
(2.99991 1.91306e-05 0)
(2.99929 5.51552e-05 0)
(2.99857 0.000115064 0)
(2.99418 0.000269262 0)
(2.98308 0.000255693 0)
(2.97161 0.00120014 0)
(2.96739 0.00161795 0)
(2.78479 0.00559439 0)
(2.30902 0.0117796 0)
(3 9.71758e-12 0)
(3 5.63682e-11 0)
(3 1.84825e-10 0)
(3 4.65827e-10 0)
(3 1.09827e-09 0)
(3 2.36143e-09 0)
(3 5.1009e-09 0)
(3 1.03204e-08 0)
(3 2.22052e-08 0)
(3 4.16434e-08 0)
(3 1.01261e-07 0)
(3 1.8135e-07 0)
(3 5.81135e-07 0)
(3 1.05927e-06 0)
(2.99998 3.63245e-06 0)
(2.99997 7.92972e-06 0)
(2.99986 1.23214e-05 0)
(2.99967 7.10833e-06 0)
(2.99898 0.000334339 0)
(2.99801 0.000374167 0)
(2.99067 0.00349579 0)
(2.9844 0.012585 0)
(2.91807 0.00791824 0)
(2.79067 0.00461719 0)
(2.38112 0.00757096 0)
(3 3.65964e-12 0)
(3 2.68851e-11 0)
(3 7.50764e-11 0)
(3 2.15261e-10 0)
(3 4.39688e-10 0)
(3 1.10096e-09 0)
(3 1.98125e-09 0)
(3 5.34293e-09 0)
(3 7.87346e-09 0)
(3 2.88133e-08 0)
(3 3.18488e-08 0)
(3 1.73859e-07 0)
(3 1.84437e-07 0)
(3 1.18126e-06 0)
(2.99999 4.53264e-07 0)
(2.99995 1.19359e-05 0)
(2.99991 -9.33558e-06 0)
(2.99962 7.01883e-05 0)
(2.99895 -1.63816e-06 0)
(2.99762 5.31894e-05 0)
(2.99666 0.000137911 0)
(2.97609 0.00660205 0)
(2.95854 -0.00585623 0)
(2.78767 0.0392129 0)
(2.3392 -0.0248605 0)
(3 2.02342e-12 0)
(3 1.1717e-11 0)
(3 3.71482e-11 0)
(3 9.19942e-11 0)
(3 2.08751e-10 0)
(3 4.28404e-10 0)
(3 9.42322e-10 0)
(3 1.64681e-09 0)
(3 4.74433e-09 0)
(3 6.97506e-09 0)
(3 2.74155e-08 0)
(3 5.02627e-08 0)
(3 2.0558e-07 0)
(3 3.61178e-07 0)
(3 1.81744e-06 0)
(2.99996 3.30531e-06 0)
(2.99992 1.71805e-05 0)
(2.99967 4.04e-05 0)
(2.99897 7.78466e-05 0)
(2.99815 0.000243607 0)
(2.99794 0.000362407 0)
(2.97733 0.000479561 0)
(2.96 0.00203197 0)
(2.79487 0.00343526 0)
(2.35616 0.0162547 0)
(3 1.10941e-12 0)
(3 6.41019e-12 0)
(3 2.02903e-11 0)
(3 5.13277e-11 0)
(3 1.1103e-10 0)
(3 2.40728e-10 0)
(3 3.95652e-10 0)
(3 7.87546e-10 0)
(3 7.47869e-10 0)
(3 6.14255e-10 0)
(3 -1.54465e-11 0)
(3 -5.87418e-09 0)
(3 8.32386e-09 0)
(3 -3.99376e-08 0)
(3 7.01393e-07 0)
(2.99997 1.22493e-06 0)
(2.99994 1.43877e-05 0)
(2.99968 3.89119e-05 0)
(2.99916 5.53971e-05 0)
(2.99791 0.000333916 0)
(2.9969 -0.000110179 0)
(2.97808 -0.000746957 0)
(2.96198 0.0013873 0)
(2.80083 0.00328421 0)
(2.38745 0.019844 0)
(3 5.81774e-13 0)
(3 3.22968e-12 0)
(3 1.13086e-11 0)
(3 3.04692e-11 0)
(3 7.5037e-11 0)
(3 1.96799e-10 0)
(3 3.08909e-10 0)
(3 1.0351e-09 0)
(3 3.43858e-10 0)
(3 2.1599e-09 0)
(3 -7.56272e-09 0)
(3 -1.65926e-08 0)
(3 -8.87109e-08 0)
(3 -1.73028e-07 0)
(3 -5.39622e-07 0)
(2.99998 -1.17514e-06 0)
(2.99995 3.35414e-06 0)
(2.99971 1.03699e-05 0)
(2.99928 2.84108e-05 0)
(2.99796 0.000236415 0)
(2.99675 -4.70471e-05 0)
(2.97918 -0.000773765 0)
(2.96482 0.00262037 0)
(2.81036 0.00497621 0)
(2.42749 0.0242076 0)
(3 4.66305e-13 0)
(3 -6.6568e-13 0)
(3 6.29287e-12 0)
(3 -2.31237e-12 0)
(3 5.33024e-11 0)
(3 -3.29113e-11 0)
(3 4.21144e-10 0)
(3 -5.67798e-10 0)
(3 2.28185e-09 0)
(3 -6.93284e-09 0)
(3 8.34064e-09 0)
(3 -6.88365e-08 0)
(3 -1.95762e-08 0)
(3 -6.04381e-07 0)
(3 -1.32686e-07 0)
(2.99997 -1.17583e-05 0)
(2.99995 -2.91554e-06 0)
(2.99971 -0.000129591 0)
(2.99939 -9.95261e-05 0)
(2.99782 -0.000566746 0)
(2.99579 -0.0014912 0)
(2.98117 -0.00354045 0)
(2.96877 0.0101608 0)
(2.81893 -0.0188664 0)
(2.47786 0.0744482 0)
(3 -8.81818e-14 0)
(3 -5.07217e-13 0)
(3 -1.81094e-12 0)
(3 -5.13788e-12 0)
(3 -1.31516e-11 0)
(3 -4.42819e-11 0)
(3 -4.78974e-11 0)
(3 -2.31011e-10 0)
(3 8.33062e-12 0)
(3 1.71021e-10 0)
(3 3.59244e-09 0)
(3 9.40971e-09 0)
(3 1.82287e-08 0)
(3 4.79809e-08 0)
(2.99999 -4.81439e-09 0)
(2.99997 -1.63245e-07 0)
(2.99984 -8.09611e-07 0)
(2.99962 -2.24205e-06 0)
(2.99881 1.41221e-05 0)
(2.99648 4.00585e-05 0)
(2.99349 0.000183049 0)
(2.99252 6.01411e-05 0)
(2.94562 0.00245312 0)
(2.86595 0.00388926 0)
(2.57966 0.0200817 0)
(3 -3.84055e-13 0)
(3 1.02163e-12 0)
(3 -4.41459e-12 0)
(3 7.81243e-12 0)
(3 -3.37142e-11 0)
(3 8.83089e-11 0)
(3 -2.82379e-10 0)
(3 1.0949e-09 0)
(3 -1.67778e-09 0)
(3 1.00653e-08 0)
(3 -7.88228e-09 0)
(3 7.43138e-08 0)
(3 -3.36483e-08 0)
(3 5.14997e-07 0)
(2.99999 -5.54007e-07 0)
(2.99997 1.02199e-05 0)
(2.99995 -7.62044e-07 0)
(2.99972 0.000123433 0)
(2.99944 0.000107318 0)
(2.998 0.00071431 0)
(2.99581 0.00154374 0)
(2.98376 0.00283917 0)
(2.97303 -0.00609734 0)
(2.83814 0.0258566 0)
(2.56358 -0.0367722 0)
(1.14452 1.20113 0)
(1.44474 1.10364 0)
(1.42073 0.968074 0)
(1.01935 0.777972 0)
(0.207629 0.589536 0)
(-0.464452 0.316878 0)
(-0.251264 0.0129102 0)
(-0.406613 0.0106667 0)
(-0.56217 0.00520319 0)
(-0.682859 0.00458708 0)
(-0.758577 0.0102207 0)
(-0.806534 0.0142267 0)
(-0.848758 0.0169006 0)
(-0.894356 0.0166985 0)
(-0.939101 0.0134591 0)
(-0.977879 0.00854279 0)
(-1.00939 0.00373914 0)
(-1.03576 0.000415682 0)
(-1.06011 -0.00131714 0)
(-1.08376 -0.00248117 0)
(-1.10651 -0.00356287 0)
(-1.12852 -0.00452723 0)
(-1.15043 -0.0048583 0)
(-1.16985 -0.00379344 0)
(-1.18286 -0.00285881 0)
(-1.18993 -0.00255469 0)
(-1.19389 -0.00265779 0)
(-1.19181 -0.00290303 0)
(-1.17747 -0.00397559 0)
(-1.14757 -0.00587768 0)
(-1.10286 -0.00830083 0)
(-1.04537 -0.010954 0)
(-0.978464 -0.013544 0)
(-0.905702 -0.0158042 0)
(-0.829996 -0.0175998 0)
(-0.752905 -0.019422 0)
(-0.676098 -0.0214484 0)
(-0.601502 -0.0230414 0)
(-0.529941 -0.0247977 0)
(-0.461416 -0.0268809 0)
(-0.396211 -0.0293303 0)
(-0.332446 -0.0325833 0)
(-0.270081 -0.0365195 0)
(-0.207515 -0.0391058 0)
(-0.146874 -0.0405767 0)
(-0.086589 -0.0425179 0)
(-0.028016 -0.0452603 0)
(0.0467225 -0.0479421 0)
(0.092765 -0.0440511 0)
(0.138918 -0.040004 0)
(0.187769 -0.037028 0)
(0.236667 -0.0347809 0)
(0.283927 -0.0328379 0)
(0.327958 -0.0308669 0)
(0.370702 -0.0293734 0)
(0.415578 -0.0286221 0)
(0.461128 -0.0280525 0)
(0.504894 -0.026858 0)
(0.547084 -0.0254207 0)
(0.588014 -0.0239853 0)
(0.628002 -0.0227235 0)
(0.667027 -0.0215201 0)
(0.705209 -0.0204199 0)
(0.742485 -0.0193154 0)
(0.778984 -0.0182832 0)
(0.814622 -0.0172532 0)
(0.849516 -0.016288 0)
(0.883619 -0.0153445 0)
(0.916991 -0.0144636 0)
(0.949607 -0.0136087 0)
(0.98152 -0.0128175 0)
(1.01269 -0.0120611 0)
(1.04316 -0.0113713 0)
(1.07288 -0.010727 0)
(1.10186 -0.0101544 0)
(1.13004 -0.00963809 0)
(1.1574 -0.00919928 0)
(1.18385 -0.00883099 0)
(1.20933 -0.00855006 0)
(1.23374 -0.00836434 0)
(1.25697 -0.00828818 0)
(1.27892 -0.00832106 0)
(1.29948 -0.00847164 0)
(1.31851 -0.00874667 0)
(1.33591 -0.0091424 0)
(1.35155 -0.00963976 0)
(1.36527 -0.0101952 0)
(1.37683 -0.010717 0)
(1.38705 -0.0111575 0)
(1.39687 -0.011578 0)
(1.40618 -0.0119519 0)
(1.41474 -0.0121564 0)
(1.4226 -0.0119577 0)
(1.43039 -0.0113369 0)
(1.43878 -0.0102776 0)
(1.44773 -0.00909913 0)