/*--------------------------------*- C++ -*----------------------------------*\
  =========                 |
  \\      /  F ield         | OpenFOAM: The Open Source CFD Toolbox
   \\    /   O peration     | Website:  https://openfoam.org
    \\  /    A nd           | Version:  6
     \\/     M anipulation  |
\*---------------------------------------------------------------------------*/
FoamFile
{
    version     2.0;
    format      ascii;
    class       volScalarField;
    location    "75";
    object      p;
}
// * * * * * * * * * * * * * * * * * * * * * * * * * * * * * * * * * * * * * //

dimensions      [0 2 -2 0 0 0 0];

internalField   nonuniform List<scalar> 
918
(
0.538071
1.23648
0.00625979
0.537982
-0.0114566
1.20406
-0.500853
0.634276
0.519223
-0.124092
-0.0846184
0.521694
1.06152
0.828454
-1.16407
-0.0218561
0.633401
-0.417052
0.517272
-0.0782704
0.655461
0.525897
0.528362
0.519148
0.582779
0.781826
0.938934
-0.00345561
0.0107748
0.00556475
-0.0128153
-0.0330912
-0.0295288
1.08719
1.13911
1.16232
0.485714
0.32019
-0.395982
-0.450468
-0.428573
-0.518209
0.634019
0.634959
-0.225084
0.634776
0.635514
0.504908
0.518617
0.519453
0.520576
0.519484
0.520763
0.385758
-0.130436
-0.156831
-0.109242
-0.108283
0.0281435
-0.0870052
-0.0879127
-0.0819834
-0.0796584
0.434701
0.516798
0.512878
0.525502
0.535342
1.17665
1.15038
1.17645
1.08703
1.10455
1.03844
1.01132
0.849659
0.872876
0.811402
0.797457
-1.61895
-2.56331
-0.588234
-0.313065
-0.0105103
-0.0232552
-0.0218649
0.62913
0.632304
0.632033
0.635117
1.03767
-0.388692
-0.460447
0.517808
0.516331
0.52542
0.526324
0.521288
0.521287
-0.0741564
-0.0725425
-0.0661386
-0.0762918
-0.0757485
0.641343
0.640965
0.518583
0.516026
0.543727
0.567881
0.555416
0.25184
0.593087
0.608974
0.645549
0.791522
0.778394
0.791009
0.914566
0.881997
0.970812
0.9925
0.0140405
-0.00134283
-0.0233946
-0.0217112
-0.021952
0.48145
0.475007
0.503161
0.489338
0.492384
0.225558
0.075621
0.402341
0.426002
-0.319853
-0.370128
-0.457043
-0.45465
-0.56254
0.606718
0.636077
0.635854
-0.236677
-0.16421
-0.291973
-0.106154
-0.163582
0.495847
0.502108
0.498177
0.513575
0.507739
0.510165
0.522688
0.51987
0.521465
0.444214
0.578423
0.305716
0.279038
-0.277964
-0.174375
-0.258639
-0.100772
-0.0997053
0.0386053
0.0683964
0.0149571
0.00235402
-0.094123
-0.0896748
-0.092712
-0.0771238
-0.0767673
0.426129
0.413059
0.445959
0.453491
0.502419
0.5038
0.508659
0.506502
0.962744
0.985572
0.991532
0.96775
-3.53804
-6.16496
0.029693
0.188264
-0.00928313
-0.0106593
3.56537e-05
-0.00996168
-0.000669063
-0.00273983
-0.0309201
-0.0307909
-0.0246656
-0.025559
0.628226
0.629287
1.01124
1.03814
0.979362
0.958058
0.507163
0.509037
0.51366
0.510541
-0.0750247
-0.0732609
-0.0749772
0.635758
0.63884
0.636924
0.210446
0.121263
0.303572
0.334864
0.623949
0.612414
0.622466
0.705443
0.744037
1.00879
1.03297
1.01701
1.02957
1.0804
1.10331
1.06865
0.459982
0.470931
0.465186
0.506035
0.503848
0.504792
0.501384
0.502303
0.500957
-0.0355476
-0.406513
0.476005
0.477089
0.468752
0.471899
0.693631
0.777376
0.633186
0.634841
0.635655
-0.0544848
-0.101541
0.237251
0.208131
0.365073
0.399778
0.381545
0.937838
0.897796
0.946148
0.921373
0.886031
0.910777
-0.34255
-2.1023
-1.09921
0.586865
0.390692
0.482007
-0.0143994
-0.0306467
-0.027449
1.02772
1.06735
0.649506
0.836755
0.788364
0.767176
0.79383
0.85621
0.78882
0.823647
0.854416
0.830732
0.556299
0.48636
0.504389
0.852726
0.908434
0.0834608
0.00406625
-0.0189305
0.0930098
0.166308
0.132781
1.04452
0.961619
1.02411
0.516266
0.517218
-0.0180477
-0.041616
0.521337
0.521047
-0.0219833
-0.0121086
0.497783
-0.931079
0.0846819
0.510876
0.500486
0.517336
-0.104184
0.318415
-0.0868815
0.00796644
-0.0243974
0.512263
0.447062
0.404653
-0.00701627
-0.0309808
-0.0706931
-0.213575
0.514005
0.512363
0.516724
0.517541
0.518319
-0.0272269
-0.0269303
-0.0185576
-0.0647513
-0.0597214
-0.0695211
0.480581
0.500825
-0.19263
0.517018
0.519123
0.518818
0.513038
0.517966
0.516602
-0.0227162
-0.0265163
-0.0281328
0.19014
0.331692
0.680908
0.755542
0.630052
0.463643
0.172151
0.617934
0.669892
0.595165
0.72554
0.632591
0.631893
0.151509
0.0073247
0.155566
0.0886803
0.507708
0.50716
0.498008
0.494876
0.51217
0.509846
0.515044
0.512286
0.515459
0.516604
-0.059204
-0.0891514
-0.105011
-0.147849
0.2773
0.54357
0.22007
0.243469
0.150066
-0.0770967
-0.0800783
-0.0826978
-0.0878199
-0.0427952
-0.0434399
0.0013751
0.0114905
-0.00511878
-0.0308941
-0.0513018
-0.0445102
-0.0529931
0.505321
0.505888
0.50997
0.518199
0.456715
0.46042
0.426687
0.445447
0.431604
0.371547
0.401332
0.378471
-0.0181142
-0.00816542
-0.0101409
-0.0315483
-0.030733
-0.0518601
-0.0446409
-0.0427661
-0.0390782
-0.0441004
-0.065703
-0.07077
-0.177232
-0.296883
0.959764
0.906063
0.13447
0.503896
0.509568
0.506733
0.511478
0.514674
0.515301
0.512866
0.509354
0.500922
0.502463
0.49906
0.500206
-0.130737
-0.240816
-0.0717056
-0.148194
0.148245
0.614472
0.339051
0.283732
0.26898
0.49668
0.6959
0.604234
0.658821
0.634024
-0.39166
0.0084824
-0.325554
0.221052
0.214902
0.707805
0.749442
0.766909
0.723665
0.680094
-0.0231319
0.547997
-0.0760522
-0.0242807
0.167507
0.0490579
0.623493
0.619141
0.626448
0.626873
0.632946
0.626034
0.611012
0.60558
0.625224
0.629843
0.490424
0.21849
0.174989
0.129209
0.619858
0.513101
0.56242
0.482028
0.503389
0.505783
0.504749
0.485386
0.492758
0.48841
0.495657
0.499331
0.506658
0.506852
0.502659
0.504596
-0.0822437
-0.0906382
-0.0680963
-0.127602
-0.133141
-0.176375
-0.0871318
0.081431
0.0307101
0.226346
0.352032
0.0615742
-0.054986
-0.0381782
0.0135764
0.177064
0.177374
0.0449248
0.156593
0.111508
0.105413
0.195218
0.217393
-0.0556769
-0.0612101
-0.0612076
-0.066393
-0.0162604
0.102657
0.075643
-0.0314682
-0.0389894
-0.0759375
-0.073755
-0.00753083
-0.0450172
-0.0370329
-0.0115947
-0.0589725
-0.0337302
-0.0241856
-0.0308622
-0.0323551
-0.0316868
0.500099
0.50228
0.502191
0.510703
0.522907
0.538269
0.503919
0.477972
0.468985
0.472088
0.445024
0.454281
0.449495
0.465347
0.487064
0.49552
0.493625
0.496349
0.478286
0.479904
0.465335
0.47001
0.439043
0.420338
0.410081
-0.0556016
-0.0231908
-0.0365987
-0.0488587
-0.0238803
-0.0330825
-0.0323613
-0.0135133
-0.0329397
-0.0281876
-0.0378573
-0.0424457
-0.04326
-0.0795708
0.00199828
-0.180049
-0.229136
-0.282086
0.882565
1.02148
0.809921
0.58323
0.592012
0.831349
0.941091
0.547893
0.711747
0.763896
0.574222
0.864318
0.507843
0.507431
0.505294
0.504463
0.50546
-0.0185046
0.0854275
0.0959616
0.155949
0.272651
0.378178
0.310211
0.19707
0.329858
0.354101
0.611439
0.618698
0.578305
0.599729
0.599292
0.406564
0.486953
0.523936
0.482574
0.557168
0.588989
0.53548
0.578712
0.499593
0.449921
0.441127
0.39568
0.43054
0.411482
0.385749
0.499303
0.476053
0.487022
0.476884
0.49912
0.526506
0.524798
0.543483
0.564172
0.477883
0.423751
0.440994
0.469667
0.425435
0.443026
0.465066
0.184677
0.0873632
0.249872
-0.0775936
0.00764858
0.0476153
0.00458564
-0.0371339
0.269609
-0.367308
-0.313746
-0.989774
0.494128
0.836403
0.568995
0.580455
0.633009
0.622201
0.632265
0.637073
0.638158
0.607799
0.616131
0.621527
0.587263
0.607964
0.604886
0.611962
0.495542
0.395122
0.398201
0.329362
0.189628
0.231431
0.422123
0.354319
0.279631
0.271778
0.448179
0.31307
0.39267
0.442662
0.365723
0.301655
0.52822
0.576428
0.569139
0.539956
0.420589
0.453626
0.455412
0.505731
0.549133
0.574287
0.494201
0.500519
0.501427
0.498688
0.49705
0.500183
0.500463
0.502775
0.502931
0.505531
0.505017
-0.0800212
-0.064997
-0.0792909
-0.0875736
-0.0256308
-0.0334182
-0.0040996
-0.0284126
-0.0372637
-0.0327445
-0.049064
-0.0646898
-0.0632457
-0.0532659
0.0606357
0.0792042
0.0779787
0.039614
0.249758
0.393296
0.455276
0.339629
0.188986
0.193224
0.26976
0.0158299
0.00849591
-0.00615883
0.0629421
0.0496451
-0.0659248
-0.0704652
-0.0641723
-0.0532146
-0.0471865
-0.0641409
-0.0664214
-0.0563537
-0.0630254
-0.0683798
-0.0710577
0.479648
0.472551
0.476118
0.468532
0.466711
0.483671
0.488281
0.489324
0.494972
0.497681
0.48697
0.492939
0.497227
-0.0333758
-0.049762
-0.0500064
-0.051036
-0.0484748
-0.0461193
-0.0497749
0.123519
0.0286419
0.0644953
-0.00547358
-0.132128
-0.0728398
0.498999
0.493535
0.481695
0.719056
0.554386
0.473588
0.573197
0.693849
0.272114
0.472141
0.306851
0.886661
0.792823
0.938483
0.552305
0.251709
0.421295
0.429951
0.271947
0.395689
0.336356
0.212177
0.247458
0.282696
0.366224
0.252732
0.231961
-0.0106652
0.171008
0.280607
0.262756
0.389524
0.446328
0.261731
0.177421
0.123612
0.594041
0.610216
0.617264
0.589945
0.610034
0.572115
0.559594
0.574901
0.582439
0.579557
-0.624381
-0.212729
-1.41249
-0.827193
-0.375431
0.521774
0.523683
0.745774
0.648373
0.658999
0.640759
0.587269
0.560522
0.602097
0.614395
0.318227
0.403267
0.390328
0.366305
0.312191
0.254446
0.527268
0.536848
0.559626
0.586645
0.562242
0.590041
0.492966
0.492817
0.491474
0.487729
0.486235
0.489513
0.0142404
-0.0106655
0.023194
0.0128367
-0.00867946
-0.013722
-0.0392718
-0.050384
-0.0516305
-0.0485174
-0.0381798
-0.0364705
0.170196
0.108149
0.0187431
0.0605626
-0.0062878
-0.0887401
-0.0912016
5.86152e-05
0.100661
0.082195
0.387828
0.65725
0.48176
0.648757
0.445782
0.546482
0.463864
0.437018
0.464765
0.369215
0.459606
0.0534267
-0.148866
-0.203681
0.817603
0.778609
0.558506
0.316563
0.197501
0.488191
0.508911
0.468802
0.496102
0.545919
0.529219
0.0235103
0.109926
0.198326
0.503448
0.278395
0.296969
0.286871
0.453784
0.422273
)
;

boundaryField
{
    wall-4
    {
        type            zeroGradient;
    }
    velocity-inlet-5
    {
        type            zeroGradient;
    }
    velocity-inlet-6
    {
        type            zeroGradient;
    }
    pressure-outlet-7
    {
        type            fixedValue;
        value           uniform 0;
    }
    wall-8
    {
        type            zeroGradient;
    }
    frontAndBackPlanes
    {
        type            empty;
    }
}


// ************************************************************************* //
