/*--------------------------------*- C++ -*----------------------------------*\
  =========                 |
  \\      /  F ield         | OpenFOAM: The Open Source CFD Toolbox
   \\    /   O peration     | Website:  https://openfoam.org
    \\  /    A nd           | Version:  6
     \\/     M anipulation  |
\*---------------------------------------------------------------------------*/
FoamFile
{
    version     2.0;
    format      ascii;
    class       surfaceScalarField;
    location    "75";
    object      phi;
}
// * * * * * * * * * * * * * * * * * * * * * * * * * * * * * * * * * * * * * //

dimensions      [0 3 -1 0 0 0 0];

internalField   nonuniform List<scalar> 
1300
(
3.75095
5.62643
-3.33166
3.75095
-7.76387
5.62643
-4.27579
4.27579
-0.37675
0.37675
1.87649
1.87446
-2.42922
2.42922
-1.75882
1.75882
-2.52181
2.52181
-5.24795
5.24795
-5.0691
5.0691
4.69845
-4.69845
-6.33815
6.33815
-0.958215
0.958215
-3.57671
3.57671
3.17244
-3.17244
-1.87745
1.87745
0.0709544
-0.0709544
-0.554081
4.30503
3.19687
3.19687
-1.98866
1.98866
-4.87444
4.87444
6.22198
-6.22198
5.2465
-5.2465
-1.91485
-2.50096
1.79898
-11.4837
-5.96488
-5.96488
-8.44102
8.44102
-2.81459
2.81184
2.9473
-2.9473
-1.72447
1.72447
-4.29294
0.0171525
-4.29294
4.2459
0.0298893
4.2459
-0.489498
0.112748
-0.489498
3.9529
-3.9529
0.282756
0.0939937
0.282756
3.06731
-3.06731
-1.87685
3.75335
1.8741
-1.8721
6.17713
-1.87886
3.75332
-6.07653
6.07653
-2.67662
0.247394
-2.67662
2.19801
0.231216
2.19801
-6.89097
6.89097
-1.79063
0.0318099
-1.79063
1.75715
0.00166711
1.75715
2.88852
-2.88852
-2.6271
0.105287
-2.6271
2.38832
0.133498
2.38832
0.35347
5.27296
-5.9799
8.79174
-5.27296
0.0250082
5.21031
0.0376401
5.21031
-5.10542
0.0363211
-5.10542
5.01384
0.0552578
5.01384
4.78729
-0.088836
4.78729
-4.81836
0.119909
-4.81836
-3.36085
-4.07469
-6.49728
0.159129
-6.49728
-1.02731
0.0690979
-1.02731
0.857896
0.10032
0.857896
-3.72628
3.72628
-3.93367
0.35696
-3.93367
3.12741
0.0450283
3.12741
1.86812
1.88283
5.61907
-5.61907
2.44663
-1.81227
-0.0651806
-1.81227
-1.95625
-3.29025
1.95625
-0.0787999
-0.146878
0.217833
-0.146878
3.15713
0.039747
3.15713
2.23269
0.155624
-2.23269
0.244034
3.30191
-3.30191
1.31992
0.668738
1.31992
-5.55889
5.55889
4.96201
0.0518352
-4.96201
0.0875652
6.15712
0.0648579
6.15712
-6.20742
-0.0145526
-6.20742
2.48641
-4.98737
-2.65759
6.15198
0.186172
-6.15198
0.187098
2.9189
0.0284013
2.9189
-2.91878
2.91878
-2.98426
0.0369662
-2.98426
-2.14669
0.422218
-2.14669
1.41062
0.31385
1.41062
-4.20895
-0.0839934
-4.20895
-4.09154
0.157872
4.09154
0.154361
1.11899
-1.11899
-0.603705
0.114207
-0.603705
-4.05777
-0.15118
4.05777
-0.104864
-3.89233
-0.0605684
-3.89233
-3.02194
0.0376731
3.02194
0.0453755
3.11212
0.0450053
-3.11212
0.0448088
-1.87099
3.75382
-1.87996
3.75406
-5.69653
-0.380008
-5.69653
6.36149
-0.28496
6.36149
3.10138
0.475323
-3.10138
0.424766
2.01297
0.185033
2.01297
-6.8641
-0.0268685
-6.8641
6.89696
-0.00598566
6.89696
1.87868
0.13429
-1.87868
0.0880522
1.76684
-0.00968475
1.76684
2.91627
-0.0277464
2.91627
-2.8821
-0.00642563
-2.8821
2.7906
-2.7906
2.7168
0.0738024
-2.7168
0.0896957
-11.1242
11.1096
-0.0362142
-11.088
5.1741
5.1741
4.24138
0.54591
4.24138
-5.01506
0.196703
-5.01506
2.66667
-5.32426
3.10564
-6.46649
4.67304
-16.1568
4.29237
-8.36706
6.74621
-6.74621
6.62842
0.117785
-6.62842
0.131143
-1.13903
0.11172
-1.13903
-3.12601
-0.600271
-3.12601
4.36679
-0.640513
4.36679
-3.02761
3.02761
-3.07636
0.0487499
3.07636
0.051052
1.77919
-0.0123518
-1.77919
-0.0330787
0.193139
0.0896166
-0.193139
0.046261
3.52472
-0.22281
3.52472
-3.09745
-0.204458
-3.09745
-1.23192
0.092883
1.23192
0.0880033
-5.80711
0.248224
-5.80711
-11.1815
0.0935141
-11.1439
-6.11391
-6.11391
2.32711
11.1188
-2.89732
0.0152203
2.89732
0.021579
2.97502
0.052592
-2.97502
0.0562382
-2.85731
0.0667096
2.85731
0.0614699
-2.51448
0.367795
-2.51448
-1.02624
1.02624
-1.17375
0.147512
1.17375
0.236866
1.41936
-0.300376
1.41936
0.739092
0.118804
-0.739092
0.135387
-3.83791
-0.0544244
-3.83791
6.59877
-0.237271
6.59877
-2.96808
-0.12937
2.96808
-0.0518108
-0.0348675
11.1445
-5.13923
0.0338071
5.13923
-11.2094
11.2432
-3.2198
0.705316
3.2198
1.02158
5.28471
0.274174
-5.28471
0.269649
6.83704
0.0599232
-6.83704
0.0908263
-2.63569
-0.490322
-2.63569
-5.10529
-0.59124
5.10529
-0.738494
-11.4815
-0.203224
11.6848
-11.4263
6.01033
0.146786
-6.01033
11.39
-0.996221
-0.122766
0.996221
0.0300196
1.75848
-0.33912
1.75848
3.74239
-0.21767
-3.74239
-0.0955236
-6.7546
-0.109507
6.7546
-0.155831
-2.18683
-0.448853
2.18683
-0.42835
-4.26739
4.30714
1.90974
-2.33117
-2.6562
-5.62142
1.85526
1.89856
4.30189
-10.1535
-6.00332
-9.96635
7.21482
-6.94517
-9.32485
9.23601
7.93528
-7.99585
-5.77739
5.82844
6.48471
-6.43933
1.87946
1.87389
8.06985
-7.82246
-15.6744
15.2944
7.59722
-7.56541
15.8248
-15.8516
-17.8638
17.9237
-5.70122
5.8065
-6.74311
6.73668
-6.98002
6.92821
-2.79959
-3.66691
13.1204
-12.9613
8.59549
-8.66067
-8.6756
9.03256
3.38462
0.922519
3.42962
-1.88179
3.76124
-1.87153
3.78127
2.75754
-5.55712
2.56673
-5.22293
4.37793
4.21757
-4.29913
-1.32229
-5.92878
5.95719
-5.80897
5.87044
9.17873
-9.16158
-1.88499
3.75888
-1.86907
3.76764
-3.42299
-2.3544
3.37796
0.923937
8.06939
5.05102
-8.25557
-1.71079
-8.02857
7.8109
-8.21745
8.01299
-0.436499
5.8379
-5.4014
4.43795
-1.65379
7.49168
5.56103
5.75773
5.86065
-5.58648
1.08451
-6.48591
-6.39835
-2.26417
2.37837
2.15366
-2.05966
6.14748
1.7878
6.04262
-5.80886
-2.18699
-5.86328
3.81978
2.00866
3.86853
4.08216
2.40254
4.11984
3.02958
-3.03676
0.00717193
-3.05929
6.08888
0.722123
-5.4137
-4.48976
4.99372
3.07614
5.22493
-5.59393
-2.22853
-5.16916
-9.59816
-6.07622
-10.1894
10.0866
5.20778
9.80163
-11.953
11.7972
4.85748
2.73974
4.85915
-4.97857
-2.58684
-4.89052
11.6842
-2.65535
-9.02882
-10.3296
-7.53417
10.3356
5.48914
10.9713
6.95243
11.0621
4.42649
7.25768
-9.91563
2.38146
-3.86488
-1.83633
-3.77519
3.66284
2.14366
3.79634
-4.2189
-2.52421
-4.20368
-4.29539
-2.68463
4.32313
2.41355
-4.41733
-3.80012
4.5467
2.38151
4.05395
-10.0573
4.31311
-7.98002
-9.20171
-3.75957
-9.07057
3.5566
2.6022
-6.1588
-2.00052
8.54575
-4.32818
7.22346
-5.19444
-3.46623
-5.22752
-6.96481
-1.71078
-6.80694
-8.92348
8.43316
-9.20579
8.56528
12.5181
-5.6374
-6.88074
-3.96702
-2.47231
3.92221
-0.492587
-3.71003
3.7172
0.0512157
3.83249
4.75501
4.26242
-3.88216
-1.92681
-3.82592
3.82153
2.0489
3.88824
6.84914
2.32959
6.87903
-6.61429
-2.54729
-6.69828
9.0994
-8.67718
2.79724
-2.70436
5.37781
2.63518
-5.155
-2.87357
6.24174
-3.21459
-3.02715
-12.3469
10.7938
1.5531
-4.85525
-0.417309
-0.488264
-5.56892
-3.75592
5.44902
0.308717
11.1026
7.34663
-5.51511
5.76333
6.16966
6.2215
-0.176851
5.88865
-5.18334
5.26965
-2.72541
-2.54425
5.47905
-5.63023
-1.21924
-5.55128
4.33204
0.412391
1.49484
-1.27701
-1.77303
-0.491136
-1.63764
1.18522
0.968436
1.27484
0.955939
1.42244
-2.92045
0.52448
2.39597
-1.96451
-1.53518
-3.8155
-1.1547
4.9702
5.73352
2.07737
-5.638
-0.22528
2.55745
-2.45713
-0.834284
-2.98121
2.23197
-3.06626
-3.46854
-1.94252
5.41105
-3.36861
-0.457311
3.31602
0.552513
-3.82819
-2.10059
3.79123
0.328613
-3.12899
6.19025
-3.06127
-5.0558
2.52895
3.55993
4.53761
-4.78995
2.44923
2.34072
-1.23002
4.25803
0.966903
4.44306
-7.05838
4.82985
5.7377
3.29486
-6.21302
1.04386
-6.01452
8.56387
-7.42044
-1.14343
4.11282
4.45105
7.04236
5.47577
-5.69778
12.7401
-1.169
-6.25144
7.18352
-3.88866
4.86744
-8.7561
-10.3432
4.09177
-9.20505
11.0759
-1.87083
-3.60209
-8.35094
12.8071
-1.21342
-11.5937
8.58821
-4.35056
-4.40683
8.75739
-7.00591
6.99367
-1.98849
-5.00518
-10.1481
-5.70351
10.2576
1.53957
-9.95367
12.3351
-2.69599
4.16068
0.698475
4.15099
3.3633
-5.48019
2.11688
3.64261
-5.6311
2.05136
-7.53155
-6.75252
12.0949
-5.34234
-10.5121
-9.54296
-0.969127
2.54838
9.78674
-9.50081
7.43362
2.0672
3.29782
0.590428
-3.37162
-0.403568
0.233667
4.51311
-4.74678
4.03001
4.18563
3.22151
1.2916
3.84946
2.10772
-3.87104
-0.332632
-4.1686
1.48397
-1.75505
-3.69415
5.17812
-4.06182
0.367674
-2.74414
-3.49309
6.23723
-4.58047
3.03584
3.15441
5.08474
-4.91516
1.42206
-2.39071
-2.52444
2.63976
-4.39481
2.001
3.17712
4.38251
0.582391
5.90731
6.18755
-8.50951
0.529483
11.2386
-9.52778
2.4783
8.58383
-9.91192
0.368955
-8.70161
0.979514
-5.3077
-5.17928
5.22168
-6.93247
-3.53442
6.2504
0.628633
-6.40476
-0.402182
-6.06541
-2.85807
-6.51426
-3.04721
-6.15858
-8.74498
-1.67431
-7.07068
6.75885
-6.6946
-3.4948
7.43309
1.13218
-7.47877
7.356
-7.53708
7.19796
0.0949814
3.62222
4.3574
1.88509
-2.3922
4.27728
-5.07392
7.40351
-8.7473
3.67338
4.24029
-6.78759
-4.507
5.0579
4.04149
5.37175
8.91809
-10.3685
1.45044
-10.6434
11.9838
-1.34046
-16.4211
5.7777
-7.50299
2.41172
0.38552
2.52344
0.552603
2.48897
-3.04158
-2.15176
-2.06375
-2.44555
-3.49576
5.94132
1.06645
-3.4767
2.41025
-3.57234
4.63879
-0.0770902
-3.39961
5.17714
-2.68816
5.56266
-3.64943
1.91322
3.55357
5.84516
-2.29159
4.42144
-1.78627
1.94789
-4.23948
-1.54788
-2.9532
5.09686
-3.28403
3.65171
-0.350082
4.00179
-4.04609
0.831504
-0.824576
3.36105
3.60509
4.33091
-3.03931
2.93572
-4.72199
-1.30376
-4.1396
-0.962479
-0.18263
-3.78239
3.96502
6.00101
-6.18364
-5.28027
9.52163
-4.24136
7.701
-5.43788
-2.26311
-4.29007
-4.38711
3.92227
1.96638
9.66738
0.179346
-5.61723
-5.00399
-3.98241
3.08676
2.18289
-1.73267
3.28578
2.22094
-0.726095
0.391099
0.883739
1.76079
-1.36969
0.347009
1.41378
-0.93
1.69494
0.86251
-1.81374
0.176098
-1.31178
3.54375
1.08418
-2.05262
0.68293
0.888297
-3.61371
5.09279
-2.7338
-2.35899
5.98108
1.1446
-3.8784
4.40667
-3.99428
2.4475
-3.6022
-1.4309
-5.42519
-3.63739
-2.48645
4.8967
-3.45487
5.53224
1.42817
-5.30696
6.73513
-3.62824
1.68572
-3.05919
3.9217
-1.01055
-2.04864
2.87658
2.53447
-3.1382
0.156984
-0.261619
2.41807
-2.67969
-0.648184
-2.61269
-4.57611
4.90473
-2.10371
4.55294
2.17357
-1.91774
6.47068
1.80757
-3.72531
-3.24822
-3.70553
-1.38459
3.15302
-0.580999
-4.30952
-5.58618
4.17523
0.267831
-7.07516
7.93119
-0.856027
-3.99902
-0.830829
4.94365
-6.09691
0.465814
-4.04555
3.88563
4.85254
5.12037
-11.359
-0.234726
-6.15121
1.09843
-7.24965
5.54948
-3.57024
7.66201
-10.3021
6.80728
-9.1699
6.51858
-0.731062
6.24964
-4.13276
2.77918
-8.48269
-6.94312
5.57967
-2.83993
6.27815
-3.22147
9.49962
-5.91746
5.37411
4.12551
-1.0634
-4.16412
-5.34863
4.28522
0.0254789
4.17647
4.98725
-2.87953
4.65462
2.26441
-4.65512
-2.13041
-6.48843
1.83331
-3.33402
-1.92267
3.75598
3.16207
3.7525
1.23154
-3.34893
7.24619
-8.21531
-1.90385
-3.27544
5.32226
-1.03703
3.45167
-6.72711
-1.85603
4.74487
-0.725954
-4.01892
0.892526
-4.42694
1.67262
-6.09956
5.25985
-5.66203
2.25448
-9.75748
-5.22428
-5.19426
-2.27881
-5.25827
-7.57506
5.29624
-1.79736
5.55864
-8.51222
7.78627
-3.47163
8.76787
-5.46112
-1.05315
5.88947
1.30849
10.0764
0.163697
-4.6707
-1.9416
3.73112
-1.78952
1.14516
-3.61869
0.112433
2.49001
3.49108
-6.82205
0.0344649
-4.63624
-3.90949
7.95099
5.61213
11.6131
1.24462
9.13667
-1.18568
10.3813
4.18607
4.42294
-3.00614
4.45657
0.958878
4.63225
-0.900234
2.81346
1.62321
1.69231
0.76482
2.29914
1.30595
3.13064
0.0890626
-1.97469
4.63264
-8.61506
-0.984584
-8.06915
1.16687
5.42917
-4.26231
2.86929
-0.686398
1.07977
-0.18545
-1.18218
1.36763
-2.7297
-1.90828
-0.494495
-1.66085
2.34378
1.8829
-1.84929
-0.88041
0.330313
-3.9677
3.27189
-3.11491
-0.580434
6.15469
-2.88963
0.209934
-1.2039
-2.40276
-2.89389
2.7178
6.17434
0.296338
3.11307
5.20106
3.10047
0.220944
3.80854
-5.67937
-3.72301
-5.91409
-0.364611
4.57903
1.76326
8.02348
5.88877
4.85174
-1.87537
-10.0907
6.50547
-2.04889
5.165
-1.14608
-4.95348
5.07434
2.32917
-5.70298
0.0409421
-4.91253
-6.96143
-0.480656
8.26692
-9.59571
8.54256
5.68449
1.38619
-4.43669
-0.757577
4.28917
0.133764
10.5151
-0.911708
-7.05133
7.96304
-4.51747
3.53288
0.674791
2.61099
2.04242
1.35602
-5.69531
-9.95761
-2.06932
-1.54438
-4.42831
0.541893
-2.42479
6.06987
-2.53699
3.80675
5.42605
6.50582
-2.04758
-4.13606
6.28894
-2.48219
4.02363
)
;

boundaryField
{
    wall-4
    {
        type            calculated;
        value           uniform 0;
    }
    velocity-inlet-5
    {
        type            calculated;
        value           uniform -3.75095;
    }
    velocity-inlet-6
    {
        type            calculated;
        value           uniform -5.62643;
    }
    pressure-outlet-7
    {
        type            calculated;
        value           nonuniform List<scalar> 8(3.33166 7.76387 4.41581 9.68475 7.43554 5.144 5.77231 8.96541);
    }
    wall-8
    {
        type            calculated;
        value           uniform 0;
    }
    frontAndBackPlanes
    {
        type            empty;
        value           nonuniform 0();
    }
}


// ************************************************************************* //
