/*--------------------------------*- C++ -*----------------------------------*\
  =========                 |
  \\      /  F ield         | OpenFOAM: The Open Source CFD Toolbox
   \\    /   O peration     | Website:  https://openfoam.org
    \\  /    A nd           | Version:  6
     \\/     M anipulation  |
\*---------------------------------------------------------------------------*/
FoamFile
{
    version     2.0;
    format      ascii;
    class       volVectorField;
    location    "75";
    object      U;
}
// * * * * * * * * * * * * * * * * * * * * * * * * * * * * * * * * * * * * * //

dimensions      [0 1 -1 0 0 0 0];

internalField   nonuniform List<vector> 
918
(
(0.985049 -0.000715515 0)
(0.00534345 2.96624 0)
(-0.00271788 0.879984 0)
(0.979575 0.00196166 0)
(-0.0139633 2.06592 3.27031e-20)
(-0.00709964 2.94855 -2.58058e-18)
(0.819122 1.12114 4.42563e-19)
(0.112798 0.0733367 -1.41474e-20)
(0.999922 -0.000244555 0)
(0.090238 0.665158 0)
(0.00918795 0.378847 0)
(0.732951 -2.17487e-05 0)
(0.0102169 2.93156 0)
(0.00337951 2.79436 0)
(-0.00237436 3.17888 8.22471e-19)
(-0.013563 1.9281 2.11918e-20)
(0.294437 0.0408714 9.88685e-19)
(0.23311 1.10878 3.51678e-19)
(0.964337 0.00674419 0)
(-0.000292907 0.38827 0)
(0.0300817 0.00474492 -6.5642e-19)
(1.00183 -0.00455957 0)
(0.999851 -0.00892612 0)
(0.975168 -0.00605161 0)
(0.593578 0.0256191 0)
(0.021141 2.64426 0)
(-0.0123498 2.91191 9.45257e-19)
(-0.00582757 0.932859 0)
(-0.031872 1.16996 0)
(-0.00373505 0.902402 0)
(-0.022782 2.59011 0)
(-0.00490971 2.11635 -2.61216e-20)
(-0.00991326 1.9014 0)
(-0.0221401 2.98761 -9.30376e-23)
(-0.0164853 3.0055 2.00497e-18)
(0.00231212 3.00058 0)
(0.871972 -0.00975904 0)
(0.375198 0.914156 1.6774e-19)
(0.817946 1.13971 -5.51509e-19)
(0.950304 1.00607 5.63534e-19)
(0.680691 1.22252 -1.01356e-19)
(0.694177 1.18292 5.7842e-19)
(0.141948 0.12961 1.38004e-20)
(0.146164 0.0794535 0)
(1.16634 0.532407 0)
(0.113054 0.10682 6.23512e-20)
(0.0883798 0.058138 -6.47055e-20)
(0.920563 -0.00704841 0)
(1.00027 5.66079e-05 0)
(0.999907 0.000320728 0)
(1.0037 -0.00728005 0)
(1.00088 -0.000947803 0)
(1.00011 -5.57574e-06 0)
(0.0919849 1.84625 -7.3184e-19)
(0.0326897 0.852574 0)
(0.128084 0.754046 0)
(0.0172379 0.79504 0)
(0.052519 0.582017 0)
(0.00435045 2.03173 0)
(-0.00795258 0.706822 0)
(0.0052505 0.395909 0)
(-0.0129427 0.704771 0)
(0.0170639 0.373118 0)
(0.843725 -0.0156069 0)
(0.839182 0.0314665 0)
(0.760608 -0.00380227 0)
(0.800981 0.0284848 0)
(0.701389 0.0175112 0)
(0.0139493 3.00021 9.57928e-19)
(0.0111706 3.00605 0)
(0.00623622 3.00386 0)
(0.01188 2.99714 1.08827e-23)
(0.00826986 2.95871 -1.42372e-18)
(0.0121921 2.98284 0)
(0.00901541 2.90487 0)
(0.0210745 2.93137 2.21033e-24)
(0.00412762 2.82436 0)
(0.0261542 2.91886 0)
(-0.000654389 2.74529 0)
(0.305576 3.5737 0)
(-0.122252 3.65642 0)
(0.149092 3.26963 -7.65454e-19)
(0.0031032 3.00729 0)
(-0.0303167 1.98984 0)
(-0.0070789 2.17934 -2.0901e-20)
(-0.0094463 1.93991 2.12449e-20)
(0.347226 0.139542 -3.43242e-19)
(0.31773 0.0121651 -3.34231e-19)
(0.302725 0.153564 -1.02667e-18)
(0.260871 0.0615157 -6.67541e-19)
(0.262965 1.02352 0)
(0.332112 1.23974 -3.63544e-19)
(0.413633 1.15079 5.99976e-19)
(0.987717 0.00815849 0)
(0.943234 0.00578186 0)
(1.00028 0.000672009 0)
(1.00254 0.00906646 0)
(1.00311 0.00899226 -2.64825e-18)
(0.992135 0.00941901 2.00113e-18)
(-0.0212361 0.731031 0)
(0.00126266 0.393589 0)
(-0.0521286 1.01823 0)
(-0.0319578 0.78713 0)
(-0.0111699 0.389466 0)
(-0.0558631 0.0989667 2.0389e-19)
(0.0436672 0.0533136 0)
(0.993626 -0.00769219 0)
(0.954053 -0.00648429 0)
(0.740748 0.0282418 0)
(0.673571 0.0259128 0)
(0.661285 0.018207 0)
(0.980255 -0.00271722 0)
(0.586283 0.064433 0)
(0.448299 -0.0168026 1.50623e-18)
(-0.0407171 2.86027 7.42489e-19)
(0.0335979 2.91449 0)
(0.0427002 2.89257 0)
(0.00300389 2.70226 0)
(-0.00867218 2.9863 9.04382e-19)
(-0.0141028 2.8946 0)
(-0.0110953 2.99157 -2.78488e-18)
(-0.0116215 2.92946 9.48445e-19)
(-0.0460088 1.34636 0)
(-0.0160595 1.37492 0)
(-0.00765469 2.14112 7.69391e-22)
(-0.00771352 2.1005 0)
(-0.0170984 1.91218 0)
(0.938914 -0.00519114 0)
(0.857337 -0.0111562 0)
(0.86317 0.00469188 0)
(0.949694 -0.00613224 0)
(0.883702 -0.00809463 0)
(0.498619 1.11404 -2.12799e-19)
(0.545897 1.18383 0)
(0.337233 0.8489 3.23698e-20)
(0.281752 0.713484 0)
(0.919027 1.03572 -1.59068e-19)
(1.04199 0.846305 3.203e-19)
(0.392186 1.31833 0)
(0.543207 1.27367 0)
(0.597257 1.20044 0)
(0.104042 0.181765 -3.01137e-19)
(0.169574 0.14403 0)
(0.170323 0.0946496 1.85383e-19)
(1.00514 0.900319 0)
(1.0811 0.748757 0)
(1.11068 0.684036 -2.56452e-19)
(1.14722 0.594912 0)
(1.20328 0.391458 4.72471e-20)
(0.957521 -0.0070917 0)
(0.962739 -0.00810725 0)
(0.900933 -0.00737423 0)
(0.983933 -0.00812158 0)
(0.974434 -0.00802992 0)
(0.936553 -0.00656899 0)
(1.0002 0.00250592 0)
(1.00077 0.00123962 0)
(1 0.000761204 0)
(0.0442766 2.08823 4.0796e-19)
(0.145326 1.78945 0)
(0.0191639 2.20326 6.17477e-19)
(0.0520474 1.89513 -5.16273e-19)
(0.167248 1.08457 -2.88598e-19)
(0.0493413 0.938309 0)
(0.12195 0.939005 0)
(0.00774895 0.75847 0)
(0.0288726 0.505868 0)
(-0.00317138 2.25876 -3.80811e-22)
(0.0199871 2.03712 0)
(-0.00499315 2.2593 -7.54407e-21)
(0.00249248 2.04342 2.28809e-21)
(-0.00186891 0.731184 0)
(-0.00650587 0.713263 0)
(0.0108733 0.441828 0)
(-0.0150585 0.705465 0)
(0.00600282 0.376039 0)
(0.939592 0.0138791 0)
(0.856539 -0.0115602 0)
(0.928728 0.00489734 0)
(0.846319 -0.0127793 0)
(0.810558 -0.000835461 0)
(0.898301 0.0219537 0)
(0.872444 0.0275786 0)
(0.785379 -0.00286743 0)
(0.0103003 3.06722 -8.91725e-21)
(0.015196 3.05909 0)
(0.0123188 2.97034 0)
(0.00755669 2.87659 0)
(0.89518 3.96735 0)
(1.18905 3.36375 9.35318e-19)
(0.0807229 3.08991 0)
(-0.0177079 2.91789 0)
(-0.0164721 1.40146 0)
(-0.0357936 1.69777 0)
(-0.0246563 1.53341 0)
(-0.0331021 2.55064 -1.44646e-20)
(-0.0180502 2.24618 0)
(-0.0226821 2.39077 0)
(-0.00081341 1.96906 6.25912e-23)
(-0.00509725 2.25297 -2.68838e-20)
(-0.00613329 2.21682 -2.18006e-20)
(-0.00582662 1.95304 0)
(0.389834 0.116208 5.27467e-19)
(0.3593 0.00309261 -5.17629e-19)
(0.23311 1.59113 0)
(0.28856 0.76732 -3.25182e-19)
(0.182556 1.68946 -1.06717e-18)
(0.246266 1.22566 1.0685e-18)
(0.901657 0.0058138 0)
(0.967023 0.0107081 0)
(0.974883 0.00986499 0)
(0.922974 0.00585116 0)
(-0.0197197 0.714128 0)
(-0.0237868 0.722397 0)
(0.000908473 0.383758 0)
(0.0863173 0.094553 5.73272e-19)
(0.0716948 0.0743958 -6.76502e-19)
(0.0499729 0.0475662 0)
(1.10774 0.0906648 2.42414e-20)
(1.09143 0.0426957 0)
(1.0192 0.0438097 0)
(0.914188 -0.00139689 0)
(0.439551 0.0982992 0)
(0.498459 0.0753319 -2.40882e-18)
(0.397872 -0.000293696 9.02357e-19)
(0.0105841 2.97699 7.86935e-19)
(-0.0332224 2.86124 4.56824e-20)
(0.00811576 3.0534 -1.88175e-20)
(0.0158135 3.04312 7.0438e-19)
(-0.0118748 3.00004 3.11874e-20)
(-0.0122659 2.95231 -1.25774e-22)
(-0.0150525 3.01327 -5.8244e-19)
(0.0145627 3.02637 4.11551e-19)
(0.00761861 3.0351 -6.69111e-19)
(0.934784 0.00215986 0)
(0.939554 -0.00109773 0)
(0.848227 -0.0111815 0)
(0.956264 0.0119255 0)
(0.942252 0.0135599 0)
(0.881614 0.0052182 0)
(0.915588 0.0181744 0)
(0.925008 0.0155328 0)
(0.837321 0.001402 0)
(0.671213 1.41228 1.27162e-20)
(0.689209 1.52272 0)
(0.118536 0.291515 6.83483e-20)
(0.213624 0.654437 5.40004e-19)
(0.240358 0.693017 -3.16793e-19)
(0.214613 0.495124 6.28942e-19)
(0.340638 0.833202 1.59279e-18)
(0.13565 0.23733 3.81869e-19)
(0.257598 0.168342 7.07853e-19)
(0.210784 0.1641 1.82638e-19)
(0.219012 0.0844552 3.47725e-19)
(1.19464 0.447147 9.33959e-20)
(1.21963 0.246344 9.07431e-20)
(0.00886615 2.24649 2.39982e-19)
(0.0390021 1.95814 0)
(0.973177 0.0331261 0)
(0.946966 0.0192929 0)
(0.871418 -0.0151247 0)
(0.0123501 3.0748 0)
(0.0168347 2.94401 1.24545e-18)
(0.0139617 2.95692 0)
(0.00584739 2.84997 -1.23603e-18)
(0.00912659 3.09016 3.04234e-19)
(0.0118441 3.08306 0)
(0.708848 1.81864 -1.69632e-19)
(1.23344 2.6231 5.73732e-19)
(0.693603 1.9966 -1.3907e-18)
(0.0221637 2.9762 -6.84642e-19)
(0.0402264 2.9981 0)
(-0.0383417 2.87877 0)
(-0.00631105 2.2382 -1.28937e-20)
(-0.00482316 2.25841 5.23449e-20)
(-0.000560501 2.00493 -7.00309e-21)
(0.268523 1.40302 1.03299e-18)
(0.287505 0.571072 -7.08851e-19)
(0.070673 2.0066 7.47065e-19)
(0.124145 1.87884 -8.98217e-19)
(0.206459 1.54219 1.0198e-19)
(0.00577 3.1204 -1.69233e-18)
(0.0130398 3.12075 1.86269e-18)
(-0.00523862 2.98062 8.46143e-19)
(-0.00158275 2.97514 -8.11014e-19)
(-0.0175931 2.87718 -8.61832e-19)
(0.012085 3.10067 -2.26052e-18)
(0.00565244 3.10522 2.29293e-18)
(0.267861 0.699747 0)
(0.219013 0.660207 -1.15248e-18)
(0.0745754 0.212529 5.07116e-19)
(0.346927 0.953238 1.12958e-18)
(0.200073 0.281805 -1.73982e-18)
(1.19857 0.176317 4.8779e-20)
(1.2163 0.305697 0)
(1.19406 0.121447 8.39479e-21)
(-0.000617737 2.26646 -1.18027e-21)
(0.00384513 2.25065 0)
(0.0320576 1.99425 0)
(0.313052 1.31874 -3.70911e-19)
(0.354072 1.17923 -8.04117e-19)
(0.233549 0.393023 1.43888e-18)
(1.00644 -0.00967985 0)
(1.00774 -0.00778253 4.86764e-19)
(-0.0404544 1.32877 0)
(-0.0490613 1.33347 0)
(1.00244 0.00327206 1.33908e-21)
(1.0032 0.00781397 9.99291e-19)
(-0.0242417 2.53704 1.83284e-20)
(-0.0272752 2.57949 0)
(0.0402045 3.17252 4.86135e-19)
(0.373696 3.53987 0)
(1.15867 0.693547 -5.13345e-20)
(1.01179 0.0106424 -2.84057e-21)
(1.02087 -0.00899574 0)
(1.00158 0.000286419 1.56999e-22)
(0.117847 1.37593 0)
(0.13568 2.5849 0)
(0.0249228 1.32856 0)
(-0.000135113 2.63395 -5.18075e-21)
(-0.022036 2.58129 -1.04901e-20)
(0.997064 0.0323016 2.45106e-21)
(1.06308 0.00593353 0)
(1.10022 0.0285797 0)
(-0.0340888 1.74521 0)
(-0.0192098 2.58055 0)
(-0.0147704 1.32034 0)
(0.30889 1.49005 -1.71252e-19)
(1.01152 -0.0090532 0)
(1.00971 -0.0129835 0)
(1.00227 0.000939088 6.23427e-19)
(1.00548 -0.00490984 -7.349e-19)
(1.00113 -0.000860935 0)
(-0.0226766 1.46794 0)
(-0.0115147 1.38912 0)
(-0.0176451 1.42932 0)
(-0.0175211 1.30701 0)
(-0.0297008 1.29725 0)
(-0.0235962 1.27635 0)
(1.03569 -0.0042903 0)
(1.01886 0.0153564 -9.62251e-22)
(0.812215 1.3116 2.7873e-19)
(1.00244 0.000388885 -6.2301e-19)
(1.00338 0.0044486 7.43645e-19)
(1.00126 0.00209479 0)
(1.01108 0.009635 6.20613e-19)
(1.00684 0.00745312 -7.55309e-19)
(1.00713 0.0111146 0)
(-0.0240953 2.60794 0)
(-0.0273504 2.58739 -3.09938e-20)
(-0.0241957 2.60136 2.18242e-20)
(1.24254 0.273649 5.27331e-19)
(1.16375 0.089162 0)
(0.0438614 3.09104 -9.67088e-19)
(0.0519383 2.87362 -6.84368e-20)
(0.103075 3.20169 1.29341e-18)
(0.121289 3.21374 -2.76718e-19)
(0.140865 3.25677 0)
(0.0228981 3.13784 2.66033e-19)
(0.061237 3.16186 9.63369e-19)
(0.0614187 3.17884 -4.97572e-19)
(0.027348 3.12933 0)
(0.558427 0.290897 0)
(0.503503 0.307796 0)
(1.14108 0.724941 1.15319e-19)
(1.10616 0.861039 -9.84404e-20)
(1.19866 0.61119 0)
(1.22583 0.545031 0)
(1.01569 0.0120274 -1.15293e-18)
(1.01467 0.0127517 1.44965e-18)
(1.02576 -0.00872296 0)
(1.02409 -0.0102902 0)
(1.00679 0.00323598 0)
(1.01088 0.00421434 0)
(1.00421 0.00221647 0)
(1.00936 0.00635058 0)
(1.00684 0.00504367 0)
(1.00439 0.00526447 0)
(0.10888 1.37547 0)
(0.0959157 1.33394 0)
(0.139392 1.42051 0)
(0.14806 1.40462 0)
(0.142809 2.61224 0)
(0.185969 2.68373 -4.15526e-19)
(0.105071 2.67026 0)
(0.0827913 2.66913 1.66113e-19)
(0.0261834 2.67461 -1.61679e-19)
(0.015929 1.32898 0)
(0.0237105 1.25492 0)
(0.0283204 1.34204 0)
(0.0423998 1.27811 0)
(-0.00196824 1.99621 3.83684e-20)
(-0.0217925 2.60954 -4.01954e-20)
(-0.00649982 2.67621 -3.23872e-20)
(-0.0190432 2.68818 0)
(-0.0239854 2.61553 3.28117e-20)
(-0.0226173 2.61095 3.96782e-20)
(0.00501085 1.993 -2.91878e-20)
(-0.0103895 2.40138 5.3924e-20)
(-0.0150266 2.42601 3.67138e-20)
(1.01194 0.0398496 1.17145e-18)
(1.0034 0.0200093 -1.45736e-18)
(1.00322 0.0472928 -1.19311e-18)
(0.975523 0.0372746 1.50181e-18)
(1.06473 0.0092591 0)
(1.04993 -0.00642625 0)
(1.09274 0.0377022 0)
(1.07592 0.0150569 0)
(1.07467 0.000569237 0)
(1.1415 0.0797242 0)
(1.11584 0.0463423 0)
(1.11909 0.0375699 0)
(-0.0296536 2.43239 3.55051e-21)
(-0.0203348 2.02264 0)
(-0.020811 2.22032 0)
(-0.0213624 2.60138 -1.92998e-20)
(-0.0181693 2.61235 6.18512e-22)
(-0.00202461 1.58948 -5.53582e-20)
(-0.011564 1.51176 5.65536e-20)
(-0.0223335 1.40271 0)
(-0.026458 1.4084 0)
(-0.0333565 1.39944 0)
(-0.0112301 1.3224 0)
(-0.00130498 1.24401 0)
(0.385663 1.51452 2.84958e-19)
(0.434292 1.51866 1.5206e-19)
(0.591168 2.46593 -2.49021e-19)
(0.375556 2.56159 6.55377e-19)
(0.350243 2.05222 6.8706e-20)
(1.02071 -0.00799873 0)
(1.0158 -0.00935509 0)
(1.01485 -0.0132115 0)
(1.00773 -0.00055288 0)
(1.00485 -0.000678539 0)
(1.008 -0.00446943 0)
(1.00955 -0.00343342 0)
(1.01465 -0.0042775 0)
(1.0196 0.0163112 1.13164e-18)
(1.01713 0.0148305 -1.43406e-18)
(1.01997 0.0187137 -1.14081e-18)
(1.01749 0.0169236 1.4296e-18)
(0.768607 1.35845 0)
(0.707337 1.39411 2.42759e-19)
(0.876197 1.2395 9.94041e-20)
(0.913282 1.19895 -1.31929e-19)
(1.16434 2.61141 2.83866e-19)
(0.752966 0.128976 5.87577e-19)
(1.17219 0.108219 0)
(1.2148 0.202386 -4.28017e-19)
(1.19594 0.154576 -1.78218e-20)
(1.01339 0.167239 0)
(0.0760568 3.01821 3.50175e-19)
(0.0819905 2.90277 -1.13759e-18)
(0.023956 2.35973 7.20048e-19)
(0.151747 -0.257643 -3.24077e-19)
(0.341713 3.44392 -2.4825e-19)
(0.192402 3.33908 0)
(0.223329 3.39536 3.23375e-19)
(0.221243 3.07602 -1.21364e-18)
(0.254187 3.19489 0)
(0.00689407 3.12237 5.0209e-20)
(0.0170243 3.13115 -5.78283e-19)
(0.0162705 3.127 8.51133e-19)
(0.0334241 3.14009 0)
(0.0313833 3.14969 0)
(1.2571 2.5751 0)
(0.537196 0.788065 -5.26206e-19)
(1.02636 1.0347 -1.21641e-20)
(0.992153 1.08749 0)
(0.861085 0.970051 -1.07153e-19)
(1.08502 0.910344 2.66149e-20)
(0.322948 0.304193 -8.0415e-19)
(0.645284 0.323198 -2.22524e-20)
(0.52853 0.21794 3.92832e-19)
(0.536486 0.322518 2.82615e-20)
(0.417002 0.271708 -1.1302e-18)
(0.601151 0.323647 0)
(0.692424 0.431944 6.54083e-19)
(0.695188 0.437677 0)
(0.570434 0.330264 0)
(0.476476 0.253125 0)
(0.800575 0.656587 3.95235e-19)
(1.25385 0.307542 -4.28645e-19)
(1.24688 0.439292 0)
(1.24705 0.394822 0)
(0.684435 0.18627 5.99617e-19)
(0.848254 0.56058 -3.7032e-19)
(0.769357 0.524521 6.62031e-19)
(0.965909 0.454767 -6.67599e-19)
(1.01838 0.0147019 7.68729e-19)
(1.01703 0.0136499 -7.74257e-19)
(1.01594 0.0141569 0)
(1.03708 -0.00450647 0)
(1.03047 -0.0076891 -7.26527e-19)
(1.02868 -0.010573 7.18984e-19)
(1.02473 0.0110332 0)
(1.0227 0.0151407 0)
(1.0127 0.00473146 0)
(1.01456 0.0091064 0)
(1.0164 0.00425276 0)
(1.01556 0.00293623 0)
(0.0784218 1.36282 0)
(0.0806488 1.30513 0)
(0.152101 1.42174 5.15836e-20)
(0.276658 1.48635 8.33937e-20)
(0.175114 1.45778 1.88065e-19)
(0.212729 1.45635 -3.03977e-19)
(0.162756 1.43211 0)
(0.14241 1.58958 -7.95005e-20)
(0.140601 1.58279 0)
(0.352121 2.00272 -1.00029e-19)
(0.324852 2.34044 6.20584e-19)
(0.197993 1.46862 6.92658e-20)
(0.275366 1.39987 2.45464e-20)
(0.207467 1.39908 -2.00008e-20)
(0.289225 1.33826 -8.81183e-20)
(0.252226 1.57722 0)
(0.269633 1.62102 9.72699e-20)
(0.0226094 2.25328 -1.28084e-20)
(0.0370243 2.66784 0)
(0.0635272 2.40343 9.1207e-20)
(0.0582551 2.42754 0)
(0.0677381 2.68647 -1.84405e-19)
(0.0418457 2.70223 0)
(0.0240414 1.46059 6.18444e-20)
(0.033251 1.51787 0)
(0.0326795 1.41932 0)
(0.0201281 1.42933 -7.08415e-20)
(0.00321809 2.66101 3.43275e-21)
(0.026544 2.6902 1.85636e-19)
(0.0108275 2.73248 9.40946e-22)
(0.00130153 1.84818 -2.32326e-20)
(-0.00530053 1.70136 -1.74168e-20)
(0.0105636 1.31278 0)
(0.0184738 1.22485 0)
(0.0400518 1.59479 -1.13268e-20)
(0.0425291 1.47547 -5.64099e-20)
(0.027716 1.55502 5.97434e-20)
(0.0516483 1.61859 0)
(-0.030578 2.27082 1.20466e-19)
(-0.0339722 2.54891 -5.10109e-20)
(-0.0202638 2.44899 8.76629e-21)
(-0.00660465 1.86368 2.81506e-20)
(-0.028034 2.50406 1.22268e-20)
(-0.023157 2.44605 -2.9644e-20)
(1.01776 0.0222156 -7.74799e-19)
(1.01435 0.0288077 7.79775e-19)
(1.01203 0.0171527 0)
(1.01128 0.070718 1.06451e-18)
(0.990511 0.0613842 -1.22224e-18)
(0.949528 0.0576407 1.36771e-18)
(1.01343 0.11623 -1.44889e-19)
(1.04402 -0.00464639 0)
(1.05223 -0.000395982 6.96186e-19)
(1.04031 -0.00816981 -6.95906e-19)
(1.07241 0.043739 -4.12759e-20)
(1.06504 0.0291034 3.56498e-19)
(1.0643 0.0658222 0)
(1.05439 0.0549265 -1.28388e-19)
(1.03213 0.0444083 0)
(1.0252 0.0397714 0)
(1.02762 0.0138063 0)
(1.02398 0.0163065 0)
(1.04077 0.0338558 2.63944e-19)
(1.03976 0.0291402 -5.84104e-19)
(1.05309 0.038905 -2.79209e-19)
(1.04826 0.0388561 -3.08169e-19)
(1.07783 0.0705627 5.89459e-19)
(1.10194 0.0565607 0)
(1.10869 0.0950694 0)
(-0.0282205 2.27725 7.09882e-20)
(-0.0303789 2.02849 3.68882e-21)
(-0.02557 2.03838 0)
(-0.0297622 2.44512 -7.06781e-20)
(-0.0275237 2.40388 -7.09157e-21)
(-0.0340835 2.47239 9.13159e-21)
(-0.0216592 2.62305 -3.38027e-20)
(-0.0266148 2.56531 1.80742e-21)
(-0.0252102 2.51894 -1.14139e-20)
(-0.0172731 2.61609 2.20327e-20)
(-0.0213788 2.61836 -2.54377e-20)
(-0.0109401 1.51113 -6.05407e-22)
(-0.00566985 1.637 -5.49958e-20)
(0.37696 1.45016 -1.21562e-19)
(0.371993 1.38096 1.78602e-20)
(0.648851 1.44192 -2.34874e-19)
(0.524771 1.5116 -1.47853e-19)
(0.578484 1.47038 0)
(0.606418 2.42303 2.19505e-19)
(0.666931 2.4325 3.4047e-19)
(0.416949 2.51513 9.2362e-20)
(0.399568 2.54143 -6.19141e-19)
(0.502178 2.47969 5.72001e-19)
(0.553506 2.47606 0)
(0.485849 2.52581 -5.58523e-19)
(0.2581 2.59749 1.13849e-18)
(0.358129 2.56327 -6.52199e-20)
(0.283546 2.65463 -1.58182e-18)
(0.970901 2.39019 7.21362e-19)
(0.848667 2.39108 0)
(1.01144 0.00139528 2.52816e-20)
(1.01538 -0.00516739 -2.06515e-20)
(1.01777 -0.00390765 -3.77521e-19)
(1.01563 -0.00103069 3.76208e-19)
(1.01313 0.00185143 0)
(0.63731 1.30378 0)
(0.680656 1.18911 0)
(0.795502 1.11967 0)
(0.668331 1.14638 0)
(1.19528 2.62679 5.15172e-20)
(1.08823 2.37893 0)
(0.817595 2.16668 3.61092e-21)
(0.821489 2.43086 0)
(0.916265 2.52126 -4.3864e-19)
(0.947798 2.47062 2.92837e-19)
(0.784622 0.166492 0)
(0.723581 0.151037 1.59121e-19)
(0.900661 0.159328 9.31762e-19)
(0.813842 0.1415 -3.48791e-19)
(0.757061 0.0924031 -1.07094e-18)
(1.08858 0.247081 -8.47694e-19)
(0.987008 0.31722 -1.01547e-20)
(0.93085 0.352238 8.15769e-19)
(1.01476 0.260852 6.96783e-19)
(0.930781 0.207666 -1.22726e-18)
(0.888912 0.221563 1.53913e-19)
(0.927329 0.317998 -3.20019e-19)
(0.905274 0.225702 0)
(1.00136 0.210943 6.0098e-19)
(1.05544 0.21976 0)
(1.05241 0.230117 0)
(1.12608 0.125307 2.69628e-19)
(1.06472 0.195137 -1.06073e-20)
(1.08004 0.248693 -1.54446e-19)
(1.11346 0.21177 0)
(1.02305 0.0493591 5.95499e-19)
(1.0374 0.0631909 7.43695e-19)
(1.03268 0.0466506 -5.91616e-19)
(1.04161 0.0692995 -4.98656e-19)
(1.01433 0.074777 -7.54146e-19)
(0.985556 0.170167 0)
(0.988485 0.107847 0)
(0.96115 0.0746798 -4.86204e-19)
(0.902066 0.0985673 1.90662e-19)
(1.03907 0.117138 6.89983e-19)
(1.07618 0.137423 -7.89231e-19)
(1.06995 0.181067 7.09602e-19)
(1.0349 0.157479 0)
(1.08648 0.123617 0)
(1.05708 0.112601 -3.23625e-19)
(1.04265 0.109251 -5.6085e-19)
(0.587898 1.08346 1.20367e-19)
(0.611272 1.39974 -2.32577e-20)
(1.14475 2.7174 -2.4971e-19)
(1.19726 3.10197 3.55383e-21)
(1.25304 2.72735 -1.31691e-19)
(1.29253 2.69804 2.30427e-20)
(1.26794 2.32158 -3.81231e-20)
(1.1849 3.00738 -7.69281e-20)
(1.20452 2.96435 2.28278e-19)
(1.17898 3.2553 -1.20544e-19)
(1.39642 2.96952 1.50614e-19)
(1.40785 2.90537 0)
(0.575132 0.814279 -4.81839e-20)
(0.205963 1.21044 4.73387e-19)
(0.523138 0.337025 5.19407e-19)
(0.409298 0.101878 5.89301e-19)
(0.471583 0.298462 6.4019e-19)
(0.548103 0.413696 -1.04385e-18)
(0.556581 0.398059 8.59093e-19)
(0.468168 0.296701 -3.20852e-19)
(0.328335 0.239002 7.27385e-19)
(0.717979 0.255515 -3.45785e-19)
(0.668599 0.286849 0)
(0.598533 0.196376 7.52808e-21)
(0.738907 0.509737 3.57043e-19)
(0.709562 0.482336 -1.29375e-18)
(0.633004 0.433971 1.39015e-20)
(0.620502 0.414338 0)
(0.721722 0.716691 3.72917e-19)
(0.838335 0.799777 4.12003e-19)
(0.775856 0.849583 -4.80014e-19)
(0.905839 0.821506 -1.52323e-19)
(0.940609 0.864948 -3.55485e-20)
(0.948151 0.872283 3.64624e-20)
(0.884198 0.680202 -6.68448e-19)
(0.95654 0.726433 1.41615e-19)
(1.01084 0.729428 0)
(1.00958 0.705112 -1.81171e-19)
(1.03152 0.341377 2.11401e-19)
(1.15932 0.341969 2.5744e-19)
(1.07538 0.28443 3.4661e-19)
(1.0002 0.388523 -4.22641e-19)
(1.05769 0.489303 0)
(1.13934 0.42983 0)
(0.901651 0.42708 3.00485e-22)
(0.846146 0.321873 0)
(0.893982 0.312659 3.90609e-19)
(0.916098 0.350783 3.28379e-21)
(0.987948 0.499462 1.86516e-18)
(0.920229 0.558297 4.8071e-19)
(0.943271 0.51748 -5.07953e-19)
(0.861158 0.494221 5.41635e-19)
(0.826152 0.46985 3.45085e-19)
(0.802169 0.448329 -3.38287e-19)
(1.02819 -0.000359627 6.2392e-19)
(1.02045 0.000597058 0)
(1.01909 0.00141258 4.07162e-19)
(1.02268 -0.000685816 -9.21732e-19)
(1.02256 0.00461471 4.49003e-19)
(1.02003 0.0116716 -9.39823e-19)
(1.02075 0.0114929 0)
(1.01967 0.0122591 -1.95667e-19)
(1.01657 0.00782379 4.90447e-19)
(1.01667 0.0109396 -2.46168e-19)
(1.01726 0.0106461 1.80123e-19)
(0.0395027 1.33715 0)
(0.0400162 1.39683 0)
(0.057143 1.34106 0)
(0.0605786 1.27784 0)
(0.0888338 1.40511 -7.21874e-20)
(0.0910372 1.37858 1.89303e-20)
(0.0854571 1.57176 4.02126e-21)
(0.102332 1.40945 -3.7154e-20)
(0.0448998 1.48793 4.99561e-20)
(0.0504194 1.48236 -3.93753e-20)
(0.0769282 1.3984 -2.31964e-20)
(0.064773 1.40161 7.48586e-20)
(0.0583994 1.38209 1.23987e-20)
(0.0478047 1.40055 8.4308e-21)
(0.102551 2.37364 -9.95716e-20)
(0.0921659 2.41602 0)
(0.146686 2.00845 8.65897e-20)
(0.129728 1.69733 2.94421e-20)
(0.216851 2.00857 -8.21708e-20)
(0.22208 2.41747 0)
(0.253698 2.37683 -5.94066e-19)
(0.292516 2.37256 4.3417e-19)
(0.254412 1.98043 -1.91962e-19)
(0.145805 2.15195 1.40657e-19)
(0.107929 2.25832 0)
(0.0155098 1.8541 -2.85017e-20)
(-0.00525046 2.3747 -8.93051e-21)
(0.00346251 2.13055 0)
(0.00522287 2.43701 -1.71483e-20)
(0.0224885 2.27398 2.53284e-20)
(0.0111557 1.43727 -1.23671e-20)
(0.00676124 1.41697 2.03876e-19)
(0.00455571 1.42585 -6.67725e-20)
(0.0185357 1.43493 -5.74756e-20)
(0.0209735 1.46384 0)
(0.00205093 1.40753 0)
(-0.00484587 1.30712 -7.5071e-20)
(-0.00373899 1.39609 2.17095e-20)
(0.00231797 1.3958 0)
(0.00385372 1.29904 -5.77729e-20)
(0.0102951 1.21287 1.15335e-19)
(1.04251 0.0151062 0)
(1.04897 0.0105858 -6.50969e-20)
(1.03912 0.0244384 -4.70669e-19)
(1.04938 0.0234029 0)
(1.05476 0.0227232 0)
(1.03632 0.0131322 -6.76096e-21)
(1.03013 0.0135356 7.58522e-19)
(1.03207 0.0174931 9.19542e-19)
(1.02559 0.0212139 0)
(1.02195 0.0217951 0)
(1.03561 0.026028 4.69747e-19)
(1.02599 0.028239 0)
(1.02331 0.0285057 0)
(-0.0208223 2.03131 0)
(-0.0105201 1.66467 -2.46259e-21)
(-0.00841874 1.76955 -3.2892e-20)
(-0.00705393 1.40216 0)
(-0.0102074 1.56837 -3.18049e-20)
(-0.0160853 1.47886 1.91492e-20)
(-0.0117468 1.41611 0)
(0.403538 1.62432 0)
(0.366125 1.31891 -2.90704e-20)
(0.27577 1.34546 0)
(0.435766 1.31752 -3.61923e-20)
(0.472914 1.4769 0)
(0.457762 1.4182 3.98711e-20)
(1.0405 2.67049 -1.53306e-20)
(0.98529 2.40915 -9.062e-19)
(0.948089 2.21009 1.01703e-18)
(0.865363 2.38313 2.44225e-19)
(0.852653 2.48719 0)
(0.921782 2.48168 0)
(0.95468 2.38328 0)
(0.930645 2.37423 -9.44494e-19)
(0.691422 2.45111 -3.81144e-19)
(0.800335 2.43494 -9.84081e-20)
(0.807667 2.41289 7.41613e-20)
(0.704216 2.40371 0)
(0.809478 2.39751 0)
(0.770051 2.41403 -3.69267e-19)
(0.765601 2.46586 0)
(0.63187 1.06744 0)
(0.515586 0.856928 -5.60713e-19)
(0.522058 0.929292 -3.25686e-20)
(0.501855 1.06991 0)
(0.488969 0.977813 8.58515e-19)
(0.803891 0.886728 -1.3326e-19)
(0.80687 1.02177 0)
(0.787927 1.00467 1.83037e-19)
(0.676945 1.02099 0)
(0.66898 0.924447 0)
(1.1633 2.75405 -2.21354e-19)
(1.13844 2.81227 -9.09156e-20)
(0.922712 2.3344 7.75378e-20)
(0.899465 2.31555 -7.67793e-20)
(1.13301 2.73196 0)
(1.08503 2.69973 9.22232e-20)
(1.10106 2.49531 -2.98601e-19)
(1.00292 2.25537 -2.83621e-20)
(0.49707 1.32878 0)
(0.517064 1.07704 -1.06024e-19)
(0.594835 1.1829 0)
(0.84728 0.233015 0)
(0.752665 0.180735 0)
(0.65942 0.14173 0)
(0.854918 0.230052 -6.15771e-19)
(0.744387 0.224065 3.60975e-19)
(0.908107 0.091155 -3.8397e-19)
(0.929627 0.143616 0)
(0.905095 0.148732 1.73685e-19)
(0.840047 0.109167 6.9511e-19)
(0.793909 0.0781651 -4.37732e-19)
(1.09585 3.3464 -6.68401e-19)
(1.16386 3.26993 0)
(1.11402 3.43128 -1.56311e-18)
(0.655888 3.57732 1.30078e-18)
(1.02433 3.07572 1.16153e-19)
(0.533667 0.778528 5.70707e-19)
(0.512401 0.746327 0)
(0.348087 0.348843 -1.43869e-19)
(0.490822 0.626517 8.56345e-19)
(0.556092 0.337646 -1.87439e-19)
(0.521289 0.451713 2.23831e-19)
(0.690092 0.52438 4.60067e-19)
(0.738056 0.561129 0)
(0.668297 0.562049 0)
(0.653537 0.530601 0)
(1.01871 0.614712 8.96681e-20)
(0.972426 0.596743 -4.65698e-19)
(0.983176 0.609449 3.55649e-19)
(1.0467 0.551409 -3.43775e-19)
(1.09181 0.520478 0)
(1.09439 0.603233 -9.04203e-20)
(0.887027 0.423814 -7.70253e-19)
(0.874484 0.409871 -9.91688e-19)
(0.798296 0.410491 6.06843e-19)
(0.813919 0.379391 -6.29371e-19)
(0.855369 0.335503 -4.95661e-19)
(0.800077 0.338168 6.06762e-19)
(1.02658 0.00673566 -4.69883e-19)
(1.02621 0.00685769 9.46848e-19)
(1.02998 0.000970324 6.04663e-19)
(1.03418 0.00160741 -7.26026e-19)
(1.03399 0.01197 0)
(1.02974 0.0120805 -1.18752e-18)
(0.0840123 1.6481 9.93556e-21)
(0.0671685 1.60602 0)
(0.108349 1.70296 3.93569e-20)
(0.111975 1.67495 -3.41878e-20)
(0.0815122 1.57054 -7.38731e-21)
(0.0679745 1.57467 0)
(0.00664022 1.70288 0)
(-0.009365 1.51849 1.68312e-20)
(-0.00810536 1.46026 -1.51357e-20)
(-0.0131406 1.56628 2.9102e-21)
(-0.00215944 1.89584 2.53634e-20)
(-0.0146302 1.94981 -9.89147e-21)
(0.493768 1.36016 -2.65742e-19)
(0.496371 1.35499 2.90579e-19)
(0.450082 1.30984 -1.33005e-20)
(0.428504 1.29114 7.82886e-21)
(0.629614 1.31142 0)
(0.556179 1.40526 1.1439e-19)
(0.557275 1.40843 -1.11395e-19)
(0.485759 1.29768 1.28315e-20)
(0.526743 1.25084 0)
(0.591214 1.21668 0)
(0.665107 2.4147 5.6116e-19)
(0.660714 2.44482 1.28353e-18)
(0.715779 2.4601 -8.82583e-19)
(0.61367 2.43206 -2.0146e-19)
(0.556871 2.52573 2.75818e-19)
(0.497013 2.49192 -7.13708e-19)
(0.993109 2.38796 -5.72988e-19)
(1.02505 2.40553 0)
(0.952026 2.19378 -6.26254e-19)
(1.05591 2.68082 0)
(1.05483 2.66194 0)
(0.600332 2.28754 3.17504e-21)
(1.11833 3.06818 7.19487e-20)
(0.995594 2.96509 -1.19505e-19)
(0.319797 0.790181 0)
(0.3175 0.667947 -3.04439e-19)
(0.525165 0.604369 -3.08764e-19)
(0.362591 2.12939 0)
(0.402585 2.74395 -8.17652e-20)
(0.411977 2.47816 0)
(0.730668 0.684609 -7.94067e-19)
(0.797892 0.6943 1.10603e-18)
(0.801336 0.65998 -1.06221e-18)
(0.7039 0.641042 -1.00594e-19)
(0.761489 0.600041 -4.15646e-19)
(0.969903 2.75139 -5.44917e-20)
(1.01365 2.75841 -2.13172e-19)
(0.550716 2.20345 4.44534e-19)
(0.603478 1.73281 -3.51367e-19)
(0.702662 1.85157 -4.98394e-19)
(0.976665 2.3919 -1.38007e-19)
(0.976853 2.34489 3.68126e-19)
(0.64517 1.76074 3.3637e-20)
(0.451614 1.29473 1.76225e-19)
)
;

boundaryField
{
    wall-4
    {
        type            noSlip;
    }
    velocity-inlet-5
    {
        type            fixedValue;
        value           uniform (1 0 0);
    }
    velocity-inlet-6
    {
        type            fixedValue;
        value           uniform (0 3 0);
    }
    pressure-outlet-7
    {
        type            zeroGradient;
    }
    wall-8
    {
        type            noSlip;
    }
    frontAndBackPlanes
    {
        type            empty;
    }
}


// ************************************************************************* //
