/*--------------------------------*- C++ -*----------------------------------*\
  =========                 |
  \\      /  F ield         | OpenFOAM: The Open Source CFD Toolbox
   \\    /   O peration     | Website:  https://openfoam.org
    \\  /    A nd           | Version:  6
     \\/     M anipulation  |
\*---------------------------------------------------------------------------*/
FoamFile
{
    version     2.0;
    format      ascii;
    class       volScalarField;
    location    "88";
    object      p;
}
// * * * * * * * * * * * * * * * * * * * * * * * * * * * * * * * * * * * * * //

dimensions      [0 2 -2 0 0 0 0];

internalField   nonuniform List<scalar> 
918
(
0.534043
1.22182
0.00691275
0.533952
-0.011681
1.18863
-0.506904
0.628731
0.515196
-0.122853
-0.0866887
0.5172
1.04637
0.813608
-1.16881
-0.0256004
0.629388
-0.419462
0.513261
-0.0907133
0.642563
0.521869
0.524334
0.515119
0.576615
0.76604
0.923981
-0.00313629
0.01151
0.00634954
-0.0130882
-0.03368
-0.0310305
1.07175
1.12365
1.14702
0.481692
0.315384
-0.401789
-0.456912
-0.433976
-0.523346
0.629277
0.630306
-0.231047
0.628163
0.627156
0.500875
0.514589
0.515426
0.516548
0.515458
0.516736
0.400876
-0.130321
-0.157527
-0.10763
-0.106895
0.0195038
-0.0881944
-0.0890698
-0.0850561
-0.0869045
0.430714
0.512045
0.508647
0.521437
0.530596
1.16198
1.1359
1.16216
1.07151
1.08945
1.02346
0.996566
0.834745
0.85815
0.796851
0.78314
-1.62102
-2.56146
-0.595243
-0.321918
-0.0108171
-0.0272929
-0.0261995
0.625324
0.627857
0.627237
0.63032
1.02879
-0.391215
-0.46391
0.513802
0.512329
0.521389
0.522294
0.51726
0.517258
-0.0882628
-0.0882072
-0.0734184
-0.0877277
-0.0851281
0.62193
0.624062
0.514554
0.511995
0.538346
0.561019
0.549366
0.247532
0.587395
0.603708
0.6307
0.776473
0.763074
0.775638
0.899262
0.867385
0.955949
0.977892
0.0141343
-0.00175792
-0.0269185
-0.0240419
-0.0249538
0.477432
0.470994
0.499246
0.485314
0.488357
0.221407
0.0722975
0.397002
0.420235
-0.325818
-0.376556
-0.460528
-0.459047
-0.566674
0.602355
0.631586
0.630952
-0.242417
-0.16967
-0.298037
-0.11172
-0.169456
0.491817
0.498074
0.494146
0.509545
0.503707
0.506134
0.518658
0.515842
0.517435
0.449656
0.575866
0.32669
0.285354
-0.278999
-0.175311
-0.259562
-0.0995553
-0.0982611
0.0304709
0.0646488
0.00831523
-0.00270121
-0.0928329
-0.090355
-0.0922397
-0.0863321
-0.0863771
0.422155
0.409076
0.441973
0.449503
0.498545
0.499916
0.504588
0.502537
0.948268
0.971381
0.976706
0.952602
-3.53197
-6.15031
0.0184584
0.175794
-0.0101471
-0.0117155
-0.000491465
-0.010398
-0.00130955
-0.00298754
-0.0372694
-0.0369104
-0.029673
-0.0312464
0.623255
0.623867
0.999058
1.02723
0.968442
0.944011
0.503168
0.505038
0.509658
0.506541
-0.0869967
-0.087193
-0.087671
0.62599
0.624489
0.625151
0.205985
0.116774
0.299482
0.330805
0.618732
0.608541
0.617899
0.69062
0.729821
0.994882
1.01777
1.00263
1.01453
1.0649
1.0878
1.05307
0.455993
0.466925
0.461189
0.502046
0.499894
0.500824
0.497481
0.498389
0.497057
-0.0384169
-0.407789
0.469079
0.470156
0.462701
0.46523
0.689495
0.773299
0.628879
0.630147
0.631273
-0.0597418
-0.106904
0.231798
0.194724
0.361038
0.395789
0.37752
0.923146
0.882809
0.931064
0.906265
0.870881
0.895158
-0.343307
-2.09867
-1.09735
0.572355
0.377009
0.467971
-0.0198002
-0.0369932
-0.0331714
1.01822
1.05853
0.639235
0.823341
0.77812
0.752438
0.77882
0.842006
0.774603
0.809328
0.839585
0.81532
0.551266
0.479761
0.498497
0.848331
0.90346
0.078799
-0.000949473
-0.0238442
0.0897722
0.154899
0.126173
1.03637
0.955796
1.01728
0.512237
0.51319
-0.0207472
-0.0465097
0.517308
0.517019
-0.0237327
-0.0149122
0.483217
-0.934915
0.079654
0.506859
0.496451
0.513308
-0.103909
0.303644
-0.0892686
-0.00143431
-0.0306076
0.507558
0.443083
0.400719
-0.0103203
-0.0354378
-0.0840438
-0.215022
0.509976
0.508333
0.512698
0.513514
0.514294
-0.0309531
-0.030678
-0.0210493
-0.074662
-0.0672605
-0.0801529
0.476562
0.496643
-0.197431
0.512992
0.515099
0.514791
0.509029
0.51395
0.512593
-0.0270086
-0.0297615
-0.0319686
0.185567
0.327792
0.66566
0.739848
0.615046
0.449314
0.159962
0.603247
0.65473
0.580352
0.710724
0.629422
0.626286
0.146662
0.00255656
0.150893
0.0838433
0.503674
0.503135
0.493967
0.490842
0.508151
0.505829
0.511022
0.50828
0.511449
0.512587
-0.0576167
-0.0871055
-0.104345
-0.147748
0.262109
0.527843
0.222707
0.278888
0.139895
-0.0830997
-0.0823015
-0.0840364
-0.0886675
-0.0508096
-0.0497669
-0.00587758
0.00480099
-0.0114037
-0.0373741
-0.0584802
-0.0499784
-0.0590033
0.500805
0.501157
0.506144
0.515014
0.452733
0.456431
0.42279
0.441481
0.427663
0.367688
0.397358
0.374488
-0.0210448
-0.0121485
-0.0127583
-0.0367598
-0.0360745
-0.0574251
-0.049783
-0.0485908
-0.0454088
-0.0499891
-0.0770749
-0.0836296
-0.179075
-0.299457
0.948741
0.863972
0.135734
0.499861
0.505539
0.502701
0.507458
0.51065
0.511275
0.508839
0.505327
0.496774
0.498411
0.494872
0.495949
-0.13468
-0.245641
-0.0764749
-0.153438
0.144201
0.610266
0.334946
0.279483
0.264692
0.493352
0.683081
0.589545
0.642744
0.613223
-0.397835
-0.00178607
-0.333316
0.211324
0.208152
0.692915
0.734454
0.751862
0.708863
0.665357
-0.0247197
0.541718
-0.081029
-0.0289374
0.163825
0.0444304
0.597641
0.615165
0.622175
0.618114
0.623342
0.623293
0.612552
0.600288
0.623326
0.626788
0.485821
0.213793
0.170245
0.124335
0.614462
0.507967
0.558384
0.476799
0.499331
0.501749
0.500723
0.481361
0.488721
0.484381
0.491596
0.495244
0.50263
0.502807
0.498597
0.500557
-0.0806272
-0.0891406
-0.0678213
-0.128856
-0.133941
-0.177202
-0.088538
0.082057
0.0311611
0.230776
0.362427
0.0587133
-0.0569971
-0.0409503
0.012421
0.167324
0.17485
0.045608
0.145565
0.11737
0.100734
0.214744
0.21539
-0.0572683
-0.0647993
-0.0625492
-0.0689723
-0.0252282
0.0965554
0.0703582
-0.0375331
-0.0433803
-0.0803769
-0.0835139
-0.00139106
-0.0452835
-0.0376517
-0.00770334
-0.0648208
-0.0393729
-0.0302539
-0.0395926
-0.0392
-0.0384718
0.495818
0.497686
0.497829
0.507433
0.519182
0.534145
0.500132
0.473956
0.464982
0.468076
0.441141
0.450355
0.445664
0.461499
0.483048
0.491351
0.489575
0.492264
0.474326
0.475959
0.461412
0.466066
0.435284
0.416432
0.406225
-0.0607081
-0.0279469
-0.0416829
-0.0533233
-0.0279616
-0.0371598
-0.0387206
-0.019599
-0.039331
-0.034014
-0.0439228
-0.0495598
-0.0501938
-0.0814625
0.000625949
-0.185005
-0.231884
-0.286072
0.874222
1.01341
0.788283
0.579281
0.586433
0.820303
0.925123
0.532188
0.703558
0.743073
0.569162
0.860001
0.503826
0.503403
0.501255
0.500418
0.501431
-0.0213738
0.0825432
0.092117
0.152847
0.268424
0.373266
0.308772
0.195124
0.327285
0.351979
0.606783
0.613
0.57157
0.594644
0.596744
0.402326
0.482949
0.520726
0.478128
0.552761
0.585895
0.531049
0.574361
0.495691
0.445161
0.436606
0.391515
0.426114
0.407177
0.3815
0.495539
0.472438
0.483235
0.473475
0.495461
0.520667
0.520987
0.542438
0.559295
0.474122
0.419961
0.437007
0.466151
0.421745
0.439394
0.461406
0.183233
0.0850849
0.247803
-0.0797327
0.00401295
0.0452655
0.00154397
-0.0394112
0.267233
-0.368564
-0.315025
-0.989022
0.490927
0.821008
0.541547
0.553479
0.621686
0.610261
0.618735
0.617903
0.623349
0.602754
0.612556
0.617607
0.584512
0.606019
0.594192
0.603561
0.489614
0.389989
0.39332
0.324446
0.185023
0.227157
0.419053
0.350081
0.274815
0.266881
0.443757
0.308677
0.388547
0.437762
0.361208
0.297089
0.523868
0.571787
0.563991
0.536675
0.414515
0.447775
0.448211
0.49817
0.541966
0.565737
0.490162
0.496459
0.497368
0.49464
0.49301
0.49613
0.496407
0.498722
0.498862
0.501462
0.50096
-0.0794878
-0.0651208
-0.0773268
-0.0861585
-0.0221261
-0.0306751
-0.00360137
-0.0265877
-0.0361645
-0.0312464
-0.0477119
-0.0645089
-0.0624912
-0.0526546
0.0709338
0.0919585
0.0812291
0.041176
0.231319
0.402758
0.471111
0.340268
0.185465
0.198362
0.28198
0.0221717
0.00387441
-0.00947288
0.0620887
0.0544027
-0.0698618
-0.0746033
-0.0702919
-0.0569717
-0.0505026
-0.0736563
-0.0794314
-0.0692714
-0.075282
-0.0812875
-0.0846653
0.475624
0.468556
0.472086
0.464562
0.462744
0.479605
0.484255
0.485256
0.49087
0.49347
0.482934
0.48873
0.492945
-0.040678
-0.0577319
-0.0572563
-0.0620982
-0.057767
-0.0554279
-0.05935
0.121895
0.0279277
0.064265
-0.00698339
-0.134145
-0.0748873
0.495902
0.488461
0.475464
0.714853
0.550527
0.469594
0.568614
0.689652
0.269924
0.468695
0.304356
0.879974
0.787864
0.932626
0.548185
0.249282
0.421734
0.428831
0.270127
0.395272
0.332757
0.209025
0.2443
0.280202
0.363931
0.248975
0.228405
-0.0146885
0.167791
0.276555
0.258605
0.384514
0.440583
0.260745
0.175806
0.121609
0.588378
0.604925
0.613162
0.58452
0.60496
0.563361
0.55574
0.572424
0.582602
0.57534
-0.623388
-0.212148
-1.41145
-0.829567
-0.377726
0.518857
0.523638
0.741008
0.640964
0.645736
0.627947
0.578278
0.55608
0.593332
0.603585
0.314096
0.39855
0.386696
0.361377
0.30791
0.250306
0.520614
0.532081
0.551491
0.580513
0.558633
0.586388
0.488935
0.488779
0.48744
0.483697
0.482189
0.485476
0.0159144
-0.00750574
0.0250415
0.0131613
-0.00937233
-0.0115409
-0.0487744
-0.0601872
-0.061606
-0.0574865
-0.0462391
-0.0444739
0.169114
0.106405
0.0175381
0.0590235
-0.0083474
-0.0859948
-0.0917935
-0.000274145
0.0995875
0.0803856
0.385088
0.651828
0.477662
0.643581
0.443514
0.542561
0.457898
0.431208
0.458272
0.364812
0.455762
0.0561531
-0.146643
-0.201356
0.812631
0.776172
0.554207
0.314311
0.192729
0.480979
0.503918
0.464824
0.491418
0.539827
0.524791
0.0245635
0.108789
0.201155
0.505121
0.276936
0.29641
0.286093
0.453956
0.421692
)
;

boundaryField
{
    wall-4
    {
        type            zeroGradient;
    }
    velocity-inlet-5
    {
        type            zeroGradient;
    }
    velocity-inlet-6
    {
        type            zeroGradient;
    }
    pressure-outlet-7
    {
        type            fixedValue;
        value           uniform 0;
    }
    wall-8
    {
        type            zeroGradient;
    }
    frontAndBackPlanes
    {
        type            empty;
    }
}


// ************************************************************************* //
