/*--------------------------------*- C++ -*----------------------------------*\
  =========                 |
  \\      /  F ield         | OpenFOAM: The Open Source CFD Toolbox
   \\    /   O peration     | Website:  https://openfoam.org
    \\  /    A nd           | Version:  6
     \\/     M anipulation  |
\*---------------------------------------------------------------------------*/
FoamFile
{
    version     2.0;
    format      ascii;
    class       surfaceScalarField;
    location    "88";
    object      phi;
}
// * * * * * * * * * * * * * * * * * * * * * * * * * * * * * * * * * * * * * //

dimensions      [0 3 -1 0 0 0 0];

internalField   nonuniform List<scalar> 
1300
(
3.75095
5.62643
-3.32033
3.75095
-7.7529
5.62643
-4.28801
4.28801
-0.384322
0.384322
1.8765
1.87445
-2.42964
2.42964
-1.69292
1.69292
-2.52415
2.52415
-5.24824
5.24824
-5.06887
5.06887
4.69424
-4.69424
-6.34138
6.34138
-0.961556
0.961556
-3.58104
3.58104
3.17237
-3.17237
-1.77791
1.77791
0.116776
-0.116776
-0.554081
4.30503
3.19687
3.19687
-1.98697
1.98697
-4.87511
4.87511
6.22208
-6.22208
5.21863
-5.21863
-1.8983
-2.52471
1.79079
-11.4551
-5.96211
-5.96211
-8.44087
8.44087
-2.81444
2.81199
2.94735
-2.94735
-1.71705
1.71705
-4.30696
0.0189438
-4.30696
4.25692
0.0310963
4.25692
-0.497985
0.113663
-0.497985
3.96347
-3.96347
0.281286
0.103036
0.281286
3.06734
-3.06734
-1.87685
3.75335
1.8741
-1.8721
6.17713
-1.87886
3.75331
-6.04476
6.04476
-2.67836
0.248726
-2.67836
2.19626
0.233374
2.19626
-6.90322
6.90322
-1.77023
0.0773115
-1.77023
1.68992
0.00300192
1.68992
2.88868
-2.88868
-2.6246
0.100448
-2.6246
2.39095
0.133203
2.39095
0.353037
5.27339
-5.97947
8.79146
-5.27339
0.0251535
5.21035
0.0378918
5.21035
-5.10549
0.0366206
-5.10549
5.01363
0.0552353
5.01363
4.78138
-0.087139
4.78138
-4.81546
0.121221
-4.81546
-3.35696
-4.084
-6.50317
0.16179
-6.50317
-1.03525
0.073696
-1.03525
0.860267
0.10129
0.860267
-3.73231
3.73231
-3.94092
0.359877
-3.94092
3.12732
0.0450523
3.12732
1.86812
1.88283
5.61907
-5.61907
2.4467
-1.69469
-0.0832202
-1.69469
-1.87587
-3.34276
1.87587
-0.0979541
-0.109721
0.226497
-0.109721
3.15713
0.0397418
3.15713
2.2346
0.156346
-2.2346
0.247635
3.30363
-3.30363
1.33104
0.655932
1.33104
-5.55872
5.55872
4.96204
0.0515894
-4.96204
0.0869336
6.15675
0.0653332
6.15675
-6.20725
-0.0148373
-6.20725
2.48033
-5.00504
-2.68401
6.15211
0.189271
-6.15211
0.189993
2.91894
0.0284034
2.91894
-2.9179
2.9179
-2.98431
0.0369617
-2.98431
-2.13943
0.422373
-2.13943
1.40331
0.313743
1.40331
-4.22333
-0.0836289
-4.22333
-4.10053
0.159617
4.10053
0.156384
1.11864
-1.11864
-0.605745
0.10776
-0.605745
-4.07047
-0.152855
4.07047
-0.107002
-3.90122
-0.0622567
-3.90122
-3.02197
0.037663
3.02197
0.0453666
3.11213
0.044999
-3.11213
0.044795
-1.87099
3.75383
-1.87996
3.75406
-5.6817
-0.36306
-5.6817
6.36616
-0.321399
6.36616
3.10346
0.477582
-3.10346
0.425095
2.01098
0.185283
2.01098
-6.87614
-0.0270819
-6.87614
6.90862
-0.00540024
6.90862
1.87126
0.139721
-1.87126
0.101028
1.68323
0.00668833
1.68323
2.91648
-0.0278011
2.91648
-2.88221
-0.00647426
-2.88221
2.7889
-2.7889
2.71396
0.074946
-2.71396
0.0893567
-11.1244
11.1095
-0.0362378
-11.0881
5.17411
5.17411
4.23383
0.547549
4.23383
-5.01332
0.197858
-5.01332
2.66775
-5.35176
3.1259
-6.48286
4.67328
-16.1283
4.2806
-8.3646
6.75538
-6.75538
6.63629
0.119083
-6.63629
0.133128
-1.13989
0.104641
-1.13989
-3.13093
-0.601377
-3.13093
4.36681
-0.634501
4.36681
-3.02741
3.02741
-3.07623
0.0488179
3.07623
0.0510948
1.6705
0.012727
-1.6705
-0.0241913
0.182678
0.0986079
-0.182678
0.0729572
3.52751
-0.223887
3.52751
-3.09811
-0.205513
-3.09811
-1.23571
0.0958127
1.23571
0.0953296
-5.80755
0.248829
-5.80755
-11.1821
0.0939875
-11.1442
-6.11326
-6.11326
2.32761
11.1191
-2.89738
0.0151694
2.89738
0.0215634
2.97459
0.0528166
-2.97459
0.0566921
-2.85596
0.0670634
2.85596
0.0619338
-2.50712
0.367688
-2.50712
-1.02052
1.02052
-1.16671
0.146192
1.16671
0.236599
1.42137
-0.302735
1.42137
0.744721
0.115545
-0.744721
0.138976
-3.84458
-0.0566337
-3.84458
6.60372
-0.23756
6.60372
-2.96863
-0.129487
2.96863
-0.0521407
-0.0347572
11.1443
-5.13935
0.0338674
5.13935
-11.2096
11.2435
-3.21192
0.704801
3.21192
1.02192
5.2837
0.275018
-5.2837
0.270382
6.84746
0.0611584
-6.84746
0.0920816
-2.63991
-0.491028
-2.63991
-5.10157
-0.580127
5.10157
-0.734759
-11.4824
-0.202124
11.6845
-11.4272
6.00967
0.147076
-6.00967
11.3906
-0.992962
-0.125674
0.992962
0.0275579
1.76157
-0.340196
1.76157
3.74705
-0.219533
-3.74705
-0.0975367
-6.76625
-0.109882
6.76625
-0.162538
-2.19025
-0.449659
2.19025
-0.428679
-4.26739
4.30713
1.90974
-2.31591
-2.68913
-5.65867
1.85529
1.89854
4.30199
-10.1403
-5.988
-9.95036
7.2148
-6.94442
-9.31634
9.2292
7.94754
-8.0098
-5.77728
5.82838
6.4848
-6.43944
1.87948
1.87387
8.07757
-7.82884
-15.6915
15.3284
7.64383
-7.56652
15.8186
-15.8457
-17.8526
17.9138
-5.70661
5.80705
-6.74305
6.73658
-6.98002
6.92788
-2.79407
-3.68879
13.1103
-12.9486
8.64217
-8.72539
-8.68793
9.0478
3.38462
0.922515
3.42962
-1.88178
3.76126
-1.87153
3.78127
2.78281
-5.57687
2.56895
-5.25809
4.41013
4.23204
-4.31218
-1.34649
-5.92886
5.95726
-5.80938
5.87131
9.19726
-9.17832
-1.88498
3.75885
-1.86908
3.76762
-3.42285
-2.35443
3.3778
0.92419
8.05822
5.05212
-8.24749
-1.70286
-8.03383
7.8143
-8.21774
8.01223
-0.436004
5.8385
-5.40249
4.4391
-1.65358
7.49208
5.56122
5.75908
5.86075
-5.58574
1.08366
-6.48615
-6.39922
-2.21503
2.32279
2.07917
-1.97613
6.15928
1.78826
6.05228
-5.81468
-2.19512
-5.87131
3.81969
2.00869
3.86851
4.08225
2.40255
4.11991
3.02945
-3.03684
0.00738929
-3.05939
6.08884
0.722012
-5.41382
-4.48963
4.9933
3.08426
5.22668
-5.60037
-2.22848
-5.17527
-9.59287
-6.0986
-10.173
10.1688
5.15957
9.84744
-11.9503
11.7877
4.8864
2.75743
4.8894
-4.97973
-2.58679
-4.8787
11.6698
-2.65789
-9.01189
-10.3257
-7.52692
10.3311
5.48751
10.9647
6.94901
11.0568
4.41951
7.25028
-9.90702
2.3801
-3.86655
-1.84006
-3.77719
3.66496
2.14209
3.79817
-4.21891
-2.52414
-4.20374
-4.29525
-2.68476
4.32305
2.41353
-4.41762
-3.80012
4.54711
2.38077
4.06078
-10.0488
4.30383
-7.99262
-9.19614
-3.75241
-9.06302
3.58488
2.59594
-6.18082
-1.99199
8.59657
-4.36453
7.25008
-5.21981
-3.50557
-5.244
-6.97898
-1.70894
-6.81937
-8.91154
8.42051
-9.20272
8.56822
12.5021
-5.63299
-6.86915
-3.96704
-2.4724
3.92225
-0.492627
-3.71004
3.71743
0.051212
3.83248
4.755
4.26237
-3.88258
-1.9268
-3.82588
3.82189
2.04942
3.88895
6.86369
2.33357
6.89479
-6.62915
-2.54917
-6.71278
9.08576
-8.66338
2.78559
-2.68977
5.38035
2.63188
-5.15646
-2.87737
6.2299
-3.20772
-3.02218
-12.3502
10.784
1.56619
-4.8581
-0.418994
-0.535771
-5.5648
-3.75155
5.44357
0.315502
11.0995
7.34794
-5.51473
5.76356
6.16981
6.2214
-0.177824
5.87901
-5.17421
5.27405
-2.73544
-2.53861
5.48806
-5.64091
-1.22472
-5.56644
4.34172
0.411366
1.45193
-1.22543
-1.745
-0.470031
-1.60602
1.11546
0.963709
1.21407
0.960081
1.36271
-2.94255
0.499757
2.4428
-1.98247
-1.47637
-3.82257
-1.14331
4.96587
5.73914
2.07516
-5.6416
-0.229707
2.5492
-2.44791
-0.840398
-2.98217
2.22187
-3.06227
-3.46276
-1.95319
5.41596
-3.3687
-0.457183
3.31588
0.552622
-3.82825
-2.10062
3.79128
0.328628
-3.12911
6.19042
-3.06131
-5.05592
2.529
3.55985
4.53768
-4.7899
2.44929
2.34061
-1.23006
4.25847
0.96821
4.44375
-7.08058
4.8521
5.74296
3.30485
-6.22054
1.04527
-6.03531
8.55789
-7.41641
-1.14148
4.09963
4.45826
7.03027
5.47187
-5.67129
12.7016
-1.16997
-6.24644
7.20528
-3.90043
4.87561
-8.77604
-10.3475
4.10104
-9.19242
11.0774
-1.88496
-3.59198
-8.3583
12.7844
-1.25157
-11.5328
8.59586
-4.35515
-4.42985
8.78501
-7.01305
7.01664
-1.98719
-5.02946
-10.1529
-5.69277
10.2628
1.52496
-9.97063
12.3507
-2.72035
4.16738
0.722021
4.17407
3.36954
-5.47186
2.10231
3.6435
-5.63069
2.05149
-7.52335
-6.75466
12.0962
-5.34152
-10.5071
-9.54152
-0.965564
2.54862
9.8021
-9.49763
7.42862
2.06901
3.29803
0.59092
-3.37298
-0.404213
0.232921
4.50816
-4.74108
4.03109
4.18743
3.21756
1.2906
3.84953
2.10774
-3.87109
-0.33265
-4.16865
1.48389
-1.75513
-3.69361
5.1775
-4.06184
0.368229
-2.74164
-3.49255
6.23419
-4.5817
3.03586
3.15456
5.08528
-4.91444
1.4219
-2.39088
-2.52356
2.63995
-4.39507
2.00144
3.17607
4.3822
0.582084
5.91608
6.1801
-8.51202
0.519407
11.2322
-9.52937
2.47898
8.57785
-9.90759
0.366079
-8.69694
0.977984
-5.34252
-5.20284
5.23532
-6.94427
-3.54072
6.26025
0.634536
-6.41664
-0.40273
-6.05535
-2.8562
-6.505
-3.05364
-6.14907
-8.72494
-1.67006
-7.05487
6.75045
-6.67542
-3.49758
7.41018
1.15804
-7.46875
7.34308
-7.52575
7.18555
0.0950979
3.62234
4.35747
1.88507
-2.39228
4.27735
-5.08341
7.41698
-8.76789
3.68448
4.25419
-6.80336
-4.5137
5.04869
4.03707
5.36243
8.90704
-10.3552
1.44819
-10.6252
11.9657
-1.34049
-16.3964
5.77126
-7.4894
2.41293
0.372655
2.51757
0.541127
2.50639
-3.04752
-2.14865
-2.05332
-2.44751
-3.49239
5.93989
1.05885
-3.47696
2.41811
-3.56334
4.62219
-0.0835473
-3.39342
5.18749
-2.6811
5.56015
-3.64689
1.91326
3.5488
5.84092
-2.29213
4.41938
-1.7875
1.95038
-4.2425
-1.54201
-2.95384
5.09593
-3.28035
3.64858
-0.354849
4.00343
-4.0387
0.830981
-0.821142
3.36629
3.61393
4.33134
-3.04074
2.93335
-4.72084
-1.30916
-4.13876
-0.962694
-0.18095
-3.77289
3.95384
5.9909
-6.17185
-5.27545
9.51263
-4.23718
7.69214
-5.43275
-2.25938
-4.28224
-4.38114
3.91455
1.96445
9.65659
0.17797
-5.61072
-4.99624
-3.97432
3.08511
2.18895
-1.70743
3.27362
2.2432
-0.791273
0.400256
0.81381
1.75852
-1.35827
0.338663
1.41986
-0.886767
1.68126
0.867942
-1.7968
0.190781
-1.35898
3.58085
1.08382
-2.04753
0.68926
0.891312
-3.62676
5.10908
-2.7388
-2.37028
6.0004
1.14903
-3.88784
4.4174
-4.00604
2.458
-3.60131
-1.42984
-5.43588
-3.64762
-2.48061
4.89872
-3.45928
5.53444
1.43596
-5.30473
6.74069
-3.62884
1.67565
-3.04997
3.91791
-0.993352
-2.05662
2.87402
2.54194
-3.14358
0.161415
-0.269567
2.41763
-2.6872
-0.644636
-2.62711
-4.57619
4.90482
-2.10372
4.55301
2.17364
-1.91782
6.47083
1.80754
-3.72535
-3.24838
-3.70556
-1.38474
3.15294
-0.569232
-4.30947
-5.59869
4.16975
0.274006
-7.07815
7.93567
-0.857528
-3.99388
-0.858219
4.95785
-6.09859
0.467902
-4.0471
3.88857
4.85678
5.13079
-11.3013
-0.231491
-6.14176
1.08122
-7.22298
5.53948
-3.56298
7.66403
-10.2966
6.79904
-9.13857
6.52254
-0.70044
6.23737
-4.13506
2.77452
-8.46728
-6.94232
5.59715
-2.83972
6.31917
-3.22494
9.54411
-5.94529
5.37979
4.16432
-1.05518
-4.18882
-5.37776
4.32258
0.00202292
4.17609
4.98719
-2.87945
4.65454
2.26468
-4.65556
-2.1304
-6.48883
1.83327
-3.33427
-1.92264
3.75591
3.16264
3.75356
1.23235
-3.34935
7.25753
-8.22309
-1.91601
-3.28683
5.36946
-1.04688
3.47863
-6.76546
-1.86389
4.73656
-0.723169
-4.0134
0.896422
-4.43714
1.67446
-6.1116
5.26981
-5.67254
2.25425
-9.74365
-5.2145
-5.18694
-2.27732
-5.24843
-7.56317
5.28585
-1.79191
5.55116
-8.49757
7.7744
-3.46809
8.75394
-5.4523
-1.05271
5.88098
1.30458
10.0585
0.167852
-4.68155
-1.94231
3.7171
-1.77478
1.1428
-3.60504
0.112058
2.49832
3.50208
-6.84004
0.0366808
-4.64487
-3.90517
7.94224
5.60746
11.5984
1.24313
9.1263
-1.18407
10.3694
4.17837
4.41497
-2.99835
4.44653
0.955494
4.63997
-0.895588
2.80885
1.62199
1.69568
0.752229
2.29895
1.31497
3.12993
0.0824133
-1.9709
4.62902
-8.60334
-0.981704
-8.05579
1.17341
5.43296
-4.25955
2.8491
-0.660153
1.07432
-0.20242
-1.1265
1.32892
-2.74103
-1.91778
-0.497916
-1.67514
2.3644
1.9057
-1.86649
-0.874543
0.325474
-3.97309
3.27583
-3.11442
-0.572475
6.16821
-2.88827
0.201071
-1.21263
-2.42604
-2.89607
2.70529
6.17443
0.296396
3.11312
5.20122
3.1006
0.221147
3.80427
-5.68923
-3.71908
-5.92073
-0.381249
4.57661
1.76897
8.03313
5.93329
4.88641
-1.87905
-10.1021
6.49869
-2.05215
5.1582
-1.1448
-4.9668
5.0815
2.33548
-5.71604
0.0435039
-4.9233
-6.97545
-0.47774
8.25214
-9.58078
8.52808
5.67188
1.38299
-4.42839
-0.758552
4.2822
0.132771
10.5022
-0.916916
-7.03078
7.9477
-4.51604
3.53434
0.673721
2.5999
2.00265
1.34249
-5.68829
-9.94784
-2.07128
-1.55548
-4.44156
0.524317
-2.43002
6.06332
-2.52898
3.80394
5.41871
6.49303
-2.04843
-4.12342
6.28561
-2.48166
4.01136
)
;

boundaryField
{
    wall-4
    {
        type            calculated;
        value           uniform 0;
    }
    velocity-inlet-5
    {
        type            calculated;
        value           uniform -3.75095;
    }
    velocity-inlet-6
    {
        type            calculated;
        value           uniform -5.62643;
    }
    pressure-outlet-7
    {
        type            calculated;
        value           nonuniform List<scalar> 8(3.32033 7.7529 4.42301 9.66428 7.44096 5.16434 5.79364 8.95388);
    }
    wall-8
    {
        type            calculated;
        value           uniform 0;
    }
    frontAndBackPlanes
    {
        type            empty;
        value           nonuniform 0();
    }
}


// ************************************************************************* //
