/*--------------------------------*- C++ -*----------------------------------*\
  =========                 |
  \\      /  F ield         | OpenFOAM: The Open Source CFD Toolbox
   \\    /   O peration     | Website:  https://openfoam.org
    \\  /    A nd           | Version:  6
     \\/     M anipulation  |
\*---------------------------------------------------------------------------*/
FoamFile
{
    version     2.0;
    format      ascii;
    class       volVectorField;
    location    "88";
    object      U;
}
// * * * * * * * * * * * * * * * * * * * * * * * * * * * * * * * * * * * * * //

dimensions      [0 1 -1 0 0 0 0];

internalField   nonuniform List<vector> 
918
(
(0.985049 -0.000715757 0)
(0.00544347 2.96617 0)
(-0.00492457 0.876355 0)
(0.979575 0.0019618 0)
(-0.0143172 2.06294 3.33056e-20)
(-0.00719302 2.94861 -2.54666e-18)
(0.822174 1.12385 4.48022e-19)
(0.113851 0.0836308 -1.40327e-20)
(0.999922 -0.000245747 0)
(0.092336 0.66874 0)
(0.0159905 0.356175 0)
(0.732569 0.00878546 0)
(0.0101896 2.93185 0)
(0.00334864 2.79432 0)
(-0.00275328 3.17631 8.27978e-19)
(-0.0135962 1.92977 2.48474e-20)
(0.294452 0.0468717 9.82047e-19)
(0.234487 1.1102 3.53456e-19)
(0.964318 0.00674166 0)
(-0.00560536 0.347187 0)
(0.0575298 -0.0732296 -6.38259e-19)
(1.00183 -0.00455945 0)
(0.99985 -0.00892597 0)
(0.975169 -0.00605176 0)
(0.591739 0.0275039 0)
(0.0207897 2.64487 0)
(-0.0120987 2.91166 9.3134e-19)
(-0.00821629 0.926821 0)
(-0.0362391 1.1713 0)
(-0.00615325 0.895559 0)
(-0.0243243 2.58471 0)
(-0.00510647 2.11381 -2.6602e-20)
(-0.0102084 1.90108 0)
(-0.0219443 2.98768 -9.17162e-23)
(-0.016379 3.00545 1.97637e-18)
(0.00231033 3.00043 0)
(0.871988 -0.00976482 0)
(0.372997 0.910536 1.64929e-19)
(0.820907 1.14289 -5.60726e-19)
(0.953035 1.00982 5.71714e-19)
(0.683284 1.22572 -1.02495e-19)
(0.696831 1.18525 5.84324e-19)
(0.141944 0.127748 1.36879e-20)
(0.149114 0.0889649 0)
(1.16966 0.533158 0)
(0.107939 0.108457 6.16089e-20)
(0.087174 0.0667453 -6.39411e-20)
(0.920571 -0.00704564 0)
(1.00027 5.25337e-05 0)
(0.999907 0.000320754 0)
(1.0037 -0.00727982 0)
(1.00088 -0.000949516 0)
(1.00011 -5.42392e-06 0)
(0.0780206 1.83449 -7.59944e-19)
(0.0329671 0.849751 0)
(0.128372 0.759828 0)
(0.0181634 0.790609 0)
(0.0542654 0.585418 0)
(0.00492961 2.03805 0)
(-0.00802213 0.68876 0)
(0.013149 0.397922 0)
(-0.0119094 0.682679 0)
(0.00961191 0.353803 0)
(0.843807 -0.0156167 0)
(0.842005 0.0262707 0)
(0.757383 0.00354702 0)
(0.80018 0.026034 0)
(0.701147 0.0202559 0)
(0.0137926 3.00031 9.45304e-19)
(0.0109281 3.00668 0)
(0.00585022 3.00351 0)
(0.0118243 2.99747 1.07283e-23)
(0.0080285 2.95885 -1.40495e-18)
(0.0121893 2.98285 0)
(0.00919125 2.90499 0)
(0.0210519 2.93149 2.17061e-24)
(0.00383716 2.82439 0)
(0.0261024 2.91875 0)
(-0.000587309 2.74498 0)
(0.304301 3.56957 0)
(-0.122129 3.65216 0)
(0.1482 3.26686 -7.70572e-19)
(0.00254424 3.00562 0)
(-0.033278 1.99117 0)
(-0.00754335 2.17937 -2.45063e-20)
(-0.00936097 1.94232 2.551e-20)
(0.346537 0.139928 -3.41112e-19)
(0.323469 0.0153905 -3.31881e-19)
(0.301268 0.154615 -1.0191e-18)
(0.262974 0.0661966 -6.63082e-19)
(0.265373 1.0265 0)
(0.334232 1.24174 -3.6611e-19)
(0.416154 1.15283 6.04329e-19)
(0.987694 0.00817143 0)
(0.943203 0.00577487 0)
(1.00028 0.000671907 0)
(1.00254 0.00906611 0)
(1.0031 0.00899805 -2.62779e-18)
(0.992135 0.00941176 1.98567e-18)
(-0.0280144 0.706852 0)
(-0.00103969 0.349615 0)
(-0.0571382 1.01428 0)
(-0.0384229 0.769104 0)
(-0.0161454 0.355576 0)
(-0.0829125 0.0699283 1.98539e-19)
(0.032035 0.0481004 0)
(0.993626 -0.00769175 0)
(0.954055 -0.00648495 0)
(0.74255 0.0276136 0)
(0.672396 0.0255875 0)
(0.659611 0.0266826 0)
(0.980766 -0.00243237 0)
(0.584321 0.0656089 0)
(0.455123 -0.0124555 1.49502e-18)
(-0.0411244 2.86016 7.24591e-19)
(0.033924 2.91422 0)
(0.0428153 2.89261 0)
(0.00322658 2.70231 0)
(-0.0087379 2.98656 8.89751e-19)
(-0.0139055 2.89432 0)
(-0.0109436 2.99167 -2.74253e-18)
(-0.011538 2.92916 9.34411e-19)
(-0.0525835 1.35139 0)
(-0.0205032 1.38065 0)
(-0.00809961 2.14066 8.79346e-22)
(-0.00799443 2.09924 0)
(-0.0172429 1.913 0)
(0.938929 -0.00519195 0)
(0.857355 -0.0111649 0)
(0.862798 0.00517 0)
(0.949709 -0.00613562 0)
(0.883714 -0.00809974 0)
(0.496119 1.11017 -2.09336e-19)
(0.543579 1.18011 0)
(0.335074 0.845057 3.19211e-20)
(0.280038 0.709872 0)
(0.922378 1.03883 -1.61602e-19)
(1.04549 0.849376 3.25825e-19)
(0.394599 1.32068 0)
(0.5454 1.27646 0)
(0.599672 1.20254 0)
(0.10449 0.180886 -2.99152e-19)
(0.169097 0.139636 0)
(0.170925 0.104927 1.83983e-19)
(1.00845 0.903245 0)
(1.08414 0.751088 0)
(1.1139 0.686322 -2.61751e-19)
(1.15013 0.596673 0)
(1.20626 0.391579 4.75198e-20)
(0.957535 -0.00709446 0)
(0.96275 -0.00810648 0)
(0.900943 -0.00737532 0)
(0.983934 -0.00812033 0)
(0.97444 -0.00802803 0)
(0.936557 -0.00656772 0)
(1.0002 0.00250588 0)
(1.00078 0.00123846 0)
(1 0.000759819 0)
(0.039504 2.08587 4.1843e-19)
(0.142394 1.7823 0)
(0.0170746 2.19171 6.48282e-19)
(0.052747 1.89081 -5.29354e-19)
(0.168071 1.08545 -2.90027e-19)
(0.0510163 0.935729 0)
(0.123018 0.940309 0)
(0.0070508 0.752077 0)
(0.0300224 0.512185 0)
(-0.00306333 2.26219 -2.63847e-22)
(0.0222284 2.0417 0)
(-0.00448302 2.26232 -2.44939e-21)
(0.00309204 2.0472 -7.33785e-21)
(-0.00125458 0.721361 0)
(-0.00605318 0.702658 0)
(0.0155173 0.448519 0)
(-0.0209791 0.685485 0)
(0.00664096 0.347051 0)
(0.939609 0.0139287 0)
(0.856649 -0.0115206 0)
(0.928743 0.00491004 0)
(0.846368 -0.012786 0)
(0.809394 0.00147166 0)
(0.89903 0.0204754 0)
(0.87461 0.0244805 0)
(0.783122 0.00109412 0)
(0.00997395 3.06803 -8.78153e-21)
(0.0156784 3.05796 0)
(0.0122824 2.97007 0)
(0.00753106 2.87685 0)
(0.893133 3.96169 0)
(1.18647 3.35844 9.33702e-19)
(0.0802832 3.08844 0)
(-0.0181029 2.91689 0)
(-0.0201231 1.40835 0)
(-0.0387683 1.70243 0)
(-0.0279232 1.53916 0)
(-0.0347299 2.54616 -1.54857e-20)
(-0.0208185 2.24514 0)
(-0.0249365 2.3877 0)
(-0.000625931 1.9731 -3.71085e-23)
(-0.00547488 2.2545 -3.23266e-20)
(-0.00646588 2.21757 -2.61669e-20)
(-0.00560291 1.95655 0)
(0.389833 0.116002 5.23156e-19)
(0.362957 0.00799504 -5.13414e-19)
(0.233431 1.59073 0)
(0.289633 0.770645 -3.21754e-19)
(0.178933 1.69034 -1.05389e-18)
(0.248456 1.2276 1.05427e-18)
(0.901595 0.0059051 0)
(0.966991 0.0107079 0)
(0.974854 0.00988247 0)
(0.922934 0.00586511 0)
(-0.0193707 0.689089 0)
(-0.0238712 0.696447 0)
(0.00596367 0.33987 0)
(0.0771921 0.0919968 5.6445e-19)
(0.0560155 0.0669179 -6.60947e-19)
(0.0478951 0.0508475 0)
(1.1086 0.0910968 2.37876e-20)
(1.09216 0.0429676 0)
(1.01953 0.0439778 0)
(0.914424 -0.00125308 0)
(0.436718 0.0978815 0)
(0.496304 0.0793245 -2.39152e-18)
(0.400279 0.00554482 8.96112e-19)
(0.0103041 2.97715 7.71006e-19)
(-0.0331156 2.86121 4.60229e-20)
(0.00826696 3.0536 -1.8553e-20)
(0.0164321 3.04262 6.90404e-19)
(-0.0117207 2.99994 3.07551e-20)
(-0.0124581 2.95206 -1.23864e-22)
(-0.0150755 3.01306 -5.73978e-19)
(0.01534 3.02551 4.08772e-19)
(0.00806783 3.03581 -6.64388e-19)
(0.934795 0.00216903 0)
(0.939569 -0.00109344 0)
(0.848247 -0.0112011 0)
(0.956225 0.0118775 0)
(0.942229 0.0134449 0)
(0.881449 0.00543692 0)
(0.915834 0.0173799 0)
(0.925054 0.0152591 0)
(0.836673 0.00263129 0)
(0.668789 1.40824 1.52731e-20)
(0.686845 1.51866 0)
(0.117407 0.287024 6.73876e-20)
(0.214054 0.652902 5.32321e-19)
(0.239426 0.689956 -3.12395e-19)
(0.21235 0.489508 6.20426e-19)
(0.341552 0.833651 1.58323e-18)
(0.136354 0.23748 3.80101e-19)
(0.258398 0.164866 7.0304e-19)
(0.209924 0.161958 1.81422e-19)
(0.220582 0.0919168 3.45312e-19)
(1.19717 0.448448 9.80915e-20)
(1.2215 0.246959 9.55309e-20)
(0.00790946 2.24885 2.40409e-19)
(0.0410667 1.96568 0)
(0.973338 0.0332207 0)
(0.947025 0.0193503 0)
(0.871599 -0.0150496 0)
(0.012998 3.07357 0)
(0.0166961 2.94399 1.22478e-18)
(0.0137901 2.95668 0)
(0.00561418 2.85023 -1.21534e-18)
(0.00993043 3.08962 2.98996e-19)
(0.0110407 3.08417 0)
(0.705975 1.81403 -1.6954e-19)
(1.23066 2.6183 5.73436e-19)
(0.690696 1.99199 -1.38855e-18)
(0.0217855 2.97601 -6.68582e-19)
(0.039863 2.99742 0)
(-0.0387262 2.87807 0)
(-0.00636936 2.24018 -1.31991e-20)
(-0.00516256 2.26027 6.31741e-20)
(-0.000168418 2.00897 -7.4108e-21)
(0.268856 1.40351 1.02344e-18)
(0.288555 0.574966 -7.02622e-19)
(0.0663246 2.00615 7.35431e-19)
(0.12331 1.8748 -8.85099e-19)
(0.209792 1.54281 1.00234e-19)
(0.00618122 3.12032 -1.66008e-18)
(0.0133895 3.12068 1.82839e-18)
(-0.00524303 2.98048 8.31764e-19)
(-0.00145719 2.975 -7.96036e-19)
(-0.0175798 2.87705 -8.47188e-19)
(0.0117671 3.10074 -2.22005e-18)
(0.00562322 3.1054 2.25337e-18)
(0.268979 0.698923 0)
(0.219696 0.658558 -1.13749e-18)
(0.074861 0.210918 5.00643e-19)
(0.347506 0.954408 1.12353e-18)
(0.201076 0.282556 -1.73046e-18)
(1.19987 0.176857 4.68553e-20)
(1.21821 0.306482 0)
(1.19533 0.121826 1.05734e-20)
(0.00135246 2.2666 -1.1223e-21)
(0.00578284 2.25607 0)
(0.0350412 1.99942 0)
(0.313278 1.31835 -3.68018e-19)
(0.354389 1.18076 -7.98736e-19)
(0.234531 0.394349 1.42988e-18)
(1.00644 -0.009679 0)
(1.00774 -0.00778176 4.82971e-19)
(-0.0464994 1.33393 0)
(-0.0562129 1.33958 0)
(1.00244 0.00326869 1.33584e-21)
(1.0032 0.00781065 9.91541e-19)
(-0.0259748 2.53317 1.96241e-20)
(-0.0286709 2.57565 0)
(0.0399206 3.17212 4.71503e-19)
(0.372298 3.53706 0)
(1.1601 0.69565 -4.92003e-20)
(1.01177 0.0106324 -2.8537e-21)
(1.02089 -0.00898701 0)
(1.00157 0.000289903 1.5735e-22)
(0.119195 1.37711 0)
(0.145596 2.58818 0)
(0.0354734 1.32534 0)
(-0.00109182 2.63366 -1.33237e-20)
(-0.0225243 2.57986 -1.52731e-20)
(0.998461 0.0316273 2.8118e-21)
(1.06305 0.00593137 0)
(1.1002 0.0285296 0)
(-0.0370957 1.74978 0)
(-0.0203646 2.57842 0)
(-0.0151569 1.32877 0)
(0.309273 1.49242 -1.72713e-19)
(1.01152 -0.00904987 0)
(1.00971 -0.0129835 0)
(1.00227 0.000933231 6.18442e-19)
(1.00547 -0.00491015 -7.29175e-19)
(1.00113 -0.00086254 0)
(-0.0263347 1.47491 0)
(-0.0150842 1.39795 0)
(-0.0215368 1.43693 0)
(-0.018377 1.31417 0)
(-0.0349041 1.30338 0)
(-0.0273223 1.28421 0)
(1.0357 -0.00428906 0)
(1.01898 0.0155988 -9.83513e-22)
(0.813947 1.31447 2.83369e-19)
(1.00245 0.000391327 -6.18226e-19)
(1.00339 0.00444343 7.37889e-19)
(1.00126 0.00208961 0)
(1.01105 0.0096265 6.15751e-19)
(1.00682 0.00744208 -7.49451e-19)
(1.0071 0.0111101 0)
(-0.0253363 2.60527 0)
(-0.0287527 2.58403 -3.49496e-20)
(-0.0254634 2.59831 2.46553e-20)
(1.24309 0.2745 5.17436e-19)
(1.16374 0.0893741 0)
(0.0434188 3.09145 -9.44622e-19)
(0.051986 2.87399 -6.69643e-20)
(0.102784 3.20173 1.26336e-18)
(0.121133 3.21363 -2.67124e-19)
(0.140135 3.25568 0)
(0.0224677 3.13769 2.59566e-19)
(0.060709 3.16197 9.40979e-19)
(0.0611307 3.17869 -4.85591e-19)
(0.0267729 3.12949 0)
(0.540572 0.289404 0)
(0.484105 0.303057 0)
(1.14276 0.727482 1.08797e-19)
(1.10723 0.863016 -9.00112e-20)
(1.20022 0.613024 0)
(1.2268 0.546614 0)
(1.01568 0.0120344 -1.1438e-18)
(1.01464 0.0127704 1.43812e-18)
(1.02578 -0.00871309 0)
(1.02411 -0.0102802 0)
(1.00681 0.00327781 0)
(1.01088 0.00422237 0)
(1.00419 0.00221964 0)
(1.00933 0.00634147 0)
(1.00682 0.00503835 0)
(1.00436 0.00525351 0)
(0.109151 1.37651 0)
(0.095893 1.33404 0)
(0.141227 1.42221 0)
(0.147077 1.40592 0)
(0.145628 2.61255 0)
(0.186726 2.68194 -4.03573e-19)
(0.0925894 2.65911 0)
(0.0848818 2.65521 1.72849e-19)
(0.0242445 2.67719 -1.51261e-19)
(0.0192301 1.33604 0)
(0.0304542 1.25271 0)
(0.0228705 1.34795 0)
(0.0482771 1.27266 0)
(-0.00175143 1.99447 4.43827e-20)
(-0.0222761 2.60813 -4.55364e-20)
(-0.00695768 2.67554 -3.983e-20)
(-0.0196188 2.68703 0)
(-0.0245196 2.61407 4.49906e-20)
(-0.0230771 2.60959 4.77147e-20)
(0.00445521 1.9908 -3.44608e-20)
(-0.011194 2.39917 6.10885e-20)
(-0.0155452 2.42405 4.51507e-20)
(1.0118 0.0401414 1.15945e-18)
(1.00423 0.0212615 -1.44438e-18)
(1.00356 0.0475967 -1.1844e-18)
(0.97587 0.0379852 1.49218e-18)
(1.06472 0.00926663 0)
(1.04995 -0.00641393 0)
(1.0927 0.0377947 0)
(1.07591 0.0150861 0)
(1.07467 0.000501149 0)
(1.14136 0.079862 0)
(1.11586 0.0464844 0)
(1.11928 0.0375067 0)
(-0.0317016 2.43003 4.14297e-21)
(-0.0232314 2.02515 0)
(-0.0234741 2.22023 0)
(-0.0223834 2.59927 -2.25117e-20)
(-0.0188576 2.61042 7.34578e-22)
(-0.00457421 1.59688 -6.14978e-20)
(-0.0150284 1.51892 6.28423e-20)
(-0.0251664 1.41052 0)
(-0.0298084 1.41658 0)
(-0.0363612 1.4066 0)
(-0.00899611 1.33105 0)
(0.00675753 1.2461 0)
(0.386916 1.51713 2.88245e-19)
(0.435308 1.52139 1.53691e-19)
(0.590969 2.46217 -2.4739e-19)
(0.377388 2.55954 6.84958e-19)
(0.349615 2.04921 6.98427e-20)
(1.02072 -0.00798909 0)
(1.0158 -0.00934634 0)
(1.01486 -0.0132054 0)
(1.00775 -0.000546706 0)
(1.00484 -0.00068794 0)
(1.008 -0.00446586 0)
(1.00954 -0.00342829 0)
(1.01465 -0.00426685 0)
(1.01971 0.0164311 1.12231e-18)
(1.01712 0.0150082 -1.42543e-18)
(1.0201 0.0189189 -1.13123e-18)
(1.01748 0.017356 1.41745e-18)
(0.770206 1.36106 0)
(0.708843 1.39708 2.48397e-19)
(0.878387 1.24245 1.03747e-19)
(0.914699 1.20189 -1.37692e-19)
(1.16221 2.60758 2.74214e-19)
(0.746723 0.132002 5.83047e-19)
(1.17207 0.108304 0)
(1.21496 0.203013 -4.20149e-19)
(1.19654 0.154545 -1.74886e-20)
(1.01107 0.166747 0)
(0.0751548 3.01827 3.37264e-19)
(0.0813421 2.90315 -1.10919e-18)
(0.0227477 2.36124 7.02613e-19)
(0.159898 -0.272992 -3.07338e-19)
(0.340457 3.44134 -2.53208e-19)
(0.191769 3.33761 0)
(0.222343 3.39294 3.29833e-19)
(0.219902 3.07561 -1.17909e-18)
(0.252504 3.19371 0)
(0.00645328 3.12242 4.91538e-20)
(0.0169144 3.13116 -5.66851e-19)
(0.0159128 3.12692 8.34301e-19)
(0.0329176 3.14008 0)
(0.0309273 3.14958 0)
(1.25414 2.57044 0)
(0.542052 0.788814 -5.19909e-19)
(1.02768 1.03713 -1.53818e-20)
(0.994251 1.09009 0)
(0.863118 0.972114 -1.05373e-19)
(1.08682 0.912827 2.6679e-20)
(0.29354 0.308319 -7.6526e-19)
(0.632597 0.325948 -2.32641e-20)
(0.515552 0.218262 3.90516e-19)
(0.52182 0.317788 2.78423e-20)
(0.385951 0.266735 -1.1119e-18)
(0.586685 0.322453 0)
(0.680088 0.438431 6.73381e-19)
(0.693655 0.452108 0)
(0.549467 0.321519 0)
(0.448186 0.245286 0)
(0.800479 0.659292 3.89718e-19)
(1.25466 0.308551 -4.20343e-19)
(1.24785 0.440887 0)
(1.24799 0.395992 0)
(0.68429 0.187072 5.94169e-19)
(0.846952 0.561114 -3.67615e-19)
(0.768291 0.522397 6.56546e-19)
(0.96531 0.457164 -6.58779e-19)
(1.01846 0.0147697 7.64257e-19)
(1.01705 0.013683 -7.68913e-19)
(1.01586 0.0142364 0)
(1.03709 -0.00450703 0)
(1.03049 -0.00768553 -7.2053e-19)
(1.0287 -0.0105692 7.13043e-19)
(1.02476 0.0110438 0)
(1.02272 0.0151486 0)
(1.01271 0.00476068 0)
(1.01458 0.00910305 0)
(1.01644 0.00427157 0)
(1.01558 0.00295096 0)
(0.078936 1.36329 0)
(0.0814523 1.30477 0)
(0.153196 1.42391 5.04242e-20)
(0.277512 1.48859 8.39148e-20)
(0.176985 1.45969 1.89108e-19)
(0.212638 1.45751 -3.05651e-19)
(0.163052 1.43555 0)
(0.144631 1.58862 -7.84057e-20)
(0.142758 1.58241 0)
(0.347798 1.99965 -1.01697e-19)
(0.330903 2.33216 6.22742e-19)
(0.197265 1.46937 6.83108e-20)
(0.276584 1.40404 2.57523e-20)
(0.209286 1.40299 -2.10023e-20)
(0.290674 1.34224 -8.5981e-20)
(0.257377 1.57694 0)
(0.270108 1.62114 9.54357e-20)
(0.018491 2.24423 -1.34261e-20)
(0.037947 2.66991 0)
(0.0555454 2.39497 9.98789e-20)
(0.0485159 2.41987 0)
(0.0645385 2.67768 -2.07373e-19)
(0.0432794 2.70399 0)
(0.0272846 1.46437 6.39673e-20)
(0.0323197 1.52065 0)
(0.0345158 1.4241 0)
(0.0270934 1.43322 -7.29449e-20)
(0.00260913 2.66086 6.24184e-21)
(0.027624 2.69065 1.7433e-19)
(0.00977604 2.73361 8.94713e-22)
(0.00358147 1.84878 -2.89106e-20)
(-0.00415064 1.70103 -1.97079e-20)
(0.0179298 1.31561 0)
(0.0268748 1.22899 0)
(0.0404213 1.59305 -4.83578e-21)
(0.0429287 1.47419 -5.68708e-20)
(0.0262379 1.55694 5.84691e-20)
(0.0529571 1.61553 0)
(-0.0322223 2.27075 1.35192e-19)
(-0.035527 2.54752 -5.72889e-20)
(-0.0211636 2.44839 1.05108e-20)
(-0.00487234 1.86508 3.50476e-20)
(-0.028789 2.50318 1.48594e-20)
(-0.0232678 2.44532 -3.89992e-20)
(1.01809 0.0225217 -7.6878e-19)
(1.0149 0.0289672 7.72817e-19)
(1.01202 0.0180602 0)
(1.00985 0.0709141 1.07273e-18)
(0.990381 0.0611837 -1.21269e-18)
(0.949756 0.0561298 1.35781e-18)
(1.01307 0.115484 -1.43854e-19)
(1.04403 -0.00464298 0)
(1.05224 -0.000382638 6.90252e-19)
(1.04033 -0.00815887 -6.89929e-19)
(1.07235 0.0439139 -4.09174e-20)
(1.06505 0.0291794 3.53513e-19)
(1.06416 0.0658538 0)
(1.05441 0.0551725 -1.27351e-19)
(1.03212 0.043943 0)
(1.026 0.0389429 0)
(1.02765 0.0137164 0)
(1.02408 0.0163574 0)
(1.04061 0.0338867 2.61743e-19)
(1.0395 0.0286859 -5.79282e-19)
(1.0531 0.0388711 -2.76818e-19)
(1.04821 0.0387834 -3.05537e-19)
(1.07785 0.0707364 5.84494e-19)
(1.10186 0.0567749 0)
(1.10862 0.0955697 0)
(-0.0302314 2.27672 7.75067e-20)
(-0.0332252 2.03036 4.38251e-21)
(-0.0282509 2.04054 0)
(-0.0314094 2.44373 -7.71547e-20)
(-0.0295414 2.40239 -8.35447e-21)
(-0.0359081 2.47007 1.02529e-20)
(-0.0220733 2.62153 -4.07352e-20)
(-0.0275176 2.56393 2.31035e-21)
(-0.025968 2.51796 -1.36415e-20)
(-0.0177999 2.61433 2.57995e-20)
(-0.0217811 2.61675 -3.00061e-20)
(-0.0132703 1.52306 -1.10378e-21)
(-0.00800173 1.64369 -6.3863e-20)
(0.378276 1.45326 -1.23325e-19)
(0.373627 1.3838 1.64407e-20)
(0.650045 1.44479 -2.40343e-19)
(0.525429 1.5143 -1.49344e-19)
(0.579426 1.47337 0)
(0.606743 2.419 2.1776e-19)
(0.666337 2.42885 3.37934e-19)
(0.420631 2.51268 8.96172e-20)
(0.400785 2.53513 -6.29063e-19)
(0.500681 2.47462 5.67625e-19)
(0.552949 2.4724 0)
(0.485695 2.52282 -5.47272e-19)
(0.262723 2.58765 1.10655e-18)
(0.355006 2.56323 -6.07881e-20)
(0.279343 2.64927 -1.54472e-18)
(0.970751 2.38614 7.14577e-19)
(0.848123 2.38693 0)
(1.01142 0.00140007 2.50774e-20)
(1.01537 -0.00515487 -2.04891e-20)
(1.01779 -0.00388833 -3.74523e-19)
(1.01564 -0.00101714 3.73222e-19)
(1.01313 0.00185373 0)
(0.638366 1.3062 0)
(0.68307 1.19166 0)
(0.798482 1.12198 0)
(0.670615 1.14849 0)
(1.19329 2.62303 5.16716e-20)
(1.08575 2.3745 0)
(0.815845 2.1635 3.57217e-21)
(0.820656 2.42676 0)
(0.915488 2.5174 -4.35536e-19)
(0.946843 2.46677 2.90778e-19)
(0.78416 0.162144 0)
(0.726202 0.145242 1.57763e-19)
(0.906764 0.163792 9.22228e-19)
(0.812939 0.146662 -3.44298e-19)
(0.75439 0.090935 -1.06741e-18)
(1.0878 0.247951 -8.39087e-19)
(0.986528 0.317557 -1.01199e-20)
(0.926901 0.353737 8.10803e-19)
(1.01362 0.261082 6.90673e-19)
(0.930956 0.208451 -1.2169e-18)
(0.888439 0.220766 1.52692e-19)
(0.92863 0.319295 -3.17233e-19)
(0.905065 0.225132 0)
(0.999992 0.209988 5.9527e-19)
(1.05506 0.218685 0)
(1.05229 0.231259 0)
(1.1259 0.125739 2.67046e-19)
(1.06509 0.195802 -1.07029e-20)
(1.07934 0.249481 -1.52858e-19)
(1.11311 0.213075 0)
(1.02245 0.0485804 5.91235e-19)
(1.03675 0.0627264 7.38086e-19)
(1.03257 0.0461594 -5.87166e-19)
(1.04134 0.0693786 -4.94933e-19)
(1.0151 0.0761837 -7.57562e-19)
(0.983699 0.170638 0)
(0.987526 0.107933 0)
(0.96251 0.0748377 -4.83189e-19)
(0.898515 0.10016 1.93579e-19)
(1.0389 0.11657 6.84465e-19)
(1.07604 0.137976 -7.81867e-19)
(1.07046 0.182395 7.03039e-19)
(1.0354 0.158673 0)
(1.08623 0.12344 0)
(1.05681 0.113037 -3.20858e-19)
(1.04222 0.109287 -5.56297e-19)
(0.58777 1.0798 1.1937e-19)
(0.60855 1.3969 -2.10787e-20)
(1.14349 2.71469 -2.47894e-19)
(1.19564 3.0991 3.22006e-21)
(1.25098 2.72354 -1.23985e-19)
(1.28997 2.69372 2.0579e-20)
(1.26474 2.31649 -3.83667e-20)
(1.18314 3.00427 -7.50379e-20)
(1.20297 2.9612 2.25396e-19)
(1.177 3.25202 -1.21033e-19)
(1.39412 2.96525 1.51802e-19)
(1.40531 2.89984 0)
(0.578816 0.814093 -4.79312e-20)
(0.198181 1.21096 4.64861e-19)
(0.529902 0.323371 4.96755e-19)
(0.413364 0.0894522 5.65444e-19)
(0.44979 0.293986 6.29548e-19)
(0.545139 0.416454 -1.02359e-18)
(0.556644 0.397291 8.40721e-19)
(0.45319 0.294002 -3.0904e-19)
(0.281371 0.232959 7.10804e-19)
(0.714765 0.26015 -3.42406e-19)
(0.658573 0.292709 0)
(0.589959 0.196875 7.74903e-21)
(0.730401 0.517583 3.55717e-19)
(0.701489 0.492225 -1.29012e-18)
(0.63394 0.439281 1.27322e-20)
(0.615036 0.418764 0)
(0.723994 0.720598 3.68998e-19)
(0.839326 0.802964 4.06635e-19)
(0.778419 0.853622 -4.7403e-19)
(0.90839 0.824584 -1.50345e-19)
(0.943019 0.867619 -3.4798e-20)
(0.950579 0.875103 3.5685e-20)
(0.88366 0.682169 -6.63067e-19)
(0.957242 0.728561 1.39774e-19)
(1.01303 0.732313 0)
(1.0118 0.707818 -1.78492e-19)
(1.0304 0.343565 2.08809e-19)
(1.1597 0.34298 2.53047e-19)
(1.07464 0.285474 3.43022e-19)
(1.00043 0.390491 -4.18245e-19)
(1.05829 0.491105 0)
(1.13982 0.431851 0)
(0.898809 0.427361 -5.86395e-22)
(0.845681 0.322145 0)
(0.893182 0.312594 3.86723e-19)
(0.914122 0.351981 2.67281e-21)
(0.988151 0.503036 1.83962e-18)
(0.920959 0.560766 4.7477e-19)
(0.943836 0.520366 -4.99911e-19)
(0.861489 0.496376 5.32829e-19)
(0.826447 0.47065 3.40426e-19)
(0.804665 0.449934 -3.33442e-19)
(1.0282 -0.000373705 6.18835e-19)
(1.02049 0.000612579 0)
(1.01912 0.00142277 4.03872e-19)
(1.0227 -0.000686136 -9.14221e-19)
(1.02258 0.00462955 4.45347e-19)
(1.02004 0.0116821 -9.32232e-19)
(1.02079 0.0115151 0)
(1.01968 0.0122998 -1.94116e-19)
(1.0166 0.00784183 4.8649e-19)
(1.01669 0.010965 -2.44452e-19)
(1.01729 0.0106733 1.78976e-19)
(0.0377074 1.33744 0)
(0.0443301 1.4001 0)
(0.0559823 1.34099 0)
(0.0627289 1.27612 0)
(0.0903333 1.40476 -6.62718e-20)
(0.0939695 1.37916 1.64039e-20)
(0.0889076 1.57373 4.1455e-21)
(0.108806 1.41295 -3.72608e-20)
(0.0444044 1.48844 4.81972e-20)
(0.0494071 1.48296 -3.80032e-20)
(0.0773193 1.39936 -2.52934e-20)
(0.0640067 1.40143 7.38685e-20)
(0.061759 1.38429 1.22241e-20)
(0.0477194 1.40289 8.26996e-21)
(0.0986792 2.35671 -1.10082e-19)
(0.0862725 2.40517 0)
(0.158717 2.00813 8.90286e-20)
(0.132153 1.69326 3.06257e-20)
(0.215028 2.01229 -7.73644e-20)
(0.220268 2.41491 0)
(0.229495 2.38727 -6.09434e-19)
(0.298247 2.37107 4.55946e-19)
(0.254811 1.97936 -1.94847e-19)
(0.148635 2.14468 1.38623e-19)
(0.116471 2.24867 0)
(0.014553 1.84477 -3.77426e-20)
(-0.00551584 2.36547 1.80373e-21)
(0.00414588 2.12432 0)
(0.00395652 2.43006 -1.69366e-20)
(0.0172966 2.26259 2.95458e-20)
(0.0124544 1.44181 -1.309e-20)
(0.009395 1.4216 2.18215e-19)
(0.0079019 1.43193 -7.05633e-20)
(0.0220498 1.44115 -6.21701e-20)
(0.0239238 1.46787 0)
(0.00483179 1.41647 0)
(0.00152041 1.31523 -8.98914e-20)
(-0.00225044 1.40864 2.64321e-20)
(0.00603405 1.40667 0)
(0.0113584 1.30751 -6.8663e-20)
(0.0200328 1.21552 1.37262e-19)
(1.04249 0.0150822 0)
(1.04898 0.0105758 -6.45456e-20)
(1.03917 0.024542 -4.66657e-19)
(1.0495 0.0234343 0)
(1.0547 0.0227176 0)
(1.03637 0.0131115 -6.74294e-21)
(1.03012 0.0135451 7.52742e-19)
(1.03203 0.0175042 9.11824e-19)
(1.02567 0.0211656 0)
(1.02226 0.0217741 0)
(1.03566 0.0259361 4.65801e-19)
(1.02609 0.0282413 0)
(1.02359 0.0282556 0)
(-0.020743 2.03237 0)
(-0.0120091 1.671 -2.62752e-21)
(-0.00965891 1.7739 -3.58777e-20)
(-0.0090817 1.41369 0)
(-0.00948352 1.57687 -3.77926e-20)
(-0.0183389 1.48992 2.26554e-20)
(-0.0172582 1.4302 0)
(0.402828 1.61964 0)
(0.36787 1.32212 -2.67402e-20)
(0.275811 1.34613 0)
(0.437724 1.32013 -3.99856e-20)
(0.4734 1.47927 0)
(0.459127 1.42108 4.1841e-20)
(1.04003 2.66646 -1.51739e-20)
(0.98504 2.40499 -8.97537e-19)
(0.94752 2.20628 1.00394e-18)
(0.864874 2.37892 2.42645e-19)
(0.852079 2.48303 0)
(0.92125 2.47772 0)
(0.954531 2.37898 0)
(0.930375 2.37004 -9.38968e-19)
(0.690468 2.44689 -3.78368e-19)
(0.799696 2.43064 -9.76804e-20)
(0.80692 2.40878 7.36121e-20)
(0.703589 2.4 0)
(0.808953 2.39349 0)
(0.769375 2.41019 -3.66981e-19)
(0.764987 2.46161 0)
(0.633887 1.06963 0)
(0.514461 0.852686 -5.61494e-19)
(0.522814 0.929032 -3.2753e-20)
(0.501341 1.06662 0)
(0.488717 0.97341 8.57907e-19)
(0.805867 0.888931 -1.31748e-19)
(0.809143 1.0233 0)
(0.79054 1.00672 1.8026e-19)
(0.679006 1.02239 0)
(0.670628 0.926535 0)
(1.16201 2.75123 -2.18151e-19)
(1.13722 2.80972 -8.85446e-20)
(0.921337 2.33219 7.38165e-20)
(0.898221 2.31304 -7.55271e-20)
(1.1317 2.72881 0)
(1.08385 2.69657 9.06918e-20)
(1.09913 2.4911 -2.94822e-19)
(1.00079 2.25091 -2.79963e-20)
(0.495777 1.32515 0)
(0.51612 1.07486 -1.05125e-19)
(0.596561 1.18496 0)
(0.846746 0.233153 0)
(0.752936 0.180208 0)
(0.658651 0.143121 0)
(0.855942 0.232758 -6.10132e-19)
(0.740517 0.228501 3.5757e-19)
(0.917154 0.0903338 -3.99456e-19)
(0.921699 0.134827 0)
(0.904437 0.152305 1.73362e-19)
(0.835995 0.110889 6.94131e-19)
(0.791048 0.0758751 -4.34971e-19)
(1.09311 3.34244 -6.67706e-19)
(1.16173 3.2664 0)
(1.11107 3.42701 -1.56431e-18)
(0.653776 3.57354 1.30134e-18)
(1.02114 3.07379 1.18948e-19)
(0.534233 0.772802 5.6795e-19)
(0.511624 0.739387 0)
(0.34242 0.323031 -1.41899e-19)
(0.495757 0.628606 8.46208e-19)
(0.568324 0.322745 -1.82452e-19)
(0.524192 0.453715 2.19467e-19)
(0.688881 0.53109 4.51941e-19)
(0.73295 0.5682 0)
(0.670794 0.563972 0)
(0.659518 0.537401 0)
(1.0195 0.616506 8.71322e-20)
(0.972489 0.598544 -4.59981e-19)
(0.982922 0.610779 3.51798e-19)
(1.04672 0.55424 -3.39005e-19)
(1.09245 0.522334 0)
(1.09549 0.604637 -8.91324e-20)
(0.886499 0.425441 -7.59784e-19)
(0.872406 0.409603 -9.83846e-19)
(0.802092 0.41927 5.9893e-19)
(0.814679 0.379323 -6.24731e-19)
(0.853161 0.334996 -4.92466e-19)
(0.798026 0.340247 6.02797e-19)
(1.0266 0.00675076 -4.66015e-19)
(1.02623 0.00686983 9.3911e-19)
(1.02999 0.000978735 5.99678e-19)
(1.03419 0.00160394 -7.20047e-19)
(1.03403 0.011977 0)
(1.02976 0.0120717 -1.17868e-18)
(0.0845682 1.64656 1.01437e-20)
(0.0677976 1.60431 0)
(0.10811 1.70354 4.20776e-20)
(0.119884 1.67512 -3.61886e-20)
(0.0843278 1.57222 -7.61171e-21)
(0.0677354 1.57347 0)
(0.00833281 1.7074 0)
(-0.00696975 1.52721 2.01063e-20)
(-0.00587714 1.47063 -1.80706e-20)
(-0.0129616 1.57478 3.26538e-21)
(-0.00164163 1.89777 3.03422e-20)
(-0.013909 1.95185 -1.20179e-20)
(0.493487 1.35797 -2.62968e-19)
(0.496291 1.35239 2.8763e-19)
(0.451783 1.31219 -1.22193e-20)
(0.428616 1.29027 7.67004e-21)
(0.631423 1.31324 0)
(0.557252 1.40783 1.15396e-19)
(0.558166 1.41066 -1.12319e-19)
(0.488093 1.30099 1.1793e-20)
(0.528447 1.25288 0)
(0.592884 1.21858 0)
(0.664361 2.4104 5.57131e-19)
(0.660016 2.44074 1.27223e-18)
(0.715188 2.45595 -8.75065e-19)
(0.613743 2.42765 -1.99679e-19)
(0.55558 2.521 2.74092e-19)
(0.49574 2.48701 -7.08427e-19)
(0.992271 2.38385 -5.6572e-19)
(1.02355 2.40134 0)
(0.950602 2.18961 -6.17452e-19)
(1.05487 2.6776 0)
(1.05372 2.65843 0)
(0.596543 2.28375 8.23267e-22)
(1.1159 3.06613 7.02953e-20)
(0.992089 2.96192 -1.16938e-19)
(0.314516 0.778397 0)
(0.310335 0.650065 -3.02988e-19)
(0.521537 0.588959 -3.06343e-19)
(0.358195 2.1249 0)
(0.400275 2.74371 -8.37504e-20)
(0.409382 2.47746 0)
(0.731223 0.687949 -7.8597e-19)
(0.798 0.697259 1.0959e-18)
(0.80107 0.661713 -1.03936e-18)
(0.702554 0.645562 -9.94788e-20)
(0.758398 0.606336 -4.12191e-19)
(0.966801 2.74865 -5.32364e-20)
(1.01219 2.75685 -2.11893e-19)
(0.546554 2.19773 4.48524e-19)
(0.600439 1.73003 -3.53786e-19)
(0.699629 1.8487 -4.96817e-19)
(0.974388 2.38955 -1.38453e-19)
(0.974947 2.34264 3.67621e-19)
(0.641093 1.75579 3.36122e-20)
(0.447918 1.29091 1.75176e-19)
)
;

boundaryField
{
    wall-4
    {
        type            noSlip;
    }
    velocity-inlet-5
    {
        type            fixedValue;
        value           uniform (1 0 0);
    }
    velocity-inlet-6
    {
        type            fixedValue;
        value           uniform (0 3 0);
    }
    pressure-outlet-7
    {
        type            zeroGradient;
    }
    wall-8
    {
        type            noSlip;
    }
    frontAndBackPlanes
    {
        type            empty;
    }
}


// ************************************************************************* //
