/*--------------------------------*- C++ -*----------------------------------*\
  =========                 |
  \\      /  F ield         | OpenFOAM: The Open Source CFD Toolbox
   \\    /   O peration     | Website:  https://openfoam.org
    \\  /    A nd           | Version:  6
     \\/     M anipulation  |
\*---------------------------------------------------------------------------*/
FoamFile
{
    version     2.0;
    format      ascii;
    class       volScalarField;
    location    "67";
    object      p;
}
// * * * * * * * * * * * * * * * * * * * * * * * * * * * * * * * * * * * * * //

dimensions      [0 2 -2 0 0 0 0];

internalField   nonuniform List<scalar> 
918
(
0.54141
1.24839
0.00590162
0.541317
-0.0112688
1.21605
-0.494662
0.645482
0.522558
-0.123993
-0.0713377
0.524327
1.07344
0.840241
-1.16036
-0.0198326
0.638018
-0.41232
0.52059
-0.0737553
0.66851
0.529235
0.531701
0.522487
0.586328
0.794518
0.950966
-0.00355216
0.00999247
0.00482118
-0.0125505
-0.0328854
-0.0292369
1.09916
1.1511
1.1743
0.489079
0.323809
-0.389671
-0.443449
-0.422729
-0.512801
0.643231
0.64259
-0.217248
0.647466
0.649705
0.508258
0.521952
0.522787
0.523914
0.522818
0.524098
0.389862
-0.130123
-0.155073
-0.109747
-0.109128
0.0326662
-0.0738373
-0.076761
-0.0696874
-0.0689495
0.438121
0.51888
0.515781
0.528682
0.538006
1.18856
1.16226
1.18833
1.09904
1.11654
1.05031
1.0232
0.861577
0.884874
0.823204
0.809211
-1.61701
-2.56411
-0.582939
-0.306415
-0.0105198
-0.0208111
-0.0190893
0.633369
0.636144
0.636017
0.639164
1.04763
-0.384054
-0.455562
0.521119
0.519639
0.528756
0.52966
0.52462
0.524622
-0.0699743
-0.0689736
-0.0628159
-0.0734643
-0.0735854
0.659634
0.658955
0.521923
0.519367
0.546422
0.570183
0.557774
0.25578
0.59771
0.613055
0.656774
0.803396
0.790745
0.803297
0.926702
0.894055
0.982576
1.00427
0.0135682
-0.00128119
-0.022085
-0.0211086
-0.0212275
0.484817
0.478377
0.506304
0.4927
0.495745
0.228934
0.0786113
0.406083
0.429789
-0.312987
-0.362273
-0.451897
-0.449621
-0.556797
0.609065
0.642172
0.641269
-0.229167
-0.156458
-0.283944
-0.0991938
-0.156218
0.499205
0.50546
0.501533
0.516918
0.511086
0.513511
0.526023
0.523205
0.5248
0.447678
0.582202
0.309878
0.282271
-0.274259
-0.171616
-0.25542
-0.101147
-0.0988173
0.0438602
0.0733492
0.0194001
0.00673951
-0.0908203
-0.0810159
-0.0863987
-0.0675103
-0.0689556
0.429559
0.416511
0.449364
0.456892
0.505605
0.507113
0.511884
0.509593
0.97448
0.997503
1.0034
0.979607
-3.54175
-6.17455
0.0378325
0.197285
-0.00918317
-0.0105697
4.73314e-05
-0.00945068
-0.000490503
-0.0025892
-0.0268866
-0.0271224
-0.0216007
-0.0223429
0.632562
0.633801
1.01725
1.04344
0.98874
0.961653
0.510441
0.512335
0.516967
0.513845
-0.0680808
-0.0677071
-0.0674052
0.651174
0.656426
0.653775
0.214524
0.12574
0.30733
0.338521
0.627371
0.614406
0.624651
0.717127
0.755718
1.02061
1.0449
1.02881
1.04149
1.09236
1.11529
1.08069
0.463371
0.474304
0.468569
0.509299
0.507041
0.508018
0.504589
0.505425
0.504138
-0.0328301
-0.404671
0.479694
0.480946
0.47243
0.475802
0.695921
0.779647
0.637469
0.639501
0.639972
-0.0478853
-0.0950858
0.240395
0.211198
0.368639
0.403246
0.385067
0.949769
0.90983
0.958111
0.933456
0.897854
0.922741
-0.340864
-2.1038
-1.09913
0.597835
0.400851
0.492623
-0.0098319
-0.0262878
-0.0228149
1.03272
1.07225
0.654515
0.84262
0.795099
0.778944
0.805674
0.868407
0.800387
0.835498
0.866739
0.842789
0.559005
0.489809
0.507497
0.855313
0.911325
0.0883164
0.00981195
-0.0134692
0.0977382
0.168992
0.136814
1.04883
0.964942
1.02784
0.519607
0.520557
-0.0172287
-0.0395181
0.524671
0.524382
-0.0209288
-0.0111041
0.508543
-0.928273
0.0903975
0.51418
0.503841
0.520671
-0.105528
0.323725
-0.075828
0.0148143
-0.0199774
0.51506
0.450449
0.408053
-0.00554637
-0.0288489
-0.0675378
-0.20936
0.517345
0.515705
0.520057
0.520875
0.521652
-0.025565
-0.0256046
-0.017576
-0.0615596
-0.057041
-0.066809
0.483949
0.504317
-0.187464
0.52035
0.522451
0.52215
0.516343
0.521288
0.519915
-0.0211229
-0.0253573
-0.0268144
0.194618
0.335315
0.692811
0.76852
0.641068
0.473981
0.18063
0.629153
0.681593
0.606319
0.737454
0.637847
0.644182
0.157503
0.0143241
0.161867
0.0947528
0.51102
0.510451
0.501369
0.498234
0.515494
0.513169
0.51837
0.515594
0.518768
0.519922
-0.061032
-0.0902562
-0.104732
-0.145195
0.28675
0.550585
0.221238
0.2471
0.150749
-0.0687877
-0.0683124
-0.07317
-0.0787919
-0.0361483
-0.0381404
0.00833254
0.0164526
-0.000637875
-0.0266587
-0.0424131
-0.0377529
-0.0447929
0.508296
0.508799
0.514637
0.524006
0.460079
0.463802
0.43008
0.448851
0.435006
0.375019
0.404711
0.381947
-0.016511
-0.00636665
-0.00893894
-0.0288505
-0.0277448
-0.049371
-0.0421359
-0.0403498
-0.0369396
-0.0417884
-0.0615017
-0.0654297
-0.172917
-0.292362
0.96402
0.900833
0.140524
0.507247
0.512911
0.51008
0.514804
0.518005
0.518637
0.516206
0.512693
0.504357
0.50574
0.502625
0.503916
-0.126245
-0.235465
-0.0664087
-0.142081
0.151545
0.617801
0.342622
0.287698
0.272823
0.499618
0.702297
0.614473
0.67264
0.653536
-0.387144
0.0152714
-0.31998
0.226815
0.219901
0.719536
0.76126
0.778592
0.735466
0.691638
-0.0209965
0.551763
-0.0691071
-0.0180836
0.172881
0.0559976
0.642781
0.623019
0.630288
0.639512
0.647446
0.633306
0.619511
0.613285
0.635633
0.63878
0.496556
0.223032
0.180365
0.134413
0.623464
0.518909
0.569156
0.487368
0.506688
0.509076
0.508026
0.488743
0.496113
0.491767
0.498997
0.502712
0.509987
0.510184
0.506026
0.50794
-0.0816692
-0.089628
-0.0686842
-0.123643
-0.128966
-0.172498
-0.0845602
0.0920627
0.0428316
0.232832
0.354339
0.0712988
-0.0514535
-0.0340631
0.0173994
0.187166
0.181027
0.0521084
0.158268
0.117096
0.110702
0.197954
0.21949
-0.046792
-0.0539766
-0.0554932
-0.0581132
-0.00988631
0.102077
0.0800635
-0.02508
-0.032299
-0.0641298
-0.065056
-0.00940373
-0.0413209
-0.0330659
-0.0104986
-0.056639
-0.0308241
-0.020495
-0.0257643
-0.0279788
-0.0269744
0.503734
0.505306
0.505659
0.513042
0.526415
0.5403
0.506774
0.481339
0.472351
0.475455
0.448451
0.45773
0.452894
0.468752
0.490665
0.498916
0.496966
0.499693
0.481754
0.483456
0.468769
0.473396
0.442392
0.423657
0.413394
-0.0537928
-0.0210326
-0.0342841
-0.0475121
-0.0221247
-0.0317161
-0.0284132
-0.00965202
-0.0288927
-0.0247387
-0.0342053
-0.039889
-0.0405009
-0.0749364
0.00645352
-0.175205
-0.224538
-0.277414
0.88602
1.02508
0.812263
0.580017
0.591177
0.83441
0.943227
0.542568
0.75287
0.762789
0.576978
0.867074
0.511171
0.51077
0.508644
0.507817
0.508799
-0.014906
0.0888916
0.100748
0.15986
0.275954
0.381724
0.312427
0.199844
0.332842
0.356984
0.613592
0.622091
0.579518
0.601939
0.600445
0.409926
0.490439
0.528142
0.485077
0.561037
0.592487
0.537691
0.581763
0.502754
0.452509
0.443714
0.399099
0.433707
0.414758
0.389131
0.503056
0.479507
0.490751
0.479987
0.501721
0.528803
0.527151
0.545245
0.565142
0.480951
0.427274
0.444503
0.472872
0.428908
0.446328
0.468107
0.186261
0.0891946
0.252138
-0.0755538
0.0106743
0.050033
0.00731935
-0.0350344
0.27178
-0.366144
-0.312105
-0.989508
0.495948
0.846511
0.591269
0.602858
0.647806
0.635267
0.645977
0.653278
0.654917
0.610673
0.619567
0.625252
0.594934
0.617158
0.61553
0.622812
0.50121
0.40183
0.403433
0.335896
0.196149
0.237406
0.429798
0.361182
0.285942
0.278046
0.452008
0.317237
0.396379
0.447226
0.371146
0.306545
0.53315
0.579276
0.57338
0.544824
0.427363
0.4601
0.462921
0.513015
0.555743
0.580868
0.497559
0.503886
0.504795
0.502053
0.50041
0.503538
0.503821
0.506107
0.506296
0.508879
0.508343
-0.072845
-0.0589953
-0.0759746
-0.0829893
-0.0249366
-0.0356033
-0.00110039
-0.0337405
-0.0344801
-0.0325482
-0.0503166
-0.063682
-0.0593921
-0.0483161
0.0668367
0.0793854
0.0883155
0.0454277
0.273777
0.389401
0.476466
0.360922
0.201454
0.20941
0.272191
0.0120781
0.00865231
-0.0063876
0.0602319
0.0487848
-0.0574118
-0.0615969
-0.0594987
-0.0470563
-0.0391459
-0.0620364
-0.0610424
-0.0502825
-0.0587606
-0.0629037
-0.0653645
0.482991
0.475905
0.479447
0.471885
0.470075
0.487063
0.491772
0.492703
0.498255
0.501026
0.490409
0.496111
0.500429
-0.0290343
-0.04609
-0.0464525
-0.044475
-0.0438908
-0.0423789
-0.0456234
0.127495
0.0332041
0.0693027
-0.000846746
-0.127525
-0.0678661
0.501714
0.496333
0.484972
0.721866
0.557619
0.476455
0.575742
0.696275
0.275762
0.475571
0.310136
0.89019
0.795875
0.941855
0.555802
0.25451
0.422038
0.430977
0.273624
0.397078
0.340494
0.216559
0.251904
0.285825
0.368779
0.255729
0.234854
-0.00751219
0.173556
0.28368
0.265763
0.393005
0.449939
0.263937
0.179574
0.126212
0.599225
0.615234
0.622357
0.595521
0.615107
0.575471
0.562595
0.576534
0.585295
0.584495
-0.624599
-0.213101
-1.41282
-0.825816
-0.374369
0.523719
0.523282
0.749339
0.653564
0.670804
0.652983
0.595828
0.567154
0.610023
0.624184
0.325367
0.410097
0.397793
0.372831
0.318613
0.261619
0.533711
0.541998
0.565816
0.591466
0.566199
0.593739
0.496331
0.496185
0.494826
0.491068
0.489562
0.492915
0.0222877
-0.00499362
0.0273887
0.0137739
-0.00413992
-0.00673921
-0.0348201
-0.0464084
-0.0452998
-0.0427477
-0.0330698
-0.0317545
0.172875
0.111268
0.0228261
0.064253
-0.00288607
-0.0848578
-0.0872906
0.00389182
0.104051
0.0853478
0.391324
0.660848
0.485407
0.652095
0.449661
0.548707
0.467284
0.440628
0.468481
0.372296
0.462545
0.0511179
-0.150397
-0.205518
0.819999
0.779958
0.56135
0.317779
0.200332
0.492813
0.516429
0.476711
0.502512
0.553627
0.53549
0.0230062
0.111382
0.19605
0.501784
0.280156
0.298315
0.288594
0.454202
0.423845
)
;

boundaryField
{
    wall-4
    {
        type            zeroGradient;
    }
    velocity-inlet-5
    {
        type            zeroGradient;
    }
    velocity-inlet-6
    {
        type            zeroGradient;
    }
    pressure-outlet-7
    {
        type            fixedValue;
        value           uniform 0;
    }
    wall-8
    {
        type            zeroGradient;
    }
    frontAndBackPlanes
    {
        type            empty;
    }
}


// ************************************************************************* //
