/*--------------------------------*- C++ -*----------------------------------*\
  =========                 |
  \\      /  F ield         | OpenFOAM: The Open Source CFD Toolbox
   \\    /   O peration     | Website:  https://openfoam.org
    \\  /    A nd           | Version:  6
     \\/     M anipulation  |
\*---------------------------------------------------------------------------*/
FoamFile
{
    version     2.0;
    format      ascii;
    class       surfaceScalarField;
    location    "67";
    object      phi;
}
// * * * * * * * * * * * * * * * * * * * * * * * * * * * * * * * * * * * * * //

dimensions      [0 3 -1 0 0 0 0];

internalField   nonuniform List<scalar> 
1300
(
3.75095
5.62643
-3.33677
3.75095
-7.75928
5.62643
-4.26694
4.26694
-0.425362
0.425362
1.87649
1.87447
-2.42253
2.42253
-1.82753
1.82753
-2.52849
2.52849
-5.24799
5.24799
-5.06918
5.06918
4.70185
-4.70185
-6.33134
6.33134
-0.966597
0.966597
-3.57056
3.57056
3.17252
-3.17252
-1.92235
1.92235
0.0167027
-0.0167027
-0.554085
4.30504
3.19687
3.19687
-1.98635
1.98635
-4.87344
4.87344
6.222
-6.222
5.25516
-5.25516
-1.9184
-2.48977
1.80161
-11.5043
-5.95767
-5.95767
-8.44103
8.44103
-2.8146
2.81183
2.94713
-2.94713
-1.72701
1.72701
-4.28225
0.0153105
-4.28225
4.23832
0.0286128
4.23832
-0.51624
0.090878
-0.51624
3.93893
-3.93893
0.336694
0.0886684
0.336694
3.06726
-3.06726
-1.87686
3.75334
1.8741
-1.87209
6.17713
-1.87886
3.75333
-6.07403
6.07403
-2.67167
0.249141
-2.67167
2.19973
0.222797
2.19973
-6.88767
6.88767
-1.87584
0.0483142
-1.87584
1.84121
-0.0136825
1.84121
2.88774
-2.88774
-2.62634
0.0978554
-2.62634
2.39558
0.132912
2.39558
0.353491
5.27294
-5.97992
8.79175
-5.27294
0.0249515
5.21039
0.0375994
5.21039
-5.10531
0.0361321
-5.10531
5.01372
0.0554606
5.01372
4.79183
-0.0899795
4.79183
-4.82077
0.118919
-4.82077
-3.36065
-4.07715
-6.49131
0.159971
-6.49131
-1.03405
0.0674563
-1.03405
0.858781
0.107816
0.858781
-3.71899
3.71899
-3.927
0.356445
-3.927
3.12749
0.0450246
3.12749
1.86812
1.88283
5.61908
-5.61908
2.44656
-1.86401
-0.0583385
-1.86401
-1.99152
-3.26364
1.99152
-0.0691774
-0.201924
0.218627
-0.201924
3.15711
0.0397601
3.15711
2.21967
0.175905
-2.21967
0.233317
3.29879
-3.29879
1.31739
0.668966
1.31739
-5.55961
5.55961
4.96145
0.0522649
-4.96145
0.0880145
6.157
0.065006
6.157
-6.2075
-0.0145021
-6.2075
2.48624
-4.976
-2.64447
6.14455
0.186791
-6.14455
0.186876
2.91866
0.0284734
2.91866
-2.91971
2.91971
-2.98414
0.037014
-2.98414
-2.14976
0.422752
-2.14976
1.41245
0.314553
1.41245
-4.19574
-0.0865063
-4.19574
-4.08561
0.158611
4.08561
0.152712
1.11615
-1.11615
-0.613965
0.0977248
-0.613965
-4.04311
-0.152629
4.04311
-0.104177
-3.88103
-0.057908
-3.88103
-3.02185
0.0377084
3.02185
0.0454069
3.11209
0.0450191
-3.11209
0.0448308
-1.87099
3.75382
-1.87996
3.75406
-5.69224
-0.381782
-5.69224
6.35875
-0.284726
6.35875
3.09739
0.473162
-3.09739
0.425727
2.04117
0.158556
2.04117
-6.86127
-0.0264002
-6.86127
6.89246
-0.0047899
6.89246
1.93962
0.101552
-1.93962
0.0637764
1.84742
-0.00621009
1.84742
2.91525
-0.027514
2.91525
-2.8816
-0.00614187
-2.8816
2.79281
-2.79281
2.71726
0.075552
-2.71726
0.0909172
-11.1241
11.1096
-0.0362902
-11.0878
5.1741
5.1741
4.24627
0.545553
4.24627
-5.01635
0.19558
-5.01635
2.66316
-5.30763
3.09724
-6.45788
4.67965
-16.184
4.29785
-8.375
6.74111
-6.74111
6.6229
0.118212
-6.6229
0.131591
-1.13711
0.103057
-1.13711
-3.12301
-0.59598
-3.12301
4.36488
-0.645887
4.36488
-3.02773
3.02773
-3.07644
0.0487129
3.07644
0.0510491
1.84917
-0.0017438
-1.84917
-0.0148416
0.251863
0.0848304
-0.251863
0.0499391
3.51983
-0.221046
3.51983
-3.09528
-0.203506
-3.09528
-1.22626
0.0891523
1.22626
0.0911257
-5.80724
0.24763
-5.80724
-11.1814
0.0935945
-11.1438
-6.11391
-6.11391
2.32713
11.1189
-2.89698
0.0153813
2.89698
0.0216767
2.97532
0.052411
-2.97532
0.0556126
-2.85931
0.0664958
2.85931
0.0603962
-2.51805
0.368294
-2.51805
-1.02649
1.02649
-1.175
0.148518
1.175
0.237449
1.41545
-0.299301
1.41545
0.742067
0.116714
-0.742067
0.128102
-3.82837
-0.0526594
-3.82837
6.59645
-0.237695
6.59645
-2.96646
-0.128822
2.96646
-0.0512061
-0.0349775
11.1446
-5.13912
0.0338077
5.13912
-11.2096
11.2434
-3.22416
0.706106
3.22416
1.02212
5.28555
0.274065
-5.28555
0.269199
6.83221
0.060256
-6.83221
0.0910946
-2.63168
-0.491329
-2.63168
-5.09754
-0.594704
5.09754
-0.732659
-11.4815
-0.203267
11.6848
-11.426
6.01051
0.146489
-6.01051
11.3899
-0.995007
-0.121141
0.995007
0.0314785
1.75459
-0.339142
1.75459
3.73522
-0.215386
-3.73522
-0.0931475
-6.75265
-0.108618
6.75265
-0.156205
-2.18324
-0.448441
2.18324
-0.428653
-4.26737
4.30713
1.90976
-2.33668
-2.63932
-5.60032
1.85524
1.89859
4.3018
-10.1702
-6.01378
-9.98333
7.21522
-6.94602
-9.33167
9.24169
7.91757
-7.97548
-5.77754
5.82859
6.48458
-6.43917
1.87941
1.87393
8.05877
-7.80963
-15.6828
15.301
7.59191
-7.5436
15.8372
-15.8636
-17.8843
17.9445
-5.70486
5.80271
-6.74228
6.73614
-6.97846
6.92725
-2.79761
-3.66028
13.1427
-12.9827
8.57683
-8.63517
-8.66303
9.01947
3.3846
0.922536
3.42962
-1.88182
3.76123
-1.87151
3.78127
2.74363
-5.54124
2.56401
-5.20333
4.36035
4.21649
-4.29117
-1.30915
-5.92849
5.95697
-5.809
5.86939
9.16596
-9.15065
-1.88498
3.75891
-1.86908
3.76767
-3.42311
-2.35444
3.37808
0.923715
8.0833
5.05941
-8.27009
-1.71324
-8.02043
7.80505
-8.21382
8.01032
-0.437378
5.83809
-5.40071
4.43606
-1.65325
7.49133
5.56198
5.75756
5.86088
-5.58682
1.08514
-6.48585
-6.39784
-2.32324
2.42097
2.21038
-2.12171
6.13111
1.78647
6.02693
-5.79953
-2.17595
-5.85219
3.81992
2.00867
3.86863
4.08203
2.40255
4.11974
3.0297
-3.03664
0.00694449
-3.05921
6.08891
0.722269
-5.41365
-4.48994
4.98905
3.06971
5.21185
-5.58576
-2.22387
-5.16003
-9.58939
-6.09336
-10.1841
10.0928
5.20822
9.80802
-11.9665
11.8103
4.88066
2.71125
4.86697
-4.94962
-2.59397
-4.88585
11.6803
-2.64534
-9.03499
-10.3399
-7.54437
10.3447
5.49253
10.9856
6.95895
11.0767
4.43144
7.24888
-9.92398
2.37961
-3.86697
-1.83789
-3.77605
3.65669
2.14602
3.7896
-4.21871
-2.52357
-4.20333
-4.29484
-2.68362
4.32236
2.41378
-4.41613
-3.79769
4.54495
2.3823
4.0582
-10.072
4.3168
-7.97707
-9.21611
-3.76663
-9.08451
3.53841
2.60075
-6.13917
-2.00282
8.5153
-4.29881
7.20615
-5.20283
-3.43234
-5.21767
-6.95593
-1.7071
-6.79732
-8.92965
8.43832
-9.20772
8.56184
12.5284
-5.64214
-6.88624
-3.96698
-2.47219
3.92215
-0.492535
-3.71005
3.717
0.0511727
3.83244
4.75498
4.26244
-3.88194
-1.92706
-3.82632
3.82082
2.04857
3.88732
6.84027
2.32568
6.86889
-6.60126
-2.54938
-6.68777
9.10712
-8.68437
2.80045
-2.71129
5.37255
2.63777
-5.1515
-2.86893
6.24116
-3.20727
-3.03389
-12.3447
10.8021
1.54265
-4.85338
-0.417316
-0.434018
-5.57197
-3.7597
5.45305
0.304504
11.1066
7.34687
-5.5156
5.76323
6.16916
6.22142
-0.176415
5.89464
-5.18854
5.27379
-2.69933
-2.57446
5.46719
-5.61982
-1.22058
-5.53566
4.31508
0.407109
1.53192
-1.3133
-1.80652
-0.516719
-1.67842
1.23761
0.972764
1.32244
0.941188
1.47978
-2.92573
0.551052
2.37467
-1.98454
-1.57066
-3.78972
-1.1512
4.94092
5.72353
2.08152
-5.63038
-0.221812
2.57859
-2.47077
-0.813703
-2.97601
2.22863
-3.04233
-3.47861
-1.92681
5.40542
-3.36867
-0.457653
3.31626
0.552374
-3.82807
-2.10042
3.79106
0.328681
-3.12874
6.1902
-3.06146
-5.0558
2.52894
3.55997
4.53762
-4.79003
2.44911
2.34092
-1.23007
4.2621
0.949749
4.42066
-7.04858
4.82471
5.72666
3.29281
-6.19982
1.03979
-6.00878
8.56396
-7.41657
-1.14739
4.1222
4.44176
7.03516
5.49321
-5.71542
12.7506
-1.167
-6.24957
7.17579
-3.88298
4.86984
-8.75281
-10.363
4.11348
-9.20548
11.0682
-1.86274
-3.60893
-8.35755
12.8144
-1.21278
-11.6016
8.59524
-4.31643
-4.37227
8.6887
-6.96177
6.96624
-2.00155
-4.96469
-10.1537
-5.70991
10.2623
1.54795
-9.92637
12.306
-2.67749
4.1623
0.704671
4.15609
3.34864
-5.47736
2.12872
3.61313
-5.61468
2.06636
-7.54372
-6.76083
12.1021
-5.34131
-10.5275
-9.55489
-0.972571
2.55241
9.75357
-9.51135
7.44454
2.06681
3.29667
0.590644
-3.37223
-0.403826
0.235194
4.51303
-4.74822
4.0248
4.2007
3.22235
1.29068
3.84924
2.10772
-3.87092
-0.332412
-4.16812
1.4845
-1.75433
-3.69389
5.17839
-4.06203
0.368138
-2.74462
-3.49156
6.23618
-4.58251
3.03643
3.15377
5.085
-4.91292
1.42136
-2.39067
-2.52225
2.64067
-4.395
2.00008
3.17832
4.38238
0.584687
5.90734
6.1948
-8.50809
0.531018
11.2542
-9.54097
2.4807
8.59596
-9.92523
0.37034
-8.71417
0.977368
-5.27618
-5.1618
5.21941
-6.92651
-3.5334
6.24432
0.624572
-6.39703
-0.400294
-6.06912
-2.86053
-6.51756
-3.04235
-6.16537
-8.75777
-1.67697
-7.0808
6.76135
-6.71355
-3.47055
7.44621
1.11563
-7.48209
7.36095
-7.54109
7.20195
0.0948612
3.62214
4.3573
1.88511
-2.39207
4.27718
-5.06973
7.39541
-8.73282
3.66309
4.22553
-6.77491
-4.50729
5.06168
4.04544
5.37623
8.92776
-10.384
1.45619
-10.6579
11.9973
-1.33941
-16.4401
5.78225
-7.51236
2.43287
0.36758
2.53592
0.558168
2.4979
-3.05606
-2.15312
-2.062
-2.44142
-3.49567
5.93709
1.07033
-3.4695
2.39917
-3.57805
4.64838
-0.0660708
-3.40343
5.18929
-2.69139
5.55687
-3.64412
1.91275
3.54977
5.84485
-2.29508
4.42218
-1.78442
1.94242
-4.2375
-1.55325
-2.95185
5.09787
-3.28433
3.65247
-0.34965
4.00212
-4.04798
0.840714
-0.825636
3.37507
3.60838
4.33351
-3.04282
2.93788
-4.7223
-1.29962
-4.13761
-0.959293
-0.187065
-3.78716
3.97423
6.00992
-6.19698
-5.28519
9.52936
-4.24417
7.70662
-5.44232
-2.26431
-4.2945
-4.38988
3.9262
1.96844
9.67506
0.179353
-5.62167
-5.00919
-3.98707
3.09808
2.17572
-1.75841
3.30106
2.19243
-0.660504
0.396871
0.925574
1.76844
-1.37157
0.337784
1.43066
-0.975513
1.72282
0.85577
-1.83953
0.161113
-1.28667
3.5153
1.088
-2.06077
0.689194
0.895151
-3.59448
5.06704
-2.71775
-2.34929
5.96219
1.14637
-3.86411
4.38929
-3.98218
2.43777
-3.58897
-1.42635
-5.40853
-3.62206
-2.49143
4.8906
-3.44566
5.52718
1.41198
-5.30536
6.71735
-3.63003
1.70321
-3.06371
3.91948
-1.01836
-2.04535
2.8838
2.52163
-3.12401
0.147999
-0.240215
2.42043
-2.66065
-0.621902
-2.60644
-4.57591
4.90459
-2.10383
4.55294
2.17335
-1.91747
6.4704
1.8078
-3.72527
-3.24799
-3.70565
-1.38435
3.15327
-0.604625
-4.28122
-5.56931
4.17967
0.240989
-7.06669
7.9269
-0.860202
-3.99698
-0.827727
4.94993
-6.09622
0.48154
-4.02986
3.89704
4.84678
5.08777
-11.3614
-0.240258
-6.15315
1.11524
-7.26839
5.55699
-3.53667
7.65015
-10.3295
6.85899
-9.21391
6.50276
-0.765627
6.25685
-4.12813
2.77814
-8.48804
-6.94009
5.53132
-2.82006
6.23599
-3.19115
9.42714
-5.86863
5.32343
4.10371
-1.04139
-4.17628
-5.3015
4.26011
0.0219308
4.17802
4.98702
-2.87929
4.6546
2.26397
-4.65464
-2.13103
-6.48758
1.83293
-3.33381
-1.9222
3.75514
3.1628
3.75344
1.23289
-3.34962
7.23485
-8.20742
-1.89354
-3.26826
5.28015
-1.02004
3.42837
-6.69663
-1.84781
4.75225
-0.728261
-4.02399
0.889888
-4.42329
1.67008
-6.09337
5.25643
-5.65673
2.25446
-9.76682
-5.22763
-5.19615
-2.27979
-5.2613
-7.58259
5.3028
-1.80035
5.5606
-8.52305
7.79479
-3.47423
8.77703
-5.46364
-1.05392
5.8923
1.30965
10.0867
0.15631
-4.6636
-1.93683
3.74213
-1.8053
1.16125
-3.63085
0.111279
2.48687
3.47532
-6.80194
0.0270332
-4.63657
-3.91134
7.95678
5.61803
11.6279
1.24399
9.14438
-1.1876
10.3884
4.18864
4.42608
-3.00994
4.46613
0.964289
4.62738
-0.898579
2.81133
1.63734
1.7048
0.765974
2.30406
1.30432
3.14477
0.088709
-1.97329
4.63631
-8.62338
-0.985355
-8.07783
1.16386
5.42927
-4.26542
2.88727
-0.711551
1.08197
-0.154531
-1.2428
1.39733
-2.72899
-1.9033
-0.472645
-1.64463
2.33382
1.87068
-1.86118
-0.867818
0.332733
-3.95479
3.25623
-3.10823
-0.586607
6.13074
-2.89241
0.231765
-1.1892
-2.37468
-2.89139
2.73028
6.1742
0.296203
3.11274
5.20079
3.10037
0.221074
3.82013
-5.68288
-3.72359
-5.92313
-0.36614
4.58379
1.74694
8.00663
5.85065
4.83061
-1.86602
-10.0734
6.51164
-2.04551
5.17223
-1.14824
-4.94513
5.07193
2.32348
-5.6965
0.0397753
-4.90535
-6.95086
-0.481799
8.27659
-9.60489
8.55097
5.69044
1.39035
-4.43954
-0.75661
4.29102
0.135062
10.5234
-0.910468
-7.06829
7.97876
-4.51881
3.53345
0.681104
2.61996
2.07844
1.36688
-5.70141
-9.96682
-2.05453
-1.53996
-4.40382
0.5371
-2.40777
6.07539
-2.54194
3.81109
5.43682
6.51879
-2.05023
-4.14676
6.2944
-2.48331
4.03548
)
;

boundaryField
{
    wall-4
    {
        type            calculated;
        value           uniform 0;
    }
    velocity-inlet-5
    {
        type            calculated;
        value           uniform -3.75095;
    }
    velocity-inlet-6
    {
        type            calculated;
        value           uniform -5.62643;
    }
    pressure-outlet-7
    {
        type            calculated;
        value           nonuniform List<scalar> 8(3.33677 7.75928 4.40816 9.70273 7.4378 5.13071 5.7604 8.9775);
    }
    wall-8
    {
        type            calculated;
        value           uniform 0;
    }
    frontAndBackPlanes
    {
        type            empty;
        value           nonuniform 0();
    }
}


// ************************************************************************* //
