/*--------------------------------*- C++ -*----------------------------------*\
  =========                 |
  \\      /  F ield         | OpenFOAM: The Open Source CFD Toolbox
   \\    /   O peration     | Website:  https://openfoam.org
    \\  /    A nd           | Version:  6
     \\/     M anipulation  |
\*---------------------------------------------------------------------------*/
FoamFile
{
    version     2.0;
    format      ascii;
    class       volVectorField;
    location    "67";
    object      U;
}
// * * * * * * * * * * * * * * * * * * * * * * * * * * * * * * * * * * * * * //

dimensions      [0 1 -1 0 0 0 0];

internalField   nonuniform List<vector> 
918
(
(0.985049 -0.000714735 0)
(0.00534217 2.96624 0)
(-0.00219194 0.881484 0)
(0.979574 0.00196165 0)
(-0.0137776 2.0646 3.2397e-20)
(-0.00709372 2.94855 -2.60691e-18)
(0.816721 1.11933 4.36784e-19)
(0.131644 0.0733467 -1.4376e-20)
(0.999922 -0.000244473 0)
(0.0904046 0.65845 0)
(0.0128796 0.400046 0)
(0.733087 -0.00148971 0)
(0.010196 2.93159 0)
(0.00339477 2.79441 0)
(-0.00219077 3.18106 8.18248e-19)
(-0.0137989 1.92527 1.9094e-20)
(0.293007 0.0334331 9.95074e-19)
(0.231814 1.10678 3.4747e-19)
(0.96436 0.00674246 0)
(-0.000261304 0.405995 0)
(0.0122668 0.0778524 -6.73416e-19)
(1.00183 -0.00456029 0)
(0.999851 -0.00892727 0)
(0.975166 -0.00605217 0)
(0.593467 0.0253635 0)
(0.0215455 2.64351 0)
(-0.0123326 2.91192 9.56513e-19)
(-0.00573113 0.934272 0)
(-0.0304678 1.16846 0)
(-0.0038096 0.90458 0)
(-0.0225806 2.59486 0)
(-0.0047072 2.11536 -2.58763e-20)
(-0.00977935 1.89815 0)
(-0.0221541 2.9876 -9.40619e-23)
(-0.0164934 3.00551 2.02565e-18)
(0.00230986 3.0006 0)
(0.871911 -0.009748 0)
(0.375798 0.915512 1.69978e-19)
(0.815605 1.13751 -5.41379e-19)
(0.948328 1.00304 5.54585e-19)
(0.678653 1.22026 -1.00117e-19)
(0.692051 1.18149 5.72022e-19)
(0.162174 0.133819 1.40244e-20)
(0.154426 0.0716933 0)
(1.16229 0.53061 0)
(0.135415 0.117127 6.36791e-20)
(0.109861 0.0636222 -6.60799e-20)
(0.920545 -0.00704774 0)
(1.00026 5.9511e-05 0)
(0.999908 0.000320192 0)
(1.0037 -0.00728145 0)
(1.00088 -0.000947237 0)
(1.00011 -6.71058e-06 0)
(0.0920016 1.84448 -7.39431e-19)
(0.0328234 0.855579 0)
(0.122733 0.749059 0)
(0.016141 0.800176 0)
(0.0506842 0.577652 0)
(0.00407015 2.02983 0)
(-0.00796367 0.728598 0)
(0.00670498 0.428254 0)
(-0.00677618 0.724848 0)
(0.00734942 0.403386 0)
(0.843452 -0.0156445 0)
(0.840593 0.0298817 0)
(0.760313 -0.00430326 0)
(0.799343 0.03375 0)
(0.705388 -0.000192794 0)
(0.0139567 3.0002 9.6804e-19)
(0.0111832 3.00597 0)
(0.00627657 3.00389 0)
(0.0118719 2.9971 1.10022e-23)
(0.00827676 2.95872 -1.43875e-18)
(0.0121852 2.9829 0)
(0.00901663 2.90492 0)
(0.0210823 2.93132 2.24159e-24)
(0.00413992 2.82426 0)
(0.0262591 2.91891 0)
(-0.000774913 2.74518 0)
(0.306423 3.57685 0)
(-0.122349 3.65973 0)
(0.149647 3.27188 -7.61529e-19)
(0.00357269 3.00863 0)
(-0.0300866 1.99051 0)
(-0.00720092 2.17813 -1.8832e-20)
(-0.00958379 1.9376 1.85781e-20)
(0.35455 0.14104 -3.45652e-19)
(0.317259 0.00661792 -3.36261e-19)
(0.307725 0.161449 -1.033e-18)
(0.257652 0.0529014 -6.72045e-19)
(0.262973 1.02097 0)
(0.330427 1.23754 -3.59476e-19)
(0.412713 1.14912 5.93372e-19)
(0.987741 0.00815091 0)
(0.943263 0.00578529 0)
(1.00028 0.000671597 0)
(1.00254 0.00906622 0)
(1.00311 0.00898788 -2.66517e-18)
(0.992136 0.00942384 2.01393e-18)
(-0.0207084 0.741746 0)
(0.000468908 0.415002 0)
(-0.0510728 1.01848 0)
(-0.0279736 0.795313 0)
(-0.008205 0.406867 0)
(-0.0222722 0.118053 2.0866e-19)
(0.0619085 0.072636 0)
(0.993624 -0.00769362 0)
(0.954047 -0.00648367 0)
(0.741328 0.0420226 0)
(0.674277 0.0236107 0)
(0.658912 0.00670624 0)
(0.979376 -0.0028253 0)
(0.589934 0.0610549 0)
(0.444846 -0.0230329 1.51364e-18)
(-0.0405344 2.86082 7.55786e-19)
(0.0336151 2.91442 0)
(0.0428211 2.89232 0)
(0.00317311 2.70186 0)
(-0.00871796 2.98624 9.1609e-19)
(-0.0142231 2.89467 0)
(-0.0111038 2.99164 -2.81911e-18)
(-0.0116097 2.92949 9.59836e-19)
(-0.0430169 1.34319 0)
(-0.0145163 1.3712 0)
(-0.00781454 2.14005 7.30111e-22)
(-0.00765389 2.0992 0)
(-0.0172734 1.90931 0)
(0.938862 -0.00521279 0)
(0.857251 -0.011137 0)
(0.863465 0.00478225 0)
(0.949655 -0.00615092 0)
(0.883659 -0.00808158 0)
(0.499427 1.1156 -2.1552e-19)
(0.546706 1.18552 0)
(0.337696 0.850083 3.26977e-20)
(0.282068 0.714562 0)
(0.916098 1.03354 -1.56227e-19)
(1.03821 0.84377 3.13535e-19)
(0.390505 1.31611 0)
(0.541547 1.27175 0)
(0.59478 1.19926 0)
(0.103243 0.181385 -3.02217e-19)
(0.183506 0.146669 0)
(0.171809 0.083867 1.86854e-19)
(1.00148 0.897846 0)
(1.07724 0.746067 0)
(1.1067 0.681325 -2.4943e-19)
(1.14371 0.592536 0)
(1.19956 0.391005 4.69136e-20)
(0.957492 -0.00710259 0)
(0.962719 -0.00811124 0)
(0.900905 -0.00736879 0)
(0.983927 -0.00812393 0)
(0.974423 -0.00803219 0)
(0.936541 -0.00656888 0)
(1.0002 0.00250394 0)
(1.00077 0.00123906 0)
(1 0.000761917 0)
(0.0441728 2.08792 4.11649e-19)
(0.144784 1.78768 0)
(0.0192114 2.20321 6.24945e-19)
(0.0524597 1.89354 -5.22626e-19)
(0.165766 1.08322 -2.85117e-19)
(0.0503406 0.938167 0)
(0.120565 0.937006 0)
(0.00221494 0.766711 0)
(0.0251603 0.515461 0)
(-0.00332218 2.25821 -4.59971e-22)
(0.0189308 2.03525 0)
(-0.0050259 2.25931 -1.13889e-20)
(0.00249015 2.04131 1.00139e-20)
(-0.00669267 0.74164 0)
(-0.00891195 0.729341 0)
(0.00879609 0.463984 0)
(-0.0130612 0.72585 0)
(0.00708557 0.409756 0)
(0.939369 0.0138095 0)
(0.856171 -0.0116372 0)
(0.928575 0.00483574 0)
(0.846137 -0.0127878 0)
(0.81244 -0.00385528 0)
(0.896952 0.024356 0)
(0.872245 0.0285551 0)
(0.787083 -0.00643714 0)
(0.0102596 3.06733 -9.02554e-21)
(0.0152721 3.05899 0)
(0.0123338 2.97033 0)
(0.00758654 2.8766 0)
(0.896327 3.97148 0)
(1.19054 3.36743 9.36285e-19)
(0.0811114 3.09117 0)
(-0.017424 2.91858 0)
(-0.0151449 1.39722 0)
(-0.0348879 1.69542 0)
(-0.0237298 1.53026 0)
(-0.0329229 2.55489 -1.37593e-20)
(-0.0178649 2.24872 0)
(-0.0227218 2.39399 0)
(-0.000935687 1.96625 3.64943e-22)
(-0.00523746 2.25282 -2.35245e-20)
(-0.00623653 2.21564 -1.90761e-20)
(-0.00592673 1.95119 0)
(0.39419 0.11778 5.3132e-19)
(0.351446 0.000815949 -5.21248e-19)
(0.231501 1.59014 0)
(0.288179 0.765512 -3.26825e-19)
(0.180773 1.68733 -1.07412e-18)
(0.24527 1.22534 1.07511e-18)
(0.901704 0.00592792 0)
(0.967066 0.0106505 0)
(0.974917 0.00984719 0)
(0.923007 0.00588704 0)
(-0.020234 0.733369 0)
(-0.0171257 0.735766 0)
(0.00422652 0.407159 0)
(0.111078 0.10867 5.86868e-19)
(0.0926914 0.0932085 -6.9475e-19)
(0.0739711 0.0613941 0)
(1.10636 0.0901888 2.4653e-20)
(1.09004 0.0424054 0)
(1.01833 0.0436312 0)
(0.913489 -0.00160668 0)
(0.442698 0.0960458 0)
(0.503504 0.0795571 -2.41936e-18)
(0.394273 -0.00534765 9.05431e-19)
(0.0107663 2.97707 7.99515e-19)
(-0.0330867 2.86135 4.56244e-20)
(0.00821218 3.05345 -1.90364e-20)
(0.0156967 3.04319 7.13267e-19)
(-0.0118774 3.00003 3.1551e-20)
(-0.0122814 2.95229 -1.27259e-22)
(-0.0150327 3.01332 -5.88909e-19)
(0.0144156 3.02654 4.15374e-19)
(0.00758481 3.03494 -6.75596e-19)
(0.934686 0.00211852 0)
(0.939491 -0.00112965 0)
(0.848101 -0.0111735 0)
(0.95635 0.0117724 0)
(0.942394 0.0133354 0)
(0.881709 0.00542203 0)
(0.915101 0.0191936 0)
(0.925072 0.0155031 0)
(0.838105 0.000620882 0)
(0.672183 1.41423 1.03626e-20)
(0.690223 1.5248 0)
(0.118817 0.29306 6.88555e-20)
(0.212807 0.653724 5.4434e-19)
(0.240256 0.693427 -3.19349e-19)
(0.215174 0.497235 6.3401e-19)
(0.339674 0.831387 1.5981e-18)
(0.134609 0.236549 3.82882e-19)
(0.263253 0.171448 7.12827e-19)
(0.218756 0.164293 1.83655e-19)
(0.218725 0.0739502 3.50091e-19)
(1.19128 0.445588 8.75036e-20)
(1.21685 0.245458 8.49812e-20)
(0.00869167 2.2463 2.42944e-19)
(0.0394214 1.95665 0)
(0.972646 0.0329783 0)
(0.946642 0.0191713 0)
(0.870877 -0.0152767 0)
(0.0124768 3.07486 0)
(0.0168929 2.94404 1.262e-18)
(0.0139847 2.95693 0)
(0.00582558 2.84982 -1.25251e-18)
(0.0089605 3.09055 3.08441e-19)
(0.0117858 3.0828 0)
(0.710091 1.82114 -1.69406e-19)
(1.23495 2.62621 5.72964e-19)
(0.69488 1.99925 -1.39141e-18)
(0.0222965 2.9766 -6.96738e-19)
(0.0403926 2.99868 0)
(-0.0383201 2.87922 0)
(-0.00630017 2.23784 -1.27721e-20)
(-0.00492664 2.25816 4.47433e-20)
(-0.000596021 2.00218 -7.09364e-21)
(0.267999 1.40222 1.0378e-18)
(0.286509 0.568196 -7.12224e-19)
(0.0720515 2.0046 7.53299e-19)
(0.121336 1.87867 -9.0578e-19)
(0.205887 1.53803 1.02512e-19)
(0.0060105 3.12036 -1.7179e-18)
(0.0129505 3.12084 1.89034e-18)
(-0.00515148 2.9805 8.58272e-19)
(-0.00159431 2.97519 -8.23381e-19)
(-0.017669 2.87728 -8.74186e-19)
(0.0123796 3.10032 -2.29307e-18)
(0.00531977 3.10527 2.32542e-18)
(0.266464 0.698298 0)
(0.218014 0.659323 -1.16035e-18)
(0.0739237 0.212705 5.10509e-19)
(0.346528 0.951292 1.13311e-18)
(0.198921 0.280829 -1.74526e-18)
(1.19653 0.175593 5.07454e-20)
(1.21356 0.304574 0)
(1.192 0.120905 5.97333e-21)
(-0.000833657 2.26617 -1.24394e-21)
(0.00379531 2.25095 0)
(0.0311035 1.99259 0)
(0.312862 1.31827 -3.72322e-19)
(0.353938 1.17742 -8.07044e-19)
(0.232421 0.391841 1.44389e-18)
(1.00644 -0.00968463 0)
(1.00774 -0.00778613 4.89919e-19)
(-0.0376617 1.32549 0)
(-0.0457284 1.32927 0)
(1.00244 0.00327434 1.34334e-21)
(1.0032 0.0078132 1.00569e-18)
(-0.0241563 2.54115 1.74321e-20)
(-0.0272951 2.58386 0)
(0.0404539 3.17303 4.96808e-19)
(0.374895 3.54217 0)
(1.1569 0.691996 -5.38973e-20)
(1.01182 0.010664 -2.83662e-21)
(1.02085 -0.0090159 0)
(1.00158 0.000278247 1.56168e-22)
(0.117291 1.37459 0)
(0.13861 2.58679 0)
(0.0197578 1.32162 0)
(-0.000850266 2.63534 6.66407e-22)
(-0.0219193 2.5843 -7.0833e-21)
(0.998624 0.0299137 3.33621e-21)
(1.06297 0.00584112 0)
(1.10003 0.0284752 0)
(-0.0333049 1.74261 0)
(-0.0191704 2.5848 0)
(-0.0118376 1.317 0)
(0.309799 1.48773 -1.67513e-19)
(1.01151 -0.00905948 0)
(1.00971 -0.0129875 0)
(1.00228 0.000940895 6.27591e-19)
(1.00548 -0.00491356 -7.39638e-19)
(1.00113 -0.000864862 0)
(-0.0210873 1.46273 0)
(-0.00970102 1.38441 0)
(-0.0162255 1.42458 0)
(-0.0142253 1.30408 0)
(-0.027639 1.29322 0)
(-0.0210043 1.27261 0)
(1.03564 -0.00430997 0)
(1.01882 0.0150381 -8.95227e-22)
(0.810839 1.31001 2.73703e-19)
(1.00242 0.000383725 -6.2694e-19)
(1.00338 0.00445257 7.48407e-19)
(1.00127 0.0020968 0)
(1.01112 0.00963451 6.24619e-19)
(1.00686 0.00745876 -7.60139e-19)
(1.00715 0.0111287 0)
(-0.0242517 2.61254 0)
(-0.0274745 2.59188 -2.9611e-20)
(-0.0243556 2.60589 2.08323e-20)
(1.24162 0.272809 5.36791e-19)
(1.16326 0.0888804 0)
(0.0444262 3.09101 -9.84204e-19)
(0.0518924 2.8734 -6.96241e-20)
(0.103609 3.20198 1.31492e-18)
(0.121883 3.21397 -2.83732e-19)
(0.141838 3.25795 0)
(0.0228999 3.13795 2.70937e-19)
(0.0615099 3.1619 9.80487e-19)
(0.0616822 3.17908 -5.06674e-19)
(0.0275002 3.12918 0)
(0.577203 0.289737 0)
(0.519702 0.307809 0)
(1.1383 0.723101 1.23832e-19)
(1.10371 0.859154 -1.10283e-19)
(1.19654 0.608571 0)
(1.2236 0.543529 0)
(1.01572 0.012025 -1.16043e-18)
(1.0147 0.012766 1.45907e-18)
(1.02573 -0.00873436 0)
(1.02406 -0.0103 0)
(1.00676 0.00318175 0)
(1.01089 0.0042078 0)
(1.00424 0.00220904 0)
(1.00939 0.00636133 0)
(1.00686 0.00504585 0)
(1.00441 0.00526911 0)
(0.10658 1.37434 0)
(0.0948678 1.33308 0)
(0.140497 1.41826 0)
(0.146714 1.40144 0)
(0.145181 2.61146 0)
(0.18513 2.68081 -4.1577e-19)
(0.109155 2.67144 0)
(0.0826379 2.67039 1.68527e-19)
(0.0282666 2.67755 -1.61751e-19)
(0.0129833 1.32203 0)
(0.0192524 1.25228 0)
(0.0146373 1.33579 0)
(0.0353467 1.27351 0)
(-0.000418923 1.99511 3.19624e-20)
(-0.0216398 2.61244 -3.46116e-20)
(-0.00729964 2.67785 -2.37306e-20)
(-0.01938 2.6907 0)
(-0.0238572 2.61883 2.41997e-20)
(-0.0225122 2.61426 3.45643e-20)
(0.00672628 1.99203 -2.44801e-20)
(-0.00974007 2.40383 4.64369e-20)
(-0.0146058 2.42744 2.69007e-20)
(1.01136 0.0394567 1.17528e-18)
(1.00368 0.0203265 -1.46626e-18)
(1.00247 0.0475624 -1.20465e-18)
(0.973977 0.0357209 1.51791e-18)
(1.06463 0.00916005 0)
(1.04986 -0.00647107 0)
(1.09257 0.0374829 0)
(1.07575 0.0149248 0)
(1.0745 0.000579302 0)
(1.1411 0.0790808 0)
(1.11554 0.0460246 0)
(1.11868 0.0374608 0)
(-0.0294743 2.43573 3.2656e-21)
(-0.0196528 2.02225 0)
(-0.0205855 2.22191 0)
(-0.0213086 2.60563 -1.76394e-20)
(-0.0181621 2.61639 5.50401e-22)
(-0.00102049 1.58359 -5.2495e-20)
(-0.0100916 1.50639 5.36199e-20)
(-0.0200227 1.39737 0)
(-0.0240476 1.40318 0)
(-0.0309602 1.39444 0)
(-0.0080314 1.31863 0)
(0.00266897 1.24584 0)
(0.385584 1.51258 2.7709e-19)
(0.43403 1.51651 1.49346e-19)
(0.592759 2.46686 -2.50505e-19)
(0.381012 2.55577 7.28644e-19)
(0.350669 2.05378 7.10055e-20)
(1.02069 -0.00801226 0)
(1.01579 -0.00936457 0)
(1.01484 -0.0132214 0)
(1.00772 -0.000569003 0)
(1.00486 -0.00067303 0)
(1.00799 -0.00448389 0)
(1.00954 -0.00344753 0)
(1.01465 -0.00429445 0)
(1.01955 0.0161987 1.13932e-18)
(1.01722 0.0147071 -1.4407e-18)
(1.01986 0.0185425 -1.14854e-18)
(1.01734 0.0164978 1.44007e-18)
(0.767281 1.35703 0)
(0.706421 1.39196 2.36809e-19)
(0.874022 1.23792 9.4438e-20)
(0.91165 1.19717 -1.25337e-19)
(1.16499 2.61368 2.91743e-19)
(0.753426 0.125928 5.9021e-19)
(1.17157 0.107311 0)
(1.21387 0.2014 -4.3554e-19)
(1.19505 0.15418 -1.81237e-20)
(1.01351 0.164555 0)
(0.0779649 3.01877 3.57347e-19)
(0.0833001 2.90257 -1.16008e-18)
(0.0260699 2.35757 7.34021e-19)
(0.14382 -0.240498 -3.38341e-19)
(0.342804 3.44594 -2.44666e-19)
(0.193382 3.34052 0)
(0.224179 3.39747 3.18706e-19)
(0.222969 3.07684 -1.23212e-18)
(0.255913 3.19584 0)
(0.00723233 3.12236 5.10403e-20)
(0.0174062 3.13114 -5.87216e-19)
(0.0166551 3.12702 8.64291e-19)
(0.0336715 3.14 0)
(0.0315817 3.14983 0)
(1.2584 2.57794 0)
(0.533227 0.790768 -5.30224e-19)
(1.02423 1.03266 -7.5228e-21)
(0.989342 1.08571 0)
(0.858012 0.969235 -1.09698e-19)
(1.08183 0.908034 2.66337e-20)
(0.340097 0.312238 -8.33857e-19)
(0.657759 0.32151 -2.17105e-20)
(0.549516 0.22176 3.95121e-19)
(0.551938 0.322996 2.88784e-20)
(0.4392 0.276945 -1.15678e-18)
(0.615413 0.321445 0)
(0.69629 0.424687 6.63554e-19)
(0.699195 0.430936 0)
(0.586914 0.328714 0)
(0.503122 0.254985 0)
(0.796951 0.6524 3.99285e-19)
(1.25263 0.306303 -4.36703e-19)
(1.24511 0.437708 0)
(1.24548 0.393661 0)
(0.691994 0.185193 6.02308e-19)
(0.845843 0.554899 -3.74605e-19)
(0.767054 0.51744 6.69627e-19)
(0.966041 0.449754 -6.77251e-19)
(1.0184 0.0146446 7.72131e-19)
(1.01708 0.013628 -7.79415e-19)
(1.01599 0.0141537 0)
(1.03704 -0.00453387 0)
(1.03044 -0.00770388 -7.31471e-19)
(1.02865 -0.0105804 7.23877e-19)
(1.02474 0.0109515 0)
(1.02268 0.0150624 0)
(1.0127 0.00469454 0)
(1.01456 0.00910402 0)
(1.01636 0.00421652 0)
(1.01554 0.00291179 0)
(0.0754683 1.36091 0)
(0.0760397 1.30371 0)
(0.156714 1.41871 5.44708e-20)
(0.276648 1.48395 8.12433e-20)
(0.176031 1.45534 1.83301e-19)
(0.213596 1.45212 -2.96114e-19)
(0.164496 1.4314 0)
(0.145329 1.58504 -9.07083e-20)
(0.142393 1.58126 0)
(0.352453 2.00603 -1.03367e-19)
(0.317267 2.34596 6.19625e-19)
(0.197642 1.46768 7.90357e-20)
(0.275872 1.39864 2.25654e-20)
(0.205245 1.39796 -1.83814e-20)
(0.289725 1.33741 -9.30372e-20)
(0.254236 1.57846 0)
(0.268481 1.6248 1.00916e-19)
(0.0234958 2.25474 -1.61213e-20)
(0.0380335 2.67066 0)
(0.0630742 2.40513 9.749e-20)
(0.0585093 2.43003 0)
(0.0682599 2.68838 -1.87079e-19)
(0.0426077 2.7047 0)
(0.023684 1.44879 5.32277e-20)
(0.0323703 1.50643 0)
(0.026798 1.41418 0)
(0.0195387 1.42122 -6.03298e-20)
(0.0022908 2.66244 -5.17153e-22)
(0.0270271 2.69395 1.85128e-19)
(0.0100425 2.73393 9.91673e-22)
(0.00150627 1.84393 -1.90258e-20)
(-0.00480409 1.69602 -1.4407e-20)
(0.00957398 1.30348 0)
(0.0169408 1.22937 0)
(0.0404051 1.59372 -1.27774e-20)
(0.0379817 1.47112 -5.12536e-20)
(0.0272748 1.54677 5.48718e-20)
(0.049346 1.61864 0)
(-0.030314 2.27252 1.13758e-19)
(-0.0336225 2.55302 -4.81225e-20)
(-0.0198338 2.45208 7.78908e-21)
(-0.00556763 1.86064 2.30627e-20)
(-0.0276315 2.5072 1.06077e-20)
(-0.0229323 2.44832 -2.30784e-20)
(1.01771 0.0221949 -7.80333e-19)
(1.01492 0.0282487 7.84584e-19)
(1.01156 0.0169511 0)
(1.01139 0.0707216 1.0704e-18)
(0.990813 0.0592506 -1.23039e-18)
(0.950652 0.0586953 1.37286e-18)
(1.01319 0.11647 -1.45838e-19)
(1.04397 -0.00468 0)
(1.05217 -0.00043398 7.0123e-19)
(1.04027 -0.00818475 -7.00829e-19)
(1.07224 0.0435678 -4.15916e-20)
(1.06496 0.0288891 3.59209e-19)
(1.06428 0.0653539 0)
(1.05446 0.0547609 -1.29326e-19)
(1.03198 0.0443172 0)
(1.02584 0.0394292 0)
(1.02757 0.0136434 0)
(1.024 0.0161473 0)
(1.0406 0.0340384 2.65852e-19)
(1.03896 0.028607 -5.88324e-19)
(1.05304 0.0385818 -2.81301e-19)
(1.04823 0.0386547 -3.10405e-19)
(1.07801 0.0702729 5.93919e-19)
(1.10179 0.0562512 0)
(1.10862 0.0947957 0)
(-0.0281518 2.27921 6.88402e-20)
(-0.0298601 2.02787 3.38147e-21)
(-0.0250156 2.03775 0)
(-0.0297102 2.44857 -6.85387e-20)
(-0.0272931 2.40688 -6.51103e-21)
(-0.034231 2.47624 8.74302e-21)
(-0.0215993 2.62665 -2.93671e-20)
(-0.0262973 2.56902 1.49956e-21)
(-0.0248362 2.52222 -1.00188e-20)
(-0.0172059 2.62001 1.97889e-20)
(-0.0213569 2.62209 -2.27064e-20)
(-0.00983213 1.50144 -3.98857e-22)
(-0.00464959 1.63169 -5.13503e-20)
(0.377509 1.44853 -1.1737e-19)
(0.371743 1.38054 2.35543e-20)
(0.648314 1.44 -2.29145e-19)
(0.524814 1.5097 -1.45287e-19)
(0.578373 1.46831 0)
(0.606423 2.42512 2.1989e-19)
(0.667179 2.43366 3.41656e-19)
(0.414679 2.5181 9.42322e-20)
(0.399386 2.54452 -6.18096e-19)
(0.503324 2.48296 5.72778e-19)
(0.553726 2.47754 0)
(0.484851 2.52777 -5.60903e-19)
(0.253805 2.6039 1.13569e-18)
(0.362776 2.56187 -7.14907e-20)
(0.286075 2.66169 -1.59955e-18)
(0.970759 2.39171 7.25104e-19)
(0.848937 2.39247 0)
(1.01145 0.0013862 2.54512e-20)
(1.01537 -0.00518478 -2.07871e-20)
(1.01775 -0.00393674 -3.80027e-19)
(1.01561 -0.00105084 3.78686e-19)
(1.01312 0.00183649 0)
(0.636378 1.30241 0)
(0.678073 1.18768 0)
(0.792724 1.11805 0)
(0.665621 1.14528 0)
(1.19595 2.6291 5.13621e-20)
(1.08876 2.38095 0)
(0.818792 2.17116 3.64875e-21)
(0.822038 2.43405 0)
(0.916753 2.52429 -4.42407e-19)
(0.948276 2.47374 2.95371e-19)
(0.790496 0.162304 0)
(0.73036 0.148804 1.60118e-19)
(0.907748 0.159405 9.35039e-19)
(0.812818 0.139183 -3.51027e-19)
(0.762621 0.0926264 -1.07522e-18)
(1.08816 0.245644 -8.54618e-19)
(0.987074 0.315447 -9.69208e-21)
(0.930508 0.350591 8.22624e-19)
(1.01497 0.259981 7.00594e-19)
(0.931443 0.20585 -1.23436e-18)
(0.890455 0.219007 1.5513e-19)
(0.931789 0.317917 -3.21636e-19)
(0.906188 0.223466 0)
(1.00176 0.209457 6.0448e-19)
(1.05552 0.218531 0)
(1.05282 0.229333 0)
(1.1258 0.124731 2.71855e-19)
(1.06468 0.193849 -1.06747e-20)
(1.07971 0.247115 -1.55543e-19)
(1.11375 0.210885 0)
(1.02283 0.0498866 6.00905e-19)
(1.03744 0.0632926 7.48494e-19)
(1.03205 0.0465763 -5.96147e-19)
(1.04191 0.0692073 -5.02074e-19)
(1.0146 0.0750358 -7.58226e-19)
(0.985848 0.166745 0)
(0.988381 0.107597 0)
(0.96146 0.0741572 -4.87984e-19)
(0.903107 0.0965633 1.92152e-19)
(1.03989 0.117188 6.94397e-19)
(1.0763 0.1371 -7.95677e-19)
(1.07037 0.179876 7.15248e-19)
(1.03552 0.1568 0)
(1.08639 0.12219 0)
(1.05721 0.111953 -3.26135e-19)
(1.04347 0.108926 -5.64495e-19)
(0.587494 1.0862 1.21584e-19)
(0.61338 1.40441 -2.49778e-20)
(1.14529 2.72002 -2.51706e-19)
(1.19791 3.10433 3.91074e-21)
(1.25385 2.72983 -1.38063e-19)
(1.29367 2.70081 2.53909e-20)
(1.26929 2.32427 -3.7982e-20)
(1.18561 3.00981 -7.86683e-20)
(1.20508 2.96675 2.31037e-19)
(1.17978 3.25788 -1.20019e-19)
(1.39759 2.9725 1.49676e-19)
(1.40914 2.90891 0)
(0.571985 0.817453 -4.83727e-20)
(0.212012 1.21268 4.7838e-19)
(0.51588 0.355013 5.36785e-19)
(0.401494 0.117782 6.1008e-19)
(0.486084 0.304179 6.54844e-19)
(0.548268 0.419279 -1.06502e-18)
(0.554725 0.406056 8.76866e-19)
(0.474803 0.309206 -3.30066e-19)
(0.351578 0.249287 7.46626e-19)
(0.725362 0.252321 -3.47601e-19)
(0.677316 0.285102 0)
(0.611587 0.197049 7.94817e-21)
(0.738868 0.506376 3.62181e-19)
(0.708527 0.478541 -1.31309e-18)
(0.636857 0.435044 1.56992e-20)
(0.625689 0.414185 0)
(0.717094 0.715011 3.77763e-19)
(0.833582 0.797931 4.18095e-19)
(0.770818 0.847635 -4.87106e-19)
(0.902069 0.820195 -1.5534e-19)
(0.936761 0.863343 -3.6613e-20)
(0.94439 0.87072 3.75526e-20)
(0.881128 0.676437 -6.79135e-19)
(0.953316 0.723369 1.44419e-19)
(1.00736 0.727291 0)
(1.00655 0.703324 -1.85304e-19)
(1.03178 0.339615 2.13798e-19)
(1.15903 0.339617 2.61602e-19)
(1.07465 0.283293 3.49517e-19)
(0.999366 0.385996 -4.26655e-19)
(1.05625 0.486463 0)
(1.13838 0.427795 0)
(0.905134 0.422762 5.00642e-22)
(0.848627 0.321984 0)
(0.893168 0.311703 3.94117e-19)
(0.917133 0.349418 3.71016e-21)
(0.986514 0.494826 1.89284e-18)
(0.919314 0.554122 4.88377e-19)
(0.941344 0.510564 -5.16033e-19)
(0.859811 0.488311 5.49888e-19)
(0.826984 0.462679 3.49182e-19)
(0.804133 0.438147 -3.42327e-19)
(1.02816 -0.000384025 6.28148e-19)
(1.02041 0.000560946 0)
(1.01906 0.00138156 4.09881e-19)
(1.02263 -0.000722041 -9.27926e-19)
(1.02254 0.00456824 4.52006e-19)
(1.02002 0.0116076 -9.4609e-19)
(1.02075 0.0114037 0)
(1.01968 0.0121499 -1.96982e-19)
(1.01655 0.00778711 4.93718e-19)
(1.01668 0.0108965 -2.4775e-19)
(1.01727 0.0105933 1.81273e-19)
(0.027288 1.3315 0)
(0.036189 1.39135 0)
(0.0492814 1.33772 0)
(0.0519485 1.27646 0)
(0.0847362 1.40395 -7.34949e-20)
(0.0911454 1.37508 1.76707e-20)
(0.0910568 1.57581 1.78009e-21)
(0.104903 1.40945 -3.84339e-20)
(0.041139 1.48387 4.76799e-20)
(0.0454952 1.48029 -3.75181e-20)
(0.0714762 1.3978 -2.28041e-20)
(0.0600221 1.40018 7.52996e-20)
(0.0539861 1.37866 1.19336e-20)
(0.0407512 1.39664 7.71297e-21)
(0.100512 2.37306 -1.06552e-19)
(0.0925419 2.42033 0)
(0.138102 2.01121 9.53496e-20)
(0.131646 1.70075 3.34813e-20)
(0.223136 2.00256 -8.85791e-20)
(0.201196 2.42944 0)
(0.264914 2.36747 -6.15642e-19)
(0.303857 2.36456 4.45533e-19)
(0.249687 1.98309 -2.04176e-19)
(0.1398 2.15475 1.49621e-19)
(0.108461 2.26945 0)
(0.0166331 1.85888 -2.44215e-20)
(-0.00302302 2.37959 -1.29117e-20)
(0.0047072 2.13775 0)
(0.00738101 2.44159 -1.69579e-20)
(0.0249965 2.27855 2.36894e-20)
(0.00849549 1.42508 -1.08062e-20)
(0.00731642 1.40619 1.82108e-19)
(0.00654027 1.41471 -5.86146e-20)
(0.0176941 1.42181 -5.21158e-20)
(0.021267 1.45205 0)
(0.00494766 1.39731 0)
(-0.000983551 1.30457 -6.87195e-20)
(0.000433603 1.38261 1.95242e-20)
(0.00556672 1.38421 0)
(0.00606982 1.2972 -5.3115e-20)
(0.0138114 1.22146 1.06011e-19)
(1.04243 0.0150616 0)
(1.04894 0.0105258 -6.55673e-20)
(1.03923 0.0244921 -4.74107e-19)
(1.04967 0.0233685 0)
(1.05466 0.0226127 0)
(1.03627 0.0130508 -6.78279e-21)
(1.02996 0.0135446 7.65128e-19)
(1.03176 0.0175453 9.2549e-19)
(1.02558 0.0211374 0)
(1.02226 0.0215456 0)
(1.03555 0.0257422 4.73047e-19)
(1.02641 0.0283978 0)
(1.02312 0.028827 0)
(-0.0202946 2.0296 0)
(-0.00896901 1.65965 -2.16252e-21)
(-0.00869479 1.76525 -3.16659e-20)
(-0.00442837 1.39128 0)
(-0.00873915 1.56127 -2.84411e-20)
(-0.0144332 1.46928 1.7832e-20)
(-0.00926502 1.40356 0)
(0.404184 1.62776 0)
(0.365492 1.31818 -3.89242e-20)
(0.275764 1.34614 0)
(0.435032 1.31611 -2.39631e-20)
(0.473116 1.47557 0)
(0.45743 1.41653 3.44811e-20)
(1.04071 2.67291 -1.54225e-20)
(0.985245 2.4109 -9.10937e-19)
(0.947781 2.21103 1.02407e-18)
(0.865544 2.38462 2.45073e-19)
(0.85315 2.48963 0)
(0.922045 2.48457 0)
(0.954547 2.38479 0)
(0.930568 2.3754 -9.47763e-19)
(0.692036 2.45412 -3.85091e-19)
(0.800909 2.43792 -9.92224e-20)
(0.808175 2.41599 7.47809e-20)
(0.704556 2.40497 0)
(0.809726 2.39873 0)
(0.770444 2.41513 -3.70431e-19)
(0.766112 2.46835 0)
(0.628204 1.0665 0)
(0.515322 0.861657 -5.62084e-19)
(0.521487 0.93333 -3.25932e-20)
(0.501507 1.07255 0)
(0.488377 0.981169 8.60686e-19)
(0.799457 0.88555 -1.35144e-19)
(0.803944 1.02081 0)
(0.784767 1.00352 1.86672e-19)
(0.673216 1.02079 0)
(0.664997 0.924819 0)
(1.16374 2.75641 -2.23982e-19)
(1.13883 2.81465 -9.28122e-20)
(0.923453 2.33741 8.04893e-20)
(0.900112 2.31825 -7.77256e-20)
(1.13338 2.7343 0)
(1.08537 2.70211 9.33705e-20)
(1.10153 2.49749 -3.01105e-19)
(1.00316 2.25693 -2.84296e-20)
(0.497557 1.33186 0)
(0.517131 1.07859 -1.07107e-19)
(0.593536 1.18173 0)
(0.847195 0.231801 0)
(0.755126 0.181551 0)
(0.66793 0.143139 0)
(0.849774 0.231656 -6.21131e-19)
(0.746525 0.222189 3.63453e-19)
(0.909148 0.0891138 -3.88112e-19)
(0.927938 0.14462 0)
(0.912056 0.151705 1.74356e-19)
(0.839606 0.109978 6.99525e-19)
(0.787895 0.0788994 -4.40661e-19)
(1.09732 3.34943 -6.68533e-19)
(1.16483 3.27277 0)
(1.11575 3.43433 -1.56226e-18)
(0.657142 3.58021 1.30023e-18)
(1.02597 3.07756 1.14637e-19)
(0.532014 0.784499 5.73095e-19)
(0.512121 0.752836 0)
(0.352622 0.372174 -1.45552e-19)
(0.484437 0.630963 8.62894e-19)
(0.546336 0.356133 -1.92164e-19)
(0.517044 0.456758 2.27344e-19)
(0.689698 0.524656 4.67667e-19)
(0.734781 0.560121 0)
(0.6627 0.566242 0)
(0.645275 0.531621 0)
(1.01597 0.611013 9.26631e-20)
(0.970173 0.593141 -4.72939e-19)
(0.980098 0.605216 3.63039e-19)
(1.04495 0.548135 -3.49572e-19)
(1.08985 0.517689 0)
(1.09122 0.599711 -9.25934e-20)
(0.887062 0.418097 -7.77647e-19)
(0.876181 0.405784 -9.99415e-19)
(0.801358 0.403157 6.14223e-19)
(0.815166 0.371119 -6.34436e-19)
(0.856638 0.331698 -4.99094e-19)
(0.802207 0.33529 6.11206e-19)
(1.02655 0.00668572 -4.73079e-19)
(1.02617 0.00680542 9.53053e-19)
(1.02994 0.00095096 6.08796e-19)
(1.03417 0.00158158 -7.30928e-19)
(1.03396 0.0120025 0)
(1.02963 0.0120662 -1.19837e-18)
(0.0796134 1.64459 1.26706e-20)
(0.066274 1.60413 0)
(0.108803 1.70224 4.60587e-20)
(0.116057 1.67993 -3.89217e-20)
(0.0775402 1.57257 -3.24585e-21)
(0.0725773 1.57514 0)
(0.00649303 1.69736 0)
(-0.00846907 1.51049 1.51632e-20)
(-0.00688777 1.45044 -1.36221e-20)
(-0.0115559 1.5584 3.08514e-21)
(-0.00210735 1.89243 2.21821e-20)
(-0.0142621 1.94726 -8.58187e-21)
(0.493784 1.36234 -2.71379e-19)
(0.496292 1.35751 2.96587e-19)
(0.448838 1.30871 -1.88252e-20)
(0.428549 1.29246 8.16706e-21)
(0.627802 1.31107 0)
(0.555874 1.40426 1.09379e-19)
(0.556931 1.40734 -1.06512e-19)
(0.48434 1.2955 1.81526e-20)
(0.525154 1.24981 0)
(0.589682 1.21574 0)
(0.665687 2.41766 5.66963e-19)
(0.661309 2.44723 1.2915e-18)
(0.716483 2.4624 -8.88014e-19)
(0.614282 2.43457 -2.02336e-19)
(0.557902 2.52828 2.77464e-19)
(0.498278 2.49463 -7.15866e-19)
(0.993192 2.38965 -5.76989e-19)
(1.02532 2.40739 0)
(0.951941 2.19489 -6.31259e-19)
(1.05619 2.68318 0)
(1.05511 2.66436 0)
(0.603096 2.2911 5.10086e-21)
(1.11938 3.07041 7.29961e-20)
(0.997493 2.968 -1.21561e-19)
(0.323484 0.801741 0)
(0.323139 0.683652 -3.05333e-19)
(0.528032 0.617837 -3.10406e-19)
(0.366149 2.13364 0)
(0.404417 2.74465 -8.06927e-20)
(0.414014 2.47942 0)
(0.725486 0.68081 -8.05336e-19)
(0.791477 0.687636 1.12273e-18)
(0.797837 0.655986 -1.06423e-18)
(0.698769 0.639899 -1.0207e-19)
(0.758224 0.598688 -4.20712e-19)
(0.971566 2.75413 -5.52865e-20)
(1.01423 2.76042 -2.15049e-19)
(0.553971 2.20906 4.41045e-19)
(0.605639 1.73604 -3.49273e-19)
(0.704623 1.85468 -5.00799e-19)
(0.977818 2.3945 -1.38136e-19)
(0.97765 2.34787 3.70007e-19)
(0.647817 1.76596 3.37276e-20)
(0.454149 1.29809 1.77432e-19)
)
;

boundaryField
{
    wall-4
    {
        type            noSlip;
    }
    velocity-inlet-5
    {
        type            fixedValue;
        value           uniform (1 0 0);
    }
    velocity-inlet-6
    {
        type            fixedValue;
        value           uniform (0 3 0);
    }
    pressure-outlet-7
    {
        type            zeroGradient;
    }
    wall-8
    {
        type            noSlip;
    }
    frontAndBackPlanes
    {
        type            empty;
    }
}


// ************************************************************************* //
