/*--------------------------------*- C++ -*----------------------------------*\
  =========                 |
  \\      /  F ield         | OpenFOAM: The Open Source CFD Toolbox
   \\    /   O peration     | Website:  https://openfoam.org
    \\  /    A nd           | Version:  6
     \\/     M anipulation  |
\*---------------------------------------------------------------------------*/
FoamFile
{
    version     2.0;
    format      ascii;
    class       volScalarField;
    location    "2.5";
    object      Ma;
}
// * * * * * * * * * * * * * * * * * * * * * * * * * * * * * * * * * * * * * //

dimensions      [0 0 0 0 0 0 0];

internalField   nonuniform List<scalar> 
26250
(
3.04651
3.07708
3.10404
3.12679
3.14762
3.16461
3.18055
3.19037
3.19007
3.17541
3.13199
2.99576
2.70678
1.97849
0.986078
0.461497
0.512063
0.587329
0.635961
0.624324
0.614144
0.580724
0.500048
0.350512
0.23242
3.0465
3.07709
3.10403
3.1268
3.14761
3.16463
3.18055
3.19041
3.19012
3.17562
3.13247
2.99702
2.70929
1.98414
0.996693
0.48507
0.531329
0.603152
0.652581
0.653659
0.635428
0.598718
0.52381
0.384447
0.272801
3.04648
3.07711
3.10401
3.12682
3.14758
3.16465
3.18054
3.19052
3.19027
3.17606
3.13359
2.99905
2.71415
1.98954
1.00165
0.474518
0.522738
0.596699
0.646366
0.648069
0.627234
0.585293
0.511156
0.372861
0.259361
3.04627
3.07731
3.10378
3.12704
3.14736
3.16488
3.18041
3.19097
3.19075
3.17713
3.13853
3.00291
2.72381
2.00469
1.01757
0.508363
0.544936
0.610875
0.657053
0.650239
0.631337
0.590321
0.513234
0.372728
0.257291
3.04574
3.07787
3.10319
3.12767
3.14669
3.16562
3.17946
3.19166
3.18934
3.18353
3.13392
3.03015
2.69847
2.05535
1.06125
0.540518
0.56773
0.629114
0.672241
0.669705
0.649806
0.608094
0.528933
0.386219
0.268934
3.04773
3.07578
3.10524
3.12544
3.14889
3.16319
3.18191
3.18865
3.19197
3.17969
3.14715
3.0133
2.74797
2.03955
1.06622
0.558104
0.578885
0.637333
0.681774
0.680724
0.661888
0.621907
0.544295
0.402542
0.286708
3.04563
3.07796
3.10309
3.12777
3.14659
3.16574
3.1794
3.19201
3.19042
3.18509
3.13847
3.04031
2.72385
2.10204
1.13082
0.607349
0.609952
0.65973
0.700086
0.699583
0.680383
0.641294
0.566018
0.427513
0.31683
3.04759
3.07598
3.10517
3.12565
3.14878
3.16346
3.18179
3.18946
3.19262
3.18149
3.14897
3.02693
2.78004
2.09682
1.15432
0.635112
0.630267
0.676374
0.716918
0.718306
0.700878
0.66514
0.59592
0.465518
0.368853
3.04784
3.07575
3.10545
3.12539
3.14905
3.16319
3.18206
3.18929
3.19317
3.18274
3.14964
3.03594
2.79982
2.13988
1.22247
0.680918
0.661989
0.702278
0.739166
0.741204
0.726551
0.69651
0.638319
0.525093
0.458598
3.04832
3.07521
3.10598
3.1248
3.14963
3.1626
3.18268
3.18901
3.19526
3.18516
3.15647
3.0471
2.82313
2.18815
1.27302
0.735841
0.702708
0.735471
0.766412
0.769341
0.758485
0.737342
0.698241
0.623439
0.628526
2.96754
2.95206
2.94111
2.93519
2.92971
2.92707
2.92333
2.91952
2.90441
2.87932
2.80255
2.63835
2.27163
1.49007
0.388201
0.223687
0.0543914
0.260823
0.299173
0.237176
0.226593
0.167921
0.0629187
0.0426917
0.0941358
2.96754
2.95205
2.94111
2.93519
2.92971
2.92707
2.92333
2.91954
2.90448
2.87946
2.80296
2.63917
2.27339
1.49549
0.399327
0.181144
0.0742357
0.276029
0.319448
0.28507
0.247353
0.183034
0.0936323
0.0719605
0.13567
2.96754
2.95206
2.94111
2.93519
2.92971
2.92707
2.92334
2.91959
2.90465
2.87982
2.80378
2.64132
2.27726
1.50229
0.403072
0.211295
0.0857917
0.281982
0.325043
0.294322
0.258878
0.204028
0.133595
0.115225
0.141432
2.96753
2.95206
2.9411
2.93518
2.92971
2.92706
2.92337
2.91968
2.90493
2.88044
2.80502
2.64489
2.28294
1.51471
0.423041
0.1722
0.117098
0.297888
0.33042
0.28237
0.268158
0.227533
0.178554
0.163204
0.162309
2.96758
2.95198
2.94117
2.93511
2.92977
2.927
2.92348
2.91988
2.90607
2.88076
2.81265
2.63974
2.29887
1.52566
0.424405
0.161812
0.14148
0.314918
0.347389
0.316751
0.295923
0.262901
0.227619
0.213266
0.196865
2.96764
2.95199
2.94117
2.93514
2.92975
2.92705
2.92345
2.91987
2.90574
2.88227
2.8091
2.65588
2.30343
1.55753
0.477093
0.153004
0.171112
0.335265
0.366947
0.343458
0.327541
0.303488
0.279511
0.266506
0.243534
2.96758
2.95197
2.94117
2.9351
2.92978
2.92701
2.92353
2.92004
2.90687
2.88305
2.81766
2.6536
2.32677
1.57345
0.500766
0.14176
0.205287
0.3581
0.390477
0.375435
0.363682
0.349204
0.336228
0.32643
0.305584
2.96763
2.952
2.94118
2.93516
2.92977
2.92707
2.92349
2.92008
2.90663
2.88494
2.81552
2.66967
2.33885
1.61529
0.574624
0.146501
0.241329
0.383955
0.416661
0.408954
0.403903
0.399362
0.398103
0.395449
0.388365
2.96767
2.95198
2.94121
2.93515
2.9298
2.92707
2.92354
2.92021
2.90733
2.88656
2.81956
2.68016
2.35994
1.6569
0.638217
0.172468
0.283788
0.413179
0.444724
0.443416
0.447012
0.45396
0.467404
0.480506
0.50399
2.96774
2.95192
2.94127
2.9351
2.92984
2.92705
2.92361
2.92046
2.9084
2.88853
2.82553
2.69057
2.38441
1.70423
0.701108
0.218406
0.330042
0.442754
0.474286
0.47924
0.491267
0.511126
0.54511
0.585697
0.691912
2.98567
2.97028
2.951
2.93555
2.91913
2.90736
2.8939
2.88326
2.86259
2.82961
2.74101
2.55417
2.16415
1.31542
0.164345
0.501758
0.0572787
0.187564
0.232627
0.173665
0.0835919
0.0829355
0.0964086
0.0702371
0.0650852
2.98563
2.97032
2.95096
2.93558
2.9191
2.90739
2.89388
2.8833
2.86257
2.82989
2.74086
2.55616
2.16452
1.31525
0.169193
0.494363
0.0630776
0.200137
0.235983
0.16715
0.124493
0.121084
0.135075
0.116112
0.100978
2.98567
2.97028
2.951
2.93554
2.91913
2.90736
2.89391
2.88331
2.86279
2.83003
2.74212
2.55641
2.16893
1.32355
0.179572
0.481852
0.078847
0.217697
0.243171
0.176494
0.163705
0.160746
0.178643
0.169778
0.147599
2.98563
2.97032
2.95096
2.93558
2.9191
2.90739
2.89389
2.8834
2.86295
2.83068
2.74295
2.56062
2.17383
1.33227
0.19553
0.462845
0.102053
0.240159
0.258607
0.205384
0.203794
0.204168
0.224799
0.223692
0.198624
2.98559
2.97036
2.95092
2.93562
2.91906
2.90743
2.89387
2.88351
2.86323
2.83159
2.74443
2.56643
2.18213
1.34869
0.224748
0.432829
0.130377
0.266205
0.280204
0.24373
0.243391
0.249904
0.272937
0.278494
0.252857
2.9856
2.97034
2.95093
2.9356
2.91907
2.90742
2.8939
2.88361
2.86376
2.83251
2.74745
2.57181
2.19566
1.37796
0.263573
0.397627
0.160017
0.294483
0.307559
0.284277
0.281915
0.29802
0.323763
0.336511
0.313914
2.98556
2.97039
2.95088
2.93565
2.91903
2.90747
2.89389
2.88377
2.86433
2.83396
2.75063
2.58143
2.21222
1.41563
0.313982
0.35648
0.191173
0.324037
0.338676
0.327216
0.323988
0.349412
0.379191
0.401266
0.386594
2.98554
2.97041
2.95087
2.93567
2.91902
2.9075
2.89391
2.88395
2.86507
2.83552
2.75482
2.59144
2.2324
1.46554
0.371966
0.312952
0.225101
0.355102
0.372323
0.371526
0.371615
0.402958
0.440074
0.474064
0.47559
2.98548
2.97047
2.95081
2.93574
2.91896
2.90757
2.89389
2.88417
2.86587
2.83751
2.75916
2.60508
2.25442
1.5267
0.442429
0.264395
0.26067
0.387017
0.407483
0.415918
0.423112
0.459742
0.507226
0.558471
0.592691
2.98561
2.97034
2.95094
2.93561
2.91909
2.90747
2.89402
2.88445
2.86693
2.83939
2.76461
2.61169
2.28067
1.56608
0.507237
0.230161
0.300712
0.416599
0.441493
0.458569
0.475483
0.519414
0.581659
0.657412
0.779867
2.96752
2.95207
2.9411
2.93519
2.92971
2.92707
2.92334
2.91958
2.90453
2.87957
2.80287
2.63893
2.27143
1.48654
0.390915
0.186755
0.0610243
0.270332
0.322958
0.304734
0.27049
0.211185
0.122352
0.0564109
0.124473
2.96757
2.95199
2.94116
2.93512
2.92977
2.927
2.92345
2.91975
2.90549
2.87916
2.80903
2.62989
2.27919
1.47543
0.360413
0.250873
0.0591332
0.261989
0.298445
0.22965
0.223628
0.175876
0.0952732
0.0814246
0.124678
2.96753
2.95206
2.9411
2.93519
2.92971
2.92706
2.92337
2.91964
2.90476
2.88006
2.8038
2.64182
2.27558
1.49253
0.399458
0.18613
0.0890483
0.277373
0.307352
0.251557
0.237666
0.187373
0.124321
0.126446
0.139966
2.96757
2.952
2.94115
2.93512
2.92976
2.927
2.92346
2.9198
2.90568
2.87996
2.81055
2.63456
2.28838
1.4976
0.393141
0.188569
0.108815
0.291937
0.325409
0.290163
0.262219
0.2159
0.169173
0.1717
0.168487
2.96757
2.952
2.94115
2.93512
2.92976
2.927
2.92347
2.91984
2.90586
2.88069
2.81194
2.63901
2.29722
1.51715
0.416597
0.181024
0.137858
0.308721
0.339493
0.306601
0.289324
0.253257
0.218932
0.218802
0.204426
2.96758
2.95199
2.94116
2.93511
2.92977
2.92701
2.92349
2.91993
2.90628
2.8817
2.81435
2.64527
2.30986
1.54405
0.454857
0.153634
0.170817
0.331189
0.362078
0.339732
0.322299
0.296864
0.272566
0.27021
0.250667
2.96754
2.95205
2.94111
2.93518
2.92972
2.92707
2.92344
2.91997
2.90604
2.88337
2.81187
2.66094
2.31994
1.58331
0.523598
0.143613
0.204652
0.356639
0.38794
0.372464
0.359417
0.344799
0.33099
0.328598
0.311431
2.96755
2.95204
2.94112
2.93518
2.92974
2.92708
2.92347
2.92009
2.90659
2.8848
2.8154
2.66942
2.33888
1.61695
0.577837
0.147717
0.243524
0.384466
0.415348
0.406198
0.400638
0.396234
0.394338
0.396928
0.392731
2.96766
2.95199
2.94121
2.93515
2.92979
2.92707
2.92353
2.92021
2.90731
2.8865
2.81945
2.68002
2.35969
1.65731
0.639339
0.172897
0.285285
0.41425
0.444701
0.441648
0.444658
0.451711
0.464595
0.481251
0.507052
2.96775
2.95192
2.94127
2.9351
2.92984
2.92705
2.9236
2.92045
2.90837
2.88847
2.82539
2.69034
2.38403
1.70434
0.701824
0.219157
0.331411
0.443879
0.47475
0.478749
0.489911
0.509576
0.543076
0.585415
0.694001
3.0463
3.0773
3.10381
3.12703
3.14738
3.16485
3.18045
3.19098
3.19064
3.17647
3.137
2.99794
2.71416
1.9821
0.980411
0.480296
0.527399
0.60058
0.652134
0.654852
0.638977
0.599127
0.520964
0.379674
0.267876
3.04565
3.07797
3.1031
3.12778
3.14658
3.16572
3.17933
3.19158
3.1883
3.18229
3.12998
3.02051
2.67551
2.00047
1.01611
0.475839
0.525516
0.601177
0.646946
0.636423
0.625029
0.588324
0.505017
0.357277
0.245308
3.04624
3.07735
3.10374
3.12708
3.14731
3.16491
3.18031
3.19071
3.1906
3.17746
3.14218
3.00194
2.72569
1.98973
0.981498
0.484617
0.53215
0.602065
0.648206
0.636837
0.62476
0.587998
0.503248
0.352708
0.238094
3.04565
3.07796
3.10309
3.12777
3.14658
3.1657
3.17935
3.19145
3.18825
3.18148
3.13051
3.01941
2.68414
2.03679
1.03814
0.516693
0.555802
0.621489
0.663826
0.660957
0.641812
0.602447
0.519803
0.371393
0.252867
3.04567
3.07793
3.10312
3.12774
3.14661
3.16566
3.17941
3.19133
3.18836
3.18007
3.13168
3.01963
2.69492
2.06624
1.04021
0.52313
0.558801
0.623275
0.665065
0.661232
0.643719
0.605881
0.5263
0.382023
0.265647
3.04574
3.07786
3.1032
3.12766
3.14669
3.16561
3.17949
3.1916
3.18936
3.18276
3.13463
3.02902
2.70769
2.0816
1.08147
0.565768
0.584114
0.641096
0.681558
0.679811
0.659753
0.620485
0.542279
0.400102
0.285578
3.0463
3.07729
3.10381
3.12702
3.14739
3.16487
3.18042
3.19113
3.19115
3.17936
3.14483
3.01792
2.76089
2.06625
1.10973
0.591942
0.598997
0.651356
0.69497
0.695875
0.675637
0.63876
0.563502
0.42704
0.317466
3.04632
3.07731
3.10379
3.12705
3.14734
3.165
3.18032
3.19109
3.19105
3.18058
3.14518
3.02618
2.7775
2.10331
1.16782
0.637366
0.629401
0.674764
0.714969
0.715647
0.696361
0.662514
0.593573
0.465884
0.370521
3.04765
3.07594
3.10525
3.12559
3.14886
3.16338
3.18187
3.18949
3.19289
3.18234
3.1497
3.0358
2.79979
2.13941
1.22147
0.681395
0.662165
0.702438
0.738978
0.740058
0.723673
0.69499
0.637037
0.525739
0.460284
3.04834
3.0752
3.106
3.12479
3.14964
3.16258
3.18268
3.18898
3.19517
3.18505
3.15594
3.0467
2.82321
2.18752
1.27276
0.735689
0.70298
0.736082
0.76714
0.769544
0.757545
0.737293
0.698226
0.623483
0.629703
3.04544
3.07815
3.10289
3.12799
3.14637
3.166
3.17933
3.193
3.19395
3.18927
3.15455
3.07382
2.80967
2.30009
1.37105
0.789351
0.743886
0.769293
0.794466
0.79983
0.794976
0.786633
0.777451
0.772292
0.826013
3.04787
3.07563
3.1055
3.12527
3.1491
3.16317
3.1822
3.19042
3.19821
3.18969
3.16578
3.07031
2.86756
2.31067
1.40813
0.86534
0.799952
0.812316
0.829882
0.838908
0.840106
0.84269
0.853296
0.882696
0.959463
3.04533
3.07828
3.10274
3.12815
3.14617
3.16627
3.17919
3.19415
3.19727
3.19476
3.16528
3.09948
2.87594
2.45495
1.56782
0.937742
0.841215
0.844627
0.858326
0.871665
0.8804
0.892305
0.914308
0.957454
1.03872
3.04744
3.07611
3.105
3.12583
3.14853
3.16384
3.18165
3.1919
3.20074
3.19474
3.17387
3.10088
2.92855
2.49193
1.66038
1.03433
0.889259
0.878305
0.887604
0.902562
0.917931
0.935972
0.964843
1.01199
1.09004
3.04717
3.07638
3.10471
3.12613
3.14821
3.1642
3.18134
3.19268
3.20239
3.19771
3.18126
3.12136
2.98566
2.62219
1.88128
1.15744
0.94374
0.922131
0.927384
0.942337
0.959878
0.979291
1.00837
1.05342
1.12286
3.04617
3.0774
3.10364
3.12722
3.14708
3.16537
3.18021
3.19416
3.20249
3.20215
3.18878
3.15071
3.03324
2.78408
2.16731
1.32855
1.01699
0.981315
0.982468
0.996776
1.01492
1.03324
1.05901
1.09843
1.15642
3.04649
3.07705
3.10398
3.12685
3.14745
3.16499
3.18061
3.19395
3.20348
3.20334
3.19521
3.16492
3.07478
2.87045
2.34157
1.53069
1.07127
1.01053
1.01624
1.03542
1.05845
1.07973
1.10545
1.14167
1.19176
3.04508
3.07852
3.10245
3.12843
3.14584
3.16665
3.17899
3.19564
3.20212
3.20627
3.19986
3.17416
3.10343
2.91917
2.48709
1.6844
1.13474
1.0358
1.03642
1.05534
1.08132
1.10976
1.13853
1.17419
1.21998
3.04524
3.07835
3.10263
3.12824
3.14606
3.1664
3.1793
3.19544
3.20319
3.20932
3.20404
3.1848
3.12992
2.97638
2.64355
1.88374
1.26936
1.09153
1.07196
1.08132
1.10387
1.1339
1.16332
1.19761
1.23987
3.04654
3.07702
3.10406
3.12676
3.14761
3.16479
3.18103
3.19378
3.20611
3.2123
3.21172
3.19804
3.16136
3.05089
2.81779
2.23627
1.45482
1.17149
1.13177
1.12921
1.1444
1.16906
1.19569
1.22556
1.2628
3.04582
3.07777
3.10329
3.12757
3.1468
3.16564
3.18018
3.19475
3.20542
3.21473
3.2136
3.20878
3.17763
3.10402
2.90491
2.47526
1.72364
1.25327
1.16673
1.16092
1.17164
1.19413
1.22329
1.25336
1.28722
3.04749
3.07605
3.10508
3.12572
3.14868
3.16371
3.18213
3.19279
3.20756
3.21325
3.21817
3.21258
3.19314
3.13547
2.98752
2.65363
1.93567
1.37087
1.21322
1.19469
1.20058
1.22
1.24874
1.27758
1.30845
3.04594
3.07766
3.10339
3.12749
3.14686
3.16562
3.18019
3.1949
3.20559
3.21651
3.22051
3.21897
3.20481
3.1616
3.06457
2.80027
2.28125
1.55538
1.2872
1.24556
1.24211
1.25513
1.27868
1.30636
1.33483
3.04639
3.07717
3.10388
3.12696
3.14738
3.16508
3.18072
3.1944
3.20619
3.21659
3.22345
3.22316
3.21477
3.1889
3.11571
2.9533
2.51545
1.81748
1.37448
1.27842
1.27005
1.2783
1.29973
1.3287
1.35788
3.04538
3.07821
3.1028
3.12807
3.14625
3.16624
3.17956
3.19558
3.20506
3.21784
3.22284
3.22631
3.22195
3.20396
3.15411
3.03373
2.72895
2.10256
1.51757
1.3291
1.30238
1.30436
1.32051
1.34698
1.37698
3.0457
3.07787
3.10315
3.1277
3.14663
3.16583
3.17999
3.19512
3.20559
3.21741
3.22414
3.22908
3.2262
3.21463
3.18454
3.09492
2.90804
2.4196
1.75477
1.42334
1.34717
1.33738
1.34319
1.3636
1.3932
3.04593
3.07766
3.10338
3.12747
3.14687
3.16558
3.18025
3.19484
3.20592
3.21716
3.22524
3.2319
3.23016
3.22489
3.20489
3.14628
3.01417
2.69615
2.06829
1.56138
1.40135
1.37541
1.37326
1.38579
1.40889
3.04617
3.07742
3.10364
3.12721
3.14714
3.16531
3.18052
3.19458
3.20618
3.21699
3.22562
3.23294
3.23477
3.23209
3.22034
3.18219
3.09679
2.88903
2.40974
1.75503
1.48092
1.42281
1.41232
1.41551
1.43153
3.0462
3.07739
3.10367
3.12719
3.14717
3.1653
3.18052
3.1946
3.20615
3.2171
3.22564
3.23384
3.23789
3.23742
3.22997
3.20558
3.15087
3.00925
2.6735
2.04876
1.58363
1.45527
1.4364
1.43817
1.45116
3.04629
3.07726
3.1038
3.12702
3.14734
3.16508
3.18074
3.19435
3.20639
3.21685
3.22595
3.23379
3.23931
3.23933
3.23621
3.22195
3.18976
3.09306
2.89598
2.38442
1.7929
1.52796
1.47107
1.46467
1.46963
3.04589
3.07769
3.10335
3.12752
3.14682
3.16565
3.18018
3.19493
3.20583
3.21747
3.22539
3.23446
3.23983
3.24335
3.24173
3.23323
3.21415
3.15315
3.02168
2.71369
2.09819
1.6537
1.51674
1.49255
1.49152
3.04609
3.07749
3.10355
3.1273
3.14704
3.16543
3.18038
3.19474
3.20602
3.21724
3.22566
3.23434
3.24042
3.24589
3.24547
3.24242
3.23012
3.19442
3.10696
2.91938
2.46506
1.86032
1.60066
1.53754
1.52469
3.04626
3.07731
3.10375
3.1271
3.14726
3.16519
3.18064
3.19446
3.2063
3.21694
3.22596
3.23409
3.2408
3.24647
3.24874
3.24731
3.24075
3.21726
3.16959
3.04022
2.74336
2.17299
1.71885
1.57773
1.55073
3.04644
3.07714
3.10393
3.12692
3.14744
3.16501
3.18082
3.19428
3.20648
3.21678
3.22612
3.23398
3.24098
3.24686
3.25088
3.25066
3.24728
3.23397
3.20588
3.12429
2.95507
2.51137
1.96887
1.67323
1.59016
3.04605
3.07753
3.10352
3.12734
3.14701
3.16545
3.18038
3.19474
3.20603
3.21723
3.22569
3.23441
3.24062
3.24733
3.25121
3.25356
3.25203
3.24503
3.22938
3.17867
3.07548
2.82105
2.31018
1.83619
1.65419
3.04613
3.07744
3.10361
3.12725
3.14711
3.16535
3.18048
3.19463
3.20614
3.21712
3.2258
3.23429
3.24079
3.24723
3.25195
3.25569
3.25497
3.25193
3.24353
3.21223
3.15534
2.99749
2.63819
2.08188
1.76231
3.04628
3.07729
3.10377
3.12708
3.14728
3.16517
3.18066
3.19445
3.20632
3.21693
3.22598
3.23411
3.24096
3.24712
3.25219
3.25646
3.25812
3.25715
3.25228
3.23586
3.20126
3.11099
2.90713
2.4482
1.94525
3.04644
3.07714
3.10393
3.12692
3.14744
3.16501
3.18082
3.19428
3.20649
3.21677
3.22615
3.23396
3.24111
3.24702
3.25235
3.25673
3.25981
3.25966
3.25757
3.24783
3.23045
3.1687
3.06147
2.75883
2.26227
3.04615
3.07742
3.10363
3.12722
3.14713
3.16533
3.18051
3.19461
3.20616
3.2171
3.22582
3.23428
3.2408
3.24732
3.25211
3.25706
3.2602
3.26212
3.26119
3.25677
3.24727
3.21365
3.15048
2.98406
2.62432
3.0463
3.07727
3.10379
3.12706
3.1473
3.16515
3.18068
3.19442
3.20634
3.21691
3.22601
3.23408
3.24099
3.24711
3.25234
3.25689
3.26075
3.26344
3.26375
3.26201
3.25696
3.23867
3.20393
3.10693
2.90024
3.0463
3.07727
3.10379
3.12706
3.1473
3.16516
3.18067
3.19444
3.20633
3.21692
3.22599
3.2341
3.24097
3.24714
3.25232
3.25695
3.26079
3.26406
3.26572
3.26534
3.26267
3.2529
3.23377
3.17788
3.06174
3.04622
3.07735
3.1037
3.12715
3.14721
3.16525
3.18058
3.19453
3.20624
3.21702
3.2259
3.2342
3.24088
3.24725
3.2522
3.25709
3.26068
3.26439
3.26645
3.26724
3.26624
3.26125
3.25224
3.21788
3.15941
3.0462
3.07737
3.10368
3.12717
3.14718
3.16528
3.18055
3.19456
3.20621
3.21704
3.22588
3.23421
3.24088
3.24723
3.25222
3.25706
3.26074
3.26439
3.26698
3.26898
3.26854
3.26672
3.2616
3.24458
3.21176
3.04633
3.07724
3.10382
3.12702
3.14734
3.16511
3.18072
3.19438
3.20638
3.21686
3.22605
3.23404
3.24104
3.24708
3.25237
3.25691
3.26089
3.26428
3.26721
3.26946
3.27039
3.2697
3.26732
3.25791
3.24147
3.04623
3.07734
3.10373
3.12711
3.14726
3.16518
3.18067
3.19443
3.20636
3.21688
3.22606
3.23402
3.24107
3.24703
3.25244
3.25684
3.26097
3.26423
3.26729
3.26969
3.27145
3.2714
3.27052
3.26607
3.25764
3.04623
3.07734
3.10371
3.12714
3.14722
3.16524
3.1806
3.19451
3.20626
3.217
3.22592
3.23418
3.2409
3.24722
3.25224
3.25705
3.26076
3.26443
3.26713
3.26989
3.2717
3.27293
3.27253
3.27066
3.26632
3.04634
3.07723
3.10383
3.12701
3.14734
3.16511
3.18073
3.19438
3.20639
3.21686
3.22606
3.23404
3.24104
3.24708
3.25237
3.25691
3.2609
3.26429
3.26727
3.26978
3.27199
3.2735
3.27396
3.27317
3.27111
3.04636
3.07722
3.10384
3.12701
3.14735
3.16511
3.18073
3.19439
3.20638
3.21687
3.22603
3.23406
3.241
3.24711
3.25232
3.25695
3.26085
3.26433
3.26723
3.26983
3.27197
3.27379
3.27475
3.27452
3.27316
3.04628
3.07728
3.10378
3.12706
3.1473
3.16515
3.18069
3.1944
3.20638
3.21686
3.22607
3.23402
3.24106
3.24706
3.25238
3.25692
3.26089
3.26431
3.26726
3.26982
3.27198
3.27386
3.27505
3.27498
3.27391
3.0463
3.07727
3.10379
3.12705
3.14731
3.16514
3.18069
3.19441
3.20636
3.21689
3.22604
3.23405
3.24104
3.24706
3.2524
3.25688
3.26093
3.26427
3.26729
3.2698
3.27201
3.27385
3.27518
3.27512
3.27413
2.96808
2.95148
2.94166
2.93461
2.9303
2.9265
2.92425
2.92013
2.91241
2.88565
2.83688
2.70635
2.39106
1.78005
0.722514
0.26879
0.370236
0.461182
0.499538
0.514103
0.536548
0.571915
0.628896
0.710418
0.883655
2.96827
2.95139
2.94178
2.93456
2.93038
2.92648
2.92438
2.92049
2.91345
2.89048
2.8415
2.72684
2.41594
1.854
0.815092
0.342619
0.405433
0.472234
0.51949
0.545521
0.580041
0.629774
0.70278
0.807672
0.977501
2.96777
2.95177
2.94137
2.93489
2.93002
2.92679
2.92417
2.92122
2.9146
2.89218
2.84989
2.73906
2.45722
1.92287
0.917439
0.431973
0.432219
0.486436
0.538025
0.574115
0.619153
0.678682
0.759531
0.866177
1.0088
2.96758
2.95204
2.94113
2.9352
2.92974
2.92714
2.92392
2.92178
2.91569
2.89821
2.85729
2.76657
2.50564
2.0261
1.08778
0.539753
0.461472
0.502702
0.555172
0.59899
0.651139
0.715528
0.798249
0.898545
1.02241
2.96788
2.95176
2.9414
2.93493
2.92998
2.92694
2.92402
2.92178
2.915
2.90274
2.86546
2.77867
2.58245
2.09289
1.25036
0.651568
0.495083
0.524225
0.574175
0.622557
0.678144
0.74348
0.825188
0.918037
1.02863
2.96821
2.95139
2.94174
2.93456
2.93034
2.92654
2.92454
2.92165
2.91788
2.90339
2.87807
2.80463
2.63021
2.27003
1.46237
0.784337
0.545456
0.562544
0.603984
0.651217
0.703711
0.765686
0.84419
0.931012
1.0305
2.96833
2.95128
2.94185
2.93446
2.93044
2.92646
2.92466
2.92182
2.91896
2.90722
2.88753
2.82664
2.6968
2.40209
1.77173
0.941633
0.624522
0.623914
0.650524
0.691258
0.735157
0.789183
0.859767
0.941384
1.03125
2.96779
2.95176
2.94136
2.93489
2.92997
2.9269
2.9242
2.92247
2.91908
2.91265
2.89237
2.84756
2.74438
2.47197
1.94315
1.06898
0.682731
0.668939
0.694583
0.729087
0.767482
0.814285
0.875398
0.948768
1.03071
2.96801
2.95157
2.94156
2.93473
2.93016
2.92676
2.9244
2.92251
2.92015
2.91498
2.89825
2.86268
2.7783
2.54981
2.11932
1.26229
0.78524
0.704729
0.726424
0.755979
0.795049
0.838556
0.892316
0.957308
1.03111
2.96809
2.95152
2.94163
2.93468
2.93024
2.9267
2.92453
2.9225
2.92075
2.91673
2.9018
2.87749
2.80379
2.63725
2.28311
1.51311
0.925544
0.750377
0.75676
0.780986
0.820176
0.860469
0.908286
0.966031
1.03229
2.96805
2.95154
2.94161
2.93469
2.93024
2.92669
2.92456
2.92245
2.92099
2.91712
2.90956
2.88511
2.83794
2.71107
2.43615
1.82672
1.0919
0.82969
0.805972
0.819198
0.849573
0.886657
0.928764
0.978347
1.03658
2.96813
2.95152
2.94166
2.9347
2.93026
2.92671
2.92458
2.92253
2.92121
2.91843
2.91293
2.89432
2.85887
2.76617
2.54333
2.08048
1.28281
0.901812
0.842947
0.853267
0.875988
0.910723
0.949015
0.993253
1.04409
2.96778
2.95181
2.94135
2.93495
2.92997
2.92697
2.92429
2.92285
2.92101
2.91955
2.91407
2.90387
2.87428
2.80352
2.64605
2.25138
1.52097
1.01811
0.888421
0.887514
0.903884
0.934181
0.970467
1.00989
1.05492
2.96798
2.95162
2.94152
2.93479
2.93013
2.92681
2.92445
2.9227
2.92134
2.91982
2.91717
2.90705
2.88932
2.83756
2.71713
2.46116
1.87424
1.21183
0.96698
0.933764
0.939528
0.960884
0.993158
1.02837
1.06781
2.96809
2.95149
2.94164
2.93463
2.93026
2.92665
2.9246
2.92256
2.92151
2.91991
2.91818
2.91079
2.89874
2.86
2.77746
2.59081
2.12567
1.42257
1.04928
0.977205
0.97602
0.991016
1.01731
1.0475
1.08197
2.9681
2.95148
2.94165
2.93463
2.93027
2.92664
2.92462
2.92254
2.92155
2.92
2.9187
2.91365
2.90525
2.87575
2.82226
2.67949
2.35312
1.71526
1.17714
1.02588
1.01113
1.02037
1.04193
1.07042
1.09991
2.96805
2.95154
2.9416
2.93469
2.93022
2.9267
2.92456
2.9226
2.92152
2.92015
2.91916
2.91605
2.91022
2.89007
2.85528
2.75021
2.54949
2.03233
1.39354
1.11018
1.05205
1.05069
1.06456
1.09029
1.11957
2.96783
2.95177
2.94139
2.93492
2.93
2.92693
2.92434
2.92284
2.92129
2.92047
2.91922
2.91787
2.91233
2.90282
2.87289
2.80982
2.66231
2.3046
1.64975
1.21632
1.10018
1.08474
1.09065
1.10936
1.13686
2.96782
2.95178
2.94138
2.93493
2.92999
2.92694
2.92433
2.92285
2.9213
2.92049
2.91941
2.91852
2.91595
2.90695
2.89181
2.84565
2.75067
2.52795
2.04133
1.41683
1.17651
1.13032
1.12577
1.13622
1.15752
2.96792
2.95168
2.94147
2.93483
2.93008
2.92685
2.92442
2.92276
2.92138
2.92043
2.91952
2.91875
2.91722
2.91122
2.90168
2.86996
2.80834
2.66003
2.29213
1.67377
1.27376
1.16949
1.15726
1.16148
1.17759
2.96804
2.95155
2.94159
2.9347
2.93021
2.92672
2.92455
2.92263
2.92151
2.9203
2.91967
2.91871
2.9178
2.91427
2.90818
2.8871
2.85038
2.7454
2.53032
2.02975
1.45478
1.23836
1.19585
1.19161
1.2009
2.96804
2.95156
2.94159
2.93471
2.9302
2.92673
2.92454
2.92264
2.92151
2.92031
2.91968
2.91879
2.91819
2.91621
2.91234
2.89919
2.87524
2.80883
2.66178
2.33579
1.73022
1.34557
1.23624
1.2212
1.22369
2.96802
2.95158
2.94157
2.93474
2.93018
2.92676
2.92452
2.92267
2.92148
2.92034
2.91967
2.91886
2.91843
2.91743
2.91497
2.90645
2.89272
2.84895
2.76606
2.55684
2.12294
1.54551
1.31409
1.26561
1.257
2.96789
2.95171
2.94144
2.93487
2.93005
2.92689
2.92438
2.9228
2.92135
2.92048
2.91953
2.91902
2.91832
2.91783
2.91643
2.9112
2.90264
2.87494
2.82144
2.68862
2.37646
1.81265
1.42092
1.30533
1.28719
2.96796
2.95163
2.94151
2.93479
2.93013
2.9268
2.92446
2.92272
2.92143
2.9204
2.91961
2.91894
2.91842
2.91788
2.91711
2.91415
2.90901
2.89156
2.86153
2.77262
2.60263
2.16059
1.63746
1.38335
1.32337
2.96803
2.95157
2.94157
2.93473
2.93019
2.92675
2.92452
2.92266
2.92149
2.92034
2.91967
2.91889
2.91849
2.9179
2.91748
2.91626
2.9119
2.90421
2.8812
2.83336
2.71767
2.45307
1.91761
1.51486
1.37339
2.968
2.9516
2.94155
2.93475
2.93016
2.92678
2.92449
2.92269
2.92146
2.92037
2.91964
2.91892
2.91847
2.91794
2.91765
2.91697
2.91508
2.90891
2.89834
2.86714
2.79955
2.64969
2.28829
1.74516
1.46061
2.96791
2.95169
2.94146
2.93485
2.93007
2.92687
2.9244
2.92278
2.92137
2.92046
2.91955
2.91902
2.91837
2.91805
2.91753
2.9172
2.91595
2.91347
2.90519
2.89014
2.84784
2.75388
2.54928
2.09075
1.63456
2.96791
2.95168
2.94147
2.93484
2.93008
2.92685
2.92442
2.92277
2.92138
2.92044
2.91957
2.919
2.91839
2.91804
2.91758
2.91734
2.91678
2.91533
2.91019
2.90206
2.87648
2.82382
2.70312
2.39728
1.88795
2.96801
2.95159
2.94156
2.93475
2.93017
2.92677
2.9245
2.92268
2.92147
2.92036
2.91965
2.91891
2.91848
2.91795
2.91768
2.91725
2.917
2.91606
2.91414
2.9075
2.89636
2.86286
2.795
2.63612
2.27929
2.96797
2.95163
2.94152
2.93478
2.93014
2.9268
2.92447
2.92271
2.92144
2.92039
2.91962
2.91895
2.91845
2.91798
2.91765
2.91731
2.91708
2.91669
2.91559
2.91177
2.9055
2.88552
2.84819
2.75089
2.5392
2.96792
2.95168
2.94147
2.93483
2.93008
2.92685
2.92442
2.92277
2.92138
2.92045
2.91957
2.919
2.91839
2.91804
2.9176
2.91737
2.91702
2.91684
2.91619
2.91476
2.90991
2.90149
2.8772
2.82451
2.70572
2.96799
2.95161
2.94153
2.93477
2.93015
2.92679
2.92448
2.9227
2.92145
2.92038
2.91963
2.91893
2.91846
2.91797
2.91767
2.9173
2.9171
2.9168
2.91654
2.91557
2.91373
2.90744
2.8968
2.86508
2.80164
2.96799
2.95162
2.94153
2.93477
2.93015
2.92679
2.92448
2.9227
2.92145
2.92038
2.91963
2.91893
2.91846
2.91797
2.91767
2.9173
2.91711
2.91682
2.91668
2.91626
2.91523
2.91163
2.90602
2.88751
2.85427
2.96793
2.95167
2.94148
2.93482
2.9301
2.92684
2.92443
2.92275
2.9214
2.92043
2.91958
2.91898
2.91841
2.91802
2.91762
2.91736
2.91706
2.91688
2.91665
2.91648
2.91598
2.91416
2.91106
2.90105
2.88345
2.96797
2.95163
2.94152
2.93478
2.93013
2.9268
2.92447
2.92272
2.92143
2.9204
2.91962
2.91895
2.91844
2.91799
2.91765
2.91732
2.91709
2.91685
2.91669
2.91649
2.91625
2.91534
2.91374
2.90809
2.89914
2.96797
2.95163
2.94152
2.93478
2.93013
2.9268
2.92447
2.92272
2.92143
2.9204
2.91962
2.91895
2.91845
2.91798
2.91765
2.91732
2.9171
2.91685
2.9167
2.9165
2.91638
2.91606
2.91489
2.91273
2.90619
2.96796
2.95164
2.94151
2.9348
2.93012
2.92682
2.92446
2.92273
2.92142
2.92041
2.91961
2.91896
2.91843
2.918
2.91764
2.91733
2.91708
2.91686
2.91669
2.91652
2.9164
2.91622
2.9157
2.91396
2.91096
2.96795
2.95165
2.94149
2.93481
2.93011
2.92683
2.92444
2.92275
2.9214
2.92043
2.91958
2.91898
2.91841
2.91802
2.91761
2.91736
2.91705
2.91689
2.91666
2.91656
2.91636
2.91625
2.9158
2.91493
2.91174
2.96795
2.95165
2.9415
2.93481
2.93011
2.92683
2.92444
2.92274
2.92141
2.92043
2.91959
2.91898
2.91841
2.91802
2.91761
2.91736
2.91706
2.91689
2.91666
2.91656
2.91637
2.91626
2.91589
2.91516
2.91236
2.98627
2.96969
2.95159
2.93494
2.91978
2.90674
2.89494
2.88379
2.86957
2.83645
2.77585
2.62893
2.28085
1.6283
0.536432
0.223346
0.338794
0.441878
0.471657
0.497945
0.52683
0.580606
0.660572
0.767006
0.963985
2.98636
2.9696
2.95168
2.93485
2.91986
2.90667
2.89506
2.8839
2.87026
2.83872
2.78304
2.64285
2.31997
1.69313
0.62228
0.253271
0.371614
0.458224
0.497134
0.532689
0.575438
0.639529
0.731524
0.855187
1.04588
2.98644
2.96952
2.95173
2.93482
2.91986
2.90675
2.89494
2.88462
2.87136
2.84805
2.78668
2.6598
2.38742
1.74605
0.764778
0.316459
0.393639
0.462745
0.517295
0.564471
0.619166
0.690694
0.785741
0.906496
1.06151
2.98755
2.96842
2.95282
2.93375
2.92092
2.90573
2.89602
2.88377
2.87327
2.85104
2.79699
2.68228
2.4387
1.84232
0.895981
0.400818
0.399726
0.468277
0.534498
0.591173
0.655137
0.729305
0.822243
0.933841
1.06523
2.98578
2.97017
2.95112
2.93541
2.91933
2.90722
2.89469
2.88494
2.87304
2.85259
2.80955
2.71646
2.46715
2.00526
1.04528
0.497444
0.402669
0.469
0.548361
0.61332
0.682643
0.758672
0.846724
0.94701
1.06254
2.98686
2.9691
2.95216
2.93437
2.92035
2.90623
2.89569
2.88416
2.87414
2.85373
2.82071
2.73111
2.53456
2.12912
1.23935
0.614005
0.424115
0.479623
0.563376
0.630984
0.702986
0.779158
0.864884
0.95597
1.057
2.98706
2.96891
2.95235
2.93419
2.92052
2.90608
2.8959
2.8842
2.87535
2.85826
2.83125
2.75729
2.60366
2.27181
1.52187
0.745048
0.475704
0.519694
0.589243
0.651092
0.720113
0.794784
0.876567
0.961841
1.0533
2.98706
2.9689
2.95236
2.93418
2.92054
2.90606
2.89595
2.88434
2.87633
2.86209
2.83963
2.77832
2.65279
2.38124
1.75618
0.873896
0.534183
0.568482
0.617962
0.673817
0.736613
0.807194
0.886248
0.965702
1.04916
2.98568
2.97026
2.95104
2.93547
2.91927
2.9073
2.89476
2.88564
2.87577
2.86577
2.84619
2.79705
2.69303
2.47015
1.91531
1.04194
0.628488
0.604187
0.642135
0.693908
0.751013
0.81625
0.891231
0.968486
1.0448
2.9863
2.96967
2.95161
2.93494
2.91978
2.90686
2.89515
2.88544
2.87605
2.86665
2.84755
2.81433
2.72795
2.5282
2.12541
1.25801
0.749569
0.626524
0.660649
0.708727
0.763887
0.824103
0.893668
0.967817
1.04166
2.9861
2.96986
2.95143
2.93513
2.91961
2.90703
2.895
2.88566
2.87612
2.8681
2.85329
2.82712
2.7622
2.61039
2.30803
1.60106
0.893197
0.671566
0.691458
0.728402
0.778519
0.832946
0.895888
0.965494
1.0364
2.98651
2.96944
2.95183
2.93472
2.92002
2.90662
2.89545
2.88522
2.87686
2.86823
2.85788
2.83243
2.78968
2.67255
2.42825
1.87769
1.04092
0.736366
0.724433
0.753092
0.797544
0.844952
0.900243
0.963886
1.0306
2.98599
2.96998
2.95132
2.93523
2.91952
2.90711
2.89498
2.88571
2.87653
2.86917
2.86001
2.8427
2.80716
2.72721
2.51877
2.12001
1.28121
0.845421
0.755584
0.777671
0.813353
0.85816
0.906882
0.96265
1.02517
2.98642
2.96951
2.95176
2.93475
2.91998
2.90662
2.89546
2.88525
2.87704
2.86919
2.86171
2.85001
2.82034
2.76083
2.62203
2.29587
1.61013
0.986949
0.804364
0.807155
0.83145
0.872411
0.917022
0.965919
1.02023
2.98641
2.96957
2.9517
2.93485
2.91986
2.90677