/*--------------------------------*- C++ -*----------------------------------*\
  =========                 |
  \\      /  F ield         | OpenFOAM: The Open Source CFD Toolbox
   \\    /   O peration     | Website:  https://openfoam.org
    \\  /    A nd           | Version:  6
     \\/     M anipulation  |
\*---------------------------------------------------------------------------*/
FoamFile
{
    version     2.0;
    format      ascii;
    class       volScalarField;
    location    "2.5";
    object      p;
}
// * * * * * * * * * * * * * * * * * * * * * * * * * * * * * * * * * * * * * //

dimensions      [1 -1 -2 0 0 0 0];

internalField   nonuniform List<scalar> 
26250
(
0.957641
0.911024
0.875229
0.843926
0.820521
0.796924
0.783016
0.763374
0.76343
0.772056
0.78061
0.898854
1.0145
1.8431
3.40386
8.02914
7.82726
7.27144
6.775
6.72771
6.7468
6.84119
7.09345
7.63212
8.42474
0.95764
0.911022
0.875231
0.843922
0.820528
0.796916
0.783027
0.76335
0.763401
0.771902
0.780406
0.897914
1.01281
1.83637
3.38541
7.97382
7.80127
7.28069
6.76284
6.70454
6.74482
6.86442
7.12656
7.64819
8.46138
0.957629
0.91103
0.875228
0.843923
0.820539
0.796897
0.783058
0.763264
0.763299
0.771512
0.779842
0.896218
1.00951
1.82791
3.36118
7.93159
7.75218
7.2383
6.73366
6.68105
6.73082
6.86646
7.14707
7.65192
8.4666
0.957584
0.911098
0.875182
0.843991
0.820482
0.796948
0.78302
0.763065
0.762992
0.770211
0.778062
0.891932
1.00241
1.81155
3.32411
7.81689
7.67317
7.21215
6.72062
6.67458
6.71422
6.84444
7.13111
7.64517
8.4646
0.957527
0.911201
0.875067
0.844171
0.820207
0.79742
0.78224
0.764636
0.761406
0.764128
0.798713
0.831229
1.11525
1.58429
3.39789
7.64784
7.56393
7.14605
6.68148
6.63295
6.67355
6.80385
7.09488
7.62052
8.45803
0.957722
0.910934
0.87523
0.843977
0.82041
0.797121
0.782786
0.763693
0.763825
0.767786
0.77467
0.882464
0.98465
1.76969
3.2062
7.5241
7.43199
7.0765
6.61552
6.56598
6.60828
6.74077
7.03522
7.56654
8.43244
0.957532
0.911227
0.875038
0.84422
0.820123
0.797525
0.782052
0.764778
0.760638
0.763112
0.795392
0.825515
1.09463
1.53144
3.24634
7.27105
7.25844
6.97285
6.53747
6.4855
6.52771
6.65736
6.94526
7.46925
8.36392
0.957753
0.910924
0.875235
0.843959
0.820389
0.797125
0.782675
0.763677
0.762284
0.766979
0.773579
0.873755
0.965466
1.70328
2.99355
7.05018
7.09386
6.86567
6.44332
6.387
6.42664
6.54642
6.81289
7.30505
8.20953
0.957824
0.910835
0.875261
0.843912
0.820388
0.797142
0.7826
0.76381
0.761836
0.766415
0.772684
0.868038
0.95535
1.64967
2.85937
6.73484
6.92627
6.73015
6.33887
6.27311
6.3049
6.40298
6.62434
7.03938
7.87929
0.957811
0.910861
0.875214
0.844028
0.820203
0.797459
0.782054
0.764523
0.760339
0.763854
0.769564
0.859076
0.938544
1.59893
2.72832
6.3859
6.73491
6.57351
6.2394
6.15049
6.16738
6.22672
6.36544
6.62036
7.16946
1.03457
1.06942
1.09341
1.10978
1.12292
1.13216
1.1405
1.14796
1.16062
1.19876
1.25403
1.48366
1.86946
3.33118
7.22848
17.0341
15.443
13.8607
13.401
13.5868
13.5719
13.7239
14.1008
14.6019
15.0587
1.03457
1.06942
1.09341
1.10977
1.12293
1.13215
1.14051
1.14795
1.16057
1.1986
1.25361
1.48269
1.86658
3.32338
7.20231
16.886
15.4086
13.8165
13.3354
13.4225
13.5653
13.7574
14.0953
14.5505
15.0277
1.03457
1.06942
1.09341
1.10978
1.12293
1.13215
1.14052
1.1479
1.16044
1.19817
1.2529
1.47992
1.86149
3.30632
7.15575
16.8446
15.2873
13.7073
13.2504
13.3424
13.5167
13.7095
14.0297
14.4295
14.9307
1.03454
1.06945
1.09339
1.10981
1.12291
1.13216
1.14051
1.14781
1.16021
1.19742
1.25183
1.4752
1.8537
3.2788
7.08039
16.5775
15.1343
13.5779
13.1822
13.3459
13.4083
13.5715
13.881
14.2387
14.7559
1.03451
1.0695
1.09333
1.10989
1.1228
1.13231
1.14031
1.14784
1.15925
1.1976
1.24186
1.47949
1.82079
3.25201
7.0042
16.2769
14.9251
13.4053
13.034
13.1635
13.2481
13.3932
13.674
13.9879
14.518
1.03457
1.06944
1.09338
1.10983
1.12288
1.1322
1.14045
1.14768
1.15969
1.19544
1.2481
1.46199
1.82339
3.19537
6.80816
16.006
14.6742
13.1933
12.8447
12.9725
13.051
13.1716
13.4147
13.6744
14.202
1.0345
1.06953
1.09331
1.10993
1.12275
1.13237
1.1402
1.14781
1.15871
1.19514
1.23712
1.46397
1.7767
3.16605
6.62297
15.5261
14.3735
12.9556
12.6184
12.7256
12.8129
12.8991
13.0853
13.2738
13.7738
1.03459
1.06944
1.09338
1.10983
1.12284
1.13223
1.14035
1.14767
1.15899
1.19291
1.24031
1.44849
1.75974
3.10537
6.32376
15.0676
14.0475
12.6907
12.3612
12.4451
12.5267
12.5694
12.6783
12.7673
13.184
1.03462
1.0694
1.0934
1.10979
1.12285
1.13221
1.14031
1.14762
1.15854
1.19113
1.23667
1.4366
1.7292
3.02971
6.03368
14.4743
13.6666
12.3962
12.081
12.143
12.1885
12.1727
12.1705
12.1051
12.3289
1.03461
1.0694
1.09341
1.10979
1.12286
1.13221
1.14029
1.1475
1.15778
1.18886
1.23102
1.42363
1.69428
2.94182
5.74797
13.7822
13.2122
12.0908
11.7886
11.8185
11.8069
11.7211
11.5576
11.2137
11.0085
1.00894
1.03177
1.0593
1.08749
1.11321
1.13835
1.1584
1.18236
1.20146
1.25123
1.32348
1.60082
2.06591
3.78766
8.52231
19.8284
17.6957
15.8708
15.3977
15.5518
15.6911
15.8312
16.1758
16.5689
16.8876
1.00893
1.03177
1.0593
1.08749
1.11322
1.13834
1.15843
1.1823
1.20151
1.25072
1.32431
1.59795
2.06778
3.78172
8.51051
19.7505
17.6282
15.8121
15.3765
15.5544
15.6875
15.7872
16.1119
16.472
16.7981
1.00893
1.03177
1.0593
1.08749
1.11322
1.13834
1.15841
1.18233
1.20129
1.25076
1.32234
1.59776
2.0585
3.76616
8.45232
19.6224
17.4932
15.6835
15.3037
15.5297
15.6317
15.6683
15.9521
16.2509
16.582
1.00892
1.03178
1.05929
1.0875
1.11322
1.13834
1.15842
1.18226
1.20123
1.24981
1.32224
1.59194
2.05362
3.73915
8.37297
19.4428
17.3003
15.5008
15.1707
15.432
15.4987
15.4844
15.7169
15.9448
16.2708
1.00891
1.03179
1.05928
1.08751
1.11322
1.13833
1.15843
1.18217
1.20107
1.24856
1.32152
1.58411
2.04387
3.69766
8.24187
19.1245
17.0493
15.2796
14.9911
15.2831
15.3084
15.2515
15.4211
15.5699
15.8828
1.00892
1.03178
1.05929
1.0875
1.11322
1.13833
1.15841
1.18213
1.20066
1.24761
1.31825
1.57722
2.02224
3.63714
8.03784
18.7252
16.758
15.0213
14.7615
15.0619
15.0739
14.9746
15.066
15.1211
15.402
1.00893
1.03177
1.0593
1.08749
1.11322
1.13832
1.15838
1.18206
1.20034
1.24575
1.31596
1.56475
1.99996
3.55774
7.77672
18.265
16.4264
14.7287
14.4874
14.7779
14.7839
14.6396
14.6342
14.5732
14.7896
1.00895
1.03175
1.05932
1.08748
1.11322
1.13832
1.15835
1.18199
1.19984
1.2439
1.31213
1.55204
1.97
3.46362
7.4763
17.7004
16.0391
14.403
14.1742
14.4286
14.4274
14.2407
14.123
13.9115
14.0079
1.00897
1.03173
1.05933
1.08745
1.11323
1.13829
1.15833
1.18187
1.1994
1.24124
1.30935
1.53463
1.94066
3.35503
7.14645
17.0317
15.6058
14.0465
13.828
14.0287
14.0057
13.7665
13.5117
13.0931
12.9531
1.00897
1.0317
1.05939
1.08736
1.11337
1.13809
1.1585
1.18159
1.19827
1.24008
1.30015
1.52878
1.88141
3.29474
6.7924
16.2421
15.0807
13.6799
13.4651
13.6011
13.5364
13.2197
12.7879
12.088
11.4836
1.03453
1.06945
1.09338
1.10981
1.1229
1.13217
1.1405
1.14791
1.16047
1.19842
1.2535
1.48234
1.8686
3.32969
7.23291
16.9098
15.4483
13.8523
13.3334
13.4002
13.5574
13.7702
14.1618
14.6576
15.1719
1.03449
1.06951
1.09332
1.10989
1.1228
1.1323
1.14033
1.14788
1.15964
1.19937
1.24509
1.49106
1.84873
3.33612
7.2732
16.9758
15.3604
13.7997
13.3662
13.5497
13.5436
13.6948
14.095
14.5921
15.0965
1.0345
1.06949
1.09334
1.10986
1.12285
1.13222
1.14047
1.14784
1.16032
1.19785
1.25278
1.47844
1.86314
3.30937
7.18267
16.7674
15.2755
13.714
13.3143
13.4895
13.4948
13.6275
13.9909
14.444
14.9363
1.03446
1.06955
1.09328
1.10994
1.12276
1.13235
1.1403
1.14788
1.15952
1.19852
1.24381
1.48574
1.83604
3.29742
7.1508
16.5784
15.1107
13.5667
13.1793
13.2919
13.39
13.5413
13.8497
14.2334
14.7325
1.03444
1.06957
1.09327
1.10997
1.12273
1.13238
1.14027
1.14787
1.1594
1.19774
1.24267
1.48068
1.8243
3.26062
7.03945
16.3357
14.8992
13.386
13.0352
13.1893
13.2492
13.385
13.6489
13.9701
14.4792
1.03447
1.06954
1.09329
1.10994
1.12276
1.13236
1.14026
1.14784
1.15911
1.19661
1.24038
1.4734
1.80467
3.21552
6.85894
15.945
14.6627
13.1897
12.8435
12.9616
13.0587
13.1759
13.3917
13.6482
14.1538
1.03453
1.06945
1.09339
1.10981
1.12291
1.13214
1.14048
1.14761
1.15936
1.19446
1.24421
1.45801
1.79148
3.16238
6.57973
15.5855
14.3879
12.962
12.6173
12.7161
12.8222
12.9047
13.0644
13.2427
13.7211
1.03457
1.06943
1.09341
1.10977
1.12292
1.13212
1.14046
1.14758
1.15899
1.19303
1.24053
1.44916
1.76009
3.10551
6.31624
15.0604
14.058
12.698
12.3643
12.4487
12.5363
12.5741
12.6592
12.7304
13.1297
1.03461
1.06939
1.09341
1.10977
1.12287
1.13218
1.14034
1.14761
1.15854
1.19118
1.2368
1.43681
1.72985
3.03
6.0335
14.4729
13.6737
12.402
12.0867
12.1497
12.1974
12.1797
12.1549
12.063
12.2771
1.0346
1.0694
1.0934
1.10978
1.12286
1.1322
1.1403
1.1475
1.1578
1.18893
1.23116
1.42396
1.69504
2.94265
5.74939
13.7817
13.2146
12.0953
11.7943
11.8249
11.8143
11.7271
11.5467
11.1767
10.9628
0.957574
0.911089
0.875176
0.84398
0.820489
0.796934
0.783036
0.763051
0.763008
0.770602
0.778785
0.89538
1.0093
1.83601
3.40381
7.97976
7.80565
7.28031
6.75133
6.68582
6.73166
6.86626
7.1585
7.6985
8.52735
0.957485
0.911227
0.875054
0.844169
0.820225
0.797381
0.782318
0.764594
0.761919
0.7648
0.801567
0.836298
1.13408
1.63559
3.53167
7.96702
7.78925
7.22194
6.75238
6.71067
6.7354
6.845
7.12494
7.69354
8.50735
0.95753
0.911151
0.875114
0.844079
0.820376
0.797099
0.782871
0.763376
0.7634
0.769401
0.777166
0.891159
1.00046
1.82487
3.38222
7.91799
7.74021
7.22234
6.74656
6.7033
6.72831
6.83596
7.11216
7.6826
8.48691
0.957449
0.911276
0.875003
0.844248
0.820147
0.797485
0.78224
0.764659
0.762114
0.765012
0.802059
0.836646
1.12964
1.61173
3.46895
7.77905
7.65358
7.16667
6.70967
6.6642
6.70235
6.82358
7.10212
7.66272
8.47852
0.957434
0.911303
0.874977
0.844295
0.820091
0.797557
0.78217
0.764671
0.7623
0.765259
0.802017
0.835881
1.12339
1.58029
3.4244
7.65181
7.54335
7.0911
6.65967
6.62555
6.66407
6.78926
7.07148
7.62272
8.4567
0.957468
0.911259
0.875019
0.844239
0.820144
0.7975
0.782166
0.764678
0.761481
0.764236
0.799181
0.831295
1.11083
1.55907
3.3466
7.47849
7.41521
7.03608
6.59995
6.55835
6.60119
6.73063
7.01499
7.5563
8.41224
0.957578
0.911097
0.875181
0.843986
0.820487
0.79693
0.783031
0.763005
0.762895
0.768451
0.775409
0.880773
0.979077
1.73974
3.10462
7.31105
7.2634
6.98211
6.52577
6.47273
6.5166
6.64527
6.92445
7.45061
8.33053
0.957633
0.911045
0.875215
0.843927
0.82052
0.796879
0.78305
0.763053
0.763071
0.768161
0.775283
0.875461
0.97007
1.69104
2.98749
7.04896
7.10139
6.87139
6.43778
6.37862
6.41798
6.53463
6.79022
7.27952
8.16989
0.957788
0.910857
0.875265
0.843892
0.820432
0.797075
0.782693
0.763668
0.762075
0.766673
0.772554
0.868393
0.955294
1.65105
2.85935
6.73681
6.93429
6.7368
6.34155
6.27135
6.30135
6.39414
6.6024
7.01084
7.83986
0.9578
0.91085
0.875206
0.844022
0.820206
0.797458
0.782067
0.764547
0.760234
0.764072
0.769921
0.859463
0.938883
1.59965
2.72891
6.3866
6.74078
6.57893
6.24333
6.15083
6.16563
6.21976
6.34764
6.59408
7.13534
0.957479
0.911324
0.874913
0.844411
0.81985
0.797894
0.781476
0.765115
0.758334
0.760409
0.783781
0.805128
1.03049
1.33719
2.74664
5.99276
6.49565
6.38538
6.13422
6.01907
6.00837
6.0122
6.00847
5.92902
5.39082
0.957642
0.911085
0.875009
0.844357
0.819804
0.79806
0.781114
0.765585
0.756895
0.759754
0.764594
0.841318
0.910893
1.46664
2.43568
5.53754
6.25739
6.1959
6.03152
5.89391
5.83996
5.78773
5.68208
5.43992
4.82658
0.95738
0.911469
0.874732
0.844684
0.819476
0.798446
0.780602
0.766062
0.75503
0.756124
0.775504
0.792126
0.979498
1.21244
2.38773
5.03399
6.03061
6.0103
5.91609
5.77116
5.67888
5.57792
5.42233
5.15214
4.61671
0.957548
0.911247
0.874793
0.844651
0.819379
0.798647
0.780215
0.76656
0.753669
0.756082
0.759753
0.82033
0.876161
1.29353
2.02512
4.42456
5.85384
5.8712
5.80865
5.6677
5.53223
5.39312
5.20524
4.92429
4.47969
0.957494
0.911339
0.874669
0.844834
0.819108
0.799046
0.779601
0.767287
0.75179
0.753628
0.756562
0.805609
0.851244
1.1828
1.74523
3.6442
5.73856
5.81747
5.74679
5.5818
5.4039
5.23713
5.03397
4.75495
4.36803
0.95735
0.911535
0.874538
0.845008
0.818955
0.799233
0.779381
0.767409
0.751036
0.751158
0.759025
0.766915
0.866964
0.965324
1.61263
2.72493
5.5388
5.7865
5.70962
5.52435
5.29727
5.10706
4.8987
4.63153
4.28738
0.957334
0.911533
0.87454
0.845026
0.818944
0.799276
0.779298
0.767502
0.750474
0.750449
0.754854
0.761335
0.838295
0.908814
1.44003
2.30152
4.97837
5.67316
5.61979
5.46102
5.20554
4.9959
4.78498
4.53289
4.22319
0.957187
0.911721
0.874469
0.845084
0.818988
0.799148
0.779579
0.766961
0.7513
0.748623
0.751347
0.757209
0.817221
0.88214
1.29719
2.02119
4.32814
5.43309
5.4265
5.34291
5.14367
4.90758
4.69057
4.45238
4.17223
0.957242
0.911621
0.874589
0.844891
0.819257
0.798736
0.780164
0.766029
0.752313
0.745552
0.747323
0.751879
0.797533
0.852743
1.16143
1.72235
3.50054
5.18806
5.30183
5.24356
5.08918
4.84077
4.61942
4.39141
4.13409
0.957437
0.911332
0.874818
0.844562
0.81963
0.798193
0.780902
0.76484
0.753671
0.741138
0.741398
0.749877
0.757861
0.850742
0.942837
1.51998
2.48687
4.89445
5.2312
5.18555
5.05724
4.80634
4.5773
4.35181
4.10918
0.957427
0.911359
0.874819
0.844528
0.819673
0.798105
0.780989
0.764716
0.753583
0.74081
0.738435
0.7403
0.762888
0.783625
0.952034
1.19553
2.14634
4.17466
5.06866
5.06442
4.98961
4.80461
4.55068
4.31955
4.08718
0.957584
0.91115
0.874923
0.844429
0.819701
0.79812
0.780894
0.764882
0.753254
0.74092
0.736915
0.738899
0.743217
0.790417
0.842921
1.14862
1.68474
3.35702
4.82657
4.96165
4.91521
4.78533
4.52836
4.2941
4.06959
0.957408
0.911411
0.874732
0.84468
0.819434
0.798481
0.780406
0.765569
0.752146
0.742161
0.732831
0.733365
0.743472
0.754704
0.839498
0.947474
1.45664
2.36705
4.47207
4.86346
4.8358
4.74041
4.52995
4.28588
4.06233
0.957398
0.911417
0.874714
0.844737
0.819359
0.798619
0.780199
0.765879
0.751613
0.742725
0.730664
0.730647
0.735872
0.741232
0.803233
0.858075
1.25773
1.85625
3.7177
4.67041
4.71516
4.66624
4.52844
4.28771
4.06313
0.957286
0.91156
0.874641
0.844817
0.819331
0.798628
0.780248
0.765761
0.751831
0.742263
0.731184
0.728736
0.730674
0.734516
0.775776
0.817147
1.07933
1.50085
2.8063
4.37585
4.62881
4.60057
4.50699
4.3024
4.07064
0.957322
0.911497
0.874697
0.844734
0.819438
0.798473
0.780476
0.765423
0.752327
0.741457
0.732079
0.72582
0.726797
0.729791
0.754534
0.787337
0.945873
1.21907
2.08262
3.77842
4.48258
4.50367
4.45969
4.33313
4.09215
0.95737
0.911431
0.874743
0.84466
0.819514
0.798357
0.780637
0.765179
0.752695
0.740832
0.732777
0.723169
0.72295
0.724531
0.740373
0.757793
0.870027
1.02515
1.6638
2.9442
4.21175
4.42931
4.40523
4.32012
4.13533
0.957405
0.911391
0.874758
0.844641
0.819507
0.798373
0.780584
0.765275
0.752517
0.741117
0.732172
0.723642
0.719462
0.720408
0.729266
0.739728
0.812326
0.897322
1.32171
2.03221
3.75669
4.3073
4.31988
4.28233
4.17088
0.957412
0.91139
0.874749
0.844661
0.819466
0.798439
0.780472
0.765449
0.752236
0.741539
0.731444
0.724437
0.716624
0.716823
0.722022
0.727815
0.774843
0.825567
1.11478
1.5737
2.96137
4.04897
4.24359
4.22413
4.15481
0.957414
0.911385
0.874754
0.844663
0.819463
0.798452
0.780449
0.765484
0.752173
0.741622
0.731277
0.724566
0.715829
0.715469
0.717137
0.721339
0.747585
0.785735
0.947686
1.23648
2.05429
3.6177
4.12739
4.15251
4.1205
0.957372
0.911444
0.874727
0.844692
0.819458
0.798439
0.780496
0.765382
0.75235
0.741316
0.73175
0.723727
0.716813
0.712081
0.712775
0.715289
0.73063
0.752698
0.85744
1.01748
1.61565
2.82103
3.8767
4.08551
4.07108
0.957395
0.911411
0.874749
0.844663
0.819487
0.798401
0.780544
0.765316
0.752448
0.741165
0.731985
0.7233
0.717264
0.710249
0.709311
0.7103
0.719701
0.729139
0.800532
0.877227
1.26206
1.89984
3.41309
3.95184
4.00644
0.957424
0.911373
0.874767
0.844638
0.819499
0.798393
0.780541
0.76534
0.752398
0.741268
0.731806
0.723593
0.716695
0.710821
0.706639
0.707111
0.712051
0.718413
0.759015
0.807276
1.05242
1.44522
2.60044
3.66231
3.92422
0.957441
0.911353
0.874776
0.84463
0.819498
0.7984
0.780521
0.765377
0.752335
0.74137
0.731641
0.723846
0.716258
0.711305
0.704891
0.704887
0.707164
0.71061
0.733744
0.766313
0.900849
1.13429
1.80052
3.09216
3.75359
0.957398
0.911412
0.874746
0.844667
0.819475
0.798419
0.780509
0.765375
0.752346
0.741329
0.731714
0.7237
0.716497
0.710816
0.705432
0.702622
0.703272
0.705181
0.718176
0.73504
0.819038
0.938587
1.3911
2.26474
3.40515
0.957404
0.911403
0.874754
0.844659
0.819486
0.798406
0.780527
0.765347
0.752388
0.74126
0.73182
0.723527
0.716761
0.710348
0.705965
0.700662
0.700695
0.701603
0.70843
0.717955
0.766876
0.826442
1.11958
1.55737
2.7401
0.957427
0.911372
0.874769
0.844638
0.819497
0.798396
0.780534
0.765346
0.752385
0.741278
0.731787
0.723594
0.716637
0.710557
0.705511
0.701114
0.698124
0.698461
0.702042
0.706493
0.734808
0.770147
0.927365
1.18369
1.8693
0.957444
0.91135
0.87478
0.844626
0.819502
0.798392
0.780532
0.765355
0.752368
0.741311
0.731734
0.723681
0.716499
0.71077
0.705148
0.701521
0.696757
0.696751
0.698203
0.700765
0.715623
0.738384
0.825429
0.97762
1.4363
0.957416
0.911392
0.874758
0.844652
0.819485
0.798407
0.78052
0.765361
0.752364
0.741304
0.731749
0.723645
0.716565
0.710646
0.705355
0.701099
0.697231
0.694779
0.695145
0.696464
0.704279
0.715568
0.766993
0.837219
1.11964
0.957428
0.911373
0.87477
0.844639
0.819496
0.798396
0.780531
0.765348
0.75238
0.741283
0.73178
0.7236
0.716632
0.710543
0.705505
0.700849
0.697467
0.693756
0.693086
0.693645
0.69758
0.70314
0.731679
0.770771
0.928957
0.957429
0.911371
0.87477
0.844638
0.819497
0.798396
0.780532
0.765349
0.752379
0.741287
0.731773
0.723614
0.716606
0.710592
0.705411
0.701006
0.697136
0.694096
0.691367
0.691508
0.693425
0.69611
0.711772
0.733731
0.821355
0.957419
0.911384
0.874762
0.844647
0.81949
0.798402
0.780527
0.765354
0.752374
0.741292
0.731765
0.723624
0.716589
0.710615
0.705376
0.701052
0.697056
0.69412
0.690967
0.690137
0.690641
0.692172
0.699782
0.711543
0.759399
0.957418
0.911386
0.874762
0.844648
0.81949
0.798402
0.780527
0.765353
0.752376
0.741288
0.731772
0.723612
0.71661
0.71058
0.705436
0.700947
0.697226
0.693796
0.69133
0.688633
0.688705
0.689201
0.693295
0.698599
0.725079
0.957432
0.911366
0.874773
0.844635
0.8195
0.798393
0.780535
0.765347
0.752382
0.741284
0.731776
0.72361
0.716611
0.710581
0.705429
0.700963
0.697188
0.69386
0.691145
0.688713
0.687231
0.687446
0.689284
0.692035
0.705784
0.957422
0.91138
0.874766
0.844642
0.819495
0.798397
0.780532
0.765349
0.752379
0.741286
0.731772
0.723616
0.7166
0.710598
0.705401
0.701008
0.697114
0.693974
0.690939
0.688936
0.686365
0.686358
0.686911
0.688098
0.695257
0.957422
0.911381
0.874765
0.844644
0.819493
0.798399
0.780529
0.765351
0.752376
0.741288
0.73177
0.723616
0.716602
0.710593
0.705413
0.700986
0.697155
0.693899
0.691067
0.688675
0.686673
0.685101
0.685229
0.685774
0.689283
0.957436
0.911363
0.874775
0.844632
0.8195
0.798392
0.780534
0.765347
0.752381
0.741285
0.731774
0.723613
0.716606
0.710588
0.705422
0.700974
0.697174
0.693869
0.691107
0.688607
0.686698
0.684771
0.684108
0.684353
0.685997
0.957439
0.91136
0.874776
0.84463
0.8195
0.798391
0.780534
0.765347
0.75238
0.741287
0.731772
0.723616
0.716603
0.710594
0.705413
0.700987
0.697153
0.693904
0.691051
0.688693
0.686539
0.684933
0.683393
0.683473
0.684495
0.957431
0.911371
0.874771
0.844636
0.819497
0.798394
0.780532
0.765348
0.752378
0.741287
0.73177
0.723618
0.716598
0.7106
0.705402
0.701002
0.697131
0.693935
0.691006
0.688755
0.686447
0.685031
0.683129
0.68315
0.683912
0.957431
0.91137
0.874772
0.844637
0.819498
0.798395
0.780531
0.765349
0.752377
0.741288
0.731768
0.72362
0.716595
0.710603
0.705397
0.701009
0.697121
0.693948
0.690988
0.688779
0.686414
0.685066
0.68304
0.683039
0.683732
1.03447
1.06952
1.09338
1.10979
1.12301
1.1319
1.14087
1.1461
1.15899
1.1787
1.25025
1.34315
1.80292
2.61975
5.66576
12.9555
12.6414
11.8131
11.4996
11.4786
11.4045
11.201
10.8251
10.0406
8.17791
1.03449
1.06948
1.09341
1.10974
1.12307
1.13181
1.14098
1.14568
1.15818
1.17407
1.24524
1.31843
1.7685
2.4772
5.30652
12.1112
12.0784
11.592
11.2359
11.1466
10.9876
10.6563
10.1031
9.11743
7.18551
1.03439
1.06961
1.09326
1.10994
1.12284
1.13207
1.14064
1.14559
1.15675
1.17304
1.23585
1.30793
1.71434
2.34999
4.94087
11.0913
11.6654
11.3691
10.9867
10.8221
10.5882
10.1656
9.52423
8.55311
7.05742
1.03442
1.06961
1.09321
1.11001
1.1227
1.13225
1.14037
1.14573
1.15589
1.16808
1.22609
1.28294
1.64852
2.18679
4.43864
9.92539
11.4001
11.1866
10.764
10.5261
10.2321
9.7686
9.1145
8.23032
7.05686
1.03438
1.06966
1.09314
1.11012
1.12251
1.1326
1.13971
1.14706
1.1533
1.17295
1.19684
1.31859
1.45837
2.24424
3.72287
8.57619
11.2497
11.058
10.5966
10.2642
9.92732
9.45725
8.82913
8.03409
7.05774
1.03427
1.06977
1.09307
1.1102
1.12249
1.13257
1.13987
1.1463
1.15344
1.1651
1.20373
1.25161
1.496
1.85499
3.3504
6.90751
11.158
10.9752
10.4606
10.0291
9.66304
9.20403
8.61839
7.90239
7.0604
1.03423
1.06981
1.09305
1.11024
1.12245
1.13265
1.13971
1.14643
1.15236
1.16243
1.19267
1.2354
1.41687
1.69749
2.80363
5.3031
10.8712
10.7856
10.3563
9.81692
9.42539
8.98592
8.44453
7.79935
7.06113
1.03423
1.06981
1.09303
1.11028
1.12239
1.13277
1.13945
1.14684
1.15088
1.16222
1.17643
1.24009
1.30965
1.69534
2.34723
4.6335
9.93351
10.3873
10.1307
9.60631
9.21272
8.79409
8.29367
7.71096
7.05831
1.03427
1.06974
1.09309
1.11019
1.12247
1.13265
1.13954
1.14662
1.15046
1.15976
1.17165
1.22379
1.27582
1.59795
2.05735
3.97695
8.37587
9.97263
9.83884
9.46112
9.03787
8.629
8.1668
7.63741
7.05167
1.03435
1.06965
1.09318
1.11004
1.12262
1.13242
1.1398
1.14618
1.15069
1.15775
1.16936
1.20678
1.25666
1.49035
1.84721
3.28281
6.5968
9.73098
9.67098
9.37732
8.90808
8.49721
8.06253
7.57659
7.04403
1.03438
1.06961
1.09323
1.10997
1.12273
1.13224
1.14007
1.14568
1.15145
1.15589
1.16794
1.18626
1.25242
1.35155
1.74975
2.5239
4.8451
9.25157
9.50254
9.29121
8.82836
8.39796
7.97785
7.52447
7.03507
1.03443
1.06956
1.09327
1.10991
1.12278
1.13216
1.14015
1.14554
1.15145
1.15507
1.16447
1.17853
1.2295
1.2958
1.60769
2.14115
3.98031
8.10549
9.21217
9.09959
8.76292
8.31413
7.89912
7.47319
7.02142
1.03439
1.06962
1.0932
1.11002
1.12265
1.13236
1.13988
1.14591
1.15078
1.15558
1.1607
1.17682
1.19615
1.29424
1.40465
2.01064
3.10051
6.47075
8.89427
8.87544
8.68114
8.25884
7.83616
7.42829
7.00908
1.03434
1.06968
1.09315
1.11009
1.12258
1.13246
1.13978
1.146
1.15069
1.15501
1.16005
1.16834
1.19535
1.22926
1.3975
1.61874
2.59982
4.58518
8.31686
8.72405
8.58629
8.23232
7.79314
7.39471
6.99972
1.03428
1.06974
1.09312
1.11014
1.12256
1.13248
1.13978
1.14599
1.15065
1.15498
1.15913
1.16557
1.18486
1.2106
1.32925
1.46755
2.20058
3.47654
7.10661
8.45298
8.40231
8.18943
7.76253
7.37027
6.99366
1.03429
1.06971
1.09315
1.11009
1.12262
1.1324
1.13989
1.14585
1.15081
1.15475
1.15893
1.1638
1.17732
1.19826
1.27591
1.38594
1.86593
2.74936
5.41002
8.01139
8.21126
8.09018
7.76904
7.37133
6.99696
1.03433
1.06967
1.09318
1.11004
1.12266
1.13234
1.13996
1.14577
1.15089
1.15461
1.15871
1.16231
1.1716
1.18703
1.23665
1.32092
1.60931
2.17484
3.83103
7.13273
8.02462
7.96791
7.75929
7.3794
7.00752
1.03437
1.06962
1.0932
1.11002
1.12266
1.13235
1.13991
1.14584
1.15076
1.15477
1.15822
1.16183
1.16682
1.18177
1.20219
1.29148
1.39974
1.93679
2.87367
5.65154
7.68068
7.81417
7.70826
7.41726
7.03103
1.03437
1.06963
1.09319
1.11004
1.12264
1.13237
1.13988
1.14587
1.15073
1.15472
1.15828
1.16099
1.16547
1.17285
1.19561
1.22904
1.36069
1.56299
2.31806
3.82295
6.97691
7.66387
7.61202
7.42063
7.06159
1.03435
1.06966
1.09318
1.11005
1.12263
1.13239
1.13987
1.14588
1.15071
1.15474
1.15818
1.16098
1.1643
1.16954
1.1847
1.2068
1.29616
1.40696
1.95183
2.87046
5.53592
7.33079
7.4688
7.38028
7.1308
1.03433
1.06968
1.09317
1.11007
1.12263
1.13239
1.13988
1.14586
1.15074
1.1547
1.15819
1.16093
1.16394
1.16753
1.17717
1.19288
1.2453
1.33091
1.63252
2.20966
3.80046
6.63954
7.31192
7.28153
7.13323
1.03434
1.06966
1.09318
1.11005
1.12265
1.13237
1.1399
1.14584
1.15077
1.15467
1.15821
1.16085
1.16376
1.16618
1.17257
1.18236
1.21745
1.26284
1.47181
1.78247
2.91417
5.20529
6.95862
7.16238
7.09368
1.03436
1.06964
1.09319
1.11003
1.12265
1.13236
1.1399
1.14584
1.15075
1.15469
1.15818
1.16085
1.16362
1.16537
1.16965
1.17648
1.19709
1.23015
1.34493
1.53965
2.18978
3.48614
6.2419
6.98974
6.98509
1.03438
1.06963
1.0932
1.11003
1.12265
1.13236
1.13989
1.14586
1.15072
1.15474
1.15811
1.16095
1.16344
1.16545
1.16814
1.17264
1.18585
1.2057
1.28169
1.38346
1.83472
2.60686
4.77743
6.57146
6.86889
1.03435
1.06966
1.09318
1.11005
1.12263
1.13238
1.13987
1.14588
1.15071
1.15475
1.1581
1.16094
1.1634
1.16544
1.16761
1.17061
1.17854
1.19185
1.23425
1.30692
1.54497
2.0017
3.24314
5.68047
6.6273
1.03434
1.06967
1.09318
1.11005
1.12264
1.13238
1.13988
1.14587
1.15072
1.15473
1.15812
1.16092
1.1634
1.16544
1.16726
1.16959
1.17336
1.18497
1.20132
1.26778
1.35601
1.73408
2.3911
4.21507
6.09993
1.03436
1.06965
1.09319
1.11004
1.12264
1.13237
1.13989
1.14587
1.15072
1.15474
1.15811
1.16094
1.16338
1.16542
1.16728
1.16872
1.17187
1.17678
1.19267
1.21411
1.30825
1.4254
1.94585
2.81854
5.03781
1.03437
1.06964
1.0932
1.11003
1.12265
1.13237
1.13988
1.14587
1.15071
1.15475
1.15808
1.16098
1.16332
1.1655
1.16714
1.16893
1.1705
1.17456
1.18096
1.20283
1.23181
1.36213
1.53709
2.22419
3.52519
1.03436
1.06965
1.09319
1.11004
1.12264
1.13238
1.13988
1.14587
1.15071
1.15476
1.15808
1.16098
1.16333
1.16548
1.16713
1.16885
1.16997
1.17255
1.17664
1.18931
1.20665
1.28249
1.36855
1.80173
2.46528
1.03436
1.06965
1.09319
1.11004
1.12264
1.13237
1.13988
1.14587
1.15072
1.15474
1.1581
1.16095
1.16337
1.16542
1.16723
1.16869
1.17017
1.17145
1.17463
1.17985
1.19627
1.22075
1.31404
1.45089
1.95083
1.03436
1.06965
1.09319
1.11004
1.12264
1.13237
1.13989
1.14587
1.15072
1.15474
1.1581
1.16095
1.16337
1.16543
1.16721
1.1687
1.17006
1.17114
1.17305
1.17628
1.18571
1.20048
1.25255
1.33109
1.62213
1.03436
1.06965
1.09319
1.11004
1.12264
1.13237
1.13988
1.14587
1.15072
1.15474
1.1581
1.16095
1.16336
1.16544
1.16718
1.16874
1.16999
1.17123
1.17223
1.17465
1.17852
1.19101
1.20761
1.28186
1.36794
1.03436
1.06966
1.09319
1.11005
1.12264
1.13238
1.13988
1.14587
1.15072
1.15474
1.1581
1.16095
1.16337
1.16542
1.16721
1.16869
1.17005
1.1711
1.17226
1.17342
1.17638
1.18126
1.19675
1.22029
1.30702
1.03436
1.06965
1.09319
1.11004
1.12265
1.13237
1.13989
1.14586
1.15072
1.15474
1.15811
1.16094
1.16337
1.16542
1.16721
1.16869
1.17005
1.17108
1.17219
1.17293
1.17473
1.17765
1.18621
1.1998
1.24653
1.03436
1.06965
1.09319
1.11004
1.12265
1.13237
1.13989
1.14586
1.15072
1.15474
1.1581
1.16095
1.16337
1.16543
1.1672
1.16871
1.17001
1.17113
1.17209
1.17293
1.17393
1.17568
1.18034
1.18811
1.21255
1.03436
1.06965
1.09319
1.11004
1.12264
1.13237
1.13988
1.14587
1.15072
1.15474
1.1581
1.16095
1.16336
1.16543
1.1672
1.16871
1.17001
1.17112
1.1721
1.17289
1.17376
1.17477
1.17734
1.18165
1.19495
1.03437
1.06964
1.09319
1.11004
1.12265
1.13237
1.13989
1.14586
1.15072
1.15474
1.1581
1.16095
1.16337
1.16543
1.1672
1.16871
1.17002
1.17112
1.1721
1.1729
1.17364
1.17438
1.1756
1.17881
1.18411
1.03437
1.06964
1.0932
1.11003
1.12265
1.13237
1.13989
1.14586
1.15072
1.15474
1.1581
1.16095
1.16336
1.16543
1.16719
1.16872
1.17
1.17113
1.17207
1.17292
1.17361
1.17424
1.17516
1.17675
1.1812
1.03437
1.06964
1.0932
1.11004
1.12265
1.13237
1.13989
1.14586
1.15072
1.15474
1.1581
1.16095
1.16336
1.16544
1.16719
1.16873
1.16999
1.17115
1.17205
1.17295
1.17357
1.17431
1.17491
1.17641
1.17887
1.03437
1.06964
1.0932
1.11004
1.12265
1.13237
1.13989
1.14586
1.15072
1.15474
1.1581
1.16095
1.16336
1.16544
1.16718
1.16873
1.16999
1.17116
1.17205
1.17295
1.17356
1.17432
1.17484
1.17617
1.17828
1.00893
1.03169
1.05949
1.08713
1.11384
1.13726
1.1599
1.17889
1.20167
1.23041
1.32164
1.44187
1.98827
3.00642
6.61659
15.295
14.457
13.3204
13.1043
13.1631
13.0399
12.611
11.9542
10.825
8.46564
1.0089
1.03171
1.05948
1.08712
1.11388
1.13719
1.15998
1.17867
1.20123
1.2287
1.31271
1.42875
1.92996
2.87522
6.2067
14.3247
13.8582
13.0264
12.7734
12.7368
12.529
11.9751
11.1129
9.75738
7.35306
1.00881
1.03186
1.05929
1.08741
1.11343
1.13791
1.15875
1.18056
1.19646
1.23055
1.27959
1.46972
1.72343
2.9242
5.52285
13.2483
13.3188
12.8623
12.4786
12.3376
12.0293
11.3859
10.4469
9.13525
7.30057
1.00872
1.03201
1.05915
1.08756
1.11328
1.13803
1.15862
1.18047
1.19601
1.22772
1.26982
1.4418
1.65765
2.73989
4.9526
11.9632
13.043
12.6749
12.1954
11.9558
11.5847
10.9192
10.0004
8.82334
7.34534
1.00884
1.03179
1.05937
1.08727
1.11369
1.13737
1.15969
1.17845
1.19954
1.21854
1.28212
1.3516
1.71947
2.29645
4.56027
10.4184
12.9111
12.5392
11.9381
11.606
11.2051
10.5645
9.70749
8.66641
7.4468
1.00877
1.03186
1.05935
1.08724
1.1138
1.13716
1.16001
1.17793
1.19953
1.21815
1.26908
1.34058
1.63309
2.12108
3.95342
8.6145
12.8973
12.4591
11.705
11.2899
10.8785
10.2795
9.49925
8.57687
7.53736
1.00873
1.0319
1.05932
1.08727
1.11378
1.13718
1.15995
1.17787
1.19885
1.21511
1.2562
1.31806
1.54353
1.92631
3.29339
6.62646
12.7754
12.3072
11.5049
11.0118
10.5912
10.0372
9.33081
8.50788
7.59777
1.00875
1.03189
1.05931
1.08729
1.11374
1.13725
1.15983
1.17788
1.19828
1.21225
1.24681
1.29614
1.48523
1.75173
2.90913
5.4506
12.0644
11.9035
11.3356
10.7573
10.3279
9.82168
9.18535
8.44759
7.64318
1.00886
1.03174
1.0594
1.08721
1.11374
1.13732
1.15964
1.17812
1.19742
1.21113
1.23986
1.27879
1.4365
1.62859
2.61735
4.53267
10.4166
11.3799
11.0883
10.5356
10.0981
9.62917
9.05653
8.39486
7.67406
1.00884
1.03179
1.05934
1.08732
1.11355
1.13764
1.15904
1.1791
1.19541
1.21396
1.23153
1.28303
1.3494
1.64899
2.12417
3.94171
8.3525
11.1662
10.927
10.3961
9.91564
9.46322
8.94278
8.34617
7.69613
1.00887
1.03177
1.05937
1.08728
1.11358
1.13759
1.15909
1.179
1.19534
1.2132
1.22759
1.26784
1.31814
1.54113
1.87174
3.15411
6.13537
10.904
10.7754
10.3345
9.78664
9.32383
8.84143
8.29888
7.7099
1.00886
1.03178
1.05938
1.08725
1.11366
1.13743
1.15935
1.17849
1.1961
1.21106
1.22821
1.25164
1.31588
1.42022
1.79395
2.53197
4.87196
10.0455
10.4711
10.2122
9.67916
9.20386
8.74619
8.25092
7.71256
1.00888
1.03174
1.0594
1.08723
1.11367
1.13741
1.15939
1.17841
1.19615
1.21047
1.22712
1.24282
1.29712
1.35535
1.66709
2.12647
3.96959
8.21128
10.1831
10.0112
9.59044
9.10781
8.65991
8.19927
7.71029
1.00883
1.03182
1.05933
1.08732
1.1136
1.13752
1.15926
1.17859
1.19579
1.21087
1.22464
1.24155
1.26778
1.35591