/*--------------------------------*- C++ -*----------------------------------*\
  =========                 |
  \\      /  F ield         | OpenFOAM: The Open Source CFD Toolbox
   \\    /   O peration     | Website:  https://openfoam.org
    \\  /    A nd           | Version:  6
     \\/     M anipulation  |
\*---------------------------------------------------------------------------*/
FoamFile
{
    version     2.0;
    format      ascii;
    class       surfaceScalarField;
    location    "2.5";
    object      phi;
}
// * * * * * * * * * * * * * * * * * * * * * * * * * * * * * * * * * * * * * //

dimensions      [1 0 -1 0 0 0 0];

internalField   nonuniform List<scalar> 
72625
(
0.00162357
2.02663e-10
5.87377e-05
0.00157665
8.94724e-10
4.69185e-05
0.00153806
3.15067e-11
3.85895e-05
0.00150613
1.08818e-09
3.19301e-05
0.00147905
-7.14365e-10
2.70787e-05
0.00145656
9.23948e-10
2.24854e-05
0.0014368
-9.99821e-10
1.97621e-05
0.00142088
3.03013e-09
1.5923e-05
0.00140578
1.02701e-08
1.50836e-05
0.00139171
4.22689e-08
1.40083e-05
0.00138318
8.42709e-08
8.44728e-06
0.0013664
2.96251e-07
1.63835e-05
0.00138451
6.67933e-07
-1.87802e-05
0.00133549
2.78141e-06
4.59673e-05
0.00154062
8.69078e-06
-0.000214331
0.00177694
5.64651e-05
-0.000294161
0.00169048
5.87553e-05
2.66481e-05
0.00149546
4.75183e-05
0.000147112
0.00139038
5.93177e-05
4.55759e-05
0.00137035
7.33665e-05
-5.3481e-05
0.00128781
6.89079e-05
1.34727e-05
0.00118396
5.37551e-05
4.99987e-05
0.00102226
3.82495e-05
0.000123434
0.000677198
3.53701e-05
0.000309356
-4.37616e-06
0.000681846
0.00162357
1.90554e-09
5.8737e-05
0.00157665
1.59369e-09
4.69191e-05
0.00153806
-2.74669e-10
3.85891e-05
0.00150613
1.36046e-09
3.19304e-05
0.00147905
-3.50377e-09
2.70789e-05
0.00145656
3.47012e-09
2.24848e-05
0.00143681
-6.25756e-09
1.97638e-05
0.00142088
1.40402e-08
1.5918e-05
0.00140576
3.57859e-08
1.50874e-05
0.00139169
1.18266e-07
1.39773e-05
0.00138301
2.55819e-07
8.50695e-06
0.00136635
6.69226e-07
1.6191e-05
0.00138402
1.51136e-06
-1.85237e-05
0.0013371
4.40272e-06
4.50439e-05
0.00154111
1.37941e-05
-0.000209612
0.00179885
6.57863e-05
-0.000268417
0.00175233
0.000101546
2.74279e-06
0.00154248
0.000119743
0.000137363
0.00145137
0.000114636
3.56753e-05
0.00140538
0.000119122
1.21446e-07
0.00136095
0.000124402
-1.11984e-05
0.00129249
0.000118733
3.32122e-06
0.0011355
0.000104787
9.02763e-05
0.000780601
0.000106698
0.000283484
0.000104716
0.000671606
0.00162357
8.56951e-09
5.87346e-05
0.00157665
-5.45091e-09
4.69212e-05
0.00153806
4.73018e-09
3.85879e-05
0.00150614
-7.09399e-09
3.19312e-05
0.00147905
1.77624e-09
2.70798e-05
0.00145657
-1.35467e-09
2.24824e-05
0.00143681
-1.0325e-08
1.97682e-05
0.00142085
5.84576e-08
1.59083e-05
0.00140579
2.80398e-08
1.50785e-05
0.00139159
3.40579e-07
1.39524e-05
0.00138262
7.77434e-07
8.44075e-06
0.00136621
7.9802e-07
1.61957e-05
0.00138191
4.57912e-06
-1.87774e-05
0.00133687
4.32039e-06
4.48542e-05
0.00153168
3.07216e-05
-0.000212259
0.00175745
0.000134961
-0.000296347
0.00168928
0.000165621
3.07902e-06
0.00151213
0.000164716
0.000131967
0.00142902
0.000163535
3.41437e-05
0.00137171
0.000167971
8.33054e-06
0.0013341
0.00018048
-1.86058e-05
0.00127019
0.000195279
-1.28925e-05
0.00109873
0.000199209
7.6961e-05
0.000735103
0.000196838
0.000273463
0.000201544
0.000638218
0.00162359
1.06878e-08
5.87207e-05
0.00157666
-2.03428e-08
4.69377e-05
0.00153807
2.00296e-08
3.85737e-05
0.00150615
-2.98989e-08
3.19471e-05
0.00147904
4.4078e-08
2.70639e-05
0.00145663
-7.69888e-08
2.24957e-05
0.00143673
1.25345e-07
1.97568e-05
0.00142115
-2.67591e-07
1.58818e-05
0.00140615
2.3475e-07
1.50429e-05
0.00139134
1.17255e-06
1.37216e-05
0.00138758
-3.82855e-06
8.27682e-06
0.00135867
1.41808e-05
1.5542e-05
0.00141116
-2.83112e-05
-1.95536e-05
0.00131695
5.55222e-05
4.26926e-05
0.00154864
3.68817e-06
-0.000205213
0.00177047
0.000179528
-0.000267688
0.00173247
0.000219963
-1.76145e-05
0.0015337
0.000236695
0.000126563
0.00143729
0.000233768
2.6105e-05
0.00138543
0.000251187
-3.14474e-05
0.00131924
0.000259835
-1.32809e-05
0.00124685
0.000272
-4.34938e-06
0.00108503
0.000287946
7.292e-05
0.000712434
0.00030104
0.000268367
0.000303293
0.000610786
0.00162367
-3.59869e-08
5.86956e-05
0.00157663
4.38483e-08
4.69684e-05
0.00153814
-3.04378e-08
3.85397e-05
0.00150608
3.57371e-08
3.1991e-05
0.00147917
-4.05036e-08
2.7002e-05
0.00145644
6.08176e-08
2.25935e-05
0.00143708
-1.11164e-07
1.95953e-05
0.00142039
1.88618e-07
1.62313e-05
0.00140634
-4.82964e-07
1.47627e-05
0.0013959
-7.23368e-07
1.23232e-05
0.00137185
5.10128e-06
1.50837e-05
0.00140078
-1.11376e-05
-3.62839e-06
0.00130694
4.09401e-05
2.44447e-05
0.00145898
-3.93573e-05
-5.73256e-05
0.00144492
8.70139e-05
-6.96645e-05
0.00174307
0.000174118
-0.000294016
0.00172499
0.000261416
-2.4757e-05
0.00156049
0.000279825
0.00012104
0.00147485
0.000292985
2.63236e-05
0.00142035
0.000314804
-9.19759e-06
0.00135407
0.000337446
-1.14335e-05
0.00126946
0.000358062
-1.54727e-06
0.00110177
0.000382995
7.25227e-05
0.000726363
0.000412277
0.000264242
0.000435349
0.000594542
0.00162342
3.51365e-08
5.87941e-05
0.0015766
-5.69703e-08
4.68587e-05
0.00153794
3.36861e-08
3.86298e-05
0.00150613
-4.71653e-08
3.18973e-05
0.00147895
5.12645e-08
2.70959e-05
0.00145661
-7.34123e-08
2.24828e-05
0.00143663
1.35613e-07
1.97535e-05
0.00142103
-1.92486e-07
1.59755e-05
0.00140461
6.09423e-07
1.53165e-05
0.00138949
1.00461e-06
1.33784e-05
0.00139049
-4.0045e-06
8.10278e-06
0.00135082
1.37979e-05
1.46397e-05
0.00144073
-2.89407e-05
-2.00419e-05
0.00129915
6.14383e-05
4.05458e-05
0.00156746
7.55064e-06
-0.000189385
0.00176202
0.000257695
-0.000279493
0.00174736
0.000322666
-4.77391e-05
0.00156181
0.000346213
0.000118853
0.00147819
0.000352805
2.36985e-05
0.00142369
0.00038016
-1.09397e-05
0.00136398
0.000410242
-1.31842e-05
0.00128193
0.000440203
-1.53956e-07
0.0011112
0.000480984
7.27335e-05
0.00073287
0.000532619
0.000257879
0.000594001
0.000574306
0.00162369
-4.18365e-08
5.86935e-05
0.00157662
4.17834e-08
4.69726e-05
0.00153816
-3.35273e-08
3.85335e-05
0.00150607
4.2145e-08
3.19985e-05
0.00147917
-4.1271e-08
2.69889e-05
0.00145642
7.18959e-08
2.26109e-05
0.00143709
-1.01189e-07
1.95659e-05
0.00142043
2.02144e-07
1.62671e-05
0.00140667
-2.97979e-07
1.46646e-05
0.00139601
-6.86509e-07
1.2345e-05
0.00137253
4.51956e-06
1.48974e-05
0.00139848
-9.11306e-06
-3.0579e-06
0.00130577
3.92317e-05
2.44124e-05
0.00146011
-3.22114e-05
-6.08502e-05
0.00143833
8.4221e-05
-5.52632e-05
0.00172109
0.000265897
-0.0002923
0.00174315
0.000362568
-6.30786e-05
0.00158397
0.000395737
0.000109332
0.00150123
0.000411733
2.37248e-05
0.00144223
0.000443702
-4.61737e-06
0.00138397
0.000481202
-1.27918e-05
0.00129933
0.000521777
3.01559e-06
0.00112654
0.000581503
7.22929e-05
0.000744452
0.000668256
0.000246501
0.000791033
0.00054756
0.00162349
-1.32744e-08
5.87952e-05
0.00157665
6.03605e-10
4.68612e-05
0.00153801
1.23664e-10
3.86281e-05
0.00150613
4.43973e-09
3.18982e-05
0.001479
6.95801e-09
2.70924e-05
0.00145658
-1.24889e-10
2.24874e-05
0.00143673
1.94319e-08
1.97376e-05
0.00142082
-1.60971e-08
1.59847e-05
0.00140604
9.82243e-08
1.50864e-05
0.00139161
1.60056e-07
1.34241e-05
0.00138564
2.78431e-07
8.77678e-06
0.00136084
2.38843e-06
1.40182e-05
0.00141355
2.64048e-06
-1.55916e-05
0.00132112
2.37366e-05
3.58839e-05
0.0015199
5.60052e-05
-0.000171177
0.00172526
0.000328865
-0.000269919
0.00175424
0.000408677
-7.57044e-05
0.00159394
0.000453188
0.000102455
0.00151532
0.000466471
2.36876e-05
0.00145869
0.000501997
-1.70243e-06
0.00140537
0.000546676
-1.21931e-05
0.00132089
0.000599805
6.4288e-06
0.00114799
0.000682891
7.15119e-05
0.000772342
0.000816239
0.000227655
0.00105541
0.000508104
0.00162348
2.6211e-09
5.88157e-05
0.00157662
7.91178e-09
4.68399e-05
0.00153799
2.18482e-09
3.86413e-05
0.0015061
-1.15032e-08
3.18854e-05
0.001479
1.862e-08
2.70999e-05
0.00145655
-4.13565e-08
2.24854e-05
0.00143678
6.92029e-08
1.97329e-05
0.0014207
-8.82373e-08
1.60101e-05
0.00140615
2.85598e-07
1.50467e-05
0.00139201
6.7804e-07
1.34553e-05
0.00138069
1.13457e-06
9.10166e-06
0.00136765
2.3423e-06
1.37611e-05
0.00137611
7.57605e-06
-1.29025e-05
0.00135109
1.74763e-05
3.0695e-05
0.00148871
7.15234e-05
-0.000153802
0.00173596
0.000356674
-0.000276725
0.00175916
0.000459104
-7.42889e-05
0.001612
0.000509839
9.00741e-05
0.00153677
0.000518278
2.32773e-05
0.00148513
0.000556795
-3.2018e-06
0.00143485
0.000606006
-9.10705e-06
0.00135283
0.00067212
9.6782e-06
0.00118507
0.000782334
6.82812e-05
0.000825661
0.000977418
0.000198216
0.00144267
0.000438539
0.0016234
5.88304e-05
6.21934e-08
0.00157665
4.68271e-05
-6.32985e-08
0.00153796
3.86472e-05
4.65407e-08
0.00150611
3.18897e-05
-5.60167e-08
0.00147901
2.70793e-05
4.35238e-08
0.0014565
2.25294e-05
-6.04651e-08
0.00143684
1.96429e-05
6.65988e-08
0.00142081
1.61603e-05
-5.44718e-08
0.00140475
1.47637e-05
2.91797e-07
0.00139205
1.32302e-05
9.58505e-07
0.00138687
9.0139e-06
-2.10602e-06
0.00136235
1.34581e-05
1.30972e-05
0.00140123
-1.37157e-05
-1.79492e-05
0.00132038
3.14615e-05
6.68914e-05
0.00151176
-0.000158042
3.77678e-05
0.00175966
-0.00027309
0.0003802
0.00177541
-6.61327e-05
0.00050885
0.00164662
7.26956e-05
0.000565648
0.00156936
2.40512e-05
0.000571549
0.00152472
-5.73489e-06
0.000607269
0.00147531
-5.0494e-06
0.000660577
0.00140125
1.0129e-05
0.000736085
0.00125117
5.94756e-05
0.000872927
0.000927959
0.000164361
0.00113625
0.00032088
0.00204991
0.00172977
-1.65293e-10
7.16701e-06
0.00176404
1.13725e-09
1.26518e-05
0.00178822
-6.23339e-11
1.44078e-05
0.00180604
1.7229e-09
1.41132e-05
0.00181989
-6.36197e-10
1.32264e-05
0.00183054
1.75489e-09
1.18314e-05
0.0018394
-5.42443e-10
1.09013e-05
0.00184585
2.48507e-09
9.46728e-06
0.00185199
1.40866e-08
8.93785e-06
0.00185732
4.64505e-08
8.60313e-06
0.00185805
1.36693e-07
7.5769e-06
0.00186735
3.57077e-07
6.61096e-06
0.00184423
1.11106e-06
3.10344e-06
0.00189474
3.79622e-06
-8.36344e-06
0.00176657
1.70198e-05
-0.000104811
0.00155112
0.000212891
-0.000294886
0.00131012
0.000153498
0.000112677
0.00121883
0.000191103
4.65589e-05
0.000939069
0.000258632
6.63084e-05
0.00111237
0.000432512
-0.000659809
0.000760943
0.000305131
5.91978e-05
0.000450819
0.000219242
0.000140483
0.000108069
0.000227072
0.000238605
-0.000179793
0.000276973
0.000319604
0.00011917
0.000382324
0.00172977
1.44453e-09
7.16604e-06
0.00176404
1.26838e-09
1.26531e-05
0.00178822
8.85676e-10
1.44064e-05
0.00180604
1.40106e-09
1.41151e-05
0.00181989
-6.41932e-10
1.32231e-05
0.00183054
1.55173e-09
1.18369e-05
0.00183941
-7.11876e-10
1.08927e-05
0.00184585
8.62083e-09
9.47422e-06
0.00185202
3.44512e-08
8.89272e-06
0.0018572
1.23075e-07
8.6963e-06
0.0018585
2.68118e-07
7.06915e-06
0.00186668
9.16189e-07
7.33731e-06
0.00184556
2.17093e-06
1.40613e-06
0.0018942
8.1287e-06
-7.95376e-06
0.00176836
3.19054e-05
-0.000100276
0.00161664
0.000139351
-4.65716e-05
0.00134391
0.000325408
0.000102161
0.00128303
0.000362583
2.61502e-05
0.00116859
0.000392985
1.54359e-05
0.00115504
0.000444094
1.77003e-06
0.000956782
0.000479296
1.23543e-05
0.000557378
0.000502142
0.00011943
0.000168459
0.000513019
0.00019273
-6.95264e-05
0.000527787
0.000270177
0.00037419
0.000346614
0.00172977
4.94738e-09
7.16646e-06
0.00176404
-1.17868e-09
1.26519e-05
0.00178822
3.59233e-09
1.44074e-05
0.00180604
-2.26549e-09
1.41135e-05
0.00181989
1.06117e-09
1.32259e-05
0.00183054
2.93278e-10
1.18324e-05
0.00183941
-2.63671e-09
1.09006e-05
0.00184584
2.29806e-08
9.4651e-06
0.00185196
6.16456e-08
8.93396e-06
0.00185719
2.40831e-07
8.58091e-06
0.0018579
4.11738e-07
7.57808e-06
0.00186658
1.89556e-06
6.41524e-06
0.00184357
3.3282e-06
2.95547e-06
0.00189172
1.43549e-05
-9.54786e-06
0.00176565
5.18595e-05
-0.00010778
0.00151286
0.000438135
-0.000345943
0.0012976
0.000449062
9.32513e-05
0.00126885
0.00050152
2.11786e-05
0.00118382
0.000519069
-7.2315e-06
0.00116316
0.000528752
-5.6002e-05
0.000971035
0.000657545
-5.25597e-06
0.000586181
0.000756378
0.000117396
0.000200113
0.000792257
0.000183282
-4.81776e-05
0.000797092
0.000252008
0.000630714
0.000333118
0.00172976
6.5116e-09
7.16359e-06
0.00176405
-8.03868e-09
1.26559e-05
0.00178821
9.66008e-09
1.44036e-05
0.00180605
-1.35887e-08
1.41189e-05
0.00181988
1.71328e-08
1.32201e-05
0.00183056
-2.4136e-08
1.18391e-05
0.00183939
3.32204e-08
1.08919e-05
0.00184582
1.41543e-09
9.4714e-06
0.00185184
1.99587e-07
8.89024e-06
0.00185703
6.36895e-08
8.68029e-06
0.00185632
2.2286e-06
7.15519e-06
0.00186649
9.37074e-08
7.06696e-06
0.00183896
9.64404e-06
1.53674e-06
0.0018895
1.59691e-05
-9.4662e-06
0.00177318
6.09413e-05
-9.95982e-05
0.00157239
0.000478182
-0.000110627
0.00131452
0.000603723
8.42906e-05
0.00125669
0.000663775
2.16942e-05
0.00106286
0.000733376
5.42805e-06
0.00110172
0.000930269
-0.000472243
0.000884663
0.000875364
-1.45429e-05
0.000564975
0.000959118
0.000112199
0.000208238
0.00104544
0.000176073
-2.99954e-05
0.00106556
0.000237669
0.000885949
0.0003252
0.00172976
-1.12882e-08
7.16038e-06
0.00176405
1.08354e-08
1.26609e-05
0.00178821
-1.15107e-08
1.43974e-05
0.00180605
1.23658e-08
1.41275e-05
0.00181988
-1.70243e-08
1.32096e-05
0.00183058
2.16229e-08
1.18462e-05
0.00183935
-3.1384e-08
1.08876e-05
0.00184612
3.35559e-08
9.42812e-06
0.00185233
-7.28044e-08
8.82296e-06
0.00185509
4.90403e-07
9.1157e-06
0.00186859
-9.56705e-07
4.7611e-06
0.00184862
4.56237e-06
1.17442e-05
0.00188953
1.98376e-06
-8.94413e-06
0.00181498
2.5733e-05
7.54937e-06
0.00178463
0.000116882
-9.70731e-05
0.00154551
0.000531323
-0.000111967
0.00130985
0.000736356
7.67248e-05
0.00126169
0.000812123
2.03098e-05
0.00113184
0.000895544
-6.20915e-06
0.00112409
0.00100221
-7.37611e-05
0.000922192
0.00109182
-2.66267e-05
0.00058588
0.00119346
0.000100003
0.000235777
0.00130351
0.000164251
3.65933e-06
0.0013364
0.000225092
0.00116781
0.000316043
0.00172981
1.16057e-08
7.16266e-06
0.00176403
-1.76686e-08
1.26598e-05
0.00178824
1.18848e-08
1.44004e-05
0.00180605
-2.1605e-08
1.41226e-05
0.00181989
2.15612e-08
1.32158e-05
0.00183059
-3.03215e-08
1.18403e-05
0.00183937
4.55137e-08
1.08929e-05
0.00184595
-1.64187e-08
9.44439e-06
0.00185215
1.97849e-07
8.84883e-06
0.00185715
1.32975e-07
8.71938e-06
0.00185456
2.50402e-06
7.19297e-06
0.00186594
6.05618e-07
7.11867e-06
0.00183303
1.35915e-05
1.02989e-06
0.00188632
2.0179e-05
-7.40692e-06
0.00178329
0.00011289
-8.41761e-05
0.00157628
0.000753061
-0.000297971
0.00130973
0.000886417
6.74817e-05
0.0012713
0.000952451
1.63303e-05
0.00114497
0.00105771
-1.23761e-05
0.00112435
0.00120934
-0.000197743
0.000934099
0.001303
-3.47593e-05
0.000619548
0.00142161
8.57965e-05
0.000284043
0.00155939
0.000152082
5.09873e-05
0.00161505
0.000211838
0.00149237
0.000300414
0.00172977
-1.67011e-08
7.15978e-06
0.00176405
9.85287e-09
1.26632e-05
0.00178821
-1.5512e-08
1.43954e-05
0.00180605
1.47822e-08
1.41297e-05
0.00181987
-1.69834e-08
1.32084e-05
0.00183058
2.49766e-08
1.18433e-05
0.00183932
-2.34594e-08
1.08937e-05
0.00184612
3.13493e-08
9.42515e-06
0.00185214
-4.03585e-08
8.87892e-06
0.00185503
5.00046e-07
9.06372e-06
0.00186761
-2.61071e-07
5.07819e-06
0.00184929
4.22346e-06
1.15144e-05
0.00188983
7.20205e-06
-9.89709e-06
0.00180137
3.02896e-05
1.72424e-05
0.00179802
0.000157009
-9.78171e-05
0.00157697
0.000793903
-0.000115987
0.00133165
0.00101152
5.59229e-05
0.00129025
0.00108566
1.69701e-05
0.00118319
0.00120563
-1.73342e-05
0.00113622
0.00137632
-0.000124811
0.000963285
0.00150125
-3.86065e-05
0.000676291
0.00164016
7.09411e-05
0.000358459
0.00180974
0.000139514
0.000114428
0.00190553
0.000199785
0.00187183
0.000282169
0.00172983
-7.13306e-09
7.16397e-06
0.00176404
4.18111e-10
1.26601e-05
0.00178825
-2.67647e-09
1.44003e-05
0.00180604
2.03757e-09
1.41217e-05
0.0018199
2.72712e-09
1.32165e-05
0.00183057
7.03347e-10
1.1837e-05
0.00183937
1.31286e-08
1.08974e-05
0.00184592
1.30078e-08
9.45495e-06
0.00185194
1.09796e-07
8.91496e-06
0.00185664
4.45517e-07
8.77631e-06
0.00185694
1.20289e-06
6.96172e-06
0.00186311
3.66844e-06
8.30066e-06
0.00184603
1.11118e-05
-2.57124e-06
0.00186579
3.62224e-05
9.86631e-06
0.00179211
0.000155724
-9.78998e-05
0.00162624
0.000924662
-0.000238822
0.00136212
0.00114856
4.984e-05
0.00131718
0.00121678
1.58513e-05
0.00122796
0.00133719
-1.90024e-05
0.00116447
0.00151778
-7.99454e-05
0.00100789
0.00168129
-3.63553e-05
0.000752948
0.00184537
5.58567e-05
0.00045969
0.0020495
0.000124606
0.000200293
0.00220633
0.000185753
0.00232473
0.000255129
0.00172984
3.52952e-09
7.16609e-06
0.00176402
5.71552e-09
1.26589e-05
0.00178825
1.19609e-09
1.43994e-05
0.00180602
2.67839e-09
1.41217e-05
0.0018199
1.71914e-09
1.32135e-05
0.00183055
-3.02075e-09
1.18409e-05
0.00183939
1.70661e-08
1.08922e-05
0.00184594
1.26736e-08
9.46352e-06
0.00185197
2.11938e-07
8.91329e-06
0.00185644
5.78266e-07
8.84292e-06
0.00185799
1.98515e-06
6.72106e-06
0.00186267
3.82927e-06
8.81314e-06
0.00184956
1.4932e-05
-3.70916e-06
0.00186296
3.75906e-05
1.55357e-05
0.00179316
0.000167288
-9.70097e-05
0.00165204
0.00098979
-0.0002048
0.00140394
0.00128616
3.46613e-05
0.00135219
0.00134318
1.5283e-05
0.00127388
0.00145635
-1.75377e-05
0.00120766
0.00164183
-6.12094e-05
0.00108014
0.00183167
-3.24781e-05
0.000872855
0.00202019
4.15906e-05
0.000620257
0.00226719
0.000103179
0.000344327
0.00251723
0.000163027
0.00288901
0.000218157
0.00172984
7.16351e-06
2.74609e-08
0.00176402
1.26636e-05
-8.87901e-09
0.00178827
1.43937e-05
9.99245e-09
0.00180602
1.41329e-05
5.19804e-09
0.00181992
1.3199e-05
-2.04074e-08
0.00183055
1.18559e-05
4.72915e-08
0.00183941
1.08823e-05
-8.92339e-08
0.0018459
9.45152e-06
2.32719e-07
0.00185198
9.00859e-06
-1.17068e-07
0.00185499
8.67084e-06
2.11104e-06
0.00186139
7.10787e-06
-2.5137e-06
0.00185363
7.48911e-06
1.74326e-05
0.00186985
-4.96063e-07
-1.46493e-05
0.00183777
7.74117e-06
9.30345e-05
0.00180974
-8.16327e-05
0.000117529
0.00167061
-0.000208251
0.00106053
0.00144246
2.1036e-05
0.00142488
0.00139539
1.69522e-05
0.0014458
0.00133503
-1.60277e-05
0.00155701
0.00127128
-4.54048e-05
0.00174555
0.00118105
-3.02686e-05
0.00194704
0.00101151
3.33882e-05
0.00216583
0.000806205
8.38533e-05
0.00244752
0.000601254
0.000122285
0.00276394
0.000156646
0.00365423
0.00169386
7.95334e-10
-7.16412e-06
0.00171917
1.21586e-10
-1.26535e-05
0.00174798
7.51884e-10
-1.44044e-05
0.00177621
1.95906e-10
-1.41152e-05
0.00180266
-3.13535e-10
-1.32241e-05
0.00182632
2.09501e-09
-1.18324e-05
0.00184812
-3.59976e-09
-1.08998e-05
0.00186705
1.08433e-08
-9.47368e-06
0.00188493
-5.11707e-09
-8.9375e-06
0.00190202
1.13149e-07
-8.62059e-06
0.00191729
-1.07341e-07
-7.58725e-06
0.00192963
7.35214e-07
-6.60573e-06
0.00193586
2.63829e-09
-3.23609e-06
0.00191612
2.92476e-06
8.12791e-06
0.00169736
1.10245e-05
0.000101089
0.0011655
0.000159684
7.10741e-05
0.00116968
0.000222989
-0.000116272
0.000982452
0.000269264
-3.63493e-05
0.000812971
0.000260585
-2.53531e-05
-6.71797e-05
0.000243682
-2.40631e-05
-0.000292279
0.000319255
-3.70744e-05
-0.000459861
0.000426518
-0.000119438
-0.000468068
0.000459169
-0.000212859
-0.000340293
0.000508086
-0.000316615
0.000448323
-0.000406539
0.00169386
7.90167e-10
-7.16048e-06
0.00171917
4.45049e-10
-1.26586e-05
0.00174797
7.6405e-10
-1.43987e-05
0.00177621
6.60806e-10
-1.41233e-05
0.00180265
3.65221e-10
-1.32156e-05
0.00182633
-1.30909e-09
-1.18369e-05
0.00184811
3.80987e-09
-1.08988e-05
0.00186702
-4.42603e-09
-9.41914e-06
0.0018847
4.59199e-08
-8.84007e-06
0.00190255
1.98291e-08
-9.07929e-06
0.00191414
4.95299e-07
-5.13707e-06
0.0019331
3.32731e-07
-1.13506e-05
0.00192421
3.07531e-06
7.11444e-06
0.00191963
7.63878e-06
-8.40283e-06
0.00169454
4.16865e-05
9.2303e-05
0.00114058
0.000275522
0.000385415
0.00114859
0.00040743
-9.20748e-05
0.000983714
0.000496938
-3.75226e-05
0.00079224
0.00051816
-5.11962e-05
-8.91818e-05
0.000495787
0.000630277
-0.000407949
0.00067279
-2.44315e-05
-0.000518105
0.000756642
-0.000101445
-0.000491587
0.000816632
-0.000191763
-0.000318325
0.000875988
-0.000271313
0.000819423
-0.000343033
0.00169386
1.7333e-09
-7.1612e-06
0.00171917
-1.9692e-10
-1.26574e-05
0.00174798
1.42092e-09
-1.44004e-05
0.00177621
-5.79323e-10
-1.41205e-05
0.00180266
-3.78708e-10
-1.32201e-05
0.00182632
9.53252e-10
-1.18338e-05
0.00184813
-2.48738e-09
-1.09022e-05
0.00186703
1.35195e-08
-9.45283e-06
0.0018849
2.30976e-08
-8.91579e-06
0.00190188
2.25924e-07
-8.62647e-06
0.00191741
2.09145e-07
-7.6742e-06
0.0019288
1.68747e-06
-6.45734e-06
0.00193562
2.74715e-06
-3.64833e-06
0.00191184
1.26797e-05
8.86768e-06
0.0016919
5.93339e-05
9.26737e-05
0.00114259
0.000410823
6.19149e-05
0.00113058
0.000601613
-9.07162e-05
0.000963864
0.000714327
-3.03698e-05
0.000738639
0.000764046
-2.83305e-05
-8.51229e-05
0.000815518
0.000447193
-0.000415671
0.000992234
3.41548e-06
-0.00050316
0.00106505
-0.000104399
-0.000469947
0.00115019
-0.000184035
-0.000315116
0.00122001
-0.000247171
0.00114799
-0.000310678
0.00169385
1.13156e-09
-7.15741e-06
0.00171917
-7.33363e-10
-1.26628e-05
0.00174797
9.64641e-10
-1.43945e-05
0.00177622
-1.35859e-09
-1.41292e-05
0.00180265
-3.87534e-10
-1.32105e-05
0.00182633
6.77934e-10
-1.18413e-05
0.00184812
-1.48559e-09
-1.08971e-05
0.001867
1.74857e-08
-9.41794e-06
0.00188472
4.44184e-08
-8.84286e-06
0.00190232
3.04981e-07
-9.02769e-06
0.00191443
4.17265e-07
-5.17543e-06
0.0019318
2.33712e-06
-1.10759e-05
0.0019241
4.6335e-06
7.2339e-06
0.00191557
1.934e-05
-7.90875e-06
0.00168722
9.45464e-05
9.16865e-05
0.00115747
0.000648502
0.000175277
0.00111344
0.000809368
-8.10911e-05
0.000953629
0.000921944
-2.6877e-05
0.00072445
0.00100328
-5.06949e-06
-4.08187e-05
0.00105285
5.48841e-05
-0.000368484
0.00128238
2.0591e-05
-0.000450903
0.00136903
-0.000110393
-0.000427908
0.00147824
-0.000175548
-0.000296746
0.00155611
-0.000229937
0.00147657
-0.000300225
0.00169385
-1.50122e-09
-7.15553e-06
0.00171918
8.38003e-11
-1.26664e-05
0.00174797
-1.75903e-09
-1.43912e-05
0.00177623
9.40094e-11
-1.41347e-05
0.00180264
-1.09503e-09
-1.32037e-05
0.00182634
-5.7686e-10
-1.18504e-05
0.00184811
4.94609e-09
-1.08856e-05
0.00186697
9.44707e-09
-9.4303e-06
0.00188456
9.27442e-08
-8.80703e-06
0.00190277
2.69461e-07
-9.08667e-06
0.00191169
9.86779e-07
-4.73516e-06
0.0019349
2.43305e-06
-1.16873e-05
0.00191353
8.13749e-06
8.80544e-06
0.00192128
2.79761e-05
-9.14165e-06
0.00169786
0.000140332
7.87245e-05
0.00115434
0.000826585
0.000247481
0.00111012
0.00100099
-7.23529e-05
0.000954717
0.00112099
-2.4081e-05
0.000717906
0.00123435
-8.62247e-07
3.97081e-05
0.00134641
0.00031021
-0.00028855
0.00155954
2.1855e-05
-0.000378924
0.00166317
-0.000104759
-0.000372948
0.00179946
-0.000163471
-0.000265793
0.0018909
-0.000217263
0.00182096
-0.000294233
0.00169385
-2.32905e-09
-7.15902e-06
0.00171918
-2.64371e-10
-1.26618e-05
0.00174797
-2.32589e-09
-1.43952e-05
0.00177622
-6.62515e-10
-1.41294e-05
0.00180265
-5.69175e-10
-1.32087e-05
0.00182633
3.87268e-10
-1.18445e-05
0.00184812
4.64958e-09
-1.08934e-05
0.00186698
2.00053e-08
-9.42453e-06
0.00188471
8.00492e-08
-8.8714e-06
0.00190222
4.65591e-07
-9.0096e-06
0.00191475
8.79845e-07
-5.23402e-06
0.00193132
3.87029e-06
-1.10155e-05
0.00192344
9.12464e-06
7.80595e-06
0.00191822
3.6215e-05
-1.06564e-05
0.00170862
0.000174764
8.91135e-05
0.00116109
0.00096916
0.000101281
0.00111561
0.00117941
-6.70299e-05
0.000967027
0.0013076
-2.2291e-05
0.000731151
0.00144829
9.35867e-06
0.000156082
0.00161279
0.000110763
-0.000173254
0.00182164
2.93842e-05
-0.000286575
0.00195291
-9.20311e-05
-0.000299378
0.00211381
-0.000150414
-0.000217982
0.00222735
-0.000206433
0.00218853
-0.000285275
0.00169385
-3.67045e-09
-7.1621e-06
0.00171918
-2.57172e-10
-1.26577e-05
0.00174797
-2.92193e-09
-1.44014e-05
0.00177622
3.70891e-10
-1.41199e-05
0.00180265
6.7044e-10
-1.32186e-05
0.00182633
1.2375e-09
-1.18398e-05
0.00184811
9.38633e-09
-1.08896e-05
0.001867
2.08944e-08
-9.47113e-06
0.00188471
1.21052e-07
-8.86722e-06
0.0019025
4.82347e-07
-8.76635e-06
0.00191393
1.28651e-06
-6.76811e-06
0.00193327
4.09891e-06
-8.17527e-06
0.00191869
1.16856e-05
1.9975e-06
0.00193191
4.27405e-05
-2.7933e-06
0.00172016
0.000196884
9.00494e-05
0.00119052
0.00112048
0.000256567
0.00112648
0.00135734
-5.95942e-05
0.000986686
0.0014819
-1.82455e-05
0.000756525
0.00164519
1.55619e-05
0.000285085
0.00186706
9.22824e-05
-3.98396e-05
0.00207188
3.29769e-05
-0.000168426
0.0022273
-7.62507e-05
-0.000197108
0.00241944
-0.000137859
-0.000147206
0.00257076
-0.000194038
0.00259316
-0.000269847
0.00169386
-3.38117e-09
-7.16598e-06
0.00171917
1.59764e-09
-1.26538e-05
0.00174797
-1.64646e-09
-1.44048e-05
0.00177621
1.96353e-09
-1.41149e-05
0.00180265
2.44063e-09
-1.3223e-05
0.00182632
2.14419e-09
-1.18343e-05
0.00184811
1.17283e-08
-1.08955e-05
0.00186703
2.91206e-08
-9.4699e-06
0.00188483
1.20412e-07
-8.89273e-06
0.00190213
6.85725e-07
-8.74081e-06
0.00191614
1.13761e-06
-6.91138e-06
0.00193128
5.44601e-06
-8.30958e-06
0.00192567
1.18282e-05
2.74713e-06
0.00193917
4.99196e-05
-1.06777e-05
0.00173034
0.000205078
0.000100642
0.0012041
0.00122433
0.000178643
0.00114604
0.0015152
-5.17547e-05
0.00101321
0.00164745
-1.74046e-05
0.000799703
0.00182242
1.6972e-05
0.000424051
0.00208549
7.73409e-05
0.000119847
0.00230528
3.17721e-05
-2.25214e-05
0.00248347
-5.9724e-05
-6.78543e-05
0.00271213
-0.000123268
-4.46972e-05
0.00291247
-0.000179558
0.00304835
-0.000245011
0.00169386
-1.73894e-10
-7.1665e-06
0.00171917
6.61872e-09
-1.26568e-05
0.00174797
-4.70891e-09
-1.44006e-05
0.0017762
1.27947e-08
-1.4119e-05
0.00180264
-1.1091e-08
-1.32153e-05
0.00182631
1.70981e-08
-1.18397e-05
0.0018481
7.07379e-09
-1.08917e-05
0.00186705
9.63005e-09
-9.46642e-06
0.00188465
3.38205e-07
-8.9079e-06
0.00190266
3.3924e-07
-8.84339e-06
0.00191465
2.59544e-06
-6.7292e-06
0.00193518
2.41718e-06
-8.82398e-06
0.00191872
2.08476e-05
3.60605e-06
0.00196667
3.30103e-05
-1.5468e-05
0.00176196
0.000213962
9.70117e-05
0.00126079
0.00130496
0.00021078
0.00116114
0.00168324
-3.55268e-05
0.00104679
0.00179232
-1.61035e-05
0.000859502
0.00197587
1.59691e-05
0.000561272
0.00226364
5.88982e-05
0.000296605
0.00250586
2.93153e-05
0.000156046
0.00270872
-4.51061e-05
9.94727e-05
0.00297315
-0.000102395
0.000101748
0.00322912
-0.000156453
0.00357829
-0.000210086
0.00169385
-7.16304e-06
7.57701e-09
0.00171917
-1.2663e-05
8.24494e-09
0.00174797
-1.43928e-05
-1.20568e-08
0.00177621
-1.41318e-05
3.89751e-08
0.00180266
-1.31988e-05
-6.8128e-08
0.00182626
-1.18552e-05
1.29365e-07
0.00184824
-1.08826e-05
-2.09972e-07
0.00186671
-9.4518e-06
4.41583e-07
0.00188553
-9.00773e-06
-4.63308e-07
0.00190131
-8.6734e-06
1.87923e-06
0.00192145
-7.11575e-06
-3.33034e-06
0.00192011
-7.51279e-06
1.86402e-05
0.00195467
4.1301e-07
-1.48119e-05
0.00191408
-7.82438e-06
8.88283e-05
0.00180266
8.10647e-05
0.000160736
0.00129803
0.000208777
0.00138741
0.0011699
-2.08229e-05
0.00185177
0.00108177
-1.7406e-05
0.00191422
0.000930862
1.48949e-05
0.00209547
0.000706439
4.36435e-05
0.00239898
0.000487619
2.805e-05
0.00266455
0.000371174
-3.58216e-05
0.00289226
0.000331958
-8.33767e-05
0.00317884
0.000325749
-0.000117205
0.00347435
-0.000150703
0.00421093
0.00172975
8.75343e-09
-5.87211e-05
0.00176404
-7.56912e-09
-4.69354e-05
0.0017882
1.0252e-08
-3.85756e-05
0.00180605
-1.26971e-08
-3.19441e-05
0.00181987
1.62212e-08
-2.7068e-05
0.00183055
-2.13712e-08
-2.24909e-05
0.00183939
2.69946e-08
-1.97624e-05
0.00184578
7.7915e-09
-1.58722e-05
0.00185168
1.67647e-07
-1.50086e-05
0.00185691
-1.31391e-07
-1.37399e-05
0.00185573
1.75574e-06
-8.17547e-06
0.00186614
-1.4201e-06
-1.57105e-05
0.00183733
5.1233e-06
2.03414e-05
0.0018882
3.30871e-07
-4.30876e-05
0.00177458
-1.09388e-05
0.000224029
0.00162295
-4.24297e-05
0.000261603
0.00136439
0.000149933
-8.97076e-06
0.00131364
0.000158485
-0.000144577
0.00124628
9.03106e-05
-4.85599e-05
0.00126833
-2.64568e-05
-1.99585e-05
0.00113751
9.62613e-05
-2.90746e-06
0.000818999
0.00021354
-1.47422e-05
0.000413646
0.000278534
-8.61916e-05
6.044e-05
0.00032538
-0.000289125
0.000334654
-0.000681211
0.00172975
-2.15473e-09
-5.86871e-05
0.00176405
7.07724e-09
-4.69761e-05
0.0017882
-4.07477e-09
-3.85361e-05
0.00180605
9.2152e-09
-3.19931e-05
0.00181986
-1.23602e-08
-2.70037e-05
0.00183058
1.74244e-08
-2.25892e-05
0.00183934
-2.94526e-08
-1.96051e-05
0.00184614
9.50837e-09
-1.62215e-05
0.00185241
-1.27079e-07
-1.4817e-05
0.00185516
3.1549e-07
-1.23004e-05
0.00186852
-1.45009e-06
-1.52944e-05
0.00184874
3.0168e-06
3.8753e-06
0.00188879
-2.57467e-06
-2.5368e-05
0.00181359
1.05018e-05
5.669e-05
0.00176737
5.10757e-05
7.47813e-05
0.00144205
0.00032387
0.000340758
0.00126771
0.000264987
-3.42039e-05
0.00119928
0.000320664
-0.00013191
0.00092387
0.000353457
-3.92847e-05
0.00107301
0.00040851
4.5618e-05
0.000773822
0.000385456
-1.50554e-05
0.000515095
0.000413409
-4.32958e-05
0.000186331
0.000511637
-9.63369e-05
-7.5329e-05
0.000606137
-0.000290825
0.000563894
-0.000648169
0.00172975
8.35509e-09
-5.87132e-05
0.00176405
-6.5819e-09
-4.69455e-05
0.0017882
9.42344e-09
-3.85647e-05
0.00180606
-1.18962e-08
-3.19596e-05
0.00181986
1.42811e-08
-2.70478e-05
0.00183059
-2.16239e-08
-2.25201e-05
0.00183936
2.64511e-08
-1.97273e-05
0.00184586
-4.10218e-09
-1.59417e-05
0.00185178
1.57768e-07
-1.51226e-05
0.00185705
-7.89292e-08
-1.35195e-05
0.00185397
1.89904e-06
-7.95041e-06
0.0018664
-9.298e-07
-1.50607e-05
0.00183044
7.23418e-06
2.2392e-05
0.00188265
8.37237e-06
-4.12196e-05
0.00176761
3.22333e-05
0.00022494
0.00157292
0.00030895
0.00026815
0.0012982
0.000448055
-3.13947e-07
0.00120334
0.000508496
-0.000123898
0.00096909
0.000583049
-2.39072e-05
0.00105153
0.00072389
4.89192e-05
0.000772308
0.000666108
1.42114e-06
0.000449861
0.000658706
-2.80944e-05
0.000102305
0.000764841
-8.98991e-05
-0.000113905
0.000856327
-0.00028174
0.000758811
-0.000620018
0.00172974
2.22063e-09
-5.86824e-05
0.00176406
-1.4867e-09
-4.69826e-05
0.0017882
1.66158e-09
-3.85293e-05
0.00180606
-3.87215e-09
-3.20036e-05
0.00181986
1.38225e-09
-2.69924e-05
0.0018306
-4.12626e-09
-2.26043e-05
0.00183933
4.56778e-10
-1.95944e-05
0.00184613
7.84849e-09
-1.62331e-05
0.00185229
2.87069e-08
-1.487e-05
0.00185535
2.23467e-07
-1.2415e-05
0.00186723
4.05995e-07
-1.55682e-05
0.00185014
1.95544e-06
3.01116e-06
0.00188612
4.32478e-06
-2.59675e-05
0.00181211