/*--------------------------------*- C++ -*----------------------------------*\
  =========                 |
  \\      /  F ield         | OpenFOAM: The Open Source CFD Toolbox
   \\    /   O peration     | Website:  https://openfoam.org
    \\  /    A nd           | Version:  6
     \\/     M anipulation  |
\*---------------------------------------------------------------------------*/
FoamFile
{
    version     2.0;
    format      ascii;
    class       volScalarField;
    location    "2.5";
    object      T;
}
// * * * * * * * * * * * * * * * * * * * * * * * * * * * * * * * * * * * * * //

dimensions      [0 0 0 1 0 0 0];

internalField   nonuniform List<scalar> 
26250
(
0.980188
0.96731
0.955947
0.946523
0.937884
0.930938
0.924421
0.920391
0.919823
0.926965
0.941397
1.00622
1.12314
1.57887
2.48924
2.70162
2.66309
2.63402
2.59758
2.61088
2.6173
2.6369
2.67254
2.72992
2.72577
0.980193
0.967303
0.955953
0.946517
0.937891
0.930932
0.924426
0.920374
0.919811
0.926874
0.94121
1.00563
1.12201
1.57484
2.48118
2.68914
2.65042
2.6216
2.58758
2.58784
2.5998
2.62726
2.65835
2.72063
2.71214
0.980209
0.967287
0.95597
0.946501
0.937906
0.930916
0.924435
0.920322
0.919765
0.926701
0.940732
1.00475
1.11924
1.57191
2.47654
2.69561
2.65861
2.62759
2.59415
2.59356
2.60683
2.63598
2.66874
2.72976
2.7215
0.980338
0.967159
0.956105
0.946367
0.93804
0.930779
0.924528
0.920104
0.919632
0.926338
0.938298
1.00336
1.11361
1.56636
2.46554
2.68121
2.64851
2.62224
2.58983
2.5962
2.60906
2.63722
2.67138
2.73459
2.73679
0.980678
0.966812
0.956462
0.945996
0.938427
0.930368
0.925015
0.91971
0.921106
0.921218
0.944849
0.98044
1.14514
1.53692
2.32327
2.648
2.62471
2.59872
2.57071
2.57402
2.58897
2.62092
2.65799
2.72614
2.73314
0.9794
0.968135
0.955203
0.947346
0.93712
0.93178
0.923623
0.921328
0.919075
0.925347
0.934279
0.999125
1.1002
1.54908
2.425
2.65285
2.63496
2.60146
2.56929
2.57038
2.58335
2.61321
2.648
2.71765
2.72974
0.980744
0.966754
0.956523
0.945935
0.938483
0.930303
0.925056
0.919559
0.920632
0.920691
0.942904
0.97637
1.13246
1.50223
2.26274
2.61096
2.60819
2.58227
2.55574
2.55691
2.57071
2.60021
2.63593
2.70497
2.72387
0.979489
0.968005
0.955246
0.947221
0.937188
0.93163
0.923707
0.920976
0.918885
0.924473
0.934078
0.992761
1.08471
1.51083
2.36103
2.60654
2.60281
2.57638
2.54649
2.54611
2.55838
2.58551
2.61998
2.68939
2.70894
0.979332
0.968159
0.95508
0.947383
0.937023
0.931794
0.923546
0.921099
0.918656
0.923873
0.934268
0.988312
1.07651
1.47689
2.29903
2.58517
2.58547
2.56346
2.53515
2.53183
2.54164
2.56324
2.59309
2.66043
2.67441
0.979023
0.968501
0.954746
0.947748
0.936668
0.932164
0.923169
0.921349
0.917807
0.922906
0.931261
0.983612
1.06561
1.44868
2.25764
2.55148
2.56639
2.54765
2.52622
2.52094
2.52832
2.54155
2.56006
2.60222
2.57942
1.01422
1.02102
1.02631
1.02896
1.03184
1.03303
1.03511
1.03681
1.04426
1.0559
1.09189
1.17704
1.3821
1.92613
2.8231
2.72526
2.79112
2.75516
2.75563
2.76714
2.77352
2.78762
2.82846
2.83184
2.76613
1.01422
1.02102
1.02631
1.02896
1.03184
1.03303
1.0351
1.0368
1.04422
1.05584
1.09168
1.17666
1.38105
1.91915
2.82081
2.73007
2.78543
2.74628
2.74193
2.75219
2.76609
2.7754
2.81166
2.84065
2.77065
1.01422
1.02102
1.02631
1.02896
1.03184
1.03303
1.0351
1.03678
1.04415
1.05566
1.09131
1.17543
1.37871
1.91383
2.81934
2.72719
2.78839
2.74771
2.74149
2.74931
2.76517
2.77112
2.79495
2.8384
2.77411
1.01423
1.02102
1.02631
1.02897
1.03184
1.03304
1.03509
1.03674
1.04401
1.05534
1.0908
1.1733
1.37552
1.90104
2.81363
2.73271
2.78319
2.74073
2.73942
2.75061
2.76229
2.76766
2.78618
2.83294
2.77366
1.01419
1.02107
1.02627
1.02902
1.0318
1.03309
1.03502
1.03668
1.04325
1.05584
1.08545
1.1798
1.36228
1.88759
2.81512
2.74066
2.78456
2.73855
2.73405
2.74121
2.75369
2.75922
2.77214
2.8193
2.77001
1.01415
1.02107
1.02627
1.02899
1.03181
1.03305
1.03504
1.03666
1.04363
1.05444
1.08898
1.16741
1.36294
1.86123
2.80019
2.73685
2.77623
2.73222
2.72848
2.73326
2.74415
2.74821
2.76051
2.80687
2.76188
1.01418
1.02108
1.02626
1.02903
1.03179
1.03309
1.03499
1.03661
1.0429
1.05471
1.08319
1.17284
1.34331
1.85705
2.80378
2.74663
2.76163
2.72617
2.71973
2.72188
2.73128
2.7325
2.73709
2.7789
2.74352
1.01415
1.02106
1.02626
1.02899
1.0318
1.03304
1.03502
1.03657
1.04324
1.05327
1.08571
1.1622
1.33746
1.82528
2.77877
2.744
2.74242
2.71592
2.71182
2.71073
2.71379
2.71621
2.71787
2.75377
2.71729
1.01413
1.02108
1.02624
1.029
1.03178
1.03304
1.035
1.03651
1.0429
1.05251
1.08383
1.15687
1.32442
1.79814
2.75729
2.74941
2.71465
2.69165
2.69762
2.6984
2.6961
2.68877
2.68286
2.7053
2.65582
1.01408
1.02112
1.0262
1.02903
1.03176
1.03306
1.03496
1.0364
1.04236
1.05166
1.0807
1.15214
1.30913
1.76866
2.73466
2.74509
2.70643
2.66326
2.66749
2.67752
2.6763
2.6681
2.64391
2.64981
2.5703
1.00633
1.01269
1.02149
1.02802
1.03567
1.04064
1.04703
1.05158
1.06162
1.07717
1.11947
1.22029
1.44593
2.08613
2.872
2.58701
2.78919
2.76426
2.76763
2.73354
2.82868
2.81166
2.81155
2.81206
2.77487
1.00636
1.01266
1.02151
1.02799
1.03569
1.04061
1.04705
1.05155
1.06167
1.07694
1.11975
1.21852
1.44611
2.08858
2.86926
2.59021
2.78913
2.76245
2.76681
2.73437
2.8203
2.80783
2.80679
2.80883
2.76995
1.00633
1.01269
1.02149
1.02802
1.03566
1.04064
1.04703
1.05156
1.06151
1.07698
1.1189
1.21911
1.44269
2.08113
2.86604
2.59688
2.78734
2.75814
2.76437
2.7359
2.81515
2.79926
2.79684
2.80071
2.76207
1.00636
1.01266
1.02151
1.02799
1.03569
1.04061
1.04705
1.05151
1.06147
1.07657
1.1187
1.21614
1.43991
2.07624
2.85995
2.6108
2.788
2.754
2.76007
2.72817
2.80763
2.79249
2.78901
2.79238
2.7542
1.00638
1.01264
1.02154
1.02796
1.03572
1.04058
1.04707
1.05144
1.06137
1.07603
1.11819
1.21231
1.43495
2.06393
2.85048
2.62552
2.78564
2.7491
2.7561
2.71976
2.79743
2.77824
2.77202
2.77412
2.73812
1.00638
1.01265
1.02153
1.02797
1.03571
1.04059
1.04705
1.0514
1.06109
1.07566
1.11656
1.20983
1.42597
2.03736
2.83912
2.64306
2.78021
2.73933
2.74759
2.71058
2.78266
2.7648
2.75953
2.75979
2.7238
1.00641
1.01261
1.02156
1.02794
1.03574
1.04056
1.04707
1.05132
1.06084
1.07489
1.11518
1.20405
1.41592
2.00375
2.82241
2.65986
2.77331
2.73014
2.73633
2.69805
2.76323
2.74696
2.7367
2.72959
2.69214
1.00642
1.0126
1.02158
1.02793
1.03575
1.04054
1.04706
1.05123
1.06047
1.07414
1.11314
1.19866
1.40354
1.9521
2.80965
2.68692
2.7577
2.71538
2.72512
2.68755
2.73814
2.72655
2.71011
2.70179
2.66114
1.00646
1.01256
1.02162
1.02788
1.03579
1.04049
1.04709
1.05111
1.06012
1.07306
1.11129
1.19039
1.39122
1.88434
2.79813
2.69595
2.74914
2.69556
2.7054
2.67213
2.70883
2.7024
2.67631
2.65401
2.58922
1.00637
1.01264
1.02153
1.02797
1.0357
1.04056
1.047
1.05102
1.05951
1.07245
1.10807
1.19012
1.37044
1.85946
2.79552
2.70639
2.72228
2.6885
2.6884
2.65621
2.6768
2.67268
2.63655
2.5999
2.488
1.01423
1.02101
1.02631
1.02896
1.03185
1.03303
1.0351
1.03679
1.04421
1.05577
1.09176
1.17659
1.38233
1.92985
2.82079
2.73176
2.78778
2.75023
2.74128
2.75104
2.7591
2.77614
2.78839
2.82996
2.78899
1.01419
1.02106
1.02627
1.02901
1.0318
1.03308
1.03503
1.03673
1.0435
1.05663
1.08708
1.18503
1.37401
1.94411
2.82564
2.72668
2.79767
2.76106
2.76013
2.77392
2.77882
2.796
2.80689
2.83067
2.77608
1.01423
1.02102
1.02631
1.02897
1.03184
1.03304
1.03509
1.03676
1.0441
1.05551
1.0914
1.17478
1.37999
1.92539
2.81693
2.73075
2.78722
2.74935
2.75047
2.76355
2.77079
2.79185
2.80583
2.82802
2.77032
1.0142
1.02106
1.02627
1.02901
1.0318
1.03308
1.03503
1.03671
1.04344
1.05621
1.08645
1.18248
1.36864
1.9187
2.82029
2.73741
2.79017
2.74801
2.74381
2.75523
2.76301
2.77985
2.80146
2.82338
2.7668
1.0142
1.02106
1.02628
1.02901
1.03181
1.03308
1.03502
1.03669
1.04338
1.05582
1.08587
1.18003
1.36342
1.89837
2.81489
2.73856
2.78859
2.74457
2.73968
2.74847
2.75587
2.76515
2.78922
2.81315
2.76163
1.01419
1.02107
1.02627
1.02902
1.0318
1.03308
1.03501
1.03665
1.04319
1.05533
1.08476
1.17686
1.35516
1.87471
2.80863
2.74283
2.78092
2.73897
2.73439
2.73955
2.74658
2.75143
2.77566
2.80262
2.75313
1.01422
1.02103
1.02631
1.02897
1.03184
1.03303
1.03505
1.03661
1.04351
1.054
1.08746
1.16621
1.35024
1.8456
2.79142
2.73926
2.75991
2.72693
2.72335
2.72679
2.7356
2.73458
2.74849
2.7786
2.7347
1.01421
1.02103
1.0263
1.02897
1.03183
1.03303
1.03504
1.03656
1.04326
1.05335
1.08574
1.16241
1.33749
1.82456
2.77905
2.74087
2.73769
2.71225
2.71318
2.71406
2.71806
2.71836
2.72463
2.75481
2.70849
1.01414
1.02107
1.02624
1.02899
1.03179
1.03304
1.035
1.03651
1.04291
1.05253
1.0839
1.15692
1.32465
1.79777
2.75673
2.74975
2.71323
2.68763
2.69268
2.70062
2.69982
2.69083
2.68962
2.70719
2.64742
1.01408
1.02112
1.0262
1.02903
1.03175
1.03306
1.03496
1.0364
1.04238
1.0517
1.08077
1.15225
1.30942
1.76856
2.73407
2.74463
2.70553
2.66109
2.66428
2.675
2.67706
2.66984
2.64972
2.6534
2.56282
0.980323
0.967169
0.95609
0.946377
0.938026
0.930799
0.924507
0.920105
0.919656
0.926626
0.93885
1.00567
1.11792
1.58177
2.49315
2.69603
2.6563
2.62718
2.59164
2.59011
2.59991
2.62845
2.66089
2.729
2.70801
0.980739
0.966747
0.956523
0.94593
0.938489
0.930306
0.925088
0.919717
0.921609
0.921629
0.946527
0.984447
1.15626
1.58747
2.35326
2.68006
2.64211
2.61463
2.58036
2.593
2.5996
2.62354
2.65735
2.72081
2.70265
0.980361
0.967135
0.956128
0.946345
0.938066
0.930763
0.924575
0.920193
0.919751
0.926292
0.936258
1.00434
1.11026
1.58299
2.49302
2.69545
2.65485
2.62878
2.59412
2.60641
2.61374
2.63718
2.67345
2.7364
2.72936
0.980737
0.966751
0.956523
0.945935
0.938487
0.930317
0.925079
0.919769
0.921605
0.922041
0.946124
0.985622
1.15174
1.55252
2.33184
2.66022
2.62578
2.60359
2.57705
2.58065
2.59482
2.62547
2.66153
2.72801
2.73244
0.980721
0.96677
0.956507
0.945954
0.938469
0.930339
0.925047
0.919824
0.921504
0.922843
0.94548
0.986161
1.14642
1.52495
2.32323
2.65599
2.6239
2.60072
2.57392
2.57858
2.59186
2.6211
2.65845
2.72294
2.73563
0.980677
0.966814
0.95646
0.946
0.938423
0.930374
0.925003
0.919736
0.921082
0.921616
0.944365
0.981648
1.1404
1.51545
2.29732
2.62929
2.61565
2.58507
2.55655
2.55857
2.57292
2.60301
2.64187
2.7083
2.73184
0.980321
0.967174
0.956087
0.946381
0.938026
0.930785
0.924528
0.920027
0.919566
0.925418
0.935754
0.996719
1.09441
1.52892
2.39491
2.6317
2.62136
2.58829
2.5564
2.55323
2.56797
2.58894
2.63223
2.68602
2.7217
0.980307
0.967161
0.956101
0.946364
0.938053
0.930713
0.924583
0.920039
0.919637
0.924744
0.936037
0.992574
1.08776
1.49792
2.34624
2.60808
2.60622
2.58136
2.55319
2.54925
2.56346
2.58181
2.62223
2.67364
2.70053
0.979456
0.968036
0.955204
0.947261
0.93714
0.931679
0.923658
0.92098
0.918787
0.924078
0.934183
0.988393
1.07641
1.47803
2.30062
2.58436
2.58443
2.5624
2.53725
2.53548
2.54907
2.56552
2.59987
2.65329
2.66466
0.979012
0.968507
0.954739
0.947754
0.936666
0.932169
0.923169
0.921366
0.917835
0.922928
0.931523
0.98379
1.06546
1.44908
2.25788
2.55128
2.56519
2.5454
2.52483
2.52083
2.53198
2.54371
2.56675
2.60868
2.57192
0.980866
0.966635
0.956644
0.945813
0.938607
0.930169
0.925115
0.919152
0.919016
0.91951
0.936128
0.96285
1.09296
1.36142
2.04488
2.50176
2.53222
2.51575
2.50233
2.50134
2.50574
2.51628
2.51681
2.51064
2.4246
0.979305
0.968232
0.955033
0.94747
0.936968
0.931854
0.923439
0.92073
0.916746
0.921042
0.927781
0.972992
1.04852
1.36734
2.10295
2.44446
2.49058
2.47992
2.46812
2.46275
2.46288
2.46378
2.45716
2.43398
2.34514
0.980934
0.966558
0.956728
0.94572
0.938708
0.93004
0.925194
0.918685
0.91775
0.917417
0.931604
0.952749
1.06183
1.2618
1.86943
2.39167
2.46698
2.46431
2.45497
2.44375
2.43628
2.42643
2.40831
2.377
2.30221
0.97958
0.967934
0.955336
0.94714
0.937294
0.931481
0.923752
0.920054
0.915872
0.91885
0.925303
0.958938
1.02593
1.2539
1.87315
2.30031
2.42273
2.43333
2.4281
2.42062
2.40898
2.39623
2.36949
2.33251
2.26414
0.979748
0.967765
0.955505
0.946967
0.937476
0.931289
0.923926
0.919704
0.915283
0.917612
0.922549
0.949947
1.00128
1.18023
1.72672
2.20019
2.37687
2.39246
2.39058
2.38358
2.37295
2.36301
2.34205
2.30808
2.25055
0.980388
0.967123
0.956166
0.9463
0.938145
0.930602
0.924586
0.9189
0.915506
0.915021
0.921449
0.934138
0.989066
1.08831
1.46
2.12842
2.33099
2.34572
2.34413
2.33114
2.31567
2.30267
2.28592
2.25815
2.21667
0.980182
0.967338
0.955953
0.946526
0.937925
0.930829
0.924357
0.919059
0.915042
0.914755
0.918548
0.928769
0.97042
1.04903
1.34867
1.99032
2.30083
2.34053
2.33354
2.31546
2.29181
2.26961
2.24634
2.2151
2.17576
0.981086
0.96641
0.956895
0.945558
0.938888
0.92984
0.925318
0.918064
0.915903
0.913541
0.91651
0.925569
0.956892
1.0308
1.2557
1.85147
2.23849
2.32382
2.32199
2.30478
2.28394
2.25645
2.22902
2.19461
2.1534
0.980992
0.966509
0.956789
0.945672
0.938767
0.929971
0.925165
0.918174
0.915465
0.912404
0.914909
0.921564
0.945162
1.00803
1.16687
1.69609
2.11063
2.26658
2.28898
2.28259
2.2674
2.24222
2.21726
2.18605
2.14737
0.980159
0.967357
0.955919
0.946564
0.937862
0.930906
0.924198
0.919112
0.914051
0.911584
0.911163
0.917642
0.929981
0.981101
1.07311
1.41084
2.00887
2.20564
2.22949
2.23484
2.22311
2.20418
2.18288
2.16068
2.12942
0.980625
0.96688
0.956393
0.94607
0.938347
0.930401
0.924692
0.918573
0.914479
0.910481
0.911181
0.911784
0.926099
0.952957
1.04415
1.2634
1.74422
2.1472
2.21677
2.21868
2.20944
2.19074
2.16487
2.13814
2.10906
0.979553
0.96797
0.955292
0.947197
0.937224
0.931549
0.923554
0.919718
0.913278
0.911436
0.908831
0.911499
0.918074
0.943263
1.00257
1.16374
1.64602
2.02535
2.16707
2.18398
2.18047
2.16772
2.1451
2.12168
2.09667
0.980545
0.966951
0.956328
0.946126
0.938297
0.930432
0.924666
0.918535
0.914389
0.909826
0.908328
0.908279
0.914543
0.931095
0.972707
1.08736
1.38173
1.91409
2.11497
2.14263
2.14488
2.13276
2.11426
2.09206
2.06958
0.980249
0.967261
0.956022
0.946449
0.937983
0.930758
0.924349
0.918845
0.914048
0.909914
0.907081
0.906796
0.910685
0.919521
0.952608
1.01324
1.24506
1.73476
2.04071
2.12393
2.12529
2.11726
2.09774
2.07238
2.04735
0.980898
0.966604
0.956689
0.945772
0.938661
0.930071
0.92503
0.918154
0.91471
0.909204
0.90754
0.905637
0.907634
0.91387
0.93569
0.981828
1.12484
1.53442
1.91743
2.08477
2.10207
2.0999
2.08466
2.06007
2.03263
0.980694
0.966814
0.956476
0.945996
0.938436
0.930307
0.92479
0.918407
0.914435
0.90944
0.906976
0.904663
0.905963
0.910067
0.922344
0.958458
1.03774
1.31097
1.71746
2.0027
2.06845
2.07554
2.0705
2.05284
2.02504
0.980549
0.96695
0.956333
0.946132
0.938296
0.930448
0.924645
0.918556
0.914267
0.909573
0.906524
0.903635
0.904508
0.905946
0.91447
0.937001
0.994129
1.14013
1.49485
1.87753
2.01952
2.03898
2.04572
2.03643
2.01768
0.980396
0.967104
0.956173
0.94629
0.938133
0.930608
0.924485
0.918714
0.914113
0.909696
0.906318
0.903305
0.902567
0.903221
0.908208
0.922674
0.959433
1.04402
1.29574
1.75177
1.94969
1.99565
2.00488
2.00356
1.99398
0.980374
0.967124
0.956153
0.946307
0.938118
0.930619
0.924477
0.918713
0.914118
0.909662
0.906305
0.902976
0.901375
0.901169
0.90443
0.913555
0.936765
0.992067
1.15481
1.5557
1.86955
1.97683
1.98685
1.98498
1.97362
0.980321
0.967204
0.956074
0.946412
0.938013
0.930748
0.924349
0.918859
0.913977
0.909811
0.906132
0.90306
0.900767
0.900647
0.901897
0.907229
0.919963
0.959114
1.04199
1.3383
1.69496
1.9209
1.96803
1.96808
1.96304
0.980576
0.966929
0.956355
0.946107
0.938326
0.930411
0.924678
0.918519
0.914308
0.909446
0.90648
0.902672
0.900684
0.8991
0.899764
0.902954
0.91042
0.934388
0.98976
1.1285
1.48475
1.80899
1.92774
1.94797
1.94944
0.980445
0.967059
0.956227
0.946236
0.938197
0.930538
0.924565
0.918623
0.914206
0.909567
0.906342
0.902739
0.90047
0.898121
0.898353
0.899148
0.904428
0.917488
0.955526
1.03073
1.25853
1.66745
1.85451
1.90704
1.91812
0.980336
0.967171
0.956106
0.946363
0.938063
0.930682
0.924413
0.918786
0.914039
0.909744
0.906162
0.902899
0.900258
0.897976
0.897047
0.89737
0.900069
0.909096
0.928669
0.979394
1.11823
1.46483
1.76048
1.87753
1.89857
0.980225
0.96728
0.955995
0.946472
0.937953
0.93079
0.924306
0.918891
0.913936
0.909841
0.906068
0.902976
0.900154
0.897866
0.896205
0.896133
0.897527
0.902595
0.913605
0.946176
1.0157
1.25987
1.56515
1.79972
1.86941
0.980473
0.967032
0.956249
0.946216
0.938209
0.930531
0.924562
0.91863
0.914191
0.909583
0.906317
0.902727
0.900374
0.897603
0.896166
0.895066
0.8957
0.898268
0.904438
0.924221
0.967049
1.07843
1.34619
1.66549
1.81428
0.98042
0.967086
0.956195
0.946272
0.938154
0.930587
0.924507
0.918687
0.914134
0.909641
0.906256
0.902789
0.900297
0.897652
0.895881
0.89428
0.8946
0.895604
0.898864
0.911205
0.934407
0.996397
1.17546
1.5211
1.72417
0.980325
0.967182
0.956096
0.946373
0.938053
0.930691
0.924404
0.918794
0.91403
0.90975
0.906152
0.902895
0.900194
0.897733
0.89575
0.894038
0.893362
0.893552
0.895564
0.901786
0.915693
0.950857
1.0382
1.29322
1.58916
0.980225
0.96728
0.955995
0.946472
0.937953
0.930791
0.924305
0.918893
0.913931
0.909845
0.906056
0.902985
0.900107
0.897806
0.895658
0.893971
0.892694
0.892654
0.893469
0.897322
0.903729
0.928851
0.971066
1.11205
1.37509
0.980406
0.967099
0.95618
0.946286
0.938139
0.930602
0.924491
0.918703
0.914118
0.909657
0.906242
0.902801
0.900285
0.897631
0.895808
0.893785
0.892612
0.891742
0.892112
0.893746
0.897353
0.910551
0.935973
1.00328
1.17661
0.980313
0.967195
0.956084
0.946386
0.93804
0.930705
0.924389
0.918809
0.914015
0.909765
0.906136
0.90291
0.900177
0.897742
0.895691
0.893882
0.892373
0.891287
0.891129
0.891692
0.893667
0.900786
0.914379
0.952675
1.04137
0.980312
0.967194
0.956084
0.946384
0.938041
0.930701
0.924394
0.918802
0.914021
0.909756
0.906145
0.902899
0.900187
0.897731
0.895697
0.893864
0.892352
0.891062
0.890385
0.890416
0.891497
0.895261
0.902606
0.924431
0.971083
0.980362
0.967143
0.956136
0.946331
0.938094
0.930647
0.924447
0.918748
0.914074
0.909703
0.906197
0.902846
0.90024
0.897673
0.895759
0.893788
0.892417
0.890917
0.890137
0.889741
0.890116
0.892055
0.89534
0.909076
0.932001
0.980373
0.967132
0.956148
0.946318
0.938109
0.930632
0.924463
0.918731
0.914091
0.909688
0.906209
0.902839
0.900242
0.897677
0.895752
0.893798
0.892398
0.890911
0.889946
0.889087
0.889286
0.88988
0.891885
0.898468
0.911249
0.980291
0.967217
0.956061
0.946409
0.938017
0.930729
0.924367
0.918832
0.913992
0.909789
0.906113
0.902934
0.900153
0.897764
0.895669
0.893882
0.892312
0.890984
0.889832
0.888943
0.888551
0.88875
0.889664
0.893377
0.899489
0.980355
0.967155
0.95612
0.946353
0.938064
0.930686
0.924398
0.918807
0.914004
0.909782
0.906108
0.902945
0.900131
0.897791
0.895631
0.893922
0.892267
0.891019
0.889784
0.888872
0.888142
0.888124
0.88846
0.890155
0.893376
0.980357
0.96715
0.956129
0.946339
0.938086
0.930656
0.924438
0.918758
0.914065
0.909713
0.906186
0.902858
0.900227
0.897687
0.895742
0.893806
0.892383
0.890905
0.889881
0.888762
0.88809
0.887545
0.887709
0.888378
0.890014
0.980286
0.967222
0.956056
0.946413
0.938012
0.930732
0.924363
0.918835
0.913989
0.909791
0.906111
0.902936
0.900152
0.897764
0.895668
0.893881
0.892311
0.890978
0.889807
0.888827
0.887958
0.887364
0.887153
0.88742
0.888184
0.980274
0.967229
0.956049
0.946416
0.938009
0.930731
0.924363
0.918831
0.913994
0.909783
0.906124
0.902923
0.900174
0.897747
0.895694
0.893863
0.892336
0.890961
0.889827
0.888806
0.887968
0.887254
0.886862
0.886896
0.887428
0.980322
0.967188
0.956089
0.946382
0.938039
0.930708
0.924381
0.918821
0.913995
0.90979
0.906104
0.902945
0.90014
0.897772
0.895663
0.893881
0.892312
0.890974
0.889811
0.88881
0.887959
0.88723
0.886749
0.886722
0.887144
0.980315
0.967196
0.956081
0.94639
0.938034
0.930711
0.924383
0.918815
0.914005
0.909776
0.906119
0.902932
0.900148
0.897774
0.895651
0.8939
0.892291
0.890993
0.889795
0.888825
0.887942
0.887238
0.886696
0.886672
0.887059
1.01385
1.02141
1.02593
1.02936
1.03144
1.03343
1.03456
1.03665
1.04019
1.053
1.07712
1.13651
1.31727
1.73849
2.63928
2.74349
2.7012
2.66377
2.64666
2.64664
2.64371
2.63308
2.5942
2.55672
2.40402
1.01372
1.02148
1.02584
1.0294
1.03138
1.03344
1.03449
1.03649
1.03986
1.05022
1.07585
1.12474
1.30746
1.67605
2.55192
2.72916
2.67966
2.66622
2.64186
2.62843
2.6158
2.59717
2.55198
2.4894
2.34058
1.01406
1.02121
1.02613
1.02917
1.03164
1.03323
1.03466
1.03609
1.03922
1.04978
1.07113
1.11977
1.28246
1.61763
2.46223
2.69244
2.67971
2.65412
2.63129
2.61121
2.58657
2.56104
2.50911
2.44836
2.32063
1.01419
1.02103
1.02629
1.02896
1.03183
1.033
1.03485
1.03575
1.03888
1.04653
1.06822
1.10521
1.25693
1.53945
2.31343
2.63779
2.67032
2.64958
2.62526
2.59936
2.56564
2.53568
2.47856
2.42565
2.31908
1.01398
1.02123
1.0261
1.02915
1.03165
1.03316
1.03473
1.03585
1.03917
1.04515
1.06155
1.10807
1.19702
1.50933
2.27113
2.56104
2.64271
2.62917
2.61091
2.58899
2.54538
2.51297
2.45076
2.40489
2.31902
1.01375
1.02148
1.02586
1.02941
1.0314
1.03343
1.0344
1.03599
1.03772
1.04472
1.05705
1.08982
1.18481
1.37819
2.01575
2.51593
2.62773
2.61389
2.59148
2.57334
2.53255
2.5011
2.43412
2.38567
2.31659
1.01367
1.02156
1.02578
1.02948
1.03133
1.03349
1.03433
1.03594
1.03724
1.04302
1.0522
1.0805
1.14751
1.30293
1.70464
2.4328
2.58695
2.58091
2.56111
2.54496
2.50977
2.48307
2.42653
2.36786
2.30803
1.01404
1.02123
1.02612
1.02918
1.03165
1.03319
1.03464
1.03556
1.03728
1.0404
1.04951
1.0728
1.11759
1.27117
1.61696
2.33326
2.56189
2.55791
2.53815
2.52329
2.49085
2.46405
2.4198
2.36379
2.30432
1.0139
1.02136
1.02599
1.02929
1.03152
1.03329
1.03451
1.03558
1.03674
1.03927
1.04683
1.06537
1.101
1.23113
1.4763
2.15988
2.5028
2.53953
2.51544
2.50251
2.47441
2.44394
2.40538
2.35563
2.29991
1.01384
1.02139
1.02594
1.02932
1.03147
1.03333
1.03444
1.03559
1.03646
1.03833
1.04571
1.0572
1.09088
1.17979
1.37238
1.93232
2.40532
2.51634
2.50367
2.48862
2.45998
2.43247
2.39809
2.35257
2.29991
1.01387
1.02138
1.02596
1.02932
1.03148
1.03333
1.03443
1.03561
1.03637
1.0383
1.04181
1.05343
1.07613
1.13697
1.28452
1.73469
2.2638
2.46016
2.46694
2.45921
2.43814
2.40905
2.37818
2.34351
2.29783
1.01381
1.02139
1.02593
1.02931
1.03147
1.03332
1.03442
1.03556
1.03627
1.03769
1.04025
1.04908
1.06652
1.10847
1.22898
1.51779
2.12162
2.41271
2.44708
2.44026
2.42739
2.4004
2.36914
2.33393
2.29405
1.01405
1.0212
1.02614
1.02913
1.03166
1.03314
1.03462
1.03536
1.03642
1.03715
1.03982
1.04484
1.05775
1.09532
1.16593
1.40486
1.99329
2.3217
2.40837
2.40619
2.39677
2.38064
2.35265
2.32203
2.28533
1.01391
1.02132
1.02601
1.02925
1.03155
1.03325
1.0345
1.03547
1.03624
1.03705
1.0383
1.04323
1.05181
1.07484
1.1393
1.26494
1.65483
2.17843
2.36546
2.37922
2.37565
2.3634
2.3405
2.31132
2.27867
1.01384
1.02141
1.02593
1.02935
1.03145
1.03336
1.0344
1.03557
1.03612
1.03705
1.03787
1.04155
1.04718
1.06478
1.10831
1.19316
1.48829
2.06188
2.296
2.3387
2.3417
2.33272
2.32087
2.30097
2.27373
1.01383
1.02142
1.02592
1.02936
1.03145
1.03337
1.03439
1.03558
1.0361
1.03702
1.03765
1.0402
1.04396
1.05818
1.08413
1.15169
1.33493
1.83162
2.2062
2.31497
2.31377
2.30509
2.28929
2.27211
2.25645
1.01387
1.02137
1.02596
1.02931
1.03149
1.03333
1.03443
1.03554
1.03613
1.03694
1.03745
1.03902
1.04165
1.05154
1.06725
1.11949
1.21878
1.59027
2.00686
2.251
2.29148
2.29054
2.27829
2.258
2.23483
1.01402
1.02122
1.02611
1.02916
1.03164
1.03317
1.03459
1.03538
1.03629
1.03674
1.03748
1.03813
1.04087
1.04533
1.05903
1.0915
1.15887
1.36972
1.8805
2.16173
2.24254
2.25552
2.25345
2.24383
2.22428
1.01403
1.02121
1.02612
1.02915
1.03165
1.03316
1.03459
1.03537
1.03629
1.03673
1.0374
1.03784
1.03907
1.04351
1.05049
1.07209
1.11972
1.2318
1.52408
2.02411
2.20224
2.22209
2.22417
2.21754
2.20365
1.01395
1.02128
1.02605
1.02922
1.03158
1.03323
1.03453
1.03543
1.03623
1.03677
1.03733
1.03776
1.0385
1.04151
1.04584
1.06069
1.09197
1.15941
1.37704
1.85255
2.12629
2.20121
2.19997
2.19616
2.18431
1.01387
1.02137
1.02597
1.02931
1.03149
1.03332
1.03444
1.03552
1.03613
1.03686
1.03723
1.03782
1.03827
1.04004
1.04276
1.05306
1.06989
1.12111
1.23005
1.5786
1.97326
2.15301
2.17544
2.17465
2.16577
1.01388
1.02137
1.02597
1.0293
1.0315
1.03331
1.03444
1.03552
1.03614
1.03686
1.03722
1.03777
1.0381
1.03911
1.04089
1.04719
1.05872
1.08903
1.16622
1.34599
1.75203
2.07257
2.15163
2.15394
2.15152
1.01389
1.02135
1.02598
1.02928
1.03151
1.03329
1.03446
1.0355
1.03616
1.03684
1.03724
1.03774
1.038
1.03852
1.03967
1.04392
1.05002
1.0711
1.11069
1.21873
1.45902
1.91134
2.09003
2.1191
2.12271
1.01398
1.02126
1.02607
1.02919
1.03161
1.0332
1.03455
1.0354
1.03625
1.03674
1.03733
1.03763
1.03809
1.03834
1.03902
1.04163
1.04551
1.05855
1.0851
1.14665
1.32411
1.7305
2.00266
2.09472
2.09882
1.01393
1.02131
1.02602
1.02925
1.03155
1.03326
1.0345
1.03546
1.03619
1.0368
1.03727
1.03769
1.03801
1.03835
1.03873
1.04022
1.0425
1.05104
1.06452
1.10845
1.19095
1.48744
1.81641
2.03514
2.07939
1.01388
1.02136
1.02598
1.02929
1.03151
1.0333
1.03446
1.0355
1.03615
1.03684
1.03723
1.03773
1.03797
1.03835
1.03857
1.03918
1.04132
1.04491
1.0555
1.07937
1.13309
1.27895
1.65494
1.91955
2.03868
1.0139
1.02134
1.026
1.02927
1.03153
1.03328
1.03448
1.03548
1.03617
1.03682
1.03725
1.0377
1.03799
1.03833
1.03851
1.03885
1.03976
1.04278
1.04775
1.06184
1.09679
1.16551
1.37868
1.77555
1.97012
1.01396
1.02127
1.02606
1.02921
1.03159
1.03321
1.03454
1.03542
1.03624
1.03676
1.03732
1.03764
1.03805
1.03825
1.03859
1.03877
1.0394
1.04055
1.04452
1.05172
1.07081
1.11973
1.219
1.50299
1.82786
1.01396
1.02128
1.02605
1.02921
1.03158
1.03322
1.03453
1.03543
1.03623
1.03677
1.03731
1.03765
1.03804
1.03826
1.03856
1.03871
1.039
1.03969
1.04225
1.04599
1.05763
1.0847
1.13848
1.31488
1.67752
1.01389
1.02134
1.02599
1.02928
1.03152
1.03328
1.03447
1.03549
1.03617
1.03683
1.03725
1.03771
1.03798
1.03833
1.03849
1.03878
1.03892
1.0394
1.04028
1.04353
1.04863
1.06425
1.09788
1.17443
1.37559
1.01392
1.02132
1.02602
1.02925
1.03154
1.03326
1.03449
1.03546
1.03619
1.0368
1.03727
1.03769
1.038
1.0383
1.03851
1.03874
1.03889
1.03909
1.03962
1.04152
1.04433
1.05384
1.07156
1.11766
1.22775
1.01396
1.02128
1.02605
1.02922
1.03158
1.03322
1.03453
1.03543
1.03623
1.03677
1.03731
1.03765
1.03804
1.03826
1.03856
1.0387
1.03893
1.03904
1.03937
1.04005
1.04239
1.04638
1.05722
1.08443
1.13765
1.01391
1.02133
1.02601
1.02926
1.03154
1.03327
1.03448
1.03547
1.03618
1.03681
1.03726
1.0377
1.03799
1.03831
1.03851
1.03875
1.03888
1.03908
1.03921
1.03971
1.04054
1.04361
1.04846
1.06329
1.09443
1.01391
1.02133
1.02601
1.02926
1.03154
1.03327
1.03448
1.03547
1.03618
1.03681
1.03726
1.0377
1.03799
1.03831
1.03851
1.03875
1.03887
1.03907
1.03916
1.03938
1.03986
1.04166
1.04413
1.05302
1.0686
1.01395
1.02129
1.02604
1.02922
1.03157
1.03323
1.03452
1.03544
1.03622
1.03678
1.0373
1.03766
1.03803
1.03828
1.03854
1.03871
1.03891
1.03903
1.03918
1.03928
1.03953
1.04044
1.04181
1.04666
1.05457
1.01392
1.02132
1.02602
1.02925
1.03155
1.03326
1.03449
1.03546
1.03619
1.0368
1.03727
1.03769
1.038
1.0383
1.03852
1.03873
1.03889
1.03905
1.03916
1.03929
1.03941
1.03987
1.04059
1.04338
1.04734
1.01392
1.02132
1.02602
1.02925
1.03155
1.03326
1.03449
1.03546
1.03619
1.0368
1.03727
1.03769
1.038
1.0383
1.03851
1.03874
1.03888
1.03905
1.03915
1.03929
1.03936
1.03952
1.0401
1.04109
1.0442
1.01393
1.02131
1.02603
1.02924
1.03156
1.03325
1.0345
1.03545
1.0362
1.03679
1.03728
1.03768
1.03801
1.03829
1.03853
1.03873
1.03889
1.03904
1.03916
1.03927
1.03936
1.03945
1.03971
1.04057
1.04191
1.01394
1.0213
1.02604
1.02923
1.03157
1.03324
1.03451
1.03544
1.03621
1.03678
1.03729
1.03766
1.03803
1.03827
1.03854
1.03871
1.03891
1.03902
1.03918
1.03925
1.03938
1.03945
1.03968
1.04008
1.04165
1.01394
1.0213
1.02603
1.02923
1.03156
1.03324
1.03451
1.03544
1.03621
1.03678
1.03729
1.03766
1.03803
1.03827
1.03854
1.03871
1.03891
1.03902
1.03918
1.03925
1.03938
1.03944
1.03963
1.03997
1.04135
1.00593
1.01308
1.02109
1.02842
1.03525
1.04104
1.04644
1.05144
1.05807
1.07369
1.10441
1.17349
1.37976
1.86217
2.75342
2.73351
2.70086
2.67166
2.6742
2.63974
2.64341
2.63767
2.58884
2.52262
2.33929
1.00587
1.01315
1.02103
1.02848
1.03518
1.0411
1.04636
1.05141
1.05772
1.0728
1.10046
1.16716
1.35422
1.81023
2.69864
2.72565
2.69495
2.6566
2.65227
2.62563
2.61057
2.59943
2.54746
2.46299
2.28364
1.00581
1.0132
1.02098
1.02851
1.03516
1.04108
1.0464
1.05111
1.05713
1.06826
1.09693
1.16613
1.30136
1.74429
2.69368
2.70703
2.66926
2.65531
2.64092
2.60531
2.5801
2.55902
2.508
2.4309
2.28518
1.00506
1.01396
1.02023
1.02926
1.03441
1.04181
1.04563
1.05177
1.05597
1.067
1.09182
1.15456
1.27082
1.67784
2.62543
2.68006
2.67131
2.6451
2.62867
2.59434
2.55256
2.52914
2.47818
2.41095
2.28956
1.00626
1.01275
1.02142
1.02809
1.03556
1.04071
1.04667
1.0508
1.05658
1.06554
1.08822
1.12821
1.27445
1.54701
2.40779
2.65279
2.67319
2.64474
2.61657
2.57971
2.5311
2.49732
2.45327
2.40308
2.29877
1.00554
1.01348
1.0207
1.02881
1.03485
1.04141
1.04596
1.05142
1.0558
1.06573
1.0815
1.12397
1.23147
1.46731
2.21144
2.59958
2.66647
2.64161
2.60675
2.57363
2.51741
2.47865
2.42544
2.38646
2.31265
1.0054
1.01361
1.02057
1.02893
1.03472
1.04152
1.04582
1.05144
1.0552
1.06358
1.07619
1.11171
1.19251
1.3768
1.95312
2.52138
2.63933
2.62144
2.5825
2.55733
2.5053
2.46188
2.41025
2.37056
2.31206
1.0054
1.01362
1.02056
1.02895
1.03471
1.04154
1.04579
1.05139
1.05474
1.06167
1.07224
1.10129
1.16888
1.30766
1.72647
2.51468
2.61455
2.59762
2.57325
2.54785
2.49651
2.44997
2.39038
2.35368
2.30726
1.00633
1.0127
1.02147
1.02805
1.03561
1.04066
1.04665
1.05049
1.0553
1.05956
1.06917
1.09173
1.14867
1.25326
1.62809
2.46387
2.56011
2.56531
2.55156
2.53164
2.49108
2.44766
2.38524
2.3348
2.29925
1.00591
1.0131
1.02107
1.02842
1.03524
1.041
1.04633
1.05071
1.05504
1.05934
1.06841
1.08485
1.12485
1.23673
1.46778
2.21624
2.52147
2.5604
2.53822
2.51927
2.48002
2.44292
2.38606
2.32835
2.28353
1.00604
1.01297
1.0212
1.0283
1.03536
1.04087
1.04644
1.05056
1.05505
1.05862
1.06559
1.07861
1.10821
1.19181
1.3524
1.86784
2.42821
2.54351
2.51764
2.50406
2.47207
2.43805
2.38915
2.33018
2.27847
1.00577
1.01325
1.02092
1.02858
1.03507
1.04116
1.04614
1.05087
1.05461
1.05864
1.06337
1.07594
1.09618
1.1543
1.28574
1.67591
2.3277
2.51138
2.50446
2.48523
2.45238
2.42697
2.3887
2.33388
2.27994
1.00612
1.01289
1.02128
1.02822
1.03543
1.04081
1.04649
1.05051
1.0549
1.05808
1.06253
1.07027
1.08899
1.12387
1.2445
1.47092
2.1314
2.44083
2.48907
2.47441
2.44633
2.413
2.3838
2.3424
2.28527
1.00583
1.01321
1.02097
1.02855
1.0351
1.04116
1.04613
1.05086
1.05452
1.05822
1.06155
1.06714
1.08103
1.11184
1.17803
1.36667