/*--------------------------------*- C++ -*----------------------------------*\
  =========                 |
  \\      /  F ield         | OpenFOAM: The Open Source CFD Toolbox
   \\    /   O peration     | Website:  https://openfoam.org
    \\  /    A nd           | Version:  6
     \\/     M anipulation  |
\*---------------------------------------------------------------------------*/
FoamFile
{
    version     2.0;
    format      ascii;
    class       volVectorField;
    location    "2.5";
    object      U;
}
// * * * * * * * * * * * * * * * * * * * * * * * * * * * * * * * * * * * * * //

dimensions      [0 1 -1 0 0 0 0];

internalField   nonuniform List<vector> 
26250
(
(3.01561 1.54337e-07 -0.0579711)
(3.02577 4.20886e-07 -0.0597678)
(3.03428 1.55171e-07 -0.061128)
(3.04139 8.13689e-07 -0.0622722)
(3.04763 -3.26318e-07 -0.0631565)
(3.0527 9.4583e-07 -0.0640211)
(3.05731 -8.70824e-07 -0.0645779)
(3.06004 3.08524e-06 -0.0654334)
(3.0588 7.95536e-06 -0.0659894)
(3.0565 3.47745e-05 -0.0675463)
(3.03802 6.78781e-05 -0.070012)
(3.00404 0.000239321 -0.0778234)
(2.86711 0.00052077 -0.0922507)
(2.48225 0.00185433 -0.136831)
(1.53805 0.00478032 -0.234066)
(0.705951 0.0157035 -0.277078)
(0.794073 0.019312 -0.259532)
(0.919485 0.018022 -0.250674)
(0.992662 0.0199771 -0.254562)
(0.974404 0.0256385 -0.25989)
(0.958353 0.025972 -0.260874)
(0.905151 0.021631 -0.263624)
(0.772345 0.014925 -0.267433)
(0.512549 0.0110667 -0.269377)
(0.279667 -0.00167324 -0.262728)
(3.01561 1.60546e-06 -0.0579714)
(3.02577 7.34129e-07 -0.0597674)
(3.03428 8.39778e-07 -0.0611284)
(3.04139 1.31219e-06 -0.0622718)
(3.04763 -1.54904e-06 -0.0631569)
(3.0527 2.83034e-06 -0.0640206)
(3.05731 -4.10153e-06 -0.0645781)
(3.06005 1.43066e-05 -0.0654328)
(3.05882 3.61518e-05 -0.0659876)
(3.05655 0.000131038 -0.0675405)
(3.03818 0.000258533 -0.0699939)
(3.00443 0.000736229 -0.077786)
(2.86833 0.00157023 -0.0921517)
(2.4862 0.00454839 -0.136536)
(1.55247 0.0116034 -0.233398)
(0.745819 0.0291917 -0.275016)
(0.824865 0.0387194 -0.257553)
(0.943721 0.0426479 -0.247557)
(1.01798 0.0480034 -0.251694)
(1.01866 0.0542616 -0.255112)
(0.990048 0.056025 -0.25764)
(0.93337 0.0504112 -0.260865)
(0.811478 0.0397065 -0.263275)
(0.574788 0.0346571 -0.265561)
(0.366275 0.0218279 -0.259238)
(3.01561 7.97735e-06 -0.0579721)
(3.02576 -3.16229e-06 -0.0597665)
(3.03428 4.43083e-06 -0.0611292)
(3.04139 -6.32404e-06 -0.0622709)
(3.04763 1.14742e-06 -0.0631576)
(3.0527 -4.24035e-06 -0.0640201)
(3.05732 -3.24683e-06 -0.0645777)
(3.06007 4.50469e-05 -0.0654312)
(3.05889 0.000113889 -0.0659838)
(3.05669 0.000410292 -0.0675276)
(3.0385 0.000796859 -0.0699621)
(3.00515 0.00185951 -0.0777007)
(2.86993 0.00360666 -0.0919344)
(2.49066 0.00838974 -0.136187)
(1.55891 0.0188713 -0.232733)
(0.727095 0.0478979 -0.27568)
(0.809864 0.0640905 -0.257849)
(0.932273 0.0718586 -0.247492)
(1.00732 0.0764618 -0.251512)
(1.00897 0.0794527 -0.25482)
(0.975844 0.08344 -0.25758)
(0.909961 0.0848874 -0.260312)
(0.788633 0.0806678 -0.262365)
(0.551031 0.0771555 -0.264414)
(0.334042 0.0693045 -0.258227)
(3.01561 1.46743e-05 -0.0579782)
(3.02576 -1.03486e-05 -0.0597593)
(3.03427 1.42476e-05 -0.0611364)
(3.04139 -2.43743e-05 -0.0622628)
(3.04763 2.83484e-05 -0.0631656)
(3.0527 -5.67853e-05 -0.0640111)
(3.05735 7.79737e-05 -0.0645834)
(3.06014 -0.000151874 -0.0654211)
(3.05912 0.000170943 -0.065969)
(3.05712 0.00146312 -0.0675214)
(3.03935 -0.00206664 -0.0698189)
(3.00692 0.0104262 -0.0775678)
(2.8729 -0.00926941 -0.0913746)
(2.50494 0.0417773 -0.135344)
(1.58061 0.0303878 -0.231696)
(0.782021 0.0824342 -0.273053)
(0.842784 0.104179 -0.255632)
(0.951693 0.1132 -0.244948)
(1.02081 0.117078 -0.249629)
(1.00907 0.122174 -0.254051)
(0.97888 0.127435 -0.255895)
(0.913635 0.132259 -0.258436)
(0.786178 0.133826 -0.260149)
(0.542454 0.130997 -0.261701)
(0.317671 0.119545 -0.256836)
(3.01561 -1.92347e-05 -0.057994)
(3.02576 5.81497e-06 -0.0597411)
(3.03427 -1.60077e-06 -0.0611555)
(3.0414 3.98419e-07 -0.0622409)
(3.04761 1.11939e-05 -0.0631905)
(3.05274 -1.71719e-05 -0.0639785)
(3.05724 2.08678e-05 -0.0646282)
(3.06015 -8.44286e-05 -0.0653466)
(3.06023 -0.000223032 -0.0660734)
(3.0548 0.000209862 -0.0674639)
(3.04548 0.000779031 -0.0692997)
(2.99934 0.00246775 -0.0779629)
(2.88626 0.00569473 -0.0896572)
(2.54434 0.0136698 -0.137141)
(1.60195 0.0355405 -0.221485)
(0.832779 0.0888974 -0.268723)
(0.876062 0.120936 -0.252733)
(0.975522 0.136676 -0.241258)
(1.03893 0.148292 -0.245673)
(1.03275 0.160302 -0.249379)
(1.0003 0.171294 -0.251462)
(0.93385 0.180236 -0.25415)
(0.802184 0.186415 -0.255685)
(0.552566 0.187944 -0.25689)
(0.321195 0.175151 -0.252648)
(3.01562 -6.32103e-07 -0.0579324)
(3.02578 -4.50304e-06 -0.0598117)
(3.03427 -1.54283e-08 -0.0610893)
(3.0414 -7.84244e-06 -0.0623157)
(3.04762 5.58316e-06 -0.0631173)
(3.05271 -1.14563e-05 -0.064062)
(3.0573 1.95508e-05 -0.0645386)
(3.05994 -4.31242e-06 -0.0654646)
(3.05937 0.000125498 -0.0658965)
(3.05795 0.000297987 -0.0674756)
(3.04117 0.000877144 -0.069561)
(3.01098 0.0018675 -0.0771908)
(2.88095 0.00548257 -0.0899933)
(2.53493 0.0153718 -0.133169)
(1.64429 0.0426886 -0.226456)
(0.861005 0.111751 -0.269234)
(0.892407 0.151207 -0.252464)
(0.985077 0.169907 -0.239679)
(1.04905 0.185217 -0.243796)
(1.04372 0.201517 -0.247192)
(1.01136 0.216789 -0.248796)
(0.946092 0.229617 -0.25078)
(0.814291 0.241219 -0.25145)
(0.560439 0.250589 -0.251952)
(0.323401 0.241708 -0.247742)
(3.0156 -5.12452e-06 -0.0579968)
(3.02576 -4.35457e-06 -0.0597382)
(3.03426 -5.07206e-06 -0.0611585)
(3.0414 -2.03507e-06 -0.0622376)
(3.0476 2.11967e-06 -0.0631942)
(3.05275 1.65016e-06 -0.0639736)
(3.05725 2.14228e-05 -0.0646332)
(3.06023 2.45594e-05 -0.0653321)
(3.06048 0.000258001 -0.0660529)
(3.05543 0.000402638 -0.0673814)
(3.04677 0.000622809 -0.0691349)
(3.00316 0.00212311 -0.0774474)
(2.89729 0.00552445 -0.0882192)
(2.57279 0.0169254 -0.134464)
(1.6866 0.0556904 -0.213938)
(0.934969 0.139254 -0.263723)
(0.935125 0.183468 -0.249465)
(1.01283 0.205541 -0.236315)
(1.07005 0.223242 -0.24037)
(1.06463 0.242164 -0.24355)
(1.03034 0.261352 -0.245218)
(0.964642 0.279257 -0.246646)
(0.833227 0.29893 -0.2467)
(0.574948 0.321196 -0.246266)
(0.329837 0.325829 -0.241798)
(3.01561 -4.19708e-05 -0.0579363)
(3.02578 1.57852e-05 -0.059805)
(3.03427 -1.8307e-05 -0.0610912)
(3.0414 2.98367e-05 -0.0623095)
(3.04762 -1.20498e-05 -0.0631204)
(3.05272 4.99736e-05 -0.0640548)
(3.05732 -3.95022e-05 -0.0645437)
(3.06014 0.000123521 -0.0654467)
(3.05968 -0.000106198 -0.0659099)
(3.05824 -0.00067048 -0.0673573)
(3.04261 0.00350577 -0.0693605)
(3.01497 -0.00488875 -0.0766836)
(2.89399 0.0203636 -0.0879699)
(2.57399 -0.00639358 -0.130705)
(1.759 0.0650351 -0.218272)
(0.977643 0.161356 -0.263751)
(0.964021 0.207781 -0.247822)
(1.03386 0.234538 -0.234006)
(1.08944 0.256071 -0.237418)
(1.0854 0.279147 -0.240178)
(1.05178 0.3036 -0.241538)
(0.988517 0.328668 -0.242203)
(0.861686 0.360028 -0.241416)
(0.602658 0.402484 -0.240034)
(0.349079 0.438038 -0.234142)
(3.01561 -8.09512e-06 -0.0579287)
(3.02579 1.0066e-06 -0.0598137)
(3.03428 4.14372e-06 -0.0610829)
(3.04141 -6.7649e-06 -0.0623185)
(3.04762 2.27726e-05 -0.0631119)
(3.05273 -3.12054e-05 -0.064063)
(3.05731 7.06805e-05 -0.0645361)
(3.06018 -7.38301e-05 -0.0654483)
(3.05982 0.000305544 -0.0658969)
(3.05844 0.000814485 -0.0672792)
(3.04357 0.00143106 -0.069311)
(3.01717 0.00410188 -0.0762352)
(2.90363 0.00864772 -0.0871933)
(2.59722 0.0286421 -0.128196)
(1.83995 0.0732706 -0.211972)
(1.04516 0.195159 -0.261065)
(1.00733 0.241948 -0.244466)
(1.06616 0.272247 -0.231198)
(1.11575 0.292239 -0.234141)
(1.11103 0.317222 -0.236456)
(1.07992 0.345214 -0.23721)
(1.022 0.378025 -0.236868)
(0.906089 0.424704 -0.234901)
(0.657191 0.497685 -0.232263)
(0.395203 0.596848 -0.223711)
(3.01561 4.93466e-05 -0.0579141)
(3.02579 -2.29789e-05 -0.05983)
(3.03427 3.00952e-05 -0.0610672)
(3.04142 -4.78206e-05 -0.0623342)
(3.0476 3.78624e-05 -0.0630987)
(3.05276 -8.3908e-05 -0.064073)
(3.05728 0.000100877 -0.064532)
(3.06033 -0.000118149 -0.0654308)
(3.06041 0.000498842 -0.0658901)
(3.05917 0.00151413 -0.0672363)
(3.04526 -0.000620944 -0.0690149)
(3.02105 0.0112772 -0.0757934)
(2.913 -0.00313004 -0.0859066)
(2.62999 0.0603965 -0.125463)
(1.90001 0.0757287 -0.207076)
(1.12602 0.218249 -0.256827)
(1.06529 0.273194 -0.240388)
(1.10921 0.309217 -0.228265)
(1.15029 0.327902 -0.230612)
(1.14557 0.354393 -0.232769)
(1.1187 0.385781 -0.232826)
(1.07045 0.42701 -0.231443)
(0.975919 0.493828 -0.227685)
(0.764266 0.615027 -0.221482)
(0.493542 0.855827 -0.207265)
(2.98855 -1.30235e-07 -0.00143285)
(2.98291 4.98834e-07 -0.0032873)
(2.97953 5.91112e-08 -0.00492939)
(2.97738 1.00284e-06 -0.0064463)
(2.97597 -1.328e-07 -0.00768026)
(2.975 1.08648e-06 -0.00889965)
(2.97417 -6.28512e-08 -0.00973494)
(2.97275 1.60512e-06 -0.0108177)
(2.96796 8.74847e-06 -0.0112668)
(2.95866 2.91189e-05 -0.0121208)
(2.92844 8.30565e-05 -0.0135778)
(2.86233 0.000210562 -0.0163609)
(2.67049 0.000570954 -0.0228927)
(2.06769 0.00163509 -0.0347786)
(0.649115 0.00473164 -0.0637614)
(-0.362864 0.0235808 -0.0643013)
(0.0607098 0.0289333 -0.0611105)
(0.427507 0.0352432 -0.0585269)
(0.490604 0.0472365 -0.0609656)
(0.383579 0.0691126 -0.0612182)
(0.365395 0.0700418 -0.0631198)
(0.267039 0.0569316 -0.0636572)
(0.0680115 0.0497948 -0.0639692)
(0.000912765 0.0381785 -0.0608505)
(0.146456 0.00958666 -0.0545041)
(2.98855 8.91413e-07 -0.00143276)
(2.98291 1.06491e-06 -0.00328743)
(2.97953 9.51142e-07 -0.00492926)
(2.97738 1.78716e-06 -0.00644651)
(2.97597 2.8932e-08 -0.00768011)
(2.975 2.05339e-06 -0.00889963)
(2.97417 2.46131e-08 -0.00973516)
(2.97275 7.49679e-06 -0.0108168)
(2.96798 3.13007e-05 -0.0112689)
(2.95873 0.000108249 -0.0121123)
(2.92858 0.000251925 -0.0136052)
(2.86275 0.000752569 -0.0163194)
(2.67154 0.00173216 -0.0229843)
(2.07145 0.00513154 -0.0347453)
(0.667476 0.0139205 -0.0639637)
(-0.289642 0.0384803 -0.064874)
(0.0905907 0.0589593 -0.060559)
(0.447195 0.0770042 -0.0577102)
(0.516966 0.094386 -0.0603409)
(0.452122 0.124193 -0.0617888)
(0.387897 0.122002 -0.0623627)
(0.27648 0.112618 -0.0620905)
(0.0952286 0.108113 -0.0623928)
(0.00909864 0.104935 -0.0601291)
(0.211237 0.0590713 -0.053729)
(2.98855 4.65835e-06 -0.00143294)
(2.98291 3.97492e-09 -0.00328729)
(2.97954 3.4805e-06 -0.00492926)
(2.97738 -1.15698e-06 -0.00644651)
(2.97597 1.07468e-06 -0.00767979)
(2.975 -5.19477e-07 -0.00890038)
(2.97418 -2.06073e-07 -0.00973378)
(2.97277 1.76828e-05 -0.0108198)
(2.96804 6.50945e-05 -0.0112664)
(2.95885 0.000221453 -0.0121249)
(2.92895 0.000447485 -0.0135724)
(2.86359 0.00146398 -0.016365)
(2.67382 0.00302503 -0.0228724)
(2.07796 0.00916685 -0.0346777)
(0.673349 0.0240057 -0.0638138)
(-0.336805 0.0648273 -0.0641583)
(0.0831085 0.099816 -0.0604384)
(0.446668 0.125193 -0.0573936)
(0.516471 0.138858 -0.0601713)
(0.4614 0.146409 -0.0619075)
(0.393851 0.162362 -0.0619259)
(0.28419 0.175748 -0.0608447)
(0.111642 0.183723 -0.0605366)
(0.00615327 0.184964 -0.0586102)
(0.189321 0.130015 -0.0523853)
(2.98855 8.69683e-06 -0.00143401)
(2.98291 -2.68314e-06 -0.00328557)
(2.97953 8.49764e-06 -0.00493044)
(2.97738 -7.6208e-06 -0.0064448)
(2.97597 9.90294e-06 -0.00768145)
(2.975 -1.22408e-05 -0.00889875)
(2.97419 1.60251e-05 -0.00973512)
(2.97281 2.29074e-05 -0.0108235)
(2.96814 0.000178678 -0.0112733)
(2.95903 0.000248944 -0.0121372)
(2.92956 0.00170275 -0.0136195)
(2.86486 0.00163251 -0.0163479)
(2.67738 0.00696576 -0.0229557)
(2.08811 0.0143272 -0.034531)
(0.705945 0.0333525 -0.0637409)
(-0.257797 0.101855 -0.0647938)
(0.116907 0.144586 -0.0599182)
(0.457621 0.174928 -0.0564599)
(0.508422 0.192505 -0.059405)
(0.413166 0.21197 -0.0606244)
(0.37643 0.230596 -0.0613003)
(0.276414 0.251567 -0.0599425)
(0.117022 0.267674 -0.0590267)
(0.0036029 0.268736 -0.0567838)
(0.169297 0.204557 -0.050646)
(2.98855 -3.9139e-06 -0.00143542)
(2.98291 -1.83806e-06 -0.00328297)
(2.97953 -7.89874e-07 -0.00493339)
(2.97738 -3.18115e-06 -0.00644013)
(2.97597 1.66282e-06 -0.00768897)
(2.97501 -3.80108e-06 -0.00888562)
(2.9742 3.57161e-06 -0.00975653)
(2.97292 1.91903e-05 -0.0107796)
(2.96822 8.37245e-05 -0.0113105)
(2.96006 0.000341252 -0.0122652)
(2.93032 0.000815648 -0.0131078)
(2.86719 0.00258484 -0.0176519)
(2.68308 0.00634975 -0.0203814)
(2.09567 0.0176179 -0.0379787)
(0.707481 0.0518805 -0.061931)
(-0.227841 0.124888 -0.0651892)
(0.138139 0.181926 -0.0596479)
(0.468544 0.221231 -0.0557902)
(0.513753 0.250144 -0.0585461)
(0.440747 0.27772 -0.0603403)
(0.383225 0.301068 -0.0603209)
(0.283618 0.326826 -0.0587669)
(0.132971 0.350223 -0.0573383)
(0.00775028 0.353809 -0.0546562)
(0.1586 0.282564 -0.0485485)
(2.98855 4.29629e-07 -0.00143008)
(2.98291 -2.89375e-06 -0.00329023)
(2.97953 1.22382e-07 -0.00492903)
(2.97738 -5.29218e-06 -0.00644528)
(2.97597 2.14798e-06 -0.00768337)
(2.975 -5.5085e-06 -0.00889384)
(2.97421 8.27977e-06 -0.00974079)
(2.97288 1.19051e-05 -0.0108043)
(2.96843 8.1573e-05 -0.0112379)
(2.95965 0.000403454 -0.0121501)
(2.93138 0.0010019 -0.0136202)
(2.86953 0.00306979 -0.0162752)
(2.68901 0.00853576 -0.0228019)
(2.12452 0.0200977 -0.0335879)
(0.793052 0.0671229 -0.0627168)
(-0.183608 0.161984 -0.0641811)
(0.163783 0.225744 -0.0591659)
(0.481143 0.269422 -0.0549663)
(0.51969 0.306548 -0.0577758)
(0.446109 0.346213 -0.0595526)
(0.390089 0.372429 -0.0593899)
(0.296243 0.402555 -0.0575541)
(0.157518 0.433316 -0.0556221)
(0.02226 0.442854 -0.0523766)
(0.148903 0.373514 -0.0460189)
(2.98855 -3.45892e-06 -0.00143584)
(2.98291 -3.24366e-06 -0.00328174)
(2.97953 -3.57378e-06 -0.00493472)
(2.97738 -3.59757e-06 -0.00643824)
(2.97597 9.37469e-07 -0.00769153)
(2.97501 -2.17747e-06 -0.00888238)
(2.97421 1.18437e-05 -0.00976069)
(2.97298 1.39116e-05 -0.0107728)
(2.96854 0.000104471 -0.011313)
(2.96083 0.000436536 -0.012229)
(2.93248 0.00143119 -0.0130714)
(2.87373 0.00319322 -0.017395)
(2.69665 0.0111855 -0.0200359)
(2.14374 0.0231187 -0.0367689)
(0.832032 0.084614 -0.0604445)
(-0.10753 0.198522 -0.0649768)
(0.20059 0.269613 -0.0587747)
(0.496066 0.317126 -0.0542233)
(0.53025 0.360952 -0.0568411)
(0.461029 0.409468 -0.0586461)
(0.402382 0.442653 -0.058275)
(0.317149 0.479031 -0.0561631)
(0.192529 0.51912 -0.0535902)
(0.0489117 0.539674 -0.0496796)
(0.143309 0.483537 -0.0429671)
(2.98855 -1.79818e-05 -0.00143005)
(2.98291 2.9523e-07 -0.00328975)
(2.97953 -1.23678e-05 -0.00492951)
(2.97738 7.07399e-06 -0.00644504)
(2.97598 -6.37858e-06 -0.00768404)
(2.97501 1.42019e-05 -0.00889324)
(2.97422 -7.11995e-07 -0.00974271)
(2.97296 2.42335e-05 -0.0108004)
(2.96877 4.41625e-05 -0.0112587)
(2.96076 0.00057265 -0.0120863)
(2.93365 0.000587461 -0.0135299)
(2.87799 0.00433603 -0.0159532)
(2.70473 0.0100214 -0.0223735)
(2.18187 0.0287246 -0.0319809)
(0.950691 0.0997126 -0.0613832)
(-0.0249014 0.232641 -0.0644279)
(0.243627 0.311457 -0.0579346)
(0.515123 0.363582 -0.0532824)
(0.54532 0.412662 -0.0558911)
(0.481586 0.467025 -0.0575499)
(0.422541 0.510818 -0.0569437)
(0.347422 0.556337 -0.0547121)
(0.239603 0.608824 -0.0516294)
(0.0921661 0.64802 -0.0469814)
(0.147664 0.621668 -0.0395515)
(2.98855 -2.82148e-06 -0.00142849)
(2.98292 1.80711e-06 -0.0032917)
(2.97954 -1.53727e-06 -0.0049291)
(2.97738 3.4055e-06 -0.00644578)
(2.97598 9.63707e-07 -0.00768423)
(2.97502 3.40116e-06 -0.00889221)
(2.97423 1.20582e-05 -0.00974439)
(2.97301 3.38059e-05 -0.0107934)
(2.96901 0.0001926 -0.0112593)
(2.96134 0.000721347 -0.0120403)
(2.93533 0.00190864 -0.0134943)
(2.88267 0.00519612 -0.015722)
(2.71577 0.013353 -0.0220798)
(2.2213 0.035886 -0.0312443)
(1.05275 0.105547 -0.060699)
(0.0772637 0.267648 -0.0646254)
(0.295704 0.357701 -0.0568723)
(0.536748 0.410717 -0.052168)
(0.563158 0.461939 -0.0547564)
(0.506297 0.520626 -0.056245)
(0.45166 0.575895 -0.0555005)
(0.389284 0.632257 -0.0529784)
(0.302796 0.701419 -0.049379)
(0.161757 0.772347 -0.0439023)
(0.169815 0.802804 -0.0354986)
(2.98855 2.32979e-05 -0.00142883)
(2.98292 5.34795e-06 -0.00329028)
(2.97954 8.80371e-06 -0.00493163)
(2.97738 8.39743e-06 -0.00644041)
(2.97597 -1.22317e-05 -0.00769252)
(2.97502 2.72035e-05 -0.008879)
(2.97424 -4.47298e-05 -0.00976281)
(2.97311 0.000152826 -0.0107679)
(2.96933 8.34845e-05 -0.0112704)
(2.96218 0.00175783 -0.0120865)
(2.93729 -0.000189221 -0.013359)
(2.88792 0.0127863 -0.0158556)
(2.72808 0.00193473 -0.0212801)
(2.2654 0.0616994 -0.0313901)
(1.1533 0.102809 -0.0596264)
(0.192128 0.299784 -0.0644939)
(0.353154 0.408594 -0.0560164)
(0.558033 0.45614 -0.051119)
(0.583186 0.507055 -0.0532117)
(0.536079 0.569713 -0.0547093)
(0.489489 0.635133 -0.0539528)
(0.44388 0.705252 -0.0512742)
(0.387791 0.795625 -0.047118)
(0.273766 0.912334 -0.041103)
(0.224273 1.08591 -0.0317678)
(2.9951 6.04897e-07 1.14557e-06)
(2.98906 2.38949e-07 -7.70173e-07)
(2.98253 6.47678e-07 9.55604e-07)
(2.97637 3.08996e-07 -7.15952e-07)
(2.97073 -1.07e-07 5.93769e-07)
(2.96583 1.25275e-06 -2.86041e-07)
(2.96117 -1.60858e-06 1.50863e-07)
(2.95668 6.02138e-06 1.35004e-06)
(2.94945 -1.11277e-07 3.85637e-06)
(2.93676 6.84899e-05 8.36666e-06)
(2.90012 -4.12866e-05 1.28744e-05)
(2.8215 0.000360674 2.96272e-05)
(2.60231 8.3942e-05 1.78368e-05)
(1.89992 0.000952847 2.5508e-05)
(0.278505 0.00231437 -4.85264e-05)
(-0.806924 0.0134125 0.000561214)
(-0.0922321 0.0253795 -2.88241e-05)
(0.309692 0.0365766 5.06413e-05)
(0.384808 0.0411552 0.000421921)
(0.284262 0.0404472 0.0011445)
(-0.124923 0.0644961 9.20022e-05)
(-0.119625 0.0709165 -0.00028829)
(-0.145547 0.0703419 -0.000369423)
(-0.0939521 0.0710312 -0.00032942)
(0.0910668 0.0588294 -0.000652209)
(2.9951 1.1721e-06 2.45886e-06)
(2.98906 3.86447e-07 -2.5777e-06)
(2.98253 1.14246e-06 2.63414e-06)
(2.97637 6.22092e-07 -3.20943e-06)
(2.97073 2.21286e-07 3.45817e-06)
(2.96583 6.68349e-07 -3.93895e-06)
(2.96117 1.62595e-07 4.61534e-06)
(2.95668 4.60803e-06 1.60153e-06)
(2.9495 2.59979e-05 2.33735e-05)
(2.93673 8.67936e-05 -1.88287e-05)
(2.90033 0.000230593 0.000207169)
(2.82165 0.000625558 -0.000187715)
(2.60292 0.00151232 0.000368865)
(1.90078 0.00433123 -0.000218287)
(0.286307 0.0127912 -0.000776291)
(-0.794636 0.0398121 -0.000406057)
(-0.0777104 0.0711217 0.000262768)
(0.318715 0.0952323 0.000100557)
(0.379463 0.100422 -0.000190709)
(0.259827 0.0942569 -0.000776026)
(-0.164519 0.129011 0.00013605)
(-0.139055 0.147749 0.000385533)
(-0.165287 0.154566 2.13611e-06)
(-0.110721 0.16003 -0.000244511)
(0.0932301 0.139828 -0.000394143)
(2.9951 1.86842e-06 1.91346e-06)
(2.98906 2.87423e-07 -1.9018e-06)
(2.98253 1.60537e-06 2.02801e-06)
(2.97637 1.46757e-07 -2.31321e-06)
(2.97073 7.35078e-08 2.11293e-06)
(2.96583 -6.85557e-08 -2.00458e-06)
(2.96117 4.08497e-07 1.20495e-06)
(2.9567 6.65401e-06 1.71953e-06)
(2.94952 4.28778e-05 3.06682e-06)
(2.93693 0.000159338 8.00521e-06)
(2.90056 0.00041785 2.87999e-06)
(2.82261 0.00119444 3.33179e-05)
(2.60514 0.00288625 -3.41184e-05)
(1.90934 0.0084552 -5.23651e-05)
(0.302977 0.0249701 -0.000295994)
(-0.77374 0.0653544 0.000351491)
(-0.0622101 0.11601 6.44251e-05)
(0.326785 0.154676 -4.01006e-05)
(0.367607 0.168306 -0.000396075)
(0.240559 0.165391 -0.000894752)
(-0.175006 0.211699 0.000137028)
(-0.130919 0.234926 0.000503396)
(-0.165945 0.248432 0.000233256)
(-0.118139 0.258402 -8.54993e-05)
(0.0809744 0.23155 -3.1793e-05)
(2.9951 2.1573e-06 2.43526e-06)
(2.98906 -1.77266e-08 -2.63968e-06)
(2.98253 1.78698e-06 2.90344e-06)
(2.97637 -7.55671e-07 -3.62732e-06)
(2.97073 -6.49525e-07 4.04022e-06)
(2.96583 9.90103e-07 -4.96799e-06)
(2.96118 -2.08305e-06 5.37891e-06)
(2.95671 1.89374e-05 -1.66487e-06)
(2.94963 4.75468e-05 1.73646e-05)
(2.93705 0.000334847 -2.71902e-05)
(2.90117 0.000421345 0.000194989)
(2.82381 0.00224756 -0.000236865)
(2.6085 0.00387681 0.000365633)
(1.91964 0.013034 -0.000320373)
(0.328459 0.0381427 -0.000778602)
(-0.740994 0.101117 -3.94052e-06)
(-0.0438362 0.164666 0.000129454)
(0.336984 0.212796 6.7269e-05)
(0.358779 0.236355 1.83279e-05)
(0.241125 0.23862 0.000326881)
(-0.164181 0.299416 0.000113903)
(-0.112339 0.322154 0.000185934)
(-0.155878 0.341531 0.000188556)
(-0.119095 0.354317 3.15108e-05)
(0.0708714 0.321922 0.000135353)
(2.9951 -2.89352e-07 1.77419e-06)
(2.98906 -4.37963e-07 -1.71896e-06)
(2.98253 -6.93725e-07 1.70779e-06)
(2.97637 -9.57976e-07 -2.10364e-06)
(2.97073 -1.15843e-06 1.81559e-06)
(2.96583 -5.60558e-08 -1.99791e-06)
(2.96119 2.10323e-06 1.00472e-06)
(2.95674 1.78538e-05 -7.49314e-07)
(2.94978 8.94329e-05 -3.88225e-06)
(2.93726 0.000372759 -3.32618e-06)
(2.90207 0.000865487 -1.95873e-05)
(2.82575 0.00278129 -2.68477e-05)
(2.61395 0.00648988 -7.28887e-05)
(1.93747 0.0198637 -0.000148576)
(0.374739 0.0595995 -0.000393514)
(-0.686154 0.145114 -0.000275058)
(-0.0167422 0.216957 0.000143813)
(0.348633 0.270684 0.000117725)
(0.352752 0.303246 -7.25626e-06)
(0.24976 0.314937 -0.000156966)
(-0.136819 0.383402 -6.43299e-06)
(-0.0890259 0.406916 5.0449e-05)
(-0.137955 0.432976 0.000152485)
(-0.115146 0.449331 0.000106902)
(0.0638797 0.413503 0.000226713)
(2.9951 -2.84437e-06 2.85426e-06)
(2.98906 -3.58453e-07 -2.77417e-06)
(2.98253 -2.86039e-06 2.43766e-06)
(2.97637 -6.31734e-07 -3.04119e-06)
(2.97073 -1.14351e-06 3.10301e-06)
(2.96583 -2.73389e-07 -4.0867e-06)
(2.96119 6.04412e-06 5.07037e-06)
(2.95679 1.97676e-05 -3.86977e-06)
(2.94993 0.000112208 1.44743e-05)
(2.9377 0.000473067 -2.88334e-05)
(2.90315 0.00116083 0.000188087)
(2.82879 0.00366951 -0.000257156)
(2.6219 0.00888714 0.00038944)
(1.96666 0.0271312 -0.00034873)
(0.436462 0.0820726 -0.000576542)
(-0.619463 0.184801 0.000291877)
(0.0131363 0.266488 6.46572e-05)
(0.361621 0.326779 2.19262e-05)
(0.352253 0.368536 7.52463e-06)
(0.255466 0.392158 6.60704e-05)
(-0.0894332 0.461688 -4.80171e-05)
(-0.0603999 0.491842 -2.64615e-05)
(-0.11122 0.526202 0.000141563)
(-0.105164 0.54905 0.000160208)
(0.059852 0.514612 0.000286195)
(2.9951 -4.44707e-06 -8.88064e-07)
(2.98906 -5.88462e-07 2.07472e-06)
(2.98253 -4.02834e-06 -2.12693e-06)
(2.97637 -4.36035e-07 3.42884e-06)
(2.97073 -4.71198e-07 -4.35945e-06)
(2.96584 1.06599e-06 5.77133e-06)
(2.9612 8.80712e-06 -7.23271e-06)
(2.95683 2.71257e-05 4.91407e-06)
(2.95016 0.000131588 -1.63054e-05)
(2.93815 0.000608558 1.68438e-05)
(2.90472 0.00135955 -0.000172695)
(2.83258 0.00463054 0.000134787)
(2.63235 0.0108096 -0.000308494)
(2.0036 0.0334585 6.38004e-05)
(0.51799 0.0996506 0.000501881)
(-0.53703 0.222725 -0.000292152)
(0.0442484 0.315275 -8.18026e-05)
(0.375571 0.381589 -4.00261e-05)
(0.356982 0.431769 7.16594e-06)
(0.262727 0.468887 5.81654e-05)
(-0.0298591 0.537734 -5.87166e-05)
(-0.0246627 0.578587 -3.54372e-05)
(-0.073423 0.622982 0.000129904)
(-0.0866558 0.65726 0.000193247)
(0.060143 0.631455 0.000319341)
(2.9951 -5.26929e-06 5.53491e-07)
(2.98906 1.31082e-07 3.2445e-07)
(2.98253 -4.23887e-06 -7.00203e-07)
(2.97637 1.83949e-06 1.47053e-06)
(2.97073 4.06371e-07 -2.06825e-06)
(2.96584 4.90327e-06 2.70949e-06)
(2.96121 1.13847e-05 -2.79979e-06)
(2.95689 3.66233e-05 2.22821e-06)
(2.95042 0.000156725 1.13245e-07)
(2.93875 0.000737089 -3.16462e-06)
(2.90647 0.0015436 -5.48046e-06)
(2.83717 0.00546718 -1.5051e-05)
(2.64472 0.0124655 -7.34907e-06)
(2.04724 0.0388992 -2.59032e-06)
(0.613133 0.113166 9.00122e-05)
(-0.441559 0.261111 3.66787e-05)
(0.0810878 0.364909 -6.01685e-05)
(0.390418 0.435861 -4.5195e-05)
(0.367117 0.492942 -2.0318e-05)
(0.27487 0.543519 -2.22364e-05)
(0.0361136 0.613861 -6.05582e-05)
(0.01944 0.665089 -2.97868e-05)
(-0.0218528 0.724137 0.000121305)
(-0.0554417 0.777247 0.000235265)
(0.0676728 0.772871 0.000338629)
(2.9951 -2.67737e-06 2.20874e-07)
(2.98906 4.6116e-06 2.39007e-07)
(2.98253 -5.20531e-06 -2.44085e-07)
(2.97638 1.12039e-05 6.329e-07)
(2.97073 -9.18776e-06 -6.18517e-07)
(2.96585 2.01493e-05 8.31723e-07)
(2.96123 -2.16768e-07 -6.42149e-07)
(2.95695 5.13407e-05 3.93971e-07)
(2.95075 0.000253339 -1.40881e-07)
(2.93932 0.00073814 -1.35432e-06)
(2.90863 0.0022465 -3.25842e-06)
(2.84226 0.00517855 -4.82793e-06)
(2.65904 0.0159417 -1.3737e-05)
(2.09537 0.0374877 -5.04324e-06)
(0.730466 0.118875 2.20714e-06)
(-0.318304 0.295197 7.42867e-06)
(0.120309 0.415122 -4.17446e-05)
(0.406491 0.488374 -3.68616e-05)
(0.382076 0.55066 -3.67144e-05)
(0.293856 0.613101 -4.20381e-05)
(0.104342 0.688516 -5.68649e-05)
(0.0734977 0.752185 -4.55945e-05)
(0.0476572 0.828422 0.000101179)
(0.00146822 0.90981 0.000277017)
(0.0856106 0.949849 0.000334472)
(2.9951 5.55491e-06 2.06594e-07)
(2.98906 1.16774e-05 1.9373e-07)
(2.98253 -9.68809e-06 2.31964e-07)
(2.97637 3.38285e-05 2.44951e-07)
(2.97074 -4.78485e-05 3.41447e-08)
(2.96585 8.82403e-05 1.48652e-07)
(2.96124 -0.000117121 -2.10231e-07)
(2.9571 0.000268579 -4.90808e-08)
(2.951 -2.69717e-05 -4.6114e-07)
(2.94044 0.00140036 -1.78743e-06)
(2.91015 -0.000317667 -3.56642e-06)
(2.84914 0.012135 -7.47776e-06)
(2.66987 0.00493279 -1.61548e-05)
(2.13487 0.0531515 -1.45553e-05)
(0.840353 0.114278 -1.84297e-05)
(-0.189271 0.327939 2.45859e-06)
(0.161056 0.469286 -1.44428e-05)
(0.419804 0.538853 -2.90354e-05)
(0.399995 0.603336 -3.73611e-05)
(0.320076 0.67536 -4.03192e-05)
(0.175223 0.757942 -4.73399e-05)
(0.142163 0.837168 -3.97558e-05)
(0.137768 0.934362 7.29885e-05)
(0.0988384 1.0554 0.000253072)
(0.125317 1.22371 0.000312019)
(2.98855 6.65071e-06 0.00143476)
(2.98291 -1.82456e-06 0.00328545)
(2.97954 6.13178e-06 0.00493096)
(2.97738 -5.56293e-06 0.00644473)
(2.97597 7.86557e-06 0.00768126)
(2.975 -9.87166e-06 0.00889931)
(2.97418 1.23102e-05 0.0097344)
(2.97277 1.32462e-05 0.0108263)
(2.96801 0.00012112 0.0112786)
(2.95874 -8.73386e-06 0.0121598)
(2.9286 0.00111189 0.0136278)
(2.86241 -0.000192656 0.0164515)
(2.67047 0.00257713 0.0230207)
(2.06478 0.00162991 0.0349994)
(0.653448 -0.0025973 0.063681)
(-0.301493 -0.00989871 0.0654309)
(0.0815076 0.00295307 0.0610685)
(0.444334 0.0122604 0.0583143)
(0.531191 0.00636535 0.0609476)
(0.501142 -0.0203169 0.0625368)
(0.444543 -0.017816 0.0627061)
(0.34629 -0.00177675 0.062393)
(0.193898 0.0181653 0.0617715)
(0.0598675 0.0427409 0.0599545)
(0.193766 0.0526462 0.0537956)
(2.98855 4.76872e-06 0.00143714)
(2.98291 -7.00195e-07 0.00328172)
(2.97953 4.53098e-06 0.00493421)
(2.97738 -2.70033e-06 0.00643964)
(2.97597 3.24781e-06 0.00768855)
(2.97501 -3.61572e-06 0.00888685)
(2.97419 -1.21495e-07 0.00975427)
(2.97287 8.7203e-06 0.0107843)
(2.96799 2.70908e-05 0.0113076)
(2.95952 0.000102017 0.0122962)
(2.92874 0.000192605 0.0130937)
(2.86282 0.000725196 0.0178124)
(2.67154 0.00139645 0.0203843)
(2.05684 0.00421017 0.0387453)
(0.602568 0.0106378 0.0619775)
(-0.407985 0.0319048 0.0643335)
(0.0552093 0.0545581 0.0613024)
(0.425651 0.0699517 0.0586625)
(0.487329 0.0679576 0.0611084)
(0.371894 0.0646282 0.0617385)
(0.360633 0.0700191 0.0633098)
(0.273707 0.0870301 0.0632244)
(0.10026 0.107461 0.0622744)
(0.00362592 0.123433 0.0593156)
(0.165494 0.113811 0.0530239)
(2.98855 4.44303e-06 0.00143581)
(2.98291 -5.16981e-07 0.00328381)
(2.97953 4.27277e-06 0.00493263)
(2.97738 -2.46391e-06 0.00644197)
(2.97597 2.70596e-06 0.00768451)
(2.975 -4.11042e-06 0.0088946)
(2.97419 1.41086e-07 0.00973884)
(2.97279 9.06179e-07 0.0108172)
(2.96809 1.64664e-05 0.0112644)
(2.95888 0.000126898 0.0121801)
(2.92909 0.000283255 0.0136427)
(2.86334 0.00099477 0.0164922)
(2.67308 0.00255479 0.0230763)
(2.0707 0.0078247 0.0349178)
(0.667053 0.022716 0.0633145)
(-0.292513 0.0696435 0.0647371)
(0.0920929 0.0997773 0.0605377)
(0.439065 0.124206 0.0575885)
(0.486656 0.139154 0.0602082)
(0.380338 0.162726 0.0611774)
(0.354725 0.163607 0.0625365)
(0.258008 0.166027 0.0623193)
(0.0678858 0.187053 0.0613893)
(-0.0168269 0.20387 0.0580479)
(0.144134 0.1755 0.0519269)
(2.98855 7.92288e-06 0.00143784)
(2.98291 -2.68668e-06 0.00328061)
(2.97953 6.83756e-06 0.00493548)
(2.97738 -8.19948e-06 0.00643759)
(2.97597 7.84596e-06 0.00769087)
(2.975 -1.41283e-05 0.00888383)
(2.9742 1.30834e-05 0.0097564)
(2.97288 7.43502e-06 0.0107813)
(2.9681 0.000126612 0.0112959)
(2.95975 0.000133994 0.0122707)
(2.92947 0.00144634 0.0130352)
(2.86481 0.000964498 0.0176844)
(2.67706 0.00587931 0.0202186)
(2.07404 0.0120171 0.0383412)
(0.656608 0.0308237 0.0617777)
(-0.29218 0.087845 0.065198)
(0.103646 0.13657 0.060362)
(0.448563 0.172466 0.0570137)
(0.497887 0.197754 0.0595477)
(0.422039 0.223813 0.0613642)
(0.361665 0.235364 0.0614996)
(0.25829 0.243274 0.0606641)
(0.0752335 0.266335 0.0598401)
(-0.0157047 0.282493 0.0564465)
(0.141613 0.236546 0.0503442)
(2.98855 -1.52301e-06 0.0014381)
(2.98291 -7.30832e-07 0.00328002)
(2.97953 -2.13177e-06 0.00493608)
(2.97738 -1.70778e-06 0.00643643)
(2.97597 -1.61271e-06 0.00769248)
(2.97501 -2.38666e-06 0.00888155)
(2.9742 3.42375e-06 0.00975872)
(2.9729 8.87734e-06 0.0107786)
(2.9682 6.13236e-05 0.0112875)
(2.95996 0.000312435 0.012235)
(2.93016 0.000744085 0.0130237)
(2.86667 0.00240378 0.017534)
(2.68227 0.00628981 0.0201845)
(2.08992 0.0173502 0.0381593)
(0.694171 0.0538032 0.0613383)
(-0.261236 0.131547 0.0647464)
(0.124126 0.184351 0.0600283)
(0.457202 0.222174 0.0564411)
(0.498083 0.253382 0.0589221)
(0.414533 0.287893 0.0603893)
(0.365528 0.305638 0.0605146)
(0.264882 0.322007 0.0591794)
(0.0955869 0.348108 0.058086)
(-0.00905327 0.36279 0.0545699)
(0.138899 0.306219 0.048427)
(2.98855 -1.32149e-05 0.00143734)
(2.98291 2.41171e-06 0.00328115)
(2.97953 -1.36182e-05 0.00493505)
(2.97738 8.8782e-06 0.00643789)
(2.97597 -1.49208e-05 0.00769097)
(2.97501 1.73338e-05 0.00888316)
(2.97421 -1.14719e-05 0.0097581)
(2.97293 2.29788e-05 0.0107775)
(2.96835 2.73686e-05 0.0112989)
(2.96032 0.000461586 0.0122416)
(2.93115 0.000238642 0.0130218)
(2.86961 0.00341627 0.0175106)
(2.68884 0.0074319 0.0200654)
(2.11367 0.0209484 0.0374957)
(0.755844 0.0780075 0.0608455)
(-0.179835 0.167875 0.0649374)
(0.161235 0.227181 0.0594521)
(0.474709 0.268336 0.0554335)
(0.510316 0.307712 0.0580498)
(0.434383 0.352023 0.0598606)
(0.374163 0.376515 0.0595128)
(0.279754 0.401096 0.0577695)
(0.127811 0.432098 0.0562623)
(0.0064039 0.449255 0.0525051)
(0.136789 0.390064 0.0461239)
(2.98855 -1.50347e-05 0.00143454)
(2.98291 1.04152e-06 0.00328533)
(2.97953 -1.4721e-05 0.00493077)
(2.97738 8.2589e-06 0.00644476)
(2.97598 -1.37594e-05 0.00768132)
(2.975 1.8311e-05 0.00889898)
(2.97421 -8.91115e-06 0.00973374)
(2.97292 2.60577e-05 0.0108203)