/*--------------------------------*- C++ -*----------------------------------*\
  =========                 |
  \\      /  F ield         | OpenFOAM: The Open Source CFD Toolbox
   \\    /   O peration     | Website:  https://openfoam.org
    \\  /    A nd           | Version:  6
     \\/     M anipulation  |
\*---------------------------------------------------------------------------*/
FoamFile
{
    version     2.0;
    format      ascii;
    class       volScalarField;
    location    "3";
    object      p;
}
// * * * * * * * * * * * * * * * * * * * * * * * * * * * * * * * * * * * * * //

dimensions      [1 -1 -2 0 0 0 0];

internalField   nonuniform List<scalar> 
5250
(
1.00005
1.00026
1.00067
1.00175
1.00378
1.0097
1.02002
1.05432
1.10662
1.31772
1.67907
2.98629
6.44497
14.478
13.5694
12.0198
11.462
11.5317
11.7695
12.0448
12.1934
12.2822
12.3552
12.4148
12.4517
1.00005
1.00026
1.00066
1.00174
1.00376
1.00966
1.01994
1.05409
1.10619
1.31632
1.67611
2.97734
6.41978
14.4224
13.5178
11.9813
11.4437
11.5203
11.765
12.0351
12.1802
12.2699
12.3451
12.4056
12.4449
1.00005
1.00025
1.00066
1.00173
1.00373
1.00957
1.01976
1.05359
1.10526
1.31325
1.66951
2.95696
6.36109
14.2958
13.4134
11.9033
11.3981
11.4827
11.7348
11.9934
12.1315
12.2217
12.2994
12.3611
12.4032
1.00004
1.00025
1.00065
1.0017
1.00368
1.00943
1.01948
1.05279
1.10384
1.30829
1.65895
2.92398
6.26399
14.0963
13.2653
11.7981
11.3282
11.4175
11.6706
11.9132
12.0419
12.1304
12.2081
12.269
12.3122
1.00004
1.00025
1.00064
1.00167
1.0036
1.00924
1.0191
1.05171
1.1017
1.30211
1.64216
2.8864
6.12101
13.825
13.0734
11.6704
11.2371
11.3274
11.5733
11.7993
11.9178
12.002
12.0773
12.1352
12.178
1.00004
1.00024
1.00062
1.00162
1.00351
1.009
1.0186
1.05034
1.09871
1.29483
1.61807
2.846
5.92799
13.4757
12.8269
11.5391
11.1289
11.2133
11.4417
11.6479
11.7543
11.8306
11.9
11.9532
11.9964
1.00004
1.00023
1.0006
1.00157
1.0034
1.0087
1.01798
1.04862
1.09514
1.28536
1.59004
2.79128
5.69633
13.045
12.5246
11.4067
11.004
11.0745
11.273
11.4552
11.5442
11.6046
11.6595
11.7014
11.7435
1.00004
1.00022
1.00057
1.0015
1.00325
1.00833
1.01724
1.04657
1.09074
1.27421
1.5565
2.72569
5.43025
12.5302
12.1645
11.2704
10.864
10.913
11.068
11.2204
11.2833
11.3156
11.3384
11.3486
11.3757
1.00004
1.00021
1.00054
1.00143
1.00309
1.00791
1.01636
1.04416
1.08609
1.25989
1.52444
2.63315
5.14734
11.9272
11.7505
11.1349
10.7107
10.7305
10.8281
10.9402
10.9621
10.9482
10.9054
10.8326
10.7949
1.00004
1.0002
1.00051
1.00134
1.00289
1.0074
1.01533
1.04135
1.08057
1.24328
1.48711
2.52575
4.82633
11.2249
11.3465
10.988
10.5491
10.5214
10.567
10.6169
10.591
10.5001
10.3176
10.0498
9.71269
1.00003
1.00018
1.00047
1.00123
1.00266
1.00681
1.01411
1.03801
1.07389
1.22395
1.44142
2.40218
4.44545
10.3718
11.0727
10.8122
10.3833
10.2869
10.2917
10.2705
10.1757
9.9534
9.55302
8.84154
7.1925
1.00003
1.00016
1.00042
1.00111
1.0024
1.00613
1.01271
1.0341
1.0666
1.20063
1.39003
2.2569
4.01163
9.36022
10.8641
10.6658
10.2454
10.0643
10.0114
9.91512
9.71745
9.35539
8.77708
7.86712
6.22967
1.00003
1.00014
1.00037
1.00097
1.00209
1.00534
1.01107
1.02961
1.05743
1.17598
1.32433
2.1065
3.52912
8.17358
10.7438
10.5672
10.127
9.83741
9.71134
9.55555
9.27984
8.84499
8.20903
7.33343
6.13675
1.00002
1.00012
1.00032
1.00083
1.00179
1.00455
1.00945
1.02505
1.0496
1.14571
1.27567
1.90103
3.04458
6.8065
10.7275
10.5319
10.0152
9.60746
9.41204
9.21511
8.90669
8.45787
7.85232
7.0867
6.15829
1.00002
1.0001
1.00026
1.00069
1.00149
1.00378
1.00788
1.02055
1.0415
1.1161
1.22908
1.69511
2.56795
5.34634
10.5934
10.4245
9.90674
9.38963
9.13144
8.91086
8.60038
8.169
7.62101
6.96291
6.20801
1.00002
1.00008
1.00022
1.00057
1.00124
1.00314
1.00655
1.01707
1.03448
1.09644
1.18872
1.57573
2.2897
4.70352
9.96162
10.0574
9.74678
9.17558
8.87075
8.63985
8.34248
7.94165
7.44984
6.88105
6.24965
1.00001
1.00007
1.00018
1.00047
1.00102
1.00257
1.00536
1.01398
1.02814
1.07992
1.14855
1.48419
2.01758
4.08134
8.6181
9.57679
9.41227
9.01264
8.66262
8.40938
8.12453
7.75461
7.31147
6.81229
6.26736
1.00001
1.00006
1.00014
1.00038
1.00082
1.00206
1.0043
1.0112
1.02249
1.06388
1.11713
1.38709
1.77719
3.41296
7.01868
9.30364
9.21792
8.9276
8.52552
8.2323
7.94535
7.60346
7.20326
6.75614
6.27522
1.00001
1.00004
1.00011
1.00029
1.00064
1.0016
1.00334
1.00862
1.01742
1.04836
1.08972
1.28735
1.56427
2.73179
5.20799
9.06385
9.10381
8.9002
8.47291
8.10664
7.79973
7.47486
7.10873
6.70608
6.27688
1.00001
1.00003
1.00009
1.00022
1.00049
1.00122
1.00255
1.00654
1.01333
1.03597
1.0697
1.20936
1.40284
2.28354
3.94495
8.34073
8.94848
8.8022
8.43644
8.00268
7.67209
7.36142
7.02562
6.66148
6.27579
1
1.00002
1.00006
1.00017
1.00036
1.00091
1.00189
1.00484
1.00979
1.02679
1.04942
1.16053
1.27781
1.98448
3.13728
6.75287
8.65142
8.59317
8.36121
7.90972
7.55887
7.25779
6.94937
6.61926
6.27191
1
1.00002
1.00005
1.00012
1.00027
1.00067
1.00141
1.00358
1.0073
1.01939
1.03821
1.11038
1.20798
1.65898
2.43222
4.8282
8.26655
8.43336
8.27728
7.90477
7.49869
7.18088
6.88736
6.58315
6.26424
1
1.00001
1.00003
1.00009
1.00019
1.00048
1.00101
1.00256
1.00524
1.01379
1.02731
1.07711
1.14728
1.45044
1.9688
3.69044
7.28442
8.22704
8.13915
7.87991
7.4776
7.13353
6.84109
6.55738
6.26441
1
1.00001
1.00002
1.00006
1.00014
1.00034
1.00071
1.00179
1.00365
1.00957
1.01878
1.05394
1.09602
1.32278
1.60967
2.9146
5.51147
7.86238
7.93039
7.80758
7.49798
7.12729
6.81596
6.53728
6.26364
1
1.00001
1.00002
1.00004
1.00009
1.00023
1.00048
1.00122
1.00249
1.00645
1.01289
1.03519
1.06709
1.20221
1.38753
2.19339
3.61765
7.13449
7.79777
7.72331
7.50664
7.1423
6.81764
6.53351
6.26542
1
1
1.00001
1.00003
1.00007
1.00014
1.00035
1.00073
1.00184
1.00372
1.00982
1.01895
1.05557
1.09746
1.32835
1.63123
2.90259
5.42102
7.45567
7.57262
7.47142
7.20321
6.83429
6.53803
6.27175
1
1
1.00001
1.00002
1.00004
1.00009
1.00023
1.00048
1.00121
1.00245
1.00637
1.0126
1.0346
1.06567
1.19628
1.38295
2.13312
3.5037
6.72491
7.43281
7.38771
7.21774
6.87614
6.55759
6.28728
1
1
1
1.00001
1.00003
1.00006
1.00014
1.0003
1.00074
1.0015
1.00389
1.00739
1.02173
1.03575
1.13181
1.20065
1.78749
2.53459
5.05208
7.05552
7.2457
7.16656
6.95083
6.60476
6.31782
1
1
1
1.00001
1.00002
1.00004
1.00009
1.00019
1.00048
1.00097
1.00252
1.00502
1.01355
1.02603
1.07547
1.14454
1.43272
1.90277
3.37585
6.1386
7.03453
7.02979
6.93049
6.69918
6.37914
1
1
1
1
1.00001
1.00002
1.00005
1.00012
1.00025
1.00062
1.00121
1.00327
1.00582
1.01871
1.02862
1.1144
1.1696
1.66997
2.27968
4.39105
6.52838
6.90012
6.859
6.71576
6.43125
1
1
1
1
1.00001
1.00001
1.00003
1.00006
1.00016
1.00032
1.00081
1.00154
1.00439
1.00728
1.02585
1.03772
1.15754
1.23858
1.89907
2.79025
5.38085
6.61224
6.74148
6.68256
6.52275
1
1
1
1
1
1.00001
1.00002
1.00004
1.0001
1.0002
1.00051
1.00102
1.00269
1.00522
1.01454
1.02663
1.08272
1.14351
1.47089
1.92663
3.34711
5.87977
6.56596
6.5875
6.51624
1
1
1
1
1
1
1.00001
1.00002
1.00006
1.00012
1.0003
1.00059
1.00154
1.00301
1.00821
1.0152
1.04561
1.07965
1.25981
1.49656
2.42983
4.21552
6.0411
6.457
6.44993
1
1
1
1
1
1
1.00001
1.00001
1.00003
1.00006
1.00016
1.00031
1.00079
1.00151
1.00421
1.00707
1.02423
1.03375
1.14982
1.20796
1.82634
2.5674
4.83937
6.09201
6.33034
1
1
1
1
1
1
1
1.00001
1.00002
1.00004
1.00009
1.00018
1.00045
1.00089
1.00236
1.00446
1.01274
1.02258
1.07169
1.12347
1.40222
1.7667
2.98848
5.12793
6.03639
1
1
1
1
1
1
1
1
1.00001
1.00002
1.00004
1.00009
1.00018
1.00047
1.00084
1.00249
1.00386
1.01443
1.01933
1.0881
1.11973
1.49793
1.84765
3.24202
5.30067
1
1
1
1
1
1
1
1
1
1.00001
1.00002
1.00003
1.00008
1.00013
1.00039
1.00053
1.00206
1.00228
1.014
1.01405
1.10431
1.11646
1.62361
1.95935
3.643
1
1
1
1
1
1
1
1
1
1
1.00001
1.00002
1.00005
1.0001
1.00027
1.00051
1.00145
1.00262
1.00813
1.0136
1.04726
1.07454
1.26934
1.46665
2.34798
1
1
1
1
1
1
1
1
1
1
1
1.00001
1.00002
1.00006
1.00011
1.0003
1.00056
1.00163
1.0028
1.00908
1.01434
1.05224
1.08043
1.29235
1.49827
1
1
1
1
1
1
1
1
1
1
1
1.00001
1.00001
1.00002
1.00006
1.00012
1.00033
1.00059
1.00176
1.00287
1.00987
1.01452
1.05678
1.08315
1.30938
1
1
1
1
1
1
1
1
1
1
1
1
1
1.00001
1.00002
1.00006
1.00008
1.00029
1.00044
1.00148
1.00206
1.00966
1.01089
1.06157
1.07289
1
1
1
1
1
1
1
1
1
1
1
1
1
1
1.00001
1.00001
1.00005
1.00006
1.00026
1.00039
1.00139
1.00178
1.00964
1.01154
1.06046
1
1
1
1
1
1
1
1
1
1
1
1
1
1
1
1.00001
1.00001
1.00004
1.00006
1.00024
1.00039
1.00121
1.00183
1.00877
1.01024
1
1
1
1
1
1
1
1
1
1
1
1
1
1
1
1
1.00001
1.00001
1.00004
1.00005
1.00025
1.00042
1.00121
1.00168
1.00812
1
1
1
1
1
1
1
1
1
1
1
1
1
1
1
1
1
1
1.00002
1.00002
1.00009
1.0001
1.00056
1.00071
1.0039
1
1
1
1
1
1
1
1
1
1
1
1
1
1
1
1
1
1
1.00001
1.00001
1.00005
1.00007
1.00036
1.00064
1.00238
1
1
1
1
1
1
1
1
1
1
1
1
1
1
1
1
1
1
1.00001
1.00001
1.00008
1.0002
1.00029
1.00033
1.00312
1
1
1
1
1
1
1
1
1
1
1
1
1
1
1
1
1
1
1.00001
1.00001
1.00004
1.00007
1.00031
1.00036
1.00303
1
1
1
1
1
1
1
1
1
1
1
1
1
1
1
1
1
1
1
1.00001
1.00003
1.00011
1.00013
1.00084
1.0013
1
1
1
1
1
1
1
1
1
1
1
1
1
1
1
1
1
1
1.00001
1.00001
1.00006
1.00015
1.0002
1.00021
1.00195
3.57181
1.94826
1.25182
0.920125
0.752504
0.69442
0.701636
0.731689
0.809392
0.975773
1.14318
1.24065
1.27361
1.27356
1.27264
1.27349
1.27688
1.28494
1.29996
1.31392
1.32481
1.33295
1.33928
1.34458
1.34943
1.35446
1.36075
1.37191
1.39492
1.4432
1.5463
1.76772
2.24877
3.22427
3.66882
3.66588
3.64825
3.62192
3.60311
3.59705
3.60616
3.63963
3.70257
3.79718
3.92149
4.06727
4.21591
4.34629
4.45025
4.53149
4.59727
4.64852
4.6766
4.68732
4.68613
4.67991
4.66445
4.63731
4.60525
4.57083
4.53307
4.493
4.45011
4.40542
4.35826
4.30944
4.25825
4.20559
4.15105
4.09559
4.03904
3.98209
3.92455
3.86676
3.80844
3.74978
3.6905
3.63076
3.57042
3.50965
3.44846
3.38705
3.32554
3.26408
3.20286
3.1419
3.08145
3.02137
2.96201
2.90309
2.84508
2.78766
2.73142
2.67587
2.6218
2.56885
2.51834
2.47092
2.42933
2.40316
4.00947
2.53543
1.7582
1.36476
1.18641
1.13587
1.13691
1.13651
1.13009
1.11352
1.11834
1.13436
1.16907
1.21458
1.25603
1.28517
1.30151
1.31016
1.3163
1.32195
1.32769
1.33363
1.33947
1.34495
1.34997
1.35475
1.36012
1.3686
1.38821
1.42494
1.51562
1.69885
2.1296
3.0399
3.66519
3.67646
3.64314
3.60797
3.59842
3.59972
3.60932
3.63262
3.68426
3.76933
3.88598
4.0309
4.18437
4.31944
4.42847
4.5138
4.58044
4.63088
4.66046
4.6729
4.67249
4.66824
4.65585
4.63031
4.59813
4.56385
4.52673
4.48715
4.44471
4.40007
4.35306
4.30415
4.25319
4.20059
4.14639
4.09106
4.03478
3.97792
3.92053
3.86277
3.80456
3.74593
3.68677
3.62709
3.5669
3.50622
3.44522
3.38392
3.32262
3.26127
3.20025
3.13941
3.07915
3.01919
2.96003
2.90122
2.84342
2.78609
2.73003
2.67453
2.62062
2.56765
2.51704
2.46935
2.42692
2.39968
4.74118
3.59592
2.78287
2.23875
1.85957
1.58754
1.39137
1.2524
1.15712
1.08776
1.06484
1.06864
1.08266
1.11438
1.16817
1.21427
1.25291
1.28042
1.29803
1.30982
1.31879
1.32598
1.33202
1.33727
1.34193
1.34638
1.35095
1.3575
1.37034
1.39919
1.45716
1.59356
1.88331
2.5426
3.52579
3.6605
3.64477
3.61067
3.60635
3.61405
3.63385
3.66687
3.72048
3.79577
3.89589
4.02069
4.15207
4.27879
4.38936
4.47935
4.54912
4.6007
4.63324
4.64898
4.65057
4.64818
4.63977
4.62036
4.58896
4.55468
4.5183
4.47962
4.43807
4.39385
4.34713
4.29829
4.24754
4.19515
4.14129
4.08625
4.03025
3.97356
3.9163
3.85859
3.80044
3.7418
3.6827
3.62303
3.56294
3.50233
3.44147
3.38029
3.31916
3.25797
3.19713
3.13646
3.07637
3.01657
2.9576
2.899
2.84158
2.78446
2.72864
2.6732
2.61934
2.56634
2.5155
2.46751
2.42412
2.39475
5.14622
4.20876
3.43113
2.82088
2.35015
1.99103
1.72321
1.52448
1.38036
1.28536
1.22308
1.18554
1.16724
1.16829
1.17387
1.18778
1.21582
1.24528
1.27326
1.30026
1.32207
1.33705
1.34651
1.35196
1.35495
1.35691
1.3586
1.36213
1.36899
1.38694
1.41846
1.51199
1.68582
2.12635
3.05891
3.57245
3.65328
3.65242
3.66498
3.70295
3.77071
3.83306
3.87822
3.918
3.96754
4.03154
4.11262
4.20443
4.31302
4.4136
4.49426
4.55334
4.59202
4.61282
4.61912
4.61795
4.61312
4.60073
4.57491
4.54049
4.50408
4.46589
4.42518
4.38161
4.33543
4.28698
4.23663
4.18464
4.13124
4.07662
4.02101
3.96461
3.90761
3.85004
3.79205
3.73352
3.67458
3.61505
3.55517
3.49477
3.4342
3.3733
3.31253
3.25166
3.1912
3.13083
3.07119
3.01187
2.95341
2.89521
2.83815
2.78128
2.72555
2.67044
2.61641
2.56375
2.51249
2.46443
2.42011
2.38823
5.39908
4.60828
3.9008
3.30235
2.81237
2.4198
2.10978
1.8664
1.67564
1.52669
1.41087
1.32277
1.25773
1.21446
1.18597
1.1824
1.18539
1.1945
1.21411
1.23879
1.26203
1.28668
1.30754
1.32345
1.33492
1.3425
1.3475
1.35075
1.3558
1.36427
1.38842
1.4319
1.54815
1.77745
2.30206
3.27531
3.61238
3.71789
3.79526
3.91807
4.05798
4.12903
4.14232
4.13632
4.11534
4.08704
4.09674
4.13162
4.20637
4.31179
4.41073
4.48677
4.53783
4.56778
4.58054
4.58094
4.57889
4.57184
4.55513
4.52297
4.48668
4.44856
4.40839
4.36561
4.32028
4.27264
4.22306
4.1718
4.11912
4.06512
4.01006
3.9541
3.89748
3.84017
3.78241
3.72403
3.66526
3.6059
3.54624
3.48608
3.42584
3.36526
3.3049
3.24439
3.18449
3.12469
3.06565
3.0068
2.94866
2.89099
2.83398
2.77765
2.72175
2.66741
2.61294
2.56101
2.5092
2.46128
2.41615
2.38211
5.57288
4.89686
4.26603
3.70561
3.22448
2.81984
2.48444
2.20813
1.98159
1.79626
1.6452
1.52278
1.42459
1.34831
1.29068
1.2512
1.22586
1.21514
1.21624
1.22091
1.23184
1.25094
1.27156
1.29381
1.31571
1.33353
1.34668
1.3555
1.36107
1.36702
1.37762
1.40598
1.45851
1.59772
1.87884
2.53912
3.40388
3.71473
3.98661
4.26833
4.48289
4.53301
4.51758
4.45746
4.31921
4.1687
4.10288
4.10847
4.13431
4.19453
4.29882
4.39381
4.46366
4.5093
4.53299
4.54062
4.5396
4.5353
4.52417
4.50032
4.46502
4.42691
4.38698
4.34484
4.30037
4.25373
4.20518
4.15491
4.10309
4.04989
3.99553
3.94005
3.88384
3.82683
3.76936
3.71122
3.65271
3.59359
3.53425
3.47443
3.41462
3.35454
3.29481
3.23509
3.17588
3.11671
3.05815
2.99978
2.94206
2.88482
2.82822
2.77248
2.71644
2.66321
2.608
2.55741
2.50454
2.45743
2.41136
2.37588
5.69046
5.1078
4.5488
4.03398
3.57455
3.17301
2.82744
2.5327
2.28299
2.07222
1.89484
1.74595
1.6214
1.51773
1.43193
1.3628
1.30936
1.26997
1.24451
1.22822
1.22836
1.23079
1.23758
1.25179
1.26887
1.28772
1.3075
1.32455
1.33786
1.34857
1.35716
1.37375
1.40337
1.48491
1.63595
2.0212
2.82752
3.60088
4.21409
4.795
5.05229
5.04521
4.98475
4.81921
4.52321
4.29033
4.15258
4.10473
4.10906
4.12976
4.17972
4.27348
4.3589
4.42463
4.46759
4.48925
4.49205
4.49001
4.4833
4.46785
4.43704
4.40004
4.36046
4.31899
4.27563
4.23036
4.18327
4.13435
4.08379
4.03163
3.97816
3.92343
3.86783
3.81135
3.75429
3.69653
3.63837
3.57964
3.52071
3.4614
3.40226
3.34303
3.28409
3.22509
3.16646
3.10789
3.04983
2.99205
2.93481
2.87818
2.82204
2.76665
2.71157
2.65801
2.60351
2.55292
2.50002
2.45303
2.40684
2.36998
5.77328
5.26435
4.76743
4.29802
3.86655
3.47807
3.1336
2.83158
2.56872
2.34127
2.14501
1.97621
1.8312
1.70702
1.60093
1.51093
1.43529
1.3731
1.32422
1.2868
1.26194
1.2453
1.24126
1.2426
1.24706
1.25684
1.272
1.28895
1.30799
1.32579
1.34122
1.3558
1.37651
1.42171
1.51542
1.73134
2.1994
3.20152
4.3329
5.53442
5.71083
5.65102
5.47043
5.0998
4.72861
4.44473
4.25327
4.14418
4.10251
4.10414
4.11756
4.15468
4.23037
4.30663
4.37059
4.41297
4.43213
4.43294
4.43031
4.42186
4.4027
4.36895
4.33016
4.28925
4.24686
4.20301
4.15756
4.11027
4.06118
4.0103
3.9579
3.9041
3.84925
3.7934
3.73684
3.67954
3.62177
3.5635
3.50519
3.44673
3.38841
3.32996
3.27171
3.2134
3.15539
3.0975
3.04004
2.98294
2.92628
2.87024
2.81464
2.75974
2.70528
2.65185
2.59824
2.54726
2.49489
2.44761
2.4018
2.36377
5.83298
5.38241
4.93758
4.50995
4.10819
3.73794
3.40177
3.10013
2.83173
2.5945
2.38569
2.20255
2.04219
1.90214
1.77995
1.67368
1.58154
1.50215
1.43443
1.37786
1.33233
1.2971
1.27225
1.25598
1.24866
1.24935
1.25238
1.25926
1.27262
1.28736
1.30494
1.32386
1.34548
1.37725
1.44733
1.59061
1.92328
2.65236
4.24887
6.27136
6.31744
6.19224
5.86795
5.37193
4.94881
4.62748
4.39389
4.23475
4.13831
4.09457
4.09061
4.0963
4.11974
4.17137
4.23982
4.29927
4.34009
4.36113
4.36309
4.3604
4.35147
4.3312
4.29631
4.25637
4.21471
4.17195
4.128
4.0824
4.03498
3.98568
3.93467
3.88206
3.82818
3.77311
3.71718
3.66042
3.60327
3.54584
3.48842
3.43084
3.37331
3.31563
3.2581
3.20055
3.14327
3.08615
3.0294
2.97303
2.91704
2.86165
2.80664
2.7523
2.69839
2.64524
2.59241
2.54118
2.48952
2.44173
2.39633
2.35748
5.87684
5.4726
5.07107
4.68048
4.30782
3.95821
3.63476
3.33895
3.07077
2.82942
2.61324
2.42051
2.24902
2.09692
1.96208
1.8429
1.7376
1.64495
1.56365
1.49283
1.4317
1.38011
1.33786
1.30485
1.28047
1.26457
1.25557
1.2559
1.25854
1.26366
1.27651
1.29354
1.31724
1.34929
1.41415
1.54466
1.83359
2.4518
3.82222
6.55174
6.74878
6.59611
6.22416
5.70711
5.24171
4.87112
4.58959
4.38134
4.23293
4.13579
4.08424
4.0674
4.06753
4.07701
4.10441
4.1606
4.21426
4.25702
4.28034
4.28533
4.28303
4.27481
4.25576
4.22076
4.1807
4.13871
4.09562
4.05125
4.00538
3.95777
3.90841
3.85725
3.80454
3.7504
3.6952
3.63924
3.58305
3.5266
3.47009
3.41337
3.35667
3.29983
3.24311
3.18639
3.1299
3.07359
3.01759
2.96198
2.90669
2.85198
2.79761
2.74385
2.69051
2.63776
2.58557
2.53432
2.48344
2.43507
2.39055
2.35033
5.91101
5.54392
5.17773
4.81891
4.47276
4.14372
3.83479
3.54799
3.28392
3.0427
2.8234
2.62512
2.44625
2.28549
2.14115
2.01187
1.89615
1.79279
1.70062
1.61865
1.5461
1.48226
1.42664
1.3792
1.33986
1.30873
1.28529
1.26961
1.26263
1.26368
1.26772
1.27924
1.30134
1.34184
1.41897
1.56774
1.87529
2.50159
3.51842
5.58409
6.60949
6.58004
6.41877
6.05838
5.60957
5.17753
4.84253
4.58185
4.3808
4.23257
4.13002
4.06602
4.03952
4.02383
4.02719
4.0421
4.07587
4.12492
4.16604
4.19165
4.201
4.1994
4.19262
4.17622
4.14306
4.10392
4.06134
4.01727
3.97233
3.92621
3.87862
3.82916
3.77793
3.72495
3.6709
3.61616
3.56112
3.5057
3.45018
3.39439
3.33862
3.2827
3.2269
3.17107
3.11546
3.06001
3.00482
2.95003
2.89549
2.84151
2.78782
2.73469
2.68191
2.62967
2.57798
2.52691
2.47681
2.42781
2.3845
2.34266
5.9353
5.60051
5.26509
4.93394
4.61155
4.30191
4.0078
3.73137
3.47369
3.23525
3.0159
2.815
2.63181
2.46511
2.31395
2.17692
2.05312
1.94114
1.84027
1.74923
1.66756
1.59418
1.52885
1.47082
1.41989
1.37633
1.33935
1.31164
1.28895
1.28468
1.28703
1.29928
1.31955
1.37737
1.48436
1.71324
2.16363
2.848
3.40483
4.21139
5.3977
6.17025
6.26536
6.18052
5.9364
5.53663
5.16758
4.85352
4.59181
4.38831
4.23443
4.12136
4.0445
4.00255
3.97631
3.96901
3.97465
3.99279
4.03071
4.06869
4.09748
4.11118
4.11046
4.10568
4.0926
4.06494
4.02582
3.98201
3.93722
3.89185
3.84561
3.79775
3.74811
3.69672
3.64433
3.59105
3.53733
3.48308
3.42867
3.37393
3.31921
3.26428
3.20948
3.15459
3.09992
3.04536
2.99104
2.93709
2.88333
2.83012
2.77712
2.72466
2.67244
2.62077
2.56953
2.51874
2.46936
2.41984
2.37776
2.33452
5.96079
5.65055
5.33892
5.0312
4.7298
4.43797
4.1584
3.89295
3.64305
3.40927
3.192
2.99087
2.80561
2.63533
2.47942
2.33674
2.20664
2.08783
1.97985
1.88137
1.79211
1.71089
1.63754
1.57124
1.51162
1.45901
1.41157
1.37433
1.33968
1.33326
1.33728
1.35034
1.39258
1.47371
1.66366
2.03749
2.61031
3.05338
3.3153
3.61862
4.12247
4.88181
5.67975
5.97467
5.93888
5.79577
5.49122
5.18723
4.8628
4.61013
4.39814
4.23272
4.10809
4.01773
3.96145
3.92804
3.90489
3.90636
3.91511
3.9358
3.9715
4.00014
4.0168
4.01821
4.01537
4.00569
3.98373
3.94488
3.90138
3.85611
3.81023
3.76326
3.71507
3.66555
3.6151
3.5636
3.51147
3.45862
3.40551
3.35197
3.29841
3.24456
3.19084
3.13696
3.08328
3.02965
2.97625
2.92314
2.87021
2.81778
2.76547
2.71371
2.66207
2.61097
2.56022
2.5098
2.46093
2.41122
2.37014
2.32587
5.98066
5.69217
5.40301
5.11492
4.8317
4.55599
4.2901
4.03567
3.79406
3.56608
3.35225
3.15256
2.96699
2.79488
2.63603
2.48932
2.35457
2.23042
2.11673
2.01218
1.91661
1.82893
1.74888
1.67584
1.60924
1.5496
1.49533
1.45151
1.41261
1.41305
1.42333
1.44382
1.52673
1.67074
2.002
2.54862
2.95966
3.16936
3.27462
3.37854
3.5585
3.87128
4.36684
5.09916
5.60391
5.67729
5.62117
5.45656
5.16458
4.91252
4.63664
4.41823
4.23683
4.09729
3.99256
3.92023
3.877
3.84499
3.83133
3.83442
3.84605
3.87126
3.89921
3.91804
3.92461
3.92281
3.91557
3.89812
3.86267
3.82003
3.77419
3.72713
3.67971
3.63172
3.5832
3.53366
3.48341
3.43226
3.3807
3.32855
3.27628
3.22361
3.171
3.11818
3.06552
3.01285
2.96037
2.90816
2.85606
2.80443
2.75284
2.70177
2.65075
2.60021
2.55003
2.49993
2.45167
2.40193
2.36145
2.31658
5.99831
5.72813
5.45673
5.18705
4.92079
4.66023
4.40714
4.16338
3.93024
3.70858
3.49911
3.3019
3.11726
2.94466
2.7841
2.63482
2.49649
2.36843
2.24995
2.14068
2.03964
1.94674
1.86093
1.78236
1.7102
1.64485
1.5876
1.53839
1.51668
1.52127
1.54825
1.59989
1.75172
2.04451
2.5832
2.98653
3.17323
3.23881
3.26206
3.28079
3.32878
3.4327
3.63434
3.98385
4.53983
5.13849
5.43943
5.42274
5.33984
5.14786
4.90647
4.67025
4.43323
4.24431
4.08758
3.96815
3.88036
3.82358
3.78472
3.75724
3.75617
3.76089
3.77393
3.79986
3.81866
3.82911
3.82818
3.82305
3.8093
3.78016
3.73819
3.69129
3.6439
3.59655
3.54933
3.5015
3.45314
3.40386
3.3541
3.30357
3.25276
3.20141
3.15
3.09829
3.04666
2.99502
2.94345
2.89216
2.84089
2.79007
2.73921
2.68884
2.63848
2.58849
2.53893
2.48921
2.44155
2.39199
2.35194
2.30675
6.01669
5.76282
5.50811
5.25352
5.00188
4.75427
4.51243
4.27835
4.05339
3.83823
3.63363
3.43975
3.25688
3.08493
2.92366
2.77294
2.63211
2.50109
2.37897
2.26569
2.16039
2.06286
1.97257
1.88932
1.81296
1.7449
1.68615
1.64824
1.65085
1.67412
1.71901
1.86651
2.14749
2.69107
3.09952
3.27067
3.302
3.29538
3.27509
3.24023
3.24211
3.26388
3.32514
3.45617
3.70295
4.06934
4.59944
5.03895
5.19933
5.17376
5.0807
4.88015
4.66899
4.45679
4.24881
4.08417
3.94807
3.84503
3.77277
3.72658
3.69119
3.674
3.6758
3.68319
3.69958
3.71956
3.73237
3.73215
3.72902
3.71892
3.69608
3.65474
3.60869
3.56158
3.5148
3.46791
3.42098
3.37345
3.32554
3.2768
3.22764
3.17775
3.12765
3.07713
3.02656
2.97596
2.92533
2.87499
2.82457
2.7746
2.72451
2.67484
2.6252
2.57577
2.5269
2.4776
2.43056
2.38131
2.34163
2.29634
6.04058
5.79795
5.5556
5.31416
5.07431
4.83862
4.60844
4.38362
4.16636
3.95747
3.75774
3.56746
3.38693
3.21613
3.05506
2.90349
2.76119
2.62786
2.50311
2.38657
2.27791
2.17671
2.0829
1.99639
1.91819
1.85118
1.80052
1.80176
1.82317
1.86222
2.01934
2.29915
2.86667
3.27666
3.44077
3.43851
3.42005
3.37556
3.29391
3.23134
3.20853
3.20345
3.21318
3.24897
3.33135
3.48113
3.7263
4.09597
4.5456
4.87606
4.95553
4.92666
4.83272
4.63699
4.45264
4.26495
4.07974
3.93503
3.81634
3.72669
3.66809
3.62674
3.59789
3.59188
3.59474
3.60329
3.62064
3.6327
3.63625
3.63427
3.62679
3.60851
3.57119
3.52687
3.48064
3.43396
3.38766
3.3413
3.29498
3.24799
3.2006
3.15235
3.10372
3.05453
3.00514
2.95562
2.90599
2.8566
2.80707
2.75794
2.70866
2.6597
2.61082
2.56198
2.51384
2.46507
2.41869
2.36985
2.33066
2.28531
6.06857
5.8337
5.60246
5.37199
5.14171
4.91482
4.69402
4.47979
4.27061
4.06816
3.87341
3.68687
3.50887
3.33961
3.17906
3.0273
2.88397
2.74914
2.6223
2.50339
2.39211
2.28828
2.19244
2.10461
2.03051
1.97004
1.9708
1.99108
2.03406
2.19606
2.49494
3.10059
3.51588
3.65238
3.64389
3.60799
3.52756
3.42047
3.32912
3.25927
3.20771
3.18452
3.17456
3.17611
3.18833
3.22749
3.31333
3.46431
3.68605
4.03698
4.41176
4.67518
4.71488
4.68525
4.59894
4.41944
4.2535
4.09047
3.92341
3.79457
3.69097
3.61482
3.56588
3.52948
3.50728
3.50814
3.51219
3.52088
3.53451
3.53983
3.53862
3.53309
3.51849
3.4878
3.44595
3.40028
3.35435
3.3085
3.26314
3.21748
3.17167
3.12505
3.078
3.03025
2.98216
2.93381
2.88525
2.83685
2.78826
2.73998
2.69157
2.64335
2.59529
2.5471
2.49972
2.45156
2.40587
2.35756
2.31887
2.27367
6.10821
5.87052
5.64578
5.42527
5.20793
4.99254
4.77877
4.56943
4.36695
4.17057
3.98116
3.79848
3.62337
3.45588
3.29636
3.14475
3.0011
2.86523
2.73715
2.6166
2.50376
2.399
2.30315
2.22141
2.15545
2.1553
2.16959
2.24283
2.38155
2.7399
3.39395
3.79799
3.9048
3.89082
3.83744
3.72223
3.59145
3.48155
3.39404
3.32223
3.26162
3.21073
3.16958
3.15194
3.13307
3.13282
3.14249
3.17804
3.25735
3.40223
3.60214
3.92211
4.23567
4.45833
4.48489
4.45791
4.3813
4.22186
4.07003
3.92665
3.77612
3.66065
3.57089
3.50704
3.46392
3.43301
3.42011
3.42139
3.42601
3.43568
3.44282
3.44232
3.43865
3.42771
3.40372
3.3645
3.3209
3.27576
3.23084
3.18586
3.14112
3.09585
3.05029
3.00403
2.95736
2.91033
2.86298
2.81566
2.76813
2.72077
2.67331
2.6259
2.57871
2.53127
2.48472
2.43726
2.39231
2.34467
2.30626
2.26167
6.15059
5.90951
5.69007
5.47833
5.26959
5.06255
4.85826
4.65706
4.46026
4.26911
4.08256
3.90319
3.73063
3.56527
3.40697
3.25611
3.11256
2.97649
2.8479
2.72695
2.61445
2.51121
2.42404
2.35415
2.35568
2.3805
2.44164
2.64068
3.02906
3.72866
4.11944
4.18345
4.16093
4.08611
3.93237
3.78823
3.66716
3.56791
3.48352
3.40798
3.33777
3.27214
3.21212
3.15909
3.12065
3.09632
3.07236
3.06529
3.07323
3.10395
3.17441
3.3078
3.49051
3.77261
4.04355
4.24007
4.26744
4.24463
4.17955
4.04137
3.89866
3.76969
3.6361
3.5328
3.45566
3.40095
3.36134
3.33557
3.33188
3.33349
3.33818
3.34665
3.3465
3.34414
3.33638
3.31833
3.28289
3.24172
3.19812
3.15366
3.10948
3.06507
3.02067
2.97577
2.93054
2.88491
2.83892
2.79283
2.74646
2.70011
2.65368
2.60715
2.56091
2.5143
2.46863
2.422
2.37785
2.33099
2.29308
2.249
6.23237
5.97064
5.74289
5.53313
5.33091
5.13178
4.9345
4.73945
4.54779
4.36026
4.17897
4.00292
3.83255
3.66886
3.51205
3.36218
3.21943
3.08393
2.95607
2.83687
2.728
2.63594
2.56769
2.57039
2.60598
2.67704
2.91571
3.37708
4.10645
4.46463
4.48641
4.45108
4.34787
4.16857
4.00889
3.87787
3.76946
3.67503
3.58842
3.50621
3.42689
3.35045
3.27707
3.20812
3.14537
3.09142
3.05397
3.0197
2.99375
2.98029
2.98585
3.01034
3.0708
3.19063
3.35688
3.60262
3.8468
4.02572
4.06247
4.04502
3.99075
3.87351
3.73677
3.61865
3.50242
3.40967
3.3419
3.2935
3.25977
3.2431
3.24365
3.24602
3.25109
3.25242
3.251
3.24538
3.23139
3.20234
3.16359
3.12083
3.07731
3.03336
2.98966
2.94575
2.90177
2.85752
2.81297
2.76824
2.7232
2.67803
2.63275
2.58726
2.54206
2.4964
2.4517
2.40598
2.36271
2.31671
2.27925
2.23592
6.34212
6.06451
5.81743
5.60054
5.39827
5.20146
5.00787
4.81766
4.63073
4.44776
4.26935
4.09637
3.92963
3.76817
3.61311
3.46473
3.32352
3.18994
3.0653
2.95248
2.85765
2.79727
2.8035
2.84686
2.94572
3.22981
3.79159
4.50986
4.83214
4.82622
4.76325
4.6139
4.41979
4.2478
4.1073
3.99037
3.88746
3.79183
3.69993
3.61023
3.52237
3.43669
3.3535
3.27343
3.19738
3.12652
3.0624
3.00975
2.96992
2.92942
2.89943
2.88039
2.884
2.90304
2.95443
3.05842
3.21164
3.42531
3.65269
3.81819
3.87014
3.85666
3.81159
3.71284
3.58269
3.47318
3.3725
3.28914
3.22842
3.18627
3.16177
3.154
3.15479
3.15727
3.16025
3.15936
3.15533
3.14445
3.1213
3.08488
3.04386
3.00094
2.9578
2.91451
2.87143
2.82837
2.7852
2.74189
2.6983
2.65444
2.61047
2.56614
2.52212
2.47752
2.4339
2.38918
2.3469
2.30184
2.26486
2.22251
6.36343
6.17025
5.90872
5.67403
5.46438
5.26817
5.07832
4.89155
4.70814
4.52924
4.35515
4.18573
4.02183
3.86396
3.71169
3.56607
3.42787
3.29916
3.18426
3.08887
3.04427
3.05528
3.10622
3.25265
3.58567
4.28475
4.96672
5.20861
5.18807
5.09012
4.88658
4.67894
4.50048
4.35369
4.22936
4.11829
4.01413
3.91331
3.8143
3.71685
3.62119
3.52741
3.43599
3.34736
3.26193
3.18032
3.10315
3.03215
2.96768
2.91618
2.87025
2.82734
2.79475
2.77111
2.77289
2.78714
2.82907
2.91698
3.06122
3.24849
3.46388
3.61891
3.68799
3.67714
3.64033
3.55792
3.43822
3.3369
3.24606
3.17213
3.11867
3.0852
3.06937
3.06649
3.06732
3.06946
3.069
3.06621
3.05806
3.03979
3.00606
2.9666
2.925
2.88252
2.84013
2.79795
2.75595
2.71396
2.67184
2.62938
2.58687
2.54384
2.50115
2.45775
2.41532
2.37167
2.33053
2.28629
2.25014
2.2088
6.30874
6.21153
5.99855
5.75184
5.53147
5.33214
5.14416
4.96249
4.78506
4.61062
4.43932
4.27267
4.1118
3.95737
3.80945
3.66885
3.53783
3.42338
3.32922
3.30779
3.32674
3.39015
3.59199
3.99377
4.8576
5.45128
5.59996
5.55996
5.42319
5.17274
4.94866
4.76422
4.6136
4.48419
4.36613
4.2537
4.14411
4.03615
3.92961
3.82451
3.7211
3.61987
3.52116
3.42522
3.33232
3.24272
3.15679
3.07501
2.99815
2.92723
2.86464
2.81274
2.76217
2.71719
2.68257
2.65593
2.65481
2.66478
2.69964
2.7754
2.91064
3.07768
3.28246
3.43117
3.51672
3.50835
3.47753
3.4078
3.30266
3.20943
3.12749
3.06357
3.01939
2.99375
2.98263
2.98067
2.98106
2.98078
2.97872
2.97225
2.95728
2.92678
2.88933
2.84915
2.80809
2.76686
2.72586
2.68495
2.64417
2.60306
2.56205
2.52043
2.47917
2.43709
2.39597
2.35353
2.31356
2.27047
2.23518
2.19472
6.2047
6.17377
6.06593
5.84312
5.60969
5.40191
5.21242
5.03287
4.85888
4.68904
4.52369
4.36252
4.20554
4.05327
3.91022
3.77905
3.66826
3.58326
3.58611
3.61957
3.71812
3.97849
4.51733
5.45193
5.95705
5.99365
5.92839
5.74997
5.47867
5.23761
5.04399
4.88716
4.75221
4.6281
4.5086
4.39087
4.27399
4.15801
4.04331
3.9305
3.81991
3.71189
3.60661
3.50424
3.40488
3.30872
3.21595
3.1268
3.0416
2.96062
2.88502
2.81472
2.7541
2.70001
2.64808
2.60163
2.56543
2.538
2.53402
2.54243
2.5718
2.63711
2.76204
2.91635
3.11265
3.25894
3.3601
3.35226
3.32439
3.26459
3.1696
3.08566
3.01641
2.96242
2.92659
2.90639
2.89828
2.89674
2.89601
2.89373
2.88764
2.87387
2.84593
2.81159
2.77409
2.73491
2.69529
2.65541
2.61581
2.57591
2.5363
2.49608
2.45628
2.41563
2.3759
2.33478
2.29606
2.25426
2.22001
2.18056
5.98101
6.0877
6.04676
5.93195
5.7031
5.48388
5.28804
5.10784
4.93621
4.76975
4.60778
4.45029
4.29919
4.1559
4.0284
3.92102
3.86285
3.87377
3.92778
4.0842
4.43716
5.17576
6.04498
6.43626
6.41912
6.30893
6.0635
5.7848
5.54135
5.34362
5.18033
5.0382
4.90659
4.77903
4.65248
4.52616
4.40044
4.27608
4.15365
4.03368
3.91642
3.80206
3.69075
3.58257
3.47761
3.37587
3.27742
3.18233
3.09075
3.00297
2.91925
2.83994
2.76606
2.69779
2.63877
2.58239
2.53069
2.48397
2.44756
2.41976
2.41438
2.42147
2.44683
2.50456
2.61931
2.76655
2.95845
3.10902
3.21612
3.20884
3.18179
3.12392
3.0391
2.96931
2.90981
2.86546
2.83753
2.82276
2.81714
2.815
2.81175
2.80478
2.79028
2.76544
2.73489
2.70012
2.66331
2.62516
2.58694
2.54825
2.50992
2.47105
2.43267
2.39347
2.35517
2.31549
2.27811
2.23781
2.20466
2.16673
5.38606
5.90446
5.97154
5.92404
5.80454
5.58438
5.37454
5.18733
5.01564
4.85224
4.69483
4.54445
4.40221
4.28026
4.17853
4.16135
4.18526
4.26919
4.50078
4.98179
5.92871
6.67641
6.90234
6.85888
6.70133
6.38392
6.09314
5.85188
5.65618
5.49085
5.34235
5.20201
5.06472
4.92809
4.79164
4.65588
4.5215
4.38927
4.25972
4.13311
4.00968
3.88953
3.77264
3.65906
3.54882
3.44197
3.33848
3.23841
3.1418
3.04875
2.95934
2.87377
2.79234
2.71545
2.64373
2.57824
2.52051
2.46341
2.41208
2.36614
2.33041
2.30312