/*--------------------------------*- C++ -*----------------------------------*\
  =========                 |
  \\      /  F ield         | OpenFOAM: The Open Source CFD Toolbox
   \\    /   O peration     | Website:  https://openfoam.org
    \\  /    A nd           | Version:  6
     \\/     M anipulation  |
\*---------------------------------------------------------------------------*/
FoamFile
{
    version     2.0;
    format      ascii;
    class       surfaceScalarField;
    location    "3";
    object      phi;
}
// * * * * * * * * * * * * * * * * * * * * * * * * * * * * * * * * * * * * * //

dimensions      [1 0 -1 0 0 0 0];

internalField   nonuniform List<scalar> 
10325
(
0.00840002
3.69933e-10
0.00840002
2.31147e-09
0.00840001
7.01876e-09
0.00839999
1.86216e-08
0.00839994
4.20826e-08
0.00839983
9.90716e-08
0.00839961
2.09127e-07
0.00839903
5.06345e-07
0.00839797
1.03677e-06
0.00839472
2.89485e-06
0.00838753
6.90317e-06
0.00836436
2.30142e-05
0.00827239
8.82033e-05
0.00779188
0.000472472
0.00714076
0.000648231
0.00644873
0.000690704
0.00577349
0.000674779
0.0051001
0.000672786
0.00444239
0.000657342
0.00375953
0.000682407
0.00303972
0.000719901
0.00229351
0.000745383
0.00153665
0.000756154
0.000765765
0.00077078
0.000764196
0.00840002
7.70614e-10
0.00840002
4.82026e-09
0.00840001
1.45816e-08
0.00839999
3.88006e-08
0.00839994
8.75167e-08
0.00839982
2.07373e-07
0.00839958
4.36766e-07
0.00839894
1.07165e-06
0.00839777
2.17723e-06
0.00839411
6.20439e-06
0.00838578
1.49328e-05
0.00835809
5.05539e-05
0.00824738
0.000195157
0.00770992
0.00100191
0.0070852
0.00127007
0.00645235
0.00132221
0.00581292
0.00131376
0.00515793
0.00132713
0.00448191
0.001333
0.0037767
0.00138716
0.00304781
0.00144878
0.0022989
0.00149342
0.00153823
0.00151618
0.000776021
0.00153298
0.00153891
0.00840002
1.19702e-09
0.00840002
7.48703e-09
0.00840001
2.26303e-08
0.00839999
6.02805e-08
0.00839993
1.35921e-07
0.00839981
3.23068e-07
0.00839955
6.79825e-07
0.00839886
1.68746e-06
0.00839764
3.36415e-06
0.00839358
9.91533e-06
0.0083847
2.35121e-05
0.00835384
8.12646e-05
0.00823615
0.000309113
0.00768738
0.00154268
0.00705532
0.00189929
0.00644181
0.00193452
0.00583019
0.00192499
0.00519871
0.00195806
0.00452371
0.00200763
0.00381554
0.00209494
0.00307683
0.00218763
0.00231892
0.00225053
0.00154797
0.00228658
0.00076909
0.00231177
0.00230664
0.00840002
1.64068e-09
0.00840002
1.02749e-08
0.00840001
3.10383e-08
0.00839998
8.28076e-08
0.00839993
1.86511e-07
0.0083998
4.44992e-07
0.00839953
9.35639e-07
0.00839884
2.29822e-06
0.00839732
4.85737e-06
0.00839396
1.29278e-05
0.00838234
3.48157e-05
0.00836279
0.000100798
0.00823944
0.000428743
0.0076968
0.00207737
0.00705686
0.00253611
0.00645697
0.00253288
0.0058708
0.00251077
0.00525886
0.00256956
0.00459728
0.00266873
0.00389124
0.00280072
0.00315315
0.00292576
0.00238112
0.0030222
0.00158849
0.00307853
0.000787826
0.00311236
0.00309257
0.00840002
2.1146e-09
0.00840002
1.32506e-08
0.00840001
4.0013e-08
0.00839998
1.06845e-07
0.00839992
2.406e-07
0.00839978
5.75083e-07
0.00839949
1.2101e-06
0.00839878
2.94023e-06
0.00839706
6.51114e-06
0.00839375
1.59259e-05
0.00838074
4.73604e-05
0.00836191
0.000118966
0.00823884
0.000547462
0.00770253
0.00260489
0.00704425
0.00319065
0.00649728
0.00307979
0.0059422
0.00306612
0.00535654
0.00315516
0.0047093
0.00331573
0.00400594
0.00350371
0.00327232
0.00365951
0.002497
0.00379691
0.00167862
0.00389616
0.000837621
0.00395302
0.00392815
0.00840002
2.62427e-09
0.00840002
1.64391e-08
0.00840001
4.96426e-08
0.00839998
1.3252e-07
0.00839992
2.98462e-07
0.00839977
7.12888e-07
0.00839947
1.49926e-06
0.00839867
3.66303e-06
0.00839724
7.89907e-06
0.00839262
2.02175e-05
0.00838346
5.6189e-05
0.00834866
0.000152936
0.0082507
0.000641438
0.00774705
0.00310186
0.00711241
0.00382192
0.00656686
0.00362294
0.00603184
0.00359974
0.00546849
0.00371713
0.00484794
0.00393542
0.00417048
0.00418082
0.00343594
0.00439508
0.00265467
0.00457774
0.00181696
0.00473317
0.000924315
0.00484618
0.00485178
0.00840002
3.16846e-09
0.00840002
1.98457e-08
0.00840001
5.99241e-08
0.00839998
1.59955e-07
0.00839991
3.6036e-07
0.00839975
8.60033e-07
0.00839943
1.81e-06
0.00839863
4.38736e-06
0.00839686
9.61762e-06
0.00839294
2.37987e-05
0.00838168
6.70996e-05
0.00835413
0.000179556
0.00826701
0.00072515
0.0078148
0.00354631
0.00721264
0.00442
0.00667172
0.00416282
0.00615453
0.00411686
0.0056204
0.00425087
0.00502649
0.00452881
0.0043829
0.00482307
0.00367659
0.00510095
0.00289164
0.00536222
0.0020213
0.00560335
0.00105285
0.00581447
0.00590357
0.00840002
3.74411e-09
0.00840002
2.34148e-08
0.00840001
7.08288e-08
0.00839997
1.8848e-07
0.00839991
4.25422e-07
0.00839975
1.00738e-06
0.00839942
2.12433e-06
0.00839857
5.15277e-06
0.00839749
1.06409e-05
0.00839178
2.91484e-05
0.00838895
6.95249e-05
0.0083393
0.000228337
0.00828273
0.000778296
0.00787249
0.00394838
0.00730822
0.00498043
0.00680446
0.00466515
0.00631314
0.00460759
0.00581177
0.00475174
0.00526215
0.0050779
0.00465446
0.00543135
0.00398265
0.00577255
0.00323237
0.00611217
0.0023515
0.006483
0.00128494
0.00688035
0.00718718
0.00840002
4.41208e-09
0.00840002
2.75895e-08
0.0084
8.34584e-08
0.00839997
2.22062e-07
0.00839989
5.01305e-07
0.0083997
1.18632e-06
0.0083993
2.5023e-06
0.00839834
6.04003e-06
0.00839636
1.25581e-05
0.0083914
3.37296e-05
0.00837981
8.08075e-05
0.00834683
0.000260078
0.00825883
0.000863549
0.00783684
0.00436161
0.0074223
0.00539231
0.00695196
0.00513602
0.00650776
0.00505085
0.00603618
0.00522176
0.00556479
0.00554747
0.00502689
0.00596841
0.0044381
0.00636177
0.00375798
0.00679269
0.00290057
0.00734075
0.0017614
0.00802008
0.00894724
0.00840002
5.18661e-09
0.00840002
3.24352e-08
0.0084
9.80165e-08
0.00839996
2.61102e-07
0.00839987
5.89386e-07
0.00839964
1.39821e-06
0.00839918
2.94941e-06
0.00839802
7.11489e-06
0.00839554
1.49678e-05
0.00838973
3.91336e-05
0.00837394
9.62315e-05
0.00833647
0.000296332
0.00822695
0.000969553
0.00772362
0.00485645
0.00753452
0.00557758
0.00708748
0.00558343
0.00670304
0.005436
0.00629723
0.00562706
0.00591252
0.00593079
0.00551621
0.00636309
0.00505557
0.00682163
0.00448522
0.00736242
0.0037931
0.00803208
0.00282875
0.00898465
0.0117754
0.00840002
5.98027e-09
0.00840002
3.73789e-08
0.0084
1.12955e-07
0.00839996
3.00941e-07
0.00839986
6.80115e-07
0.00839963
1.61369e-06
0.00839915
3.40866e-06
0.00839789
8.29498e-06
0.00839599
1.67771e-05
0.00838853
4.61536e-05
0.00837603
0.000108272
0.00833076
0.000340359
0.00825326
0.00104359
0.00785672
0.0052429
0.00750487
0.0059284
0.00720883
0.00587729
0.00694235
0.00570383
0.00668118
0.00588961
0.0063925
0.00622017
0.00610459
0.00665136
0.00577959
0.0071461
0.00545967
0.00768244
0.00527487
0.00821633
0.00563521
0.00862356
0.00815672
0.00925304
0.00840002
6.72101e-09
0.00840002
4.19936e-08
0.0084
1.26394e-07
0.00839996
3.38013e-07
0.00839988
7.64134e-07
0.00839965
1.82638e-06
0.00839917
3.86775e-06
0.00839801
9.35355e-06
0.00839485
1.98573e-05
0.0083914
4.91418e-05
0.00837011
0.000129097
0.00835656
0.000352538
0.00830464
0.00109227
0.00806401
0.00547231
0.00769228
0.0062998
0.00744238
0.00612628
0.00722831
0.00591689
0.00702411
0.00609352
0.00680033
0.00644398
0.00661068
0.00684127
0.00649692
0.00726006
0.00653532
0.00764415
0.00679645
0.00795586
0.00745496
0.00796552
0.00725783
0.0083539
0.00840002
6.81207e-09
0.00840002
4.25337e-08
0.00840002
1.28421e-07
0.00840001
3.42301e-07
0.0084
7.74866e-07
0.00839997
1.83834e-06
0.00839992
3.89264e-06
0.00839966
9.51923e-06
0.00840097
1.84347e-05
0.00839421
5.54105e-05
0.00841271
0.000110001
0.00834909
0.000414588
0.00837132
0.00106648
0.00847769
0.00535377
0.00809528
0.00668349
0.00781812
0.00640465
0.00757573
0.00615914
0.0074107
0.00625795
0.00728906
0.00656506
0.00721814
0.0069126
0.00725123
0.00722721
0.00744646
0.00744893
0.00782659
0.00757512
0.00837754
0.00741438
0.00679234
0.008843
0.00840003
6.59861e-09
0.00840003
4.11869e-08
0.00840003
1.23914e-07
0.00840004
3.31171e-07
0.00840006
7.46923e-07
0.0084001
1.7866e-06
0.00840023
3.73587e-06
0.00840046
9.20894e-06
0.00840064
1.81755e-05
0.00840283
5.27519e-05
0.00840988
0.000102588
0.00843772
0.000385127
0.00853534
0.000966967
0.00950201
0.00437237
0.00892676
0.00725914
0.00835964
0.00697255
0.00803679
0.00648215
0.00786448
0.00642979
0.00778918
0.0066396
0.00780262
0.00689883
0.00790541
0.00712503
0.00813552
0.0072196
0.00848753
0.00722364
0.0089206
0.00698127
0.00645123
0.00926162
0.00840003
5.7008e-09
0.00840003
3.5618e-08
0.00840005
1.07938e-07
0.00840009
2.86495e-07
0.00840018
6.48741e-07
0.00840044
1.52113e-06
0.00840093
3.22646e-06
0.00840255
7.52468e-06
0.00840492
1.57258e-05
0.00841854
3.87898e-05
0.00843515
8.56679e-05
0.0085708
0.000248372
0.0089025
0.000632787
0.0108492
0.00242144
0.0100936
0.00800991
0.00918365
0.00788148
0.00870557
0.00696099
0.00842277
0.0067124
0.00831491
0.00674667
0.0083382
0.00687494
0.00846407
0.006999
0.00868521
0.0069987
0.00898749
0.00692218
0.00931572
0.00665373
0.00618043
0.00958696
0.00840003
5.04084e-09
0.00840003
3.14963e-08
0.00840004
9.53553e-08
0.00840007
2.53203e-07
0.00840015
5.72983e-07
0.00840031
1.34392e-06
0.00840067
2.85157e-06
0.0084015
6.63234e-06
0.00840325
1.39043e-05
0.0084088
3.29364e-05
0.00841628
7.78716e-05
0.00846881
0.000194501
0.00854636
0.000555597
0.00903466
0.00192778
0.00974853
0.00728723
0.00985119
0.00777344
0.00918521
0.00762523
0.00888947
0.00700905
0.008775
0.00686144
0.00878534
0.00686465
0.00890025
0.00688371
0.00909797
0.00680059
0.00936574
0.00665451
0.00963572
0.00638422
0.00595775
0.00985896
0.00840003
4.51224e-09
0.00840003
2.81816e-08
0.00840004
8.52812e-08
0.00840007
2.2656e-07
0.00840012
5.12821e-07
0.00840025
1.20442e-06
0.00840053
2.55283e-06
0.00840115
5.95698e-06
0.00840259
1.23964e-05
0.00840452
3.06964e-05
0.00841754
6.44861e-05
0.00842547
0.000185277
0.00849693
0.000482516
0.00869717
0.00172317
0.00945142
0.00651683
0.0094901
0.00773309
0.00941984
0.007693
0.00920542
0.00722347
0.00912429
0.0069442
0.00914961
0.00684094
0.00924985
0.00678461
0.00939979
0.00665099
0.00961353
0.00644099
0.00984098
0.00615721
0.0057676
0.0100316
0.00840003
4.02836e-09
0.00840003
2.51478e-08
0.00840004
7.58888e-08
0.00840006
2.02093e-07
0.00840012
4.56833e-07
0.00840023
1.07988e-06
0.00840049
2.27865e-06
0.00840099
5.39517e-06
0.00840226
1.1055e-05
0.00840424
2.83992e-05
0.00841196
5.64873e-05
0.00842355
0.000172266
0.00848837
0.000416256
0.00870956
0.00149644
0.0097121
0.00549684
0.00971902
0.00772911
0.00960972
0.00780421
0.00945361
0.00738154
0.00941748
0.00698153
0.009464
0.00679554
0.0095707
0.0066795
0.00969704
0.00652546
0.00984585
0.00629266
0.0100141
0.00598979
0.0056202
0.0101623
0.00840003
3.35875e-09
0.00840003
2.0979e-08
0.00840005
6.3511e-08
0.00840008
1.68683e-07
0.00840015
3.81671e-07
0.00840032
8.96244e-07
0.00840069
1.89259e-06
0.00840161
4.42522e-06
0.00840352
9.0677e-06
0.00840862
2.29807e-05
0.00842122
4.35993e-05
0.00845891
0.000133089
0.00856375
0.000309576
0.00903431
0.00102249
0.0112773
0.00323032
0.0105565
0.00845213
0.0104005
0.00796622
0.00998716
0.00779908
0.00982053
0.00714988
0.00979016
0.00682748
0.00984606
0.00662484
0.00994716
0.006426
0.01006
0.00618036
0.0101751
0.00587451
0.00551589
0.0102798
0.00840003
2.76024e-09
0.00840003
1.72349e-08
0.00840004
5.21158e-08
0.00840007
1.38463e-07
0.00840014
3.13773e-07
0.00840029
7.35369e-07
0.00840061
1.56602e-06
0.00840138
3.60508e-06
0.00840282
7.57554e-06
0.00840804
1.755e-05
0.00841258
3.87796e-05
0.00845492
8.98149e-05
0.00853378
0.000229386
0.00888942
0.000663518
0.0101527
0.00195894
0.011155
0.00744274
0.0109011
0.00822112
0.0106468
0.00805699
0.0103332
0.00746679
0.0101932
0.00696959
0.0101731
0.00664679
0.0102133
0.00638762
0.0102829
0.00611301
0.0103538
0.00580465
0.00545588
0.0104142
0.00840003
2.13147e-09
0.00840003
1.3315e-08
0.00840005
4.04177e-08
0.00840008
1.07002e-07
0.00840015
2.4202e-07
0.00840031
5.63966e-07
0.00840068
1.18855e-06
0.00840151
2.74205e-06
0.00840346
5.58761e-06
0.00840696
1.38782e-05
0.00842042
2.51612e-05
0.00842909
8.03431e-05
0.00851139
0.000146251
0.00859932
0.000573073
0.00912172
0.0014298
0.0108706
0.00567823
0.0110149
0.00807694
0.0109323
0.00814041
0.0106634
0.00773889
0.0105146
0.00712062
0.0104585
0.00670445
0.0104596
0.00638729
0.0104913
0.00608261
0.0105352
0.00576217
0.00541957
0.0105726
0.00840003
1.68177e-09
0.00840003
1.05029e-08
0.00840004
3.18162e-08
0.00840006
8.43527e-08
0.00840011
1.90927e-07
0.00840023
4.45621e-07
0.00840046
9.44273e-07
0.00840101
2.16713e-06
0.00840208
4.49225e-06
0.00840526
1.05684e-05
0.00840858
2.16825e-05
0.00843282
5.54222e-05
0.00846247
0.000116057
0.00867398
0.000359001
0.00917823
0.000921881
0.011594
0.00324212
0.0115202
0.00815053
0.0114723
0.00819246
0.0112455
0.00796935
0.0109295
0.00743994
0.0107879
0.00684782
0.0107312
0.00644491
0.0107112
0.00610263
0.0107104
0.00576354
0.00541303
0.0107175
0.00840003
1.29252e-09
0.00840003
8.07521e-09
0.00840004
2.4478e-08
0.00840006
6.48847e-08
0.0084001
1.46902e-07
0.0084002
3.42676e-07
0.00840041
7.26449e-07
0.0084009
1.6648e-06
0.00840191
3.4526e-06
0.00840435
8.0423e-06
0.00840923
1.67002e-05
0.00842421
4.00053e-05
0.00844996
8.96703e-05
0.00858007
0.000226872
0.00886265
0.000641573
0.0100229
0.00207435
0.0115866
0.00657952
0.0116674
0.00811333
0.0115339
0.00810553
0.0112663
0.00771033
0.0111389
0.00697688
0.0110451
0.00653962
0.0109947
0.00615335
0.0109581
0.00579983
0.00544782
0.0109235
0.00840003
9.689e-10
0.00840003
6.03123e-09
0.00840004
1.84094e-08
0.00840005
4.83788e-08
0.00840009
1.10229e-07
0.00840018
2.54445e-07
0.00840036
5.42799e-07
0.00840078
1.22809e-06
0.00840166
2.55898e-06
0.00840373
5.91741e-06
0.0084084
1.1973e-05
0.0084175
3.06348e-05
0.00844961
5.74149e-05
0.00849407
0.000181007
0.00873531
0.000399778
0.00931342
0.00149295
0.0116308
0.00425082
0.0118481
0.00789489
0.0118616
0.00809333
0.0117417
0.00783181
0.0114376
0.00728245
0.0113092
0.00666841
0.0112276
0.00623489
0.0111744
0.00585261
0.00548951
0.0111319
0.00840003
6.04087e-10
0.00840003
4.79875e-09
0.00840004
1.22961e-08
0.00840005
3.78072e-08
0.00840008
7.36329e-08
0.00840014
1.99706e-07
0.00840032
3.57891e-07
0.00840057
9.75581e-07
0.00840147
1.64779e-06
0.0084026
4.75203e-06
0.00840709
7.44658e-06
0.00841335
2.42228e-05
0.00843795
3.2683e-05
0.00848208
0.000136162
0.00869064
0.000190461
0.00931891
0.000862141
0.0113702
0.0021943
0.0124813
0.00677718
0.0123438
0.00822922
0.0121807
0.00799509
0.0118253
0.00763811
0.0116523
0.00684214
0.0115225
0.00636482
0.0114245
0.00595073
0.00556765
0.0113461
0.00840003
5.13699e-10
0.00840003
2.8506e-09
0.00840003
9.54292e-09
0.00840005
2.31955e-08
0.00840007
5.71207e-08
0.00840014
1.20996e-07
0.00840022
2.81656e-07
0.00840062
5.72704e-07
0.00840092
1.33713e-06
0.00840301
2.65653e-06
0.00840401
6.44335e-06
0.00841596
1.22134e-05
0.00841462
3.36831e-05
0.00849344
5.83887e-05
0.00848431
0.000197944
0.00892997
0.000418732
0.0095075
0.0016084
0.011975
0.00429888
0.0124485
0.00775286
0.0125155
0.00792701
0.0124077
0.00774481
0.0120529
0.00719558
0.0118433
0.00657385
0.0117138
0.00607991
0.0056789
0.0116024
0.00840003
3.64005e-10
0.00840003
2.02856e-09
0.00840003
6.64294e-09
0.00840004
1.64396e-08
0.00840006
3.97838e-08
0.00840009
8.61083e-08
0.00840018
1.96711e-07
0.00840034
4.11067e-07
0.00840073
9.36167e-07
0.00840145
1.93034e-06
0.00840343
4.43058e-06
0.0084063
9.32056e-06
0.00841901
2.08209e-05
0.00842988
4.73145e-05
0.00852499
0.000102198
0.00867007
0.000272624
0.00956036
0.000715398
0.0118443
0.00201009
0.0129424
0.00664807
0.0128619
0.00800531
0.0128338
0.00777086
0.0124752
0.0075526
0.0122195
0.00682832
0.0120274
0.00627134
0.0058301
0.0118754
0.00840003
2.33295e-10
0.00840003
1.31737e-09
0.00840003
4.28827e-09
0.00840004
1.0698e-08
0.00840005
2.54586e-08
0.00840008
5.53093e-08
0.00840016
1.23133e-07
0.00840031
2.57753e-07
0.00840067
5.67073e-07
0.00840143
1.16816e-06
0.00840322
2.62743e-06
0.00840742
5.10579e-06
0.00841494
1.31919e-05
0.00844015
2.21036e-05
0.00846631
7.54136e-05
0.00861763
0.000121111
0.00881793
0.000513275
0.00968315
0.00114177
0.0122825
0.00403534
0.0129111
0.00737234
0.0130218
0.00765871
0.0129481
0.0076247
0.0126256
0.00714938
0.0123914
0.00650448
0.00600448
0.0122163
0.00840003
1.77363e-10
0.00840003
8.42329e-10
0.00840003
3.11952e-09
0.00840004
6.93242e-09
0.00840004
1.86221e-08
0.00840006
3.61548e-08
0.00840009
9.239e-08
0.00840018
1.70574e-07
0.0084003
4.43736e-07
0.00840068
7.85576e-07
0.00840115
2.14714e-06
0.00840269
3.55858e-06
0.00840506
1.07773e-05
0.00841163
1.54821e-05
0.00843064
5.61337e-05
0.00847786
7.34874e-05
0.00868456
0.000305463
0.0092493
0.000575361
0.0114063
0.00187433
0.0129646
0.00580569
0.0130256
0.00759542
0.013174
0.00747475
0.0130045
0.00731768
0.0127394
0.00676904
0.00621838
0.0125254
0.00840003
8.34459e-11
0.00840003
6.15664e-10
0.00840003
1.65231e-09
0.00840003
4.88376e-09
0.00840004
9.85706e-09
0.00840005
2.53963e-08
0.0084001
4.73229e-08
0.00840015
1.20706e-07
0.00840038
2.14175e-07
0.0084006
5.6796e-07
0.00840181
9.40054e-07
0.00840256
2.79905e-06
0.00840964
3.78239e-06
0.0084099
1.51048e-05
0.00845204
1.44183e-05
0.00843935
8.5504e-05
0.0086659
7.95537e-05
0.00874238
0.000496637
0.00967481
0.00094049
0.0125056
0.00295958
0.0132531
0.00684406
0.0132678
0.00746001
0.0132721
0.00731354
0.0129881
0.00705351
0.00644023
0.0127676
0.00840003
5.59243e-11
0.00840003
3.14554e-10
0.00840003
1.04814e-09
0.00840003
2.55858e-09
0.00840004
6.17494e-09
0.00840005
1.30285e-08
0.00840007
2.93295e-08
0.00840013
5.91473e-08
0.00840021
1.31898e-07
0.00840052
2.59082e-07
0.00840086
5.94801e-07
0.00840257
1.09055e-06
0.00840345
2.88462e-06
0.0084141
4.45932e-06
0.00841268
1.56492e-05
0.00847651
2.17131e-05
0.00846323
9.17906e-05
0.00880931
0.000150275
0.00912594
0.000621558
0.0106353
0.00144472
0.0130205
0.00444704
0.0134264
0.00705061
0.0135367
0.0072034
0.0134426
0.00714836
0.0067274
0.0131567
0.00840003
3.55837e-11
0.00840003
1.99998e-10
0.00840003
6.53983e-10
0.00840003
1.6197e-09
0.00840003
3.87325e-09
0.00840004
8.33452e-09
0.00840005
1.86759e-08
0.00840007
3.86729e-08
0.00840012
8.59601e-08
0.0084002
1.75581e-07
0.0084004
3.94115e-07
0.00840068
8.00216e-07
0.00840173
1.82497e-06
0.00840248
3.70277e-06
0.00840932
8.73047e-06
0.00841327
1.77234e-05
0.00845911
4.54496e-05
0.00851523
9.43217e-05
0.00885985
0.000275285
0.00960488
0.000698431
0.0119717
0.00207622
0.0134442
0.00557035
0.0135445
0.00710056
0.0137525
0.00694024
0.00690564
0.0135748
0.00840003
2.23164e-11
0.00840003
1.25181e-10
0.00840003
4.09527e-10
0.00840003
1.01445e-09
0.00840003
2.43414e-09
0.00840004
5.2488e-09
0.00840004
1.18321e-08
0.00840006
2.45872e-08
0.00840009
5.50992e-08
0.00840015
1.13073e-07
0.00840028
2.5619e-07
0.00840056
5.22436e-07
0.00840117
1.19967e-06
0.00840241
2.46082e-06
0.00840541
5.65664e-06
0.00841132
1.1783e-05
0.00842926
2.71928e-05
0.00846369
5.9484e-05
0.00859789
0.000139656
0.00893538
0.000360883
0.00993898
0.00106739
0.0127326
0.00276336
0.013688
0.00614017
0.0137279
0.00689929
0.00671156
0.0139215
0.00840003
1.28544e-11
0.00840003
7.28417e-11
0.00840003
2.37483e-10
0.00840003
5.91323e-10
0.00840003
1.40116e-09
0.00840003
3.02592e-09
0.00840004
6.68245e-09
0.00840005
1.38932e-08
0.00840007
3.02089e-08
0.00840013
6.20281e-08
0.00840024
1.34808e-07
0.00840049
2.74963e-07
0.00840108
6.05758e-07
0.00840234
1.18994e-06
0.00840511
2.83628e-06
0.00841177
5.0759e-06
0.00842421
1.44784e-05
0.0084605
2.28011e-05
0.00851619
8.3092e-05
0.00873491
0.00014029
0.00925585
0.000543854
0.0107941
0.00121892
0.0131681
0.00375361
0.013805
0.00625806
0.00663444
0.0138805
0.00840003
8.2104e-12
0.00840003
4.15529e-11
0.00840003
1.47169e-10
0.00840003
3.40536e-10
0.00840003
8.69068e-10
0.00840003
1.75091e-09
0.00840003
4.19651e-09
0.00840004
8.08414e-09
0.00840005
1.93994e-08
0.00840008
3.64603e-08
0.00840012
8.94689e-08
0.00840023
1.64502e-07
0.00840042
4.1706e-07
0.00840086
7.43261e-07
0.0084017
1.98984e-06
0.00840348
3.28122e-06
0.00840803
9.85239e-06
0.00841651
1.42691e-05
0.00844891
5.02728e-05
0.00851942
6.95462e-05
0.00879365
0.000267936
0.00946824
0.00054291
0.0116924
0.00152366
0.013529
0.00441143
0.00623165
0.0139283
0.00840003
3.81848e-12
0.00840003
2.60614e-11
0.00840003
7.40041e-11
0.00840003
2.07372e-10
0.00840003
4.39415e-10
0.00840003
1.06347e-09
0.00840003
2.09722e-09
0.00840004
4.9449e-09
0.00840005
9.48246e-09
0.00840006
2.26095e-08
0.00840011
4.22825e-08
0.00840017
1.04587e-07
0.0084004
1.86484e-07
0.00840066
4.95638e-07
0.00840185
8.10442e-07
0.0084027
2.4439e-06
0.00840939
3.35593e-06
0.00841092
1.26553e-05
0.00844899
1.32942e-05
0.00845102
6.62748e-05
0.00865764
6.40583e-05
0.00885571
0.000339957
0.00978792
0.000591192
0.0125106
0.00166572
0.00490784
0.0138264
0.00840003
1.95173e-12
0.00840003
1.12841e-11
0.00840003
3.72528e-11
0.00840003
9.16969e-11
0.00840003
2.15358e-10
0.00840003
4.5314e-10
0.00840003
9.75153e-10
0.00840004
1.94878e-09
0.00840004
4.07618e-09
0.00840006
7.8908e-09
0.00840008
1.65863e-08
0.00840016
3.00142e-08
0.00840028
6.75998e-08
0.00840067
1.06196e-07
0.00840122
2.70344e-07
0.00840331
3.54376e-07
0.0084055
1.19675e-06
0.00841694
1.24336e-06
0.00842285
7.33002e-06
0.00848167
7.68672e-06
0.00849119
5.32386e-05
0.00875944
7.2215e-05
0.00898696
0.000360321
0.00994648
0.000701825
0.00221692
0.0126186
0.00840003
1.10078e-12
0.00840003
5.68333e-12
0.00840003
1.99448e-11
0.00840003
4.64298e-11
0.00840003
1.1562e-10
0.00840003
2.31296e-10
0.00840003
5.35351e-10
0.00840003
1.01164e-09
0.00840003
2.33834e-09
0.00840004
4.25927e-09
0.00840004
1.01278e-08
0.00840006
1.7875e-08
0.00840008
4.42102e-08
0.00840011
7.60154e-08
0.00840018
1.97859e-07
0.00840021
3.24376e-07
0.00840047
9.30972e-07
0.00840031
1.40515e-06
0.00840285
4.70675e-06
0.00840397
6.56121e-06
0.00843071
2.59567e-05
0.00846606
3.67554e-05
0.00867551
0.000148338
0.00909211
0.000285628
0.000903811
0.0103989
0.00840003
4.83072e-13
0.00840003
3.32969e-12
0.00840003
9.45877e-12
0.00840003
2.64772e-11
0.00840003
5.54584e-11
0.00840003
1.33083e-10
0.00840003
2.56424e-10
0.00840003
5.99417e-10
0.00840003
1.11069e-09
0.00840003
2.64325e-09
0.00840004
4.75856e-09
0.00840005
1.17399e-08
0.00840007
2.06287e-08
0.00840009
5.31135e-08
0.0084002
9.0474e-08
0.00840027
2.48282e-07
0.00840081
3.95793e-07
0.00840098
1.21166e-06
0.00840396
1.73036e-06
0.0084042
6.19203e-06
0.00842243
7.75536e-06
0.0084258
3.26597e-05
0.00853386
4.03256e-05
0.00864445
0.000172088
0.000306854
0.00924203
0.00840003
2.9859e-13
0.00840003
1.56405e-12
0.00840003
5.47828e-12
0.00840003
1.27878e-11
0.00840003
3.19752e-11
0.00840003
6.45947e-11
0.00840003
1.50288e-10
0.00840003
2.89731e-10
0.00840003
6.71808e-10
0.00840003
1.26493e-09
0.00840003
2.99851e-09
0.00840004
5.52849e-09
0.00840005
1.36411e-08
0.00840008
2.42027e-08
0.0084001
6.3654e-08
0.00840025
1.0466e-07
0.00840034
3.00095e-07
0.00840109
4.58047e-07
0.00840139
1.41004e-06
0.00840558
2.01871e-06
0.00840609
7.0845e-06
0.0084306
8.29787e-06
0.0084335
3.65197e-05
0.008565
4.08903e-05
0.000182462
0.0086866
0.00840003
1.26751e-13
0.00840003
8.46201e-13
0.00840003
2.46934e-12
0.00840003
6.74786e-12
0.00840003
1.44498e-11
0.00840003
3.36525e-11
0.00840003
6.65578e-11
0.00840003
1.49252e-10
0.00840003
2.85766e-10
0.00840003
6.42717e-10
0.00840003
1.1988e-09
0.00840004
2.79362e-09
0.00840004
4.88233e-09
0.00840006
1.26223e-08
0.0084001
1.9083e-08
0.00840015
5.91114e-08
0.00840037
7.7413e-08
0.00840055
2.68653e-07
0.00840169
3.57336e-07
0.00840224
1.18412e-06
0.00840985
1.52561e-06
0.00840758
6.64056e-06
0.00845268
6.24611e-06
0.00844132
3.69156e-05
3.54274e-05
0.00858832
0.00840003
6.57337e-14
0.00840003
3.57751e-13
0.00840003
1.22576e-12
0.00840003
2.91887e-12
0.00840003
7.05765e-12
0.00840003
1.44239e-11
0.00840003
3.19493e-11
0.00840003
6.2106e-11
0.00840003
1.34829e-10
0.00840003
2.546e-10
0.00840003
5.62311e-10
0.00840003
1.00686e-09
0.00840004
2.40307e-09
0.00840004
3.78904e-09
0.00840005
1.07397e-08
0.0084001
1.40073e-08
0.00840013
4.8542e-08
0.00840034
5.47248e-08
0.00840046
2.21259e-07
0.00840137
2.74033e-07
0.00840171
9.70809e-07
0.00841115
1.19076e-06
0.0084005
5.95517e-06
0.00845008
5.32619e-06
3.5211e-05
0.00844428
0.00840003
2.59261e-14
0.00840003
1.69172e-13
0.00840003
5.06007e-13
0.00840003
1.34999e-12
0.00840003
2.92091e-12
0.00840003
6.55664e-12
0.00840003
1.30193e-11
0.00840003
2.77586e-11
0.00840003
5.31244e-11
0.00840003
1.12987e-10
0.00840003
2.07161e-10
0.00840003
4.62822e-10
0.00840003
7.75895e-10
0.00840003
1.96734e-09
0.00840004
2.83268e-09
0.00840005
8.59143e-09
0.00840009
1.06934e-08
0.0084001
4.09923e-08
0.00840028
4.30056e-08
0.00840037
1.90451e-07
0.00840105
2.3354e-07
0.00840182
7.80389e-07
0.00840201
9.39761e-07
0.00841148
5.37974e-06
4.58343e-06
0.00840767
0.00840003
1.15013e-14
0.00840003
6.71316e-14
0.00840003
2.19933e-13
0.00840003
5.42726e-13
0.00840003
1.25287e-12
0.00840003
2.61172e-12
0.00840003
5.46453e-12
0.00840003
1.07518e-11
0.00840003
2.17758e-11
0.00840003
4.13413e-11
0.00840003
8.46789e-11
0.00840003
1.5307e-10
0.00840003
3.331e-10
0.00840003
5.62614e-10
0.00840003
1.30653e-09
0.00840004
2.21182e-09
0.00840005
5.32353e-09
0.00840008
8.22574e-09
0.00840009
2.75593e-08
0.00840025
4.15212e-08
0.00840033
1.50568e-07
0.00840104
3.07131e-07
0.00840179
6.58459e-07
0.00840154
1.0358e-06
3.86134e-06
0.00841187
0.00840003
4.6058e-15
0.00840003
2.7189e-14
0.00840003
8.80307e-14
0.00840003
2.19705e-13
0.00840003
4.97603e-13
0.00840003
1.04283e-12
0.00840003
2.13044e-12
0.00840003
4.2012e-12
0.00840003
8.26823e-12
0.00840003
1.58399e-11
0.00840003
3.0973e-11
0.00840003
5.79822e-11
0.00840003
1.1612e-10
0.00840003
2.07412e-10
0.00840003
4.60136e-10
0.00840003
7.47594e-10
0.00840004
1.97083e-09
0.00840004
3.12849e-09
0.00840007
9.12397e-09
0.00840008
1.36076e-08
0.00840024
4.48565e-08
0.00840045
7.31575e-08
0.00840122
2.14017e-07
0.00840127
3.64911e-07
1.02762e-06
0.00840015
0.00840003
2.07137e-15
0.00840003
1.19359e-14
0.00840003
3.89189e-14
0.00840003
9.62626e-14
0.00840003
2.22052e-13
0.00840003
4.65853e-13
0.00840003
9.82721e-13
0.00840003
1.95458e-12
0.00840003
4.02069e-12
0.00840003
7.92316e-12
0.00840003
1.5954e-11
0.00840003
3.2066e-11
0.00840003
6.197e-11
0.00840003
1.25686e-10
0.00840003
2.36439e-10
0.00840003
4.36319e-10
0.00840003
9.01605e-10
0.00840003
1.57063e-09
0.00840004
1.24575e-09
0.00840005
2.75476e-09
0.0084001
-4.4269e-09
0.00840024
-4.34935e-08
0.00839969
5.23645e-08
0.00840015
1.60901e-07
-1.42951e-07
0.00840135
0.00840003
8.46274e-16
0.00840003
4.94949e-15
0.00840003
1.60366e-14
0.00840003
4.00097e-14
0.00840003
9.12353e-14
0.00840003
1.92508e-13
0.00840003
3.98065e-13
0.00840003
7.96445e-13
0.00840003
1.59024e-12
0.00840003
3.11396e-12
0.00840003
6.2437e-12
0.00840003
1.18706e-11
0.00840003
2.48371e-11
0.00840003
4.53688e-11
0.00840003
1.00733e-10
0.00840003
1.96899e-10
0.00840003
4.0488e-10
0.00840003
7.28505e-10
0.00840002
3.34522e-09
0.00840002
5.81187e-09
0.00839994
2.24187e-08
0.00839964
7.46278e-08
0.00839946
1.32497e-08
0.0084005
2.6647e-08
7.0354e-08
0.00840087
0.00840003
3.46348e-16
0.00840003
1.86933e-15
0.00840003
6.45312e-15
0.00840003
1.52834e-14
0.00840003
3.65412e-14
0.00840003
7.25043e-14
0.00840003
1.59643e-13
0.00840003
2.84022e-13
0.00840003
6.51544e-13
0.00840003
9.89584e-13
0.00840003
2.6187e-12
0.00840003
2.91609e-12
0.00840003
1.01533e-11
0.00840003
5.57069e-12
0.00840003
4.26207e-11
0.00840003
-4.73034e-11
0.00840003
1.89859e-10
0.00840003
-8.13728e-10
0.00840003
8.65163e-10
0.00840004
-3.79996e-09
0.00840007
6.61934e-09
0.00839996
-3.28653e-08
0.00840005
6.7689e-08
0.00840005
-3.13295e-07
4.25012e-07
0.00839886
0.00840003
8.63567e-17
0.00840003
6.73344e-16
0.00840003
1.80899e-15
0.00840003
5.32875e-15
0.00840003
1.0125e-14
0.00840003
2.55712e-14
0.00840003
3.83334e-14
0.00840003
1.12465e-13
0.00840003
1.05808e-13
0.00840003
4.75092e-13
0.00840003
1.09486e-13
0.00840003
2.05122e-12
0.00840003
-1.61889e-12
0.00840003
9.48857e-12
0.00840003
-2.14536e-11
0.00840003
7.90177e-11
0.00840003
-1.28809e-10
0.00840003
8.99098e-10
0.00840004
-2.18374e-09
0.00840001
1.92966e-09
0.00839998
-2.07295e-08
0.00840013
-1.78842e-08
0.00839976
-4.78255e-08
0.00839965
3.594e-07
6.45706e-08
0.0084035
0.00840003
0.00840003
0.00840003
0.00840003
0.00840003
0.00840003
0.00840003
0.00840003
0.00840003
0.00840003
0.00840003
0.00840003
0.00840003
0.00840003
0.00840003
0.00840003
0.00840003
0.00840003
0.00840003
0.00840003
0.00839999
0.00839988
0.00839976
0.00840081
0.00840047
0.00557892
0.00367361
0.0039392
0.00163945
0.00304028
0.000898764
0.00250323
0.000536952
0.00218621
0.000316957
0.00200442
0.000181779
0.00191554
8.88714e-05
0.0019042
1.13526e-05
0.00202482
-0.000120565
0.00224887
-0.000223885
0.00239033
-0.000141368
0.00246887
-7.84672e-05
0.00249191
-2.29862e-05
0.00248798
3.95878e-06
0.00247517
1.28122e-05
0.00246742
7.74146e-06
0.00246786
-4.84238e-07
0.00247567
-7.87035e-06
0.00248496
-9.35841e-06
0.00249274
-7.86706e-06
0.00249827
-5.65205e-06
0.00250205
-3.94526e-06
0.00250481
-2.96371e-06
0.00250695
-2.47618e-06
0.00250869
-2.11556e-06
0.00250944
-1.45203e-06
0.00250816
2.02078e-08
0.00250165
3.41306e-06
0.00248485
9.55947e-06
0.00244394
2.54537e-05
0.00235691
5.38415e-05
0.00216206
0.000128933
0.00168493
0.00030825
0.000591337
0.000844889
-0.000158621
0.000731635
-0.000723236
0.000594477
-0.00116915
0.000465534
-0.00152704
0.000379291
-0.00178539
0.000270395
-0.00196018
0.000177178
-0.00203774
7.71547e-05
-0.00202455
-1.34949e-05
-0.001941
-8.86723e-05
-0.00179692
-0.000153903
-0.00158265
-0.000228252
-0.00129617
-0.000304769
-0.000933762
-0.000381909
-0.000543209
-0.000408746
-0.000152783
-0.000407608
0.000239708
-0.000410155
0.000614292
-0.000392804
0.000940456
-0.000343251
0.00123274
-0.000308126
0.00149954
-0.000281072
0.00174287
-0.000256121
0.00196818
-0.000237316
0.00218508
-0.000227763
0.00239179
-0.000217592
0.00258706
-0.000204861
0.00277086
-0.000191349
0.00294537
-0.000179295
0.0031108
-0.000167108
0.00326825
-0.000156721
0.00341816
-0.000146668
0.0035609
-0.000138413
0.00369667
-0.000130266
0.00382582
-0.000123622
0.00394822
-0.000116652
0.00406501
-0.000110743
0.00417559
-0.000104281