/*--------------------------------*- C++ -*----------------------------------*\
  =========                 |
  \\      /  F ield         | OpenFOAM: The Open Source CFD Toolbox
   \\    /   O peration     | Website:  https://openfoam.org
    \\  /    A nd           | Version:  6
     \\/     M anipulation  |
\*---------------------------------------------------------------------------*/
FoamFile
{
    version     2.0;
    format      ascii;
    class       volScalarField;
    location    "3";
    object      T;
}
// * * * * * * * * * * * * * * * * * * * * * * * * * * * * * * * * * * * * * //

dimensions      [0 0 0 1 0 0 0];

internalField   nonuniform List<scalar> 
5250
(
1.00005
1.00013
1.0004
1.00078
1.00223
1.00431
1.01177
1.02478
1.06014
1.15062
1.35902
1.9038
2.79596
2.76678
2.78779
2.74695
2.73043
2.74891
2.76086
2.77523
2.78272
2.78687
2.79325
2.79431
2.8012
1.00005
1.00013
1.0004
1.00078
1.00222
1.00429
1.01173
1.02467
1.05991
1.14995
1.3576
1.8993
2.79421
2.76717
2.78534
2.74535
2.72974
2.74794
2.76007
2.77344
2.78071
2.78487
2.79073
2.79175
2.79854
1.00005
1.00013
1.00039
1.00077
1.0022
1.00425
1.01162
1.02444
1.05941
1.14845
1.35443
1.88761
2.79035
2.76809
2.77973
2.74204
2.72814
2.74606
2.7581
2.7714
2.77729
2.78185
2.78749
2.78749
2.79343
1.00005
1.00013
1.00039
1.00076
1.00217
1.00419
1.01147
1.02406
1.05866
1.14597
1.34943
1.86692
2.7837
2.769
2.76957
2.73576
2.72446
2.74208
2.75409
2.76707
2.77296
2.77568
2.78213
2.78249
2.78698
1.00005
1.00012
1.00038
1.00075
1.00213
1.0041
1.01126
1.02355
1.05761
1.14297
1.34171
1.84814
2.77559
2.77272
2.76365
2.72719
2.71681
2.7334
2.74557
2.75583
2.7656
2.76764
2.77093
2.77165
2.77837
1.00005
1.00012
1.00037
1.00073
1.00208
1.00399
1.011
1.02289
1.05621
1.13952
1.33086
1.83084
2.76669
2.77044
2.75536
2.71945
2.71088
2.72461
2.73835
2.74639
2.751
2.75778
2.76156
2.75999
2.76394
1.00005
1.00012
1.00036
1.0007
1.00201
1.00385
1.01067
1.02206
1.05449
1.13499
1.31781
1.80832
2.74343
2.7659
2.74643
2.71262
2.70245
2.71484
2.72387
2.73524
2.73594
2.73699
2.74145
2.74047
2.74375
1.00005
1.00011
1.00034
1.00067
1.00193
1.00369
1.01026
1.02109
1.05234
1.12975
1.30195
1.78131
2.71202
2.75961
2.73074
2.70597
2.69355
2.70442
2.7088
2.71862
2.72242
2.72208
2.71909
2.71473
2.713
1.00004
1.00011
1.00033
1.00064
1.00183
1.0035
1.00976
1.01997
1.04984
1.12288
1.28541
1.74752
2.66231
2.74941
2.71085
2.70178
2.68437
2.69267
2.6927
2.69315
2.6944
2.69225
2.68845
2.67387
2.66053
1.00004
1.0001
1.00031
1.0006
1.00172
1.00327
1.00918
1.01867
1.04685
1.11497
1.26606
1.70726
2.6021
2.72936
2.68806
2.68743
2.67711
2.68124
2.68183
2.67958
2.6686
2.65932
2.64045
2.61241
2.54873
1.00004
1.00009
1.00028
1.00055
1.00158
1.00301
1.00848
1.01712
1.04327
1.1058
1.2427
1.65653
2.52598
2.69735
2.69023
2.66866
2.65558
2.65704
2.65992
2.65566
2.64176
2.61874
2.58598
2.5173
2.38204
1.00003
1.00008
1.00025
1.00049
1.00143
1.0027
1.00766
1.01531
1.03924
1.09446
1.21613
1.59301
2.42352
2.65039
2.68372
2.6658
2.64594
2.63746
2.6345
2.62706
2.6109
2.57576
2.52499
2.45185
2.30347
1.00003
1.00007
1.00022
1.00043
1.00125
1.00235
1.0067
1.01325
1.03397
1.08316
1.18135
1.52793
2.3004
2.59291
2.67124
2.6567
2.63674
2.61966
2.60935
2.59557
2.57518
2.54285
2.47704
2.4092
2.29221
1.00003
1.00006
1.00019
1.00037
1.00106
1.002
1.00572
1.01117
1.02942
1.06791
1.15501
1.42574
2.1146
2.52061
2.65462
2.63964
2.62537
2.60094
2.58654
2.56674
2.5391
2.5102
2.45016
2.38885
2.29369
1.00002
1.00005
1.00016
1.00031
1.00088
1.00166
1.00475
1.00911
1.02472
1.05311
1.12995
1.32173
1.8939
2.43159
2.61625
2.59972
2.59409
2.57878
2.56169
2.54451
2.50764
2.47928
2.42175
2.37135
2.29628
1.00002
1.00004
1.00013
1.00026
1.00073
1.00138
1.00396
1.00756
1.02065
1.04407
1.10779
1.26867
1.72233
2.39721
2.60294
2.56915
2.56364
2.54828
2.53588
2.52223
2.49092
2.45929
2.40592
2.35039
2.29077
1.00001
1.00004
1.00011
1.00021
1.0006
1.00113
1.00325
1.00618
1.01693
1.0366
1.08582
1.23217
1.54617
2.28234
2.56257
2.56147
2.53739
2.52491
2.50655
2.49541
2.46896
2.44521
2.40125
2.34791
2.29161
1.00001
1.00003
1.00009
1.00017
1.00048
1.0009
1.00262
1.00494
1.01361
1.02902
1.06901
1.18625
1.42222
2.06315
2.47626
2.5493
2.52523
2.51379
2.48884
2.47044
2.44624
2.41553
2.38593
2.34255
2.29263
1.00001
1.00002
1.00007
1.00013
1.00038
1.0007
1.00203
1.00378
1.01065
1.02174
1.05334
1.13715
1.30696
1.83489
2.31719
2.50604
2.50417
2.49553
2.47623
2.45523
2.43238
2.4037
2.36952
2.33472
2.29133
1.00001
1.00002
1.00005
1.0001
1.00029
1.00053
1.00156
1.00285
1.00828
1.01595
1.04218
1.09722
1.22926
1.58648
2.25916
2.44745
2.46474
2.45718
2.44675
2.42614
2.40713
2.38366
2.35503
2.32065
2.28637
1.00001
1.00001
1.00004
1.00007
1.00021
1.0004
1.00115
1.00211
1.00603
1.01188
1.02998
1.07521
1.16281
1.47241
2.11625
2.3784
2.44473
2.43855
2.42606
2.40466
2.3852
2.36461
2.33995
2.30963
2.27575
1
1.00001
1.00003
1.00006
1.00016
1.00029
1.00086
1.00155
1.00457
1.00851
1.02359
1.05037
1.12125
1.3092
1.82451
2.25611
2.41109
2.40943
2.39719
2.3817
2.36197
2.34306
2.32384
2.30022
2.27123
1
1.00001
1.00002
1.00004
1.00011
1.00021
1.00061
1.00111
1.00328
1.00603
1.01702
1.03481
1.08702
1.21025
1.55086
2.1017
2.36382
2.38978
2.37769
2.36253
2.34058
2.31958
2.29882
2.27782
2.25535
1
1
1.00001
1.00003
1.00008
1.00015
1.00043
1.00077
1.00229
1.00417
1.01175
1.02402
1.05952
1.15379
1.34627
1.86528
2.23359
2.35535
2.357
2.3486
2.33203
2.31032
2.28919
2.26737
2.24403
1
1
1.00001
1.00002
1.00005
1.0001
1.00029
1.00053
1.00156
1.0028
1.0082
1.01553
1.04152
1.09337
1.22661
1.54413
2.13028
2.27948
2.30318
2.30827
2.30191
2.28812
2.27143
2.25314
2.23347
1
1
1.00001
1.00002
1.00003
1.00008
1.00015
1.00044
1.0008
1.00232
1.0043
1.0118
1.02492
1.06104
1.15592
1.36556
1.85842
2.20808
2.28873
2.28813
2.28175
2.26855
2.25079
2.23356
2.21656
1
1
1
1.00001
1.00002
1.00005
1.0001
1.00029
1.00052
1.00156
1.00274
1.0082
1.01516
1.04124
1.09012
1.22349
1.51472
2.04827
2.23278
2.25532
2.25567
2.24675
2.23066
2.2157
2.20028
1
1
1
1.00001
1.00001
1.00003
1.00006
1.00018
1.00032
1.00094
1.00168
1.00461
1.00948
1.02303
1.06065
1.13117
1.38404
1.87471
2.14161
2.23459
2.23406
2.22362
2.21232
2.19315
2.17722
1
1
1
1
1.00001
1.00002
1.00004
1.00012
1.00021
1.00062
1.00108
1.00332
1.00584
1.01725
1.03364
1.09038
1.19674
1.59234
1.92988
2.17053
2.21185
2.21094
2.20168
2.18781
2.16692
1
1
1
1
1.00001
1.00001
1.00003
1.00005
1.00015
1.00027
1.00074
1.00143
1.00361
1.00829
1.01931
1.05286
1.1178
1.32417
1.78543
2.0357
2.15625
2.17962
2.17895
2.17317
2.15954
1
1
1
1
1
1.00001
1.00001
1.00004
1.00007
1.00019
1.00035
1.00094
1.00191
1.00466
1.01155
1.02655
1.07398
1.16021
1.44207
1.92086
2.09007
2.13931
2.14471
2.14114
2.13606
1
1
1
1
1
1
1.00001
1.00002
1.00004
1.00013
1.00022
1.00068
1.00113
1.00361
1.00618
1.01819
1.03676
1.09265
1.22089
1.5902
1.94037
2.11119
2.12583
2.12443
2.11492
1
1
1
1
1
1
1
1.00001
1.00002
1.00007
1.00013
1.00039
1.00065
1.00207
1.00345
1.01058
1.01973
1.05365
1.12002
1.3022
1.65017
1.99063
2.09954
2.1064
2.10499
1
1
1
1
1
1
1
1.00001
1.00001
1.00004
1.00007
1.0002
1.00034
1.00098
1.00176
1.00475
1.01028
1.02514
1.06809
1.15242
1.40051
1.82805
2.02248
2.08266
2.08592
1
1
1
1
1
1
1
1
1.00001
1.00002
1.00004
1.00011
1.00019
1.00061
1.00098
1.00319
1.00532
1.01636
1.0313
1.08435
1.18477
1.52724
1.80315
2.01239
2.05926
1
1
1
1
1
1
1
1
1
1.00001
1.00002
1.00004
1.00011
1.0002
1.00054
1.00106
1.00266
1.00626
1.0152
1.03951
1.09538
1.2373
1.59161
1.84143
2.00385
1
1
1
1
1
1
1
1
1
1
1.00001
1.00002
1.00004
1.00007
1.00018
1.00026
1.00096
1.00139
1.0066
1.01385
1.04754
1.1117
1.30366
1.67483
1.88834
1
1
1
1
1
1
1
1
1
1
1
1.00001
1.00002
1.00007
1.00011
1.00038
1.00059
1.00205
1.00331
1.01087
1.01982
1.05788
1.12207
1.32841
1.61351
1
1
1
1
1
1
1
1
1
1
1
1
1.00001
1.00002
1.00008
1.00013
1.0004
1.00067
1.0021
1.00376
1.01137
1.02224
1.06396
1.13133
1.37235
1
1
1
1
1
1
1
1
1
1
1
1
1.00001
1.00002
1.00003
1.00008
1.00014
1.00042
1.00072
1.0022
1.00407
1.01196
1.02415
1.06834
1.13938
1
1
1
1
1
1
1
1
1
1
1
1
1
1
1.00001
1.00002
1.00005
1.00014
1.00022
1.00097
1.00069
1.00495
1.00941
1.02711
1.06961
1
1
1
1
1
1
1
1
1
1
1
1
1
1
1
1.00001
1.00002
1.00004
1.00013
1.0002
1.00101
1.00057
1.00491
1.01085
1.02624
1
1
1
1
1
1
1
1
1
1
1
1
1
1
1
1
1.00001
1.00002
1.00004
1.00012
1.00018
1.00097
1.0006
1.00466
1.00937
1
1
1
1
1
1
1
1
1
1
1
1
1
1
1
1
1
1
1.00002
1.00003
1.00015
1.00018
1.00098
1.00048
1.00471
1
1
1
1
1
1
1
1
1
1
1
1
1
1
1
1
1
1
1.00001
1.00001
1.00005
1.00005
1.00035
1.00023
1.00227
1
1
1
1
1
1
1
1
1
1
1
1
1
1
1
1
1
1
1
1.00001
1.00003
1.00002
1.00021
1.00048
1.00104
1
1
1
1
1
1
1
1
1
1
1
1
1
1
1
1
1
1
1.00001
1.00001
1.00005
1.00004
1.00023
1.00029
1.002
1
1
1
1
1
1
1
1
1
1
1
1
1
1
1
1
1
1
1
1
1.00003
1.00001
1.00025
1.00024
1.00189
1
1
1
1
1
1
1
1
1
1
1
1
1
1
1
1
1
1
1
1.00001
1.00001
1.00008
1.00009
1.00059
1.0007
1
1
1
1
1
1
1
1
1
1
1
1
1
1
1
1
1
1
1
1.00001
1.00004
1.00003
1.00015
1.00018
1.00129
2.25339
2.09883
1.99729
1.93845
1.93519
1.97126
2.04211
2.1098
2.21361
2.30155
2.35935
2.38186
2.38683
2.38585
2.38585
2.38707
2.39078
2.39568
2.40214
2.40779
2.41198
2.41543
2.4181
2.42064
2.42305
2.42573
2.43008
2.43783
2.45372
2.4864
2.55689
2.68135
2.89992
3.11849
3.1733
3.16525
3.17186
3.18663
3.19796
3.19298
3.17176
3.16744
3.16594
3.16668
3.17187
3.17487
3.1751
3.16892
3.1671
3.15889
3.14208
3.13914
3.13174
3.12666
3.11432
3.10726
3.09212
3.08149
3.06389
3.05273
3.03498
3.02291
3.00469
2.9924
2.97323
2.96053
2.94022
2.9269
2.90616
2.89213
2.87186
2.85734
2.83776
2.82312
2.80403
2.78941
2.77065
2.75597
2.73728
2.7224
2.70326
2.68803
2.66803
2.65239
2.63151
2.61569
2.59437
2.57896
2.55779
2.54344
2.52285
2.51007
2.49002
2.4788
2.45917
2.44924
2.43031
2.42268
2.4077
2.40681
2.178
2.06367
1.99154
1.95119
1.93813
1.94338
1.95103
1.9405
1.91752
1.90132
1.89529
1.90445
1.91915
1.93786
1.95379
1.96417
1.96872
1.97087
1.97249
1.974
1.97582
1.97765
1.97946
1.9812
1.98277
1.98441
1.98694
1.99203
2.0044
2.02906
2.08705
2.20316
2.4527
2.77473
2.93541
3.05
3.11962
3.168
3.20682
3.23273
3.2404
3.23298
3.2155
3.19027
3.15352
3.10966
3.065
3.03251
2.99774
2.97117
2.94126
2.91832
2.89311
2.8738
2.85263
2.83601
2.8166
2.8002
2.78227
2.76913
2.75358
2.74194
2.7265
2.71449
2.69768
2.68426
2.66572
2.65033
2.63072
2.61351
2.59378
2.57569
2.5561
2.53812
2.5182
2.50103
2.48016
2.46431
2.44288
2.42797
2.4074
2.39293
2.37336
2.35953
2.34026
2.32657
2.30718
2.29315
2.27313
2.25871
2.23799
2.22314
2.20206
2.18747
2.1669
2.15418
2.13535
2.12658
2.11221
2.11289
2.19166
2.0982
2.02254
1.96148
1.91056
1.85791
1.80831
1.76577
1.73322
1.71139
1.70661
1.70924
1.71852
1.73357
1.75305
1.76842
1.77999
1.78741
1.79225
1.79533
1.79797
1.79998
1.80167
1.80334
1.80449
1.80609
1.80765
1.81069
1.81864
1.83335
1.87322
1.93992
2.15676
2.34349
2.61561
2.74099
2.79333
2.8594
2.95008
3.03041
3.08485
3.10436
3.08923
3.0393
2.98106
2.92156
2.87414
2.83948
2.80901
2.78433
2.76328
2.74821
2.73201
2.71983
2.70332
2.69283
2.67848
2.66801
2.65305
2.64282
2.62986
2.61963
2.60826
2.59734
2.58744
2.57517
2.56544
2.55072
2.53946
2.5228
2.50952
2.49293
2.47776
2.46175
2.44446
2.42828
2.40872
2.39215
2.37136
2.35434
2.33403
2.3168
2.29721
2.28048
2.26158
2.24535
2.22719
2.21159
2.19292
2.17783
2.15751
2.14273
2.12015
2.10561
2.08116
2.06658
2.04331
2.02816
2.01169
2.00041
2.20476
2.12068
2.04598
1.97691
1.91492
1.85827
1.80697
1.76295
1.72636
1.70012
1.68057
1.66872
1.66327
1.66339
1.66514
1.67163
1.68128
1.69089
1.70003
1.70801
1.71406
1.71792
1.72016
1.72134
1.72188
1.72232
1.72286
1.72461
1.72781
1.73782
1.75588
1.80472
1.9137
2.08833
2.45198
2.50822
2.54742
2.63715
2.70401
2.76146
2.81261
2.83641
2.82618
2.78719
2.73591
2.6879
2.65846
2.64221
2.63069
2.61991
2.61086
2.60556
2.59972
2.59396
2.58137
2.5692
2.55629
2.54633
2.53477
2.52241
2.51042
2.49583
2.48349
2.46707
2.4547
2.43833
2.42634
2.41146
2.39948
2.38591
2.37358
2.36112
2.34848
2.33758
2.32419
2.31429
2.30039
2.29009
2.27632
2.26553
2.25216
2.24182
2.22895
2.21928
2.20628
2.19654
2.18205
2.17211
2.15529
2.14522
2.12648
2.115
2.09538
2.08039
2.06183
2.04228
2.02553
2.00393
1.991
1.97261
2.21961
2.14386
2.07288
2.00704
1.94558
1.8895
1.83869
1.79295
1.75227
1.71639
1.68478
1.65948
1.6392
1.62552
1.61793
1.61812
1.61969
1.62512
1.63244
1.64098
1.64882
1.65655
1.6626
1.66703
1.67019
1.67196
1.67349
1.67435
1.67669
1.68207
1.69289
1.72196
1.7733
1.93233
2.09571
2.34308
2.44509
2.48644
2.54188
2.61644
2.67108
2.68175
2.66816
2.633
2.59254
2.55815
2.53948
2.52921
2.52771
2.52867
2.52926
2.52812
2.52492
2.51996
2.51235
2.5014
2.49057
2.47759
2.46761
2.45382
2.44242
2.4276
2.41588
2.40052
2.38687
2.37034
2.3557
2.34059
2.32725
2.31388
2.29982
2.28633
2.27008
2.25625
2.23958
2.22613
2.21074
2.19826
2.18406
2.17261
2.15858
2.14827
2.13453
2.12577
2.11319
2.10636
2.09531
2.08996
2.07969
2.07448
2.06432
2.05681
2.04742
2.03469
2.02468
2.00724
1.99619
1.97545
1.96573
1.94713
2.22382
2.15708
2.09236
2.03198
1.97452
1.92185
1.87199
1.82707
1.78468
1.74733
1.71291
1.68288
1.65616
1.63444
1.61678
1.60505
1.59714
1.59525
1.59557
1.59793
1.60298
1.60967
1.6168
1.62409
1.63063
1.63583
1.63919
1.6418
1.64317
1.64589
1.65256
1.66502
1.69914
1.76063
1.94276
2.13151
2.29681
2.40754
2.48087
2.54755
2.60009
2.60645
2.59155
2.55733
2.51325
2.47302
2.45027
2.44437
2.44021
2.43283
2.43307
2.43488
2.43298
2.4299
2.42568
2.4166
2.40424
2.38959
2.37824
2.36552
2.35299
2.33747
2.32322
2.30861
2.29651
2.28388
2.27137
2.25781
2.24354
2.2306
2.21636
2.20438
2.19002
2.17801
2.16377
2.15213
2.1384
2.12745
2.11425
2.10416
2.09186
2.08262
2.07122
2.06322
2.05317
2.04674
2.03838
2.03383
2.02736
2.0235
2.01909
2.01333
2.01001
2.00234
1.99713
1.98479
1.97717
1.96004
1.95219
1.93557
2.23034
2.16923
2.10919
2.05268
1.99874
1.94848
1.90099
1.85678
1.81548
1.77715
1.74192
1.7095
1.68029
1.65401
1.63099
1.61106
1.59521
1.58344
1.57561
1.57207
1.57222
1.57355
1.57725
1.5823
1.58832
1.59451
1.60053
1.60562
1.60915
1.61255
1.61598
1.62413
1.63925
1.68001
1.76134
1.93313
2.20284
2.3159
2.44564
2.54668
2.58436
2.58207
2.55693
2.51741
2.46409
2.41461
2.39085
2.38193
2.37395
2.35941
2.35104
2.35128
2.3545
2.35377
2.35164
2.34663
2.33773
2.3267
2.31473
2.30247
2.2913
2.28013
2.26942
2.25758
2.24579
2.23448
2.22331
2.2133
2.20173
2.19079
2.17742
2.16489
2.15091
2.13896
2.12633
2.11592
2.10399
2.09343
2.08066
2.06927
2.05598
2.04474
2.03217
2.02222
2.01146
2.0036
1.99533
1.98945
1.98423
1.97945
1.97689
1.97268
1.97065
1.96638
1.96384
1.95724
1.95265
1.94119
1.93565
1.92389
2.23787
2.18192
2.12601
2.07232
2.02115
1.97269
1.92722
1.8842
1.8441
1.80619
1.77112
1.73809
1.70785
1.6796
1.65418
1.63079
1.61054
1.59249
1.57817
1.56682
1.55942
1.55487
1.55378
1.55432
1.55652
1.56022
1.56524
1.57113
1.57679
1.58236
1.58684
1.59244
1.60193
1.62472
1.67073
1.77712
1.99085
2.2321
2.42892
2.58106
2.58845
2.5759
2.54144
2.48579
2.42093
2.37674
2.34718
2.33258
2.31636
2.30384
2.29211
2.28435
2.28432
2.28526
2.2839
2.28026
2.27433
2.26626
2.25864
2.2497
2.2406
2.23061
2.22076
2.21172
2.20244
2.19356
2.18298
2.17249
2.16114
2.15122
2.14138
2.13266
2.12272
2.11317
2.10188
2.09112
2.0788
2.06732
2.05447
2.04301
2.03066
2.01997
2.00826
1.99796
1.98673
1.97701
1.96729
1.95887
1.95207
1.94562
1.94187
1.93768
1.93578
1.93266
1.93123
1.92777
1.92558
1.91916
1.916
1.9094
2.24437
2.19402
2.14288
2.09196
2.04286
1.99567
1.951
1.90864
1.86878
1.83118
1.7959
1.76273
1.73174
1.70274
1.67584
1.65088
1.62805
1.60722
1.58872
1.57246
1.55907
1.5485
1.5413
1.53666
1.53525
1.53558
1.53706
1.54032
1.54431
1.55027
1.55526
1.56248
1.57016
1.5874
1.61781
1.69728
1.8333
2.1711
2.43358
2.60267
2.60819
2.59642
2.56184
2.48446
2.40513
2.34832
2.314
2.28632
2.26115
2.24244
2.22956
2.22229
2.21721
2.21731
2.21813
2.22014
2.21865
2.21627
2.2123
2.20799
2.20252
2.19597
2.18719
2.17769
2.16753
2.1583
2.14903
2.14078
2.13209
2.12375
2.11419
2.10491
2.09451
2.08487
2.07427
2.06448
2.05343
2.04305
2.03127
2.02028
2.00816
1.99724
1.98538
1.97474
1.96329
1.95304
1.94289
1.93364
1.92613
1.91878
1.91419
1.90951
1.90715
1.90409
1.90283
1.90015
1.89892
1.89513
1.89325
1.89146
2.24534
2.20246
2.15726
2.11155
2.06594
2.02145
1.97841
1.93713
1.89784
1.86041
1.82515
1.79159
1.76025
1.7304
1.70282
1.67654
1.65259
1.62982
1.6095
1.59035
1.57386
1.55881
1.5468
1.53676
1.53013
1.52532
1.52393
1.52419
1.52553
1.52899
1.53383
1.54024
1.54894
1.5653
1.59366
1.66758
1.77662
2.09737
2.31328
2.58951
2.6039
2.57879
2.5208
2.44397
2.37921
2.32094
2.27404
2.24181
2.21528
2.19491
2.18172
2.17246
2.16769
2.16643
2.16674
2.1708
2.17317
2.17525
2.1734
2.17008
2.16622
2.16121
2.15528
2.14817
2.14002
2.13189
2.12309
2.11459
2.1058
2.09757
2.08862
2.07991
2.07042
2.06146
2.05174
2.04233
2.03195
2.02204
2.01119
2.00093
1.98975
1.97925
1.9678
1.95692
1.94515
1.93391
1.92275
1.91213
1.90329
1.89483
1.889
1.88361
1.88062
1.87752
1.87631
1.87412
1.87345
1.87147
1.87038
1.87221
2.24088
2.20259
2.16302
2.12208
2.0811
2.04016
2.00037
1.96126
1.924
1.88767
1.85354
1.82037
1.78949
1.7596
1.73187
1.70522
1.68055
1.65706
1.63539
1.615
1.59639
1.5792
1.5639
1.55026
1.53886
1.52965
1.52307
1.51889
1.51783
1.51869
1.52125
1.52668
1.53783
1.55588
1.59137
1.6756
1.7812
1.99772
2.20658
2.43299
2.50409
2.48887
2.45487
2.41763
2.37267
2.31369
2.26413
2.23092
2.20241
2.17814
2.16077
2.14639
2.14007
2.13405
2.13082
2.12984
2.13233
2.13491
2.13795
2.13729
2.13517
2.13225
2.1275
2.12268
2.11478
2.10677
2.09778
2.08997
2.0818
2.0745
2.06597
2.05786
2.04863
2.04029
2.03107
2.02254
2.01274
2.00354
1.99318
1.98353
1.97271
1.96264
1.95149
1.94105
1.92974
1.91885
1.90802
1.89716
1.88807
1.87889
1.87235
1.86613
1.86251
1.85876
1.85718
1.8546
1.85383
1.85207
1.85119
1.85409
2.23811
2.20406
2.16762
2.13049
2.09298
2.0549
2.01776
1.9809
1.94531
1.91072
1.87733
1.84552
1.81457
1.78569
1.75738
1.73134
1.70571
1.68244
1.6594
1.63888
1.61837
1.60063
1.5827
1.56787
1.55284
1.54121
1.52987
1.52231
1.51702
1.51737
1.51886
1.52541
1.53893
1.5668
1.62073
1.73565
1.86831
1.99717
2.09474
2.22962
2.37945
2.43201
2.42595
2.4011
2.37796
2.32887
2.27864
2.23902
2.2035
2.17324
2.14965
2.13104
2.11774
2.10886
2.10161
2.09836
2.09677
2.097
2.10024
2.10262
2.10436
2.103
2.09998
2.09687
2.09165
2.08513
2.07603
2.06825
2.05969
2.05231
2.04344
2.03553
2.02648
2.01869
2.00981
2.00191
1.99244
1.9838
1.97388
1.96516
1.95508
1.94597
1.93538
1.92567
1.91498
1.90475
1.89466
1.88405
1.8752
1.86542
1.85809
1.85049
1.84563
1.84032
1.83779
1.83424
1.83303
1.8309
1.83007
1.83367
2.22975
2.19975
2.16876
2.13498
2.10125
2.06691
2.03215
1.99826
1.96433
1.93181
1.8996
1.86901
1.83906
1.81052
1.78302
1.75676
1.73156
1.70777
1.68471
1.66341
1.64246
1.62361
1.60479
1.58844
1.57192
1.55817
1.54461
1.53422
1.52659
1.52666
1.52968
1.53932
1.55915
1.6108
1.69824
1.82439
1.93627
1.98949
2.03443
2.08705
2.18181
2.28472
2.35105
2.36817
2.35542
2.33151
2.29197
2.25781
2.2143
2.18045
2.15156
2.12587
2.10665
2.09173
2.0811
2.07463
2.06862
2.0667
2.06643
2.06741
2.0691
2.0713
2.07003
2.06743
2.06372
2.05975
2.05274
2.04578
2.03739
2.02991
2.02084
2.01326
2.00449
1.99714
1.98833
1.98064
1.97133
1.96308
1.95338
1.94522
1.93578
1.92773
1.91801
1.90936
1.89911
1.88954
1.87913
1.86864
1.85883
1.84824
1.83984
1.83057
1.82435
1.81757
1.81385
1.80934
1.80722
1.80502
1.80401
1.80805
2.21903
2.19223
2.16348
2.13509
2.10354
2.07254
2.0407
2.00902
1.97765
1.94669
1.91648
1.88697
1.85829
1.83087
1.8036
1.77866
1.75286
1.73033
1.70627
1.68583
1.66378
1.64519
1.62536
1.6084
1.59116
1.57583
1.56198
1.5495
1.54428
1.54487
1.55136
1.5679
1.60593
1.68984
1.80512
1.91058
1.96313
1.98505
1.9931
2.01097
2.04299
2.10945
2.18332
2.26563
2.30425
2.30244
2.28704
2.26778
2.22795
2.19626
2.16095
2.12944
2.10327
2.08217
2.06639
2.05476
2.04583
2.03977
2.03587
2.03406
2.03443
2.03575
2.03819
2.03742
2.03537
2.03352
2.02974
2.02579
2.01839
2.01121
2.00215
1.99471
1.986
1.97867
1.96972
1.96211
1.95304
1.94537
1.9361
1.92835
1.91904
1.91124
1.90157
1.89321
1.8831
1.87384
1.86362
1.85319
1.84341
1.83239
1.82353
1.81317
1.80565
1.79734
1.79187
1.78639
1.78246
1.77996
1.77817
1.78227
2.21077
2.18715
2.16088
2.13342
2.10622
2.07708
2.04822
2.01869
1.98928
1.96025
1.93123
1.90343
1.87527
1.84908
1.82244
1.79758
1.7731
1.7493
1.72727
1.70451
1.68489
1.66335
1.64596
1.62593
1.61067
1.59281
1.58066
1.56867
1.56859
1.57201
1.5852
1.6191
1.68696
1.80053
1.9057
1.95699
1.97123
1.97077
1.96917
1.96697
1.97515
1.99638
2.03562
2.10098
2.17492
2.23201
2.25483
2.24554
2.22606
2.20296
2.17266
2.14111
2.10974
2.08322
2.05992
2.0428
2.02864
2.01901
2.01177
2.0061
2.00494
2.00416
2.00449
2.00603
2.00675
2.00612
2.0045
2.00243
1.99797
1.99288
1.98458
1.97739
1.96862
1.96122
1.95224
1.94492
1.93624
1.9292
1.92037
1.91294
1.90376
1.89607
1.8867
1.87836
1.86882
1.85948
1.8501
1.83974
1.83058
1.81971
1.81103
1.80067
1.79279
1.78417
1.77755
1.77175
1.76647
1.7634
1.76076
1.76472
2.19708
2.17548
2.15326
2.1286
2.10331
2.0779
2.05115
2.02432
1.99694
1.97006
1.94293
1.91647
1.89039
1.86443
1.83997
1.81483
1.79197
1.76806
1.74656
1.72441
1.70378
1.68403
1.66398
1.6469
1.62813
1.61428
1.60014
1.59765
1.6
1.61203
1.6422
1.70206
1.81859
1.9194
1.96693
1.97398
1.96738
1.95748
1.949
1.93908
1.93738
1.94109
1.95455
1.98192
2.02958
2.08726
2.15323
2.1914
2.20207
2.19156
2.17395
2.14717
2.11995
2.09137
2.06325
2.03946
2.01928
2.0041
1.99225
1.98362
1.97789
1.97342
1.9722
1.97247
1.97323
1.97471
1.97374
1.97259
1.97048
1.96789
1.96239
1.95628
1.9478
1.94057
1.9316
1.92459
1.91619
1.90964
1.9011
1.89395
1.88475
1.877
1.86768
1.85935
1.85037
1.84138
1.83308
1.82354
1.81564
1.80574
1.79798
1.78839
1.78076
1.77264
1.76549
1.7598
1.75379
1.75032
1.74678
1.75041
2.18571
2.16733
2.14758
2.12524
2.10173
2.07664
2.05248
2.02772
2.00199
1.97677
1.9511
1.92609
1.90097
1.87682
1.85239
1.82949
1.80608
1.78441
1.76225
1.74176
1.72101
1.70164
1.68274
1.66458
1.64909
1.6342
1.63035
1.63191
1.64438
1.66902
1.72964
1.8447
1.94105
1.98323
1.98814
1.97626
1.96504
1.95126
1.93526
1.92254
1.91669
1.91512
1.91544
1.9222
1.93956
1.96849
2.013
2.06684
2.11964
2.14557
2.14747
2.13739
2.12157
2.09412
2.06971
2.04404
2.01823
1.99706
1.9791
1.96497
1.95535
1.94759
1.94243
1.94073
1.93935
1.93942
1.94031
1.94021
1.93972
1.93864
1.93585
1.93242
1.92551
1.91888
1.91013
1.90315
1.89463
1.88798
1.87943
1.87257
1.86385
1.8568
1.84816
1.84066
1.83226
1.82394
1.81589
1.80661
1.79877
1.78899
1.78132
1.77211
1.76441
1.75685
1.74946
1.74419
1.73808
1.73466
1.73097
1.7345
2.16226
2.14807
2.13276
2.11636
2.09732
2.07571
2.05209
2.02938
2.00643
1.98228
1.95871
1.93439
1.91079
1.88679
1.86395
1.84038
1.81885
1.79614
1.77573
1.75456
1.73496
1.71566
1.69753
1.68088
1.66661
1.6613
1.66331
1.67542
1.70033
1.75933
1.87241
1.96486
2.00641
2.00852
1.99461
1.98175
1.96496
1.94474
1.92743
1.91369
1.90293
1.89791
1.89285
1.89229
1.893
1.90048
1.91736
1.9449
1.98336
2.03255
2.07526
2.09557
2.09278
2.08352
2.06955
2.04396
2.02124
1.9986
1.97488
1.95547
1.94004
1.92797
1.91978
1.91371
1.90899
1.9082
1.9082
1.90847
1.90919
1.90886
1.90815
1.9067
1.90327
1.89875
1.89093
1.88444
1.87598
1.86928
1.86073
1.85404
1.84558
1.83888
1.83045
1.82315
1.81489
1.80682
1.79908
1.79002
1.78228
1.77263
1.76463
1.75575
1.74763
1.74022
1.73237
1.72676
1.72031
1.71648
1.71237
1.71578
2.14894
2.1313
2.1152
2.09821
2.08204
2.06603
2.04814
2.02766
2.00633
1.9856
1.9628
1.9417
1.91857
1.89697
1.87414
1.85262
1.83026
1.80957
1.78794
1.7683
1.74825
1.72982
1.7128
1.69851
1.69207
1.69683
1.7048
1.73372
1.79149
1.89518
1.99691
2.03541
2.03377
2.01922
2.00409
1.98314
1.9616
1.94257
1.92587
1.91113
1.89779
1.88734
1.87768
1.87313
1.86729
1.86553
1.86613
1.87306
1.88864
1.91435
1.94787
1.99119
2.02651
2.04508
2.04159
2.03373
2.02096
1.99814
1.97732
1.95686
1.93508
1.91763
1.90391
1.89374
1.88586
1.88062
1.87782
1.87682
1.87691
1.87763
1.87807
1.87781
1.87695
1.875
1.87037
1.86527
1.85714
1.85073
1.84223
1.83584
1.82744
1.82079
1.81256
1.80556
1.79797
1.79059
1.78364
1.77555
1.76834
1.75953
1.75158
1.74322
1.73492
1.72794
1.71978
1.71436
1.70724
1.70325
1.6979
1.7005
2.14297
2.12607
2.10927
2.09176
2.07355
2.0558
2.03756
2.02062
2.00138
1.9831
1.96367
1.94277
1.92325
1.90184
1.8821
1.86079
1.84088
1.82015
1.80054
1.78087
1.7626
1.74532
1.73135
1.72577
1.72895
1.74289
1.76788
1.8321
1.94493
2.03437
2.06523
2.05947
2.04434
2.02802
2.00377
1.98177
1.96158
1.94427
1.92724
1.91211
1.89696
1.88279
1.86997
1.8588
1.85004
1.84299
1.83782
1.83424
1.83437
1.83964
1.85263
1.87681
1.90791
1.94607
1.97712
1.99531
1.9928
1.98631
1.9747
1.95426
1.93425
1.91486
1.89476
1.87938
1.86742
1.85871
1.85197
1.84761
1.84684
1.84695
1.8472
1.848
1.84792
1.84748
1.84591
1.84294
1.83649
1.83088
1.82275
1.81651
1.80833
1.8018
1.79374
1.78697
1.77971
1.77289
1.76629
1.75871
1.75156
1.74307
1.73484
1.7267
1.71822
1.71143
1.70335
1.69796
1.69108
1.68714
1.68149
1.68392
2.12526
2.11394
2.10113
2.0866
2.07008
2.05288
2.03472
2.0163
1.99808
1.97871
1.96038
1.94209
1.92304
1.90418
1.88471
1.86596
1.84664
1.82802
1.80959
1.79162
1.77611
1.76209
1.75894
1.76261
1.77751
1.81357
1.872
1.98693
2.07411
2.09607
2.08645
2.07137
2.05111
2.02515
2.00276
1.98274
1.96468
1.94723
1.93029
1.9133
1.89685
1.88116
1.86644
1.85187
1.83953
1.82752
1.81884
1.80978
1.80358
1.79955
1.79993
1.8041
1.81562
1.83782
1.86616
1.90039
1.92979
1.94693
1.94632
1.94083
1.93024
1.9124
1.8928
1.87505
1.85766
1.84416
1.83375
1.82619
1.82128
1.81876
1.81889
1.81933
1.8203
1.82033
1.81999
1.81891
1.8159
1.81214
1.80475
1.79902
1.7911
1.78482
1.77664
1.7698
1.76224
1.75524
1.74861
1.7413
1.73452
1.72675
1.71903
1.7114
1.70331
1.69675
1.68879
1.6833
1.67612
1.67218
1.66579
1.66775
2.10597
2.09271
2.08093
2.07107
2.05939
2.04606
2.0305
2.01333
1.99605
1.97756
1.95936
1.9404
1.92249
1.90451
1.88609
1.86836
1.8502
1.83343
1.81613
1.80269
1.79036
1.78917
1.79627
1.81103
1.85765
1.91649
2.03385
2.11289
2.1269
2.11321
2.09679
2.0726
2.0462
2.0233
2.00311
1.98525
1.96767
1.95042
1.93273
1.91531
1.89804
1.88115
1.86477
1.84878
1.83327
1.81864
1.80566
1.79376
1.78419
1.77544
1.76801
1.76293
1.76337
1.76644
1.77693
1.79614
1.82187
1.85279
1.88174
1.89757
1.9009
1.89556
1.88651
1.87131
1.85229
1.8362
1.82138
1.80923
1.80004
1.79369
1.79044
1.7897
1.78985
1.79031
1.79108
1.79094
1.79017
1.78828
1.78353
1.77905
1.77182
1.76611
1.75852
1.75202
1.74503
1.7384
1.73201
1.72508
1.71834
1.71101
1.70324
1.69612
1.6878
1.68178
1.67382
1.66888
1.6617
1.65821
1.65137
1.65278
2.09362
2.08157
2.06711
2.05378
2.04327
2.03151
2.02051
2.00691
1.99203
1.97565
1.95835
1.94102
1.92264
1.90531
1.88793
1.87046
1.85414
1.83806
1.82501
1.81632
1.81656
1.82741
1.84547
1.89955
1.96738
2.07566
2.14474
2.15407
2.13853
2.12058
2.09376
2.06746
2.04394
2.02333
2.00472
1.9872
1.96973
1.95224
1.93434
1.91639
1.89855
1.88094
1.86347
1.84637
1.82963
1.81349
1.79768
1.7832
1.76999
1.75823
1.74726
1.73795
1.73061
1.72463
1.72482
1.72669
1.73537
1.75213
1.77685
1.80564
1.83437
1.85001
1.85706
1.85203
1.84462
1.83154
1.81415
1.79958
1.78598
1.77478
1.76701
1.76233
1.76031
1.76075
1.76125
1.76211
1.76269
1.76243
1.76086
1.75811
1.75226
1.74705
1.74002
1.73385
1.72703
1.72075
1.7146
1.70818
1.70162
1.69501
1.6873
1.6808
1.67258
1.66682
1.65894
1.6542
1.64699
1.64385
1.63716
1.63814
2.0829
2.07066
2.05635
2.04061
2.02627
2.01451
2.00233
1.99181
1.97999
1.96861
1.95448
1.9397
1.92329
1.90693
1.89064
1.87505
1.86056
1.84775
1.84208
1.84477
1.85712
1.8806
1.93096
2.02859
2.1292
2.17385
2.17725
2.16044
2.14008
2.11198
2.08699
2.06482
2.04492
2.02604
2.00766
1.98936
1.97116
1.953
1.93484
1.91668
1.89833
1.87997
1.86172
1.84373
1.82589
1.80855
1.79141
1.77519
1.75924
1.7448
1.7316
1.72025
1.70896
1.69897
1.69139
1.68561
1.68561
1.6866
1.69385
1.70907
1.73363
1.76119
1.79016
1.8067
1.81678
1.81306
1.80619
1.79475
1.7789
1.76526
1.75261
1.74304
1.73658
1.73331
1.73235
1.73276
1.73335
1.7347
1.73485
1.734
1.73125
1.72728
1.72092
1.71504
1.70859
1.70234
1.6962
1.69031
1.68396
1.67829
1.67089
1.66507
1.65697
1.65153
1.64377
1.63932
1.63223
1.62923
1.62296
1.62399
2.06704
2.0639
2.05249
2.03681
2.02057
2.00525
1.99147
1.97809
1.96568
1.95348
1.94198
1.93076
1.9188
1.90589
1.89213
1.87975
1.87005
1.86775
1.87446
1.88875
1.92448
1.98153
2.07533
2.17357
2.20724
2.20169
2.18317
2.1599
2.12991
2.10399
2.0826
2.06408
2.04611
2.02769
2.00897
1.99009
1.9716
1.95286
1.93429
1.91528
1.89633
1.8772
1.85817
1.83934
1.82067
1.80252
1.78478
1.76761
1.75108
1.7352
1.7202
1.70623
1.69377
1.68218
1.67162
1.6619
1.65385
1.64805
1.64829
1.64954
1.65578
1.66985
1.69361
1.72062
1.74966
1.76751
1.78051
1.7775
1.77028
1.76014
1.7461
1.73314
1.72259
1.71442
1.70938
1.70665
1.70657
1.70712
1.70824
1.70895
1.70813
1.70614
1.70189
1.69712
1.69106
1.68542
1.67886
1.67338
1.66676
1.66174
1.65459
1.64929
1.64143
1.63614
1.62834
1.62386
1.61699
1.61416
1.60832
1.60942
2.03197
2.04249
2.04002
2.03199
2.01772
2.00286
1.98862
1.97418
1.96024
1.94644
1.93305
1.92053
1.90854
1.89831
1.88946
1.88635
1.88801
1.89977
1.92158
1.96002
2.03942
2.13667
2.2111
2.23113
2.21962
2.20351
2.17659
2.14693
2.12095
2.09865
2.07937
2.06156
2.04428
2.02647
2.008
1.98882
1.96929
1.9497
1.93021
1.9107
1.89124
1.87182
1.85266
1.8337
1.81519
1.79703
1.77932
1.762
1.74525
1.72885
1.71326
1.69809
1.68401
1.67069
1.65881
1.64678
1.63599
1.62667
1.61881
1.61284
1.61292
1.61412
1.61951
1.63267
1.6555
1.6818
1.71311
1.73228
1.74666
1.74412
1.73725
1.7268
1.71447
1.70367
1.69421
1.68766
1.68408
1.68231
1.68246
1.6832
1.68398
1.68321
1.68113
1.6786
1.6736
1.66923
1.66269
1.65752
1.65048
1.64569
1.63881
1.63398
1.62657
1.62145
1.61376
1.60905
1.60187
1.59895
1.59314
1.5943
2.00322
2.01896
2.0222
2.01612
2.01017
1.99794
1.98518
1.97218
1.9587
1.94545
1.93172
1.91918
1.90775
1.89982
1.89792
1.90423
1.91946
1.94949
2.00257
2.08606
2.18551
2.24218
2.25112
2.23542
2.21489
2.18551
2.15873
2.13499
2.11361
2.09357
2.07466
2.05636
2.03821
2.02004
2.00169
1.98314
1.96432
1.94517
1.92567
1.90623
1.887
1.86811
1.84943
1.83093
1.81276
1.79465
1.77694
1.7594
1.74234
1.72554
1.70929
1.69338
1.67802
1.66325
1.64908
1.63595
1.62392
1.61202
1.6008
1.59131
1.58361
1.57768
1.57768
1.5788
1.58368
1.59623
1.61899
1.64672
1.67985
1.70247
1.7147
1.71233
1.70596
1.69624
1.68526
1.67623
1.66857
1.66334
1.66047