/*--------------------------------*- C++ -*----------------------------------*\
  =========                 |
  \\      /  F ield         | OpenFOAM: The Open Source CFD Toolbox
   \\    /   O peration     | Website:  https://openfoam.org
    \\  /    A nd           | Version:  6
     \\/     M anipulation  |
\*---------------------------------------------------------------------------*/
FoamFile
{
    version     2.0;
    format      ascii;
    class       volVectorField;
    location    "3";
    object      U;
}
// * * * * * * * * * * * * * * * * * * * * * * * * * * * * * * * * * * * * * //

dimensions      [0 1 -1 0 0 0 0];

internalField   nonuniform List<vector> 
5250
(
(2.99996 3.97757e-08 0)
(2.99989 2.54944e-07 0)
(2.99971 7.93643e-07 0)
(2.99934 2.16398e-06 0)
(2.99838 5.01982e-06 0)
(2.99645 1.21252e-05 0)
(2.99108 2.61778e-05 0)
(2.98079 6.41849e-05 0)
(2.94914 0.000131471 0)
(2.87956 0.000352158 0)
(2.68607 0.000770447 0)
(2.0863 0.00213166 0)
(0.745888 0.00556343 0)
(-0.107324 0.013331 0)
(0.210701 0.0206896 0)
(0.503967 0.0265109 0)
(0.578187 0.0294874 0)
(0.524426 0.0315107 0)
(0.423646 0.0323799 0)
(0.328598 0.034485 0)
(0.265688 0.0377735 0)
(0.212489 0.0414584 0)
(0.154458 0.0454027 0)
(0.0920126 0.050599 0)
(0.0466109 0.0577977 0)
(2.99996 1.22633e-07 0)
(2.99989 7.87652e-07 0)
(2.99971 2.44986e-06 0)
(2.99934 6.69543e-06 0)
(2.99839 1.55267e-05 0)
(2.99647 3.76667e-05 0)
(2.99112 8.13035e-05 0)
(2.98087 0.000201126 0)
(2.94936 0.000410707 0)
(2.88009 0.00111632 0)
(2.68744 0.00246512 0)
(2.09042 0.00691075 0)
(0.7543 0.0182141 0)
(-0.0987919 0.0420796 0)
(0.219616 0.0611701 0)
(0.50988 0.0742686 0)
(0.579724 0.0794409 0)
(0.523991 0.0821694 0)
(0.42399 0.082452 0)
(0.331313 0.0856911 0)
(0.26877 0.090892 0)
(0.214281 0.0956396 0)
(0.154945 0.0993013 0)
(0.0909669 0.102956 0)
(0.0448621 0.10652 0)
(2.99996 2.11562e-07 0)
(2.99989 1.36073e-06 0)
(2.99971 4.23019e-06 0)
(2.99935 1.15833e-05 0)
(2.99841 2.68563e-05 0)
(2.9965 6.54129e-05 0)
(2.9912 0.000141119 0)
(2.98104 0.000353037 0)
(2.94984 0.000713413 0)
(2.88128 0.0019833 0)
(2.69056 0.00440225 0)
(2.10014 0.0124788 0)
(0.775292 0.0333845 0)
(-0.0758137 0.0750922 0)
(0.235346 0.104467 0)
(0.517613 0.123316 0)
(0.581193 0.13152 0)
(0.523129 0.136986 0)
(0.424658 0.140165 0)
(0.33595 0.147197 0)
(0.274256 0.156217 0)
(0.217963 0.164089 0)
(0.15668 0.169912 0)
(0.0904758 0.174463 0)
(0.0426846 0.176724 0)
(2.99996 3.05114e-07 0)
(2.99989 1.96421e-06 0)
(2.99972 6.10349e-06 0)
(2.99936 1.67361e-05 0)
(2.99843 3.87782e-05 0)
(2.99655 9.47713e-05 0)
(2.99133 0.000204341 0)
(2.9813 0.000510435 0)
(2.9506 0.0010601 0)
(2.88318 0.00281586 0)
(2.69561 0.00669605 0)
(2.11616 0.017277 0)
(0.81127 0.0495388 0)
(-0.0377486 0.109032 0)
(0.257882 0.147554 0)
(0.527741 0.170314 0)
(0.58441 0.181546 0)
(0.524999 0.190596 0)
(0.429084 0.198656 0)
(0.344727 0.210413 0)
(0.283796 0.223688 0)
(0.225697 0.235701 0)
(0.162177 0.245353 0)
(0.0930888 0.252816 0)
(0.042154 0.256446 0)
(2.99997 4.03774e-07 0)
(2.99989 2.60152e-06 0)
(2.99972 8.08044e-06 0)
(2.99937 2.21823e-05 0)
(2.99846 5.13721e-05 0)
(2.99662 0.000125883 0)
(2.9915 0.000271533 0)
(2.98169 0.000671407 0)
(2.9516 0.00146529 0)
(2.88599 0.00357747 0)
(2.70188 0.00941068 0)
(2.137 0.0210291 0)
(0.862349 0.0662734 0)
(0.0116159 0.144206 0)
(0.285012 0.19277 0)
(0.539537 0.215981 0)
(0.589211 0.229521 0)
(0.53004 0.24215 0)
(0.437725 0.255876 0)
(0.357408 0.272854 0)
(0.297216 0.290811 0)
(0.237617 0.307506 0)
(0.172097 0.321834 0)
(0.0998285 0.333368 0)
(0.0439956 0.339617 0)
(2.99997 5.0953e-07 0)
(2.9999 3.28353e-06 0)
(2.99973 1.01984e-05 0)
(2.99939 2.8004e-05 0)
(2.9985 6.48572e-05 0)
(2.9967 0.000159 0)
(2.99173 0.000343026 0)
(2.98221 0.000846949 0)
(2.95282 0.00186131 0)
(2.88982 0.00448907 0)
(2.70932 0.0119312 0)
(2.16297 0.0261849 0)
(0.931141 0.0829817 0)
(0.0758421 0.180755 0)
(0.315785 0.240156 0)
(0.548813 0.260752 0)
(0.594686 0.276129 0)
(0.5382 0.292431 0)
(0.450883 0.312407 0)
(0.374456 0.335362 0)
(0.315123 0.359043 0)
(0.254349 0.381771 0)
(0.186748 0.402268 0)
(0.110564 0.419336 0)
(0.048128 0.429192 0)
(2.99997 6.22842e-07 0)
(2.9999 4.01347e-06 0)
(2.99974 1.24678e-05 0)
(2.99941 3.42317e-05 0)
(2.99855 7.93186e-05 0)
(2.99681 0.000194323 0)
(2.99201 0.000419543 0)
(2.98284 0.00103437 0)
(2.95437 0.00226938 0)
(2.89441 0.00550165 0)
(2.7189 0.0143017 0)
(2.19561 0.0324416 0)
(1.01631 0.0983745 0)
(0.156379 0.217427 0)
(0.351273 0.288255 0)
(0.556708 0.30586 0)
(0.601601 0.322466 0)
(0.550278 0.34209 0)
(0.469565 0.368525 0)
(0.397097 0.398041 0)
(0.339114 0.428548 0)
(0.278188 0.45912 0)
(0.208751 0.48865 0)
(0.127226 0.51499 0)
(0.0553498 0.531806 0)
(2.99997 7.43248e-07 0)
(2.9999 4.78384e-06 0)
(2.99975 1.48698e-05 0)
(2.99943 4.07556e-05 0)
(2.99861 9.45218e-05 0)
(2.99695 0.000230546 0)
(2.99234 0.00049829 0)
(2.98362 0.0012254 0)
(2.95622 0.00262605 0)
(2.89987 0.00662737 0)
(2.73035 0.0159725 0)
(2.23404 0.040153 0)
(1.11479 0.111959 0)
(0.251349 0.254114 0)
(0.391375 0.336444 0)
(0.564099 0.350947 0)
(0.610257 0.368349 0)
(0.566667 0.390909 0)
(0.494474 0.423624 0)
(0.426707 0.460415 0)
(0.371209 0.499394 0)
(0.311974 0.539909 0)
(0.2428 0.58251 0)
(0.155918 0.625388 0)
(0.0697157 0.658176 0)
(2.99997 8.76964e-07 0)
(2.99991 5.63875e-06 0)
(2.99976 1.75353e-05 0)
(2.99946 4.79881e-05 0)
(2.99868 0.000111367 0)
(2.9971 0.000270596 0)
(2.99274 0.0005852 0)
(2.98446 0.00143674 0)
(2.95849 0.00300837 0)
(2.90551 0.00787234 0)
(2.74482 0.0177282 0)
(2.27975 0.0485095 0)
(1.22105 0.126792 0)
(0.358382 0.293556 0)
(0.434352 0.381038 0)
(0.570084 0.394677 0)
(0.62041 0.41275 0)
(0.587188 0.43895 0)
(0.52598 0.47649 0)
(0.464898 0.521223 0)
(0.414136 0.569321 0)
(0.360385 0.622286 0)
(0.297285 0.684813 0)
(0.209096 0.756513 0)
(0.101387 0.831905 0)
(2.99997 1.03206e-06 0)
(2.99992 6.63902e-06 0)
(2.99978 2.06465e-05 0)
(2.99949 5.65437e-05 0)
(2.99877 0.000131279 0)
(2.99729 0.00031935 0)
(2.9932 0.000691283 0)
(2.98545 0.00169404 0)
(2.96114 0.00358387 0)
(2.91208 0.00922377 0)
(2.76163 0.0210523 0)
(2.33225 0.0565997 0)
(1.34089 0.146987 0)
(0.472579 0.343082 0)
(0.476117 0.415931 0)
(0.577136 0.434762 0)
(0.633005 0.453875 0)
(0.611319 0.485207 0)
(0.563294 0.52588 0)
(0.511951 0.577639 0)
(0.469483 0.634909 0)
(0.430133 0.703714 0)
(0.385855 0.792598 0)
(0.31715 0.912167 0)
(0.181486 1.10525 0)
(2.99997 1.20068e-06 0)
(2.99992 7.72666e-06 0)
(2.9998 2.4031e-05 0)
(2.99953 6.58649e-05 0)
(2.99886 0.000153018 0)
(2.9975 0.000372679 0)
(2.99375 0.000807334 0)
(2.98665 0.00198819 0)
(2.96425 0.00415101 0)
(2.91999 0.0108443 0)
(2.7813 0.0246803 0)
(2.39389 0.0661056 0)
(1.48692 0.169972 0)
(0.592026 0.401857 0)
(0.512686 0.447605 0)
(0.592964 0.468618 0)
(0.651309 0.487394 0)
(0.640565 0.52339 0)
(0.605571 0.568076 0)
(0.568063 0.625642 0)
(0.540725 0.693532 0)
(0.526357 0.77812 0)
(0.525466 0.887199 0)
(0.560705 1.03377 0)
(0.605425 1.24825 0)
(2.99998 1.36566e-06 0)
(2.99993 8.80278e-06 0)
(2.99982 2.73854e-05 0)
(2.99958 7.52675e-05 0)
(2.99898 0.000175229 0)
(2.99775 0.000428601 0)
(2.99439 0.000932054 0)
(2.98799 0.00229929 0)
(2.96792 0.00485005 0)
(2.92906 0.0123566 0)
(2.80428 0.0291271 0)
(2.46516 0.074598 0)
(1.66011 0.190528 0)
(0.722676 0.464379 0)
(0.542616 0.483458 0)
(0.610153 0.496456 0)
(0.673504 0.512888 0)
(0.676439 0.552436 0)
(0.654495 0.603065 0)
(0.633742 0.66523 0)
(0.626297 0.740633 0)
(0.638696 0.83173 0)
(0.676847 0.942774 0)
(0.77778 1.07725 0)
(0.933239 1.22275 0)
(2.99998 1.45509e-06 0)
(2.99994 9.37999e-06 0)
(2.99984 2.91884e-05 0)
(2.99963 8.02503e-05 0)
(2.99911 0.000187009 0)
(2.99804 0.00045742 0)
(2.99512 0.000995928 0)
(2.98962 0.00246726 0)
(2.97197 0.00509741 0)
(2.94007 0.0136887 0)
(2.82949 0.0300098 0)
(2.54339 0.0852484 0)
(1.85173 0.206926 0)
(0.856458 0.529624 0)
(0.563822 0.520408 0)
(0.62732 0.520339 0)
(0.70026 0.534727 0)
(0.719959 0.576643 0)
(0.709936 0.631692 0)
(0.70373 0.695477 0)
(0.714148 0.770317 0)
(0.747517 0.856388 0)
(0.809383 0.953821 0)
(0.924959 1.05831 0)
(1.09344 1.13842 0)
(2.99998 1.44193e-06 0)
(2.99995 9.29148e-06 0)
(2.99986 2.89111e-05 0)
(2.99969 7.94665e-05 0)
(2.99924 0.00018501 0)
(2.99833 0.000452724 0)
(2.99586 0.00098041 0)
(2.9911 0.0024529 0)
(2.97656 0.00491055 0)
(2.94955 0.0142586 0)
(2.85953 0.0277227 0)
(2.63174 0.0913445 0)
(2.06567 0.212474 0)
(1.01716 0.577897 0)
(0.604251 0.564523 0)
(0.660792 0.556266 0)
(0.741293 0.563171 0)
(0.77409 0.601023 0)
(0.772187 0.654739 0)
(0.774524 0.716003 0)
(0.796022 0.784263 0)
(0.841312 0.859108 0)
(0.913345 0.93768 0)
(1.02544 1.01381 0)
(1.17744 1.06389 0)
(2.99999 1.32244e-06 0)
(2.99996 8.51172e-06 0)
(2.99989 2.6486e-05 0)
(2.99974 7.26395e-05 0)
(2.99937 0.000169015 0)
(2.99861 0.000411667 0)
(2.99659 0.000891399 0)
(2.9926 0.00218771 0)
(2.98109 0.0045307 0)
(2.95868 0.012178 0)
(2.88956 0.0246454 0)
(2.71989 0.0746595 0)
(2.29305 0.174514 0)
(1.23677 0.497034 0)
(0.710196 0.570716 0)
(0.730531 0.594873 0)
(0.801116 0.599934 0)
(0.840712 0.629591 0)
(0.842331 0.67628 0)
(0.846608 0.730628 0)
(0.871398 0.789365 0)
(0.920105 0.851263 0)
(0.992948 0.912731 0)
(1.09572 0.967894 0)
(1.22762 1.00232 0)
(2.99999 1.15495e-06 0)
(2.99996 7.41739e-06 0)
(2.99991 2.3088e-05 0)
(2.99978 6.30484e-05 0)
(2.99948 0.000146711 0)
(2.99884 0.000353735 0)
(2.99717 0.000770247 0)
(2.99385 0.00183713 0)
(2.98429 0.00391797 0)
(2.96591 0.00951795 0)
(2.90858 0.0212556 0)
(2.77123 0.0534724 0)
(2.41196 0.128551 0)
(1.41585 0.348666 0)
(0.782424 0.57973 0)
(0.771654 0.638555 0)
(0.836567 0.653712 0)
(0.893144 0.667888 0)
(0.905386 0.701252 0)
(0.913363 0.744956 0)
(0.939072 0.79276 0)
(0.986948 0.842099 0)
(1.05581 0.889583 0)
(1.14737 0.930103 0)
(1.26083 0.955159 0)
(2.99999 1.02716e-06 0)
(2.99997 6.5997e-06 0)
(2.99992 2.0545e-05 0)
(2.99982 5.61441e-05 0)
(2.99957 0.000130717 0)
(2.99905 0.000315506 0)
(2.99768 0.000687806 0)
(2.99498 0.00164169 0)
(2.98704 0.00350907 0)
(2.97275 0.00853911 0)
(2.92415 0.0189696 0)
(2.81622 0.0474795 0)
(2.51462 0.115841 0)
(1.6289 0.310572 0)
(0.918067 0.631812 0)
(0.806633 0.682138 0)
(0.853161 0.701993 0)
(0.915655 0.702884 0)
(0.948609 0.723443 0)
(0.967087 0.757133 0)
(0.995934 0.795492 0)
(1.04283 0.834281 0)
(1.10696 0.870665 0)
(1.18839 0.901 0)
(1.28619 0.920018 0)
(2.99999 9.18292e-07 0)
(2.99998 5.90578e-06 0)
(2.99994 1.83846e-05 0)
(2.99986 5.03336e-05 0)
(2.99966 0.000117235 0)
(2.99924 0.000284074 0)
(2.99814 0.000618405 0)
(2.99599 0.00148949 0)
(2.98964 0.00315817 0)
(2.97843 0.00802858 0)
(2.93947 0.0165619 0)
(2.85804 0.0462808 0)
(2.61963 0.106547 0)
(1.89369 0.30487 0)
(1.11286 0.682985 0)
(0.85286 0.714477 0)
(0.874879 0.727528 0)
(0.933525 0.72371 0)
(0.982152 0.734977 0)
(1.01145 0.762106 0)
(1.04369 0.79461 0)
(1.08913 0.826422 0)
(1.14878 0.855061 0)
(1.22204 0.878338 0)
(1.30731 0.893003 0)
(2.99999 7.94268e-07 0)
(2.99998 5.1079e-06 0)
(2.99995 1.58991e-05 0)
(2.99989 4.35303e-05 0)
(2.99973 0.000101353 0)
(2.99941 0.00024569 0)
(2.99857 0.000533802 0)
(2.9969 0.00128887 0)
(2.99211 0.00271422 0)
(2.98356 0.00701432 0)
(2.95472 0.0138815 0)
(2.89675 0.0405674 0)
(2.72474 0.090726 0)
(2.20943 0.261202 0)
(1.38551 0.642319 0)
(0.967467 0.725357 0)
(0.937712 0.741815 0)
(0.971853 0.74147 0)
(1.02293 0.743943 0)
(1.05876 0.764566 0)
(1.09107 0.792139 0)
(1.13257 0.819112 0)
(1.18625 0.84259 0)
(1.25149 0.860904 0)
(1.32624 0.872234 0)
(3 6.57919e-07 0)
(2.99999 4.22792e-06 0)
(2.99996 1.31633e-05 0)
(2.99992 3.59856e-05 0)
(2.9998 8.38458e-05 0)
(2.99955 0.000202415 0)
(2.99891 0.000441339 0)
(2.99763 0.00105275 0)
(2.99409 0.00223905 0)
(2.98741 0.00555213 0)
(2.96651 0.0114215 0)
(2.92621 0.0302793 0)
(2.79798 0.069319 0)
(2.4483 0.186026 0)
(1.70822 0.477975 0)
(1.09038 0.729671 0)
(1.00372 0.759803 0)
(1.01786 0.768939 0)
(1.06493 0.765129 0)
(1.10701 0.775894 0)
(1.13892 0.795596 0)
(1.17551 0.816493 0)
(1.22235 0.834835 0)
(1.27943 0.848859 0)
(1.34482 0.857196 0)
(3 5.2596e-07 0)
(2.99999 3.37693e-06 0)
(2.99997 1.05149e-05 0)
(2.99994 2.86987e-05 0)
(2.99985 6.68467e-05 0)
(2.99967 0.000160825 0)
(2.99919 0.000350659 0)
(2.99826 0.000830658 0)
(2.99562 0.00176866 0)
(2.99093 0.00431295 0)
(2.97475 0.00891227 0)
(2.94751 0.0235546 0)
(2.84857 0.0501784 0)
(2.60027 0.14526 0)
(2.01608 0.351501 0)
(1.24451 0.763724 0)
(1.04612 0.79967 0)
(1.04922 0.806487 0)
(1.09282 0.798317 0)
(1.14383 0.7948 0)
(1.17993 0.804524 0)
(1.21453 0.818761 0)
(1.25605 0.832022 0)
(1.30604 0.842119 0)
(1.3633 0.847854 0)
(3 4.10003e-07 0)
(2.99999 2.62945e-06 0)
(2.99998 8.18593e-06 0)
(2.99995 2.23012e-05 0)
(2.99989 5.18658e-05 0)
(2.99975 0.00012444 0)
(2.9994 0.0002702 0)
(2.9987 0.000639191 0)
(2.9968 0.00134788 0)
(2.99314 0.00334125 0)
(2.98217 0.00656026 0)
(2.9619 0.0188573 0)
(2.89593 0.0364869 0)
(2.73565 0.115307 0)
(2.33714 0.267557 0)
(1.50352 0.691573 0)
(1.13507 0.808846 0)
(1.09901 0.826644 0)
(1.12413 0.826644 0)
(1.17418 0.815869 0)
(1.21741 0.815877 0)
(1.25202 0.823531 0)
(1.28914 0.8323 0)
(1.33299 0.838975 0)
(1.38313 0.842374 0)
(3 3.19798e-07 0)
(2.99999 2.05264e-06 0)
(2.99999 6.39152e-06 0)
(2.99997 1.74325e-05 0)
(2.99992 4.0601e-05 0)
(2.99982 9.75331e-05 0)
(2.99957 0.000212732 0)
(2.99907 0.000502209 0)
(2.99772 0.00107073 0)
(2.9951 0.0025735 0)
(2.98747 0.00541972 0)
(2.9732 0.0136529 0)
(2.92818 0.0290042 0)
(2.82427 0.0778039 0)
(2.55043 0.186928 0)
(1.80403 0.501925 0)
(1.26462 0.794267 0)
(1.15317 0.836613 0)
(1.15917 0.849949 0)
(1.19999 0.841522 0)
(1.24778 0.831908 0)
(1.28558 0.831656 0)
(1.32054 0.835616 0)
(1.35935 0.839181 0)
(1.40348 0.840334 0)
(3 2.43149e-07 0)
(3 1.56004e-06 0)
(2.99999 4.85596e-06 0)
(2.99998 1.32314e-05 0)
(2.99994 3.07961e-05 0)
(2.99988 7.38457e-05 0)
(2.9997 0.000160898 0)
(2.99935 0.000378736 0)
(2.99842 0.000805838 0)
(2.99662 0.00192906 0)
(2.99127 0.0040425 0)
(2.98213 0.0101464 0)
(2.94953 0.02116 0)
(2.88595 0.0566545 0)
(2.69244 0.132787 0)
(2.12221 0.368719 0)
(1.4808 0.770775 0)
(1.22506 0.853059 0)
(1.20133 0.868901 0)
(1.22303 0.865838 0)
(1.26866 0.851803 0)
(1.31278 0.844112 0)
(1.34937 0.842384 0)
(1.3853 0.842584 0)
(1.42459 0.841887 0)
(3 1.69129e-07 0)
(3 1.19287e-06 0)
(2.99999 3.49158e-06 0)
(2.99998 1.00258e-05 0)
(2.99996 2.21096e-05 0)
(2.99991 5.59039e-05 0)
(2.9998 0.0001147 0)
(2.99956 0.000287052 0)
(2.99893 0.000567224 0)
(2.9977 0.00146761 0)
(2.99423 0.00276378 0)
(2.9878 0.00788318 0)
(2.96758 0.0133108 0)
(2.92845 0.045267 0)
(2.80729 0.0816111 0)
(2.47099 0.27263 0)
(1.82169 0.611347 0)
(1.34896 0.847499 0)
(1.26314 0.878604 0)
(1.26173 0.884859 0)
(1.29424 0.873856 0)
(1.33816 0.859515 0)
(1.37612 0.85274 0)
(1.41104 0.849383 0)
(1.44691 0.846654 0)
(3 1.20185e-07 0)
(3 8.41157e-07 0)
(3 2.47353e-06 0)
(2.99999 7.06763e-06 0)
(2.99998 1.56409e-05 0)
(2.99994 3.92923e-05 0)
(2.99987 8.0971e-05 0)
(2.99969 0.000200727 0)
(2.99934 0.000399972 0)
(2.99838 0.0010154 0)
(2.99657 0.00196324 0)
(2.99104 0.00525279 0)
(2.98174 0.00970136 0)
(2.94855 0.0285979 0)
(2.88252 0.0542909 0)
(2.68172 0.16466 0)
(2.13436 0.406733 0)
(1.54943 0.804616 0)
(1.32725 0.886059 0)
(1.30122 0.899482 0)
(1.31704 0.895391 0)
(1.35772 0.879199 0)
(1.40016 0.867376 0)
(1.43543 0.860308 0)
(1.46911 0.854967 0)
(3 9.43714e-08 0)
(3 5.40426e-07 0)
(3 1.81453e-06 0)
(2.99999 4.61986e-06 0)
(2.99998 1.14746e-05 0)
(2.99996 2.55573e-05 0)
(2.99992 5.99257e-05 0)
(2.9998 0.00012875 0)
(2.99956 0.000301187 0)
(2.99894 0.000637179 0)
(2.99774 0.00152032 0)
(2.99433 0.00317037 0)
(2.98803 0.00794747 0)
(2.96845 0.0162422 0)
(2.92945 0.0431267 0)
(2.81402 0.0987007 0)
(2.48761 0.268678 0)
(1.88523 0.63243 0)
(1.45617 0.858492 0)
(1.36646 0.898407 0)
(1.35818 0.907646 0)
(1.38365 0.899212 0)
(1.42397 0.882968 0)
(1.45993 0.872437 0)
(1.49187 0.864779 0)
(3 6.42221e-08 0)
(3 3.67868e-07 0)
(3 1.23425e-06 0)
(3 3.13873e-06 0)
(2.99999 7.77646e-06 0)
(2.99998 1.72903e-05 0)
(2.99995 4.03441e-05 0)
(2.99988 8.65162e-05 0)
(2.99973 0.000200728 0)
(2.99935 0.000423803 0)
(2.99866 0.000996394 0)
(2.9965 0.002079 0)
(2.99317 0.0050485 0)
(2.97973 0.0103736 0)
(2.96015 0.0268494 0)
(2.87992 0.0574682 0)
(2.69487 0.160605 0)
(2.25932 0.387444 0)
(1.62739 0.800882 0)
(1.41816 0.901028 0)
(1.39017 0.919352 0)
(1.40218 0.920327 0)
(1.43821 0.905124 0)
(1.47888 0.887965 0)
(1.51223 0.876444 0)
(3 4.41543e-08 0)
(3 2.37904e-07 0)
(3 8.31167e-07 0)
(3 2.03796e-06 0)
(2.99999 5.21483e-06 0)
(2.99998 1.11651e-05 0)
(2.99997 2.69436e-05 0)
(2.99992 5.52683e-05 0)
(2.99983 0.000133508 0)
(2.99958 0.000266343 0)
(2.9991 0.000665455 0)
(2.99777 0.00124696 0)
(2.99528 0.00350345 0)
(2.98779 0.00570865 0)
(2.97363 0.0197968 0)
(2.93025 0.0301005 0)
(2.83035 0.114113 0)
(2.57216 0.227535 0)
(1.94427 0.625207 0)
(1.55017 0.864459 0)
(1.448 0.917644 0)
(1.43642 0.93043 0)
(1.45343 0.925607 0)
(1.49024 0.908281 0)
(1.52857 0.893108 0)
(3 2.80423e-08 0)
(3 1.60599e-07 0)
(3 5.39134e-07 0)
(3 1.37146e-06 0)
(3 3.40237e-06 0)
(2.99999 7.57097e-06 0)
(2.99998 1.77122e-05 0)
(2.99996 3.80694e-05 0)
(2.9999 8.86862e-05 0)
(2.99978 0.000188291 0)
(2.99946 0.00044306 0)
(2.99891 0.000940484 0)
(2.99703 0.00222731 0)
(2.99438 0.00476266 0)
(2.98263 0.0113588 0)
(2.96599 0.025179 0)
(2.89707 0.0604058 0)
(2.74721 0.150918 0)
(2.36466 0.360945 0)
(1.75415 0.779104 0)
(1.51576 0.907775 0)
(1.47128 0.934566 0)
(1.47405 0.939535 0)
(1.50099 0.929752 0)
(1.53912 0.911718 0)
(3 1.49852e-08 0)
(3 1.01115e-07 0)
(3 3.03371e-07 0)
(3 8.44305e-07 0)
(3 1.89083e-06 0)
(2.99999 4.58839e-06 0)
(2.99999 9.5355e-06 0)
(2.99997 2.26146e-05 0)
(2.99994 4.54123e-05 0)
(2.99987 0.000109289 0)
(2.99972 0.000212195 0)
(2.99929 0.000539316 0)
(2.99862 0.000971052 0)
(2.996 0.00284074 0)
(2.99249 0.00462303 0)
(2.97629 0.0162044 0)
(2.95234 0.0267552 0)
(2.85823 0.0933878 0)
(2.63284 0.208629 0)
(2.14768 0.533138 0)
(1.66284 0.861221 0)
(1.5281 0.933527 0)
(1.50553 0.948056 0)
(1.5147 0.947112 0)
(1.54515 0.932126 0)
(3 9.83901e-09 0)
(3 5.64996e-08 0)
(3 1.88195e-07 0)
(3 4.77555e-07 0)
(3 1.16635e-06 0)
(3 2.57254e-06 0)
(2.99999 5.87372e-06 0)
(2.99998 1.24382e-05 0)
(2.99996 2.809e-05 0)
(2.99991 5.83829e-05 0)
(2.99982 0.000134224 0)
(2.99955 0.00026857 0)
(2.99906 0.000670076 0)
(2.99763 0.00123641 0)
(2.9951 0.00361154 0)
(2.98682 0.00638353 0)
(2.97285 0.0208431 0)
(2.92523 0.0398113 0)
(2.81666 0.125383 0)
(2.54564 0.296121 0)
(1.9621 0.686504 0)
(1.63501 0.891874 0)
(1.55582 0.941017 0)
(1.54417 0.952378 0)
(1.55647 0.948697 0)
(3 6.22546e-09 0)
(3 3.56977e-08 0)
(3 1.19448e-07 0)
(3 3.03433e-07 0)
(3 7.47546e-07 0)
(3 1.65655e-06 0)
(3 3.83577e-06 0)
(2.99999 8.19791e-06 0)
(2.99998 1.88667e-05 0)
(2.99995 3.9842e-05 0)
(2.99989 9.27119e-05 0)
(2.99974 0.00019455 0)
(2.99946 0.000460718 0)
(2.99865 0.000961443 0)
(2.99722 0.0023345 0)
(2.99268 0.00481602 0)
(2.98506 0.0122314 0)
(2.95887 0.0253814 0)
(2.90611 0.0661236 0)
(2.75513 0.154931 0)
(2.33811 0.395469 0)
(1.86798 0.75638 0)
(1.64429 0.897609 0)
(1.59152 0.937001 0)
(1.58451 0.948515 0)
(3 3.78159e-09 0)
(3 2.16864e-08 0)
(3 7.2478e-08 0)
(3 1.83986e-07 0)
(3 4.5232e-07 0)
(3 1.00101e-06 0)
(3 2.30951e-06 0)
(2.99999 4.92569e-06 0)
(2.99999 1.12687e-05 0)
(2.99997 2.37237e-05 0)
(2.99994 5.46954e-05 0)
(2.99987 0.000114295 0)
(2.99973 0.000267297 0)
(2.99931 0.000552878 0)
(2.99866 0.00132881 0)
(2.99622 0.00268798 0)
(2.99316 0.00684276 0)
(2.97766 0.013645 0)
(2.95683 0.036869 0)
(2.87155 0.0803787 0)
(2.65972 0.224825 0)
(2.23772 0.520973 0)
(1.79405 0.83063 0)
(1.65167 0.924769 0)
(1.61892 0.949207 0)
(3 2.2649e-09 0)
(3 1.25202e-08 0)
(3 4.2815e-08 0)
(3 1.06318e-07 0)
(3 2.65515e-07 0)
(3 5.74232e-07 0)
(3 1.34289e-06 0)
(3 2.78835e-06 0)
(2.99999 6.465e-06 0)
(2.99999 1.31802e-05 0)
(2.99997 3.08288e-05 0)
(2.99992 6.19445e-05 0)
(2.99984 0.000148097 0)
(2.99961 0.000286476 0)
(2.99919 0.000734263 0)
(2.99793 0.0013004 0)
(2.9958 0.00388423 0)
(2.98862 0.00605362 0)
(2.9766 0.0220692 0)
(2.93587 0.0350433 0)
(2.84653 0.124481 0)
(2.61697 0.262453 0)
(2.10636 0.643504 0)
(1.78229 0.873387 0)
(1.67551 0.941257 0)
(3 1.29335e-09 0)
(3 7.40849e-09 0)
(3 2.47575e-08 0)
(3 6.283e-08 0)
(3 1.54356e-07 0)
(3 3.41389e-07 0)
(3 7.87135e-07 0)
(3 1.6785e-06 0)
(3 3.84064e-06 0)
(2.99999 8.1023e-06 0)
(2.99998 1.86691e-05 0)
(2.99997 3.93754e-05 0)
(2.99992 9.1341e-05 0)
(2.99984 0.000193507 0)
(2.9996 0.000453931 0)
(2.99924 0.000952754 0)
(2.99777 0.0022885 0)
(2.99599 0.00472008 0)
(2.98687 0.0115768 0)
(2.97509 0.0241329 0)
(2.92331 0.058599 0)
(2.82127 0.14001 0)
(2.55574 0.322203 0)
(2.03856 0.710607 0)
(1.77405 0.892526 0)
(3 6.20417e-10 0)
(3 4.04304e-09 0)
(3 1.2365e-08 0)
(3 3.35756e-08 0)
(3 7.61381e-08 0)
(3 1.78964e-07 0)
(3 3.76398e-07 0)
(3 8.56589e-07 0)
(3 1.75154e-06 0)
(3 3.98588e-06 0)
(2.99999 8.00949e-06 0)
(2.99999 1.84596e-05 0)
(2.99997 3.63221e-05 0)
(2.99994 8.64209e-05 0)
(2.99989 0.00016193 0)
(2.99968 0.000419935 0)
(2.99949 0.000716985 0)
(2.998 0.00218627 0)
(2.99672 0.00344129 0)
(2.98545 0.0122685 0)
(2.97377 0.0200711 0)
(2.90777 0.0685391 0)
(2.78718 0.143835 0)
(2.48922 0.368308 0)
(1.981 0.735421 0)
(3 3.28209e-10 0)
(3 1.84213e-09 0)
(3 6.19145e-09 0)
(3 1.5366e-08 0)
(3 3.72557e-08 0)
(3 7.95314e-08 0)
(3 1.77739e-07 0)
(3 3.59347e-07 0)
(3 7.85814e-07 0)
(3 1.53177e-06 0)
(3 3.38341e-06 0)
(2.99999 6.2097e-06 0)
(2.99998 1.45077e-05 0)
(2.99996 2.3987e-05 0)
(2.99991 6.14674e-05 0)
(2.99976 8.89501e-05 0)
(2.99952 0.000283772 0)
(2.99871 0.000350234 0)
(2.99743 0.00172684 0)
(2.99266 0.00215961 0)
(2.98552 0.0126713 0)
(2.95818 0.018896 0)
(2.90656 0.0822383 0)
(2.76074 0.158941 0)
(2.37612 0.45017 0)
(3 1.70297e-10 0)
(3 9.79667e-10 0)
(3 3.24594e-09 0)
(3 8.21133e-09 0)
(3 1.98069e-08 0)
(3 4.33233e-08 0)
(3 9.71589e-08 0)
(3 2.03701e-07 0)
(3 4.51308e-07 0)
(3 9.33504e-07 0)
(3 2.08968e-06 0)
(3 4.30571e-06 0)
(2.99999 9.83809e-06 0)
(2.99998 2.0258e-05 0)
(2.99995 4.75452e-05 0)
(2.9999 9.74861e-05 0)
(2.99974 0.000237719 0)
(2.99948 0.000480336 0)
(2.99857 0.00123559 0)
(2.99723 0.00243545 0)
(2.99194 0.00664719 0)
(2.98421 0.0129958 0)
(2.95432 0.0360503 0)
(2.89976 0.0781332 0)
(2.73567 0.199811 0)
(3 8.40449e-11 0)
(3 5.30064e-10 0)
(3 1.65401e-09 0)
(3 4.40635e-09 0)
(3 1.01369e-08 0)
(3 2.33673e-08 0)
(3 4.98512e-08 0)
(3 1.11234e-07 0)
(3 2.31834e-07 0)
(3 5.18209e-07 0)
(3 1.07221e-06 0)
(3 2.42758e-06 0)
(3 5.03484e-06 0)
(2.99999 1.15233e-05 0)
(2.99998 2.40385e-05 0)
(2.99995 5.56838e-05 0)
(2.99989 0.000115074 0)
(2.99972 0.000277563 0)
(2.99945 0.000550558 0)
(2.99846 0.00143017 0)
(2.99712 0.00275153 0)
(2.99134 0.00743381 0)
(2.98334 0.0146368 0)
(2.95166 0.0389721 0)
(2.89231 0.0855534 0)
(3 4.57329e-11 0)
(3 2.63188e-10 0)
(3 8.72936e-10 0)
(3 2.20949e-09 0)
(3 5.34483e-09 0)
(3 1.17118e-08 0)
(3 2.63818e-08 0)
(3 5.54479e-08 0)
(3 1.23401e-07 0)
(3 2.55867e-07 0)
(3 5.73354e-07 0)
(3 1.18614e-06 0)
(3 2.68293e-06 0)
(3 5.57413e-06 0)
(2.99999 1.27024e-05 0)
(2.99998 2.63076e-05 0)
(2.99996 6.12618e-05 0)
(2.99991 0.000123948 0)
(2.99977 0.000301795 0)
(2.99957 0.000579698 0)
(2.99858 0.00153736 0)
(2.9976 0.00285865 0)
(2.99114 0.00794739 0)
(2.98414 0.0152195 0)
(2.95022 0.0407785 0)
(3 2.0696e-11 0)
(3 1.29802e-10 0)
(3 4.05315e-10 0)
(3 1.07231e-09 0)
(3 2.45807e-09 0)
(3 5.5919e-09 0)
(3 1.18377e-08 0)
(3 2.5854e-08 0)
(3 5.32021e-08 0)
(3 1.15278e-07 0)
(3 2.34053e-07 0)
(3 5.1146e-07 0)
(3 1.01374e-06 0)
(3 2.30575e-06 0)
(3 4.33285e-06 0)
(2.99999 1.07051e-05 0)
(2.99999 1.92126e-05 0)
(2.99996 4.94109e-05 0)
(2.99992 9.32863e-05 0)
(2.99979 0.000234952 0)
(2.99961 0.000423381 0)
(2.99863 0.00134317 0)
(2.99766 0.00225237 0)
(2.99117 0.00775926 0)
(2.98424 0.0137296 0)
(3 9.85537e-12 0)
(3 5.70137e-11 0)
(3 1.87204e-10 0)
(3 4.72653e-10 0)
(3 1.12229e-09 0)
(3 2.43303e-09 0)
(3 5.31418e-09 0)
(3 1.09663e-08 0)
(3 2.33656e-08 0)
(3 4.7237e-08 0)
(3 1.00586e-07 0)
(3 1.98871e-07 0)
(3 4.36139e-07 0)
(3 8.22947e-07 0)
(3 1.94878e-06 0)
(3 3.4428e-06 0)
(2.99999 8.89583e-06 0)
(2.99999 1.55288e-05 0)
(2.99996 4.20543e-05 0)
(2.99993 7.96934e-05 0)
(2.9998 0.0002052 0)
(2.99966 0.000357488 0)
(2.99869 0.00122801 0)
(2.99781 0.00209615 0)
(2.99128 0.00750105 0)
(3 4.02422e-12 0)
(3 2.52899e-11 0)
(3 7.84754e-11 0)
(3 2.0641e-10 0)
(3 4.6753e-10 0)
(3 1.04527e-09 0)
(3 2.17177e-09 0)
(3 4.6134e-09 0)
(3 9.25553e-09 0)
(3 1.94334e-08 0)
(3 3.79489e-08 0)
(3 8.13986e-08 0)
(3 1.5218e-07 0)
(3 3.50345e-07 0)
(3 6.03679e-07 0)
(3 1.56648e-06 0)
(3 2.49468e-06 0)
(2.99999 7.55419e-06 0)
(2.99999 1.18524e-05 0)
(2.99996 3.80339e-05 0)
(2.99992 6.87374e-05 0)
(2.9998 0.000192923 0)
(2.99966 0.000301129 0)
(2.99876 0.00117777 0)
(2.99798 0.00170315 0)
(3 1.73181e-12 0)
(3 1.01129e-11 0)
(3 3.28082e-11 0)
(3 8.27369e-11 0)
(3 1.92739e-10 0)
(3 4.1333e-10 0)
(3 8.75122e-10 0)
(3 1.77129e-09 0)
(3 3.62555e-09 0)
(3 7.08967e-09 0)
(3 1.45767e-08 0)
(3 2.73785e-08 0)
(3 5.89185e-08 0)
(3 1.04841e-07 0)
(3 2.39767e-07 0)
(3 4.259e-07 0)
(3 1.03511e-06 0)
(3 1.71737e-06 0)
(3 5.53366e-06 0)
(2.99999 9.18445e-06 0)
(2.99997 3.26001e-05 0)
(2.99992 7.06899e-05 0)
(2.99985 0.000165599 0)
(2.99946 0.000278508 0)
(2.999 0.000905936 0)
(3 7.1793e-13 0)
(3 4.17922e-12 0)
(3 1.35745e-11 0)
(3 3.41732e-11 0)
(3 7.95581e-11 0)
(3 1.70322e-10 0)
(3 3.61037e-10 0)
(3 7.31016e-10 0)
(3 1.50252e-09 0)
(3 2.97883e-09 0)
(3 6.07474e-09 0)
(3 1.19409e-08 0)
(3 2.4529e-08 0)
(3 4.66195e-08 0)
(3 1.02384e-07 0)
(3 1.74432e-07 0)
(3 4.45408e-07 0)
(3 7.374e-07 0)
(3 1.69496e-06 0)
(2.99999 2.45621e-06 0)
(2.99999 6.34003e-06 0)
(2.99995 9.01732e-07 0)
(2.9999 3.85088e-05 0)
(2.99965 8.78971e-05 0)
(2.9994 0.000153381 0)
(3 3.13713e-13 0)
(3 1.81435e-12 0)
(3 5.94059e-12 0)
(3 1.4958e-11 0)
(3 3.52539e-11 0)
(3 7.60227e-11 0)
(3 1.64545e-10 0)
(3 3.38232e-10 0)
(3 7.15012e-10 0)
(3 1.45615e-09 0)
(3 3.04893e-09 0)
(3 6.24777e-09 0)
(3 1.29292e-08 0)
(3 2.62397e-08 0)
(3 5.46091e-08 0)
(3 1.04221e-07 0)
(3 2.30037e-07 0)
(3 4.01579e-07 0)
(3 8.69506e-07 0)
(2.99999 1.50916e-06 0)
(2.99997 3.42886e-06 0)
(2.99995 5.17905e-06 0)
(2.99995 1.25853e-05 0)
(2.9996 3.45567e-05 0)
(2.99881 -1.01057e-05 0)
(3 1.28232e-13 0)
(3 7.28877e-13 0)
(3 2.40608e-12 0)
(3 5.98495e-12 0)
(3 1.413e-11 0)
(3 2.99144e-11 0)
(3 6.45835e-11 0)
(3 1.27771e-10 0)
(3 2.71931e-10 0)
(3 5.06427e-10 0)
(3 1.12047e-09 0)
(3 1.88427e-09 0)
(3 4.56396e-09 0)
(3 6.57913e-09 0)
(3 1.92865e-08 0)
(3 1.86408e-08 0)
(3 8.25978e-08 0)
(3 -4.66613e-08 0)
(3 6.49871e-07 0)
(3 3.7785e-07 0)
(2.99999 5.53112e-06 0)
(2.99996 9.9767e-06 0)
(2.99994 2.10817e-05 0)
(2.99962 -5.93521e-05 0)
(2.99889 7.02083e-05 0)
(3 4.65832e-14 0)
(3 2.7032e-13 0)
(3 8.76814e-13 0)
(3 2.20717e-12 0)
(3 5.10208e-12 0)
(3 1.09358e-11 0)
(3 2.26158e-11 0)
(3 4.63041e-11 0)
(3 9.05995e-11 0)
(3 1.7857e-10 0)
(3 3.39924e-10 0)
(3 6.21972e-10 0)
(3 1.07273e-09 0)
(3 1.83489e-09 0)
(3 2.38434e-09 0)
(3 2.64817e-09 0)
(3 4.70378e-09 0)
(3 2.64669e-09 0)
(3 -2.66492e-07 0)
(3 -5.0944e-07 0)
(2.99998 -3.11201e-06 0)
(2.99997 -1.16901e-05 0)
(2.99986 -1.7893e-06 0)
(2.99966 6.05623e-06 0)
(2.99924 0.000104382 0)
(3 9.24719e-15 0)
(3 6.99689e-14 0)
(3 1.89941e-13 0)
(3 5.50617e-13 0)
(3 1.07638e-12 0)
(3 2.72127e-12 0)
(3 4.15116e-12 0)
(3 1.23603e-11 0)
(3 1.14311e-11 0)
(3 5.3064e-11 0)
(3 5.57274e-12 0)
(3 2.29165e-10 0)
(3 -2.71908e-10 0)
(3 1.06529e-09 0)
(3 -3.43497e-09 0)
(3 1.05795e-08 0)
(3 -1.77725e-08 0)
(3 1.51969e-07 0)
(3 -3.23847e-07 0)
(2.99999 2.75397e-07 0)
(2.99998 -3.88054e-06 0)
(2.99996 -5.16973e-06 0)
(2.99996 -1.07264e-05 0)
(2.99975 7.51298e-05 0)
(2.99933 6.54996e-05 0)
(1.17185 1.20893 0)
(1.58832 1.12082 0)
(1.84968 1.01244 0)
(2.01414 0.888258 0)
(2.10448 0.740036 0)
(2.12788 0.566149 0)
(2.10934 0.377815 0)
(2.05318 0.193233 0)
(1.93496 0.0280192 0)
(1.80326 -0.0547905 0)
(1.71034 -0.0558791 0)
(1.66992 -0.0211846 0)
(1.6606 0.0157173 0)
(1.66112 0.0372255 0)
(1.6613 0.043305 0)
(1.65976 0.0389065 0)
(1.65541 0.0295651 0)
(1.64752 0.0197613 0)
(1.63755 0.0133021 0)
(1.62912 0.0100458 0)
(1.62274 0.00880216 0)
(1.61798 0.00844067 0)
(1.61426 0.00828798 0)
(1.61112 0.00806999 0)
(1.60816 0.00777754 0)
(1.60481 0.00754651 0)
(1.59953 0.00761892 0)
(1.58921 0.00847645 0)
(1.56751 0.0105627 0)
(1.52135 0.0160374 0)
(1.422 0.0260067 0)
(1.20556 0.0475482 0)
(0.738499 0.087112 0)
(0.169308 0.162113 0)
(-0.229791 0.177971 0)
(-0.309636 0.147092 0)
(-0.343673 0.0754849 0)
(-0.444181 0.0106874 0)
(-0.542744 -0.0332418 0)
(-0.606792 -0.0506706 0)
(-0.638135 -0.0496039 0)
(-0.638876 -0.041343 0)
(-0.606504 -0.0378242 0)
(-0.553465 -0.0430604 0)
(-0.475907 -0.0544348 0)
(-0.378634 -0.0680822 0)
(-0.267667 -0.0787815 0)
(-0.158033 -0.0831141 0)
(-0.0569547 -0.0841966 0)
(0.048743 -0.0841289 0)
(0.13992 -0.0779007 0)
(0.198762 -0.0669104 0)
(0.263651 -0.0585305 0)
(0.327285 -0.0522172 0)
(0.384485 -0.0467037 0)
(0.436732 -0.0422775 0)
(0.489641 -0.0394377 0)
(0.542374 -0.0374547 0)
(0.591955 -0.0350881 0)
(0.638702 -0.032508 0)
(0.683542 -0.0301027 0)
(0.726859 -0.0279328 0)
(0.769002 -0.0260793 0)
(0.810017 -0.0244356 0)
(0.85005 -0.0230332 0)
(0.889115 -0.0217518 0)
(0.927352 -0.0206334 0)
(0.964776 -0.0195594 0)
(1.00155 -0.0185786 0)
(1.03771 -0.0176017 0)
(1.07341 -0.0166806 0)
(1.10867 -0.0157638 0)
(1.14358 -0.0148907 0)
(1.1781 -0.0140297 0)
(1.21228 -0.0132056 0)
(1.24604 -0.0123914 0)
(1.27938 -0.011606 0)
(1.31224 -0.0108204 0)
(1.34461 -0.0100572 0)
(1.37643 -0.00928629 0)
(1.4077 -0.00853597 0)
(1.43838 -0.00778273 0)
(1.46848 -0.00705673 0)
(1.49798 -0.00633956 0)
(1.52692 -0.00566234 0)
(1.55527 -0.00500464 0)
(1.58309 -0.00439175 0)
(1.61035 -0.00380008 0)
(1.63711 -0.00325509 0)
(1.66336 -0.00272542 0)
(1.68914 -0.00223548 0)
(1.71447 -0.00175215 0)
(1.73941 -0.00130273 0)
(1.76397 -0.000855097 0)
(1.78819 -0.000442502 0)
(1.81191 -1.40476e-05 0)
(1.83481 0.000445236 0)
(1.85624 0.000995796 0)
(1.87393 0.00176922 0)
(1.88703 0.00290015 0)
(1.31297 1.13769 0)
(1.62904 0.973274 0)
(1.84878 0.771915 0)
(1.98538 0.553558 0)
(2.0517 0.333191 0)
(2.06926 0.132339 0)
(2.07012 -0.0346952 0)
(2.07535 -0.163258 0)
(2.08979 -0.241315 0)
(2.10298 -0.258516 0)
(2.10675 -0.229348 0)