/*--------------------------------*- C++ -*----------------------------------*\
  =========                 |
  \\      /  F ield         | OpenFOAM: The Open Source CFD Toolbox
   \\    /   O peration     | Website:  https://openfoam.org
    \\  /    A nd           | Version:  6
     \\/     M anipulation  |
\*---------------------------------------------------------------------------*/
FoamFile
{
    version     2.0;
    format      ascii;
    class       surfaceScalarField;
    location    "19";
    object      phi;
}
// * * * * * * * * * * * * * * * * * * * * * * * * * * * * * * * * * * * * * //

dimensions      [0 3 -1 0 0 0 0];

internalField   nonuniform List<scalar> 
1300
(
3.75095
5.62643
-6.03761
3.75095
-5.87794
5.62643
-4.46347
4.46347
-1.29351
1.29351
1.87675
1.8742
-2.58054
2.58054
-4.0294
4.0294
-2.67567
2.67567
-5.24786
5.24786
-5.06858
5.06858
4.73454
-4.73454
-4.78724
4.78724
-1.75754
1.75754
-3.60316
3.60316
3.17518
-3.17518
-4.62537
4.62537
-0.479635
0.479635
-0.553616
4.30457
3.19734
3.19734
-2.37831
2.37831
-4.86489
4.86489
6.22255
-6.22255
9.13491
-9.13491
-3.0973
-3.43411
1.31941
-8.20652
-4.55853
-4.55853
-8.44108
8.44108
-2.81465
2.81178
2.94448
-2.94448
-1.7003
1.7003
-4.46011
-0.00336156
-4.46011
4.41267
0.0508066
4.41267
-1.40895
0.115443
-1.40895
3.98583
-3.98583
1.13637
0.157133
1.13637
3.06542
-3.06542
-1.87695
3.75371
1.874
-1.87136
6.17593
-1.87959
3.75379
-5.67489
5.67489
-2.8557
0.27516
-2.8557
2.56084
0.0197
2.56084
-5.29289
5.29289
-3.72554
-0.303851
-3.72554
4.2568
-0.227404
4.2568
2.90878
-2.90878
-2.71588
0.0402137
-2.71588
2.62099
0.0546767
2.62099
0.35363
5.2728
-5.98006
8.79184
-5.2728
0.0249441
5.21026
0.0375981
5.21026
-5.10474
0.0361547
-5.10474
5.01069
0.0578917
5.01069
4.83014
-0.0956013
4.83014
-4.8468
0.112261
-4.8468
-3.33374
-3.46406
-4.87957
0.092328
-4.87957
-1.73711
-0.0204252
-1.73711
1.71828
0.0392612
1.71828
-3.51154
3.51154
-4.1337
0.530544
-4.1337
3.13056
0.0446188
3.13056
1.86779
1.88317
5.61874
-5.61874
2.44356
-4.54941
-0.0759615
-4.54941
-4.73319
-4.40172
4.73319
-0.107821
-0.759776
0.280141
-0.759776
3.15736
0.039977
3.15736
2.53795
0.0830415
-2.53795
0.159638
3.38849
-3.38849
1.73785
0.640464
1.73785
-5.56322
5.56322
4.95707
0.0536183
-4.95707
0.0921844
6.15748
0.0650742
6.15748
-6.20788
-0.014678
-6.20788
3.3433
-6.77741
-3.44944
4.67923
0.108015
-4.67923
0.120696
2.91384
0.0306346
2.91384
-2.9364
2.9364
-2.9845
0.0400236
-2.9845
-2.14158
0.44128
-2.14158
1.36265
0.337654
1.36265
-4.31702
-0.143095
-4.31702
-4.34613
0.21243
4.34613
0.0665364
0.863841
-0.863841
-1.52788
0.118935
-1.52788
-4.11847
-0.198551
4.11847
-0.132635
-3.9138
-0.0720294
-3.9138
-3.02064
0.0361425
3.02064
0.0447767
3.112
0.0453602
-3.112
0.0465793
-1.87095
3.75412
-1.88
3.754
-5.51723
-0.157659
-5.51723
5.73664
-0.0617496
5.73664
3.21701
0.386148
-3.21701
0.361308
2.87622
-0.315377
2.87622
-5.25622
-0.0366757
-5.25622
5.23487
0.0580229
5.23487
3.2993
-0.423081
-3.2993
-0.426245
4.39523
-0.138434
4.39523
2.96872
-0.0599416
2.96872
-2.87841
-0.0303719
-2.87841
2.81668
-2.81668
2.75493
0.0617528
-2.75493
0.0390458
-11.1239
11.1092
-0.036309
-11.0876
5.17395
5.17395
4.27629
0.553853
4.27629
-5.03003
0.183231
-5.03003
3.31269
-6.76213
3.45173
-6.78547
3.45587
-11.6624
3.36844
-6.83249
5.09192
-5.09192
4.97518
0.116734
-4.97518
0.095612
-1.73554
-0.00157405
-1.73554
-2.87435
-0.637196
-2.87435
4.21872
-0.707174
4.21872
-3.03441
3.03441
-3.0815
0.047082
3.0815
0.0490658
4.47936
-0.0841276
-4.47936
-0.070046
0.947579
0.188794
-0.947579
0.187803
3.60353
-0.215047
3.60353
-3.18347
-0.205017
-3.18347
-1.73535
-0.000189098
1.73535
0.00249952
-5.81092
0.247697
-5.81092
-11.1814
0.0937681
-11.1438
-6.11411
-6.11411
2.32697
11.1188
-2.88524
0.00683062
2.88524
0.0286016
2.98499
0.049428
-2.98499
0.0485857
-2.88231
0.0656303
2.88231
0.0540879
-2.52345
0.381863
-2.52345
-0.940548
0.940548
-1.1207
0.180157
1.1207
0.241944
1.12157
-0.257733
1.12157
1.62002
0.0982592
-1.62002
0.0921342
-3.8643
-0.0494974
-3.8643
5.57322
0.163413
5.57322
-3.04792
-0.135551
3.04792
-0.0791946
-0.0351169
11.1443
-5.13883
0.0340952
5.13883
-11.2094
11.2435
-3.24239
0.718947
3.24239
1.0339
5.29128
0.271939
-5.29128
0.261248
5.2026
0.0322725
-5.2026
0.110681
-2.35861
-0.515735
-2.35861
-5.00576
-0.511471
5.00576
-0.78704
-11.483
-0.201161
11.6841
-11.4251
6.01208
0.145401
-6.01208
11.3889
-0.820151
-0.0436902
0.820151
0.120397
1.46827
-0.346697
1.46827
3.78581
-0.182272
-3.78581
-0.0784983
-5.38578
0.129566
5.38578
0.18744
-1.90327
-0.455342
1.90327
-0.434998
-4.26537
4.30535
1.91056
-3.29051
-3.48691
-7.69223
1.85354
1.90058
4.2971
-7.21776
-4.44463
-7.09706
7.22228
-6.96103
-9.40219
9.30659
7.50414
-7.57617
-5.77649
5.82555
6.48314
-6.43836
1.8777
1.87601
6.75581
-6.48065
-16.0274
15.8698
8.39572
-8.69957
13.5297
-13.5663
-13.8309
13.8631
-5.77018
5.8104
-6.63336
6.60299
-6.82309
6.7439
-3.25393
-3.53155
9.38773
-9.2954
11.6729
-11.7488
-8.45502
8.98556
3.38571
0.919632
3.43107
-1.88254
3.76024
-1.87125
3.78181
3.46874
-6.72267
3.29339
-6.78029
6.08662
5.58626
-5.9788
-1.71342
-5.86859
5.89922
-5.81585
5.86994
8.98689
-8.99025
-1.88482
3.76083
-1.86918
3.76976
-3.42115
-2.35533
3.37654
0.920562
5.72292
3.66482
-5.83093
-1.26613
-7.67659
7.49432
-7.97626
7.77125
-0.451357
5.83987
-5.38852
4.41353
-1.64247
7.48234
5.57981
5.76304
5.86247
-5.59054
1.09856
-6.48708
-6.39489
-2.59775
2.71668
2.65003
-2.49289
5.90041
1.60373
5.76777
-5.54085
-2.03531
-5.59035
3.81701
2.00854
3.86409
4.07996
2.40318
4.1161
3.02915
-3.03694
0.00778344
-3.05888
6.08803
0.723895
-5.41421
-4.49365
3.7897
2.9661
3.8094
-5.00081
-1.47983
-4.63951
-9.66389
-6.36354
-10.1754
10.3344
5.53533
10.2727
-11.5099
11.6973
6.08822
2.3075
5.86082
-4.89467
-3.8049
-5.32091
11.1443
-0.941951
-10.2024
-8.27112
-5.55974
8.2131
5.31657
8.17789
5.68524
8.28857
3.16744
7.97689
-8.48402
2.92427
-3.87146
-1.89872
-3.83242
3.73866
2.07173
3.79334
-4.13796
-2.4954
-4.13113
-4.19948
-2.62361
4.25942
2.34357
-4.30991
-3.66636
4.44546
2.29844
3.17646
-7.6211
3.65603
-7.18758
-6.62425
-2.67115
-6.52864
4.25956
2.55079
-6.81034
-2.46311
10.9568
-5.37057
9.24341
-7.16192
-4.58693
-7.23196
-6.81706
-1.63795
-6.60464
-8.78793
8.2722
-9.09834
8.39117
12.6441
-5.63678
-7.00728
-3.9685
-2.46986
3.92192
-0.490843
-3.71092
3.71871
0.0493173
3.83113
4.75076
4.25992
-3.87583
-1.94002
-3.82724
3.82665
2.04329
3.89228
6.77918
2.20771
6.82998
-6.40153
-2.58872
-6.54463
9.13601
-8.69473
2.96841
-2.96859
5.1809
2.59035
-4.96585
-2.71074
6.04311
-3.0283
-3.01481
-12.3693
10.9104
1.45883
-4.88692
-0.473388
0.00624702
-5.60838
-3.79381
5.49612
0.266928
11.1774
7.38355
-5.51559
5.76328
6.16853
6.22214
-0.172748
5.9266
-5.20765
5.26769
-2.31936
-2.94833
5.27952
-5.47807
-1.2651
-5.25638
3.99128
0.289696
1.91501
-1.63487
-2.05834
-0.539411
-1.9662
1.62498
1.02504
1.81378
0.950066
1.76662
-2.95646
0.610832
2.34563
-2.00639
-1.88206
-3.49048
-0.986257
4.47674
5.43341
2.06091
-5.35491
-0.235435
2.76242
-2.72316
-0.681801
-2.80868
2.17333
-2.85513
-3.45491
-1.91306
5.36797
-3.36465
-0.462594
3.31522
0.548872
-3.81175
-2.05684
3.77172
0.344374
-3.12838
6.22289
-3.09451
-5.0684
2.53056
3.55747
4.5391
-4.79202
2.44211
2.34991
-1.23455
3.65382
0.155586
3.33844
-6.45472
4.97489
5.60185
3.38371
-5.988
1.34849
-5.10623
8.83958
-8.05594
-0.783634
3.85234
4.98724
7.22012
5.42394
-5.74042
12.9605
-2.09796
-5.95799
7.20419
-3.82048
5.10979
-8.93026
-10.5337
4.57574
-11.2182
11.5735
-0.355326
-2.90385
-8.606
14.122
-1.8301
-12.2919
8.44259
-6.35903
-3.76231
10.1213
-7.30098
7.5672
-3.66516
-3.90204
-9.25685
-4.3095
9.12728
2.57001
-9.32856
12.2528
-1.35167
5.53171
0.329101
5.39328
5.28617
-5.65455
0.368387
2.01481
-5.67998
4.16762
-9.82217
-5.17928
9.8592
-4.67992
-7.85043
-7.27663
-0.573798
1.74292
10.5099
-7.42817
5.39997
2.0282
3.31959
0.572692
-3.38134
-0.451079
0.358842
4.46706
-4.8259
4.15218
4.23522
3.36608
1.10097
3.78695
2.11227
-3.81555
-0.315579
-4.09063
1.46702
-1.74706
-3.62585
5.09287
-4.03496
0.40911
-2.69948
-3.52828
6.22776
-4.5982
3.07038
3.15251
5.11367
-4.92945
1.40117
-2.42143
-2.50802
2.63379
-4.38085
1.94473
3.14814
4.24317
0.576818
5.07502
4.78419
-7.6258
0.438229
8.449
-7.18287
2.02044
6.26814
-7.4204
0.143769
-6.38487
1.01066
-6.38124
-5.79968
5.23841
-6.87636
-3.69186
6.19115
0.638835
-6.25768
-0.34695
-5.93242
-2.85551
-6.38776
-3.07486
-6.02348
-8.81528
-1.61152
-7.20376
6.66068
-6.56208
-3.61328
7.34912
1.04204
-7.38553
7.34184
-7.45489
7.10819
0.0949934
3.62371
4.35491
1.88505
-2.38916
4.27421
-4.98264
7.19035
-8.48703
3.50439
3.97454
-6.56326
-4.51249
5.04187
4.09414
5.37953
9.05581
-10.6149
1.55905
-10.9635
12.2707
-1.3072
-16.7893
5.82575
-7.73344
2.6933
0.275101
2.69173
0.681178
2.40701
-3.08819
-2.28742
-2.28492
-2.24055
-3.31774
5.55829
1.09769
-3.28023
2.18254
-3.45463
4.55232
0.00405156
-3.28428
5.18098
-2.77397
5.45608
-3.45058
2.00551
3.26914
5.52484
-2.2557
4.2737
-1.68335
1.75478
-4.01047
-1.56296
-2.99143
5.06316
-3.23634
3.64545
-0.237263
3.88271
-3.99705
0.968748
-0.630965
3.60426
3.7639
4.16277
-3.0618
2.86251
-4.54587
-1.14796
-3.96905
-0.820913
-0.257569
-3.7644
4.02197
6.09953
-6.3571
-5.35136
9.61814
-4.26678
7.73763
-5.49099
-2.24664
-4.31108
-4.38365
3.92921
1.99738
9.73502
0.16479
-5.65578
-5.04286
-4.00896
3.23105
2.03664
-2.07126
3.53008
2.06501
-0.15
0.581001
1.23278
1.93062
-1.34962
0.21429
1.71633
-1.42058
1.98202
0.7804
-2.08028
0.114076
-1.25576
3.42909
1.08986
-2.11491
0.76529
1.06973
-3.38909
4.62551
-2.37261
-2.2529
5.69524
1.17782
-3.55043
4.07856
-3.78886
2.29018
-3.27644
-1.26025
-5.04911
-3.44538
-2.43848
4.62102
-3.11981
5.18072
1.1661
-4.94529
6.11139
-3.54865
1.63559
-2.95733
3.73773
-1.00367
-1.95366
2.80117
2.56681
-2.88762
0.0789371
-0.0864558
2.3319
-2.41835
-0.523231
-2.52962
-4.55841
4.90278
-2.11899
4.56109
2.15523
-1.90689
6.46799
1.82061
-3.7275
-3.24779
-3.71038
-1.37759
3.16151
-1.71297
-3.60794
-5.61501
4.03102
-0.692583
-6.39693
7.66437
-1.26744
-3.43083
-1.54407
5.3964
-7.42328
1.7433
-3.25566
4.40871
4.5643
3.87171
-12.366
0.0740796
-6.83065
0.987216
-7.81787
5.97446
-3.39616
7.97189
-10.6064
6.99315
-9.56438
7.18826
-0.629607
5.99111
-5.62272
4.21127
-8.52077
-5.95076
6.48001
-4.17252
6.80912
-4.59715
11.4063
-5.94882
7.06142
4.34484
-1.56306
-5.6689
-6.70167
5.13862
0.35975
5.75303
4.92858
-2.81631
4.613
2.26325
-4.68468
-2.1176
-6.55562
1.87094
-3.40311
-1.9158
3.78674
3.19787
3.77056
1.27871
-3.31948
7.05012
-7.62392
-2.3702
-3.42948
6.73694
-1.59832
4.23122
-7.66071
-2.15001
4.98485
-0.944548
-4.0403
0.651924
-4.34378
1.68077
-6.02455
5.19559
-5.54254
2.19329
-9.92673
-5.19224
-5.07185
-2.24762
-5.20727
-7.70259
5.45497
-1.87684
5.465
-8.76913
7.82458
-3.50157
8.95654
-5.35173
-1.03604
5.78672
1.32147
10.278
0.0405013
-4.55299
-1.80132
3.79113
-1.98981
1.42973
-3.7239
0.0672318
2.45266
3.24259
-6.44393
-0.119321
-4.67231
-3.90655
8.00069
5.71159
11.8111
1.19626
9.2294
-1.22872
10.4257
4.15081
4.39275
-3.0508
4.60985
0.971171
4.47556
-0.822452
2.82796
1.86928
1.84885
0.874304
2.30644
1.45745
3.27519
0.187002
-2.09792
4.67822
-8.68718
-0.977562
-8.13333
1.17326
5.50839
-4.33513
3.03912
-1.00248
1.0493
0.178088
-1.82522
1.64713
-2.77024
-1.97522
-0.258893
-1.59552
2.36081
1.83357
-2.10192
-0.668323
0.265675
-3.71106
3.01076
-2.93183
-0.365018
5.74637
-2.70489
0.286533
-1.0693
-2.24309
-2.7825
2.66843
6.20089
0.267099
3.10638
5.16988
3.11305
0.296736
6.19013
-6.54546
-3.63204
-6.47138
-0.496923
4.89948
2.59549
7.91442
6.94033
5.34201
-2.3187
-9.94261
6.61434
-2.00449
5.30714
-1.26684
-4.75771
4.93129
2.25906
-5.57013
0.0275905
-4.73012
-6.73462
-0.583886
8.40847
-9.69412
8.65809
5.80257
1.40119
-4.38724
-0.684604
4.20708
0.185668
10.6113
-0.953625
-7.22316
8.17678
-4.55476
3.5772
0.807137
2.72295
2.45427
1.45179
-5.77137
-10.1065
-1.76513
-1.62396
-4.01803
0.458711
-2.29228
6.13511
-2.55791
3.88846
5.61888
6.66818
-2.15239
-4.20471
6.41917
-2.5307
4.13748
)
;

boundaryField
{
    wall-4
    {
        type            calculated;
        value           uniform 0;
    }
    velocity-inlet-5
    {
        type            calculated;
        value           uniform -3.75095;
    }
    velocity-inlet-6
    {
        type            calculated;
        value           uniform -5.62643;
    }
    pressure-outlet-7
    {
        type            calculated;
        value           nonuniform List<scalar> 8(6.03761 5.87794 6.53141 6.88711 6.7978 6.79274 6.76442 6.82431);
    }
    wall-8
    {
        type            calculated;
        value           uniform 0;
    }
    frontAndBackPlanes
    {
        type            empty;
        value           nonuniform 0();
    }
}


// ************************************************************************* //
