/*--------------------------------*- C++ -*----------------------------------*\
  =========                 |
  \\      /  F ield         | OpenFOAM: The Open Source CFD Toolbox
   \\    /   O peration     | Website:  https://openfoam.org
    \\  /    A nd           | Version:  6
     \\/     M anipulation  |
\*---------------------------------------------------------------------------*/
FoamFile
{
    version     2.0;
    format      ascii;
    class       volScalarField;
    location    "10";
    object      Ma;
}
// * * * * * * * * * * * * * * * * * * * * * * * * * * * * * * * * * * * * * //

dimensions      [0 0 0 0 0 0 0];

internalField   nonuniform List<scalar> 
26250
(
3.04867
3.07484
3.10636
3.12426
3.14949
3.15905
3.16785
3.15629
3.12091
2.9945
2.73319
2.02851
1.05605
0.516136
0.551635
0.618068
0.669998
0.674075
0.657604
0.616743
0.606357
0.577877
0.506882
0.353733
0.231091
3.04854
3.075
3.10625
3.12441
3.14936
3.15928
3.16793
3.15648
3.12114
2.99546
2.735
2.03458
1.06769
0.546485
0.568826
0.631818
0.684459
0.689672
0.671526
0.643321
0.626106
0.595228
0.529093
0.385202
0.26722
3.04855
3.07498
3.10622
3.12442
3.14935
3.15934
3.1682
3.15684
3.1219
2.99684
2.73835
2.03827
1.07097
0.532209
0.557572
0.622297
0.67534
0.681834
0.664324
0.639841
0.619439
0.587549
0.520997
0.379151
0.261212
3.04858
3.07493
3.10624
3.12439
3.14938
3.15952
3.16912
3.15774
3.12648
3.00007
2.74639
2.04665
1.07957
0.563968
0.578607
0.637159
0.687088
0.69182
0.671563
0.640809
0.620794
0.586843
0.518004
0.374986
0.25639
3.04539
3.07821
3.10281
3.12793
3.1458
3.16335
3.1661
3.1604
3.11916
3.02575
2.71259
2.09706
1.11602
0.574645
0.588879
0.646322
0.692964
0.698005
0.679618
0.654656
0.633452
0.597211
0.526673
0.382731
0.263015
3.04826
3.07525
3.10591
3.12478
3.14903
3.16043
3.17071
3.15957
3.13271
3.00736
2.76475
2.07247
1.11651
0.607721
0.609323
0.659246
0.704957
0.709963
0.69218
0.669938
0.647825
0.610683
0.540624
0.397329
0.277921
3.04484
3.07877
3.1022
3.12859
3.14519
3.16456
3.16754
3.16347
3.12197
3.03206
2.73137
2.13248
1.17542
0.637392
0.628738
0.674932
0.718536
0.723723
0.707463
0.687
0.665583
0.62883
0.560889
0.419914
0.304836
3.04817
3.07535
3.10577
3.12491
3.14893
3.1607
3.17127
3.16108
3.13356
3.01702
2.78606
2.11648
1.18399
0.654672
0.642608
0.686648
0.728814
0.735004
0.721087
0.703645
0.684653
0.650615
0.587245
0.453704
0.351816
3.04808
3.07546
3.10568
3.12503
3.14883
3.16088
3.17141
3.16186
3.13304
3.02317
2.79851
2.14791
1.23648
0.687656
0.665352
0.704723
0.743228
0.749659
0.737756
0.723409
0.707713
0.679055
0.624783
0.508614
0.435243
3.04794
3.07558
3.10551
3.12521
3.14869
3.16143
3.17271
3.16358
3.13829
3.03092
2.81475
2.18605
1.27102
0.729773
0.697667
0.730529
0.763528
0.769394
0.759186
0.747757
0.736077
0.715984
0.678997
0.60045
0.597133
2.96778
2.95187
2.94126
2.93496
2.92923
2.92407
2.90958
2.8851
2.81053
2.65378
2.2962
1.54613
0.446392
0.165702
0.0718193
0.280571
0.335906
0.311372
0.249119
0.162751
0.169277
0.133685
0.0499188
0.040424
0.0949102
2.96777
2.95187
2.94127
2.93497
2.92923
2.92407
2.90961
2.88521
2.81084
2.65415
2.2977
1.54902
0.458591
0.119552
0.0964798
0.295896
0.346969
0.322082
0.272134
0.225701
0.198604
0.150639
0.0779074
0.0650928
0.13204
2.96778
2.95187
2.94127
2.93496
2.92924
2.92409
2.9097
2.88548
2.8114
2.65568
2.30052
1.55305
0.460042
0.152532
0.0947465
0.294818
0.345839
0.321234
0.273657
0.237486
0.215204
0.171784
0.1164
0.104111
0.139417
2.96779
2.95186
2.94127
2.93496
2.92925
2.92411
2.90987
2.88594
2.81229
2.65812
2.30461
1.56022
0.478611
0.108426
0.122396
0.309342
0.354545
0.327229
0.279266
0.228209
0.228118
0.198236
0.159318
0.147274
0.154144
2.96767
2.95186
2.94122
2.93491
2.92927
2.92418
2.91047
2.88613
2.81896
2.65224
2.31911
1.5579
0.464971
0.133286
0.130943
0.314556
0.359699
0.335519
0.295178
0.266487
0.25935
0.233923
0.203825
0.192613
0.182246
2.96779
2.95185
2.94127
2.93494
2.92928
2.92417
2.91033
2.88728
2.81523
2.66523
2.31947
1.58387
0.518974
0.104357
0.161396
0.330431
0.371641
0.34969
0.31717
0.298758
0.293018
0.273725
0.251805
0.242017
0.22287
2.96766
2.95185
2.94121
2.9349
2.92931
2.92427
2.91108
2.88783
2.82262
2.66242
2.33952
1.59334
0.527179
0.105826
0.183569
0.344638
0.384952
0.366773
0.341557
0.330322
0.328836
0.317564
0.304483
0.296835
0.278698
2.9678
2.95184
2.94127
2.93495
2.92931
2.92432
2.91102
2.88923
2.81993
2.67589
2.34531
1.6276
0.5901
0.113117
0.21283
0.362252
0.400276
0.38595
0.368024
0.363603
0.367169
0.365244
0.362757
0.36045
0.355458
2.96781
2.95184
2.94129
2.93495
2.92935
2.92444
2.91156
2.8904
2.82294
2.68331
2.36104
1.65896
0.63766
0.13683
0.246288
0.382284
0.417554
0.406895
0.396036
0.397679
0.407518
0.416744
0.427096
0.438684
0.46324
2.96782
2.95182
2.94131
2.93495
2.9294
2.92468
2.91239
2.89186
2.82751
2.69009
2.37828
1.69171
0.681584
0.173836
0.280986
0.399763
0.434661
0.429118
0.424609
0.431482
0.4488
0.470443
0.499318
0.535923
0.640751
2.9852
2.97072
2.95048
2.93595
2.91811
2.90583
2.88395
2.84995
2.7605
2.57884
2.19317
1.36507
0.223528
0.427313
0.0341128
0.199249
0.248516
0.197069
0.11829
0.0608421
0.0734495
0.0975434
0.103443
0.0705782
0.0678239
2.98517
2.97076
2.95045
2.93598
2.91808
2.90586
2.88395
2.85019
2.76031
2.58066
2.19304
1.36496
0.228843
0.419072
0.0414034
0.20817
0.251956
0.196516
0.114696
0.0552117
0.114668
0.131465
0.137763
0.112217
0.0932522
2.9852
2.97073
2.95048
2.93595
2.91812
2.90587
2.88409
2.85026
2.7613
2.58061
2.19675
1.37171
0.236828
0.409998
0.056965
0.22035
0.258849
0.202801
0.122762
0.0927365
0.153061
0.166395
0.176878
0.160945
0.134643
2.98517
2.97077
2.95044
2.93598
2.91809
2.90592
2.88423
2.85078
2.76183
2.58413
2.19989
1.37883
0.252944
0.389538
0.0755478
0.235125
0.269558
0.215998
0.149411
0.137719
0.193323
0.205637
0.218412
0.209908
0.181224
2.98514
2.9708
2.95041
2.93601
2.91807
2.906
2.88446
2.85149
2.76293
2.58868
2.2057
1.39158
0.276269
0.363495
0.0977592
0.252243
0.283551
0.235466
0.184044
0.184565
0.234843
0.247039
0.261578
0.260261
0.231422
2.98515
2.97078
2.95043
2.936
2.9181
2.90608
2.88484
2.85215
2.76516
2.59265
2.21589
1.41331
0.304309
0.33815
0.122283
0.271102
0.300261
0.259456
0.221833
0.230034
0.277583
0.29111
0.307841
0.314365
0.288594
2.98512
2.97081
2.9504
2.93603
2.9181
2.90621
2.88532
2.85327
2.76761
2.60003
2.22818
1.44369
0.342517
0.306401
0.147913
0.29152
0.319247
0.286147
0.260038
0.274473
0.31995
0.337747
0.35835
0.374734
0.357063
2.98513
2.9708
2.95042
2.93603
2.91815
2.90636
2.88601
2.8545
2.77081
2.60753
2.24339
1.48353
0.385277
0.271327
0.173869
0.312741
0.339709
0.314494
0.298181
0.31866
0.361258
0.387082
0.413687
0.442715
0.441213
2.98513
2.9708
2.95042
2.93603
2.91822
2.90652
2.88691
2.85614
2.77404
2.61728
2.25954
1.5282
0.437472
0.228637
0.201663
0.334275
0.360484
0.342775
0.335643
0.361336
0.402968
0.438329
0.474778
0.521049
0.550353
2.98602
2.96993
2.95129
2.9352
2.91905
2.9059
2.8879
2.85759
2.77791
2.62071
2.27918
1.55529
0.484205
0.192004
0.232105
0.354579
0.380412
0.370601
0.37153
0.401216
0.444706
0.490771
0.541872
0.610586
0.724803
2.9678
2.95186
2.94127
2.93496
2.92925
2.92407
2.90968
2.88532
2.81089
2.65484
2.2965
1.54659
0.452951
0.123053
0.0885119
0.291511
0.346919
0.326604
0.282107
0.245245
0.217288
0.170863
0.0899324
0.0483088
0.141625
2.96766
2.95188
2.94121
2.93492
2.92925
2.92411
2.91007
2.88497
2.81645
2.64508
2.30487
1.53288
0.41858
0.189316
0.0691624
0.279095
0.334313
0.30977
0.250872
0.146974
0.160364
0.134435
0.0772006
0.0769363
0.121314
2.96781
2.95186
2.94128
2.93495
2.92925
2.92409
2.90982
2.88569
2.81147
2.65708
2.29922
1.55086
0.459935
0.120099
0.103673
0.29693
0.34344
0.314616
0.262273
0.213301
0.192919
0.15164
0.112062
0.114716
0.129209
2.96766
2.95188
2.9412
2.93492
2.92924
2.92413
2.91016
2.88552
2.81734
2.64856
2.31171
1.54422
0.442223
0.151239
0.107923
0.299813
0.34638
0.319893
0.275216
0.243357
0.221645
0.182863
0.153114
0.153658
0.152258
2.96765
2.95187
2.94117
2.93491
2.92922
2.92414
2.91026
2.88603
2.81821
2.65178
2.31812
1.55537
0.466462
0.116374
0.135876
0.313532
0.356384
0.331143
0.291903
0.266509
0.251586
0.222011
0.198133
0.196464
0.183943
2.96766
2.95187
2.9412
2.93492
2.92926
2.92421
2.91058
2.88678
2.81998
2.65629
2.32715
1.57142
0.491472
0.113521
0.155826
0.326418
0.368056
0.345723
0.312946
0.29429
0.285732
0.26546
0.247332
0.244486
0.225901
2.96779
2.95186
2.94127
2.93496
2.92928
2.92425
2.91056
2.88806
2.81724
2.66896
2.33185
1.60325
0.553173
0.104663
0.18488
0.344116
0.383119
0.363905
0.337783
0.325879
0.322885
0.311446
0.30066
0.298584
0.28204
2.9678
2.95185
2.94128
2.93496
2.92932
2.92434
2.911
2.8891
2.81975
2.67564
2.34509
1.62898
0.592594
0.113507
0.214886
0.363696
0.400206
0.384683
0.365342
0.360081
0.362537
0.360325
0.359128
0.361503
0.358411
2.9678
2.95184
2.94129
2.93496
2.92935
2.92444
2.91153
2.89033
2.82279
2.68311
2.36064
1.65907
0.63819
0.136868
0.247238
0.383609
0.418225
0.406756
0.394408
0.395049
0.403783
0.412534
0.423616
0.43884
0.465418
2.96783
2.95182
2.94131
2.93495
2.92939
2.92468
2.91235
2.89176
2.8273
2.6898
2.37777
1.69174
0.682276
0.174541
0.282168
0.401037
0.435575
0.429364
0.42385
0.429799
0.445895
0.466897
0.496084
0.535119
0.642156
3.04861
3.07491
3.10628
3.12436
3.14941
3.15944
3.16889
3.15729
3.12543
2.99685
2.74023
2.02949
1.04931
0.541516
0.56531
0.629084
0.683542
0.6905
0.676472
0.652466
0.634136
0.600579
0.530601
0.385714
0.268194
3.04537
3.07824
3.1028
3.12796
3.14578
3.16321
3.16533
3.1592
3.11633
3.02076
2.69458
2.06515
1.08802
0.534747
0.571534
0.637148
0.686178
0.690348
0.67351
0.630446
0.617165
0.584389
0.509201
0.358085
0.24028
3.04865
3.07487
3.1063
3.12432
3.14944
3.15955
3.16948
3.15772
3.12961
2.99943
2.74894
2.0336
1.04558
0.543534
0.568436
0.6315
0.681549
0.686255
0.666584
0.638925
0.620615
0.585519
0.510397
0.360393
0.24017
3.04528
3.07832
3.10269
3.12803
3.14566
3.16325
3.16502
3.15878
3.11621
3.01671
2.70151
2.08715
1.09853
0.5596
0.582144
0.643385
0.689632
0.693727
0.674791
0.650711
0.62838
0.591974
0.518614
0.371137
0.249942
3.0452
3.0783
3.10253
3.12805
3.14553
3.1633
3.16491
3.15871
3.11678
3.01464
2.71015
2.11047
1.10013
0.58217
0.594188
0.650809
0.696011
0.700689
0.682767
0.659785
0.637068
0.600067
0.528648
0.383074
0.26165
3.04532
3.07827
3.10273
3.12799
3.14572
3.16337
3.1657
3.15987
3.11904
3.02255
2.71911
2.11831
1.13235
0.604852
0.60845
0.66057
0.705062
0.710314
0.693178
0.67135
0.649079
0.61237
0.542665
0.398708
0.278269
3.04838
3.07515
3.10602
3.12465
3.14916
3.1601
3.17013
3.15949
3.13032
3.01041
2.77244
2.09233
1.15024
0.626622
0.622431
0.670359
0.715072
0.720477
0.704181
0.683951
0.662867
0.627516
0.56041
0.41942
0.304984
3.04831
3.07523
3.10594
3.12476
3.14909
3.16027
3.1704
3.16031
3.12986
3.01607
2.78275
2.12085
1.19684
0.656471
0.64294
0.686798
0.728804
0.733826
0.718661
0.70041
0.681003
0.648099
0.585347
0.451916
0.351667
3.04808
3.07546
3.10569
3.12504
3.14884
3.16083
3.1712
3.16166
3.13267
3.02287
2.79837
2.14707
1.2349
0.687867
0.666005
0.705754
0.74458
0.75005
0.736979
0.721621
0.705012
0.676739
0.622699
0.506521
0.435029
3.04811
3.07541
3.10571
3.12501
3.14888
3.16108
3.17242
3.16323
3.13778
3.03051
2.81482
2.18458
1.26997
0.729324
0.697948
0.731385
0.764922
0.770324
0.759284
0.747112
0.73461
0.714599
0.677801
0.598754
0.596954
3.04519
3.07838
3.10258
3.12822
3.14566
3.16479
3.17065
3.1678
3.13372
3.05735
2.79228
2.27658
1.3437
0.761207
0.723922
0.752629
0.781677
0.788612
0.782113
0.77468
0.769402
0.761691
0.752657
0.74462
0.78547
3.04762
3.07589
3.10515
3.12559
3.14836
3.16246
3.17479
3.16668
3.14517
3.04587
2.84124
2.27043
1.35929
0.823247
0.771379
0.78862
0.809379
0.816555
0.811971
0.807992
0.807949
0.811208
0.820686
0.845614
0.907611
3.04546
3.0781
3.10286
3.12795
3.14599
3.16486
3.17246
3.17031
3.14095
3.07494
2.83466
2.38228
1.46535
0.848807
0.787947
0.803119
0.821311
0.831606
0.832315
0.83387
0.840749
0.85202
0.871143
0.906449
0.972677
3.04728
3.07625
3.10478
3.12601
3.14799
3.16338
3.17619
3.16982
3.14896
3.0656
2.87944
2.38256
1.51306
0.922761
0.825741
0.826562
0.838692
0.849454
0.853187
0.858912
0.869867
0.885625
0.909947
0.947557
1.00994
3.04735
3.07618
3.10485
3.12595
3.14808
3.16329
3.17673
3.17062
3.15511
3.08154
2.92493
2.47146
1.6632
0.989444
0.848315
0.841508
0.852057
0.865141
0.87319
0.881627
0.895083
0.913034
0.93943
0.976689
1.03261
3.04608
3.07747
3.1035
3.12733
3.1467
3.16485
3.17586
3.17533
3.15758
3.10979
2.94566
2.61952
1.84982
1.09761
0.884766
0.869523
0.877137
0.89044
0.899935
0.908087
0.920849
0.939216
0.964559
1.00001
1.04904
3.04642
3.0771
3.10386
3.12694
3.14709
3.16463
3.17685
3.17666
3.16463
3.12464
2.9969
2.72924
2.07261
1.23615
0.945288
0.919348
0.923982
0.935244
0.942153
0.946621
0.954709
0.969043
0.990496
1.02081
1.0623
3.04525
3.0785
3.10244
3.12858
3.14547
3.16644
3.17523
3.17959
3.17057
3.13512
3.03549
2.78426
2.21396
1.36337
0.964219
0.930731
0.944891
0.964157
0.97724
0.983677
0.990753
1.0021
1.0197
1.0442
1.07795
3.04463
3.07898
3.10197
3.12889
3.14525
3.16665
3.17626
3.18439
3.17639
3.1483
3.05755
2.84321
2.32146
1.46135
0.979911
0.924691
0.944203
0.968712
0.98952
1.00151
1.01248
1.02587
1.0433
1.06629
1.09498
3.04723
3.07632
3.10479
3.12598
3.14832
3.16366
3.18035
3.18546
3.18324
3.15515
3.08817
2.87762
2.45333
1.61992
1.0233
0.931257
0.937952
0.958875
0.982414
1.00109
1.01667
1.03332
1.05294
1.07631
1.10351
3.0453
3.07831
3.10275
3.12809
3.14625
3.16592
3.17877
3.18996
3.18445
3.16803
3.09718
2.94783
2.52374
1.74185
1.09669
0.947059
0.939742
0.953968
0.975176
0.995268
1.0129
1.03133
1.05221
1.07564
1.10197
3.0466
3.07698
3.10414
3.12666
3.14772
3.16447
3.1804
3.18939
3.18876
3.17152
3.12486
2.97794
2.66439
1.98296
1.2206
0.985024
0.963052
0.968489
0.984249
1.00148
1.01644
1.03256
1.05089
1.072
1.09666
3.04563
3.07797
3.1031
3.12775
3.1466
3.16562
3.17941
3.19099
3.18737
3.17779
3.13718
3.02028
2.77355
2.1122
1.34789
1.02356
0.98542
0.98914
1.00211
1.01773
1.029
1.04106
1.05576
1.07386
1.09513
3.04503
3.07858
3.10243
3.12843
3.14591
3.16645
3.17882
3.19328
3.1925
3.18639
3.15163
3.06645
2.83707
2.35689
1.51326
1.04969
0.986163
0.991746
1.00805
1.02684
1.03995
1.05119
1.06401
1.0794
1.09798
3.04555
3.07804
3.10299
3.12786
3.14646
3.1659
3.17945
3.19331
3.19563
3.19192
3.16357
3.09179
2.88553
2.47483
1.63194
1.06214
0.96549
0.970288
0.989083
1.01144
1.03092
1.04624
1.06131
1.07767
1.096
3.0455
3.0781
3.10292
3.12795
3.14635
3.16607
3.17938
3.1942
3.19856
3.19677
3.17301
3.11255
2.93895
2.58583
1.79734
1.14209
0.971969
0.961228
0.974205
0.994236
1.01492
1.03216
1.0491
1.06705
1.08641
3.04582
3.07776
3.10326
3.1276
3.1467
3.16573
3.17979
3.19422
3.20066
3.19965
3.18157
3.13241
2.99296
2.69983
2.012
1.25762
1.0037
0.976815
0.980071
0.993937
1.01186
1.027
1.04215
1.05872
1.07703
3.04613
3.07744
3.10359
3.12727
3.14704
3.1654
3.18016
3.19411
3.20213
3.2016
3.18884
3.14901
3.03915
2.79104
2.19338
1.36611
1.0182
0.980439
0.985879
1.00098
1.01937
1.03316
1.04606
1.05994
1.07563
3.04642
3.07713
3.10391
3.12692
3.14738
3.16506
3.18053
3.19398
3.20339
3.20312
3.19412
3.16214
3.07051
2.85978
2.32705
1.50092
1.02514
0.958723
0.96931
0.989314
1.01312
1.032
1.04713
1.06179
1.07692
3.04547
3.07817
3.10281
3.12811
3.14615
3.16637
3.17922
3.19539
3.20207
3.20526
3.19804
3.17141
3.08977
2.90366
2.4158
1.59928
1.01678
0.919685
0.930171
0.953494
0.982236
1.00898
1.0295
1.04764
1.06515
3.04477
3.07882
3.10214
3.12873
3.14555
3.16693
3.17873
3.19591
3.20208
3.20762
3.20138
3.1779
3.10714
2.93968
2.51275
1.7253
1.06235
0.904868
0.903688
0.922622
0.951038
0.980446
1.00356
1.02337
1.04247
3.04511
3.07848
3.1025
3.12836
3.14594
3.16651
3.1792
3.1955
3.20316
3.2097
3.20447
3.18517
3.12367
2.98325
2.60854
1.88255
1.12397
0.899836
0.890035
0.906113
0.934706
0.964718
0.986843
1.00512
1.02275
3.04526
3.07833
3.10269
3.12818
3.14613
3.16633
3.1794
3.19537
3.20354
3.21055
3.20599
3.18952
3.14216
3.01239
2.72322
2.0465
1.20358
0.902748
0.886687
0.90502
0.93654
0.966784
0.986136
1.00094
1.01538
3.04561
3.07796
3.10308
3.12779
3.14655
3.16589
3.17993
3.19489
3.20491
3.2131
3.20993
3.19692
3.15303
3.04958
2.77007
2.21607
1.31901
0.898185
0.868593
0.893929
0.931454
0.965652
0.985742
0.999593
1.01245
3.04568
3.07792
3.10314
3.12773
3.14664
3.16581
3.18003
3.19487
3.20521
3.21421
3.21092
3.20072
3.16107
3.06526
2.80597
2.28642
1.38535
0.893684
0.849862
0.876379
0.915901
0.95331
0.975271
0.990223
1.00392
3.04571
3.07789
3.10316
3.12771
3.14665
3.1658
3.18004
3.19489
3.20525
3.2143
3.21094
3.2016
3.16538
3.06863
2.82909
2.28735
1.4311
0.875039
0.824245
0.848839
0.88702
0.925978
0.950092
0.967328
0.983228
3.04576
3.07783
3.10321
3.12765
3.14672
3.16573
3.1801
3.19485
3.20531
3.21458
3.21212
3.20636
3.17125
3.08792
2.84513
2.38215
1.47192
0.885249
0.814398
0.832324
0.863733
0.898633
0.921939
0.939657
0.956236
3.04584
3.07775
3.10329
3.12758
3.14679
3.16567
3.18017
3.19478
3.20542
3.21453
3.2124
3.20516
3.17323
3.08594
2.87047
2.3617
1.54453
0.91671
0.8193
0.827531
0.852079
0.882328
0.905114
0.922024
0.937275
3.0455
3.0781
3.10293
3.12794
3.14641
3.16605
3.17977
3.19523
3.20506
3.21562
3.2144
3.20883
3.17861
3.10187
2.89348
2.44848
1.61274
0.940949
0.813054
0.816203
0.837608
0.867186
0.892318
0.909652
0.923991
3.0453
3.07829
3.10272
3.12813
3.1462
3.16628
3.17956
3.19551
3.2049
3.21627
3.2161
3.21209
3.18496
3.11776
2.92369
2.54167
1.69798
0.976815
0.80195
0.80229
0.824438
0.857262
0.885382
0.903105
0.916561
3.04557
3.0779
3.10312
3.12771
3.14658
3.16587
3.17995
3.19509
3.20534
3.216
3.21703
3.21388
3.19007
3.13088
2.95554
2.61392
1.80489
1.02235
0.791834
0.795083
0.822879
0.862856
0.893496
0.911416
0.924197
3.04609
3.0775
3.10355
3.12732
3.147
3.16546
3.18032
3.19469
3.2057
3.21555
3.21758
3.21348
3.19465
3.13476
2.99867
2.64145
1.99028
1.08732
0.797821
0.806266
0.842467
0.891788
0.925027
0.942336
0.953141
3.04574
3.07785
3.10319
3.12768
3.14665
3.16581
3.17998
3.1951
3.20538
3.2166
3.21963
3.21772
3.19976
3.15012
3.01963
2.73065
2.06349
1.15097
0.762344
0.766866
0.813306
0.875368
0.918881
0.939581
0.951003
3.04577
3.07783
3.10321
3.12767
3.14667
3.16581
3.18
3.1951
3.20542
3.21678
3.22047
3.21927
3.20224
3.15567
3.031
2.75559
2.08687
1.16572
0.719454
0.716803
0.768787
0.83821
0.887103
0.909695
0.921413
3.04584
3.07776
3.10328
3.1276
3.14674
3.16574
3.18007
3.19503
3.20551
3.21679
3.22087
3.21982
3.20339
3.16008
3.03637
2.77627
2.10216
1.17373
0.691515
0.684729
0.737325
0.808526
0.858638
0.881679
0.893763
3.04587
3.07772
3.10331
3.12756
3.14678
3.1657
3.18011
3.195
3.20555
3.2168
3.22115
3.22023
3.20429
3.16135
3.04016
2.77957
2.11219
1.18421
0.683259
0.67361
0.724699
0.794582
0.843569
0.866271
0.878379
3.04587
3.07772
3.10332
3.12756
3.14678
3.1657
3.18011
3.195
3.20555
3.21677
3.22112
3.22015
3.20463
3.15949
3.04157
2.76203
2.10322
1.17334
0.670686
0.662271
0.71335
0.783223
0.832152
0.855467
0.868324
3.04591
3.07769
3.10335
3.12752
3.14682
3.16566
3.18015
3.19496
3.2056
3.21677
3.22126
3.22034
3.20482
3.16384
3.04303
2.7921
2.12358
1.1982
0.68969
0.677079
0.725337
0.792407
0.839942
0.86223
0.87418
3.04591
3.07769
3.10335
3.12752
3.14682
3.16566
3.18015
3.19496
3.20559
3.21675
3.22126
3.2204
3.20499
3.16243
3.04346
2.78081
2.11585
1.18852
0.681927
0.671588
0.720163
0.787364
0.834857
0.857574
0.870198
3.04587
3.07773
3.10331
3.12757
3.14677
3.16571
3.18011
3.195
3.20555
3.21674
3.22104
3.22004
3.20457
3.15937
3.04292
2.76386
2.10971
1.18212
0.678545
0.669018
0.717488
0.784302
0.831104
0.853853
0.866679
2.96842
2.95115
2.94197
2.9342
2.9303
2.9244
2.91642
2.8883
2.83766
2.70222
2.37925
1.74971
0.683509
0.207397
0.307256
0.409058
0.447201
0.448773
0.451908
0.464349
0.490138
0.525011
0.574674
0.647927
0.809107
2.96831
2.95135
2.94181
2.93445
2.93014
2.92495
2.9174
2.89216
2.84024
2.71833
2.39257
1.80279
0.7521
0.261671
0.333669
0.412566
0.455293
0.464949
0.475471
0.494731
0.529541
0.575725
0.639044
0.730566
0.875977
2.96842
2.95115
2.94195
2.93424
2.93035
2.92476
2.91781
2.89263
2.84693
2.72504
2.42555
1.84767
0.814871
0.323797
0.354874
0.413547
0.459391
0.476708
0.493986
0.52137
0.564158
0.61668
0.684666
0.77478
0.890355
2.96804
2.95158
2.94156
2.93469
2.92998
2.92539
2.91885
2.8984
2.85162
2.74864
2.4524
1.91603
0.937605
0.402321
0.376263
0.42209
0.465763
0.48712
0.509179
0.543151
0.590672
0.646048
0.713016
0.795999
0.894649
2.96798
2.95166
2.94146
2.93484
2.92971
2.92567
2.91733
2.90207
2.85807
2.75217
2.52412
1.93804
1.03925
0.478382
0.392421
0.428978
0.47382
0.49831
0.523003
0.559156
0.608448
0.66419
0.729696
0.804951
0.891172
2.96837
2.95123
2.94188
2.93436
2.93031
2.9254
2.92026
2.90136
2.86759
2.77387
2.54639
2.09297
1.15654
0.566034
0.40141
0.433625
0.482211
0.51157
0.53669
0.571709
0.618804
0.674061
0.736722
0.807793
0.884551
2.96841
2.95121
2.94191
2.93436
2.93035
2.92562
2.92118
2.90447
2.87602
2.79368
2.60116
2.20535
1.34577
0.671306
0.426666
0.450394
0.499181
0.529448
0.552503
0.583578
0.626215
0.678166
0.737568
0.804031
0.874923
2.96763
2.95193
2.94117
2.93508
2.92961
2.92658
2.92102
2.9113
2.88113
2.8156
2.6653
2.29029
1.56913
0.772571
0.474397
0.490789
0.529132
0.555482
0.572811
0.597935
0.633841
0.680004
0.73471
0.795918
0.860502
2.96789
2.95164
2.94146
2.93476
2.92997
2.92646
2.92247
2.91411
2.88733
2.83426
2.70458
2.38579
1.75818
0.866843
0.500996
0.522543
0.554269
0.581742
0.594804
0.613228
0.643266
0.682414
0.730426
0.785138
0.84383
2.96808
2.95157
2.94159
2.93475
2.93009
2.92657
2.92293
2.91584
2.89135
2.84828
2.72984
2.45426
1.89765
0.953299
0.536905
0.535735
0.568233
0.597572
0.611686
0.626758
0.651269
0.685233
0.726882
0.773919
0.825945
2.96807
2.95151
2.94165
2.93462
2.93025
2.92628
2.92317
2.91478
2.90022
2.85519
2.75398
2.52831
1.96595
1.11007
0.605056
0.539414
0.567964
0.599608
0.620175
0.635916
0.657028
0.686857
0.722831
0.763703
0.808826
2.9681
2.95153
2.94166
2.93466
2.93025
2.9264
2.92338
2.91635
2.90411
2.86592
2.78017
2.58933
2.0989
1.27685
0.68813
0.536049
0.559479
0.593405
0.621098
0.640231
0.660512
0.686008
0.717351
0.753573
0.793233
2.96778
2.95181
2.94136
2.93493
2.92995
2.92683
2.92354
2.91979
2.90671
2.87809
2.81191
2.62667
2.27152
1.49802
0.792372
0.552302
0.562136
0.59143
0.622825
0.64276
0.661676
0.683764
0.711347
0.743808
0.77928
2.96797
2.95159
2.94155
2.93471
2.93019
2.92658
2.9241
2.91986
2.91122
2.88342
2.83035
2.68815
2.37783
1.71574
0.900497
0.589465
0.58183
0.602415
0.632092
0.648844
0.663831
0.682727
0.706809
0.735502
0.767394
2.96795
2.95163
2.94152
2.93476
2.93015
2.92666
2.92423
2.92081
2.9136
2.88933
2.84531
2.72575
2.45215
1.88409
0.98577
0.59893
0.582627
0.607628
0.635944
0.65265
0.66619
0.682736
0.703842
0.729188
0.757763
2.96772
2.95186
2.9413
2.93498
2.92993
2.92691
2.92409
2.9216
2.91534
2.89363
2.85763
2.75343
2.51381
2.03313
1.09853
0.640261
0.567748
0.593765
0.622995
0.646671
0.663292
0.680117
0.700177
0.72349
0.749586
2.96789
2.95169
2.94145
2.93483
2.93008
2.92678
2.92428
2.9217
2.91677
2.89881
2.86834
2.78031
2.57502
2.15734
1.2902
0.719554
0.550094
0.568917
0.600229
0.632404
0.654515
0.673937
0.694667
0.717518
0.742346
2.96784
2.95175
2.94139
2.93492
2.92998
2.92692
2.92408
2.92194
2.91633
2.90617
2.87464
2.8059
2.64406
2.25778
1.5009
0.804921
0.553675
0.556696
0.585593
0.622183
0.646189
0.666827
0.688327
0.71121
0.735461
2.96834
2.95128
2.94186
2.93446
2.93044
2.92646
2.92465
2.92175
2.91879
2.9068
2.88661
2.82477
2.69246
2.39624
1.76405
0.922371
0.574057
0.561767
0.585762
0.621969
0.645347
0.664775
0.685018
0.706712
0.729671
2.96825
2.95134
2.94179
2.93449
2.93039
2.92649
2.92464
2.92192
2.91932
2.90892
2.89198
2.83635
2.72697
2.46243
1.87469
1.01171
0.571412
0.548612
0.577766
0.614664
0.642332
0.663557
0.683595
0.704144
0.725593
2.96816
2.9514
2.94172
2.93453
2.93034
2.92652
2.92462
2.92202
2.91968
2.91072
2.89609
2.84653
2.75227
2.51571
1.97721
1.12748
0.594471
0.516151
0.549016
0.591717
0.630536
0.657557
0.67939
0.700011
0.72093
2.96813
2.95144
2.94169
2.93458
2.93031
2.92657
2.9246
2.92213
2.92006
2.91242
2.89968
2.85828
2.77035
2.56602
2.06387
1.24356
0.633744
0.467556
0.502095
0.558139
0.611816
0.645839
0.670143
0.691644
0.71287
2.96812
2.95146
2.94168
2.9346
2.9303
2.92659
2.9246
2.92222
2.92027
2.9137
2.90281
2.86475
2.79495
2.61076
2.18952
1.41416
0.681092
0.425193
0.462078
0.53447
0.596686
0.633038
0.657866
0.679815
0.701547
2.96809
2.9515
2.94165
2.93465
2.93027
2.92664
2.92458
2.92232
2.92054
2.91512
2.90562
2.87354
2.81324
2.6524
2.29566
1.58477
0.735259
0.42288
0.461996
0.535328
0.595649
0.628024
0.649419
0.669155
0.68984
2.96806
2.95153
2.94162
2.93467
2.93025
2.92666
2.92457
2.92239
2.92072
2.91603
2.90768
2.87879
2.82612
2.68037
2.36365
1.69964
0.771485
0.400443
0.451497
0.52323
0.587981
0.621243
0.641488
0.659912
0.679542
2.96778
2.95181
2.94135
2.93494
2.92998
2.92695
2.92429
2.92276
2.92065
2.91802
2.90824
2.887
2.83592
2.69681
2.41967
1.76879
0.818332
0.381269
0.426785
0.494277
0.565592
0.603317
0.626117
0.646114
0.666636
2.96801
2.95158
2.94158
2.93472
2.93021
2.92672
2.92454
2.92248
2.92103
2.91734
2.91017
2.88829
2.83829
2.72313
2.41781
1.8324
0.873813
0.387413
0.397201
0.4637
0.535613
0.577686
0.604739
0.627806
0.650265
2.9677
2.95189
2.94128
2.93502
2.9299
2.92702
2.92423
2.92285
2.92076
2.91861
2.90972
2.89235
2.84617
2.72714
2.47972
1.8664
0.934739
0.401148
0.366885
0.427086
0.499181
0.547944
0.580435
0.606705
0.630993
2.96764
2.95193
2.94122
2.93506
2.92985
2.92706
2.92418
2.92289
2.92074
2.91869
2.90986
2.8945
2.84924
2.74068
2.51038
1.92157
1.01225
0.4283
0.334242
0.388566
0.463098
0.520499
0.557731
0.585845
0.610912
2.96801
2.95156
2.94157
2.9347
2.93021
2.9267
2.92456
2.92251
2.92119
2.91829
2.91268
2.8927
2.85653
2.75667
2.51161
2.02939
1.05402
0.455416
0.283465
0.341334
0.429992
0.498007
0.539207
0.568134
0.593171
2.96798
2.95158
2.94155
2.93472
2.93018
2.92672
2.92454
2.92254
2.9213
2.91873
2.91356
2.89684
2.86086
2.77353
2.53913
2.0925
1.17818
0.503716
0.244425
0.306134
0.417756
0.493155
0.53456
0.561722
0.585225
2.96776
2.95183
2.94133
2.93497
2.92994
2.92698
2.92427
2.92285
2.92096
2.91944
2.91315
2.90119
2.86807
2.78433
2.60413
2.14186
1.30366
0.53634
0.2173
0.287652
0.428533
0.510272
0.550164
0.573991
0.594508
2.96775
2.95183
2.94132
2.93496
2.92995
2.92695
2.9243
2.92279
2.92114
2.91952
2.91514
2.90015
2.874
2.79896
2.62147
2.25793
1.45699
0.586812
0.227195
0.310045
0.458931
0.544245
0.581316
0.599633
0.614827
2.96775
2.95182
2.94133
2.93495
2.92996
2.92695
2.92431
2.92281
2.92117
2.91972
2.91571
2.90125
2.87775
2.80476
2.65196
2.30374
1.57293
0.611582
0.186495
0.296106
0.453855
0.54923
0.589685
0.607158
0.62037
2.96772
2.95185
2.94129
2.93499
2.92992
2.92699
2.92428
2.92284
2.92116
2.91979
2.91603
2.90255
2.87971
2.81157
2.6584
2.32062
1.61168
0.603709
0.125826
0.255462
0.427558
0.531129
0.576138
0.595562
0.609679
2.96775
2.95183
2.94132
2.93497
2.92994
2.92697
2.92429
2.92284
2.92117
2.91982
2.9162
2.90302
2.88136
2.81458
2.66632
2.339
1.63174
0.615121
0.102241
0.23222
0.407883
0.514485
0.562219
0.583569
0.598897
2.96782
2.95177
2.94138
2.93491
2.93
2.92693
2.92432
2.92282
2.92111
2.91982
2.91536
2.90639
2.88276
2.81943
2.69076
2.31598
1.65046
0.609475
0.0819413
0.21364
0.394191
0.501544
0.551364
0.574924
0.591645
2.96773
2.95185
2.94129
2.935
2.92991
2.92701
2.92426
2.92287
2.92115
2.91979
2.91641
2.90524
2.88189
2.82242
2.66634
2.34595
1.64574
0.613354
0.0838445
0.209178
0.383208
0.492369
0.543637
0.568327
0.58573
2.9678
2.95178
2.94136
2.93493
2.92998
2.92695
2.9243
2.92284
2.92107
2.91969
2.91503
2.9066
2.88078
2.82066
2.68789
2.32469
1.66936
0.605929
0.073284
0.198469
0.376422
0.485077
0.536898
0.562551
0.580762
2.96779
2.9518
2.94135
2.93494
2.92996
2.92696
2.92429
2.92285
2.92106
2.91967
2.91495
2.90659
2.8806
2.82099
2.68785
2.32604
1.66796
0.604004
0.0689543
0.193506
0.372418
0.481026
0.533454
0.560079
0.579189
2.98617
2.9698
2.95149
2.93495
2.91945
2.9053
2.88815
2.8522
2.78758
2.63148
2.26974
1.59326
0.489495
0.178921
0.259312
0.369411
0.396682
0.395801
0.404985
0.438127
0.485932
0.542336
0.610474
0.705093
0.876427
2.98625
2.96972
2.95157
2.93488
2.91954
2.90533
2.88861
2.8539
2.79267
2.64199
2.29647
1.64231
0.549701
0.185657
0.283398
0.378041
0.408835
0.417369
0.433746
0.471213
0.524873
0.588875
0.668586
0.774153
0.927881
2.98664
2.96932
2.95191
2.9346
2.91974
2.90566
2.88998
2.8631
2.79303
2.65404
2.35335
1.67651
0.664754
0.214679
0.302306
0.377752
0.417569
0.435108
0.457956
0.499798
0.55933
0.626872
0.708255
0.810148
0.930982
2.98695
2.96899
2.95223
2.93428
2.92012
2.90542
2.89093
2.86555
2.80146
2.66993
2.39236
1.74184
0.747327
0.266827
0.310378
0.374255
0.423153
0.449563
0.478395
0.524079
0.585865
0.653138
0.731528
0.822405
0.922946
2.98565
2.9703
2.951
2.93544
2.91912
2.90623
2.89071
2.86536
2.81258
2.70028
2.40128
1.86573
0.838975
0.328977
0.303737
0.367816
0.426393
0.460386
0.494264
0.542168
0.605004
0.669844
0.742532
0.825162
0.911141
2.98699
2.96897
2.95231
2.93417
2.92038
2.90514
2.89176
2.86489
2.82115
2.70631
2.45222
1.95007
0.938543
0.404103
0.294333
0.354908
0.427989
0.46854
0.505873
0.554338
0.615016
0.67962
0.747186
0.821882
0.899255
2.98714
2.96882
2.95245
2.93403
2.92055
2.90518
2.89277
2.86871
2.83009
2.7282
2.50714
2.05975
1.11408
0.499358
0.300445
0.345569
0.428845
0.474121
0.513433
0.561039
0.619157
0.682104
0.747463
0.815662
0.884144
2.98709
2.96886
2.95242
2.93407
2.92057
2.90538
2.89391
2.87346
2.83954
2.75471
2.56374
2.18967
1.33939
0.590598
0.330418
0.362174
0.43944
0.480849
0.5178
0.563403
0.617961
0.679235
0.741782
0.80622
0.867898
2.98713
2.96885
2.95242
2.9341
2.92058
2.90557
2.89477
2.87712
2.84806
2.774
2.61597
2.2931
1.588
0.678355
0.362347
0.401862
0.460283
0.492965
0.523358
0.563978
0.613692
0.671431
0.731645
0.79217
0.849985
2.98645
2.96951
2.95175
2.9348
2.91983
2.90651
2.8939
2.87922
2.84764
2.79299
2.65353
2.34362
1.72724
0.737136
0.395525
0.432657
0.472934
0.5037
0.529073
0.563607
0.607819
0.659641
0.717106
0.77481
0.82944
2.98684
2.96914
2.95213
2.93445
2.92019
2.90624
2.89449
2.88071
2.85575
2.80458
2.69368
2.40016
1.86764
0.888215
0.459469
0.437295
0.471062
0.507489
0.531902
0.561688
0.600926
0.647552
0.698394
0.75374
0.806496
2.98642
2.96958
2.95172
2.93486
2.91987
2.90658
2.89465
2.88191