/*--------------------------------*- C++ -*----------------------------------*\
  =========                 |
  \\      /  F ield         | OpenFOAM: The Open Source CFD Toolbox
   \\    /   O peration     | Website:  https://openfoam.org
    \\  /    A nd           | Version:  6
     \\/     M anipulation  |
\*---------------------------------------------------------------------------*/
FoamFile
{
    version     2.0;
    format      ascii;
    class       volScalarField;
    location    "10";
    object      p;
}
// * * * * * * * * * * * * * * * * * * * * * * * * * * * * * * * * * * * * * //

dimensions      [1 -1 -2 0 0 0 0];

internalField   nonuniform List<scalar> 
26250
(
0.957986
0.910668
0.875436
0.843775
0.820869
0.798033
0.789164
0.793599
0.800759
0.909421
1.01567
1.80218
3.26204
7.70516
7.57349
7.14455
6.62117
6.53834
6.58439
6.70423
6.73275
6.815
7.03261
7.51375
8.38812
0.957958
0.910708
0.875389
0.84384
0.820763
0.798183
0.788832
0.793373
0.800573
0.908759
1.01461
1.79544
3.24556
7.65104
7.5559
7.1692
6.62905
6.53611
6.57479
6.67497
6.73578
6.83995
7.06323
7.53272
8.41781
0.957933
0.910731
0.875341
0.843902
0.820674
0.798283
0.788565
0.79301
0.800126
0.90755
1.01234
1.78981
3.22817
7.62645
7.52296
7.13848
6.61329
6.52115
6.5562
6.64577
6.72682
6.84125
7.07544
7.5496
8.4264
0.957845
0.910832
0.875254
0.844045
0.820497
0.798486
0.787788
0.791757
0.798493
0.903829
1.00502
1.78305
3.20101
7.53536
7.45905
7.1153
6.60022
6.51258
6.54834
6.63721
6.7032
6.82306
7.06882
7.55167
8.4246
0.957465
0.911346
0.874926
0.84443
0.820189
0.798733
0.787233
0.789734
0.817743
0.847378
1.11768
1.5561
3.30417
7.42197
7.37842
7.04165
6.57057
6.49017
6.52227
6.60059
6.66826
6.7929
7.04918
7.53443
8.41687
0.957637
0.911107
0.874973
0.844486
0.819891
0.79923
0.785569
0.789513
0.795843
0.896684
0.991705
1.75454
3.11597
7.31395
7.2701
7.01048
6.53714
6.45101
6.47875
6.54607
6.62236
6.75078
7.01174
7.49111
8.3957
0.957308
0.911587
0.874664
0.844819
0.819619
0.799372
0.785193
0.786964
0.815326
0.843545
1.10224
1.5202
3.18428
7.10778
7.16273
6.93917
6.4902
6.40153
6.42557
6.48421
6.56044
6.68735
6.94414
7.41177
8.33998
0.957632
0.911151
0.87486
0.844619
0.819643
0.799459
0.7849
0.788632
0.794624
0.890438
0.978765
1.70264
2.95632
6.94457
7.06539
6.85513
6.43303
6.34187
6.36221
6.41168
6.48042
6.59823
6.83731
7.28491
8.20454
0.957655
0.911137
0.874807
0.844673
0.819512
0.799598
0.784466
0.788488
0.794053
0.886849
0.97255
1.66233
2.85687
6.71053
6.94842
6.75923
6.373
6.27427
6.2895
6.32668
6.38121
6.47772
6.67657
7.06693
7.90621
0.95756
0.911281
0.874682
0.844889
0.81919
0.799975
0.783111
0.786544
0.791877
0.879866
0.96077
1.62272
2.76743
6.45999
6.81186
6.65194
6.31515
6.20601
6.2141
6.23501
6.26656
6.32418
6.44704
6.6924
7.25978
1.0345
1.06964
1.09314
1.11031
1.12259
1.1348
1.14746
1.18465
1.23937
1.45718
1.82727
3.21482
6.90121
16.4259
15.0545
13.5261
12.9845
13.053
13.2984
13.6257
13.5474
13.6511
13.9661
14.4405
14.906
1.03449
1.06966
1.09312
1.11033
1.12256
1.13482
1.14743
1.18456
1.23887
1.45692
1.82369
3.21235
6.87598
16.262
15.0389
13.5103
12.9713
13.0366
13.2591
13.4837
13.5383
13.6659
13.9505
14.3976
14.877
1.03446
1.06968
1.09308
1.11036
1.12253
1.13484
1.14737
1.18428
1.23832
1.45509
1.81942
3.20213
6.83991
16.257
14.9522
13.4396
12.9235
12.9935
13.2142
13.4136
13.4851
13.6178
13.8833
14.293
14.7889
1.03441
1.06973
1.09303
1.11043
1.12247
1.13487
1.14725
1.18377
1.23732
1.45208
1.81199
3.18729
6.77979
16.022
14.8359
13.3403
12.8533
12.9323
13.1706
13.3816
13.3782
13.4884
13.7465
14.1269
14.6388
1.03425
1.06989
1.0929
1.11059
1.12232
1.13497
1.14662
1.18416
1.22886
1.45749
1.78307
3.17829
6.73706
15.8764
14.6659
13.2058
12.7559
12.8388
13.0676
13.2248
13.2342
13.3327
13.5718
13.9085
14.4317
1.03427
1.06987
1.09289
1.11061
1.12229
1.13499
1.14693
1.18238
1.23393
1.44395
1.7862
3.14094
6.57754
15.574
14.4842
13.0691
12.6387
12.7164
12.922
13.0371
13.056
13.1445
13.3525
13.6296
14.1538
1.03416
1.07001
1.09278
1.11074
1.12215
1.13504
1.14623
1.18229
1.22518
1.44616
1.75047
3.11764
6.45672
15.2463
14.2662
12.9068
12.4981
12.5696
12.7528
12.8415
12.8488
12.9093
13.0711
13.2748
13.7756
1.03426
1.0699
1.09284
1.11065
1.12219
1.13497
1.14642
1.18049
1.22859
1.43313
1.74223
3.07054
6.2267
14.8934
14.0373
12.7249
12.3377
12.4012
12.5592
12.6171
12.6053
12.6235
12.7161
12.8225
13.2508
1.03429
1.06987
1.09285
1.11062
1.12217
1.1349
1.14605
1.1792
1.22589
1.42462
1.72086
3.01264
6.01802
14.4569
13.7628
12.5257
12.164
12.2163
12.3437
12.3639
12.3274
12.2734
12.2777
12.2349
12.4876
1.03429
1.06983
1.09291
1.11054
1.12225
1.1347
1.1454
1.17755
1.22132
1.41607
1.69504
2.95229
5.81843
13.9466
13.4206
12.332
11.9849
12.0215
12.1094
12.0969
12.022
11.8718
11.7386
11.4396
11.3032
1.00868
1.0322
1.05875
1.08841
1.11226
1.14141
1.16164
1.21059
1.28535
1.54727
2.00247
3.63251
8.12383
19.0962
17.2703
15.4926
14.955
15.0791
15.3676
15.5695
15.6593
15.7732
16.0407
16.4129
16.7154
1.00867
1.0322
1.05874
1.08842
1.11227
1.14138
1.16171
1.21013
1.28618
1.54483
2.00452
3.62879
8.11421
19.0354
17.2184
15.4467
14.9327
15.0699
15.375
15.5635
15.6398
15.7323
15.98
16.3229
16.6344
1.00867
1.03221
1.05874
1.08842
1.11226
1.14139
1.16154
1.21026
1.28459
1.54498
1.99714
3.61664
8.06812
18.9344
17.1195
15.3526
14.8742
15.0276
15.3568
15.5726
15.5643
15.6209
15.8306
16.1222
16.4442
1.00865
1.03222
1.05873
1.08843
1.11226
1.14136
1.16153
1.20947
1.2848
1.54035
1.99441
3.59791
8.00651
18.7747
16.9769
15.2225
14.7807
14.9455
15.2915
15.464
15.417
15.4467
15.6145
15.8506
16.1705
1.00863
1.03223
1.05871
1.08844
1.11226
1.14131
1.16144
1.20849
1.2844
1.53445
1.98767
3.56899
7.91012
18.5563
16.797
15.0642
14.6579
14.8277
15.1679
15.3235
15.23
15.2272
15.348
15.5171
15.8267
1.00862
1.03224
1.05871
1.08844
1.11225
1.14127
1.16116
1.20785
1.28207
1.52954
1.97197
3.52477
7.76119
18.2703
16.584
14.8827
14.5076
14.6769
14.9947
15.1225
14.9992
14.9598
15.0261
15.1129
15.3956
1.00862
1.03224
1.05871
1.08843
1.11225
1.14117
1.1609
1.20643
1.28045
1.52029
1.95566
3.4659
7.57351
17.9183
16.3356
14.6795
14.3317
14.4956
14.7806
14.8786
14.7339
14.6407
14.6377
14.6157
14.8405
1.00864
1.03222
1.05874
1.08837
1.1123
1.14096
1.16061
1.20505
1.27769
1.5111
1.9335
3.3956
7.35483
17.4952
16.0598
14.455
14.1323
14.2869
14.5319
14.5925
14.4329
14.2664
14.175
14.0125
14.1285
1.00867
1.03217
1.05881
1.08826
1.11244
1.14056
1.16056
1.2031
1.27561
1.49913
1.91204
3.31808
7.11823
17.0005
15.745
14.2126
13.9168
14.0574
14.2562
14.2711
14.0913
13.8331
13.6312
13.2711
13.1737
1.0087
1.03208
1.05895
1.088
1.11274
1.14016
1.16038
1.20263
1.26865
1.49702
1.86656
3.28106
6.86953
16.4143
15.3559
13.9647
13.6946
13.8156
13.9578
13.9322
13.7169
13.3471
12.9922
12.3712
11.8554
1.03441
1.06971
1.09304
1.1104
1.12249
1.13486
1.14739
1.18434
1.23906
1.45525
1.82712
3.20752
6.89886
16.2631
15.0595
13.5347
12.9725
13.024
13.2217
13.4413
13.5336
13.6876
14.0053
14.5119
14.9874
1.03429
1.06983
1.09295
1.11051
1.12239
1.13494
1.14687
1.18539
1.23132
1.46527
1.80655
3.22024
6.9421
16.362
14.9813
13.4741
12.9488
13.0196
13.2656
13.5744
13.507
13.6272
13.9577
14.4453
14.9285
1.03436
1.06974
1.09301
1.11044
1.12246
1.13488
1.14732
1.1839
1.23863
1.4523
1.82341
3.19392
6.86321
16.1658
14.9234
13.409
12.9071
12.9856
13.2241
13.4343
13.4518
13.5722
13.8702
14.3077
14.8058
1.03425
1.06985
1.09293
1.11053
1.1224
1.13495
1.14683
1.18483
1.23053
1.46183
1.79633
3.20016
6.85225
16.0832
14.7936
13.3052
12.8347
12.916
13.1422
13.3004
13.3576
13.489
13.7435
14.1265
14.6379
1.03421
1.06989
1.09292
1.11057
1.12239
1.13496
1.14676
1.18429
1.22973
1.45852
1.7868
3.18032
6.76504
15.7985
14.6455
13.1912
12.7431
12.8239
13.041
13.1797
13.2293
13.3493
13.5694
13.8997
14.4227
1.03423
1.06989
1.0929
1.11058
1.12234
1.13496
1.14656
1.18349
1.22799
1.4534
1.77181
3.15338
6.63345
15.5738
14.4709
13.0556
12.6275
12.7053
12.9089
13.0269
13.0589
13.1538
13.3434
13.6144
14.1408
1.03434
1.06979
1.09294
1.11052
1.12233
1.13491
1.14673
1.18176
1.2313
1.44116
1.76341
3.11717
6.4116
15.2817
14.2775
12.9017
12.4886
12.5603
12.7442
12.8378
12.8507
12.9119
13.0571
13.2546
13.7551
1.03435
1.06981
1.09292
1.11054
1.12227
1.13488
1.14644
1.18065
1.22893
1.43381
1.74303
3.07157
6.22187
14.9008
14.044
12.7203
12.3297
12.3932
12.5524
12.6147
12.6062
12.6226
12.7009
12.7983
13.2222
1.03433
1.06984
1.09288
1.11058
1.1222
1.13488
1.14606
1.17926
1.2261
1.42493
1.7218
3.01366
6.02021
14.4635
13.7664
12.5222
12.1578
12.2105
12.3395
12.3633
12.3295
12.2741
12.2645
12.2077
12.4552
1.03432
1.06979
1.09295
1.11048
1.1223
1.13466
1.14543
1.17767
1.22161
1.41655
1.69622
2.9537
5.82136
13.9494
13.4217
12.3293
11.9805
12.0177
12.1074
12.0969
12.0248
11.8758
11.73
11.4149
11.2733
0.957853
0.910799
0.875272
0.843993
0.820552
0.798427
0.787835
0.792252
0.799176
0.906076
1.00956
1.80044
3.25633
7.64613
7.54967
7.16222
6.61554
6.51109
6.54506
6.6377
6.72227
6.84269
7.0894
7.59514
8.49069
0.957515
0.911259
0.875023
0.844258
0.820414
0.798463
0.787969
0.790661
0.819803
0.850853
1.13085
1.59832
3.39316
7.64113
7.53514
7.09703
6.59931
6.51747
6.55966
6.66895
6.71174
6.81846
7.06923
7.59145
8.46934
0.957777
0.910862
0.875225
0.844075
0.820471
0.798539
0.787346
0.791435
0.797841
0.903177
1.00269
1.7954
3.24364
7.60739
7.49905
7.10035
6.59087
6.51239
6.54946
6.64006
6.69781
6.81715
7.0727
7.59057
8.45796
0.957428
0.911311
0.875009
0.84428
0.820472
0.798429
0.788175
0.790918
0.821158
0.852302
1.12933
1.57706
3.35729
7.51138
7.43713
7.04357
6.56817
6.49455
6.52681
6.60546
6.68421
6.81253
7.07214
7.57757
8.4508
0.95736
0.911394
0.874985
0.84433
0.820467
0.798427
0.788183
0.790919
0.821837
0.852564
1.12569
1.55128
3.3243
7.3865
7.34613
7.00389
6.54378
6.46897
6.4988
6.5713
6.65609
6.78973
7.05264
7.54517
8.43756
0.957406
0.911367
0.874945
0.844388
0.820298
0.798614
0.787554
0.790118
0.819127
0.848704
1.11564
1.53862
3.26595
7.27212
7.25699
6.96564
6.51189
6.43226
6.4599
6.52696
6.60951
6.74205
7.00548
7.48788
8.4074
0.957751
0.910952
0.87508
0.844277
0.820121
0.798933
0.786256
0.790358
0.796738
0.895936
0.988758
1.73236
3.03983
7.15127
7.16312
6.92461
6.46904
6.38322
6.40834
6.4691
6.54614
6.6736
6.92968
7.40132
8.34068
0.957768
0.910977
0.875006
0.844369
0.819943
0.799081
0.785815
0.790069
0.795917
0.892505
0.9834
1.69416
2.9522
6.94718
7.06504
6.85032
6.41939
6.32757
6.34848
6.39935
6.4671
6.58323
6.81904
7.26923
8.19455
0.957697
0.911094
0.874868
0.844584
0.81961
0.799475
0.784818
0.788619
0.79447
0.887213
0.972716
1.66446
2.85929
6.71674
6.95082
6.75888
6.36645
6.26553
6.28065
6.31799
6.37131
6.46507
6.65899
7.04813
7.88801
0.957603
0.9112
0.874766
0.84476
0.819378
0.799735
0.783815
0.786915
0.792256
0.880486
0.961341
1.62403
2.76934
6.46342
6.8142
6.65227
6.31108
6.20011
6.20804
6.22871
6.25894
6.31409
6.43277
6.67326
7.2377
0.957245
0.911709
0.874429
0.845196
0.818944
0.800104
0.782555
0.783717
0.80621
0.827419
1.05545
1.37594
2.82813
6.19023
6.6362
6.516
6.24609
6.13214
6.13257
6.13624
6.13676
6.13505
6.12895
6.06118
5.59768
0.957407
0.911484
0.874469
0.845239
0.818643
0.80061
0.780681
0.783459
0.788149
0.867578
0.943109
1.53033
2.57176
5.86851
6.45959
6.37686
6.17806
6.06135
6.04494
6.0324
6.00406
5.94614
5.85048
5.63976
5.11379
0.957195
0.911791
0.874275
0.845431
0.818555
0.800522
0.781092
0.781905
0.80044
0.818211
1.0218
1.28798
2.59087
5.56557
6.27056
6.226
6.09566
5.98629
5.95685
5.92884
5.87172
5.77533
5.63835
5.41282
4.98388
0.957315
0.911661
0.874218
0.845591
0.818089
0.801196
0.778776
0.781202
0.785019
0.854219
0.919436
1.4147
2.28868
5.13439
6.13794
6.11887
6.03891
5.92477
5.87738
5.83208
5.75355
5.63737
5.47839
5.24764
4.89041
0.957289
0.911712
0.874124
0.84572
0.817916
0.801323
0.778681
0.780061
0.783793
0.842614
0.898171
1.33096
2.07322
4.60758
6.04782
6.06723
6.00902
5.884
5.80786
5.74452
5.65607
5.5316
5.3656
5.13948
4.8277
0.957138
0.911913
0.874025
0.845835
0.817864
0.801302
0.778457
0.778571
0.788719
0.799494
0.93857
1.10245
1.97573
3.91104
6.01907
6.08829
6.01951
5.86519
5.75357
5.67314
5.57783
5.45141
5.28731
5.07431
4.79706
0.957135
0.911897
0.874036
0.845846
0.817818
0.801371
0.777907
0.77787
0.784279
0.79306
0.902716
1.02266
1.72182
3.09666
5.97486
6.14406
6.05858
5.86588
5.71721
5.62009
5.51957
5.39349
5.23487
5.03623
4.78951
0.957039
0.912005
0.874067
0.845739
0.818115
0.800807
0.778848
0.776147
0.780119
0.788381
0.876191
0.969179
1.58858
2.64156
5.70732
6.1303
6.04984
5.85929
5.67918
5.57159
5.47235
5.35114
5.20141
5.0163
4.79424
0.957114
0.91183
0.874375
0.845207
0.81892
0.799429
0.78049
0.771088
0.77436
0.779971
0.857908
0.932611
1.4751
2.40541
5.28499
6.04193
5.99031
5.84002
5.64816
5.53372
5.4363
5.3218
5.18191
5.01397
4.81136
0.957512
0.911208
0.874915
0.844431
0.819824
0.798084
0.781862
0.767248
0.768224
0.787051
0.804012
0.985765
1.21924
2.3303
4.79635
5.86718
5.8651
5.7957
5.64529
5.51675
5.41636
5.30827
5.1783
5.02133
4.84252
0.957445
0.911269
0.875015
0.84418
0.820269
0.797276
0.782805
0.76471
0.766368
0.769639
0.826149
0.878931
1.27575
1.95058
4.1995
5.73768
5.83439
5.78433
5.6582
5.52026
5.41607
5.30976
5.1853
5.04201
4.88297
0.957578
0.911072
0.87516
0.844013
0.820409
0.797124
0.782851
0.764193
0.764418
0.774664
0.78513
0.910445
1.05425
1.81416
3.42407
5.66682
5.86264
5.81202
5.6872
5.53567
5.42473
5.3204
5.2059
5.07766
4.93073
0.957451
0.911253
0.875028
0.84419
0.820227
0.797338
0.782528
0.764213
0.763552
0.766877
0.798615
0.8414
1.06737
1.48781
2.83778
5.48537
5.90804
5.8648
5.74115
5.56697
5.44655
5.34502
5.23847
5.11791
4.98133
0.957328
0.911435
0.874871
0.844428
0.819936
0.797754
0.781785
0.764795
0.759312
0.761322
0.787907
0.812662
1.01343
1.31336
2.50248
5.07731
5.88413
5.8655
5.77806
5.60269
5.47654
5.37734
5.27591
5.16169
5.03315
0.95733
0.91145
0.874787
0.844586
0.819672
0.798171
0.781095
0.765551
0.756814
0.758462
0.77886
0.796465
0.97647
1.20137
2.28672
4.64422
5.79538
5.83677
5.78213
5.6507
5.51318
5.41209
5.31508
5.20739
5.08654
0.95729
0.911539
0.87465
0.8448
0.819342
0.798663
0.780298
0.766439
0.753967
0.754785
0.771468
0.785026
0.935925
1.1102
2.03183
3.99457
5.68515
5.85006
5.80841
5.70175
5.5626
5.45761
5.36095
5.25665
5.14116
0.957295
0.911562
0.874572
0.844932
0.819119
0.798986
0.779791
0.766976
0.752359
0.75279
0.764981
0.775485
0.895979
1.02903
1.76108
3.24471
5.6413
5.91982
5.8826
5.78095
5.62679
5.51242
5.41258
5.30885
5.19631
0.957314
0.911553
0.874525
0.84501
0.818969
0.79921
0.779442
0.767359
0.751318
0.751489
0.759681
0.768435
0.863863
0.958713
1.58273
2.64767
5.49845
6.02268
5.98564
5.87779
5.69553
5.56621
5.46141
5.35763
5.24735
0.957327
0.911531
0.874524
0.845025
0.81893
0.799287
0.77929
0.767528
0.750513
0.750477
0.755713
0.762578
0.841395
0.915293
1.45555
2.34927
5.11203
6.0502
6.03516
5.95214
5.7716
5.61917
5.50509
5.40091
5.29475
0.957209
0.911677
0.874465
0.845084
0.818949
0.799221
0.779454
0.767221
0.750968
0.74966
0.752631
0.758037
0.826644
0.89072
1.36459
2.16347
4.77427
6.02424
6.04692
5.9863
5.83922
5.66959
5.54604
5.44158
5.33939
0.957138
0.911746
0.874482
0.845037
0.819095
0.798977
0.77985
0.766566
0.751775
0.747567
0.749936
0.754554
0.813999
0.870672
1.27399
1.96233
4.25943
6.001
6.09739
6.0444
5.90894
5.72202
5.58722
5.48152
5.38248
0.957198
0.911641
0.874589
0.844875
0.81931
0.798658
0.780304
0.765835
0.752629
0.745046
0.747098
0.750875
0.801617
0.849621
1.18834
1.7565
3.66356
6.04838
6.21707
6.15343
5.98851
5.76854
5.62205
5.51713
5.42316
0.95726
0.911548
0.874675
0.844741
0.819463
0.79844
0.780569
0.765476
0.752925
0.744248
0.74562
0.749444
0.788812
0.835709
1.09908
1.5631
3.12407
6.1113
6.37811
6.28999
6.06691
5.80639
5.65014
5.54859
5.46085
0.957338
0.911433
0.874785
0.844572
0.819676
0.798106
0.781046
0.764664
0.753903
0.741136
0.742323
0.744753
0.780655
0.813306
1.05516
1.4401
2.87246
5.98913
6.47748
6.38171
6.13105
5.8384
5.67493
5.57814
5.49686
0.957371
0.911389
0.874832
0.844499
0.819765
0.797968
0.781222
0.764379
0.754164
0.740188
0.74086
0.743008
0.774931
0.802608
1.02857
1.36164
2.73489
5.76953
6.4585
6.38132
6.16049
5.86456
5.70193
5.60987
5.53306
0.95738
0.911385
0.874834
0.844498
0.819757
0.797979
0.78119
0.764418
0.754068
0.740203
0.740613
0.743011
0.771754
0.802087
1.00813
1.34778
2.63124
5.6399
6.38459
6.33248
6.15658
5.87839
5.72602
5.63956
5.56583
0.957385
0.911382
0.874829
0.844511
0.819732
0.798025
0.781112
0.764547
0.753815
0.740574
0.739303
0.741397
0.767609
0.788947
0.998173
1.26688
2.54881
5.43123
6.30854
6.27481
6.14592
5.90516
5.76062
5.67241
5.59714
0.957381
0.911389
0.874814
0.844537
0.819697
0.798079
0.781044
0.764633
0.753713
0.740577
0.739286
0.741495
0.766146
0.792516
0.977076
1.27244
2.42117
5.17297
6.27774
6.26079
6.16125
5.95467
5.79935
5.70044
5.62119
0.957328
0.911463
0.874762
0.844609
0.819627
0.798176
0.780918
0.764803
0.753423
0.740749
0.737691
0.739423
0.762113
0.782055
0.960384
1.20439
2.30444
4.87691
6.29089
6.28763
6.20524
6.01734
5.83374
5.71937
5.63642
0.957296
0.911507
0.874734
0.844657
0.819576
0.798254
0.780806
0.764969
0.753118
0.741083
0.736234
0.737607
0.757513
0.773148
0.938655
1.13454
2.16548
4.48509
6.36761
6.37841
6.29037
6.07931
5.86186
5.73317
5.64729
0.957334
0.911454
0.874758
0.844636
0.819574
0.798272
0.780768
0.765031
0.753017
0.741171
0.735768
0.737165
0.753864
0.767841
0.913833
1.0917
1.98806
4.00051
6.56315
6.55869
6.42567
6.1286
5.87512
5.73537
5.64865
0.957384
0.911399
0.874764
0.84463
0.819542
0.798326
0.780676
0.765169
0.752834
0.741354
0.735566
0.737008
0.751095
0.768541
0.885117
1.05705
1.79491
3.40757
6.84702
6.81739
6.61962
6.19203
5.88591
5.7314
5.64458
0.957343
0.911467
0.874709
0.844703
0.819452
0.798449
0.78049
0.765443
0.752354
0.74191
0.733419
0.73412
0.747018
0.757973
0.871798
0.987889
1.73523
3.12374
6.92612
6.99296
6.77324
6.27685
5.89168
5.71638
5.63142
0.957334
0.911486
0.874688
0.84474
0.819403
0.798522
0.780381
0.765594
0.752114
0.742161
0.732661
0.733226
0.745065
0.754907
0.863189
0.969082
1.70193
3.03348
6.9263
7.06121
6.82687
6.29546
5.87788
5.69198
5.61208
0.957338
0.911482
0.874683
0.844751
0.819383
0.798555
0.780336
0.765655
0.752026
0.742244
0.732368
0.732856
0.743948
0.753069
0.858108
0.96002
1.68093
2.98874
6.90528
7.04806
6.8115
6.27745
5.85847
5.6737
5.59749
0.957338
0.911484
0.874675
0.844763
0.819363
0.798584
0.780294
0.765716
0.751939
0.742341
0.732135
0.732571
0.743268
0.752005
0.855468
0.954864
1.66562
2.95331
6.86671
7.00963
6.77661
6.25251
5.8453
5.66352
5.58781
0.957336
0.911489
0.874668
0.844774
0.819347
0.798609
0.78026
0.765762
0.751881
0.742408
0.732141
0.732598
0.743211
0.752788
0.855422
0.955834
1.67159
2.94556
6.84314
6.97012
6.73963
6.22532
5.8291
5.64965
5.57421
0.95734
0.911484
0.874671
0.844772
0.81935
0.798602
0.780272
0.765739
0.751915
0.742357
0.732083
0.732491
0.742754
0.751293
0.852766
0.95015
1.65306
2.91936
6.79054
6.94992
6.72609
6.22046
5.82305
5.64216
5.566
0.957337
0.911489
0.874665
0.84478
0.819338
0.79862
0.780247
0.765776
0.751867
0.742422
0.732073
0.732485
0.742765
0.751493
0.853189
0.950002
1.65858
2.91622
6.77826
6.92276
6.7007
6.20216
5.81267
5.63422
5.55832
0.957331
0.911498
0.874659
0.844788
0.819331
0.798627
0.780239
0.765781
0.751873
0.74241
0.73222
0.732683
0.743315
0.75301
0.854652
0.954621
1.66537
2.92082
6.77218
6.89656
6.67575
6.18329
5.80447
5.63016
5.55522
1.03426
1.06975
1.09316
1.11005
1.12306
1.13287
1.14618
1.16828
1.24178
1.34214
1.80894
2.67812
5.80405
13.3405
13.0013
12.1369
11.8075
11.824
11.8637
11.826
11.6947
11.4314
11.107
10.4104
8.7639
1.03432
1.06965
1.09324
1.10995
1.12312
1.13261
1.14555
1.16446
1.2393
1.32126
1.78961
2.56855
5.54268
12.7347
12.591
11.9816
11.6454
11.6309
11.6234
11.555
11.3604
10.9947
10.5138
9.65037
7.98445
1.03416
1.06989
1.093
1.11027
1.12276
1.13296
1.14496
1.16457
1.23156
1.31739
1.74691
2.48091
5.29259
12.0342
12.2193
11.8554
11.5034
11.446
11.4056
11.2922
11.0347
10.6163
10.0666
9.24275
7.99801
1.03417
1.06991
1.0929
1.1104
1.12253
1.13303
1.14434
1.15983
1.22532
1.29302
1.70818
2.35727
4.92114
11.2538
11.9974
11.736
11.3843
11.284
11.2112
11.0556
10.7537
10.3295
9.78197
9.04657
8.05662
1.03418
1.06992
1.09282
1.1106
1.12204
1.13429
1.14199
1.16634
1.19522
1.34222
1.51098
2.49232
4.34853
10.3157
11.866
11.6654
11.2865
11.1406
11.0365
10.8493
10.5423
10.1311
9.61549
8.96822
8.16017
1.03412
1.06995
1.09288
1.11044
1.1224
1.13324
1.14271
1.15821
1.20886
1.27161
1.59269
2.08904
4.12233
9.09638
11.8488
11.66
11.2227
11.0099
10.8793
10.6813
10.3854
9.99733
9.52057
8.9459
8.25724
1.03411
1.06996
1.09287
1.11047
1.12233
1.13324
1.14192
1.15598
1.19923
1.2559
1.52417
1.94248
3.62112
7.70517
11.9163
11.699
11.1715
10.8928
10.7432
10.5478
10.2681
9.9065
9.47092
8.95343
8.35421
1.03413
1.06996
1.09281
1.11061
1.122
1.13384
1.14
1.15641
1.17794
1.26972
1.37866
1.94084
2.98455
6.33575
11.9694
11.7364
11.1446
10.795
10.6273
10.4409
10.1812
9.84889
9.45315
8.98168
8.46259
1.03416
1.0699
1.0929
1.11047
1.12214
1.13348
1.13964
1.15323
1.17362
1.24848
1.34472
1.8058
2.65054
5.47191
11.6598
11.6037
11.1333
10.7114
10.5273
10.3551
10.1188
9.81872
9.45852
9.04105
8.58266
1.03434
1.06967
1.09313
1.11015
1.12246
1.13296
1.13991
1.15148
1.17057
1.23348
1.32061
1.7137
2.42683
4.96256
10.8631
11.3142
11.0593
10.6469
10.4554
10.2942
10.0816
9.81179
9.48066
9.11501
8.71076
1.03441
1.06954
1.09334
1.1098
1.12301
1.13202
1.14151
1.14912
1.17237
1.20197
1.3448
1.51261
2.45169
4.21003
9.6978
11.1251
10.9849
10.6514
10.4272
10.2631
10.0694
9.82003
9.52714
9.20138
8.84268
1.03451
1.0694
1.09349
1.10959
1.12324
1.1317
1.14163
1.14816
1.16822
1.19359
1.31393
1.45367
2.23029
3.66306
8.35131
11.13
11.0188
10.692
10.4322
10.2605
10.0759
9.84711
9.59035
9.29922
8.97647
1.03449
1.06944
1.09341
1.10973
1.123
1.13206
1.14056
1.14798
1.15861
1.19989
1.24226
1.49257
1.84662
3.32527
6.86638
11.2038
11.126
10.792
10.458
10.2718
10.0992
9.90159
9.66873
9.40254
9.10933
1.0344
1.06956
1.09332
1.10985
1.12293
1.13201
1.14081
1.14631
1.16002
1.18126
1.2558
1.36652
1.82406
2.71534
5.54216
11.1213
11.1943
10.9247
10.5127
10.3045
10.1482
9.96927
9.75449
9.50886
9.23893
1.03438
1.06958
1.09329
1.10988
1.1229
1.132
1.14075
1.14573
1.15757
1.17608
1.23945
1.32942
1.7193
2.44515
4.91673
10.5761
11.1535
10.9603
10.5716
10.3636
10.212
10.0437
9.84385
9.61557
9.36475
1.03438
1.06959
1.09326
1.10991
1.12286
1.13204
1.14064
1.14552
1.15586
1.17215
1.22657
1.29957
1.64273
2.20218
4.39716
9.44781
11.0679
10.9736
10.6915
10.4512
10.2893
10.1266
9.93763
9.72274
9.48709
1.03433
1.06967
1.09316
1.11006
1.12266
1.13233
1.1402
1.14594
1.15445
1.1685
1.21446
1.27424
1.56401
2.01265
3.82211
8.06824
11.1287
11.0747
10.8399
10.5607
10.3801
10.2176
10.0351
9.82926
9.60472
1.03429
1.06974
1.09306
1.11022
1.12239
1.13275
1.13952
1.14711
1.15256
1.16906
1.19062
1.28661
1.40589
1.99697
3.11404
6.70668
11.3433
11.3111
11.048
10.6878
10.4777
10.3095
10.1295
9.93026
9.71536
1.03422
1.06981
1.09302
1.11025
1.12241
1.13268
1.13967
1.14649
1.15251
1.16278
1.19357
1.23684
1.42181
1.7039
2.82155
5.37699
11.2892
11.5251
11.265
10.8238
10.5808
10.4006
10.2188
10.0245
9.81893
1.03418
1.06983
1.09302
1.11024
1.12246
1.13261
1.13977
1.1463
1.15219
1.16126
1.18766
1.22658
1.38393
1.61
2.63519
4.75783
10.8195
11.5792
11.3847
10.971
10.6919
10.4883
10.3012
10.112
9.91611
1.03417
1.06982
1.09305
1.11021
1.12253
1.13252
1.13987
1.14612
1.15205
1.16008
1.183
1.21784
1.35413
1.54762
2.4503
4.25086
9.85467
11.6406
11.5109
11.1631
10.8169
10.5742
10.3797
10.1967
10.0108
1.03422
1.06976
1.0931
1.11014
1.12259
1.13244
1.13994
1.14599
1.15193
1.15879
1.17925
1.20653
1.33259
1.48178
2.2964
3.80236
8.73562
11.8436
11.7431
11.3776
10.9299
10.6481
10.4533
10.2809
10.106
1.03428
1.06969
1.09316
1.11005
1.12268
1.13232
1.14005
1.14583
1.15186
1.15815
1.17558
1.20242
1.30372
1.44651
2.10321
3.35758
7.54856
12.2935
12.1092
11.5416
11.0027
10.7056
10.522
10.3643
10.2013
1.03433
1.06964
1.09322
1.10996
1.12276
1.1322
1.14016
1.14566
1.15178
1.15724
1.17231
1.19547
1.28128
1.406
1.94611
2.98771
6.37075
12.7051
12.4323
11.6753
11.0675
10.7651
10.5945
10.4501
10.2968
1.03436
1.0696
1.09326
1.10992
1.12281
1.13213
1.14022
1.14555
1.15172
1.15664
1.17005
1.19093
1.26651
1.37899
1.85129
2.77167
5.87412
12.591
12.4338
11.7921
11.1516
10.8391
10.6764
10.5408
10.393
1.03441
1.06956
1.09328
1.1099
1.1228
1.13216
1.14013
1.14569
1.15117
1.15664
1.16448
1.19561
1.22669
1.41697
1.65415
2.83346
5.39507
12.309
12.3379
11.91
11.2586
10.9332
10.769
10.6341
10.4864
1.03439
1.0696
1.09326
1.10993
1.12278
1.13216
1.14016
1.14556
1.15158
1.15549
1.16753
1.18218
1.25234
1.33044
1.76347
2.53423
5.24469
11.8151
12.2734
11.9692
11.3877
11.0563
10.8741
10.727
10.5735
1.03442
1.06956
1.09326
1.10993
1.12276
1.13221
1.14008
1.14571
1.15115
1.15597
1.16352
1.18971
1.21846
1.38298
1.57529
2.64604
4.7861
11.3101
12.3085
12.0647
11.5499
11.1932
10.9749
10.8072
10.646
1.0344
1.06958
1.09324
1.10996
1.12273
1.13226
1.14001
1.1458
1.15103
1.15596
1.16349
1.18734
1.21665
1.36795
1.54738
2.54158
4.50284
10.7256
12.4315
12.2221
11.7278
11.3145
11.0508
10.8638
10.6988
1.03434
1.06964
1.09322
1.10999
1.12274
1.13223
1.14012
1.14558
1.15144
1.15512
1.16473
1.17913
1.23306
1.2994
1.6493
2.20245
4.45755
9.99512
12.6777
12.4488
11.8783
11.3915
11.0927
10.8969
10.7333
1.03433
1.06966
1.09321
1.11001
1.12273
1.13224
1.1401
1.14558
1.1514
1.15469
1.16391
1.17537
1.22802
1.28104
1.61082
2.09631
4.13415
9.1525
13.1044
12.7695
11.9893
11.418
11.0998
10.9082
10.7523
1.03439
1.06959
1.09323
1.10997
1.12273
1.13226
1.14003
1.14573
1.15102
1.15544
1.16122
1.17974
1.20115
1.31574
1.44625
2.17765
3.56752
8.20193
13.7108
13.1892
12.0925
11.4171
11.0824
10.8998
10.755
1.03437
1.06962
1.09321
1.10999
1.12272
1.13226
1.14007
1.14561
1.1513
1.15449
1.16208
1.17331
1.21293
1.26272
1.51221
1.88655
3.42018
7.15187
14.3312
13.6569
12.2562
11.4348
11.0557
10.8781
10.7482
1.03435
1.06964
1.09319
1.11002
1.12268
1.1323
1.14002
1.14566
1.15121
1.1545
1.16139
1.17257
1.20811
1.26113
1.4748
1.84147
3.19926
6.65349
14.6438
13.9477
12.4275
11.4683
11.0338
10.8526
10.7348
1.03433
1.06968
1.09316
1.11006
1.12264
1.13236
1.13994
1.14577
1.15105
1.15464
1.1611
1.17154
1.20603
1.25268
1.46685
1.79814
3.13722
6.43319
14.7145
14.0139
12.4908
11.4925
11.0274
10.8379
10.725
1.03434
1.06967
1.09316
1.11007
1.12262
1.13238
1.13991
1.14581
1.15101
1.15467
1.16095
1.17115
1.20443
1.24897
1.45886
1.76782
3.10238
6.27281
14.679
13.9963
12.5119
11.5212
11.0413
10.8394
10.7225
1.03433
1.06968
1.09315
1.11009
1.12258
1.13245
1.1398
1.14601
1.15063
1.15551
1.1597
1.17399
1.18923
1.27429
1.36471
1.90719
2.87752
6.31347
14.6135
13.9567
12.5103
11.5474
11.0619
10.8456
10.7217
1.03431
1.06971
1.09312
1.11012
1.12256
1.13248
1.13979
1.14597
1.15081
1.15487
1.16094
1.16921
1.20391
1.23894
1.455
1.74432
3.0691
6.16353
14.5263
13.9085
12.5288
11.5678
11.076
10.8505
10.7211
1.03432
1.06969
1.09313
1.11013
1.12254
1.13252
1.13971
1.14613
1.15051
1.15568
1.16008
1.17386
1.19086
1.27449
1.36741
1.89729
2.84799
6.24325
14.4742
13.874
12.5135
11.5769
11.0877
10.8571
10.7233
1.03433
1.06969
1.09312
1.11012
1.12254
1.13251
1.13971
1.14612
1.15052
1.1557
1.16015
1.17392
1.19106
1.27441
1.36654
1.89561
2.84023
6.2326
14.4598
13.8585
12.5053
11.5816
11.0955
10.8626
10.7262
1.00886
1.03169
1.05953
1.08699
1.11439
1.13732
1.16534
1.19606
1.29076
1.41874
1.98036
3.03923
6.78411
15.7103
14.8861
13.7192
13.4788
13.5711
13.6486
13.5879
13.3204
12.8284
12.2743
11.2683
9.17348
1.00886
1.03167
1.05957
1.08692
1.11447
1.13715
1.16517
1.19494
1.28488
1.4086
1.94037
2.94498
6.49078
15.0112
14.4464
13.5207
13.283
13.3346
13.3475
13.249
12.9201
12.3207
11.5862
10.4131
8.37596
1.00866
1.03205
1.05907
1.08775
1.11311
1.13931
1.1603
1.19724
1.25451
1.45734
1.75075
3.03101
5.95332
14.2526
14.0415
13.4157
13.1122
13.1095
13.0771
12.9251
12.5365
11.8914
11.0862
9.97551
8.42115
1.00861
1.03213
1.05899
1.08782
1.11308
1.13914
1.16025
1.19508
1.24671
1.43803
1.6975
2.90009
5.53395
13.3832
13.7459
13.3376
12.9645
12.9002
12.8252
12.6288
12.2043
11.5748
10.7943
9.8127
8.56521
1.00878
1.03181
1.05938
1.08717
1.11412
1.13719
1.16378
1.18717
1.26275
1.34717
1.78901
2.49516
5.27722
12.3207
13.6133
13.2631
12.8273
12.7024
12.5988
12.3722
11.9489
11.3641
10.6476
9.80315
8.78963
1.00877
1.03178
1.05951
1.08693
1.11449
1.13665
1.16397
1.18763
1.2531
1.34372
1.72404
2.36857
4.83323
11.0423
13.6267
13.2528
12.7056
12.5189
12.3958
12.1564
11.765
11.23
10.5794
9.82271
8.97007
1.00876
1.03178
1.05952
1.0869
1.1145
1.13653
1.16349
1.18509
1.24265
1.32404
1.64997
2.20123
4.26673
9.52347
13.752
13.2822
12.5912
12.3489
12.2173
11.9871
11.6291
11.145
10.564
9.87594
9.13832
1.00876
1.03179
1.05948
1.08697
1.11437
1.13653
1.16285
1.1817
1.23217
1.29829
1.57568
2.00994
3.66943
7.82993
13.991
13.3523
12.5042
12.2044
12.0679
11.8545
11.5281
11.0943
10.5726
9.96671
9.31595
1.00875
1.03185
1.05938
1.08714
1.11408
1.13683
1.16189
1.17977
1.22241
1.28163
1.51158
1.86113
3.21496
6.49625
13.8415
13.2822
12.4465
12.0933
11.945
11.7516
11.4582
11.0752
10.6005
10.0727
9.50058
1.00878
1.03189
1.05923
1.08749
1.11334
1.13818
1.15916
1.18391
1.21174
1.29245
1.41051
1.88427
2.79524
5.89164
13.1041
12.979
12.4322
12.0176
11.8469
11.6748
11.4171
11.0782
10.6576
10.1914
9.68768
1.00882
1.03184
1.0593
1.08739
1.11342
1.13807
1.15904
1.18319
1.20581
1.28052
1.36392
1.80185
2.50887
5.19742
11.738
12.7178
12.4298
11.9942
11.7888
11.6275
11.4018
11.0942
10.7308
10.3206
9.87432
1.00894
1.03166
1.0595
1.08707
1.11387
1.13725
1.16025
1.1798
1.20725
1.24972
1.39831
1.59073
2.53417
4.34246
10.2634
12.7666
12.4893
12.0069
11.7712
11.6123
11.4072
11.1327
10.8173
10.4587
10.0592
1.00898
1.03161
1.0595
1.08711
1.11375
1.13743
1.15971
1.17969
1.20344
1.23783
1.36306
1.51891
2.27444
3.73814
8.58917
12.9773
12.6486
12.0581
11.7793
11.6174
11.4297
11.1982
10.9185
10.5951
10.2403
1.00891
1.03172
1.05939
1.0873
1.11348
1.13792
1.15871
1.18131
1.19784
1.24254
1.29884
1.54139
1.91636
3.32131
6.77395
13.1499
12.806
12.1701
11.8152
11.6416
11.4808
11.2778
11.0249
10.7324
10.4111
1.0089
1.03173
1.05939
1.08727
1.11355
1.13778
1.15884
1.18068
1.19668
1.23393
1.28496
1.48752
1.77658
2.9871
5.78557
12.7646
12.7263
12.338
11.8916