/*--------------------------------*- C++ -*----------------------------------*\
  =========                 |
  \\      /  F ield         | OpenFOAM: The Open Source CFD Toolbox
   \\    /   O peration     | Website:  https://openfoam.org
    \\  /    A nd           | Version:  6
     \\/     M anipulation  |
\*---------------------------------------------------------------------------*/
FoamFile
{
    version     2.0;
    format      ascii;
    class       surfaceScalarField;
    location    "10";
    object      phi;
}
// * * * * * * * * * * * * * * * * * * * * * * * * * * * * * * * * * * * * * //

dimensions      [1 0 -1 0 0 0 0];

internalField   nonuniform List<scalar> 
72625
(
0.0016234
4.98229e-09
5.88813e-05
0.00157664
-3.84127e-09
4.67651e-05
0.00153792
7.75811e-09
3.87157e-05
0.00150613
-6.68442e-09
3.17962e-05
0.00147887
1.56241e-08
2.72142e-05
0.00145664
-1.59872e-08
2.23826e-05
0.00143548
6.12813e-08
1.99921e-05
0.00141802
6.88707e-08
1.82153e-05
0.00140511
9.97416e-08
1.31554e-05
0.00138466
2.63319e-07
1.96383e-05
0.0013974
5.07904e-07
-1.26443e-05
0.00134716
2.53332e-06
4.73073e-05
0.00152849
7.23785e-06
-0.00018934
0.00178715
5.05612e-05
-0.00031021
0.00174993
4.71953e-05
-1.07579e-05
0.00156501
3.05926e-05
0.000153693
0.00147191
3.38902e-05
5.93632e-05
0.00141285
3.85527e-05
2.07784e-05
0.00137306
4.58593e-05
-5.76017e-06
0.00138681
6.65494e-05
-8.01207e-05
0.00130995
5.78879e-05
1.88135e-05
0.00119277
4.32856e-05
7.35108e-05
0.00101751
2.97713e-05
0.000143381
0.000698797
2.50207e-05
0.000292507
-7.76986e-06
0.000713225
0.00162343
5.0739e-09
5.88725e-05
0.00157667
3.35289e-09
4.6776e-05
0.00153794
7.70523e-09
3.87043e-05
0.00150612
-2.30406e-09
3.18111e-05
0.00147892
1.04052e-08
2.71927e-05
0.00145664
-3.80291e-09
2.24135e-05
0.00143516
3.93399e-08
1.99195e-05
0.00141813
1.36434e-07
1.81788e-05
0.00140539
2.53414e-07
1.32188e-05
0.00138497
5.66535e-07
1.94426e-05
0.00139678
1.19135e-06
-1.21846e-05
0.00134959
3.26286e-06
4.61166e-05
0.00152928
9.63948e-06
-0.00018265
0.00180529
4.4818e-05
-0.000271316
0.00181562
7.42646e-05
-3.8276e-05
0.00161028
8.90842e-05
0.00014631
0.00151251
8.22135e-05
4.94885e-05
0.00145845
8.39003e-05
8.96691e-06
0.00143369
9.02057e-05
-1.95835e-05
0.00143814
0.000104988
-4.21645e-05
0.0013934
0.000107153
-5.22086e-06
0.00129619
0.000103741
3.66225e-05
0.00111391
9.3885e-05
0.000117728
0.00078189
8.10647e-05
0.000273945
7.8512e-05
0.000700174
0.00162341
1.65149e-08
5.88695e-05
0.00157663
7.31296e-09
4.67786e-05
0.00153793
8.16941e-09
3.86978e-05
0.00150611
-9.6452e-09
3.18209e-05
0.00147892
1.6356e-08
2.71778e-05
0.00145664
-1.96923e-08
2.24335e-05
0.00143515
1.26581e-07
1.98705e-05
0.001418
3.29654e-07
1.81462e-05
0.00140513
5.80054e-07
1.31593e-05
0.00138506
5.26406e-07
1.94441e-05
0.00139464
4.18668e-06
-1.22914e-05
0.00135078
8.87714e-07
4.59151e-05
0.00152098
2.41376e-05
-0.000185221
0.00176568
0.000100035
-0.000300962
0.00175111
0.000121758
-3.37538e-05
0.00157482
0.000123774
0.000141172
0.00148621
0.000125949
4.49395e-05
0.00143863
0.000127773
4.05288e-06
0.00142026
0.000133201
-2.46967e-05
0.00141528
0.000143525
-3.26418e-05
0.00137217
0.000161608
-1.19329e-05
0.00128518
0.000168801
2.15377e-05
0.00111012
0.000165877
0.000103055
0.000760649
0.000160784
0.000268086
0.000170947
0.000672273
0.00162338
7.12215e-08
5.8857e-05
0.00157666
-6.56503e-08
4.6792e-05
0.00153794
5.06261e-08
3.86852e-05
0.00150614
-5.08075e-08
3.18412e-05
0.00147896
3.41848e-08
2.71481e-05
0.00145661
-1.78781e-08
2.24722e-05
0.00143557
5.54103e-08
1.97393e-05
0.0014185
5.35121e-07
1.79061e-05
0.0014102
-3.57151e-06
1.30096e-05
0.00137844
1.2949e-05
1.87691e-05
0.00142509
-2.88336e-05
-1.34114e-05
0.00132602
5.42793e-05
4.53828e-05
0.00154216
-9.56459e-06
-0.000182993
0.00178583
0.000123678
-0.000268342
0.00179992
0.000159504
-5.26719e-05
0.00159989
0.00018976
0.000133614
0.00150853
0.00017697
4.03749e-05
0.00145523
0.000180667
7.55188e-07
0.00142655
0.000193219
-3.14565e-05
0.00141184
0.000214489
-5.52314e-05
0.00136113
0.000223623
-1.17012e-05
0.00126926
0.000232989
2.74601e-05
0.00109188
0.00024064
0.000102845
0.000734003
0.000250669
0.000265946
0.000262162
0.00064633
0.00162373
-3.22266e-08
5.86893e-05
0.00157663
6.1068e-08
4.69773e-05
0.00153817
-1.63125e-08
3.8531e-05
0.00150611
7.0489e-09
3.19989e-05
0.0014791
3.50268e-08
2.70052e-05
0.00145654
-5.97533e-08
2.26083e-05
0.00143667
2.9315e-07
1.96206e-05
0.0014196
1.9615e-07
1.74075e-05
0.0013921
4.91481e-06
1.89779e-05
0.00141401
-1.04101e-05
1.42775e-06
0.00131796
3.89138e-05
2.81926e-05
0.00147243
-4.38719e-05
-5.64621e-05
0.00143443
7.92884e-05
-5.12277e-05
0.00174182
0.000138886
-0.000323659
0.00174174
0.000201736
-4.29923e-05
0.00159991
0.0002035
0.000127595
0.00152145
0.000213236
4.21785e-05
0.00147308
0.000226589
2.82587e-06
0.00145137
0.00024527
-3.05426e-05
0.00143388
0.000270981
-3.77852e-05
0.00137977
0.000287617
-1.04825e-05
0.0012813
0.000302048
2.97079e-05
0.00109882
0.00031826
0.000105488
0.000737681
0.000344474
0.000265166
0.000372205
0.000630714
0.0016234
6.16485e-08
5.88168e-05
0.00157672
-8.24327e-08
4.68418e-05
0.00153802
5.20279e-08
3.86325e-05
0.00150614
-5.09633e-08
3.19195e-05
0.0014791
3.81287e-08
2.70335e-05
0.00145648
-1.07446e-09
2.26273e-05
0.00143635
4.32149e-08
1.93271e-05
0.00141931
6.16385e-07
1.7566e-05
0.00141455
-3.65338e-06
1.28774e-05
0.00137388
1.27628e-05
1.79039e-05
0.00145573
-2.94245e-05
-1.36084e-05
0.0013097
5.90772e-05
4.29575e-05
0.00156556
-5.91776e-06
-0.000171352
0.00176989
0.000199421
-0.0002638
0.00180394
0.000236173
-7.12433e-05
0.00162259
0.00025804
0.000126077
0.0015386
0.000257793
3.91598e-05
0.00149355
0.000272538
-6.82805e-07
0.00147378
0.000295366
-3.06567e-05
0.00145099
0.000324123
-2.92198e-05
0.0013978
0.00034927
-8.94885e-06
0.00130025
0.00037259
2.72567e-05
0.00111314
0.000403004
0.000103129
0.000749164
0.000445196
0.000261182
0.000511172
0.000612841
0.0016238
-6.05713e-08
5.86487e-05
0.00157663
6.63246e-08
4.70302e-05
0.00153824
-3.29944e-08
3.84729e-05
0.00150607
3.96308e-08
3.20778e-05
0.00147922
-1.97071e-09
2.68907e-05
0.00145646
2.05434e-09
2.27545e-05
0.00143718
6.29437e-08
1.92504e-05
0.00142107
-2.74677e-07
1.70158e-05
0.00139413
4.34384e-06
1.88873e-05
0.00141406
-9.0418e-06
1.88068e-06
0.00131985
3.65882e-05
2.80668e-05
0.0014729
-3.60075e-05
-5.80804e-05
0.00144062
7.06205e-05
-4.46077e-05
0.00175274
0.000194867
-0.000308685
0.00179742
0.000261298
-7.04818e-05
0.00164187
0.000293221
0.000119547
0.00156129
0.000298763
3.93007e-05
0.00151821
0.000316698
-9.12518e-07
0.00149821
0.000343354
-2.842e-05
0.00147321
0.000375783
-2.56687e-05
0.00142041
0.00040818
-6.45989e-06
0.00132334
0.000442586
2.69651e-05
0.00113445
0.00049198
0.000100703
0.000768367
0.000558531
0.000250843
0.000698422
0.00058311
0.00162344
-4.31853e-09
5.88146e-05
0.00157666
-9.67552e-09
4.68511e-05
0.001538
1.25433e-08
3.86131e-05
0.0015061
-6.02075e-09
3.19441e-05
0.00147908
2.28351e-08
2.69941e-05
0.00145647
-1.15061e-09
2.26728e-05
0.00143624
5.04805e-08
1.9249e-05
0.00141915
1.50482e-07
1.75595e-05
0.00140956
2.84129e-07
1.32716e-05
0.00138136
1.92536e-06
1.75751e-05
0.00142679
1.41811e-06
-1.03262e-05
0.00133312
1.85137e-05
3.89853e-05
0.00153004
3.93605e-05
-0.000166037
0.00176047
0.000241377
-0.000278137
0.00179368
0.000299519
-7.19817e-05
0.00164586
0.000331732
0.000108648
0.00157088
0.000336435
3.71028e-05
0.00153277
0.00035714
-2.10272e-06
0.00151558
0.000386825
-2.65575e-05
0.00149149
0.000423128
-2.22602e-05
0.00144132
0.000462368
-3.95836e-06
0.0013465
0.000510056
2.70231e-05
0.00115929
0.000583613
9.61965e-05
0.000785745
0.000693868
0.000236966
0.0009475
0.000537893
0.00162347
1.7925e-08
5.88151e-05
0.00157661
-5.00101e-09
4.68541e-05
0.00153801
1.26747e-08
3.86018e-05
0.00150607
-2.56116e-08
3.19587e-05
0.00147908
3.84835e-08
2.69724e-05
0.00145637
-4.43356e-08
2.2698e-05
0.00143794
2.41207e-07
1.92302e-05
0.00141906
5.02112e-07
1.76129e-05
0.00140529
8.65333e-07
1.35299e-05
0.00138758
1.62439e-06
1.75406e-05
0.00139136
5.80805e-06
-8.10741e-06
0.00136194
1.24199e-05
3.52491e-05
0.0015002
5.31468e-05
-0.000152485
0.00176664
0.000259115
-0.000285361
0.00180054
0.000335254
-7.00953e-05
0.00166276
0.000372651
9.64148e-05
0.00158818
0.000375617
3.53873e-05
0.00155303
0.000396227
-3.60374e-06
0.00153696
0.000426675
-2.37823e-05
0.00151356
0.000464985
-1.78335e-05
0.00146809
0.000510499
-2.17531e-06
0.00137779
0.000572127
2.81486e-05
0.00119956
0.000674091
8.8066e-05
0.000828629
0.000852347
0.000211463
0.00131421
0.000462603
0.00162348
5.87916e-05
5.88126e-08
0.00157663
4.68873e-05
-5.49635e-08
0.00153805
3.85672e-05
3.67977e-08
0.00150606
3.20098e-05
-4.07588e-08
0.00147918
2.69005e-05
2.23783e-08
0.00145633
2.27986e-05
2.58457e-09
0.00143661
1.90296e-05
8.07901e-08
0.00141988
1.74387e-05
7.32256e-07
0.0014092
1.3438e-05
-2.3736e-06
0.00138141
1.72446e-05
1.23177e-05
0.00141754
-8.80273e-06
-2.11776e-05
0.00133372
3.49454e-05
6.09243e-05
0.00152555
-0.000156286
1.71603e-05
0.00179161
-0.000279966
0.000271695
0.00181631
-6.02498e-05
0.000370255
0.00169498
7.90582e-05
0.000414442
0.00161814
3.48421e-05
0.000417585
0.00158458
-5.4664e-06
0.000435571
0.00156578
-1.97026e-05
0.000465233
0.00154197
-1.42993e-05
0.000503582
0.00150206
-1.96398e-06
0.000553085
0.00142185
2.68233e-05
0.000625713
0.00126781
7.40842e-05
0.000754352
0.000941283
0.00017278
0.00100551
0.000336706
0.00191929
0.00172991
2.43609e-09
7.17781e-06
0.00176403
-2.75999e-10
1.26422e-05
0.00178831
4.45301e-09
1.44299e-05
0.00180603
-6.5436e-11
1.40801e-05
0.00181994
6.02778e-09
1.32964e-05
0.00183048
9.98814e-10
1.18477e-05
0.00183898
7.78395e-09
1.14726e-05
0.00184593
2.63436e-08
1.12221e-05
0.00184907
1.33046e-07
9.87999e-06
0.00185912
1.74512e-07
9.30842e-06
0.00184017
1.11082e-06
5.0575e-06
0.00188984
1.92905e-06
-4.52877e-06
0.00177357
1.37754e-05
-8.84097e-05
0.00159623
0.000207133
-0.000342162
0.00136368
0.00011744
0.000103219
0.00136073
0.000127787
2.79116e-05
0.00126259
0.00013837
1.81761e-05
0.0011077
0.000156506
1.85041e-05
0.0008595
0.000202939
3.90576e-05
0.000904127
0.000382434
-0.000506375
0.000569297
0.000270671
8.23907e-05
0.000311661
0.000203214
0.000125452
1.12371e-05
0.000217126
0.0002274
-0.000240932
0.00023014
0.000311119
0.000100045
0.000366273
0.00172991
5.00172e-09
7.17364e-06
0.00176404
2.27322e-09
1.26475e-05
0.00178831
7.08275e-09
1.44253e-05
0.00180603
2.23212e-09
1.40852e-05
0.00181993
7.50488e-09
1.32905e-05
0.00183049
5.04771e-09
1.18523e-05
0.00183894
1.63482e-08
1.14535e-05
0.00184573
7.544e-08
1.13218e-05
0.00184951
1.87891e-07
9.38656e-06
0.00185826
6.33155e-07
1.01246e-05
0.00184225
1.65206e-06
3.13881e-06
0.00188756
5.39886e-06
-2.89427e-06
0.00178069
2.22277e-05
-8.57813e-05
0.00168361
8.08909e-05
-5.02076e-05
0.0014209
0.000244382
9.63552e-05
0.00141037
0.000265046
1.86896e-05
0.00131663
0.000274755
5.82932e-06
0.00118804
0.000295861
-3.16871e-06
0.00106437
0.000322504
-1.4846e-05
0.000949616
0.000386728
6.94383e-05
0.000731167
0.00044258
3.91013e-05
0.000406885
0.00046353
9.60453e-05
8.71476e-05
0.000476831
0.000178295
-0.000139781
0.000462569
0.00026631
0.000319409
0.000336132
0.0017299
1.1565e-08
7.17423e-06
0.00176403
4.41405e-09
1.26457e-05
0.0017883
1.11373e-08
1.44248e-05
0.00180604
1.21714e-09
1.4085e-05
0.00181992
9.63187e-09
1.32922e-05
0.00183051
5.65262e-09
1.18477e-05
0.00183886
2.82233e-08
1.14953e-05
0.0018457
1.49906e-07
1.12169e-05
0.00184891
3.09111e-07
9.8359e-06
0.00185827
1.31819e-06
9.28481e-06
0.00184024
2.70646e-06
4.52867e-06
0.00188583
9.27327e-06
-3.76881e-06
0.00177844
3.67724e-05
-9.39129e-05
0.00157073
0.000350361
-0.000365002
0.0013626
0.000323737
9.39537e-05
0.00137525
0.000371084
2.1661e-05
0.0012943
0.00039822
1.51272e-06
0.00117722
0.000431124
-1.56542e-05
0.00107492
0.000453964
-5.30126e-05
0.000968301
0.000497469
-3.4909e-05
0.00075621
0.000613948
2.69296e-05
0.00042813
0.000708846
9.74342e-05
0.000112918
0.000725152
0.000170291
-0.000112799
0.000705096
0.000249476
0.000549282
0.000324476
0.00172989
2.97121e-08
7.1661e-06
0.00176404
-1.33266e-08
1.26548e-05
0.00178829
2.61791e-08
1.44173e-05
0.00180606
-1.56719e-08
1.40942e-05
0.0018199
2.51241e-08
1.3285e-05
0.00183053
-4.42194e-09
1.18537e-05
0.00183868
1.2508e-07
1.14897e-05
0.0018454
-1.64642e-08
1.13401e-05
0.00184749
1.82361e-06
9.40564e-06
0.00185772
-3.53623e-07
1.01026e-05
0.0018361
7.98561e-06
2.77517e-06
0.00188358
8.93359e-06
-1.97223e-06
0.00178661
3.57949e-05
-8.65571e-05
0.00166626
0.000278173
-7.80154e-05
0.00140145
0.000452535
8.23564e-05
0.00138907
0.000498823
1.73112e-05
0.00129836
0.000530472
-2.19407e-06
0.00116787
0.00058155
-2.07073e-05
0.000995958
0.00065136
-5.63057e-05
0.000902668
0.000808999
-0.000270975
0.000656609
0.000815776
3.06236e-05
0.000403651
0.000888707
9.37752e-05
0.000119385
0.000949338
0.000163067
-9.4587e-05
0.000947046
0.000236625
0.000777035
0.000318894
0.00172979
-2.94388e-09
7.15656e-06
0.00176407
1.41745e-08
1.26636e-05
0.00178822
1.58011e-09
1.4406e-05
0.00180609
6.90872e-09
1.41095e-05
0.00181985
2.52981e-09
1.32684e-05
0.00183057
9.02568e-09
1.18672e-05
0.00183896
-5.28324e-08
1.14196e-05
0.00184432
3.93638e-07
1.16126e-05
0.00185861
-7.90851e-07
7.30531e-06
0.0018416
3.52713e-06
1.44478e-05
0.00188383
1.12995e-06
-7.29797e-06
0.00180154
1.76815e-05
1.68152e-05
0.00178262
8.94465e-05
-8.74308e-05
0.00156235
0.000462898
-0.000290202
0.00135174
0.000549839
6.93157e-05
0.0013623
0.000596273
1.87008e-05
0.00128944
0.000648316
-3.88601e-06
0.00117644
0.000720881
-2.49481e-05
0.00104799
0.000812969
-6.32359e-05
0.000940152
0.000934923
-5.38737e-05
0.000704341
0.00101691
2.32541e-05
0.000432197
0.00109512
8.92144e-05
0.00015599
0.00117486
0.000156395
-5.84228e-05
0.00120029
0.000225971
0.00103099
0.000313225
0.00172986
2.23595e-08
7.155e-06
0.00176407
-2.03404e-08
1.26684e-05
0.00178828
1.97433e-08
1.44021e-05
0.00180611
-1.85925e-08
1.41125e-05
0.00181985
2.3891e-08
1.3273e-05
0.00183063
4.61415e-10
1.18573e-05
0.00183818
1.43911e-07
1.1569e-05
0.00184467
7.64176e-08
1.14006e-05
0.00184543
1.97603e-06
9.3047e-06
0.00185607
2.85721e-07
1.04363e-05
0.00183156
1.03086e-05
1.55892e-06
0.00187354
1.51722e-05
3.29756e-06
0.00179658
7.49418e-05
-8.13225e-05
0.0016397
0.000528511
-0.000174266
0.00138509
0.000669337
6.29219e-05
0.00137864
0.000709073
1.88472e-05
0.00130507
0.000765111
-5.14371e-06
0.00120006
0.000851666
-2.76805e-05
0.00108696
0.00096135
-6.56485e-05
0.000970288
0.00109209
-6.80104e-05
0.000761166
0.00119877
1.80045e-05
0.000489734
0.00130299
8.56498e-05
0.000210422
0.00140792
0.000150176
-5.03246e-06
0.00146038
0.000216408
0.00132935
0.000304329
0.00172977
-2.08245e-08
7.15163e-06
0.00176409
1.41839e-08
1.26712e-05
0.0017882
-1.3512e-08
1.43936e-05
0.00180612
1.53325e-08
1.41245e-05
0.00181979
-6.33428e-09
1.32573e-05
0.00183065
1.96011e-08
1.18727e-05
0.00183855
-2.40488e-08
1.15175e-05
0.00184358
4.02124e-07
1.1637e-05
0.00185734
-3.86464e-07
7.49605e-06
0.00184178
3.39408e-06
1.42227e-05
0.00188355
4.34449e-06
-7.84358e-06
0.00179344
2.2365e-05
2.45892e-05
0.00179863
0.000118385
-9.46238e-05
0.00160239
0.000596164
-0.000181791
0.0013885
0.000754819
5.69602e-05
0.00138705
0.000808434
2.07437e-05
0.00132327
0.000873701
-6.52902e-06
0.00122919
0.000972885
-2.93956e-05
0.00112446
0.00109899
-6.10506e-05
0.00101134
0.00124544
-6.40783e-05
0.000820575
0.00136954
1.36423e-05
0.000564013
0.00149908
8.15258e-05
0.000293033
0.00163828
0.000142051
6.81422e-05
0.00173135
0.000205608
0.00168755
0.000288012
0.00172986
-5.96844e-09
7.1549e-06
0.00176406
-2.24711e-09
1.26726e-05
0.00178827
3.74923e-10
1.43918e-05
0.0018061
3.15323e-10
1.41263e-05
0.00181982
1.12148e-08
1.32528e-05
0.00183061
1.53517e-08
1.18885e-05
0.00183814
9.30266e-08
1.15955e-05
0.00184432
3.38712e-07
1.14451e-05
0.00184705
9.11478e-07
9.21901e-06
0.00185428
2.6332e-06
1.10293e-05
0.00184066
7.88596e-06
-3.7146e-07
0.00186007
2.66918e-05
1.49886e-05
0.00179403
0.000111387
-9.42528e-05
0.00164747
0.000680289
-0.000217834
0.00141754
0.000861393
5.05258e-05
0.00140334
0.000909623
2.11807e-05
0.00134634
0.000974175
-7.16802e-06
0.0012636
0.0010818
-2.949e-05
0.00116918
0.00122174
-5.44261e-05
0.00106828
0.00138262
-5.64513e-05
0.000903045
0.00152395
7.04838e-06
0.000662333
0.00168433
7.68781e-05
0.000405363
0.00185972
0.000131595
0.000167855
0.00201555
0.000192032
0.00212549
0.000263186
0.00172987
8.49074e-10
7.1538e-06
0.00176404
7.30238e-09
1.26767e-05
0.00178826
-2.72839e-09
1.43824e-05
0.00180607
8.00329e-09
1.41408e-05
0.00181982
9.51781e-09
1.32267e-05
0.00183058
1.76679e-08
1.19321e-05
0.00183816
2.13885e-07
1.15471e-05
0.00184411
4.7921e-07
1.14878e-05
0.00184787
1.66374e-06
9.02646e-06
0.00185414
2.51286e-06
1.12872e-05
0.00184343
1.14591e-05
-1.03906e-06
0.00186215
2.49713e-05
1.7946e-05
0.00179262
0.000120543
-9.32558e-05
0.00166649
0.000728784
-0.000209554
0.00144723
0.000971361
3.81315e-05
0.00142921
0.00100169
2.15995e-05
0.00137807
0.00106771
-7.59561e-06
0.00130405
0.00117948
-2.83581e-05
0.00122149
0.0013286
-4.78276e-05
0.00114276
0.00149505
-4.94777e-05
0.00100639
0.00165546
2.61448e-06
0.000806215
0.001842
6.58787e-05
0.00057254
0.00206438
0.000116078
0.000316902
0.00231268
0.000172147
0.00267347
0.000227704
0.00172985
7.15395e-06
7.96744e-09
0.00176405
1.26748e-05
1.70631e-08
0.00178827
1.43808e-05
-3.15838e-08
0.00180606
1.41515e-05
7.69949e-08
0.00181987
1.32094e-05
-1.14423e-07
0.00183045
1.19337e-05
3.08976e-07
0.00183818
1.15056e-05
6.10012e-10
0.0018428
1.13091e-05
1.98602e-06
0.00185148
9.26018e-06
-2.84967e-06
0.00184536
1.01837e-05
1.55966e-05
0.00186402
1.51073e-06
-1.75816e-05
0.00183597
1.20863e-05
7.55777e-05
0.00180955
-8.23687e-05
7.20195e-05
0.00168338
-0.000211536
0.000784341
0.00149645
2.19094e-05
0.0010752
0.00145485
2.89417e-05
0.00109291
0.00141565
-8.11567e-06
0.00114929
0.00135154
-2.6975e-05
0.00126425
0.00128426
-4.21219e-05
0.00141845
0.00122601
-4.30361e-05
0.00158378
0.00111925
1.41165e-07
0.0017603
0.00096469
5.51465e-05
0.00196441
0.000778502
9.55251e-05
0.00222867
0.000588663
0.000130516
0.00254684
0.000165707
0.00342989
0.00169389
1.88391e-09
-7.17074e-06
0.00171918
2.99407e-10
-1.26475e-05
0.00174803
2.26394e-09
-1.44209e-05
0.00177619
1.06608e-09
-1.40851e-05
0.00180278
7.8943e-10
-1.32928e-05
0.00182646
6.21397e-09
-1.18411e-05
0.00184946
-9.62203e-09
-1.15085e-05
0.0018718
9.71989e-08
-1.12424e-05
0.00189171
-1.20724e-07
-9.91138e-06
0.00190951
5.92833e-07
-9.20703e-06
0.00191995
-1.51356e-07
-5.3537e-06
0.00190761
1.86799e-06
5.76287e-06
0.00172117
8.04099e-06
8.80902e-05
0.00118406
0.000115287
7.68069e-05
0.00122491
0.000165685
-0.00010456
0.00107549
0.00020112
-2.46016e-05
0.000893649
0.000208721
-9.86317e-06
0.000703632
0.000209853
-3.80997e-06
0.000547096
0.000181247
1.24565e-05
-9.77631e-05
0.000223923
-8.40155e-05
-0.000317265
0.000362186
-5.87955e-05
-0.000498471
0.000411795
-0.000103195
-0.000508395
0.000432454
-0.000194444
-0.000343943
0.000460738
-0.000315497
0.00040086
-0.0003836
0.00169388
1.1744e-09
-7.16486e-06
0.00171918
1.3899e-09
-1.26518e-05
0.00174802
2.50178e-09
-1.44139e-05
0.0017762
2.83357e-09
-1.40962e-05
0.00180277
4.2955e-09
-1.32782e-05
0.00182648
1.67544e-09
-1.18564e-05
0.0018493
3.7047e-08
-1.14138e-05
0.00187224
-5.8116e-09
-1.15383e-05
0.0018888
3.86066e-07
-7.67982e-06
0.00191312
1.68322e-07
-1.38867e-05
0.00190869
2.35774e-06
4.92827e-06
0.00191389
5.7048e-06
-1.21107e-05
0.00172155
3.08299e-05
8.18762e-05
0.00116992
0.000202458
0.000411479
0.00121114
0.000306928
-8.73249e-05
0.001079
0.000372374
-2.12363e-05
0.000896614
0.000400627
-4.83635e-06
0.000676024
0.000422104
2.5106e-06
0.000463232
0.000388294
-1.09247e-05
-0.000211558
0.000388605
0.000581273
-0.000433734
0.000677267
-5.15863e-05
-0.00055567
0.000726033
-9.38851e-05
-0.00052625
0.000765733
-0.000183399
-0.000330973
0.000797987
-0.00026761
0.000731228
-0.000330358
0.00169388
3.49039e-09
-7.16695e-06
0.00171918
1.5194e-09
-1.26504e-05
0.00174802
4.03297e-09
-1.44172e-05
0.0017762
2.27022e-09
-1.40902e-05
0.00180278
2.00424e-09
-1.329e-05
0.00182646
9.49529e-09
-1.18434e-05
0.00184952
1.02474e-08
-1.15279e-05
0.00187177
1.79838e-07
-1.12437e-05
0.00189185
1.00893e-07
-9.96739e-06
0.00190902
1.28256e-06
-9.11271e-06
0.00191958
1.80057e-06
-5.60969e-06
0.00190682
8.72821e-06
5.79965e-06
0.00171855
4.28788e-05
8.04336e-05
0.0011697
0.00031936
6.42391e-05
0.00119973
0.000452447
-8.28028e-05
0.00107437
0.000534441
-1.59506e-05
0.000894781
0.000580438
1.26897e-07
0.000660813
0.000621489
1.53076e-05
0.000312725
0.000640587
4.17678e-05
-0.000203351
0.000852084
2.02489e-05
-0.000446577
0.000977344
-2.71058e-05
-0.000542883
0.00102061
-9.78633e-05
-0.000506201
0.0010761
-0.000175363
-0.000329111
0.00111295
-0.000243863
0.0010324
-0.000310929
0.00169387
4.0641e-09
-7.1608e-06
0.00171918
6.19321e-10
-1.26541e-05
0.00174801
3.84132e-09
-1.44114e-05
0.00177621
9.67817e-10
-1.41013e-05
0.00180277
1.79861e-09
-1.32749e-05
0.00182649
1.10002e-08
-1.18655e-05
0.00184938
2.77298e-08
-1.14192e-05
0.00187216
2.28961e-07
-1.15082e-05
0.00188903
2.82703e-07
-7.65987e-06
0.00191235
1.70732e-06
-1.37472e-05
0.00190808
3.26908e-06
5.44695e-06
0.00191564
1.33985e-05
-1.43822e-05
0.00172321
6.61524e-05
8.07516e-05
0.00118244
0.000442988
0.000336491
0.00119241
0.000597373
-7.37535e-05
0.00107345
0.000688173
-1.84321e-05
0.000895497
0.000752897
2.08786e-06
0.000648401
0.00082067
2.34158e-05
0.000284971
0.000879428
6.69263e-05
-0.00018578
0.00100887
4.59001e-05
-0.000409089
0.00125843
-2.45325e-05
-0.000500918
0.00131198
-0.000103172
-0.000470954
0.00137813
-0.000167702
-0.000315824
0.00142345
-0.000230027
0.00133583
-0.000305329
0.00169386
1.38606e-09
-7.15507e-06
0.00171919
-3.81521e-10
-1.26614e-05
0.001748
1.37249e-09
-1.44072e-05
0.00177622
7.31054e-10
-1.41098e-05
0.00180276
3.1741e-09
-1.32677e-05
0.0018265
1.01363e-08
-1.1877e-05
0.00184928
6.76692e-08
-1.14001e-05
0.0018725
1.86588e-07
-1.15809e-05
0.00188663
7.0662e-07
-7.25485e-06
0.00191529
1.72614e-06
-1.43404e-05
0.00189814
5.86301e-06
7.12092e-06
0.00192541
2.01471e-05
-1.73737e-05
0.0017291
9.90962e-05
7.41428e-05
0.00120083
0.000583094
9.53626e-05
0.00118772
0.00074411
-6.5492e-05
0.00107743
0.000836341
-2.00719e-05
0.000903676
0.000918071
3.22324e-06
0.000658876
0.00101015
2.64878e-05
0.000286979
0.00111691
7.00303e-05
-0.000117894
0.00129598
6.72731e-05
-0.000347638
0.00153957
-2.45468e-05
-0.000438507
0.00159509
-0.000100173
-0.000419715
0.00167676
-0.000158926
-0.000288602
0.00173805
-0.000220213
0.00165703
-0.000301457
0.00169386
-4.7255e-10
-7.15775e-06
0.00171919
-7.68022e-10
-1.26602e-05
0.001748
-1.034e-09
-1.44056e-05
0.00177623
7.2846e-10
-1.4111e-05
0.00180276
1.78403e-09
-1.32646e-05
0.00182649
1.84446e-08
-1.18767e-05
0.0018495
7.14763e-08
-1.14461e-05
0.00187223
3.57685e-07
-1.1515e-05
0.00188923
6.40693e-07
-7.63828e-06
0.0019123
2.83756e-06
-1.3856e-05
0.00190652
6.62916e-06
6.43856e-06
0.00192313
2.64467e-05
-1.97918e-05
0.00173066
0.000123645
8.48838e-05
0.00120988
0.000710849
0.000216006
0.00118804
0.000889618
-6.19416e-05
0.00108626
0.00097827
-2.21975e-05
0.000919873
0.00107371
4.18339e-06
0.000682029
0.00118888
2.80384e-05
0.000326808
0.00133868
6.67397e-05
-5.04477e-05
0.00154175
6.74204e-05
-0.000261922
0.00179475
-2.27225e-05
-0.000356584
0.00187163
-9.28475e-05
-0.000349959
0.00197363
-0.000150541
-0.000243914
0.00205972
-0.000211374
0.00200766
-0.000295082
0.00169386
-3.57878e-09
-7.15958e-06
0.0017192
8.61133e-10
-1.26644e-05
0.001748
-5.2562e-09
-1.44027e-05
0.00177623
5.73072e-09
-1.41113e-05
0.00180275
-4.10364e-09
-1.32642e-05
0.00182649
3.57679e-08
-1.18753e-05
0.00184951
9.40993e-08
-1.15324e-05
0.00187256
3.62487e-07
-1.14378e-05
0.00188876
9.35292e-07
-8.99808e-06
0.00191394
2.95793e-06
-1.11855e-05
0.00190347
8.50128e-06
6.10715e-07
0.00193377
3.14095e-05
-1.07198e-05
0.00173177
0.000141204
8.80225e-05
0.00121333
0.000818975
0.00022572
0.00119728
0.00102194
-6.01399e-05
0.00110177
0.00111509
-2.16604e-05
0.000940539
0.00122116
6.03378e-06
0.000712825
0.0013545
2.93774e-05
0.000392265
0.00153597
6.08283e-05
4.07426e-05
0.00177134
6.20178e-05
-0.000154705
0.00202333
-1.74761e-05
-0.000249268
0.00213608
-8.59068e-05
-0.000253276
0.00226395
-0.000141488
-0.000175459
0.00238954
-0.000201817
0.0023969
-0.000281132
0.00169386
-5.05068e-09
-7.16123e-06
0.0017192
3.82856e-09
-1.2666e-05
0.00174799
-7.44319e-09
-1.43978e-05
0.00177623
1.20724e-08
-1.41187e-05
0.00180274
-1.06345e-08
-1.32527e-05
0.00182649
6.38061e-08
-1.18934e-05
0.00184968
6.40687e-08
-1.15531e-05
0.00187241
4.74911e-07
-1.14174e-05
0.00189097
7.91605e-07
-9.20249e-06
0.00191213
3.74273e-06
-1.1021e-05
0.00191128
8.36151e-06
4.86755e-07
0.00193777
3.55285e-05
-1.56852e-05
0.00174104
0.000145774
9.61971e-05
0.0012299
0.000898925
0.000210887
0.00120668
0.00114703
-5.23687e-05
0.00111916
0.00124338
-2.06028e-05
0.000968875
0.00135576
7.58585e-06
0.000755721
0.00150536
2.98338e-05
0.000470971
0.00171106
5.4364e-05
0.000159778
0.00197548
5.48916e-05
-2.63649e-05
0.00222982
-9.96663e-06
-0.000110998
0.00237998
-7.97405e-05
-0.000121923
0.0025408
-0.000130862
-7.41465e-05
0.00272442
-0.000188075
0.00283866
-0.000256623
0.00169386
-6.38698e-09
-7.15676e-06
0.0017192
6.08749e-09
-1.26739e-05
0.00174798
-1.04943e-08
-1.43856e-05
0.00177624
2.15024e-08
-1.4138e-05
0.0018027
-5.09209e-09
-1.32269e-05
0.00182661
1.46015e-08
-1.19334e-05
0.0018496
1.66453e-07
-1.15401e-05
0.001873
2.85199e-08
-1.14828e-05
0.00189013
1.71009e-06
-9.03935e-06
0.00191557
7.96777e-07
-1.13017e-05
0.00190632
1.55249e-05
9.14275e-07
0.00195773
1.99186e-05
-1.79487e-05
0.00176427
0.000151808
9.26464e-05
0.00127318
0.000959052
0.000218663
0.00121344
0.00128239
-3.86549e-05
0.00113743
0.00136016
-2.04961e-05
0.00100104
0.00147474
8.59992e-06
0.000810369
0.00163582
2.88284e-05
0.000562878
0.00186151
4.77134e-05
0.000300741
0.00214275
4.81558e-05
0.000135494
0.0024061
-5.0344e-06
6.06572e-05
0.00259231
-6.84392e-05
3.96444e-05
0.00279737
-0.00011561
6.86727e-05
0.0030378
-0.00016803
0.00335332
-0.000222068
0.00169388
-7.15596e-06
-2.9471e-08
0.00171917
-1.26715e-05
5.79991e-08
0.00174801
-1.43836e-05
-8.49023e-08
0.00177617
-1.41482e-05
1.57524e-07
0.00180283
-1.321e-05
-2.44756e-07
0.00182626
-1.19379e-05
4.49566e-07
0.00185019
-1.14837e-05
-7.62852e-07
0.00187176
-1.13074e-05
1.06123e-06
0.00189602
-9.27445e-06
-4.02417e-06
0.00190136
-1.02152e-05
1.57651e-05
0.00193884
-1.64924e-06
-1.89466e-05
0.00191347
-1.22132e-05
6.93451e-05
0.00180031
8.13288e-05
9.98186e-05
0.00130305
0.000210573
0.00103173
0.00120458
-2.17291e-05
0.00142318
0.00115541
-2.78139e-05
0.00146508
0.00103942
8.95994e-06
0.00157244
0.00087345
2.73349e-05
0.0017448
0.000667882
4.17824e-05
0.00198178
0.000456781
4.20676e-05
0.00227083
0.000321296
-2.1462e-06
0.00254704
0.000272029
-5.77577e-05
0.00275769
0.000266372
-9.55554e-05
0.00299757
0.000283258
-0.000127371
0.00328187
-0.000161788
0.00396138
0.00172988
2.24755e-08
-5.88609e-05
0.00176403
-1.47427e-08
-4.67861e-05
0.00178828
1.8121e-08
-3.86908e-05
0.00180605
-1.46279e-08
-3.18329e-05
0.00181989
1.84044e-08
-2.71593e-05
0.00183052
-1.0268e-08
-2.24596e-05
0.00183867
1.00799e-07
-1.97632e-05
0.00184557
-1.7642e-07
-1.79615e-05
0.00184695
1.56212e-06
-1.28927e-05
0.00185851
-1.78959e-06
-1.90644e-05
0.00183336
5.00958e-06
1.46428e-05
0.00188749
-1.93386e-06
-4.67048e-05
0.00178567
-1.38542e-05
0.000202223
0.00167873
-8.13889e-05
0.000262938
0.00142933
0.000108923
3.46927e-05
0.00141933
0.0001331
-0.000148765
0.00133436
0.000127565
-5.33346e-05
0.00121985
0.000120254
-1.07274e-05
0.00115561
6.73369e-05
9.50745e-06
0.00108348
-3.66802e-05
2.71889e-05
0.000895324
0.000131806
-1.57447e-06
0.000598319
0.000222485
-3.95421e-05
0.000268051
0.000255066
-0.000122787
-6.33353e-05
0.000306208
-0.000290829
0.000264423
-0.000715074
0.00172978
-1.29344e-08
-5.86961e-05
0.00176406
2.22338e-08
-4.69656e-05
0.00178822
-8.10075e-09
-3.85459e-05
0.00180606
1.93448e-08
-3.19729e-05
0.00181986
-1.14057e-08
-2.70435e-05
0.00183053
1.50693e-08
-2.25574e-05
0.00183904
-8.5169e-08
-1.97389e-05
0.0018445
3.00211e-07
-1.74929e-05
0.00185887
-1.3932e-06
-1.90923e-05
0.00184143
2.98729e-06
-1.3278e-06
0.00188304
-3.40297e-06
-2.84005e-05
0.00180937
9.65895e-06
4.967e-05
0.00177469
3.98926e-05
6.12532e-05
0.0014835
0.000266
0.00035312
0.0013207
0.000183504
-2.87882e-07
0.00133563
0.00023598
-0.000140045
0.00125161
0.00025823
-5.23562e-05
0.00110513
0.00028335
-1.46096e-05
0.00083441
0.000314801
1.20623e-05
0.00081177
0.000485966
8.26699e-05
0.000524672
0.000382312
-1.52363e-05
0.000322636
0.000389303
-6.42067e-05
5.39284e-05
0.000470612
-0.000130325
-0.000156944
0.000536904
-0.000288933
0.000458693
-0.000686992
0.00172986
2.31495e-08
-5.88503e-05
0.00176404
-1.04604e-08
-4.67945e-05
0.00178828
1.69753e-08
-3.86844e-05
0.00180606
-1.03841e-08
-3.18438e-05
0.00181989
1.31068e-08
-2.7145e-05
0.00183056
-1.004e-08
-2.24823e-05
0.00183854
9.47833e-08
-1.96776e-05
0.00184551
-1.56827e-07
-1.77932e-05
0.0018452
1.63961e-06
-1.27013e-05
0.00185913
-1.56843e-06
-1.85636e-05
0.00182683
6.633e-06
1.64828e-05
0.00188586
1.63885e-06
-4.54631e-05
0.00178171
1.51396e-05
0.000207813
0.00167052
0.000170822
0.000268437
0.00138957
0.00034152
3.88879e-05
0.00136649
0.000374461
-0.000132427
0.00126706
0.000397535
-4.07455e-05
0.00113122
0.000437026
-3.2575e-06
0.000974886
0.000482731
3.0168e-05
0.000857582
0.000579369
4.4883e-05
0.00059063
0.000615682
5.46578e-06
0.00029859
0.000622374
-4.25024e-05
1.26674e-05
0.000702411
-0.000119461
-0.00016697
0.000751541
-0.00028137
0.00063647
-0.000662061
0.00172975
7.3491e-09
-5.86799e-05
0.00176406
2.18836e-09
-4.69791e-05
0.00178821
2.2921e-09
-3.85415e-05
0.00180608
-4.61097e-10
-3.19779e-05
0.00181987
-1.11283e-09
-2.70511e-05
0.00183054
2.87502e-09
-2.25488e-05
0.00183898
1.20965e-08
-1.97777e-05
0.00184474
1.43811e-07
-1.75824e-05
0.00185796
2.45903e-07
-1.94945e-05
0.0018433
1.34968e-06
-2.11273e-06
0.00188154
3.10398e-06
-2.93825e-05
0.00180412
1.11067e-05
5.32778e-05
0.00178977
5.42186e-05
5.45066e-05
0.00154059
0.000416765
0.000337472