/*--------------------------------*- C++ -*----------------------------------*\
  =========                 |
  \\      /  F ield         | OpenFOAM: The Open Source CFD Toolbox
   \\    /   O peration     | Website:  https://openfoam.org
    \\  /    A nd           | Version:  6
     \\/     M anipulation  |
\*---------------------------------------------------------------------------*/
FoamFile
{
    version     2.0;
    format      ascii;
    class       volScalarField;
    location    "10";
    object      T;
}
// * * * * * * * * * * * * * * * * * * * * * * * * * * * * * * * * * * * * * //

dimensions      [0 0 0 1 0 0 0];

internalField   nonuniform List<scalar> 
26250
(
0.978801
0.968729
0.954513
0.948041
0.936654
0.933632
0.928829
0.934747
0.945715
1.00674
1.10859
1.54696
2.43618
2.67653
2.64482
2.61538
2.57762
2.57346
2.58325
2.61228
2.61867
2.63383
2.66492
2.73353
2.68197
0.97888
0.968632
0.95458
0.947957
0.936726
0.933517
0.928827
0.934658
0.945649
1.00628
1.10801
1.54221
2.42799
2.65686
2.63847
2.60381
2.56662
2.56148
2.57416
2.59253
2.60288
2.62452
2.65284
2.72128
2.68296
0.978876
0.968648
0.954597
0.947953
0.936732
0.933495
0.928719
0.934512
0.945336
1.00568
1.10613
1.54029
2.42422
2.6664
2.64723
2.61181
2.57529
2.56936
2.58262
2.59745
2.60832
2.63194
2.65986
2.72681
2.69011
0.978856
0.968676
0.954582
0.947973
0.936709
0.933432
0.92835
0.934216
0.943028
1.00466
1.10091
1.54086
2.42175
2.65194
2.63807
2.60565
2.5712
2.5664
2.58099
2.60154
2.6125
2.63748
2.66617
2.73559
2.70424
0.980897
0.966598
0.956688
0.945817
0.938847
0.931187
0.930334
0.931074
0.950984
0.982321
1.13851
1.50348
2.27701
2.62963
2.61918
2.58818
2.55555
2.55157
2.56635
2.58337
2.59622
2.62387
2.65361
2.72668
2.6993
0.979057
0.968476
0.954772
0.947751
0.93691
0.933011
0.927787
0.933549
0.94012
1.00179
1.09062
1.52933
2.38996
2.6237
2.61897
2.58831
2.55577
2.54926
2.56346
2.57708
2.58961
2.61701
2.64702
2.72156
2.69698
0.981247
0.966246
0.957055
0.945434
0.93921
0.930593
0.929893
0.929697
0.949795
0.980022
1.12882
1.47901
2.22175
2.59576
2.59523
2.56992
2.53993
2.53558
2.54985
2.56334
2.57577
2.60349
2.63408
2.71085
2.69244
0.979111
0.968417
0.954855
0.947679
0.936969
0.932888
0.927588
0.932827
0.940257
0.997131
1.08115
1.49842
2.335
2.59755
2.5955
2.56939
2.53843
2.53111
2.5428
2.55337
2.56416
2.58977
2.62005
2.69777
2.68201
0.979165
0.968352
0.95491
0.94761
0.937026
0.9328
0.927554
0.932436
0.940932
0.993931
1.07666
1.47289
2.28715
2.58003
2.58396
2.56082
2.53346
2.52459
2.53361
2.54198
2.54995
2.56974
2.59631
2.67021
2.65537
0.97925
0.968277
0.955007
0.947509
0.937104
0.932556
0.927065
0.93176
0.938578
0.990662
1.06935
1.44892
2.25806
2.55507
2.56939
2.54888
2.52721
2.51903
2.52669
2.53353
2.53874
2.551
2.56796
2.61868
2.56904
1.01404
1.02116
1.02618
1.0291
1.03201
1.03442
1.04154
1.05285
1.08795
1.16828
1.3671
1.87082
2.81642
2.73281
2.78313
2.74216
2.73514
2.74603
2.77146
2.77676
2.78296
2.81137
2.85213
2.83854
2.75302
1.01405
1.02115
1.02618
1.0291
1.032
1.03442
1.04153
1.05281
1.08777
1.16828
1.36587
1.86843
2.813
2.73659
2.77575
2.73215
2.72407
2.73806
2.75548
2.75957
2.77043
2.80043
2.84371
2.84955
2.76262
1.01404
1.02116
1.02618
1.02911
1.032
1.03442
1.04149
1.05268
1.08752
1.16747
1.36404
1.86628
2.81294
2.73646
2.7811
2.73764
2.72786
2.74134
2.7574
2.7584
2.76537
2.79567
2.83674
2.84935
2.76565
1.01404
1.02116
1.02618
1.02911
1.03199
1.03441
1.04141
1.05245
1.08714
1.16617
1.36141
1.86063
2.80708
2.73965
2.77183
2.72897
2.72157
2.73604
2.75387
2.7586
2.76355
2.79543
2.82935
2.84675
2.77309
1.01411
1.02116
1.02621
1.02914
1.03198
1.0344
1.041
1.05293
1.08235
1.17288
1.34862
1.86718
2.8167
2.74595
2.78159
2.73381
2.72354
2.73479
2.7503
2.74909
2.75381
2.78957
2.8224
2.83796
2.77136
1.01403
1.02117
1.02617
1.02912
1.03198
1.03438
1.04121
1.05182
1.08576
1.16285
1.35126
1.84493
2.79615
2.7455
2.76381
2.72654
2.71989
2.7304
2.74362
2.74188
2.74326
2.7752
2.80808
2.8275
2.7658
1.01412
1.02117
1.02621
1.02915
1.03196
1.03437
1.04073
1.0521
1.08071
1.16783
1.33479
1.84416
2.80329
2.75653
2.75924
2.72401
2.7161
2.72475
2.7354
2.73298
2.73276
2.75643
2.78934
2.80979
2.75414
1.01403
1.02118
1.02617
1.02912
1.03196
1.03432
1.0409
1.05096
1.08342
1.15845
1.33326
1.81747
2.7776
2.75246
2.74585
2.71455
2.71011
2.71878
2.72533
2.72104
2.71884
2.74019
2.76334
2.7848
2.7326
1.01402
1.02118
1.02616
1.02912
1.03194
1.03427
1.04065
1.05042
1.08201
1.1547
1.32365
1.79637
2.76077
2.75585
2.72916
2.69462
2.69537
2.7082
2.714
2.70939
2.70188
2.71404
2.735
2.74809
2.68856
1.01401
1.02119
1.02615
1.02913
1.03192
1.03416
1.04022
1.04983
1.07952
1.15192
1.31266
1.77709
2.74515
2.75518
2.72352
2.68184
2.68011
2.68634
2.69949
2.69568
2.68462
2.68803
2.694
2.69724
2.60225
1.00663
1.0124
1.02182
1.02773
1.03622
1.04123
1.05179
1.06748
1.11027
1.20594
1.42773
2.0456
2.85869
2.62834
2.78532
2.75678
2.74975
2.76266
2.79772
2.75086
2.81406
2.82498
2.83496
2.83119
2.78687
1.00666
1.01237
1.02184
1.02771
1.03625
1.04121
1.05182
1.06727
1.11054
1.20432
1.42823
2.04732
2.85549
2.63146
2.78503
2.75486
2.74885
2.76222
2.798
2.74461
2.8119
2.82181
2.83039
2.827
2.78629
1.00663
1.01239
1.02182
1.02773
1.03622
1.04122
1.05172
1.06733
1.10986
1.205
1.42536
2.04137
2.85256
2.63673
2.78472
2.75182
2.74741
2.7617
2.79017
2.75908
2.80617
2.81435
2.82052
2.81886
2.78397
1.00666
1.01237
1.02184
1.02771
1.03624
1.04118
1.05169
1.06699
1.1098
1.20244
1.4238
2.03682
2.84554
2.64675
2.78398
2.7484
2.74434
2.7606
2.77858
2.74779
2.79916
2.80481
2.81206
2.81198
2.77898
1.00668
1.01235
1.02187
1.02769
1.03626
1.04114
1.0516
1.06657
1.10943
1.19943
1.42048
2.02723
2.83574
2.65971
2.78302
2.74457
2.74021
2.75741
2.77064
2.74113
2.78779
2.79449
2.79831
2.79715
2.76727
1.00667
1.01236
1.02185
1.0277
1.03625
1.0411
1.05139
1.06631
1.10823
1.19764
1.41376
2.00769
2.82637
2.66919
2.77976
2.74002
2.73661
2.7515
2.75766
2.72713
2.77196
2.77845
2.78267
2.78386
2.75504
1.00669
1.01234
1.02187
1.02767
1.03625
1.04104
1.05118
1.06572
1.10717
1.19323
1.40653
1.97755
2.81645
2.6915
2.76853
2.72888
2.72911
2.74521
2.74928
2.7116
2.75765
2.76014
2.76345
2.75928
2.72886
1.00668
1.01234
1.02186
1.02768
1.03623
1.04097
1.0508
1.06512
1.1056
1.18925
1.39735
1.93339
2.81215
2.70414
2.76135
2.71761
2.71817
2.73227
2.73737
2.6954
2.7393
2.74056
2.73935
2.73274
2.70049
1.00669
1.01234
1.02186
1.02767
1.0362
1.04089
1.05031
1.06421
1.10419
1.18348
1.38832
1.88329
2.80406
2.71005
2.75584
2.70671
2.7069
2.7211
2.72462
2.67872
2.71449
2.71481
2.70768
2.68803
2.64241
1.00609
1.01293
1.02127
1.02826
1.03562
1.04138
1.04964
1.06373
1.1018
1.18461
1.37195
1.86528
2.80281
2.71962
2.7422
2.70168
2.69697
2.70403
2.71391
2.66578
2.68951
2.68676
2.67059
2.64239
2.54703
1.01403
1.02116
1.02618
1.02911
1.032
1.03442
1.0415
1.05272
1.08783
1.16743
1.36737
1.8693
2.81135
2.73927
2.77857
2.73655
2.72552
2.73763
2.75264
2.75672
2.7586
2.78818
2.84894
2.86238
2.75985
1.01412
1.02115
1.02621
1.02914
1.03199
1.03443
1.04118
1.0535
1.08347
1.17641
1.35845
1.88308
2.82249
2.73808
2.79206
2.75142
2.74195
2.752
2.77463
2.78066
2.78316
2.81541
2.85508
2.84771
2.75159
1.01403
1.02116
1.02617
1.02911
1.03199
1.03442
1.04144
1.05251
1.08764
1.16599
1.36594
1.86584
2.80823
2.7371
2.77752
2.7344
2.72972
2.74132
2.76518
2.76898
2.77686
2.80934
2.84708
2.84206
2.75852
1.01413
1.02114
1.02622
1.02914
1.032
1.03442
1.04115
1.0532
1.08314
1.17461
1.35392
1.87547
2.81879
2.74322
2.78574
2.74016
2.73096
2.74248
2.75747
2.75972
2.76954
2.79902
2.83467
2.8393
2.76408
1.01413
1.02115
1.02624
1.02914
1.03201
1.03442
1.04113
1.05293
1.08281
1.17293
1.34973
1.86778
2.81227
2.75093
2.78077
2.73793
2.72894
2.7416
2.75263
2.75351
2.76342
2.7913
2.82466
2.83309
2.7635
1.01412
1.02115
1.02622
1.02914
1.03199
1.03439
1.04098
1.05257
1.08198
1.17073
1.34347
1.85781
2.80826
2.7536
2.77507
2.73536
2.72639
2.73883
2.74741
2.74526
2.75194
2.77795
2.8086
2.82446
2.75789
1.01403
1.02116
1.02617
1.02911
1.03198
1.03435
1.04111
1.05151
1.08465
1.16193
1.34181
1.83303
2.78853
2.74866
2.75529
2.72547
2.72064
2.73291
2.74132
2.73794
2.74202
2.76251
2.79034
2.80765
2.74392
1.01403
1.02117
1.02617
1.02911
1.03196
1.03431
1.04091
1.05103
1.08349
1.15862
1.33346
1.81693
2.7784
2.75074
2.742
2.7079
2.70782
2.72037
2.72964
2.72502
2.72589
2.74728
2.766
2.78321
2.72052
1.01403
1.02118
1.02616
1.02912
1.03194
1.03427
1.04066
1.05044
1.08209
1.15477
1.32396
1.79624
2.76058
2.75553
2.72997
2.69169
2.69206
2.70445
2.71484
2.71223
2.70872
2.72129
2.73927
2.74822
2.67671
1.01401
1.02119
1.02615
1.02913
1.03192
1.03416
1.04024
1.04987
1.07963
1.15205
1.31304
1.77701
2.74457
2.75466
2.72292
2.68165
2.67786
2.68339
2.6971
2.69464
2.68898
2.69433
2.69963
2.69836
2.59277
0.978838
0.968688
0.954563
0.947988
0.936692
0.933473
0.928433
0.934403
0.943411
1.00616
1.1034
1.55323
2.44509
2.664
2.64465
2.60956
2.57149
2.56518
2.57527
2.59047
2.60028
2.62479
2.65452
2.71856
2.68127
0.980914
0.966577
0.956702
0.945798
0.938868
0.931233
0.930649
0.93153
0.95223
0.984036
1.14723
1.52918
2.29836
2.65317
2.61838
2.59308
2.55735
2.55354
2.56405
2.59512
2.60315
2.62198
2.65381
2.72144
2.67194
0.978816
0.968712
0.954545
0.948013
0.936674
0.933435
0.928201
0.934325
0.941251
1.00547
1.09747
1.55773
2.45006
2.66482
2.64445
2.60986
2.57513
2.56946
2.58377
2.59991
2.61239
2.63397
2.66492
2.73585
2.69302
0.980974
0.966524
0.956768
0.945748
0.938934
0.931194
0.930794
0.931641
0.952061
0.986734
1.14362
1.51045
2.2839
2.63758
2.62118
2.59122
2.55931
2.55606
2.57178
2.58597
2.60228
2.62818
2.65977
2.73332
2.6999
0.981024
0.966527
0.956866
0.94573
0.939013
0.931168
0.93086
0.931618
0.951627
0.988437
1.13924
1.48978
2.27433
2.6214
2.61223
2.58206
2.55023
2.54595
2.56112
2.57514
2.58989
2.61824
2.64871
2.72362
2.69773
0.980947
0.966556
0.956741
0.945774
0.938899
0.931163
0.930512
0.931235
0.950821
0.984518
1.13496
1.48668
2.25394
2.60883
2.60462
2.57483
2.5433
2.53694
2.55128
2.56369
2.57734
2.60396
2.63394
2.70775
2.68746
0.97898
0.968543
0.954714
0.947825
0.936838
0.933169
0.92799
0.933465
0.941565
1.00006
1.0877
1.51349
2.36464
2.6118
2.60769
2.57852
2.54641
2.53833
2.55135
2.56209
2.57369
2.59765
2.62651
2.69814
2.68062
0.979025
0.968495
0.954758
0.947769
0.936879
0.933082
0.927903
0.933074
0.942199
0.997055
1.08441
1.48848
2.32145
2.59783
2.59691
2.57266
2.54353
2.53646
2.54899
2.55881
2.5691
2.59126
2.61931
2.69002
2.67121
0.979167
0.968351
0.95491
0.947609
0.937025
0.932816
0.927634
0.932502
0.941089
0.994092
1.07655
1.47402
2.28945
2.57954
2.58241
2.55898
2.53177
2.52557
2.53679
2.54635
2.55546
2.5757
2.60185
2.67004
2.64736
0.979144
0.96838
0.954892
0.947631
0.936998
0.932732
0.927145
0.931902
0.93879
0.990828
1.06915
1.44998
2.25888
2.55551
2.56885
2.54787
2.52523
2.51821
2.52732
2.5351
2.5415
2.55558
2.57324
2.62433
2.56649
0.981016
0.966499
0.956813
0.94568
0.938925
0.93061
0.928557
0.928197
0.944871
0.969507
1.10126
1.37664
2.06921
2.52117
2.5433
2.52393
2.50612
2.50246
2.50893
2.51672
2.51916
2.52726
2.52782
2.52465
2.44426
0.979455
0.968084
0.955218
0.947295
0.937298
0.932099
0.926307
0.930488
0.935861
0.983715
1.06
1.39188
2.14852
2.4743
2.50945
2.49587
2.48198
2.47593
2.48122
2.4834
2.48543
2.4837
2.47655
2.45572
2.37889
0.980836
0.966682
0.956631
0.94586
0.938724
0.930657
0.927771
0.927373
0.941798
0.962268
1.08155
1.30536
1.95792
2.45933
2.50083
2.48834
2.47628
2.46803
2.46767
2.46679
2.46157
2.45385
2.4382
2.41278
2.34747
0.979664
0.967863
0.955437
0.947059
0.937516
0.931664
0.925833
0.929091
0.935018
0.974426
1.04581
1.3192
2.00342
2.39194
2.46875
2.46783
2.46011
2.45138
2.44904
2.44506
2.43649
2.42655
2.4058
2.3798
2.32637
0.979619
0.967905
0.955393
0.947097
0.937462
0.931713
0.925626
0.928808
0.93246
0.967345
1.02484
1.26569
1.90707
2.35001
2.46155
2.46129
2.45299
2.44212
2.43403
2.42795
2.4148
2.40346
2.38105
2.35367
2.30831
0.980436
0.96709
0.956226
0.94626
0.938294
0.930818
0.926278
0.925711
0.934469
0.949824
1.02835
1.17127
1.66626
2.26418
2.44399
2.44774
2.44114
2.43015
2.41926
2.41215
2.39853
2.38138
2.36006
2.32966
2.28881
0.980214
0.967319
0.955999
0.946495
0.938058
0.930987
0.925803
0.925381
0.93122
0.944553
1.00458
1.11655
1.5015
2.14804
2.38691
2.4056
2.40407
2.39866
2.39439
2.3917
2.38489
2.37102
2.35136
2.32402
2.28688
0.98097
0.966432
0.956886
0.945489
0.939045
0.929891
0.92681
0.924162
0.928426
0.940956
0.986716
1.09063
1.43011
2.11294
2.36431
2.38846
2.37693
2.36293
2.35411
2.35072
2.34785
2.34172
2.32902
2.31129
2.28293
0.981374
0.966116
0.957188
0.94528
0.939224
0.929741
0.926484
0.922277
0.926237
0.935411
0.977729
1.06316
1.35868
2.05064
2.35829
2.40097
2.38118
2.36252
2.34412
2.33481
2.32599
2.3159
2.30283
2.28489
2.26316
0.979717
0.967799
0.955469
0.947028
0.937426
0.9315
0.924312
0.922509
0.922081
0.935604
0.958281
1.05983
1.2677
1.83013
2.32385
2.39683
2.39065
2.37286
2.35297
2.33656
2.32331
2.3096
2.29366
2.27433
2.25166
0.980963
0.966534
0.956737
0.945735
0.938694
0.930154
0.925374
0.92027
0.923068
0.92738
0.960587
1.01558
1.2364
1.82704
2.25941
2.38503
2.38987
2.37799
2.3611
2.34516
2.32974
2.31427
2.29649
2.27608
2.25331
0.980127
0.967372
0.955883
0.946602
0.937819
0.931022
0.924457
0.920803
0.92027
0.928612
0.944231
1.01323
1.15136
1.56886
2.1616
2.36504
2.37677
2.37155
2.35672
2.34156
2.32853
2.31426
2.29908
2.28203
2.26073
0.980749
0.966745
0.956523
0.945945
0.938481
0.930352
0.925054
0.91995
0.921824
0.92432
0.941886
0.990201
1.09979
1.52847
2.02969
2.32123
2.34979
2.34805
2.3403
2.32744
2.32013
2.30994
2.29736
2.28184
2.26425
0.981135
0.966361
0.956929
0.945537
0.938888
0.929893
0.925412
0.918933
0.919692
0.920722
0.936766
0.968403
1.07562
1.33371
1.90999
2.30306
2.35046
2.345
2.33164
2.31477
2.30397
2.29573
2.28622
2.27519
2.26042
0.980795
0.966706
0.95658
0.945888
0.938546
0.930235
0.925041
0.919063
0.918333
0.918554
0.931905
0.95734
1.05571
1.25515
1.81208
2.29137
2.37215
2.36746
2.35078
2.33206
2.31426
2.30063
2.28783
2.27513
2.26078
0.980826
0.966673
0.956618
0.945843
0.938596
0.930161
0.925073
0.918715
0.917204
0.916704
0.927979
0.949258
1.03122
1.19036
1.68802
2.21983
2.36498
2.37494
2.36363
2.34848
2.33121
2.31658
2.30153
2.28608
2.26973
0.980618
0.966889
0.956401
0.946065
0.938377
0.930376
0.924832
0.918791
0.916303
0.915781
0.924358
0.941654
1.00631
1.13206
1.53648
2.11521
2.33345
2.35642
2.35542
2.34648
2.33204
2.32012
2.30782
2.29447
2.27953
0.980413
0.967094
0.956193
0.946273
0.93817
0.930579
0.924615
0.918909
0.915656
0.915239
0.921177
0.935239
0.98584
1.08598
1.44187
2.09069
2.31415
2.34313
2.33853
2.32809
2.31425
2.30517
2.29653
2.28781
2.27703
0.980227
0.967292
0.955994
0.946483
0.937965
0.930791
0.924397
0.919038
0.915092
0.914799
0.918976
0.929975
0.972117
1.05429
1.35626
2.02428
2.3247
2.37095
2.35707
2.33913
2.31867
2.30261
2.2901
2.2779
2.26653
0.980841
0.966629
0.956674
0.945756
0.9387
0.93001
0.925172
0.918213
0.915872
0.913907
0.917371
0.926216
0.963656
1.03489
1.29951
1.94813
2.33332
2.41345
2.4019
2.37944
2.35454
2.32891
2.31005
2.29309
2.27758
0.98129
0.966214
0.957093
0.945372
0.939071
0.92967
0.92548
0.917905
0.915975
0.912968
0.915975
0.923846
0.955894
1.02074
1.24107
1.84299
2.28744
2.42093
2.42245
2.40617
2.3849
2.36043
2.34049
2.32328
2.30597
0.981078
0.966427
0.956873
0.945596
0.938844
0.929904
0.925229
0.918128
0.915496
0.912237
0.914757
0.921032
0.948816
1.00199
1.18723
1.71852
2.22984
2.42009
2.42757
2.41429
2.39421
2.37024
2.3526
2.33827
2.32418
0.98098
0.966526
0.956762
0.945699
0.938734
0.930008
0.925119
0.918208
0.915322
0.911946
0.914124
0.919756
0.940026
0.992446
1.1257
1.58388
2.15191
2.41192
2.42348
2.40858
2.38673
2.36244
2.348
2.33714
2.32631
0.980761
0.966756
0.956524
0.945931
0.938492
0.930252
0.924843
0.918472
0.914721
0.911041
0.912554
0.916609
0.936312
0.974712
1.1071
1.42884
2.07038
2.41616
2.43586
2.41369
2.38796
2.36011
2.34381
2.33301
2.32382
0.980717
0.966785
0.956491
0.945969
0.938448
0.930297
0.924793
0.918481
0.914606
0.910619
0.912271
0.915092
0.933032
0.968249
1.0915
1.37531
2.01888
2.42069
2.45042
2.42547
2.39716
2.3669
2.34962
2.33806
2.32771
0.980694
0.9668
0.956478
0.945979
0.938437
0.930303
0.924783
0.918476
0.914585
0.910587
0.912275
0.914867
0.930792
0.967924
1.07724
1.37613
1.99482
2.43896
2.47656
2.45318
2.42698
2.39357
2.37235
2.35743
2.34407
0.980664
0.966836
0.956442
0.946021
0.938398
0.930348
0.924744
0.918511
0.914546
0.910509
0.911843
0.912639
0.928918
0.958095
1.07539
1.30853
1.94825
2.42815
2.484
2.46576
2.44664
2.41881
2.40039
2.38602
2.37251
0.980609
0.966888
0.956394
0.946064
0.938353
0.930385
0.924702
0.918551
0.91449
0.910539
0.911677
0.913448
0.927528
0.960916
1.05799
1.32883
1.90539
2.40274
2.479
2.47208
2.45389
2.43017
2.41216
2.39912
2.38751
0.980825
0.966667
0.956617
0.945844
0.93858
0.930162
0.924933
0.918302
0.914702
0.910038
0.910858
0.911889
0.925688
0.953615
1.05041
1.27085
1.84398
2.38914
2.48896
2.48594
2.46851
2.44641
2.42591
2.41129
2.39925
0.980957
0.966545
0.956744
0.945729
0.938701
0.930032
0.925048
0.918153
0.914793
0.909765
0.910168
0.910588
0.923191
0.946671
1.03861
1.21236
1.76977
2.35883
2.50012
2.49934
2.48099
2.45685
2.43383
2.41958
2.40906
0.980782
0.966795
0.956498
0.945985
0.938472
0.930274
0.924818
0.918398
0.914542
0.909953
0.909717
0.909928
0.921012
0.941474
1.02325
1.17542
1.69461
2.31413
2.50054
2.49748
2.47637
2.44614
2.42101
2.40663
2.39686
0.980449
0.967053
0.956233
0.946226
0.93822
0.930518
0.924601
0.918634
0.914337
0.910206
0.909437
0.910414
0.918508
0.941721
1.00032
1.16775
1.56361
2.28014
2.49514
2.4859
2.4561
2.4165
2.38719
2.37058
2.36033
0.98067
0.96683
0.956454
0.946007
0.938424
0.930314
0.924791
0.918416
0.914516
0.909746
0.908706
0.908604
0.916862
0.93465
0.994772
1.11535
1.52245
2.30574
2.52098
2.51514
2.47911
2.43286
2.39547
2.37648
2.36589
0.980651
0.966844
0.95644
0.946016
0.938411
0.93032
0.924778
0.91842
0.91449
0.90969
0.908375
0.907976
0.915878
0.932408
0.989994
1.10136
1.50827
2.32254
2.55541
2.55273
2.51413
2.46437
2.425
2.40689
2.3982
0.980606
0.966887
0.956396
0.946059
0.938367
0.930363
0.924735
0.918461
0.914443
0.9097
0.908206
0.907792
0.915476
0.930412
0.987818
1.08944
1.49733
2.33058
2.58045
2.57832
2.54153
2.49262
2.45246
2.4336
2.42356
0.980585
0.96691
0.956373
0.946083
0.938344
0.930386
0.924712
0.918483
0.914419
0.909704
0.908089
0.907642
0.915108
0.929985
0.986114
1.08832
1.49094
2.32399
2.58692
2.58554
2.55133
2.50416
2.46578
2.448
2.43836
0.980586
0.96691
0.956372
0.946084
0.938341
0.930388
0.92471
0.918485
0.914417
0.909718
0.908101
0.907692
0.914836
0.931018
0.985064
1.09837
1.50232
2.32041
2.58284
2.58142
2.54743
2.49962
2.46147
2.44358
2.4338
0.980562
0.966933
0.956349
0.946107
0.93832
0.930411
0.924687
0.918509
0.914391
0.909725
0.908036
0.907633
0.91491
0.928813
0.984931
1.08125
1.48289
2.31493
2.58331
2.582
2.54931
2.50373
2.46669
2.44968
2.4404
0.980563
0.966932
0.95635
0.946106
0.938319
0.930411
0.924686
0.918509
0.914392
0.909733
0.90804
0.907599
0.91479
0.929602
0.984617
1.08765
1.49248
2.31164
2.57734
2.57602
2.54311
2.49725
2.46089
2.44447
2.43547
0.980588
0.966905
0.956377
0.946077
0.938347
0.930382
0.924712
0.918483
0.914418
0.909728
0.908134
0.907736
0.914837
0.931134
0.984366
1.09757
1.49887
2.3119
2.57614
2.57459
2.54169
2.49469
2.45818
2.44081
2.43153
1.01361
1.02165
1.0257
1.02963
1.03135
1.03444
1.03802
1.05151
1.07629
1.13851
1.32196
1.76675
2.66778
2.75726
2.72247
2.68494
2.67234
2.67236
2.67787
2.67532
2.66376
2.65804
2.64792
2.62088
2.47534
1.01369
1.02151
1.02582
1.02946
1.03148
1.03412
1.03767
1.04918
1.07607
1.12873
1.31911
1.7209
2.60591
2.75021
2.71429
2.69732
2.67608
2.66646
2.66081
2.65448
2.64019
2.62538
2.60483
2.56238
2.44036
1.01361
1.02164
1.02571
1.02961
1.03134
1.03428
1.0374
1.04943
1.07199
1.12678
1.29762
1.6804
2.54952
2.73078
2.69437
2.69235
2.68051
2.66696
2.65478
2.63677
2.61492
2.59671
2.56997
2.52955
2.44059
1.01386
1.02135
1.02598
1.0293
1.03161
1.03388
1.03707
1.04608
1.07078
1.11294
1.28664
1.6268
2.45127
2.70328
2.69726
2.67647
2.67358
2.66538
2.65318
2.6263
2.59577
2.56976
2.54348
2.51155
2.44185
1.01391
1.0213
1.02604
1.02922
1.03174
1.03376
1.03782
1.04529
1.06438
1.12211
1.22333
1.62445
2.46796
2.65882
2.68748
2.67079
2.65661
2.65464
2.64722
2.62685
2.58492
2.5538
2.51783
2.49335
2.4465
1.01364
1.02159
1.02576
1.02954
1.03137
1.03397
1.03631
1.04534
1.06193
1.10361
1.23076
1.49265
2.28469
2.63447
2.69242
2.67403
2.65349
2.6408
2.6345
2.62161
2.58766
2.54742
2.50768
2.47201
2.44207
1.01362
1.02161
1.02574
1.02954
1.03134
1.03388
1.03589
1.04401
1.05767
1.09482
1.19929
1.41996
2.09432
2.57378
2.68606
2.67088
2.6497
2.63226
2.61771
2.60835
2.58585
2.54902
2.50619
2.46611
2.43251
1.01415
1.02111
1.02624
1.02905
1.03184
1.0333
1.03611
1.04074
1.05441
1.08843
1.15647
1.37604
1.97038
2.50667
2.66145
2.65423
2.64142
2.62793
2.60993
2.5929
2.57912
2.55061
2.51055
2.46811
2.43254
1.01397
1.02131
1.02605
1.02927
1.03161
1.03343
1.03536
1.03929
1.05184
1.07847
1.13746
1.3173
1.79176
2.47395
2.65343
2.62472
2.62408
2.61904
2.6072
2.59065
2.56725
2.54576
2.51523
2.47555
2.43697
1.01384
1.02136
1.02597
1.02928
1.03155
1.03337
1.03516
1.03842
1.05027
1.07108
1.12571
1.27814
1.64975
2.42005
2.63741
2.62888
2.60895
2.60451
2.60065
2.59045
2.56822
2.54292
2.51471
2.48368
2.44771
1.01386
1.02139
1.02594
1.02936
1.03146
1.03352
1.03505
1.03919
1.04614
1.06627
1.12063
1.22332
1.60185
2.37599
2.58984
2.62275
2.60525
2.59343
2.58912
2.58487
2.57255
2.5466
2.51734
2.48823
2.459
1.01384
1.02138
1.02593
1.02933
1.03147
1.03346
1.03497
1.03846
1.0443
1.0614
1.10689
1.19249
1.50343
2.27278
2.54528
2.6274
2.6083
2.59516
2.58351
2.57554
2.56855
2.55284
2.52535
2.49593
2.46973
1.01406
1.02119
1.02614
1.02914
1.03167
1.03321
1.03494
1.03677
1.04265
1.05757
1.08488
1.18803
1.37495
1.97688
2.49732
2.62292
2.61036
2.59758
2.58208
2.57242
2.56342
2.5532
2.53252
2.50502
2.47981
1.01392
1.02134
1.026
1.02929
1.03151
1.03337
1.03465
1.03674
1.04075
1.05398
1.07968
1.14789
1.31851
1.83901
2.40739
2.60123
2.59706
2.58825
2.57505
2.56796
2.56126
2.55223
2.53623
2.51325
2.48889
1.01394
1.02131
1.02602
1.02926
1.03154
1.03332
1.03461
1.0363
1.03962
1.05132
1.07253
1.12838
1.27749
1.67159
2.38453
2.60162
2.5986
2.5838
2.56821
2.56077
2.55518
2.54787
2.53556
2.51717
2.49551
1.01409
1.02116
1.02618
1.0291
1.0317
1.03315
1.03473
1.03589
1.03881
1.04947
1.06665
1.11446
1.2471
1.53779
2.30343
2.58651
2.61178
2.59296
2.57736
2.56416
2.55577
2.54801
2.53594
2.52016
2.50122
1.01398
1.02127
1.02606
1.02922
1.03159
1.03326
1.0346
1.0359
1.03818
1.04692
1.06159
1.10139
1.21401
1.45174
2.12132
2.5377
2.63318
2.61343
2.60128
2.58045
2.56386
2.55122
2.53803
2.52257
2.5048
1.01401
1.02123
1.0261
1.02916
1.03165
1.03318
1.0347
1.03578
1.03857
1.04343
1.05772
1.09317
1.1682
1.39473
2.04576
2.45124
2.61666
2.61389
2.60412
2.5874
2.57507
2.56136
2.54569
2.52881
2.51002
1.01367
1.02156
1.02578
1.02948
1.03132
1.03349
1.03433
1.03597
1.03731
1.0432
1.05265
1.08128
1.15
1.30531
1.71839
2.45397
2.60693
2.60546
2.59815
2.58346
2.57429
2.56453
2.55195
2.53698
2.51973
1.01373
1.02152
1.02583
1.02945
1.03136
1.03347
1.03434
1.03589
1.03708
1.04226
1.04997
1.07632
1.13223
1.26497
1.64672
2.44121
2.61291
2.61292
2.59939
2.58506
2.57376
2.56418
2.55268
2.5397
2.52541
1.01379
1.02147
1.02588
1.02942
1.0314
1.03345
1.03437
1.03584
1.03693
1.04141
1.04799
1.07165
1.11922
1.23491
1.57728
2.38291
2.59999
2.63373
2.61245
2.59499
2.57737
2.56563
2.55437
2.54197
2.52833
1.01381
1.02144
1.0259
1.02939
1.03142
1.03342
1.03439
1.03578
1.03676
1.04057
1.04653
1.0654
1.11179
1.20577
1.52806
2.28309
2.57253
2.66206
2.63608
2.61783
2.59028
2.57222
2.55954
2.54703
2.53369
1.01382
1.02143
1.02591
1.02938
1.03143
1.0334
1.03439
1.03573
1.03667
1.03998
1.04486
1.06317
1.09756
1.18564
1.43621
2.13319
2.54218
2.67866
2.65487
2.62956
2.60081
2.58205
2.56814
2.55389
2.53949
1.01385
1.0214
1.02593
1.02934
1.03145
1.03336
1.03441
1.03568
1.03656
1.03928
1.04359
1.05892
1.08829
1.16559
1.36841
1.96571
2.51618
2.68038
2.65779
2.63169
2.6037
2.58869
2.57741
2.56552
2.55203
1.01386
1.02138
1.02595
1.02933
1.03147
1.03335
1.03442
1.03564
1.03648
1.03885
1.04263
1.05655
1.08183
1.15199
1.32729
1.85007
2.52734
2.69014
2.6535
2.63928
2.61028
2.59403
2.58354
2.57339
2.5623
1.01406
1.02119
1.02614
1.02914
1.03166
1.03315
1.03462
1.0354
1.03658
1.03786
1.04228
1.05334
1.07451
1.15132
1.28551
1.7367
2.60416
2.70934
2.6597
2.64833
2.62245
2.60604
2.59488
2.58468
2.57446
1.0139
1.02135
1.02598
1.02929
1.0315
1.03331
1.03444
1.03559
1.03636
1.0382
1.04171
1.05139
1.07757
1.12751
1.30217
1.70194
2.51173
2.7086
2.69403
2.65953
2.63071
2.61296
2.60077
2.59
2.58018
1.01411
1.02114
1.02619
1.02908
1.03171
1.0331
1.03466
1.03535
1.03655
1.03757
1.04175
1.05052
1.0701
1.13545
1.25001
1.67014
2.56011
2.70676
2.7086
2.68357
2.65379
2.63106
2.61418
2.60063
2.58936
1.01415
1.02111
1.02623
1.02906
1.03175
1.03307
1.0347
1.03532
1.03657
1.03752
1.04183
1.04927
1.06908
1.12788
1.23287
1.62613
2.51403
2.70026
2.72392
2.69999
2.67347
2.64876
2.63083
2.61597
2.60272
1.0139
1.02136
1.02598
1.02931
1.0315
1.03333
1.03443
1.03558
1.03628
1.03777
1.04035
1.04989
1.06777
1.11219
1.25051
1.53787
2.36938
2.68952
2.74777
2.72139
2.69665
2.67041
2.65073
2.63463
2.62071
1.01392
1.02135
1.026
1.02929
1.03152
1.03331
1.03445
1.03556
1.03624
1.03755
1.04007
1.04757
1.06635
1.10334
1.23697
1.49207
2.24367
2.6573
2.75085
2.73525
2.70158
2.67483
2.659
2.64828
2.63841
1.01407
1.02118
1.02615
1.02912
1.03168
1.03313
1.03464
1.03535
1.03645
1.03719
1.04022
1.04619
1.06032
1.10539
1.18584
1.47534
2.2305
2.64849
2.75268
2.7413
2.70051
2.67064
2.65496
2.64567
2.6371
1.01408
1.02118
1.02616
1.02913
1.03168
1.03315
1.03462
1.03539
1.03637
1.03714
1.03923
1.04649
1.05918
1.09276
1.18939
1.38666
2.00415
2.6491
2.76331
2.74684
2.69672
2.66184
2.64536
2.63733
2.6308
1.01407
1.02118
1.02615
1.02913
1.03167
1.03315
1.03461
1.03538
1.03635
1.03706
1.03893
1.04611
1.05688
1.0914
1.16946
1.36322
1.86238
2.68574
2.76053
2.73831
2.68989
2.6511
2.63423
2.62796
2.62363
1.01409
1.02116
1.02617
1.02911
1.0317
1.03313
1.03463
1.03536
1.03637
1.03702
1.0388
1.04541
1.05624
1.08742
1.16815
1.35136
1.82698
2.73021
2.76093
2.74045
2.69127
2.65165
2.6343
2.62871
2.62455
1.01407
1.02118
1.02616
1.02912
1.03168
1.03313
1.03462
1.03536
1.03636
1.03701
1.03872
1.04522
1.05545
1.08598
1.16485
1.33818
1.8172
2.75644
2.76484
2.74733
2.70013
2.65878
2.63841
2.63061
2.62455
1.01402
1.02122
1.02611
1.02916
1.03164
1.03317
1.03459
1.03538
1.03637
1.03704
1.03919
1.04376
1.05358
1.08778
1.14051
1.367
1.85194
2.71412
2.77169
2.75892
2.71471
2.67417
2.6517
2.6402
2.63122
1.01408
1.02116
1.02617
1.0291
1.0317
1.03311
1.03464
1.03534
1.03637
1.03702
1.03871
1.04381
1.05588
1.08106
1.16706
1.33276
1.8178
2.75951
2.76647
2.75059
2.7117
2.67339
2.65131
2.63965
2.63046
1.01404
1.02121
1.02613
1.02915
1.03165
1.03316
1.03461
1.03537
1.03639
1.03709
1.0394
1.04349
1.05488
1.0866
1.14364
1.35892
1.8422
2.71422
2.77045
2.75931
2.71993
2.68151
2.65811
2.64489
2.63437
1.01405
1.0212
1.02614
1.02914
1.03166
1.03315
1.03461
1.03537
1.0364
1.0371
1.03945
1.04348
1.05501
1.08639
1.14387
1.35805
1.84413
2.71554
2.77325
2.76383
2.72609
2.68876
2.6653
2.65161
2.64026
1.00601
1.013
1.02117
1.02838
1.03543
1.04164
1.0496
1.06646
1.09869
1.17236
1.38605
1.89806
2.76979
2.73552
2.72741
2.69771
2.69135
2.69166
2.69649
2.65131
2.6608
2.65461
2.62806
2.57411
2.43566
1.00595
1.01306
1.02111
1.02843
1.03537
1.04165
1.04937
1.06574
1.09598
1.16732
1.36901
1.85322
2.74439
2.73804
2.72257
2.68906
2.68581
2.68307
2.68244
2.63876
2.63324
2.62302
2.58958
2.52932
2.40125
1.00568
1.01334
1.02086
1.02866
1.03516
1.04163
1.04856
1.06115
1.09423
1.16854
1.32284
1.78965
2.74564
2.73736
2.70907
2.68893
2.67672
2.67216
2.66872
2.63194
2.60619
2.58882
2.55857
2.49918
2.40137
1.00546
1.01357
1.02063
1.02889
1.03491
1.04182
1.04805
1.06012
1.08981
1.1609
1.29803
1.7459
2.7212
2.73226
2.69092
2.68816
2.67485
2.66305
2.65581
2.62172
2.58839
2.56642
2.53217
2.49114
2.40876
1.00635
1.01267
1.0215
1.02804
1.03569
1.04112
1.04855
1.05957
1.08716
1.13523
1.31446
1.6481
2.56351
2.71756
2.70334
2.68289
2.67021
2.65885
2.6477
2.6202
2.56828
2.54682
2.51687
2.47784
2.41976
1.00545
1.01356
1.02061
1.02893
1.03481
1.04192
1.04774
1.06063
1.08161
1.13578
1.27877
1.59208
2.47612
2.68776
2.71067
2.68951
2.65961
2.6498
2.64096
2.61969
2.56882
2.52828
2.50188
2.47288
2.42665
1.00535
1.01366
1.02051
1.02902
1.0347
1.04194
1.04724
1.05882
1.07715
1.12534
1.24687
1.51402
2.32637
2.64813
2.70795
2.69769
2.6616
2.64151
2.62998
2.61613
2.57344
2.52548
2.48791
2.46157
2.43476
1.00538
1.01364
1.02053
1.029
1.03469
1.04185
1.04672
1.05641
1.07283
1.11192
1.21708
1.42558
2.12894
2.6036
2.69387
2.69152
2.65913
2.63716
2.6248
2.61292
2.58458
2.52963
2.48935
2.4513
2.43337
1.00536
1.01365
1.02052
1.02899
1.03469
1.04176
1.04633
1.05463
1.0685
1.10304
1.18846
1.3626
1.8508
2.61874
2.67712
2.67139
2.65227
2.62752
2.61427
2.60552
2.59012
2.54244
2.49573
2.453
2.42921
1.00581
1.01321
1.02097
1.02853
1.03517
1.0412
1.04685
1.05362
1.06874
1.09531
1.16243
1.33834
1.78495
2.60159
2.67515
2.6516
2.6469
2.62853
2.60884
2.59789
2.58831
2.56354
2.51078
2.46059
2.43061
1.00555
1.01346
1.02071
1.02877
1.03492
1.04141
1.04649
1.05304
1.06407
1.0909
1.13882
1.31393
1.65673
2.49036
2.65559
2.65185
2.64449
2.62796
2.60925
2.59425
2.58445
2.56985
2.53806
2.47888
2.43809
1.00583
1.01316
1.021
1.02848
1.03518
1.04114
1.04654
1.05231
1.06128
1.08549
1.13759
1.24673
1.60377
2.42643
2.60239
2.65785
2.65024
2.63306
2.61305
2.59553
2.58435
2.57311
2.55504
2.50991
2.45701
1.00628
1.01274
1.02143
1.02808
1.03558
1.04073
1.04683
1.05145
1.05965
1.07847
1.12408
1.21122
1.49721
2.30499
2.56405
2.65608
2.64953
2.63233
2.61662
2.60046
2.58627
2.57595
2.56444
2.5406
2.48841
1.00606
1.01294
1.02123
1.02826
1.03542
1.04084
1.04672
1.0512
1.05897
1.07402
1.10643
1.19938
1.37734
1.97833
2.55261
2.6513
2.6444
2.62669
2.61473
2.60289
2.5911
2.58125
2.57197
2.55798
2.52668
1.00599
1.01303
1.02114
1.02837
1.0353
1.04096
1.04654
1.05109
1.05767
1.07001
1.09924
1.17506
1.31964
1.76266
2.58521
2.64764
2.62921
2.62614
2.61213
2.60275
2.59408
2.58567
2.57762
2.56848