/*--------------------------------*- C++ -*----------------------------------*\
  =========                 |
  \\      /  F ield         | OpenFOAM: The Open Source CFD Toolbox
   \\    /   O peration     | Website:  https://openfoam.org
    \\  /    A nd           | Version:  6
     \\/     M anipulation  |
\*---------------------------------------------------------------------------*/
FoamFile
{
    version     2.0;
    format      ascii;
    class       volVectorField;
    location    "10";
    object      U;
}
// * * * * * * * * * * * * * * * * * * * * * * * * * * * * * * * * * * * * * //

dimensions      [0 1 -1 0 0 0 0];

internalField   nonuniform List<vector> 
26250
(
(3.01562 3.78745e-06 -0.0578972)
(3.02579 -2.35046e-06 -0.0598533)
(3.03427 4.91386e-06 -0.0610415)
(3.04137 -4.96341e-06 -0.0623738)
(3.04744 1.13792e-05 -0.0630702)
(3.05174 -1.11897e-05 -0.0642219)
(3.05235 4.96095e-05 -0.0648713)
(3.05084 7.4291e-05 -0.0664581)
(3.03423 9.80248e-05 -0.0687785)
(3.00361 0.000227678 -0.0763413)
(2.87636 0.000414253 -0.0897632)
(2.5195 0.00172095 -0.132657)
(1.63244 0.00424264 -0.228095)
(0.798347 0.0152055 -0.274635)
(0.858969 0.0176241 -0.258218)
(0.968482 0.0141994 -0.246849)
(1.04616 0.0129572 -0.249934)
(1.05112 0.0132688 -0.253533)
(1.02503 0.0149322 -0.257279)
(0.961798 0.0222964 -0.260922)
(0.945683 0.021786 -0.260779)
(0.900131 0.0172162 -0.262701)
(0.783361 0.0109613 -0.266305)
(0.518548 0.00655946 -0.270374)
(0.277533 -0.00383977 -0.257266)
(3.01561 7.64503e-06 -0.0579009)
(3.02579 -1.6312e-06 -0.0598477)
(3.03427 1.27678e-05 -0.0610453)
(3.04137 -6.9673e-06 -0.0623682)
(3.04743 2.3297e-05 -0.063076)
(3.05177 -1.55357e-05 -0.0642113)
(3.05242 8.8468e-05 -0.0648846)
(3.05088 0.000174536 -0.0664563)
(3.03435 0.000272421 -0.0687597)
(3.00387 0.000617123 -0.0763235)
(2.87752 0.00117816 -0.0896567)
(2.52318 0.00356733 -0.132451)
(1.64803 0.00903137 -0.227413)
(0.847914 0.0237112 -0.271912)
(0.887067 0.0304721 -0.256692)
(0.9894 0.0309787 -0.244022)
(1.06776 0.0317228 -0.247582)
(1.07429 0.0338591 -0.251217)
(1.04617 0.0382059 -0.254719)
(1.00234 0.0484377 -0.256728)
(0.97552 0.0486039 -0.257575)
(0.927649 0.0432999 -0.259703)
(0.820096 0.0347103 -0.262431)
(0.576171 0.026621 -0.26665)
(0.355004 0.0143424 -0.255629)
(3.01561 1.64122e-05 -0.0579006)
(3.02579 -1.75826e-06 -0.0598488)
(3.03427 1.84773e-05 -0.0610465)
(3.04138 -1.37853e-05 -0.0623672)
(3.04743 2.83467e-05 -0.0630779)
(3.05179 -2.05791e-05 -0.0642074)
(3.0525 0.000147844 -0.0648849)
(3.05099 0.000422329 -0.0664505)
(3.03458 0.000762958 -0.0687393)
(3.00436 0.0016277 -0.0762676)
(2.87859 0.00323382 -0.0894818)
(2.5262 0.0055034 -0.132262)
(1.65194 0.0132493 -0.226825)
(0.824274 0.035347 -0.273064)
(0.868578 0.0483286 -0.257329)
(0.973996 0.0544814 -0.244526)
(1.05346 0.0574584 -0.24791)
(1.06193 0.0596797 -0.251448)
(1.03478 0.0633448 -0.254927)
(0.996317 0.0694673 -0.256726)
(0.963988 0.0736598 -0.25714)
(0.914273 0.0741284 -0.259207)
(0.805497 0.0700996 -0.261238)
(0.56379 0.0632554 -0.264825)
(0.340026 0.0562391 -0.254498)
(3.01561 6.67912e-05 -0.0578996)
(3.02579 -2.42079e-05 -0.0598493)
(3.03426 3.89094e-05 -0.061046)
(3.04138 -4.34593e-05 -0.0623661)
(3.04743 3.39194e-05 -0.0630796)
(3.05187 -3.78083e-05 -0.0641988)
(3.05278 0.000161123 -0.0648831)
(3.05138 0.000725965 -0.0664554)
(3.03533 -0.00244125 -0.0685994)
(3.00607 0.00889885 -0.0761907)
(2.88024 -0.0104217 -0.0889568)
(2.53682 0.0380532 -0.131898)
(1.66456 0.0203206 -0.226459)
(0.875656 0.0593738 -0.270507)
(0.901128 0.0769826 -0.255398)
(0.995713 0.0876087 -0.242274)
(1.07004 0.0911936 -0.246046)
(1.07577 0.0931506 -0.2497)
(1.04419 0.0971098 -0.253492)
(0.995914 0.104513 -0.255956)
(0.963837 0.11091 -0.255989)
(0.91041 0.114169 -0.257731)
(0.797056 0.113023 -0.259487)
(0.551056 0.109362 -0.262751)
(0.321363 0.101378 -0.253402)
(3.0156 2.96991e-05 -0.0579978)
(3.02576 -1.11897e-05 -0.0597384)
(3.03425 3.15339e-05 -0.0611569)
(3.04137 -3.70192e-05 -0.0622466)
(3.04744 5.98492e-05 -0.0631981)
(3.05189 -6.00576e-05 -0.0640716)
(3.05313 0.000297024 -0.0649748)
(3.04881 0.00067218 -0.0663939)
(3.04098 0.00112697 -0.0682919)
(2.9979 0.00236253 -0.0765025)
(2.89301 0.00475204 -0.087784)
(2.56784 0.0102516 -0.133637)
(1.66997 0.0258136 -0.215745)
(0.890096 0.0667834 -0.267604)
(0.91408 0.0922906 -0.2534)
(1.00621 0.104635 -0.240343)
(1.07491 0.111674 -0.24342)
(1.08086 0.118224 -0.246812)
(1.05185 0.127455 -0.250413)
(1.01191 0.140153 -0.252087)
(0.977752 0.148568 -0.252363)
(0.920622 0.154033 -0.254079)
(0.80401 0.156139 -0.255448)
(0.554743 0.157803 -0.258397)
(0.319365 0.149541 -0.249744)
(3.0156 2.24097e-05 -0.0579092)
(3.02579 -1.32332e-05 -0.0598368)
(3.03424 2.65662e-05 -0.0610576)
(3.0414 -3.41325e-05 -0.062348)
(3.04741 5.67427e-05 -0.0631016)
(3.05206 -4.68528e-05 -0.0641562)
(3.05338 0.000288158 -0.0649087)
(3.05205 0.000760375 -0.0664413)
(3.03669 0.00114418 -0.0683868)
(3.00909 0.0018051 -0.0759441)
(2.88596 0.00445874 -0.0877347)
(2.55958 0.0110501 -0.130576)
(1.71141 0.0320984 -0.222141)
(0.94339 0.0886578 -0.266737)
(0.945999 0.117174 -0.252407)
(1.02546 0.127985 -0.238598)
(1.09224 0.136427 -0.241922)
(1.09708 0.145944 -0.245064)
(1.06835 0.158596 -0.24829)
(1.03159 0.173941 -0.249405)
(0.995105 0.185291 -0.249461)
(0.935553 0.194378 -0.250849)
(0.818232 0.202015 -0.251669)
(0.566131 0.2112 -0.254053)
(0.32435 0.206967 -0.24551)
(3.01559 7.85187e-07 -0.0580142)
(3.02577 -5.44223e-06 -0.0597189)
(3.03423 1.18679e-05 -0.061178)
(3.04139 -9.05133e-06 -0.0622205)
(3.04743 3.01936e-05 -0.0632286)
(3.05208 -7.09598e-06 -0.0640214)
(3.05379 0.000102098 -0.0650023)
(3.04951 0.000250827 -0.0663461)
(3.04182 0.000453004 -0.0681809)
(3.00064 0.00152374 -0.076138)
(2.90067 0.0037822 -0.0866905)
(2.59003 0.0125 -0.131697)
(1.73897 0.0411913 -0.209439)
(0.986874 0.107072 -0.263034)
(0.972291 0.135221 -0.249566)
(1.04492 0.152347 -0.235797)
(1.10799 0.163077 -0.23896)
(1.11308 0.174592 -0.242175)
(1.0864 0.189336 -0.245145)
(1.05198 0.206384 -0.246083)
(1.01565 0.221503 -0.24589)
(0.955428 0.236042 -0.246835)
(0.839138 0.251937 -0.247065)
(0.585264 0.271176 -0.248848)
(0.336695 0.281308 -0.240199)
(3.0156 -4.94479e-05 -0.0579116)
(3.0258 1.71368e-05 -0.0598342)
(3.03424 -4.5771e-06 -0.0610637)
(3.04142 1.81498e-05 -0.0623421)
(3.04741 3.51128e-05 -0.0631095)
(3.05212 -1.22885e-06 -0.0641419)
(3.0536 0.000109718 -0.0649039)
(3.05234 -0.000148279 -0.0663718)
(3.03774 0.00364022 -0.0682924)
(3.01173 -0.00468397 -0.0755619)
(2.89554 0.018616 -0.0865094)
(2.58755 -0.0122567 -0.128623)
(1.79568 0.0482387 -0.215541)
(1.01453 0.119928 -0.263884)
(0.993611 0.15096 -0.248484)
(1.06151 0.171749 -0.234784)
(1.12154 0.18468 -0.237425)
(1.12697 0.199047 -0.240201)
(1.10289 0.216648 -0.242631)
(1.07199 0.23656 -0.243062)
(1.03803 0.256173 -0.242521)
(0.979847 0.277885 -0.242739)
(0.866899 0.30555 -0.242202)
(0.615868 0.342063 -0.242954)
(0.361078 0.383424 -0.233605)
(3.0156 1.03459e-05 -0.0579146)
(3.0258 -8.69622e-06 -0.0598307)
(3.03424 1.83604e-05 -0.0610683)
(3.04143 -2.39637e-05 -0.0623362)
(3.04741 4.81793e-05 -0.0631154)
(3.05214 -3.42203e-05 -0.0641317)
(3.05367 0.000250017 -0.0648838)
(3.05245 0.000601507 -0.0663357)
(3.03832 0.00106496 -0.0682881)
(3.01303 0.00293742 -0.0752445)
(2.9025 0.00589693 -0.0860872)
(2.60359 0.021052 -0.126765)
(1.85728 0.0525632 -0.21094)
(1.06343 0.14342 -0.261851)
(1.02567 0.177061 -0.246048)
(1.08533 0.198935 -0.232947)
(1.14008 0.210421 -0.235351)
(1.14522 0.225041 -0.237945)
(1.12347 0.243512 -0.239841)
(1.09653 0.265287 -0.23983)
(1.06606 0.289133 -0.238892)
(1.01315 0.319185 -0.237887)
(0.90891 0.362584 -0.236403)
(0.671283 0.429775 -0.235418)
(0.411422 0.532237 -0.224671)
(3.01559 5.84499e-05 -0.0579202)
(3.0258 -2.61157e-05 -0.0598223)
(3.03422 3.14356e-05 -0.0610781)
(3.04144 -5.01724e-05 -0.0623217)
(3.04741 4.03458e-05 -0.0631314)
(3.05228 -4.21289e-05 -0.0640989)
(3.05412 0.000281622 -0.0648961)
(3.05301 0.00107848 -0.0662755)
(3.03961 -0.00115628 -0.0680564)
(3.01578 0.0099033 -0.0749622)
(2.90946 -0.00564751 -0.0850852)
(2.6279 0.0521669 -0.124656)
(1.8979 0.0529144 -0.207456)
(1.12666 0.156658 -0.258538)
(1.07361 0.197561 -0.242815)
(1.12097 0.224342 -0.230976)
(1.16757 0.236307 -0.232844)
(1.1716 0.251133 -0.235499)
(1.15211 0.269761 -0.236966)
(1.12914 0.292552 -0.236751)
(1.10342 0.320238 -0.235441)
(1.06034 0.359256 -0.233107)
(0.975849 0.422717 -0.230109)
(0.776352 0.539016 -0.225552)
(0.513263 0.780144 -0.209693)
(2.98854 1.79993e-06 -0.00141595)
(2.98292 -3.02186e-07 -0.00330857)
(2.97951 2.70711e-06 -0.00490961)
(2.97735 -5.87265e-08 -0.00647304)
(2.97572 3.72835e-06 -0.00764885)
(2.97395 9.22732e-07 -0.00894362)
(2.96938 4.87619e-06 -0.00965942)
(2.96033 1.69142e-05 -0.0106337)
(2.93148 8.28391e-05 -0.0122097)
(2.86834 0.000112547 -0.0149994)
(2.68469 0.00057383 -0.0217203)
(2.1145 0.000889428 -0.0329254)
(0.746473 0.00395792 -0.0630535)
(-0.265198 0.0237336 -0.0643521)
(0.0995851 0.0260066 -0.0613334)
(0.460199 0.0271734 -0.0577991)
(0.551534 0.0286125 -0.0600257)
(0.511329 0.0311318 -0.0616925)
(0.408022 0.0389889 -0.0632035)
(0.256788 0.0614156 -0.0619545)
(0.267969 0.0622923 -0.0636943)
(0.208585 0.0505989 -0.0646209)
(0.0293245 0.0452529 -0.0648029)
(-0.00300806 0.029104 -0.0615007)
(0.147821 0.00669131 -0.0538805)
(2.98854 5.38244e-06 -0.00141649)
(2.98292 7.45898e-07 -0.00330757)
(2.97951 8.05775e-06 -0.00491072)
(2.97735 1.57698e-06 -0.00647133)
(2.97572 9.95925e-06 -0.00765188)
(2.97395 4.93847e-06 -0.00893893)
(2.96939 1.70541e-05 -0.00966994)
(2.96039 6.68635e-05 -0.010628)
(2.93156 0.000202754 -0.0122376)
(2.86875 0.0004804 -0.01496)
(2.68524 0.00147006 -0.0218071)
(2.11709 0.00317498 -0.0329688)
(0.766469 0.0107042 -0.0632383)
(-0.18385 0.0327017 -0.0651391)
(0.141587 0.0458998 -0.0606947)
(0.482607 0.0553575 -0.056884)
(0.566266 0.0613686 -0.0593185)
(0.525102 0.0675379 -0.061175)
(0.440601 0.0775484 -0.0625931)
(0.353693 0.107724 -0.0622244)
(0.305633 0.109209 -0.0627472)
(0.221586 0.102227 -0.0632165)
(0.0546857 0.101189 -0.0634848)
(0.00114755 0.0915004 -0.0608279)
(0.206956 0.0499098 -0.0533205)
(2.98854 1.17372e-05 -0.00141705)
(2.98292 1.85701e-06 -0.00330699)
(2.97951 1.31579e-05 -0.00491194)
(2.97736 4.60718e-07 -0.00646959)
(2.97572 1.28098e-05 -0.00765411)
(2.97396 5.58175e-06 -0.00893636)
(2.96943 3.03149e-05 -0.00967273)
(2.96048 0.000136946 -0.0106416)
(2.93181 0.00033859 -0.012211)
(2.8694 0.00099717 -0.0149987)
(2.68673 0.00244704 -0.0217118)
(2.12138 0.00586508 -0.0329053)
(0.768783 0.0177254 -0.0631031)
(-0.238745 0.0501523 -0.0644328)
(0.124403 0.076188 -0.060702)
(0.475267 0.0940874 -0.0567182)
(0.558484 0.104221 -0.0591284)
(0.516147 0.112917 -0.0610143)
(0.433895 0.119649 -0.0625674)
(0.36598 0.133044 -0.062687)
(0.317855 0.152275 -0.0620559)
(0.225709 0.166454 -0.0620326)
(0.0645265 0.174437 -0.0619889)
(-0.00470352 0.165346 -0.0593539)
(0.19552 0.113189 -0.0521185)
(2.98854 3.08482e-05 -0.00141904)
(2.98292 8.97963e-07 -0.00330434)
(2.97951 2.64493e-05 -0.00491411)
(2.97735 -5.08643e-06 -0.00646573)
(2.97572 2.27133e-05 -0.00765912)
(2.97397 4.223e-06 -0.00892988)
(2.96949 0.000103923 -0.00969292)
(2.96063 0.000116209 -0.0106555)
(2.93222 0.00135833 -0.0122626)
(2.87044 0.000927895 -0.0149905)
(2.68891 0.00574456 -0.0218516)
(2.12794 0.00900228 -0.0327443)
(0.799089 0.0223049 -0.0630036)
(-0.151925 0.069992 -0.06502)
(0.163837 0.105164 -0.0601827)
(0.490814 0.130797 -0.0559842)
(0.563418 0.145757 -0.058492)
(0.513862 0.158965 -0.060392)
(0.426534 0.170267 -0.0620485)
(0.319874 0.193767 -0.0616457)
(0.305393 0.216265 -0.061426)
(0.222247 0.238143 -0.0612124)
(0.0700614 0.251479 -0.0605341)
(-0.0115653 0.241422 -0.057679)
(0.175857 0.17998 -0.0507035)
(2.98854 1.92683e-05 -0.00142937)
(2.98292 -9.56339e-07 -0.00329032)
(2.9795 1.92712e-05 -0.0049232)
(2.97735 -6.61566e-06 -0.00645525)
(2.97573 1.86849e-05 -0.00766803)
(2.97403 2.52388e-06 -0.00892156)
(2.96951 4.71392e-05 -0.00970593)
(2.9615 0.000234911 -0.0106847)
(2.9327 0.000676208 -0.0117823)
(2.87231 0.00176028 -0.0162354)
(2.6931 0.00500687 -0.0192807)
(2.12844 0.0112429 -0.0366026)
(0.777081 0.0370335 -0.0611098)
(-0.188243 0.0955657 -0.0649136)
(0.157196 0.139063 -0.0603697)
(0.489332 0.167109 -0.0559081)
(0.560651 0.186209 -0.0580925)
(0.511989 0.205305 -0.0598293)
(0.429693 0.226343 -0.0613519)
(0.353821 0.257484 -0.0611413)
(0.319393 0.282087 -0.0603471)
(0.234431 0.306734 -0.0600045)
(0.089854 0.32513 -0.0589242)
(-0.0105634 0.319479 -0.0557574)
(0.163675 0.250738 -0.0488607)
(2.98854 1.42836e-05 -0.00142425)
(2.98292 -2.50261e-06 -0.00329718)
(2.9795 1.4508e-05 -0.00492161)
(2.97736 -6.75382e-06 -0.00645357)
(2.97573 1.67772e-05 -0.00767574)
(2.974 7.19514e-06 -0.00890723)
(2.96967 6.12621e-05 -0.00974184)
(2.96113 0.000312486 -0.0106771)
(2.93343 0.000784261 -0.0122769)
(2.87401 0.00230251 -0.014939)
(2.69614 0.00636471 -0.021779)
(2.15105 0.0145657 -0.0321373)
(0.864188 0.0490709 -0.0621615)
(-0.0978949 0.126902 -0.0648984)
(0.196 0.173223 -0.0597609)
(0.503756 0.202223 -0.0550549)
(0.567074 0.225358 -0.0574506)
(0.517503 0.250134 -0.059197)
(0.440932 0.279115 -0.0605948)
(0.375723 0.316078 -0.0604611)
(0.336271 0.344895 -0.0591836)
(0.253319 0.374626 -0.0584492)
(0.120601 0.400312 -0.0570374)
(-0.000517424 0.403397 -0.0536905)
(0.157638 0.332199 -0.04663)
(2.98853 1.36313e-06 -0.00143374)
(2.98292 -2.25335e-06 -0.00328373)
(2.97949 4.06601e-06 -0.00493058)
(2.97736 -1.27702e-06 -0.00644391)
(2.97573 1.14298e-05 -0.00768367)
(2.97407 1.41853e-05 -0.00890057)
(2.96975 8.04406e-05 -0.00974585)
(2.96208 0.000329144 -0.0107102)
(2.93428 0.00101125 -0.0117591)
(2.87711 0.00243688 -0.0160355)
(2.70283 0.00795468 -0.0190373)
(2.16338 0.0173981 -0.0356036)
(0.878426 0.0620043 -0.0600154)
(-0.0645446 0.149727 -0.0654716)
(0.219175 0.203479 -0.0594779)
(0.514226 0.236938 -0.0545466)
(0.574109 0.263936 -0.0568245)
(0.526382 0.293322 -0.0585057)
(0.456096 0.327909 -0.0597116)
(0.397987 0.369142 -0.059503)
(0.358394 0.404583 -0.0580258)
(0.280816 0.442599 -0.0567813)
(0.162096 0.478849 -0.0550125)
(0.0256318 0.494258 -0.051222)
(0.153411 0.434123 -0.0438388)
(2.98854 -2.04785e-05 -0.00142496)
(2.98292 -6.38508e-07 -0.00329532)
(2.9795 -1.03904e-05 -0.00492578)
(2.97736 6.08207e-06 -0.00644799)
(2.97574 3.97245e-06 -0.00768415)
(2.97406 2.19374e-05 -0.00889296)
(2.96993 4.32254e-05 -0.00974619)
(2.96191 0.000453054 -0.0106345)
(2.93516 0.000337002 -0.0122188)
(2.88004 0.00330033 -0.0146956)
(2.70795 0.00677251 -0.021412)
(2.1939 0.0211785 -0.0309653)
(0.97877 0.0739661 -0.0611834)
(0.00911892 0.175791 -0.0650654)
(0.256874 0.234398 -0.0587335)
(0.529115 0.270832 -0.0539069)
(0.583562 0.30086 -0.0561424)
(0.538451 0.334232 -0.0577823)
(0.475333 0.373806 -0.05873)
(0.4238 0.420386 -0.0583772)
(0.386469 0.462546 -0.0568139)
(0.318191 0.511138 -0.0551311)
(0.215459 0.560729 -0.0528519)
(0.0714465 0.595279 -0.0484617)
(0.157238 0.564702 -0.0406503)
(2.98854 -3.63524e-06 -0.00142501)
(2.98293 5.00041e-06 -0.00329453)
(2.9795 -4.45748e-06 -0.00492887)
(2.97737 1.07715e-05 -0.00644368)
(2.97575 4.44917e-06 -0.00769127)
(2.9741 3.8388e-05 -0.00887892)
(2.97011 0.00017256 -0.00975667)
(2.96234 0.000557921 -0.010593)
(2.93638 0.0014944 -0.0121886)
(2.88335 0.0037435 -0.0145277)
(2.71626 0.00966833 -0.021155)
(2.22312 0.0259514 -0.030475)
(1.05506 0.0756023 -0.0607285)
(0.0879116 0.19904 -0.0651972)
(0.299484 0.269242 -0.0579793)
(0.546007 0.304713 -0.0530965)
(0.595042 0.335873 -0.0552442)
(0.553756 0.372139 -0.0569492)
(0.498919 0.416442 -0.0576994)
(0.45407 0.468006 -0.0572199)
(0.422025 0.517217 -0.0555236)
(0.366966 0.577799 -0.0533268)
(0.283616 0.644889 -0.0507021)
(0.144711 0.711223 -0.045507)
(0.178048 0.737472 -0.0370584)
(2.98854 7.14623e-06 -0.00142862)
(2.98292 2.23234e-05 -0.00328821)
(2.9795 -1.93367e-05 -0.00493592)
(2.97737 5.53165e-05 -0.00643167)
(2.97576 -6.08605e-05 -0.00770689)
(2.9742 0.000204849 -0.0088591)
(2.97036 0.000182053 -0.00978884)
(2.96301 0.00165744 -0.0106378)
(2.93776 -0.00059355 -0.0120799)
(2.88715 0.0109651 -0.0146841)
(2.72474 -0.00170039 -0.0204974)
(2.25446 0.0477713 -0.0307544)
(1.12548 0.0705371 -0.0599519)
(0.175515 0.219582 -0.0650924)
(0.343657 0.30601 -0.0573349)
(0.557908 0.338488 -0.0524294)
(0.6061 0.368846 -0.0543019)
(0.571182 0.406566 -0.0558606)
(0.525733 0.455085 -0.0565452)
(0.488617 0.509887 -0.0560132)
(0.465471 0.566686 -0.0542261)
(0.4284 0.639308 -0.0516022)
(0.372076 0.728607 -0.0485068)
(0.258637 0.840205 -0.042903)
(0.229582 1.00724 -0.0336416)
(2.99508 1.4472e-06 2.58526e-06)
(2.98907 7.26923e-07 -1.94832e-06)
(2.98248 1.94144e-06 2.74863e-06)
(2.97638 1.32997e-06 -2.39072e-06)
(2.97049 8.88654e-07 2.7553e-06)
(2.96513 3.98371e-06 -1.55032e-06)
(2.95768 -5.08066e-06 1.74985e-06)
(2.94453 5.75176e-05 7.84084e-06)
(2.9087 -5.25804e-05 7.87608e-06)
(2.83195 0.000292998 4.42802e-05)
(2.62056 -2.14594e-06 3.20378e-06)
(1.95238 0.000568353 0.00012726)
(0.377929 0.00167005 2.6858e-05)
(-0.69269 0.0101761 0.000773256)
(-0.0536169 0.0191426 -2.81601e-05)
(0.329679 0.0274897 -5.29159e-05)
(0.410852 0.0320056 7.62416e-05)
(0.325748 0.0343403 0.000184911)
(0.19514 0.0326731 0.000488946)
(0.095098 0.0337346 0.00114218)
(-0.10275 0.0679974 8.77179e-05)
(-0.148143 0.0702297 -0.000229145)
(-0.160405 0.0678609 -0.00024119)
(-0.0993926 0.0649907 -0.000429146)
(0.101006 0.0511592 -0.000475466)
(2.99508 2.25589e-06 5.49504e-06)
(2.98907 1.14509e-06 -4.91392e-06)
(2.98248 3.33244e-06 4.58549e-06)
(2.97638 2.75869e-06 -4.87704e-06)
(2.97049 3.68917e-06 4.61088e-06)
(2.96512 5.82954e-06 -3.15753e-06)
(2.95772 1.84147e-05 1.44578e-05)
(2.94449 6.20459e-05 -2.0863e-05)
(2.90887 0.000158311 0.000187101)
(2.83205 0.000457879 -0.000191045)
(2.62087 0.00110039 0.000360552)
(1.95305 0.00318794 -0.000137862)
(0.386573 0.00994955 -0.000753364)
(-0.679097 0.0310735 -0.000476091)
(-0.0420994 0.0547879 0.000320917)
(0.337561 0.0737096 0.000221952)
(0.409719 0.0814412 0.000142555)
(0.315692 0.0837333 0.000107591)
(0.175941 0.0765049 -4.13686e-05)
(0.0453945 0.0794069 -0.000556902)
(-0.138997 0.132863 0.000196239)
(-0.167666 0.143726 0.000239919)
(-0.178094 0.14832 -4.37926e-05)
(-0.115678 0.149056 -0.000285171)
(0.0907648 0.126456 -0.00030004)
(2.99508 3.43381e-06 2.8189e-06)
(2.98907 1.87e-06 -1.82657e-06)
(2.98248 4.6832e-06 2.14807e-06)
(2.97638 3.5351e-06 -2.13534e-06)
(2.97049 4.57956e-06 1.77984e-06)
(2.96514 8.14951e-06 -1.13269e-06)
(2.95773 3.11156e-05 1.1994e-06)
(2.94465 0.000117448 9.64097e-06)
(2.90903 0.000291605 -7.45544e-06)
(2.83278 0.000877957 6.37143e-05)
(2.62267 0.00209497 -8.40722e-05)
(1.95983 0.0061483 0.000143394)
(0.399531 0.019161 -0.000266412)
(-0.663636 0.0530651 0.000436373)
(-0.0296494 0.0903176 0.000160836)
(0.345492 0.119356 0.000187875)
(0.407847 0.133206 0.000104144)
(0.306601 0.139927 4.99432e-05)
(0.153393 0.136088 -6.20172e-05)
(-0.00174164 0.15403 -0.000128055)
(-0.14005 0.214773 0.000207461)
(-0.161487 0.227691 0.000282328)
(-0.178636 0.237342 7.97889e-05)
(-0.123833 0.240172 -8.83745e-05)
(0.076135 0.211359 -9.85501e-05)
(2.99508 5.68154e-06 4.56602e-06)
(2.98907 2.52921e-06 -3.43002e-06)
(2.98248 6.39541e-06 2.76565e-06)
(2.97637 3.38895e-06 -2.91681e-06)
(2.97049 3.12784e-06 2.0046e-06)
(2.96515 1.36144e-05 -2.06075e-06)
(2.95782 2.65953e-05 1.0963e-05)
(2.94471 0.000261025 -2.67571e-05)
(2.9095 0.000274136 0.000168282)
(2.83364 0.00169945 -0.000223334)
(2.62497 0.00273888 0.000329796)
(1.96781 0.0091445 -0.000225258)
(0.425759 0.0280589 -0.000831482)
(-0.629077 0.0766627 -0.000295564)
(-0.0130681 0.125374 0.000237203)
(0.354421 0.162256 0.000216568)
(0.407398 0.182851 0.000117772)
(0.300235 0.196609 0.000103101)
(0.14595 0.201808 0.000178429)
(-0.00357339 0.22826 0.000497944)
(-0.126347 0.297744 0.00012858)
(-0.147149 0.311372 -3.95022e-06)
(-0.170197 0.324312 1.81314e-05)
(-0.126708 0.328397 2.69772e-06)
(0.0649692 0.295035 4.94605e-06)
(2.99508 4.0429e-06 1.19922e-06)
(2.98907 6.04417e-07 5.43726e-08)
(2.98248 3.60257e-06 -6.68479e-07)
(2.97637 1.46005e-06 6.56709e-07)
(2.9705 3.01253e-06 -1.79536e-06)
(2.96516 1.4412e-05 3.97902e-07)
(2.95793 6.29514e-05 -3.64329e-06)
(2.94487 0.000274503 -3.33036e-06)
(2.91017 0.000616805 -2.15032e-05)
(2.83508 0.00203878 -2.36435e-05)
(2.62882 0.00471659 -7.85463e-05)
(1.98128 0.0143173 -3.55513e-05)
(0.463184 0.0435526 -0.000323081)
(-0.583177 0.106424 0.000381329)
(0.00641224 0.162959 0.000115377)
(0.364314 0.2047 9.05199e-05)
(0.408643 0.230926 8.13377e-05)
(0.299244 0.251665 9.48656e-05)
(0.146232 0.26919 0.000166494)
(0.0124099 0.30532 0.000277314)
(-0.104907 0.377814 3.01994e-05)
(-0.126734 0.393041 -0.000103585)
(-0.153631 0.409714 1.5182e-05)
(-0.124719 0.417027 5.33271e-05)
(0.0578187 0.380605 5.29888e-05)
(2.99508 6.60083e-07 1.32614e-06)
(2.98907 -7.76331e-07 -4.2776e-07)
(2.98248 -3.17832e-07 -4.10641e-07)
(2.97637 1.21129e-06 9.15278e-07)
(2.9705 2.51367e-06 -1.25821e-06)
(2.9652 2.06026e-05 8.96344e-07)
(2.95803 9.0979e-05 9.59422e-06)
(2.94519 0.000360125 -2.82766e-05)
(2.91096 0.000855416 0.000147232)
(2.8373 0.00270813 -0.000216864)
(2.63472 0.00655139 0.00030403)
(2.00245 0.0200162 -0.000218524)
(0.508067 0.0600066 -0.000653827)
(-0.534884 0.138233 6.58491e-07)
(0.0285947 0.201861 7.5953e-05)
(0.374711 0.246926 8.45141e-05)
(0.411648 0.277973 7.12697e-05)
(0.303558 0.305084 7.06497e-05)
(0.155442 0.333979 8.22065e-05)
(0.0391991 0.37785 6.30155e-05)
(-0.0793069 0.455296 -1.80862e-05)
(-0.100234 0.474776 -5.78269e-05)
(-0.128722 0.497124 5.712e-05)
(-0.116928 0.511315 9.37052e-05)
(0.0547418 0.475878 7.85602e-05)
(2.99508 -3.01976e-06 -5.31127e-06)
(2.98907 -1.49917e-08 6.00798e-06)
(2.98249 -5.10536e-06 -4.54444e-06)
(2.97638 4.635e-06 6.1343e-06)
(2.97051 -2.84266e-06 -4.71278e-06)
(2.96524 3.7875e-05 3.28644e-06)
(2.95822 0.000108315 -1.30139e-05)
(2.94552 0.000477041 1.31817e-05)
(2.91213 0.00101899 -0.000151921)
(2.84014 0.0034373 0.00011489)
(2.64254 0.00803146 -0.000274184)
(2.03003 0.0248818 8.28039e-06)
(0.570157 0.0730603 0.000536643)
(-0.473612 0.168439 -0.000179961)
(0.0561481 0.239621 -6.47366e-05)
(0.385833 0.288172 3.16167e-05)
(0.416344 0.323735 6.07025e-05)
(0.312311 0.356706 5.9644e-05)
(0.171811 0.395456 5.40852e-05)
(0.0723613 0.446141 2.24828e-05)
(-0.0469292 0.529237 -1.17498e-05)
(-0.0651858 0.557322 -1.60194e-05)
(-0.0933024 0.588354 8.85934e-05)
(-0.100294 0.614339 0.000127194)
(0.0558736 0.587188 0.000125601)
(2.99508 -6.42906e-06 -2.44403e-06)
(2.98907 3.06053e-06 2.50243e-06)
(2.98249 -1.03538e-05 -2.06828e-06)
(2.97638 1.31315e-05 3.06575e-06)
(2.97053 -1.26728e-05 -2.00765e-06)
(2.96529 6.84654e-05 2.1541e-06)
(2.95841 0.000110915 -4.01366e-07)
(2.94597 0.000554778 -4.19735e-06)
(2.91343 0.00114728 -8.54399e-06)
(2.84358 0.00392393 -1.56157e-05)
(2.65188 0.00913279 -1.71166e-05)
(2.06259 0.0284112 -1.79431e-05)
(0.640802 0.0824642 5.88199e-05)
(-0.400657 0.196336 -3.88858e-05)
(0.084762 0.27621 -3.86085e-05)
(0.397598 0.328201 2.86178e-05)
(0.422618 0.367526 5.17405e-05)
(0.32492 0.405791 5.15002e-05)
(0.194988 0.45317 4.3259e-05)
(0.107602 0.511979 1.5071e-05)
(-0.00438254 0.597895 -5.69199e-06)
(-0.0194742 0.640502 5.97545e-06)
(-0.0443727 0.68325 9.76349e-05)
(-0.071002 0.728399 0.000155793)
(0.0635584 0.722259 0.000179836)
(2.99508 -8.49727e-06 -9.67343e-07)
(2.98907 1.11362e-05 8.22043e-07)
(2.98249 -1.8254e-05 -9.9608e-07)
(2.97637 3.17045e-05 1.10031e-06)
(2.97056 -2.62399e-05 -7.09715e-07)
(2.96534 7.96465e-05 7.06903e-07)
(2.95863 0.000108625 -2.47047e-07)
(2.94641 0.000433984 -1.49347e-06)
(2.91496 0.00158655 -5.24053e-06)
(2.84728 0.00335175 -7.00982e-06)
(2.66231 0.0116098 -1.99923e-05)
(2.09703 0.0261596 -1.78328e-05)
(0.727657 0.0845956 -2.72515e-05)
(-0.305532 0.219811 -3.51332e-05)
(0.11587 0.314083 -2.10635e-05)
(0.409547 0.367037 2.21502e-05)
(0.429987 0.408494 3.99678e-05)
(0.340715 0.451249 3.72831e-05)
(0.224397 0.506546 2.66903e-05)
(0.146587 0.572935 3.60416e-06)
(0.0481881 0.662167 -1.36339e-05)
(0.0369588 0.721272 -4.51382e-06)
(0.0223566 0.780927 8.61429e-05)
(-0.0176738 0.854087 0.000179563)
(0.0813111 0.890921 0.000211239)
(2.99509 -2.65821e-05 -7.78569e-07)
(2.98906 4.13049e-05 1.20001e-06)
(2.98251 -5.97693e-05 -1.08158e-06)
(2.97637 0.000113299 1.4724e-06)
(2.97057 -0.000148898 -1.40107e-06)
(2.9654 0.000281559 1.00828e-06)
(2.9587 -0.000342626 -5.96073e-07)
(2.94724 0.000614411 -2.94079e-06)
(2.91588 -0.00147053 -7.0535e-06)
(2.85234 0.00949061 -1.11837e-05)
(2.6696 -0.000282688 -2.54214e-05)
(2.12378 0.0389524 -2.46945e-05)
(0.806965 0.0770296 -3.77539e-05)
(-0.205508 0.240886 -1.54883e-05)
(0.147118 0.355086 -6.27059e-06)
(0.41901 0.405094 1.73452e-05)
(0.437413 0.446044 2.90347e-05)
(0.359436 0.492126 2.49682e-05)
(0.258763 0.554665 1.25384e-05)
(0.190153 0.626867 2.99152e-07)
(0.111051 0.720799 -1.84969e-05)
(0.106315 0.797381 -2.66189e-05)
(0.108656 0.878829 5.70035e-05)
(0.0749505 0.989696 0.000169585)
(0.117995 1.15071 0.000203971)
(2.98854 1.7526e-05 0.00141977)
(2.98292 3.16541e-07 0.00330484)
(2.97951 1.24723e-05 0.00491435)
(2.97736 -2.91454e-06 0.00646687)
(2.97573 9.90545e-06 0.00765769)
(2.97396 -1.11648e-06 0.00893294)
(2.96942 6.7323e-05 0.00969422)
(2.96038 -7.70866e-05 0.0106697)
(2.9317 0.000942674 0.012252)
(2.86845 -0.000525124 0.0150863)
(2.68531 0.00236159 0.0218619)
(2.11427 0.000575255 0.0330027)
(0.756836 -0.00398484 0.063019)
(-0.192201 -0.0147697 0.0657141)
(0.134186 -0.00353368 0.0612351)
(0.478744 0.00724281 0.0574287)
(0.569483 0.0115455 0.0598224)
(0.536705 0.0126234 0.0617257)
(0.463735 0.0047893 0.0631863)
(0.401795 -0.0194557 0.0631215)
(0.355149 -0.0120847 0.062985)
(0.27814 0.00644671 0.0631994)
(0.135247 0.0264333 0.0636483)
(0.0290962 0.0459579 0.0610026)
(0.22573 0.0398359 0.0530567)
(2.98854 6.62263e-06 0.00142918)
(2.98292 2.66144e-06 0.00329209)
(2.9795 7.03694e-06 0.00492131)
(2.97735 1.97721e-06 0.00645956)
(2.97572 5.47548e-06 0.00766199)
(2.974 2.65234e-06 0.00893089)
(2.96935 1.17148e-05 0.00969328)
(2.96111 7.25683e-05 0.0106986)
(2.93161 0.000127781 0.0117651)
(2.86886 0.000534606 0.0163688)
(2.68631 0.000993939 0.0192736)
(2.10317 0.0028921 0.0367811)
(0.70051 0.00749327 0.0612554)
(-0.305677 0.0227631 0.0646296)
(0.0885023 0.0413815 0.0617293)
(0.455836 0.0561964 0.0580816)
(0.546818 0.0618469 0.0601508)
(0.506133 0.0638437 0.0618608)
(0.408679 0.0597564 0.0635324)
(0.226884 0.0685422 0.062377)
(0.247778 0.0781382 0.063826)
(0.196524 0.0902277 0.0641817)
(0.042314 0.105664 0.0637233)
(-0.00706661 0.114888 0.0600576)
(0.171643 0.0910461 0.0523891)
(2.98854 7.05482e-06 0.00142149)
(2.98292 4.66035e-06 0.00330327)
(2.97951 7.02431e-06 0.0049153)
(2.97735 4.47368e-06 0.00646464)
(2.97573 3.53641e-06 0.00765978)
(2.97396 2.21039e-06 0.00892939)
(2.96947 7.32292e-06 0.00970441)
(2.96047 8.03478e-05 0.0106836)
(2.93206 0.000174509 0.0122687)
(2.8691 0.000632759 0.0151089)
(2.68708 0.00190144 0.0219139)
(2.11815 0.00460797 0.0328704)
(0.768035 0.0157654 0.0626359)
(-0.181009 0.0498108 0.0650687)
(0.144146 0.0733131 0.0608281)
(0.478831 0.0924594 0.057059)
(0.5548 0.103125 0.0594512)
(0.505046 0.111932 0.0611855)
(0.414203 0.121213 0.0628622)
(0.316294 0.148265 0.0628947)
(0.274393 0.155212 0.0629713)
(0.188126 0.158829 0.0631018)
(0.0198458 0.177349 0.0625029)
(-0.0182936 0.183327 0.0587954)
(0.150032 0.144522 0.0515478)
(2.98854 2.31526e-05 0.00143102)
(2.98292 2.96386e-06 0.00329094)
(2.9795 1.45569e-05 0.00492128)
(2.97735 -2.63969e-06 0.0064591)
(2.97572 6.74986e-06 0.0076603)
(2.97401 -3.42557e-06 0.00893093)
(2.96942 6.88253e-05 0.00968354)
(2.96125 7.93048e-06 0.0106766)
(2.93209 0.00115112 0.0117001)
(2.87043 0.000147586 0.0162388)
(2.68979 0.00480016 0.0191174)
(2.11444 0.0060615 0.0366802)
(0.739697 0.0195066 0.0609136)
(-0.231899 0.0689817 0.0648841)
(0.132956 0.105142 0.060947)
(0.475845 0.12897 0.0569537)
(0.550828 0.144062 0.0590857)
(0.501766 0.158675 0.0607823)
(0.417496 0.175122 0.0623741)
(0.343706 0.203476 0.0624604)
(0.290475 0.218772 0.061807)
(0.194099 0.228335 0.0615156)
(0.0321227 0.248455 0.0607786)
(-0.0186874 0.2518 0.0573181)
(0.145858 0.200692 0.0502573)
(2.98854 2.73446e-06 0.00143238)
(2.98292 -2.28344e-06 0.00328899)
(2.9795 2.02577e-06 0.00492166)
(2.97735 -4.46616e-06 0.00645801)
(2.97572 4.03215e-06 0.00766054)
(2.97401 3.37364e-06 0.00892974)
(2.96949 3.872e-05 0.00968132)
(2.96139 0.000215794 0.0106531)
(2.93255 0.000537726 0.011677)
(2.87188 0.00167311 0.0161017)
(2.69306 0.00472373 0.0190824)
(2.12532 0.0110354 0.0366783)
(0.778942 0.0386723 0.0605347)
(-0.15122 0.100431 0.0655879)
(0.168024 0.139401 0.0606132)
(0.48872 0.164687 0.0563384)
(0.556295 0.18361 0.0584995)
(0.50565 0.203273 0.0602338)
(0.424216 0.22533 0.0617158)
(0.356443 0.254376 0.0617543)
(0.305704 0.278871 0.0607214)
(0.209572 0.300083 0.0600792)
(0.0602536 0.322131 0.0590534)
(-0.0144594 0.325653 0.0556053)
(0.145001 0.264804 0.0485398)
(2.98854 -2.0352e-05 0.00143086)
(2.98292 -7.22444e-06 0.00329)
(2.9795 -9.72704e-06 0.00492255)
(2.97735 -3.32733e-06 0.00645642)
(2.97573 5.72769e-06 0.00766487)
(2.97404 1.10912e-05 0.00892356)
(2.96959 1.684e-05 0.00969058)
(2.96167 0.000357883 0.01066)
(2.93326 0.000154666 0.011693)
(2.87406 0.00259824 0.0160979)
(2.69727 0.00550267 0.0190174)
(2.1415 0.0143025 0.0362079)
(0.819319 0.0584211 0.0601751)
(-0.125328 0.12453 0.0653499)
(0.187247 0.1694 0.060213)
(0.499043 0.198263 0.0556451)
(0.562794 0.221908 0.0578637)
(0.512613 0.247046 0.0596029)
(0.435302 0.275444 0.0609143)
(0.372322 0.308931 0.0607856)
(0.325042 0.339823 0.059516)
(0.233326 0.371325 0.0586014)
(0.0973559 0.398823 0.0572011)
(-0.00386779 0.407341 0.0537061)
(0.145364 0.342716 0.0464077)
(2.98854 -1.88807e-05 0.00142103)
(2.98292 -7.74343e-06 0.00330158)
(2.97951 -9.79608e-06 0.00491867)
(2.97736 -4.37031e-06 0.00645918)
(2.97573 5.01363e-06 0.00766953)
(2.97403 1.39771e-05 0.00891276)
(2.96977 3.02456e-05 0.00971779)
(2.96149 0.000412073 0.0106207)
(2.93403 0.000274685 0.0122235)
(2.87691 0.00297734 0.0147519)
(2.70103 0.00635652 0.0215796)
(2.17033 0.0173922 0.0315196)
(0.919211 0.0672686 0.0617447)