/*--------------------------------*- C++ -*----------------------------------*\
  =========                 |
  \\      /  F ield         | OpenFOAM: The Open Source CFD Toolbox
   \\    /   O peration     | Website:  https://openfoam.org
    \\  /    A nd           | Version:  6
     \\/     M anipulation  |
\*---------------------------------------------------------------------------*/
FoamFile
{
    version     2.0;
    format      ascii;
    class       volScalarField;
    location    "7.5";
    object      Ma;
}
// * * * * * * * * * * * * * * * * * * * * * * * * * * * * * * * * * * * * * //

dimensions      [0 0 0 0 0 0 0];

internalField   nonuniform List<scalar> 
26250
(
3.04681
3.07676
3.10437
3.12646
3.14794
3.16425
3.18065
3.18902
3.18826
3.16915
3.11596
2.95709
2.62
1.84303
0.797304
0.350043
0.435926
0.551715
0.609578
0.596942
0.585837
0.551294
0.472033
0.338946
0.237258
3.04681
3.07677
3.10436
3.12647
3.14793
3.16426
3.18065
3.18905
3.18831
3.16932
3.11632
2.95817
2.62179
1.84699
0.803814
0.353452
0.439202
0.555417
0.613762
0.614272
0.594896
0.556112
0.482338
0.356196
0.256386
3.04679
3.07679
3.10434
3.12649
3.14791
3.16427
3.18064
3.18915
3.18844
3.1697
3.11712
2.96013
2.62527
1.85244
0.810692
0.358491
0.443747
0.558946
0.616406
0.616373
0.593411
0.550471
0.477831
0.353753
0.252778
3.04669
3.07689
3.10422
3.1266
3.14779
3.1644
3.18057
3.18944
3.18877
3.17072
3.12206
2.96393
2.63327
1.86706
0.823358
0.372661
0.455547
0.566385
0.621518
0.614027
0.593864
0.551691
0.477197
0.351844
0.250562
3.04531
3.07831
3.10274
3.12814
3.14622
3.16603
3.17889
3.19098
3.18457
3.17743
3.11767
2.99132
2.61697
1.87711
0.868503
0.39533
0.473355
0.579919
0.632632
0.629625
0.608093
0.564967
0.488856
0.362033
0.259935
3.04653
3.07705
3.10405
3.12676
3.14762
3.16457
3.18048
3.18994
3.18943
3.17282
3.12985
2.9744
2.65729
1.9052
0.872368
0.416488
0.490951
0.591469
0.645323
0.643781
0.621864
0.579203
0.504378
0.378755
0.278011
3.04543
3.07819
3.10286
3.12801
3.14635
3.16591
3.17905
3.19103
3.18525
3.17788
3.12302
3.00265
2.64376
1.92414
0.927667
0.445404
0.513249
0.608093
0.660662
0.661159
0.639411
0.598095
0.526291
0.404423
0.308464
3.0465
3.07709
3.10402
3.1268
3.14761
3.16462
3.18053
3.19028
3.18991
3.17456
3.13191
2.98796
2.68962
1.95605
0.950448
0.469151
0.532442
0.620637
0.675611
0.678332
0.658433
0.621014
0.55536
0.442151
0.359298
3.04638
3.07721
3.1039
3.12693
3.14747
3.16478
3.1805
3.19095
3.1905
3.17578
3.13246
2.99734
2.70952
1.98794
1.00524
0.512618
0.563345
0.641526
0.696491
0.700101
0.682611
0.650467
0.595991
0.499133
0.445422
3.04623
3.07735
3.10374
3.12709
3.14732
3.16493
3.18038
3.19103
3.19086
3.17813
3.14085
3.00849
2.73621
2.02705
1.05091
0.559889
0.594772
0.66497
0.719779
0.725183
0.711354
0.687857
0.65219
0.591421
0.605539
2.96751
2.95208
2.94108
2.93523
2.92966
2.92708
2.92307
2.91857
2.90093
2.87178
2.78424
2.59062
2.1785
1.28793
0.190207
0.392805
0.0384468
0.253259
0.304787
0.244786
0.23381
0.177005
0.0723677
0.0437204
0.102372
2.96752
2.95208
2.94108
2.93523
2.92966
2.92708
2.92307
2.91859
2.90099
2.87189
2.78457
2.59118
2.17973
1.29007
0.193696
0.389218
0.0485133
0.262708
0.320409
0.287695
0.251274
0.190559
0.10398
0.0718963
0.124019
2.96752
2.95209
2.94108
2.93523
2.92966
2.92708
2.92308
2.91863
2.90115
2.87224
2.78535
2.59314
2.18324
1.29592
0.202427
0.379128
0.0659656
0.273463
0.328686
0.297459
0.260135
0.206602
0.138488
0.11425
0.136554
2.96751
2.95209
2.94108
2.93522
2.92966
2.92708
2.9231
2.91872
2.90143
2.87285
2.78665
2.59627
2.18875
1.3039
0.215594
0.362942
0.0861594
0.285547
0.331704
0.2855
0.26678
0.226788
0.179561
0.161304
0.159774
2.96755
2.952
2.94114
2.93512
2.92975
2.92697
2.92327
2.91902
2.90307
2.87293
2.79489
2.59283
2.20441
1.3145
0.216091
0.355479
0.109267
0.301827
0.347769
0.317074
0.291765
0.259695
0.226011
0.209754
0.194944
2.96751
2.95208
2.94108
2.93521
2.92967
2.92708
2.92317
2.91897
2.90228
2.87473
2.79101
2.6072
2.20956
1.34195
0.264752
0.322245
0.133986
0.321874
0.367619
0.343215
0.321908
0.298538
0.275616
0.261611
0.241672
2.96755
2.95201
2.94114
2.93513
2.92975
2.92699
2.92334
2.9193
2.90395
2.87532
2.80022
2.6069
2.23265
1.37097
0.286094
0.29959
0.159756
0.343188
0.390292
0.373613
0.356758
0.342843
0.329987
0.31956
0.302243
2.96752
2.95207
2.9411
2.9352
2.92969
2.92708
2.92326
2.9193
2.90353
2.87743
2.7978
2.62501
2.2453
1.42296
0.351178
0.269893
0.188207
0.366599
0.414975
0.404801
0.395735
0.391308
0.389759
0.386485
0.381315
2.96753
2.95207
2.9411
2.9352
2.9297
2.92708
2.92331
2.9195
2.90431
2.87911
2.80195
2.6366
2.26751
1.48013
0.410802
0.226773
0.219391
0.392861
0.441894
0.438104
0.438244
0.443896
0.455279
0.467143
0.488995
2.96754
2.95204
2.94112
2.93517
2.92973
2.92706
2.92337
2.91977
2.90534
2.88111
2.80821
2.6451
2.29262
1.53814
0.466743
0.198258
0.254188
0.421044
0.47058
0.473082
0.481815
0.498294
0.528289
0.565473
0.664106
2.9858
2.97014
2.95113
2.93541
2.91926
2.90719
2.89387
2.88229
2.85906
2.82134
2.72103
2.50413
2.06645
1.11784
0.0505942
0.782864
0.129404
0.174863
0.237765
0.181046
0.0909742
0.0743747
0.091688
0.067409
0.0616558
2.98577
2.97018
2.95109
2.93544
2.91922
2.90722
2.89384
2.88233
2.85902
2.82161
2.72088
2.50572
2.0668
1.11574
0.0509618
0.782756
0.127557
0.189259
0.242186
0.17472
0.128565
0.112055
0.128307
0.111991
0.0972638
2.9858
2.97014
2.95113
2.93541
2.91926
2.90719
2.89388
2.88234
2.85924
2.82172
2.72203
2.50604
2.07035
1.12346
0.0413047
0.766325
0.129486
0.209272
0.250653
0.188049
0.161912
0.151065
0.170436
0.164399
0.144362
2.98577
2.97018
2.95109
2.93544
2.91922
2.90723
2.89385
2.88242
2.85938
2.82235
2.72283
2.50973
2.07496
1.13002
0.0333171
0.743165
0.135576
0.232746
0.266622
0.216934
0.19763
0.193381
0.215414
0.217089
0.195093
2.98573
2.97022
2.95105
2.93548
2.91918
2.90727
2.89383
2.88252
2.85963
2.82324
2.72427
2.51491
2.08266
1.14275
0.0360227
0.714232
0.146861
0.258367
0.287673
0.250963
0.229073
0.238224
0.26255
0.270391
0.248384
2.98574
2.9702
2.95107
2.93547
2.9192
2.90726
2.89387
2.88263
2.86017
2.82415
2.72723
2.52029
2.09559
1.17114
0.0571019
0.677116
0.16237
0.28577
0.313883
0.288484
0.264923
0.285834
0.312608
0.32658
0.307588
2.98571
2.97024
2.95104
2.9355
2.91917
2.9073
2.89387
2.8828
2.86074
2.82559
2.73054
2.52923
2.11243
1.20675
0.0910688
0.633854
0.181929
0.314616
0.34386
0.328827
0.309121
0.336941
0.366995
0.38892
0.37712
2.98571
2.97024
2.95104
2.9355
2.91917
2.90731
2.8939
2.88297
2.86154
2.82716
2.73509
2.53865
2.13358
1.25191
0.134989
0.583343
0.204844
0.344645
0.376703
0.370969
0.360239
0.389559
0.426487
0.458419
0.461232
2.98567
2.97029
2.951
2.93555
2.91913
2.90736
2.89389
2.88319
2.86233
2.82911
2.73965
2.55073
2.1564
1.2993
0.186568
0.524871
0.23123
0.375568
0.410476
0.412792
0.414432
0.445623
0.491057
0.538413
0.56941
2.98578
2.97017
2.95111
2.93544
2.91924
2.90727
2.89402
2.88349
2.86357
2.83106
2.74574
2.5597
2.18175
1.35268
0.246113
0.455667
0.261034
0.407227
0.444928
0.454491
0.467291
0.503403
0.561374
0.630351
0.741421
2.96751
2.95209
2.94108
2.93523
2.92966
2.92708
2.92308
2.91864
2.90109
2.8721
2.78478
2.5912
2.17862
1.28183
0.182982
0.399295
0.0388242
0.253677
0.318194
0.298531
0.262996
0.204877
0.122687
0.05804
0.104567
2.96755
2.952
2.94115
2.93512
2.92975
2.92697
2.92324
2.91886
2.90253
2.87142
2.79156
2.58386
2.18665
1.27779
0.165125
0.409772
0.0483435
0.257175
0.305124
0.237419
0.22835
0.178667
0.100815
0.0797101
0.119598
2.96751
2.95209
2.94107
2.93523
2.92965
2.92708
2.9231
2.91871
2.90131
2.87261
2.78583
2.5937
2.18282
1.28519
0.190965
0.389946
0.0658333
0.266936
0.310776
0.257876
0.241017
0.190487
0.125502
0.121964
0.135878
2.96755
2.95201
2.94114
2.93513
2.92974
2.92698
2.92325
2.91894
2.90278
2.87229
2.79314
2.58837
2.1956
1.29327
0.190306
0.377579
0.086262
0.28283
0.329326
0.294353
0.262877
0.217417
0.167815
0.165709
0.164114
2.96754
2.95201
2.94113
2.93513
2.92973
2.92699
2.92326
2.91902
2.90299
2.87302
2.79457
2.59261
2.20419
1.30867
0.21248
0.356767
0.109349
0.299563
0.34393
0.310991
0.287854
0.252816
0.216423
0.21168
0.199499
2.96754
2.95202
2.94113
2.93513
2.92974
2.92699
2.92329
2.91913
2.90339
2.87401
2.79699
2.59877
2.21644
1.33547
0.24484
0.333848
0.134289
0.319449
0.365183
0.342214
0.31933
0.294464
0.269232
0.261914
0.244659
2.96752
2.95208
2.94109
2.93521
2.92968
2.92708
2.92321
2.91911
2.9028
2.87586
2.79407
2.61483
2.22605
1.37963
0.308068
0.29506
0.161057
0.342652
0.389144
0.372228
0.355284
0.340872
0.326257
0.319137
0.303703
2.96753
2.95207
2.94111
2.93521
2.9297
2.92708
2.92326
2.91928
2.90349
2.87733
2.7978
2.62486
2.24592
1.42866
0.35788
0.255815
0.188459
0.367523
0.41497
0.404101
0.394878
0.390373
0.387738
0.38586
0.381726
2.96753
2.95207
2.94111
2.9352
2.92971
2.92708
2.92331
2.9195
2.90428
2.87906
2.80186
2.63643
2.26742
1.48031
0.410009
0.229318
0.21859
0.393458
0.442134
0.437948
0.437871
0.443393
0.454016
0.466443
0.488965
2.96755
2.95205
2.94113
2.93517
2.92973
2.92705
2.92337
2.91976
2.90531
2.88105
2.8081
2.6449
2.29233
1.5382
0.467174
0.198193
0.255042
0.421401
0.470376
0.472555
0.481354
0.497939
0.527491
0.564554
0.663964
3.0467
3.07688
3.10424
3.12658
3.14781
3.16438
3.18057
3.18935
3.18862
3.17012
3.12127
2.95872
2.62639
1.84398
0.783347
0.340732
0.429387
0.549083
0.607847
0.608451
0.590408
0.548243
0.473498
0.347696
0.248172
3.04524
3.07839
3.10266
3.12822
3.14614
3.16611
3.17878
3.19095
3.18398
3.17652
3.11459
2.98413
2.59369
1.83776
0.831906
0.367092
0.452019
0.567134
0.62165
0.608624
0.59578
0.557614
0.478825
0.348364
0.248307
3.04661
3.07697
3.10414
3.12668
3.14771
3.16448
3.1805
3.18961
3.18893
3.17093
3.12596
2.96214
2.63675
1.85598
0.789583
0.349834
0.438103
0.554272
0.610071
0.59829
0.584471
0.547766
0.468458
0.336236
0.236786
3.04541
3.07821
3.10285
3.12801
3.14635
3.16589
3.17908
3.19096
3.18529
3.17427
3.11428
2.98012
2.60443
1.85949
0.847114
0.379867
0.461644
0.57204
0.623779
0.620341
0.599641
0.559382
0.481658
0.350296
0.247296
3.04548
3.07813
3.10292
3.12793
3.14644
3.1658
3.17922
3.19097
3.18598
3.17229
3.11488
2.97926
2.61654
1.88126
0.851047
0.386667
0.467616
0.575639
0.627469
0.623527
0.604074
0.564254
0.489456
0.361841
0.259429
3.04539
3.07822
3.10283
3.12803
3.14633
3.16592
3.17905
3.19102
3.18532
3.17558
3.11847
2.98948
2.62885
1.89737
0.885181
0.412306
0.486909
0.588512
0.640445
0.639807
0.618316
0.577644
0.504575
0.379261
0.278184
3.04658
3.07701
3.10411
3.12672
3.14769
3.16453
3.18054
3.18995
3.18947
3.17306
3.12794
2.97947
2.67053
1.92886
0.914041
0.441723
0.509784
0.603722
0.657593
0.658313
0.635484
0.596568
0.525866
0.405455
0.308797
3.04658
3.07701
3.10412
3.12672
3.1477
3.16453
3.18059
3.19013
3.18974
3.17417
3.12847
2.98807
2.68804
1.95435
0.957727
0.474394
0.535254
0.622223
0.676811
0.678282
0.656392
0.620371
0.555286
0.443157
0.359869
3.04638
3.07722
3.1039
3.12694
3.14748
3.16477
3.18051
3.19094
3.19061
3.17553
3.13229
2.99717
2.70922
1.98764
1.00371
0.508788
0.561554
0.641454
0.696598
0.699626
0.680788
0.650213
0.595756
0.499729
0.445724
3.04625
3.07735
3.10376
3.12708
3.14732
3.16491
3.18038
3.19106
3.19081
3.17799
3.14038
3.00836
2.73676
2.02652
1.05017
0.559127
0.594363
0.665067
0.719267
0.724375
0.709857
0.687754
0.652622
0.591124
0.605411
3.04557
3.07802
3.10303
3.12783
3.14653
3.16579
3.17934
3.19204
3.19043
3.18502
3.13817
3.03914
2.72159
2.11573
1.13265
0.625269
0.638492
0.697376
0.748256
0.754875
0.746236
0.735285
0.727181
0.727252
0.789615
3.04832
3.07519
3.10599
3.12476
3.14967
3.16255
3.18285
3.18844
3.19452
3.18297
3.1525
3.03176
2.7795
2.10946
1.15279
0.670959
0.672161
0.72263
0.772753
0.784024
0.782411
0.784305
0.794779
0.825687
0.905254
3.04512
3.07848
3.10256
3.12833
3.14603
3.16635
3.17894
3.1932
3.19268
3.18816
3.14804
3.0618
2.77572
2.23542
1.28216
0.751183
0.722804
0.760372
0.801165
0.814777
0.818086
0.827024
0.847905
0.890227
0.969554
3.04804
3.07548
3.10569
3.12509
3.14932
3.16293
3.18239
3.18975
3.19651
3.18719
3.15822
3.05668
2.83024
2.24137
1.32923
0.811977
0.770986
0.799807
0.832661
0.848453
0.856233
0.869576
0.894698
0.937688
1.0084
3.04789
3.07566
3.10552
3.12527
3.14913
3.16316
3.18222
3.19029
3.1981
3.18975
3.1659
3.07293
2.88579
2.3322
1.46538
0.888006
0.823122
0.838734
0.862387
0.880248
0.892141
0.908225
0.935344
0.976362
1.03778
3.04536
3.07824
3.10276
3.12812
3.14619
3.16625
3.17921
3.19423
3.19775
3.19556
3.16775
3.10175
2.89291
2.48397
1.62011
0.98316
0.875835
0.877112
0.892186
0.90996
0.924601
0.942642
0.969528
1.00827
1.06169
3.04559
3.078
3.10299
3.12787
3.14644
3.166
3.17951
3.19431
3.1994
3.19788
3.17503
3.11736
2.94296
2.59617
1.79455
1.10786
0.936296
0.920961
0.927287
0.942308
0.958672
0.976445
1.00104
1.03572
1.08205
3.04583
3.07777
3.10323
3.12762
3.14673
3.16567
3.17986
3.19424
3.20077
3.19947
3.18269
3.12689
3.0043
2.66152
2.03964
1.27072
1.0148
0.98596
0.982697
0.992798
1.0053
1.0178
1.03614
1.06342
1.10094
3.04639
3.07719
3.10386
3.12701
3.14731
3.16515
3.18044
3.19405
3.20294
3.20231
3.19051
3.15075
3.05539
2.79291
2.26619
1.43373
1.07512
1.03123
1.03246
1.04318
1.05642
1.06657
1.07899
1.09785
1.12493
3.04745
3.07608
3.10504
3.12576
3.14862
3.16377
3.18194
3.19258
3.20565
3.20511
3.20137
3.16955
3.09494
2.8848
2.44353
1.64378
1.13432
1.05444
1.05377
1.06701
1.08343
1.09791
1.11102
1.12697
1.14896
3.04522
3.07838
3.10264
3.12825
3.14609
3.16638
3.17937
3.19539
3.20354
3.2106
3.20443
3.18606
3.11779
2.97141
2.56781
1.81589
1.22718
1.08521
1.07396
1.08401
1.10094
1.11767
1.13318
1.14849
1.16619
3.04675
3.0768
3.10429
3.12652
3.14786
3.16453
3.18128
3.19352
3.20614
3.21144
3.21059
3.19357
3.14855
3.02256
2.73861
2.12924
1.39269
1.14813
1.11411
1.11354
1.12339
1.13704
1.14989
1.16212
1.17302
3.04572
3.07787
3.10318
3.12768
3.14669
3.16575
3.18009
3.19482
3.20535
3.21405
3.21118
3.20093
3.16864
3.0702
2.87586
2.31848
1.60839
1.22707
1.1515
1.14274
1.14582
1.15518
1.16508
1.17017
1.17433
3.04568
3.07791
3.10309
3.12781
3.14657
3.16583
3.18001
3.19506
3.20517
3.21573
3.21535
3.21032
3.18655
3.1206
2.95238
2.5837
1.84589
1.30788
1.1723
1.15484
1.15695
1.16355
1.16919
1.17025
1.16956
3.04571
3.07789
3.10314
3.12774
3.1466
3.16588
3.17994
3.19516
3.20532
3.21667
3.2196
3.21807
3.20002
3.15446
3.02637
2.76866
2.12833
1.47049
1.22738
1.18131
1.17317
1.17033
1.16917
1.16507
1.1615
3.04615
3.07745
3.1036
3.12727
3.14708
3.16541
3.18039
3.19472
3.20583
3.2167
3.22225
3.22173
3.21082
3.17805
3.09082
2.89394
2.38366
1.65491
1.28452
1.19446
1.1777
1.17085
1.16381
1.15751
1.15253
3.04651
3.07707
3.104
3.12685
3.14749
3.16495
3.18081
3.19426
3.20628
3.21651
3.22376
3.22355
3.21755
3.19393
3.13306
2.97974
2.60839
1.8972
1.35067
1.18749
1.15611
1.14787
1.14319
1.14033
1.13915
3.04585
3.07774
3.10329
3.12758
3.14675
3.16574
3.18006
3.19508
3.20558
3.21734
3.22353
3.22638
3.22243
3.2057
3.16635
3.04497
2.80157
2.17495
1.4885
1.20741
1.13946
1.12469
1.1215
1.12147
1.1236
3.0458
3.07779
3.10325
3.12763
3.14669
3.16581
3.18001
3.19509
3.20572
3.21721
3.22461
3.22983
3.22695
3.21701
3.18586
3.10125
2.90335
2.45045
1.68679
1.21961
1.09623
1.08011
1.08472
1.09051
1.1002
3.04593
3.07757
3.10344
3.12742
3.14689
3.16562
3.18023
3.19489
3.2059
3.21723
3.22519
3.23199
3.22976
3.22427
3.20083
3.13649
2.9743
2.62113
1.89022
1.25104
1.05245
1.03316
1.04463
1.05858
1.07817
3.0459
3.07769
3.1034
3.12747
3.14691
3.16557
3.18026
3.19485
3.20593
3.21722
3.22538
3.23271
3.2327
3.22848
3.21212
3.15898
3.03956
2.74398
2.12442
1.32268
1.01633
0.985757
1.00323
1.02626
1.05633
3.04585
3.07778
3.10327
3.12763
3.14673
3.16577
3.18007
3.19508
3.20569
3.21755
3.22515
3.23388
3.23546
3.2337
3.21877
3.17814
3.07073
2.83563
2.23629
1.41256
0.958624
0.913016
0.939046
0.971572
1.01284
3.046
3.07762
3.10343
3.12747
3.14688
3.16562
3.18021
3.19493
3.20584
3.21742
3.22532
3.23401
3.23673
3.23572
3.22275
3.18635
3.08991
2.87028
2.30848
1.45992
0.90549
0.838288
0.865318
0.901752
0.949395
3.04616
3.07743
3.10362
3.12728
3.14707
3.16544
3.1804
3.19478
3.20599
3.21732
3.22546
3.23405
3.23752
3.23698
3.22542
3.19415
3.10399
2.90865
2.36859
1.52568
0.890975
0.788376
0.807097
0.840526
0.890541
3.04623
3.07741
3.10368
3.12723
3.14716
3.16533
3.18047
3.19464
3.20603
3.21714
3.22553
3.23396
3.23804
3.23765
3.22782
3.19901
3.11823
2.93245
2.44228
1.60791
0.892756
0.752246
0.764909
0.800185
0.855871
3.04636
3.07729
3.10378
3.12712
3.14721
3.16523
3.18052
3.19451
3.20613
3.21706
3.22563
3.23394
3.23833
3.23797
3.22947
3.20196
3.13348
2.95362
2.52669
1.70548
0.928024
0.736931
0.749796
0.794411
0.854447
3.04592
3.07742
3.10367
3.12702
3.14739
3.16501
3.18085
3.19433
3.20643
3.21691
3.22594
3.23392
3.23911
3.23895
3.23197
3.20923
3.14897
3.002
2.62719
1.88398
0.982602
0.721164
0.738012
0.787579
0.847577
3.04649
3.07702
3.10393
3.12683
3.14741
3.16496
3.1808
3.19429
3.20643
3.21684
3.22596
3.23383
3.2393
3.23899
3.23316
3.21098
3.16128
3.0135
2.69763
1.96954
1.07193
0.692584
0.701031
0.754461
0.820406
3.04574
3.07776
3.10335
3.12741
3.14708
3.16532
3.18065
3.19444
3.20644
3.21679
3.22607
3.23376
3.23943
3.2393
3.23476
3.21624
3.1674
3.04003
2.72466
2.07215
1.11914
0.66703
0.672075
0.72859
0.797952
3.04559
3.07813
3.10291
3.128
3.14634
3.16614
3.17968
3.19544
3.20537
3.21786
3.22505
3.23467
3.23875
3.23999
3.23619
3.21929
3.17164
3.05285
2.74143
2.13046
1.14499
0.660604
0.661766
0.717713
0.785657
3.04571
3.07793
3.10305
3.12789
3.14645
3.16606
3.1798
3.19534
3.2054
3.21795
3.22477
3.23519
3.23811
3.24124
3.23679
3.22165
3.17345
3.06243
2.75251
2.16432
1.17421
0.668549
0.659896
0.711541
0.774937
3.04587
3.07781
3.10321
3.12769
3.14667
3.16577
3.18009
3.19497
3.20583
3.21735
3.22557
3.23412
3.23922
3.23956
3.23596
3.21906
3.17596
3.05322
2.76739
2.12402
1.20687
0.687429
0.669908
0.716615
0.773556
3.04575
3.07791
3.10321
3.12769
3.14676
3.16576
3.18007
3.19515
3.20547
3.21792
3.22477
3.23508
3.23832
3.24162
3.23749
3.22272
3.17714
3.06708
2.77022
2.19288
1.20957
0.675566
0.662316
0.710266
0.765468
3.04589
3.07784
3.10317
3.12779
3.14659
3.16583
3.18006
3.195
3.20568
3.21765
3.22501
3.23493
3.23851
3.24179
3.23792
3.22377
3.17859
3.0691
2.77365
2.20129
1.21053
0.672859
0.662163
0.708193
0.761066
3.0461
3.07758
3.10337
3.12754
3.14669
3.16579
3.17993
3.19516
3.2056
3.21759
3.22527
3.23464
3.239
3.24223
3.23831
3.22422
3.17896
3.07341
2.77478
2.21029
1.20643
0.662552
0.659076
0.703989
0.755432
3.04619
3.07738
3.10357
3.12728
3.14696
3.16553
3.18015
3.19509
3.20552
3.21779
3.22512
3.23472
3.23905
3.24249
3.23852
3.22447
3.18002
3.07099
2.77979
2.19466
1.21187
0.654817
0.658273
0.699765
0.750143
3.04614
3.07742
3.1036
3.12722
3.1471
3.16533
3.18044
3.1947
3.20601
3.21726
3.2256
3.23435
3.23912
3.24117
3.2375
3.22187
3.18055
3.0616
2.78496
2.13508
1.20588
0.642561
0.654392
0.692533
0.746004
3.04596
3.07759
3.1035
3.12728
3.14715
3.16524
3.18061
3.19455
3.20613
3.21722
3.22559
3.23447
3.23923
3.24267
3.23894
3.22523
3.17926
3.07009
2.77161
2.15417
1.18714
0.60795
0.629016
0.669413
0.73659
3.04599
3.07754
3.10354
3.12726
3.14714
3.1653
3.18053
3.1946
3.20618
3.21707
3.22577
3.23435
3.23951
3.24267
3.239
3.22339
3.17982
3.05773
2.76864
2.08361
1.18287
0.573507
0.598192
0.647588
0.73348
3.04607
3.07751
3.10352
3.12731
3.14704
3.16538
3.18043
3.19469
3.20604
3.21726
3.22564
3.23428
3.23982
3.24243
3.23854
3.22198
3.17809
3.04129
2.7559
1.98817
1.17891
0.53412
0.568974
0.633206
0.730693
2.96806
2.95151
2.94164
2.93464
2.93026
2.92647
2.92391
2.91876
2.90942
2.87748
2.81794
2.66124
2.29093
1.57927
0.479507
0.194421
0.288311
0.447013
0.498251
0.507894
0.524756
0.553581
0.604943
0.679536
0.830995
2.96822
2.95145
2.94173
2.93462
2.93032
2.92649
2.92398
2.91898
2.9103
2.88217
2.82125
2.6821
2.31068
1.64046
0.559996
0.20488
0.323236
0.47248
0.523092
0.538971
0.564489
0.606414
0.673665
0.767295
0.907048
2.96808
2.95148
2.94166
2.9346
2.9303
2.92648
2.92416
2.91966
2.9114
2.88301
2.82965
2.6916
2.35023
1.70434
0.631151
0.239213
0.363506
0.49756
0.54581
0.566983
0.599809
0.652141
0.727461
0.821069
0.934103
2.96823
2.95144
2.94174
2.93462
2.93035
2.92652
2.92434
2.92025
2.91248
2.8897
2.83494
2.71743
2.3809
1.77536
0.758618
0.305308
0.412427
0.516516
0.565321
0.592553
0.631791
0.689242
0.764077
0.852012
0.94937
2.96782
2.95184
2.94135
2.93501
2.92993
2.92699
2.92382
2.9212
2.91145
2.8938
2.84235
2.71838
2.44735
1.81881
0.867587
0.391316
0.459339
0.528041
0.580876
0.614577
0.658547
0.717069
0.788903
0.870852
0.958118
2.96773
2.95183
2.94132
2.93494
2.92997
2.92684
2.92413
2.92133
2.91478
2.89305
2.85263
2.744
2.47429
1.95825
0.956229
0.485452
0.48763
0.542295
0.594908
0.632686
0.679035
0.735936
0.804356
0.88135
0.960825
2.96761
2.95196
2.94118
2.93508
2.92982
2.927
2.92403
2.9218
2.91596
2.89648
2.86159
2.76511
2.52846
2.06525
1.11831
0.597101
0.512515
0.553693
0.605609
0.647715
0.69497
0.750146
0.812804
0.885618
0.958583
2.96779
2.95179
2.94134
2.93494
2.92995
2.92692
2.92403
2.92182
2.91549
2.90389
2.87024
2.78859
2.61191
2.14711
1.3228
0.718724
0.547461
0.573389
0.619343
0.663151
0.707884
0.760212
0.817462
0.883703
0.951832
2.96786
2.95175
2.94139
2.93491
2.92998
2.92692
2.9241
2.92199
2.91677
2.90761
2.8783
2.81429
2.66671
2.29144
1.57876
0.85331
0.606685
0.61422
0.64626
0.686449
0.723483
0.769134
0.819143
0.87813
0.940307
2.96793
2.95171
2.94145
2.93489
2.93003
2.92692
2.92421
2.92234
2.91848
2.91107
2.88551
2.84055
2.70996
2.4408
1.82056
1.00851
0.676595
0.662618
0.682042
0.714213
0.742704
0.77898
0.821315
0.87077
0.924114
2.96811
2.95145
2.94168
2.93459
2.93031
2.92658
2.9246
2.92211
2.91994
2.91167
2.89747
2.85346
2.75466
2.53467
1.99279
1.17855
0.750536
0.702008
0.716055
0.737059
0.760048
0.787364
0.822386
0.862192
0.903018
2.96817
2.95146
2.9417
2.93462
2.93032
2.92662
2.92461
2.92227
2.92033
2.91393
2.90292
2.86776
2.79005
2.61319
2.16681
1.39155
0.860161
0.735551
0.740304
0.754858
0.774909
0.79521
0.821797
0.849691
0.877237
2.9678
2.95179
2.94137
2.93491
2.93
2.92691
2.92431
2.92272
2.92055
2.91752
2.90673
2.8829
2.82645
2.67225
2.36988
1.69323
1.01218
0.789489
0.770182
0.776227
0.79098
0.803883
0.817061
0.831545
0.846878
2.96802
2.95156
2.94158
2.93471
2.93021
2.9267
2.92455
2.92251
2.92115
2.918
2.9115
2.89039
2.85005
2.7391
2.50069
1.95153
1.1866
0.854575
0.802673
0.799831
0.804266
0.808421
0.80838
0.809919
0.815079
2.96782
2.95173
2.94141
2.93486
2.93006
2.92683
2.92443
2.92265
2.92128
2.91922
2.91439
2.89776
2.86814
2.78543
2.58818
2.18035
1.40251
0.938905
0.825487
0.814021
0.810463
0.80513
0.795137
0.788073
0.784976
2.96779
2.95181
2.94134
2.93495
2.92996
2.92696
2.9243
2.92283
2.92119
2.91986
2.91634
2.90347
2.88257
2.8178
2.67965
2.36974
1.67463
1.07938
0.867001
0.827927
0.812377
0.796056
0.778893
0.765377
0.760035
2.96804
2.95158
2.94158
2.93474
2.93017
2.92677
2.92449
2.92267
2.92139
2.91996
2.91769
2.90858
2.89386
2.84583
2.74977
2.51954
1.99907
1.25716
0.917575
0.835434
0.80556
0.78154
0.76028
0.746568
0.741238
2.96786
2.95173
2.94141
2.93487
2.93003
2.92689
2.92436
2.92282
2.92124
2.92028
2.9181
2.91368
2.89896
2.8699
2.79445
2.60636
2.22818
1.46826
0.985338
0.828038
0.78248
0.758331
0.741443
0.730969
0.728057
2.96807
2.95151
2.94163
2.93466
2.93025
2.92668
2.92459
2.92258
2.92153
2.92006
2.91888
2.91441
2.90647
2.87975
2.82958
2.69371
2.39743
1.77191
1.08506
0.830497
0.758291
0.736733
0.725929
0.720718
0.725106
2.96804
2.95154
2.9416
2.93469
2.93022
2.92671
2.92457
2.9226
2.92153
2.92015
2.91912
2.91582
2.91001
2.88895
2.85216
2.74682
2.51395
2.01807
1.19867
0.813311
0.706478
0.698433
0.701272
0.710802
0.727871
2.96802
2.95157
2.94158
2.93471
2.93021
2.92672
2.92455
2.92262
2.92152
2.92021
2.91935
2.91692
2.91243
2.89551
2.86712
2.78274
2.59049
2.18971
1.36127
0.822485
0.639249
0.644652
0.666587
0.695663
0.726912
2.96795
2.9516
2.94155
2.93473
2.93018
2.92674
2.92453
2.92264
2.9215
2.92026
2.91956
2.91788
2.91422
2.9009
2.87811
2.81088
2.65556
2.32664
1.62523
0.869569
0.60015
0.606029
0.637776
0.680325
0.720488
2.96783
2.95175
2.94141
2.93488
2.93004
2.92687
2.92442
2.92274
2.92144
2.92032
2.91965
2.91831
2.91523
2.90348
2.88529
2.82439
2.70258
2.4093
1.77769
0.905376
0.531105
0.540537
0.588423
0.64585
0.699886
2.9678
2.9518
2.94136
2.93495
2.92998
2.92696
2.92433
2.92286
2.92132
2.92048
2.91948
2.91857
2.9159
2.90589
2.88969
2.83694
2.72379
2.45676
1.85038
0.952842
0.472685
0.452918
0.512285
0.588377
0.661072
2.96787
2.95175
2.94141
2.93492
2.93001
2.92694
2.92433
2.92285
2.9213
2.9205
2.91944
2.91864
2.91637
2.9076
2.89337
2.84727
2.74416
2.50979
1.92433
1.03296
0.452091
0.355915
0.421189
0.523671
0.614681
2.9679
2.95172
2.94144
2.93488
2.93004
2.92689
2.92437
2.9228
2.92133
2.92048
2.91942
2.9187
2.91613
2.91085
2.89653
2.85735
2.77349
2.52316
2.04822
1.13454
0.469692
0.27406
0.347583
0.480959
0.58043
2.968
2.95159
2.94155
2.93474
2.93016
2.92678
2.92448
2.92271
2.92143
2.92039
2.91957
2.91864
2.91708
2.91079
2.899
2.86464
2.77858
2.5883
2.09436
1.25395
0.491826
0.225487
0.310342
0.468038
0.564316
2.96794
2.95167
2.94147
2.93483
2.93007
2.92687
2.92439
2.92279
2.92134
2.92048
2.91945
2.91877
2.91673
2.91272
2.90039
2.87046
2.80138
2.60483
2.22487
1.41621
0.528212
0.203487
0.296894
0.46338
0.550981
2.96786
2.95172
2.94142
2.93487
2.93005
2.92688
2.92438
2.92281
2.92133
2.92049
2.91945
2.91878
2.91683
2.91329
2.90067
2.87539
2.8088
2.6378
2.29172
1.54431
0.545524
0.157755
0.278867
0.449064
0.531188
2.96801
2.95159
2.94156
2.93474
2.93018
2.92676
2.92451
2.92268
2.92147
2.92035
2.91962
2.9187
2.91749
2.91217
2.90344
2.87304
2.81506
2.66224
2.29878
1.5916
0.53648
0.124458
0.261545
0.428284
0.506633
2.96803
2.95157
2.94157
2.93473
2.93019
2.92674
2.92453
2.92265
2.92149
2.92033
2.91964
2.9187
2.91761
2.91264
2.90406
2.87642
2.81633
2.67192
2.31029
1.6204
0.573092
0.122351
0.253467
0.408161
0.482964
2.96792
2.95169
2.94148
2.93485
2.93009
2.92687
2.92443
2.92279
2.92137
2.92048
2.91948
2.91889
2.91729
2.91399
2.90424
2.88
2.82574
2.66785
2.36119
1.64517
0.601344
0.123277
0.247331
0.38877
0.461096
2.96804
2.95157
2.94158
2.93473
2.9302
2.92674
2.92453
2.92266
2.92147
2.92035
2.91962
2.91873
2.9176
2.91277
2.90465
2.87669
2.82295
2.68115
2.34441
1.6703
0.60601
0.120449
0.240309
0.371007
0.440499
2.96807
2.95155
2.94159
2.93473
2.93019
2.92674
2.92453
2.92264
2.92149
2.92033
2.91962
2.91873
2.91758
2.91265
2.90478
2.87606
2.8248
2.68044
2.35454
1.67953
0.610188
0.122173
0.233665
0.351142
0.422513
2.96811
2.9515
2.94162
2.93468
2.93021
2.92672
2.92453
2.92264
2.92149
2.92032
2.91964
2.91874
2.91765
2.91294
2.90506
2.87766
2.82541
2.68332
2.35486
1.67276
0.622511
0.12575
0.226592
0.330662
0.410316
2.96812
2.95147
2.94165
2.93464
2.93025
2.92668
2.92456
2.92263
2.9215
2.92032
2.91966
2.91873
2.9177
2.91313
2.90551
2.87836
2.82744
2.68553
2.3624
1.66943
0.622847
0.12585
0.213692
0.309887
0.407743
2.96812
2.95145
2.94169
2.93459
2.9303
2.92664
2.92458
2.92264
2.92143
2.92044
2.91951
2.91896
2.91766
2.91465
2.90586
2.88317
2.83236
2.67951
2.38255
1.66755
0.609858
0.114644
0.190732
0.290768
0.411946
2.96804
2.95154
2.94161
2.93468
2.93025
2.92667
2.9246
2.92258
2.92156
2.92027
2.91971
2.91871
2.91793
2.91395
2.90653
2.88317
2.82649
2.69116
2.34851
1.63161
0.61446
0.107848
0.165227
0.279805
0.418202
2.96804
2.95153
2.94163
2.93465
2.93027
2.92665
2.92461
2.92259
2.92154
2.92034
2.91957
2.91903
2.9177
2.91504
2.9057
2.88431
2.82969
2.67952
2.3714
1.63253
0.577663
0.08279
0.135114
0.26967
0.419593
2.96804
2.95154
2.94161
2.93467
2.93025
2.92666
2.9246
2.92258
2.92155
2.92031
2.91962
2.91903
2.91778
2.91519
2.90615
2.88462
2.83011
2.67844
2.36645
1.61311
0.528441
0.0520641
0.116455
0.264787
0.419669
2.98656
2.9694
2.95186
2.93467
2.92002
2.90647
2.89502
2.88299
2.86738
2.82721
2.75599
2.5776
2.17991
1.41207
0.28358
0.39754
0.2912
0.436615
0.477325
0.494283
0.517741
0.561316
0.634594
0.729924
0.897114
2.98662
2.96934
2.95192
2.93461
2.92008
2.90642
2.89512
2.8831
2.86806
2.82929
2.76265
2.58994
2.21532
1.46814
0.359631
0.345194
0.320646
0.463604
0.507097
0.529949
0.56326
0.616259
0.700641
0.807676
0.959104
2.98577
2.97019
2.95108
2.93546
2.91922
2.90734
2.89414
2.88442
2.86712
2.83857
2.76523
2.60285
2.27304
1.54214
0.477318
0.293381
0.352518
0.485673
0.532017
0.560889
0.603491
0.664849
0.752001
0.855822
0.97336
2.98569
2.97027
2.95102
2.93554
2.91916
2.90743
2.89416
2.88484
2.86862
2.84192
2.77348
2.62356
2.31522
1.61342
0.574308
0.277324
0.390678
0.505721
0.551801
0.586379
0.637399
0.705311
0.788575
0.881858
0.980956
2.98564
2.97032
2.95099
2.93555
2.9192
2.90735
2.89445
2.88462
2.87083
2.84327
2.78401
2.65934
2.32155
1.71979
0.660428
0.295993
0.427015
0.519447
0.567674
0.608237
0.665179
0.735644
0.813915
0.89845
0.984519
2.98623
2.96973
2.95157
2.93496
2.91979
2.90676
2.89505
2.88419
2.87097
2.84241
2.7931
2.66588
2.37047
1.81154
0.748162
0.354316
0.449038
0.519083
0.578414
0.625909
0.685735
0.756066
0.830114
0.906983
0.985409
2.98651
2.96945
2.95184
2.9347
2.92004
2.90654
2.89531
2.88419
2.87211
2.84632
2.80274
2.68795
2.42649
1.91559
0.900308
0.44763
0.44632
0.51625
0.584656
0.638203
0.699016
0.767906
0.839849
0.911553
0.98154
2.98643
2.96953
2.95175
2.93478
2.91995
2.90663
2.89528
2.88444
2.87339
2.85194
2.81319
2.71824
2.4876
2.047
1.09896
0.559832
0.447158
0.511111
0.588246
0.646041
0.70642
0.772906
0.841829
0.910482
0.974958
2.98666
2.9693
2.95196
2.93457
2.92015
2.90643
2.89553
2.88442
2.87469
2.85643
2.82444
2.74485
2.55695
2.18838
1.35577
0.686106
0.474647
0.522672
0.595535
0.652684
0.709952
0.772886
0.837871
0.903315
0.963977
2.98613
2.96982
2.95145
2.93508
2.91964
2.90697
2.89499
2.8853
2.87491
2.86206
2.8292
2.77329
2.62459
2.31314
1.64073
0.810845
0.529607
0.560953
0.613258
0.66243
0.712343
0.768292
0.82888
0.890669
0.945787
2.98693
2.96903
2.95222
2.93433
2.92038
2.90626
2.89571
2.88477
2.87611
2.86429
2.84009
2.79043
2.6806
2.40073
1.8542
0.95079
0.594355
0.596576
0.630498
0.67383
0.714759
0.761534
0.815223
0.870811
0.919006
2.98642
2.96956
2.95172
2.93485
2.91989
2.90674
2.8953
2.88521
2.87632
2.86605
2.84908
2.80269
2.71302
2.50391
2.00678
1.18315
0.704386
0.618942
0.643832
0.679193
0.71393
0.753487
0.797332
0.841349
0.882338
2.98606
2.96993
2.95137
2.9352
2.91954
2.9071
2.89495
2.88566
2.8762
2.86777
2.85394
2.81917
2.74758
2.58663
2.19773
1.42879