/*--------------------------------*- C++ -*----------------------------------*\
  =========                 |
  \\      /  F ield         | OpenFOAM: The Open Source CFD Toolbox
   \\    /   O peration     | Website:  https://openfoam.org
    \\  /    A nd           | Version:  6
     \\/     M anipulation  |
\*---------------------------------------------------------------------------*/
FoamFile
{
    version     2.0;
    format      ascii;
    class       volScalarField;
    location    "7.5";
    object      p;
}
// * * * * * * * * * * * * * * * * * * * * * * * * * * * * * * * * * * * * * //

dimensions      [1 -1 -2 0 0 0 0];

internalField   nonuniform List<scalar> 
26250
(
0.957663
0.911023
0.875186
0.844011
0.820372
0.797177
0.782738
0.764319
0.764604
0.777013
0.787808
0.928013
1.07654
2.0175
3.94537
8.95915
8.51977
7.52751
6.93416
6.88951
6.91189
7.01114
7.26317
7.77424
8.44234
0.957662
0.911021
0.875187
0.844006
0.820377
0.797169
0.782749
0.764292
0.76457
0.776884
0.787612
0.927256
1.0748
2.013
3.92779
8.93493
8.49939
7.51316
6.91241
6.86174
6.90771
7.03603
7.30685
7.77928
8.45895
0.957656
0.911019
0.875187
0.844
0.82039
0.797151
0.782776
0.764221
0.764481
0.776574
0.787168
0.925768
1.07159
2.00552
3.89993
8.87871
8.45111
7.48072
6.88546
6.84001
6.89491
7.03873
7.32784
7.77719
8.46159
0.957615
0.911063
0.87517
0.844027
0.820389
0.797145
0.782795
0.764077
0.764288
0.775268
0.785456
0.92151
1.06455
1.99053
3.86111
8.79398
8.38532
7.44723
6.86816
6.83296
6.87792
7.01681
7.31176
7.76723
8.45484
0.957461
0.911267
0.875052
0.844164
0.820285
0.797265
0.782665
0.764284
0.764587
0.767755
0.811067
0.852599
1.18596
1.76628
3.90559
8.64153
8.29061
7.38971
6.82797
6.79051
6.83756
6.977
7.27576
7.74008
8.43883
0.957567
0.911107
0.875154
0.844046
0.820404
0.797109
0.782854
0.763783
0.763907
0.773109
0.782491
0.912166
1.04668
1.94386
3.72745
8.51788
8.17301
7.34108
6.7692
6.72493
6.77477
6.91715
7.21885
7.68445
8.4047
0.957478
0.911238
0.875072
0.844135
0.820313
0.79723
0.78267
0.764267
0.764182
0.767761
0.807228
0.84618
1.1625
1.71125
3.73949
8.29806
8.02226
7.24965
6.69256
6.64185
6.6925
6.83338
7.12979
7.58714
8.3322
0.957603
0.911058
0.875197
0.843968
0.820486
0.796982
0.782975
0.763483
0.763555
0.772235
0.781059
0.903378
1.02596
1.87618
3.50761
8.1128
7.85378
7.17505
6.60535
6.54132
6.58857
6.7197
6.99661
7.42597
8.1823
0.957614
0.911038
0.875225
0.843915
0.820563
0.796844
0.783136
0.762975
0.762948
0.771735
0.780246
0.897641
1.01277
1.83195
3.36889
7.84783
7.65098
7.07907
6.50405
6.42129
6.46126
6.57275
6.80883
7.16702
7.87355
0.957574
0.911107
0.875177
0.843995
0.820477
0.79695
0.78301
0.763057
0.763017
0.769433
0.776971
0.887749
0.994052
1.78418
3.24329
7.56465
7.42646
6.96269
6.3955
6.28891
6.31624
6.39379
6.5545
6.76845
7.21815
1.03455
1.06947
1.09335
1.10987
1.1228
1.13235
1.1404
1.14884
1.16316
1.20748
1.2696
1.54285
1.99604
3.75425
8.47157
18.6913
16.406
14.3987
13.7729
13.9547
13.943
14.0945
14.4781
14.9558
15.3667
1.03455
1.06947
1.09335
1.10987
1.12281
1.13235
1.1404
1.14883
1.16311
1.20736
1.26925
1.54213
1.99394
3.74888
8.45343
18.6387
16.3519
14.3412
13.6981
13.7815
13.9354
14.1279
14.4804
14.9126
15.3349
1.03455
1.06946
1.09335
1.10986
1.12281
1.13234
1.14041
1.14879
1.16299
1.20695
1.26855
1.53952
1.98898
3.7326
8.40392
18.5236
16.2435
14.2354
13.6137
13.7043
13.8899
14.0836
14.4196
14.7986
15.2377
1.03453
1.06948
1.09334
1.10987
1.12281
1.13234
1.14041
1.14871
1.16275
1.20623
1.2673
1.53514
1.98085
3.70621
8.32994
18.3445
16.092
14.1023
13.5413
13.7111
13.7868
13.9538
14.273
14.6117
15.0639
1.03447
1.06954
1.0933
1.10993
1.12278
1.13238
1.14034
1.14853
1.16142
1.20647
1.25739
1.53659
1.95134
3.66426
8.26319
18.1058
15.8961
13.9285
13.3881
13.5239
13.6381
13.7803
14.0669
14.3684
14.8298
1.03451
1.06949
1.09334
1.10987
1.12283
1.1323
1.14043
1.14848
1.16209
1.20405
1.26342
1.52093
1.95193
3.61042
8.04358
17.8213
15.6745
13.7218
13.1943
13.3238
13.4495
13.5667
13.8107
14.0636
14.5226
1.03448
1.06952
1.09332
1.1099
1.1228
1.13232
1.14037
1.14826
1.16079
1.20378
1.25293
1.51919
1.91303
3.53958
7.86507
17.4747
15.4113
13.4804
12.9615
13.0684
13.2163
13.3018
13.4893
13.6775
14.1114
1.03454
1.06945
1.09338
1.10982
1.12288
1.13222
1.14047
1.14817
1.16121
1.20095
1.25777
1.49937
1.90412
3.45007
7.54963
17.0958
15.1202
13.2158
12.6996
12.7909
12.9288
12.9763
13.0915
13.1883
13.55
1.03456
1.06942
1.09341
1.10977
1.12293
1.13215
1.14052
1.14798
1.16066
1.19896
1.25445
1.48551
1.87455
3.34913
7.24391
16.5805
14.7991
12.9289
12.4102
12.4818
12.5862
12.5844
12.5986
12.5562
12.7468
1.03455
1.06942
1.09343
1.10974
1.12298
1.13208
1.14058
1.14776
1.15988
1.19698
1.24722
1.47539
1.83185
3.2558
6.94899
16.0168
14.4091
12.6149
12.0979
12.1455
12.1913
12.1382
12.0112
11.7166
11.5252
1.0089
1.03182
1.05925
1.08755
1.11316
1.13842
1.15847
1.18284
1.20391
1.26117
1.34143
1.66812
2.21061
4.27044
10.0194
21.8728
18.7066
16.4625
15.8305
15.9826
16.1299
16.2629
16.6143
16.9941
17.2917
1.00889
1.03182
1.05925
1.08755
1.11316
1.13841
1.15848
1.18281
1.20396
1.26072
1.3421
1.66563
2.21214
4.26601
10.0193
21.8078
18.6382
16.4001
15.8053
15.9855
16.1277
16.2207
16.5542
16.903
17.2052
1.00889
1.03182
1.05925
1.08755
1.11316
1.13842
1.15847
1.18282
1.20377
1.26075
1.34038
1.66537
2.20408
4.25149
9.95834
21.6733
18.5016
16.2701
15.7272
15.9608
16.0773
16.1092
16.4028
16.6912
16.9962
1.00889
1.03182
1.05925
1.08755
1.11317
1.13841
1.15847
1.18278
1.2037
1.25987
1.34011
1.65999
2.19879
4.22557
9.88321
21.467
18.3117
16.0892
15.5903
15.8633
15.9565
15.9365
16.177
16.3962
16.6949
1.00889
1.03182
1.05925
1.08755
1.11317
1.1384
1.15847
1.18271
1.20353
1.25869
1.3392
1.65264
2.18879
4.18521
9.7594
21.1982
18.0769
15.866
15.4057
15.7104
15.7844
15.7212
15.8915
16.0357
16.3205
1.0089
1.03181
1.05926
1.08754
1.11318
1.13839
1.15846
1.18266
1.20313
1.25773
1.33601
1.6456
2.16721
4.1218
9.54295
20.8771
17.8079
15.6027
15.1682
15.4816
15.5637
15.4608
15.5466
15.6047
15.8592
1.00891
1.0318
1.05927
1.08752
1.11319
1.13838
1.15845
1.18257
1.20274
1.25596
1.33321
1.63362
2.14286
4.03686
9.26876
20.4977
17.5042
15.3037
14.8848
15.1827
15.2794
15.1384
15.1276
15.0801
15.2761
1.00893
1.03178
1.05929
1.0875
1.11319
1.13837
1.15841
1.18251
1.20216
1.25422
1.3286
1.62126
2.10959
3.93572
8.94125
20.0296
17.1606
14.9711
14.5595
14.819
14.917
14.7471
14.6316
14.4489
14.5358
1.00895
1.03175
1.05931
1.08747
1.11321
1.13835
1.15839
1.18242
1.20164
1.25182
1.32477
1.60509
2.07718
3.82422
8.58986
19.478
16.7728
14.6086
14.2008
14.4154
14.4857
14.2785
14.0397
13.6711
13.5473
1.00895
1.03172
1.05937
1.08738
1.11335
1.13816
1.15854
1.18214
1.2005
1.24999
1.3169
1.59363
2.03156
3.71641
8.23375
18.8029
16.3229
14.2196
13.8166
13.9858
13.998
13.7468
13.3477
12.7221
12.1872
1.03452
1.06948
1.09333
1.10988
1.1228
1.13235
1.1404
1.14879
1.16298
1.20711
1.2688
1.54139
1.99428
3.75219
8.48975
18.6942
16.3857
14.3646
13.6936
13.7605
13.9267
14.1422
14.522
14.9809
15.4289
1.03446
1.06955
1.09328
1.10994
1.12275
1.13241
1.14031
1.14869
1.16175
1.20818
1.2601
1.54758
1.97598
3.74428
8.53577
18.6344
16.3297
14.3309
13.7326
13.9179
13.917
14.0686
14.4565
14.9164
15.3594
1.0345
1.06949
1.09333
1.10989
1.1228
1.13235
1.1404
1.14872
1.16278
1.20649
1.26778
1.53773
1.98811
3.73201
8.44018
18.5243
16.2275
14.2404
13.6767
13.8553
13.8706
14.0063
14.3588
14.7757
15.2099
1.03446
1.06953
1.0933
1.10992
1.12278
1.13237
1.14035
1.1486
1.16162
1.20716
1.25888
1.54203
1.96434
3.70528
8.41089
18.3373
16.071
14.0955
13.5391
13.654
13.7727
13.9239
14.2301
14.5786
15.0165
1.03445
1.06954
1.09331
1.10992
1.1228
1.13235
1.14037
1.14852
1.16147
1.20632
1.25776
1.53688
1.95324
3.66745
8.29288
18.0956
15.8776
13.9203
13.3945
13.5488
13.6394
13.7747
14.0428
14.332
14.7754
1.03447
1.06953
1.09331
1.10991
1.1228
1.13234
1.14036
1.14841
1.16119
1.20523
1.25572
1.52926
1.93596
3.61207
8.10526
17.8124
15.659
13.7176
13.1962
13.3166
13.4573
13.5692
13.7945
14.0274
14.4687
1.03454
1.06945
1.09337
1.10983
1.12286
1.13225
1.14045
1.14835
1.16173
1.20279
1.26083
1.51201
1.92981
3.53854
7.80702
17.4809
15.4181
13.4887
12.9654
13.0705
13.2224
13.303
13.4728
13.6416
14.0616
1.03456
1.06943
1.09339
1.10979
1.12289
1.1322
1.14047
1.14819
1.16126
1.2011
1.2578
1.50002
1.90313
3.44831
7.5328
17.0694
15.1356
13.2238
12.7021
12.7936
12.9326
12.9756
13.075
13.1526
13.5053
1.03457
1.06941
1.09341
1.10976
1.12293
1.13214
1.14051
1.14799
1.16068
1.19902
1.25454
1.48581
1.87484
3.34983
7.24554
16.6171
14.8043
12.9265
12.4089
12.4825
12.5879
12.5828
12.5836
12.5231
12.7086
1.03455
1.06941
1.09342
1.10974
1.12298
1.13207
1.14059
1.14778
1.15991
1.19704
1.24734
1.47571
1.83245
3.25671
6.95006
16.0151
14.4063
12.6102
12.0972
12.1472
12.1944
12.139
12.0016
11.6868
11.4925
0.957607
0.91106
0.875159
0.84403
0.820377
0.79716
0.782781
0.764139
0.764366
0.775573
0.785993
0.924622
1.07244
2.01214
3.96117
8.96086
8.50442
7.48595
6.88738
6.8375
6.88897
7.03013
7.32116
7.78433
8.46168
0.957451
0.911278
0.875034
0.844178
0.82026
0.797291
0.782631
0.764426
0.764705
0.768232
0.813062
0.856157
1.20525
1.81419
4.04653
8.90222
8.48847
7.48003
6.90628
6.86959
6.89729
7.00993
7.28364
7.78287
8.46544
0.957571
0.911094
0.87515
0.844045
0.820389
0.797142
0.782815
0.764008
0.764198
0.774396
0.784544
0.920717
1.06544
1.99698
3.93489
8.88577
8.44549
7.45993
6.89569
6.86128
6.8902
7.00088
7.26864
7.77663
8.45216
0.957451
0.911251
0.875065
0.844132
0.820344
0.797171
0.782812
0.764014
0.764697
0.768079
0.814166
0.858388
1.20026
1.79286
3.97767
8.74872
8.36428
7.41014
6.86007
6.82313
6.86641
6.99293
7.26884
7.75681
8.43997
0.957439
0.911265
0.875071
0.844132
0.820362
0.797133
0.782871
0.763818
0.764726
0.767945
0.814512
0.858781
1.1927
1.76531
3.92158
8.62124
8.26349
7.35636
6.8181
6.78717
6.83141
6.96379
7.24786
7.71729
8.41765
0.957454
0.911256
0.875069
0.844133
0.820336
0.79718
0.782769
0.764072
0.764493
0.767909
0.811391
0.853421
1.17908
1.74331
3.83997
8.47651
8.15411
7.30514
6.75901
6.71946
6.76875
6.90622
7.19567
7.65593
8.37718
0.957611
0.911049
0.87519
0.843979
0.820454
0.797033
0.782911
0.763704
0.76383
0.773441
0.782864
0.910017
1.03962
1.91362
3.61578
8.32477
8.02247
7.26282
6.68821
6.63436
6.68445
6.82094
7.10529
7.5572
8.30127
0.957642
0.911011
0.875221
0.843925
0.820506
0.796949
0.782987
0.763522
0.763618
0.773063
0.782148
0.904768
1.02717
1.87537
3.49506
8.10486
7.85332
7.18205
6.60113
6.53417
6.58032
6.70703
6.97249
7.39589
8.15185
0.957619
0.911034
0.875224
0.843907
0.820559
0.796838
0.783131
0.762981
0.762841
0.77195
0.780371
0.897883
1.01293
1.83304
3.37068
7.85751
7.6543
7.07349
6.49871
6.41712
6.4557
6.56258
6.78779
7.13945
7.84627
0.957569
0.911096
0.875172
0.843988
0.820482
0.796945
0.783029
0.763034
0.763033
0.769545
0.777275
0.888046
0.994239
1.78397
3.24351
7.5649
7.42276
6.95192
6.38972
6.28658
6.31289
6.38656
6.53846
6.74615
7.19563
0.957514
0.911222
0.875043
0.844209
0.820137
0.797526
0.782032
0.764843
0.760564
0.763044
0.795696
0.825289
1.09931
1.52297
3.24953
7.19916
7.15629
6.79902
6.27688
6.14826
6.15871
6.18843
6.19869
6.11908
5.58633
0.957771
0.910872
0.875238
0.843998
0.820293
0.797323
0.782227
0.764444
0.760977
0.765395
0.77151
0.869614
0.959613
1.68461
2.96018
6.87009
6.87702
6.63714
6.15591
6.00528
5.99168
5.96297
5.88424
5.66697
5.09032
0.957467
0.911325
0.874944
0.844343
0.819957
0.79773
0.781705
0.764922
0.759017
0.760943
0.788391
0.81224
1.0572
1.40138
2.92831
6.37843
6.62864
6.44506
6.05028
5.88103
5.83418
5.77018
5.64035
5.38871
4.89763
0.957737
0.910954
0.875112
0.844171
0.820017
0.797727
0.781636
0.764997
0.75853
0.762344
0.767525
0.852568
0.929182
1.53856
2.59406
5.93511
6.37765
6.24287
5.94203
5.76435
5.68618
5.5919
5.43175
5.17603
4.77126
0.957682
0.911037
0.874995
0.844342
0.819775
0.798081
0.781116
0.765568
0.757163
0.759991
0.764694
0.839733
0.906535
1.45082
2.36901
5.42061
6.1239
6.05024
5.85388
5.66237
5.55736
5.4415
5.26943
5.02232
4.67576
0.957334
0.911523
0.874682
0.844762
0.819388
0.798576
0.780435
0.766252
0.754588
0.755573
0.774456
0.789904
0.968522
1.18433
2.29888
4.80351
5.89144
5.87335
5.77231
5.58181
5.45228
5.32017
5.14599
4.91307
4.60893
0.957279
0.911593
0.874598
0.84491
0.819202
0.79886
0.780016
0.766695
0.753247
0.753919
0.769592
0.782314
0.931836
1.10496
2.03206
4.06292
5.70807
5.76408
5.69681
5.53565
5.36884
5.22148
5.0499
4.83458
4.5664
0.957291
0.911596
0.874533
0.845015
0.819012
0.799145
0.779596
0.767147
0.75223
0.752722
0.764919
0.779877
0.887452
1.05239
1.72004
3.20953
5.5457
5.72245
5.65719
5.49348
5.29795
5.14098
4.97567
4.7792
4.54397
0.957381
0.911483
0.874574
0.844961
0.818997
0.799198
0.779397
0.767415
0.750804
0.750788
0.758672
0.768312
0.853107
0.953165
1.51968
2.49081
5.18622
5.64116
5.58835
5.44634
5.23645
5.07703
4.92349
4.75045
4.54569
0.957512
0.911279
0.874752
0.844706
0.819312
0.798723
0.780067
0.766277
0.752127
0.746622
0.748247
0.771002
0.791067
0.971543
1.22168
2.28043
4.5661
5.46321
5.45399
5.37441
5.20103
5.03408
4.88879
4.73679
4.55779
0.957329
0.911512
0.874694
0.844717
0.819454
0.798422
0.780576
0.765405
0.75307
0.74412
0.746219
0.749823
0.804826
0.854652
1.22559
1.83679
3.82954
5.2521
5.34998
5.30183
5.17894
5.01637
4.88172
4.74374
4.59226
0.957483
0.911267
0.874881
0.844478
0.819719
0.798083
0.78101
0.76476
0.753722
0.741644
0.742096
0.753142
0.763216
0.870599
0.994949
1.62827
2.90262
5.0009
5.3063
5.27433
5.18055
5.02704
4.89442
4.77413
4.66598
0.95739
0.911388
0.874819
0.844528
0.819715
0.798043
0.781122
0.764493
0.754045
0.740168
0.740987
0.743497
0.769611
0.805759
0.978943
1.2978
2.33104
4.4482
5.21484
5.21983
5.17719
5.0674
4.93511
4.84617
4.78305
0.957353
0.911444
0.874769
0.844614
0.819612
0.798195
0.78089
0.764827
0.753386
0.74074
0.737299
0.738971
0.757369
0.775995
0.918637
1.1131
1.95184
3.72635
5.02911
5.20019
5.17966
5.11798
5.01986
4.96762
4.9384
0.957343
0.911473
0.874714
0.844703
0.819463
0.798433
0.780512
0.765403
0.752401
0.741857
0.733446
0.734129
0.746862
0.75721
0.864907
0.983499
1.60615
2.80797
4.77147
5.19671
5.2076
5.1917
5.15475
5.13241
5.12357
0.957386
0.91143
0.874702
0.844734
0.819368
0.798593
0.780253
0.765798
0.751777
0.742544
0.731424
0.731657
0.738976
0.745971
0.821705
0.889978
1.37424
2.11462
4.23224
5.15466
5.28472
5.30796
5.31935
5.32973
5.32722
0.957419
0.911388
0.874715
0.844728
0.819347
0.79864
0.780164
0.765939
0.751532
0.742807
0.730436
0.730411
0.73408
0.739462
0.791216
0.845522
1.18249
1.73969
3.47709
5.05167
5.41537
5.49015
5.52854
5.54577
5.54149
0.95735
0.911477
0.87468
0.84476
0.819361
0.798586
0.780286
0.765715
0.751887
0.742178
0.731248
0.72827
0.730062
0.735005
0.767489
0.815739
1.02957
1.42829
2.60687
4.84591
5.58886
5.74964
5.78327
5.78045
5.76516
0.957348
0.911464
0.874717
0.844701
0.819468
0.79842
0.780541
0.765334
0.752421
0.741334
0.732167
0.725256
0.726065
0.728431
0.754029
0.781494
0.951976
1.21851
2.21148
4.33918
5.71585
6.02662
6.03536
6.02116
5.97794
0.957374
0.911416
0.874761
0.844642
0.81954
0.79832
0.780691
0.765099
0.752792
0.740706
0.732909
0.722996
0.723201
0.724806
0.74355
0.760688
0.901026
1.07827
1.91528
3.67536
5.85887
6.31041
6.29999
6.2553
6.15274
0.957369
0.911426
0.874755
0.844644
0.819534
0.798331
0.780662
0.765148
0.752708
0.740821
0.732635
0.723078
0.721239
0.72273
0.735569
0.750333
0.854898
0.986503
1.64968
2.88977
5.89797
6.57827
6.55124
6.46219
6.27345
0.95736
0.911451
0.874726
0.844684
0.819479
0.798405
0.780549
0.765315
0.752447
0.741209
0.731964
0.723815
0.718453
0.719122
0.730038
0.739004
0.832351
0.92007
1.5381
2.59102
5.76169
6.73124
6.70277
6.59051
6.35079
0.957376
0.911437
0.874724
0.844693
0.819451
0.798449
0.780475
0.765423
0.752283
0.741442
0.731605
0.7242
0.717353
0.717807
0.726922
0.734424
0.818146
0.893799
1.46554
2.43428
5.58821
6.75947
6.73798
6.63203
6.39397
0.957398
0.911412
0.874732
0.844686
0.819441
0.798469
0.780438
0.765481
0.752199
0.741561
0.731427
0.724387
0.716735
0.717038
0.724708
0.730918
0.807203
0.875326
1.40276
2.29703
5.32823
6.76495
6.75312
6.65344
6.41425
0.957407
0.911404
0.874729
0.844687
0.81943
0.798486
0.78041
0.765527
0.752137
0.741654
0.731295
0.724539
0.716352
0.716564
0.723021
0.728695
0.797601
0.860135
1.33394
2.15811
5.03002
6.81245
6.80575
6.69302
6.41341
0.957414
0.911393
0.874735
0.844689
0.819425
0.798501
0.780386
0.765565
0.752078
0.741735
0.731179
0.724664
0.716143
0.71632
0.72202
0.728189
0.787176
0.852161
1.25919
2.01141
4.59562
6.97514
6.95445
6.78064
6.38924
0.95738
0.911423
0.874738
0.844693
0.819434
0.798505
0.780378
0.765586
0.752039
0.741789
0.731079
0.724765
0.715682
0.715745
0.720254
0.725139
0.776364
0.828503
1.17009
1.77533
3.88839
7.30162
7.22894
6.91037
6.34593
0.957418
0.911374
0.874746
0.844686
0.819428
0.798516
0.780366
0.765608
0.752011
0.741834
0.731017
0.724843
0.715558
0.715557
0.71953
0.72482
0.767515
0.822291
1.10963
1.64902
3.51652
7.36343
7.31501
6.96723
6.33656
0.957333
0.911484
0.874693
0.84474
0.819402
0.798536
0.780359
0.76561
0.752018
0.741826
0.731028
0.724832
0.715522
0.715512
0.718225
0.722328
0.762911
0.805294
1.08146
1.55405
3.32255
7.27834
7.27018
6.96702
6.35651
0.957297
0.911542
0.874648
0.844791
0.819361
0.79857
0.780337
0.765615
0.752031
0.741788
0.731092
0.724741
0.715617
0.715466
0.71727
0.720698
0.76002
0.795881
1.06583
1.49963
3.21415
7.12495
7.18665
6.93474
6.3847
0.957314
0.911517
0.874659
0.84478
0.819369
0.798561
0.780348
0.7656
0.752056
0.741744
0.731175
0.724579
0.715887
0.714871
0.716472
0.719102
0.75838
0.790804
1.0587
1.46315
3.14015
6.96565
7.12031
6.89326
6.39064
0.957334
0.911493
0.874673
0.844759
0.819383
0.798544
0.780359
0.765595
0.752048
0.741779
0.731092
0.724755
0.715579
0.715516
0.717301
0.721367
0.75684
0.79796
1.04466
1.47769
3.07811
6.84097
7.06413
6.85798
6.39555
0.957329
0.911499
0.874681
0.844745
0.819401
0.798518
0.780388
0.76555
0.752114
0.741671
0.731268
0.724451
0.716017
0.714438
0.715886
0.718416
0.756029
0.786907
1.04377
1.42874
3.05296
6.80555
7.0236
6.83023
6.39906
0.95735
0.91148
0.874684
0.844739
0.819405
0.798503
0.780412
0.765511
0.75217
0.741589
0.731374
0.724307
0.716143
0.714205
0.715606
0.718109
0.755223
0.785271
1.04203
1.41944
3.05093
6.81746
7.02392
6.8378
6.42263
0.957385
0.911434
0.874711
0.844708
0.819428
0.798476
0.780446
0.765461
0.752237
0.741497
0.731485
0.724155
0.716256
0.713868
0.715236
0.717711
0.754602
0.784593
1.04328
1.42008
3.07055
6.90161
7.06979
6.88484
6.47369
0.957403
0.911404
0.874736
0.844681
0.819452
0.798456
0.780461
0.765449
0.752249
0.741476
0.731527
0.72406
0.716431
0.713298
0.714935
0.717391
0.754526
0.785882
1.04056
1.44156
3.09212
7.05299
7.18293
6.99056
6.5508
0.957396
0.911409
0.874739
0.844677
0.819457
0.798452
0.78046
0.765462
0.752209
0.741565
0.731353
0.724368
0.715976
0.714493
0.716151
0.719985
0.754554
0.796562
1.03998
1.4917
3.16071
7.29237
7.35498
7.13163
6.60914
0.957376
0.91143
0.874738
0.844673
0.819475
0.798425
0.780496
0.765417
0.752263
0.741492
0.73147
0.724126
0.716305
0.713463
0.714854
0.717464
0.755821
0.790798
1.05656
1.50999
3.26452
7.62704
7.60008
7.26435
6.5663
0.95738
0.911422
0.874747
0.844664
0.819485
0.798416
0.780508
0.765397
0.752302
0.741416
0.731584
0.723994
0.7163
0.713468
0.715037
0.718738
0.756113
0.799854
1.06717
1.55777
3.36145
7.88448
7.81179
7.33328
6.43531
0.957389
0.911412
0.874745
0.844664
0.819482
0.798414
0.780518
0.765373
0.752347
0.741354
0.73164
0.723984
0.716214
0.713622
0.715368
0.719643
0.758305
0.808426
1.08413
1.60504
3.44106
8.03506
7.90454
7.3174
6.32662
1.0345
1.06946
1.09344
1.1097
1.12311
1.13183
1.14112
1.14693
1.1622
1.18533
1.27161
1.38812
1.94402
2.99725
6.78738
15.3146
13.9317
12.2729
11.7708
11.7908
11.7753
11.6448
11.3234
10.6213
8.94468
1.03457
1.06938
1.09352
1.1096
1.12323
1.13166
1.14132
1.14657
1.16163
1.18076
1.26764
1.36388
1.9097
2.88379
6.40197
14.5903
13.453
11.926
11.4512
11.4366
11.3699
11.1413
10.6403
9.75274
8.04013
1.03446
1.06952
1.09338
1.10979
1.12301
1.1319
1.14093
1.14635
1.16009
1.18074
1.25812
1.35779
1.85484
2.76602
6.05523
13.7867
12.9546
11.5917
11.1598
11.1082
10.9834
10.6748
10.0697
9.20913
7.89938
1.03454
1.06945
1.09341
1.10974
1.12301
1.13187
1.14094
1.14571
1.15918
1.17487
1.25073
1.33034
1.80936
2.63006
5.60063
12.9013
12.4092
11.3201
10.9054
10.8104
10.6299
10.2573
9.65632
8.88036
7.85982
1.03456
1.06943
1.09338
1.10979
1.12288
1.13213
1.14031
1.14696
1.15553
1.18286
1.21534
1.38879
1.60188
2.72309
5.02365
11.9132
11.7786
11.1601
10.6924
10.5319
10.3158
9.92308
9.36341
8.67228
7.8271
1.03443
1.06956
1.09331
1.10987
1.12291
1.132
1.1407
1.14556
1.15653
1.17257
1.23311
1.30302
1.69614
2.292
4.81155
10.7072
11.2854
10.9633
10.5051
10.2889
10.0472
9.66408
9.15292
8.5353
7.81494
1.03438
1.06962
1.09324
1.10997
1.1228
1.13216
1.14047
1.14565
1.15534
1.16995
1.22278
1.28539
1.62439
2.13683
4.28672
9.37286
11.0097
10.8053
10.3602
10.0903
9.82756
9.4634
8.99817
8.44666
7.82227
1.03432
1.06971
1.09311
1.11018
1.12248
1.13267
1.13964
1.14712
1.15302
1.17175
1.19372
1.30698
1.43288
2.16076
3.51351
7.91459
10.8863
10.7172
10.2685
9.92401
9.64522
9.30546
8.88704
8.40033
7.8487
1.03432
1.06974
1.09306
1.11024
1.12237
1.13281
1.13941
1.1472
1.15228
1.16775
1.18736
1.27815
1.38238
1.94405
2.96676
6.2726
10.7307
10.6193
10.2034
9.7823
9.49424
9.18555
8.81511
8.39603
7.90823
1.03436
1.06967
1.09312
1.11015
1.12247
1.13265
1.13956
1.14678
1.15149
1.16364
1.18275
1.24771
1.34975
1.74512
2.52151
5.01417
10.2131
10.3998
10.1208
9.66147
9.37574
9.10177
8.78397
8.41205
8.00582
1.0343
1.06972
1.09314
1.11009
1.12261
1.1324
1.13993
1.14602
1.15196
1.15927
1.18171
1.21037
1.35081
1.51514
2.4212
4.09585
9.11884
10.096
9.94298
9.58361
9.29762
9.05698
8.79008
8.4653
8.15032
1.03439
1.06959
1.09326
1.10992
1.1228
1.13215
1.14022
1.1456
1.15201
1.15778
1.17567
1.19857
1.30883
1.43547
2.13513
3.4019
7.45281
9.82815
9.78214
9.56881
9.27595
9.06026
8.82448
8.58243
8.36482
1.0344
1.06957
1.09327
1.10992
1.12279
1.13218
1.14011
1.14576
1.15116
1.15715
1.16558
1.20036
1.23481
1.44564
1.72676
2.94419
5.67026
9.52359
9.73215
9.5829
9.29323
9.09462
8.91819
8.78393
8.6599
1.03436
1.06963
1.09322
1.10999
1.12272
1.13225
1.14007
1.14566
1.15137
1.15533
1.16584
1.18191
1.23868
1.32464
1.66392
2.3226
4.37279
8.77171
9.6532
9.57795
9.36341
9.19266
9.11286
9.06704
9.02218
1.03433
1.06967
1.09317
1.11005
1.12266
1.13234
1.13997
1.14572
1.15118
1.15463
1.16285
1.17525
1.21949
1.27528
1.55262
1.98222
3.62981
7.32545
9.47506
9.58894
9.50502
9.39643
9.39857
9.41419
9.41503
1.03435
1.06966
1.09317
1.11006
1.12263
1.13238
1.13991
1.1458
1.15101
1.15464
1.16082
1.17092
1.20291
1.24908
1.4411
1.75521
2.92439
5.58101
9.13283
9.67227
9.67921
9.69445
9.74274
9.82118
9.82706
1.03433
1.06968
1.09315
1.11009
1.12258
1.13246
1.13979
1.14597
1.1507
1.15494
1.15949
1.16722
1.19027
1.22364
1.36223
1.55227
2.42036
4.05654
8.37676
9.78856
9.99141
10.0747
10.1743
10.2352
10.2259
1.03432
1.06969
1.09314
1.11011
1.12256
1.13248
1.13974
1.14607
1.15047
1.15532
1.15823
1.16608
1.17693
1.22019
1.26788
1.53724
1.91477
3.48745
6.90977
9.77013
10.404
10.5444
10.6213
10.6273
10.5961
1.03431
1.06969
1.09316
1.11007
1.12263
1.13238
1.1399
1.14584
1.1508
1.15476
1.15878
1.16332
1.17595
1.19547
1.26744
1.37465
1.81539
2.66623
5.23608
9.63222
10.9028
11.0732
11.0654
11.0265
10.9227
1.03433
1.06966
1.09319
1.11003
1.12269
1.1323
1.14
1.14571
1.15096
1.15452
1.15882
1.1624
1.1721
1.18735
1.24184
1.32168
1.65559
2.27569
4.33977
9.01006
11.3363
11.5788
11.5271
11.3928
11.1516
1.03434
1.06965
1.0932
1.11002
1.12269
1.1323
1.13999
1.14572
1.15093
1.15451
1.15868
1.16166
1.16947
1.18172
1.22526
1.28385
1.56006
2.00289
3.73665
7.77027
11.8097
12.0737
11.9525
11.6696
11.3163
1.03434
1.06967
1.09318
1.11005
1.12265
1.13235
1.13992
1.14581
1.15082
1.15461
1.15846
1.16102
1.16742
1.17735
1.21217
1.25773
1.47876
1.80981
3.1575
6.25304
12.3406
12.5765
12.3522
11.8856
11.448
1.03435
1.06966
1.09318
1.11005
1.12264
1.13237
1.1399
1.14584
1.15079
1.15463
1.1584
1.16075
1.16629
1.17515
1.20394
1.24599
1.42428
1.69727
2.85763
5.46451
12.2051
12.8366
12.6029
12.0809
11.5596
1.03435
1.06967
1.09317
1.11007
1.12262
1.13239
1.13986
1.14588
1.15073
1.15469
1.1583
1.16082
1.16558
1.17329
1.19889
1.23366
1.39842
1.62209
2.71385
5.00651
11.8026
12.9995
12.7754
12.2359
11.6381
1.03435
1.06966
1.09317
1.11007
1.12261
1.13241
1.13985
1.1459
1.1507
1.15474
1.15825
1.16089
1.16514
1.17199
1.19486
1.22408
1.37568
1.55516
2.58146
4.58374
11.1968
13.2426
12.9866
12.3421
11.6664
1.03434
1.06967
1.09316
1.11008
1.1226
1.13243
1.13981
1.14596
1.1506
1.15491
1.15794
1.16149
1.16403
1.17307
1.18207
1.23682
1.2891
1.6469
2.18699
4.43623
10.35
13.6575
13.281
12.3937
11.6538
1.03432
1.06969
1.09315
1.11009
1.12259
1.13245
1.13979
1.14599
1.15058
1.15491
1.158
1.16116
1.16446
1.16972
1.18806
1.20936
1.33084
1.46947
2.28474
3.85145
9.34163
14.2463
13.6669
12.4342
11.6253
1.03436
1.06964
1.09317
1.11007
1.12259
1.13245
1.13978
1.14601
1.15054
1.15499
1.15784
1.16151
1.16376
1.17098
1.17911
1.22231
1.26406
1.54155
1.94472
3.65724
8.19166
14.8533
14.0646
12.4931
11.6335
1.03432
1.06968
1.09314
1.1101
1.12258
1.13246
1.13977
1.14602
1.15053
1.155
1.15783
1.16151
1.1638
1.17031
1.17914
1.21715
1.25806
1.50126
1.85109
3.32444
7.09903
15.2917
14.3246
12.5868
11.6929
1.03429
1.06972
1.09312
1.11013
1.12256
1.13248
1.13977
1.14601
1.15057
1.15492
1.15797
1.16117
1.16398
1.16878
1.18271
1.20375
1.28811
1.40305
1.95875
3.02167
6.83541
15.1525
14.2825
12.6549
11.8029
1.03429
1.06972
1.09312
1.11012
1.12256
1.13248
1.13977
1.146
1.15056
1.15493
1.15794
1.16121
1.16389
1.16834
1.18203
1.19995
1.2858
1.38736
1.93432
2.94778
6.58945
14.893
14.1882
12.7307
11.9212
1.03433
1.06968
1.09315
1.11009
1.12258
1.13245
1.13979
1.14599
1.15057
1.15495
1.15786
1.16144
1.16337
1.1695
1.17615
1.21071
1.24293
1.46
1.74131
3.09331
6.30824
14.684
14.1007
12.8265
12.038
1.0343
1.06971
1.09314
1.1101
1.12259
1.13244
1.13981
1.14595
1.15063
1.15484
1.15804
1.16109
1.16394
1.16837
1.18125
1.20064
1.27821
1.3841
1.88919
2.85684
6.3329
14.5292
14.0416
12.8943
12.1413
1.03431
1.0697
1.09314
1.1101
1.12259
1.13243
1.13983
1.14593
1.15066
1.1548
1.15809
1.16102
1.16399
1.16845
1.18122
1.20099
1.27678
1.38657
1.87893
2.83764
6.29473
14.4818
14.0531
12.9877
12.2328
1.03432
1.06969
1.09315
1.11009
1.1226
1.13242
1.13984
1.14591
1.15067
1.15479
1.15809
1.16104
1.16391
1.16825
1.18088
1.2
1.27582
1.38306
1.87722
2.84024
6.29045
14.5523
14.1422
13.104
12.2952
1.03434
1.06967
1.09317
1.11007
1.12262
1.1324
1.13985
1.14591
1.15068
1.15479
1.15809
1.16103
1.16389
1.16812
1.18048
1.19938
1.27427
1.38234
1.87476
2.84755
6.34418
14.7647
14.3448
13.239
12.2926
1.03435
1.06966
1.09318
1.11006
1.12262
1.1324
1.13984
1.14593
1.15063
1.15488
1.15791
1.16135
1.16312
1.16898
1.17496
1.20787
1.23897
1.4492
1.74363
3.04337
6.40261
15.1897
14.6525
13.3331
12.1804
1.03434
1.06967
1.09317
1.11006
1.12262
1.1324
1.13985
1.14592
1.15064
1.15485
1.15798
1.16117
1.16365
1.16743
1.17984
1.19466
1.27709
1.37301
1.90571
2.93418
6.65875
15.7365
15.021
13.3273
11.9418
1.03435
1.06966
1.09318
1.11005
1.12263
1.13239
1.13985
1.14592
1.15063
1.15488
1.1579
1.16133
1.16312
1.16861
1.17501
1.20833
1.24075
1.45913
1.77403
3.14286
6.81049
16.2615
15.3362
13.2334
11.6568
1.03435
1.06965
1.09318
1.11005
1.12263
1.13238
1.13986
1.1459
1.15066
1.15484
1.15794
1.16125
1.16303
1.16858
1.1746
1.20828
1.24021
1.4633
1.7836
3.18415
6.98551
16.583
15.4979
13.1588
11.494
1.00891
1.03173
1.05945
1.08719
1.11376
1.13742
1.15979
1.17961
1.2029
1.23802
1.3446
1.49855
2.1529
3.43303
7.99119
17.9955
15.8025
13.8151
13.4179
13.5358
13.4913
13.1638
12.5612
11.5452
9.43224
1.0089
1.03173
1.05945
1.08718
1.11378
1.13739
1.15979
1.17948
1.20242
1.23631
1.33624
1.48629
2.09742
3.30491
7.57486
17.1527
15.2776
13.4146
13.0244
13.0874
12.9908
12.5719
11.7683
10.5673
8.48863
1.00893
1.03173
1.05938
1.08736
1.11342
1.13805
1.15856
1.18156
1.19792
1.24145
1.2978
1.53785
1.89164
3.32429
6.97054
16.2736
14.7473
13.0472
12.6572
12.6652
12.5175
12.023
11.1236
9.97905
8.39574
1.00895
1.03171
1.05939
1.08733
1.11341
1.13802
1.15854
1.18129
1.19696
1.23747
1.29054
1.51291
1.82529
3.18965
6.43047
15.2672
14.1495
12.7166
12.3409
12.2892
12.0789
11.5363
10.6656
9.65097
8.40687
1.009
1.03162
1.05952
1.0871
1.1138
1.1373
1.15974
1.17881
1.20078
1.22461
1.31169
1.40752
1.9253
2.80643
6.06126
14.1152
13.4852
12.451
12.0739
11.9561
11.69
11.1314
10.3507
9.46057
8.43101
1.00896
1.03162
1.05957
1.08698
1.11406
1.13688
1.16034
1.17796
1.2013
1.22571
1.30239
1.40045
1.86298
2.62632
5.64488
12.8265
12.821
12.3154
11.8467
11.6513
11.3552
10.8272
10.1334
9.34398
8.46173
1.00891
1.03168
1.05952
1.08702
1.11403
1.13691
1.16027
1.17795
1.20048
1.22338
1.29076
1.38034
1.7826
2.45023
5.04959
11.3689
12.5339
12.1728
11.6485
11.385
11.081
10.6016
9.98302
9.27903
8.51146
1.00885
1.03176
1.05943
1.08715
1.11388
1.1371
1.16004
1.17803
1.19975
1.21922
1.27867
1.3495
1.69564
2.23484
4.36792
9.71211
12.4628
12.1051
11.4877
11.1616
10.8579
10.4271
9.88111
9.2697
8.58738
1.00879
1.03186
1.05933
1.08729
1.1137
1.13731
1.15977
1.17814
1.19903
1.21602
1.26521
1.32541
1.60378
2.02641
3.68976
7.80779
12.4415
12.056
11.3599
10.9756
10.6771
10.2966
9.81997
9.2824
8.68786
1.0088
1.03185
1.0593
1.08737
1.11353
1.13764
1.15916
1.17907
1.19647
1.21656
1.24628
1.32935
1.46402
1.9567
2.95408
6.06678
12.1886
11.9086
11.2681
10.8272
10.5331
10.2068
9.80813
9.32404
8.82845
1.00876
1.0319
1.05926
1.0874
1.11351
1.13766
1.15909
1.17909
1.19581
1.21544
1.2364
1.31067
1.39721
1.81975
2.57024
5.11809
11.1983
11.5226
11.1881
10.7167
10.4305
10.1588
9.82357
9.41702
9.02638
1.00885
1.03177
1.05939
1.08723
1.1137
1.13737
1.15951
1.17832
1.19688
1.21159
1.23651
1.27495
1.41254
1.59062
2.45875
4.10226
9.30236
11.2415
11.0488
10.6612
10.3882
10.1633
9.87734
9.58647
9.31003
1.0089
1.0317
1.05943
1.08719
1.1137
1.13741
1.15938
1.17853
1.19624
1.2115
1.23147
1.26061
1.3676
1.50096
2.13489
3.34438
7.23585
11.1084
11.0026
10.6857
10.4002
10.1991
10.001
9.84142
9.68389
1.00887
1.03175
1.05939
1.08726
1.11362
1.13755
1.15914
1.17892
1.19533
1.21272
1.2257
1.26026
1.30496
1.49407
1.76921
2.8474
5.28731
10.6708
10.966
10.7588