/*--------------------------------*- C++ -*----------------------------------*\
  =========                 |
  \\      /  F ield         | OpenFOAM: The Open Source CFD Toolbox
   \\    /   O peration     | Website:  https://openfoam.org
    \\  /    A nd           | Version:  6
     \\/     M anipulation  |
\*---------------------------------------------------------------------------*/
FoamFile
{
    version     2.0;
    format      ascii;
    class       surfaceScalarField;
    location    "7.5";
    object      phi;
}
// * * * * * * * * * * * * * * * * * * * * * * * * * * * * * * * * * * * * * //

dimensions      [1 0 -1 0 0 0 0];

internalField   nonuniform List<scalar> 
72625
(
0.00162355
3.76152e-11
5.87525e-05
0.00157665
7.86971e-10
4.69057e-05
0.00153805
4.47419e-10
3.85952e-05
0.00150612
1.39389e-09
3.19293e-05
0.00147905
1.38718e-10
2.70694e-05
0.00145654
1.53467e-09
2.25063e-05
0.00143682
-4.73915e-10
1.97252e-05
0.00142081
4.41043e-09
1.60002e-05
0.00140576
1.16551e-08
1.50355e-05
0.00139142
3.76055e-08
1.42763e-05
0.00138346
7.74946e-08
7.87877e-06
0.00136566
2.4847e-07
1.74417e-05
0.00138643
6.452e-07
-2.1528e-05
0.00134016
2.14679e-06
4.39107e-05
0.00163817
8.55675e-06
-0.000307661
0.00182219
3.57583e-05
-0.000221383
0.0016441
4.66774e-05
0.000130417
0.00144409
5.00389e-05
0.000149732
0.0013417
6.00463e-05
4.21949e-05
0.00132689
7.43939e-05
-5.97562e-05
0.00124724
6.93099e-05
1.01722e-05
0.00114775
5.09378e-05
4.84701e-05
0.00100251
2.71377e-05
0.000117946
0.000656926
3.80578e-05
0.000307285
1.88966e-05
0.000638067
0.00162355
1.123e-09
5.8752e-05
0.00157664
2.80787e-09
4.69059e-05
0.00153805
5.49226e-10
3.8595e-05
0.00150612
2.4367e-09
3.19293e-05
0.00147905
-1.61026e-09
2.70699e-05
0.00145654
2.74628e-09
2.25055e-05
0.00143682
-3.30078e-09
1.97269e-05
0.00142082
1.10842e-08
1.59952e-05
0.00140576
2.89895e-08
1.50368e-05
0.00139143
9.29427e-08
1.42484e-05
0.00138336
2.13936e-07
7.91908e-06
0.00136564
5.99869e-07
1.72727e-05
0.00138622
1.44938e-06
-2.14993e-05
0.00134049
4.19052e-06
4.34785e-05
0.00163477
1.5716e-05
-0.000302535
0.00181745
7.56641e-05
-0.000224195
0.00164501
9.79992e-05
0.000120129
0.001451
0.000102643
0.000141165
0.00137004
0.000106485
3.4386e-05
0.00132839
0.000113965
1.88457e-06
0.00128931
0.000119844
-1.16368e-05
0.00121751
0.000114809
7.79122e-06
0.00105034
9.92229e-05
9.49343e-05
0.000705275
0.000104462
0.0002785
0.000104426
0.000619807
0.00162355
7.80624e-09
5.87506e-05
0.00157664
2.67327e-09
4.69063e-05
0.00153805
7.63305e-10
3.85949e-05
0.00150612
-5.88221e-10
3.1929e-05
0.00147905
-3.77246e-09
2.70715e-05
0.00145655
1.30124e-09
2.25034e-05
0.00143682
-7.58954e-09
1.97309e-05
0.00142082
2.62073e-08
1.59875e-05
0.00140577
4.06471e-08
1.50301e-05
0.00139132
2.82355e-07
1.42385e-05
0.0013829
7.39154e-07
7.88294e-06
0.00136551
5.82031e-07
1.73078e-05
0.00138379
4.78056e-06
-2.17283e-05
0.00134016
3.82403e-06
4.37929e-05
0.00162884
3.32707e-05
-0.000307305
0.00180689
0.000123125
-0.000227141
0.00163936
0.00015605
0.000108458
0.00145054
0.000156244
0.000134971
0.00137117
0.000153976
3.17327e-05
0.00131584
0.000159133
9.96837e-06
0.00128129
0.000173226
-1.90379e-05
0.00121403
0.000188837
-6.85325e-06
0.00103783
0.000193232
8.20229e-05
0.000686803
0.000192943
0.000262324
0.00020423
0.000586894
0.00162355
2.86967e-08
5.87402e-05
0.00157666
-2.72705e-08
4.69167e-05
0.00153805
1.93492e-08
3.85882e-05
0.00150614
-2.13984e-08
3.1936e-05
0.00147905
1.49369e-08
2.70674e-05
0.00145657
-2.21355e-08
2.25052e-05
0.00143681
2.23343e-08
1.97321e-05
0.00142091
-4.72244e-08
1.59708e-05
0.00140597
-5.05395e-08
1.50233e-05
0.00139079
1.4519e-06
1.40058e-05
0.00138859
-4.82574e-06
7.73452e-06
0.00135592
1.64981e-05
1.66282e-05
0.00141443
-3.13151e-05
-2.25678e-05
0.00132102
5.50908e-05
4.20132e-05
0.0016396
1.42908e-05
-0.000300611
0.00180442
0.000185685
-0.000229023
0.00164763
0.000214609
9.71399e-05
0.00145451
0.000218741
0.000130415
0.00136632
0.000217781
2.42757e-05
0.00131939
0.000239187
-3.32496e-05
0.0012569
0.000249592
-1.403e-05
0.00118348
0.000263155
-9.65729e-07
0.0010168
0.000280489
7.92617e-05
0.000659427
0.000294319
0.000255716
0.00030532
0.000558016
0.0016237
-1.97288e-08
5.86708e-05
0.00157664
3.13205e-08
4.69929e-05
0.00153816
-1.83746e-08
3.85251e-05
0.00150611
2.2593e-08
3.19999e-05
0.00147914
-2.10842e-08
2.70082e-05
0.00145653
2.79205e-08
2.25664e-05
0.00143687
-3.46611e-08
1.96695e-05
0.00142069
1.00263e-07
1.609e-05
0.00140586
1.45749e-07
1.51442e-05
0.00139616
-9.30406e-07
1.22571e-05
0.00136897
6.11128e-06
1.59027e-05
0.00140406
-1.34531e-05
-5.5454e-06
0.00130155
4.45613e-05
2.59486e-05
0.00146569
-4.04499e-05
-6.87669e-05
0.00151834
8.82097e-05
-0.00012686
0.00177911
0.000189325
-0.000265805
0.00164058
0.000259271
9.2709e-05
0.00147336
0.000256926
0.000128675
0.00139415
0.000270956
2.59363e-05
0.00134384
0.000297431
-8.08875e-06
0.00128367
0.000323515
-1.39227e-05
0.00119775
0.000346302
2.65945e-06
0.00102386
0.000373491
8.07206e-05
0.000662253
0.00040451
0.000251156
0.000428118
0.000539115
0.00162355
1.66489e-08
5.87276e-05
0.00157668
-2.67325e-08
4.6929e-05
0.00153806
1.6665e-08
3.858e-05
0.00150616
-1.8224e-08
3.19439e-05
0.00147905
2.04683e-08
2.70636e-05
0.0014566
-2.45965e-08
2.25054e-05
0.00143679
4.03394e-08
1.97377e-05
0.00142103
-9.13811e-08
1.59431e-05
0.00140617
-3.0701e-08
1.5025e-05
0.0013904
1.08735e-06
1.37458e-05
0.00139379
-4.96657e-06
7.64293e-06
0.00134809
1.62961e-05
1.58335e-05
0.00144706
-3.12041e-05
-2.32467e-05
0.00130456
6.15448e-05
4.0216e-05
0.00165135
2.16567e-05
-0.000281
0.00181581
0.000261841
-0.00023863
0.0016916
0.000313642
6.8697e-05
0.00149342
0.000323595
0.000131279
0.00141047
0.000327664
2.61314e-05
0.00135505
0.000359261
-6.57217e-06
0.00130026
0.000395044
-1.69121e-05
0.0012145
0.000428734
3.2441e-06
0.00103463
0.000472455
8.07416e-05
0.000670144
0.000525772
0.000243004
0.000578918
0.000519068
0.00162368
-2.33226e-08
5.86774e-05
0.00157664
2.59157e-08
4.69851e-05
0.00153815
-1.97113e-08
3.85315e-05
0.00150611
2.58365e-08
3.1993e-05
0.00147914
-2.40892e-08
2.7014e-05
0.00145652
3.9464e-08
2.25624e-05
0.00143693
-4.05842e-08
1.96702e-05
0.00142062
1.36273e-07
1.61083e-05
0.00140492
1.76535e-07
1.51223e-05
0.00139578
-7.34104e-07
1.25011e-05
0.00136801
5.53097e-06
1.56009e-05
0.00140015
-1.0828e-05
-4.72633e-06
0.00130217
4.23497e-05
2.48441e-05
0.00145822
-3.02351e-05
-6.50417e-05
0.0015059
8.66122e-05
-0.000113272
0.00177763
0.000266757
-0.000278242
0.00167674
0.000358708
5.46239e-05
0.00151106
0.000361524
0.000127365
0.00143187
0.00037798
2.86685e-05
0.00137235
0.000417293
1.26737e-06
0.00132135
0.000463624
-1.78387e-05
0.00123497
0.000510806
4.16232e-06
0.00105253
0.000575683
7.90216e-05
0.00068418
0.000662585
0.000231393
0.000769063
0.000493881
0.00162355
-2.02981e-09
5.8732e-05
0.00157666
-1.09594e-09
4.69235e-05
0.00153805
-2.96309e-09
3.85853e-05
0.00150614
5.98502e-09
3.1935e-05
0.00147906
-9.58675e-09
2.70744e-05
0.00145659
1.96567e-08
2.24907e-05
0.00143681
-1.71399e-08
1.97563e-05
0.00142093
8.37126e-08
1.59207e-05
0.00140584
1.91342e-07
1.50472e-05
0.00139101
2.34333e-07
1.38579e-05
0.00138811
3.26736e-07
8.06236e-06
0.00135857
2.66821e-06
1.59661e-05
0.00141885
3.28158e-06
-2.12192e-05
0.00132451
2.28734e-05
4.08733e-05
0.00159743
6.5677e-05
-0.000252703
0.00179828
0.000326139
-0.000261938
0.00171767
0.000411346
2.67109e-05
0.00152949
0.000417862
0.000131397
0.00144574
0.000430293
3.11353e-05
0.00138798
0.000474744
1.35135e-08
0.0013402
0.000529442
-1.83626e-05
0.00125468
0.000590112
5.91535e-06
0.00107609
0.00067917
7.48463e-05
0.000712568
0.000813633
0.000212274
0.00102362
0.000457957
0.00162357
7.46271e-09
5.87292e-05
0.00157665
-7.24496e-09
4.69259e-05
0.00153806
3.91594e-09
3.85851e-05
0.00150614
-1.06905e-08
3.19326e-05
0.00147905
5.92913e-09
2.7082e-05
0.0014566
-1.02515e-08
2.24741e-05
0.0014368
3.23185e-09
1.97821e-05
0.00142101
1.5489e-08
1.58508e-05
0.00140602
-5.58532e-08
1.49622e-05
0.00139201
5.5994e-07
1.39417e-05
0.00138275
1.20567e-06
8.35074e-06
0.00136696
2.38103e-06
1.59759e-05
0.00138138
8.41533e-06
-1.95643e-05
0.00134595
1.76008e-05
4.03697e-05
0.00156227
7.72338e-05
-0.000228576
0.00179288
0.000353203
-0.00025934
0.0017464
0.000462712
-6.15871e-06
0.00155586
0.000479138
0.000128808
0.00146592
0.000487767
3.21833e-05
0.00141091
0.00053335
-3.91369e-06
0.00136527
0.000592496
-1.77486e-05
0.0012844
0.000664525
6.09092e-06
0.0011128
0.000780815
6.95459e-05
0.000770591
0.000974218
0.000181313
0.00139956
0.000394609
0.00162359
5.87174e-05
1.11142e-08
0.00157667
4.69426e-05
-2.58356e-08
0.00153808
3.85695e-05
2.31781e-08
0.00150615
3.19528e-05
-3.62372e-08
0.00147905
2.70572e-05
5.37249e-08
0.00145662
2.25024e-05
-8.94397e-08
0.00143672
1.97485e-05
1.53133e-07
0.0014211
1.58828e-05
-2.78883e-07
0.00140564
1.50652e-05
3.6735e-07
0.00139116
1.36518e-05
1.35909e-06
0.00138697
8.40391e-06
-3.12774e-06
0.00135898
1.50163e-05
1.53415e-05
0.0014093
-1.91428e-05
-2.27055e-05
0.00132018
3.81968e-05
6.82022e-05
0.00156367
-0.000211945
4.4926e-05
0.00178081
-0.000260463
0.000394828
0.00176711
-3.48074e-05
0.000509611
0.00157789
0.000124429
0.000543479
0.00148733
3.44513e-05
0.000543604
0.00144007
-6.53877e-06
0.000586885
0.00139876
-1.39568e-05
0.000647473
0.0013307
4.68728e-06
0.000727577
0.00117699
5.65017e-05
0.00087763
0.000870518
0.000146502
0.00113378
0.000281013
0.00198893
0.00172979
-3.81792e-10
7.16893e-06
0.00176404
9.07871e-10
1.26512e-05
0.00178823
2.83056e-10
1.4406e-05
0.00180604
1.65077e-09
1.41186e-05
0.00181989
4.67993e-10
1.32156e-05
0.00183055
1.83088e-09
1.18483e-05
0.00183939
5.96619e-10
1.08802e-05
0.00184586
2.91973e-09
9.52907e-06
0.00185188
1.26442e-08
9.0034e-06
0.00185745
3.84343e-08
8.62706e-06
0.00185769
1.18195e-07
7.51392e-06
0.00186767
2.9336e-07
7.00233e-06
0.00184235
8.93464e-07
2.73048e-06
0.00188849
2.90326e-06
-5.33206e-06
0.0017525
1.45697e-05
-0.000189054
0.00153276
0.000110585
-0.0001163
0.00137342
0.000152395
0.000136039
0.0012673
0.000189406
6.58042e-05
0.000986025
0.000256713
6.62688e-05
0.00117026
0.000437497
-0.000682105
0.000824433
0.000305668
4.96674e-05
0.000508678
0.00022343
0.000140062
0.000175375
0.000212581
0.000237963
-0.000105239
0.000268458
0.000318894
0.000150806
0.000381724
0.00172979
8.24506e-10
7.16729e-06
0.00176404
1.70899e-09
1.26533e-05
0.00178823
1.31412e-09
1.44044e-05
0.00180604
2.30371e-09
1.412e-05
0.00181989
7.17755e-10
1.32138e-05
0.00183055
2.40468e-09
1.18504e-05
0.0018394
8.85941e-10
1.08761e-05
0.00184586
9.31912e-09
9.52921e-06
0.00185193
3.36237e-08
8.94445e-06
0.00185734
1.18249e-07
8.72164e-06
0.00185807
2.61209e-07
7.02774e-06
0.00186699
8.88484e-07
7.59863e-06
0.00184279
2.13901e-06
1.28442e-06
0.00188694
7.91664e-06
-5.88855e-06
0.00174757
3.76722e-05
-0.000189087
0.00151247
0.000233716
-0.000116307
0.00136503
0.000296792
0.000121884
0.00130274
0.000343669
4.85634e-05
0.00119246
0.000383674
1.72267e-05
0.00119872
0.000436604
-3.99062e-06
0.00101553
0.000471345
5.26153e-06
0.000635955
0.000492601
0.000117503
0.000242815
0.00050826
0.000191744
-2.10557e-05
0.000538631
0.000271655
0.000404471
0.000344776
0.00172978
4.06274e-09
7.16842e-06
0.00176404
2.502e-09
1.26509e-05
0.00178823
2.57908e-09
1.44059e-05
0.00180604
1.79746e-09
1.41177e-05
0.00181989
6.67314e-11
1.32166e-05
0.00183055
2.48798e-09
1.1847e-05
0.0018394
-1.56847e-10
1.08816e-05
0.00184585
1.90399e-08
9.52495e-06
0.00185185
6.8275e-08
8.99616e-06
0.00185731
2.5811e-07
8.60022e-06
0.00185748
4.68683e-07
7.49481e-06
0.00186681
1.89161e-06
6.81839e-06
0.00184086
3.63386e-06
2.5543e-06
0.00188475
1.42776e-05
-6.66083e-06
0.00174443
6.09846e-05
-0.000193085
0.00150531
0.000356602
-0.00011498
0.00135782
0.000437484
0.000113937
0.00130754
0.000487385
4.08739e-05
0.00121569
0.000509533
-2.77073e-06
0.00120253
0.00051904
-5.98239e-05
0.00101704
0.000650119
-1.29239e-05
0.000645285
0.000739504
0.000117324
0.000266594
0.000785905
0.000182391
4.51987e-06
0.000808081
0.000254386
0.000665827
0.000329688
0.00172977
1.16324e-08
7.16526e-06
0.00176404
-6.41732e-09
1.26541e-05
0.00178822
9.18866e-09
1.44036e-05
0.00180605
-6.69853e-09
1.41204e-05
0.00181989
7.70542e-09
1.32151e-05
0.00183056
-6.25223e-09
1.18482e-05
0.0018394
1.52051e-08
1.0879e-05
0.00184582
3.78597e-08
9.52074e-06
0.00185169
2.86458e-07
8.93523e-06
0.00185714
8.97665e-08
8.69565e-06
0.00185597
2.28105e-06
7.06838e-06
0.0018662
7.91452e-07
7.33861e-06
0.00183652
9.33134e-06
1.25873e-06
0.00187935
2.10067e-05
-7.75457e-06
0.00175014
7.07971e-05
-0.000183932
0.0015032
0.000490264
-0.000119977
0.00134639
0.000584386
0.000105654
0.00128316
0.000641037
3.9315e-05
0.00109065
0.000716056
9.76849e-06
0.0011421
0.000930112
-0.000496339
0.000938133
0.000864907
-2.54972e-05
0.000615865
0.000948711
0.000111407
0.000269889
0.00103616
0.000174278
2.06786e-05
0.00107446
0.000237934
0.000926292
0.000317722
0.00172974
-7.49235e-09
7.16114e-06
0.00176406
1.00395e-08
1.26577e-05
0.0017882
-6.89823e-09
1.44001e-05
0.00180605
1.04158e-08
1.41251e-05
0.00181987
-9.21722e-09
1.32115e-05
0.00183056
1.31846e-08
1.185e-05
0.00183939
-1.43311e-08
1.08739e-05
0.00184602
1.18627e-08
9.49035e-06
0.00185282
-1.0452e-07
8.73458e-06
0.0018554
5.71874e-07
9.1732e-06
0.00186993
-8.7905e-07
4.51224e-06
0.00184876
4.29645e-06
1.19051e-05
0.00189021
2.70001e-06
-9.05309e-06
0.00181216
2.51902e-05
4.94532e-06
0.00175902
0.000156369
-0.000161849
0.0014764
0.000621478
-0.000118717
0.0013381
0.000716248
9.7586e-05
0.00128726
0.00078281
3.69884e-05
0.00115589
0.000874774
-1.88937e-06
0.0011525
0.000999797
-7.48515e-05
0.000955343
0.00108635
-3.87645e-05
0.000630226
0.0011819
9.39705e-05
0.000292724
0.0012932
0.000160512
4.9914e-05
0.00134446
0.000223199
0.00120937
0.000305354
0.00172976
4.93877e-09
7.16306e-06
0.00176405
-8.10881e-09
1.26556e-05
0.00178822
4.85601e-09
1.44025e-05
0.00180606
-6.61555e-09
1.41212e-05
0.00181989
7.47225e-09
1.32162e-05
0.00183056
-4.91304e-09
1.18459e-05
0.00183939
1.73712e-08
1.08825e-05
0.00184579
4.35101e-08
9.50617e-06
0.00185151
2.80286e-07
8.91818e-06
0.00185695
1.59915e-07
8.6839e-06
0.00185411
2.4895e-06
7.09643e-06
0.00186557
1.40008e-06
7.11811e-06
0.00183101
1.25863e-05
1.27218e-06
0.00187237
3.29778e-05
-9.19777e-06
0.00175907
0.000142616
-0.000156403
0.0015107
0.000755382
-0.000128387
0.00134505
0.000856402
9.27643e-05
0.00130418
0.000921594
3.25957e-05
0.00118071
0.00103307
-9.24966e-06
0.00115078
0.0012021
-0.000179476
0.000965578
0.00130184
-4.77806e-05
0.000660106
0.00141403
7.59343e-05
0.000338303
0.00154834
0.00014669
9.24113e-05
0.00162317
0.000209515
0.00152952
0.000290687
0.00172974
-1.13581e-08
7.16261e-06
0.00176405
7.78049e-09
1.26554e-05
0.0017882
-1.00499e-08
1.44018e-05
0.00180605
1.1054e-08
1.41217e-05
0.00181987
-1.06964e-08
1.32162e-05
0.00183057
1.59948e-08
1.18428e-05
0.00183938
-1.19454e-08
1.08854e-05
0.00184605
1.77474e-08
9.46487e-06
0.00185271
-5.28033e-08
8.78624e-06
0.00185566
6.43029e-07
9.03444e-06
0.00186921
-5.12519e-07
5.02117e-06
0.00184941
5.16934e-06
1.11803e-05
0.00188812
6.16071e-06
-7.57678e-06
0.00181166
3.88542e-05
5.19851e-06
0.00177444
0.000205697
-0.000141362
0.00151623
0.000859057
-0.000128595
0.00135313
0.00098558
8.67181e-05
0.00132292
0.00104658
3.17077e-05
0.00122642
0.00117193
-1.43157e-05
0.00116425
0.00135445
-8.96231e-05
0.000996083
0.00150146
-5.00093e-05
0.000714027
0.00163999
5.9531e-05
0.000406139
0.00180118
0.000133302
0.000150434
0.00191253
0.000196959
0.00189996
0.000273171
0.00172976
-4.06987e-09
7.16589e-06
0.00176404
1.73918e-09
1.26518e-05
0.00178821
-3.91594e-09
1.44062e-05
0.00180604
4.32734e-09
1.41146e-05
0.00181989
-4.57676e-09
1.32242e-05
0.00183055
7.3835e-09
1.18352e-05
0.0018394
7.88677e-10
1.08962e-05
0.00184582
3.3403e-08
9.48359e-06
0.00185172
1.37073e-07
8.94583e-06
0.0018571
5.03459e-07
8.59362e-06
0.00185593
1.19414e-06
7.50324e-06
0.00186624
4.18309e-06
6.50552e-06
0.00183705
1.14854e-05
2.47528e-06
0.00188153
4.48413e-05
-9.68369e-06
0.00176514
0.000200694
-0.000133673
0.00155147
0.00100277
-0.000196002
0.0013686
0.00110958
8.36852e-05
0.00134915
0.00116773
2.88024e-05
0.00126593
0.00130078
-1.50444e-05
0.0011933
0.00149929
-7.27459e-05
0.00103774
0.00168177
-4.40283e-05
0.000789853
0.00184905
4.38575e-05
0.000501006
0.00204632
0.000117697
0.000229025
0.00221449
0.00018147
0.00233896
0.000247194
0.00172976
2.27697e-09
7.16604e-06
0.00176403
2.34542e-09
1.26515e-05
0.00178821
-2.25532e-09
1.4407e-05
0.00180603
2.46544e-09
1.41127e-05
0.00181989
-5.62829e-09
1.32274e-05
0.00183053
4.43356e-09
1.18309e-05
0.00183942
5.57632e-10
1.09014e-05
0.0018458
2.19586e-08
9.48e-06
0.00185175
1.93337e-07
8.94386e-06
0.00185714
4.59575e-07
8.57765e-06
0.00185689
2.28687e-06
7.48939e-06
0.00186735
3.14914e-06
6.40418e-06
0.00183965
1.71655e-05
2.27971e-06
0.00189501
4.07115e-05
-1.0865e-05
0.00179016
0.000201132
-0.000126402
0.00161648
0.00104072
-0.00012769
0.00140033
0.0012344
8.3383e-05
0.00138261
0.00128531
2.7955e-05
0.00131178
0.00141814
-1.48616e-05
0.00123832
0.00162567
-5.72438e-05
0.00109853
0.00184037
-3.72593e-05
0.000890798
0.00203068
3.12513e-05
0.000644812
0.00226438
9.64881e-05
0.000358211
0.00252205
0.000159321
0.00287998
0.000210955
0.00172975
7.16428e-06
1.03358e-08
0.00176405
1.26545e-05
-6.59574e-09
0.00178821
1.44037e-05
1.45234e-11
0.00180604
1.41198e-05
4.17422e-09
0.00181989
1.32188e-05
-1.76572e-08
0.00183053
1.18392e-05
3.21799e-08
0.00183946
1.08963e-05
-8.18776e-08
0.00184577
9.4778e-06
1.19296e-07
0.00185246
8.96014e-06
-3.94458e-07
0.00185574
8.56022e-06
2.23562e-06
0.00186268
7.36461e-06
-3.64368e-06
0.00185543
6.6604e-06
1.86349e-05
0.00186775
1.30181e-06
-1.58504e-05
0.00187849
-9.61276e-06
7.73511e-05
0.00182209
-0.000114531
0.000157769
0.00167559
-0.000211235
0.0011337
0.00143514
7.40672e-05
0.00136469
0.0014201
2.73007e-05
0.00139662
0.00136371
-1.46297e-05
0.00152282
0.00129542
-4.58049e-05
0.00173248
0.00119509
-3.32433e-05
0.00195919
0.00103259
2.21797e-05
0.00217486
0.000826659
7.83709e-05
0.00244737
0.000599113
0.000120468
0.00277453
0.000153518
0.00360552
0.00169387
5.79781e-10
-7.16683e-06
0.00171917
1.96644e-10
-1.26513e-05
0.00174798
5.77955e-10
-1.44038e-05
0.00177622
2.3877e-10
-1.41188e-05
0.00180265
2.17487e-10
-1.32146e-05
0.00182634
9.47909e-10
-1.18487e-05
0.0018481
-7.45886e-10
-1.08786e-05
0.00186715
6.30336e-09
-9.52982e-06
0.00188516
-6.72247e-09
-8.99228e-06
0.00190229
9.87509e-08
-8.64099e-06
0.00191736
-8.30952e-08
-7.48903e-06
0.00193051
6.5449e-07
-6.98343e-06
0.00193571
3.99917e-08
-2.68549e-06
0.00192234
2.42175e-06
5.32218e-06
0.00155109
5.36881e-06
0.000173174
0.0011452
0.000168168
0.000114109
0.00117691
0.000232507
-0.000129829
0.00102157
0.000277803
-5.76413e-05
0.000845591
0.000270628
-2.92223e-05
-6.21731e-05
0.00024922
-2.44344e-05
-0.000291355
0.000314246
-3.60729e-05
-0.000443557
0.000420815
-0.000129282
-0.000452074
0.000454162
-0.000208388
-0.000328145
0.000504259
-0.000310019
0.000450809
-0.000397888
0.00169386
-2.66585e-10
-7.16297e-06
0.00171917
6.30457e-10
-1.26549e-05
0.00174798
4.01067e-10
-1.44003e-05
0.00177622
1.14537e-09
-1.41241e-05
0.00180264
8.04325e-10
-1.321e-05
0.00182635
-9.53665e-11
-1.18525e-05
0.00184809
2.82931e-09
-1.087e-05
0.00186713
-6.95861e-10
-9.50741e-06
0.00188481
4.19618e-08
-8.77807e-06
0.00190275
1.97723e-08
-9.17638e-06
0.00191407
4.38415e-07
-4.83412e-06
0.00193357
3.38045e-07
-1.17565e-05
0.00192408
2.78986e-06
7.83605e-06
0.00192044
7.34947e-06
-7.46696e-06
0.00153783
5.01452e-05
0.000145097
0.0011196
0.000354438
0.000108224
0.0011515
0.000436724
-0.000115885
0.00102221
0.000509298
-5.4639e-05
0.000828226
0.000533047
-5.206e-05
-8.57398e-05
0.000504525
0.000653822
-0.000401882
0.000655595
-2.0476e-05
-0.000497036
0.000741308
-0.000108533
-0.00047261
0.000808182
-0.000187425
-0.000306439
0.000875425
-0.000266405
0.000824621
-0.000336171
0.00169387
5.20325e-10
-7.16536e-06
0.00171917
7.55937e-10
-1.26521e-05
0.00174798
5.13e-10
-1.44034e-05
0.00177622
7.95896e-10
-1.41195e-05
0.00180265
-2.19433e-10
-1.32154e-05
0.00182634
9.44323e-10
-1.18483e-05
0.00184811
2.14373e-10
-1.08795e-05
0.00186715
1.07328e-08
-9.5253e-06
0.00188514
2.33682e-08
-8.98304e-06
0.00190215
2.12599e-07
-8.63368e-06
0.00191734
2.37308e-07
-7.50738e-06
0.00192953
1.6203e-06
-6.83513e-06
0.0019346
2.84494e-06
-2.75623e-06
0.00191619
1.26461e-05
6.16523e-06
0.00153809
6.62616e-05
0.000165277
0.00111376
0.000541023
0.00011546
0.00113715
0.000635346
-0.000109664
0.00100854
0.00072829
-5.04295e-05
0.000790022
0.000779893
-3.18638e-05
-5.9011e-05
0.000827729
0.00046512
-0.000397149
0.000969027
1.08343e-05
-0.000478081
0.00104754
-0.000108863
-0.000449141
0.00114194
-0.000181048
-0.000298201
0.00122038
-0.000242238
0.00115867
-0.00030328
0.00169386
3.55829e-10
-7.16225e-06
0.00171917
3.74143e-10
-1.26547e-05
0.00174798
7.67358e-11
-1.44013e-05
0.00177622
3.03287e-10
-1.41227e-05
0.00180265
-7.63644e-10
-1.3213e-05
0.00182635
1.15311e-09
-1.18505e-05
0.0018481
7.37303e-10
-1.08719e-05
0.00186712
1.52325e-08
-9.5106e-06
0.00188482
4.57432e-08
-8.78599e-06
0.00190251
2.92173e-07
-9.10416e-06
0.00191419
4.49719e-07
-4.84117e-06
0.00193199
2.28369e-06
-1.13063e-05
0.00192328
4.75807e-06
7.88239e-06
0.00191434
1.9655e-05
-6.11606e-06
0.00154105
0.000107199
0.000144855
0.00111084
0.000731341
0.000112608
0.00112822
0.000824031
-0.000102048
0.00100714
0.000931948
-4.42295e-05
0.000788336
0.00101626
-8.50988e-06
-1.54705e-05
0.00107564
5.87493e-05
-0.000345025
0.00124221
2.99664e-05
-0.000422764
0.00134616
-0.000110254
-0.000405312
0.00147145
-0.000173458
-0.000278014
0.0015579
-0.000227639
0.00149155
-0.000293947
0.00169386
-1.49643e-09
-7.15992e-06
0.00171917
7.08256e-11
-1.2658e-05
0.00174797
-1.30255e-09
-1.43999e-05
0.00177622
5.86357e-10
-1.41251e-05
0.00180265
-5.23947e-10
-1.32119e-05
0.00182635
1.17067e-09
-1.18519e-05
0.00184809
4.39907e-09
-1.08691e-05
0.00186709
1.28058e-08
-9.50915e-06
0.00188451
9.45669e-08
-8.73751e-06
0.00190282
2.77988e-07
-9.16009e-06
0.00191121
9.76473e-07
-4.41773e-06
0.00193436
2.53307e-06
-1.16524e-05
0.00191246
8.32649e-06
9.0887e-06
0.00191224
3.00517e-05
-5.51863e-06
0.00154652
0.000173466
0.000134115
0.00111164
0.000920317
0.000119865
0.00112553
0.00100125
-9.5231e-05
0.00101043
0.0011233
-4.02843e-05
0.000783138
0.00124472
-3.81035e-06
0.000112641
0.00136972
0.000300891
-0.000240253
0.00151964
3.60638e-05
-0.000346937
0.00164403
-9.79799e-05
-0.000349399
0.0017955
-0.000161914
-0.000246502
0.00189458
-0.000217221
0.00183763
-0.000288069
0.00169386
-2.58944e-09
-7.16196e-06
0.00171917
4.52695e-12
-1.26555e-05
0.00174798
-2.35994e-09
-1.44016e-05
0.00177622
7.53096e-10
-1.41225e-05
0.00180265
-6.7202e-10
-1.32144e-05
0.00182634
2.88514e-09
-1.18467e-05
0.0018481
4.17767e-09
-1.08784e-05
0.00186708
2.28502e-08
-9.48687e-06
0.00188479
9.5027e-08
-8.78892e-06
0.0019023
4.60623e-07
-9.04104e-06
0.00191432
9.87708e-07
-4.95303e-06
0.00193093
3.91322e-06
-1.10385e-05
0.00192285
9.8989e-06
7.60268e-06
0.00190869
3.98688e-05
-5.17041e-06
0.0015639
0.000216763
0.000141802
0.00112438
0.00110005
0.000124061
0.00113316
0.00117411
-9.06816e-05
0.00102371
0.00130161
-3.73551e-05
0.00079729
0.00145422
6.80937e-06
0.000253415
0.0016438
8.95581e-05
-0.000111305
0.00179271
4.32229e-05
-0.000251123
0.00193926
-8.0301e-05
-0.000276152
0.00211403
-0.000147822
-0.000200885
0.00223199
-0.000204059
0.00220369
-0.000277167
0.00169386
-3.34046e-09
-7.16497e-06
0.00171917
1.58148e-10
-1.26533e-05
0.00174797
-2.18345e-09
-1.44042e-05
0.00177621
9.01733e-10
-1.41175e-05
0.00180265
8.65084e-10
-1.32186e-05
0.00182633
8.49051e-10
-1.18423e-05
0.0018481
9.18457e-09
-1.08854e-05
0.00186707
1.89798e-08
-9.49766e-06
0.00188472
1.338e-07
-8.91027e-06
0.0019024
4.72508e-07
-8.68078e-06
0.00191395
1.44014e-06
-7.00448e-06
0.00193184
4.22994e-06
-7.19925e-06
0.00192208
1.28377e-05
-9.23997e-07
0.00191048
4.73146e-05
9.02092e-06
0.00158517
0.000250729
0.000146912
0.00114358
0.00127402
0.000131777
0.00114966
0.00134193
-8.90588e-05
0.00104612
0.00146854
-3.28054e-05
0.00082686
0.00164613
1.21895e-05
0.000401574
0.00189114
8.75802e-05
2.82286e-05
0.00206865
4.63774e-05
-0.000133735
0.00222231
-6.25769e-05
-0.000176915
0.00242311
-0.000133277
-0.000133921
0.00257663
-0.000191616
0.00260495
-0.000262997
0.00169386
-3.47382e-09
-7.16747e-06
0.00171916
2.9395e-09
-1.26502e-05
0.00174798
-2.37663e-09
-1.44074e-05
0.0017762
3.01981e-09
-1.41124e-05
0.00180265
3.20073e-10
-1.32246e-05
0.00182632
1.93796e-10
-1.18342e-05
0.00184811
1.12447e-08
-1.08959e-05
0.00186708
2.10981e-08
-9.48431e-06
0.00188497
1.32127e-07
-8.94871e-06
0.00190194
6.46876e-07
-8.57862e-06
0.00191695
1.37054e-06
-7.45723e-06
0.00192868
5.36407e-06
-6.52762e-06
0.00193291
1.31591e-05
-2.2432e-06
0.00190787
5.24268e-05
9.87831e-06
0.00161683
0.00026227
0.000142967
0.00116428
0.00139806
0.000125218
0.00117517
0.00150111
-8.83109e-05
0.00107788
0.00162376
-3.02509e-05
0.000876262
0.00181815
1.36613e-05
0.00052364
0.00209928
7.09065e-05
0.000185181
0.0023203
4.16889e-05
9.79862e-06
0.00248612
-4.56237e-05
-5.28139e-05
0.00271924
-0.000116922
-3.86157e-05
0.0029191
-0.000176315
0.00305191
-0.000239474
0.00169386
-9.93075e-10
-7.16643e-06
0.00171916
6.97246e-09
-1.26511e-05
0.00174798
-6.64197e-09
-1.44071e-05
0.00177619
1.19309e-08
-1.4112e-05
0.00180266
-1.35572e-08
-1.3227e-05
0.00182631
1.5127e-08
-1.18306e-05
0.00184812
3.65945e-09
-1.09011e-05
0.00186708
1.63342e-08
-9.48056e-06
0.00188477
3.33811e-07
-8.94556e-06
0.00190202
5.24475e-07
-8.58164e-06
0.00191582
2.5421e-06
-7.49446e-06
0.00193026
3.58547e-06
-6.42766e-06
0.00192881
1.9026e-05
-2.31125e-06
0.00191241
4.6778e-05
1.08178e-05
0.00165273
0.00026708
0.00012579
0.00119515
0.00150151
0.000219261
0.00120436
0.00165779
-8.45214e-05
0.00111482
0.00176812
-2.79714e-05
0.000933966
0.00196879
1.45002e-05
0.000647384
0.00227126
5.64759e-05
0.000352032
0.0025413
3.60812e-05
0.0001805
0.00272015
-3.20967e-05
0.000109457
0.0029812
-9.52754e-05
0.000101149
0.00324022
-0.000154597
0.00356791
-0.000205243
0.00169385
-7.16365e-06
7.73952e-09
0.00171916
-1.26543e-05
2.03004e-09
0.00174797
-1.44029e-05
-1.11795e-08
0.0017762
-1.41192e-05
2.96271e-08
0.00180268
-1.32187e-05
-6.12591e-08
0.00182626
-1.1839e-05
1.13205e-07
0.00184825
-1.08964e-05
-1.887e-07
0.0018668
-9.47964e-06
4.15361e-07
0.00188534
-8.9637e-06
-2.80948e-07
0.00190053
-8.5611e-06
2.42849e-06
0.00192208
-7.36651e-06
-4.28408e-06
0.00191849
-6.68776e-06
2.03627e-05
0.00195801
-1.37398e-06
-1.79748e-05
0.00189947
9.44224e-06
8.5932e-05
0.00171184
0.000113908
0.000223711
0.00123106
0.000183846
0.00158019
0.00123022
-7.34758e-05
0.00180406
0.00115725
-2.71457e-05
0.00189438
0.000998802
1.41031e-05
0.00209763
0.000765187
4.50605e-05
0.00241318
0.000534717
3.20277e-05
0.00270509
0.000385131
-2.32503e-05
0.002914
0.000330642
-7.79486e-05
0.00319069
0.000311525
-0.000116416
0.00349486
-0.000149208
0.00418068
0.00172977
1.1888e-08
-5.87406e-05
0.00176404
-8.86243e-09
-4.69157e-05
0.00178822
9.3275e-09
-3.85883e-05
0.00180604
-9.33737e-09
-3.19357e-05
0.00181989
9.0865e-09
-2.70674e-05
0.00183055
-9.78957e-09
-2.25061e-05
0.00183939
1.62214e-08
-1.97312e-05
0.00184581
2.1655e-08
-1.59751e-05
0.00185158
2.48688e-07
-1.50142e-05
0.00185705
-1.34649e-07
-1.40081e-05
0.00185535
1.85043e-06
-7.64387e-06
0.00186581
-8.14759e-07
-1.67949e-05
0.00183528
5.03256e-06
2.26554e-05
0.00187643
4.99902e-06
-4.10368e-05
0.00174566
-1.30143e-05
0.000314178
0.00152656
0.000104235
0.000224949
0.00137627
0.000148114
-0.000128972
0.00130623
0.000154393
-0.000142735
0.00122804
9.27564e-05
-4.4305e-05
0.00125469
-2.94404e-05
-2.212e-05
0.00113097
9.15201e-05
-4.31734e-06
0.000809681
0.000209841
-1.81807e-05
0.000424344
0.000275802
-9.92181e-05
7.25112e-05
0.000323628
-0.000282316
0.000302017
-0.000627916
0.00172973
-8.16435e-09
-5.86677e-05
0.00176405
1.1864e-08
-4.69964e-05
0.00178819
-6.95321e-09
-3.85213e-05
0.00180605
1.13648e-08
-3.20033e-05
0.00181986
-9.56155e-09
-2.7004e-05
0.00183056
1.11558e-08
-2.25703e-05
0.00183939
-1.72663e-08
-1.96655e-05
0.001846
-6.857e-09
-1.6097e-05
0.00185279
-1.91511e-07
-1.5119e-05
0.00185523
3.59391e-07
-1.21468e-05
0.00186973
-1.4363e-06
-1.60516e-05
0.00184845
2.46537e-06
6.08477e-06
0.00189059
-2.04872e-06
-2.73992e-05
0.00181292
6.29726e-06
6.87234e-05
0.00174996
6.14616e-05
0.000130757
0.00147277
0.000222594
0.00026309
0.00134813
0.00028706
-0.000131566
0.00125101
0.000330984
-0.000134889
0.000967648
0.000357697
-3.42184e-05
0.00112301
0.000414953
5.34199e-05
0.000813927
0.000389872
-1.03742e-05
0.000544349
0.000408994
-3.87085e-05
0.000228492
0.000501132
-9.74742e-05
-2.71309e-05
0.000591016
-0.000278711
0.000542568
-0.000604532
0.00172976
8.42653e-09
-5.87317e-05
0.00176405
-5.74283e-09
-4.69239e-05
0.00178821
6.06651e-09
-3.85834e-05
0.00180605
-5.18393e-09
-3.19403e-05
0.00181989
4.33761e-09
-2.7066e-05
0.00183056
-4.85086e-09
-2.25053e-05
0.00183939
1.0911e-08
-1.97351e-05
0.00184579
2.37078e-08
-1.596e-05
0.00185138
2.39385e-07
-1.50059e-05
0.00185693
-4.71421e-08
-1.38075e-05
0.00185349
1.94921e-06
-7.4688e-06
0.00186539
-2.39368e-07
-1.61801e-05
0.00182961
6.81164e-06
2.39974e-05
0.0018667
1.32933e-05
-3.81236e-05
0.00173878
3.87193e-05
0.000313185
0.00148373
0.000362808
0.000226254
0.00132925
0.000443642
-0.000113098
0.00123523
0.000499601
-0.000125772
0.00100615
0.000574516
-2.01363e-05
0.00110471
0.000726844
5.40401e-05
0.000832234
0.00066504
7.5004e-06
0.00049124
0.000661621
-2.11618e-05
0.000155034
0.000744012
-8.83669e-05
-6.59721e-05
0.000840232
-0.000271046
0.00074711
-0.000574476
0.00172973
8.98276e-10
-5.86738e-05
0.00176405
1.13317e-09
-4.69879e-05
0.00178819
-1.29603e-09
-3.85317e-05
0.00180605
5.65524e-10
-3.19912e-05
0.00181987
-3.26325e-09
-2.70225e-05
0.00183056
2.59258e-09
-2.2545e-05
0.00183941
-2.70645e-09
-1.97044e-05
0.00184592
1.73394e-08
-1.60165e-05
0.0018525
5.03973e-08
-1.51788e-05
0.00185517
2.71223e-07
-1.21306e-05
0.00186829
4.42831e-07
-1.64574e-05
0.00184994
2.03476e-06
4.62072e-06
0.00188789
4.45534e-06
-2.78846e-05
0.00180889
1.83147e-05
6.76713e-05
0.00176136
9.66178e-05
0.00013176