/*--------------------------------*- C++ -*----------------------------------*\
  =========                 |
  \\      /  F ield         | OpenFOAM: The Open Source CFD Toolbox
   \\    /   O peration     | Website:  https://openfoam.org
    \\  /    A nd           | Version:  6
     \\/     M anipulation  |
\*---------------------------------------------------------------------------*/
FoamFile
{
    version     2.0;
    format      ascii;
    class       volScalarField;
    location    "7.5";
    object      T;
}
// * * * * * * * * * * * * * * * * * * * * * * * * * * * * * * * * * * * * * //

dimensions      [0 0 0 1 0 0 0];

internalField   nonuniform List<scalar> 
26250
(
0.979989
0.967512
0.955744
0.946728
0.937686
0.931156
0.92431
0.920997
0.920348
0.929603
0.947871
1.02353
1.17066
1.66237
2.60604
2.73907
2.70113
2.6507
2.60959
2.62457
2.63118
2.65077
2.68449
2.72951
2.72296
0.979994
0.967507
0.955749
0.946723
0.93769
0.931151
0.924312
0.920981
0.920331
0.929529
0.94774
1.02303
1.16978
1.6598
2.60248
2.73733
2.70071
2.64675
2.60939
2.60989
2.62232
2.64726
2.67919
2.72769
2.71777
0.980004
0.967495
0.95576
0.946712
0.937702
0.93114
0.924318
0.920939
0.920289
0.929372
0.947425
1.02214
1.16787
1.65634
2.59796
2.73531
2.69882
2.6446
2.60832
2.60846
2.62342
2.64932
2.68179
2.73043
2.72134
0.980073
0.967428
0.955832
0.946643
0.937773
0.931067
0.924371
0.9208
0.920231
0.929031
0.944951
1.02078
1.16283
1.65227
2.5895
2.73316
2.69456
2.6439
2.60743
2.61463
2.62838
2.65472
2.68679
2.7381
2.73655
0.980957
0.966529
0.956747
0.945706
0.938712
0.930106
0.925338
0.919863
0.923278
0.923381
0.951768
0.997207
1.18559
1.69537
2.46339
2.71009
2.67049
2.62508
2.5928
2.5964
2.61193
2.64141
2.67526
2.73018
2.73458
0.980175
0.967326
0.955938
0.946539
0.937878
0.93096
0.924442
0.920564
0.920064
0.928241
0.941334
1.01639
1.14882
1.63266
2.55188
2.7125
2.67029
2.62247
2.58737
2.58935
2.60414
2.63373
2.66675
2.72367
2.73159
0.980881
0.966603
0.956669
0.945785
0.938632
0.930179
0.925252
0.919876
0.922936
0.92347
0.949371
0.992478
1.17127
1.65717
2.42101
2.68903
2.64777
2.60838
2.57436
2.575
2.5898
2.61922
2.65271
2.71007
2.72509
0.980192
0.967304
0.955958
0.946518
0.93789
0.930931
0.924431
0.920425
0.919894
0.927415
0.941002
1.00999
1.13191
1.59766
2.50329
2.68936
2.64477
2.60402
2.56576
2.56467
2.57882
2.60379
2.63712
2.69257
2.70906
0.98027
0.967226
0.956033
0.946433
0.937977
0.93084
0.924474
0.920133
0.919642
0.926805
0.941257
1.00545
1.12221
1.57224
2.46925
2.6721
2.63044
2.59592
2.55633
2.55308
2.56414
2.58655
2.61214
2.66714
2.67476
0.980368
0.967133
0.956128
0.946342
0.938066
0.930749
0.924551
0.920072
0.919629
0.925911
0.937374
1.00086
1.10741
1.55214
2.4381
2.65316
2.62101
2.58664
2.54766
2.54276
2.55285
2.56707
2.58287
2.61463
2.59646
1.01423
1.021
1.02633
1.02894
1.03187
1.03302
1.03523
1.03723
1.0459
1.05958
1.10023
1.20346
1.43953
2.13203
2.84667
2.64662
2.80812
2.77044
2.76729
2.77117
2.77732
2.79131
2.8251
2.83314
2.76419
1.01423
1.021
1.02633
1.02894
1.03187
1.03302
1.03523
1.03722
1.04587
1.05954
1.10005
1.2032
1.43868
2.13027
2.84541
2.64896
2.80849
2.76958
2.75936
2.7679
2.77781
2.78716
2.81276
2.83747
2.77036
1.01423
1.021
1.02633
1.02894
1.03187
1.03302
1.03522
1.0372
1.0458
1.05936
1.0997
1.20207
1.43642
2.12627
2.84205
2.65319
2.80696
2.76688
2.75484
2.76458
2.77845
2.78595
2.80396
2.83545
2.77114
1.01424
1.021
1.02633
1.02894
1.03187
1.03302
1.03521
1.03716
1.04567
1.05906
1.09911
1.20024
1.43291
2.1209
2.83703
2.66141
2.80587
2.76213
2.75504
2.76132
2.77542
2.78242
2.79799
2.8305
2.77157
1.01421
1.02106
1.02628
1.02901
1.03181
1.0331
1.03511
1.03707
1.04457
1.05973
1.0935
1.20532
1.42003
2.11497
2.8318
2.66689
2.80485
2.75753
2.75023
2.75508
2.76696
2.77461
2.78606
2.81921
2.76869
1.01424
1.021
1.02633
1.02895
1.03187
1.03302
1.03518
1.03705
1.04528
1.05814
1.09713
1.19406
1.41971
2.08844
2.82229
2.68146
2.80164
2.75006
2.74155
2.74563
2.75422
2.76299
2.77424
2.80544
2.76129
1.01421
1.02105
1.02628
1.02901
1.03181
1.03309
1.03508
1.03694
1.04419
1.05852
1.09108
1.19751
1.40225
2.06258
2.81385
2.69217
2.79871
2.74413
2.7344
2.73818
2.74353
2.74537
2.75356
2.78388
2.74477
1.01423
1.02101
1.02632
1.02895
1.03185
1.03303
1.03514
1.03691
1.04468
1.05683
1.09401
1.18433
1.39768
2.00455
2.80829
2.70705
2.78805
2.73142
2.72236
2.72537
2.73012
2.73108
2.73029
2.75627
2.71978
1.01423
1.02101
1.02631
1.02896
1.03185
1.03303
1.03511
1.03682
1.04431
1.05599
1.09216
1.17793
1.3846
1.93918
2.80332
2.71149
2.77831
2.71713
2.70884
2.70943
2.70994
2.7062
2.70347
2.71452
2.6697
1.01422
1.02103
1.0263
1.02898
1.03183
1.03304
1.03508
1.03671
1.04378
1.05524
1.08864
1.17513
1.36774
1.87436
2.79344
2.718
2.7532
2.70073
2.69149
2.69251
2.68997
2.68259
2.66265
2.66433
2.57746
1.00624
1.01279
1.02139
1.02811
1.03557
1.04075
1.04701
1.05206
1.06327
1.08131
1.12895
1.24906
1.51011
2.27419
2.87188
2.38366
2.77704
2.76312
2.76522
2.72931
2.81703
2.81549
2.81551
2.81513
2.77376
1.00626
1.01276
1.02142
1.02809
1.0356
1.04072
1.04703
1.05203
1.06334
1.0811
1.12922
1.24758
1.51017
2.2786
2.87069
2.38517
2.77972
2.76219
2.76466
2.73037
2.81122
2.81197
2.81092
2.81123
2.76805
1.00624
1.01278
1.02139
1.02811
1.03557
1.04075
1.04701
1.05204
1.06318
1.08114
1.12844
1.24803
1.50729
2.27232
2.8685
2.39702
2.77961
2.7586
2.76293
2.72971
2.80392
2.80518
2.80153
2.80257
2.76041
1.00626
1.01276
1.02142
1.02809
1.0356
1.04072
1.04703
1.05199
1.06316
1.08075
1.12822
1.24539
1.50443
2.26913
2.86673
2.41461
2.77977
2.75286
2.75864
2.72051
2.79834
2.79893
2.79411
2.79433
2.75329
1.00629
1.01273
1.02145
1.02806
1.03563
1.04069
1.04705
1.05193
1.06307
1.08023
1.12769
1.24193
1.49951
2.2595
2.86511
2.43708
2.78031
2.74729
2.75356
2.71573
2.78505
2.78585
2.77874
2.7767
2.7386
1.00628
1.01274
1.02144
1.02807
1.03562
1.0407
1.04703
1.05189
1.06278
1.07986
1.1261
1.23935
1.49058
2.23174
2.86445
2.46225
2.779
2.73986
2.74503
2.70744
2.76772
2.7747
2.76545
2.76316
2.72538
1.0063
1.01272
1.02146
1.02804
1.03564
1.04067
1.04704
1.0518
1.06252
1.07912
1.12458
1.23406
1.47963
2.19704
2.86387
2.49121
2.77625
2.73112
2.73603
2.70206
2.74206
2.75532
2.74438
2.73419
2.69659
1.0063
1.01272
1.02146
1.02804
1.03564
1.04067
1.04702
1.05172
1.0621
1.07841
1.12224
1.22919
1.4655
2.15212
2.86181
2.52183
2.77037
2.7194
2.72155
2.69037
2.7175
2.73664
2.71918
2.70998
2.66793
1.00633
1.01269
1.02149
1.02801
1.03567
1.04063
1.04704
1.05161
1.06175
1.07741
1.12014
1.2221
1.45093
2.10717
2.85562
2.5572
2.76246
2.70597
2.70957
2.6804
2.6861
2.70831
2.68831
2.66442
2.6092
1.00626
1.01276
1.02141
1.02809
1.03559
1.0407
1.04695
1.0515
1.06105
1.07669
1.1167
1.21889
1.43306
2.05478
2.84023
2.59845
2.75388
2.68917
2.68898
2.66474
2.66139
2.67644
2.65105
2.61778
2.51283
1.01424
1.021
1.02633
1.02894
1.03187
1.03302
1.03522
1.0372
1.04583
1.05944
1.09996
1.20307
1.43939
2.14001
2.84649
2.64176
2.80646
2.77168
2.75805
2.76815
2.77617
2.79247
2.80555
2.8376
2.78769
1.01421
1.02106
1.02628
1.02902
1.03181
1.0331
1.03512
1.03715
1.0448
1.0605
1.095
1.21031
1.43141
2.14798
2.84449
2.6397
2.80893
2.77131
2.76638
2.77522
2.78088
2.79702
2.81324
2.83642
2.77012
1.01424
1.021
1.02633
1.02894
1.03188
1.03302
1.03522
1.03717
1.04573
1.05917
1.0995
1.20156
1.43667
2.14049
2.84113
2.64724
2.80657
2.7664
2.76411
2.76842
2.77449
2.78929
2.81021
2.8325
2.76789
1.01421
1.02105
1.02629
1.02901
1.03182
1.03309
1.03512
1.03711
1.04472
1.06003
1.09432
1.20771
1.42569
2.13664
2.83575
2.65549
2.80625
2.76316
2.75542
2.76497
2.77348
2.781
2.80347
2.82504
2.76576
1.01422
1.02105
1.02629
1.029
1.03182
1.03309
1.03512
1.03707
1.04464
1.05963
1.09371
1.20528
1.42024
2.12435
2.82866
2.66673
2.80525
2.75838
2.75099
2.75631
2.76849
2.77261
2.7887
2.81564
2.76081
1.01422
1.02105
1.02629
1.029
1.03182
1.03309
1.03511
1.03701
1.04446
1.05915
1.09258
1.20191
1.41246
2.09763
2.82256
2.67657
2.80225
2.7525
2.74406
2.7481
2.75821
2.76331
2.77622
2.8037
2.75314
1.01423
1.02101
1.02632
1.02895
1.03186
1.03302
1.03516
1.03699
1.04502
1.05761
1.09567
1.19006
1.40928
2.05121
2.81229
2.69771
2.79588
2.7425
2.73465
2.73933
2.74532
2.74505
2.75383
2.78179
2.73666
1.01422
1.02101
1.02631
1.02895
1.03185
1.03303
1.03514
1.03692
1.04469
1.05689
1.09397
1.18458
1.3973
1.99548
2.8095
2.71106
2.78578
2.72743
2.72091
2.72555
2.73293
2.73213
2.72977
2.75387
2.71169
1.01423
1.02101
1.02631
1.02896
1.03185
1.03303
1.03511
1.03682
1.04432
1.05602
1.0922
1.17803
1.38466
1.93873
2.80388
2.71186
2.77796
2.71442
2.7053
2.70593
2.7092
2.70696
2.70363
2.71268
2.66177
1.01422
1.02103
1.0263
1.02897
1.03183
1.03304
1.03508
1.03671
1.04379
1.05527
1.0887
1.17524
1.36796
1.87434
2.79334
2.7172
2.75286
2.7012
2.69068
2.69168
2.68856
2.68132
2.66228
2.66335
2.56989
0.980061
0.967436
0.95582
0.946652
0.937763
0.931079
0.924368
0.920837
0.920281
0.929312
0.945099
1.02324
1.16537
1.66821
2.6146
2.74547
2.71052
2.65537
2.6177
2.61761
2.6282
2.6545
2.68472
2.7364
2.7105
0.981003
0.966481
0.956791
0.94566
0.938756
0.930059
0.925396
0.91986
0.923589
0.923693
0.953103
0.999763
1.19835
1.72882
2.48406
2.71611
2.67684
2.62892
2.59015
2.60575
2.61293
2.63748
2.6686
2.71802
2.69641
0.98012
0.967378
0.955882
0.946593
0.937824
0.931017
0.924416
0.920715
0.920221
0.92906
0.942733
1.02208
1.15829
1.66614
2.60622
2.7437
2.70551
2.65398
2.61543
2.6287
2.63673
2.66
2.69197
2.73994
2.72742
0.980892
0.966594
0.956677
0.945781
0.938635
0.930187
0.925243
0.919892
0.922847
0.924926
0.952978
1.00286
1.19118
1.71537
2.46894
2.71305
2.67579
2.62848
2.59781
2.60206
2.61661
2.64654
2.67982
2.73444
2.73225
0.980848
0.966643
0.956632
0.945831
0.938585
0.930237
0.925174
0.919899
0.922464
0.926069
0.952531
1.00423
1.18377
1.69832
2.46151
2.70834
2.66909
2.62243
2.59116
2.59614
2.61048
2.63971
2.67363
2.72894
2.73309
0.980905
0.966583
0.95669
0.945768
0.938648
0.930169
0.925256
0.919866
0.922863
0.924414
0.951116
0.999103
1.17799
1.68453
2.44601
2.69786
2.65613
2.61164
2.57703
2.57807
2.59219
2.6216
2.65566
2.71324
2.72867
0.980142
0.967355
0.955902
0.946569
0.937842
0.93099
0.924407
0.920572
0.92002
0.928036
0.942649
1.01375
1.14239
1.61411
2.52676
2.69875
2.65605
2.61036
2.57414
2.57117
2.588
2.60729
2.64589
2.69041
2.71788
0.980141
0.967353
0.955899
0.946568
0.937838
0.930987
0.924392
0.920502
0.919914
0.927478
0.942862
1.00957
1.13364
1.59334
2.50162
2.68918
2.64798
2.60694
2.57047
2.56702
2.58406
2.60111
2.63733
2.67901
2.69646
0.980273
0.967219
0.956034
0.946431
0.937971
0.930845
0.92447
0.920142
0.91957
0.926927
0.941327
1.00553
1.12234
1.57285
2.4712
2.6737
2.63131
2.59558
2.55789
2.55551
2.57187
2.58755
2.62028
2.66257
2.66286
0.980357
0.967138
0.95612
0.946347
0.938062
0.930759
0.924548
0.920059
0.919645
0.925951
0.937605
1.0009
1.10701
1.5523
2.43871
2.65348
2.62172
2.58629
2.54898
2.54317
2.55661
2.56676
2.58641
2.62202
2.58859
0.980788
0.966713
0.956561
0.945902
0.93852
0.930275
0.925089
0.919542
0.920643
0.920705
0.943099
0.976698
1.13486
1.49115
2.25832
2.60258
2.59229
2.56134
2.52533
2.52329
2.52933
2.54282
2.54172
2.53687
2.43843
0.979025
0.96851
0.954743
0.94777
0.936652
0.932187
0.923063
0.921616
0.918053
0.923899
0.932518
0.990598
1.08633
1.5044
2.34835
2.57962
2.57489
2.54509
2.50678
2.49845
2.49962
2.49856
2.48965
2.46557
2.36563
0.98107
0.966427
0.956852
0.945601
0.938816
0.929956
0.925342
0.918999
0.91964
0.91971
0.938984
0.96733
1.1095
1.40522
2.12223
2.52764
2.54135
2.52099
2.49291
2.48366
2.48198
2.47599
2.45962
2.42848
2.34482
0.979201
0.968328
0.954924
0.947576
0.936846
0.931981
0.923333
0.921019
0.917366
0.922044
0.930991
0.978908
1.06603
1.41192
2.1752
2.47554
2.49923
2.47817
2.45581
2.44657
2.44398
2.43708
2.42067
2.39333
2.33426
0.979297
0.968221
0.955024
0.94747
0.936949
0.931856
0.92343
0.920785
0.916766
0.920994
0.927838
0.971868
1.03889
1.35294
2.0828
2.44403
2.48199
2.46596
2.44518
2.42842
2.41561
2.40451
2.38231
2.3543
2.31021
0.980914
0.966579
0.956711
0.945739
0.938692
0.930054
0.925178
0.918661
0.917557
0.917097
0.93044
0.952578
1.05352
1.2457
1.83318
2.36636
2.44816
2.44603
2.43242
2.41602
2.3992
2.3824
2.35782
2.32462
2.28472
0.980761
0.966734
0.956566
0.945894
0.938541
0.930209
0.925002
0.918689
0.916857
0.916318
0.927233
0.947037
1.02968
1.18382
1.69181
2.25592
2.402
2.41485
2.41047
2.39916
2.38332
2.36599
2.3421
2.30838
2.26787
0.98061
0.966884
0.956417
0.946055
0.938358
0.930416
0.92479
0.918778
0.916274
0.915947
0.923505
0.945531
0.997763
1.1598
1.52976
2.09814
2.3333
2.34784
2.36066
2.35541
2.34915
2.34173
2.32667
2.30083
2.26538
0.980246
0.967254
0.956031
0.94643
0.938007
0.930737
0.924453
0.918982
0.915298
0.91499
0.920339
0.935275
0.977193
1.08995
1.3957
2.0426
2.28378
2.31114
2.31022
2.30321
2.29275
2.28685
2.2814
2.26965
2.2507
0.979573
0.967955
0.955311
0.947184
0.93724
0.931531
0.923618
0.919817
0.913982
0.914632
0.914656
0.92954
0.956287
1.05484
1.27891
1.81123
2.2441
2.30486
2.30386
2.29134
2.27861
2.26591
2.25584
2.24588
2.22864
0.981003
0.966496
0.956792
0.945663
0.938761
0.929975
0.925144
0.918188
0.915335
0.911898
0.914956
0.920366
0.95182
1.00603
1.21245
1.75816
2.15346
2.27837
2.28579
2.27593
2.26044
2.24754
2.23232
2.22236
2.20753
0.980027
0.967495
0.955778
0.94671
0.937713
0.931059
0.924052
0.919265
0.913989
0.91197
0.91147
0.919481
0.935382
0.992653
1.11592
1.46852
2.02841
2.24232
2.26405
2.26383
2.25323
2.24027
2.22781
2.21558
2.20604
0.980685
0.966814
0.956463
0.946003
0.938412
0.930336
0.924751
0.918516
0.914534
0.910701
0.912078
0.915436
0.928801
0.969443
1.05187
1.37724
1.82645
2.16528
2.23186
2.23823
2.23617
2.2291
2.21906
2.21516
2.21059
0.980713
0.96679
0.956517
0.945925
0.938481
0.930291
0.924794
0.918406
0.914647
0.910017
0.910405
0.911527
0.922085
0.946737
1.02269
1.19838
1.65211
2.09486
2.21597
2.23031
2.22939
2.2248
2.22055
2.21888
2.21999
0.980691
0.966802
0.956483
0.945968
0.938453
0.930278
0.924815
0.918382
0.914548
0.909707
0.908728
0.908436
0.916829
0.932854
0.991306
1.09869
1.45735
1.94382
2.16229
2.20784
2.21478
2.22136
2.22331
2.22929
2.23262
0.980407
0.967086
0.956195
0.946261
0.938166
0.930561
0.924541
0.918651
0.914251
0.909803
0.907606
0.907259
0.912282
0.923827
0.963485
1.03879
1.32405
1.85554
2.10523
2.18902
2.20407
2.21181
2.22315
2.23184
2.23991
0.980178
0.967325
0.955951
0.94652
0.93792
0.930834
0.924298
0.918923
0.913997
0.909972
0.906942
0.906756
0.909421
0.917887
0.944457
1.00455
1.18859
1.69054
2.05721
2.2025
2.22906
2.23627
2.23966
2.24279
2.2457
0.9806
0.966899
0.956387
0.94607
0.938362
0.930362
0.924743
0.918438
0.91442
0.909489
0.907186
0.905704
0.90738
0.913631
0.929394
0.979638
1.08593
1.47826
1.93276
2.18253
2.2439
2.25742
2.26001
2.25951
2.25725
0.980631
0.966869
0.956417
0.94604
0.9384
0.930317
0.924783
0.918423
0.914363
0.909557
0.906756
0.904381
0.905761
0.908976
0.922341
0.95502
1.04329
1.27818
1.77646
2.17583
2.28499
2.30111
2.29661
2.29249
2.2837
0.980549
0.967003
0.956296
0.946161
0.938286
0.930423
0.92466
0.918524
0.914281
0.909534
0.906553
0.903579
0.904702
0.906056
0.916423
0.94023
1.01397
1.17614
1.62017
2.1471
2.32365
2.34197
2.33133
2.31973
2.30423
0.980571
0.966932
0.956325
0.946136
0.938274
0.930452
0.924639
0.918551
0.914264
0.909554
0.906464
0.903342
0.903409
0.904571
0.911576
0.931874
0.984234
1.11384
1.46853
2.12261
2.34911
2.37603
2.35941
2.34109
2.31509
0.980602
0.966873
0.956403
0.946037
0.93838
0.93034
0.924745
0.918431
0.914386
0.90939
0.90659
0.902855
0.902405
0.902413
0.909235
0.923588
0.972735
1.06412
1.41555
2.09322
2.40505
2.44339
2.41691
2.39105
2.35021
0.980501
0.966977
0.956304
0.946134
0.93829
0.930427
0.924659
0.918518
0.914298
0.909473
0.90649
0.902841
0.90189
0.901645
0.907601
0.920411
0.964302
1.04882
1.37088
2.07087
2.45163
2.51133
2.48606
2.45405
2.4085
0.980401
0.967094
0.956185
0.946252
0.938173
0.930536
0.924551
0.918609
0.914207
0.909539
0.906412
0.902854
0.901568
0.901203
0.906602
0.917222
0.958377
1.03069
1.33188
2.0219
2.46786
2.55254
2.53397
2.50506
2.46232
0.980358
0.967109
0.956151
0.946282
0.938121
0.930604
0.924506
0.918692
0.914184
0.909639
0.906372
0.902926
0.901345
0.901008
0.905561
0.915459
0.951966
1.02234
1.28619
1.94023
2.47869
2.58445
2.56976
2.5322
2.48044
0.980274
0.967188
0.956084
0.946351
0.938092
0.930666
0.924475
0.918765
0.914125
0.90969
0.90631
0.902945
0.901217
0.900933
0.90474
0.914782
0.944363
1.01566
1.23426
1.82765
2.45844
2.58885
2.56809
2.516
2.46931
0.980557
0.967101
0.956155
0.946411
0.937979
0.93079
0.924283
0.91887
0.91395
0.909779
0.906139
0.902983
0.900881
0.900597
0.903772
0.91182
0.938178
0.994723
1.17853
1.71357
2.40014
2.57821
2.55902
2.5202
2.47236
0.980192
0.967353
0.955991
0.946524
0.937967
0.930819
0.924312
0.918895
0.913951
0.90982
0.906128
0.903035
0.900789
0.900633
0.90316
0.911547
0.931966
0.992109
1.13893
1.63408
2.29078
2.58338
2.57631
2.54678
2.49381
0.980674
0.966884
0.956349
0.94617
0.938166
0.930606
0.924398
0.918809
0.913944
0.909848
0.906064
0.90308
0.900721
0.900576
0.902574
0.909111
0.930178
0.978982
1.12887
1.53553
2.24948
2.60582
2.60359
2.56942
2.51367
0.980767
0.966653
0.956622
0.945814
0.938609
0.930123
0.924968
0.918232
0.914561
0.909238
0.906641
0.902572
0.901098
0.900297
0.902036
0.907799
0.928802
0.973014
1.12276
1.48575
2.22849
2.60724
2.60614
2.57172
2.52201
0.980686
0.966778
0.956533
0.94588
0.938545
0.930171
0.924898
0.918286
0.91454
0.909184
0.906803
0.90227
0.901488
0.899716
0.901887
0.90671
0.928292
0.968272
1.11887
1.45953
2.20466
2.59828
2.60518
2.57394
2.53274
0.980584
0.966853
0.956437
0.946001
0.938411
0.930343
0.924725
0.918501
0.914297
0.909532
0.906349
0.902878
0.900836
0.900525
0.90207
0.908121
0.92626
0.974263
1.10601
1.49601
2.18866
2.58007
2.59863
2.57198
2.54155
0.980665
0.966793
0.956439
0.946004
0.938361
0.93035
0.924739
0.918394
0.914507
0.909201
0.906805
0.902336
0.901391
0.899589
0.901597
0.906357
0.926677
0.966855
1.10994
1.43719
2.17782
2.58762
2.60956
2.5846
2.5584
0.980572
0.966836
0.956464
0.945941
0.938461
0.930309
0.924745
0.918482
0.914388
0.909354
0.906674
0.902416
0.901298
0.899546
0.901415
0.905904
0.926143
0.966026
1.10907
1.43091
2.17303
2.59219
2.61674
2.59647
2.56547
0.980438
0.967005
0.956337
0.946097
0.938402
0.930328
0.924821
0.918387
0.914434
0.90938
0.906533
0.902583
0.901055
0.899406
0.901323
0.905802
0.926105
0.963828
1.10907
1.42409
2.17602
2.61055
2.63378
2.61367
2.57848
0.980382
0.967127
0.956216
0.94625
0.938242
0.930481
0.924693
0.918426
0.914479
0.909271
0.906621
0.902529
0.901051
0.899306
0.901238
0.905711
0.925551
0.965663
1.10485
1.44189
2.16508
2.63729
2.65544
2.63675
2.60558
0.980412
0.967101
0.956199
0.94629
0.938155
0.9306
0.924527
0.918651
0.914199
0.909575
0.906343
0.90275
0.900958
0.899861
0.901515
0.9071
0.924456
0.971346
1.09725
1.498
2.1695
2.68991
2.69499
2.67941
2.64271
0.980529
0.966993
0.95626
0.946248
0.938127
0.930651
0.924427
0.918739
0.914129
0.909596
0.906353
0.902681
0.900965
0.899246
0.901085
0.905422
0.92605
0.966411
1.10777
1.48623
2.14361
2.76214
2.77303
2.75388
2.6595
0.980513
0.967023
0.956234
0.946264
0.938134
0.930616
0.924475
0.918707
0.914104
0.909674
0.906259
0.902752
0.900818
0.899303
0.901074
0.906557
0.925325
0.973275
1.10642
1.56203
2.10755
2.8417
2.88106
2.82857
2.6242
0.980461
0.967048
0.956245
0.946235
0.938195
0.930569
0.924534
0.918654
0.914184
0.909564
0.906334
0.902793
0.900641
0.899433
0.901305
0.907234
0.92579
0.981779
1.11035
1.66766
2.08337
2.90314
2.94365
2.84323
2.60114
1.01386
1.02139
1.02594
1.02934
1.03146
1.03343
1.03472
1.03731
1.04158
1.05682
1.08635
1.15924
1.37509
1.9302
2.76038
2.73026
2.73118
2.69215
2.67478
2.67041
2.66246
2.65307
2.62138
2.58368
2.45788
1.01376
1.02143
1.02588
1.02935
1.03143
1.03342
1.03469
1.03722
1.04135
1.05406
1.08591
1.14671
1.36649
1.87404
2.73602
2.73129
2.71407
2.67554
2.66294
2.65623
2.63863
2.61803
2.58017
2.52665
2.40953
1.01385
1.02141
1.02592
1.02937
1.03144
1.03344
1.0346
1.03688
1.04067
1.05417
1.0808
1.14344
1.34014
1.80749
2.69798
2.73057
2.70295
2.64742
2.64052
2.63623
2.62049
2.59354
2.54019
2.48833
2.39532
1.01375
1.02144
1.02587
1.02936
1.03141
1.03341
1.03452
1.03658
1.04042
1.05032
1.07943
1.12818
1.3267
1.74781
2.61725
2.72082
2.68842
2.64455
2.62147
2.61285
2.59537
2.57044
2.51638
2.46581
2.39284
1.01403
1.02117
1.02614
1.02909
1.03169
1.03311
1.03484
1.03609
1.0408
1.04948
1.07192
1.13949
1.27031
1.70161
2.60689
2.69559
2.64501
2.63729
2.61616
2.59898
2.57232
2.54696
2.49605
2.44577
2.39054
1.01409
1.02118
1.02616
1.02914
1.03167
1.0332
1.0347
1.03603
1.03914
1.04939
1.06973
1.11761
1.27387
1.5867
2.44668
2.67082
2.65263
2.61633
2.60165
2.58777
2.55662
2.53355
2.48499
2.43136
2.38731
1.01417
1.02109
1.02625
1.02904
1.03177
1.03309
1.03477
1.03578
1.03859
1.04789
1.06519
1.10791
1.24182
1.51298
2.27518
2.6167
2.64719
2.61646
2.59053
2.57534
2.54183
2.51465
2.48163
2.42184
2.38325
1.01404
1.02121
1.02614
1.02915
1.03167
1.03317
1.03473
1.03584
1.03895
1.04465
1.05926
1.10311
1.18091
1.47248
2.19812
2.52655
2.62408
2.60722
2.58254
2.56682
2.53744
2.50206
2.47531
2.42291
2.38055
1.014
1.02124
1.0261
1.02917
1.03164
1.03318
1.03469
1.03576
1.03839
1.04275
1.05603
1.08939
1.15584
1.37602
1.96638
2.46468
2.60095
2.59117
2.56562
2.54559
2.52837
2.49303
2.47179
2.4286
2.38412
1.01395
1.02127
1.02606
1.02918
1.03161
1.03318
1.03463
1.0356
1.03755
1.04093
1.0534
1.07438
1.13827
1.28039
1.75893
2.32544
2.56132
2.56442
2.55517
2.53138
2.51668
2.48536
2.46238
2.43487
2.39474
1.01382
1.02144
1.0259
1.02938
1.03142
1.03341
1.03439
1.03579
1.03682
1.04089
1.04768
1.06735
1.12041
1.22098
1.58339
2.29433
2.49771
2.52766
2.52614
2.52095
2.51103
2.48767
2.46187
2.43872
2.41237
1.01379
1.02143
1.02589
1.02936
1.03142
1.03338
1.03439
1.0357
1.03665
1.03984
1.04508
1.06091
1.10193
1.18198
1.45787
2.15408
2.44476
2.50873
2.50302
2.4977
2.49591
2.48711
2.46588
2.44665
2.43207
1.01404
1.02121
1.02612
1.02916
1.03164
1.03318
1.0346
1.03543
1.03661
1.0381
1.04294
1.05539
1.0789
1.16389
1.31639
1.8007
2.3482
2.49193
2.4906
2.48698
2.47852
2.47827
2.47431
2.46289
2.45638
1.01389
1.02136
1.02597
1.0293
1.03149
1.03332
1.03444
1.03558
1.0363
1.03788
1.04092
1.05098
1.07024
1.12335
1.24807
1.63385
2.19849
2.45352
2.47097
2.47408
2.47067
2.47235
2.47888
2.48227
2.48117
1.01402
1.02124
1.0261
1.0292
1.0316
1.03323
1.03452
1.03549
1.03627
1.03729
1.03956
1.04758
1.06204
1.0992
1.20667
1.44172
2.025
2.39534
2.46525
2.46557
2.46944
2.47532
2.48941
2.49604
2.50555
1.01405
1.02119
1.02614
1.02913
1.03167
1.03314
1.03461
1.03537
1.03635
1.03699
1.03865
1.04505
1.05469
1.08502
1.15572
1.32159
1.81657
2.27645
2.44446
2.46591
2.47381
2.48589
2.49985
2.514
2.51985
1.01387
1.02135
1.02598
1.02928
1.03152
1.03328
1.03447
1.03549
1.03621
1.037
1.03806
1.04261
1.04936
1.0719
1.12128
1.23407
1.56254
2.20318
2.39809
2.46139
2.48241
2.50097
2.51659
2.52935
2.53118
1.014
1.02125
1.02609
1.02919
1.03162
1.0332
1.03457
1.0354
1.0363
1.03684
1.03796
1.04007
1.0469
1.06164
1.09457
1.19924
1.40674
1.97963
2.3669
2.47802
2.50734
2.52464
2.53541
2.54461
2.54615
1.01385
1.0214
1.02594
1.02934
1.03147
1.03334
1.03441
1.03556
1.03611
1.03699
1.03757
1.0398
1.04344
1.05622
1.08044
1.14585
1.30837
1.77949
2.28655
2.47873
2.52756
2.54163
2.5476
2.55182
2.54946
1.01387
1.02138
1.02596
1.02931
1.03149
1.03332
1.03443
1.03554
1.03612
1.03694
1.03747
1.03915
1.04177
1.05204
1.06945
1.11933
1.24317
1.56662
2.20494
2.50057
2.57175
2.56962
2.56673
2.55956
2.54783
1.01389
1.02136
1.02597
1.0293
1.0315
1.03331
1.03444
1.03553
1.03613
1.03691
1.03737
1.03863
1.04066
1.04897
1.06248
1.10129
1.20513
1.43441
2.07325
2.49912
2.62799
2.62198
2.60472
2.58524
2.55651
1.01394
1.02134
1.026
1.02929
1.03151
1.0333
1.03445
1.03552
1.03614
1.03688
1.03728
1.03815
1.03985
1.04637
1.05728
1.0878
1.17099
1.34715
1.83652
2.4685
2.64959
2.64341
2.62521
2.59864
2.57056
1.01402
1.02124
1.0261
1.02918
1.03161
1.03321
1.03453
1.03545
1.03619
1.03685
1.03724
1.03795
1.03937
1.04527
1.05355
1.0825
1.14503
1.29864
1.71249
2.51634
2.6855
2.67753
2.64948
2.61334
2.57987
1.01404
1.0212
1.02613
1.02913
1.03166
1.03315
1.03459
1.03536
1.03628
1.03673
1.03736
1.03781
1.03908
1.04406
1.05164
1.07595
1.13568
1.26834
1.67448
2.51861
2.7268
2.72438
2.68722
2.64314
2.59912
1.01399
1.02124
1.02609
1.02916
1.03164
1.03316
1.03459
1.03537
1.03629
1.03672
1.03739
1.03779
1.03888
1.04323
1.05
1.07063
1.12657
1.23464
1.63049
2.48499
2.75794
2.76656
2.72095
2.67318
2.62305
1.01397
1.02126
1.02607
1.02919
1.03161
1.0332
1.03456
1.0354
1.03626
1.03674
1.03738
1.03778
1.03904
1.04179
1.04766
1.0689
1.10242
1.24866
1.5298
2.27949
2.76517
2.79297
2.76157
2.7046
2.65589
1.0139
1.02135
1.026
1.02928
1.03153
1.03328
1.03448
1.03547
1.03619
1.0368
1.0373
1.03782
1.03858
1.04161
1.04749
1.06223
1.1091
1.19378
1.51468
2.24065
2.77404
2.80139
2.77437
2.71008
2.66771
1.01395
1.02129
1.02605
1.02922
1.03159
1.03321
1.03454
1.03541
1.03625
1.03675
1.03737
1.03775
1.03878
1.0408
1.04613
1.06204
1.09059
1.20162
1.4109
2.01225
2.78885
2.8117
2.78533
2.71804
2.68316
1.014
1.02125
1.02608
1.02919
1.03161
1.0332
1.03455
1.0354
1.03626
1.03674
1.03737
1.03774
1.03875
1.04044
1.04628
1.05916
1.08802
1.18211
1.37102
1.87644
2.7756
2.82126
2.8017
2.74599
2.71164
1.01389
1.02134
1.02599
1.02928
1.03151
1.03329
1.03446
1.03549
1.03616
1.03684
1.03726
1.0378
1.03838
1.04106
1.04501
1.05943
1.08835
1.1596
1.37117
1.92926
2.72469
2.81797
2.80376
2.75718
2.73007
1.01388
1.02136
1.02598
1.02929
1.03151
1.0333
1.03445
1.03551
1.03614
1.03685
1.03725
1.03781
1.03834
1.04081
1.04487
1.05736
1.08865
1.15389
1.36633
1.89747
2.70444
2.80863
2.79542
2.75766
2.73815
1.01396
1.02128
1.02605
1.02921
1.03157
1.03321
1.03452
1.03542
1.03623
1.03675
1.03735
1.0377
1.03852
1.04021
1.04437
1.05728
1.07904
1.16775
1.3201
1.82692
2.77491
2.82047
2.80298
2.76866
2.75093
1.01387
1.02136
1.02597
1.02929
1.0315
1.0333
1.03445
1.0355
1.03616
1.03684
1.03726
1.0378
1.03834
1.04076
1.04446
1.05769
1.08439
1.1503
1.34276
1.85529
2.69781
2.81522
2.80492
2.78804
2.77529
1.01385
1.02137
1.02597
1.02929
1.03151
1.03331
1.03445
1.03552
1.03615
1.03685
1.03726
1.03779
1.03835
1.04085
1.04435
1.05827
1.08298
1.15192
1.33459
1.85566
2.68526
2.81693
2.81443
2.80624
2.79195
1.01383
1.0214
1.02594
1.02932
1.03149
1.03332
1.03445
1.03552
1.03615
1.03685
1.03725
1.03779
1.03832
1.04069
1.04427
1.05731
1.08298
1.1501
1.33516
1.86446
2.67144
2.83065
2.83845
2.82718
2.79519
1.01382
1.02143
1.02592
1.02935
1.03146
1.03334
1.03443
1.03552
1.03614
1.03686
1.03724
1.0378
1.0383
1.0406
1.04406
1.05706
1.08198
1.14948
1.33046
1.882
2.65607
2.85893
2.86661
2.84447
2.77528
1.01382
1.02144
1.0259
1.02939
1.03143
1.03338
1.03441
1.03552
1.03619
1.03677
1.03733
1.03768
1.03833
1.0399
1.04364
1.05583
1.07615
1.16131
1.31111
1.82403
2.74417
2.93572
2.92604
2.86372
2.74448
1.01388
1.02137
1.02596
1.02933
1.03147
1.03335
1.0344
1.03556
1.0361
1.03689
1.0372
1.03783
1.03821
1.04016
1.04386
1.05406
1.0843
1.14556
1.34361
1.92866
2.64583
2.98465
2.95769
2.8451
2.72069
1.01388
1.02139
1.02594
1.02935
1.03145
1.03337
1.03439
1.03556
1.03611
1.03685
1.03729
1.03763
1.03834
1.03968
1.04385
1.05525
1.07841
1.1613
1.32214
1.84925
2.77974
3.09533
3.00277
2.82921
2.70612
1.01388
1.02138
1.02595
1.02933
1.03146
1.03336
1.0344
1.03556
1.0361
1.03687
1.03726
1.03764
1.03829
1.03963
1.04363
1.05521
1.07823
1.16228
1.32544
1.86926
2.8137
3.15404
3.02538
2.82722
2.69989
1.00574
1.01328
1.0209
1.02861
1.03506
1.04124
1.04633
1.05188
1.05901
1.07834
1.11393
1.20121
1.44011
2.09764
2.79678
2.63088
2.74272
2.67691
2.67458
2.64932
2.62903
2.63963
2.60833
2.54842
2.39672
1.0057
1.01332
1.02086
1.02865
1.03502
1.04127
1.04627
1.05184
1.05867
1.07754
1.11022
1.19565
1.41579
2.051
2.76371
2.65878
2.73424
2.65711
2.65353
2.6375
2.60304
2.59982
2.56725
2.50124
2.35529
1.00627
1.01275
1.02143
1.02807
1.03561
1.04066
1.04691
1.05107
1.0593
1.07314
1.10703
1.19629
1.37466
1.8774
2.78266
2.67708
2.71027
2.65445
2.63729
2.62004
2.57697
2.56354
2.52926
2.46662
2.35682
1.00632
1.0127
1.02148
1.02802
1.03566
1.0406
1.04692
1.05085
1.05857
1.07148
1.10305
1.18564
1.34596
1.83285
2.76993
2.70541
2.68095
2.64269
2.62718
2.60844
2.5589
2.53076
2.49666
2.45237
2.36193
1.00636
1.01266
1.02151
1.02799
1.03565
1.04062
1.0468
1.05091
1.05765
1.06977
1.10144
1.15513
1.36129
1.77355
2.70381
2.70622
2.67186
2.62935
2.6129
2.59516
2.54529
2.50623
2.46789
2.43158
2.37021
1.00596
1.01305
1.02111
1.0284
1.03525
1.04102
1.04639
1.05125
1.05742
1.07105
1.09559
1.15511
1.32909
1.6963
2.61641
2.69837
2.64522
2.63105
2.60409
2.5844
2.53737
2.48856
2.44749
2.41902
2.37082
1.00578
1.01324
1.02093
1.02858
1.03507
1.04119
1.04621
1.05132
1.05683
1.06919
1.09058
1.14457
1.2947
1.6175
2.49135
2.67068
2.6562
2.62594
2.59585
2.57619
2.53384
2.48155
2.43058
2.39903
2.37083
1.00583
1.01319
1.02098
1.02853
1.03513
1.04113
1.04624
1.05118
1.05626
1.06624
1.08584
1.12883
1.26116
1.52086
2.33283
2.61721
2.65775
2.63095
2.58777
2.5678
2.53206
2.48268
2.42872
2.38678
2.36397
1.00567
1.01335
1.02083
1.02867
1.03498
1.04127
1.04608
1.05125
1.0556
1.06417
1.08013
1.11635
1.22164
1.42664
2.09236
2.55277
2.64446
2.62575
2.58326
2.55859
2.53027
2.48529
2.43322
2.38751
2.35815
1.00602
1.01299
1.02118
1.02832
1.03534
1.04091
1.04644
1.05073
1.05559
1.06143
1.0776
1.10439
1.17882
1.35286
1.89734
2.46985
2.61378
2.60123
2.571
2.54829
2.52721
2.49358
2.44405
2.39418
2.36208
1.00548
1.01353
1.02065
1.02885
1.03481
1.04142
1.04592
1.05117
1.05485
1.06061
1.07154
1.09756
1.14693
1.30842
1.68652
2.41467
2.58653
2.58236
2.56674
2.53571
2.51901
2.49809
2.46182
2.40975
2.37578
1.00583
1.01317
1.021
1.02849
1.03517
1.04106
1.04625
1.05082
1.0549
1.05958
1.06756
1.08952
1.13707
1.23745
1.5629
2.316
2.51294
2.57022
2.56147
2.53705
2.51755
2.49906
2.47954
2.44216
2.40139
1.00608
1.01292
1.02125
1.02824
1.03541
1.04082
1.04649
1.05053
1.05505
1.05871
1.06538
1.08142
1.11933
1.19544
1.42912
2.1295
2.443
2.54446
2.54323
2.53579
2.51885
2.50208
2.49265
2.47603
2.45207
1.00614
1.01288
1.02129
1.02821
1.03545
1.04079
1.04653
1.05047
1.05507
1.05823
1.06436
1.07549
1.10149
1.17139
1.3082
1.71783
2.38735
2.51907
2.52917
2.52889
2.52222
2.50985
2.50913
2.50597
2.49815
1.00524
1.01377
1.02042
1.02907
1.0346
1.04161
1.04571
1.05123