/*--------------------------------*- C++ -*----------------------------------*\
  =========                 |
  \\      /  F ield         | OpenFOAM: The Open Source CFD Toolbox
   \\    /   O peration     | Website:  https://openfoam.org
    \\  /    A nd           | Version:  6
     \\/     M anipulation  |
\*---------------------------------------------------------------------------*/
FoamFile
{
    version     2.0;
    format      ascii;
    class       volVectorField;
    location    "7.5";
    object      U;
}
// * * * * * * * * * * * * * * * * * * * * * * * * * * * * * * * * * * * * * //

dimensions      [0 1 -1 0 0 0 0];

internalField   nonuniform List<vector> 
26250
(
(3.01561 2.86384e-08 -0.0579607)
(3.02577 4.22604e-07 -0.0597793)
(3.03427 2.86182e-07 -0.0611169)
(3.0414 1.04022e-06 -0.0622837)
(3.04762 1.46724e-07 -0.0631465)
(3.05271 1.43701e-06 -0.0640316)
(3.05722 -3.79618e-07 -0.0645773)
(3.05975 4.18523e-06 -0.0654654)
(3.05793 9.96778e-06 -0.0660695)
(3.0548 3.23247e-05 -0.0678354)
(3.03283 6.50124e-05 -0.0706521)
(2.9906 0.000203331 -0.0798046)
(2.8331 0.000493436 -0.0967687)
(2.37168 0.0013713 -0.147515)
(1.26285 0.0040138 -0.24867)
(0.50742 0.00809889 -0.27942)
(0.667522 0.010807 -0.259989)
(0.861493 0.0129197 -0.253974)
(0.950318 0.0165426 -0.2575)
(0.930412 0.0233679 -0.262723)
(0.912635 0.0241271 -0.263712)
(0.856937 0.0193555 -0.2663)
(0.724684 0.0102731 -0.269948)
(0.490045 0.0091049 -0.270832)
(0.287364 0.0032897 -0.265875)
(3.01561 8.83646e-07 -0.057961)
(3.02577 1.57674e-06 -0.0597789)
(3.03427 1.3522e-06 -0.0611172)
(3.0414 3.00507e-06 -0.0622834)
(3.04762 2.68145e-08 -0.0631467)
(3.05271 4.16539e-06 -0.0640314)
(3.05722 -2.06545e-06 -0.0645773)
(3.05975 1.44159e-05 -0.0654649)
(3.05795 3.50186e-05 -0.066068)
(3.05485 0.00011134 -0.0678309)
(3.03297 0.000217924 -0.0706391)
(2.99097 0.000627383 -0.0797747)
(2.83398 0.00145443 -0.0967097)
(2.37497 0.00378331 -0.147326)
(1.27265 0.0112555 -0.248494)
(0.513457 0.0247837 -0.278775)
(0.672775 0.0333314 -0.259275)
(0.866672 0.039392 -0.252619)
(0.956671 0.0462351 -0.256135)
(0.956423 0.0532884 -0.259228)
(0.925455 0.0552836 -0.261752)
(0.863892 0.0489774 -0.264537)
(0.742065 0.0356675 -0.267168)
(0.522122 0.0340468 -0.268894)
(0.329037 0.0273227 -0.263887)
(3.01561 6.7978e-06 -0.0579614)
(3.02577 5.57994e-07 -0.0597783)
(3.03427 3.18436e-06 -0.0611177)
(3.0414 -1.32068e-07 -0.0622828)
(3.04762 -1.90437e-06 -0.063147)
(3.05271 1.91458e-06 -0.064031)
(3.05723 -5.82977e-06 -0.0645768)
(3.05978 3.01338e-05 -0.0654635)
(3.05801 7.75864e-05 -0.066064)
(3.05496 0.000360635 -0.0678173)
(3.03324 0.000716341 -0.0706134)
(2.99165 0.00175044 -0.0796878)
(2.83542 0.003471 -0.0965509)
(2.37951 0.00775824 -0.146934)
(1.28284 0.0192553 -0.247774)
(0.521877 0.0431147 -0.278053)
(0.679273 0.0571036 -0.258366)
(0.871113 0.0652144 -0.251264)
(0.959701 0.0707892 -0.254965)
(0.958592 0.0741454 -0.258062)
(0.921697 0.0786187 -0.26095)
(0.8527 0.0799417 -0.263252)
(0.732261 0.0757147 -0.265277)
(0.514575 0.0744493 -0.26713)
(0.316533 0.0699924 -0.26228)
(3.01561 2.78125e-05 -0.0579648)
(3.02577 -8.92223e-06 -0.0597743)
(3.03427 1.16872e-05 -0.0611215)
(3.0414 -1.39315e-05 -0.0622786)
(3.04762 2.63539e-06 -0.0631509)
(3.0527 -1.55968e-05 -0.0640269)
(3.05725 4.05118e-06 -0.0645791)
(3.05982 -1.38726e-05 -0.0654575)
(3.05822 -3.49666e-05 -0.0660572)
(3.05538 0.001493 -0.0678124)
(3.03408 -0.00293416 -0.0704522)
(2.99347 0.0112946 -0.0795632)
(2.83792 -0.00996288 -0.0959944)
(2.39513 0.0402859 -0.146178)
(1.30128 0.0334796 -0.246987)
(0.54534 0.0739325 -0.276959)
(0.696213 0.0919331 -0.256939)
(0.880616 0.101845 -0.249559)
(0.965041 0.107474 -0.253679)
(0.952011 0.113864 -0.257871)
(0.919276 0.120022 -0.259778)
(0.850692 0.125165 -0.262014)
(0.725396 0.127378 -0.26344)
(0.502776 0.126419 -0.26494)
(0.298849 0.119857 -0.261011)
(3.01561 6.83697e-06 -0.0580073)
(3.02576 2.59267e-07 -0.0597265)
(3.03427 2.65118e-06 -0.0611694)
(3.04139 -3.42667e-07 -0.0622269)
(3.04762 -2.80639e-06 -0.0632028)
(3.05271 3.09058e-06 -0.0639713)
(3.05723 -6.54237e-06 -0.0646347)
(3.05974 4.2576e-05 -0.0653925)
(3.05925 0.000106372 -0.0661597)
(3.05252 0.00048496 -0.0677558)
(3.04074 0.000981653 -0.0698231)
(2.98606 0.00265453 -0.0800059)
(2.84793 0.00590675 -0.093766)
(2.43932 0.0146558 -0.152338)
(1.34128 0.0395775 -0.239824)
(0.584027 0.0861815 -0.273918)
(0.721969 0.112385 -0.253946)
(0.898108 0.124905 -0.246223)
(0.977935 0.136799 -0.250251)
(0.970777 0.150006 -0.253712)
(0.934902 0.162075 -0.255959)
(0.864341 0.171367 -0.258163)
(0.735064 0.178257 -0.2593)
(0.506819 0.181975 -0.260493)
(0.296439 0.175187 -0.257289)
(3.01561 -2.34894e-06 -0.05797)
(3.02576 1.99617e-06 -0.0597684)
(3.03427 -1.00653e-06 -0.0611271)
(3.04139 3.56752e-06 -0.0622725)
(3.04762 -5.40265e-07 -0.0631565)
(3.0527 4.71502e-06 -0.0640208)
(3.05728 2.65985e-06 -0.0645816)
(3.05992 1.22847e-05 -0.0654454)
(3.05858 8.84943e-05 -0.066035)
(3.0561 0.000116772 -0.0677634)
(3.03583 0.000792364 -0.0701794)
(2.99762 0.00181287 -0.0791182)
(2.84658 0.00585533 -0.0945832)
(2.43008 0.0161923 -0.143684)
(1.3715 0.0475507 -0.242391)
(0.62 0.105424 -0.273858)
(0.748856 0.137464 -0.252872)
(0.913568 0.153228 -0.243607)
(0.993731 0.169235 -0.247673)
(0.987421 0.187458 -0.251038)
(0.949196 0.204998 -0.253097)
(0.877884 0.21899 -0.254778)
(0.748084 0.231653 -0.255176)
(0.515738 0.243441 -0.255877)
(0.299132 0.240384 -0.252706)
(3.01561 -5.08692e-06 -0.0580039)
(3.02576 2.21664e-06 -0.0597303)
(3.03427 -4.40771e-06 -0.0611656)
(3.04139 7.65376e-06 -0.062231)
(3.04762 -5.46253e-06 -0.0631986)
(3.05271 1.50124e-05 -0.0639746)
(3.05724 -4.80642e-06 -0.0646303)
(3.05981 4.52051e-05 -0.0653843)
(3.05933 0.000103945 -0.0661427)
(3.0531 0.000254481 -0.0676811)
(3.04213 0.000495216 -0.0696748)
(2.99027 0.00201759 -0.0794274)
(2.85971 0.00573304 -0.0924989)
(2.47244 0.0175839 -0.14855)
(1.42306 0.0589037 -0.234233)
(0.666106 0.127663 -0.271048)
(0.779282 0.165736 -0.250472)
(0.934286 0.183707 -0.240571)
(1.01138 0.202626 -0.244293)
(1.00703 0.224302 -0.247353)
(0.967186 0.247242 -0.249501)
(0.895852 0.267535 -0.25062)
(0.767172 0.289025 -0.250321)
(0.531424 0.313374 -0.250275)
(0.307236 0.322339 -0.246972)
(3.01561 -1.93174e-05 -0.0579711)
(3.02577 1.02009e-05 -0.0597674)
(3.03428 -1.30982e-05 -0.0611283)
(3.04139 2.11218e-05 -0.0622717)
(3.04763 -1.89165e-05 -0.0631564)
(3.0527 4.38959e-05 -0.0640203)
(3.0573 -3.30645e-05 -0.0645785)
(3.06001 0.00018244 -0.0654376)
(3.05876 0.000392928 -0.0660077)
(3.05642 -0.000332356 -0.0676406)
(3.0373 0.00456686 -0.070061)
(3.00182 -0.00555323 -0.0783723)
(2.85992 0.0215844 -0.0930701)
(2.46845 -0.00593028 -0.139731)
(1.48366 0.0658787 -0.236112)
(0.705377 0.144126 -0.271301)
(0.807178 0.189763 -0.24946)
(0.950271 0.208585 -0.237725)
(1.02929 0.231309 -0.241226)
(1.02653 0.258296 -0.244165)
(0.987261 0.287719 -0.246037)
(0.918478 0.316087 -0.246286)
(0.794245 0.349831 -0.245237)
(0.558105 0.394138 -0.244053)
(0.326106 0.431303 -0.239493)
(3.01562 4.13683e-06 -0.0579752)
(3.02576 -3.23941e-06 -0.0597631)
(3.03428 -1.43692e-07 -0.0611324)
(3.04139 -4.35911e-06 -0.0622673)
(3.04764 -2.75815e-06 -0.0631605)
(3.0527 2.32121e-06 -0.0640175)
(3.05735 -3.60094e-06 -0.064577)
(3.06017 6.84606e-05 -0.0654332)
(3.05891 0.000160445 -0.0659905)
(3.05659 0.000649812 -0.0675463)
(3.03825 0.00132559 -0.0700269)
(3.00447 0.00413882 -0.0778551)
(2.86881 0.00951984 -0.0923727)
(2.48874 0.0270253 -0.136908)
(1.5607 0.0741992 -0.232178)
(0.77476 0.171688 -0.269133)
(0.850889 0.222232 -0.247765)
(0.976797 0.243413 -0.234471)
(1.05477 0.266335 -0.237877)
(1.05152 0.296178 -0.240728)
(1.01362 0.329841 -0.241985)
(0.949826 0.365853 -0.241586)
(0.835969 0.414518 -0.239111)
(0.608444 0.488017 -0.236869)
(0.368886 0.584792 -0.229375)
(3.01561 1.41598e-05 -0.0579802)
(3.02576 -1.30671e-05 -0.0597567)
(3.03427 1.46197e-05 -0.061139)
(3.04139 -3.11855e-05 -0.0622592)
(3.04763 3.69432e-05 -0.0631694)
(3.0527 -7.39646e-05 -0.0640064)
(3.05736 0.000108213 -0.0645873)
(3.06014 -0.000203767 -0.0654184)
(3.05923 0.000193705 -0.0659602)
(3.05738 0.00172173 -0.0675034)
(3.0401 -0.00121777 -0.0696518)
(3.00875 0.0125556 -0.0775552)
(2.87797 -0.00394361 -0.0906357)
(2.52112 0.0593332 -0.134527)
(1.62314 0.0770973 -0.228352)
(0.849798 0.196168 -0.266568)
(0.895058 0.25607 -0.245939)
(1.00492 0.283644 -0.231183)
(1.08225 0.306086 -0.234411)
(1.08051 0.336768 -0.23726)
(1.04718 0.372339 -0.237876)
(0.993131 0.415113 -0.236572)
(0.899951 0.484411 -0.232502)
(0.706563 0.603154 -0.226963)
(0.458966 0.833854 -0.214705)
(2.98855 -2.85229e-07 -0.00143115)
(2.98291 3.66435e-07 -0.00328869)
(2.97953 1.59912e-07 -0.00492944)
(2.97738 9.64012e-07 -0.00644521)
(2.97596 3.99238e-07 -0.00768363)
(2.97499 1.20598e-06 -0.00889358)
(2.97409 5.10198e-07 -0.00974564)
(2.97238 1.92381e-06 -0.0108025)
(2.96674 7.75255e-06 -0.0112939)
(2.95607 2.32648e-05 -0.0122113)
(2.9204 6.85629e-05 -0.0137913)
(2.84191 0.000163811 -0.0170261)
(2.61365 0.000425538 -0.0241685)
(1.88014 0.00116542 -0.0397191)
(0.314074 0.00316847 -0.0658526)
(-0.635843 0.010497 -0.0628624)
(-0.0156506 0.0183431 -0.0597445)
(0.416547 0.0268899 -0.0588345)
(0.501666 0.0402916 -0.061434)
(0.397537 0.0650768 -0.0614619)
(0.378697 0.0663431 -0.0633605)
(0.283534 0.0547 -0.0637971)
(0.092784 0.0457149 -0.0640036)
(0.0105832 0.0392215 -0.0613606)
(0.159979 0.0158299 -0.0558965)
(2.98855 2.80176e-07 -0.00143107)
(2.98291 1.24303e-06 -0.00328878)
(2.97953 1.19329e-06 -0.00492937)
(2.97738 2.57686e-06 -0.0064454)
(2.97597 1.34803e-06 -0.00768349)
(2.97499 3.19616e-06 -0.00889375)
(2.97409 1.65895e-06 -0.00974547)
(2.97238 8.62727e-06 -0.0108025)
(2.96676 3.03761e-05 -0.0112962)
(2.95612 9.95989e-05 -0.0122037)
(2.92051 0.000233154 -0.0138141)
(2.84222 0.000679229 -0.0169892)
(2.61436 0.00154159 -0.0242471)
(1.88248 0.0045162 -0.0397323)
(0.319727 0.0126157 -0.066104)
(-0.629403 0.0347051 -0.0627528)
(-0.00615966 0.0550808 -0.0594812)
(0.426953 0.0737416 -0.0584479)
(0.520711 0.0917137 -0.0610614)
(0.458805 0.121237 -0.0623945)
(0.396717 0.118547 -0.0628352)
(0.292364 0.108787 -0.0624284)
(0.126742 0.102213 -0.0624503)
(0.0151173 0.103755 -0.0606093)
(0.187501 0.0663083 -0.0552863)
(2.98855 3.43722e-06 -0.00143129)
(2.98291 1.78129e-06 -0.00328877)
(2.97953 2.93565e-06 -0.00492938)
(2.97738 2.03211e-06 -0.00644548)
(2.97597 1.05423e-06 -0.00768312)
(2.97499 2.55463e-06 -0.00889434)
(2.97409 1.12188e-06 -0.00974439)
(2.9724 1.73567e-05 -0.0108047)
(2.96681 6.38587e-05 -0.0112938)
(2.95624 0.000212719 -0.0122139)
(2.92086 0.000460331 -0.0137849)
(2.84303 0.00140734 -0.017027)
(2.61652 0.00299254 -0.0241605)
(1.88923 0.00887854 -0.0396798)
(0.333975 0.0238353 -0.0659493)
(-0.611246 0.0617347 -0.062687)
(0.0064488 0.0931495 -0.0591261)
(0.43526 0.118758 -0.057937)
(0.525382 0.133789 -0.0607438)
(0.469885 0.141129 -0.0624826)
(0.399549 0.156449 -0.0624638)
(0.294464 0.168647 -0.061356)
(0.138735 0.175576 -0.0608492)
(0.0152856 0.182409 -0.0591972)
(0.17451 0.135298 -0.0539785)
(2.98855 1.18033e-05 -0.00143241)
(2.98291 1.28786e-06 -0.00328747)
(2.97953 8.11011e-06 -0.00492993)
(2.97738 -6.9434e-07 -0.00644468)
(2.97597 4.03224e-06 -0.00768331)
(2.97499 -7.91764e-07 -0.00889439)
(2.9741 8.24676e-06 -0.00974384)
(2.97244 4.13804e-05 -0.0108075)
(2.96692 0.00024624 -0.0112977)
(2.95644 0.000299028 -0.0122279)
(2.92145 0.00177491 -0.0138262)
(2.84429 0.00204653 -0.0170204)
(2.6199 0.00691374 -0.0242303)
(1.89842 0.0162832 -0.0396357)
(0.355493 0.0337991 -0.0659492)
(-0.582254 0.0873425 -0.0626848)
(0.0229159 0.129833 -0.0587135)
(0.442067 0.162855 -0.05718)
(0.515464 0.183893 -0.0600731)
(0.422854 0.206241 -0.0610963)
(0.379509 0.222869 -0.061902)
(0.283976 0.242494 -0.0605102)
(0.141447 0.258197 -0.0594979)
(0.0153856 0.264772 -0.0574893)
(0.154703 0.209945 -0.0523617)
(2.98855 2.92066e-06 -0.00143669)
(2.98291 1.64061e-06 -0.00328184)
(2.97953 1.8493e-06 -0.00493315)
(2.97738 1.91811e-06 -0.00644109)
(2.97596 -5.32646e-07 -0.00768611)
(2.975 3.83695e-06 -0.00889127)
(2.97412 1.20858e-06 -0.00974701)
(2.9726 3.17214e-05 -0.0108007)
(2.96703 0.000117458 -0.0112857)
(2.95745 0.000403688 -0.0123945)
(2.92259 0.000895928 -0.0131834)
(2.84652 0.00281332 -0.0185181)
(2.62679 0.00635548 -0.021492)
(1.91107 0.0194355 -0.0432485)
(0.353551 0.055248 -0.0646623)
(-0.564558 0.119691 -0.0628348)
(0.0395893 0.168857 -0.0583741)
(0.452567 0.207862 -0.0564291)
(0.521171 0.23977 -0.0592524)
(0.447037 0.270984 -0.0609091)
(0.382841 0.291974 -0.0610396)
(0.289248 0.316103 -0.0594816)
(0.154613 0.339189 -0.0579598)
(0.0222832 0.347069 -0.0555091)
(0.139754 0.288347 -0.0504308)
(2.98855 -1.91742e-06 -0.00143394)
(2.98291 8.55389e-07 -0.00328598)
(2.97953 -1.60262e-06 -0.00493063)
(2.97738 2.38458e-06 -0.00644389)
(2.97597 -1.37527e-06 -0.00768311)
(2.97499 5.76224e-06 -0.00889508)
(2.97412 1.89231e-06 -0.0097416)
(2.97253 3.70522e-05 -0.0108129)
(2.96722 0.000116516 -0.0112947)
(2.95708 0.000469123 -0.0122374)
(2.92337 0.00102351 -0.0138139)
(2.8489 0.00335943 -0.016959)
(2.6326 0.008039 -0.0240527)
(1.93875 0.0251279 -0.0389647)
(0.433729 0.0738129 -0.0652293)
(-0.50161 0.151247 -0.0629162)
(0.0631558 0.207235 -0.0579687)
(0.46717 0.252181 -0.0554025)
(0.530216 0.293205 -0.0583338)
(0.453763 0.337508 -0.0600979)
(0.387872 0.362419 -0.0600955)
(0.300757 0.390375 -0.0583408)
(0.176546 0.420001 -0.0563207)
(0.0375028 0.4333 -0.0533766)
(0.129569 0.377051 -0.048141)
(2.98855 -4.58569e-06 -0.0014368)
(2.98291 7.59869e-07 -0.00328212)
(2.97953 -4.08958e-06 -0.00493307)
(2.97738 3.71104e-06 -0.00644132)
(2.97597 -2.96195e-06 -0.00768553)
(2.975 8.49705e-06 -0.00889179)
(2.97415 2.90488e-06 -0.0097458)
(2.9727 4.30999e-05 -0.0107986)
(2.96739 0.000155914 -0.0112776)
(2.95823 0.00056047 -0.0123353)
(2.92493 0.00126826 -0.0131451)
(2.85268 0.00417239 -0.0182945)
(2.64371 0.0100107 -0.0211384)
(1.96823 0.031816 -0.0418899)
(0.46637 0.0938147 -0.0633316)
(-0.45215 0.182163 -0.0633121)
(0.0879121 0.2457 -0.0577164)
(0.482458 0.295722 -0.0545841)
(0.543022 0.344026 -0.0574017)
(0.47096 0.396102 -0.0592584)
(0.400052 0.430875 -0.0590712)
(0.320103 0.465811 -0.0569923)
(0.208035 0.503583 -0.0544358)
(0.0635006 0.526928 -0.0509782)
(0.125509 0.482622 -0.0453827)
(2.98855 -1.15709e-05 -0.00143374)
(2.98291 2.68252e-06 -0.00328661)
(2.97953 -9.42089e-06 -0.00492998)
(2.97738 8.20621e-06 -0.00644538)
(2.97597 -8.72161e-06 -0.00768085)
(2.975 1.45317e-05 -0.00889837)
(2.97415 -5.12812e-06 -0.00973659)
(2.97266 3.26395e-05 -0.010818)
(2.96766 4.93343e-05 -0.0112808)
(2.95802 0.000689293 -0.012183)
(2.92632 0.000435774 -0.0136832)
(2.85666 0.00508049 -0.0166732)
(2.65434 0.00948749 -0.0234363)
(2.01401 0.035519 -0.036924)
(0.574445 0.110634 -0.0640901)
(-0.381086 0.219004 -0.0632282)
(0.115503 0.286596 -0.0572649)
(0.49959 0.338599 -0.0533676)
(0.558249 0.392417 -0.0562875)
(0.490018 0.450668 -0.0580354)
(0.420314 0.497538 -0.0578339)
(0.348045 0.542174 -0.0556619)
(0.250005 0.591187 -0.0525236)
(0.104051 0.631291 -0.0484632)
(0.131255 0.613549 -0.0422798)
(2.98856 -1.19437e-06 -0.00143391)
(2.98291 2.76341e-06 -0.00328643)
(2.97954 -4.24608e-06 -0.0049298)
(2.97738 5.26607e-06 -0.00644614)
(2.97597 -8.1958e-06 -0.00767918)
(2.975 1.02274e-05 -0.00890188)
(2.97417 -3.68922e-06 -0.00973139)
(2.97274 4.9559e-05 -0.0108295)
(2.96793 0.000221292 -0.011284)
(2.95859 0.000739273 -0.0121428)
(2.92818 0.00209079 -0.0136167)
(2.8615 0.00522958 -0.0164785)
(2.66801 0.0142318 -0.023133)
(2.06044 0.0403047 -0.0355761)
(0.675196 0.114556 -0.0637757)
(-0.272372 0.247442 -0.0634561)
(0.15488 0.326356 -0.0568357)
(0.520694 0.381472 -0.0521207)
(0.576985 0.439323 -0.0551135)
(0.513876 0.502739 -0.0567199)
(0.448876 0.561956 -0.0563656)
(0.385974 0.617525 -0.0540719)
(0.305723 0.681429 -0.0505627)
(0.167122 0.749896 -0.0457452)
(0.153511 0.783135 -0.0387105)
(2.98856 9.63785e-06 -0.00143518)
(2.98291 2.5365e-06 -0.00328366)
(2.97954 -1.39716e-06 -0.00493253)
(2.97737 6.96121e-06 -0.00644175)
(2.97597 -1.6173e-05 -0.00768475)
(2.975 2.38242e-05 -0.00889482)
(2.97419 -5.34349e-05 -0.00973802)
(2.97285 8.46619e-05 -0.0108205)
(2.96823 -0.000131355 -0.011254)
(2.95959 0.00171599 -0.0121637)
(2.92999 -0.000727436 -0.0135268)
(2.8673 0.0128901 -0.0165025)
(2.68112 0.00253142 -0.0227426)
(2.10487 0.0534157 -0.0343299)
(0.769951 0.108365 -0.0630847)
(-0.172191 0.270524 -0.0632519)
(0.201854 0.366057 -0.0560745)
(0.543592 0.425084 -0.0508772)
(0.598319 0.484904 -0.0538213)
(0.542955 0.552021 -0.055394)
(0.485117 0.621382 -0.05483)
(0.434753 0.688704 -0.0524644)
(0.380693 0.771906 -0.0484268)
(0.2681 0.882153 -0.0432391)
(0.20487 1.04572 -0.0352747)
(2.9951 4.55434e-07 8.93422e-07)
(2.98906 4.19175e-07 -2.92111e-07)
(2.98252 6.17626e-07 5.5761e-07)
(2.97637 4.45931e-07 -1.61334e-07)
(2.97072 2.56591e-07 1.35476e-07)
(2.96582 6.27998e-07 6.42406e-08)
(2.96111 -1.92087e-07 -1.00796e-08)
(2.95636 3.78312e-06 1.35226e-06)
(2.94812 -2.45278e-06 4.386e-06)
(2.9338 5.81374e-05 9.26723e-06)
(2.89115 -3.00319e-05 1.9368e-05)
(2.79864 0.000320408 3.23709e-05)
(2.53938 9.31802e-05 3.55156e-05)
(1.68574 0.000751363 3.42521e-05)
(-0.0857369 0.000697573 -0.000171639)
(-1.20862 0.0108604 -1.11754e-05)
(-0.214337 0.023704 0.000104432)
(0.288514 0.0353239 0.000198203)
(0.393292 0.0405504 0.0004808)
(0.296422 0.0399038 0.00115658)
(-0.139588 0.0618832 0.000100619)
(-0.104453 0.0682909 -0.000289557)
(-0.137654 0.0687035 -0.000259839)
(-0.0886666 0.0702139 -0.000145337)
(0.0842974 0.0586349 -0.000349749)
(2.9951 2.25506e-07 2.69182e-06)
(2.98906 5.62572e-07 -2.31287e-06)
(2.98252 6.53292e-07 1.895e-06)
(2.97637 1.00063e-06 -2.02514e-06)
(2.97072 7.61219e-07 1.59574e-06)
(2.96582 7.74991e-07 -1.62187e-06)
(2.96111 1.42671e-06 2.47342e-06)
(2.95636 3.9583e-06 3.58824e-06)
(2.94816 2.24078e-05 3.42931e-05)
(2.93378 7.65067e-05 -2.02766e-05)
(2.89133 0.000207996 0.000221478)
(2.79876 0.000565805 -0.000120717)
(2.53986 0.00134152 0.000363446)
(1.6842 0.00383848 7.67115e-05)
(-0.085611 0.0112074 -0.000777009)
(-1.20824 0.0394772 1.61694e-05)
(-0.200698 0.0703438 0.000114512)
(0.300115 0.0941769 5.94593e-05)
(0.389903 0.100661 -0.000207958)
(0.273031 0.0938245 -0.00080839)
(-0.177095 0.122898 0.000112569)
(-0.12359 0.141539 0.000356802)
(-0.15485 0.149321 0.000140365)
(-0.104566 0.155963 -2.19701e-05)
(0.0852978 0.137516 -0.000137138)
(2.9951 1.72488e-07 1.34328e-06)
(2.98906 8.80304e-07 -7.62061e-07)
(2.98253 6.06614e-07 6.90534e-07)
(2.97637 1.32892e-06 -6.27968e-07)
(2.97072 5.00512e-07 2.07272e-07)
(2.96582 7.89315e-07 -2.12924e-07)
(2.96111 1.91066e-06 1.28172e-07)
(2.95638 6.97398e-06 1.72284e-06)
(2.94818 4.12071e-05 5.2033e-06)
(2.93396 0.000150373 1.13813e-05)
(2.89155 0.000399012 1.8738e-05)
(2.79962 0.0011319 3.98231e-05)
(2.5418 0.00271607 1.77015e-05)
(1.6935 0.00801846 9.91935e-06)
(-0.0656475 0.0241694 -0.000343239)
(-1.18434 0.0706244 -2.69371e-06)
(-0.181032 0.117608 8.25569e-05)
(0.311694 0.153813 -2.86685e-05)
(0.381125 0.168314 -0.000379455)
(0.264015 0.163781 -0.00089153)
(-0.182192 0.200778 0.000116961)
(-0.115386 0.225171 0.000463432)
(-0.154166 0.240027 0.000355744)
(-0.111276 0.251719 0.000131528)
(0.0754512 0.227672 0.00015544)
(2.9951 6.84933e-07 2.0252e-06)
(2.98906 1.32568e-06 -1.5732e-06)
(2.98252 7.80376e-07 1.23277e-06)
(2.97637 1.21588e-06 -1.2283e-06)
(2.97072 -5.50877e-07 7.76561e-07)
(2.96582 1.26195e-06 -8.53617e-07)
(2.96111 7.52777e-07 1.58125e-06)
(2.95639 1.64296e-05 2.70138e-06)
(2.94828 4.73682e-05 2.86151e-05)
(2.93408 0.000316785 -2.29365e-05)
(2.89213 0.000451895 0.00020387)
(2.80078 0.00215933 -0.000152701)
(2.54504 0.00387264 0.000334692)
(1.70216 0.012742 1.54794e-05)
(-0.0431512 0.0363252 -0.000770813)
(-1.15042 0.100511 2.80975e-05)
(-0.158138 0.161512 0.000108762)
(0.3248 0.208874 3.94711e-05)
(0.375942 0.234032 1.33858e-05)
(0.269101 0.235821 0.00033624)
(-0.171001 0.28294 8.51655e-05)
(-0.0970487 0.308626 0.000179399)
(-0.142912 0.330502 0.000252541)
(-0.111541 0.345322 0.000191722)
(0.0661653 0.316883 0.000267439)
(2.9951 -8.47738e-07 4.37472e-07)
(2.98906 4.89525e-07 -7.3808e-09)
(2.98252 -9.30826e-07 -1.14822e-07)
(2.97637 6.67385e-07 2.42338e-07)
(2.97072 -1.03909e-06 -5.91861e-07)
(2.96582 1.4226e-06 6.79402e-07)
(2.96112 3.17328e-06 -7.48627e-07)
(2.95642 1.84082e-05 2.43404e-07)
(2.94843 9.13231e-05 -1.32715e-06)
(2.9343 0.000366993 3.92912e-06)
(2.89297 0.000873507 -9.08931e-06)
(2.80266 0.0027533 -6.53604e-06)
(2.55029 0.00646916 -3.84959e-05)
(1.71761 0.0201449 -5.37004e-05)
(-0.00981415 0.0601785 -0.000285422)
(-1.10669 0.135842 4.05944e-05)
(-0.132717 0.205795 9.71598e-05)
(0.338644 0.262127 4.79047e-05)
(0.372846 0.29809 -3.90509e-05)
(0.272096 0.31146 -0.00014673)
(-0.126847 0.360629 -7.95531e-06)
(-0.0747552 0.390524 3.37156e-05)
(-0.123886 0.419758 0.000142653)
(-0.106797 0.437724 0.000212909)
(0.0590057 0.406785 0.000309342)
(2.9951 -3.04477e-06 1.19219e-06)
(2.98906 -1.51864e-07 -1.15191e-06)
(2.98253 -2.82119e-06 8.38902e-07)
(2.97637 6.90282e-07 -9.20602e-07)
(2.97072 -8.96986e-07 8.71234e-07)
(2.96582 2.66785e-06 -8.81048e-07)
(2.96113 6.05793e-06 1.76211e-06)
(2.95646 2.35918e-05 1.72224e-06)
(2.94857 0.000124562 2.27952e-05)
(2.93474 0.000474711 -2.91756e-05)
(2.89407 0.00121656 0.000186533)
(2.80573 0.00368478 -0.000185151)
(2.55847 0.009123 0.000325212)
(1.74933 0.02854 -2.78494e-05)
(0.044202 0.0859401 -0.000603595)
(-1.04836 0.172782 3.58255e-05)
(-0.10448 0.249698 8.21315e-05)
(0.353762 0.314007 2.4958e-05)
(0.374762 0.360554 -1.13302e-05)
(0.273363 0.388063 4.24154e-05)
(-0.0664949 0.435691 -4.71936e-05)
(-0.0475957 0.47374 -1.53114e-05)
(-0.0968075 0.510761 9.70799e-05)
(-0.0963573 0.534245 0.000214321)
(0.0544451 0.50486 0.000311552)
(2.9951 -4.40896e-06 -1.62254e-06)
(2.98906 -6.08102e-08 1.85438e-06)
(2.98253 -3.67445e-06 -1.32941e-06)
(2.97637 9.89419e-07 1.9116e-06)
(2.97072 -3.61945e-07 -1.48141e-06)
(2.96582 2.72274e-06 1.86472e-06)
(2.96114 8.86495e-06 -2.12787e-06)
(2.95652 2.79403e-05 -2.3558e-06)
(2.94881 0.000150793 -2.37147e-05)
(2.93523 0.000600035 2.44437e-05)
(2.89563 0.00151593 -0.00019151)
(2.80967 0.00467555 0.000159916)
(2.56953 0.0114977 -0.000342771)
(1.78833 0.0358637 1.75673e-05)
(0.111151 0.106755 0.000582201)
(-0.978063 0.210433 -2.56504e-05)
(-0.0732777 0.294141 -3.64428e-05)
(0.37031 0.364971 -4.96123e-05)
(0.382406 0.421036 -2.39072e-05)
(0.277888 0.463619 -1.24472e-05)
(0.000235665 0.511877 -3.70511e-05)
(-0.0140596 0.559114 -7.25918e-06)
(-0.0600155 0.604999 0.000100141)
(-0.0781372 0.638329 0.000216227)
(0.0541822 0.616904 0.000293012)
(2.9951 -5.07126e-06 -6.47272e-07)
(2.98906 1.66884e-06 6.27467e-07)
(2.98253 -3.83108e-06 -3.52328e-07)
(2.97637 3.29552e-06 6.97881e-07)
(2.97073 -5.58851e-07 -1.80496e-07)
(2.96583 3.2754e-06 4.96513e-07)
(2.96115 1.0644e-05 -3.50862e-08)
(2.95658 2.99947e-05 -4.94042e-07)
(2.94905 0.000170317 -1.27207e-06)
(2.9359 0.000702207 -3.70666e-06)
(2.89743 0.00174587 -7.24503e-07)
(2.81457 0.00545167 -1.45533e-05)
(2.58282 0.0132352 2.02634e-05)
(1.83611 0.0410581 2.97921e-05)
(0.193186 0.121765 0.000174041)
(-0.892948 0.246554 0.000112616)
(-0.0379396 0.338833 -8.31741e-05)
(0.388262 0.415044 -4.80986e-05)
(0.39573 0.479164 -1.51393e-05)
(0.289327 0.535287 -1.62719e-05)
(0.063982 0.59039 -2.29907e-05)
(0.0275159 0.64385 4.77426e-06)
(-0.01131 0.703182 0.000102227)
(-0.0485136 0.753087 0.000220818)
(0.0608765 0.7509 0.000270518)
(2.9951 -3.32338e-06 -1.25589e-07)
(2.98906 5.61243e-06 1.07679e-07)
(2.98253 -6.12756e-06 3.41843e-09)
(2.97638 1.11895e-05 1.76293e-07)
(2.97073 -1.10944e-05 1.02457e-07)
(2.96583 1.63523e-05 1.24652e-07)
(2.96116 -1.50112e-06 1.06116e-07)
(2.95665 4.7542e-05 -1.39149e-07)
(2.94937 0.000261395 -4.39978e-07)
(2.93656 0.000799608 -1.60675e-06)
(2.89954 0.00226824 -2.18166e-06)
(2.81979 0.00580396 -6.56309e-06)
(2.59743 0.0151677 -5.87108e-06)
(1.88557 0.0437346 -1.20603e-05)
(0.287687 0.128968 -1.73887e-05)
(-0.791074 0.280501 -0.000162079)
(0.000575549 0.384318 -2.83902e-05)
(0.407422 0.464421 1.42323e-05)
(0.413205 0.534598 8.18164e-06)
(0.308655 0.601217 -4.30742e-06)
(0.126482 0.667344 -1.02892e-05)
(0.0781145 0.729184 9.82811e-06)
(0.0526732 0.803413 9.41678e-05)
(0.00423289 0.878842 0.000209822)
(0.0771544 0.916526 0.000238295)
(2.9951 5.04032e-06 1.70527e-07)
(2.98906 8.17956e-06 1.43332e-07)
(2.98253 -1.11927e-05 1.92928e-07)
(2.97637 2.70475e-05 1.49886e-07)
(2.97073 -4.58824e-05 -7.2103e-09)
(2.96584 7.66863e-05 7.30706e-08)
(2.96118 -0.000106359 -1.87942e-07)
(2.95681 0.00025752 -3.16443e-07)
(2.94969 8.75745e-05 -5.26931e-07)
(2.9376 0.00190432 -1.65838e-06)
(2.90153 -0.000812029 -2.73798e-06)
(2.82595 0.0136611 -7.1745e-06)
(2.61177 0.00276968 -1.24172e-05)
(1.93817 0.0566845 -1.55889e-05)
(0.394898 0.126858 -1.183e-05)
(-0.665261 0.311366 7.94365e-06)
(0.043713 0.430968 1.53602e-05)
(0.427569 0.51297 2.94612e-05)
(0.43334 0.586965 4.56486e-06)
(0.335617 0.661659 -1.02708e-05)
(0.189309 0.738446 -1.90503e-05)
(0.140535 0.811478 -5.12639e-06)
(0.135018 0.904003 6.14732e-05)
(0.0929082 1.01564 0.000196129)
(0.113262 1.16982 0.000213501)
(2.98855 9.19258e-06 0.00143274)
(2.98292 -4.22396e-07 0.00328765)
(2.97953 6.04485e-06 0.00493023)
(2.97738 -2.61724e-06 0.00644466)
(2.97597 4.13064e-06 0.00768353)
(2.97499 -3.73018e-06 0.00889403)
(2.97409 8.17294e-06 0.00974448)
(2.9724 2.02534e-05 0.0108073)
(2.9668 0.0001806 0.0113009)
(2.95618 2.71719e-05 0.01225)
(2.92061 0.0011933 0.0138417)
(2.84209 0.000229226 0.0171169)
(2.61367 0.00274612 0.0242758)
(1.87472 0.00380544 0.0399883)
(0.301666 -0.00133294 0.0655969)
(-0.645914 0.00711675 0.0627447)
(-0.0195627 0.0161729 0.0598827)
(0.417578 0.0218569 0.059275)
(0.5246 0.0147291 0.0618282)
(0.492446 -0.0138164 0.0632797)
(0.433418 -0.0120107 0.0634211)
(0.3365 0.00354231 0.0629834)
(0.19447 0.0225018 0.062488)
(0.0626277 0.0436478 0.0610859)
(0.158659 0.0466951 0.0559259)
(2.98855 2.61572e-06 0.00143707)
(2.98291 1.21439e-06 0.0032817)
(2.97953 1.82411e-06 0.00493356)
(2.97738 8.51047e-07 0.00644085)
(2.97596 -3.12872e-08 0.00768656)
(2.975 4.02889e-07 0.00889071)
(2.97411 -4.48731e-07 0.0097484)
(2.97255 8.43206e-06 0.0107993)
(2.96681 3.44168e-05 0.0112931)
(2.95697 0.000115634 0.0124279)
(2.92112 0.000247432 0.013197)
(2.84255 0.000743912 0.0186962)
(2.61604 0.00150668 0.0215007)
(1.87222 0.004285 0.043656)
(0.270693 0.0105896 0.0645844)
(-0.661972 0.0330838 0.0627351)
(-0.0132269 0.0531796 0.0596798)
(0.418751 0.0669118 0.0588344)
(0.499472 0.0655653 0.0614849)
(0.385521 0.0629938 0.061939)
(0.369207 0.0681982 0.0635581)
(0.279372 0.0849497 0.0634083)
(0.117211 0.104475 0.0627638)
(0.0136984 0.119069 0.0604695)
(0.160755 0.103733 0.0549584)
(2.98855 -1.18475e-08 0.00143375)
(2.98291 2.0685e-06 0.00328665)
(2.97953 -5.47802e-08 0.00493051)
(2.97738 3.09006e-06 0.00644415)
(2.97597 -2.01331e-06 0.00768323)
(2.97499 3.47861e-06 0.0088945)
(2.9741 -2.55937e-06 0.00974334)
(2.97243 9.39278e-06 0.0108105)
(2.96688 2.6405e-05 0.0113023)
(2.95635 0.000162453 0.0122718)
(2.92109 0.00030822 0.0138567)
(2.84304 0.00105321 0.0171593)
(2.61622 0.00246646 0.0243122)
(1.87984 0.00782634 0.0401184)
(0.314335 0.0230106 0.0653666)
(-0.628366 0.0614662 0.0625356)
(-0.000339783 0.0930242 0.0592456)
(0.424031 0.118052 0.0581258)
(0.495092 0.134718 0.0607972)
(0.393436 0.159772 0.0614871)
(0.363022 0.159488 0.0628167)
(0.266756 0.161714 0.0624465)
(0.0914895 0.179056 0.061898)
(-0.00778041 0.196388 0.0592044)
(0.142484 0.167021 0.0539005)
(2.98855 7.12323e-06 0.00143704)
(2.98291 4.21974e-07 0.00328233)
(2.97953 3.23309e-06 0.00493274)
(2.97738 -1.11516e-06 0.006442)
(2.97596 -4.1859e-07 0.00768435)
(2.975 -6.53361e-07 0.00889399)
(2.97412 3.92528e-06 0.00974317)
(2.97257 3.00035e-05 0.0108093)
(2.96694 0.000200723 0.0112871)
(2.95721 0.000213393 0.0124141)
(2.92186 0.00151213 0.0131246)
(2.84444 0.0014515 0.0185357)
(2.62149 0.00575997 0.0213525)
(1.88985 0.0141696 0.0434895)
(0.312164 0.0331865 0.0644369)
(-0.605753 0.0877479 0.0627914)
(0.0177363 0.130735 0.058953)
(0.436417 0.165123 0.0574993)
(0.5084 0.191723 0.0600852)
(0.43312 0.219437 0.0618119)
(0.367781 0.22924 0.0620052)
(0.268221 0.236226 0.0609316)
(0.103916 0.254007 0.060267)
(-0.00683325 0.272414 0.0575971)
(0.137808 0.229677 0.0524247)
(2.98855 -1.36699e-06 0.00143734)
(2.98291 -5.34838e-07 0.00328187)
(2.97953 -2.27555e-06 0.00493267)
(2.97738 -6.50891e-07 0.00644194)
(2.97596 -2.55996e-06 0.007684)
(2.975 1.63626e-06 0.00889484)
(2.97412 7.42982e-08 0.00974153)
(2.9726 2.52547e-05 0.010813)
(2.96705 8.04374e-05 0.0112828)
(2.95741 0.000333488 0.0123906)
(2.92254 0.000726683 0.0130982)
(2.84623 0.00245564 0.0183731)
(2.62671 0.0059348 0.0213322)
(1.90681 0.0186563 0.0434184)
(0.346951 0.0566023 0.064245)
(-0.56649 0.12064 0.0629447)
(0.0377087 0.169364 0.0586225)
(0.447917 0.209003 0.0567269)
(0.512511 0.243344 0.0593623)
(0.428846 0.281019 0.0607848)
(0.370402 0.297423 0.0611476)
(0.275303 0.312831 0.0596516)
(0.126359 0.333523 0.0584342)
(0.00224287 0.350777 0.0558002)
(0.134607 0.298664 0.0505984)
(2.98855 -1.26771e-05 0.00143711)
(2.98291 -4.76888e-07 0.00328195)
(2.97953 -8.98808e-06 0.00493289)
(2.97738 3.45401e-06 0.0064417)
(2.97597 -4.71892e-06 0.00768481)
(2.975 8.59021e-06 0.00889343)
(2.97414 -2.29263e-06 0.00974374)
(2.97264 1.98919e-05 0.0108055)
(2.96719 -1.57074e-05 0.0112789)
(2.95776 0.000453596 0.012371)
(2.92357 2.55902e-05 0.0131027)
(2.84901 0.00354991 0.0183639)
(2.63408 0.00633761 0.021226)
(1.93355 0.0242669 0.0427496)
(0.39761 0.0838935 0.0637958)
(-0.519428 0.156644 0.0630249)
(0.0599834 0.208691 0.0581729)
(0.462984 0.251841 0.0557341)
(0.525128 0.294561 0.0584583)
(0.448991 0.341474 0.0602722)
(0.378861 0.366193 0.0602101)
(0.289848 0.390094 0.0584629)
(0.1568 0.416459 0.0566684)
(0.0218823 0.434701 0.0537252)
(0.129299 0.381759 0.0483614)
(2.98855 -1.42602e-05 0.00143304)
(2.98291 1.3366e-07 0.00328731)
(2.97953 -1.06937e-05 0.00492984)
(2.97738 5.36709e-06 0.0064455)
(2.97597 -6.5605e-06 0.00768177)
(2.975 1.20097e-05 0.00889697)
(2.97413 -2.67069e-06 0.00973955)
(2.97258 2.68513e-05 0.0108131)