/*--------------------------------*- C++ -*----------------------------------*\
  =========                 |
  \\      /  F ield         | OpenFOAM: The Open Source CFD Toolbox
   \\    /   O peration     | Website:  https://openfoam.org
    \\  /    A nd           | Version:  6
     \\/     M anipulation  |
\*---------------------------------------------------------------------------*/
FoamFile
{
    version     2.0;
    format      ascii;
    class       surfaceScalarField;
    location    "61";
    object      phi;
}
// * * * * * * * * * * * * * * * * * * * * * * * * * * * * * * * * * * * * * //

dimensions      [0 3 -1 0 0 0 0];

internalField   nonuniform List<scalar> 
1300
(
3.75095
5.62643
-3.34521
3.75095
-7.7507
5.62643
-4.25714
4.25714
-0.493923
0.493923
1.87648
1.87447
-2.44847
2.44847
-1.88597
1.88597
-2.52902
2.52902
-5.24802
5.24802
-5.06932
5.06932
4.70351
-4.70351
-6.31882
6.31882
-0.977431
0.977431
-3.55713
3.55713
3.17258
-3.17258
-1.95681
1.95681
-0.0231748
0.0231748
-0.554087
4.30504
3.19687
3.19687
-1.97185
1.97185
-4.87372
4.87372
6.22207
-6.22207
5.26878
-5.26878
-1.92357
-2.48636
1.805
-11.5098
-5.94569
-5.94569
-8.44103
8.44103
-2.8146
2.81183
2.94693
-2.94693
-1.72842
1.72842
-4.27127
0.0141351
-4.27127
4.22899
0.028143
4.22899
-0.570592
0.0766685
-0.570592
3.92489
-3.92489
0.402574
0.091349
0.402574
3.06721
-3.06721
-1.87686
3.75334
1.87409
-1.87209
6.17713
-1.87887
3.75334
-6.07266
6.07266
-2.67236
0.22389
-2.67236
2.25224
0.196236
2.25224
-6.87973
6.87973
-1.94291
0.0569401
-1.94291
1.89552
-0.00955087
1.89552
2.88675
-2.88675
-2.6335
0.104478
-2.6335
2.38764
0.141381
2.38764
0.35348
5.27295
-5.97991
8.79174
-5.27295
0.0249292
5.21042
0.0375979
5.21042
-5.1052
0.0358708
-5.1052
5.01368
0.0556478
5.01368
4.79422
-0.0907092
4.79422
-4.82166
0.118154
-4.82166
-3.35953
-4.07797
-6.47996
0.161142
-6.47996
-1.03816
0.0607293
-1.03816
0.870871
0.106559
0.870871
-3.71814
3.71814
-3.91721
0.360071
-3.91721
3.12756
0.0450147
3.12756
1.86812
1.88283
5.61908
-5.61908
2.4465
-1.91024
-0.0465678
-1.91024
-2.01493
-3.25385
2.01493
-0.0581231
-0.245318
0.222143
-0.245318
3.15709
0.0397721
3.15709
2.24374
0.1439
-2.24374
0.271887
3.29512
-3.29512
1.30589
0.665962
1.30589
-5.55986
5.55986
4.96136
0.0523188
-4.96136
0.0876403
6.1568
0.065265
6.1568
-6.20758
-0.014484
-6.20758
2.48618
-4.97254
-2.6413
6.13179
0.18703
-6.13179
0.186102
2.91835
0.0285795
2.91835
-2.91989
2.91989
-2.98401
0.0370714
-2.98401
-2.15143
0.423018
-2.15143
1.41355
0.31486
1.41355
-4.18344
-0.0878316
-4.18344
-4.07531
0.158106
4.07531
0.15368
1.11348
-1.11348
-0.654131
0.0835391
-0.654131
-4.02965
-0.153787
4.02965
-0.104758
-3.86866
-0.0562376
-3.86866
-3.02175
0.0377474
3.02175
0.0454528
3.11206
0.0450333
-3.11206
0.044855
-1.87099
3.75382
-1.87996
3.75406
-5.69195
-0.38071
-5.69195
6.35525
-0.28259
6.35525
3.0864
0.470739
-3.0864
0.414031
2.11241
0.139829
2.11241
-6.85428
-0.0254496
-6.85428
6.88363
-0.00390666
6.88363
2.01539
0.0970162
-2.01539
0.0724807
1.89325
0.00227676
1.89325
2.91393
-0.0271791
2.91393
-2.88096
-0.00579834
-2.88096
2.79313
-2.79313
2.72055
0.0725754
-2.72055
0.0870542
-11.1241
11.1096
-0.0363408
-11.0877
5.17408
5.17408
4.24891
0.545305
4.24891
-5.01641
0.194746
-5.01641
2.66091
-5.30221
3.09944
-6.45897
4.67923
-16.189
4.29813
-8.37611
6.73206
-6.73206
6.613
0.119055
-6.613
0.133039
-1.13537
0.0972148
-1.13537
-3.11803
-0.600113
-3.11803
4.35895
-0.640808
4.35895
-3.02782
3.02782
-3.07653
0.0487067
3.07653
0.0510342
1.88845
0.0047926
-1.88845
-0.0217856
0.311106
0.0914681
-0.311106
0.0657884
3.51438
-0.219258
3.51438
-3.09285
-0.202268
-3.09285
-1.22173
0.0863589
1.22173
0.084156
-5.80731
0.247448
-5.80731
-11.1814
0.0937264
-11.1438
-6.11386
-6.11386
2.32718
11.1189
-2.89654
0.0155851
2.89654
0.0218132
2.9754
0.0524208
-2.9754
0.0555114
-2.85993
0.0667994
2.85993
0.0599651
-2.51995
0.368512
-2.51995
-1.02723
1.02723
-1.17614
0.148911
1.17614
0.237411
1.41098
-0.297502
1.41098
0.765054
0.105818
-0.765054
0.110923
-3.81826
-0.050393
-3.81826
6.59423
-0.23898
6.59423
-2.96463
-0.128224
2.96463
-0.0506941
-0.0350199
11.1446
-5.13906
0.0338666
5.13906
-11.2099
11.2437
-3.22646
0.706518
3.22646
1.02245
5.28543
0.274434
-5.28543
0.269021
6.82339
0.0602438
-6.82339
0.0913312
-2.62669
-0.49134
-2.62669
-5.09224
-0.599714
5.09224
-0.733288
-11.4816
-0.203129
11.6847
-11.426
6.01044
0.146363
-6.01044
11.3901
-0.994494
-0.118987
0.994494
0.0327386
1.74908
-0.338093
1.74908
3.72745
-0.213071
-3.72745
-0.090815
-6.74873
-0.105549
6.74873
-0.154499
-2.17743
-0.449252
2.17743
-0.428359
-4.26735
4.30713
1.90977
-2.33895
-2.63359
-5.5928
1.8552
1.89862
4.3017
-10.1731
-6.01597
-9.98697
7.21448
-6.94546
-9.33544
9.24473
7.89882
-7.95506
-5.77764
5.82868
6.48448
-6.43903
1.87936
1.87398
8.0302
-7.80631
-15.6958
15.3151
7.58998
-7.53304
15.853
-15.8785
-17.8999
17.9601
-5.69445
5.79893
-6.74125
6.73545
-6.97672
6.92602
-2.79485
-3.66412
13.1516
-12.9904
8.5619
-8.60846
-8.6465
9.00657
3.38458
0.922543
3.42962
-1.88184
3.7612
-1.8715
3.78128
2.74096
-5.53581
2.56125
-5.19485
4.34916
4.21273
-4.29104
-1.30176
-5.92816
5.95674
-5.80961
5.86958
9.15399
-9.13985
-1.88497
3.75895
-1.86908
3.7677
-3.4232
-2.35445
3.37818
0.923514
8.08689
5.06466
-8.27392
-1.71305
-8.01104
7.79797
-8.21098
8.00871
-0.436829
5.83795
-5.40112
4.43689
-1.65374
7.49169
5.56074
5.75548
5.86089
-5.58646
1.08456
-6.48568
-6.39804
-2.36482
2.44835
2.25258
-2.16123
6.11691
1.78191
6.01216
-5.78838
-2.16667
-5.83878
3.81999
2.00869
3.86869
4.08186
2.40263
4.11961
3.02981
-3.03656
0.00674756
-3.05917
6.08897
0.722395
-5.41361
-4.4901
4.99369
3.03651
5.18992
-5.56609
-2.24022
-5.15206
-9.57717
-6.11862
-10.1769
10.1028
5.21232
9.82017
-11.982
11.8275
4.88035
2.70962
4.8708
-4.9545
-2.57853
-4.88202
11.6764
-2.63338
-9.04305
-10.3487
-7.55117
10.3526
5.50042
10.9954
6.96472
11.0867
4.43235
7.24408
-9.93277
2.38159
-3.86278
-1.83168
-3.77572
3.65663
2.14229
3.79802
-4.21842
-2.52283
-4.20283
-4.29415
-2.68257
4.32133
2.41412
-4.41469
-3.79628
4.54292
2.38311
4.06111
-10.0771
4.31499
-7.97911
-9.22341
-3.767
-9.09037
3.53249
2.59584
-6.12833
-2.00333
8.49993
-4.2872
7.19817
-5.19244
-3.41603
-5.21422
-6.94424
-1.70226
-6.78613
-8.93572
8.44438
-9.23517
8.59436
12.554
-5.66024
-6.89379
-3.96696
-2.47207
3.9221
-0.492486
-3.71007
3.71681
0.0511357
3.83241
4.75495
4.26247
-3.88215
-1.92747
-3.82664
3.82135
2.04823
3.88815
6.83258
2.32141
6.86073
-6.58944
-2.55042
-6.67727
9.11102
-8.688
2.80902
-2.72266
5.36716
2.64155
-5.1479
-2.86314
6.24002
-3.2096
-3.03042
-12.3476
10.8097
1.5379
-4.85593
-0.419044
-0.395869
-5.57371
-3.76173
5.45556
0.299925
11.1096
7.34792
-5.51584
5.76329
6.16889
6.22121
-0.176829
5.89775
-5.19123
5.27768
-2.67645
-2.60123
5.45547
-5.60926
-1.2218
-5.52402
4.30222
0.402894
1.56228
-1.34014
-1.83061
-0.534205
-1.71969
1.27525
0.977333
1.36672
0.929441
1.51891
-2.92437
0.565653
2.35871
-1.99493
-1.59558
-3.76974
-1.14523
4.91498
5.71154
2.08643
-5.62072
-0.218057
2.60258
-2.49602
-0.803174
-2.96657
2.2151
-3.01827
-3.48398
-1.91257
5.39655
-3.3688
-0.457837
3.31638
0.552313
-3.82794
-2.10022
3.79087
0.328733
-3.12845
6.19011
-3.06167
-5.05591
2.52892
3.56005
4.53761
-4.79017
2.44904
2.34113
-1.23012
4.26695
0.922978
4.40677
-7.00525
4.76503
5.71292
3.29365
-6.18366
1.0316
-5.97365
8.59519
-7.42644
-1.16874
4.16046
4.43473
7.04093
5.51309
-5.69315
12.7341
-1.19342
-6.23302
7.16707
-3.87342
4.87574
-8.74916
-10.3888
4.15581
-9.21857
11.0705
-1.85191
-3.61417
-8.36785
12.8327
-1.21334
-11.6194
8.60683
-4.28839
-4.33984
8.62823
-6.92177
6.91837
-1.99297
-4.9254
-10.1629
-5.71552
10.2685
1.55903
-9.90785
12.2894
-2.66377
4.15973
0.711068
4.16201
3.33071
-5.45976
2.12906
3.59106
-5.58403
2.0689
-7.52867
-6.76964
12.1087
-5.33911
-10.5366
-9.56565
-0.970986
2.55395
9.7355
-9.51867
7.45025
2.06842
3.29861
0.589547
-3.37118
-0.40454
0.241603
4.51217
-4.75377
4.03962
4.18352
3.22482
1.28735
3.84895
2.10779
-3.87077
-0.332066
-4.1674
1.48483
-1.75328
-3.69245
5.17729
-4.0616
0.369145
-2.74799
-3.4946
6.24259
-4.57967
3.03632
3.1538
5.08455
-4.91467
1.42007
-2.39105
-2.52362
2.64153
-4.39481
1.99796
3.17933
4.38107
0.584782
5.91271
6.19603
-8.50855
0.529438
11.2607
-9.54764
2.48391
8.60281
-9.93416
0.368507
-8.72186
0.975476
-5.26267
-5.15285
5.21777
-6.92003
-3.53139
6.23654
0.624189
-6.39022
-0.395915
-6.07137
-2.86435
-6.52062
-3.06239
-6.17278
-8.75554
-1.67149
-7.08405
6.77289
-6.6994
-3.47748
7.43269
1.16167
-7.48275
7.36376
-7.54344
7.20534
0.0947463
3.62207
4.35722
1.88514
-2.39195
4.27709
-5.06867
7.39008
-8.72787
3.6592
4.21639
-6.76681
-4.51148
5.06342
4.0476
5.37828
8.93505
-10.396
1.46092
-10.6683
12.0075
-1.33924
-16.4534
5.7851
-7.51836
2.43932
0.369697
2.53653
0.558993
2.49808
-3.05707
-2.16366
-2.07951
-2.43346
-3.49713
5.93059
1.07899
-3.45999
2.38101
-3.58522
4.6642
-0.0506391
-3.40936
5.19787
-2.69979
5.56757
-3.63585
1.93172
3.54023
5.84282
-2.30259
4.42266
-1.7811
1.93761
-4.2402
-1.55952
-2.95757
5.09987
-3.28502
3.65417
-0.346093
4.00026
-4.0586
0.848994
-0.833781
3.34974
3.62163
4.33141
-3.04406
2.93921
-4.72031
-1.30099
-4.13553
-0.956202
-0.191385
-3.79139
3.98278
6.01797
-6.20936
-5.2878
9.53417
-4.24636
7.70955
-5.44461
-2.26493
-4.29674
-4.39126
3.92823
1.96952
9.67907
0.179289
-5.6239
-5.01194
-3.98949
3.1089
2.16878
-1.77751
3.31541
2.17338
-0.611101
0.41404
0.952678
1.77121
-1.35717
0.321672
1.44954
-1.01847
1.75792
0.844664
-1.86374
0.144047
-1.27514
3.49024
1.08357
-2.06091
0.703735
0.905575
-3.58203
5.04399
-2.70075
-2.34324
5.94957
1.14859
-3.84934
4.37543
-3.97254
2.42975
-3.57499
-1.41958
-5.39212
-3.61021
-2.49937
4.88038
-3.43122
5.51765
1.3964
-5.29959
6.69599
-3.62692
1.71435
-3.07024
3.9149
-1.03728
-2.03296
2.88832
2.50823
-3.11422
0.147656
-0.225901
2.41224
-2.63814
-0.606033
-2.60096
-4.5757
4.90443
-2.10402
4.55306
2.17307
-1.9173
6.47036
1.80799
-3.72529
-3.24792
-3.70576
-1.38417
3.15345
-0.602411
-4.27961
-5.52781
4.18259
0.22418
-7.04688
7.89579
-0.848907
-4.01037
-0.754664
4.91512
-6.06914
0.485111
-4.00024
3.89554
4.81852
5.0427
-11.3887
-0.230708
-6.17638
1.11034
-7.28672
5.54507
-3.53056
7.68637
-10.3652
6.88771
-9.20352
6.51763
-0.769086
6.25218
-4.12312
2.79087
-8.50639
-6.94736
5.50704
-2.79742
6.21811
-3.16704
9.38515
-5.83081
5.29491
4.09024
-1.03288
-4.18135
-5.28036
4.24749
0.0145453
4.17655
4.98666
-2.87887
4.65459
2.26305
-4.6541
-2.13176
-6.48783
1.83373
-3.33404
-1.92201
3.75574
3.16254
3.75208
1.23213
-3.34754
7.23213
-8.20311
-1.89302
-3.25983
5.2612
-1.01371
3.4175
-6.67734
-1.84517
4.76483
-0.729646
-4.03518
0.895406
-4.4268
1.66647
-6.09327
5.25355
-5.64947
2.25379
-9.77215
-5.22896
-5.19622
-2.27997
-5.26347
-7.58789
5.30792
-1.8028
5.56097
-8.53182
7.80218
-3.47572
8.78365
-5.46676
-1.05386
5.89512
1.31022
10.0939
0.150961
-4.66244
-1.93144
3.75044
-1.819
1.17746
-3.64043
0.110009
2.48595
3.46361
-6.78817
0.0213669
-4.64107
-3.91238
7.95998
5.62179
11.6398
1.24379
9.14846
-1.18848
10.3922
4.1898
4.42721
-3.01685
4.47777
0.965924
4.62512
-0.880739
2.81246
1.65579
1.71652
0.779499
2.29999
1.32163
3.14899
0.0919123
-1.9876
4.63835
-8.62784
-0.985548
-8.08254
1.16219
5.42865
-4.26646
2.90243
-0.733645
1.08342
-0.131167
-1.28973
1.42089
-2.73239
-1.90083
-0.451287
-1.62583
2.32957
1.86441
-1.87828
-0.854114
0.329718
-3.93993
3.24527
-3.09761
-0.589388
6.10661
-2.88421
0.246075
-1.16986
-2.35488
-2.88909
2.74504
6.17445
0.295919
3.11278
5.20035
3.10013
0.221263
3.82837
-5.68028
-3.70029
-5.91099
-0.365921
4.5492
1.73775
7.99775
5.82799
4.81428
-1.86306
-10.0662
6.52469
-2.04692
5.18546
-1.15027
-4.943
5.0692
2.32087
-5.69339
0.0439253
-4.89907
-6.946
-0.482051
8.28423
-9.61182
8.55796
5.69361
1.39044
-4.44043
-0.755793
4.29152
0.135694
10.5279
-0.909687
-7.08412
7.99381
-4.51896
3.53341
0.689084
2.62633
2.10998
1.37633
-5.70779
-9.97425
-2.039
-1.54302
-4.38225
0.532729
-2.39713
6.07923
-2.54582
3.8143
5.44799
6.53141
-2.05275
-4.1566
6.29912
-2.48482
4.04659
)
;

boundaryField
{
    wall-4
    {
        type            calculated;
        value           uniform 0;
    }
    velocity-inlet-5
    {
        type            calculated;
        value           uniform -3.75095;
    }
    velocity-inlet-6
    {
        type            calculated;
        value           uniform -5.62643;
    }
    pressure-outlet-7
    {
        type            calculated;
        value           nonuniform List<scalar> 8(3.34521 7.7507 4.40994 9.70481 7.4375 5.12748 5.76036 8.97736);
    }
    wall-8
    {
        type            calculated;
        value           uniform 0;
    }
    frontAndBackPlanes
    {
        type            empty;
        value           nonuniform 0();
    }
}


// ************************************************************************* //
