/*--------------------------------*- C++ -*----------------------------------*\
  =========                 |
  \\      /  F ield         | OpenFOAM: The Open Source CFD Toolbox
   \\    /   O peration     | Website:  https://openfoam.org
    \\  /    A nd           | Version:  6
     \\/     M anipulation  |
\*---------------------------------------------------------------------------*/
FoamFile
{
    version     2.0;
    format      ascii;
    class       volVectorField;
    location    "61";
    object      U;
}
// * * * * * * * * * * * * * * * * * * * * * * * * * * * * * * * * * * * * * //

dimensions      [0 1 -1 0 0 0 0];

internalField   nonuniform List<vector> 
918
(
(0.985049 -0.000714146 0)
(0.00534588 2.96624 0)
(-0.00178306 0.883853 0)
(0.979574 0.00196145 0)
(-0.0130874 2.0622 3.2697e-20)
(-0.00709355 2.94855 -2.57118e-18)
(0.814338 1.11722 4.50537e-19)
(0.158619 0.0791157 -1.41326e-20)
(0.999922 -0.000243576 0)
(0.0839537 0.667633 0)
(0.0133107 0.426446 0)
(0.7344 -0.0147336 0)
(0.0101841 2.93162 0)
(0.00353909 2.7945 0)
(-0.00190509 3.18208 8.36892e-19)
(-0.014038 1.92152 1.94686e-20)
(0.290622 0.0306069 9.65387e-19)
(0.230724 1.10259 3.60169e-19)
(0.964376 0.00673908 0)
(0.00142219 0.42122 0)
(0.0178548 0.100419 -6.62579e-19)
(1.00183 -0.00456024 0)
(0.999851 -0.00892795 0)
(0.975165 -0.00605258 0)
(0.590583 -0.0253328 0)
(0.0217056 2.64376 0)
(-0.012291 2.9119 9.40672e-19)
(-0.00501522 0.936896 0)
(-0.0295578 1.16882 0)
(-0.00303397 0.907369 0)
(-0.021861 2.59563 0)
(-0.00408868 2.11243 -2.61148e-20)
(-0.00937428 1.89356 0)
(-0.0221514 2.9876 -9.26688e-23)
(-0.0164946 3.00551 1.99793e-18)
(0.00230754 3.0006 0)
(0.871841 -0.00973096 0)
(0.376144 0.916257 1.56418e-19)
(0.813248 1.13502 -5.6884e-19)
(0.946136 1.00009 5.74859e-19)
(0.676491 1.21788 -1.03465e-19)
(0.689818 1.17912 5.89371e-19)
(0.186708 0.144294 1.37873e-20)
(0.173482 0.0698206 0)
(1.1583 0.528485 0)
(0.160782 0.131148 6.27812e-20)
(0.137299 0.0730765 -6.5148e-20)
(0.920527 -0.00704706 0)
(1.00026 6.24406e-05 0)
(0.999908 0.000319779 0)
(1.0037 -0.00728268 0)
(1.00089 -0.000947737 0)
(1.00011 -7.65554e-06 0)
(0.093093 1.84237 -7.36836e-19)
(0.0302993 0.860358 0)
(0.119409 0.747092 0)
(0.0148482 0.811151 0)
(0.0478959 0.597834 0)
(0.00375707 2.02639 0)
(-0.00538779 0.738974 0)
(0.00772141 0.459751 0)
(-0.0100362 0.736346 0)
(0.00661217 0.42054 0)
(0.843089 -0.0156875 0)
(0.835973 0.0353801 0)
(0.765719 -0.0091942 0)
(0.80313 0.0398192 0)
(0.70325 0.000219336 0)
(0.0139529 3.0002 9.54275e-19)
(0.0111781 3.00594 0)
(0.00628162 3.00389 0)
(0.0118691 2.9971 1.08371e-23)
(0.00826788 2.95873 -1.41829e-18)
(0.0121868 2.98293 0)
(0.00903075 2.90494 0)
(0.0210786 2.93135 2.19813e-24)
(0.00415492 2.8241 0)
(0.0262328 2.91896 0)
(-0.000883189 2.74512 0)
(0.306975 3.5785 0)
(-0.122349 3.66146 0)
(0.150112 3.27291 -7.78883e-19)
(0.00392681 3.0091 0)
(-0.030217 1.99044 0)
(-0.00720438 2.1748 -1.92014e-20)
(-0.0099893 1.93383 1.81382e-20)
(0.361981 0.143599 -3.35091e-19)
(0.313933 0.00424523 -3.25768e-19)
(0.317551 0.164032 -1.00259e-18)
(0.25653 0.0432198 -6.52671e-19)
(0.263244 1.01834 0)
(0.329682 1.23296 -3.71306e-19)
(0.411764 1.14647 6.12535e-19)
(0.987762 0.00814392 0)
(0.943291 0.00579156 0)
(1.00028 0.000671707 0)
(1.00254 0.00906663 0)
(1.00311 0.00898269 -2.57206e-18)
(0.992136 0.00943011 1.94359e-18)
(-0.0160547 0.751026 0)
(0.00203331 0.430168 0)
(-0.0503225 1.02112 0)
(-0.024524 0.802443 0)
(-0.0109342 0.416515 0)
(-0.0008953 0.128337 2.05196e-19)
(0.0744447 0.0906174 0)
(0.993622 -0.00769426 0)
(0.954041 -0.00648139 0)
(0.745117 0.0296488 0)
(0.671875 0.0421889 0)
(0.662453 0.00926336 0)
(0.978281 -0.00309172 0)
(0.602393 0.0743633 0)
(0.449335 -0.0213187 1.45872e-18)
(-0.040584 2.86107 7.35832e-19)
(0.033539 2.91444 0)
(0.0426995 2.89222 0)
(0.00340514 2.70177 0)
(-0.00880727 2.98621 9.00194e-19)
(-0.0142789 2.89468 0)
(-0.0110974 2.99172 -2.7718e-18)
(-0.0115936 2.92952 9.43881e-19)
(-0.0423521 1.34218 0)
(-0.014018 1.37028 0)
(-0.00755838 2.13691 7.48286e-22)
(-0.00727299 2.09561 0)
(-0.0172313 1.90481 0)
(0.938804 -0.00523807 0)
(0.85714 -0.0111122 0)
(0.863502 0.00501262 0)
(0.949608 -0.0061679 0)
(0.883609 -0.00807761 0)
(0.499885 1.11646 -1.99136e-19)
(0.547141 1.18644 0)
(0.338022 0.850733 3.08319e-20)
(0.282293 0.715233 0)
(0.913353 1.03121 -1.62585e-19)
(1.03475 0.841521 3.2637e-19)
(0.389278 1.31288 0)
(0.539953 1.26888 0)
(0.592913 1.19653 0)
(0.102271 0.181401 -2.91399e-19)
(0.205651 0.152591 0)
(0.18409 0.078301 1.82228e-19)
(0.998129 0.895566 0)
(1.0734 0.743713 0)
(1.10276 0.679039 -2.6214e-19)
(1.13995 0.590305 0)
(1.19564 0.390175 4.65386e-20)
(0.957457 -0.00711145 0)
(0.9627 -0.00811658 0)
(0.900872 -0.00736898 0)
(0.983923 -0.00812601 0)
(0.974414 -0.00803719 0)
(0.93653 -0.006566 0)
(1.0002 0.00250325 0)
(1.00077 0.00123961 0)
(1 0.000763333 0)
(0.0442003 2.0878 4.11575e-19)
(0.144107 1.78714 0)
(0.0192704 2.20457 6.18475e-19)
(0.0522932 1.89062 -5.16558e-19)
(0.164868 1.07885 -2.95774e-19)
(0.0483203 0.936928 0)
(0.118995 0.933571 0)
(0.00241152 0.785512 0)
(0.0257401 0.539414 0)
(-0.00345357 2.25682 -4.75413e-22)
(0.0178277 2.03197 0)
(-0.0048759 2.25766 -1.21157e-20)
(0.00254636 2.03762 1.1601e-20)
(-0.00425117 0.759212 0)
(-0.00372446 0.741698 0)
(0.0119246 0.492564 0)
(-0.00890503 0.741131 0)
(0.00066785 0.426179 0)
(0.939099 0.0136885 0)
(0.855714 -0.0117321 0)
(0.928383 0.00476008 0)
(0.845902 -0.0128077 0)
(0.812152 -0.00308515 0)
(0.897182 0.0238835 0)
(0.870595 0.0298086 0)
(0.788725 -0.00678435 0)
(0.0102126 3.06751 -8.87342e-21)
(0.0153066 3.05885 0)
(0.0123501 2.97031 0)
(0.00762754 2.87663 0)
(0.896976 3.97367 0)
(1.19135 3.36939 9.41945e-19)
(0.0813947 3.09149 0)
(-0.0172427 2.91863 0)
(-0.015074 1.39598 0)
(-0.0358152 1.69613 0)
(-0.0240639 1.53006 0)
(-0.0328841 2.55557 -1.3782e-20)
(-0.0182164 2.24888 0)
(-0.02231 2.39399 0)
(-0.00100993 1.96226 5.37162e-22)
(-0.00508243 2.25125 -2.28714e-20)
(-0.00616493 2.21252 -1.86285e-20)
(-0.00624926 1.94781 0)
(0.400552 0.11902 5.14345e-19)
(0.34544 -0.003463 -5.04519e-19)
(0.232652 1.59112 0)
(0.28686 0.762004 -3.18614e-19)
(0.176088 1.68959 -1.04898e-18)
(0.243723 1.22239 1.04945e-18)
(0.901739 0.0059481 0)
(0.967093 0.0106305 0)
(0.974941 0.00983403 0)
(0.923039 0.00589171 0)
(-0.0123844 0.742441 0)
(-0.0216497 0.745206 0)
(0.00513253 0.426011 0)
(0.135018 0.123777 5.78771e-19)
(0.110496 0.111346 -6.85225e-19)
(0.0996509 0.0762728 0)
(1.10478 0.0896399 2.284e-20)
(1.0885 0.0420224 0)
(1.01739 0.043399 0)
(0.912695 -0.00183431 0)
(0.444006 0.094182 0)
(0.505137 0.0703729 -2.33637e-18)
(0.388867 -0.00755242 8.7793e-19)
(0.0108629 2.97715 7.8188e-19)
(-0.0328747 2.86138 4.56284e-20)
(0.00832669 3.05346 -1.87331e-20)
(0.01565 3.04323 7.02823e-19)
(-0.011861 3.00001 3.10478e-20)
(-0.0123102 2.95226 -1.25289e-22)
(-0.0150257 3.01333 -5.8026e-19)
(0.0143442 3.02662 4.08798e-19)
(0.0075819 3.03486 -6.64477e-19)
(0.934565 0.00205401 0)
(0.939409 -0.00117472 0)
(0.847938 -0.0111579 0)
(0.956392 0.0117288 0)
(0.942491 0.0132111 0)
(0.88174 0.00550157 0)
(0.915569 0.0187244 0)
(0.925289 0.0152331 0)
(0.83817 0.00100623 0)
(0.672702 1.41527 2.87159e-20)
(0.690752 1.5259 0)
(0.118726 0.294784 6.59303e-20)
(0.212098 0.653063 5.20731e-19)
(0.240002 0.693362 -3.05785e-19)
(0.216106 0.499935 6.06247e-19)
(0.338194 0.829481 1.54433e-18)
(0.133293 0.236046 3.72229e-19)
(0.278458 0.170646 6.92772e-19)
(0.236476 0.167117 1.78624e-19)
(0.222175 0.0639214 3.40937e-19)
(1.18778 0.443878 1.0026e-19)
(1.21386 0.244669 9.88739e-20)
(0.00904326 2.24664 2.40484e-19)
(0.039136 1.95467 0)
(0.972058 0.0328435 0)
(0.946207 0.0190838 0)
(0.870308 -0.0153724 0)
(0.0126004 3.07475 0)
(0.0169133 2.94411 1.2398e-18)
(0.0139643 2.95689 0)
(0.00581833 2.84973 -1.23042e-18)
(0.00898856 3.09092 3.02783e-19)
(0.0116404 3.08273 0)
(0.710776 1.82246 -1.74618e-19)
(1.23576 2.62786 5.89741e-19)
(0.695566 2.00065 -1.40848e-18)
(0.0222746 2.97659 -6.78513e-19)
(0.0404121 2.99854 0)
(-0.0385216 2.87911 0)
(-0.00605541 2.23616 -1.26258e-20)
(-0.00473167 2.25668 4.29447e-20)
(-0.000521216 1.99814 -7.13269e-21)
(0.267778 1.40064 1.01037e-18)
(0.283287 0.564255 -6.93224e-19)
(0.071685 2.00535 7.41742e-19)
(0.122968 1.87421 -8.96754e-19)
(0.208315 1.53716 1.0371e-19)
(0.006596 3.12019 -1.68238e-18)
(0.0130247 3.12094 1.85152e-18)
(-0.005125 2.98032 8.42192e-19)
(-0.00155798 2.97512 -8.06413e-19)
(-0.0178045 2.87732 -8.57806e-19)
(0.0125626 3.09985 -2.24973e-18)
(0.00483226 3.10547 2.28168e-18)
(0.264599 0.696926 0)
(0.216688 0.658953 -1.11109e-18)
(0.0729233 0.21335 4.88985e-19)
(0.345413 0.948511 1.10168e-18)
(0.197776 0.279714 -1.69636e-18)
(1.19428 0.174872 4.3693e-20)
(1.21063 0.303459 0)
(1.18972 0.120421 1.32334e-20)
(-0.00125878 2.26523 -1.24191e-21)
(0.00341532 2.25096 0)
(0.0298411 1.99029 0)
(0.313585 1.318 -3.63118e-19)
(0.353698 1.17476 -7.86987e-19)
(0.230031 0.390186 1.40644e-18)
(1.00644 -0.00968941 0)
(1.00774 -0.0077891 4.72694e-19)
(-0.0369819 1.32464 0)
(-0.0438554 1.32875 0)
(1.00244 0.00327792 1.34851e-21)
(1.00321 0.00781965 9.70506e-19)
(-0.0238802 2.54191 1.74607e-20)
(-0.0272281 2.5847 0)
(0.0404348 3.17288 4.80375e-19)
(0.375482 3.54344 0)
(1.15453 0.69044 -4.69416e-20)
(1.01183 0.0106797 -2.82737e-21)
(1.02084 -0.00904059 0)
(1.00158 0.000272193 1.55534e-22)
(0.108908 1.37271 0)
(0.139482 2.59024 0)
(0.023043 1.3206 0)
(-0.00179061 2.63761 2.68141e-21)
(-0.0220966 2.58654 -6.02992e-21)
(0.995819 0.0305941 2.00401e-21)
(1.06285 0.00574481 0)
(1.0997 0.0283217 0)
(-0.0338648 1.74225 0)
(-0.0200438 2.58647 0)
(-0.0112996 1.31401 0)
(0.310166 1.48448 -1.80542e-19)
(1.01151 -0.00906447 0)
(1.00971 -0.0129924 0)
(1.00228 0.000940447 6.05593e-19)
(1.00548 -0.00491711 -7.13614e-19)
(1.00113 -0.000864459 0)
(-0.0207268 1.46154 0)
(-0.00968478 1.38253 0)
(-0.0160327 1.4232 0)
(-0.0133717 1.30164 0)
(-0.0256277 1.29203 0)
(-0.0199599 1.27057 0)
(1.0356 -0.00434629 0)
(1.0189 0.0150192 -8.68433e-22)
(0.809827 1.30828 2.87575e-19)
(1.00241 0.000377001 -6.04841e-19)
(1.00338 0.00445855 7.22202e-19)
(1.00127 0.00209931 0)
(1.01115 0.00964031 6.02391e-19)
(1.00687 0.00747305 -7.33487e-19)
(1.00717 0.0111363 0)
(-0.024814 2.61402 0)
(-0.0275671 2.5929 -2.97287e-20)
(-0.0246902 2.60712 2.10454e-20)
(1.24056 0.271814 4.98015e-19)
(1.16292 0.0886727 0)
(0.0442797 3.09113 -9.6052e-19)
(0.051543 2.8732 -6.80949e-20)
(0.103485 3.20183 1.28263e-18)
(0.12201 3.21379 -2.72751e-19)
(0.142365 3.25822 0)
(0.0225934 3.1379 2.63826e-19)
(0.0612401 3.16182 9.56779e-19)
(0.0614993 3.17892 -4.93501e-19)
(0.02726 3.12915 0)
(0.589002 0.288026 0)
(0.531309 0.308883 0)
(1.13549 0.721454 1.02504e-19)
(1.10153 0.85785 -8.24552e-20)
(1.19403 0.607078 0)
(1.22128 0.542099 0)
(1.01574 0.012029 -1.11884e-18)
(1.01471 0.0127761 1.40663e-18)
(1.02569 -0.00874859 0)
(1.02403 -0.0103142 0)
(1.00673 0.00313047 0)
(1.01091 0.00420763 0)
(1.00427 0.00220428 0)
(1.00941 0.00637629 0)
(1.00689 0.00505018 0)
(1.00443 0.00528061 0)
(0.0986669 1.37129 0)
(0.084658 1.33176 0)
(0.133201 1.41515 0)
(0.143117 1.39892 0)
(0.151589 2.61328 0)
(0.190869 2.6789 -4.06482e-19)
(0.107125 2.67293 0)
(0.0802914 2.6751 1.64764e-19)
(0.0282989 2.68061 -1.59227e-19)
(0.0147206 1.32117 0)
(0.0206276 1.25383 0)
(0.0170874 1.33607 0)
(0.0345295 1.27451 0)
(-0.00095075 1.99425 2.89138e-20)
(-0.0218844 2.61467 -3.25453e-20)
(-0.00843385 2.68019 -2.09807e-20)
(-0.0199147 2.69282 0)
(-0.0240297 2.62116 2.14979e-20)
(-0.0227092 2.6166 3.35032e-20)
(0.00635458 1.99151 -2.1808e-20)
(-0.00987246 2.40634 4.36667e-20)
(-0.0148904 2.42933 2.37832e-20)
(1.01086 0.0397395 1.13915e-18)
(1.00361 0.0181231 -1.41409e-18)
(1.004 0.0446068 -1.15959e-18)
(0.974929 0.0374715 1.45867e-18)
(1.06449 0.00904395 0)
(1.04978 -0.00650642 0)
(1.09234 0.0372626 0)
(1.07554 0.0147749 0)
(1.07429 0.000581474 0)
(1.14097 0.0788573 0)
(1.11516 0.045724 0)
(1.11815 0.0373478 0)
(-0.0299759 2.43656 3.15999e-21)
(-0.0208214 2.02232 0)
(-0.0209302 2.22233 0)
(-0.0220396 2.60739 -1.76577e-20)
(-0.0188219 2.61822 5.40534e-22)
(-0.00113946 1.58073 -5.22242e-20)
(-0.00990667 1.5043 5.33162e-20)
(-0.0190725 1.39488 0)
(-0.0232814 1.40081 0)
(-0.0303728 1.39268 0)
(-0.00774605 1.31537 0)
(0.0011708 1.24468 0)
(0.386108 1.50963 3.04159e-19)
(0.433435 1.51384 1.58274e-19)
(0.593978 2.46866 -2.40193e-19)
(0.387923 2.56434 6.97595e-19)
(0.351912 2.05647 6.48797e-20)
(1.02068 -0.00802607 0)
(1.01578 -0.0093731 0)
(1.01484 -0.013229 0)
(1.0077 -0.000582501 0)
(1.00487 -0.000669649 0)
(1.00799 -0.00449401 0)
(1.00954 -0.00345994 0)
(1.01464 -0.00431422 0)
(1.01965 0.0161467 1.09781e-18)
(1.01729 0.0147193 -1.38832e-18)
(1.01997 0.0184277 -1.10739e-18)
(1.01759 0.0171342 1.3787e-18)
(0.766447 1.35547 0)
(0.706392 1.38979 2.56404e-19)
(0.87193 1.2364 1.09054e-19)
(0.910395 1.19523 -1.44735e-19)
(1.16528 2.6148 2.40377e-19)
(0.75665 0.130535 5.69083e-19)
(1.17099 0.106718 0)
(1.21301 0.200106 -4.04068e-19)
(1.19398 0.153873 -1.67901e-20)
(1.01308 0.16594 0)
(0.0789626 3.01968 3.31659e-19)
(0.083771 2.90321 -1.1319e-18)
(0.0276085 2.35945 7.17066e-19)
(0.139899 -0.215853 -3.33471e-19)
(0.343365 3.44697 -2.58511e-19)
(0.193869 3.34114 0)
(0.224566 3.39825 3.36741e-19)
(0.223841 3.07773 -1.17429e-18)
(0.256746 3.19667 0)
(0.00730577 3.1224 4.98831e-20)
(0.0177011 3.13114 -5.74353e-19)
(0.0167901 3.12703 8.45361e-19)
(0.0335011 3.13989 0)
(0.0313418 3.14982 0)
(1.25908 2.57942 0)
(0.529951 0.794291 -5.14105e-19)
(1.02253 1.03072 -1.81032e-20)
(0.986547 1.08434 0)
(0.855995 0.968367 -1.00428e-19)
(1.0787 0.905757 2.67331e-20)
(0.350907 0.324003 -8.21572e-19)
(0.666825 0.319055 -2.19257e-20)
(0.570219 0.221836 3.85061e-19)
(0.560949 0.326962 2.84101e-20)
(0.452228 0.286752 -1.13965e-18)
(0.624653 0.317931 0)
(0.696578 0.420597 6.48727e-19)
(0.700042 0.427222 0)
(0.597456 0.32848 0)
(0.522182 0.254115 0)
(0.792275 0.650712 3.84097e-19)
(1.25094 0.304513 -4.05657e-19)
(1.24296 0.436077 0)
(1.2438 0.392529 0)
(0.701409 0.185907 5.84664e-19)
(0.841102 0.550343 -3.64902e-19)
(0.762865 0.51226 6.50404e-19)
(0.962949 0.447341 -6.53604e-19)
(1.01847 0.0146238 7.44093e-19)
(1.01712 0.0136197 -7.5169e-19)
(1.01601 0.0141708 0)
(1.03699 -0.00456175 0)
(1.0304 -0.00771718 -7.04449e-19)
(1.0286 -0.0105947 6.97125e-19)
(1.02474 0.0108738 0)
(1.02271 0.0149686 0)
(1.0127 0.00466316 0)
(1.01456 0.00910858 0)
(1.01633 0.00418904 0)
(1.01553 0.00290008 0)
(0.065666 1.35608 0)
(0.0655246 1.30495 0)
(0.149831 1.41248 5.25211e-20)
(0.277394 1.48053 8.8465e-20)
(0.172193 1.45211 1.98243e-19)
(0.213035 1.44978 -3.20997e-19)
(0.163318 1.4251 0)
(0.146615 1.59038 -7.51302e-20)
(0.146311 1.58342 0)
(0.346276 2.01163 -9.44464e-20)
(0.326582 2.34101 5.41205e-19)
(0.205512 1.46397 6.54732e-20)
(0.275878 1.39692 2.81386e-20)
(0.209785 1.39271 -2.29551e-20)
(0.289892 1.33629 -7.25034e-20)
(0.26021 1.58071 0)
(0.270804 1.62892 8.47708e-20)
(0.0260932 2.26046 -1.70948e-20)
(0.0380318 2.67405 0)
(0.0640618 2.41067 9.99133e-20)
(0.0592158 2.43305 0)
(0.0683284 2.69267 -1.82941e-19)
(0.0426989 2.70809 0)
(0.0236953 1.43888 5.2674e-20)
(0.0323445 1.49708 0)
(0.0276516 1.40484 0)
(0.0195291 1.40989 -5.99746e-20)
(0.000892863 2.66484 -1.83446e-21)
(0.0252131 2.69792 1.81574e-19)
(0.00852311 2.73592 9.89999e-22)
(0.001098 1.84118 -1.79125e-20)
(-0.00454458 1.69247 -1.32438e-20)
(0.0122436 1.30475 0)
(0.0184179 1.23316 0)
(0.0392104 1.58808 -2.0524e-20)
(0.0351185 1.46447 -5.20023e-20)
(0.0280902 1.53862 5.80306e-20)
(0.0461556 1.61334 0)
(-0.0311533 2.27434 1.14908e-19)
(-0.0342233 2.55535 -4.89076e-20)
(-0.0201844 2.4547 7.88399e-21)
(-0.00520052 1.85894 2.1721e-20)
(-0.0278872 2.50937 1.00605e-20)
(-0.0232303 2.44999 -2.09902e-20)
(1.01774 0.021741 -7.4768e-19)
(1.01394 0.0281697 7.56164e-19)
(1.01225 0.0160764 0)
(1.01219 0.0697992 1.03249e-18)
(0.991028 0.0583849 -1.1866e-18)
(0.949792 0.0533861 1.33165e-18)
(1.01295 0.11635 -1.40777e-19)
(1.04389 -0.00471366 0)
(1.05208 -0.000497287 6.74145e-19)
(1.04021 -0.00819987 -6.73771e-19)
(1.07214 0.0433578 -3.99181e-20)
(1.06481 0.0285488 3.44903e-19)
(1.06421 0.0651402 0)
(1.05426 0.0541448 -1.24338e-19)
(1.0325 0.044695 0)
(1.025 0.0403289 0)
(1.02759 0.0136418 0)
(1.02396 0.0160998 0)
(1.04067 0.0334718 2.55553e-19)
(1.03965 0.0290955 -5.66133e-19)
(1.05305 0.0384519 -2.7024e-19)
(1.04818 0.0384056 -2.98415e-19)
(1.0776 0.0697317 5.69841e-19)
(1.10152 0.0557397 0)
(1.10837 0.0944192 0)
(-0.0291256 2.28105 6.88339e-20)
(-0.0302773 2.02832 3.27648e-21)
(-0.0256942 2.03802 0)
(-0.0306143 2.45 -6.85381e-20)
(-0.0277057 2.40772 -6.30503e-21)
(-0.0348882 2.47733 8.66939e-21)
(-0.021962 2.62896 -2.84298e-20)
(-0.0267361 2.57131 1.47759e-21)
(-0.0249667 2.52453 -9.74836e-21)
(-0.0177868 2.62205 1.95073e-20)
(-0.0218193 2.62425 -2.2381e-20)
(-0.00955761 1.49751 -2.97713e-22)
(-0.00460455 1.62884 -5.11131e-20)
(0.37756 1.44729 -1.32589e-19)
(0.372294 1.38046 1.93863e-21)
(0.64813 1.43788 -2.48122e-19)
(0.525205 1.50738 -1.54282e-19)
(0.579201 1.46596 0)
(0.606774 2.42673 2.1296e-19)
(0.667756 2.43448 3.33093e-19)
(0.419561 2.52284 9.82693e-20)
(0.403156 2.5441 -5.72323e-19)
(0.502419 2.48359 5.39881e-19)
(0.557367 2.4785 0)
(0.487778 2.5311 -5.37766e-19)
(0.258214 2.59527 1.11098e-18)
(0.365807 2.5714 -5.94362e-20)
(0.280768 2.65778 -1.55918e-18)
(0.970322 2.39243 6.95583e-19)
(0.848875 2.39354 0)
(1.01145 0.00137643 2.45414e-20)
(1.01536 -0.00520647 -2.00434e-20)
(1.01773 -0.0039729 -3.66374e-19)
(1.01559 -0.00106794 3.65027e-19)
(1.01311 0.00182195 0)
(0.636376 1.30213 0)
(0.676646 1.18709 0)
(0.790888 1.11708 0)
(0.664303 1.14516 0)
(1.19627 2.63023 5.14224e-20)
(1.08898 2.38184 0)
(0.819499 2.17461 3.31678e-21)
(0.822376 2.43652 0)
(0.916964 2.52642 -4.14349e-19)
(0.9484 2.47597 2.76653e-19)
(0.784269 0.161332 0)
(0.733826 0.143433 1.55013e-19)
(0.91225 0.161934 8.98898e-19)
(0.824699 0.143336 -3.3603e-19)
(0.765065 0.0899248 -1.04232e-18)
(1.08792 0.243712 -8.16396e-19)
(0.987404 0.312438 -9.75531e-21)
(0.932317 0.348877 7.94728e-19)
(1.01566 0.257357 6.75836e-19)
(0.934671 0.203948 -1.18676e-18)
(0.892931 0.217679 1.48491e-19)
(0.934782 0.313756 -3.10765e-19)
(0.909185 0.220144 0)
(1.00162 0.20664 5.80255e-19)
(1.05682 0.21553 0)
(1.05245 0.226336 0)
(1.12505 0.123824 2.60072e-19)
(1.06571 0.193101 -1.0804e-20)
(1.08 0.245667 -1.48889e-19)
(1.11407 0.209935 0)
(1.02399 0.0482739 5.79202e-19)
(1.03776 0.0630031 7.20686e-19)
(1.03314 0.0469027 -5.74922e-19)
(1.04239 0.0691355 -4.82933e-19)
(1.0153 0.0746163 -7.31942e-19)
(0.986148 0.170432 0)
(0.989518 0.109026 0)
(0.961586 0.0721147 -4.74555e-19)
(0.898686 0.0990508 1.89438e-19)
(1.03923 0.116063 6.68753e-19)
(1.07573 0.135685 -7.62379e-19)
(1.07012 0.179947 6.85603e-19)
(1.03549 0.156839 0)
(1.08596 0.121703 0)
(1.05738 0.111783 -3.12755e-19)
(1.04287 0.1071 -5.43242e-19)
(0.58735 1.08862 1.07762e-19)
(0.615279 1.40913 -1.10292e-20)
(1.14565 2.72166 -2.31614e-19)
(1.19821 3.10553 -4.91339e-22)
(1.25426 2.73109 -9.55362e-20)
(1.29427 2.70224 5.96198e-21)
(1.27001 2.32561 -3.79109e-20)
(1.18598 3.01107 -6.09369e-20)
(1.20538 2.96797 2.03431e-19)
(1.18007 3.2592 -1.2784e-19)
(1.39821 2.97408 1.593e-19)
(1.4098 2.91077 0)
(0.568747 0.820827 -4.62362e-20)
(0.215061 1.21449 4.68176e-19)
(0.51131 0.370564 5.28707e-19)
(0.395332 0.13273 6.01094e-19)
(0.493912 0.314298 6.4458e-19)
(0.544725 0.426219 -1.04502e-18)
(0.550431 0.414694 8.605e-19)
(0.47783 0.323578 -3.24668e-19)
(0.365955 0.26249 7.35818e-19)
(0.730654 0.253139 -3.36814e-19)
(0.686072 0.283359 0)
(0.627627 0.198241 8.00533e-21)
(0.737444 0.505572 3.53634e-19)
(0.705692 0.476531 -1.28365e-18)
(0.633646 0.437094 1.72301e-20)
(0.627435 0.415828 0)
(0.713139 0.715557 3.64978e-19)
(0.828882 0.79638 4.00199e-19)
(0.766613 0.846267 -4.66578e-19)
(0.898054 0.818895 -1.47972e-19)
(0.933756 0.8619 -3.38312e-20)
(0.941332 0.869487 3.46988e-20)
(0.877808 0.673911 -6.53864e-19)
(0.950381 0.721713 1.37573e-19)
(1.00432 0.726094 0)
(1.00307 0.702075 -1.75613e-19)
(1.03129 0.337322 2.05475e-19)
(1.15822 0.336297 2.45087e-19)
(1.07391 0.281347 3.33853e-19)
(0.998727 0.38271 -4.10243e-19)
(1.05361 0.483644 0)
(1.13596 0.425155 0)
(0.898889 0.419069 1.5098e-21)
(0.84986 0.315487 0)
(0.894805 0.304949 3.80056e-19)
(0.917981 0.346149 4.95866e-21)
(0.982675 0.491707 1.82575e-18)
(0.915386 0.550393 4.71197e-19)
(0.937496 0.506889 -4.99487e-19)
(0.855754 0.484004 5.32345e-19)
(0.824271 0.457431 3.39719e-19)
(0.804245 0.431499 -3.32873e-19)
(1.02812 -0.000377869 6.05135e-19)
(1.0204 0.000517113 0)
(1.01904 0.00134251 3.94945e-19)
(1.0226 -0.00078674 -8.93994e-19)
(1.02253 0.00452232 4.35564e-19)
(1.02003 0.0115654 -9.11567e-19)
(1.02077 0.0113494 0)
(1.01971 0.0120872 -1.8988e-19)
(1.01653 0.00776031 4.7586e-19)
(1.01668 0.0108714 -2.38834e-19)
(1.01728 0.0105581 1.7476e-19)
(0.0265903 1.32854 0)
(0.0339553 1.38055 0)
(0.0426705 1.33352 0)
(0.0470503 1.27916 0)
(0.0789948 1.40101 -8.42288e-20)
(0.083404 1.3731 2.50998e-20)
(0.0907814 1.56553 4.1699e-21)
(0.0985448 1.40249 -3.58951e-20)
(0.0385316 1.47539 4.50175e-20)
(0.0428806 1.47099 -3.52999e-20)
(0.0671103 1.39087 -1.82593e-20)
(0.0565418 1.39268 7.57192e-20)
(0.0506029 1.36905 1.18377e-20)
(0.0389043 1.38847 7.47815e-21)
(0.0996238 2.37658 -1.10467e-19)
(0.0918224 2.42339 0)
(0.142658 2.02477 1.02614e-19)
(0.13093 1.7013 3.68563e-20)
(0.220872 2.02382 -8.19308e-20)
(0.198635 2.44095 0)
(0.216625 2.40436 -6.35977e-19)
(0.328985 2.36789 4.20926e-19)
(0.246436 1.98996 -2.24683e-19)
(0.135463 2.15293 1.50298e-19)
(0.113831 2.25669 0)
(0.0170023 1.86232 -1.33271e-20)
(-0.00388923 2.38613 -1.37578e-20)
(0.00347063 2.1417 0)
(0.00708036 2.44798 -1.65182e-20)
(0.0266669 2.28662 1.83093e-20)
(0.0102762 1.41702 -1.02984e-20)
(0.00946294 1.40049 1.74679e-19)
(0.00826996 1.40763 -5.5881e-20)
(0.0176437 1.4116 -5.03125e-20)
(0.0218601 1.44218 0)
(0.00673904 1.39086 0)
(-0.00132462 1.30194 -6.71554e-20)
(0.00198296 1.37624 1.90092e-20)
(0.00697013 1.37845 0)
(0.00663193 1.29707 -5.22443e-20)
(0.0129186 1.22343 1.04012e-19)
(1.04238 0.014934 0)
(1.04888 0.0104045 -6.30337e-20)
(1.03908 0.0240948 -4.5624e-19)
(1.04941 0.02311 0)
(1.0546 0.0224405 0)
(1.03628 0.0129431 -6.77335e-21)
(1.03009 0.0133394 7.35535e-19)
(1.03195 0.0173546 8.91202e-19)
(1.02557 0.0210855 0)
(1.0219 0.021563 0)
(1.03553 0.0258525 4.55146e-19)
(1.02577 0.0280713 0)
(1.02312 0.0284646 0)
(-0.0212597 2.02929 0)
(-0.00864216 1.65642 -2.25248e-21)
(-0.0101529 1.76332 -3.22351e-20)
(-0.00340747 1.38616 0)
(-0.00888018 1.55685 -2.74235e-20)
(-0.0137502 1.46469 1.77076e-20)
(-0.0070702 1.39837 0)
(0.405279 1.63328 0)
(0.366623 1.31885 -7.32862e-23)
(0.277803 1.34829 0)
(0.436788 1.31683 -7.18735e-20)
(0.472644 1.47327 0)
(0.458067 1.41579 5.51169e-20)
(1.0407 2.67432 -1.47625e-20)
(0.984964 2.41164 -8.73954e-19)
(0.94734 2.21104 9.79798e-19)
(0.865368 2.38569 2.36619e-19)
(0.853431 2.49137 0)
(0.922018 2.48665 0)
(0.954103 2.38562 0)
(0.930161 2.37607 -9.15824e-19)
(0.692577 2.45652 -3.59326e-19)
(0.801122 2.44035 -9.37502e-20)
(0.808499 2.41849 7.06396e-20)
(0.704614 2.40642 0)
(0.809833 2.3998 0)
(0.770637 2.41637 -3.60311e-19)
(0.766748 2.46981 0)
(0.626052 1.06723 0)
(0.514752 0.865398 -5.32434e-19)
(0.520229 0.936295 -3.07684e-20)
(0.501366 1.07469 0)
(0.48799 0.983746 8.15688e-19)
(0.796033 0.885374 -1.2705e-19)
(0.801904 1.02031 0)
(0.782486 1.00283 1.72865e-19)
(0.670396 1.02078 0)
(0.662136 0.926344 0)
(1.16401 2.75773 -2.06548e-19)
(1.13906 2.81601 -7.97561e-20)
(0.924039 2.3397 5.78612e-20)
(0.900783 2.3204 -7.05799e-20)
(1.13359 2.73553 0)
(1.08556 2.70339 8.47829e-20)
(1.10176 2.49852 -2.86216e-19)
(1.0033 2.25751 -2.84036e-20)
(0.498768 1.33515 0)
(0.517898 1.08034 -9.49364e-20)
(0.593725 1.18179 0)
(0.846672 0.225991 0)
(0.759971 0.174798 0)
(0.677027 0.14004 0)
(0.857376 0.22779 -5.9903e-19)
(0.751766 0.221801 3.51878e-19)
(0.919238 0.0859286 -3.91182e-19)
(0.928341 0.133702 0)
(0.904375 0.148836 1.69208e-19)
(0.838695 0.108834 6.77724e-19)
(0.800065 0.0715814 -4.23302e-19)
(1.09801 3.3511 -6.85562e-19)
(1.16517 3.27429 0)
(1.11659 3.43604 -1.59058e-18)
(0.657743 3.58184 1.32564e-18)
(1.02719 3.07867 1.33214e-19)
(0.530275 0.789956 5.51432e-19)
(0.511622 0.758407 0)
(0.356682 0.389995 -1.4207e-19)
(0.479061 0.635716 8.36751e-19)
(0.539679 0.370502 -1.88501e-19)
(0.513187 0.462982 2.22107e-19)
(0.687508 0.528817 4.56989e-19)
(0.732897 0.561325 0)
(0.657618 0.570855 0)
(0.637827 0.534236 0)
(1.01229 0.609336 8.48362e-20)
(0.966275 0.590176 -4.56161e-19)
(0.976684 0.603371 3.46964e-19)
(1.04149 0.54556 -3.36144e-19)
(1.08682 0.514861 0)
(1.08892 0.598214 -8.76588e-20)
(0.884116 0.413159 -7.53703e-19)
(0.87268 0.40163 -9.69622e-19)
(0.805132 0.397855 5.95077e-19)
(0.817321 0.364241 -6.17442e-19)
(0.856038 0.324997 -4.84984e-19)
(0.805355 0.328067 5.94208e-19)
(1.02657 0.00662194 -4.55667e-19)
(1.02619 0.00674508 9.18e-19)
(1.02992 0.000891506 5.86198e-19)
(1.03412 0.00153906 -7.03864e-19)
(1.0339 0.011811 0)
(1.02972 0.0119415 -1.15158e-18)
(0.0798461 1.64509 1.19544e-20)
(0.0610535 1.59593 0)
(0.100935 1.69945 6.47849e-20)
(0.111554 1.67653 -5.66325e-20)
(0.0846071 1.56377 -7.61483e-21)
(0.0752509 1.5641 0)
(0.00564429 1.69359 0)
(-0.00692506 1.50453 1.45888e-20)
(-0.00626548 1.44457 -1.31018e-20)
(-0.0114336 1.55365 3.21345e-21)
(-0.00335731 1.89074 2.11408e-20)
(-0.0148632 1.94542 -8.13998e-21)
(0.494589 1.36588 -2.31142e-19)
(0.496963 1.36173 2.53063e-19)
(0.449186 1.30858 7.93433e-21)
(0.429551 1.29552 6.17588e-21)
(0.625972 1.31055 0)
(0.5558 1.40362 1.32531e-19)
(0.556378 1.40599 -1.29063e-19)
(0.485656 1.29405 -7.63946e-21)
(0.524231 1.25008 0)
(0.588593 1.21524 0)
(0.666483 2.42006 5.29095e-19)
(0.661021 2.4492 1.23938e-18)
(0.717281 2.46432 -8.52539e-19)
(0.616411 2.43595 -1.95947e-19)
(0.557866 2.53037 2.62703e-19)
(0.49838 2.49677 -6.75806e-19)
(0.993122 2.39037 -5.51737e-19)
(1.02547 2.4082 0)
(0.951859 2.19509 -6.03892e-19)
(1.05636 2.68445 0)
(1.05528 2.6657 0)
(0.605307 2.29451 2.75918e-20)
(1.12006 3.0715 9.59609e-20)
(0.998977 2.97013 -1.46841e-19)
(0.325185 0.811022 0)
(0.327624 0.696723 -2.95674e-19)
(0.530643 0.629514 -2.95733e-19)
(0.369038 2.13802 0)
(0.405355 2.74524 -9.37527e-20)
(0.415326 2.48089 0)
(0.720946 0.680768 -7.78151e-19)
(0.785785 0.6849 1.08443e-18)
(0.793523 0.654639 -1.02792e-18)
(0.694902 0.640947 -9.89619e-20)
(0.755777 0.599627 -4.06867e-19)
(0.972816 2.75614 -7.26815e-20)
(1.01461 2.76166 -1.87361e-19)
(0.556803 2.21464 4.03017e-19)
(0.607397 1.73888 -3.23531e-19)
(0.706325 1.85753 -4.69861e-19)
(0.978754 2.3966 -1.3546e-19)
(0.978274 2.35038 3.42355e-19)
(0.65026 1.77119 3.16806e-20)
(0.4563 1.30131 1.6379e-19)
)
;

boundaryField
{
    wall-4
    {
        type            noSlip;
    }
    velocity-inlet-5
    {
        type            fixedValue;
        value           uniform (1 0 0);
    }
    velocity-inlet-6
    {
        type            fixedValue;
        value           uniform (0 3 0);
    }
    pressure-outlet-7
    {
        type            zeroGradient;
    }
    wall-8
    {
        type            noSlip;
    }
    frontAndBackPlanes
    {
        type            empty;
    }
}


// ************************************************************************* //
