/*--------------------------------*- C++ -*----------------------------------*\
  =========                 |
  \\      /  F ield         | OpenFOAM: The Open Source CFD Toolbox
   \\    /   O peration     | Website:  https://openfoam.org
    \\  /    A nd           | Version:  6
     \\/     M anipulation  |
\*---------------------------------------------------------------------------*/
FoamFile
{
    version     2.0;
    format      ascii;
    class       volScalarField;
    location    "48";
    object      p;
}
// * * * * * * * * * * * * * * * * * * * * * * * * * * * * * * * * * * * * * //

dimensions      [0 2 -2 0 0 0 0];

internalField   nonuniform List<scalar> 
918
(
0.536519
1.26244
0.00518047
0.536422
-0.01053
1.23014
-0.491173
0.673814
0.517647
-0.111976
-0.046986
0.516355
1.08743
0.853959
-1.16836
-0.0121781
0.636943
-0.412696
0.51563
-0.061451
0.704223
0.524341
0.526811
0.517603
0.575948
0.809272
0.964507
0.000642233
0.00794504
0.00409456
-0.0116462
-0.0315093
-0.0269317
1.11328
1.16519
1.18837
0.484399
0.318737
-0.3832
-0.435177
-0.417981
-0.515214
0.669029
0.667366
-0.201992
0.676074
0.680914
0.503429
0.517038
0.517874
0.519018
0.517902
0.51919
0.397215
-0.115217
-0.144317
-0.0949626
-0.0918794
0.0500154
-0.050945
-0.0548314
-0.0453146
-0.0455964
0.43398
0.51216
0.509211
0.521231
0.530826
1.2026
1.17634
1.20239
1.11301
1.13054
1.06439
1.03729
0.875612
0.898865
0.836694
0.823424
-1.63142
-2.58647
-0.586191
-0.305216
-0.0100164
-0.0111189
-0.00665503
0.630498
0.631484
0.637486
0.643299
1.0317
-0.384808
-0.45397
0.516129
0.514638
0.52386
0.524764
0.519717
0.519725
-0.0547848
-0.0527101
-0.0454792
-0.0561971
-0.0484459
0.695484
0.69305
0.517045
0.514496
0.539932
0.561581
0.550976
0.254791
0.582874
0.597997
0.670234
0.817619
0.804981
0.817113
0.93996
0.907394
0.996607
1.01825
0.0136616
-0.000420017
-0.0160007
-0.0180992
-0.0171418
0.480167
0.473778
0.501148
0.487999
0.491017
0.222912
0.071066
0.401612
0.425659
-0.304963
-0.348969
-0.44753
-0.446343
-0.547898
0.593215
0.663006
0.659035
-0.216653
-0.14345
-0.269004
-0.0865777
-0.142406
0.49445
0.500646
0.496752
0.512054
0.506241
0.508658
0.521119
0.518293
0.519891
0.456129
0.589432
0.316594
0.290094
-0.270721
-0.162364
-0.252323
-0.0805631
-0.073726
0.0607621
0.087999
0.0372143
0.0241837
-0.0646847
-0.0578014
-0.0616694
-0.0459348
-0.050722
0.425548
0.412654
0.445091
0.452526
0.500075
0.501459
0.505675
0.503694
0.988675
1.01136
1.01741
0.993617
-3.57285
-6.22212
0.0447107
0.206283
-0.00830969
-0.0100336
-0.00010312
-0.00758063
0.000913233
-0.00182413
-0.0123237
-0.013658
-0.00962148
-0.0103743
0.626501
0.627559
0.991533
1.0252
0.983441
0.961362
0.505444
0.507353
0.511977
0.508869
-0.0491221
-0.0513518
-0.0497089
0.681533
0.689148
0.686978
0.214441
0.126882
0.305046
0.335835
0.621435
0.605157
0.618804
0.730234
0.768869
1.03472
1.05893
1.04297
1.05568
1.10649
1.12939
1.09461
0.458912
0.469734
0.464062
0.504277
0.501936
0.502962
0.499077
0.500181
0.498716
-0.0414909
-0.416583
0.477827
0.480053
0.467771
0.473837
0.678678
0.76124
0.64428
0.653294
0.651727
-0.0386629
-0.0860932
0.248327
0.220119
0.365485
0.399569
0.381719
0.963678
0.923714
0.971981
0.947157
0.912046
0.93642
-0.353978
-2.12748
-1.11779
0.611426
0.412975
0.505089
0.00718435
-0.0104523
-0.00615872
1.02524
1.06423
0.659354
0.841885
0.795726
0.793528
0.820383
0.881386
0.81352
0.848508
0.879947
0.85699
0.54658
0.48567
0.499354
0.838005
0.894415
0.0910243
0.0151638
-0.00845849
0.111092
0.179052
0.147888
1.03881
0.950128
1.01436
0.514734
0.515667
-0.00791412
-0.0266943
0.519762
0.51948
-0.0161662
-0.00686475
0.523664
-0.93999
0.0976585
0.509202
0.499016
0.515756
-0.0770177
0.33069
-0.0516424
0.0343407
-0.00234362
0.511599
0.446071
0.404184
0.00156876
-0.0204358
-0.0526036
-0.211977
0.512475
0.51084
0.515136
0.515966
0.51673
-0.0178301
-0.0161899
-0.0122
-0.0493574
-0.0444398
-0.055343
0.479274
0.49901
-0.186958
0.515424
0.517514
0.51723
0.511346
0.51634
0.51493
-0.0144166
-0.0200757
-0.0214896
0.195906
0.331658
0.708402
0.78429
0.657338
0.488886
0.190093
0.643494
0.696575
0.621223
0.751795
0.656352
0.667821
0.16336
0.0230209
0.167123
0.0997079
0.506093
0.505464
0.496564
0.493477
0.510556
0.508248
0.513427
0.510603
0.513774
0.514948
-0.0354899
-0.0728015
-0.0854311
-0.140031
0.294653
0.55776
0.227058
0.252064
0.160646
-0.0435046
-0.041845
-0.0503777
-0.0552422
-0.00654193
-0.0185589
0.0286543
0.0348433
0.0166732
-0.010473
-0.0167231
-0.0174246
-0.0228244
0.504914
0.504232
0.510062
0.518513
0.455551
0.459237
0.425805
0.444469
0.430778
0.370891
0.401047
0.378184
-0.00892105
0.00246343
-0.00265152
-0.0187211
-0.0168349
-0.0392308
-0.0314217
-0.0300951
-0.0266486
-0.0301239
-0.046331
-0.0491579
-0.175785
-0.292444
0.94407
0.884903
0.128726
0.502407
0.508049
0.505232
0.509874
0.513077
0.513732
0.511325
0.507831
0.499148
0.500545
0.497409
0.498423
-0.127112
-0.234735
-0.0673783
-0.13857
0.145081
0.611173
0.33976
0.286224
0.271448
0.494116
0.711201
0.631186
0.694913
0.689496
-0.393216
0.0197487
-0.321367
0.228472
0.21454
0.733129
0.775363
0.793036
0.749651
0.705802
-0.0326052
0.544768
-0.0597078
-0.0123939
0.1771
0.0638523
0.674714
0.636677
0.642346
0.65986
0.672681
0.6522
0.633496
0.6289
0.656271
0.661581
0.495697
0.224827
0.183562
0.137178
0.624956
0.522103
0.574533
0.495584
0.5016
0.504088
0.502982
0.484043
0.491373
0.487078
0.494056
0.497655
0.505102
0.505303
0.50124
0.503102
-0.0658766
-0.0697822
-0.0700157
-0.123894
-0.126207
-0.168915
-0.0874204
0.100407
0.0453511
0.234301
0.369487
0.0742197
-0.0492496
-0.0345997
0.0199676
0.183542
0.184101
0.0501022
0.166718
0.119537
0.113113
0.202589
0.227239
-0.0307176
-0.030668
-0.0342079
-0.0400532
0.0115374
0.111886
0.0949492
-0.00662034
-0.0142458
-0.0396408
-0.0422382
-0.00740387
-0.01992
-0.0138746
-0.00181088
-0.048176
-0.021295
-0.0099151
-0.00669141
-0.0107745
-0.00905691
0.498396
0.500507
0.50046
0.508563
0.523159
0.5381
0.501085
0.476686
0.467726
0.470826
0.443953
0.453247
0.448305
0.463946
0.485755
0.494679
0.492071
0.494782
0.476954
0.478659
0.464191
0.468693
0.438199
0.41999
0.409867
-0.0459778
-0.0111519
-0.0249127
-0.0406231
-0.0138662
-0.0250355
-0.0138365
0.0019022
-0.0141992
-0.0128344
-0.0212138
-0.0296639
-0.0300591
-0.0778827
0.00518312
-0.17838
-0.227834
-0.279866
0.877873
1.01451
0.80302
0.597071
0.604872
0.820339
0.917886
0.558281
0.72176
0.763373
0.564508
0.851105
0.506275
0.505911
0.503808
0.503
0.503947
-0.0188399
0.0814018
0.0976607
0.153501
0.269601
0.376452
0.300357
0.187159
0.321475
0.345768
0.608547
0.615902
0.571198
0.593079
0.592029
0.407231
0.488457
0.529249
0.479752
0.55472
0.587597
0.534819
0.577401
0.497689
0.446868
0.438721
0.396296
0.429675
0.411126
0.385743
0.497935
0.474637
0.48566
0.475192
0.496625
0.518748
0.520924
0.544453
0.559582
0.476308
0.424428
0.440895
0.468652
0.425652
0.442331
0.463804
0.172797
0.0774063
0.24239
-0.0864161
0.00285608
0.0400205
-0.00134029
-0.0460954
0.260915
-0.380711
-0.32568
-1.00793
0.487723
0.864762
0.635154
0.649211
0.671812
0.655523
0.665562
0.677289
0.682209
0.616086
0.628055
0.631777
0.600794
0.629023
0.631774
0.639247
0.497532
0.402589
0.399764
0.336738
0.200595
0.240679
0.429028
0.360386
0.287025
0.281454
0.451905
0.318658
0.395899
0.451492
0.377508
0.310306
0.541114
0.588147
0.578617
0.550555
0.443118
0.473246
0.484495
0.53111
0.567566
0.594945
0.492765
0.499057
0.500001
0.49725
0.495474
0.498585
0.498815
0.501097
0.501457
0.504003
0.503387
-0.0484709
-0.0379971
-0.0547696
-0.0578316
0.0130963
-0.00629866
0.0005153
-0.0302874
-0.0152889
-0.0167526
-0.0358595
-0.0496978
-0.0421103
-0.0292195
0.0656963
0.082232
0.0887567
0.053097
0.249232
0.413027
0.474011
0.352978
0.200656
0.216525
0.295439
0.00994614
0.0282561
0.0136752
0.0644566
0.0413434
-0.0354443
-0.039981
-0.040495
-0.0311232
-0.0219903
-0.0445585
-0.0459112
-0.035913
-0.0432513
-0.0446577
-0.048118
0.478374
0.471306
0.474849
0.467323
0.465497
0.482258
0.48664
0.487994
0.493484
0.49605
0.485722
0.491713
0.495695
-0.0155697
-0.0342676
-0.0349038
-0.0291679
-0.0314979
-0.0313837
-0.0332491
0.119082
0.025183
0.0593877
-0.00787041
-0.132604
-0.0732948
0.488747
0.48534
0.479652
0.70799
0.547463
0.464861
0.561916
0.679949
0.265725
0.467052
0.299837
0.878626
0.782172
0.92757
0.547787
0.245298
0.408606
0.422287
0.259038
0.383085
0.338355
0.215748
0.254367
0.281818
0.366162
0.248031
0.226712
-0.0148284
0.163577
0.276162
0.257976
0.38761
0.445531
0.251646
0.166977
0.115042
0.590186
0.608238
0.618301
0.591396
0.612777
0.561183
0.550567
0.567166
0.576041
0.57148
-0.644715
-0.2329
-1.43435
-0.841837
-0.390511
0.515807
0.506555
0.74292
0.649371
0.687223
0.669039
0.606264
0.57087
0.613497
0.634021
0.330283
0.420167
0.402261
0.384821
0.327743
0.268019
0.546525
0.552023
0.576474
0.600711
0.576457
0.602576
0.491394
0.491217
0.490033
0.486357
0.484881
0.487957
0.0250176
0.000487531
0.037134
0.0304819
0.0129033
0.0123746
-0.0143397
-0.0259519
-0.0267491
-0.0258248
-0.0158155
-0.0125564
0.161395
0.101939
0.0151984
0.0562866
-0.00919986
-0.0909335
-0.0922763
-0.00456725
0.0932485
0.0752386
0.385064
0.652573
0.479812
0.653915
0.445205
0.55121
0.462985
0.437141
0.466714
0.364237
0.452275
0.0236575
-0.175039
-0.232034
0.812369
0.769074
0.556312
0.304721
0.19111
0.489139
0.518695
0.481481
0.505943
0.556988
0.536458
0.00270361
0.0985744
0.169711
0.479396
0.268307
0.285532
0.277033
0.43836
0.411428
)
;

boundaryField
{
    wall-4
    {
        type            zeroGradient;
    }
    velocity-inlet-5
    {
        type            zeroGradient;
    }
    velocity-inlet-6
    {
        type            zeroGradient;
    }
    pressure-outlet-7
    {
        type            fixedValue;
        value           uniform 0;
    }
    wall-8
    {
        type            zeroGradient;
    }
    frontAndBackPlanes
    {
        type            empty;
    }
}


// ************************************************************************* //
