/*--------------------------------*- C++ -*----------------------------------*\
  =========                 |
  \\      /  F ield         | OpenFOAM: The Open Source CFD Toolbox
   \\    /   O peration     | Website:  https://openfoam.org
    \\  /    A nd           | Version:  6
     \\/     M anipulation  |
\*---------------------------------------------------------------------------*/
FoamFile
{
    version     2.0;
    format      ascii;
    class       surfaceScalarField;
    location    "48";
    object      phi;
}
// * * * * * * * * * * * * * * * * * * * * * * * * * * * * * * * * * * * * * //

dimensions      [0 3 -1 0 0 0 0];

internalField   nonuniform List<scalar> 
1300
(
3.75095
5.62643
-3.29372
3.75095
-7.74365
5.62643
-4.23035
4.23035
-0.700993
0.700993
1.87646
1.87449
-2.58809
2.58809
-2.02884
2.02884
-2.54258
2.54258
-5.24793
5.24793
-5.06901
5.06901
4.71156
-4.71156
-6.30725
6.30725
-1.05209
1.05209
-3.64544
3.64544
3.1728
-3.1728
-1.9999
1.9999
-0.135294
0.135294
-0.554105
4.30506
3.19685
3.19685
-1.97034
1.97034
-4.87438
4.87438
6.22214
-6.22214
5.24547
-5.24547
-1.95175
-2.4347
1.80936
-11.5577
-5.93429
-5.93429
-8.44102
8.44102
-2.81459
2.81184
2.94604
-2.94604
-1.73464
1.73464
-4.22328
-0.00706635
-4.22328
4.21017
0.0201775
4.21017
-0.779914
0.0789207
-0.779914
3.86908
-3.86908
0.578006
0.122988
0.578006
3.06703
-3.06703
-1.87688
3.75334
1.87408
-1.87207
6.17713
-1.87888
3.75337
-6.05697
6.05697
-2.8094
0.221311
-2.8094
2.3884
0.199693
2.3884
-6.85719
6.85719
-2.07523
0.0463838
-2.07523
2.01955
0.00929395
2.01955
2.883
-2.883
-2.64016
0.0975889
-2.64016
2.40916
0.133418
2.40916
0.353489
5.27294
-5.97992
8.79176
-5.27294
0.0250066
5.21027
0.0376599
5.21027
-5.10538
0.0363637
-5.10538
5.0134
0.0556105
5.0134
4.80484
-0.0932846
4.80484
-4.82727
0.115712
-4.82727
-3.38493
-4.07434
-6.46848
0.161231
-6.46848
-1.08664
0.0345568
-1.08664
0.985904
0.0661824
0.985904
-3.69448
3.69448
-3.96188
0.316444
-3.96188
3.1278
0.0450032
3.1278
1.86813
1.88283
5.61908
-5.61908
2.44628
-1.96114
-0.0387612
-1.96114
-2.07402
-3.17145
2.07402
-0.074117
-0.350381
0.215087
-0.350381
3.15703
0.0398147
3.15703
2.24734
0.161813
-2.24734
0.277
3.28044
-3.28044
1.30323
0.667115
1.30323
-5.55917
5.55917
4.96178
0.0516173
-4.96178
0.087408
6.15734
0.0647921
6.15734
-6.20747
-0.0146663
-6.20747
2.52201
-4.95671
-2.60202
6.12005
0.187192
-6.12005
0.185768
2.91699
0.0290468
2.91699
-2.92037
2.92037
-2.98344
0.0373989
-2.98344
-2.15934
0.424698
-2.15934
1.41758
0.317061
1.41758
-4.11897
-0.104314
-4.11897
-4.09341
0.131522
4.09341
0.116766
1.08788
-1.08788
-0.842685
0.0627705
-0.842685
-3.96443
-0.154541
3.96443
-0.0953477
-3.82168
-0.0474022
-3.82168
-3.02139
0.0379524
3.02139
0.0456413
3.11196
0.0450734
-3.11196
0.044927
-1.87099
3.75381
-1.87997
3.75404
-5.67568
-0.381289
-5.67568
6.34764
-0.290664
6.34764
3.20019
0.445246
-3.20019
0.390793
2.24381
0.144583
2.24381
-6.83251
-0.0246798
-6.83251
6.86214
-0.00495578
6.86214
2.14692
0.0968923
-2.14692
0.0716939
1.99227
0.027278
1.99227
2.90835
-0.0253495
2.90835
-2.87835
-0.00465302
-2.87835
2.79515
-2.79515
2.72311
0.0720435
-2.72311
0.0829411
-11.1242
11.1095
-0.0362101
-11.088
5.17406
5.17406
4.26095
0.543899
4.26095
-5.01901
0.19174
-5.01901
2.67099
-5.27301
3.0811
-6.46603
4.68775
-16.2454
4.31807
-8.39241
6.71536
-6.71536
6.5994
0.115961
-6.5994
0.13092
-1.1615
0.0748603
-1.1615
-3.07575
-0.618727
-3.07575
4.33741
-0.642936
4.33741
-3.02811
3.02811
-3.07677
0.0486599
3.07677
0.0510293
1.96318
0.029093
-1.96318
0.00203488
0.45196
0.126045
-0.45196
0.101579
3.49397
-0.213535
3.49397
-3.08283
-0.197607
-3.08283
-1.23504
0.073537
1.23504
0.0681901
-5.80735
0.248185
-5.80735
-11.1815
0.093535
-11.1439
-6.11394
-6.11394
2.32709
11.1188
-2.89464
0.0162922
2.89464
0.0223566
2.97576
0.0523552
-2.97576
0.0553903
-2.86055
0.0653992
2.86055
0.0598171
-2.52947
0.37013
-2.52947
-1.02469
1.02469
-1.17947
0.154777
1.17947
0.238109
1.37719
-0.289312
1.37719
0.918916
0.0669874
-0.918916
0.0762318
-3.78242
-0.0392563
-3.78242
6.58198
-0.234342
6.58198
-2.95707
-0.125766
2.95707
-0.0487175
-0.0348087
11.1443
-5.13926
0.0338789
5.13926
-11.2091
11.243
-3.23781
0.708345
3.23781
1.02313
5.28588
0.273284
-5.28588
0.26687
6.80438
0.0577667
-6.80438
0.0890169
-2.59337
-0.482379
-2.59337
-5.07843
-0.597248
5.07843
-0.741021
-11.4819
-0.203058
11.685
-11.4263
6.01041
0.146935
-6.01041
11.3899
-0.979988
-0.10789
0.979988
0.0447046
1.71424
-0.337048
1.71424
3.70094
-0.206969
-3.70094
-0.0814785
-6.73071
-0.101796
6.73071
-0.148733
-2.1437
-0.449668
2.1437
-0.429465
-4.26728
4.30709
1.90985
-2.36537
-2.59134
-5.53682
1.85502
1.89879
4.3013
-10.2007
-6.04474
-10.0149
7.21277
-6.9459
-9.35256
9.25928
7.82832
-7.87572
-5.77799
5.82902
6.48413
-6.43849
1.87927
1.87406
7.99721
-7.7759
-15.7104
15.3291
7.56282
-7.51644
15.844
-15.8687
-17.8984
17.9562
-5.69981
5.7974
-6.73702
6.73237
-6.96902
6.9203
-2.82769
-3.63834
13.1763
-13.0151
8.56069
-8.59945
-8.63722
8.95366
3.38453
0.922565
3.4296
-1.88194
3.76121
-1.87143
3.78129
2.70914
-5.53683
2.56387
-5.15521
4.34119
4.2195
-4.26708
-1.26974
-5.92677
5.95582
-5.81187
5.87169
9.05432
-9.06138
-1.88497
3.75903
-1.86907
3.76786
-3.42339
-2.3546
3.37839
0.922911
8.10684
5.06951
-8.29403
-1.72089
-7.97417
7.7672
-8.19573
7.99812
-0.436784
5.83634
-5.39956
4.43759
-1.65435
7.49069
5.55842
5.75016
5.85998
-5.5867
1.08592
-6.48548
-6.39807
-2.44564
2.50841
2.38033
-2.25734
6.04624
1.78208
5.95089
-5.75443
-2.12128
-5.79369
3.82026
2.00876
3.86892
4.08124
2.40289
4.11919
3.02996
-3.03622
0.00625908
-3.05899
6.08895
0.722817
-5.41359
-4.49068
5.00689
2.99032
5.20659
-5.56919
-2.20671
-5.1784
-9.60776
-6.10261
-10.205
10.108
5.22112
9.8173
-11.9818
11.8331
4.84731
2.71551
4.8566
-4.96569
-2.55075
-4.89399
11.6672
-2.62713
-9.0401
-10.3423
-7.55616
10.3472
5.49676
10.9984
6.95782
11.0874
4.43445
7.23279
-9.93121
2.37505
-3.86386
-1.83595
-3.78092
3.65769
2.13971
3.79111
-4.21702
-2.52
-4.20073
-4.29193
-2.67709
4.31728
2.41509
-4.4086
-3.78713
4.53436
2.38594
4.06165
-10.1064
4.33076
-7.96911
-9.2339
-3.78122
-9.10298
3.49939
2.60895
-6.10834
-2.03743
8.46238
-4.24289
7.19264
-5.2046
-3.39485
-5.20257
-6.89957
-1.73765
-6.76805
-8.94842
8.46605
-9.23468
8.59174
12.6316
-5.68059
-6.95105
-3.96683
-2.47166
3.9219
-0.492299
-3.71024
3.7165
0.0509708
3.83226
4.75482
4.26252
-3.88302
-1.92886
-3.82763
3.824
2.04769
3.8894
6.78154
2.27278
6.80172
-6.50915
-2.55223
-6.61347
9.13075
-8.70606
2.84437
-2.77083
5.34755
2.65057
-5.13402
-2.84016
6.23523
-3.18727
-3.04796
-12.3543
10.838
1.51634
-4.8636
-0.426005
-0.29071
-5.58235
-3.77022
5.46663
0.28353
11.1215
7.35126
-5.51501
5.7632
6.16995
6.22157
-0.176498
5.9126
-5.20426
5.32197
-2.63368
-2.68828
5.39358
-5.54812
-1.21989
-5.46623
4.24634
0.40277
1.66474
-1.44965
-1.88569
-0.559951
-1.80946
1.383
0.997329
1.50904
0.910096
1.59832
-2.91801
0.580099
2.33791
-2.00791
-1.67724
-3.72119
-1.14063
4.86181
5.668
2.09921
-5.58652
-0.207174
2.63684
-2.57066
-0.776406
-2.94478
2.17975
-2.95615
-3.51076
-1.88125
5.39201
-3.3692
-0.458426
3.31685
0.552071
-3.82745
-2.09932
3.79005
0.329133
-3.12773
6.19012
-3.06239
-5.05658
2.52895
3.56001
4.53771
-4.79059
2.44868
2.34191
-1.23058
4.28412
0.92247
4.4287
-6.98912
4.78241
5.71354
3.24012
-6.15879
0.980387
-6.00874
8.44652
-7.29315
-1.15338
3.99352
4.453
7.09488
5.53676
-5.70893
12.8038
-1.07892
-6.21423
7.08766
-3.84754
4.79698
-8.64452
-10.3337
4.11951
-9.24253
11.045
-1.80251
-3.60957
-8.37221
12.8521
-1.21075
-11.6414
8.60655
-4.25718
-4.2961
8.55328
-6.88431
6.84686
-1.97821
-4.86865
-10.1534
-5.71529
10.2552
1.57789
-9.88896
12.264
-2.65618
4.13733
0.719273
4.16461
3.30587
-5.43834
2.13246
3.57844
-5.55664
2.07262
-7.51096
-6.76911
12.1179
-5.34882
-10.5503
-9.56442
-0.985902
2.55832
9.70569
-9.51614
7.46406
2.05208
3.30108
0.588318
-3.37312
-0.407796
0.241422
4.51631
-4.75773
4.03253
4.19434
3.24326
1.27305
3.84771
2.10811
-3.87006
-0.330665
-4.16405
1.48696
-1.74896
-3.68835
5.17531
-4.06287
0.374522
-2.74373
-3.49673
6.24046
-4.57968
3.03707
3.15305
5.08476
-4.91401
1.41728
-2.39308
-2.52094
2.64559
-4.39454
1.99035
3.18496
4.37628
0.589154
5.90376
6.21417
-8.51271
0.543604
11.2837
-9.56278
2.47661
8.61077
-9.94068
0.376255
-8.72673
0.983223
-5.22611
-5.12512
5.14177
-6.87942
-3.50275
6.21818
0.583538
-6.33494
-0.433105
-6.07488
-2.87354
-6.52455
-3.07056
-6.16412
-8.77949
-1.6832
-7.09629
6.78285
-6.70637
-3.49864
7.44739
1.14435
-7.48717
7.37928
-7.55304
7.21599
0.094436
3.62206
4.35696
1.8853
-2.39149
4.27679
-5.07273
7.34551
-8.70243
3.62971
4.16377
-6.716
-4.53866
5.07233
4.05842
5.3894
8.96918
-10.4501
1.48095
-10.7274
12.0661
-1.33868
-16.527
5.79959
-7.5578
2.51118
0.333189
2.58604
0.590213
2.4918
-3.08202
-2.18062
-2.11243
-2.40861
-3.49582
5.90443
1.1028
-3.43343
2.33063
-3.57605
4.67885
-0.0111084
-3.42232
5.20687
-2.71506
5.54006
-3.58716
1.9529
3.52016
5.83093
-2.31076
4.4205
-1.76993
1.91547
-4.22623
-1.58035
-2.95757
5.09728
-3.28289
3.65741
-0.33955
3.99696
-4.08023
0.892959
-0.836976
3.35737
3.63437
4.32688
-3.05383
2.94731
-4.71725
-1.27892
-4.12809
-0.943134
-0.210118
-3.84104
4.05116
6.05269
-6.26281
-5.30095
9.557
-4.25605
7.72427
-5.45561
-2.26866
-4.3079
-4.39815
3.93777
1.97483
9.6991
0.179445
-5.63506
-5.02481
-4.00168
3.16258
2.15938
-1.8502
3.36654
2.14091
-0.476174
0.460075
1.04897
1.81661
-1.35653
0.299104
1.5175
-1.15055
1.83681
0.800038
-1.90379
0.0943332
-1.25893
3.43868
1.07898
-2.07631
0.719778
0.925158
-3.55884
4.99231
-2.69104
-2.30127
5.91747
1.13148
-3.82253
4.33475
-3.93198
2.40639
-3.54702
-1.41614
-5.34811
-3.56604
-2.51631
4.84694
-3.38811
5.48732
1.33618
-5.28015
6.61632
-3.61785
1.73661
-3.06383
3.86386
-1.061
-2.00283
2.92359
2.46842
-3.09438
0.149595
-0.170785
2.39487
-2.56566
-0.561282
-2.5692
-4.57507
4.9042
-2.10461
4.55329
2.17218
-1.91667
6.46996
1.80876
-3.72543
-3.24783
-3.70625
-1.38353
3.15418
-0.592622
-4.30137
-5.46127
4.20448
0.224222
-6.88008
7.7986
-0.918521
-3.88976
-0.892655
4.88618
-6.0332
0.476553
-3.96057
3.83803
4.7605
4.98472
-11.4201
-0.221211
-6.19903
1.11402
-7.31305
5.56703
-3.60304
7.72255
-10.3451
6.84648
-9.20077
6.56918
-0.743871
6.23354
-4.10108
2.80656
-8.52185
-6.94396
5.48218
-2.76667
6.20146
-3.13043
9.33189
-5.78661
5.25403
4.07786
-1.01068
-4.19189
-5.25585
4.24517
-0.00181407
4.1628
4.98469
-2.87658
4.65403
2.26052
-4.6536
-2.13402
-6.48893
1.83533
-3.33588
-1.92036
3.75569
3.16441
3.75272
1.23475
-3.34493
7.21165
-8.19755
-1.86283
-3.26229
5.23767
-0.992505
3.38328
-6.64558
-1.84282
4.80494
-0.743685
-4.06126
0.875649
-4.37839
1.68237
-6.06077
5.19705
-5.63015
2.24881
-9.80661
-5.23836
-5.19366
-2.28029
-5.27275
-7.61681
5.33652
-1.81722
5.56206
-8.58016
7.83647
-3.48592
8.82243
-5.47061
-1.05394
5.90008
1.31592
10.1384
0.130976
-4.66964
-1.94076
3.82319
-1.88244
1.22183
-3.71006
0.113132
2.46931
3.44816
-6.71565
-0.0003508
-4.66999
-3.91788
7.9763
5.63912
11.6918
1.24168
9.17092
-1.19462
10.4126
4.19477
4.43288
-3.04909
4.53004
1.00206
4.63177
-0.86797
2.82087
1.71807
1.75262
0.818037
2.29742
1.33695
3.19037
0.108359
-2.00407
4.64715
-8.64883
-0.987908
-8.10493
1.15435
5.42802
-4.27367
2.97761
-0.818226
1.09517
-0.0626145
-1.45059
1.51321
-2.7509
-1.92677
-0.409263
-1.60793
2.32771
1.83074
-1.91845
-0.832451
0.325698
-3.89173
3.22132
-3.07172
-0.603307
6.01302
-2.84304
0.277381
-1.10643
-2.29181
-2.85177
2.75743
6.17484
0.295127
3.11245
5.19933
3.10001
0.223434
3.89042
-5.69293
-3.62054
-5.91414
-0.347112
4.53906
1.72155
7.98414
5.79941
4.80691
-1.83867
-10.0362
6.55748
-2.02744
5.2188
-1.15754
-4.90323
5.05616
2.28934
-5.6397
0.00955192
-4.89367
-6.92111
-0.4881
8.32457
-9.65025
8.59631
5.72277
1.37352
-4.44604
-0.747622
4.29126
0.141623
10.5542
-0.905434
-7.13911
8.04454
-4.52259
3.53468
0.714781
2.65176
2.22799
1.40976
-5.72934
-10.003
-2.01545
-1.54339
-4.31671
0.545101
-2.37584
6.09552
-2.56084
3.82685
5.4837
6.57887
-2.06227
-4.20054
6.31832
-2.49147
4.08741
)
;

boundaryField
{
    wall-4
    {
        type            calculated;
        value           uniform 0;
    }
    velocity-inlet-5
    {
        type            calculated;
        value           uniform -3.75095;
    }
    velocity-inlet-6
    {
        type            calculated;
        value           uniform -5.62643;
    }
    pressure-outlet-7
    {
        type            calculated;
        value           nonuniform List<scalar> 8(3.29372 7.74365 4.38645 9.74833 7.45927 5.12403 5.75209 9.00582);
    }
    wall-8
    {
        type            calculated;
        value           uniform 0;
    }
    frontAndBackPlanes
    {
        type            empty;
        value           nonuniform 0();
    }
}


// ************************************************************************* //
