/*--------------------------------*- C++ -*----------------------------------*\
  =========                 |
  \\      /  F ield         | OpenFOAM: The Open Source CFD Toolbox
   \\    /   O peration     | Website:  https://openfoam.org
    \\  /    A nd           | Version:  6
     \\/     M anipulation  |
\*---------------------------------------------------------------------------*/
FoamFile
{
    version     2.0;
    format      ascii;
    class       volVectorField;
    location    "48";
    object      U;
}
// * * * * * * * * * * * * * * * * * * * * * * * * * * * * * * * * * * * * * //

dimensions      [0 1 -1 0 0 0 0];

internalField   nonuniform List<vector> 
918
(
(0.985048 -0.000710826 0)
(0.00533639 2.96625 0)
(-0.000713789 0.869999 0)
(0.979573 0.00195989 0)
(-0.0128421 2.06018 3.08067e-20)
(-0.00709159 2.94855 -2.63785e-18)
(0.800246 1.11683 4.30331e-19)
(0.241804 0.0967588 -1.49834e-20)
(0.999921 -0.000242954 0)
(0.0842432 0.720412 0)
(0.0148092 0.494139 0)
(0.734262 -0.0172742 0)
(0.0102226 2.93154 0)
(0.00346741 2.79428 0)
(-0.00102891 3.18708 8.23296e-19)
(-0.0125787 1.9158 1.09494e-20)
(0.306969 0.0221506 9.94661e-19)
(0.231951 1.1299 3.45978e-19)
(0.96443 0.00672981 0)
(-0.0250686 0.457776 0)
(0.0513016 0.1414 -7.0784e-19)
(1.00183 -0.00456416 0)
(0.999851 -0.0089323 0)
(0.975157 -0.00605568 0)
(0.594256 -0.0355803 0)
(0.0223904 2.64444 0)
(-0.0123991 2.91197 9.70147e-19)
(-0.00253648 0.93318 0)
(-0.0172646 1.16582 0)
(-0.00143622 0.905135 0)
(-0.0212178 2.6072 0)
(-0.00431404 2.1119 -2.46024e-20)
(-0.00945404 1.88753 0)
(-0.0221517 2.98761 -9.52699e-23)
(-0.0164946 3.0055 2.04965e-18)
(0.0023088 3.00059 0)
(0.871513 -0.00965876 0)
(0.377384 0.919792 1.66257e-19)
(0.800323 1.12874 -5.30706e-19)
(0.937014 0.984603 5.45111e-19)
(0.666589 1.2124 -9.90336e-20)
(0.679097 1.18486 5.69179e-19)
(0.263195 0.180291 1.46176e-20)
(0.248318 0.0794917 0)
(1.14155 0.522788 0)
(0.230499 0.171209 6.66327e-20)
(0.209641 0.0981428 -6.91467e-20)
(0.92046 -0.00701809 0)
(1.00026 7.44051e-05 0)
(0.999909 0.00031922 0)
(1.0037 -0.00728475 0)
(1.0009 -0.000946812 0)
(1.00011 -1.13701e-05 0)
(0.0937841 1.83692 -7.53871e-19)
(0.0363257 0.893592 0)
(0.13349 0.792836 0)
(0.0166796 0.846788 0)
(0.0433613 0.651152 0)
(0.00592749 2.01766 0)
(-0.00468811 0.75709 0)
(0.00752415 0.521543 0)
(-0.0035071 0.750768 0)
(0.0109127 0.490662 0)
(0.841775 -0.0157613 0)
(0.839819 0.0337107 0)
(0.766179 -0.00745628 0)
(0.809995 0.0446373 0)
(0.701821 -0.0174292 0)
(0.0139568 3.0002 9.79891e-19)
(0.0111834 3.006 0)
(0.00626132 3.00388 0)
(0.0118917 2.99711 1.11427e-23)
(0.00828398 2.95871 -1.45636e-18)
(0.0121987 2.98287 0)
(0.00901161 2.90479 0)
(0.0210319 2.93143 2.27848e-24)
(0.00411935 2.82433 0)
(0.0260264 2.91879 0)
(-0.000270094 2.74494 0)
(0.309024 3.58605 0)
(-0.122543 3.66917 0)
(0.15179 3.2782 -7.66241e-19)
(0.00518393 3.01241 0)
(-0.0253705 1.99625 0)
(-0.00680892 2.17573 -1.07992e-20)
(-0.00786368 1.92602 7.42653e-21)
(0.395929 0.140461 -3.44551e-19)
(0.319651 -0.00149194 -3.33795e-19)
(0.362938 0.157165 -1.03446e-18)
(0.289153 0.0330533 -6.7802e-19)
(0.261108 1.00741 0)
(0.328757 1.25674 -3.59121e-19)
(0.40433 1.16074 5.91607e-19)
(0.987834 0.00811703 0)
(0.943383 0.00578554 0)
(1.00028 0.000672263 0)
(1.00254 0.00906858 0)
(1.00312 0.00896384 -2.64024e-18)
(0.992134 0.00945579 1.99512e-18)
(-0.0129852 0.758759 0)
(-0.0129386 0.451118 0)
(-0.0399637 1.00638 0)
(-0.0374545 0.803378 0)
(-0.0116247 0.452329 0)
(0.0575954 0.153583 2.18945e-19)
(0.113322 0.124677 0)
(0.993614 -0.00769893 0)
(0.954019 -0.00647441 0)
(0.751723 0.050179 0)
(0.686726 0.0546664 0)
(0.660022 -0.0218504 0)
(0.973866 -0.00409049 0)
(0.615193 0.0589033 0)
(0.449981 -0.0300294 1.48384e-18)
(-0.0410154 2.86064 7.72111e-19)
(0.03349 2.91441 0)
(0.0422615 2.8924 0)
(0.00353971 2.70209 0)
(-0.00860743 2.98643 9.29323e-19)
(-0.0140855 2.89463 0)
(-0.011035 2.99159 -2.85919e-18)
(-0.011652 2.92956 9.73179e-19)
(-0.025862 1.338 0)
(-0.000463587 1.3681 0)
(-0.00727634 2.1372 5.59446e-22)
(-0.00727197 2.09624 0)
(-0.0171776 1.90042 0)
(0.938533 -0.00534175 0)
(0.856637 -0.0110213 0)
(0.863588 0.00548948 0)
(0.94941 -0.00625413 0)
(0.883398 -0.00803945 0)
(0.5017 1.12052 -2.11089e-19)
(0.549062 1.19088 0)
(0.338742 0.85369 3.22616e-20)
(0.282464 0.718439 0)
(0.899029 1.02209 -1.52929e-19)
(1.01711 0.827471 3.02207e-19)
(0.386317 1.3209 0)
(0.529226 1.27255 0)
(0.58122 1.20257 0)
(0.0981429 0.177056 -2.94594e-19)
(0.282933 0.177308 0)
(0.24744 0.0769382 1.91476e-19)
(0.981616 0.883097 0)
(1.05803 0.731539 0)
(1.08703 0.665375 -2.36459e-19)
(1.12517 0.580413 0)
(1.18013 0.388523 4.49051e-20)
(0.957331 -0.00718185 0)
(0.962635 -0.00816204 0)
(0.900746 -0.00733979 0)
(0.983904 -0.00813578 0)
(0.974379 -0.00806122 0)
(0.936488 -0.00654762 0)
(1.0002 0.00249945 0)
(1.00076 0.00124493 0)
(1 0.000767169 0)
(0.0431058 2.08401 4.19455e-19)
(0.146035 1.78022 0)
(0.0176091 2.2007 6.38902e-19)
(0.0525044 1.88721 -5.36945e-19)
(0.169116 1.11069 -2.83709e-19)
(0.0516715 0.974734 0)
(0.122655 0.969448 0)
(0.00715372 0.813289 0)
(0.0206947 0.591117 0)
(-0.00388918 2.2509 -7.02929e-22)
(0.0197966 2.02412 0)
(-0.00444913 2.25141 -2.67439e-20)
(0.00435326 2.02966 4.03056e-20)
(0.00306846 0.778886 0)
(0.000661504 0.767636 0)
(0.00914133 0.551311 0)
(0.000901098 0.746264 0)
(-0.000694158 0.485703 0)
(0.937954 0.0134532 0)
(0.853892 -0.0118207 0)
(0.927579 0.00455231 0)
(0.844989 -0.0128631 0)
(0.812205 -0.00181057 0)
(0.8987 0.0228835 0)
(0.873262 0.0280502 0)
(0.788514 -0.0050689 0)
(0.0103596 3.06711 -9.15538e-21)
(0.0150786 3.0593 0)
(0.0123527 2.97036 0)
(0.00756131 2.87656 0)
(0.89996 3.98348 0)
(1.19512 3.37824 9.43421e-19)
(0.0823607 3.09403 0)
(-0.0163257 2.9202 0)
(-0.0118109 1.38998 0)
(-0.0290811 1.7002 0)
(-0.0174893 1.5285 0)
(-0.031897 2.5642 -1.0733e-20)
(-0.0146681 2.25382 0)
(-0.020128 2.40152 0)
(0.00218526 1.95585 1.40291e-21)
(-0.00484166 2.24894 -1.12824e-20)
(-0.0053747 2.21309 -7.71721e-21)
(-0.00348731 1.94198 0)
(0.424262 0.117558 5.26166e-19)
(0.346294 -0.00915731 -5.16205e-19)
(0.237052 1.58381 0)
(0.285418 0.74175 -3.21225e-19)
(0.179877 1.68487 -1.07189e-18)
(0.244221 1.20979 1.07243e-18)
(0.901832 0.00606885 0)
(0.967174 0.0105383 0)
(0.975035 0.00977454 0)
(0.92312 0.00593748 0)
(-0.0123662 0.746925 0)
(-0.0124352 0.754645 0)
(0.00131112 0.457727 0)
(0.193137 0.167597 6.12207e-19)
(0.154799 0.153727 -7.26643e-19)
(0.158153 0.108941 0)
(1.09876 0.0877203 2.45936e-20)
(1.0826 0.0406241 0)
(1.01369 0.0426728 0)
(0.90947 -0.00255385 0)
(0.459185 0.0945835 0)
(0.519966 0.0721531 -2.37775e-18)
(0.384233 -0.0129049 8.94835e-19)
(0.0107319 2.97694 8.13743e-19)
(-0.0334658 2.86155 4.56378e-20)
(0.00815733 3.05318 -1.92993e-20)
(0.0158033 3.04325 7.22221e-19)
(-0.01189 3 3.19808e-20)
(-0.0122636 2.95233 -1.28986e-22)
(-0.0150555 3.01327 -5.9644e-19)
(0.0144552 3.02648 4.20604e-19)
(0.00758891 3.03495 -6.83844e-19)
(0.934014 0.00187457 0)
(0.93903 -0.00131974 0)
(0.847265 -0.0111221 0)
(0.956526 0.0115654 0)
(0.942743 0.0129632 0)
(0.881843 0.00573493 0)
(0.9163 0.0181091 0)
(0.925701 0.0149041 0)
(0.838181 0.00193331 0)
(0.675119 1.4205 1.78288e-20)
(0.693377 1.53146 0)
(0.121954 0.306382 6.84311e-20)
(0.203067 0.642352 5.42782e-19)
(0.237304 0.691766 -3.17832e-19)
(0.219856 0.514798 6.29664e-19)
(0.330859 0.812344 1.5595e-18)
(0.127913 0.228261 3.74758e-19)
(0.338576 0.175427 7.20711e-19)
(0.309606 0.185755 1.86593e-19)
(0.262339 0.057944 3.57885e-19)
(1.17465 0.436754 7.77688e-20)
(1.20363 0.242085 7.69736e-20)
(0.00676791 2.24302 2.5027e-19)
(0.0393989 1.94982 0)
(0.969508 0.0324103 0)
(0.944492 0.0188359 0)
(0.867706 -0.0155328 0)
(0.0122036 3.07476 0)
(0.0168034 2.94395 1.28084e-18)
(0.0139641 2.9569 0)
(0.00587159 2.85004 -1.27111e-18)
(0.0093105 3.08986 3.13238e-19)
(0.0118037 3.08334 0)
(0.714263 1.82905 -1.7304e-19)
(1.23973 2.63549 5.84903e-19)
(0.699141 2.00749 -1.40743e-18)
(0.0224655 2.97613 -7.11544e-19)
(0.0410903 2.99915 0)
(-0.0382381 2.8797 0)
(-0.00547577 2.23094 -1.30553e-20)
(-0.00475251 2.25274 1.72378e-20)
(0.00176268 1.99094 -7.60433e-21)
(0.265744 1.39013 1.02872e-18)
(0.274998 0.541378 -7.07135e-19)
(0.0703554 2.0008 7.55899e-19)
(0.123161 1.87207 -9.05437e-19)
(0.206905 1.53018 9.95379e-20)
(0.00555236 3.12042 -1.81963e-18)
(0.0137565 3.12066 2.00534e-18)
(-0.00519242 2.98076 8.71294e-19)
(-0.00131854 2.97507 -8.37237e-19)
(-0.017707 2.87731 -8.87449e-19)
(0.0118463 3.10088 -2.32983e-18)
(0.00576446 3.10527 2.3568e-18)
(0.255073 0.684317 0)
(0.206837 0.648338 -1.14798e-18)
(0.0703028 0.211891 5.04531e-19)
(0.341639 0.929997 1.11184e-18)
(0.192925 0.270975 -1.71204e-18)
(1.18616 0.172566 5.16919e-20)
(1.20048 0.299249 0)
(1.18184 0.11955 3.75223e-21)
(-0.0027167 2.25992 -1.43907e-21)
(0.00118079 2.24673 0)
(0.0314061 1.98434 0)
(0.314018 1.31102 -3.68516e-19)
(0.351653 1.15674 -7.9678e-19)
(0.224021 0.37993 1.42259e-18)
(1.00643 -0.00970458 0)
(1.00774 -0.00780161 4.85372e-19)
(-0.0234852 1.31754 0)
(-0.0362266 1.31579 0)
(1.00245 0.00329388 1.36599e-21)
(1.00322 0.00785734 9.96323e-19)
(-0.0225498 2.54933 1.3592e-20)
(-0.0270233 2.59202 0)
(0.0416602 3.17289 5.12021e-19)
(0.377614 3.54913 0)
(1.14582 0.682901 -5.67649e-20)
(1.01191 0.0107568 -2.79958e-21)
(1.02079 -0.00909252 0)
(1.0016 0.0002464 1.53984e-22)
(0.1091 1.36386 0)
(0.139204 2.5918 0)
(0.0227841 1.31445 0)
(-0.00232406 2.63612 1.90112e-20)
(-0.0208203 2.58608 6.26667e-21)
(0.998256 0.0271893 2.70638e-21)
(1.06233 0.00531548 0)
(1.09846 0.0274891 0)
(-0.0280132 1.74046 0)
(-0.0186684 2.59098 0)
(-0.00514218 1.31237 0)
(0.293804 1.48262 -1.69876e-19)
(1.01149 -0.00908582 0)
(1.0097 -0.0130029 0)
(1.0023 0.000945086 6.22329e-19)
(1.00548 -0.00493938 -7.32685e-19)
(1.00114 -0.000874126 0)
(-0.0125053 1.4584 0)
(-0.0122922 1.36754 0)
(-0.0100335 1.41486 0)
(-0.00857578 1.30025 0)
(-0.0198622 1.28279 0)
(-0.00976347 1.26695 0)
(1.03543 -0.00451483 0)
(1.01923 0.0150211 -8.99147e-22)
(0.797996 1.30163 2.69888e-19)
(1.00235 0.000369947 -6.20592e-19)
(1.00341 0.00449908 7.41367e-19)
(1.00128 0.00210515 0)
(1.01125 0.00966581 6.18572e-19)
(1.00692 0.00750443 -7.53016e-19)
(1.00725 0.0111905 0)
(-0.0240714 2.6198 0)
(-0.0273408 2.59983 -2.35243e-20)
(-0.0244349 2.61337 1.66161e-20)
(1.23616 0.26885 5.37311e-19)
(1.16098 0.0875616 0)
(0.0449077 3.09042 -1.00684e-18)
(0.051148 2.87189 -7.11803e-20)
(0.103925 3.20106 1.34884e-18)
(0.122546 3.21358 -2.93459e-19)
(0.144324 3.25974 0)
(0.0233107 3.13776 2.77422e-19)
(0.0618809 3.16172 1.00291e-18)
(0.0622142 3.17873 -5.18579e-19)
(0.0274749 3.12918 0)
(0.615504 0.287028 0)
(0.556864 0.330052 0)
(1.12578 0.714121 1.33444e-19)
(1.09217 0.847463 -1.23952e-19)
(1.18487 0.601812 0)
(1.21512 0.537034 0)
(1.0158 0.0120427 -1.14919e-18)
(1.01475 0.0128085 1.44484e-18)
(1.02559 -0.00880596 0)
(1.02391 -0.0103707 0)
(1.00663 0.00294914 0)
(1.01089 0.00417475 0)
(1.00437 0.00217662 0)
(1.00951 0.00644567 0)
(1.00698 0.00508386 0)
(1.00448 0.00529855 0)
(0.0966176 1.36122 0)
(0.079194 1.34163 0)
(0.135266 1.40942 0)
(0.134104 1.41032 0)
(0.147008 2.61701 0)
(0.188944 2.68677 -4.24707e-19)
(0.107733 2.67639 0)
(0.0825679 2.6764 1.72175e-19)
(0.0283301 2.67949 -1.74337e-19)
(0.0140137 1.32145 0)
(0.0196683 1.2517 0)
(0.0163476 1.33529 0)
(0.033644 1.28181 0)
(-0.000522752 1.99102 1.01572e-20)
(-0.0207058 2.61392 -1.63593e-20)
(-0.00884859 2.6782 3.1864e-22)
(-0.0195219 2.69134 0)
(-0.0223822 2.62118 -9.13251e-21)
(-0.0209312 2.61668 1.5373e-20)
(0.00767673 1.98976 -5.6898e-21)
(-0.00800039 2.40634 2.19493e-20)
(-0.0134593 2.42852 -3.61284e-22)
(1.0097 0.0386213 1.16548e-18)
(1.00554 0.0176393 -1.45155e-18)
(1.00275 0.0444623 -1.19261e-18)
(0.975859 0.0312843 1.50182e-18)
(1.06396 0.00862689 0)
(1.04939 -0.00664857 0)
(1.09127 0.0360787 0)
(1.07475 0.0141491 0)
(1.07346 1.76809e-05 0)
(1.13966 0.0770457 0)
(1.11361 0.0442983 0)
(1.11609 0.0366705 0)
(-0.0268223 2.44227 1.92139e-21)
(-0.0170077 2.0206 0)
(-0.0174824 2.22509 0)
(-0.0207046 2.6116 -1.18361e-20)
(-0.017731 2.62147 2.9276e-22)
(0.00193513 1.57328 -4.05279e-20)
(-0.00354395 1.49878 4.13292e-20)
(-0.0144246 1.38815 0)
(-0.0181981 1.39354 0)
(-0.020419 1.38703 0)
(-0.0011858 1.31422 0)
(0.0106669 1.24862 0)
(0.375574 1.50427 2.82371e-19)
(0.42322 1.50939 1.50721e-19)
(0.590241 2.474 -2.51861e-19)
(0.38259 2.56852 6.97161e-19)
(0.351818 2.06854 6.95339e-20)
(1.02061 -0.00808104 0)
(1.01574 -0.00940491 0)
(1.01482 -0.0132398 0)
(1.00763 -0.000638407 0)
(1.00492 -0.000655639 0)
(1.00798 -0.00453304 0)
(1.00953 -0.00352143 0)
(1.0146 -0.00438634 0)
(1.02 0.0160005 1.1275e-18)
(1.01752 0.01476 -1.42595e-18)
(1.02042 0.0182145 -1.13699e-18)
(1.01813 0.0167393 1.41976e-18)
(0.753968 1.34707 0)
(0.691175 1.38365 2.38227e-19)
(0.861973 1.22752 9.30759e-20)
(0.898809 1.18714 -1.23519e-19)
(1.16698 2.62041 2.74739e-19)
(0.772996 0.120965 5.82584e-19)
(1.16872 0.104375 0)
(1.20939 0.196362 -4.35252e-19)
(1.18991 0.15329 -1.80764e-20)
(1.01389 0.160385 0)
(0.0819626 3.02182 3.58921e-19)
(0.0853811 2.9045 -1.19367e-18)
(0.0318279 2.36453 7.57363e-19)
(0.133915 -0.138463 -3.6172e-19)
(0.345363 3.45207 -2.4706e-19)
(0.195022 3.3437 0)
(0.226213 3.4025 3.21824e-19)
(0.226406 3.08023 -1.24876e-18)
(0.260195 3.20049 0)
(0.00679188 3.1224 5.19901e-20)
(0.0169346 3.13121 -5.98104e-19)
(0.0160726 3.12703 8.80303e-19)
(0.0335925 3.14007 0)
(0.0316095 3.14963 0)
(1.26239 2.58648 0)
(0.530047 0.810445 -5.25489e-19)
(1.01094 1.01866 -1.71507e-21)
(0.97542 1.07161 0)
(0.844713 0.959579 -1.114e-19)
(1.0676 0.895006 2.63978e-20)
(0.393461 0.352369 -8.88172e-19)
(0.682802 0.309024 -2.3174e-20)
(0.616918 0.225037 4.03577e-19)
(0.582199 0.353315 2.98603e-20)
(0.492594 0.320637 -1.20077e-18)
(0.642816 0.317639 0)
(0.700206 0.413236 6.76314e-19)
(0.699819 0.417355 0)
(0.61693 0.34358 0)
(0.558962 0.272181 0)
(0.784547 0.645267 3.98821e-19)
(1.24508 0.299481 -4.3997e-19)
(1.23559 0.432533 0)
(1.23869 0.388137 0)
(0.724445 0.181184 6.06991e-19)
(0.836524 0.543578 -3.78787e-19)
(0.754212 0.50395 6.74219e-19)
(0.954583 0.432542 -6.9776e-19)
(1.01869 0.0145568 7.64285e-19)
(1.01725 0.0135938 -7.72749e-19)
(1.0161 0.0142016 0)
(1.03677 -0.00471631 0)
(1.03025 -0.00779858 -7.2485e-19)
(1.02841 -0.0106922 7.1737e-19)
(1.02477 0.0106316 0)
(1.02286 0.0146555 0)
(1.01266 0.00456253 0)
(1.01456 0.00909946 0)
(1.01619 0.00405682 0)
(1.01544 0.00281449 0)
(0.0649296 1.35773 0)
(0.0627305 1.31844 0)
(0.140974 1.4082 5.35379e-20)
(0.267319 1.47693 8.04666e-20)
(0.16195 1.4501 1.78107e-19)
(0.192852 1.4548 -2.89164e-19)
(0.146172 1.41458 0)
(0.129109 1.58213 -9.71259e-20)
(0.130105 1.57575 0)
(0.350703 2.02506 -1.01215e-19)
(0.334613 2.3465 6.39175e-19)
(0.184864 1.45558 8.46591e-20)
(0.26516 1.37975 2.21096e-20)
(0.193403 1.38076 -1.80156e-20)
(0.279253 1.31726 -9.57771e-20)
(0.250283 1.57618 0)
(0.258207 1.62354 1.03701e-19)
(0.0255213 2.27273 -1.62943e-20)
(0.0349372 2.67454 0)
(0.0659033 2.41432 9.81273e-20)
(0.0606202 2.43458 0)
(0.0680163 2.69372 -1.9112e-19)
(0.0418318 2.70823 0)
(0.0240354 1.42748 3.59812e-20)
(0.0343959 1.4868 0)
(0.0305608 1.39183 0)
(0.0191056 1.39206 -4.21801e-20)
(-0.000117905 2.66302 -7.14758e-22)
(0.0228244 2.69706 1.99663e-19)
(0.0071925 2.73231 1.14722e-21)
(0.00127103 1.83651 -4.98294e-21)
(-0.00394888 1.68776 -5.88685e-21)
(0.0119179 1.30007 0)
(0.0164987 1.23097 0)
(0.0356544 1.58257 -6.05942e-21)
(0.0353812 1.45761 -2.33719e-20)
(0.0321139 1.52842 2.56598e-20)
(0.0412292 1.61042 0)
(-0.0285711 2.27635 9.09102e-20)
(-0.031082 2.55941 -3.8818e-20)
(-0.0174138 2.45735 4.79466e-21)
(-0.00348119 1.85459 6.04196e-21)
(-0.0253116 2.50993 4.13769e-21)
(-0.0216166 2.44933 2.04528e-21)
(1.01829 0.021344 -7.69977e-19)
(1.01437 0.0274516 7.74894e-19)
(1.01318 0.0165187 0)
(1.01201 0.069061 1.06114e-18)
(0.99107 0.0557448 -1.22343e-18)
(0.952162 0.052901 1.36911e-18)
(1.01332 0.114242 -1.44459e-19)
(1.04358 -0.00489756 0)
(1.05169 -0.000771163 6.94049e-19)
(1.03996 -0.00828678 -6.93826e-19)
(1.07132 0.042406 -4.11794e-20)
(1.06435 0.027561 3.55586e-19)
(1.06443 0.0637088 0)
(1.05418 0.0526222 -1.28013e-19)
(1.03226 0.0435867 0)
(1.02556 0.0388256 0)
(1.02768 0.0133952 0)
(1.02403 0.0159242 0)
(1.04053 0.0328035 2.63206e-19)
(1.03953 0.0279674 -5.826e-19)
(1.05259 0.0373283 -2.78543e-19)
(1.04819 0.0372865 -3.07334e-19)
(1.07685 0.0678432 5.88485e-19)
(1.10051 0.053911 0)
(1.10718 0.0924369 0)
(-0.0252434 2.2839 5.88251e-20)
(-0.0259887 2.02762 1.95715e-21)
(-0.0216271 2.037 0)
(-0.0288071 2.45411 -5.85775e-20)
(-0.0255312 2.41215 -3.79821e-21)
(-0.0327544 2.4837 6.91204e-21)
(-0.0203604 2.63014 -1.25942e-20)
(-0.0240248 2.5737 5.06717e-22)
(-0.0220019 2.52567 -4.91038e-21)
(-0.0163882 2.62467 1.18373e-20)
(-0.0203283 2.6262 -1.31353e-20)
(-0.00515507 1.48425 -2.82261e-22)
(-0.000139089 1.6223 -3.81518e-20)
(0.36383 1.43873 -1.19921e-19)
(0.363717 1.36603 1.95066e-20)
(0.63547 1.43104 -2.30693e-19)
(0.512042 1.50148 -1.46384e-19)
(0.564102 1.4627 0)
(0.609338 2.42846 2.24326e-19)
(0.668086 2.43539 3.37502e-19)
(0.424517 2.52129 8.19993e-20)
(0.399842 2.54968 -6.44645e-19)
(0.501539 2.49219 5.80972e-19)
(0.549112 2.48535 0)
(0.494292 2.53005 -5.52375e-19)
(0.258646 2.60128 1.15388e-18)
(0.359634 2.57326 -6.09994e-20)
(0.284198 2.65988 -1.59179e-18)
(0.966674 2.39719 7.09097e-19)
(0.84828 2.39761 0)
(1.01145 0.00130844 2.52234e-20)
(1.01532 -0.00528491 -2.05902e-20)
(1.01767 -0.00407291 -3.76451e-19)
(1.01552 -0.00116223 3.75058e-19)
(1.01305 0.00173865 0)
(0.625292 1.29777 0)
(0.667296 1.18846 0)
(0.781893 1.11148 0)
(0.654622 1.14501 0)
(1.19758 2.63644 5.07321e-20)
(1.09031 2.38659 0)
(0.824385 2.18983 3.47788e-21)
(0.8252 2.44995 0)
(0.919005 2.53821 -4.27549e-19)
(0.951028 2.48764 2.8558e-19)
(0.798092 0.155997 0)
(0.756765 0.138091 1.58576e-19)
(0.919451 0.154357 9.22206e-19)
(0.827067 0.133951 -3.46915e-19)
(0.780561 0.0854647 -1.0606e-18)
(1.08543 0.237386 -8.48851e-19)
(0.983191 0.303535 -7.90452e-21)
(0.930787 0.337902 8.2703e-19)
(1.01933 0.24889 6.95373e-19)
(0.934708 0.197127 -1.22037e-18)
(0.89547 0.209198 1.53036e-19)
(0.936088 0.300262 -3.19035e-19)
(0.90961 0.21264 0)
(1.00065 0.199761 5.9742e-19)
(1.05549 0.21427 0)
(1.05119 0.219888 0)
(1.12246 0.120986 2.69795e-19)
(1.06497 0.187714 -1.06562e-20)
(1.07854 0.23999 -1.53891e-19)
(1.11388 0.205772 0)
(1.02336 0.0478545 5.96438e-19)
(1.03877 0.0619412 7.4126e-19)
(1.03277 0.0456431 -5.91619e-19)
(1.04238 0.067676 -4.97072e-19)
(1.01495 0.0734215 -7.51389e-19)
(0.989572 0.164813 0)
(0.991825 0.106333 0)
(0.961165 0.0671022 -4.86183e-19)
(0.908936 0.0961723 1.92199e-19)
(1.03961 0.113896 6.87588e-19)
(1.07453 0.132742 -7.89892e-19)
(1.0689 0.174511 7.09626e-19)
(1.03575 0.151827 0)
(1.08469 0.118942 0)
(1.05743 0.108937 -3.23121e-19)
(1.04418 0.105435 -5.59276e-19)
(0.590737 1.1073 1.12826e-19)
(0.622525 1.42789 -1.86322e-20)
(1.14746 2.72916 -2.41732e-19)
(1.19997 3.11159 1.4822e-21)
(1.25612 2.73754 -1.23377e-19)
(1.29709 2.70915 1.6913e-20)
(1.27314 2.33226 -3.73535e-20)
(1.18783 3.0174 -6.95723e-20)
(1.20684 2.97426 2.17157e-19)
(1.18213 3.26558 -1.24917e-19)
(1.40114 2.9815 1.54801e-19)
(1.41309 2.91985 0)
(0.561486 0.833533 -4.75822e-20)
(0.228388 1.21901 4.86149e-19)
(0.503974 0.417848 5.67031e-19)
(0.383814 0.179693 6.50663e-19)
(0.524346 0.349033 6.78203e-19)
(0.552059 0.447492 -1.09629e-18)
(0.555052 0.442369 8.98863e-19)
(0.501082 0.368587 -3.44316e-19)
(0.417228 0.302299 7.78446e-19)
(0.743889 0.241632 -3.48457e-19)
(0.706247 0.270893 0)
(0.663332 0.192942 8.36844e-21)
(0.737262 0.500405 3.67928e-19)
(0.697002 0.473762 -1.3372e-18)
(0.635627 0.449932 1.95893e-20)
(0.632436 0.427649 0)
(0.708829 0.719263 3.77018e-19)
(0.824411 0.794221 4.15913e-19)
(0.759115 0.848235 -4.84808e-19)
(0.894062 0.813022 -1.55396e-19)
(0.924919 0.852587 -3.72746e-20)
(0.93276 0.859902 3.8224e-20)
(0.875859 0.670077 -6.78056e-19)
(0.945942 0.717188 1.44471e-19)
(0.9964 0.720237 0)
(0.993713 0.695924 -1.87964e-19)
(1.02822 0.326814 2.16475e-19)
(1.15415 0.327002 2.63107e-19)
(1.06941 0.275928 3.47555e-19)
(0.990583 0.370745 -4.2865e-19)
(1.04471 0.474939 0)
(1.12961 0.418373 0)
(0.895709 0.413989 3.25902e-21)
(0.842892 0.298769 0)
(0.884383 0.287393 3.94306e-19)
(0.908892 0.334057 7.64347e-21)
(0.968699 0.477434 1.95499e-18)
(0.901158 0.539344 5.01801e-19)
(0.920142 0.487892 -5.3866e-19)
(0.839338 0.467621 5.72665e-19)
(0.81425 0.44423 3.57174e-19)
(0.790467 0.41078 -3.50177e-19)
(1.02804 -0.000420106 6.22116e-19)
(1.02031 0.000368432 0)
(1.01896 0.00121715 4.05883e-19)
(1.02252 -0.000954723 -9.18856e-19)
(1.0225 0.00438796 4.47624e-19)
(1.02011 0.0113851 -9.36717e-19)
(1.0209 0.0111443 0)
(1.01983 0.0118912 -1.95106e-19)
(1.01648 0.00765177 4.8897e-19)
(1.01672 0.0107709 -2.45419e-19)
(1.01735 0.0104162 1.79595e-19)
(0.0277755 1.32615 0)
(0.0302031 1.35924 0)
(0.0438351 1.33517 0)
(0.0454702 1.29211 0)
(0.0758083 1.37234 -1.01618e-20)
(0.08876 1.34543 -1.41711e-20)
(0.0566508 1.55017 -4.92406e-21)
(0.0982655 1.38072 -4.72241e-20)
(0.040645 1.46746 2.20322e-20)
(0.0441434 1.46472 -1.77871e-20)
(0.0674222 1.37307 -3.47917e-20)
(0.0575566 1.37749 5.71336e-20)
(0.0474133 1.35379 8.85153e-21)
(0.0399309 1.3766 4.10366e-21)
(0.104499 2.3853 -1.07284e-19)
(0.0936674 2.42826 0)
(0.1488 2.03076 9.54668e-20)
(0.115906 1.70358 3.56723e-20)
(0.214952 2.02907 -8.27456e-20)
(0.217366 2.43214 0)
(0.250611 2.39074 -6.26145e-19)
(0.291343 2.38719 4.52297e-19)
(0.255534 1.99906 -2.10362e-19)
(0.142859 2.15916 1.50394e-19)
(0.110038 2.26312 0)
(0.0203226 1.86618 -2.06642e-20)
(-0.00634091 2.39207 -4.73405e-20)
(0.00233623 2.14065 0)
(0.00431876 2.45446 -1.50666e-20)
(0.0272006 2.29939 2.00544e-20)
(0.0140558 1.40716 -6.8386e-21)
(0.0153791 1.39402 1.19904e-19)
(0.0153091 1.39934 -3.76683e-20)
(0.0183647 1.39944 -3.45504e-20)
(0.0238512 1.43074 0)
(0.0128302 1.38328 0)
(0.00542961 1.30144 -5.09082e-20)
(0.00811049 1.37239 1.43044e-20)
(0.012751 1.37362 0)
(0.0103689 1.29448 -3.838e-20)
(0.01833 1.22609 7.76593e-20)
(1.04218 0.0144185 0)
(1.04846 0.00996236 -6.49326e-20)
(1.03891 0.0234745 -4.69362e-19)
(1.04914 0.0224747 0)
(1.05432 0.0217625 0)
(1.03618 0.0124087 -6.74028e-21)
(1.03027 0.0127313 7.53567e-19)
(1.03184 0.0168758 9.16428e-19)
(1.02565 0.0206604 0)
(1.02215 0.0212301 0)
(1.03539 0.0253741 4.68391e-19)
(1.02537 0.0274885 0)
(1.02365 0.027501 0)
(-0.018323 2.02725 0)
(-0.00266976 1.65046 -1.73715e-21)
(-0.0059751 1.75866 -2.71425e-20)
(-0.00170847 1.38039 0)
(-0.002327 1.54734 -1.89335e-20)
(-0.00936155 1.4563 1.32797e-20)
(-0.0086024 1.39055 0)
(0.40643 1.65419 0)
(0.359312 1.30574 -2.54181e-20)
(0.279124 1.34576 0)
(0.42588 1.31207 -4.1888e-20)
(0.462419 1.46594 0)
(0.447201 1.40876 4.16962e-20)
(1.04048 2.68392 -1.51625e-20)
(0.981881 2.41747 -8.91106e-19)
(0.942038 2.21058 1.01303e-18)
(0.864195 2.3902 2.39236e-19)
(0.854666 2.50105 0)
(0.922223 2.49755 0)
(0.950481 2.39055 0)
(0.927117 2.3793 -9.25666e-19)
(0.694652 2.47022 -3.76342e-19)
(0.803148 2.45366 -9.67904e-20)
(0.810976 2.43182 7.30013e-20)
(0.704513 2.40852 0)
(0.809336 2.40283 0)
(0.771023 2.41822 -3.64278e-19)
(0.768147 2.48019 0)
(0.617332 1.07419 0)
(0.520223 0.885696 -5.41965e-19)
(0.523888 0.951943 -3.14129e-20)
(0.506908 1.09252 0)
(0.49305 1.00354 8.31075e-19)
(0.788924 0.882088 -1.35074e-19)
(0.792658 1.01445 0)
(0.770836 0.993267 1.89161e-19)
(0.658748 1.02358 0)
(0.656188 0.935335 0)
(1.16528 2.76419 -2.17953e-19)
(1.14052 2.82261 -8.77966e-20)
(0.927038 2.3501 7.07124e-20)
(0.903305 2.33015 -7.46724e-20)
(1.13458 2.74229 0)
(1.08651 2.71077 8.97548e-20)
(1.10243 2.50447 -2.97466e-19)
(1.0032 2.2603 -2.86814e-20)
(0.503144 1.35282 0)
(0.522403 1.09462 -9.94493e-20)
(0.587831 1.1847 0)
(0.85814 0.220909 0)
(0.777183 0.172658 0)
(0.709047 0.140175 0)
(0.858912 0.219805 -6.0565e-19)
(0.765418 0.214717 3.6318e-19)
(0.920555 0.0810053 -3.9685e-19)
(0.941733 0.133791 0)
(0.91669 0.144977 1.71609e-19)
(0.851735 0.101704 6.88462e-19)
(0.808013 0.0698586 -4.31661e-19)
(1.10179 3.35862 -6.83589e-19)
(1.16767 3.28133 0)
(1.12095 3.44391 -1.58515e-18)
(0.660772 3.58915 1.3212e-18)
(1.03206 3.08499 1.26018e-19)
(0.527945 0.813536 5.65525e-19)
(0.513089 0.785158 0)
(0.372604 0.444503 -1.46959e-19)
(0.474139 0.65256 8.55441e-19)
(0.530343 0.42031 -1.99554e-19)
(0.5146 0.481512 2.30901e-19)
(0.683851 0.528764 4.79037e-19)
(0.724411 0.561787 0)
(0.651057 0.586836 0)
(0.624466 0.541814 0)
(1.00044 0.603559 9.5013e-20)
(0.955323 0.582302 -4.85568e-19)
(0.967053 0.597312 3.67823e-19)
(1.03009 0.533337 -3.61643e-19)
(1.07505 0.505103 0)
(1.07849 0.592039 -9.43764e-20)
(0.869274 0.403972 -7.95835e-19)
(0.862378 0.39517 -1.01645e-18)
(0.802984 0.385699 6.27173e-19)
(0.808736 0.346793 -6.48755e-19)
(0.848314 0.309195 -5.07311e-19)
(0.803209 0.310083 6.23575e-19)
(1.02656 0.00640764 -4.68446e-19)
(1.0262 0.00653657 9.44241e-19)
(1.02979 0.000684973 6.02935e-19)
(1.03396 0.00138025 -7.24122e-19)
(1.0337 0.0112545 0)
(1.02983 0.0114583 -1.17867e-18)
(0.0876344 1.65747 1.11296e-20)
(0.0504111 1.59613 0)
(0.0947346 1.70446 7.15686e-20)
(0.106602 1.67866 -6.51167e-20)
(0.0468945 1.54505 9.19665e-21)
(0.0338115 1.53758 0)
(0.00732045 1.68552 0)
(-0.0030071 1.49191 8.69689e-21)
(-0.000965998 1.43466 -7.80873e-21)
(-0.00543021 1.54454 4.55689e-21)
(-0.000763062 1.88673 1.21949e-20)
(-0.0109928 1.9404 -3.34872e-21)
(0.494907 1.37713 -2.51383e-19)
(0.497024 1.37451 2.74892e-19)
(0.442809 1.30319 -7.61082e-21)
(0.429053 1.30116 7.33273e-21)
(0.6167 1.30556 0)
(0.544607 1.39708 1.16454e-19)
(0.545654 1.40006 -1.13403e-19)
(0.47393 1.28752 7.33994e-21)
(0.518722 1.24695 0)
(0.584236 1.21684 0)
(0.669224 2.43322 5.54398e-19)
(0.663052 2.45797 1.27564e-18)
(0.719735 2.47441 -8.76831e-19)
(0.619906 2.44782 -2.07012e-19)
(0.555633 2.54387 2.77028e-19)
(0.494904 2.50656 -7.21567e-19)
(0.991089 2.39471 -5.70595e-19)
(1.02522 2.41285 0)
(0.948772 2.19524 -6.29201e-19)
(1.05683 2.69153 0)
(1.05617 2.67409 0)
(0.613571 2.30702 2.91894e-20)
(1.12352 3.07802 9.4882e-20)
(1.00471 2.97877 -1.48917e-19)
(0.333135 0.845087 0)
(0.345399 0.745195 -3.01478e-19)
(0.539903 0.674415 -3.05694e-19)
(0.379021 2.15251 0)
(0.40914 2.74851 -8.86595e-20)
(0.420378 2.48687 0)
(0.714786 0.675091 -8.06782e-19)
(0.772354 0.678276 1.13162e-18)
(0.787437 0.647783 -1.07268e-18)
(0.687945 0.642067 -1.02625e-19)
(0.750662 0.601783 -4.21948e-19)
(0.977931 2.76428 -7.18705e-20)
(1.01662 2.76761 -1.98908e-19)
(0.565971 2.23102 4.01431e-19)
(0.615646 1.75271 -3.23503e-19)
(0.713086 1.87013 -4.83042e-19)
(0.982601 2.40499 -1.36561e-19)
(0.981243 2.35962 3.54076e-19)
(0.658952 1.78789 3.24239e-20)
(0.466242 1.31845 1.7034e-19)
)
;

boundaryField
{
    wall-4
    {
        type            noSlip;
    }
    velocity-inlet-5
    {
        type            fixedValue;
        value           uniform (1 0 0);
    }
    velocity-inlet-6
    {
        type            fixedValue;
        value           uniform (0 3 0);
    }
    pressure-outlet-7
    {
        type            zeroGradient;
    }
    wall-8
    {
        type            noSlip;
    }
    frontAndBackPlanes
    {
        type            empty;
    }
}


// ************************************************************************* //
