/*--------------------------------*- C++ -*----------------------------------*\
  =========                 |
  \\      /  F ield         | OpenFOAM: The Open Source CFD Toolbox
   \\    /   O peration     | Website:  https://openfoam.org
    \\  /    A nd           | Version:  6
     \\/     M anipulation  |
\*---------------------------------------------------------------------------*/
FoamFile
{
    version     2.0;
    format      ascii;
    class       volScalarField;
    location    "84";
    object      p;
}
// * * * * * * * * * * * * * * * * * * * * * * * * * * * * * * * * * * * * * //

dimensions      [0 2 -2 0 0 0 0];

internalField   nonuniform List<scalar> 
918
(
0.530476
1.22069
0.00674199
0.530388
-0.0116536
1.18815
-0.5091
0.625298
0.51163
-0.123906
-0.0876886
0.513981
1.04511
0.812154
-1.17253
-0.0250427
0.626322
-0.420997
0.509693
-0.0866492
0.640912
0.518302
0.520767
0.511552
0.57495
0.764868
0.922422
-0.00281731
0.0111448
0.0060637
-0.0130548
-0.0335588
-0.0306579
1.07126
1.12319
1.14644
0.478109
0.311273
-0.404163
-0.45936
-0.436109
-0.525235
0.626039
0.627171
-0.234317
0.624676
0.62389
0.497306
0.511024
0.511861
0.512982
0.511892
0.51317
0.40315
-0.131028
-0.158375
-0.108911
-0.108106
0.0223433
-0.0889628
-0.0901999
-0.0862657
-0.0867823
0.42711
0.508708
0.505305
0.518185
0.527159
1.16086
1.1347
1.16085
1.07076
1.08861
1.02211
0.995145
0.833319
0.85682
0.795528
0.781705
-1.62553
-2.56696
-0.598453
-0.324655
-0.0106984
-0.0265944
-0.0253385
0.62209
0.624351
0.624617
0.626899
1.03196
-0.393036
-0.465636
0.510235
0.508763
0.517826
0.51873
0.513696
0.513695
-0.0846668
-0.0851017
-0.0699532
-0.0840774
-0.0818682
0.621046
0.622319
0.510987
0.508429
0.535659
0.560394
0.548057
0.244029
0.585052
0.601062
0.629297
0.774909
0.761791
0.774155
0.897751
0.866022
0.953983
0.975695
0.0140345
-0.00164681
-0.0263304
-0.0235316
-0.0244225
0.473847
0.467406
0.495636
0.481735
0.484781
0.217169
0.0678348
0.392996
0.416265
-0.328612
-0.379405
-0.462481
-0.461018
-0.568498
0.597388
0.628468
0.627637
-0.245534
-0.173076
-0.301232
-0.115205
-0.172826
0.488244
0.494504
0.490574
0.505978
0.500139
0.502566
0.515094
0.512278
0.513871
0.451944
0.577103
0.327079
0.28098
-0.280646
-0.176393
-0.260915
-0.100642
-0.0990894
0.0319268
0.0617995
0.00995324
-0.00205436
-0.0939441
-0.0912335
-0.0933476
-0.0860921
-0.0859049
0.418547
0.405477
0.43837
0.445903
0.494954
0.496435
0.500947
0.49898
0.946397
0.969357
0.975012
0.950962
-3.53865
-6.15937
0.0162525
0.173852
-0.00988359
-0.0114098
-0.000347425
-0.0103329
-0.0011267
-0.0029456
-0.0361882
-0.0358162
-0.0286019
-0.0300383
0.619666
0.620962
0.998044
1.02539
0.971217
0.945505
0.499595
0.501473
0.506093
0.502978
-0.0858098
-0.0853675
-0.0865714
0.622833
0.621857
0.622125
0.202549
0.113265
0.295878
0.327202
0.615996
0.605132
0.614677
0.689271
0.72861
0.992922
1.01654
1.00088
1.01361
1.06444
1.08744
1.05243
0.452395
0.463333
0.457595
0.498473
0.496284
0.497228
0.493969
0.494785
0.493532
-0.0429742
-0.412786
0.465154
0.466243
0.458754
0.461317
0.684283
0.767867
0.624419
0.626381
0.62705
-0.0631224
-0.110337
0.229322
0.203348
0.357458
0.392199
0.373942
0.92171
0.881601
0.92961
0.904937
0.869745
0.8937
-0.348452
-2.10492
-1.10314
0.571074
0.375462
0.466661
-0.0188675
-0.0359463
-0.0321383
1.01533
1.05482
0.642392
0.834676
0.787233
0.751384
0.777571
0.840797
0.773421
0.808017
0.838375
0.813772
0.546633
0.475715
0.494172
0.842781
0.897962
0.0752842
-0.00444186
-0.0273283
0.0877179
0.16295
0.128917
1.03138
0.950352
1.01213
0.50867
0.509623
-0.0195563
-0.0441403
0.513744
0.513455
-0.0233705
-0.0143323
0.481869
-0.939034
0.0761195
0.503295
0.492881
0.509743
-0.105039
0.304724
-0.0906446
0.000759828
-0.0294346
0.504725
0.439484
0.397081
-0.00943716
-0.0345496
-0.0805221
-0.217186
0.506409
0.504766
0.509132
0.509948
0.510728
-0.0298708
-0.0293117
-0.020242
-0.071973
-0.0648016
-0.0767558
0.472978
0.493285
-0.200128
0.509427
0.511534
0.511226
0.505463
0.510385
0.509027
-0.0261148
-0.0290702
-0.0312249
0.182079
0.324089
0.664392
0.738725
0.613811
0.447914
0.157963
0.601916
0.653376
0.578997
0.70943
0.626297
0.622146
0.142969
-0.00104124
0.147341
0.0804169
0.50011
0.499564
0.490399
0.48727
0.504584
0.502261
0.507457
0.50471
0.507882
0.509021
-0.059682
-0.0884186
-0.105118
-0.148412
0.272228
0.534929
0.213171
0.276234
0.146326
-0.0834844
-0.083041
-0.085868
-0.089743
-0.0484902
-0.0486481
-0.00499517
0.00607828
-0.010512
-0.0363628
-0.0571737
-0.0496224
-0.0588566
0.497667
0.497469
0.502638
0.511259
0.449128
0.452839
0.419141
0.437907
0.424041
0.363998
0.393761
0.370905
-0.0203331
-0.0111637
-0.0121056
-0.0357672
-0.0349385
-0.0560806
-0.0484089
-0.0476386
-0.0438738
-0.0483208
-0.0747152
-0.0817578
-0.181492
-0.301742
0.943161
0.885086
0.130949
0.496294
0.501971
0.499133
0.50389
0.507084
0.507708
0.505272
0.501759
0.493362
0.494859
0.491481
0.492549
-0.137605
-0.247949
-0.0795302
-0.156518
0.139976
0.606802
0.331357
0.275956
0.261211
0.489212
0.681391
0.58825
0.641749
0.612831
-0.401231
-0.00428778
-0.336304
0.208746
0.205341
0.691543
0.733087
0.750316
0.70749
0.664004
-0.0296486
0.538718
-0.084273
-0.0322539
0.160382
0.0410384
0.598525
0.612306
0.618405
0.614607
0.620231
0.61947
0.607975
0.597
0.618773
0.623047
0.481698
0.21037
0.166655
0.120783
0.61267
0.504086
0.554117
0.472371
0.495783
0.498174
0.497151
0.477779
0.485148
0.480804
0.48803
0.49175
0.499064
0.499246
0.495041
0.496994
-0.0815781
-0.0902907
-0.0668368
-0.130699
-0.134645
-0.178879
-0.087647
0.084531
0.0306299
0.222026
0.329954
0.0632215
-0.0578849
-0.0396378
0.0107253
0.171918
0.169681
0.0465629
0.147939
0.113268
0.101419
0.207743
0.208222
-0.0568639
-0.0639264
-0.0636339
-0.0697039
-0.0223642
0.101318
0.0711067
-0.036711
-0.0428693
-0.0813037
-0.0839248
-0.00520526
-0.0463294
-0.0381441
-0.00988129
-0.0637572
-0.0383592
-0.0290435
-0.0380119
-0.0381261
-0.0375485
0.492195
0.494002
0.494148
0.503558
0.515094
0.529855
0.496811
0.47037
0.461383
0.464484
0.437543
0.446775
0.44201
0.457857
0.47942
0.48789
0.485987
0.488703
0.470738
0.472416
0.457754
0.462397
0.431523
0.412789
0.402586
-0.059799
-0.026861
-0.0406013
-0.0524571
-0.0269277
-0.0361906
-0.0376367
-0.0183579
-0.0382015
-0.0328447
-0.0428012
-0.0483069
-0.0487065
-0.0841219
-0.00154592
-0.186823
-0.234454
-0.288196
0.867379
1.00716
0.791752
0.552689
0.570194
0.813545
0.921263
0.521816
0.738887
0.749546
0.564542
0.854482
0.500257
0.499836
0.49769
0.496856
0.497865
-0.0249634
0.0787104
0.0886042
0.149078
0.264196
0.36916
0.303949
0.189806
0.322028
0.346924
0.604563
0.610531
0.571121
0.591563
0.591844
0.399164
0.479566
0.517375
0.475052
0.550072
0.582114
0.528126
0.571286
0.492205
0.442164
0.433356
0.387984
0.422723
0.403831
0.378076
0.491894
0.468772
0.479543
0.469769
0.491804
0.518854
0.517779
0.536715
0.557655
0.470458
0.416214
0.433352
0.462153
0.417977
0.435542
0.457682
0.178805
0.0807794
0.243305
-0.0841173
-0.000247297
0.0406544
-0.00289275
-0.0438316
0.262819
-0.373244
-0.320006
-0.994427
0.487411
0.819735
0.54212
0.553963
0.618831
0.607924
0.616697
0.617166
0.620972
0.6007
0.607883
0.612967
0.579241
0.600567
0.591509
0.599667
0.485933
0.386247
0.389704
0.320783
0.181528
0.223665
0.414933
0.346131
0.271075
0.263169
0.440079
0.305386
0.385372
0.433737
0.357293
0.293479
0.519527
0.568926
0.560768
0.533288
0.410958
0.444229
0.445064
0.494891
0.538572
0.56302
0.48659
0.492903
0.49381
0.491073
0.489447
0.492584
0.492882
0.495183
0.495313
0.497914
0.497407
-0.0800104
-0.0659349
-0.0787586
-0.0871174
-0.0257237
-0.0336187
-0.00407731
-0.02683
-0.0377745
-0.0321423
-0.0486943
-0.0649914
-0.0634474
-0.0539514
0.0645173
0.0776319
0.090018
0.0457835
0.251086
0.387019
0.474052
0.357926
0.198716
0.225444
0.289645
0.0184957
0.00631748
-0.00776364
0.0636395
0.0527345
-0.0695056
-0.0747412
-0.0694004
-0.0568936
-0.0499215
-0.0715128
-0.0771738
-0.0669989
-0.0731872
-0.0798456
-0.0826518
0.472025
0.464936
0.46854
0.460946
0.459122
0.476049
0.480729
0.481698
0.487276
0.48984
0.479351
0.485196
0.489386
-0.0392395
-0.0562561
-0.0558969
-0.0603008
-0.0561216
-0.0537264
-0.0576535
0.116764
0.0241373
0.059669
-0.0108228
-0.137455
-0.0781668
0.491081
0.48401
0.471364
0.709297
0.545061
0.464443
0.563676
0.684427
0.264108
0.462914
0.298621
0.873882
0.781959
0.926946
0.542094
0.245248
0.41723
0.425065
0.26585
0.390705
0.329318
0.205464
0.240915
0.276448
0.36036
0.244672
0.224199
-0.0187497
0.163465
0.272252
0.254261
0.380394
0.436565
0.255905
0.171396
0.117442
0.58426
0.600914
0.609172
0.579851
0.601536
0.565005
0.552633
0.568035
0.575476
0.572029
-0.628574
-0.217104
-1.41673
-0.833911
-0.382075
0.514973
0.519326
0.737572
0.638099
0.643602
0.625952
0.575352
0.551436
0.590704
0.60155
0.310135
0.394624
0.382569
0.357625
0.303785
0.246221
0.516911
0.527922
0.548603
0.57738
0.554202
0.582188
0.485366
0.485217
0.483869
0.480116
0.478606
0.481925
0.0160782
-0.00889018
0.0262917
0.0173909
-0.00746704
-0.0131411
-0.0471454
-0.0584392
-0.0600497
-0.0559789
-0.0447621
-0.0432599
0.164135
0.101411
0.0131565
0.0542168
-0.0122424
-0.0930409
-0.0965879
-0.00521533
0.0949592
0.0762069
0.378173
0.644991
0.471157
0.635793
0.436158
0.532679
0.453779
0.427153
0.454293
0.360426
0.45115
0.0508778
-0.151925
-0.206689
0.809392
0.772271
0.550534
0.310148
0.189095
0.478218
0.499747
0.460733
0.487007
0.536062
0.520331
0.0195599
0.104195
0.195921
0.50028
0.272472
0.291678
0.281373
0.449227
0.417099
)
;

boundaryField
{
    wall-4
    {
        type            zeroGradient;
    }
    velocity-inlet-5
    {
        type            zeroGradient;
    }
    velocity-inlet-6
    {
        type            zeroGradient;
    }
    pressure-outlet-7
    {
        type            fixedValue;
        value           uniform 0;
    }
    wall-8
    {
        type            zeroGradient;
    }
    frontAndBackPlanes
    {
        type            empty;
    }
}


// ************************************************************************* //
