/*--------------------------------*- C++ -*----------------------------------*\
  =========                 |
  \\      /  F ield         | OpenFOAM: The Open Source CFD Toolbox
   \\    /   O peration     | Website:  https://openfoam.org
    \\  /    A nd           | Version:  6
     \\/     M anipulation  |
\*---------------------------------------------------------------------------*/
FoamFile
{
    version     2.0;
    format      ascii;
    class       surfaceScalarField;
    location    "84";
    object      phi;
}
// * * * * * * * * * * * * * * * * * * * * * * * * * * * * * * * * * * * * * //

dimensions      [0 3 -1 0 0 0 0];

internalField   nonuniform List<scalar> 
1300
(
3.75095
5.62643
-3.32713
3.75095
-7.75332
5.62643
-4.28426
4.28426
-0.377602
0.377602
1.8765
1.87446
-2.42885
2.42885
-1.70484
1.70484
-2.52423
2.52423
-5.24823
5.24823
-5.06897
5.06897
4.69547
-4.69547
-6.33966
6.33966
-0.961389
0.961389
-3.57823
3.57823
3.17239
-3.17239
-1.80907
1.80907
0.111072
-0.111072
-0.554079
4.30503
3.19687
3.19687
-1.9938
1.9938
-4.87519
4.87519
6.22247
-6.22247
5.23168
-5.23168
-1.90455
-2.51822
1.79224
-11.4599
-5.96109
-5.96109
-8.44095
8.44095
-2.81452
2.81191
2.94736
-2.94736
-1.71942
1.71942
-4.30303
0.0187716
-4.30303
4.25333
0.0309323
4.25333
-0.495302
0.1177
-0.495302
3.96214
-3.96214
0.275476
0.102126
0.275476
3.06734
-3.06734
-1.87685
3.75335
1.8741
-1.8721
6.17713
-1.87885
3.75331
-6.05195
6.05195
-2.67777
0.248921
-2.67777
2.19575
0.233099
2.19575
-6.89651
6.89651
-1.76793
0.0630863
-1.76793
1.70234
0.00250402
1.70234
2.88873
-2.88873
-2.6256
0.101371
-2.6256
2.38732
0.136914
2.38732
0.353227
5.2732
-5.97966
8.79157
-5.2732
0.0249708
5.21038
0.0378533
5.21038
-5.10534
0.0363756
-5.10534
5.0137
0.0552657
5.0137
4.78302
-0.087552
4.78302
-4.81623
0.120761
-4.81623
-3.35738
-4.08234
-6.50113
0.161462
-6.50113
-1.03168
0.0702948
-1.03168
0.858327
0.103062
0.858327
-3.72793
3.72793
-3.93794
0.359709
-3.93794
3.12735
0.0450442
3.12735
1.86812
1.88284
5.61907
-5.61907
2.44668
-1.72311
-0.0859608
-1.72311
-1.90467
-3.32701
1.90467
-0.0955972
-0.112879
0.223951
-0.112879
3.15713
0.0397405
3.15713
2.23522
0.152099
-2.23522
0.241421
3.30353
-3.30353
1.32555
0.668245
1.32555
-5.55867
5.55867
4.9621
0.051602
-4.9621
0.086907
6.15684
0.065633
6.15684
-6.20774
-0.0147262
-6.20774
2.48228
-5.0005
-2.67657
6.15073
0.188931
-6.15073
0.189645
2.91898
0.0283804
2.91898
-2.9184
2.9184
-2.98432
0.0369557
-2.98432
-2.14162
0.422207
-2.14162
1.40573
0.313687
1.40573
-4.21991
-0.083128
-4.21991
-4.09712
0.159179
4.09712
0.15621
1.12009
-1.12009
-0.606745
0.111443
-0.606745
-4.0681
-0.15181
4.0681
-0.105952
-3.90011
-0.0620327
-3.90011
-3.02198
0.0376564
3.02198
0.045363
3.11214
0.0449982
-3.11214
0.0447968
-1.87099
3.75383
-1.87996
3.75406
-5.6813
-0.370656
-5.6813
6.36626
-0.314311
6.36626
3.10138
0.476854
-3.10138
0.423605
2.01038
0.185371
2.01038
-6.8696
-0.0269121
-6.8696
6.90339
-0.00687782
6.90339
1.87153
0.13885
-1.87153
0.103606
1.69675
0.00558245
1.69675
2.91655
-0.0278123
2.91655
-2.88227
-0.00646177
-2.88227
2.78873
-2.78873
2.71299
0.075735
-2.71299
0.0873904
-11.1239
11.1092
-0.0363269
-11.0876
5.17405
5.17405
4.23575
0.547275
4.23575
-5.01355
0.197315
-5.01355
2.66707
-5.34364
3.12106
-6.47844
4.67317
-16.133
4.28264
-8.36498
6.75255
-6.75255
6.63401
0.118545
-6.63401
0.132879
-1.14369
0.112003
-1.14369
-3.13109
-0.596844
-3.13109
4.36945
-0.641523
4.36945
-3.0274
3.0274
-3.07625
0.0488452
3.07625
0.0510955
1.68948
0.00726915
-1.68948
-0.0336273
0.176676
0.0988003
-0.176676
0.0637968
3.5273
-0.223773
3.5273
-3.09833
-0.205196
-3.09833
-1.23061
0.0869254
1.23061
0.0949415
-5.80748
0.248815
-5.80748
-11.1817
0.0940772
-11.1438
-6.11367
-6.11367
2.32728
11.1188
-2.89744
0.0151706
2.89744
0.0215415
2.97468
0.0527298
-2.97468
0.0562793
-2.85674
0.0680118
2.85674
0.061655
-2.50912
0.367501
-2.50912
-1.02287
1.02287
-1.16914
0.146266
1.16914
0.236592
1.42236
-0.302265
1.42236
0.736799
0.121528
-0.736799
0.130055
-3.84336
-0.0567565
-3.84336
6.60246
-0.236194
6.60246
-2.96873
-0.1296
2.96873
-0.0521858
-0.0348772
11.1441
-5.13917
0.0338312
5.13917
-11.2097
11.2435
-3.21389
0.704767
3.21389
1.02186
5.28364
0.275023
-5.28364
0.2701
6.84372
0.0596704
-6.84372
0.0911685
-2.6406
-0.490482
-2.6406
-5.09484
-0.586455
5.09484
-0.725387
-11.4823
-0.202271
11.6845
-11.427
6.00975
0.147084
-6.00975
11.3906
-0.994969
-0.125126
0.994969
0.0279033
1.76238
-0.340019
1.76238
3.7464
-0.219103
-3.7464
-0.0969528
-6.76177
-0.107831
6.76177
-0.159312
-2.1911
-0.4495
2.1911
-0.428725
-4.2674
4.30714
1.90973
-2.31933
-2.68116
-5.64634
1.85528
1.89854
4.30196
-10.1426
-5.99039
-9.95299
7.21458
-6.94448
-9.31845
9.23089
7.94674
-8.00877
-5.77728
5.82838
6.4848
-6.43943
1.87949
1.87386
8.07486
-7.82594
-15.689
15.3183
7.63396
-7.57088
15.8199
-15.8468
-17.8596
17.9193
-5.7041
5.80547
-6.74313
6.73667
-6.98037
6.92819
-2.79387
-3.68457
13.1127
-12.9512
8.622
-8.70796
-8.68245
9.04216
3.38463
0.922512
3.42962
-1.88177
3.76126
-1.87154
3.78127
2.77635
-5.57022
2.56729
-5.24846
4.39881
4.22319
-4.30321
-1.34313
-5.92892
5.9573
-5.80889
5.87054
9.19274
-9.17397
-1.88499
3.75885
-1.86907
3.76762
-3.42288
-2.35441
3.37783
0.92413
8.06017
5.05253
-8.2491
-1.70389
-8.0328
7.8137
-8.21833
8.01314
-0.436039
5.83844
-5.4024
4.43915
-1.65343
7.49186
5.56116
5.75847
5.86073
-5.58571
1.08375
-6.48615
-6.39925
-2.22611
2.33755
2.10056
-1.99843
6.15761
1.78914
6.05165
-5.81377
-2.195
-5.87053
3.81969
2.00869
3.86853
4.08225
2.40255
4.11991
3.02948
-3.03683
0.00734443
-3.05937
6.08885
0.722026
-5.41377
-4.48964
4.99148
3.08338
5.22458
-5.59404
-2.2319
-5.17044
-9.56937
-6.11964
-10.1558
10.1492
5.16915
9.83489
-11.9437
11.7844
4.87691
2.75706
4.87941
-4.98202
-2.58886
-4.87841
11.6833
-2.65781
-9.02552
-10.3268
-7.53279
10.3337
5.48621
10.9685
6.95074
11.0597
4.42672
7.2566
-9.91293
2.38014
-3.86571
-1.8384
-3.77832
3.6628
2.14267
3.79972
-4.21902
-2.52412
-4.20385
-4.29539
-2.68499
4.3232
2.41347
-4.41763
-3.8007
4.54723
2.38096
4.05995
-10.0503
4.30503
-7.9896
-9.1979
-3.75335
-9.06502
3.57861
2.5957
-6.17431
-1.99161
8.5832
-4.36001
7.24007
-5.20855
-3.49942
-5.24217
-6.97388
-1.70857
-6.8147
-8.91872
8.42823
-9.2015
8.55998
12.4982
-5.63253
-6.86567
-3.96704
-2.47239
3.92224
-0.492622
-3.71004
3.71738
0.0512236
3.83249
4.75501
4.26239
-3.88224
-1.92665
-3.82596
3.82104
2.0495
3.88906
6.85961
2.33313
6.89054
-6.62563
-2.54834
-6.70876
9.08956
-8.66736
2.79318
-2.70625
5.38043
2.63271
-5.15666
-2.87615
6.23839
-3.21295
-3.02545
-12.3498
10.7867
1.56306
-4.85789
-0.418739
-0.529811
-5.56585
-3.7526
5.44509
0.313384
11.1001
7.34749
-5.51476
5.76357
6.16978
6.22138
-0.177865
5.88152
-5.17676
5.27203
-2.73661
-2.53542
5.48636
-5.63817
-1.22239
-5.56321
4.34082
0.41348
1.46101
-1.23706
-1.74563
-0.480482
-1.61557
1.13218
0.968381
1.23098
0.960199
1.37735
-2.92909
0.503378
2.42571
-1.96889
-1.49505
-3.82299
-1.14896
4.97195
5.73849
2.07521
-5.64154
-0.228994
2.54695
-2.44389
-0.841171
-2.98182
2.22416
-3.06533
-3.46335
-1.95057
5.41392
-3.36869
-0.457275
3.31596
0.552578
-3.82825
-2.10066
3.7913
0.328606
-3.12914
6.19042
-3.06128
-5.05579
2.52898
3.55987
4.53767
-4.78991
2.44929
2.34062
-1.23004
4.25771
0.96687
4.44308
-7.06676
4.83485
5.73991
3.30225
-6.21676
1.04632
-6.02043
8.5628
-7.4086
-1.1542
4.1143
4.4485
7.00833
5.48987
-5.69566
12.704
-1.17787
-6.23073
7.1983
-3.89605
4.87361
-8.76966
-10.3635
4.13275
-9.20529
11.0881
-1.8828
-3.59264
-8.35109
12.7979
-1.24761
-11.5503
8.58728
-4.34945
-4.42538
8.77482
-7.00726
7.01424
-1.98945
-5.02479
-10.1469
-5.69988
10.2547
1.52968
-9.97005
12.3502
-2.71344
4.16562
0.713795
4.1712
3.36641
-5.47404
2.10764
3.64085
-5.6303
2.05119
-7.52524
-6.75474
12.0956
-5.34085
-10.5081
-9.54268
-0.9654
2.54844
9.80175
-9.49917
7.42947
2.06971
3.29799
0.591069
-3.37372
-0.404594
0.233198
4.50965
-4.74285
4.03291
4.18501
3.21689
1.29276
3.8496
2.10769
-3.87114
-0.332702
-4.16889
1.48391
-1.75542
-3.69396
5.17786
-4.06182
0.367861
-2.74308
-3.4922
6.23528
-4.58147
3.03596
3.15446
5.08545
-4.91386
1.42166
-2.3905
-2.52336
2.64016
-4.39558
2.00139
3.17647
4.38234
0.581644
5.91474
6.18085
-8.51044
0.520843
11.2334
-9.52949
2.47949
8.5802
-9.90895
0.366272
-8.69874
0.976317
-5.33633
-5.19799
5.23082
-6.93939
-3.53884
6.25651
0.63403
-6.41272
-0.40198
-6.06
-2.85872
-6.5095
-3.04373
-6.15778
-8.73939
-1.67361
-7.06578
6.75462
-6.70274
-3.45308
7.42813
1.13185
-7.4724
7.34728
-7.53009
7.19007
0.095075
3.62231
4.35746
1.88507
-2.39227
4.27734
-5.08016
7.41329
-8.76343
3.68327
4.25239
-6.80074
-4.51104
5.05149
4.03808
5.36517
8.91046
-10.3578
1.44732
-10.6293
11.9712
-1.34189
-16.4028
5.77352
-7.49233
2.40575
0.387423
2.51776
0.551179
2.48731
-3.03849
-2.15507
-2.06013
-2.44669
-3.49318
5.93987
1.05714
-3.47618
2.41903
-3.56488
4.62202
-0.0796066
-3.39657
5.17422
-2.68691
5.56165
-3.64448
1.91716
3.55148
5.84326
-2.29177
4.41963
-1.78692
1.9497
-4.24147
-1.54348
-2.95372
5.0964
-3.28155
3.64941
-0.353549
4.00296
-4.04191
0.828966
-0.825023
3.35999
3.60141
4.33238
-3.03962
2.93454
-4.72146
-1.30694
-4.13981
-0.963339
-0.180149
-3.77528
3.95543
5.99359
-6.17374
-5.27632
9.5149
-4.23858
7.69465
-5.4339
-2.26076
-4.28431
-4.38305
3.91681
1.96472
9.65937
0.17856
-5.61246
-4.9982
-3.97634
3.08423
2.1878
-1.71214
3.27519
2.24195
-0.780941
0.400011
0.830966
1.75885
-1.35884
0.342296
1.41656
-0.894763
1.67598
0.870969
-1.79751
0.181939
-1.34432
3.56848
1.08139
-2.04977
0.690927
0.889972
-3.62659
5.10743
-2.7403
-2.36713
5.9974
1.14647
-3.88677
4.41674
-4.00326
2.45488
-3.60384
-1.43189
-5.43515
-3.64601
-2.48158
4.90062
-3.45829
5.5335
1.43726
-5.3045
6.74176
-3.62656
1.67599
-3.05678
3.92775
-0.995455
-2.06132
2.87163
2.5423
-3.14261
0.16079
-0.270981
2.41644
-2.68742
-0.648889
-2.61778
-4.57622
4.90482
-2.10367
4.55295
2.17367
-1.91781
6.47076
1.80751
-3.72532
-3.24828
-3.70555
-1.3847
3.15297
-0.569874
-4.30854
-5.59466
4.16969
0.273397
-7.0829
7.9335
-0.850599
-3.99952
-0.835332
4.94963
-6.09836
0.468068
-4.04717
3.88633
4.8532
5.1266
-11.319
-0.231357
-6.14982
1.09186
-7.24168
5.54036
-3.50692
7.63967
-10.3289
6.87584
-9.19707
6.48547
-0.756204
6.24516
-4.13753
2.78036
-8.48024
-6.95056
5.5943
-2.83724
6.30809
-3.22414
9.53223
-5.93758
5.37815
4.15408
-1.05956
-4.18261
-5.37401
4.31445
0.00414348
4.17534
4.98726
-2.87957
4.65456
2.26514
-4.65564
-2.13044
-6.48854
1.83291
-3.33408
-1.92254
3.75545
3.16291
3.75398
1.23209
-3.34938
7.25584
-8.22124
-1.91499
-3.283
5.36035
-1.0459
3.47539
-6.7584
-1.86093
4.73728
-0.721278
-4.01601
0.895241
-4.43408
1.67312
-6.1072
5.26627
-5.66825
2.25481
-9.74714
-5.21759
-5.18969
-2.27823
-5.25186
-7.56667
5.28844
-1.79315
5.55413
-8.50117
7.7799
-3.46998
8.75843
-5.45602
-1.05348
5.88475
1.30532
10.0637
0.168289
-4.67933
-1.94239
3.71951
-1.77712
1.14184
-3.60699
0.112511
2.49653
3.50087
-6.83735
0.0366127
-4.64271
-3.90662
7.9447
5.60828
11.6019
1.2441
9.12905
-1.18436
10.3731
4.18082
4.41741
-3.00118
4.4485
0.954256
4.63753
-0.896449
2.81361
1.62131
1.6916
0.752291
2.29605
1.30536
3.12502
0.0865267
-1.9736
4.62988
-8.60623
-0.982571
-8.05895
1.17194
5.43169
-4.25975
2.85316
-0.665359
1.07604
-0.202543
-1.13529
1.33784
-2.73796
-1.91623
-0.499679
-1.66827
2.3592
1.90021
-1.85952
-0.878438
0.326791
-3.9728
3.27705
-3.11626
-0.57396
6.1678
-2.88799
0.200572
-1.212
-2.41721
-2.89769
2.71575
6.17434
0.296419
3.11306
5.20124
3.10058
0.221016
3.80007
-5.68287
-3.72516
-5.91423
-0.373867
4.57576
1.76978
8.03197
5.92386
4.87796
-1.88044
-10.1017
6.50185
-2.05336
5.15996
-1.14395
-4.96325
5.07824
2.33505
-5.71227
0.044021
-4.91923
-6.97258
-0.477289
8.25719
-9.58646
8.53298
5.67426
1.39151
-4.43094
-0.758744
4.28468
0.132732
10.5059
-0.915278
-7.03541
7.95069
-4.51642
3.53384
0.673012
2.60218
2.01085
1.34549
-5.68992
-9.94967
-2.07322
-1.55336
-4.44035
0.531596
-2.4318
6.06501
-2.53117
3.80426
5.41952
6.49556
-2.04754
-4.12621
6.28612
-2.48186
4.01369
)
;

boundaryField
{
    wall-4
    {
        type            calculated;
        value           uniform 0;
    }
    velocity-inlet-5
    {
        type            calculated;
        value           uniform -3.75095;
    }
    velocity-inlet-6
    {
        type            calculated;
        value           uniform -5.62643;
    }
    pressure-outlet-7
    {
        type            calculated;
        value           nonuniform List<scalar> 8(3.32713 7.75332 4.42277 9.66762 7.43972 5.15885 5.78813 8.95581);
    }
    wall-8
    {
        type            calculated;
        value           uniform 0;
    }
    frontAndBackPlanes
    {
        type            empty;
        value           nonuniform 0();
    }
}


// ************************************************************************* //
