/*--------------------------------*- C++ -*----------------------------------*\
  =========                 |
  \\      /  F ield         | OpenFOAM: The Open Source CFD Toolbox
   \\    /   O peration     | Website:  https://openfoam.org
    \\  /    A nd           | Version:  6
     \\/     M anipulation  |
\*---------------------------------------------------------------------------*/
FoamFile
{
    version     2.0;
    format      ascii;
    class       volVectorField;
    location    "84";
    object      U;
}
// * * * * * * * * * * * * * * * * * * * * * * * * * * * * * * * * * * * * * //

dimensions      [0 1 -1 0 0 0 0];

internalField   nonuniform List<vector> 
918
(
(0.985049 -0.000715929 0)
(0.00539465 2.96621 0)
(-0.00410849 0.878373 0)
(0.979575 0.00196154 0)
(-0.0141891 2.06307 3.31986e-20)
(-0.00713403 2.94858 -2.54563e-18)
(0.821405 1.12291 4.49957e-19)
(0.11186 0.0811782 -1.39581e-20)
(0.999922 -0.000245062 0)
(0.0913367 0.667408 0)
(0.0160267 0.359119 0)
(0.73296 0.00562152 0)
(0.0101582 2.9318 0)
(0.00342978 2.79434 0)
(-0.00257514 3.17708 8.3116e-19)
(-0.0137013 1.9292 2.42576e-20)
(0.29557 0.0452941 9.77445e-19)
(0.234138 1.10932 3.55023e-19)
(0.964323 0.00674242 0)
(-0.00450269 0.360233 0)
(0.05617 -0.0639737 -6.37474e-19)
(1.00183 -0.00455921 0)
(0.99985 -0.00892554 0)
(0.975169 -0.00605149 0)
(0.594061 0.0271609 0)
(0.0206674 2.6449 0)
(-0.0121928 2.91178 9.29547e-19)
(-0.00788345 0.929302 0)
(-0.0348776 1.1715 0)
(-0.00570576 0.898611 0)
(-0.0240203 2.58561 0)
(-0.00508337 2.11379 -2.65165e-20)
(-0.0101364 1.90052 0)
(-0.0220667 2.98763 -9.16745e-23)
(-0.0164464 3.00547 1.97699e-18)
(0.00230414 3.00053 0)
(0.871995 -0.00976332 0)
(0.373719 0.911671 1.62195e-19)
(0.820121 1.14188 -5.64844e-19)
(0.952203 1.00885 5.75008e-19)
(0.68254 1.22477 -1.02926e-19)
(0.696087 1.18435 5.86501e-19)
(0.139553 0.129132 1.3615e-20)
(0.148721 0.0873864 0)
(1.16912 0.53333 0)
(0.106554 0.107388 6.1278e-20)
(0.085458 0.0635319 -6.3597e-20)
(0.920572 -0.00704707 0)
(1.00027 5.41591e-05 0)
(0.999907 0.000321111 0)
(1.0037 -0.00727942 0)
(1.00088 -0.000948465 0)
(1.00011 -5.14166e-06 0)
(0.0796184 1.83677 -7.63405e-19)
(0.0333968 0.849898 0)
(0.12774 0.758889 0)
(0.0185331 0.79248 0)
(0.0539386 0.583027 0)
(0.00492335 2.03435 0)
(-0.0103603 0.691801 0)
(0.0117215 0.395413 0)
(-0.013829 0.687765 0)
(0.00652674 0.356402 0)
(0.843816 -0.0156201 0)
(0.841179 0.027395 0)
(0.757419 0.00364079 0)
(0.799445 0.0288124 0)
(0.701293 0.019406 0)
(0.0138604 3.00026 9.44502e-19)
(0.0110386 3.00621 0)
(0.00606998 3.00374 0)
(0.0118497 2.99727 1.07148e-23)
(0.00815214 2.95883 -1.40376e-18)
(0.0122161 2.983 0)
(0.00915106 2.90488 0)
(0.0210721 2.9315 2.1668e-24)
(0.0038602 2.82429 0)
(0.0260488 2.91874 0)
(-0.000685843 2.7451 0)
(0.304638 3.57071 0)
(-0.122131 3.65338 0)
(0.148502 3.26764 -7.73535e-19)
(0.0028022 3.00605 0)
(-0.0326669 1.99084 0)
(-0.00752784 2.17909 -2.39247e-20)
(-0.00952634 1.94158 2.46281e-20)
(0.34589 0.139049 -3.39397e-19)
(0.321645 0.014897 -3.30027e-19)
(0.301742 0.152919 -1.01482e-18)
(0.262139 0.0648889 -6.58572e-19)
(0.264811 1.02513 0)
(0.333803 1.24079 -3.67623e-19)
(0.41546 1.15194 6.06745e-19)
(0.987699 0.00817161 0)
(0.943211 0.00576683 0)
(1.00028 0.000672297 0)
(1.00254 0.00906669 0)
(1.0031 0.00899838 -2.60968e-18)
(0.992135 0.00941349 1.97199e-18)
(-0.0280044 0.712761 0)
(-0.00203663 0.360429 0)
(-0.0561698 1.01516 0)
(-0.0356381 0.774982 0)
(-0.0139411 0.3683 0)
(-0.0812602 0.0772248 1.98258e-19)
(0.0325807 0.0456818 0)
(0.993627 -0.00769123 0)
(0.954056 -0.00648465 0)
(0.742421 0.0248685 0)
(0.67398 0.0239967 0)
(0.659512 0.0268343 0)
(0.980714 -0.00253803 0)
(0.584822 0.0679631 0)
(0.452482 -0.0124846 1.48752e-18)
(-0.0411017 2.8602 7.22931e-19)
(0.0339281 2.91429 0)
(0.0427366 2.89267 0)
(0.00322077 2.70241 0)
(-0.00882694 2.98667 8.88264e-19)
(-0.0139947 2.89435 0)
(-0.0109186 2.99193 -2.73749e-18)
(-0.0115726 2.92958 9.32027e-19)
(-0.0506155 1.35004 0)
(-0.0191528 1.37909 0)
(-0.00805183 2.1404 8.59465e-22)
(-0.00794861 2.09896 0)
(-0.0172487 1.91242 0)
(0.938937 -0.00518681 0)
(0.857365 -0.011155 0)
(0.862943 0.00513158 0)
(0.949712 -0.00613172 0)
(0.88372 -0.00809997 0)
(0.496923 1.11136 -2.06044e-19)
(0.544317 1.18122 0)
(0.335815 0.846285 3.15547e-20)
(0.280645 0.71101 0)
(0.921587 1.03789 -1.62681e-19)
(1.04475 0.84862 3.28299e-19)
(0.393984 1.31971 0)
(0.544793 1.27545 0)
(0.599035 1.20159 0)
(0.104518 0.181521 -2.96802e-19)
(0.168337 0.141475 0)
(0.171842 0.102789 1.82951e-19)
(1.00778 0.902489 0)
(1.08371 0.750581 0)
(1.11343 0.685818 -2.64562e-19)
(1.14974 0.596497 0)
(1.20585 0.391634 4.75159e-20)
(0.957536 -0.00709091 0)
(0.962751 -0.00810513 0)
(0.900946 -0.0073769 0)
(0.983935 -0.00812 0)
(0.974441 -0.00802778 0)
(0.936558 -0.00656838 0)
(1.0002 0.00250658 0)
(1.00078 0.00123932 0)
(1 0.000760306 0)
(0.0394032 2.08631 4.20632e-19)
(0.14406 1.78486 0)
(0.0209767 2.19309 6.47439e-19)
(0.0577822 1.89653 -5.24082e-19)
(0.167829 1.08461 -2.91346e-19)
(0.0503713 0.935689 0)
(0.122646 0.939584 0)
(0.00646647 0.755017 0)
(0.0297374 0.508642 0)
(-0.00289536 2.26061 -2.87273e-22)
(0.0210008 2.04025 0)
(-0.00468763 2.2606 -3.44482e-21)
(0.00306833 2.04547 -5.65836e-21)
(-0.000525694 0.723667 0)
(-0.00507871 0.703891 0)
(0.0141771 0.446822 0)
(-0.0185089 0.689444 0)
(0.0101197 0.351827 0)
(0.939634 0.0139129 0)
(0.856653 -0.0115368 0)
(0.928767 0.00491432 0)
(0.846389 -0.0127858 0)
(0.809839 -0.000239754 0)
(0.898843 0.0210545 0)
(0.874911 0.0235731 0)
(0.78297 0.00086279 0)
(0.0100502 3.06812 -8.76375e-21)
(0.0152278 3.05852 0)
(0.0123959 2.97018 0)
(0.007659 2.87679 0)
(0.893628 3.96319 0)
(1.18712 3.35981 9.35308e-19)
(0.0804856 3.08876 0)
(-0.0178995 2.91702 0)
(-0.0192425 1.40636 0)
(-0.0381933 1.70123 0)
(-0.0271099 1.53768 0)
(-0.0345287 2.54692 -1.52834e-20)
(-0.0204391 2.24536 0)
(-0.024487 2.38822 0)
(-0.000674094 1.97191 -5.78213e-23)
(-0.0052801 2.25406 -3.13784e-20)
(-0.00641742 2.21706 -2.52631e-20)
(-0.00575861 1.95554 0)
(0.389873 0.117566 5.20383e-19)
(0.363336 0.00737182 -5.10643e-19)
(0.232128 1.59108 0)
(0.288753 0.769922 -3.21166e-19)
(0.177755 1.68856 -1.05509e-18)
(0.244989 1.2306 1.05603e-18)
(0.901605 0.005902 0)
(0.966996 0.010721 0)
(0.974857 0.00988975 0)
(0.922945 0.00583782 0)
(-0.0191767 0.693141 0)
(-0.0256724 0.702601 0)
(0.0045919 0.347459 0)
(0.0764337 0.0904295 5.61625e-19)
(0.0583684 0.0660645 -6.58331e-19)
(0.0449105 0.0470798 0)
(1.1085 0.0910126 2.34312e-20)
(1.09214 0.0429279 0)
(1.01958 0.0439442 0)
(0.91451 -0.00124847 0)
(0.437758 0.0971882 0)
(0.494693 0.0783169 -2.37908e-18)
(0.398814 0.00276096 8.91297e-19)
(0.0103313 2.97718 7.69579e-19)
(-0.0330266 2.8612 4.61157e-20)
(0.00858408 3.05341 -1.85196e-20)
(0.015963 3.04317 6.94239e-19)
(-0.0117824 3.00002 3.06878e-20)
(-0.0123627 2.95221 -1.23864e-22)
(-0.0150314 3.01321 -5.74031e-19)
(0.0146605 3.02633 4.04808e-19)
(0.00774373 3.03505 -6.57437e-19)
(0.934818 0.00217141 0)
(0.939586 -0.00109339 0)
(0.848267 -0.0111903 0)
(0.956249 0.011822 0)
(0.942273 0.0133253 0)
(0.88148 0.0055096 0)
(0.915421 0.0184617 0)
(0.924961 0.0154328 0)
(0.837028 0.00174276 0)
(0.669555 1.40935 1.91517e-20)
(0.687542 1.51973 0)
(0.11773 0.288337 6.68214e-20)
(0.214351 0.653959 5.27785e-19)
(0.239896 0.691112 -3.09836e-19)
(0.213028 0.490908 6.15171e-19)
(0.341587 0.834323 1.57139e-18)
(0.13634 0.237887 3.77686e-19)
(0.256589 0.165885 6.98377e-19)
(0.20945 0.161408 1.80256e-19)
(0.2179 0.0896325 3.43071e-19)
(1.19673 0.448329 1.0094e-19)
(1.22118 0.246744 9.85992e-20)
(0.0106149 2.25038 2.37224e-19)
(0.0392614 1.96076 0)
(0.973375 0.0332088 0)
(0.94706 0.0193339 0)
(0.871631 -0.0150593 0)
(0.0128183 3.07364 0)
(0.0167257 2.94388 1.22307e-18)
(0.0138544 2.95664 0)
(0.00575574 2.85009 -1.21374e-18)
(0.00985839 3.08959 2.98588e-19)
(0.0108521 3.08427 0)
(0.706798 1.81518 -1.70804e-19)
(1.23135 2.6195 5.77492e-19)
(0.691475 1.99313 -1.39296e-18)
(0.0218769 2.97596 -6.67106e-19)
(0.0399649 2.99743 0)
(-0.0386606 2.87799 0)
(-0.00612558 2.2393 -1.30302e-20)
(-0.00492004 2.2597 6.1336e-20)
(-8.45174e-05 2.00745 -7.36197e-21)
(0.268381 1.40441 1.01984e-18)
(0.288504 0.574614 -7.00377e-19)
(0.0677302 2.00121 7.41797e-19)
(0.119145 1.87317 -8.97836e-19)
(0.210862 1.54133 1.04743e-19)
(0.00634978 3.12018 -1.65758e-18)
(0.0134325 3.12065 1.82679e-18)
(-0.00525733 2.98046 8.30478e-19)
(-0.00140204 2.97496 -7.94777e-19)
(-0.0176956 2.87711 -8.45878e-19)
(0.0117438 3.10064 -2.2164e-18)
(0.00540641 3.10561 2.25124e-18)
(0.268971 0.699807 0)
(0.219868 0.659635 -1.12778e-18)
(0.0748432 0.211692 4.96382e-19)
(0.347605 0.954918 1.11661e-18)
(0.200932 0.282774 -1.71969e-18)
(1.19971 0.17677 4.54015e-20)
(1.21793 0.306309 0)
(1.19516 0.121784 1.21184e-20)
(-0.000811048 2.26805 -1.11164e-21)
(0.00371429 2.25137 0)
(0.0325209 1.9964 0)
(0.313408 1.31927 -3.65986e-19)
(0.354521 1.18128 -7.94813e-19)
(0.234372 0.394421 1.42216e-18)
(1.00644 -0.00967822 0)
(1.00774 -0.00778072 4.79616e-19)
(-0.0447037 1.33245 0)
(-0.0544441 1.33715 0)
(1.00244 0.00327084 1.33669e-21)
(1.0032 0.00780801 9.84714e-19)
(-0.0256842 2.53385 1.93675e-20)
(-0.0284774 2.5763 0)
(0.0400449 3.17215 4.70107e-19)
(0.372574 3.5378 0)
(1.16007 0.695151 -4.76295e-20)
(1.01177 0.0106363 -2.85225e-21)
(1.02089 -0.00898602 0)
(1.00157 0.000291047 1.57928e-22)
(0.117989 1.37673 0)
(0.1533 2.58888 0)
(0.0346072 1.32635 0)
(-0.00010712 2.63369 -1.10301e-20)
(-0.0220055 2.58067 -1.44948e-20)
(0.997892 0.0316712 2.61954e-21)
(1.06307 0.00592595 0)
(1.10027 0.0286489 0)
(-0.0364527 1.74849 0)
(-0.0202655 2.5789 0)
(-0.0167947 1.32583 0)
(0.309209 1.49142 -1.74705e-19)
(1.01152 -0.00904933 0)
(1.00971 -0.0129829 0)
(1.00227 0.000936688 6.14183e-19)
(1.00548 -0.00490836 -7.24112e-19)
(1.00113 -0.000860911 0)
(-0.0256777 1.47278 0)
(-0.0146537 1.39535 0)
(-0.0205929 1.43467 0)
(-0.0197562 1.3114 0)
(-0.0346927 1.30097 0)
(-0.0283064 1.28054 0)
(1.03571 -0.00428135 0)
(1.01887 0.0154288 -9.72076e-22)
(0.81351 1.31361 2.85471e-19)
(1.00245 0.000392716 -6.139e-19)
(1.00339 0.00444501 7.32793e-19)
(1.00126 0.0020919 0)
(1.01106 0.00963063 6.1143e-19)
(1.00682 0.00744929 -7.44281e-19)
(1.00711 0.0111067 0)
(-0.0252401 2.60582 0)
(-0.0285705 2.58462 -3.41197e-20)
(-0.0253347 2.59888 2.4081e-20)
(1.243 0.274256 5.0971e-19)
(1.16386 0.0893022 0)
(0.0435307 3.09144 -9.4269e-19)
(0.0519007 2.87402 -6.6851e-20)
(0.102989 3.20172 1.26089e-18)
(0.121284 3.21363 -2.66154e-19)
(0.14045 3.25594 0)
(0.0224333 3.13767 2.58974e-19)
(0.0607591 3.16197 9.39038e-19)
(0.0611795 3.17869 -4.84501e-19)
(0.0267277 3.12948 0)
(0.545033 0.288973 0)
(0.490471 0.304833 0)
(1.14288 0.726986 1.03921e-19)
(1.10726 0.86257 -8.36672e-20)
(1.19997 0.612676 0)
(1.22666 0.54642 0)
(1.01569 0.0120332 -1.13571e-18)
(1.01464 0.0127773 1.42791e-18)
(1.02578 -0.00871086 0)
(1.02411 -0.0102814 0)
(1.0068 0.00326985 0)
(1.01088 0.00422224 0)
(1.0042 0.00222104 0)
(1.00933 0.00634458 0)
(1.00682 0.00504142 0)
(1.00437 0.00525744 0)
(0.10926 1.3763 0)
(0.0951134 1.33335 0)
(0.138769 1.42069 0)
(0.147254 1.4047 0)
(0.151451 2.60911 0)
(0.186816 2.67495 -4.01788e-19)
(0.0934689 2.65901 0)
(0.0819292 2.65276 1.69311e-19)
(0.0250324 2.67298 -1.58422e-19)
(0.0210268 1.33509 0)
(0.0297747 1.25313 0)
(0.0221247 1.34781 0)
(0.0488674 1.27316 0)
(-0.00167246 1.99642 4.30118e-20)
(-0.0216824 2.60892 -4.49017e-20)
(-0.0056507 2.67587 -3.92866e-20)
(-0.0187047 2.68762 0)
(-0.0242803 2.61492 4.31607e-20)
(-0.0229243 2.6104 4.63986e-20)
(0.00496486 1.99308 -3.30316e-20)
(-0.0103654 2.40077 6.02371e-20)
(-0.0146 2.42564 4.45353e-20)
(1.01152 0.0405067 1.15261e-18)
(1.00449 0.0209598 -1.43357e-18)
(1.00363 0.047483 -1.17602e-18)
(0.975674 0.0378348 1.48056e-18)
(1.06474 0.00926562 0)
(1.04997 -0.0064206 0)
(1.09279 0.0378887 0)
(1.07592 0.0150983 0)
(1.07469 0.000555054 0)
(1.14151 0.0799804 0)
(1.11589 0.0465172 0)
(1.11924 0.037587 0)
(-0.0315605 2.43041 3.99559e-21)
(-0.0228456 2.02461 0)
(-0.0230781 2.22018 0)
(-0.0223076 2.59978 -2.19183e-20)
(-0.0187866 2.61095 7.09816e-22)
(-0.0043765 1.59478 -5.99389e-20)
(-0.0144359 1.51686 6.12499e-20)
(-0.0252646 1.40878 0)
(-0.0295656 1.41448 0)
(-0.0362794 1.40472 0)
(-0.0111793 1.3284 0)
(0.00302674 1.24564 0)
(0.38665 1.51608 2.92472e-19)
(0.434938 1.52034 1.5506e-19)
(0.5922 2.46391 -2.46844e-19)
(0.385386 2.5531 7.1139e-19)
(0.349887 2.04822 6.72618e-20)
(1.02072 -0.00798752 0)
(1.0158 -0.00934732 0)
(1.01486 -0.0132068 0)
(1.00774 -0.000546644 0)
(1.00484 -0.000684679 0)
(1.008 -0.0044639 0)
(1.00955 -0.00342827 0)
(1.01465 -0.00426806 0)
(1.0196 0.0163995 1.11455e-18)
(1.01715 0.0149259 -1.41275e-18)
(1.02003 0.0188725 -1.12367e-18)
(1.01731 0.0171875 1.40758e-18)
(0.769916 1.36023 0)
(0.708585 1.39623 2.50784e-19)
(0.877919 1.24167 1.06392e-19)
(0.914459 1.20114 -1.41203e-19)
(1.16294 2.60862 2.6381e-19)
(0.752408 0.125476 5.79887e-19)
(1.17228 0.10854 0)
(1.21502 0.202799 -4.13879e-19)
(1.19647 0.154574 -1.72265e-20)
(1.01298 0.167178 0)
(0.0753505 3.01826 3.34009e-19)
(0.0815391 2.90316 -1.10716e-18)
(0.0228102 2.36117 7.01353e-19)
(0.158853 -0.270982 -3.07891e-19)
(0.340802 3.442 -2.55425e-19)
(0.192087 3.338 0)
(0.222595 3.39348 3.32722e-19)
(0.220235 3.07578 -1.17216e-18)
(0.252739 3.19394 0)
(0.00645054 3.12245 4.90571e-20)
(0.0169731 3.13117 -5.6573e-19)
(0.015899 3.12694 8.32651e-19)
(0.0328922 3.14006 0)
(0.0309215 3.14958 0)
(1.25506 2.57166 0)
(0.541093 0.788635 -5.1748e-19)
(1.02746 1.0364 -1.7597e-20)
(0.993854 1.08947 0)
(0.862907 0.971166 -1.03612e-19)
(1.08661 0.912087 2.6574e-20)
(0.300419 0.305504 -7.66777e-19)
(0.635748 0.322812 -2.28578e-20)
(0.518245 0.214278 3.88608e-19)
(0.525269 0.321205 2.76964e-20)
(0.391763 0.26931 -1.10651e-18)
(0.590826 0.321926 0)
(0.681018 0.436386 6.67848e-19)
(0.692161 0.449688 0)
(0.554611 0.324885 0)
(0.455073 0.247933 0)
(0.801069 0.659483 3.85907e-19)
(1.25449 0.308286 -4.14175e-19)
(1.24784 0.440713 0)
(1.24796 0.395831 0)
(0.678758 0.189773 5.93038e-19)
(0.847619 0.561369 -3.6491e-19)
(0.768631 0.524534 6.51532e-19)
(0.965842 0.457861 -6.52924e-19)
(1.01841 0.0147596 7.5732e-19)
(1.01706 0.0136716 -7.63407e-19)
(1.01589 0.014234 0)
(1.0371 -0.00450228 0)
(1.03049 -0.00768075 -7.15258e-19)
(1.0287 -0.0105678 7.07824e-19)
(1.02475 0.0110583 0)
(1.02269 0.0151748 0)
(1.01271 0.0047551 0)
(1.01457 0.00910549 0)
(1.01643 0.0042695 0)
(1.01557 0.00294835 0)
(0.0786124 1.36236 0)
(0.081587 1.30521 0)
(0.151881 1.42164 5.00407e-20)
(0.277403 1.48752 8.48839e-20)
(0.175881 1.45869 1.90602e-19)
(0.212504 1.45696 -3.08427e-19)
(0.164659 1.43412 0)
(0.143352 1.58701 -8.20396e-20)
(0.140941 1.58263 0)
(0.348504 2.00153 -9.79203e-20)
(0.318686 2.3389 5.50638e-19)
(0.200057 1.46666 7.14902e-20)
(0.276214 1.4027 2.57293e-20)
(0.209466 1.40127 -2.09859e-20)
(0.290748 1.34115 -8.22037e-20)
(0.259959 1.57751 0)
(0.266949 1.62495 9.20325e-20)
(0.0212792 2.24852 -1.36198e-20)
(0.0365513 2.66817 0)
(0.0562708 2.39924 9.42198e-20)
(0.0517416 2.425 0)
(0.060884 2.68076 -2.03144e-19)
(0.0408861 2.70337 0)
(0.0268402 1.46268 6.41687e-20)
(0.0327111 1.51874 0)
(0.0343042 1.42366 0)
(0.0269163 1.43266 -7.31236e-20)
(0.0032979 2.66046 6.30504e-21)
(0.0250107 2.68747 1.8237e-19)
(0.0101307 2.73174 8.86237e-22)
(0.00279483 1.84926 -2.79537e-20)
(-0.00465324 1.70172 -1.93303e-20)
(0.0162336 1.3157 0)
(0.0259815 1.22896 0)
(0.0396752 1.59323 -9.04908e-21)
(0.0422007 1.47454 -5.80248e-20)
(0.0266313 1.55557 6.07054e-20)
(0.0517593 1.61669 0)
(-0.0320627 2.27074 1.32497e-19)
(-0.0353708 2.54784 -5.61526e-20)
(-0.0211638 2.44849 1.01818e-20)
(-0.00561462 1.86505 3.3879e-20)
(-0.0288741 2.50355 1.4453e-20)
(-0.0232095 2.44589 -3.77042e-20)
(1.01831 0.0223662 -7.63458e-19)
(1.01492 0.0288664 7.66818e-19)
(1.01194 0.0182639 0)
(1.01029 0.0709169 1.06064e-18)
(0.990489 0.0615158 -1.20341e-18)
(0.950058 0.0570036 1.3464e-18)
(1.01323 0.116033 -1.42796e-19)
(1.04404 -0.00463835 0)
(1.05227 -0.000370046 6.85002e-19)
(1.04035 -0.00815126 -6.84588e-19)
(1.0724 0.0438256 -4.05878e-20)
(1.06508 0.029138 3.50698e-19)
(1.06423 0.0658867 0)
(1.05441 0.0551 -1.26356e-19)
(1.03229 0.0440535 0)
(1.02604 0.039278 0)
(1.02764 0.0137173 0)
(1.02407 0.0163516 0)
(1.04038 0.0337874 2.5972e-19)
(1.03939 0.0286093 -5.74978e-19)
(1.05332 0.0389564 -2.74681e-19)
(1.04826 0.0388508 -3.03177e-19)
(1.07791 0.0706635 5.79383e-19)
(1.10195 0.056713 0)
(1.10864 0.095418 0)
(-0.0299888 2.27684 7.6295e-20)
(-0.032708 2.02972 4.21631e-21)
(-0.0278031 2.03994 0)
(-0.0312722 2.44401 -7.5953e-20)
(-0.0292644 2.40253 -8.04674e-21)
(-0.0357823 2.47046 1.00007e-20)
(-0.0219788 2.62224 -3.96241e-20)
(-0.0275528 2.5643 2.20837e-21)
(-0.026008 2.51832 -1.32524e-20)
(-0.0177218 2.61489 2.50796e-20)
(-0.0217056 2.61738 -2.91272e-20)
(-0.0134348 1.52099 -1.05856e-21)
(-0.0078624 1.64199 -6.20998e-20)
(0.377919 1.45225 -1.25698e-19)
(0.373041 1.38285 1.29504e-20)
(0.649813 1.44387 -2.42639e-19)
(0.525251 1.51325 -1.507e-19)
(0.579251 1.47235 0)
(0.607263 2.42084 2.15186e-19)
(0.666544 2.43074 3.36155e-19)
(0.415556 2.5149 9.4899e-20)
(0.400666 2.53911 -5.79535e-19)
(0.501836 2.47758 5.54802e-19)
(0.552625 2.47472 0)
(0.484471 2.52521 -5.48239e-19)
(0.253456 2.59474 1.10287e-18)
(0.365565 2.56425 -7.0088e-20)
(0.280601 2.6569 -1.56587e-18)
(0.971053 2.38746 7.08372e-19)
(0.848554 2.38843 0)
(1.01143 0.00140041 2.49007e-20)
(1.01538 -0.00515657 -2.03431e-20)
(1.01778 -0.00388974 -3.71841e-19)
(1.01564 -0.0010181 3.70552e-19)
(1.01313 0.00185571 0)
(0.638299 1.30544 0)
(0.682865 1.19095 0)
(0.797982 1.12173 0)
(0.670438 1.1479 0)
(1.19394 2.62405 5.16298e-20)
(1.08654 2.37582 0)
(0.816476 2.16399 3.50086e-21)
(0.821132 2.42775 0)
(0.915846 2.51836 -4.28825e-19)
(0.94724 2.46771 2.86308e-19)
(0.783305 0.168828 0)
(0.724996 0.148103 1.56983e-19)
(0.900234 0.158008 9.19923e-19)
(0.814608 0.144281 -3.44163e-19)
(0.756482 0.0929785 -1.05754e-18)
(1.0879 0.247743 -8.32427e-19)
(0.98528 0.31892 -1.03211e-20)
(0.92762 0.35249 8.05626e-19)
(1.0139 0.259296 6.86324e-19)
(0.930236 0.207236 -1.21118e-18)
(0.887859 0.22137 1.51991e-19)
(0.927318 0.317138 -3.15372e-19)
(0.903986 0.225703 0)
(1.00092 0.210402 5.92584e-19)
(1.05503 0.219025 0)
(1.05232 0.231134 0)
(1.12596 0.125619 2.64649e-19)
(1.06503 0.195573 -1.06011e-20)
(1.07955 0.249399 -1.51622e-19)
(1.11311 0.212663 0)
(1.02274 0.0488925 5.86713e-19)
(1.03678 0.0628314 7.32282e-19)
(1.03263 0.0462987 -5.82634e-19)
(1.04137 0.0693137 -4.91083e-19)
(1.01472 0.0757921 -7.49676e-19)
(0.985225 0.170046 0)
(0.987505 0.108105 0)
(0.961193 0.0755884 -4.79308e-19)
(0.901136 0.0988479 1.88872e-19)
(1.03924 0.117251 6.7935e-19)
(1.07611 0.137682 -7.75073e-19)
(1.07022 0.181864 6.97077e-19)
(1.03527 0.158069 0)
(1.08634 0.123795 0)
(1.05699 0.113016 -3.18026e-19)
(1.0425 0.109501 -5.51903e-19)
(0.58801 1.08048 1.16432e-19)
(0.609308 1.39719 -1.82551e-20)
(1.14395 2.71527 -2.43628e-19)
(1.19622 3.09976 2.29935e-21)
(1.25167 2.72451 -1.15374e-19)
(1.29079 2.69481 1.64634e-20)
(1.26575 2.31783 -3.83411e-20)
(1.18377 3.005 -7.13879e-20)
(1.20353 2.96196 2.19662e-19)
(1.17765 3.25282 -1.22735e-19)
(1.39484 2.96633 1.53854e-19)
(1.40606 2.90112 0)
(0.577758 0.814058 -4.75517e-20)
(0.199883 1.2104 4.63958e-19)
(0.529201 0.324847 4.97498e-19)
(0.41364 0.0911799 5.6552e-19)
(0.45384 0.296565 6.26594e-19)
(0.545408 0.416029 -1.01965e-18)
(0.556632 0.397036 8.38567e-19)
(0.457737 0.292741 -3.09151e-19)
(0.294558 0.234648 7.08038e-19)
(0.710502 0.262406 -3.42165e-19)
(0.66223 0.289477 0)
(0.590908 0.19788 7.03183e-21)
(0.73321 0.516427 3.52514e-19)
(0.703533 0.49065 -1.27916e-18)
(0.632663 0.439882 1.29678e-20)
(0.617351 0.418921 0)
(0.724407 0.720534 3.66082e-19)
(0.8396 0.802636 4.02797e-19)
(0.778409 0.85306 -4.69583e-19)
(0.908382 0.823705 -1.4864e-19)
(0.942873 0.866645 -3.42081e-20)
(0.950405 0.87408 3.50815e-20)
(0.884324 0.681707 -6.56894e-19)
(0.957708 0.728302 1.38188e-19)
(1.01292 0.731633 0)
(1.01168 0.707165 -1.76155e-19)
(1.03025 0.343931 2.06695e-19)
(1.15926 0.342852 2.49813e-19)
(1.07518 0.284641 3.40292e-19)
(1.00073 0.390875 -4.14556e-19)
(1.05835 0.490977 0)
(1.13969 0.431489 0)
(0.898088 0.428558 -9.56802e-22)
(0.846681 0.321938 0)
(0.893223 0.310717 3.83748e-19)
(0.912453 0.350219 2.14435e-21)
(0.987964 0.502262 1.8234e-18)
(0.920782 0.560485 4.7049e-19)
(0.943322 0.519719 -4.96471e-19)
(0.861298 0.49713 5.29544e-19)
(0.825394 0.471253 3.38546e-19)
(0.802678 0.449463 -3.317e-19)
(1.02822 -0.000361035 6.14343e-19)
(1.02048 0.000618619 0)
(1.01911 0.00143019 4.00956e-19)
(1.02269 -0.00068347 -9.07598e-19)
(1.02257 0.00463442 4.42159e-19)
(1.02002 0.0116863 -9.25502e-19)
(1.02076 0.0115031 0)
(1.01968 0.0122628 -1.92737e-19)
(1.01659 0.00783572 4.83028e-19)
(1.01669 0.0109568 -2.42583e-19)
(1.01728 0.0106676 1.77564e-19)
(0.0373366 1.33664 0)
(0.0440391 1.39881 0)
(0.0561379 1.34113 0)
(0.062749 1.2763 0)
(0.0899405 1.406 -7.22484e-20)
(0.0930414 1.37951 1.95543e-20)
(0.0880719 1.57209 3.55425e-21)
(0.105274 1.41148 -3.58658e-20)
(0.0444677 1.48826 5.0051e-20)
(0.0499476 1.48237 -3.94127e-20)
(0.0783754 1.39894 -2.34777e-20)
(0.0638154 1.4007 7.4937e-20)
(0.0613107 1.38344 1.2396e-20)
(0.0472185 1.40204 8.54187e-21)
(0.0973883 2.35954 -1.03545e-19)
(0.0877779 2.41108 0)
(0.15247 2.01264 1.01249e-19)
(0.129809 1.69634 3.40437e-20)
(0.221682 2.00789 -8.37299e-20)
(0.188076 2.43556 0)
(0.237871 2.37916 -6.57849e-19)
(0.325479 2.3498 4.36134e-19)
(0.248079 1.97856 -2.16129e-19)
(0.138519 2.14077 1.516e-19)
(0.11674 2.25696 0)
(0.0150291 1.85022 -3.26864e-20)
(-0.005664 2.37073 -2.79473e-21)
(0.00406099 2.12808 0)
(0.0039419 2.43298 -1.73359e-20)
(0.0202152 2.26936 2.75265e-20)
(0.0123907 1.4407 -1.3085e-20)
(0.00806921 1.42072 2.1773e-19)
(0.00647006 1.43036 -7.06963e-20)
(0.0213348 1.43927 -6.1724e-20)
(0.0234783 1.46625 0)
(0.00359155 1.41416 0)
(-0.000104551 1.31323 -8.74797e-20)
(-0.00282804 1.40609 2.56627e-20)
(0.0047815 1.40426 0)
(0.0109633 1.3061 -6.7256e-20)
(0.0180131 1.21422 1.34103e-19)
(1.04246 0.0151204 0)
(1.04904 0.0105964 -6.40516e-20)
(1.0392 0.024697 -4.63107e-19)
(1.04963 0.0235252 0)
(1.05466 0.0227059 0)
(1.03635 0.013108 -6.73619e-21)
(1.03007 0.013583 7.47624e-19)
(1.03192 0.0175588 9.04736e-19)
(1.02568 0.0212121 0)
(1.02235 0.0217547 0)
(1.03556 0.026051 4.62281e-19)
(1.02599 0.0283042 0)
(1.02362 0.0282422 0)
(-0.0210358 2.03212 0)
(-0.0119768 1.66991 -2.66665e-21)
(-0.00967693 1.77305 -3.53311e-20)
(-0.00910093 1.41126 0)
(-0.0103604 1.57545 -3.67572e-20)
(-0.0183869 1.48787 2.20262e-20)
(-0.0162641 1.42746 0)
(0.40367 1.62057 0)
(0.367344 1.32117 -1.92948e-20)
(0.27566 1.3459 0)
(0.437445 1.3192 -4.96028e-20)
(0.473156 1.4782 0)
(0.458813 1.42004 4.59063e-20)
(1.04033 2.66748 -1.50373e-20)
(0.985391 2.40623 -8.89795e-19)
(0.947952 2.20763 9.95191e-19)
(0.865124 2.38042 2.40403e-19)
(0.852467 2.48424 0)
(0.921585 2.47877 0)
(0.954825 2.38039 0)
(0.93066 2.37152 -9.31783e-19)
(0.691233 2.44788 -3.71138e-19)
(0.800136 2.43189 -9.62476e-20)
(0.807371 2.40982 7.25352e-20)
(0.704032 2.40168 0)
(0.809383 2.39501 0)
(0.769836 2.41179 -3.64752e-19)
(0.76536 2.46287 0)
(0.633951 1.06904 0)
(0.514855 0.853068 -5.54926e-19)
(0.522301 0.927986 -3.23424e-20)
(0.501695 1.06716 0)
(0.488976 0.974144 8.48507e-19)
(0.805783 0.888453 -1.30246e-19)
(0.808915 1.02293 0)
(0.790091 1.00611 1.77726e-19)
(0.678612 1.02212 0)
(0.67059 0.925725 0)
(1.16247 2.75192 -2.1451e-19)
(1.13767 2.81031 -8.59013e-20)
(0.921809 2.33258 6.92349e-20)
(0.898652 2.31357 -7.40386e-20)
(1.13218 2.72964 0)
(1.08434 2.69738 8.89038e-20)
(1.09975 2.49231 -2.91903e-19)
(1.00156 2.25229 -2.80567e-20)
(0.49637 1.32592 0)
(0.516645 1.07524 -1.02544e-19)
(0.596451 1.18437 0)
(0.84868 0.233375 0)
(0.755306 0.179373 0)
(0.655767 0.141606 0)
(0.861134 0.231824 -6.05675e-19)
(0.741623 0.230554 3.56303e-19)
(0.908108 0.0907001 -3.81213e-19)
(0.927939 0.142632 0)
(0.90383 0.149699 1.71607e-19)
(0.838565 0.109938 6.86673e-19)
(0.792896 0.0781679 -4.32177e-19)
(1.09378 3.34343 -6.71532e-19)
(1.16234 3.26728 0)
(1.11171 3.42806 -1.57019e-18)
(0.654212 3.57448 1.30672e-18)
(1.02197 3.07429 1.224e-19)
(0.534219 0.774022 5.6363e-19)
(0.511907 0.740738 0)
(0.343712 0.327786 -1.41334e-19)
(0.495318 0.627052 8.42244e-19)
(0.566095 0.324923 -1.81985e-19)
(0.523864 0.452802 2.18857e-19)
(0.688909 0.529173 4.49894e-19)
(0.735694 0.566328 0)
(0.670793 0.562863 0)
(0.658052 0.534727 0)
(1.01929 0.616359 8.53533e-20)
(0.972921 0.598401 -4.5591e-19)
(0.983278 0.610695 3.47735e-19)
(1.04695 0.553692 -3.35802e-19)
(1.09277 0.522344 0)
(1.09552 0.604707 -8.79162e-20)
(0.886633 0.426058 -7.5606e-19)
(0.872852 0.410914 -9.76663e-19)
(0.800118 0.41639 5.95278e-19)
(0.815472 0.378744 -6.21391e-19)
(0.855459 0.335289 -4.88521e-19)
(0.800867 0.338226 5.97795e-19)
(1.02659 0.00675658 -4.62647e-19)
(1.02622 0.00687443 9.32167e-19)
(1.02998 0.000984931 5.95259e-19)
(1.03421 0.0016131 -7.1472e-19)
(1.03403 0.0120316 0)
(1.02972 0.0120988 -1.17082e-18)
(0.0844084 1.64759 1.01982e-20)
(0.0678784 1.60439 0)
(0.109485 1.70213 4.70459e-20)
(0.115364 1.67176 -4.17169e-20)
(0.0851295 1.5712 -6.53441e-21)
(0.0706642 1.57455 0)
(0.00753199 1.70663 0)
(-0.00784478 1.52534 1.95539e-20)
(-0.00651145 1.46853 -1.75795e-20)
(-0.0135023 1.57331 3.21499e-21)
(-0.00216713 1.89738 2.94699e-20)
(-0.0145023 1.95176 -1.16903e-20)
(0.493882 1.3585 -2.53366e-19)
(0.496653 1.35302 2.77251e-19)
(0.451521 1.31133 -5.72115e-21)
(0.428834 1.29043 7.19217e-21)
(0.631318 1.31242 0)
(0.557024 1.40686 1.21234e-19)
(0.558024 1.40979 -1.18048e-19)
(0.487817 1.2999 5.52041e-21)
(0.528291 1.25216 0)
(0.592746 1.21788 0)
(0.664947 2.41152 5.46434e-19)
(0.660429 2.44221 1.25723e-18)
(0.715773 2.45719 -8.64871e-19)
(0.614187 2.4294 -1.97783e-19)
(0.557435 2.52181 2.69322e-19)
(0.498227 2.48892 -6.93429e-19)
(0.99275 2.38509 -5.60705e-19)
(1.02413 2.40258 0)
(0.951275 2.191 -6.12173e-19)
(1.05533 2.67846 0)
(1.05418 2.65936 0)
(0.59743 2.28455 5.58681e-21)
(1.1166 3.06666 7.52559e-20)
(0.992999 2.96268 -1.22308e-19)
(0.315794 0.78047 0)
(0.311962 0.653612 -3.01164e-19)
(0.522447 0.592176 -3.03637e-19)
(0.359141 2.12584 0)
(0.400766 2.74367 -8.61804e-20)
(0.409904 2.47737 0)
(0.732351 0.688392 -7.79522e-19)
(0.798283 0.69797 1.08622e-18)
(0.801644 0.661789 -1.03009e-18)
(0.704301 0.644091 -9.87572e-20)
(0.760084 0.60436 -4.08588e-19)
(0.967702 2.74924 -5.69941e-20)
(1.01273 2.75715 -2.0597e-19)
(0.547494 2.19889 4.40651e-19)
(0.601174 1.73041 -3.48476e-19)
(0.700458 1.84917 -4.90268e-19)
(0.97511 2.39001 -1.37712e-19)
(0.975613 2.34298 3.61416e-19)
(0.642182 1.75667 3.31718e-20)
(0.448876 1.29155 1.72324e-19)
)
;

boundaryField
{
    wall-4
    {
        type            noSlip;
    }
    velocity-inlet-5
    {
        type            fixedValue;
        value           uniform (1 0 0);
    }
    velocity-inlet-6
    {
        type            fixedValue;
        value           uniform (0 3 0);
    }
    pressure-outlet-7
    {
        type            zeroGradient;
    }
    wall-8
    {
        type            noSlip;
    }
    frontAndBackPlanes
    {
        type            empty;
    }
}


// ************************************************************************* //
