/*--------------------------------*- C++ -*----------------------------------*\
  =========                 |
  \\      /  F ield         | OpenFOAM: The Open Source CFD Toolbox
   \\    /   O peration     | Website:  https://openfoam.org
    \\  /    A nd           | Version:  6
     \\/     M anipulation  |
\*---------------------------------------------------------------------------*/
FoamFile
{
    version     2.0;
    format      ascii;
    class       volScalarField;
    location    "79";
    object      p;
}
// * * * * * * * * * * * * * * * * * * * * * * * * * * * * * * * * * * * * * //

dimensions      [0 2 -2 0 0 0 0];

internalField   nonuniform List<scalar> 
918
(
0.531825
1.22603
0.0064584
0.531732
-0.0115835
1.19356
-0.50682
0.627044
0.512976
-0.124234
-0.0876322
0.515313
1.05106
0.817988
-1.17085
-0.0237023
0.626629
-0.419791
0.511027
-0.0813673
0.645456
0.519651
0.522116
0.512901
0.574825
0.771114
0.928476
-0.00302039
0.0109507
0.00581746
-0.013064
-0.0334837
-0.0301564
1.07669
1.1286
1.15181
0.479474
0.313054
-0.401907
-0.456827
-0.434042
-0.523334
0.627475
0.628657
-0.231916
0.626852
0.626558
0.49866
0.51237
0.513206
0.51433
0.513238
0.514517
0.386803
-0.130943
-0.157894
-0.109102
-0.108667
0.0253747
-0.0882266
-0.0896528
-0.0855071
-0.0834253
0.428506
0.509778
0.506566
0.519508
0.528226
1.16619
1.13995
1.16602
1.07652
1.09405
1.02799
1.00088
0.839197
0.862421
0.800956
0.787017
-1.62482
-2.5678
-0.595813
-0.321278
-0.0105254
-0.0251559
-0.0237828
0.62285
0.626046
0.624608
0.627986
1.03459
-0.391844
-0.464245
0.511565
0.510089
0.51917
0.520074
0.515038
0.515038
-0.0783866
-0.0779715
-0.0672796
-0.079119
-0.0780228
0.628396
0.62854
0.512337
0.509779
0.535895
0.558489
0.546687
0.245507
0.585619
0.601763
0.635304
0.781014
0.76779
0.780418
0.90408
0.871566
0.960393
0.982102
0.0140849
-0.00147112
-0.0249502
-0.0226142
-0.0232116
0.475212
0.468773
0.496882
0.483097
0.486141
0.21869
0.0690757
0.394989
0.418454
-0.326204
-0.376855
-0.461036
-0.459307
-0.566805
0.598893
0.629948
0.629699
-0.243314
-0.170683
-0.298817
-0.112979
-0.170472
0.489603
0.49586
0.491931
0.507328
0.501492
0.503918
0.516438
0.513622
0.515216
0.444849
0.57482
0.304764
0.276751
-0.279939
-0.175868
-0.260302
-0.101358
-0.0997049
0.0351398
0.064848
0.0123884
4.5862e-05
-0.094605
-0.0912758
-0.0937341
-0.0830242
-0.0832073
0.419952
0.406883
0.43975
0.447276
0.496321
0.497743
0.502502
0.500199
0.952334
0.975139
0.981093
0.957305
-3.54106
-6.165
0.0206953
0.178884
-0.00954807
-0.0108946
-6.71547e-05
-0.0101828
-0.000751414
-0.00279117
-0.0337732
-0.0334586
-0.0267232
-0.0278961
0.621878
0.622271
1.0007
1.02776
0.974199
0.948397
0.500922
0.502796
0.507418
0.504301
-0.0813579
-0.0794282
-0.0814422
0.625847
0.627097
0.626087
0.204003
0.114897
0.297402
0.328688
0.616614
0.606144
0.615539
0.695102
0.733716
0.998397
1.02249
1.0066
1.01908
1.06989
1.0928
1.05813
0.453759
0.4647
0.45896
0.499792
0.497588
0.498541
0.49516
0.496005
0.494705
-0.0418803
-0.412279
0.467778
0.468883
0.461083
0.463874
0.68565
0.76915
0.626452
0.628836
0.629308
-0.0611377
-0.108219
0.235532
0.206501
0.358875
0.393602
0.375343
0.927416
0.887317
0.935693
0.910888
0.875587
0.900302
-0.348114
-2.10629
-1.10387
0.576709
0.380849
0.47203
-0.0169253
-0.033555
-0.0301391
1.01766
1.0572
0.644139
0.837895
0.789566
0.756781
0.783384
0.845788
0.778484
0.813252
0.843945
0.820237
0.548467
0.478186
0.496361
0.84412
0.899383
0.0770429
-0.00243136
-0.0254355
0.0901548
0.164693
0.130396
1.03365
0.952007
1.01402
0.510019
0.510972
-0.0184674
-0.042374
0.515087
0.514798
-0.0226674
-0.0132758
0.487628
-0.937493
0.0779233
0.504632
0.494237
0.511089
-0.104528
0.317298
-0.089767
0.00402024
-0.0271495
0.504999
0.440844
0.398507
-0.00789343
-0.0329231
-0.0743936
-0.216519
0.507758
0.506116
0.510478
0.511295
0.512074
-0.0282766
-0.0277953
-0.0192417
-0.0677239
-0.0616493
-0.072037
0.474342
0.494535
-0.198174
0.510772
0.512876
0.51257
0.506797
0.511722
0.51036
-0.0243803
-0.02778
-0.0297502
0.183734
0.325666
0.670401
0.744757
0.619748
0.453607
0.16288
0.607672
0.659461
0.584908
0.715091
0.62684
0.624041
0.145012
0.00119938
0.149203
0.0822793
0.501456
0.500908
0.491756
0.48863
0.505925
0.5036
0.508799
0.506045
0.509218
0.510361
-0.0592329
-0.0888702
-0.10507
-0.148458
0.288693
0.54256
0.211127
0.240804
0.149136
-0.0828569
-0.0827238
-0.085024
-0.0894678
-0.0457806
-0.0462996
-0.00248904
0.00846266
-0.00808549
-0.0338338
-0.0547828
-0.0475785
-0.0567468
0.498321
0.498814
0.504144
0.513561
0.450488
0.454198
0.420531
0.439256
0.425429
0.365484
0.395139
0.372285
-0.0190272
-0.00929741
-0.0108942
-0.0338342
-0.0329961
-0.0537243
-0.0461329
-0.045339
-0.0412125
-0.0458369
-0.0691065
-0.0760533
-0.180574
-0.300645
0.945832
0.887899
0.132214
0.497647
0.503321
0.500486
0.505233
0.508428
0.509055
0.50662
0.503107
0.494612
0.496135
0.492881
0.494137
-0.135956
-0.245999
-0.0774729
-0.154328
0.141413
0.607298
0.332866
0.277487
0.26266
0.491263
0.68682
0.594153
0.647798
0.620604
-0.398908
-9.29815e-05
-0.333362
0.212776
0.207443
0.697427
0.739016
0.756462
0.713247
0.669749
-0.0289409
0.541247
-0.0824271
-0.0305086
0.161646
0.0429607
0.609025
0.613346
0.620874
0.617903
0.623267
0.620131
0.606375
0.598908
0.618791
0.623746
0.483909
0.212027
0.16862
0.122764
0.61282
0.506247
0.555568
0.475144
0.497082
0.499517
0.498481
0.479143
0.486511
0.482168
0.489401
0.493057
0.500407
0.500591
0.496396
0.498343
-0.0828365
-0.0913532
-0.0680801
-0.130306
-0.134453
-0.178398
-0.0881574
0.0854285
0.0317467
0.224044
0.332948
0.0643563
-0.0573926
-0.0394022
0.0113602
0.173615
0.170792
0.0442014
0.154544
0.110668
0.103366
0.191856
0.214265
-0.0561309
-0.0625883
-0.0634199
-0.0688574
-0.0189894
0.102202
0.0735225
-0.0347297
-0.0414357
-0.078775
-0.0802014
-0.00794324
-0.046463
-0.038154
-0.0124225
-0.0614693
-0.0362929
-0.0271423
-0.0349975
-0.0354053
-0.0349043
0.494024
0.49543
0.495961
0.504378
0.516536
0.530954
0.49775
0.471733
0.462753
0.465853
0.438886
0.448162
0.44339
0.459241
0.480849
0.489046
0.487383
0.490099
0.472047
0.473781
0.459212
0.463807
0.433002
0.41419
0.404016
-0.0575258
-0.024736
-0.0384269
-0.0503623
-0.0250636
-0.0343233
-0.0351965
-0.0164151
-0.0358426
-0.0307277
-0.0404947
-0.0454475
-0.0458539
-0.0829465
-0.00055362
-0.184844
-0.233256
-0.286585
0.869681
1.00942
0.794549
0.555259
0.572275
0.816044
0.924067
0.527425
0.742305
0.752679
0.56642
0.855811
0.5016
0.501184
0.499044
0.49821
0.499212
-0.0237019
0.0798944
0.0902244
0.150324
0.265767
0.370996
0.304382
0.190631
0.323001
0.347696
0.604088
0.610922
0.569042
0.591282
0.593756
0.400265
0.481054
0.519633
0.476236
0.550962
0.584207
0.529371
0.571926
0.493565
0.442754
0.434352
0.38943
0.423887
0.405013
0.379336
0.493342
0.470133
0.481082
0.470914
0.492882
0.518205
0.51852
0.53965
0.556639
0.471916
0.417972
0.435045
0.464197
0.419644
0.437113
0.458988
0.179478
0.0817135
0.244031
-0.0834312
0.0010393
0.0415531
-0.0017713
-0.043075
0.263626
-0.372837
-0.319382
-0.994712
0.488483
0.825996
0.553072
0.564568
0.622716
0.612175
0.621672
0.624756
0.626525
0.600802
0.610644
0.615055
0.579977
0.600677
0.595667
0.602985
0.48828
0.388462
0.391795
0.323072
0.183543
0.225464
0.416845
0.348286
0.2733
0.265283
0.44198
0.306808
0.386723
0.435988
0.359229
0.295196
0.521466
0.570509
0.564084
0.535976
0.413357
0.446766
0.448082
0.498378
0.541716
0.566747
0.487951
0.494261
0.49517
0.492432
0.490806
0.493927
0.494205
0.4965
0.496663
0.499251
0.498734
-0.0800721
-0.066618
-0.0791443
-0.0870328
-0.0249554
-0.0329996
-0.00459761
-0.0279333
-0.0385641
-0.0339917
-0.0498345
-0.0656841
-0.0638741
-0.0544623
0.0599814
0.0713955
0.0870065
0.0446976
0.254269
0.390936
0.477882
0.362259
0.200249
0.227267
0.295129
0.0159227
0.00782817
-0.00716319
0.0632029
0.0503127
-0.0679034
-0.0724422
-0.0674776
-0.0555992
-0.0487441
-0.0687551
-0.0722604
-0.0620647
-0.0692408
-0.0757011
-0.0779657
0.473389
0.46631
0.469857
0.462317
0.460499
0.477428
0.482094
0.483076
0.488641
0.491353
0.480747
0.48639
0.490672
-0.0368225
-0.0531207
-0.0532784
-0.0557806
-0.0523608
-0.0500054
-0.0534523
0.117782
0.0251249
0.0607166
-0.00979313
-0.136442
-0.0770569
0.492209
0.485923
0.473706
0.710699
0.546424
0.465867
0.565312
0.685849
0.2652
0.464257
0.299722
0.875811
0.783519
0.928651
0.543641
0.246345
0.416726
0.425277
0.266773
0.390671
0.330749
0.206561
0.24188
0.277392
0.361144
0.246083
0.225553
-0.0171766
0.164633
0.273746
0.255836
0.38229
0.438767
0.256246
0.172061
0.118286
0.58178
0.602387
0.611202
0.582149
0.604334
0.561663
0.554021
0.570061
0.580325
0.573723
-0.629158
-0.217554
-1.41725
-0.832995
-0.381113
0.5159
0.519283
0.739115
0.640867
0.648625
0.630601
0.578841
0.552964
0.593595
0.605267
0.312282
0.396839
0.384606
0.359381
0.305787
0.248561
0.520147
0.529749
0.55264
0.580543
0.556147
0.58446
0.486731
0.48658
0.485227
0.481476
0.479966
0.483282
0.0130639
-0.0114085
0.0222275
0.0142613
-0.00897818
-0.0139713
-0.0435517
-0.0547744
-0.0559053
-0.0522922
-0.0416999
-0.0399006
0.164673
0.102281
0.0139998
0.055112
-0.0112287
-0.0934701
-0.0959922
-0.0047266
0.095521
0.077028
0.37957
0.646824
0.472801
0.637686
0.437703
0.534448
0.456023
0.429348
0.456744
0.362101
0.452604
0.0496032
-0.153082
-0.207796
0.811222
0.772945
0.552051
0.310899
0.190965
0.480786
0.501157
0.461895
0.487955
0.537648
0.521228
0.01891
0.104462
0.19462
0.499538
0.272922
0.291712
0.281525
0.448973
0.417049
)
;

boundaryField
{
    wall-4
    {
        type            zeroGradient;
    }
    velocity-inlet-5
    {
        type            zeroGradient;
    }
    velocity-inlet-6
    {
        type            zeroGradient;
    }
    pressure-outlet-7
    {
        type            fixedValue;
        value           uniform 0;
    }
    wall-8
    {
        type            zeroGradient;
    }
    frontAndBackPlanes
    {
        type            empty;
    }
}


// ************************************************************************* //
