/*--------------------------------*- C++ -*----------------------------------*\
  =========                 |
  \\      /  F ield         | OpenFOAM: The Open Source CFD Toolbox
   \\    /   O peration     | Website:  https://openfoam.org
    \\  /    A nd           | Version:  6
     \\/     M anipulation  |
\*---------------------------------------------------------------------------*/
FoamFile
{
    version     2.0;
    format      ascii;
    class       surfaceScalarField;
    location    "79";
    object      phi;
}
// * * * * * * * * * * * * * * * * * * * * * * * * * * * * * * * * * * * * * //

dimensions      [0 3 -1 0 0 0 0];

internalField   nonuniform List<scalar> 
1300
(
3.75095
5.62643
-3.33081
3.75095
-7.75965
5.62643
-4.27967
4.27967
-0.37253
0.37253
1.8765
1.87446
-2.42906
2.42906
-1.7257
1.7257
-2.52539
2.52539
-5.24795
5.24795
-5.0691
5.0691
4.69688
-4.69688
-6.33695
6.33695
-0.95811
0.95811
-3.57721
3.57721
3.17242
-3.17242
-1.85118
1.85118
0.0932509
-0.0932509
-0.554083
4.30504
3.19687
3.19687
-1.9867
1.9867
-4.87476
4.87476
6.22196
-6.22196
5.24278
-5.24278
-1.91197
-2.50821
1.79766
-11.4722
-5.96199
-5.96199
-8.44101
8.44101
-2.81458
2.81185
2.9473
-2.9473
-1.7223
1.7223
-4.29777
0.0181007
-4.29777
4.24914
0.0305321
4.24914
-0.490644
0.118115
-0.490644
3.9576
-3.9576
0.273501
0.0990285
0.273501
3.06732
-3.06732
-1.87685
3.75335
1.8741
-1.8721
6.17713
-1.87886
3.75331
-6.07791
6.07791
-2.67821
0.249158
-2.67821
2.19568
0.233377
2.19568
-6.89314
6.89314
-1.77489
0.0491892
-1.77489
1.72806
-0.00235777
1.72806
2.88848
-2.88848
-2.62309
0.0976972
-2.62309
2.39128
0.134111
2.39128
0.353449
5.27298
-5.97988
8.79173
-5.27298
0.0250338
5.21029
0.0376597
5.21029
-5.10545
0.0363452
-5.10545
5.01388
0.0552215
5.01388
4.78513
-0.0882446
4.78513
-4.81728
0.120397
-4.81728
-3.36066
-4.07606
-6.49763
0.160673
-6.49763
-1.03655
0.0784399
-1.03655
0.852692
0.105418
0.852692
-3.72636
3.72636
-3.93529
0.358077
-3.93529
3.1274
0.0450263
3.1274
1.86812
1.88283
5.61907
-5.61907
2.44665
-1.77443
-0.0767558
-1.77443
-1.93733
-3.30546
1.93733
-0.0861417
-0.127153
0.220404
-0.127153
3.15712
0.0397465
3.15712
2.22993
0.161348
-2.22993
0.243228
3.3027
-3.3027
1.32979
0.656912
1.32979
-5.55871
5.55871
4.96216
0.0517241
-4.96216
0.0873961
6.1571
0.0648582
6.1571
-6.2074
-0.014562
-6.2074
2.48592
-4.99412
-2.66555
6.1496
0.187349
-6.1496
0.187616
2.91891
0.0283887
2.91891
-2.91843
2.91843
-2.98427
0.0369676
-2.98427
-2.14448
0.422171
-2.14448
1.40863
0.313677
1.40863
-4.21447
-0.0833009
-4.21447
-4.09391
0.158622
4.09391
0.155229
1.1202
-1.1202
-0.605422
0.114778
-0.605422
-4.06309
-0.151377
4.06309
-0.105496
-3.89702
-0.060577
-3.89702
-3.02194
0.0376726
3.02194
0.045374
3.11212
0.045005
-3.11212
0.0448037
-1.87099
3.75383
-1.87996
3.75406
-5.69574
-0.382172
-5.69574
6.35938
-0.281465
6.35938
3.10163
0.475579
-3.10163
0.423416
2.01175
0.183926
2.01175
-6.86555
-0.027586
-6.86555
6.90001
-0.00687305
6.90001
1.87573
0.136025
-1.87573
0.100838
1.72645
0.00161202
1.72645
2.91634
-0.0278595
2.91634
-2.8821
-0.0063821
-2.8821
2.7909
-2.7909
2.71475
0.0761426
-2.71475
0.0916671
-11.1242
11.1097
-0.0361886
-11.088
5.1741
5.1741
4.23881
0.546319
4.23881
-5.01448
0.197201
-5.01448
2.66864
-5.33418
3.11226
-6.47291
4.67058
-16.1428
4.28849
-8.36455
6.74898
-6.74898
6.63034
0.118636
-6.63034
0.132717
-1.1354
0.0988546
-1.1354
-3.12943
-0.596924
-3.12943
4.36809
-0.641729
4.36809
-3.02753
3.02753
-3.07633
0.048806
3.07633
0.0510605
1.7337
-0.00725487
-1.7337
-0.0407273
0.178422
0.0950787
-0.178422
0.0512698
3.52587
-0.223169
3.52587
-3.0976
-0.205102
-3.0976
-1.23071
0.0953066
1.23071
0.0990782
-5.80708
0.248374
-5.80708
-11.1815
0.0935099
-11.1439
-6.11389
-6.11389
2.32712
11.1188
-2.89734
0.0152413
2.89734
0.0215689
2.97477
0.0527575
-2.97477
0.0563426
-2.8573
0.0664048
2.8573
0.0611284
-2.51217
0.367692
-2.51217
-1.02512
1.02512
-1.17195
0.146823
1.17195
0.236681
1.42149
-0.301291
1.42149
0.740554
0.112139
-0.740554
0.135131
-3.84135
-0.0556703
-3.84135
6.59643
-0.237047
6.59643
-2.9683
-0.129294
2.9683
-0.0519569
-0.0348314
11.1445
-5.13927
0.03382
5.13927
-11.2093
11.2432
-3.21724
0.705069
3.21724
1.02157
5.28439
0.274318
-5.28439
0.269911
6.84021
0.059806
-6.84021
0.0912239
-2.63888
-0.490553
-2.63888
-5.09624
-0.5995
5.09624
-0.728157
-11.4816
-0.203191
11.6848
-11.4263
6.01027
0.146829
-6.01027
11.39
-0.996266
-0.123937
0.996266
0.0288566
1.76101
-0.33952
1.76101
3.74443
-0.218567
-3.74443
-0.0969161
-6.75625
-0.109303
6.75625
-0.159823
-2.18959
-0.449287
2.18959
-0.428579
-4.26739
4.30713
1.90974
-2.32712
-2.667
-5.63258
1.85528
1.89854
4.30194
-10.1459
-5.9969
-9.95829
7.21475
-6.94484
-9.32178
9.23353
7.94238
-8.00296
-5.77734
5.8284
6.48474
-6.43936
1.87946
1.87389
8.07134
-7.82218
-15.6644
15.2823
7.62193
-7.57274
15.8226
-15.8502
-17.8621
17.9219
-5.70764
5.80534
-6.74303
6.73665
-6.97987
6.92791
-2.79796
-3.67495
13.115
-12.9543
8.60463
-8.68138
-8.67899
9.03706
3.38461
0.922522
3.42962
-1.88179
3.76124
-1.87153
3.78127
2.76596
-5.56392
2.56822
-5.23523
4.38668
4.21795
-4.30054
-1.33204
-5.92883
5.95722
-5.80936
5.87048
9.1852
-9.1671
-1.88498
3.75887
-1.86908
3.76763
-3.42294
-2.35441
3.37791
0.924025
8.06345
5.05155
-8.2508
-1.70749
-8.03117
7.81261
-8.21698
8.01188
-0.436227
5.83795
-5.40172
4.43853
-1.65394
7.49189
5.56082
5.75802
5.86063
-5.58632
1.08421
-6.48593
-6.39854
-2.24551
2.36029
2.12928
-2.03025
6.15279
1.78959
6.0473
-5.81263
-2.19033
-5.8683
3.81973
2.00867
3.86854
4.08217
2.40257
4.11984
3.02954
-3.03678
0.00724037
-3.05933
6.08888
0.722088
-5.41374
-4.48971
4.99249
3.07885
5.22586
-5.59377
-2.22841
-5.17036
-9.55944
-6.105
-10.1589
10.084
5.19826
9.80254
-11.9474
11.7876
4.86768
2.75425
4.86532
-4.9827
-2.59004
-4.88186
11.6837
-2.65667
-9.02708
-10.3282
-7.53392
10.335
5.48756
10.9697
6.9522
11.0609
4.42719
7.25656
-9.91475
2.38083
-3.86803
-1.83961
-3.77636
3.66088
2.14446
3.79499
-4.21887
-2.52416
-4.20363
-4.29526
-2.68461
4.32311
2.41354
-4.4174
-3.79958
4.5467
2.38121
4.05503
-10.0519
4.30952
-7.98447
-9.19936
-3.75497
-9.06664
3.56749
2.5971
-6.16459
-1.99643
8.5637
-4.34575
7.23166
-5.19639
-3.48499
-5.23712
-6.96907
-1.70991
-6.81045
-8.92351
8.43296
-9.20604
8.56431
12.5045
-5.63371
-6.87083
-3.96702
-2.47234
3.92222
-0.492601
-3.71004
3.71728
0.0512057
3.83248
4.755
4.2624
-3.88242
-1.92694
-3.82608
3.82139
2.0491
3.88779
6.85372
2.33148
6.88426
-6.62036
-2.54674
-6.70366
9.09499
-8.67282
2.7898
-2.69449
5.37817
2.63371
-5.15501
-2.87617
6.23135
-3.20792
-3.02342
-12.3484
10.7905
1.5579
-4.85646
-0.417929
-0.51118
-5.56751
-3.75427
5.44711
0.310908
11.1014
7.34709
-5.515
5.76337
6.16976
6.22148
-0.177055
5.8854
-5.18033
5.26892
-2.73287
-2.53605
5.48306
-5.63444
-1.2206
-5.55821
4.3376
0.41286
1.47831
-1.25791
-1.75938
-0.486134
-1.62425
1.15801
0.971267
1.25309
0.960186
1.4001
-2.91986
0.512029
2.40783
-1.95967
-1.51822
-3.82199
-1.15353
4.97552
5.73714
2.07547
-5.64022
-0.228073
2.55041
-2.445
-0.840413
-2.98158
2.22873
-3.06915
-3.46689
-1.94617
5.41306
-3.36874
-0.457341
3.31598
0.552555
-3.8282
-2.10063
3.79123
0.32861
-3.12892
6.19022
-3.0613
-5.05585
2.52898
3.5599
4.53765
-4.78993
2.44924
2.34069
-1.23003
4.25885
0.967013
4.44278
-7.06334
4.83493
5.73896
3.29811
-6.21454
1.04418
-6.01915
8.55766
-7.40394
-1.15372
4.10961
4.44805
7.01053
5.49401
-5.6994
12.7099
-1.17208
-6.23186
7.19123
-3.89313
4.86961
-8.76273
-10.3636
4.13175
-9.20796
11.085
-1.87705
-3.60044
-8.34697
12.8084
-1.21853
-11.5899
8.58402
-4.347
-4.41923
8.76623
-7.00367
7.00928
-1.9903
-5.01898
-10.1463
-5.7039
10.2556
1.53201
-9.96333
12.3442
-2.70677
4.16033
0.704998
4.16194
3.36324
-5.4772
2.11396
3.64044
-5.63074
2.05475
-7.53195
-6.75465
12.0952
-5.34059
-10.5096
-9.54392
-0.965692
2.54776
9.7964
-9.49995
7.43101
2.06894
3.29671
0.59108
-3.37285
-0.403507
0.235575
4.5101
-4.74567
4.03056
4.19191
3.21878
1.29132
3.84948
2.10774
-3.87104
-0.332585
-4.16842
1.48381
-1.75489
-3.69391
5.17772
-4.06194
0.368036
-2.74281
-3.49213
6.23494
-4.58242
3.03591
3.15431
5.08501
-4.91396
1.42183
-2.39096
-2.52301
2.64011
-4.395
2.0012
3.17651
4.38242
0.582837
5.91226
6.18298
-8.50936
0.524895
11.2345
-9.52704
2.4795
8.58141
-9.91051
0.366592
-8.70005
0.976189
-5.32194
-5.1884
5.22579
-6.9357
-3.53694
6.25282
0.631437
-6.40805
-0.402405
-6.06358
-2.85993
-6.51287
-3.04492
-6.16113
-8.74432
-1.67491
-7.06941
6.75805
-6.70459
-3.45436
7.43275
1.13157
-7.47617
7.35223
-7.53429
7.19477
0.0950252
3.62225
4.35742
1.88508
-2.39222
4.2773
-5.07596
7.40744
-8.7542
3.67825
4.24689
-6.79363
-4.50732
5.05516
4.03983
5.36884
8.91452
-10.3632
1.4487
-10.6365
11.9777
-1.34116
-16.4123
5.77584
-7.49782
2.41901
0.370784
2.51787
0.542882
2.50749
-3.05037
-2.15161
-2.05253
-2.44563
-3.49316
5.93879
1.05646
-3.47629
2.41983
-3.55997
4.61643
-0.0816878
-3.39461
5.19199
-2.6845
5.56278
-3.64166
1.92112
3.54685
5.84023
-2.29338
4.42082
-1.78711
1.94851
-4.2419
-1.54465
-2.95265
5.09711
-3.28229
3.65032
-0.351438
4.00176
-4.03994
0.832016
-0.821164
3.37075
3.61398
4.33183
-3.04051
2.93349
-4.7206
-1.30841
-4.13777
-0.961253
-0.181013
-3.77978
3.96079
5.99772
-6.17873
-5.27834
9.51847
-4.24013
7.69807
-5.43599
-2.26208
-4.28749
-4.38532
3.9198
1.9656
9.66367
0.179022
-5.61501
-5.00131
-3.97974
3.08326
2.18566
-1.72242
3.28032
2.2336
-0.755289
0.393318
0.85977
1.75857
-1.36525
0.346868
1.4117
-0.91104
1.68931
0.861103
-1.80145
0.177205
-1.32723
3.55596
1.0806
-2.05187
0.686616
0.888303
-3.62117
5.10137
-2.73703
-2.36435
5.98968
1.14606
-3.88308
4.41215
-3.99929
2.45125
-3.60478
-1.43183
-5.43112
-3.64154
-2.48088
4.9007
-3.45791
5.53338
1.43381
-5.30531
6.73912
-3.62736
1.68119
-3.0615
3.9226
-0.989068
-2.07243
2.87478
2.53829
-3.14082
0.159244
-0.266046
2.41642
-2.68246
-0.652731
-2.6124
-4.57614
4.90475
-2.10373
4.55297
2.17357
-1.91771
6.47068
1.8076
-3.72531
-3.24826
-3.7056
-1.38461
3.15304
-0.574798
-4.30706
-5.59377
4.17104
0.271742
-7.07488
7.931
-0.856123
-3.99603
-0.838898
4.9485
-6.09952
0.468787
-4.04477
3.88623
4.85325
5.12499
-11.3551
-0.234773
-6.15684
1.10334
-7.26018
5.55139
-3.5067
7.63845
-10.3348
6.88045
-9.20323
6.48474
-0.77545
6.24803
-4.13407
2.77905
-8.48295
-6.95094
5.59061
-2.83636
6.2956
-3.22311
9.51871
-5.92988
5.37914
4.13957
-1.06588
-4.17124
-5.36258
4.2967
0.0165581
4.1785
4.98721
-2.87947
4.65463
2.26453
-4.65549
-2.13047
-6.48833
1.83285
-3.33402
-1.92263
3.75548
3.16237
3.75345
1.23247
-3.34995
7.25249
-8.21818
-1.9119
-3.27651
5.34231
-1.04561
3.46462
-6.74113
-1.85732
4.7409
-0.72331
-4.01759
0.892806
-4.42975
1.67317
-6.10292
5.26253
-5.66493
2.25477
-9.75259
-5.2214
-5.19255
-2.2787
-5.25559
-7.5712
5.2925
-1.79536
5.55688
-8.50675
7.78344
-3.47091
8.76341
-5.45934
-1.05353
5.88792
1.30685
10.0703
0.166786
-4.6741
-1.94281
3.72561
-1.7828
1.14045
-3.61299
0.112614
2.49307
3.49661
-6.83067
0.0370438
-4.63706
-3.90836
7.94819
5.61011
11.6078
1.24461
9.13312
-1.18493
10.3777
4.18391
4.42059
-3.00427
4.45297
0.956516
4.63476
-0.904433
2.82555
1.61344
1.69188
0.753122
2.30143
1.31255
3.13344
0.0830704
-1.96946
4.63122
-8.61095
-0.983795
-8.06463
1.1689
5.4299
-4.261
2.86126
-0.675597
1.07846
-0.196767
-1.15617
1.35294
-2.73282
-1.91146
-0.499764
-1.6647
2.35132
1.89126
-1.85156
-0.881263
0.329591
-3.97113
3.27519
-3.11595
-0.577662
6.16146
-2.88903
0.206572
-1.20784
-2.40583
-2.89197
2.71476
6.17433
0.296346
3.11303
5.2011
3.10047
0.220994
3.81019
-5.68724
-3.72176
-5.92201
-0.370621
4.57788
1.7682
8.0282
5.90777
4.86216
-1.87897
-10.0971
6.50384
-2.05087
5.16268
-1.14509
-4.95784
5.07565
2.33179
-5.70709
0.042153
-4.91568
-6.96655
-0.478603
8.26205
-9.59165
8.53812
5.6782
1.39121
-4.43426
-0.758287
4.28744
0.133153
10.5109
-0.912903
-7.04375
7.95665
-4.517
3.53321
0.67345
2.60687
2.02639
1.35079
-5.69296
-9.95396
-2.07162
-1.54955
-4.43597
0.539558
-2.43082
6.06761
-2.5344
3.80553
5.42225
6.50071
-2.04732
-4.13141
6.28745
-2.48192
4.01879
)
;

boundaryField
{
    wall-4
    {
        type            calculated;
        value           uniform 0;
    }
    velocity-inlet-5
    {
        type            calculated;
        value           uniform -3.75095;
    }
    velocity-inlet-6
    {
        type            calculated;
        value           uniform -5.62643;
    }
    pressure-outlet-7
    {
        type            calculated;
        value           nonuniform List<scalar> 8(3.33081 7.75965 4.42018 9.67456 7.43672 5.15146 5.78089 8.95907);
    }
    wall-8
    {
        type            calculated;
        value           uniform 0;
    }
    frontAndBackPlanes
    {
        type            empty;
        value           nonuniform 0();
    }
}


// ************************************************************************* //
