/*--------------------------------*- C++ -*----------------------------------*\
  =========                 |
  \\      /  F ield         | OpenFOAM: The Open Source CFD Toolbox
   \\    /   O peration     | Website:  https://openfoam.org
    \\  /    A nd           | Version:  6
     \\/     M anipulation  |
\*---------------------------------------------------------------------------*/
FoamFile
{
    version     2.0;
    format      ascii;
    class       volVectorField;
    location    "79";
    object      U;
}
// * * * * * * * * * * * * * * * * * * * * * * * * * * * * * * * * * * * * * //

dimensions      [0 1 -1 0 0 0 0];

internalField   nonuniform List<vector> 
918
(
(0.985049 -0.000715391 0)
(0.00534697 2.96624 0)
(-0.00306339 0.879671 0)
(0.979575 0.00196185 0)
(-0.0138301 2.06473 3.30839e-20)
(-0.00710451 2.94856 -2.5575e-18)
(0.820216 1.12192 4.4784e-19)
(0.110783 0.0767124 -1.39936e-20)
(0.999922 -0.00024527 0)
(0.0913043 0.666913 0)
(0.0136466 0.367856 0)
(0.732421 0.00676904 0)
(0.0102234 2.93156 0)
(0.00338078 2.79437 0)
(-0.00248622 3.1779 8.29144e-19)
(-0.0136653 1.92808 2.29522e-20)
(0.294659 0.0429936 9.77779e-19)
(0.23343 1.10897 3.54049e-19)
(0.964333 0.00674412 0)
(-0.00127565 0.377604 0)
(0.0440797 -0.0324816 -6.44379e-19)
(1.00183 -0.00455991 0)
(0.99985 -0.00892643 0)
(0.975168 -0.00605181 0)
(0.590981 0.0264923 0)
(0.0209666 2.64452 0)
(-0.0123435 2.91189 9.35272e-19)
(-0.00655665 0.931854 0)
(-0.0329279 1.17096 0)
(-0.00431164 0.901358 0)
(-0.0228755 2.58748 0)
(-0.00466799 2.11497 -2.64253e-20)
(-0.00983687 1.90067 0)
(-0.0221291 2.98762 -9.21386e-23)
(-0.0164794 3.0055 1.98689e-18)
(0.0023132 3.00057 0)
(0.871975 -0.00975912 0)
(0.374586 0.913075 1.63229e-19)
(0.818986 1.1407 -5.61173e-19)
(0.951164 1.00744 5.71784e-19)
(0.681552 1.22354 -1.02488e-19)
(0.695065 1.18348 5.84258e-19)
(0.138794 0.129736 1.36498e-20)
(0.147074 0.0835855 0)
(1.16779 0.532861 0)
(0.107958 0.10587 6.15184e-20)
(0.0848886 0.0594023 -6.3844e-20)
(0.920564 -0.00704732 0)
(1.00027 5.43735e-05 0)
(0.999907 0.000320451 0)
(1.0037 -0.00728014 0)
(1.00088 -0.000949066 0)
(1.00011 -5.72215e-06 0)
(0.0914634 1.84605 -7.32768e-19)
(0.0334823 0.850815 0)
(0.127609 0.757157 0)
(0.0185049 0.793052 0)
(0.051748 0.581982 0)
(0.00485297 2.03264 0)
(-0.00966657 0.697533 0)
(0.00725111 0.39419 0)
(-0.0185167 0.695756 0)
(0.0108627 0.36193 0)
(0.843719 -0.0156232 0)
(0.841898 0.0263935 0)
(0.757674 0.000889984 0)
(0.799294 0.0281184 0)
(0.703102 0.0136282 0)
(0.013942 3.00021 9.49068e-19)
(0.0111589 3.0061 0)
(0.00620993 3.00384 0)
(0.0118815 2.99716 1.07775e-23)
(0.00825948 2.95871 -1.41055e-18)
(0.0121963 2.98282 0)
(0.00902057 2.90486 0)
(0.0210737 2.93138 2.18288e-24)
(0.00411996 2.82437 0)
(0.0261305 2.91885 0)
(-0.000658262 2.74531 0)
(0.305138 3.57219 0)
(-0.122205 3.65486 0)
(0.148793 3.2686 -7.71661e-19)
(0.00289597 3.00668 0)
(-0.0309079 1.99009 0)
(-0.00732126 2.17873 -2.26372e-20)
(-0.00963196 1.94022 2.30602e-20)
(0.347433 0.139607 -3.39701e-19)
(0.322112 0.0129844 -3.30923e-19)
(0.300824 0.153735 -1.0149e-18)
(0.259647 0.0622042 -6.6052e-19)
(0.264571 1.02411 0)
(0.33283 1.23999 -3.6652e-19)
(0.414635 1.15135 6.04919e-19)
(0.987711 0.00816251 0)
(0.943227 0.00577308 0)
(1.00028 0.000671864 0)
(1.00254 0.00906616 0)
(1.00311 0.0089944 -2.6165e-18)
(0.992135 0.0094165 1.97714e-18)
(-0.0243884 0.723312 0)
(-0.00114178 0.379168 0)
(-0.0537974 1.01723 0)
(-0.0328607 0.78277 0)
(-0.0124264 0.381457 0)
(-0.070591 0.0890697 2.00302e-19)
(0.0369752 0.047749 0)
(0.993625 -0.00769262 0)
(0.954053 -0.00648494 0)
(0.742292 0.0304254 0)
(0.67234 0.0232667 0)
(0.659753 0.0254218 0)
(0.980527 -0.0024889 0)
(0.585932 0.0649282 0)
(0.453051 -0.0152114 1.48965e-18)
(-0.0407638 2.86014 7.30183e-19)
(0.0336052 2.91449 0)
(0.0426912 2.89262 0)
(0.00294764 2.70238 0)
(-0.00867491 2.98631 8.9418e-19)
(-0.0140712 2.89457 0)
(-0.0110948 2.99157 -2.7548e-18)
(-0.0116209 2.92944 9.38409e-19)
(-0.047797 1.34822 0)
(-0.0171384 1.37702 0)
(-0.00771667 2.14011 8.16808e-22)
(-0.0075945 2.09915 0)
(-0.0170676 1.91169 0)
(0.938918 -0.00518861 0)
(0.857343 -0.0111587 0)
(0.862992 0.00513333 0)
(0.949695 -0.00613058 0)
(0.883704 -0.00809815 0)
(0.497898 1.11287 -2.0732e-19)
(0.545219 1.18268 0)
(0.336675 0.847791 3.17215e-20)
(0.281331 0.712442 0)
(0.920291 1.03673 -1.61672e-19)
(1.04345 0.847449 3.26107e-19)
(0.393062 1.31881 0)
(0.543951 1.2744 0)
(0.598005 1.20093 0)
(0.10435 0.181882 -2.97474e-19)
(0.167996 0.143071 0)
(0.171405 0.0992471 1.83609e-19)
(1.00653 0.901419 0)
(1.08243 0.749614 0)
(1.11206 0.685041 -2.62452e-19)
(1.14868 0.59557 0)
(1.20474 0.391895 4.7351e-20)
(0.957522 -0.00709231 0)
(0.962742 -0.00810716 0)
(0.900935 -0.00737777 0)
(0.983932 -0.00812169 0)
(0.974435 -0.00802914 0)
(0.936553 -0.00656882 0)
(1.0002 0.00250555 0)
(1.00077 0.00123797 0)
(1 0.000760271 0)
(0.0436326 2.08816 4.08789e-19)
(0.143985 1.79044 0)
(0.018663 2.20338 6.15708e-19)
(0.0513688 1.89456 -5.12683e-19)
(0.1674 1.08466 -2.90552e-19)
(0.0499652 0.936924 0)
(0.122299 0.939372 0)
(0.00672722 0.757792 0)
(0.0300024 0.505695 0)
(-0.0027247 2.25947 -3.31299e-22)
(0.0207842 2.03829 0)
(-0.0047196 2.25976 -5.42007e-21)
(0.00270578 2.04437 -1.93137e-21)
(-0.000684433 0.728887 0)
(-0.00546628 0.708535 0)
(0.0127341 0.443439 0)
(-0.0124422 0.697339 0)
(0.0091733 0.362479 0)
(0.939579 0.0139039 0)
(0.856584 -0.0115421 0)
(0.928724 0.00488986 0)
(0.846325 -0.0127758 0)
(0.810718 -0.00132432 0)
(0.897756 0.0230291 0)
(0.873713 0.0265664 0)
(0.784934 -0.00327129 0)
(0.0102974 3.06726 -8.82129e-21)
(0.0151854 3.05905 0)
(0.0123103 2.97032 0)
(0.00755119 2.8766 0)
(0.894523 3.96533 0)
(1.18821 3.36189 9.35914e-19)
(0.0805514 3.08937 0)
(-0.0178422 2.91757 0)
(-0.017316 1.40404 0)
(-0.0366282 1.69973 0)
(-0.0254067 1.53567 0)
(-0.0334919 2.54836 -1.48823e-20)
(-0.0187286 2.24532 0)
(-0.0229772 2.38907 0)
(-0.000898487 1.97033 -4.29254e-23)
(-0.00527108 2.25334 -2.92947e-20)
(-0.00636523 2.21652 -2.36578e-20)
(-0.00594804 1.95393 0)
(0.389825 0.115166 5.21977e-19)
(0.359522 0.00617051 -5.12221e-19)
(0.232087 1.59118 0)
(0.288421 0.768754 -3.21907e-19)
(0.178013 1.68882 -1.05836e-18)
(0.244104 1.22901 1.05931e-18)
(0.901641 0.0057907 0)
(0.967007 0.0107411 0)
(0.974873 0.00987891 0)
(0.922966 0.00582363 0)
(-0.0205362 0.702444 0)
(-0.0265966 0.713732 0)
(0.002059 0.365625 0)
(0.0792584 0.0910889 5.64386e-19)
(0.0642434 0.0686097 -6.64091e-19)
(0.0446692 0.0451064 0)
(1.10813 0.0909054 2.35814e-20)
(1.09171 0.042839 0)
(1.01926 0.0438981 0)
(0.914258 -0.00134011 0)
(0.437406 0.097563 0)
(0.497181 0.0790555 -2.38265e-18)
(0.398763 0.000911289 8.92645e-19)
(0.010533 2.97699 7.75731e-19)
(-0.0332199 2.86119 4.5684e-20)
(0.00809324 3.05342 -1.86244e-20)
(0.0158625 3.04307 6.96965e-19)
(-0.0118633 3.00005 3.08679e-20)
(-0.0122692 2.9523 -1.24479e-22)
(-0.0150606 3.01325 -5.7679e-19)
(0.0146429 3.02628 4.07974e-19)
(0.00764364 3.03518 -6.63157e-19)
(0.934784 0.0021548 0)
(0.939557 -0.00110092 0)
(0.848236 -0.0111824 0)
(0.956251 0.0119239 0)
(0.942297 0.0133957 0)
(0.881538 0.00533584 0)
(0.915454 0.0181686 0)
(0.925103 0.0151773 0)
(0.837159 0.00201848 0)
(0.670486 1.41101 1.81934e-20)
(0.688485 1.52143 0)
(0.118141 0.29008 6.71832e-20)
(0.214171 0.654578 5.30696e-19)
(0.240254 0.692317 -3.11525e-19)
(0.213957 0.493171 6.18442e-19)
(0.341187 0.834119 1.57456e-18)
(0.13604 0.237838 3.78205e-19)
(0.256745 0.166826 7.00495e-19)
(0.210147 0.163611 1.81035e-19)
(0.219617 0.0871824 3.44366e-19)
(1.19593 0.447833 9.91079e-20)
(1.22054 0.246803 9.67086e-20)
(0.00917894 2.24516 2.3812e-19)
(0.0389617 1.95781 0)
(0.973223 0.0331776 0)
(0.946967 0.0193154 0)
(0.871512 -0.0150771 0)
(0.0123487 3.07473 0)
(0.0168219 2.94401 1.23108e-18)
(0.0139453 2.95691 0)
(0.0058417 2.85001 -1.22175e-18)
(0.00919915 3.09009 3.00583e-19)
(0.0118282 3.08314 0)
(0.707967 1.81715 -1.70834e-19)
(1.23256 2.62147 5.776e-19)
(0.692707 1.99509 -1.39377e-18)
(0.0221017 2.9761 -6.73401e-19)
(0.0401274 2.99787 0)
(-0.0383869 2.87857 0)
(-0.00629837 2.23874 -1.30667e-20)
(-0.00494405 2.25903 5.73132e-20)
(-0.000489473 2.00619 -7.16796e-21)
(0.268272 1.40422 1.02224e-18)
(0.288055 0.573028 -7.01986e-19)
(0.0727379 2.00421 7.44204e-19)
(0.120851 1.87515 -9.01001e-19)
(0.20816 1.53993 1.05549e-19)
(0.00576656 3.12039 -1.66976e-18)
(0.013057 3.12074 1.83804e-18)
(-0.00525526 2.98062 8.35649e-19)
(-0.00158134 2.97513 -8.0008e-19)
(-0.0175819 2.87716 -8.51143e-19)
(0.0120428 3.10071 -2.23248e-18)
(0.00567759 3.10523 2.26464e-18)
(0.268501 0.700108 0)
(0.219574 0.660324 -1.13339e-18)
(0.0747104 0.212342 4.98798e-19)
(0.347301 0.954369 1.11837e-18)
(0.200548 0.282469 -1.72243e-18)
(1.19914 0.176567 4.6118e-20)
(1.21719 0.306126 0)
(1.19461 0.121549 1.12793e-20)
(-0.000493406 2.26695 -1.14532e-21)
(0.00405713 2.25011 0)
(0.0324085 1.99478 0)
(0.313391 1.31937 -3.66792e-19)
(0.354403 1.18058 -7.96294e-19)
(0.23393 0.393865 1.42467e-18)
(1.00644 -0.00968005 0)
(1.00774 -0.0077831 4.80887e-19)
(-0.0420675 1.33065 0)
(-0.0512376 1.33523 0)
(1.00244 0.0032694 1.33698e-21)
(1.0032 0.00780841 9.8729e-19)
(-0.0246615 2.53503 1.88587e-20)
(-0.0276633 2.57747 0)
(0.0400614 3.17234 4.75907e-19)
(0.373155 3.53886 0)
(1.1597 0.694588 -4.84696e-20)
(1.01178 0.0106343 -2.84607e-21)
(1.02088 -0.00899257 0)
(1.00158 0.000286191 1.56889e-22)
(0.118255 1.37595 0)
(0.143399 2.58512 0)
(0.0336962 1.32653 0)
(0.000158406 2.63395 -8.06863e-21)
(-0.0220445 2.58101 -1.26865e-20)
(0.998534 0.0312558 3.06636e-21)
(1.06306 0.00591315 0)
(1.10016 0.0285125 0)
(-0.0349717 1.74682 0)
(-0.0200871 2.57942 0)
(-0.0168726 1.32255 0)
(0.308957 1.49068 -1.74025e-19)
(1.01152 -0.00905298 0)
(1.00971 -0.0129841 0)
(1.00227 0.00093503 6.15838e-19)
(1.00547 -0.00491109 -7.26024e-19)
(1.00113 -0.000862525 0)
(-0.0239263 1.47043 0)
(-0.0128314 1.39217 0)
(-0.0186586 1.43206 0)
(-0.0195553 1.3088 0)
(-0.0320168 1.299 0)
(-0.0265152 1.27779 0)
(1.03569 -0.00428218 0)
(1.01894 0.0154107 -8.94853e-22)
(0.812933 1.3124 2.83644e-19)
(1.00244 0.000388259 -6.15513e-19)
(1.00338 0.00444407 7.34713e-19)
(1.00126 0.00209171 0)
(1.01107 0.00963365 6.13048e-19)
(1.00683 0.00745236 -7.4623e-19)
(1.00712 0.0111066 0)
(-0.0247577 2.60646 0)
(-0.0278174 2.58556 -3.25283e-20)
(-0.0247621 2.59968 2.29768e-20)
(1.24284 0.274133 5.13258e-19)
(1.16358 0.0892625 0)
(0.0436582 3.09111 -9.51913e-19)
(0.0519641 2.87371 -6.74236e-20)
(0.102895 3.20164 1.2729e-18)
(0.1211 3.21369 -2.69956e-19)
(0.140487 3.25632 0)
(0.0228251 3.1378 2.6154e-19)
(0.0610918 3.16186 9.48194e-19)
(0.0612917 3.17877 -4.89258e-19)
(0.0272513 3.12937 0)
(0.552212 0.29005 0)
(0.496475 0.308042 0)
(1.14198 0.726054 1.0672e-19)
(1.10652 0.861722 -8.7434e-20)
(1.19969 0.611843 0)
(1.22644 0.545783 0)
(1.01569 0.0120283 -1.13876e-18)
(1.01465 0.0127554 1.43176e-18)
(1.02576 -0.0087195 0)
(1.02409 -0.0102894 0)
(1.0068 0.00325032 0)
(1.01088 0.00421704 0)
(1.0042 0.00221631 0)
(1.00934 0.00634579 0)
(1.00683 0.00503973 0)
(1.00438 0.00525801 0)
(0.108855 1.37555 0)
(0.0947706 1.33378 0)
(0.139574 1.42049 0)
(0.147089 1.40476 0)
(0.151206 2.60709 0)
(0.188569 2.67375 -4.06762e-19)
(0.108863 2.66863 0)
(0.0804211 2.66747 1.63762e-19)
(0.0266049 2.67321 -1.60791e-19)
(0.0207813 1.33509 0)
(0.0289047 1.25294 0)
(0.0211847 1.34541 0)
(0.0492453 1.27631 0)
(-0.00175382 1.9962 4.09965e-20)
(-0.0217498 2.60926 -4.29124e-20)
(-0.0057708 2.67627 -3.66941e-20)
(-0.0188237 2.68795 0)
(-0.0242019 2.61522 3.8493e-20)
(-0.022824 2.61067 4.32901e-20)
(0.00501778 1.99295 -3.12504e-20)
(-0.0102817 2.40125 5.75686e-20)
(-0.0146426 2.42603 4.15959e-20)
(1.01187 0.0398378 1.15351e-18)
(1.00385 0.0214 -1.43791e-18)
(1.00358 0.0475181 -1.1806e-18)
(0.97441 0.0380968 1.48808e-18)
(1.06472 0.00925824 0)
(1.04992 -0.00643959 0)
(1.09271 0.0377792 0)
(1.07589 0.0150947 0)
(1.07469 0.000593573 0)
(1.14134 0.0796614 0)
(1.11581 0.0463725 0)
(1.11916 0.0374686 0)
(-0.0303725 2.431 3.72786e-21)
(-0.0216135 2.02347 0)
(-0.0215046 2.21992 0)
(-0.0221016 2.60031 -2.07353e-20)
(-0.0187383 2.61141 6.66933e-22)
(-0.00361779 1.59179 -5.72828e-20)
(-0.0129256 1.5141 5.85195e-20)
(-0.0240066 1.40582 0)
(-0.0279994 1.41135 0)
(-0.034746 1.40206 0)
(-0.0126428 1.32437 0)
(-0.00105757 1.24429 0)
(0.386058 1.51529 2.90877e-19)
(0.434741 1.51937 1.54421e-19)
(0.592522 2.46521 -2.47322e-19)
(0.385423 2.55424 7.14497e-19)
(0.349949 2.04929 6.78837e-20)
(1.02071 -0.00799628 0)
(1.0158 -0.00935177 0)
(1.01485 -0.0132093 0)
(1.00774 -0.00055165 0)
(1.00485 -0.000683773 0)
(1.008 -0.00446997 0)
(1.00954 -0.00343273 0)
(1.01465 -0.0042734 0)
(1.01967 0.0163521 1.11739e-18)
(1.01717 0.0149202 -1.41659e-18)
(1.01996 0.018793 -1.12603e-18)
(1.01743 0.0168 1.41217e-18)
(0.769323 1.35916 0)
(0.707994 1.39502 2.4851e-19)
(0.877163 1.24038 1.04554e-19)
(0.913967 1.19996 -1.38764e-19)
(1.16375 2.61017 2.67263e-19)
(0.746592 0.131477 5.7996e-19)
(1.17194 0.108027 0)
(1.21477 0.202754 -4.1672e-19)
(1.19611 0.154411 -1.73367e-20)
(1.01134 0.166201 0)
(0.0754611 3.01822 3.39405e-19)
(0.0815734 2.90293 -1.11822e-18)
(0.0232413 2.36058 7.08069e-19)
(0.155556 -0.264791 -3.14451e-19)
(0.34122 3.443 -2.53551e-19)
(0.192049 3.33852 0)
(0.222935 3.39446 3.30281e-19)
(0.220582 3.07585 -1.18707e-18)
(0.253464 3.19454 0)
(0.00680686 3.12238 4.9473e-20)
(0.0169542 3.13115 -5.70339e-19)
(0.0161784 3.12699 8.39439e-19)
(0.0333152 3.14009 0)
(0.0312834 3.14966 0)
(1.25617 2.57352 0)
(0.539134 0.787937 -5.19902e-19)
(1.02701 1.03573 -1.634e-20)
(0.993226 1.08859 0)
(0.862208 0.970778 -1.04195e-19)
(1.08585 0.91115 2.66917e-20)
(0.312709 0.303542 -7.82528e-19)
(0.640988 0.323582 -2.25568e-20)
(0.521986 0.216143 3.89365e-19)
(0.528916 0.32372 2.78399e-20)
(0.404457 0.27093 -1.11245e-18)
(0.596042 0.323237 0)
(0.688355 0.434594 6.59463e-19)
(0.692841 0.442136 0)
(0.562854 0.329331 0)
(0.465776 0.250952 0)
(0.800818 0.658927 3.87269e-19)
(1.25432 0.308212 -4.17054e-19)
(1.24729 0.440109 0)
(1.24768 0.395509 0)
(0.682327 0.188221 5.92406e-19)
(0.84789 0.561692 -3.65798e-19)
(0.769433 0.525967 6.53635e-19)
(0.966327 0.455683 -6.56741e-19)
(1.01846 0.0147213 7.59403e-19)
(1.01706 0.0136588 -7.65483e-19)
(1.0159 0.0142127 0)
(1.03708 -0.00450754 0)
(1.03048 -0.00768589 -7.17311e-19)
(1.02868 -0.0105759 7.09861e-19)
(1.02474 0.0110103 0)
(1.02271 0.0151151 0)
(1.01271 0.00473988 0)
(1.01457 0.00910235 0)
(1.01642 0.00425617 0)
(1.01556 0.00293994 0)
(0.0791535 1.36309 0)
(0.0803445 1.30513 0)
(0.152259 1.42174 5.13086e-20)
(0.276841 1.4869 8.46538e-20)
(0.175748 1.45825 1.90151e-19)
(0.212403 1.45657 -3.0772e-19)
(0.162757 1.43331 0)
(0.142406 1.5865 -8.31608e-20)
(0.14013 1.58207 0)
(0.348626 2.00276 -9.88234e-20)
(0.318462 2.34007 5.53835e-19)
(0.198952 1.46621 7.24678e-20)
(0.275656 1.40147 2.553e-20)
(0.207873 1.39999 -2.08275e-20)
(0.290044 1.33983 -8.32982e-20)
(0.259134 1.57761 0)
(0.26628 1.62526 9.28969e-20)
(0.0226305 2.25241 -1.23949e-20)
(0.0370761 2.66661 0)
(0.0626026 2.40358 9.04076e-20)
(0.0575573 2.42888 0)
(0.0664728 2.68585 -1.81836e-19)
(0.0416213 2.7011 0)
(0.02602 1.46146 6.33718e-20)
(0.033293 1.51759 0)
(0.033365 1.42263 0)
(0.0254581 1.43143 -7.22058e-20)
(0.00353914 2.66066 5.24143e-21)
(0.0258552 2.68841 1.84753e-19)
(0.0105837 2.73177 9.13092e-22)
(0.00212872 1.84888 -2.60371e-20)
(-0.00482759 1.70157 -1.85711e-20)
(0.0137149 1.31424 0)
(0.0210137 1.22676 0)
(0.0396687 1.59387 -1.19416e-20)
(0.0420714 1.47475 -5.81896e-20)
(0.0273615 1.55461 6.16602e-20)
(0.0513921 1.61777 0)
(-0.0315732 2.27088 1.26962e-19)
(-0.0350373 2.54823 -5.38196e-20)
(-0.021041 2.44889 9.58621e-21)
(-0.00627357 1.86454 3.15525e-20)
(-0.0285859 2.50383 1.33781e-20)
(-0.0234242 2.44598 -3.40726e-20)
(1.01785 0.0224122 -7.65834e-19)
(1.01518 0.0285699 7.69446e-19)
(1.01159 0.0175371 0)
(1.01063 0.0705869 1.05663e-18)
(0.990468 0.0607317 -1.20674e-18)
(0.949812 0.0567161 1.3499e-18)
(1.01332 0.115851 -1.43232e-19)
(1.04402 -0.00465001 0)
(1.05223 -0.000398251 6.86977e-19)
(1.04031 -0.00815924 -6.86621e-19)
(1.07231 0.0438784 -4.07131e-20)
(1.06499 0.0291031 3.51756e-19)
(1.0642 0.0657157 0)
(1.05444 0.0550365 -1.2673e-19)
(1.03223 0.0441562 0)
(1.02584 0.0391528 0)
(1.02761 0.0137083 0)
(1.02398 0.0163299 0)
(1.04082 0.0340804 2.6048e-19)
(1.0392 0.0285732 -5.76646e-19)
(1.05298 0.0387271 -2.7548e-19)
(1.0482 0.038716 -3.04066e-19)
(1.07793 0.0706373 5.81443e-19)
(1.10187 0.0566329 0)
(1.10863 0.0954888 0)
(-0.0294622 2.27713 7.33191e-20)
(-0.03168 2.02905 3.90323e-21)
(-0.0268539 2.03913 0)
(-0.0307842 2.44422 -7.29985e-20)
(-0.0283844 2.40282 -7.47643e-21)
(-0.03489 2.47102 9.52213e-21)
(-0.0219496 2.62257 -3.69188e-20)
(-0.0273221 2.56478 2.03642e-21)
(-0.0257851 2.51867 -1.24161e-20)
(-0.0177389 2.61531 2.36618e-20)
(-0.0217083 2.61774 -2.74264e-20)
(-0.0126306 1.5161 -8.76391e-22)
(-0.00723397 1.63913 -5.85161e-20)
(0.377352 1.45126 -1.24705e-19)
(0.372368 1.38184 1.41585e-20)
(0.649275 1.44278 -2.40443e-19)
(0.524828 1.51232 -1.50066e-19)
(0.57877 1.47125 0)
(0.607377 2.42228 2.15712e-19)
(0.666741 2.43208 3.36853e-19)
(0.415665 2.51625 9.49964e-20)
(0.400795 2.54051 -5.83572e-19)
(0.501912 2.47898 5.56788e-19)
(0.552887 2.47604 0)
(0.484685 2.52657 -5.49998e-19)
(0.252723 2.59643 1.11297e-18)
(0.36636 2.56532 -6.99349e-20)
(0.281698 2.65771 -1.5743e-18)
(0.971069 2.38901 7.10913e-19)
(0.848715 2.38999 0)
(1.01143 0.00139687 2.4969e-20)
(1.01538 -0.00516238 -2.03975e-20)
(1.01777 -0.00389842 -3.72845e-19)
(1.01563 -0.00102663 3.71557e-19)
(1.01312 0.00185045 0)
(0.637754 1.30441 0)
(0.681847 1.18988 0)
(0.79675 1.12047 0)
(0.669497 1.14684 0)
(1.19473 2.62554 5.16129e-20)
(1.08755 2.37755 0)
(0.817148 2.16533 3.51433e-21)
(0.821339 2.42933 0)
(0.916065 2.51987 -4.29989e-19)
(0.947508 2.46924 2.87076e-19)
(0.78439 0.163086 0)
(0.726802 0.142406 1.57328e-19)
(0.908256 0.16403 9.18201e-19)
(0.814878 0.145793 -3.42563e-19)
(0.755198 0.0940531 -1.06211e-18)
(1.08783 0.247276 -8.34762e-19)
(0.986164 0.318957 -1.0085e-20)
(0.925583 0.352812 8.0936e-19)
(1.01294 0.261277 6.88104e-19)
(0.931942 0.208393 -1.2124e-18)
(0.888598 0.220127 1.52717e-19)
(0.926834 0.31737 -3.1595e-19)
(0.905225 0.225643 0)
(1.00031 0.208547 5.92963e-19)
(1.05522 0.218463 0)
(1.05228 0.230656 0)
(1.12589 0.125572 2.65664e-19)
(1.06506 0.195433 -1.07639e-20)
(1.07944 0.248874 -1.52042e-19)
(1.11354 0.212652 0)
(1.02281 0.049405 5.89048e-19)
(1.03698 0.0629999 7.3406e-19)
(1.03227 0.0464095 -5.84546e-19)
(1.04169 0.0693475 -4.9239e-19)
(1.01446 0.0753047 -7.4799e-19)
(0.984237 0.169711 0)
(0.987766 0.108443 0)
(0.962396 0.0754551 -4.8057e-19)
(0.899082 0.100297 1.92949e-19)
(1.03916 0.116743 6.81112e-19)
(1.07598 0.137815 -7.78116e-19)
(1.07052 0.181999 6.99719e-19)
(1.03504 0.15866 0)
(1.08611 0.122861 0)
(1.05683 0.112867 -3.19183e-19)
(1.04234 0.108962 -5.53572e-19)
(0.588071 1.08214 1.1687e-19)
(0.610428 1.39835 -1.91207e-20)
(1.14442 2.71636 -2.44234e-19)
(1.19678 3.10094 2.39625e-21)
(1.25245 2.72606 -1.18104e-19)
(1.29174 2.69656 1.73859e-20)
(1.26695 2.31992 -3.8249e-20)
(1.18438 3.00628 -7.20212e-20)
(1.20409 2.96324 2.20638e-19)
(1.17839 3.25413 -1.22536e-19)
(1.3957 2.96802 1.53298e-19)
(1.40705 2.90346 0)
(0.57625 0.813676 -4.76136e-20)
(0.20305 1.21016 4.6748e-19)
(0.526477 0.330122 5.06654e-19)
(0.412293 0.0960991 5.7472e-19)
(0.463116 0.296983 6.30133e-19)
(0.547137 0.413611 -1.02709e-18)
(0.556731 0.396314 8.45031e-19)
(0.463672 0.293315 -3.13918e-19)
(0.313839 0.235939 7.14187e-19)
(0.717315 0.255301 -3.41627e-19)
(0.664727 0.28621 0)
(0.594936 0.193624 7.60651e-21)
(0.73713 0.512722 3.52712e-19)
(0.708529 0.486304 -1.27905e-18)
(0.632009 0.436874 1.32655e-20)
(0.618528 0.417373 0)
(0.723251 0.718622 3.67386e-19)
(0.839415 0.801616 4.05152e-19)
(0.777516 0.851345 -4.72161e-19)
(0.907117 0.822799 -1.49595e-19)
(0.941847 0.865816 -3.45303e-20)
(0.949351 0.873262 3.54158e-20)
(0.884716 0.681342 -6.59883e-19)
(0.957453 0.727797 1.39077e-19)
(1.01211 0.730613 0)
(1.01115 0.706157 -1.77449e-19)
(1.03135 0.343129 2.0795e-19)
(1.15938 0.342865 2.51272e-19)
(1.07458 0.285108 3.41256e-19)
(1.00061 0.389843 -4.16515e-19)
(1.05831 0.490488 0)
(1.13962 0.43119 0)
(0.901485 0.428219 -1.44246e-21)
(0.84729 0.321121 0)
(0.892836 0.313505 3.85836e-19)
(0.912426 0.35208 2.00283e-21)
(0.988686 0.500485 1.83405e-18)
(0.920593 0.559611 4.73201e-19)
(0.943779 0.518754 -5.00023e-19)
(0.861248 0.495562 5.33405e-19)
(0.825532 0.471072 3.40531e-19)
(0.802132 0.450315 -3.33719e-19)
(1.0282 -0.000357216 6.16054e-19)
(1.02046 0.000600089 0)
(1.0191 0.0014156 4.02063e-19)
(1.02269 -0.000699104 -9.10129e-19)
(1.02257 0.00460946 4.43355e-19)
(1.02002 0.0116614 -9.28058e-19)
(1.02076 0.0114867 0)
(1.01968 0.0122575 -1.93264e-19)
(1.01658 0.00782546 4.84331e-19)
(1.01668 0.0109455 -2.43374e-19)
(1.01729 0.0106498 1.78179e-19)
(0.0377039 1.33644 0)
(0.0432333 1.39902 0)
(0.0572404 1.34131 0)
(0.0610766 1.27643 0)
(0.0899005 1.4046 -7.1647e-20)
(0.0925302 1.37844 1.84937e-20)
(0.0866103 1.57249 4.21692e-21)
(0.104434 1.41016 -3.71195e-20)
(0.0443576 1.48822 5.18114e-20)
(0.0495762 1.48288 -4.08181e-20)
(0.0767986 1.39836 -2.41551e-20)
(0.064188 1.40098 7.58731e-20)
(0.0598944 1.38296 1.25252e-20)
(0.0472738 1.40184 8.66423e-21)
(0.100881 2.36999 -9.90577e-20)
(0.0941451 2.41978 0)
(0.144143 2.01426 1.0092e-19)
(0.12947 1.69782 3.30065e-20)
(0.22202 2.00673 -8.44044e-20)
(0.189461 2.43708 0)
(0.238385 2.37973 -6.63954e-19)
(0.326003 2.35032 4.40233e-19)
(0.247793 1.97922 -2.17092e-19)
(0.135977 2.14349 1.54044e-19)
(0.11194 2.25781 0)
(0.0159421 1.85299 -2.86705e-20)
(-0.00479183 2.37299 -6.47411e-21)
(0.00378879 2.12942 0)
(0.00524064 2.43535 -1.72043e-20)
(0.022512 2.2728 2.56018e-20)
(0.0117673 1.43959 -1.27421e-20)
(0.00711336 1.41927 2.11474e-19)
(0.00568122 1.42876 -6.84301e-20)
(0.0204454 1.43745 -6.01848e-20)
(0.0227535 1.46499 0)
(0.00264722 1.41172 0)
(-0.00320442 1.31039 -8.20506e-20)
(-0.00464977 1.40148 2.38472e-20)
(0.00303348 1.40058 0)
(0.00691468 1.30293 -6.36261e-20)
(0.0128678 1.21355 1.26498e-19)
(1.0425 0.0150949 0)
(1.04898 0.0105679 -6.424e-20)
(1.03919 0.0245298 -4.64641e-19)
(1.04965 0.0234546 0)
(1.05473 0.0227191 0)
(1.03639 0.0131182 -6.76592e-21)
(1.03009 0.0135389 7.49761e-19)
(1.03186 0.0176133 9.07369e-19)
(1.02555 0.0212635 0)
(1.02226 0.0217242 0)
(1.03566 0.0258502 4.63649e-19)
(1.02647 0.0284549 0)
(1.02317 0.0288165 0)
(-0.0213644 2.03201 0)
(-0.0118208 1.66694 -2.71768e-21)
(-0.00943134 1.77139 -3.42276e-20)
(-0.00931605 1.40686 0)
(-0.010842 1.57162 -3.43171e-20)
(-0.0175312 1.4834 2.06223e-20)
(-0.0144589 1.42212 0)
(0.403727 1.62247 0)
(0.366491 1.31997 -2.1458e-20)
(0.275523 1.34559 0)
(0.436526 1.31828 -4.68978e-20)
(0.472887 1.47746 0)
(0.458204 1.41911 4.47083e-20)
(1.04043 2.66906 -1.50961e-20)
(0.985456 2.40784 -8.93041e-19)
(0.948189 2.20911 1.0001e-18)
(0.865302 2.38201 2.40994e-19)
(0.852638 2.48584 0)
(0.921715 2.48032 0)
(0.954842 2.38203 0)
(0.930723 2.3731 -9.33632e-19)
(0.691413 2.44947 -3.72548e-19)
(0.800261 2.43351 -9.6551e-20)
(0.807544 2.41138 7.27605e-20)
(0.704239 2.40307 0)
(0.809557 2.39652 0)
(0.770067 2.41323 -3.65381e-19)
(0.765528 2.4644 0)
(0.633293 1.06788 0)
(0.515514 0.854689 -5.54177e-19)
(0.522098 0.927424 -3.22319e-20)
(0.50194 1.06861 0)
(0.48914 0.976179 8.48353e-19)
(0.805134 0.887387 -1.30796e-19)
(0.807987 1.02232 0)
(0.789237 1.00548 1.78622e-19)
(0.678329 1.02109 0)
(0.670226 0.924624 0)
(1.16299 2.75303 -2.1569e-19)
(1.13816 2.81132 -8.68137e-20)
(0.922371 2.33346 7.06962e-20)
(0.899149 2.31457 -7.45047e-20)
(1.13271 2.73088 0)
(1.08477 2.69862 8.94755e-20)
(1.10056 2.49395 -2.93345e-19)
(1.00243 2.25406 -2.82091e-20)
(0.496823 1.32753 0)
(0.516964 1.07632 -1.02939e-19)
(0.59559 1.18361 0)
(0.857716 0.234716 0)
(0.752667 0.185081 0)
(0.653671 0.146257 0)
(0.857497 0.233463 -5.93857e-19)
(0.739063 0.229358 3.57304e-19)
(0.916693 0.0897837 -3.97638e-19)
(0.921248 0.135909 0)
(0.905831 0.153319 1.72662e-19)
(0.835786 0.11027 6.915e-19)
(0.788717 0.0765705 -4.33638e-19)
(1.09497 3.34498 -6.71931e-19)
(1.16321 3.26866 0)
(1.11306 3.42978 -1.56977e-18)
(0.655195 3.57596 1.30659e-18)
(1.02334 3.07517 1.21282e-19)
(0.534227 0.776192 5.64268e-19)
(0.512332 0.743485 0)
(0.345928 0.337954 -1.42059e-19)
(0.493277 0.625759 8.46163e-19)
(0.561006 0.330187 -1.83865e-19)
(0.522778 0.451225 2.20477e-19)
(0.689627 0.52598 4.53141e-19)
(0.737944 0.563043 0)
(0.670089 0.561861 0)
(0.656348 0.532103 0)
(1.01962 0.615296 8.64706e-20)
(0.972584 0.597612 -4.58413e-19)
(0.983394 0.610074 3.49811e-19)
(1.04739 0.55261 -3.37558e-19)
(1.09263 0.521672 0)
(1.09465 0.603338 -8.85781e-20)
(0.886613 0.424431 -7.60069e-19)
(0.874117 0.410687 -9.78544e-19)
(0.798534 0.412088 5.99364e-19)
(0.81385 0.378703 -6.23565e-19)
(0.855509 0.33471 -4.90593e-19)
(0.798909 0.338437 6.00502e-19)
(1.02657 0.00673225 -4.63909e-19)
(1.0262 0.00685388 9.34795e-19)
(1.02997 0.000968787 5.96938e-19)
(1.0342 0.00161726 -7.16735e-19)
(1.03396 0.0119708 0)
(1.02973 0.0120784 -1.17416e-18)
(0.0837913 1.64866 9.67401e-21)
(0.0665931 1.60554 0)
(0.109046 1.70423 3.94062e-20)
(0.11574 1.6752 -3.48085e-20)
(0.0826043 1.57125 -7.76527e-21)
(0.0681295 1.5743 0)
(0.00690814 1.70483 0)
(-0.00893312 1.52202 1.82683e-20)
(-0.00771165 1.4644 -1.64221e-20)
(-0.0137529 1.56961 3.01576e-21)
(-0.00250589 1.89679 2.74959e-20)
(-0.0149819 1.95055 -1.08216e-20)
(0.49383 1.35942 -2.54745e-19)
(0.496493 1.35408 2.78717e-19)
(0.450728 1.31048 -6.6538e-21)
(0.428631 1.29079 7.27873e-21)
(0.630393 1.31164 0)
(0.556479 1.40599 1.20365e-19)
(0.557505 1.409 -1.17218e-19)
(0.486686 1.29871 6.4196e-21)
(0.527449 1.25145 0)
(0.591919 1.21721 0)
(0.665086 2.41308 5.48508e-19)
(0.660577 2.4437 1.26102e-18)
(0.715943 2.45868 -8.67491e-19)
(0.614409 2.43089 -1.98329e-19)
(0.557527 2.52344 2.70232e-19)
(0.498331 2.49042 -6.95818e-19)
(0.993051 2.38673 -5.63435e-19)
(1.02471 2.40425 0)
(0.951838 2.19268 -6.15504e-19)
(1.05571 2.67973 0)
(1.05457 2.66073 0)
(0.598938 2.28606 6.68748e-21)
(1.11764 3.0675 7.61585e-20)
(0.994503 2.96395 -1.23534e-19)
(0.317901 0.785239 0)
(0.314749 0.660741 -3.01627e-19)
(0.523769 0.598274 -3.04463e-19)
(0.360898 2.12765 0)
(0.40176 2.74388 -8.5382e-20)
(0.410979 2.47781 0)
(0.732094 0.687463 -7.82136e-19)
(0.798589 0.697788 1.08887e-18)
(0.801567 0.661971 -1.03264e-18)
(0.705111 0.642439 -9.90568e-20)
(0.761553 0.60205 -4.0923e-19)
(0.968951 2.75035 -5.7679e-20)
(1.01326 2.7578 -2.06242e-19)
(0.549119 2.20114 4.38862e-19)
(0.6024 1.73144 -3.47377e-19)
(0.70167 1.8504 -4.90611e-19)
(0.975992 2.39099 -1.37512e-19)
(0.97635 2.34392 3.61388e-19)
(0.643817 1.75863 3.31642e-20)
(0.450394 1.29325 1.72646e-19)
)
;

boundaryField
{
    wall-4
    {
        type            noSlip;
    }
    velocity-inlet-5
    {
        type            fixedValue;
        value           uniform (1 0 0);
    }
    velocity-inlet-6
    {
        type            fixedValue;
        value           uniform (0 3 0);
    }
    pressure-outlet-7
    {
        type            zeroGradient;
    }
    wall-8
    {
        type            noSlip;
    }
    frontAndBackPlanes
    {
        type            empty;
    }
}


// ************************************************************************* //
