/*--------------------------------*- C++ -*----------------------------------*\
  =========                 |
  \\      /  F ield         | OpenFOAM: The Open Source CFD Toolbox
   \\    /   O peration     | Website:  https://openfoam.org
    \\  /    A nd           | Version:  6
     \\/     M anipulation  |
\*---------------------------------------------------------------------------*/
FoamFile
{
    version     2.0;
    format      ascii;
    class       volScalarField;
    location    "78";
    object      p;
}
// * * * * * * * * * * * * * * * * * * * * * * * * * * * * * * * * * * * * * //

dimensions      [0 2 -2 0 0 0 0];

internalField   nonuniform List<scalar> 
918
(
0.531638
1.22584
0.00640536
0.531542
-0.0115411
1.19356
-0.506952
0.627177
0.512788
-0.125
-0.0873964
0.514995
1.05044
0.819021
-1.17061
-0.0232497
0.626527
-0.421158
0.510835
-0.0804408
0.646443
0.519464
0.521929
0.512715
0.574945
0.771599
0.927862
-0.0031164
0.0109217
0.00576866
-0.013017
-0.0333978
-0.0299907
1.07668
1.12862
1.15181
0.479291
0.313458
-0.402122
-0.456881
-0.434428
-0.523803
0.627496
0.628648
-0.231786
0.627101
0.627043
0.498475
0.512182
0.513017
0.514143
0.51305
0.514329
0.382368
-0.131919
-0.158921
-0.109583
-0.108973
0.025761
-0.0882859
-0.0896069
-0.0847702
-0.0822556
0.428345
0.509642
0.506309
0.519016
0.528136
1.16601
1.13979
1.16589
1.07619
1.09392
1.02746
1.00049
0.839361
0.862638
0.803542
0.789571
-1.62498
-2.56827
-0.595492
-0.320782
-0.0104978
-0.0247281
-0.0233702
0.622692
0.626277
0.624609
0.628139
1.02744
-0.393113
-0.465404
0.511372
0.509895
0.51898
0.519884
0.514848
0.514848
-0.0771109
-0.0763626
-0.0669522
-0.0782494
-0.0773472
0.630038
0.630013
0.51215
0.509592
0.535795
0.557646
0.546067
0.245462
0.586965
0.602477
0.636387
0.782252
0.768797
0.781757
0.903215
0.871838
0.959178
0.980846
0.0140906
-0.00142972
-0.0245622
-0.0223678
-0.0228871
0.47503
0.468592
0.496686
0.482913
0.485956
0.219013
0.0692299
0.395454
0.418955
-0.326224
-0.37679
-0.462046
-0.459993
-0.567695
0.599598
0.62991
0.629655
-0.243257
-0.170624
-0.298684
-0.112798
-0.170314
0.489418
0.495675
0.491746
0.507142
0.501306
0.503732
0.516249
0.513433
0.515027
0.441696
0.570691
0.301129
0.275476
-0.281434
-0.177004
-0.261625
-0.101483
-0.0998307
0.0356479
0.0651699
0.0127252
0.000359847
-0.0946564
-0.0915344
-0.093986
-0.081579
-0.081891
0.419795
0.406733
0.439584
0.447106
0.496074
0.497455
0.502322
0.499983
0.951328
0.974426
0.980353
0.956423
-3.54204
-6.16694
0.0212007
0.17927
-0.00945459
-0.0107964
-1.02469e-05
-0.0101237
-0.000710235
-0.00276896
-0.0331638
-0.0328379
-0.0262192
-0.0273301
0.622377
0.62255
0.997029
1.02472
0.966877
0.942955
0.500726
0.5026
0.507223
0.504105
-0.0799659
-0.0777784
-0.0798588
0.626559
0.62835
0.627064
0.203987
0.114886
0.297325
0.328595
0.616722
0.605958
0.615479
0.695809
0.73631
0.998054
1.02191
1.00614
1.01906
1.06988
1.09282
1.0578
0.453584
0.464521
0.458782
0.499595
0.497395
0.498346
0.494922
0.495807
0.494476
-0.0418431
-0.41248
0.468558
0.469611
0.461586
0.464505
0.686374
0.769891
0.626773
0.62876
0.629445
-0.0610724
-0.10812
0.234059
0.205444
0.358765
0.39346
0.375219
0.926954
0.887371
0.93519
0.910538
0.874967
0.898472
-0.34846
-2.1071
-1.10441
0.577671
0.381479
0.472953
-0.0164787
-0.0329586
-0.0296086
1.01573
1.05623
0.638187
0.824001
0.777778
0.759029
0.785182
0.846867
0.78191
0.814548
0.843448
0.818335
0.549217
0.478981
0.497157
0.844901
0.900055
0.0770574
-0.00236283
-0.0253958
0.0900779
0.16442
0.130274
1.03397
0.952663
1.01437
0.509833
0.510785
-0.0183517
-0.0421661
0.514898
0.514608
-0.0224624
-0.0129721
0.488322
-0.937732
0.0781044
0.504439
0.494051
0.510901
-0.104579
0.312109
-0.0895514
0.00466463
-0.0265669
0.504663
0.440677
0.398361
-0.00765494
-0.0324697
-0.0732613
-0.217911
0.507571
0.50593
0.51029
0.511107
0.511886
-0.0280077
-0.0275567
-0.0190632
-0.0668289
-0.0610717
-0.0712281
0.474158
0.494315
-0.198426
0.510582
0.512686
0.512381
0.506604
0.51153
0.510167
-0.0239339
-0.0274521
-0.0293406
0.183736
0.325615
0.671132
0.745628
0.6206
0.454319
0.163329
0.608209
0.659883
0.585391
0.715999
0.626712
0.624295
0.145157
0.00121151
0.14923
0.0822844
0.501265
0.500716
0.491571
0.488445
0.505735
0.503409
0.508609
0.505853
0.509026
0.51017
-0.0588447
-0.0897565
-0.106676
-0.150339
0.275485
0.532742
0.216123
0.239074
0.149324
-0.0820787
-0.0820714
-0.0845199
-0.0890528
-0.0452531
-0.0457411
-0.00195329
0.00895024
-0.00738286
-0.0331914
-0.0542225
-0.0470453
-0.0563403
0.498041
0.498839
0.503818
0.512988
0.450317
0.454021
0.420376
0.439082
0.425271
0.365396
0.395
0.372177
-0.018731
-0.00896948
-0.0106667
-0.0332927
-0.0324545
-0.0531416
-0.0456791
-0.0445822
-0.0405881
-0.0453202
-0.0681245
-0.0744708
-0.181795
-0.301719
0.946264
0.861983
0.132997
0.497461
0.503135
0.5003
0.505044
0.50824
0.508868
0.506432
0.50292
0.494405
0.495951
0.492647
0.493887
-0.136274
-0.246452
-0.0776217
-0.154368
0.141809
0.607519
0.332851
0.277478
0.262625
0.4908
0.687191
0.594855
0.649012
0.622481
-0.39877
0.000128203
-0.332974
0.212869
0.208228
0.697048
0.738303
0.75624
0.713642
0.670084
-0.0292843
0.541454
-0.0824401
-0.0305296
0.161551
0.0429309
0.611042
0.613251
0.620656
0.618468
0.623934
0.619985
0.605572
0.598956
0.618646
0.623619
0.483968
0.21205
0.16872
0.12287
0.612634
0.506351
0.555659
0.475464
0.496895
0.499328
0.49829
0.47896
0.486327
0.481984
0.489212
0.492858
0.500217
0.500402
0.496209
0.498154
-0.0831771
-0.0912361
-0.0731765
-0.132057
-0.13696
-0.180291
-0.0922856
0.0821494
0.0290825
0.230044
0.361298
0.057013
-0.0600408
-0.0439952
0.00882986
0.162918
0.17107
0.0433101
0.154534
0.107946
0.101745
0.190946
0.21405
-0.0562719
-0.0626272
-0.0634069
-0.0691501
-0.018633
0.102546
0.0733991
-0.0339855
-0.0409255
-0.0778813
-0.078711
-0.00788491
-0.0463191
-0.0385157
-0.0112662
-0.060791
-0.0356385
-0.0263658
-0.0338621
-0.0347201
-0.034116
0.493824
0.495416
0.495805
0.50412
0.516223
0.530814
0.497861
0.47155
0.462575
0.465674
0.438697
0.447967
0.443188
0.459039
0.480697
0.488835
0.487194
0.4899
0.471868
0.473565
0.459028
0.463644
0.432816
0.414023
0.403833
-0.0569022
-0.0242435
-0.0378089
-0.0498742
-0.0246984
-0.0339558
-0.0345428
-0.015688
-0.0351673
-0.0301096
-0.0398648
-0.0445815
-0.0451166
-0.0842037
-0.00246725
-0.185372
-0.234128
-0.287265
0.871597
1.01106
0.785622
0.57536
0.582325
0.817051
0.922814
0.533092
0.702811
0.742977
0.567205
0.856557
0.501411
0.500996
0.498857
0.498023
0.499023
-0.0239164
0.0797749
0.0901083
0.150208
0.266121
0.371412
0.304411
0.191182
0.323537
0.347953
0.604205
0.611664
0.569891
0.59174
0.592909
0.4003
0.481
0.519267
0.476112
0.551964
0.583999
0.529023
0.572
0.493692
0.442902
0.434483
0.389435
0.424009
0.40509
0.379378
0.493081
0.469894
0.48088
0.470724
0.492625
0.51832
0.518516
0.538741
0.555514
0.471759
0.417824
0.435023
0.463869
0.419422
0.436919
0.458831
0.179284
0.0816623
0.243929
-0.0833621
0.0013281
0.041476
-0.00167055
-0.0430251
0.263637
-0.373013
-0.319853
-0.995227
0.488383
0.826868
0.555397
0.566876
0.62357
0.612975
0.622645
0.626197
0.627754
0.600991
0.61054
0.615435
0.580091
0.6007
0.596291
0.603581
0.488557
0.388622
0.391906
0.32318
0.183587
0.225462
0.416904
0.348411
0.273455
0.26543
0.441936
0.306746
0.386544
0.436156
0.359427
0.295329
0.521833
0.570499
0.564074
0.535565
0.41364
0.446979
0.448367
0.498652
0.542038
0.567124
0.487766
0.494074
0.494985
0.492247
0.490616
0.493735
0.494008
0.496307
0.496475
0.499064
0.498547
-0.0803976
-0.0666758
-0.0792047
-0.0873135
-0.0219312
-0.0321332
-0.00856214
-0.0327121
-0.0380595
-0.0346186
-0.0505743
-0.066526
-0.0640985
-0.0542073
0.0639753
0.0850864
0.0787895
0.0382551
0.226763
0.404755
0.467468
0.336673
0.186777
0.20446
0.293831
0.0160785
0.00783767
-0.00712193
0.0633557
0.0500111
-0.0667741
-0.0719478
-0.0666862
-0.0550691
-0.0483669
-0.0673012
-0.0705924
-0.0607053
-0.0676799
-0.0742282
-0.0764729
0.473209
0.466129
0.469669
0.46213
0.460312
0.47725
0.481896
0.482887
0.488465
0.491197
0.480557
0.486224
0.490527
-0.0359686
-0.0522341
-0.0524669
-0.0547131
-0.0513527
-0.0489527
-0.0524921
0.118202
0.0246193
0.0609509
-0.0103766
-0.137254
-0.077942
0.492663
0.486607
0.474459
0.711626
0.547262
0.466622
0.566115
0.686634
0.266219
0.465286
0.300662
0.877181
0.784686
0.929589
0.544946
0.246188
0.416301
0.424918
0.26661
0.390431
0.330647
0.206415
0.241719
0.277177
0.360874
0.246367
0.2257
-0.0169564
0.164813
0.274143
0.25624
0.382692
0.43923
0.256194
0.171918
0.118136
0.583045
0.603227
0.61116
0.582393
0.604051
0.562803
0.554101
0.569146
0.578936
0.575303
-0.629488
-0.217853
-1.41768
-0.83328
-0.381508
0.515811
0.518868
0.739184
0.641175
0.649573
0.631472
0.579263
0.553097
0.594043
0.605883
0.312328
0.397023
0.384679
0.359615
0.305969
0.248598
0.520442
0.530212
0.55286
0.580603
0.556409
0.584505
0.486541
0.486389
0.485041
0.481293
0.479787
0.483093
0.012427
-0.0116068
0.022305
0.0102207
-0.0115083
-0.0128624
-0.0423506
-0.0535174
-0.0549398
-0.0513944
-0.0408781
-0.0391155
0.164725
0.102516
0.0136211
0.0551294
-0.01153
-0.0940088
-0.0964471
-0.00509856
0.0953601
0.0768487
0.381649
0.648805
0.474472
0.640531
0.440363
0.539196
0.456696
0.42989
0.457421
0.362566
0.453086
0.0490331
-0.153488
-0.208358
0.811179
0.772763
0.552077
0.31063
0.19078
0.481164
0.501427
0.462071
0.488067
0.537941
0.521338
0.0186589
0.104413
0.194131
0.499071
0.272719
0.291532
0.281279
0.448669
0.41682
)
;

boundaryField
{
    wall-4
    {
        type            zeroGradient;
    }
    velocity-inlet-5
    {
        type            zeroGradient;
    }
    velocity-inlet-6
    {
        type            zeroGradient;
    }
    pressure-outlet-7
    {
        type            fixedValue;
        value           uniform 0;
    }
    wall-8
    {
        type            zeroGradient;
    }
    frontAndBackPlanes
    {
        type            empty;
    }
}


// ************************************************************************* //
