/*--------------------------------*- C++ -*----------------------------------*\
  =========                 |
  \\      /  F ield         | OpenFOAM: The Open Source CFD Toolbox
   \\    /   O peration     | Website:  https://openfoam.org
    \\  /    A nd           | Version:  6
     \\/     M anipulation  |
\*---------------------------------------------------------------------------*/
FoamFile
{
    version     2.0;
    format      ascii;
    class       surfaceScalarField;
    location    "78";
    object      phi;
}
// * * * * * * * * * * * * * * * * * * * * * * * * * * * * * * * * * * * * * //

dimensions      [0 3 -1 0 0 0 0];

internalField   nonuniform List<scalar> 
1300
(
3.75095
5.62643
-3.33107
3.75095
-7.7614
5.62643
-4.27904
4.27904
-0.372671
0.372671
1.8765
1.87446
-2.42922
2.42922
-1.73009
1.73009
-2.52404
2.52404
-5.24813
5.24813
-5.06966
5.06966
4.69764
-4.69764
-6.33693
6.33693
-0.957168
0.957168
-3.57833
3.57833
3.17243
-3.17243
-1.85854
1.85854
0.0882615
-0.0882615
-0.554083
4.30504
3.19687
3.19687
-1.98916
1.98916
-4.87514
4.87514
6.22252
-6.22252
5.24397
-5.24397
-1.91289
-2.50628
1.79851
-11.4754
-5.96289
-5.96289
-8.44099
8.44099
-2.81456
2.81187
2.9473
-2.9473
-1.72282
1.72282
-4.29682
0.0177819
-4.29682
4.24876
0.0302746
4.24876
-0.490028
0.117358
-0.490028
3.95656
-3.95656
0.274523
0.0981481
0.274523
3.06732
-3.06732
-1.87685
3.75335
1.8741
-1.8721
6.17713
-1.87886
3.75331
-6.07596
6.07596
-2.67879
0.249576
-2.67879
2.19562
0.233599
2.19562
-6.89303
6.89303
-1.77928
0.0491837
-1.77928
1.73556
-0.00546709
1.73556
2.88851
-2.88851
-2.62333
0.0992897
-2.62333
2.39157
0.132476
2.39157
0.353347
5.27308
-5.97978
8.79165
-5.27308
0.0249574
5.21034
0.0377852
5.21034
-5.10525
0.0355967
-5.10525
5.01304
0.0566206
5.01304
4.78601
-0.0883721
4.78601
-4.81757
0.119937
-4.81757
-3.36115
-4.07506
-6.49717
0.160246
-6.49717
-1.03495
0.0777852
-1.03495
0.854141
0.103027
0.854141
-3.73126
3.73126
-3.93553
0.357204
-3.93553
3.1274
0.0450264
3.1274
1.86812
1.88283
5.61907
-5.61907
2.44665
-1.78495
-0.0735933
-1.78495
-1.94253
-3.30144
1.94253
-0.0839872
-0.131356
0.219618
-0.131356
3.15712
0.0397464
3.15712
2.22686
0.164706
-2.22686
0.237698
3.30254
-3.30254
1.3296
0.659562
1.3296
-5.55825
5.55825
4.96182
0.0512165
-4.96182
0.0866781
6.15702
0.0654945
6.15702
-6.20778
-0.0147419
-6.20778
2.48609
-4.99238
-2.6635
6.15007
0.186857
-6.15007
0.187177
2.91891
0.0283899
2.91891
-2.91846
2.91846
-2.98427
0.0369656
-2.98427
-2.145
0.422179
-2.145
1.40899
0.31383
1.40899
-4.21335
-0.0834691
-4.21335
-4.09394
0.158409
4.09394
0.154822
1.11964
-1.11964
-0.604693
0.114665
-0.604693
-4.06203
-0.15132
4.06203
-0.105469
-3.89598
-0.0605778
-3.89598
-3.02194
0.0376713
3.02194
0.0453741
3.11212
0.0450044
-3.11212
0.0448043
-1.87099
3.75383
-1.87996
3.75406
-5.69743
-0.378522
-5.69743
6.36007
-0.284113
6.36007
3.10257
0.475755
-3.10257
0.423779
2.01225
0.183369
2.01225
-6.86549
-0.0275422
-6.86549
6.8994
-0.00636296
6.8994
1.87589
0.136357
-1.87589
0.0966157
1.73474
0.000822394
1.73474
2.91636
-0.0278482
2.91636
-2.88211
-0.00639701
-2.88211
2.79097
-2.79097
2.71559
0.0753765
-2.71559
0.0922578
-11.124
11.1092
-0.036366
-11.0876
5.17397
5.17397
4.23931
0.546701
4.23931
-5.01389
0.196321
-5.01389
2.66838
-5.33189
3.1103
-6.47145
4.67054
-16.1459
4.28979
-8.36485
6.74821
-6.74821
6.62962
0.11859
-6.62962
0.132451
-1.13662
0.101663
-1.13662
-3.12838
-0.602889
-3.12838
4.36602
-0.634755
4.36602
-3.02755
3.02755
-3.07634
0.0487904
3.07634
0.051057
1.74487
-0.0101307
-1.74487
-0.040078
0.180969
0.0935538
-0.180969
0.0496126
3.52567
-0.223134
3.52567
-3.09757
-0.204962
-3.09757
-1.22982
0.0932015
1.22982
0.0997849
-5.80768
0.249431
-5.80768
-11.1817
0.094063
-11.1439
-6.11371
-6.11371
2.32728
11.1189
-2.89735
0.015234
2.89735
0.0215694
2.97482
0.0527308
-2.97482
0.0563651
-2.85726
0.0662937
2.85726
0.061194
-2.51253
0.367531
-2.51253
-1.02526
1.02526
-1.17221
0.146954
1.17221
0.236782
1.42059
-0.30095
1.42059
0.740846
0.113295
-0.740846
0.136153
-3.84078
-0.0551988
-3.84078
6.59852
-0.238455
6.59852
-2.96826
-0.129317
2.96826
-0.0518999
-0.0349935
11.1442
-5.13898
0.0337289
5.13898
-11.2097
11.2434
-3.21753
0.704992
3.21753
1.02178
5.28335
0.274907
-5.28335
0.269453
6.83945
0.0599509
-6.83945
0.0912334
-2.63763
-0.490748
-2.63763
-5.10479
-0.592644
5.10479
-0.73877
-11.482
-0.203003
11.685
-11.4254
6.01069
0.146336
-6.01069
11.3898
-0.996087
-0.123556
0.996087
0.029172
1.75985
-0.33926
1.75985
3.74408
-0.218412
-3.74408
-0.0967026
-6.75592
-0.109575
6.75592
-0.157394
-2.1882
-0.449424
2.1882
-0.428351
-4.26739
4.30713
1.90974
-2.32836
-2.66401
-5.6298
1.85528
1.89855
4.30193
-10.1472
-5.99868
-9.96006
7.21425
-6.9448
-9.32258
9.23421
7.94075
-8.00133
-5.77735
5.82841
6.48473
-6.43936
1.87946
1.87389
8.06915
-7.81957
-15.6722
15.2937
7.61836
-7.56917
15.8243
-15.8518
-17.8623
17.9223
-5.70715
5.80644
-6.74308
6.73668
-6.97989
6.92799
-2.79917
-3.67228
13.1158
-12.9555
8.60235
-8.67594
-8.67973
9.03693
3.38461
0.92252
3.42962
-1.88179
3.76124
-1.87153
3.78127
2.76368
-5.56285
2.56821
-5.23222
4.38447
4.21788
-4.30049
-1.32932
-5.92883
5.95722
-5.80933
5.87052
9.1838
-9.16602
-1.88498
3.75887
-1.86908
3.76763
-3.42295
-2.3544
3.37792
0.924005
8.06469
5.0511
-8.25154
-1.70852
-8.03094
7.81252
-8.21689
8.01193
-0.436155
5.83859
-5.40243
4.43899
-1.65302
7.4916
5.56124
5.75756
5.86065
-5.58575
1.08415
-6.48658
-6.3999
-2.25024
2.3649
2.135
-2.03685
6.15181
1.78894
6.04634
-5.81211
-2.18922
-5.86731
3.81974
2.00867
3.86853
4.08217
2.40257
4.11984
3.02955
-3.03678
0.00722613
-3.05932
6.08888
0.722095
-5.41373
-4.48972
4.99331
3.07584
5.22691
-5.59688
-2.22269
-5.1731
-9.58294
-6.08927
-10.1756
10.0869
5.2068
9.80277
-11.9482
11.7908
4.86722
2.75113
4.86176
-4.97958
-2.58959
-4.88297
11.6835
-2.65524
-9.02826
-10.3288
-7.53346
10.3352
5.48906
10.9698
6.95241
11.0611
4.42618
7.25732
-9.91524
2.38178
-3.86777
-1.83939
-3.77551
3.66159
2.14486
3.79406
-4.21887
-2.52421
-4.20364
-4.29533
-2.68455
4.32318
2.4135
-4.41738
-3.79952
4.54669
2.38129
4.05402
-10.0527
4.31083
-7.98311
-9.19967
-3.75586
-9.06722
3.56478
2.59837
-6.16314
-1.99807
8.55961
-4.34173
7.23029
-5.19472
-3.48122
-5.2348
-6.96895
-1.71078
-6.81054
-8.92197
8.43122
-9.2155
8.58075
12.5125
-5.63442
-6.87805
-3.96702
-2.47234
3.92222
-0.492599
-3.71003
3.71726
0.0512099
3.83248
4.755
4.2624
-3.8824
-1.92693
-3.82603
3.8215
2.04902
3.88779
6.85306
2.33074
6.88333
-6.61911
-2.54691
-6.70258
9.09597
-8.67379
2.78902
-2.69582
5.37818
2.63375
-5.15504
-2.87589
6.23392
-3.20757
-3.02635
-12.3483
10.7917
1.55656
-4.85665
-0.417668
-0.505929
-5.56782
-3.75476
5.44788
0.309675
11.1014
7.34661
-5.51446
5.76389
6.17054
6.22176
-0.178144
5.8861
-5.18111
5.26888
-2.73155
-2.53734
5.4824
-5.63372
-1.22018
-5.5568
4.33662
0.412618
1.48228
-1.26266
-1.76291
-0.487326
-1.62676
1.16447
0.970534
1.25802
0.959576
1.40533
-2.9194
0.514168
2.40524
-1.95983
-1.52268
-3.82122
-1.15351
4.97473
5.73655
2.07598
-5.63984
-0.227469
2.5514
-2.44837
-0.839945
-2.98127
2.22929
-3.06923
-3.46787
-1.94425
5.41212
-3.36871
-0.457324
3.31598
0.552551
-3.8282
-2.10063
3.79124
0.328603
-3.12892
6.19021
-3.06129
-5.05585
2.52897
3.55991
4.53764
-4.78994
2.44924
2.3407
-1.23003
4.2588
0.968107
4.44217
-7.07174
4.84905
5.74047
3.29646
-6.21623
1.04312
-6.02861
8.54947
-7.40687
-1.1426
4.08469
4.46478
7.03191
5.48055
-5.67532
12.7072
-1.16236
-6.24451
7.19097
-3.89451
4.86902
-8.76353
-10.3496
4.10506
-9.20863
11.0807
-1.87204
-3.59964
-8.34855
12.8083
-1.21576
-11.5925
8.58701
-4.34843
-4.41567
8.7641
-7.00366
7.00526
-1.98685
-5.01841
-10.1474
-5.70444
10.2569
1.53386
-9.96014
12.3419
-2.70283
4.16026
0.701497
4.16108
3.36108
-5.47926
2.11818
3.64258
-5.62943
2.05207
-7.53132
-6.75403
12.0949
-5.34083
-10.5099
-9.5437
-0.966196
2.54769
9.79424
-9.5001
7.43126
2.06884
3.29691
0.590887
-3.37228
-0.403226
0.236172
4.51013
-4.7463
4.03023
4.19494
3.21743
1.29269
3.84947
2.10775
-3.87104
-0.332596
-4.16843
1.48388
-1.75493
-3.69408
5.17796
-4.06202
0.367948
-2.74277
-3.49222
6.23499
-4.58216
3.03586
3.15435
5.08488
-4.91434
1.42213
-2.39098
-2.52336
2.6399
-4.39483
2.00123
3.17673
4.38252
0.583007
5.91095
6.18392
-8.50932
0.526206
11.235
-9.5265
2.47942
8.58166
-9.91068
0.366974
-8.70025
0.976927
-5.31866
-5.18622
5.2255
-6.93627
-3.53804
6.25281
0.630523
-6.40763
-0.402913
-6.06273
-2.85924
-6.51216
-3.05945
-6.15605
-8.73477
-1.67228
-7.06249
6.75894
-6.67844
-3.49714
7.41721
1.16353
-7.47634
7.35278
-7.53433
7.19507
0.0950164
3.62224
4.35742
1.88508
-2.39221
4.2773
-5.0758
7.40655
-8.75253
3.67673
4.2452
-6.79211
-4.50733
5.05568
4.04028
5.36951
8.91483
-10.3645
1.44968
-10.638
11.978
-1.34
-16.4138
5.77583
-7.499
2.41917
0.36985
2.52083
0.545476
2.50603
-3.05151
-2.15034
-2.05056
-2.44665
-3.4933
5.93996
1.05912
-3.47679
2.41767
-3.56178
4.6209
-0.0818095
-3.39498
5.19045
-2.68442
5.5603
-3.64359
1.91672
3.5495
5.84163
-2.29213
4.42117
-1.78741
1.94803
-4.24016
-1.54527
-2.95223
5.09709
-3.28276
3.65071
-0.350787
4.00149
-4.03781
0.830243
-0.820377
3.37456
3.61226
4.33278
-3.04008
2.93373
-4.72115
-1.30643
-4.13814
-0.961409
-0.181722
-3.78032
3.96204
5.9981
-6.17982
-5.27871
9.51905
-4.24035
7.69886
-5.43633
-2.26253
-4.28799
-4.38579
3.92046
1.96564
9.6645
0.179201
-5.61553
-5.00191
-3.98013
3.08388
2.18501
-1.72483
3.28139
2.23076
-0.748477
0.392198
0.865823
1.75872
-1.36653
0.347228
1.4115
-0.915436
1.69064
0.860763
-1.80393
0.177172
-1.32388
3.55317
1.08136
-2.05189
0.685364
0.887888
-3.61944
5.09949
-2.7363
-2.36318
5.98738
1.14585
-3.88216
4.41094
-3.99832
2.45078
-3.60429
-1.43138
-5.4297
-3.64076
-2.48221
4.89988
-3.45774
5.53372
1.43201
-5.30625
6.73826
-3.62725
1.683
-3.0606
3.92137
-0.993644
-2.06696
2.8751
2.53702
-3.14026
0.158987
-0.265159
2.41679
-2.68195
-0.652444
-2.61227
-4.57614
4.90474
-2.10373
4.55296
2.17357
-1.91772
6.47068
1.80759
-3.72531
-3.24826
-3.70558
-1.38461
3.15303
-0.574911
-4.30805
-5.59332
4.1717
0.270475
-7.06343
7.93211
-0.868684
-3.98759
-0.861458
4.94615
-6.09612
0.466684
-4.04405
3.88806
4.85617
5.12664
-11.3596
-0.232955
-6.15275
1.09407
-7.24682
5.55885
-3.55997
7.66503
-10.3108
6.81366
-9.14726
6.52243
-0.724387
6.24887
-4.1307
2.77938
-8.48383
-6.94997
5.58918
-2.83804
6.29067
-3.22323
9.5139
-5.92605
5.37785
4.13605
-1.06611
-4.16869
-5.36011
4.294
0.0177401
4.17882
4.98726
-2.87951
4.65466
2.26438
-4.65536
-2.13046
-6.48834
1.83298
-3.33399
-1.9227
3.75567
3.16219
3.75307
1.23231
-3.34985
7.25143
-8.21763
-1.91059
-3.27562
5.33789
-1.04389
3.46199
-6.73761
-1.85667
4.74323
-0.72612
-4.01711
0.891189
-4.42923
1.67405
-6.10327
5.26222
-5.66513
2.25446
-9.75347
-5.22187
-5.1927
-2.27842
-5.25591
-7.57175
5.29333
-1.79592
5.55686
-8.50776
7.78164
-3.47024
8.76357
-5.45922
-1.05293
5.88757
1.30749
10.0711
0.165914
-4.67324
-1.94252
3.72697
-1.78445
1.14136
-3.6144
0.112567
2.49204
3.49533
-6.82866
0.036549
-4.63669
-3.90833
7.94862
5.61072
11.6088
1.2443
9.13383
-1.18522
10.3781
4.1843
4.42108
-3.00437
4.45405
0.957669
4.6344
-0.905693
2.82241
1.61514
1.69292
0.755448
2.303
1.30926
3.13325
0.0817371
-1.96882
4.63171
-8.61184
-0.983817
-8.06514
1.16907
5.42969
-4.26062
2.86318
-0.678174
1.07873
-0.19436
-1.16196
1.35632
-2.7317
-1.91044
-0.498945
-1.66397
2.34933
1.8892
-1.85039
-0.881311
0.329768
-3.97053
3.27452
-3.11554
-0.578519
6.15974
-2.88945
0.207508
-1.20645
-2.40476
-2.89209
2.71492
6.17434
0.296344
3.11305
5.20108
3.10045
0.220941
3.81741
-5.68945
-3.71391
-5.92241
-0.363558
4.58259
1.76697
8.02726
5.90302
4.85913
-1.87848
-10.0961
6.50348
-2.04942
5.16348
-1.14637
-4.95691
5.0759
2.33065
-5.70642
0.0412834
-4.91562
-6.96505
-0.479811
8.26145
-9.59126
8.53832
5.67909
1.3834
-4.43468
-0.758017
4.28773
0.133351
10.5115
-0.912707
-7.04553
7.95824
-4.51698
3.53316
0.673789
2.6076
2.03011
1.35194
-5.69359
-9.95421
-2.07126
-1.54817
-4.43445
0.540283
-2.42948
6.06817
-2.53501
3.80564
5.42323
6.50196
-2.04728
-4.13254
6.28763
-2.48198
4.01997
)
;

boundaryField
{
    wall-4
    {
        type            calculated;
        value           uniform 0;
    }
    velocity-inlet-5
    {
        type            calculated;
        value           uniform -3.75095;
    }
    velocity-inlet-6
    {
        type            calculated;
        value           uniform -5.62643;
    }
    pressure-outlet-7
    {
        type            calculated;
        value           nonuniform List<scalar> 8(3.33107 7.7614 4.41918 9.67688 7.43621 5.1496 5.77868 8.96033);
    }
    wall-8
    {
        type            calculated;
        value           uniform 0;
    }
    frontAndBackPlanes
    {
        type            empty;
        value           nonuniform 0();
    }
}


// ************************************************************************* //
