/*--------------------------------*- C++ -*----------------------------------*\
  =========                 |
  \\      /  F ield         | OpenFOAM: The Open Source CFD Toolbox
   \\    /   O peration     | Website:  https://openfoam.org
    \\  /    A nd           | Version:  6
     \\/     M anipulation  |
\*---------------------------------------------------------------------------*/
FoamFile
{
    version     2.0;
    format      ascii;
    class       volVectorField;
    location    "78";
    object      U;
}
// * * * * * * * * * * * * * * * * * * * * * * * * * * * * * * * * * * * * * //

dimensions      [0 1 -1 0 0 0 0];

internalField   nonuniform List<vector> 
918
(
(0.985049 -0.000715426 0)
(0.0053691 2.96622 0)
(-0.00293408 0.87978 0)
(0.979575 0.00196182 0)
(-0.0138389 2.06521 3.29874e-20)
(-0.00710904 2.94857 -2.55753e-18)
(0.819927 1.12188 4.48003e-19)
(0.110968 0.0757739 -1.39954e-20)
(0.999922 -0.000245187 0)
(0.0912428 0.666697 0)
(0.0124758 0.369691 0)
(0.732115 0.0061359 0)
(0.0101647 2.9317 0)
(0.00350316 2.79443 0)
(-0.00233655 3.17843 8.28866e-19)
(-0.0136041 1.92795 2.25384e-20)
(0.294237 0.0423927 9.77758e-19)
(0.233284 1.10931 3.55447e-19)
(0.964334 0.00674423 0)
(-0.000820158 0.38062 0)
(0.0405482 -0.0237599 -6.4584e-19)
(1.00183 -0.00455989 0)
(0.99985 -0.00892642 0)
(0.975168 -0.00605177 0)
(0.591811 0.026389 0)
(0.0206859 2.64485 0)
(-0.0122685 2.91187 9.34511e-19)
(-0.00631732 0.932171 0)
(-0.0326275 1.17072 0)
(-0.00409268 0.901687 0)
(-0.0227219 2.58806 0)
(-0.00465485 2.11543 -2.63484e-20)
(-0.0097985 1.90096 0)
(-0.0221073 2.98761 -9.21385e-23)
(-0.0164778 3.00549 1.98693e-18)
(0.00230061 3.00057 0)
(0.871975 -0.00975903 0)
(0.374722 0.913341 1.63455e-19)
(0.81874 1.14054 -5.61633e-19)
(0.950997 1.00716 5.71867e-19)
(0.681374 1.22339 -1.02585e-19)
(0.694876 1.18349 5.84823e-19)
(0.139207 0.129729 1.36516e-20)
(0.146766 0.0826447 0)
(1.16748 0.532741 0)
(0.108813 0.105882 6.15553e-20)
(0.0852666 0.058805 -6.38818e-20)
(0.920565 -0.00704762 0)
(1.00027 5.46733e-05 0)
(0.999907 0.000320414 0)
(1.0037 -0.00728019 0)
(1.00088 -0.000948945 0)
(1.00011 -5.74284e-06 0)
(0.09169 1.84599 -7.25404e-19)
(0.0335358 0.851343 0)
(0.127638 0.756724 0)
(0.0182844 0.793243 0)
(0.0516134 0.581869 0)
(0.00472202 2.03255 0)
(-0.00899128 0.699309 0)
(0.00657947 0.394548 0)
(-0.018455 0.697516 0)
(0.0128047 0.364403 0)
(0.843725 -0.0156155 0)
(0.841601 0.0273848 0)
(0.7583 -0.000715559 0)
(0.799749 0.0271843 0)
(0.70286 0.0145231 0)
(0.0139047 3.00023 9.48942e-19)
(0.0111071 3.00602 0)
(0.00618669 3.00383 0)
(0.0118784 2.99717 1.0768e-23)
(0.00820772 2.9588 -1.41036e-18)
(0.0122255 2.98301 0)
(0.00909017 2.9048 0)
(0.020988 2.93181 2.18269e-24)
(0.00409679 2.82397 0)
(0.0253292 2.91888 0)
(-0.00119418 2.74487 0)
(0.305261 3.5728 0)
(-0.122175 3.65555 0)
(0.148992 3.26903 -7.71404e-19)
(0.00318766 3.00679 0)
(-0.0306284 1.98997 0)
(-0.00722663 2.1788 -2.22291e-20)
(-0.00958583 1.94004 2.26418e-20)
(0.347262 0.139863 -3.39629e-19)
(0.321245 0.012862 -3.31045e-19)
(0.301178 0.153748 -1.01491e-18)
(0.260072 0.0622951 -6.60744e-19)
(0.263605 1.02432 0)
(0.332512 1.24017 -3.67555e-19)
(0.414476 1.15147 6.06547e-19)
(0.987712 0.00816133 0)
(0.943229 0.00577561 0)
(1.00028 0.000671827 0)
(1.00254 0.00906615 0)
(1.00311 0.00899375 -2.61553e-18)
(0.992135 0.00941712 1.97641e-18)
(-0.0234198 0.725444 0)
(-0.000572563 0.383055 0)
(-0.0533228 1.01755 0)
(-0.0325745 0.784036 0)
(-0.0121563 0.383554 0)
(-0.0672442 0.0914518 2.00714e-19)
(0.0383851 0.0488352 0)
(0.993626 -0.00769258 0)
(0.954053 -0.0064848 0)
(0.741315 0.0317911 0)
(0.67246 0.0230636 0)
(0.659239 0.0234642 0)
(0.980482 -0.00252915 0)
(0.587241 0.0648573 0)
(0.452434 -0.0150029 1.49027e-18)
(-0.0410588 2.85988 7.31216e-19)
(0.0338115 2.91416 0)
(0.0426801 2.89263 0)
(0.00312527 2.70203 0)
(-0.00883098 2.9866 8.93425e-19)
(-0.0141833 2.8947 0)
(-0.0109356 2.99192 -2.75267e-18)
(-0.0116213 2.92969 9.36899e-19)
(-0.0473295 1.34774 0)
(-0.0168595 1.3765 0)
(-0.00765084 2.14029 8.04891e-22)
(-0.00754932 2.09945 0)
(-0.017009 1.91177 0)
(0.938918 -0.00518897 0)
(0.857344 -0.0111595 0)
(0.86302 0.00502899 0)
(0.949696 -0.00613006 0)
(0.883705 -0.00809709 0)
(0.498073 1.11316 -2.07601e-19)
(0.545383 1.18296 0)
(0.336774 0.848039 3.176e-20)
(0.2814 0.712638 0)
(0.920018 1.03654 -1.61689e-19)
(1.04317 0.84721 3.26053e-19)
(0.392857 1.31887 0)
(0.543803 1.27436 0)
(0.597803 1.20106 0)
(0.10424 0.181785 -2.97805e-19)
(0.168192 0.143235 0)
(0.171082 0.0981813 1.83592e-19)
(1.00625 0.901201 0)
(1.08213 0.749464 0)
(1.11177 0.684869 -2.62338e-19)
(1.14835 0.595408 0)
(1.20442 0.391811 4.73096e-20)
(0.957522 -0.00709165 0)
(0.962742 -0.00810723 0)
(0.900935 -0.00737738 0)
(0.983932 -0.00812156 0)
(0.974435 -0.00802914 0)
(0.936553 -0.00656871 0)
(1.0002 0.00250552 0)
(1.00077 0.00123818 0)
(1 0.000760437 0)
(0.0440599 2.088 4.05183e-19)
(0.144531 1.78984 0)
(0.0192801 2.20319 6.09651e-19)
(0.052005 1.89417 -5.09285e-19)
(0.167395 1.08504 -2.9173e-19)
(0.0500773 0.937532 0)
(0.122223 0.93958 0)
(0.00683875 0.757966 0)
(0.0298683 0.505662 0)
(-0.00281948 2.25938 -3.38874e-22)
(0.0206323 2.03807 0)
(-0.00485182 2.25973 -5.70352e-21)
(0.0025982 2.04419 -1.31808e-21)
(-0.000471641 0.729591 0)
(-0.00600883 0.709944 0)
(0.0122927 0.442625 0)
(-0.0121596 0.699283 0)
(0.00823739 0.365262 0)
(0.939589 0.0139019 0)
(0.856584 -0.0115456 0)
(0.928728 0.00489061 0)
(0.846327 -0.0127762 0)
(0.810678 -0.00108963 0)
(0.897769 0.022878 0)
(0.873114 0.0273788 0)
(0.785311 -0.0035892 0)
(0.0102335 3.06793 -8.81074e-21)
(0.0150581 3.05884 0)
(0.0124491 2.97023 0)
(0.00768178 2.8767 0)
(0.894545 3.96598 0)
(1.18831 3.36238 9.36197e-19)
(0.0808204 3.08934 0)
(-0.0176095 2.91719 0)
(-0.0170345 1.40343 0)
(-0.0362832 1.69927 0)
(-0.0251566 1.53509 0)
(-0.0332378 2.54884 -1.47597e-20)
(-0.018386 2.24544 0)
(-0.0227591 2.38941 0)
(-0.000928643 1.97 -5.3557e-23)
(-0.00525217 2.2532 -2.87579e-20)
(-0.00632156 2.21648 -2.3229e-20)
(-0.00594956 1.9536 0)
(0.390008 0.114696 5.22241e-19)
(0.359806 0.00555153 -5.12573e-19)
(0.234426 1.59202 0)
(0.288544 0.768374 -3.20967e-19)
(0.179738 1.69224 -1.05242e-18)
(0.245559 1.22534 1.05276e-18)
(0.901645 0.00578505 0)
(0.96701 0.0107357 0)
(0.974875 0.00987522 0)
(0.922968 0.00582907 0)
(-0.0207329 0.705037 0)
(-0.0261766 0.716073 0)
(0.00164637 0.370186 0)
(0.0805925 0.0916692 5.65017e-19)
(0.0658458 0.0697655 -6.65413e-19)
(0.0455083 0.0453777 0)
(1.10806 0.090857 2.35789e-20)
(1.09166 0.0428025 0)
(1.01925 0.0438848 0)
(0.914246 -0.00134757 0)
(0.437784 0.0977635 0)
(0.497414 0.0790281 -2.38308e-18)
(0.39817 0.000182711 8.92483e-19)
(0.0106758 2.9773 7.77404e-19)
(-0.0323981 2.86148 4.71721e-20)
(0.00865131 3.05317 -1.86168e-20)
(0.0157966 3.0434 6.98722e-19)
(-0.0118098 2.99995 3.0845e-20)
(-0.012349 2.95224 -1.24573e-22)
(-0.0150378 3.01327 -5.77032e-19)
(0.01437 3.02663 4.05566e-19)
(0.007644 3.03477 -6.58119e-19)
(0.934786 0.00215692 0)
(0.939557 -0.0010989 0)
(0.848238 -0.011182 0)
(0.95625 0.0119399 0)
(0.942281 0.0134521 0)
(0.881555 0.00528634 0)
(0.91554 0.018022 0)
(0.925102 0.0152215 0)
(0.837167 0.00198893 0)
(0.67068 1.41123 1.81327e-20)
(0.688638 1.52161 0)
(0.118188 0.290353 6.72951e-20)
(0.213999 0.654496 5.31502e-19)
(0.240232 0.692424 -3.11946e-19)
(0.214081 0.493557 6.19205e-19)
(0.340937 0.833736 1.57624e-18)
(0.135896 0.237627 3.78531e-19)
(0.257044 0.166919 7.00662e-19)
(0.21022 0.163952 1.80965e-19)
(0.219706 0.0866697 3.44391e-19)
(1.19569 0.447659 9.90134e-20)
(1.2204 0.246755 9.66204e-20)
(0.00926045 2.24627 2.36842e-19)
(0.0387194 1.95833 0)
(0.973211 0.0331695 0)
(0.946971 0.0193092 0)
(0.871495 -0.0150883 0)
(0.0126622 3.07393 0)
(0.016717 2.94399 1.23118e-18)
(0.0139266 2.95665 0)
(0.00588238 2.84988 -1.2216e-18)
(0.00948095 3.09048 3.00387e-19)
(0.011268 3.08381 0)
(0.708138 1.8173 -1.70936e-19)
(1.23259 2.62175 5.77923e-19)
(0.692809 1.99527 -1.3943e-18)
(0.0219817 2.97569 -6.7477e-19)
(0.0401838 2.99743 0)
(-0.0385826 2.87781 0)
(-0.00631705 2.23862 -1.29719e-20)
(-0.00494031 2.25887 5.62927e-20)
(-0.00053092 2.00589 -7.10339e-21)
(0.268743 1.4037 1.02101e-18)
(0.287828 0.57237 -7.01018e-19)
(0.070052 2.00707 7.34821e-19)
(0.125137 1.87595 -8.85572e-19)
(0.208216 1.54376 1.01174e-19)
(0.00686185 3.11929 -1.6978e-18)
(0.0168636 3.11953 1.83816e-18)
(-0.00512164 2.98022 8.36329e-19)
(-0.000594627 2.97499 -8.03055e-19)
(-0.0178052 2.87787 -8.51824e-19)
(0.0125966 3.09906 -2.22934e-18)
(0.00511108 3.10756 2.21574e-18)
(0.268266 0.699912 0)
(0.219372 0.660259 -1.13525e-18)
(0.0746314 0.212324 4.99613e-19)
(0.347047 0.953837 1.11926e-18)
(0.200394 0.282221 -1.72382e-18)
(1.19904 0.176512 4.61227e-20)
(1.21702 0.306066 0)
(1.19453 0.121519 1.12617e-20)
(-0.000490728 2.26693 -1.14395e-21)
(0.00392552 2.25043 0)
(0.0323076 1.99468 0)
(0.313332 1.3189 -3.67151e-19)
(0.354185 1.17986 -7.96509e-19)
(0.233822 0.393535 1.42539e-18)
(1.00644 -0.00967991 0)
(1.00774 -0.00778315 4.80709e-19)
(-0.0416266 1.33018 0)
(-0.0506345 1.33484 0)
(1.00244 0.00326979 1.33696e-21)
(1.0032 0.00780994 9.86922e-19)
(-0.0244652 2.53543 1.87032e-20)
(-0.0274731 2.57788 0)
(0.04038 3.17229 4.76621e-19)
(0.373229 3.53917 0)
(1.15943 0.694372 -4.85392e-20)
(1.01178 0.010636 -2.84488e-21)
(1.02088 -0.00899291 0)
(1.00158 0.000286104 1.56407e-22)
(0.118781 1.37525 0)
(0.136025 2.58525 0)
(0.0353142 1.32734 0)
(0.000188471 2.63411 -7.64298e-21)
(-0.022134 2.58105 -1.21898e-20)
(0.998421 0.0314771 3.04257e-21)
(1.06306 0.00592201 0)
(1.10017 0.0285096 0)
(-0.034635 1.74649 0)
(-0.0199041 2.5796 0)
(-0.0164577 1.32198 0)
(0.308859 1.49078 -1.75185e-19)
(1.01152 -0.00905292 0)
(1.00971 -0.0129837 0)
(1.00227 0.000936047 6.15625e-19)
(1.00547 -0.00491097 -7.25759e-19)
(1.00113 -0.000862315 0)
(-0.0234871 1.46996 0)
(-0.0123956 1.39144 0)
(-0.0183095 1.43146 0)
(-0.0191105 1.30836 0)
(-0.031351 1.29861 0)
(-0.0257511 1.27744 0)
(1.03569 -0.00428232 0)
(1.01893 0.0154153 -9.08743e-22)
(0.812776 1.31224 2.83836e-19)
(1.00244 0.000388442 -6.15276e-19)
(1.00338 0.00444497 7.34442e-19)
(1.00126 0.00209238 0)
(1.01107 0.00963431 6.12814e-19)
(1.00683 0.00745293 -7.45951e-19)
(1.00712 0.0111083 0)
(-0.0245598 2.60671 0)
(-0.0276214 2.58591 -3.2127e-20)
(-0.0245664 2.59999 2.26818e-20)
(1.24285 0.274085 5.13261e-19)
(1.16357 0.0892038 0)
(0.0437152 3.09159 -9.52072e-19)
(0.0517926 2.87409 -6.7502e-20)
(0.103291 3.20177 1.27438e-18)
(0.12168 3.21357 -2.70377e-19)
(0.141126 3.25645 0)
(0.0224216 3.13766 2.61731e-19)
(0.0608627 3.16215 9.48407e-19)
(0.0614061 3.17871 -4.89655e-19)
(0.0266127 3.12972 0)
(0.553728 0.290218 0)
(0.497837 0.308316 0)
(1.14172 0.725802 1.06857e-19)
(1.10645 0.861575 -8.75119e-20)
(1.19951 0.611736 0)
(1.22641 0.545606 0)
(1.01569 0.0120283 -1.13832e-18)
(1.01466 0.0127527 1.43121e-18)
(1.02576 -0.00872015 0)
(1.02409 -0.0102894 0)
(1.0068 0.00324751 0)
(1.01088 0.00421643 0)
(1.00421 0.00221645 0)
(1.00935 0.00634753 0)
(1.00683 0.00504097 0)
(1.00438 0.00525974 0)
(0.1079 1.37525 0)
(0.0952097 1.3346 0)
(0.14216 1.42109 0)
(0.146707 1.40516 0)
(0.146467 2.61166 0)
(0.189535 2.68048 -4.05645e-19)
(0.102832 2.66894 0)
(0.0816937 2.66895 1.62794e-19)
(0.0255541 2.67351 -1.6113e-19)
(0.0195688 1.33431 0)
(0.0263814 1.25274 0)
(0.0215619 1.34382 0)
(0.0475547 1.27669 0)
(-0.00217581 1.99624 4.05588e-20)
(-0.0218844 2.60933 -4.24153e-20)
(-0.00609055 2.67644 -3.61677e-20)
(-0.0190094 2.68805 0)
(-0.0242047 2.61526 3.71622e-20)
(-0.0228145 2.61071 4.24778e-20)
(0.00460659 1.99298 -3.09218e-20)
(-0.0104884 2.40135 5.69017e-20)
(-0.0149446 2.42615 4.0999e-20)
(1.01204 0.0396692 1.15312e-18)
(1.00358 0.0212292 -1.43787e-18)
(1.00335 0.0476879 -1.17973e-18)
(0.974608 0.0380069 1.48683e-18)
(1.06473 0.00926066 0)
(1.04992 -0.00643555 0)
(1.09271 0.0377259 0)
(1.07591 0.0150904 0)
(1.07469 0.000590114 0)
(1.14134 0.0796331 0)
(1.11582 0.0463456 0)
(1.11915 0.0374846 0)
(-0.0300409 2.43122 3.67189e-21)
(-0.0211552 2.02324 0)
(-0.0211806 2.21994 0)
(-0.0219395 2.60048 -2.03809e-20)
(-0.0186393 2.61155 6.5521e-22)
(-0.0032079 1.59124 -5.66884e-20)
(-0.0125185 1.5136 5.7909e-20)
(-0.0235462 1.40509 0)
(-0.0275276 1.41068 0)
(-0.0343347 1.4015 0)
(-0.0126094 1.32385 0)
(-0.00161281 1.24391 0)
(0.385884 1.51536 2.93161e-19)
(0.434744 1.51939 1.54981e-19)
(0.591462 2.46522 -2.46475e-19)
(0.378276 2.56277 6.83766e-19)
(0.349685 2.05102 6.92777e-20)
(1.02071 -0.0079973 0)
(1.0158 -0.00935224 0)
(1.01485 -0.0132097 0)
(1.00773 -0.000551373 0)
(1.00485 -0.000682194 0)
(1.008 -0.00446967 0)
(1.00955 -0.00343224 0)
(1.01465 -0.00427378 0)
(1.01967 0.0163443 1.11693e-18)
(1.01715 0.0149077 -1.41623e-18)
(1.01996 0.0187769 -1.12561e-18)
(1.01746 0.0168502 1.41151e-18)
(0.76914 1.35904 0)
(0.707814 1.39492 2.49087e-19)
(0.876962 1.24021 1.04629e-19)
(0.913829 1.19972 -1.38863e-19)
(1.16387 2.61042 2.68126e-19)
(0.747615 0.129429 5.803e-19)
(1.17198 0.108022 0)
(1.2148 0.202761 -4.16713e-19)
(1.1961 0.154505 -1.73348e-20)
(1.01198 0.165484 0)
(0.0759138 3.01815 3.39503e-19)
(0.0819709 2.90306 -1.11995e-18)
(0.0233542 2.36052 7.09224e-19)
(0.154639 -0.263162 -3.15965e-19)
(0.341489 3.44326 -2.53355e-19)
(0.192668 3.33868 0)
(0.223187 3.39463 3.30025e-19)
(0.221016 3.07597 -1.18706e-18)
(0.253539 3.1944 0)
(0.00582022 3.12277 4.94839e-20)
(0.0165791 3.13132 -5.70014e-19)
(0.0154532 3.12713 8.38949e-19)
(0.0327195 3.14029 0)
(0.0308427 3.14963 0)
(1.25647 2.57388 0)
(0.538655 0.787852 -5.20141e-19)
(1.02692 1.03556 -1.63542e-20)
(0.993026 1.08837 0)
(0.861998 0.970628 -1.0413e-19)
(1.08571 0.911011 2.66992e-20)
(0.31533 0.303555 -7.85729e-19)
(0.642044 0.323571 -2.23966e-20)
(0.523653 0.216904 3.89217e-19)
(0.530468 0.323483 2.78682e-20)
(0.407593 0.270952 -1.11377e-18)
(0.59722 0.323451 0)
(0.689813 0.434314 6.55221e-19)
(0.693387 0.440713 0)
(0.564465 0.330063 0)
(0.468277 0.251574 0)
(0.800826 0.658526 3.87323e-19)
(1.25428 0.308132 -4.17035e-19)
(1.2472 0.439882 0)
(1.24754 0.395329 0)
(0.683775 0.186927 5.92354e-19)
(0.84794 0.561637 -3.65868e-19)
(0.76946 0.525903 6.53746e-19)
(0.966261 0.455335 -6.57187e-19)
(1.01845 0.0147158 7.59225e-19)
(1.01705 0.0136577 -7.64999e-19)
(1.0159 0.0141974 0)
(1.03708 -0.00450592 0)
(1.03048 -0.00768565 -7.17037e-19)
(1.02868 -0.0105754 7.0959e-19)
(1.02474 0.0110138 0)
(1.02271 0.0151177 0)
(1.01271 0.00473845 0)
(1.01457 0.00910389 0)
(1.01641 0.0042556 0)
(1.01556 0.00293962 0)
(0.0792471 1.36358 0)
(0.0802309 1.30432 0)
(0.154096 1.4235 5.65249e-20)
(0.27654 1.48715 8.56312e-20)
(0.176251 1.4588 1.9285e-19)
(0.212632 1.45683 -3.11739e-19)
(0.161591 1.43405 0)
(0.143621 1.58699 -7.75575e-20)
(0.141386 1.58235 0)
(0.346947 2.0021 -1.00868e-19)
(0.330198 2.33396 6.19322e-19)
(0.19592 1.46759 6.75771e-20)
(0.275234 1.40132 2.7323e-20)
(0.206526 1.40063 -2.22787e-20)
(0.288999 1.33979 -8.14398e-20)
(0.256853 1.57669 0)
(0.270004 1.62181 9.18595e-20)
(0.0222073 2.25236 -1.20649e-20)
(0.0365543 2.66698 0)
(0.0630556 2.40434 9.11556e-20)
(0.058016 2.42823 0)
(0.0678516 2.68626 -1.80744e-19)
(0.0419851 2.70152 0)
(0.0252429 1.46122 6.35956e-20)
(0.0332578 1.51762 0)
(0.0338425 1.42168 0)
(0.024526 1.43091 -7.26101e-20)
(0.00356102 2.66095 4.89784e-21)
(0.025494 2.68891 1.85162e-19)
(0.010771 2.73219 9.12e-22)
(0.00176289 1.84875 -2.5316e-20)
(-0.00513186 1.70158 -1.83693e-20)
(0.012451 1.31397 0)
(0.0206653 1.22676 0)
(0.0406584 1.59398 -1.19578e-20)
(0.0428009 1.47426 -5.82636e-20)
(0.0276933 1.55459 6.18562e-20)
(0.0530463 1.61747 0)
(-0.0313291 2.27084 1.25271e-19)
(-0.0348105 2.54832 -5.30583e-20)
(-0.020941 2.44886 9.37399e-21)
(-0.00646303 1.86431 3.06771e-20)
(-0.0285033 2.50387 1.31171e-20)
(-0.023402 2.44597 -3.30018e-20)
(1.01776 0.022387 -7.6524e-19)
(1.015 0.0286262 7.69521e-19)
(1.01166 0.0172897 0)
(1.01072 0.0704676 1.05475e-18)
(0.990592 0.0604648 -1.20623e-18)
(0.950091 0.0573908 1.34938e-18)
(1.01322 0.116137 -1.4323e-19)
(1.04402 -0.00464921 0)
(1.05223 -0.000399436 6.86704e-19)
(1.04031 -0.00816215 -6.86381e-19)
(1.07232 0.043852 -4.06955e-20)
(1.065 0.0291413 3.51601e-19)
(1.06427 0.0657253 0)
(1.05446 0.0550246 -1.26679e-19)
(1.03214 0.0442331 0)
(1.02563 0.0392374 0)
(1.02761 0.013736 0)
(1.02397 0.0163258 0)
(1.04091 0.0341214 2.60385e-19)
(1.03931 0.028738 -5.76401e-19)
(1.05294 0.0387493 -2.75352e-19)
(1.04823 0.0387584 -3.03982e-19)
(1.07794 0.070638 5.81199e-19)
(1.1019 0.0566357 0)
(1.10865 0.0953446 0)
(-0.029211 2.27711 7.25637e-20)
(-0.0313282 2.02888 3.83582e-21)
(-0.0265048 2.03888 0)
(-0.0305063 2.44433 -7.22466e-20)
(-0.0280924 2.40297 -7.3552e-21)
(-0.0346195 2.47126 9.41473e-21)
(-0.0219291 2.62262 -3.62253e-20)
(-0.0272012 2.56484 1.97983e-21)
(-0.0257366 2.5187 -1.21837e-20)
(-0.0176709 2.61542 2.32708e-20)
(-0.0216815 2.61781 -2.69474e-20)
(-0.0122939 1.51491 -8.10317e-22)
(-0.00686141 1.63858 -5.75368e-20)
(0.377228 1.45122 -1.25883e-19)
(0.372227 1.38194 1.22141e-20)
(0.649106 1.44272 -2.40989e-19)
(0.524734 1.51234 -1.50613e-19)
(0.578645 1.47119 0)
(0.607308 2.42188 2.16912e-19)
(0.666808 2.43171 3.37069e-19)
(0.421935 2.51573 9.00075e-20)
(0.402068 2.53781 -6.25554e-19)
(0.500814 2.47741 5.63971e-19)
(0.553555 2.47539 0)
(0.486326 2.52592 -5.45431e-19)
(0.262673 2.5888 1.1094e-18)
(0.356848 2.5671 -5.97467e-20)
(0.280078 2.65101 -1.54463e-18)
(0.970903 2.38916 7.11902e-19)
(0.848516 2.39009 0)
(1.01143 0.00139695 2.49599e-20)
(1.01538 -0.00516308 -2.03898e-20)
(1.01777 -0.00390013 -3.72707e-19)
(1.01563 -0.00102745 3.71417e-19)
(1.01313 0.00185088 0)
(0.63755 1.3043 0)
(0.681522 1.18975 0)
(0.796434 1.12027 0)
(0.66919 1.14673 0)
(1.19481 2.62582 5.1556e-20)
(1.08762 2.3779 0)
(0.81712 2.16567 3.51616e-21)
(0.821136 2.42963 0)
(0.915997 2.52012 -4.30571e-19)
(0.947437 2.46952 2.87443e-19)
(0.78591 0.161839 0)
(0.725662 0.145584 1.57485e-19)
(0.906897 0.163 9.19529e-19)
(0.813364 0.144517 -3.43615e-19)
(0.756079 0.0949845 -1.06086e-18)
(1.08796 0.247408 -8.34655e-19)
(0.986676 0.318381 -1.00566e-20)
(0.926474 0.35285 8.08765e-19)
(1.01345 0.261322 6.87878e-19)
(0.931479 0.208148 -1.21388e-18)
(0.88856 0.220312 1.53044e-19)
(0.926408 0.318061 -3.1582e-19)
(0.905209 0.225948 0)
(1.00079 0.209734 5.93702e-19)
(1.05513 0.219004 0)
(1.05222 0.231088 0)
(1.12601 0.125607 2.65608e-19)
(1.06467 0.19523 -1.07339e-20)
(1.07944 0.248808 -1.52089e-19)
(1.11354 0.212467 0)
(1.02281 0.0496001 5.88531e-19)
(1.03715 0.0631066 7.33688e-19)
(1.03225 0.0464675 -5.84108e-19)
(1.04168 0.0693156 -4.92151e-19)
(1.01436 0.0751042 -7.46777e-19)
(0.984251 0.168083 0)
(0.987522 0.108409 0)
(0.962188 0.0760698 -4.80373e-19)
(0.901591 0.0987264 1.93068e-19)
(1.03938 0.117151 6.81055e-19)
(1.07607 0.137979 -7.77981e-19)
(1.07035 0.181532 6.99654e-19)
(1.03496 0.158525 0)
(1.08624 0.123005 0)
(1.05685 0.112763 -3.19043e-19)
(1.04238 0.108999 -5.53372e-19)
(0.587967 1.08249 1.16756e-19)
(0.610557 1.39867 -1.91853e-20)
(1.14448 2.7166 -2.4415e-19)
(1.19699 3.10111 2.39815e-21)
(1.25261 2.72632 -1.18784e-19)
(1.292 2.69687 1.73998e-20)
(1.26727 2.32021 -3.81968e-20)
(1.18461 3.00647 -7.20471e-20)
(1.20424 2.96347 2.2063e-19)
(1.17858 3.25437 -1.22648e-19)
(1.39592 2.96839 1.53494e-19)
(1.40725 2.90373 0)
(0.575996 0.813725 -4.75961e-20)
(0.20372 1.21014 4.67868e-19)
(0.525693 0.331664 5.08466e-19)
(0.41165 0.0974438 5.76805e-19)
(0.465225 0.297117 6.30897e-19)
(0.547382 0.413362 -1.02844e-18)
(0.556674 0.396467 8.46263e-19)
(0.464825 0.293963 -3.14826e-19)
(0.317596 0.236561 7.15579e-19)
(0.71792 0.254574 -3.41527e-19)
(0.66526 0.286577 0)
(0.595141 0.194146 7.64713e-21)
(0.737647 0.511941 3.52745e-19)
(0.709007 0.485221 -1.27884e-18)
(0.63218 0.435958 1.34159e-20)
(0.618888 0.41653 0)
(0.722918 0.718061 3.67576e-19)
(0.839272 0.801181 4.05291e-19)
(0.777172 0.850804 -4.72314e-19)
(0.906829 0.822547 -1.49642e-19)
(0.941561 0.865656 -3.45341e-20)
(0.94909 0.873079 3.54203e-20)
(0.884682 0.681235 -6.5998e-19)
(0.957269 0.727631 1.39121e-19)
(1.01179 0.730392 0)
(1.01082 0.705967 -1.77506e-19)
(1.03156 0.342652 2.08036e-19)
(1.15957 0.342766 2.51271e-19)
(1.07483 0.285109 3.41232e-19)
(1.00054 0.389394 -4.16566e-19)
(1.05823 0.490151 0)
(1.13963 0.430936 0)
(0.901845 0.4273 -9.53662e-22)
(0.846936 0.321289 0)
(0.89308 0.313577 3.86029e-19)
(0.913786 0.351971 2.38936e-21)
(0.988589 0.500286 1.83537e-18)
(0.920438 0.55942 4.73437e-19)
(0.94367 0.518521 -5.0036e-19)
(0.861328 0.495338 5.33726e-19)
(0.825666 0.470932 3.40736e-19)
(0.802093 0.450103 -3.33945e-19)
(1.02819 -0.000354927 6.15822e-19)
(1.02046 0.000599187 0)
(1.0191 0.00141472 4.01914e-19)
(1.02269 -0.000696126 -9.09796e-19)
(1.02257 0.00461077 4.43182e-19)
(1.02003 0.0116639 -9.27702e-19)
(1.02076 0.0114905 0)
(1.01968 0.0122624 -1.93183e-19)
(1.01658 0.00782564 4.84148e-19)
(1.01668 0.0109453 -2.43245e-19)
(1.01728 0.0106497 1.78069e-19)
(0.0391104 1.33705 0)
(0.0427122 1.39898 0)
(0.0572599 1.34113 0)
(0.0604137 1.27657 0)
(0.089046 1.40261 -6.83767e-20)
(0.0935042 1.37653 1.48834e-20)
(0.0849862 1.57401 5.93726e-21)
(0.10547 1.41051 -4.17335e-20)
(0.0449405 1.48768 5.17954e-20)
(0.0495361 1.48306 -4.08453e-20)
(0.0756177 1.39878 -2.6333e-20)
(0.0642802 1.40171 7.68936e-20)
(0.0595315 1.3835 1.26159e-20)
(0.0479681 1.40179 8.59336e-21)
(0.0996516 2.37169 -1.00291e-19)
(0.0902313 2.41496 0)
(0.14963 2.0125 9.07412e-20)
(0.132946 1.69888 2.9321e-20)
(0.214811 2.01413 -7.6606e-20)
(0.219687 2.4176 0)
(0.222289 2.39532 -6.0399e-19)
(0.305468 2.37201 4.52036e-19)
(0.252967 1.98001 -1.99848e-19)
(0.145698 2.14779 1.4182e-19)
(0.111407 2.24999 0)
(0.0165125 1.85326 -2.87095e-20)
(-0.00495997 2.37371 -6.75523e-21)
(0.00358348 2.12978 0)
(0.00555976 2.43567 -1.72637e-20)
(0.023501 2.27264 2.55342e-20)
(0.0109881 1.43905 -1.25918e-20)
(0.006773 1.41895 2.09591e-19)
(0.00538788 1.42811 -6.80287e-20)
(0.019746 1.43683 -5.95593e-20)
(0.022135 1.46468 0)
(0.00245451 1.4106 0)
(-0.00389838 1.30952 -8.03069e-20)
(-0.00456969 1.40042 2.33088e-20)
(0.0028421 1.3995 0)
(0.00642072 1.30243 -6.23989e-20)
(0.0119672 1.21317 1.23956e-19)
(1.04251 0.015099 0)
(1.04898 0.0105728 -6.42135e-20)
(1.03917 0.0244666 -4.64495e-19)
(1.04958 0.0234252 0)
(1.05475 0.0227283 0)
(1.03638 0.0131279 -6.76469e-21)
(1.03011 0.0135352 7.4927e-19)
(1.03192 0.0175899 9.07125e-19)
(1.02555 0.0212662 0)
(1.02216 0.0217357 0)
(1.03568 0.0258483 4.63477e-19)
(1.02646 0.0284253 0)
(1.02312 0.0288419 0)
(-0.0213112 2.03191 0)
(-0.0116704 1.66633 -2.68534e-21)
(-0.00927476 1.77097 -3.38783e-20)
(-0.00889392 1.40587 0)
(-0.0108407 1.57083 -3.36903e-20)
(-0.017342 1.48239 2.02109e-20)
(-0.0138521 1.42079 0)
(0.403241 1.62317 0)
(0.3661 1.31995 -1.96394e-20)
(0.275322 1.34561 0)
(0.43628 1.31839 -4.85611e-20)
(0.472818 1.47754 0)
(0.458033 1.41921 4.55057e-20)
(1.04036 2.66933 -1.51139e-20)
(0.985302 2.40807 -8.94297e-19)
(0.948128 2.20924 1.00167e-18)
(0.865297 2.3821 2.41694e-19)
(0.852466 2.48606 0)
(0.921605 2.48055 0)
(0.954676 2.38221 0)
(0.930607 2.37323 -9.34695e-19)
(0.690925 2.44983 -3.7439e-19)
(0.800031 2.43366 -9.68013e-20)
(0.807356 2.41165 7.29429e-20)
(0.704043 2.40292 0)
(0.80938 2.39657 0)
(0.769877 2.41318 -3.65752e-19)
(0.765409 2.46457 0)
(0.63293 1.06778 0)
(0.515531 0.855275 -5.53644e-19)
(0.522084 0.927842 -3.2179e-20)
(0.501877 1.06893 0)
(0.489082 0.976579 8.47713e-19)
(0.804914 0.887131 -1.30743e-19)
(0.807738 1.02218 0)
(0.788946 1.00527 1.78538e-19)
(0.678049 1.02104 0)
(0.669969 0.924537 0)
(1.16295 2.75329 -2.15989e-19)
(1.1381 2.81154 -8.69254e-20)
(0.922341 2.33367 7.08299e-20)
(0.899145 2.31481 -7.46063e-20)
(1.13267 2.7311 0)
(1.08473 2.69884 8.96022e-20)
(1.1006 2.49427 -2.93645e-19)
(1.00249 2.25435 -2.82441e-20)
(0.49677 1.32788 0)
(0.516893 1.07653 -1.02839e-19)
(0.595307 1.18352 0)
(0.855829 0.234974 0)
(0.752063 0.185463 0)
(0.655393 0.145747 0)
(0.855353 0.233404 -5.94033e-19)
(0.740277 0.227567 3.5706e-19)
(0.913315 0.0876154 -3.98746e-19)
(0.923122 0.141171 0)
(0.909049 0.155555 1.723e-19)
(0.836175 0.111271 6.9086e-19)
(0.785656 0.0769693 -4.34292e-19)
(1.09503 3.34535 -6.72189e-19)
(1.16331 3.26899 0)
(1.11303 3.4301 -1.57021e-18)
(0.655144 3.57628 1.30698e-18)
(1.02342 3.07529 1.21538e-19)
(0.534095 0.776725 5.64222e-19)
(0.512345 0.744175 0)
(0.346401 0.340497 -1.42175e-19)
(0.492692 0.625764 8.46562e-19)
(0.559785 0.331794 -1.84238e-19)
(0.522419 0.451123 2.20764e-19)
(0.689786 0.525478 4.53561e-19)
(0.738075 0.562521 0)
(0.669681 0.561748 0)
(0.655706 0.531592 0)
(1.01956 0.615218 8.65178e-20)
(0.97248 0.597387 -4.58637e-19)
(0.983356 0.610004 3.49877e-19)
(1.04726 0.552341 -3.37786e-19)
(1.09245 0.521321 0)
(1.09462 0.603263 -8.85912e-20)
(0.886812 0.424224 -7.6044e-19)
(0.874105 0.410328 -9.79323e-19)
(0.798495 0.411684 5.99644e-19)
(0.81394 0.378663 -6.23402e-19)
(0.855254 0.334866 -4.90798e-19)
(0.799033 0.338374 6.00653e-19)
(1.02658 0.00673364 -4.63725e-19)
(1.02621 0.00685539 9.34444e-19)
(1.02997 0.000969127 5.96711e-19)
(1.03419 0.0016166 -7.16465e-19)
(1.03396 0.0119648 0)
(1.02974 0.0120815 -1.17332e-18)
(0.0825459 1.64759 9.30993e-21)
(0.0662061 1.60614 0)
(0.107369 1.70479 3.58607e-20)
(0.116636 1.67898 -3.06633e-20)
(0.0762105 1.57101 -1.09483e-20)
(0.063983 1.57332 0)
(0.00678064 1.70429 0)
(-0.00892773 1.52095 1.78952e-20)
(-0.00784278 1.4634 -1.60903e-20)
(-0.0137337 1.56884 2.96079e-21)
(-0.00244019 1.89665 2.69932e-20)
(-0.0150327 1.95047 -1.0611e-20)
(0.493644 1.35961 -2.55032e-19)
(0.496285 1.35436 2.79028e-19)
(0.450421 1.31056 -6.13002e-21)
(0.428381 1.29099 7.28924e-21)
(0.630108 1.31167 0)
(0.556322 1.40598 1.21001e-19)
(0.557343 1.409 -1.17835e-19)
(0.486344 1.29858 5.91439e-21)
(0.527139 1.25139 0)
(0.591635 1.21713 0)
(0.664725 2.4133 5.51264e-19)
(0.660406 2.44373 1.26526e-18)
(0.715619 2.45888 -8.70337e-19)
(0.614351 2.43056 -1.98938e-19)
(0.556011 2.52399 2.7228e-19)
(0.496203 2.48998 -7.03684e-19)
(0.992992 2.38693 -5.64298e-19)
(1.02476 2.40449 0)
(0.951887 2.19286 -6.16436e-19)
(1.05566 2.67993 0)
(1.05454 2.66093 0)
(0.599215 2.28644 7.18345e-21)
(1.11771 3.06774 7.64847e-20)
(0.994623 2.96429 -1.24092e-19)
(0.318331 0.786379 0)
(0.315381 0.662432 -3.01583e-19)
(0.524107 0.599717 -3.04447e-19)
(0.361173 2.12814 0)
(0.401842 2.7438 -8.55662e-20)
(0.411163 2.47766 0)
(0.731864 0.686791 -7.8255e-19)
(0.798503 0.697102 1.08924e-18)
(0.801512 0.661581 -1.03292e-18)
(0.704908 0.642027 -9.91142e-20)
(0.761572 0.601515 -4.09315e-19)
(0.969213 2.75055 -5.79263e-20)
(1.01341 2.75791 -2.06127e-19)
(0.549458 2.20174 4.3808e-19)
(0.60265 1.73175 -3.46875e-19)
(0.701907 1.85067 -4.90303e-19)
(0.976204 2.39112 -1.37371e-19)
(0.976497 2.34412 3.61099e-19)
(0.644173 1.75915 3.31427e-20)
(0.450688 1.29362 1.72522e-19)
)
;

boundaryField
{
    wall-4
    {
        type            noSlip;
    }
    velocity-inlet-5
    {
        type            fixedValue;
        value           uniform (1 0 0);
    }
    velocity-inlet-6
    {
        type            fixedValue;
        value           uniform (0 3 0);
    }
    pressure-outlet-7
    {
        type            zeroGradient;
    }
    wall-8
    {
        type            noSlip;
    }
    frontAndBackPlanes
    {
        type            empty;
    }
}


// ************************************************************************* //
