/*--------------------------------*- C++ -*----------------------------------*\
  =========                 |
  \\      /  F ield         | OpenFOAM: The Open Source CFD Toolbox
   \\    /   O peration     | Website:  https://openfoam.org
    \\  /    A nd           | Version:  6
     \\/     M anipulation  |
\*---------------------------------------------------------------------------*/
FoamFile
{
    version     2.0;
    format      ascii;
    class       volScalarField;
    location    "7";
    object      Ma;
}
// * * * * * * * * * * * * * * * * * * * * * * * * * * * * * * * * * * * * * //

dimensions      [0 0 0 0 0 0 0];

internalField   nonuniform List<scalar> 
26250
(
3.04676
3.07681
3.10431
3.12652
3.14789
3.16431
3.18064
3.18927
3.1886
3.17035
3.11861
2.96493
2.63468
1.8701
0.835702
0.372875
0.451187
0.55854
0.616442
0.604993
0.594079
0.559666
0.479796
0.343828
0.239279
3.04676
3.07682
3.1043
3.12653
3.14788
3.16432
3.18064
3.1893
3.18865
3.17052
3.11905
2.96597
2.63691
1.87378
0.841664
0.376426
0.454943
0.56289
0.620773
0.621896
0.602781
0.564168
0.48976
0.361443
0.259746
3.04674
3.07684
3.10428
3.12654
3.14786
3.16434
3.18063
3.1894
3.18878
3.17089
3.11997
2.96782
2.64108
1.87859
0.846722
0.370804
0.451024
0.560725
0.617061
0.61738
0.5949
0.552202
0.478562
0.35254
0.251117
3.04663
3.07695
3.10417
3.12666
3.14774
3.16446
3.18056
3.18968
3.18911
3.17189
3.12498
2.9715
2.64972
1.89269
0.859038
0.391622
0.46802
0.571441
0.624618
0.616784
0.596569
0.554114
0.478229
0.35098
0.249208
3.04535
3.07826
3.10278
3.12809
3.14627
3.16598
3.17896
3.19102
3.18491
3.17762
3.121
2.9987
2.63291
1.90839
0.902059
0.416387
0.487426
0.586167
0.637289
0.634278
0.612641
0.569157
0.491599
0.362946
0.259502
3.04647
3.07711
3.10399
3.12683
3.14756
3.16465
3.18046
3.19018
3.18978
3.17401
3.13295
2.98174
2.67482
1.93078
0.908779
0.440872
0.507321
0.599355
0.651604
0.649993
0.628045
0.585067
0.508956
0.381212
0.278404
3.04551
3.07811
3.10295
3.12792
3.14644
3.16584
3.17916
3.19122
3.18631
3.17916
3.12589
3.00934
2.65931
1.9557
0.964067
0.471176
0.530828
0.617135
0.668001
0.668501
0.64655
0.605441
0.532094
0.40804
0.309418
3.04633
3.07725
3.10386
3.12698
3.14742
3.16482
3.18044
3.19093
3.19047
3.17578
3.13484
2.99506
2.70658
1.98171
0.986459
0.495171
0.550487
0.630372
0.683387
0.686038
0.666103
0.628886
0.562147
0.446202
0.360688
3.04633
3.07727
3.10385
3.12698
3.14743
3.16482
3.18048
3.19109
3.19082
3.1769
3.13559
3.00436
2.72576
2.01459
1.04261
0.540897
0.579027
0.650021
0.703154
0.706855
0.689788
0.658074
0.602995
0.503554
0.447363
3.0463
3.07729
3.10381
3.12702
3.14739
3.16486
3.18045
3.19114
3.19106
3.17937
3.14403
3.01572
2.75287
2.05217
1.08682
0.59005
0.610808
0.67366
0.726049
0.731363
0.717994
0.695006
0.659063
0.596246
0.608722
2.96752
2.95208
2.94108
2.93522
2.92967
2.92708
2.92312
2.91876
2.90162
2.8733
2.7879
2.60024
2.19731
1.32766
0.228919
0.357865
0.0374333
0.256393
0.307101
0.247875
0.236938
0.180347
0.0747381
0.0441205
0.104684
2.96752
2.95208
2.94109
2.93522
2.92967
2.92708
2.92312
2.91878
2.90168
2.87341
2.78825
2.60077
2.1986
1.32959
0.232717
0.348
0.0468075
0.265557
0.322086
0.289957
0.253861
0.1931
0.105424
0.0725326
0.127531
2.96752
2.95208
2.94109
2.93522
2.92967
2.92708
2.92313
2.91882
2.90183
2.87375
2.78899
2.60278
2.20198
1.3365
0.23856
0.363081
0.0654981
0.273332
0.3275
0.296933
0.260166
0.207183
0.138766
0.115138
0.138424
2.96752
2.95208
2.94108
2.93522
2.92967
2.92708
2.92315
2.91891
2.9021
2.87434
2.79026
2.60572
2.20732
1.34288
0.25272
0.331956
0.0889146
0.286729
0.330663
0.284626
0.266282
0.226708
0.179863
0.162567
0.161631
2.96755
2.95201
2.94114
2.93512
2.92974
2.92698
2.92331
2.91919
2.90363
2.87448
2.79833
2.60195
2.22272
1.35217
0.252914
0.323319
0.113561
0.303782
0.347278
0.316379
0.291465
0.25972
0.226578
0.211346
0.196582
2.96751
2.95208
2.94108
2.93521
2.92968
2.92707
2.92322
2.91915
2.90295
2.87617
2.79452
2.6164
2.22769
1.38018
0.302873
0.289266
0.13956
0.324536
0.367771
0.343161
0.322077
0.299054
0.276633
0.263515
0.243098
2.96755
2.95201
2.94114
2.93513
2.92975
2.927
2.92338
2.91948
2.90453
2.87679
2.80355
2.61569
2.25034
1.41009
0.323294
0.266569
0.165862
0.34625
0.39086
0.374201
0.357376
0.343684
0.331323
0.321619
0.303711
2.96752
2.95207
2.9411
2.9352
2.9297
2.92708
2.92331
2.91948
2.90418
2.87885
2.80121
2.63416
2.26286
1.46416
0.389122
0.239971
0.194622
0.369725
0.415916
0.405907
0.396935
0.392565
0.391452
0.389031
0.383204
2.96753
2.95206
2.94111
2.93519
2.92971
2.92707
2.92336
2.91968
2.90496
2.88052
2.80529
2.64579
2.2848
1.52189
0.450853
0.202394
0.228482
0.39626
0.442989
0.439575
0.439909
0.445555
0.457318
0.469899
0.492071
2.96755
2.95204
2.94113
2.93517
2.92973
2.92706
2.92342
2.91995
2.90593
2.88254
2.81152
2.65305
2.30961
1.56706
0.506407
0.183712
0.265421
0.425213
0.471731
0.474505
0.483638
0.500394
0.531066
0.569329
0.668716
2.98577
2.97017
2.9511
2.93544
2.91923
2.90722
2.89388
2.88249
2.85976
2.82301
2.72503
2.51423
2.08603
1.15772
0.0122461
0.733656
0.116499
0.17866
0.238602
0.182882
0.0924854
0.0740499
0.0917366
0.0671892
0.0644493
2.98574
2.97021
2.95107
2.93547
2.9192
2.90726
2.89385
2.88252
2.85972
2.82327
2.72485
2.51586
2.08628
1.15592
0.0124906
0.730035
0.114516
0.192751
0.242754
0.176923
0.130246
0.112208
0.128955
0.11246
0.0986533
2.98578
2.97017
2.9511
2.93544
2.91923
2.90722
2.89388
2.88253
2.85994
2.82338
2.726
2.51611
2.08989
1.16364
0.0138396
0.711634
0.117763
0.211694
0.250801
0.188461
0.163021
0.151762
0.171576
0.165305
0.145467
2.98574
2.97021
2.95107
2.93547
2.9192
2.90726
2.89386
2.88261
2.86007
2.82399
2.72676
2.51976
2.09433
1.16986
0.0249925
0.69005
0.126529
0.234475
0.266371
0.217459
0.199122
0.194663
0.216978
0.218368
0.196145
2.9857
2.97025
2.95103
2.93551
2.91916
2.9073
2.89384
2.88272
2.86033
2.82486
2.72816
2.5249
2.10184
1.18279
0.0486795
0.662092
0.140776
0.260121
0.287161
0.25117
0.231335
0.239717
0.264452
0.272028
0.249444
2.98572
2.97023
2.95104
2.93549
2.91918
2.90729
2.89388
2.88282
2.86085
2.82576
2.73109
2.53013
2.11466
1.21054
0.0825461
0.626271
0.159489
0.287846
0.313459
0.288569
0.267096
0.287762
0.31473
0.32857
0.308839
2.98568
2.97026
2.95101
2.93553
2.91915
2.90733
2.89387
2.88299
2.86142
2.82717
2.73437
2.53898
2.13132
1.24555
0.123048
0.583471
0.181549
0.316936
0.343773
0.329335
0.311036
0.338901
0.369378
0.39126
0.378774
2.98568
2.97026
2.95101
2.93553
2.91915
2.90734
2.8939
2.88315
2.86221
2.82872
2.7389
2.54825
2.15242
1.29001
0.170592
0.534495
0.206619
0.347287
0.376746
0.371636
0.362336
0.392014
0.429042
0.461365
0.463574
2.98565
2.97031
2.95098
2.93558
2.91911
2.90739
2.8939
2.88337
2.86301
2.83065
2.74344
2.56015
2.17517
1.3375
0.225989
0.477654
0.235072
0.378641
0.411202
0.413885
0.416122
0.447973
0.494028
0.541852
0.572856
2.98574
2.97022
2.95107
2.93548
2.9192
2.90732
2.89401
2.88368
2.86417
2.8326
2.74916
2.56968
2.19963
1.3915
0.291177
0.409215
0.266564
0.410427
0.445542
0.455937
0.469511
0.506198
0.564775
0.634819
0.747369
2.96752
2.95209
2.94108
2.93522
2.92967
2.92708
2.92313
2.91882
2.90175
2.87356
2.78831
2.60064
2.19697
1.32131
0.220704
0.363005
0.0367825
0.256554
0.319244
0.299249
0.263573
0.205343
0.1226
0.0582308
0.109101
2.96754
2.95201
2.94114
2.93512
2.92974
2.92698
2.92328
2.91903
2.90308
2.873
2.79497
2.59305
2.20489
1.31706
0.199329
0.395367
0.0490782
0.256959
0.303231
0.23623
0.227197
0.17749
0.099141
0.0793814
0.117677
2.96751
2.95209
2.94108
2.93522
2.92966
2.92708
2.92315
2.91889
2.90197
2.87406
2.78932
2.60311
2.20111
1.32463
0.229649
0.35245
0.0685341
0.269588
0.310844
0.257628
0.240392
0.189593
0.124781
0.122128
0.134182
2.96754
2.95202
2.94113
2.93513
2.92974
2.92699
2.92328
2.91911
2.90332
2.87378
2.79651
2.59737
2.21369
1.33079
0.227252
0.343136
0.0896064
0.285807
0.330267
0.294999
0.263238
0.217343
0.167814
0.166119
0.162644
2.96754
2.95202
2.94113
2.93513
2.92973
2.92699
2.9233
2.91919
2.90354
2.87449
2.79795
2.60157
2.22229
1.34575
0.248978
0.323687
0.113249
0.302472
0.345126
0.31216
0.289067
0.253568
0.216844
0.212534
0.198213
2.96753
2.95202
2.94113
2.93513
2.92974
2.927
2.92333
2.91931
2.90394
2.87547
2.80038
2.60767
2.23448
1.37183
0.280861
0.301085
0.138447
0.322188
0.366313
0.34361
0.320983
0.295928
0.270232
0.263026
0.243767
2.96753
2.95207
2.9411
2.9352
2.92969
2.92708
2.92326
2.91928
2.90346
2.87728
2.7975
2.62402
2.24372
1.42002
0.344594
0.267606
0.166352
0.345068
0.389793
0.373472
0.356947
0.342511
0.327618
0.320492
0.30344
2.96752
2.95207
2.9411
2.9352
2.9297
2.92708
2.9233
2.91946
2.90414
2.87875
2.80122
2.634
2.26353
1.47012
0.395824
0.227509
0.195652
0.370472
0.415826
0.405506
0.396771
0.392295
0.389461
0.387647
0.382325
2.96753
2.95207
2.94111
2.93519
2.92972
2.92707
2.92336
2.91967
2.90494
2.88047
2.80519
2.64564
2.2847
1.52226
0.450429
0.202818
0.228166
0.396997
0.443353
0.439511
0.439975
0.445647
0.456223
0.468645
0.490947
2.96755
2.95205
2.94113
2.93517
2.92974
2.92706
2.92342
2.91994
2.9059
2.88248
2.8114
2.65281
2.30927
1.56699
0.506648
0.183649
0.266288
0.425862
0.471867
0.474333
0.483457
0.500387
0.530446
0.567903
0.667813
3.04666
3.07693
3.10419
3.12663
3.14776
3.16443
3.18056
3.18957
3.18894
3.17124
3.12368
2.96624
2.64025
1.86917
0.819261
0.361228
0.443553
0.555778
0.613958
0.615009
0.597286
0.555519
0.480727
0.353618
0.253207
3.04525
3.07837
3.10268
3.1282
3.14616
3.1661
3.17881
3.19102
3.18425
3.17714
3.11754
2.99152
2.6087
1.8691
0.864664
0.378807
0.458617
0.568394
0.621565
0.608657
0.5956
0.557178
0.477327
0.344499
0.243167
3.04657
3.07702
3.10409
3.12673
3.14766
3.16453
3.18049
3.1898
3.18922
3.17204
3.12843
2.96985
2.65156
1.88089
0.825352
0.370884
0.452463
0.560639
0.615072
0.603167
0.589159
0.552032
0.471513
0.33695
0.235244
3.04538
3.07824
3.10282
3.12805
3.14631
3.16593
3.17903
3.19099
3.18517
3.17548
3.11723
2.98708
2.61978
1.89032
0.881559
0.402227
0.476744
0.57911
0.63001
0.626791
0.606126
0.565898
0.487408
0.353759
0.248084
3.04546
3.07814
3.1029
3.12795
3.14641
3.16582
3.17918
3.19096
3.18586
3.17368
3.1181
2.98688
2.63159
1.91546
0.885129
0.409864
0.483363
0.583341
0.634211
0.630652
0.611365
0.571655
0.496389
0.366269
0.260762
3.04532
3.0783
3.10277
3.12811
3.14626
3.16601
3.17896
3.19109
3.18508
3.17703
3.12165
2.9969
2.6439
1.93069
0.919398
0.436007
0.503147
0.596773
0.647354
0.647093
0.625909
0.585682
0.512076
0.384216
0.279797
3.04652
3.07706
3.10405
3.12678
3.14763
3.1646
3.18053
3.1902
3.18981
3.17421
3.131
2.98659
2.68743
1.95363
0.948367
0.46318
0.524522
0.611146
0.663507
0.664669
0.642461
0.604146
0.533067
0.410089
0.310605
3.04639
3.07721
3.10392
3.12693
3.1475
3.16476
3.18052
3.19091
3.19039
3.17533
3.13126
2.99492
2.70458
1.98015
0.99361
0.500073
0.55248
0.630909
0.683408
0.684915
0.66339
0.62778
0.562306
0.44747
0.361803
3.04634
3.07726
3.10386
3.12698
3.14745
3.1648
3.18051
3.19107
3.19076
3.17679
3.13537
3.00412
2.72537
2.01443
1.0415
0.538461
0.57795
0.649979
0.70314
0.706167
0.687632
0.657384
0.602532
0.504036
0.448134
3.04624
3.07736
3.10376
3.12709
3.14733
3.16493
3.18036
3.1911
3.19113
3.17908
3.14372
3.01546
2.75314
2.05155
1.08593
0.589219
0.610424
0.67371
0.725849
0.73093
0.716904
0.694937
0.659339
0.595895
0.609023
3.04549
3.07811
3.10297
3.12792
3.14644
3.1659
3.17927
3.19234
3.19114
3.18605
3.14101
3.04532
2.73693
2.14723
1.17332
0.659061
0.656418
0.706602
0.75451
0.760954
0.75273
0.742428
0.734473
0.733895
0.795016
3.04831
3.0752
3.10597
3.12478
3.14964
3.16257
3.18274
3.18879
3.19521
3.18439
3.15495
3.03875
2.79604
2.14494
1.19833
0.705457
0.694234
0.73729
0.781039
0.791518
0.790066
0.792215
0.803009
0.833945
0.913136
3.04516
3.07842
3.10261
3.12827
3.14608
3.16631
3.17901
3.1933
3.19354
3.18864
3.15185
3.06832
2.79304
2.27311
1.33053
0.785571
0.745252
0.776626
0.811008
0.823522
0.827166
0.836459
0.857547
0.899801
0.979625
3.04795
3.07554
3.10565
3.12512
3.14928
3.163
3.18235
3.19
3.19732
3.18856
3.16094
3.06429
2.84722
2.28316
1.38159
0.85227
0.797583
0.818379
0.844328
0.858714
0.866843
0.880433
0.905768
0.948852
1.02054
3.04768
3.07586
3.10534
3.12542
3.14901
3.1633
3.18209
3.19075
3.19886
3.19116
3.16862
3.08124
2.9029
2.37861
1.52929
0.925492
0.845789
0.85532
0.873545
0.89077
0.903284
0.920973
0.947696
0.989488
1.0522
3.04551
3.07809
3.10292
3.12796
3.14636
3.16609
3.1794
3.19424
3.19868
3.19684
3.17161
3.11073
2.91762
2.53744
1.70412
1.03816
0.899561
0.892968
0.902899
0.920503
0.937289
0.957524
0.985427
1.02449
1.08064
3.04575
3.07783
3.10317
3.12769
3.14661
3.16584
3.1797
3.1943
3.20034
3.1992
3.17926
3.12742
2.97167
2.65662
1.90516
1.1826
0.969288
0.946174
0.947477
0.961066
0.977405
0.99556
1.0208
1.05572
1.10444
3.04601
3.07757
3.10344
3.12742
3.14688
3.16558
3.17999
3.1942
3.20153
3.20069
3.18669
3.14001
3.03336
2.73754
2.16427
1.33885
1.04189
1.00884
1.00612
1.017
1.03085
1.04391
1.06307
1.0907
1.13002
3.04654
3.07704
3.10402
3.12684
3.14747
3.16499
3.18061
3.19395
3.20335
3.20309
3.19463
3.16235
3.07624
2.85499
2.36089
1.54097
1.09552
1.03602
1.04063
1.05631
1.07499
1.09021
1.10753
1.13071
1.16144
3.04739
3.07616
3.10495
3.12587
3.1485
3.16389
3.18184
3.19278
3.20588
3.20697
3.20413
3.17655
3.1104
2.91959
2.52154
1.74561
1.17068
1.06402
1.06156
1.07616
1.09746
1.11964
1.14031
1.16315
1.19144
3.04535
3.07825
3.10278
3.1281
3.14626
3.16621
3.17959
3.19524
3.20412
3.21192
3.20673
3.1907
3.13084
2.99946
2.64436
1.92987
1.29991
1.11606
1.09482
1.10144
1.1194
1.14222
1.16337
1.18564
1.21145
3.04652
3.07703
3.10404
3.12679
3.14758
3.16479
3.18105
3.1938
3.20611
3.21264
3.21213
3.19909
3.16089
3.056
2.80773
2.24676
1.46708
1.18481
1.14525
1.14273
1.15436
1.17275
1.1913
1.2103
1.23211
3.04575
3.07781
3.10319
3.12776
3.14659
3.1657
3.1803
3.19469
3.20535
3.21496
3.214
3.20698
3.18042
3.09891
2.92049
2.47271
1.73576
1.26374
1.17375
1.16694
1.17551
1.19369
1.21461
1.23404
1.25301
3.04574
3.07785
3.10319
3.12768
3.14662
3.16581
3.18001
3.19495
3.20544
3.21604
3.21789
3.21526
3.19476
3.13974
2.99382
2.68198
2.0042
1.40309
1.22034
1.19718
1.19975
1.214
1.23321
1.25142
1.26807
3.04597
3.07763
3.10341
3.12746
3.14687
3.1656
3.1802
3.1949
3.20563
3.21672
3.22126
3.22047
3.20669
3.16962
3.06754
2.85535
2.30381
1.58167
1.29552
1.24377
1.23484
1.24017
1.25362
1.26798
1.27831
3.04643
3.07715
3.10391
3.12694
3.1474
3.16505
3.18074
3.19437
3.2062
3.2166
3.22356
3.22324
3.2156
3.18908
3.12186
2.95726
2.5484
1.84733
1.37738
1.26934
1.25461
1.25779
1.26737
1.27749
1.28107
3.04556
3.07803
3.10299
3.12788
3.14644
3.16604
3.17975
3.19538
3.20526
3.21764
3.22306
3.22614
3.22194
3.20412
3.15892
3.03676
2.75806
2.13408
1.51912
1.31359
1.27834
1.2733
1.27638
1.27904
1.27579
3.0458
3.07776
3.10326
3.12758
3.14675
3.16571
3.18011
3.19499
3.20572
3.21727
3.22433
3.22906
3.22635
3.21496
3.18687
3.09644
2.92094
2.42479
1.76581
1.40317
1.3078
1.28923
1.28215
1.27574
1.26522
3.04596
3.07762
3.10342
3.12745
3.14691
3.16555
3.18028
3.19481
3.20592
3.21714
3.22525
3.23196
3.23042
3.22521
3.2055
3.14719
3.01677
2.69922
2.07076
1.53105
1.34722
1.30234
1.28364
1.26445
1.24218
3.04608
3.07748
3.10357
3.12728
3.14708
3.16538
3.18045
3.19464
3.20611
3.21706
3.22557
3.23305
3.23485
3.23229
3.22021
3.18163
3.09281
2.88423
2.38496
1.71022
1.40295
1.31161
1.27275
1.24089
1.21025
3.04617
3.07742
3.10363
3.12724
3.14712
3.16536
3.18047
3.19466
3.20609
3.21715
3.22559
3.23385
3.2377
3.23702
3.22898
3.20269
3.14394
2.99163
2.63236
1.9719
1.4653
1.2932
1.22998
1.19073
1.16541
3.04649
3.07704
3.10398
3.12682
3.14747
3.16493
3.18083
3.19422
3.20646
3.21674
3.22599
3.23376
3.23928
3.23909
3.23496
3.21772
3.17763
3.06842
2.82551
2.24494
1.6007
1.28931
1.17123
1.12927
1.1186
3.04592
3.07766
3.10337
3.12748
3.14686
3.16561
3.1802
3.19492
3.20584
3.21741
3.22543
3.23449
3.23916
3.24212
3.23948
3.22789
3.2009
3.11666
2.94091
2.51234
1.80348
1.26555
1.07555
1.04777
1.05936
3.04603
3.07758
3.10345
3.12739
3.14695
3.1655
3.18029
3.19485
3.20587
3.21737
3.22559
3.23429
3.23998
3.24413
3.24203
3.23459
3.21235
3.14967
3.00206
2.65943
2.00538
1.2282
0.97533
0.967627
0.996339
3.04592
3.07766
3.10345
3.12739
3.14701
3.16547
3.18035
3.19481
3.20596
3.21726
3.22572
3.23421
3.24048
3.24525
3.24376
3.23768
3.22
3.1638
3.03982
2.73172
2.08915
1.22996
0.869128
0.862476
0.905701
3.04609
3.07752
3.10353
3.12735
3.147
3.16547
3.18038
3.19474
3.20606
3.21719
3.22574
3.23428
3.24049
3.24573
3.24416
3.23938
3.22358
3.16853
3.05627
2.74359
2.1174
1.2254
0.774945
0.766545
0.816024
3.04579
3.07785
3.10319
3.12773
3.14664
3.16587
3.17999
3.19514
3.20566
3.21762
3.22531
3.23472
3.24018
3.24644
3.24596
3.24317
3.22596
3.18098
3.05894
2.79837
2.12618
1.21107
0.717887
0.702994
0.749282
3.04608
3.07757
3.10348
3.12743
3.14691
3.16558
3.18023
3.1949
3.20586
3.21741
3.2255
3.23457
3.24028
3.2465
3.24593
3.24238
3.22782
3.17858
3.06582
2.77853
2.12671
1.20952
0.690996
0.673077
0.71421
3.04608
3.07755
3.10346
3.12746
3.14681
3.16572
3.18003
3.19514
3.20559
3.2177
3.22521
3.23486
3.24006
3.24697
3.24679
3.24449
3.22892
3.18577
3.06893
2.81244
2.14066
1.22051
0.676178
0.656673
0.694154
3.04603
3.07754
3.10352
3.12737
3.14696
3.1656
3.18015
3.19509
3.20562
3.2177
3.22521
3.23489
3.24004
3.24706
3.24729
3.24561
3.2303
3.19064
3.07654
2.83697
2.16942
1.26663
0.68157
0.655487
0.685952
3.04605
3.07758
3.10347
3.12744
3.1469
3.16561
3.1802
3.19498
3.20574
3.21758
3.2253
3.23483
3.24008
3.24721
3.24769
3.2461
3.23157
3.19395
3.0829
2.8543
2.19718
1.30699
0.698166
0.659884
0.68083
3.04609
3.0775
3.10357
3.12729
3.14708
3.16539
3.18045
3.19469
3.20606
3.21727
3.22557
3.23463
3.24021
3.24722
3.24826
3.24709
3.23312
3.1958
3.09054
2.85386
2.22539
1.32326
0.707543
0.658028
0.672597
3.04612
3.0775
3.10355
3.12733
3.14702
3.16547
3.18036
3.19478
3.20599
3.2173
3.2256
3.23455
3.24034
3.24723
3.24872
3.24796
3.23518
3.20287
3.10446
2.8982
2.2903
1.42259
0.728347
0.64513
0.653364
3.04614
3.07745
3.1036
3.12727
3.14708
3.16541
3.18041
3.19474
3.20601
3.21728
3.22561
3.2345
3.24046
3.24713
3.24914
3.24855
3.23707
3.20743
3.11969
2.92827
2.37319
1.53044
0.749629
0.617888
0.633657
3.0462
3.07738
3.10366
3.12719
3.14717
3.16531
3.18052
3.19463
3.20614
3.21717
3.22574
3.23442
3.24055
3.24717
3.24961
3.24924
3.23958
3.21343
3.13693
2.96824
2.47742
1.66609
0.783395
0.584782
0.616873
3.04619
3.07736
3.10369
3.12715
3.1472
3.16527
3.18056
3.19459
3.20618
3.21713
3.22579
3.23435
3.24062
3.24711
3.24982
3.24938
3.24137
3.21598
3.1541
2.99204
2.59553
1.80882
0.847085
0.544182
0.593873
3.04629
3.07726
3.10375
3.1271
3.14719
3.16527
3.18052
3.19461
3.20615
3.21714
3.22578
3.23434
3.24065
3.24702
3.24986
3.24917
3.24187
3.21728
3.16185
3.00495
2.64944
1.88459
0.923861
0.518597
0.580641
3.04626
3.0773
3.10373
3.1271
3.14722
3.16523
3.18058
3.19454
3.20623
3.21703
3.22586
3.23424
3.24072
3.24702
3.25024
3.25
3.24296
3.22275
3.16418
3.03138
2.66562
1.981
0.960789
0.503397
0.565365
3.04634
3.0773
3.10373
3.12713
3.14716
3.16526
3.1805
3.19456
3.20615
3.21706
3.22582
3.23427
3.2407
3.24702
3.25011
3.24976
3.24295
3.22107
3.16728
3.02939
2.68419
2.00001
0.995748
0.522447
0.572051
3.04639
3.07723
3.10378
3.12711
3.14717
3.16527
3.18046
3.19457
3.2061
3.21709
3.22578
3.2343
3.24068
3.24699
3.24992
3.24929
3.24243
3.21932
3.16786
3.02272
2.69331
1.97511
1.00971
0.525417
0.572657
2.96807
2.95151
2.94165
2.93463
2.93027
2.92648
2.92398
2.91902
2.90998
2.87906
2.82132
2.67019
2.3081
1.61704
0.521472
0.189062
0.300854
0.452964
0.49999
0.509478
0.526588
0.556243
0.608587
0.684407
0.838807
2.96823
2.95144
2.94175
2.93461
2.93034
2.92649
2.92405
2.91925
2.91087
2.88363
2.82486
2.69029
2.32988
1.67817
0.604965
0.214221
0.338259
0.47864
0.524973
0.540841
0.566703
0.609804
0.678764
0.773862
0.918352
2.96809
2.95147
2.94167
2.93459
2.93031
2.92648
2.92423
2.91994
2.91197
2.88451
2.83326
2.69976
2.37039
1.74084
0.680105
0.26265
0.381783
0.501587
0.547212
0.569164
0.602925
0.656457
0.732682
0.827786
0.946331
2.96813
2.95152
2.94167
2.93469
2.93027
2.9266
2.92431
2.92054
2.91312
2.89121
2.83888
2.7256
2.40149
1.81414
0.811578
0.341724
0.429589
0.515402
0.565058
0.595005
0.635909
0.694553
0.770557
0.859062
0.962175
2.96781
2.95184
2.94135
2.935
2.92993
2.92698
2.92385
2.92131
2.91205
2.89538
2.84634
2.7288
2.4704
1.85941
0.926294
0.436601
0.47148
0.52724
0.579996
0.61684
0.66338
0.722843
0.796096
0.878485
0.971293
2.96757
2.95199
2.94116
2.9351
2.92981
2.92701
2.92399
2.92166
2.91536
2.89486
2.85703
2.75451
2.50087
2.00907
1.03222
0.537066
0.496535
0.543272
0.59409
0.635168
0.684671
0.743742
0.814506
0.89109
0.975442
2.96785
2.95173
2.94141
2.93487
2.93003
2.92682
2.92423
2.92175
2.91666
2.89845
2.86664
2.77663
2.55949
2.12582
1.21601
0.655681
0.523347
0.55749
0.607107
0.652403
0.701878
0.758815
0.827062
0.900167
0.976668
2.96782
2.95176
2.94137
2.93492
2.92996
2.92692
2.92407
2.92195
2.91621
2.90581
2.87468
2.80186
2.64009
2.22208
1.44453
0.785956
0.568751
0.587448
0.629446
0.674521
0.720495
0.772477
0.835186
0.905106
0.976352
2.96787
2.95173
2.94141
2.9349
2.92999
2.92692
2.92415
2.92215
2.91763
2.90949
2.883
2.82845
2.69509
2.37434
1.72786
0.932933
0.644586
0.642144
0.667639
0.706158
0.745069
0.789639
0.843786
0.907424
0.973995
2.96795
2.95169
2.94147
2.93488
2.93004
2.92692
2.92424
2.92249
2.91917
2.91258
2.88967
2.84918
2.73573
2.48079
1.93997
1.0722
0.704946
0.687236
0.708622
0.738994
0.770788
0.80955
0.854808
0.910033
0.970226
2.9681
2.95148
2.94166
2.93462
2.93029
2.92661
2.9246
2.92219
2.92018
2.91288
2.90021
2.86091
2.7722
2.57212
2.0737
1.27425
0.801426
0.722986
0.740071
0.76363
0.793901
0.828379
0.867833
0.913873
0.966037
2.96813
2.95149
2.94167
2.93465
2.93028
2.92665
2.9246
2.92232
2.92052
2.91493
2.90522
2.87369
2.80679
2.64734
2.2572
1.51663
0.933266
0.767064
0.768098
0.7861
0.814876
0.844834
0.879583
0.919278
0.963461
2.96769
2.95188
2.94127
2.93503
2.92988
2.92701
2.92424
2.92281
2.92063
2.91818
2.90849
2.88922
2.83916
2.71188
2.44662
1.87481
1.11061
0.845012
0.815298
0.821835
0.841552
0.864692
0.89188
0.92483
0.961175
2.96803
2.95156
2.94159
2.93471
2.9302
2.92671
2.92455
2.92252
2.92131
2.91876
2.91331
2.89498
2.86086
2.7683
2.5496
2.0923
1.29996
0.915309
0.849242
0.853066
0.867269
0.887301
0.906934
0.93065
0.957312
2.96771
2.95187
2.94128
2.93501
2.9299
2.92701
2.92425
2.92286
2.92113
2.91968
2.91566
2.90163
2.87696
2.80681
2.63866
2.29278
1.57017
1.0391
0.891467
0.882306
0.89004
0.907525
0.924382
0.937986
0.949797
2.96793
2.95168
2.94147
2.93484
2.93007
2.92686
2.9244
2.92275
2.9213
2.91999
2.91731
2.90713
2.89056
2.83725
2.73285
2.47785
1.92293
1.23473
0.971076
0.926723
0.922007
0.92796
0.938284
0.941175
0.938568
2.9681
2.95148
2.94166
2.93463
2.93027
2.92664
2.92461
2.92254
2.92152
2.91992
2.91826
2.91118
2.89963
2.86246
2.78335
2.60347
2.14702
1.43956
1.04054
0.958104
0.948812
0.945232
0.944638
0.935369
0.922092
2.96812
2.95147
2.94166
2.93463
2.93028
2.92665
2.9246
2.92258
2.92151
2.92017
2.91898
2.91546
2.90386
2.88244
2.82385
2.68219
2.39006
1.74183
1.18076
1.00139
0.971401
0.959663
0.945515
0.925145
0.897171
2.96805
2.95154
2.9416
2.9347
2.93022
2.92671
2.92456
2.92261
2.92151
2.92017
2.91924
2.91632
2.91053
2.89153
2.8564
2.75689
2.55473
2.055
1.38062
1.06707
0.990698
0.964906
0.939576
0.904071
0.862824
2.96804
2.95156
2.94159
2.93471
2.93021
2.92673
2.92455
2.92263
2.92151
2.92024
2.91947
2.91759
2.91375
2.89961
2.87649
2.80671
2.65409
2.32642
1.63449
1.16869
1.01051
0.959143
0.917724
0.868676
0.822229
2.96783
2.95177
2.94138
2.93492
2.93
2.92693
2.92434
2.92283
2.92131
2.92047
2.91943
2.91851
2.91585
2.90623
2.89091
2.84087
2.74646
2.50653
2.00832
1.34393
1.05483
0.955122
0.887106
0.826626
0.786141
2.96794
2.95167
2.94148
2.93483
2.93008
2.92685
2.9244
2.92277
2.92136
2.92044
2.9195
2.91874
2.91709
2.9105
2.89981
2.86498
2.79474
2.62576
2.22126
1.54663
1.09561
0.922915
0.825871
0.772163
0.751174
2.96802
2.95157
2.94157
2.93472
2.93019
2.92674
2.92452
2.92266
2.92148
2.92034
2.91963
2.91873
2.91763
2.91314
2.90574
2.87973
2.83423
2.70431
2.43613
1.84238
1.18152
0.884021
0.749267
0.719187
0.720268
2.96806
2.95154
2.94161
2.93468
2.93023
2.9267
2.92457
2.92261
2.92153
2.92029
2.9197
2.9187
2.91793
2.91477
2.90927
2.8899
2.85472
2.75651
2.53279
2.06098
1.26787
0.803893
0.639029
0.651257
0.68084
2.96802
2.95158
2.94157
2.93472
2.9302
2.92673
2.92454
2.92264
2.92151
2.92031
2.91969
2.91876
2.9181
2.91565
2.91136
2.89554
2.86745
2.78618
2.59409
2.20272
1.4003
0.742348
0.52359
0.575477
0.638661
2.96791
2.95168
2.94147
2.93482
2.9301
2.92683
2.92445
2.92273
2.92142
2.92039
2.91961
2.9189
2.9182
2.91691
2.91173
2.90187
2.87405
2.80475
2.65006
2.26335
1.51982
0.691056
0.393168
0.482821
0.582025
2.96795
2.95163
2.94152
2.93477
2.93015
2.92677
2.92449
2.92268
2.92147
2.92034
2.91967
2.91883
2.91834
2.91668
2.91331
2.90249
2.87803
2.817
2.65586
2.32725
1.62571
0.660912
0.269856
0.387013
0.509572
2.96785
2.95174
2.94142
2.93487
2.93005
2.92688
2.9244
2.92277
2.92138
2.92043
2.91958
2.91894
2.91828
2.91727
2.91279
2.90454
2.88059
2.82055
2.68843
2.33002
1.64967
0.6505
0.188319
0.307964
0.435899
2.96784
2.95175
2.94139
2.9349
2.93001
2.92691
2.92437
2.9228
2.92136
2.92045
2.91956
2.91897
2.91827
2.91726
2.91273
2.90513
2.88054
2.82418
2.69273
2.35185
1.68066
0.656999
0.158635
0.255575
0.366854
2.96793
2.95164
2.94151
2.93476
2.93016
2.92676
2.92452
2.92266
2.92149
2.92033
2.91968
2.91884
2.91839
2.91699
2.91414
2.90302
2.88463
2.82568
2.69198
2.39549
1.69993
0.702223
0.167583
0.228391
0.312331
2.96787
2.95171
2.94144
2.93484
2.93008
2.92684
2.92444
2.92272
2.92144
2.92036
2.91966
2.91885
2.91844
2.91718
2.91444
2.90472
2.88583
2.83201
2.6966
2.40888
1.7215
0.722341
0.193964
0.212213
0.27229
2.96785
2.95174
2.94141
2.93489
2.93003
2.9269
2.92437
2.92281
2.92133
2.92049
2.91952
2.91903
2.91823
2.91756
2.91423
2.90699
2.8883
2.83553
2.72313
2.40415
1.76599
0.776382
0.233746
0.189254
0.238216
2.96788
2.95171
2.94144
2.93486
2.93006
2.92686
2.92441
2.92276
2.92141
2.9204
2.91964
2.91888
2.91848
2.91744
2.91505
2.90601
2.89043
2.84052
2.72468
2.46147
1.81071
0.844472
0.278001
0.149494
0.204334
2.96789
2.9517
2.94145
2.93485
2.93006
2.92686
2.92441
2.92276
2.92139
2.92042
2.91962
2.9189
2.9185
2.91755
2.91539
2.90662
2.89299
2.84573
2.74196
2.4983
1.87953
0.953146
0.322103
0.113766
0.180332
2.96788
2.95171
2.94143
2.93486
2.93005
2.92688
2.92439
2.92279
2.92136
2.92046
2.91957
2.91898
2.91841
2.91775
2.91575
2.90824
2.89556
2.85496
2.75853
2.54107
1.96506
1.06447
0.354663
0.106208
0.166229
2.96789
2.9517
2.94144
2.93486
2.93005
2.92687
2.92439
2.92279
2.92136
2.92046
2.91956
2.91899
2.91838
2.91777
2.91597
2.90908
2.89784
2.86027
2.77711
2.58058
2.07312
1.20822
0.367111
0.118587
0.151969
2.96789
2.9517
2.94144
2.93485
2.93005
2.92688
2.92438
2.9228
2.92135
2.92048
2.91953
2.91903
2.91828
2.91778
2.91571
2.9114
2.89997
2.86806
2.80068
2.59274
2.19638
1.34858
0.372163
0.117857
0.149589
2.96789
2.95171
2.94143
2.93486
2.93004
2.92688
2.92439
2.92279
2.92135
2.92047
2.91954
2.91901
2.91834
2.91779
2.91628
2.91083
2.90054
2.87074
2.79699
2.63138
2.20568
1.42557
0.362968
0.138759
0.137819
2.96791
2.9517
2.94144
2.93486
2.93004
2.92688
2.92437
2.9228
2.92133
2.92048
2.91951
2.91903
2.91826
2.91772
2.91563
2.91186
2.89965
2.87188
2.80514
2.62425
2.26899
1.48016
0.391814
0.119158
0.137921
2.9679
2.9517
2.94144
2.93487
2.93004
2.92689
2.92436
2.9228
2.92133
2.92049
2.91951
2.91904
2.91826
2.91772
2.91562
2.9119
2.89965
2.87233
2.80581
2.62724
2.27629
1.49651
0.389722
0.129001
0.121824
2.98656
2.9694
2.95187
2.93467
2.92003
2.90647
2.89505
2.88308
2.86776
2.82863
2.75982
2.58583
2.20041
1.44689
0.328688
0.354376
0.298261
0.440369
0.478378
0.495561
0.519604
0.564503
0.638995
0.735772
0.906802
2.98656
2.9694
2.95187
2.93467
2.92003
2.90648
2.8951
2.88326
2.86847
2.83107
2.76622
2.59974
2.23306
1.5084
0.405491
0.310087
0.330123
0.465986
0.507434
0.531438
0.56574
0.620065
0.705617
0.815109
0.971334
2.98573
2.97022
2.95105
2.93549
2.91919
2.90738
2.89414
2.88461
2.86773
2.84021
2.76864
2.61317
2.29228
1.57679
0.528712
0.273711
0.364433
0.486855
0.531095
0.561799
0.606286
0.669717
0.758141
0.863363
0.985475
2.9857
2.97027
2.95102
2.93554
2.91916
2.90744
2.89419
2.885
2.86938
2.84374
2.77711
2.6344
2.33577
1.65016
0.626913
0.278274
0.402495
0.504681
0.550068
0.587236
0.641108
0.710482
0.795081
0.890842
0.99284
2.98568
2.97028
2.95103
2.93551
2.91924
2.90731
2.89451
2.88467
2.87123
2.84487
2.78846
2.66891
2.34582
1.76404
0.719795
0.319656
0.43352
0.514097
0.565464
0.609674
0.669873
0.741408
0.821004
0.907152
0.996888
2.98626
2.9697
2.9516
2.93493
2.91982
2.90674
2.8951
2.88426
2.87145
2.84432
2.79791
2.67698
2.3986
1.86306
0.821753
0.394978
0.445121
0.513203
0.576398
0.627928
0.690291
0.762878
0.838883
0.918662
0.999967
2.9866
2.96936
2.95192
2.93461
2.92013
2.90645
2.89542
2.88419
2.87272
2.84851
2.808
2.70056
2.45788
1.97671
0.991768
0.498592
0.441308
0.508776
0.583466
0.641651
0.705318
0.776272
0.851746
0.925968
1.0007
2.98656
2.9694
2.95187
2.93466
2.92007
2.90651
2.89542
2.88442
2.87399
2.85404
2.8188
2.73118
2.52211
2.11675
1.21425
0.61999
0.453453
0.510853
0.590699
0.651872
0.715689
0.784715
0.858298
0.931356
0.999289
2.98678
2.96918
2.95209
2.93445
2.92027
2.90632
2.89567
2.8844
2.8753
2.85854
2.83013
2.75793
2.5935
2.2653
1.5094
0.749386
0.496187
0.539584
0.607308
0.665024
0.724923
0.790354
0.860675
0.932186
0.997397
2.98621
2.96975
2.95152
2.93501
2.9197
2.90691
2.89506
2.88531
2.87523
2.86312
2.83346
2.78335
2.64869
2.3644
1.74933
0.858783
0.550314
0.582385
0.629877
0.682691
0.735286
0.795017
0.860306
0.928634
0.99185
2.98689
2.96907
2.95219
2.93437
2.92034
2.9063
2.89568
2.88485
2.87626
2.86513
2.84369
2.79918
2.70135
2.44202
1.95917
1.0379
0.638265
0.614205
0.65009
0.698478
0.744853
0.79883
0.857881
0.921894
0.982358
2.98661
2.96935
2.95192
2.93464
2.92009
2.90654
2.8955
2.88505
2.87659
2.86643
2.85132
2.80931
2.73202
2.54112
2.1029
1.30373
0.76449
0.63956
0.66703
0.709144
0.753283
0.801422
0.853562
0.911884
0.969379
2.98641
2.96955
2.95174
2.93482
2.91992
2.90672
2.89533
2.88531
2.87662
2.86794
2.85596
2.82484
2.76609
2.62235
2.29583
1.59745
0.90953
0.687667
0.694938
0.723232
0.762823
0.805986
0.850289
0.899865
0.951595
2.98633
2.96966
2.95162
2.93495
2.91977