/*--------------------------------*- C++ -*----------------------------------*\
  =========                 |
  \\      /  F ield         | OpenFOAM: The Open Source CFD Toolbox
   \\    /   O peration     | Website:  https://openfoam.org
    \\  /    A nd           | Version:  6
     \\/     M anipulation  |
\*---------------------------------------------------------------------------*/
FoamFile
{
    version     2.0;
    format      ascii;
    class       volScalarField;
    location    "7";
    object      p;
}
// * * * * * * * * * * * * * * * * * * * * * * * * * * * * * * * * * * * * * //

dimensions      [1 -1 -2 0 0 0 0];

internalField   nonuniform List<scalar> 
26250
(
0.95766
0.911022
0.875195
0.843993
0.820401
0.797127
0.782793
0.764136
0.764376
0.776121
0.786517
0.9225
1.06361
1.98608
3.82557
8.78385
8.40141
7.5039
6.913
6.85943
6.88113
6.9803
7.23463
7.75495
8.44937
0.957659
0.91102
0.875196
0.843989
0.820406
0.797119
0.782803
0.764111
0.764344
0.775986
0.786319
0.921706
1.06198
1.98115
3.81067
8.76251
8.38045
7.48234
6.88779
6.83192
6.87717
7.00529
7.27779
7.7614
8.4632
0.957653
0.911019
0.875196
0.843984
0.820418
0.797103
0.782828
0.764042
0.764259
0.775668
0.785868
0.920187
1.05891
1.97333
3.78698
8.72456
8.33285
7.43166
6.85406
6.80896
6.8637
7.00802
7.29951
7.75911
8.4563
0.957612
0.911063
0.875177
0.844013
0.820413
0.797103
0.782842
0.763908
0.764072
0.77438
0.784121
0.915935
1.05204
1.95786
3.75198
8.63028
8.26363
7.39975
6.83695
6.80245
6.84716
6.98644
7.28358
7.74824
8.44238
0.957468
0.911256
0.875063
0.844149
0.820302
0.797242
0.782672
0.764266
0.764438
0.767845
0.808583
0.848546
1.1715
1.73249
3.80537
8.46856
8.16478
7.34617
6.79843
6.76006
6.80666
6.94604
7.24615
7.71964
8.42527
0.957564
0.91111
0.875155
0.84404
0.820415
0.797083
0.782882
0.763628
0.763708
0.772173
0.781107
0.90655
1.03476
1.90944
3.62454
8.337
8.04304
7.30082
6.74201
6.69473
6.74359
6.88517
7.18695
7.66237
8.39292
0.957485
0.911227
0.875078
0.844131
0.820308
0.797247
0.782597
0.764298
0.763475
0.766889
0.805072
0.842489
1.14932
1.67715
3.64321
8.1137
7.88827
7.20647
6.66537
6.61183
6.66108
6.80036
7.09583
7.5638
8.32344
0.957588
0.911072
0.875202
0.843953
0.820525
0.796899
0.783076
0.763053
0.76304
0.771253
0.779774
0.897993
1.01476
1.843
3.41086
7.92527
7.71435
7.12634
6.57621
6.51094
6.55678
6.68604
6.96154
7.40107
8.17604
0.957609
0.91104
0.87523
0.843904
0.820584
0.796809
0.783169
0.76288
0.762788
0.770823
0.77884
0.8922
1.00212
1.79803
3.27469
7.65767
7.50741
7.02332
6.47174
6.39013
6.42893
6.53861
6.77306
7.13949
7.86659
0.95758
0.911098
0.875181
0.84399
0.820481
0.796942
0.783015
0.762981
0.763016
0.768365
0.775527
0.88227
0.982552
1.75381
3.1488
7.36785
7.27546
6.90257
6.3623
6.25799
6.28435
6.36008
6.51867
6.73865
7.20408
1.03456
1.06946
1.09336
1.10986
1.12283
1.13232
1.14042
1.14867
1.16265
1.20573
1.26648
1.5308
1.97006
3.66681
8.20577
18.3956
16.2589
14.3163
13.7083
13.8865
13.876
14.0275
14.4147
14.9021
15.3202
1.03456
1.06946
1.09337
1.10985
1.12283
1.13231
1.14042
1.14866
1.16261
1.20561
1.26611
1.53011
1.9679
3.66151
8.1884
18.3466
16.2039
14.2541
13.6313
13.7142
13.8686
14.0613
14.4179
14.8584
15.2872
1.03455
1.06945
1.09336
1.10985
1.12284
1.1323
1.14043
1.14862
1.16249
1.2052
1.26547
1.52749
1.96314
3.64508
8.14194
18.2797
16.0822
14.138
13.5429
13.6355
13.8224
14.0166
14.3567
14.7431
15.1859
1.03453
1.06947
1.09336
1.10986
1.12284
1.1323
1.14043
1.14854
1.16226
1.20451
1.26423
1.52333
1.95539
3.62045
8.07336
18.072
15.9306
14.004
13.4707
13.643
13.7184
13.8858
14.2083
14.5527
15.0069
1.03448
1.06953
1.09332
1.10991
1.1228
1.13234
1.14036
1.14836
1.16103
1.20473
1.25451
1.52532
1.92617
3.58235
8.00838
17.8109
15.7319
13.8318
13.3193
13.4569
13.5687
13.7116
13.9998
14.3059
14.7695
1.03451
1.06948
1.09335
1.10986
1.12285
1.13227
1.14045
1.14831
1.16161
1.20238
1.26044
1.50948
1.92743
3.5278
7.798
17.5108
15.5038
13.6259
13.1271
13.2569
13.3789
13.4958
13.7397
13.9963
14.4599
1.03449
1.06951
1.09333
1.10989
1.12282
1.1323
1.14038
1.14808
1.16035
1.2021
1.25
1.50841
1.88849
3.46111
7.62683
17.1468
15.2326
13.3824
12.8943
13.0012
13.1444
13.2294
13.4158
13.6062
14.0456
1.03454
1.06944
1.09339
1.1098
1.12291
1.13217
1.1405
1.148
1.16072
1.19927
1.25489
1.48811
1.8804
3.37014
7.32057
16.7593
14.9387
13.1157
12.631
12.7225
12.8555
12.9018
13.0151
13.1115
13.4798
1.03457
1.06941
1.09342
1.10975
1.12295
1.13211
1.14053
1.14782
1.1602
1.19732
1.2517
1.47431
1.8514
3.27125
7.02079
16.2264
14.6037
12.8293
12.3417
12.4133
12.5121
12.5087
12.5205
12.4749
12.6687
1.03456
1.06941
1.09344
1.10973
1.123
1.13205
1.14059
1.1476
1.15942
1.19546
1.24375
1.46655
1.80364
3.20071
6.71783
15.6361
14.197
12.5117
12.0306
12.078
12.1182
12.0623
11.93
11.6278
11.4351
1.0089
1.03181
1.05926
1.08754
1.11317
1.1384
1.15846
1.18275
1.20342
1.25916
1.33783
1.65437
2.18088
4.16983
9.70728
21.5536
18.5454
16.3579
15.7485
15.9048
16.0541
16.1838
16.5375
16.92
17.22
1.0089
1.03181
1.05926
1.08754
1.11317
1.1384
1.15847
1.18271
1.20348
1.2587
1.33855
1.65186
2.18263
4.16554
9.70522
21.4761
18.4772
16.2981
15.7247
15.9071
16.0514
16.1416
16.4776
16.8292
17.1334
1.0089
1.03181
1.05926
1.08754
1.11317
1.1384
1.15846
1.18273
1.20328
1.25874
1.33681
1.65168
2.1745
4.15135
9.64591
21.3322
18.3401
16.1684
15.6479
15.8831
16.0001
16.0309
16.3261
16.6167
16.9236
1.0089
1.03181
1.05926
1.08754
1.11318
1.13839
1.15846
1.18267
1.20321
1.25787
1.33659
1.64641
2.16961
4.12655
9.5743
21.1451
18.1492
15.985
15.5101
15.7844
15.8776
15.8567
16.0983
16.3194
16.6203
1.0089
1.03181
1.05926
1.08753
1.11319
1.13838
1.15847
1.1826
1.20305
1.25671
1.33575
1.63917
2.16004
4.08743
9.4532
20.8732
17.9082
15.7588
15.3251
15.6333
15.703
15.6396
15.8105
15.9557
16.2433
1.0089
1.0318
1.05927
1.08753
1.11319
1.13837
1.15845
1.18256
1.20265
1.25577
1.33257
1.63234
2.13881
4.02591
9.24528
20.5377
17.6318
15.4935
15.0878
15.4025
15.481
15.3762
15.4627
15.5207
15.7783
1.00892
1.03179
1.05928
1.08751
1.1132
1.13836
1.15844
1.18247
1.20227
1.25403
1.32982
1.62055
2.11499
3.94315
8.98059
20.1297
17.3193
15.1938
14.8046
15.1044
15.1944
15.0525
15.0412
14.992
15.1904
1.00894
1.03177
1.0593
1.08749
1.1132
1.13836
1.15839
1.18243
1.20171
1.25234
1.3252
1.60844
2.08205
3.84427
8.66234
19.6417
16.9687
14.861
14.4799
14.7389
14.8303
14.6584
14.5423
14.3554
14.4441
1.00895
1.03174
1.05932
1.08746
1.11323
1.13833
1.15838
1.18233
1.20117
1.24997
1.32135
1.59262
2.05
3.73504
8.31719
19.0651
16.5706
14.498
14.1221
14.3362
14.3978
14.189
13.9477
13.5723
13.4466
1.00896
1.0317
1.05938
1.08736
1.11337
1.13814
1.15855
1.18202
1.20012
1.24803
1.31432
1.58045
2.0073
3.62944
7.95923
18.3669
16.1087
14.1073
13.7388
13.9064
13.9101
13.6548
13.2513
12.6156
12.0728
1.03452
1.06947
1.09334
1.10986
1.12282
1.13232
1.14042
1.14862
1.1625
1.2054
1.26583
1.52961
1.96907
3.66655
8.22828
18.423
16.2382
14.2736
13.6251
13.694
13.8616
14.0749
14.4552
14.9174
15.3716
1.03446
1.06954
1.09329
1.10993
1.12277
1.13238
1.14033
1.14852
1.16141
1.20639
1.2573
1.53628
1.95037
3.66088
8.27354
18.3886
16.1714
14.2372
13.6629
13.8505
13.8508
14.0018
14.3901
14.8541
15.301
1.0345
1.06949
1.09333
1.10988
1.12282
1.13232
1.14042
1.14856
1.16231
1.20481
1.26486
1.52602
1.96312
3.64692
8.17928
18.2432
16.0767
14.1503
13.6098
13.7892
13.8047
13.9401
14.2924
14.7134
15.1516
1.03446
1.06953
1.0933
1.10992
1.12279
1.13235
1.14036
1.14844
1.16124
1.20548
1.25609
1.53093
1.9394
3.62363
8.15341
18.0448
15.9192
14.0078
13.4743
13.5892
13.7066
13.8571
14.1619
14.515
14.9597
1.03445
1.06954
1.09331
1.10992
1.1228
1.13233
1.14038
1.14836
1.16107
1.20468
1.25493
1.52583
1.92847
3.5864
8.04031
17.7977
15.7198
13.8299
13.3288
13.4835
13.5718
13.7075
13.9734
14.2664
14.7195
1.03447
1.06953
1.09331
1.10991
1.1228
1.13232
1.14037
1.14824
1.16078
1.2036
1.25288
1.51827
1.9115
3.53227
7.85987
17.5073
15.4933
13.6227
13.1289
13.2498
13.3879
13.4997
13.7229
13.9595
14.4118
1.03454
1.06944
1.09338
1.10981
1.12288
1.13221
1.14047
1.14819
1.16126
1.20114
1.25796
1.50065
1.90586
3.45719
7.57251
17.1783
15.2417
13.3895
12.8975
13.0033
13.1519
13.2324
13.401
13.5714
14.0018
1.03457
1.06942
1.09341
1.10977
1.12292
1.13215
1.14051
1.14802
1.16076
1.19941
1.25488
1.48878
1.87925
3.36829
7.30425
16.7317
14.9553
13.1252
12.6345
12.726
12.8607
12.9031
13.0015
13.079
13.4412
1.03457
1.0694
1.09342
1.10974
1.12295
1.13211
1.14053
1.14783
1.16022
1.19739
1.25181
1.4746
1.85169
3.27191
7.02228
16.2553
14.6125
12.8315
12.3434
12.4159
12.5153
12.5094
12.5083
12.4455
12.6369
1.03455
1.06941
1.09343
1.10973
1.12299
1.13205
1.14059
1.14761
1.15945
1.19555
1.24388
1.46692
1.80434
3.20184
6.71997
15.638
14.1981
12.5105
12.0326
12.0813
12.1224
12.0648
11.9231
11.6019
11.4086
0.957605
0.911061
0.875165
0.844018
0.820398
0.797121
0.782823
0.763981
0.764166
0.774774
0.784771
0.919415
1.05983
1.98288
3.84665
8.80373
8.39495
7.45383
6.86105
6.80792
6.85872
6.99894
7.28953
7.76056
8.45359
0.957453
0.911274
0.875039
0.84417
0.820269
0.797279
0.782631
0.764403
0.764528
0.768041
0.810866
0.852241
1.19145
1.78045
3.94611
8.75611
8.37723
7.43482
6.87668
6.83955
6.86705
6.97939
7.25327
7.7602
8.44884
0.957565
0.911099
0.875149
0.844043
0.820398
0.79712
0.782842
0.763879
0.76403
0.773633
0.783354
0.915383
1.05252
1.96674
3.82163
8.72651
8.33235
7.42395
6.8696
6.83243
6.86077
6.97073
7.23831
7.7543
8.43541
0.957443
0.911262
0.875056
0.844147
0.820323
0.797204
0.782759
0.764113
0.764558
0.767977
0.812109
0.854652
1.18643
1.75951
3.87707
8.58053
8.24741
7.37873
6.83698
6.7951
6.83726
6.96228
7.23716
7.73408
8.4294
0.957431
0.911277
0.875057
0.844154
0.820332
0.79718
0.782803
0.763938
0.764608
0.767899
0.812281
0.854422
1.17944
1.7278
3.82619
8.44861
8.14226
7.32129
6.7942
6.75897
6.80209
6.9327
7.21505
7.69494
8.41364
0.957442
0.911272
0.875054
0.844155
0.820308
0.797228
0.782692
0.76422
0.764311
0.767762
0.809158
0.849128
1.16596
1.70621
3.74641
8.30139
8.02815
7.26429
6.73327
6.69111
6.73926
6.87499
7.16248
7.63414
8.37794
0.957602
0.911053
0.875196
0.843967
0.82048
0.796988
0.782962
0.763526
0.763612
0.772527
0.781523
0.90457
1.02815
1.88076
3.51901
8.15034
7.89211
7.21561
6.66022
6.60532
6.65434
6.78932
7.07242
7.53513
8.30382
0.957624
0.911024
0.875231
0.843898
0.820566
0.796832
0.783129
0.762992
0.762986
0.772106
0.78083
0.899575
1.01629
1.84274
3.39936
7.92121
7.71707
7.13492
6.57331
6.50522
6.5502
6.6752
6.93935
7.37317
8.15354
0.957615
0.911033
0.875231
0.843892
0.820581
0.796805
0.783157
0.762899
0.762827
0.770931
0.778995
0.892525
1.00238
1.799
3.27668
7.66738
7.51374
7.02446
6.47037
6.38812
6.42556
6.53071
6.75444
7.11559
7.8438
0.957564
0.911098
0.875167
0.843993
0.820474
0.796954
0.783021
0.763018
0.762837
0.768756
0.775745
0.8827
0.983005
1.75371
3.15021
7.37065
7.27571
6.89798
6.3602
6.25713
6.28239
6.35444
6.50489
6.7191
7.18396
0.957499
0.911247
0.875018
0.844245
0.820087
0.797594
0.781921
0.764917
0.759991
0.762315
0.793576
0.821632
1.08706
1.48916
3.16001
6.99342
7.0004
6.7377
6.24604
6.11944
6.12845
6.15485
6.16208
6.0832
5.55169
0.957755
0.910899
0.8752
0.84406
0.8202
0.797478
0.782029
0.764636
0.760311
0.764171
0.770359
0.864337
0.950237
1.64388
2.86195
6.6339
6.7592
6.55317
6.12937
5.98203
5.96404
5.93078
5.84686
5.62548
5.04468
0.957456
0.911343
0.874914
0.844392
0.819887
0.797834
0.781549
0.765076
0.758351
0.760603
0.785592
0.808439
1.04388
1.3648
2.82832
6.12738
6.51097
6.35766
6.02075
5.85969
5.80644
5.7362
5.5989
5.34447
4.85064
0.957707
0.910996
0.875069
0.84424
0.819923
0.797867
0.781417
0.765222
0.757938
0.761052
0.766121
0.846913
0.919648
1.49477
2.49142
5.663
6.25102
6.15216
5.91614
5.7449
5.6593
5.55533
5.38916
5.12795
4.71965
0.957639
0.911101
0.874935
0.844434
0.819651
0.798272
0.7808
0.765954
0.756091
0.758773
0.763188
0.833851
0.896806
1.4042
2.26031
5.14343
6.00375
5.96063
5.82311
5.64402
5.52948
5.40207
5.22205
4.9674
4.6141
0.957335
0.911531
0.874651
0.844816
0.819299
0.79871
0.78022
0.766485
0.753868
0.754681
0.771573
0.78554
0.949857
1.14358
2.16827
4.45329
5.80952
5.81002
5.73775
5.57525
5.42218
5.27419
5.09012
4.8472
4.53361
0.957289
0.911591
0.874577
0.844949
0.819129
0.79897
0.77983
0.7669
0.752557
0.753051
0.766466
0.777646
0.910819
1.06129
1.88405
3.63855
5.6577
5.7505
5.68227
5.51702
5.32927
5.16534
4.98257
4.7539
4.47154
0.95731
0.911578
0.874533
0.845019
0.818986
0.799185
0.779498
0.767272
0.751689
0.751989
0.761814
0.773434
0.869261
0.989329
1.61294
2.7214
5.45051
5.70477
5.6368
5.46783
5.24886
5.07234
4.89231
4.67828
4.42259
0.957401
0.911459
0.874588
0.844943
0.819008
0.799183
0.77939
0.767413
0.750604
0.750567
0.755453
0.762988
0.837358
0.91724
1.42238
2.2808
4.88734
5.58457
5.54185
5.40862
5.17641
4.99018
4.81276
4.61473
4.38586
0.957521
0.911263
0.874778
0.844658
0.819386
0.798597
0.780258
0.765934
0.752483
0.745226
0.746583
0.765755
0.782318
0.945372
1.15585
2.1201
4.22249
5.35228
5.3687
5.30192
5.13676
4.92828
4.74759
4.56205
4.35574
0.957353
0.911469
0.874741
0.844642
0.819558
0.798263
0.780804
0.765026
0.753511
0.742442
0.744575
0.747448
0.795428
0.83985
1.15819
1.68518
3.39705
5.11003
5.26393
5.21651
5.08922
4.88
4.70042
4.52577
4.33839
0.957464
0.911286
0.874883
0.844468
0.819751
0.798025
0.7811
0.764589
0.753905
0.74082
0.741048
0.749125
0.757496
0.848279
0.938243
1.5133
2.43701
4.80313
5.19172
5.15878
5.06088
4.86116
4.67694
4.50721
4.33639
0.957387
0.911392
0.874807
0.844564
0.81965
0.798165
0.780896
0.764868
0.753373
0.740919
0.738416
0.740647
0.761347
0.788008
0.938353
1.19919
2.09977
4.09797
5.03369
5.05713
5.00473
4.86583
4.66886
4.50196
4.34177
0.957356
0.911447
0.874753
0.844648
0.819538
0.798327
0.780663
0.765189
0.752767
0.74145
0.735053
0.736269
0.75099
0.763942
0.88811
1.03855
1.7512
3.22321
4.79439
4.98873
4.95504
4.85693
4.67231
4.50714
4.36037
0.957369
0.911444
0.874709
0.844717
0.81941
0.798526
0.780359
0.765643
0.752021
0.742283
0.732166
0.732552
0.741924
0.749943
0.836182
0.923293
1.43579
2.29692
4.40783
4.90046
4.88883
4.83174
4.69376
4.52825
4.40384
0.957401
0.911404
0.874711
0.844732
0.819357
0.798626
0.780192
0.765904
0.751584
0.742765
0.730561
0.730541
0.7355
0.741325
0.799222
0.855449
1.22963
1.81849
3.65139
4.71235
4.82436
4.79577
4.71679
4.57718
4.4897
0.957311
0.911527
0.874654
0.844796
0.819336
0.798622
0.780245
0.765774
0.751814
0.74229
0.731147
0.728716
0.730645
0.734933
0.772613
0.816888
1.05895
1.47072
2.73172
4.42294
4.77883
4.77768
4.7483
4.67775
4.63372
0.957338
0.911478
0.874704
0.844724
0.819435
0.798475
0.780462
0.76544
0.752304
0.741474
0.732052
0.72571
0.726674
0.730036
0.752915
0.787614
0.938268
1.21252
2.07312
3.80085
4.6656
4.79879
4.8036
4.8049
4.81777
0.957373
0.911426
0.874744
0.844659
0.819511
0.79836
0.780628
0.765189
0.752678
0.740849
0.732739
0.723173
0.722741
0.724289
0.739954
0.757233
0.868783
1.02286
1.6644
2.95022
4.4304
4.80738
4.90106
4.96925
5.06639
0.957396
0.911402
0.874755
0.844646
0.819506
0.798373
0.780585
0.76527
0.752519
0.741113
0.732161
0.723649
0.719359
0.720285
0.729404
0.739459
0.815725
0.898621
1.35045
2.09925
3.98163
4.78725
5.05374
5.22702
5.40735
0.95741
0.911393
0.874746
0.844663
0.819464
0.798441
0.780471
0.765447
0.75224
0.741528
0.731465
0.7244
0.716762
0.717011
0.722758
0.729106
0.779883
0.835151
1.15236
1.66324
3.2227
4.70407
5.27379
5.59572
5.82886
0.957439
0.911354
0.874766
0.84465
0.819463
0.798458
0.780433
0.765513
0.752129
0.741689
0.731186
0.724689
0.715676
0.715658
0.718311
0.722512
0.755966
0.79802
1.00271
1.35666
2.4161
4.46765
5.61742
6.11521
6.30875
0.957377
0.911438
0.874724
0.844696
0.819445
0.798462
0.780456
0.765452
0.752243
0.741486
0.731505
0.724109
0.716399
0.713434
0.714563
0.71743
0.740414
0.769044
0.918282
1.16687
2.03314
3.93932
6.09613
6.70584
6.72778
0.95738
0.911428
0.874738
0.844673
0.819482
0.798406
0.780542
0.765325
0.752425
0.741228
0.731858
0.723569
0.716973
0.711629
0.712206
0.71397
0.732269
0.752318
0.873914
1.06133
1.77646
3.35552
6.62565
7.17562
7.12199
0.957375
0.911427
0.874748
0.844655
0.819508
0.798371
0.780592
0.765253
0.752538
0.741054
0.73212
0.723166
0.717405
0.710393
0.710744
0.712252
0.726895
0.74307
0.85227
0.986996
1.71079
3.0889
6.75813
7.38663
7.29768
0.957388
0.911413
0.874751
0.844653
0.819507
0.79837
0.780594
0.76525
0.75254
0.741049
0.732134
0.723112
0.717486
0.709957
0.710076
0.711421
0.724555
0.740201
0.840675
0.964958
1.66793
2.97649
6.80802
7.39461
7.27613
0.957358
0.911458
0.874722
0.844687
0.819478
0.798401
0.780559
0.76529
0.752487
0.741117
0.732035
0.723251
0.717223
0.710254
0.708562
0.709523
0.722307
0.732212
0.836659
0.935028
1.65167
2.93246
6.81624
7.30258
7.15902
0.957385
0.911423
0.874737
0.844672
0.819482
0.798403
0.780549
0.76531
0.752459
0.741156
0.731987
0.723301
0.717182
0.710183
0.708682
0.709787
0.721464
0.733725
0.832692
0.935285
1.64109
2.89764
6.78484
7.15854
7.00146
0.95739
0.911418
0.874736
0.844676
0.819471
0.798419
0.780526
0.765341
0.752417
0.741214
0.731904
0.72342
0.71698
0.710419
0.707804
0.708631
0.720138
0.729437
0.828668
0.919917
1.62006
2.85326
6.73718
7.04964
6.88637
0.957386
0.911421
0.87474
0.844673
0.819474
0.798421
0.780518
0.765355
0.752393
0.741249
0.731853
0.723487
0.716883
0.710507
0.707522
0.708376
0.718969
0.727234
0.823037
0.908304
1.5902
2.78228
6.67503
6.99534
6.83336
0.957387
0.911424
0.874735
0.844678
0.819469
0.798425
0.780513
0.765366
0.752374
0.741281
0.731802
0.723563
0.71676
0.710645
0.707075
0.707896
0.718016
0.726094
0.818605
0.902873
1.56361
2.72774
6.57746
6.97263
6.82258
0.957393
0.911414
0.874741
0.84467
0.819473
0.798423
0.780508
0.765379
0.752345
0.74133
0.731724
0.723681
0.716583
0.710871
0.706525
0.707068
0.716824
0.724187
0.814308
0.894923
1.53775
2.68229
6.47865
6.9769
6.84124
0.957397
0.911412
0.87474
0.844672
0.819468
0.798428
0.7805
0.765388
0.752333
0.741348
0.731696
0.723724
0.716509
0.710946
0.706185
0.706627
0.715301
0.721904
0.804172
0.877449
1.47666
2.5486
6.29073
7.05806
6.92699
0.957402
0.911405
0.874744
0.844668
0.819469
0.798428
0.780497
0.765392
0.752327
0.741356
0.731683
0.72375
0.71645
0.711037
0.705887
0.706247
0.713974
0.719875
0.794676
0.8612
1.40787
2.38683
5.99519
7.2815
7.1405
0.957409
0.911395
0.87475
0.844663
0.819472
0.798428
0.780493
0.765402
0.75231
0.741382
0.731643
0.723806
0.716367
0.711116
0.705592
0.705859
0.712362
0.717466
0.782482
0.842027
1.3115
2.17005
5.42875
7.72521
7.5025
0.957412
0.911392
0.874753
0.844661
0.819471
0.798431
0.780487
0.765411
0.752295
0.741404
0.731611
0.72385
0.716306
0.711186
0.705459
0.705705
0.711339
0.716903
0.770569
0.827304
1.19986
1.89038
4.44068
8.29174
7.96303
0.957423
0.911379
0.874757
0.844658
0.819469
0.798434
0.780481
0.765418
0.752284
0.741419
0.73159
0.723878
0.716271
0.711235
0.705458
0.705684
0.71086
0.716643
0.763994
0.820512
1.14494
1.75132
3.93135
8.34986
8.05731
0.957423
0.911383
0.874755
0.844658
0.819469
0.798433
0.78048
0.76542
0.75228
0.741425
0.731579
0.723895
0.716235
0.711282
0.705182
0.705312
0.709731
0.7135
0.761912
0.803673
1.12729
1.6544
3.71082
8.21376
7.99569
0.957431
0.911379
0.874752
0.844659
0.819463
0.798436
0.780476
0.765424
0.752276
0.741431
0.731574
0.723904
0.716231
0.711292
0.705277
0.705439
0.709972
0.714622
0.759726
0.805067
1.10822
1.62462
3.59788
8.05476
7.90383
0.957439
0.911369
0.874755
0.844656
0.819463
0.798436
0.780476
0.765423
0.75228
0.741426
0.731584
0.723888
0.716262
0.711254
0.705434
0.70563
0.710424
0.715816
0.759265
0.810764
1.10066
1.63172
3.55473
7.97321
7.84325
1.03449
1.06947
1.09343
1.10971
1.1231
1.13184
1.14108
1.14676
1.16159
1.18402
1.26774
1.37908
1.91797
2.92962
6.5707
14.9129
13.7109
12.1603
11.7052
11.7246
11.7053
11.568
11.2372
10.5224
8.82364
1.03456
1.0694
1.0935
1.10962
1.1232
1.13169
1.14126
1.14641
1.161
1.1796
1.26349
1.35611
1.8818
2.81514
6.18581
14.1589
13.2237
11.8135
11.3913
11.3747
11.3009
11.061
10.5462
9.64469
7.91333
1.03445
1.06954
1.09336
1.10981
1.12298
1.13193
1.14087
1.14618
1.15946
1.17952
1.25391
1.35025
1.82638
2.69907
5.83824
13.3242
12.7015
11.4957
11.1092
11.0507
10.9129
10.5855
9.97197
9.09633
7.76927
1.03453
1.06946
1.09338
1.10978
1.12296
1.13192
1.14084
1.14567
1.15852
1.17367
1.24649
1.32163
1.7831
2.54845
5.39748
12.4051
12.1138
11.2734
10.8671
10.753
10.5568
10.1615
9.5549
8.76473
7.72809
1.03453
1.06946
1.09334
1.10984
1.12282
1.13221
1.14021
1.14697
1.15515
1.18107
1.21211
1.3767
1.57474
2.64767
4.79515
11.3715
11.5361
11.1136
10.6581
10.4756
10.2369
9.82545
9.25513
8.54879
7.68649
1.03442
1.06957
1.09328
1.10991
1.12285
1.13208
1.14058
1.14558
1.15595
1.17113
1.22796
1.29394
1.6604
2.21473
4.54669
10.0726
11.1709
10.9205
10.4726
10.2329
9.9638
9.56076
9.03101
8.39448
7.64959
1.03434
1.06967
1.09319
1.11004
1.12271
1.13228
1.14028
1.14585
1.1546
1.16867
1.21689
1.27601
1.58425
2.05189
3.99454
8.63138
10.9687
10.7878
10.3436
10.0249
9.72995
9.3419
8.85248
8.27592
7.62145
1.0343
1.06974
1.09309
1.11021
1.12245
1.13271
1.13958
1.14708
1.15257
1.16965
1.19028
1.29185
1.40623
2.04612
3.23086
7.07972
10.8826
10.7177
10.245
9.84128
9.52362
9.15401
8.70373
8.18084
7.59954
1.03432
1.06974
1.09306
1.11024
1.12237
1.1328
1.13942
1.14706
1.15186
1.16554
1.18443
1.26145
1.3602
1.82971
2.69613
5.41431
10.6302
10.5652
10.1675
9.67544
9.33935
8.99085
8.57772
8.10411
7.58503
1.03437
1.06966
1.09314
1.11012
1.1225
1.1326
1.1396
1.14664
1.1511
1.16206
1.17919
1.23835
1.32277
1.68679
2.35936
4.64111
9.7803
10.2329
9.99746
9.51284
9.17618
8.84585
8.46764
8.04082
7.58166
1.03431
1.06969
1.09317
1.11005
1.12266
1.13234
1.14
1.14589
1.15189
1.15843
1.17863
1.20405
1.32991
1.47375
2.28336
3.75494
8.31031
9.84395
9.72796
9.39832
9.04056
8.72236
8.37807
7.99599
7.58646
1.03438
1.0696
1.09326
1.10992
1.12281
1.13213
1.14023
1.14555
1.15193
1.15714
1.17303
1.19413
1.28898
1.40441
1.99722
3.08847
6.58076
9.6042
9.56863
9.33821
8.94542
8.63131
8.31537
7.97509
7.60601
1.03439
1.06958
1.09325
1.10994
1.12277
1.13221
1.14008
1.14575
1.15116
1.15639
1.16448
1.19323
1.22473
1.39976
1.63344
2.61881
4.73029
9.1256
9.45916
9.28486
8.90477
8.57764
8.27913
7.97754
7.65116
1.03434
1.06966
1.09319
1.11002
1.12269
1.1323
1.14001
1.14571
1.15124
1.15484
1.16394
1.17775
1.22726
1.29226
1.59902
2.11427
3.93092
7.95401
9.22677
9.15068
8.88955
8.54635
8.2669
7.99309
7.72882
1.03433
1.06968
1.09315
1.11008
1.12262
1.13239
1.13989
1.14582
1.15102
1.15469
1.16153
1.17218
1.20959
1.2549
1.49056
1.82398
3.20421
6.24654
8.91696
8.98887
8.85338
8.54949
8.27737
8.0404
7.85692
1.03433
1.06968
1.09315
1.11009
1.12259
1.13243
1.13984
1.14592
1.15081
1.15483
1.15982
1.16843
1.1935
1.23344
1.37806
1.62482
2.49754
4.38544
8.32294
8.89228
8.803
8.56872
8.3194
8.14706
8.06317
1.03428
1.06974
1.09312
1.11013
1.12257
1.13247
1.1398
1.14597
1.15068
1.15494
1.15909
1.16529
1.18389
1.20847
1.32329
1.45247
2.17302
3.38577
7.04212
8.67877
8.69982
8.6109
8.42235
8.36
8.37492
1.03429
1.06971
1.09314
1.1101
1.1226
1.13244
1.13981
1.14598
1.15057
1.15511
1.15799
1.16407
1.17314
1.20531
1.2432
1.44177
1.70693
2.85469
5.25308
8.2316
8.67916
8.66766
8.62922
8.65498
8.7515
1.03432
1.06967
1.09317
1.11005
1.12265
1.13235
1.13993
1.1458
1.15084
1.15465
1.15862
1.16209
1.17121
1.18602
1.23505
1.3158
1.60071
2.16445
3.81881
7.29448
8.58883
8.79119
8.87467
9.04236
9.32007
1.03434
1.06965
1.09319
1.11003
1.12267
1.13233
1.13995
1.14577
1.15088
1.15456
1.15857
1.16125
1.16789
1.17847
1.21374
1.26204
1.47806
1.80187
3.06964
5.7665
8.33361
8.9905
9.25812
9.61397
10.0134
1.03437
1.06964
1.09319
1.11003
1.12265
1.13236
1.1399
1.14584
1.15078
1.15466
1.15836
1.1609
1.16554
1.1734
1.19672
1.23377
1.36723
1.58894
2.39267
4.01597
7.74921
9.22251
9.83154
10.3725
10.7801
1.03436
1.06964
1.09318
1.11004
1.12263
1.13239
1.13986
1.1459
1.15068
1.15479
1.15812
1.16104
1.16437
1.17
1.18683
1.21076
1.31209
1.43886
2.06935
3.17167
6.44996
9.30911
10.6107
11.2781
11.5345
1.03433
1.06968
1.09317
1.11007
1.12262
1.1324
1.13985
1.1459
1.15069
1.15476
1.15812
1.16101
1.16398
1.16825
1.18002
1.19893
1.26496
1.37068
1.76777
2.53678
4.80269
9.22852
11.6712
12.2442
12.2222
1.03433
1.06967
1.09318
1.11006
1.12264
1.13237
1.1399
1.14585
1.15076
1.15469
1.15819
1.16093
1.16386
1.16713
1.17614
1.19009
1.2418
1.31353
1.63602
2.20441
4.16346
8.73373
12.7407
13.0367
12.8762
1.03434
1.06966
1.09319
1.11004
1.12266
1.13235
1.13993
1.14581
1.15081
1.15462
1.15827
1.16081
1.16385
1.16651
1.17385
1.18503
1.22798
1.28145
1.56211
1.9818
3.73576
7.83605
13.675
13.6609
13.3113
1.03436
1.06964
1.09319
1.11003
1.12266
1.13234
1.13993
1.14581
1.1508
1.15464
1.15822
1.16088
1.16352
1.16631
1.17075
1.18596
1.20357
1.30085
1.41215
2.02362
3.17785
6.9861
14.4036
14.1817
13.4191
1.03433
1.06968
1.09317
1.11006
1.12264
1.13237
1.1399
1.14584
1.15077
1.15467
1.15821
1.16083
1.16372
1.16567
1.17171
1.1788
1.21503
1.25036
1.47772
1.79899
3.15598
6.53074
14.5834
14.2697
13.354
1.03436
1.06965
1.09318
1.11004
1.12264
1.13237
1.13989
1.14585
1.15075
1.15471
1.15815
1.16092
1.16346
1.16592
1.16985
1.18288
1.19797
1.2818
1.37331
1.91044
2.89108
6.37301
14.5368
14.186
13.1986
1.03435
1.06966
1.09317
1.11006
1.12263
1.13238
1.13988
1.14587
1.15072
1.15474
1.1581
1.161
1.16336
1.16603
1.1699
1.18237
1.19797
1.27872
1.36988
1.88165
2.82756
6.19612
14.4297
14.0625
13.0841
1.03434
1.06967
1.09318
1.11006
1.12263
1.13239
1.13988
1.14587
1.15073
1.15471
1.15816
1.16086
1.16363
1.16562
1.17076
1.17874
1.20789
1.24526
1.44024
1.70194
2.98732
5.90614
14.3131
13.9669
13.0446
1.03434
1.06967
1.09317
1.11006
1.12263
1.13239
1.13988
1.14587
1.15073
1.15471
1.15816
1.16086
1.16362
1.16544
1.17044
1.17737
1.20645
1.23882
1.43306
1.6831
2.94988
5.79705
14.1483
13.8803
13.0398
1.03435
1.06965
1.09318
1.11005
1.12264
1.13238
1.13988
1.14587
1.15072
1.15474
1.15812
1.16095
1.16343
1.16582
1.16872
1.18027
1.19131
1.26444
1.34213
1.81195
2.6745
5.74487
13.9308
13.8154
13.0822
1.03435
1.06966
1.09318
1.11005
1.12264
1.13238
1.13988
1.14587
1.15073
1.15472
1.15816
1.16085
1.16361
1.16529
1.16978
1.17642
1.20154
1.23275
1.40491
1.62531
2.7936
5.36029
13.5921
13.8962
13.2051
1.03435
1.06966
1.09318
1.11005
1.12263
1.13238
1.13988
1.14587
1.15072
1.15472
1.15815
1.16086
1.16358
1.16524
1.16939
1.17581
1.19864
1.22826
1.38633
1.57848
2.69682
4.97659
12.9855
14.2596
13.4592
1.03435
1.06966
1.09317
1.11006
1.12263
1.13239
1.13987
1.14589
1.1507
1.15475
1.15811
1.16092
1.16348
1.16528
1.16892
1.17462
1.19514
1.22028
1.36269
1.52884
2.54732
4.57786
12.0072
14.9821
13.9539
1.03435
1.06966
1.09318
1.11006
1.12263
1.13239
1.13986
1.14589
1.15069
1.15477
1.15809
1.16095
1.16346
1.16534
1.16869
1.17402
1.19228
1.21605
1.34006
1.48921
2.36079
4.09745
10.6666
15.914
14.6189
1.03436
1.06965
1.09318
1.11005
1.12263
1.1324
1.13985
1.14591
1.15067
1.1548
1.15803
1.16105
1.16328
1.16581
1.16783
1.17509
1.18218
1.2265
1.26825
1.56018
1.99567
3.87503
9.21788
16.7303
15.1917
1.03436
1.06965
1.09318
1.11006
1.12262
1.1324
1.13985
1.14591
1.15066
1.15481
1.15802
1.16104
1.16334
1.16551
1.16838
1.17274
1.18855
1.20672
1.31037
1.42853
2.10539
3.3959
8.08538
17.2125
15.5171
1.03437
1.06965
1.09318
1.11005
1.12262
1.1324
1.13984
1.14592
1.15065
1.15483
1.15799
1.16111
1.16321
1.1659
1.16798
1.17457
1.18237
1.22281
1.26203
1.51657
1.88062
3.4329
7.58919
17.0823
15.5739
1.03437
1.06965
1.09318
1.11005
1.12262
1.1324
1.13984
1.14592
1.15065
1.15483
1.15799
1.1611
1.16323
1.1659
1.168
1.17456
1.18239
1.2224
1.26096
1.51244
1.86753
3.38648
7.44574
16.9771
15.5555
1.00891
1.03173
1.05945
1.08718
1.11377
1.1374
1.1598
1.1795
1.20266
1.23692
1.33987
1.49013
2.11991
3.35438
7.72525
17.5347
15.5763
13.6972
13.3417
13.4565
13.4055
13.0685
12.4581
11.4269
9.28578
1.0089
1.03173
1.05946
1.08718
1.11379
1.13737
1.15981
1.17934
1.20219
1.23486
1.33216
1.47529
2.06774
3.22652
7.31266
16.664
15.03
13.3036
12.9544
13.011
12.9048
12.4707
11.6562
10.4343
8.3204
1.00892
1.03173
1.05938
1.08735
1.11342
1.13803
1.15856
1.18145
1.1975
1.23946
1.29486
1.52585
1.85958
3.25961
6.68963
15.748
14.4753
12.951
12.5994
12.5943
12.4298
11.9127
11.0045
9.83776
8.22735
1.00895
1.03171
1.05939
1.08733
1.11343
1.13798
1.15859
1.18106
1.19675
1.23533
1.28752
1.5003
1.79308
3.11922
6.15606
14.7101
13.8583
12.6515
12.2997
12.2238
11.9857
11.4151
10.5414
9.50808
8.23954
1.00898
1.03163
1.0595
1.08711
1.11379
1.13729
1.15975
1.17872
1.20057
1.22353
1.30665
1.39728
1.89104
2.71142
5.80267
13.5132
13.2115
12.4314
12.0404
11.8906
11.5903
11.0061
10.2203
9.31125
8.26133
1.00894
1.03165
1.05954
1.08701
1.11403
1.13691
1.16031
1.17791
1.20102
1.22442
1.29649
1.39022
1.82171
2.53745
5.34132
12.1332
12.7085
12.2962
11.8095
11.5743
11.2496
10.702
9.99123
9.17898
8.27214
1.00888
1.03173
1.05948
1.08708
1.11398
1.13697
1.1602
1.17794
1.20015
1.22185
1.28439
1.36855
1.73812
2.35128
4.71637
10.5603
12.5202
12.1754
11.6074
11.2977
10.9612
10.4572
9.81371
9.08128
8.2821
1.00882
1.0318
1.0594
1.0872
1.11384
1.13714
1.16
1.17797
1.1995
1.21773
1.27189
1.33789
1.64903
2.13132
4.02251
8.78673
12.5133
12.1262
11.433
11.0523
10.7109
10.248
9.66691
9.00523
8.29485
1.00877
1.03188
1.0593
1.08732
1.11368
1.13734
1.15974
1.17809
1.19873
1.21455
1.25835
1.31399
1.55688
1.92091
3.34264
6.74458
12.4335
12.0228
11.2871
10.8361
10.4875
10.0634
9.53946
8.94592
8.31012
1.00879
1.03186
1.05929
1.08738
1.11351
1.13767
1.1591
1.17911
1.19616
1.21594
1.24275
1.31771
1.43688
1.87883
2.75747
5.59482
11.8287
11.7062
11.1733
10.6394
10.2807
9.89674
9.42863
8.89795
8.33257
1.00877
1.0319
1.05927
1.0874
1.1135
1.13768
1.15905
1.17913
1.19563
1.21494
1.23397
1.30115
1.37338
1.76528
2.37194
4.73651
10.3053
11.2238
10.9557
10.4602
10.1009
9.7502
9.33618
8.86457
8.3633
1.00882
1.03181
1.05935
1.08728
1.11364
1.13746
1.15937
1.17852
1.19645
1.21187
1.23389
1.27032
1.38749
1.55386
2.29256
3.73026
8.31427
11.0222
10.8127
10.3553
9.96691
9.63227
9.26509
8.85782
8.40957
1.00885
1.03177
1.05936
1.08727
1.11363
1.13751
1.15926
1.1787
1.19588
1.21181
1.22893
1.25756
1.34399
1.46972
1.98631
2.98879
6.10262
10.7671
10.6886
10.3355
9.89056
9.54988
9.22075
8.8658
8.48086
1.00882
1.03182
1.05933
1.08732
1.11357
1.13759
1.15911
1.17892
1.1953
1.21235
1.22455
1.25417
1.29382
1.45616
1.66405
2.65967
4.63789
9.92896
10.4925
10.2755
9.83773
9.49583
9.20479
8.89365