/*--------------------------------*- C++ -*----------------------------------*\
  =========                 |
  \\      /  F ield         | OpenFOAM: The Open Source CFD Toolbox
   \\    /   O peration     | Website:  https://openfoam.org
    \\  /    A nd           | Version:  6
     \\/     M anipulation  |
\*---------------------------------------------------------------------------*/
FoamFile
{
    version     2.0;
    format      ascii;
    class       surfaceScalarField;
    location    "7";
    object      phi;
}
// * * * * * * * * * * * * * * * * * * * * * * * * * * * * * * * * * * * * * //

dimensions      [1 0 -1 0 0 0 0];

internalField   nonuniform List<scalar> 
72625
(
0.00162355
8.24838e-11
5.87501e-05
0.00157665
7.45202e-10
4.69077e-05
0.00153805
4.3896e-10
3.85945e-05
0.00150612
1.3107e-09
3.1929e-05
0.00147905
1.32391e-10
2.70715e-05
0.00145655
1.42367e-09
2.2502e-05
0.00143681
-4.21221e-10
1.97326e-05
0.00142082
4.0453e-09
1.59855e-05
0.00140576
1.08722e-08
1.50458e-05
0.00139146
3.8333e-08
1.42452e-05
0.00138336
7.76578e-08
8.02007e-06
0.00136566
2.55757e-07
1.73323e-05
0.00138616
6.21672e-07
-2.11337e-05
0.00133725
2.23711e-06
4.6377e-05
0.00162089
7.59269e-06
-0.000291939
0.00181887
3.11123e-05
-0.000230472
0.00166851
4.06277e-05
0.000108924
0.00146562
4.89501e-05
0.000153868
0.00135956
6.13023e-05
4.46995e-05
0.00134301
7.49748e-05
-5.85665e-05
0.00126243
7.01056e-05
1.03225e-05
0.00116209
5.21474e-05
4.80492e-05
0.00101602
2.91153e-05
0.000116753
0.000670863
3.84424e-05
0.000306552
2.40108e-05
0.000646976
0.00162355
1.17742e-09
5.87495e-05
0.00157664
2.62563e-09
4.6908e-05
0.00153805
5.58795e-10
3.85942e-05
0.00150612
2.29085e-09
3.19291e-05
0.00147905
-1.57066e-09
2.70719e-05
0.00145655
2.68904e-09
2.25013e-05
0.00143682
-3.3095e-09
1.97342e-05
0.00142083
1.07475e-08
1.59808e-05
0.00140576
2.76993e-08
1.50478e-05
0.00139147
9.27657e-08
1.42148e-05
0.00138326
2.13804e-07
8.06601e-06
0.00136567
6.04025e-07
1.7147e-05
0.0013859
1.41089e-06
-2.10385e-05
0.00133789
4.21674e-06
4.57305e-05
0.00161636
1.40615e-05
-0.000285624
0.00181994
6.02735e-05
-0.000234064
0.0016718
8.93945e-05
9.86078e-05
0.00147091
0.000106514
0.000143193
0.00138665
0.000109471
3.60201e-05
0.00134376
0.000115856
1.8539e-06
0.00130363
0.000121694
-1.16213e-05
0.00123221
0.000116331
7.06499e-06
0.0010677
0.000100619
9.28119e-05
0.000721099
0.000106511
0.000278403
0.000120135
0.000625091
0.00162355
7.61329e-09
5.8748e-05
0.00157664
2.25521e-09
4.69086e-05
0.00153805
1.0463e-09
3.85939e-05
0.00150612
-9.11245e-10
3.19291e-05
0.00147905
-3.15996e-09
2.70732e-05
0.00145655
8.69156e-10
2.24994e-05
0.00143682
-7.26595e-09
1.97379e-05
0.00142083
2.56109e-08
1.59737e-05
0.00140578
3.40993e-08
1.5041e-05
0.00139138
2.7011e-07
1.42025e-05
0.00138286
7.08476e-07
8.02136e-06
0.00136562
5.73365e-07
1.71702e-05
0.00138362
4.64055e-06
-2.12432e-05
0.00133809
3.89135e-06
4.55686e-05
0.001606
3.14146e-05
-0.000285952
0.00179159
0.000126833
-0.000253441
0.00163047
0.000155107
9.43985e-05
0.00144682
0.000154558
0.000135142
0.00136845
0.000154543
3.29837e-05
0.00131308
0.000159989
1.09196e-05
0.00127892
0.000173948
-1.83852e-05
0.0012117
0.000189479
-6.21228e-06
0.00103586
0.000193981
8.21767e-05
0.00068262
0.00019501
0.000264552
0.00021341
0.000589356
0.00162355
2.70434e-08
5.87377e-05
0.00157666
-2.56602e-08
4.69189e-05
0.00153805
1.87028e-08
3.85869e-05
0.00150614
-2.11166e-08
3.19364e-05
0.00147905
1.60684e-08
2.70684e-05
0.00145657
-2.48286e-08
2.25023e-05
0.0014368
2.71762e-08
1.97379e-05
0.00142094
-6.85749e-08
1.59582e-05
0.00140598
-5.00529e-08
1.50352e-05
0.00139097
1.28077e-06
1.39702e-05
0.00138845
-4.63567e-06
7.86433e-06
0.00135645
1.6e-05
1.64701e-05
0.00141397
-3.08059e-05
-2.20612e-05
0.00131897
5.52096e-05
4.34257e-05
0.00161868
1.11831e-05
-0.000280153
0.00179999
0.000187608
-0.000243322
0.00165627
0.000218487
7.94052e-05
0.00145923
0.000220858
0.000130323
0.00136913
0.000218929
2.54272e-05
0.00132074
0.000240357
-3.2288e-05
0.00125697
0.00025036
-1.28941e-05
0.0011824
0.000263713
5.35983e-08
0.00101453
0.000282105
7.94554e-05
0.000654846
0.000296211
0.000258301
0.000308776
0.000559417
0.00162369
-1.79832e-08
5.86729e-05
0.00157664
2.87433e-08
4.69904e-05
0.00153816
-1.678e-08
3.85275e-05
0.00150611
2.12209e-08
3.19973e-05
0.00147914
-2.06211e-08
2.70107e-05
0.00145652
2.94174e-08
2.25643e-05
0.0014369
-3.86461e-08
1.96705e-05
0.00142071
1.23754e-07
1.60994e-05
0.00140507
1.35962e-07
1.51363e-05
0.00139495
-7.37862e-07
1.2429e-05
0.00136857
5.95245e-06
1.57246e-05
0.00140166
-1.29116e-05
-5.08725e-06
0.00130222
4.37292e-05
2.55179e-05
0.00146279
-3.96398e-05
-6.55062e-05
0.00150034
8.76676e-05
-0.000114954
0.00177144
0.000190894
-0.000275579
0.00165222
0.000263137
7.37386e-05
0.00148356
0.000260077
0.000129028
0.00140213
0.000272947
2.71861e-05
0.00135032
0.000298912
-6.9754e-06
0.00128877
0.000324391
-1.26847e-05
0.00120108
0.000347378
3.77765e-06
0.00102658
0.000375208
8.11563e-05
0.000661695
0.000406852
0.000254084
0.000428418
0.000541986
0.00162355
1.48109e-08
5.87249e-05
0.00157667
-2.36681e-08
4.69318e-05
0.00153806
1.56599e-08
3.85777e-05
0.00150616
-1.85327e-08
3.19459e-05
0.00147905
2.34049e-08
2.70624e-05
0.00145661
-3.28519e-08
2.25054e-05
0.00143677
5.96189e-08
1.97398e-05
0.00142108
-1.24736e-07
1.59328e-05
0.00140609
7.50413e-08
1.50388e-05
0.00139051
1.12617e-06
1.36963e-05
0.00139338
-4.70667e-06
7.75634e-06
0.00134894
1.58246e-05
1.56273e-05
0.00144602
-3.0656e-05
-2.26615e-05
0.00130447
6.11756e-05
4.04605e-05
0.00163393
1.82673e-05
-0.000260707
0.00181078
0.000259307
-0.000246595
0.00170853
0.000315073
4.93101e-05
0.00150827
0.000328299
0.000131615
0.00142251
0.000331356
2.70725e-05
0.00136566
0.000361751
-6.28222e-06
0.00130884
0.000396673
-1.5754e-05
0.00122215
0.000430243
3.58496e-06
0.00104188
0.000474361
8.08236e-05
0.000674585
0.000528386
0.000245626
0.000579167
0.00052383
0.00162367
-1.92408e-08
5.86812e-05
0.00157664
2.20585e-08
4.6981e-05
0.00153814
-1.94341e-08
3.85347e-05
0.00150611
2.7558e-08
3.19908e-05
0.00147915
-3.16764e-08
2.7014e-05
0.00145649
5.61452e-08
2.25664e-05
0.00143697
-7.00083e-08
1.96557e-05
0.00142051
2.16266e-07
1.61357e-05
0.00140504
1.62434e-07
1.50381e-05
0.00139593
-7.20412e-07
1.24797e-05
0.00136875
5.33747e-06
1.54747e-05
0.00139963
-1.04411e-05
-4.30426e-06
0.00130327
4.15426e-05
2.45738e-05
0.00145724
-3.05679e-05
-6.28827e-05
0.00149237
8.48876e-05
-0.000102216
0.0017718
0.000263558
-0.000284901
0.00169177
0.000359054
3.51022e-05
0.00152688
0.000366676
0.000126189
0.00144589
0.000383251
2.88387e-05
0.00138494
0.000421396
9.91782e-07
0.00133233
0.000466274
-1.73292e-05
0.00124448
0.000513139
4.63938e-06
0.00106349
0.000576959
7.8001e-05
0.000692196
0.00066533
0.000234169
0.000771517
0.000499844
0.00162357
-4.07267e-09
5.87236e-05
0.00157666
7.59974e-10
4.69318e-05
0.00153807
-3.20551e-09
3.85802e-05
0.00150615
5.38961e-09
3.19385e-05
0.00147905
-6.13873e-09
2.70748e-05
0.00145661
1.09902e-08
2.24833e-05
0.00143677
-5.04016e-09
1.97701e-05
0.0014211
2.21511e-08
1.58644e-05
0.00140582
9.45292e-08
1.49777e-05
0.00139146
1.85614e-07
1.38131e-05
0.00138815
2.96906e-07
8.17292e-06
0.00135939
2.59859e-06
1.57915e-05
0.00141833
3.15357e-06
-2.05571e-05
0.00132385
2.27782e-05
4.08379e-05
0.0015818
6.27819e-05
-0.000236402
0.00179157
0.000321927
-0.000269495
0.00173183
0.000411678
6.14244e-06
0.00154435
0.000424711
0.000129134
0.00145949
0.000437399
3.05178e-05
0.00140086
0.000480506
-7.51394e-07
0.00135148
0.00053356
-1.82279e-05
0.00126541
0.000593004
5.88071e-06
0.00108691
0.000680752
7.42644e-05
0.000722648
0.000815449
0.00021383
0.00102967
0.000464492
0.00162357
5.46942e-09
5.87266e-05
0.00157665
-5.54636e-09
4.69285e-05
0.00153806
3.64288e-09
3.85838e-05
0.00150614
-1.06135e-08
3.19332e-05
0.00147905
7.31948e-09
2.70828e-05
0.0014566
-1.17268e-08
2.24722e-05
0.0014368
4.33173e-09
1.97856e-05
0.00142096
1.67084e-08
1.58511e-05
0.00140623
-7.77738e-08
1.49974e-05
0.00139186
5.56251e-07
1.38839e-05
0.00138249
1.19608e-06
8.42791e-06
0.00136684
2.39703e-06
1.57984e-05
0.00138027
8.51135e-06
-1.88141e-05
0.00134638
1.649e-05
3.99329e-05
0.00154591
7.53594e-05
-0.000212622
0.00177937
0.000350949
-0.000263775
0.00175235
0.000465404
-2.79596e-05
0.00156491
0.000486826
0.000124956
0.00147561
0.000495374
3.11634e-05
0.00142103
0.000539557
-4.66603e-06
0.00137502
0.000596995
-1.76427e-05
0.00129431
0.000667387
6.03885e-06
0.00112333
0.000782118
6.91931e-05
0.000780036
0.000975136
0.000183229
0.00140887
0.000400757
0.00162358
5.8721e-05
1.51282e-08
0.00157667
4.69388e-05
-3.08146e-08
0.00153807
3.8572e-05
2.75121e-08
0.00150615
3.19505e-05
-4.2168e-08
0.00147904
2.7059e-05
6.06575e-08
0.00145662
2.25013e-05
-9.92467e-08
0.00143674
1.97496e-05
1.66461e-07
0.00142107
1.58858e-05
-2.97914e-07
0.00140495
1.51063e-05
4.46895e-07
0.00139096
1.35632e-05
1.33534e-06
0.00138638
8.57392e-06
-2.9552e-06
0.00135945
1.45986e-05
1.48686e-05
0.0014081
-1.79663e-05
-2.21229e-05
0.00131792
3.76683e-05
6.87897e-05
0.00154878
-0.000198667
4.25974e-05
0.00176305
-0.000259432
0.000394751
0.0017687
-5.5581e-05
0.000514184
0.00158498
0.000120148
0.000549976
0.00149525
3.3537e-05
0.000551361
0.00144841
-6.67536e-06
0.000592844
0.00140722
-1.35656e-05
0.000651496
0.00133923
4.7333e-06
0.000730362
0.00118564
5.66878e-05
0.000878644
0.000876565
0.000148716
0.00113511
0.000286824
0.00199842
0.00172979
-3.55374e-10
7.16857e-06
0.00176404
9.01033e-10
1.26513e-05
0.00178823
2.54362e-10
1.44063e-05
0.00180604
1.62671e-09
1.41175e-05
0.00181989
3.95228e-10
1.32177e-05
0.00183055
1.80779e-09
1.1845e-05
0.0018394
5.3995e-10
1.08844e-05
0.00184586
2.89972e-09
9.51673e-06
0.0018519
1.27316e-08
8.99103e-06
0.00185746
3.75782e-08
8.62146e-06
0.00185783
1.21656e-07
7.52432e-06
0.00186782
2.81625e-07
6.92122e-06
0.00184282
8.97328e-07
2.84945e-06
0.00189209
2.85675e-06
-6.00342e-06
0.00175896
1.37835e-05
-0.00017453
0.00154211
0.000102634
-0.00012045
0.0013742
0.000135874
0.000139606
0.00127629
0.000185251
6.58145e-05
0.000998026
0.000255736
6.66856e-05
0.00117716
0.000434709
-0.000673045
0.000835305
0.00030555
4.59656e-05
0.000519867
0.000224579
0.000138208
0.00018632
0.000213065
0.00023655
-0.000102207
0.000272365
0.000322188
0.000160763
0.000383638
0.00172979
8.54504e-10
7.16697e-06
0.00176404
1.6145e-09
1.26534e-05
0.00178823
1.29459e-09
1.44047e-05
0.00180604
2.18342e-09
1.41191e-05
0.00181989
7.02162e-10
1.32157e-05
0.00183055
2.28695e-09
1.18474e-05
0.0018394
8.47144e-10
1.08801e-05
0.00184586
9.00866e-09
9.51732e-06
0.00185195
3.23274e-08
8.9368e-06
0.00185734
1.16329e-07
8.7143e-06
0.00185824
2.4424e-07
7.03363e-06
0.00186711
8.81433e-07
7.54961e-06
0.00184346
2.05539e-06
1.335e-06
0.00189034
7.83097e-06
-6.39078e-06
0.00175268
3.47688e-05
-0.000170878
0.00154778
0.000160731
-9.15865e-05
0.00136807
0.000291487
0.000121495
0.00130844
0.000342861
4.45887e-05
0.00120005
0.000383566
1.60705e-05
0.00120476
0.000436529
-5.23647e-06
0.00102382
0.000471595
2.66111e-06
0.000645084
0.000493152
0.000116563
0.000247884
0.000510762
0.000191662
-1.7851e-05
0.000541986
0.000273981
0.000422723
0.000344912
0.00172978
3.96456e-09
7.16805e-06
0.00176404
2.28879e-09
1.26511e-05
0.00178822
2.57075e-09
1.44062e-05
0.00180604
1.6409e-09
1.41169e-05
0.00181989
1.29423e-10
1.32184e-05
0.00183055
2.3953e-09
1.18439e-05
0.0018394
-2.01707e-10
1.08856e-05
0.00184585
1.82872e-08
9.51279e-06
0.00185187
6.61084e-08
8.98418e-06
0.00185732
2.45346e-07
8.59562e-06
0.00185761
4.56303e-07
7.51095e-06
0.001867
1.80616e-06
6.73417e-06
0.00184157
3.44125e-06
2.67267e-06
0.00188865
1.34804e-05
-7.34153e-06
0.00175456
5.54494e-05
-0.00017455
0.00149436
0.000395273
-0.000230527
0.00133957
0.000431072
0.000108229
0.00129522
0.000485911
3.56495e-05
0.00120673
0.00050903
-4.60565e-06
0.00119724
0.000517806
-6.14525e-05
0.00101347
0.000650365
-1.40106e-05
0.000641724
0.00074113
0.000116905
0.000263469
0.000787993
0.000182509
-1.30485e-07
0.000813396
0.000256198
0.000682056
0.000329455
0.00172977
1.10253e-08
7.16495e-06
0.00176404
-6.05715e-09
1.26544e-05
0.00178822
8.86435e-09
1.44038e-05
0.00180605
-6.5405e-09
1.41198e-05
0.00181989
7.66486e-09
1.32165e-05
0.00183055
-6.30116e-09
1.18458e-05
0.0018394
1.44078e-08
1.08825e-05
0.00184582
3.72565e-08
9.50946e-06
0.00185173
2.65043e-07
8.92721e-06
0.00185714
8.78327e-08
8.69391e-06
0.00185614
2.22683e-06
7.08347e-06
0.00186635
6.40596e-07
7.30339e-06
0.00183711
9.12392e-06
1.37314e-06
0.00188226
1.95222e-05
-7.9931e-06
0.00175344
6.63298e-05
-0.000164099
0.00151919
0.000494852
-0.000111959
0.00133719
0.000591323
9.98024e-05
0.00127252
0.000644645
3.54396e-05
0.00108028
0.000716779
9.30101e-06
0.00113232
0.00092964
-0.000496774
0.00092939
0.000865605
-2.58131e-05
0.000608769
0.000949902
0.000111247
0.000260535
0.00104051
0.000174572
1.30723e-05
0.0010795
0.000239101
0.000936271
0.000317829
0.00172974
-6.71597e-09
7.16099e-06
0.00176405
9.1729e-09
1.26579e-05
0.0017882
-6.20357e-09
1.44001e-05
0.00180605
9.65186e-09
1.41245e-05
0.00181987
-8.63958e-09
1.32128e-05
0.00183057
1.28207e-08
1.18474e-05
0.00183939
-1.33894e-08
1.08783e-05
0.00184603
1.24823e-08
9.47558e-06
0.00185277
-8.45443e-08
8.74411e-06
0.00185555
5.61737e-07
9.1356e-06
0.00186977
-8.54214e-07
4.5924e-06
0.00184899
4.32329e-06
1.18498e-05
0.00188991
2.48394e-06
-8.8394e-06
0.0018132
2.51085e-05
5.41048e-06
0.00176387
0.000146177
-0.000147365
0.00148652
0.000617561
-0.000124506
0.00133049
0.000726636
9.30356e-05
0.00127921
0.000789595
3.44601e-05
0.00114609
0.000878153
-1.70933e-06
0.00114245
0.00100112
-7.54465e-05
0.000945026
0.00108776
-3.80814e-05
0.000620046
0.00118348
9.44988e-05
0.000283377
0.00129706
0.00016053
4.2461e-05
0.00135016
0.000223823
0.00121447
0.000305779
0.00172976
4.47566e-09
7.16264e-06
0.00176405
-7.43505e-09
1.26561e-05
0.00178821
4.82761e-09
1.44023e-05
0.00180606
-6.77233e-09
1.4121e-05
0.00181988
8.33775e-09
1.32171e-05
0.00183056
-6.37111e-09
1.18438e-05
0.00183939
1.9244e-08
1.08857e-05
0.00184579
4.53767e-08
9.49485e-06
0.00185156
2.74022e-07
8.90905e-06
0.00185694
1.68125e-07
8.6867e-06
0.00185423
2.48083e-06
7.1141e-06
0.00186571
1.2534e-06
7.09666e-06
0.00183148
1.25134e-05
1.41894e-06
0.00187475
3.13659e-05
-9.19424e-06
0.00176411
0.000134148
-0.00013996
0.00151782
0.00074776
-0.000134848
0.00133875
0.000865712
8.81845e-05
0.00129833
0.000930812
3.02589e-05
0.00117282
0.00103925
-9.02466e-06
0.00114119
0.00120509
-0.000179143
0.000956265
0.00130382
-4.75218e-05
0.00064957
0.0014166
7.66485e-05
0.000328246
0.00155225
0.000146379
8.52408e-05
0.00162838
0.000209719
0.00153167
0.000291368
0.00172974
-1.02668e-08
7.16223e-06
0.00176405
7.46246e-09
1.2656e-05
0.0017882
-1.01242e-08
1.44017e-05
0.00180605
1.19187e-08
1.41213e-05
0.00181987
-1.25588e-08
1.32175e-05
0.00183057
1.88951e-08
1.18394e-05
0.00183937
-1.47e-08
1.08916e-05
0.00184609
1.62967e-08
9.44488e-06
0.00185263
-4.34427e-08
8.79893e-06
0.00185559
6.41053e-07
9.02706e-06
0.00186897
-5.21808e-07
5.07122e-06
0.00184944
5.24435e-06
1.11285e-05
0.00188791
5.92826e-06
-7.43341e-06
0.00181167
3.9085e-05
5.60619e-06
0.00177497
0.00019503
-0.000128412
0.00151998
0.000839237
-0.000124841
0.0013473
0.000989823
8.22731e-05
0.00131787
0.00105687
2.88732e-05
0.00121926
0.00118054
-1.43307e-05
0.00115437
0.00136021
-8.97569e-05
0.000985961
0.00150367
-4.94765e-05
0.00070419
0.00164208
6.01636e-05
0.000395511
0.00180499
0.000133224
0.00014377
0.00191676
0.000196847
0.001901
0.000273802
0.00172976
-4.52229e-09
7.16529e-06
0.00176404
2.02575e-09
1.2652e-05
0.00178821
-3.86274e-09
1.44066e-05
0.00180604
4.23582e-09
1.41136e-05
0.00181988
-3.66235e-09
1.32268e-05
0.00183055
6.15683e-09
1.18316e-05
0.0018394
2.15633e-09
1.09002e-05
0.00184577
3.21702e-08
9.47934e-06
0.00185162
1.30203e-07
8.94237e-06
0.00185699
4.93184e-07
8.58323e-06
0.00185594
1.1543e-06
7.52446e-06
0.00186627
4.16113e-06
6.4257e-06
0.00183772
1.12013e-05
2.58938e-06
0.00188352
4.42032e-05
-1.01148e-05
0.00177118
0.000189641
-0.000120511
0.00156396
0.000989102
-0.000215447
0.00135986
0.0011176
8.10811e-05
0.00134274
0.00117626
2.61757e-05
0.00125892
0.00131002
-1.55301e-05
0.00118445
0.00150614
-7.25859e-05
0.00102772
0.00168537
-4.36017e-05
0.000779877
0.00185071
4.45741e-05
0.000492351
0.00204844
0.000117597
0.000222993
0.00221798
0.000181297
0.00234031
0.000247477
0.00172976
2.02116e-09
7.1656e-06
0.00176403
2.59898e-09
1.26518e-05
0.00178821
-2.07603e-09
1.44072e-05
0.00180603
2.45628e-09
1.4112e-05
0.00181989
-5.11571e-09
1.32292e-05
0.00183053
4.53447e-09
1.18278e-05
0.00183942
5.57179e-10
1.09054e-05
0.0018458
2.44611e-08
9.4665e-06
0.00185181
1.94639e-07
8.93017e-06
0.00185715
4.41543e-07
8.57152e-06
0.00185676
2.41452e-06
7.54362e-06
0.00186763
2.689e-06
6.28209e-06
0.00183939
1.80488e-05
2.44144e-06
0.00190051
3.41149e-05
-1.11264e-05
0.00179487
0.000194773
-0.000113796
0.00163267
0.0010329
-0.000148792
0.00139822
0.00124551
7.73606e-05
0.00137599
0.00129575
2.69335e-05
0.00130478
0.00142695
-1.50404e-05
0.00123068
0.00163228
-5.72389e-05
0.00109037
0.00184397
-3.65738e-05
0.000882429
0.00203219
3.17772e-05
0.00063679
0.00226593
9.66301e-05
0.000354332
0.00252372
0.000159068
0.00288514
0.000210782
0.00172975
7.16358e-06
1.26886e-08
0.00176405
1.26556e-05
-8.54803e-09
0.00178821
1.44028e-05
2.63968e-09
0.00180604
1.41204e-05
1.19226e-09
0.00181989
1.32187e-05
-1.39421e-08
0.00183053
1.18382e-05
2.78811e-08
0.00183946
1.08976e-05
-7.45164e-08
0.00184578
9.46572e-06
1.22425e-07
0.0018525
8.93407e-06
-3.62872e-07
0.00185567
8.59704e-06
2.21062e-06
0.00186305
7.14684e-06
-3.56858e-06
0.00185436
7.17614e-06
1.86904e-05
0.00187088
-2.59309e-07
-1.63656e-05
0.00186505
-3.50326e-06
8.07947e-05
0.00182257
-0.000110476
0.000147268
0.00168701
-0.000214544
0.00111996
0.00143646
6.5977e-05
0.00137345
0.00141292
2.5437e-05
0.00141334
0.00135466
-1.44824e-05
0.00153287
0.00128716
-4.53414e-05
0.00173808
0.0011887
-3.22983e-05
0.00196068
0.00102534
2.33243e-05
0.00217631
0.000819774
7.86384e-05
0.00244866
0.000596266
0.000120092
0.0027749
0.000153066
0.00361302
0.00169387
5.48237e-10
-7.16641e-06
0.00171917
2.61588e-10
-1.26517e-05
0.00174798
5.36401e-10
-1.4404e-05
0.00177621
3.58292e-10
-1.41179e-05
0.00180265
3.08215e-11
-1.32166e-05
0.00182634
1.29038e-09
-1.18453e-05
0.00184811
-1.33805e-09
-1.08832e-05
0.00186713
7.09779e-09
-9.51734e-06
0.00188511
-6.82812e-09
-8.98166e-06
0.00190224
1.00046e-07
-8.6381e-06
0.00191738
-9.33264e-08
-7.51585e-06
0.00193042
6.53504e-07
-6.92018e-06
0.00193607
-2.05532e-08
-2.89973e-06
0.00192163
2.33096e-06
5.83838e-06
0.00158195
6.20636e-06
0.000156421
0.00115321
0.000197082
0.000103996
0.00118183
0.000238808
-0.000129581
0.00102323
0.000278806
-5.53807e-05
0.000847435
0.000271711
-3.00235e-05
-5.5393e-05
0.000252444
-2.34581e-05
-0.00028939
0.000314223
-3.50291e-05
-0.000441659
0.000419259
-0.000129553
-0.000450499
0.000452814
-0.000208171
-0.000322915
0.000503854
-0.00030995
0.000456661
-0.00039656
0.00169386
-1.12144e-10
-7.16267e-06
0.00171917
5.62128e-10
-1.26552e-05
0.00174798
5.00947e-10
-1.44003e-05
0.00177622
1.02698e-09
-1.41233e-05
0.00180264
9.07089e-10
-1.32119e-05
0.00182634
-3.93662e-10
-1.18486e-05
0.00184809
3.26399e-09
-1.08764e-05
0.00186711
-1.57951e-09
-9.48966e-06
0.00188479
4.17458e-08
-8.78789e-06
0.00190269
1.64375e-08
-9.13479e-06
0.00191411
4.41058e-07
-4.92132e-06
0.00193356
3.10561e-07
-1.17043e-05
0.00192434
2.77301e-06
7.64715e-06
0.0019207
7.14006e-06
-7.82337e-06
0.00157266
4.70129e-05
0.000133806
0.00112428
0.000345029
0.000201112
0.00116028
0.000432739
-0.000110035
0.00102507
0.000509174
-5.14441e-05
0.000832308
0.000531429
-5.16155e-05
-7.80305e-05
0.000503141
0.000653634
-0.000401671
0.000659247
-1.94523e-05
-0.000497218
0.000740101
-0.00010945
-0.000473703
0.00080813
-0.000187895
-0.000306253
0.00087615
-0.000266461
0.000829889
-0.000335201
0.00169386
6.29835e-10
-7.16473e-06
0.00171917
7.05574e-10
-1.26527e-05
0.00174798
5.76048e-10
-1.44032e-05
0.00177621
7.76182e-10
-1.41191e-05
0.00180265
-3.48741e-10
-1.32169e-05
0.00182634
1.25156e-09
-1.1845e-05
0.00184811
-3.26727e-10
-1.08842e-05
0.00186712
1.1569e-08
-9.51211e-06
0.0018851
2.35229e-08
-8.9723e-06
0.0019021
2.10591e-07
-8.63101e-06
0.00191736
2.23542e-07
-7.53841e-06
0.00192947
1.58133e-06
-6.77938e-06
0.0019351
2.69598e-06
-3.00776e-06
0.00191596
1.20907e-05
6.59328e-06
0.00157702
6.13996e-05
0.000147463
0.00112162
0.000480916
8.15301e-05
0.00114524
0.000621215
-0.000105359
0.00100964
0.000724547
-4.49152e-05
0.000788219
0.000778006
-3.04051e-05
-6.17354e-05
0.000828559
0.000462343
-0.000397906
0.000969462
1.11258e-05
-0.000479706
0.00104731
-0.000109354
-0.00045223
0.00114338
-0.000180971
-0.000300276
0.00122193
-0.000242231
0.00116202
-0.000303613
0.00169386
4.05644e-10
-7.16146e-06
0.00171917
3.41662e-10
-1.26557e-05
0.00174797
8.75387e-11
-1.44005e-05
0.00177622
3.41408e-10
-1.41231e-05
0.00180265
-8.70922e-10
-1.32138e-05
0.00182634
1.45898e-09
-1.18474e-05
0.0018481
3.84306e-10
-1.0878e-05
0.0018671
1.57461e-08
-9.48963e-06
0.00188479
4.56208e-08
-8.78823e-06
0.00190245
2.89745e-07
-9.075e-06
0.00191424
4.33761e-07
-4.92154e-06
0.00193201
2.23713e-06
-1.12611e-05
0.00192377
4.58603e-06
7.5969e-06
0.00191521
1.89746e-05
-6.57902e-06
0.00157584
0.000101223
0.000132957
0.00112676
0.000697129
0.000114049
0.00113147
0.00081352
-9.88166e-05
0.00100423
0.000927178
-4.08834e-05
0.000786436
0.00101274
-8.31362e-06
-9.79943e-06
0.00106962
5.76839e-05
-0.000346027
0.0012495
2.96619e-05
-0.000426442
0.00134904
-0.000110755
-0.000409336
0.00147347
-0.000173373
-0.000281323
0.0015598
-0.000227487
0.00149264
-0.000294786
0.00169386
-1.42336e-09
-7.15909e-06
0.00171917
7.11207e-12
-1.26591e-05
0.00174797
-1.193e-09
-1.43989e-05
0.00177622
5.0614e-10
-1.41258e-05
0.00180265
-3.36034e-10
-1.32121e-05
0.00182634
1.06101e-09
-1.18493e-05
0.00184809
4.70493e-09
-1.08749e-05
0.00186706
1.25149e-08
-9.48836e-06
0.00188449
9.38305e-08
-8.73912e-06
0.00190276
2.71192e-07
-9.13252e-06
0.00191131
9.67659e-07
-4.49782e-06
0.00193444
2.46444e-06
-1.16474e-05
0.00191305
8.15157e-06
8.85715e-06
0.0019144
2.91039e-05
-6.32879e-06
0.0015812
0.000162242
0.000122347
0.00112708
0.000893195
0.000127065
0.00112742
0.00099727
-9.27097e-05
0.00100521
0.00112108
-3.82311e-05
0.000777036
0.00124218
-3.67659e-06
9.93731e-05
0.0013702
0.000300937
-0.000246815
0.00152171
3.51783e-05
-0.000350177
0.00164527
-9.90169e-05
-0.000353663
0.00179823
-0.000161501
-0.000250178
0.00189667
-0.000217233
0.00183732
-0.000289772
0.00169386
-2.74159e-09
-7.16111e-06
0.00171917
1.61978e-10
-1.26566e-05
0.00174797
-2.42046e-09
-1.44006e-05
0.00177622
8.76341e-10
-1.41231e-05
0.00180265
-5.38696e-10
-1.32147e-05
0.00182634
2.77087e-09
-1.1844e-05
0.00184811
4.31201e-09
-1.08841e-05
0.00186706
2.26864e-08
-9.46438e-06
0.00188475
9.26351e-08
-8.78779e-06
0.00190225
4.52556e-07
-9.01638e-06
0.00191438
9.6936e-07
-5.02426e-06
0.00193095
3.84605e-06
-1.1e-05
0.00192337
9.66784e-06
7.35911e-06
0.00190999
3.87586e-05
-5.74492e-06
0.00159608
0.000203974
0.000129844
0.0011379
0.00108249
0.000127793
0.00113332
0.00117597
-8.76143e-05
0.00101694
0.00130195
-3.52469e-05
0.000789687
0.00145252
7.11469e-06
0.000250832
0.00163981
8.9384e-05
-0.000116272
0.00179736
4.30087e-05
-0.000256067
0.00194201
-8.12345e-05
-0.000280406
0.00211587
-0.000147603
-0.000204205
0.0022337
-0.000204261
0.0022027
-0.000278931
0.00169386
-3.42532e-09
-7.16451e-06
0.00171917
3.50831e-10
-1.26535e-05
0.00174797
-2.17327e-09
-1.44043e-05
0.00177621
9.68223e-10
-1.41167e-05
0.00180265
1.26939e-09
-1.32202e-05
0.00182633
3.18268e-11
-1.18398e-05
0.0018481
1.06871e-08
-1.08885e-05
0.00186704
1.59193e-08
-9.48703e-06
0.0018847
1.30457e-07
-8.90059e-06
0.00190237
4.62263e-07
-8.67874e-06
0.001914
1.43189e-06
-7.02762e-06
0.00193185
4.14845e-06
-7.1645e-06
0.00192238
1.26293e-05
-1.04919e-06
0.00191112
4.61094e-05
9.20692e-06
0.00161666
0.000237274
0.000130486
0.00115234
0.00124247
0.000173247
0.00114978
0.00134418
-8.50421e-05
0.00103892
0.00147086
-3.01171e-05
0.000817661
0.00164647
1.24009e-05
0.000387915
0.00189133
8.79311e-05
2.05088e-05
0.00206899
4.56314e-05
-0.00013747
0.00222298
-6.3452e-05
-0.000180628
0.00242524
-0.00013361
-0.000136763
0.00257789
-0.000191929
0.00260364
-0.000264609
0.00169386
-3.37603e-09
-7.16702e-06
0.00171916
2.88022e-09
-1.265e-05
0.00174798
-2.22855e-09
-1.44081e-05
0.0017762
3.20899e-09
-1.41108e-05
0.00180266
3.05046e-10
-1.32275e-05
0.00182632
1.10653e-09
-1.18309e-05
0.00184812
1.06341e-08
-1.08991e-05
0.00186707
2.34197e-08
-9.48426e-06
0.00188496
1.36009e-07
-8.94984e-06
0.00190191
6.36331e-07
-8.56603e-06
0.00191696
1.3664e-06
-7.47527e-06
0.00192861
5.22779e-06
-6.44203e-06
0.00193307
1.29438e-05
-2.31962e-06
0.0019074
5.10026e-05
1.03535e-05
0.00164294
0.000249989
0.000129095
0.00117139
0.00136955
0.000123002
0.00117413
0.00150649
-8.55424e-05
0.00106973
0.00162843
-2.78891e-05
0.000866749
0.00181906
1.40042e-05
0.000516774
0.00209726
7.06822e-05
0.00017858
0.00232172
4.10769e-05
4.92603e-06
0.00248725
-4.66739e-05
-5.53105e-05
0.00271949
-0.000117411
-4.00669e-05
0.00292007
-0.000176888
0.00305113
-0.0002409
0.00169386
-8.6015e-10
-7.16603e-06
0.00171916
7.38418e-09
-1.26512e-05
0.00174798
-6.74546e-09
-1.44073e-05
0.00177619
1.26074e-08
-1.4111e-05
0.00180266
-1.42144e-08
-1.32289e-05
0.0018263
1.68857e-08
-1.18275e-05
0.00184812
1.32311e-09
-1.09052e-05
0.00186706
1.93037e-08
-9.46691e-06
0.00188474
3.17034e-07
-8.93232e-06
0.00190197
5.31805e-07
-8.57433e-06
0.00191608
2.33183e-06
-7.54858e-06
0.00193007
3.68934e-06
-6.30367e-06
0.00192975
1.8044e-05
-2.46822e-06
0.00191262
4.55974e-05
1.10788e-05
0.00167579
0.000257616
0.000113416
0.00120134
0.00146586
0.000223426
0.00119993
0.00166256
-7.91206e-05
0.00110723
0.00177455
-2.73812e-05
0.000923499
0.00197293
1.43272e-05
0.000634654
0.00227183
5.62371e-05
0.000344435
0.00253903
3.52446e-05
0.000176852
0.00271866
-3.29597e-05
0.000107151
0.00298117
-9.59279e-05
0.000100734
0.00323961
-0.000155054
0.00356837
-0.000206361
0.00169385
-7.16284e-06
9.11771e-09
0.00171916
-1.26553e-05
9.00612e-10
0.00174797
-1.44017e-05
-9.63322e-09
0.0017762
-1.412e-05
2.85459e-08
0.00180268
-1.32182e-05
-6.01207e-08
0.00182626
-1.18381e-05
1.12768e-07
0.00184824
-1.08978e-05
-1.88983e-07
0.00186678
-9.46571e-06
4.12944e-07
0.00188528
-8.93311e-06
-3.09043e-07
0.00190074
-8.59992e-06
2.24044e-06
0.00192129
-7.1509e-06
-3.92461e-06
0.00191989
-7.20766e-06
1.93361e-05
0.00195349
1.83623e-07
-1.61081e-05
0.00190847
3.30422e-06
8.35303e-05
0.00173221
0.000109589
0.000211893
0.00124084
0.000195845
0.0015413
0.0012265
-6.60617e-05
0.00180746
0.00114614
-2.56019e-05
0.00190505
0.000988208
1.36747e-05
0.00210192
0.000756563
4.43558e-05
0.00241344
0.000528555
3.09858e-05
0.00270326
0.000382106
-2.45214e-05
0.00291212
0.000329985
-7.86006e-05
0.00318969
0.000312734
-0.000116739
0.00349288
-0.000150041
0.00418296
0.00172977
1.14841e-08
-5.87385e-05
0.00176404
-8.4716e-09
-4.69177e-05
0.00178822
9.27372e-09
-3.85873e-05
0.00180604
-9.25266e-09
-3.19361e-05
0.00181989
9.2064e-09
-2.70683e-05
0.00183055
-9.89537e-09
-2.25035e-05
0.00183939
1.50099e-08
-1.97362e-05
0.00184581
2.2199e-08
-1.5964e-05
0.00185164
2.21924e-07
-1.50265e-05
0.00185709
-1.23649e-07
-1.39892e-05
0.00185553
1.80945e-06
-7.77296e-06
0.00186614
-9.35314e-07
-1.67178e-05
0.00183574
5.06083e-06
2.23412e-05
0.001881
4.25265e-06
-4.38715e-05
0.00175026
-1.26477e-05
0.000297962
0.00155616
6.00665e-05
0.000234908
0.00137654
0.000158431
-0.000109392
0.00130734
0.000157538
-0.000144415
0.00122815
9.3503e-05
-4.49215e-05
0.00125513
-2.97216e-05
-2.12953e-05
0.00112978
9.26994e-05
-2.98564e-06
0.000807965
0.00020834
-1.6715e-05
0.000423153
0.000273402
-9.74135e-05
7.81025e-05
0.000317116
-0.00028262
0.000312331
-0.00063125
0.00172973
-7.30897e-09
-5.86679e-05
0.00176405
1.12897e-08
-4.69959e-05
0.00178819
-6.40537e-09
-3.85219e-05
0.00180605
1.09285e-08
-3.20028e-05
0.00181986
-9.32727e-09
-2.70042e-05
0.00183056
1.09124e-08
-2.25714e-05
0.00183938
-1.63687e-08
-1.96621e-05
0.00184603
-7.90224e-09
-1.6112e-05
0.00185275
-1.67106e-07
-1.51177e-05
0.00185542
3.38542e-07
-1.22891e-05
0.00186962
-1.4166e-06
-1.58957e-05
0.00184867
2.54017e-06
5.64748e-06
0.00189053
-2.21255e-06
-2.70644e-05
0.00181494
6.73361e-06
6.5227e-05
0.001759
5.84908e-05
0.000116557
0.00145163
0.000282692
0.000284729
0.00132852
0.000288952
-0.000118745
0.00123708
0.00033193
-0.000135288
0.000955615
0.000358445
-3.57782e-05
0.00111138
0.000415488
5.19851e-05
0.000805467
0.000389665
-1.11926e-05
0.000534261
0.000408636
-3.92642e-05
0.000216754
0.000500907
-9.85966e-05
-4.0455e-05
0.000589363
-0.00028209
0.000540531
-0.000604407
0.00172976
8.8091e-09
-5.87292e-05
0.00176405
-5.95368e-09
-4.69264e-05
0.00178821
6.75551e-09
-3.85815e-05
0.00180605
-6.11365e-09
-3.19421e-05
0.00181988
5.51443e-09
-2.70649e-05
0.00183056
-6.43029e-09
-2.25055e-05
0.00183939
1.13102e-08
-1.97369e-05
0.0018458
2.38041e-08
-1.5954e-05
0.00185146
2.21481e-07
-1.50226e-05
0.00185699
-5.08794e-08
-1.37937e-05
0.00185372
1.9074e-06
-7.60243e-06
0.00186582
-3.90476e-07
-1.60666e-05
0.00183001
6.70777e-06
2.3776e-05
0.00187173
1.19764e-05
-4.05576e-05
0.00174506
3.49873e-05
0.000295781
0.00150631
0.000363114
0.000236849
0.00132727
0.000454865
-9.33307e-05
0.00123295
0.000506985
-0.000126354
0.0010014
0.000580338
-2.12945e-05
0.00109646
0.000728944
5.32431e-05
0.000822958
0.000666871
6.8091e-06
0.000480759
0.000662269
-2.14905e-05
0.000144128
0.00074507
-8.92025e-05
-7.65563e-05
0.00084002
-0.000272763
0.000737422
-0.000577593
0.00172973
1.17121e-09
-5.86713e-05
0.00176405
9.21062e-10
-4.69908e-05
0.00178819
-9.05329e-10
-3.85287e-05
0.00180606
1.7812e-10
-3.19954e-05
0.00181987
-2.73027e-09
-2.70167e-05
0.00183057
2.15203e-09
-2.25548e-05
0.00183939
-2.30831e-09
-1.96899e-05
0.00184596
1.7195e-08
-1.6057e-05
0.00185252
5.44235e-08
-1.5175e-05
0.00185541
2.61134e-07
-1.23046e-05
0.00186828
4.429e-07
-1.63298e-05
0.00185033
2.00953e-06
4.17253e-06
0.00188764
4.3466e-06
-2.74683e-05
0.00181057
1.79506e-05
6.43385e-05
0.00176721