/*--------------------------------*- C++ -*----------------------------------*\
  =========                 |
  \\      /  F ield         | OpenFOAM: The Open Source CFD Toolbox
   \\    /   O peration     | Website:  https://openfoam.org
    \\  /    A nd           | Version:  6
     \\/     M anipulation  |
\*---------------------------------------------------------------------------*/
FoamFile
{
    version     2.0;
    format      ascii;
    class       volScalarField;
    location    "7";
    object      T;
}
// * * * * * * * * * * * * * * * * * * * * * * * * * * * * * * * * * * * * * //

dimensions      [0 0 0 1 0 0 0];

internalField   nonuniform List<scalar> 
26250
(
0.980023
0.967478
0.955778
0.946694
0.937719
0.931119
0.924326
0.920886
0.920243
0.929084
0.946866
1.01997
1.16283
1.64542
2.58692
2.73165
2.69143
2.64557
2.60383
2.61784
2.62444
2.64364
2.67902
2.72552
2.71906
0.980028
0.967472
0.955783
0.946688
0.937724
0.931114
0.92433
0.920869
0.920229
0.92901
0.946688
1.0195
1.16162
1.64306
2.58342
2.72906
2.69001
2.6411
2.60305
2.60331
2.61561
2.64066
2.67316
2.72328
2.71356
0.980039
0.967459
0.955795
0.946676
0.937737
0.931101
0.924336
0.920828
0.920191
0.92886
0.946305
1.01867
1.15916
1.64024
2.58072
2.73191
2.69526
2.64402
2.60842
2.60811
2.62261
2.64805
2.68173
2.73021
2.72018
0.980108
0.967392
0.955868
0.946606
0.937809
0.931029
0.92439
0.920692
0.92013
0.928535
0.943795
1.01737
1.15372
1.6363
2.57127
2.7255
2.68664
2.64034
2.60507
2.61311
2.62672
2.65335
2.68685
2.73877
2.738
0.980929
0.966558
0.956718
0.945736
0.938681
0.930135
0.925299
0.919864
0.923103
0.923486
0.950294
0.994002
1.17718
1.66774
2.44356
2.70117
2.66068
2.61965
2.58778
2.59143
2.60771
2.63699
2.67354
2.72815
2.73542
0.980214
0.967286
0.955978
0.946498
0.937918
0.930917
0.924464
0.920456
0.919963
0.927738
0.940083
1.0131
1.13915
1.6165
2.5289
2.70245
2.65998
2.6171
2.58243
2.58436
2.59907
2.62879
2.66323
2.72036
2.73056
0.980829
0.966656
0.956615
0.945839
0.938578
0.930228
0.925188
0.919823
0.922455
0.922982
0.948144
0.989682
1.1634
1.62966
2.39265
2.6797
2.63853
2.60409
2.57038
2.57072
2.58693
2.61327
2.65103
2.70607
2.7233
0.980301
0.967198
0.956061
0.946407
0.938002
0.930812
0.924507
0.920129
0.919694
0.926884
0.939828
1.00683
1.12279
1.58157
2.47918
2.67917
2.63557
2.59934
2.56229
2.56084
2.5759
2.59988
2.63442
2.69229
2.70753
0.980303
0.967187
0.956064
0.946402
0.938002
0.930814
0.924494
0.920067
0.91955
0.926348
0.939979
1.0023
1.1138
1.5552
2.44225
2.65817
2.62385
2.59093
2.55254
2.54934
2.56041
2.58284
2.60906
2.66649
2.67357
0.98032
0.967176
0.956086
0.946383
0.938021
0.930795
0.924512
0.920024
0.919616
0.925407
0.936082
0.997693
1.09864
1.53716
2.41398
2.63723
2.61759
2.58054
2.54306
2.53843
2.54831
2.56294
2.57956
2.61442
2.59495
1.01423
1.02101
1.02632
1.02894
1.03187
1.03302
1.0352
1.03715
1.04558
1.05884
1.09856
1.19808
1.42765
2.09246
2.8427
2.66389
2.80695
2.7687
2.76608
2.77086
2.77705
2.7912
2.82493
2.83194
2.76069
1.01423
1.02101
1.02632
1.02894
1.03187
1.03302
1.0352
1.03714
1.04555
1.0588
1.09837
1.19786
1.42674
2.0913
2.84083
2.66692
2.80536
2.76584
2.75672
2.76568
2.7763
2.78613
2.8116
2.83633
2.76672
1.01423
1.02101
1.02632
1.02894
1.03187
1.03302
1.0352
1.03712
1.04548
1.05862
1.09805
1.19668
1.42471
2.08364
2.84111
2.6594
2.80453
2.76415
2.75334
2.76275
2.77684
2.78453
2.80426
2.83435
2.76804
1.01423
1.02101
1.02632
1.02895
1.03187
1.03302
1.03519
1.03708
1.04535
1.05833
1.09747
1.19497
1.42124
2.08183
2.83292
2.67383
2.80245
2.7589
2.75334
2.75961
2.77383
2.78069
2.79595
2.82918
2.76858
1.01421
1.02106
1.02629
1.02901
1.03181
1.03309
1.03509
1.03699
1.04433
1.05895
1.09194
1.20026
1.40853
2.07698
2.82737
2.681
2.80179
2.75448
2.74873
2.75358
2.76504
2.77371
2.78591
2.81828
2.76583
1.01424
1.02101
1.02632
1.02895
1.03186
1.03303
1.03516
1.03697
1.04496
1.05743
1.09553
1.18895
1.40844
2.05041
2.81563
2.7006
2.79747
2.74645
2.7396
2.74446
2.75288
2.75996
2.7725
2.80309
2.75844
1.01421
1.02106
1.02628
1.02901
1.03181
1.03308
1.03506
1.03686
1.04394
1.05779
1.08958
1.1927
1.39141
2.01935
2.81232
2.71556
2.7926
2.73765
2.73132
2.73532
2.74329
2.74408
2.7519
2.78342
2.74164
1.01423
1.02101
1.02632
1.02896
1.03185
1.03303
1.03512
1.03683
1.04437
1.05613
1.09248
1.17927
1.38719
1.9593
2.80603
2.71497
2.7851
2.7262
2.717
2.7203
2.7274
2.72952
2.72831
2.75316
2.71676
1.01422
1.02102
1.02631
1.02896
1.03184
1.03303
1.03509
1.03674
1.044
1.0553
1.09068
1.17282
1.37444
1.89456
2.7968
2.71704
2.76896
2.71669
2.70632
2.70369
2.7049
2.70305
2.7017
2.71391
2.66363
1.01421
1.02103
1.0263
1.02898
1.03183
1.03304
1.03506
1.03662
1.04351
1.05458
1.08705
1.17138
1.3563
1.85761
2.78813
2.72311
2.73545
2.69716
2.69199
2.69092
2.68537
2.67782
2.65889
2.66027
2.57406
1.00626
1.01277
1.02141
1.02809
1.03559
1.04072
1.04702
1.05196
1.06295
1.08047
1.12706
1.24318
1.49706
2.23355
2.87834
2.42313
2.78141
2.76452
2.76676
2.73017
2.81543
2.814
2.81398
2.81373
2.77125
1.00628
1.01274
1.02144
1.02807
1.03562
1.0407
1.04704
1.05194
1.06301
1.08026
1.12734
1.24166
1.49722
2.23758
2.87705
2.42474
2.78156
2.76199
2.76536
2.72999
2.8083
2.80991
2.80929
2.80969
2.76587
1.00626
1.01276
1.02141
1.02809
1.03559
1.04072
1.04701
1.05194
1.06286
1.0803
1.12656
1.24217
1.49432
2.23102
2.8747
2.43599
2.77946
2.75568
2.76088
2.72881
2.80369
2.8046
2.80005
2.80057
2.75834
1.00628
1.01274
1.02144
1.02807
1.03562
1.0407
1.04703
1.0519
1.06283
1.07992
1.12637
1.23956
1.4916
2.22874
2.87167
2.45548
2.78192
2.75203
2.75723
2.71895
2.79485
2.79601
2.79232
2.79231
2.75117
1.00631
1.01271
1.02147
1.02804
1.03565
1.04067
1.04705
1.05184
1.06275
1.07941
1.12586
1.23613
1.48687
2.21893
2.86914
2.47539
2.78205
2.74716
2.75274
2.71266
2.7846
2.78554
2.77667
2.77465
2.73632
1.0063
1.01272
1.02145
1.02805
1.03563
1.04068
1.04703
1.05179
1.06246
1.07905
1.12427
1.23365
1.47806
2.19231
2.86679
2.49874
2.78038
2.73981
2.74578
2.70739
2.76459
2.77069
2.76357
2.76073
2.72297
1.00632
1.0127
1.02148
1.02803
1.03566
1.04065
1.04704
1.05171
1.0622
1.07832
1.12277
1.22844
1.46731
2.15908
2.86376
2.52522
2.77632
2.731
2.73497
2.69983
2.743
2.7554
2.74122
2.7324
2.69378
1.00632
1.0127
1.02148
1.02803
1.03565
1.04065
1.04703
1.05163
1.06179
1.07763
1.12043
1.22371
1.45327
2.11611
2.85847
2.55435
2.76922
2.71802
2.72309
2.6902
2.71371
2.732
2.71703
2.70613
2.66462
1.00635
1.01267
1.0215
1.028
1.03568
1.04061
1.04704
1.05152
1.06142
1.07665
1.11833
1.21679
1.43883
2.07207
2.84842
2.58694
2.76193
2.70438
2.70644
2.67862
2.68764
2.70729
2.68483
2.66133
2.60542
1.00629
1.01273
1.02144
1.02806
1.03562
1.04066
1.04697
1.0514
1.06079
1.07587
1.1152
1.2129
1.42206
2.01951
2.82784
2.62551
2.75032
2.68916
2.69098
2.66263
2.65648
2.67348
2.6483
2.61317
2.50501
1.01423
1.021
1.02633
1.02894
1.03187
1.03302
1.0352
1.03712
1.04552
1.05871
1.09837
1.19777
1.42785
2.09991
2.84376
2.65638
2.8018
2.7662
2.75332
2.76353
2.7717
2.78832
2.80206
2.83634
2.78643
1.01421
1.02105
1.02629
1.02901
1.03181
1.03309
1.03511
1.03707
1.04457
1.05969
1.09345
1.2052
1.41994
2.10469
2.8467
2.64599
2.80655
2.76945
2.76535
2.77462
2.78017
2.79604
2.81217
2.83523
2.77112
1.01424
1.021
1.02633
1.02894
1.03187
1.03302
1.03519
1.03709
1.04542
1.05846
1.09792
1.19628
1.42519
2.10046
2.83764
2.66231
2.8021
2.7608
2.7608
2.76641
2.77282
2.78842
2.80972
2.83012
2.76864
1.01422
1.02105
1.02629
1.029
1.03182
1.03309
1.03511
1.03703
1.04448
1.05927
1.0928
1.2027
1.41429
2.09841
2.83221
2.67229
2.80394
2.75982
2.7514
2.76124
2.77102
2.77871
2.80102
2.82446
2.76609
1.01422
1.02105
1.02629
1.029
1.03182
1.03308
1.0351
1.03699
1.0444
1.0589
1.09218
1.20032
1.40886
2.08717
2.82398
2.68297
2.80355
2.75644
2.74843
2.75305
2.76482
2.77069
2.78991
2.81449
2.76061
1.01422
1.02105
1.02629
1.029
1.03182
1.03308
1.03509
1.03693
1.04421
1.05843
1.09105
1.197
1.40115
2.0624
2.81595
2.69157
2.80075
2.75128
2.74206
2.74555
2.75402
2.75827
2.77404
2.80221
2.75273
1.01423
1.02101
1.02632
1.02895
1.03185
1.03303
1.03514
1.03692
1.04471
1.05691
1.09413
1.18494
1.3986
2.00668
2.81124
2.70983
2.79034
2.73924
2.734
2.73814
2.74405
2.74269
2.75127
2.78079
2.73546
1.01423
1.02101
1.02631
1.02895
1.03185
1.03303
1.03512
1.03684
1.04439
1.0562
1.09243
1.17954
1.38676
1.95004
2.80727
2.71519
2.78178
2.72289
2.71791
2.72224
2.73026
2.72969
2.72771
2.7514
2.71028
1.01422
1.02102
1.02631
1.02896
1.03184
1.03303
1.03509
1.03675
1.04401
1.05532
1.09073
1.17292
1.37451
1.8937
2.79753
2.71694
2.76754
2.71381
2.70405
2.704
2.70595
2.70317
2.70129
2.71164
2.65819
1.01421
1.02103
1.0263
1.02898
1.03183
1.03304
1.03506
1.03663
1.04352
1.05461
1.08711
1.17151
1.35656
1.85768
2.78802
2.72275
2.73448
2.69542
2.69052
2.69112
2.6874
2.67917
2.65878
2.65959
2.56732
0.980091
0.967406
0.955851
0.946621
0.937792
0.931046
0.924382
0.920739
0.92018
0.928828
0.94421
1.01983
1.15806
1.65224
2.59893
2.73928
2.70169
2.65095
2.61355
2.61315
2.62358
2.65022
2.6799
2.73339
2.70862
0.980995
0.966489
0.956784
0.945667
0.938748
0.930064
0.925384
0.919838
0.923466
0.923537
0.951847
0.996518
1.19053
1.69949
2.466
2.71341
2.67418
2.62947
2.59181
2.60722
2.61468
2.63967
2.67093
2.72171
2.70276
0.98015
0.967348
0.955913
0.946562
0.937855
0.930984
0.924432
0.920628
0.920133
0.928576
0.941819
1.01859
1.15043
1.65021
2.59078
2.73688
2.69673
2.65006
2.61216
2.62543
2.63359
2.65761
2.68942
2.73986
2.73054
0.980911
0.966574
0.956698
0.94576
0.938657
0.930163
0.925269
0.919875
0.922936
0.924404
0.951692
0.999871
1.18311
1.68747
2.44844
2.70454
2.66576
2.62335
2.59305
2.59717
2.61184
2.64242
2.67558
2.73282
2.73205
0.980859
0.966632
0.956644
0.945819
0.938598
0.930224
0.925192
0.919901
0.92254
0.925455
0.951158
1.00078
1.17657
1.66401
2.43898
2.69979
2.65933
2.61727
2.58622
2.59088
2.60517
2.6351
2.66851
2.7264
2.73258
0.980949
0.966533
0.956727
0.945721
0.938687
0.930118
0.925306
0.919829
0.923021
0.923772
0.949759
0.995803
1.17075
1.65208
2.42132
2.68817
2.64618
2.60607
2.57198
2.57273
2.5868
2.6164
2.65112
2.70912
2.72747
0.980179
0.967318
0.955939
0.946531
0.937878
0.930949
0.924427
0.920459
0.919922
0.927552
0.941403
1.01058
1.13313
1.59871
2.50533
2.69134
2.64889
2.60658
2.57061
2.56703
2.58328
2.6027
2.64176
2.68821
2.71555
0.980265
0.967228
0.956024
0.946438
0.937961
0.930852
0.924462
0.920152
0.919672
0.926982
0.941756
1.00654
1.12475
1.57734
2.47787
2.67873
2.6388
2.60302
2.5675
2.5634
2.5798
2.59692
2.63269
2.67747
2.69541
0.980299
0.967192
0.95606
0.946407
0.937989
0.930829
0.924472
0.920082
0.919576
0.926393
0.94007
1.00242
1.11399
1.55558
2.44399
2.6589
2.62331
2.59041
2.55444
2.55234
2.56863
2.58451
2.61638
2.66095
2.66188
0.980361
0.967129
0.956122
0.946342
0.938059
0.930747
0.924564
0.920037
0.919545
0.925526
0.936216
0.997794
1.09845
1.53727
2.41459
2.63764
2.61768
2.57977
2.54264
2.53746
2.55011
2.56196
2.58217
2.61989
2.58691
0.980836
0.966657
0.956602
0.945848
0.938568
0.930216
0.925132
0.919411
0.920341
0.920352
0.941894
0.9742
1.12748
1.46769
2.22142
2.58425
2.58341
2.55752
2.5226
2.51936
2.52474
2.53712
2.53608
2.53166
2.43565
0.979031
0.968504
0.95475
0.947761
0.936665
0.932179
0.923127
0.92146
0.917801
0.923266
0.931647
0.987416
1.07896
1.47915
2.30396
2.56045
2.55927
2.53534
2.50319
2.49494
2.49573
2.49425
2.48482
2.46008
2.36188
0.981044
0.966462
0.956818
0.945638
0.93878
0.929989
0.925299
0.918979
0.919255
0.919699
0.937255
0.964793
1.10135
1.37936
2.07884
2.50313
2.52707
2.50846
2.48622
2.47818
2.47635
2.46994
2.45303
2.42149
2.3375
0.979259
0.968293
0.954943
0.947557
0.936869
0.931945
0.923357
0.920918
0.917058
0.921464
0.930006
0.975456
1.05897
1.38406
2.12354
2.44507
2.48212
2.46634
2.44871
2.44117
2.43793
2.43109
2.41362
2.38553
2.32465
0.97943
0.968094
0.955132
0.947382
0.937015
0.931787
0.923498
0.920575
0.91652
0.920391
0.926883
0.968067
1.03225
1.32341
2.02552
2.41113
2.46154
2.44931
2.43405
2.41691
2.40721
2.39241
2.37527
2.34536
2.29914
0.980814
0.966677
0.956611
0.945841
0.938589
0.930154
0.925066
0.918696
0.917158
0.916681
0.928795
0.949144
1.04189
1.21509
1.76792
2.32193
2.43523
2.43344
2.42333
2.40363
2.38793
2.36656
2.34122
2.31061
2.26367
0.980662
0.966843
0.956455
0.946009
0.938435
0.930311
0.924892
0.918736
0.916449
0.915906
0.925431
0.943238
1.01634
1.15263
1.61428
2.18593
2.37246
2.39165
2.39529
2.38398
2.36981
2.35137
2.3257
2.29452
2.24908
0.980494
0.96701
0.956285
0.946176
0.938269
0.930474
0.924718
0.918835
0.915928
0.915547
0.921838
0.939795
0.98631
1.11719
1.46002
2.10137
2.30984
2.32423
2.33427
2.32724
2.32013
2.31341
2.29812
2.27672
2.24105
0.980154
0.967351
0.955931
0.946531
0.937911
0.930829
0.924355
0.919057
0.915097
0.914841
0.91868
0.930233
0.968779
1.05937
1.33443
1.96775
2.27467
2.31592
2.31089
2.29766
2.28065
2.26832
2.25502
2.23757
2.21512
0.979611
0.967906
0.955364
0.947115
0.937315
0.931452
0.923687
0.919699
0.913944
0.913843
0.913679
0.926638
0.949913
1.03937
1.23125
1.72663
2.209
2.29953
2.29903
2.28578
2.26818
2.24869
2.22907
2.20941
2.18455
0.98092
0.966576
0.956707
0.945749
0.938664
0.930069
0.92503
0.918272
0.915087
0.91142
0.914
0.918706
0.946034
0.995185
1.16981
1.67138
2.08314
2.24589
2.26828
2.26436
2.252
2.2345
2.21655
2.19771
2.17543
0.980172
0.967345
0.955933
0.946543
0.937879
0.9309
0.92419
0.919105
0.914058
0.911445
0.911021
0.917132
0.930515
0.978528
1.07979
1.41454
2.0094
2.19301
2.21718
2.22085
2.2117
2.19911
2.18618
2.17319
2.15739
0.980666
0.96685
0.956453
0.945951
0.938472
0.93037
0.924619
0.918615
0.914528
0.910354
0.910967
0.912931
0.924269
0.956783
1.03403
1.26504
1.749
2.1438
2.21334
2.21235
2.20203
2.18348
2.16452
2.14664
2.13257
0.980673
0.966826
0.956449
0.946003
0.938445
0.930313
0.92478
0.918489
0.914482
0.909969
0.909374
0.909486
0.918929
0.938869
1.00508
1.14572
1.53186
2.00772
2.18047
2.19504
2.19171
2.17622
2.15806
2.13989
2.12268
0.980524
0.966968
0.956314
0.946141
0.93829
0.930444
0.924658
0.918541
0.91437
0.909754
0.908028
0.907632
0.914032
0.927067
0.973314
1.05706
1.3561
1.89201
2.10679
2.15097
2.16114
2.15722
2.14622
2.13373
2.12239
0.980229
0.967275
0.956004
0.946463
0.93797
0.930772
0.924339
0.918857
0.914037
0.909915
0.907032
0.906793
0.910233
0.919774
0.949493
1.01325
1.22416
1.71188
2.03508
2.12975
2.14246
2.14047
2.13424
2.127
2.12337
0.980785
0.966716
0.956573
0.945886
0.938546
0.930185
0.924918
0.918269
0.914599
0.909316
0.907421
0.905742
0.907602
0.914023
0.933143
0.981657
1.10926
1.50845
1.91702
2.09483
2.12393
2.12795
2.12488
2.12446
2.12804
0.980632
0.966883
0.956407
0.946067
0.938364
0.930378
0.924718
0.918483
0.914362
0.909517
0.90688
0.904694
0.905871
0.910016
0.921118
0.958294
1.0311
1.30764
1.70561
2.01737
2.10196
2.11724
2.12439
2.12957
2.13878
0.980528
0.966976
0.956312
0.946147
0.93827
0.930463
0.924627
0.918575
0.914267
0.90959
0.906522
0.903619
0.904402
0.905835
0.91423
0.936678
0.993065
1.13838
1.4935
1.90334
2.06376
2.10622
2.12221
2.14113
2.16121
0.980451
0.967061
0.956217
0.946252
0.938173
0.930571
0.924525
0.918677
0.91415
0.909658
0.906351
0.903255
0.902549
0.903119
0.908323
0.92275
0.961669
1.04562
1.31018
1.79082
2.01282
2.0916
2.12827
2.15841
2.18943
0.980395
0.967101
0.956178
0.946279
0.938146
0.930586
0.924509
0.918679
0.91415
0.909631
0.906332
0.902961
0.901456
0.901322
0.904828
0.914699
0.939685
0.999536
1.17644
1.61932
1.96054
2.11167
2.16596
2.20071
2.2256
0.980188
0.967345
0.955963
0.94653
0.937937
0.930838
0.924295
0.918935
0.913933
0.909871
0.906109
0.903078
0.90078
0.900668
0.902418
0.908822
0.925296
0.968837
1.0752
1.43938
1.84281
2.11331
2.21922
2.25507
2.26785
0.980554
0.966947
0.956337
0.946129
0.9383
0.930437
0.924666
0.918524
0.914299
0.909484
0.906446
0.902661
0.900977
0.899498
0.900664
0.904882
0.915892
0.949343
1.02502
1.24562
1.68749
2.13048
2.30194
2.33368
2.32301
0.980485
0.967001
0.956289
0.946184
0.938251
0.9305
0.924619
0.918564
0.914285
0.909501
0.906373
0.902769
0.900623
0.898758
0.899754
0.90219
0.911564
0.935484
0.998882
1.16234
1.52497
2.18336
2.39154
2.3958
2.36847
0.980555
0.966949
0.95629
0.946183
0.93821
0.930515
0.924587
0.918581
0.91424
0.909555
0.906308
0.902811
0.90042
0.898374
0.899078
0.901082
0.908473
0.929887
0.984423
1.11884
1.49995
2.23401
2.48366
2.49192
2.45204
0.980446
0.96704
0.956243
0.946207
0.938218
0.930515
0.924569
0.918624
0.914185
0.909591
0.906301
0.902768
0.900437
0.898177
0.89895
0.900391
0.906904
0.928335
0.976823
1.11204
1.49437
2.24566
2.5455
2.56168
2.51924
0.980641
0.96683
0.95645
0.945978
0.938434
0.930279
0.924791
0.918392
0.914413
0.909355
0.906541
0.902531
0.900607
0.897888
0.898251
0.898643
0.906463
0.922133
0.97834
1.07901
1.48831
2.29189
2.605
2.62917
2.59521
0.980456
0.96701
0.956275
0.946161
0.938273
0.930449
0.924654
0.918529
0.914296
0.909472
0.906434
0.902618
0.900561
0.897852
0.898232
0.899142
0.905389
0.923773
0.974263
1.09139
1.49195
2.27304
2.5971
2.63289
2.61025
0.980451
0.967023
0.956286
0.946144
0.93833
0.930369
0.924768
0.918394
0.914446
0.909311
0.906592
0.90246
0.900676
0.897643
0.897934
0.898182
0.905235
0.920341
0.974068
1.07161
1.48272
2.26658
2.60549
2.64411
2.6267
0.980485
0.967025
0.956249
0.946199
0.938242
0.930441
0.924699
0.918426
0.914428
0.909314
0.90659
0.902449
0.900688
0.897616
0.89772
0.897717
0.904784
0.918234
0.971025
1.05879
1.46356
2.23789
2.62026
2.66129
2.64772
0.980469
0.967001
0.956282
0.946154
0.938275
0.930437
0.924671
0.918487
0.914358
0.90938
0.906538
0.902488
0.900665
0.897558
0.897578
0.897561
0.90425
0.916895
0.968194
1.05113
1.44605
2.19408
2.63894
2.68448
2.67541
0.980443
0.967054
0.956219
0.946244
0.938171
0.930566
0.924523
0.918655
0.914178
0.909561
0.906383
0.9026
0.900591
0.897574
0.897352
0.897156
0.90362
0.916414
0.964782
1.05372
1.42777
2.14338
2.64898
2.69124
2.68172
0.980426
0.967054
0.956227
0.946222
0.938208
0.93052
0.924575
0.918603
0.914213
0.909541
0.906363
0.902648
0.900518
0.89759
0.897163
0.896841
0.902798
0.913511
0.958931
1.03249
1.3874
2.05665
2.69281
2.71672
2.69206
0.980412
0.967085
0.956197
0.946257
0.93817
0.930554
0.924543
0.918629
0.914203
0.909552
0.906358
0.902678
0.900447
0.89766
0.896976
0.89664
0.90199
0.911963
0.952112
1.0214
1.33604
1.95616
2.74696
2.73775
2.66236
0.980379
0.967129
0.956159
0.946308
0.938117
0.930612
0.924479
0.918693
0.914128
0.909619
0.906283
0.902728
0.900397
0.897659
0.896781
0.896447
0.900949
0.909827
0.944473
1.00613
1.2702
1.86508
2.75348
2.71638
2.62976
0.980381
0.967139
0.956143
0.94633
0.938099
0.930637
0.92446
0.918716
0.914105
0.909643
0.906253
0.902765
0.900361
0.897697
0.896687
0.896458
0.900071
0.909315
0.936116
0.999324
1.1976
1.77135
2.57391
2.70218
2.65564
0.980317
0.967203
0.956108
0.946361
0.938105
0.930634
0.924482
0.918703
0.914121
0.909638
0.906258
0.902775
0.900343
0.897738
0.896657
0.896589
0.899751
0.908981
0.932097
0.994677
1.16544
1.6981
2.42946
2.70986
2.66202
0.980337
0.967179
0.956119
0.946363
0.938087
0.93066
0.924448
0.918744
0.914078
0.909696
0.906211
0.902832
0.900303
0.897757
0.896497
0.896248
0.899504
0.906256
0.932299
0.980751
1.16201
1.609
2.38965
2.71303
2.66808
0.980288
0.967182
0.956121
0.946343
0.93812
0.930644
0.924494
0.918733
0.914121
0.909681
0.906237
0.902814
0.900314
0.89775
0.896552
0.896343
0.899373
0.907265
0.930398
0.982859
1.15023
1.58865
2.35907
2.69369
2.66
0.980256
0.967223
0.956085
0.946359
0.938117
0.930636
0.924515
0.918724
0.914148
0.909664
0.906261
0.902796
0.900321
0.897757
0.896623
0.896548
0.899506
0.908185
0.929496
0.986984
1.14198
1.61504
2.35419
2.68469
2.65154
1.01386
1.02139
1.02594
1.02935
1.03146
1.03343
1.03469
1.03718
1.04132
1.05606
1.08477
1.15448
1.36521
1.88945
2.75262
2.74056
2.72231
2.67744
2.66963
2.6677
2.65994
2.64805
2.61726
2.58081
2.44932
1.01375
1.02144
1.02587
1.02936
1.03142
1.03343
1.03465
1.03709
1.04108
1.05339
1.08408
1.14273
1.3548
1.83765
2.71469
2.73639
2.71256
2.66132
2.65423
2.65002
2.63616
2.61468
2.57158
2.51828
2.39256
1.01384
1.02142
1.02592
1.02938
1.03143
1.03345
1.03456
1.03674
1.0404
1.05349
1.07897
1.13956
1.32779
1.77629
2.66631
2.73112
2.70005
2.6446
2.63127
2.62773
2.61519
2.58965
2.53576
2.48315
2.37678
1.01382
1.02139
1.02592
1.02931
1.03146
1.03336
1.03455
1.03642
1.04011
1.04963
1.07745
1.1243
1.31538
1.71498
2.56866
2.71444
2.68163
2.64784
2.61993
2.60362
2.587
2.56269
2.50715
2.46192
2.37253
1.01403
1.02117
1.02614
1.0291
1.03169
1.03312
1.03483
1.03604
1.04054
1.04871
1.07011
1.13412
1.25668
1.67389
2.56149
2.67563
2.63579
2.63748
2.61907
2.59446
2.56301
2.53895
2.48734
2.44423
2.37316
1.01419
1.02107
1.02627
1.02902
1.03178
1.03308
1.0348
1.03584
1.03888
1.04857
1.06753
1.11276
1.2581
1.55055
2.38509
2.65055
2.64153
2.61279
2.60496
2.58764
2.54859
2.51977
2.4671
2.42819
2.37267
1.01401
1.02125
1.0261
1.02919
1.03162
1.03323
1.03463
1.03586
1.03824
1.04701
1.06261
1.10273
1.22372
1.47218
2.19213
2.5886
2.63778
2.60824
2.59036
2.57578
2.54069
2.5119
2.45529
2.40912
2.36726
1.01402
1.02123
1.02612
1.02916
1.03166
1.03317
1.03471
1.03578
1.03862
1.04368
1.05741
1.09605
1.16801
1.42165
2.07895
2.49111
2.61736
2.59828
2.57193
2.55596
2.52572
2.50279
2.4552
2.39943
2.35752
1.01398
1.02125
1.02609
1.02917
1.03163
1.03318
1.03466
1.03569
1.03797
1.04179
1.05409
1.08155
1.1431
1.32326
1.83075
2.40287
2.57627
2.57262
2.55249
2.53622
2.50282
2.48191
2.45118
2.39944
2.35228
1.01393
1.02128
1.02605
1.02919
1.03161
1.03318
1.03462
1.03554
1.03721
1.04024
1.05135
1.07071
1.12391
1.2616
1.62869
2.30287
2.54529
2.54443
2.5314
2.51894
2.49385
2.46256
2.44191
2.39984
2.3535
1.01384
1.02142
1.02592
1.02937
1.03144
1.03339
1.03439
1.03574
1.03671
1.04032
1.04639
1.06388
1.11134
1.2019
1.5259
2.21335
2.47404
2.52277
2.50619
2.49864
2.48291
2.4505
2.42544
2.39651
2.35888
1.01382
1.02141
1.02592
1.02934
1.03145
1.03336
1.0344
1.03567
1.03657
1.03937
1.04394
1.05839
1.09286
1.16617
1.39614
2.03765
2.38481
2.49116
2.48898
2.47978
2.46979
2.44675
2.41751
2.38854
2.35828
1.01411
1.02114
1.0262
1.02908
1.03173
1.03311
1.03465
1.03537
1.0366
1.03777
1.04229
1.05206
1.07356
1.14198
1.2767
1.64769
2.28916
2.44905
2.45225
2.44925
2.4415
2.43428
2.4151
2.38773
2.35878
1.01388
1.02136
1.02597
1.0293
1.0315
1.03332
1.03444
1.03557
1.03623
1.03752
1.04007
1.04881
1.06554
1.10754
1.22639
1.5045
2.12353
2.41206
2.43455
2.42897
2.41608
2.40844
2.40388
2.39058
2.36444
1.0141
1.02115
1.02619
1.02909
1.03171
1.03311
1.03465
1.03535
1.03638
1.03706
1.03899
1.04576
1.05781
1.08899
1.18051
1.36655
1.87795
2.32565
2.41676
2.4139
2.40494
2.38778
2.37837
2.37852
2.37415
1.01395
1.02128
1.02605
1.02921
1.03159
1.03322
1.03454
1.03543
1.03627
1.03696
1.03821
1.04331
1.05073
1.0763
1.12734
1.26075
1.60392
2.15847
2.36241
2.38405
2.39074
2.3843
2.37148
2.37261
2.3782
1.01383
1.02142
1.02592
1.02936
1.03145
1.03337
1.03439
1.03558
1.03611
1.03705
1.03783
1.04136
1.04678
1.06356
1.10545
1.18606
1.47607
2.06279
2.30421
2.35652
2.35918
2.37105
2.37119
2.38088
2.39025
1.01382
1.02143
1.02592
1.02936
1.03144
1.03336
1.0344
1.03556
1.03612
1.03694
1.0375
1.03922
1.04473
1.05532
1.08107
1.15792
1.30567
1.75299
2.21408
2.34315
2.34931
2.35679
2.37077
2.38968
2.41434
1.01387
1.02137
1.02596
1.02931
1.03149
1.03332
1.03443
1.03554
1.03613
1.03693
1.03742
1.03888
1.04154
1.0507
1.06695
1.11532
1.21682
1.55752
2.03254
2.29987
2.34769
2.36073
2.37693
2.40716
2.4392
1.01388
1.02136
1.02597
1.0293
1.0315
1.03331
1.03444
1.03552
1.03614
1.03689
1.03732
1.03829
1.04005
1.04702
1.05785
1.09009
1.17069
1.34708
1.82887
2.21242
2.33627
2.37517
2.4041
2.43923
2.47642
1.01402
1.02122
1.02611
1.02916
1.03164
1.03317
1.03458
1.03538
1.03628
1.03674
1.03739
1.03784
1.03909
1.04391
1.05074
1.07492
1.12071
1.2462
1.53575
2.08951
2.29587
2.37749
2.43076
2.47766
2.50637
1.01394
1.02129
1.02605
1.02922
1.03158
1.03322
1.03454
1.03542
1.03624
1.03676
1.03735
1.03776
1.03855
1.04185
1.04676
1.06296
1.09902
1.17722
1.42379
1.96506
2.26457
2.40796
2.48506
2.52555
2.5435
1.01388
1.02136
1.02598
1.02929
1.03151
1.0333
1.03446
1.0355
1.03616
1.03684
1.03725
1.0378
1.03833
1.0406
1.04389
1.0566
1.07774
1.14173
1.28338
1.73755
2.19244
2.43441
2.54274
2.56988
2.57177
1.01386
1.02138
1.02596
1.02932
1.03148
1.03333
1.03443
1.03554
1.03612
1.03688
1.03721
1.03783
1.03821
1.03981
1.0423
1.05162
1.0686
1.11424
1.23513
1.53203
2.1615
2.50273
2.6174
2.61259
2.60026
1.01389
1.02135
1.02598
1.02929
1.0315
1.03331
1.03445
1.03551
1.03614
1.03686
1.03722
1.03779
1.03814
1.03939
1.04135
1.04895
1.06271
1.09928
1.20562
1.42505
2.02537
2.57599
2.70867
2.66288
2.63229
1.01396
1.02128
1.02605
1.02923
1.03157
1.03324
1.03451
1.03545
1.0362
1.03681
1.03727
1.03771
1.03811
1.03875
1.04124
1.04616
1.05812
1.09517
1.16523
1.39729
2.02661
2.57551
2.77735
2.72411
2.68495
1.01393
1.02132
1.02602
1.02926
1.03154
1.03328
1.03448
1.03549
1.03617
1.03684
1.03724
1.03776
1.03804
1.03888
1.04057
1.04533
1.05818
1.08413
1.17288
1.34831
1.83
2.66119
2.82455
2.7788
2.7325
1.014
1.02124
1.02609
1.02919
1.03161
1.0332
1.03454
1.03542
1.03623
1.03678
1.0373
1.03768
1.03808
1.03858
1.04076
1.04486
1.05513
1.08726
1.14446
1.35671
1.88101
2.65251
2.85196
2.82982
2.77685
1.01401
1.02123
1.02611
1.02917
1.03163
1.03318
1.03456
1.0354
1.03624
1.03676
1.03731
1.03767
1.03809
1.03858
1.04084
1.04449
1.05542
1.08508
1.14373
1.34075
1.86525
2.64351
2.84789
2.846
2.80698
1.01395
1.02131
1.02602
1.02927
1.03153
1.03329
1.03446
1.0355
1.03615
1.03684
1.03723
1.03775
1.03801
1.03875
1.04006
1.04553
1.05432
1.08094
1.15346
1.30192
1.78201
2.70911
2.86479
2.86115
2.82079
1.01399
1.02126
1.02607
1.02921
1.03159
1.03323
1.03451
1.03546
1.03618
1.03683
1.03724
1.03774
1.03799
1.03865
1.03998
1.04454
1.05409
1.07736
1.15208
1.29278
1.77314
2.68779
2.89085
2.86948
2.82039
1.014
1.02124
1.02609
1.02918
1.03162
1.03319
1.03457
1.03539
1.03626
1.03674
1.03734
1.03762
1.03813
1.03848
1.04002
1.04385
1.05148
1.08007
1.12744
1.31266
1.78749
2.55366
2.9046
2.85855
2.81375
1.01398
1.02126
1.02608
1.0292
1.0316
1.03321
1.03453
1.03543
1.03621
1.0368
1.03726
1.03773
1.03798
1.03852
1.03966
1.04407
1.05165
1.07392
1.13722
1.26366
1.71984
2.6054
2.94253
2.84325
2.79865
1.01398
1.02127
1.02607
1.0292
1.0316
1.03322
1.03454
1.03543
1.03622
1.03679
1.03727
1.03772
1.03796
1.03848
1.03948
1.04388
1.0503
1.07178
1.1282
1.24198
1.67199
2.53153
2.97606
2.82791
2.78888
1.01398
1.02126
1.02608
1.0292
1.0316
1.03321
1.03455
1.03541
1.03624
1.03676
1.03731
1.03766
1.03803
1.03836
1.03933
1.04303
1.04918
1.06711
1.11997
1.21756
1.61327
2.41261
2.98914
2.81544
2.79116
1.01398
1.02126
1.02607
1.0292
1.0316
1.03321
1.03455
1.03541
1.03624
1.03676
1.03732
1.03765
1.03805
1.03836
1.03923
1.04266
1.04796
1.06501
1.10954
1.19902
1.52952
2.29627
2.97437
2.8046
2.80878
1.01397
1.02127
1.02607
1.0292
1.03161
1.0332
1.03455
1.0354
1.03625
1.03674
1.03733
1.03763
1.0381
1.03838
1.03938
1.04163
1.04627
1.06356
1.09006
1.20945
1.42879
2.06982
2.927
2.80962
2.83046
1.01398
1.02126
1.02608
1.0292
1.03161
1.0332
1.03455
1.03541
1.03625
1.03675
1.03733
1.03764
1.03807
1.03835
1.0391
1.04171
1.04684
1.05962
1.09932
1.17328
1.43599
2.08042
2.83603
2.79675
2.83555
1.01397
1.02127
1.02607
1.0292
1.03161
1.0332
1.03456
1.03541
1.03626
1.03674
1.03734
1.03763
1.03811
1.0384
1.03945
1.0413
1.04666
1.06123
1.0894
1.18991
1.38289
1.92968
2.85501
2.80258
2.83344
1.01397
1.02126
1.02607
1.02919
1.03161
1.0332
1.03457
1.0354
1.03626
1.03674
1.03734
1.03762
1.03811
1.0384
1.03946
1.04127
1.0467
1.06097
1.08919
1.18832
1.3778
1.91553
2.85505
2.79361
2.83333
1.00574
1.01328
1.0209
1.02861
1.03506
1.04123
1.04631
1.05183
1.05883
1.07771
1.11189
1.19717
1.42644
2.06524
2.77923
2.65362
2.74056
2.67122
2.67086
2.65004
2.62906
2.63697
2.60326
2.54314
2.38755
1.00574
1.01328
1.0209
1.02861
1.03506
1.04123
1.04629
1.05176
1.0585
1.07661
1.10857
1.19014
1.40553
2.0036
2.76199
2.67418
2.72822
2.65984
2.65235
2.63388
2.59948
2.59717
2.56398
2.49376
2.34481
1.00629
1.01272
1.02146
1.02805
1.03563
1.04063
1.04692
1.05097
1.05903
1.07228
1.1055
1.19081
1.36177
1.85561
2.77624
2.68746
2.69756
2.65653
2.64004
2.61921
2.57438
2.55837
2.52231
2.46214
2.34691
1.00631
1.0127
1.02148
1.02801
1.03566
1.04059
1.04691
1.05077
1.05819
1.07051
1.10141
1.17987
1.33278
1.80961
2.75815
2.71454
2.6686
2.64191
2.62963
2.60871
2.5548
2.52756
2.49043
2.4416
2.35122
1.00633
1.01268
1.02148
1.02802
1.03563
1.04065
1.04677
1.0509
1.05745
1.06904
1.09914
1.15056
1.34693
1.73774
2.65914
2.70778
2.6586
2.62984
2.61505
2.59591
2.53953
2.50045
2.46129
2.42598
2.35883
1.00594
1.01308
1.02109
1.02842
1.03523
1.04104
1.04636
1.05123
1.05719
1.07017
1.09309
1.14982
1.31156
1.65698
2.56097
2.68918
2.64518
2.62986
2.60486
2.58552
2.53682
2.48041
2.43826
2.4057
2.35717
1.00571
1.01331
1.02086
1.02865
1.03501
1.04125
1.04614
1.05134
1.05652
1.06816
1.08791
1.13851
1.276
1.57273
2.41945
2.64988
2.65142
2.62888
2.59323
2.57247
2.52953
2.4759
2.41763
2.38853
2.35196
1.00574
1.01328
1.0209
1.02861
1.03504
1.04122
1.04615
1.05123
1.05595
1.06531
1.08294
1.12284
1.24103
1.47353
2.23
2.58993
2.64831
2.62851
2.58611
2.5652
2.52459
2.47557
2.41304
2.36719
2.34459
1.00559
1.01343
1.02075
1.02876
1.0349
1.04135
1.04598
1.05129
1.05529
1.06324
1.07719
1.11042
1.20105
1.37844
1.95259
2.51795
2.62716
2.6125
2.5709
2.54806
2.51613
2.47454
2.41552
2.35763
2.32935
1.00597
1.01304
1.02113
1.02837
1.03529
1.04095
1.04639
1.05075
1.05543
1.06095
1.07552
1.09946
1.16624
1.32301
1.78653
2.47133
2.60483
2.58208
2.56479
2.5335
2.50737
2.47137
2.42085
2.35995
2.32245
1.00551
1.01351
1.02067
1.02883
1.03484
1.04139
1.04595
1.05112
1.05479
1.06021
1.06974
1.09331
1.13569
1.28925
1.58707
2.34923
2.56782
2.56597
2.55152
2.51795
2.49946
2.46647
2.42722
2.3673
2.32459
1.0057
1.01331
1.02086
1.02864
1.03502
1.04122
1.0461
1.05096
1.05472
1.05948
1.06643
1.08669
1.12629
1.21942
1.49205
2.20096
2.48392
2.55295
2.54128
2.51174
2.48688
2.46063
2.43353
2.38103
2.33261
1.00584
1.01318
1.02099
1.02851
1.03514
1.04109
1.04622
1.0508
1.05475
1.05875
1.0643
1.07914
1.10874
1.17833
1.36508
1.96181
2.38101
2.51837
2.51858
2.50564
2.48139
2.44786
2.4305
2.39862
2.35108
1.00589
1.01311
1.02107
1.02842
1.03524
1.04097
1.04634
1.05062
1.05487
1.05816
1.0633
1.07284
1.09545
1.15504
1.26344
1.64325
2.3689
2.47692
2.48805
2.48718
2.47608
2.44791
2.42342
2.40508
2.37641
1.00508
1.01397