/*--------------------------------*- C++ -*----------------------------------*\
  =========                 |
  \\      /  F ield         | OpenFOAM: The Open Source CFD Toolbox
   \\    /   O peration     | Website:  https://openfoam.org
    \\  /    A nd           | Version:  6
     \\/     M anipulation  |
\*---------------------------------------------------------------------------*/
FoamFile
{
    version     2.0;
    format      ascii;
    class       volVectorField;
    location    "7";
    object      U;
}
// * * * * * * * * * * * * * * * * * * * * * * * * * * * * * * * * * * * * * //

dimensions      [0 1 -1 0 0 0 0];

internalField   nonuniform List<vector> 
26250
(
(3.01561 6.2803e-08 -0.0579625)
(3.02577 3.96402e-07 -0.0597773)
(3.03427 2.89869e-07 -0.0611188)
(3.0414 9.74271e-07 -0.0622818)
(3.04762 1.47733e-07 -0.0631481)
(3.05271 1.33699e-06 -0.0640299)
(3.05724 -3.42625e-07 -0.0645772)
(3.0598 3.86661e-06 -0.0654593)
(3.05808 9.22097e-06 -0.0660535)
(3.05511 3.28781e-05 -0.0677745)
(3.0338 6.53269e-05 -0.0705358)
(2.99333 0.000209903 -0.0793842)
(2.83947 0.000480193 -0.0959769)
(2.39445 0.00144091 -0.145206)
(1.32143 0.00368253 -0.245958)
(0.549358 0.00743268 -0.279188)
(0.693055 0.0101744 -0.259734)
(0.87251 0.0132926 -0.252734)
(0.960956 0.0174491 -0.256346)
(0.942923 0.0241367 -0.261693)
(0.925527 0.0248733 -0.262716)
(0.870215 0.0201606 -0.265279)
(0.737687 0.0113151 -0.269087)
(0.499183 0.00980669 -0.270043)
(0.29257 0.00491538 -0.26468)
(3.01561 9.59273e-07 -0.0579628)
(3.02577 1.45502e-06 -0.0597769)
(3.03427 1.34938e-06 -0.0611191)
(3.0414 2.78187e-06 -0.0622814)
(3.04762 4.36267e-08 -0.0631484)
(3.05271 3.90245e-06 -0.0640296)
(3.05724 -1.98644e-06 -0.0645772)
(3.05981 1.36555e-05 -0.0654589)
(3.05811 3.32447e-05 -0.066052)
(3.05516 0.000112138 -0.0677705)
(3.03394 0.000219443 -0.0705192)
(2.99368 0.000639236 -0.0793585)
(2.8404 0.00141944 -0.0958907)
(2.39746 0.00389241 -0.145044)
(1.33025 0.010269 -0.245792)
(0.555638 0.0201517 -0.278488)
(0.699213 0.0285549 -0.258929)
(0.878724 0.0381539 -0.251407)
(0.967429 0.046554 -0.254986)
(0.968133 0.0537046 -0.258213)
(0.937687 0.0557816 -0.260759)
(0.876674 0.0495543 -0.263568)
(0.754307 0.0364025 -0.26625)
(0.531753 0.0345965 -0.267978)
(0.336307 0.0316353 -0.262629)
(3.01561 6.69266e-06 -0.0579633)
(3.02577 3.60142e-07 -0.0597763)
(3.03427 3.29408e-06 -0.0611197)
(3.0414 -4.57494e-07 -0.0622808)
(3.04762 -1.40669e-06 -0.0631488)
(3.05271 1.32196e-06 -0.0640291)
(3.05725 -5.17878e-06 -0.0645768)
(3.05983 2.86838e-05 -0.0654574)
(3.05817 7.3988e-05 -0.0660483)
(3.05526 0.00035541 -0.0677576)
(3.03422 0.000718192 -0.0704917)
(2.99434 0.00175069 -0.0792754)
(2.84188 0.0034123 -0.0956948)
(2.40157 0.00786333 -0.144701)
(1.3378 0.0179367 -0.245296)
(0.544503 0.0408574 -0.278333)
(0.691592 0.0550801 -0.258724)
(0.874056 0.0654572 -0.251095)
(0.960775 0.0719886 -0.254782)
(0.960167 0.0753654 -0.257867)
(0.924013 0.0797695 -0.260749)
(0.855414 0.0809488 -0.263005)
(0.733498 0.0765346 -0.26513)
(0.512285 0.0754422 -0.266823)
(0.312137 0.075429 -0.261559)
(3.01561 2.64056e-05 -0.0579667)
(3.02577 -8.66976e-06 -0.0597723)
(3.03427 1.16463e-05 -0.0611235)
(3.04139 -1.41464e-05 -0.0622765)
(3.04762 4.28174e-06 -0.0631528)
(3.0527 -1.7936e-05 -0.0640249)
(3.05726 7.87503e-06 -0.0645794)
(3.05988 -3.22494e-05 -0.0654511)
(3.05838 -4.77286e-05 -0.0660413)
(3.05569 0.00132169 -0.0677541)
(3.03507 -0.00288119 -0.0703306)
(2.99612 0.0109715 -0.0791635)
(2.84448 -0.0100211 -0.09512)
(2.41646 0.04057 -0.144016)
(1.35525 0.031805 -0.244435)
(0.579428 0.0758668 -0.276603)
(0.716682 0.0945012 -0.256754)
(0.888545 0.103448 -0.248939)
(0.96976 0.108696 -0.253192)
(0.956333 0.114863 -0.257517)
(0.923532 0.12087 -0.25944)
(0.854589 0.125977 -0.261716)
(0.72712 0.12837 -0.263262)
(0.501001 0.127743 -0.264687)
(0.294592 0.1237 -0.260683)
(3.01561 6.90643e-06 -0.0580061)
(3.02576 -1.014e-07 -0.0597279)
(3.03427 3.20526e-06 -0.0611681)
(3.04139 -1.10978e-06 -0.0622283)
(3.04762 -1.49507e-06 -0.0632014)
(3.05271 1.71713e-06 -0.0639725)
(3.05723 -4.83561e-06 -0.0646328)
(3.05979 4.18082e-05 -0.0653867)
(3.05928 0.000102827 -0.0661493)
(3.05288 0.000489841 -0.0677177)
(3.04163 0.000993682 -0.0697154)
(2.98863 0.00266843 -0.0796219)
(2.85513 0.00580565 -0.0929609)
(2.45992 0.0148189 -0.149524)
(1.38952 0.0384773 -0.236851)
(0.621053 0.0886873 -0.273405)
(0.744557 0.115959 -0.253613)
(0.907602 0.127173 -0.245297)
(0.984718 0.138212 -0.249434)
(0.977611 0.15108 -0.252986)
(0.941812 0.162948 -0.255306)
(0.870748 0.172365 -0.257505)
(0.73946 0.179693 -0.258882)
(0.508 0.183732 -0.259917)
(0.294731 0.17703 -0.256905)
(3.01561 -2.41986e-06 -0.057972)
(3.02576 1.89688e-06 -0.0597661)
(3.03427 -4.36754e-07 -0.0611294)
(3.04139 2.43159e-06 -0.06227)
(3.04763 1.76339e-06 -0.0631588)
(3.0527 5.17594e-07 -0.0640181)
(3.05729 1.29436e-05 -0.0645824)
(3.05996 9.88147e-06 -0.0654384)
(3.05875 0.000162312 -0.0660184)
(3.05642 0.000339926 -0.0677082)
(3.03683 0.000945823 -0.0700591)
(3.00017 0.00196247 -0.0787411)
(2.85331 0.00584784 -0.0936856)
(2.45068 0.0162407 -0.141633)
(1.42445 0.0463287 -0.23948)
(0.662654 0.10722 -0.273241)
(0.775316 0.140541 -0.252469)
(0.925728 0.155947 -0.242559)
(1.00312 0.171219 -0.246763)
(0.99676 0.188988 -0.250237)
(0.95865 0.206174 -0.252302)
(0.887026 0.220233 -0.254013)
(0.755397 0.233357 -0.254535)
(0.519678 0.245331 -0.255098)
(0.299965 0.241086 -0.252073)
(3.01561 -3.37907e-06 -0.0580015)
(3.02576 2.10381e-06 -0.059733)
(3.03427 -4.94827e-06 -0.0611629)
(3.04139 8.5205e-06 -0.0622336)
(3.04762 -8.90832e-06 -0.0631962)
(3.05272 2.08402e-05 -0.0639759)
(3.05724 -1.10846e-05 -0.0646291)
(3.05991 8.40267e-05 -0.0653738)
(3.05955 0.000205314 -0.0661244)
(3.05353 0.000349687 -0.0676238)
(3.04296 0.000576347 -0.0695756)
(2.99272 0.00206208 -0.0790509)
(2.86688 0.00564656 -0.0917061)
(2.49228 0.017281 -0.145823)
(1.47217 0.0572976 -0.230658)
(0.710851 0.128429 -0.270381)
(0.807852 0.168108 -0.250183)
(0.94837 0.186937 -0.239637)
(1.02246 0.205635 -0.243428)
(1.01814 0.226781 -0.246562)
(0.978456 0.249205 -0.248838)
(0.907207 0.269296 -0.24973)
(0.776868 0.290919 -0.249817)
(0.537558 0.315275 -0.249365)
(0.310019 0.32253 -0.246148)
(3.01561 -1.77641e-05 -0.0579765)
(3.02576 9.71207e-06 -0.0597616)
(3.03428 -1.33969e-05 -0.0611337)
(3.04139 2.19325e-05 -0.0622657)
(3.04764 -2.20223e-05 -0.063162)
(3.0527 4.89959e-05 -0.064015)
(3.05735 -4.53238e-05 -0.0645801)
(3.06014 0.000191752 -0.0654298)
(3.05896 0.000300965 -0.0659936)
(3.05672 -0.000403332 -0.0675787)
(3.03825 0.00436024 -0.0699418)
(3.00424 -0.00541685 -0.0779935)
(2.86638 0.0212643 -0.0921963)
(2.48839 -0.00623773 -0.137678)
(1.53426 0.0646897 -0.233128)
(0.750079 0.145214 -0.270572)
(0.836393 0.192306 -0.249268)
(0.965216 0.212502 -0.236835)
(1.04087 0.235414 -0.240414)
(1.03798 0.261959 -0.243371)
(0.999089 0.290756 -0.245332)
(0.930824 0.31862 -0.245539)
(0.805417 0.352088 -0.244614)
(0.565405 0.396349 -0.24341)
(0.330034 0.431746 -0.238557)
(3.01562 1.06374e-06 -0.0579769)
(3.02576 -2.73819e-06 -0.0597608)
(3.03428 3.2867e-07 -0.0611342)
(3.04139 -5.21219e-06 -0.0622654)
(3.04764 1.88112e-06 -0.0631619)
(3.0527 -5.11369e-06 -0.0640161)
(3.05736 5.50852e-06 -0.0645777)
(3.06019 1.86048e-05 -0.0654275)
(3.05906 2.9605e-05 -0.065973)
(3.05692 0.000552492 -0.0674997)
(3.03922 0.00125668 -0.0699134)
(3.00681 0.0040845 -0.0774862)
(2.87519 0.00952043 -0.0915426)
(2.50858 0.026453 -0.134857)
(1.61155 0.0727841 -0.22896)
(0.822113 0.173252 -0.26797)
(0.875824 0.226605 -0.247552)
(0.989044 0.248766 -0.233754)
(1.06396 0.271631 -0.237149)
(1.06095 0.300897 -0.239981)
(1.02405 0.333767 -0.241219)
(0.961413 0.369047 -0.240853)
(0.847232 0.417134 -0.238441)
(0.616208 0.490544 -0.236186)
(0.373253 0.586178 -0.228357)
(3.01561 1.57015e-05 -0.0579779)
(3.02576 -1.4942e-05 -0.0597589)
(3.03428 1.73689e-05 -0.0611369)
(3.04139 -3.58036e-05 -0.0622612)
(3.04764 4.3541e-05 -0.0631673)
(3.0527 -8.37871e-05 -0.0640082)
(3.05737 0.00012216 -0.0645851)
(3.06016 -0.000218581 -0.0654127)
(3.0594 0.000257663 -0.0659493)
(3.05774 0.00173976 -0.067454)
(3.04109 -0.00106711 -0.069515)
(3.01121 0.0123534 -0.0772627)
(2.88404 -0.0038475 -0.0896543)
(2.54014 0.0594049 -0.133127)
(1.67178 0.0760321 -0.225111)
(0.899028 0.199084 -0.26511)
(0.920546 0.262061 -0.24597)
(1.01683 0.289895 -0.230441)
(1.09033 0.311669 -0.233661)
(1.08867 0.341548 -0.236491)
(1.05637 0.376267 -0.237059)
(1.00364 0.418433 -0.235801)
(0.910704 0.487192 -0.231782)
(0.714687 0.606195 -0.226267)
(0.463691 0.837193 -0.213616)
(2.98855 -2.65726e-07 -0.00143147)
(2.98291 3.65783e-07 -0.00328844)
(2.97953 1.50379e-07 -0.00492943)
(2.97738 9.47186e-07 -0.00644542)
(2.97597 3.62844e-07 -0.00768297)
(2.97499 1.18174e-06 -0.00889476)
(2.9741 4.86345e-07 -0.00974354)
(2.97245 1.91607e-06 -0.0108054)
(2.96698 7.86756e-06 -0.0112884)
(2.95659 2.29943e-05 -0.0121901)
(2.92202 7.11618e-05 -0.0137447)
(2.84609 0.000160581 -0.01688)
(2.62532 0.000430625 -0.0239094)
(1.92011 0.00116025 -0.0386473)
(0.380338 0.00311095 -0.0655761)
(-0.580533 0.0102112 -0.0635055)
(-0.000420163 0.0182379 -0.0600035)
(0.42168 0.0275619 -0.0585799)
(0.505386 0.0412786 -0.0612444)
(0.402621 0.0661102 -0.0614135)
(0.383867 0.0673617 -0.0633262)
(0.289157 0.0557651 -0.0637386)
(0.0975784 0.0465969 -0.0639263)
(0.0117531 0.0404001 -0.061175)
(0.163937 0.0173215 -0.055483)
(2.98855 3.23199e-07 -0.0014314)
(2.98291 1.19742e-06 -0.00328851)
(2.97953 1.16666e-06 -0.00492937)
(2.97738 2.47137e-06 -0.00644558)
(2.97597 1.27347e-06 -0.00768288)
(2.97499 3.06548e-06 -0.00889486)
(2.9741 1.56414e-06 -0.00974349)
(2.97246 8.37753e-06 -0.0108052)
(2.967 2.95914e-05 -0.0112906)
(2.95664 9.79645e-05 -0.0121824)
(2.92213 0.000225615 -0.0137689)
(2.8464 0.00067029 -0.0168435)
(2.62603 0.00151442 -0.0239906)
(1.92236 0.00449959 -0.0386806)
(0.386491 0.0121619 -0.0657794)
(-0.564112 0.0271267 -0.0633694)
(0.0100048 0.0498304 -0.0596925)
(0.431913 0.0714582 -0.0582407)
(0.523468 0.0908414 -0.0608945)
(0.462611 0.120967 -0.0622937)
(0.401104 0.118722 -0.0627685)
(0.29675 0.109269 -0.0623462)
(0.129493 0.102918 -0.0623531)
(0.0159353 0.104964 -0.0604191)
(0.19254 0.070106 -0.0548803)
(2.98855 3.39683e-06 -0.0014316)
(2.98291 1.6583e-06 -0.0032885)
(2.97953 2.91311e-06 -0.00492938)
(2.97738 1.89252e-06 -0.00644566)
(2.97597 1.08201e-06 -0.00768252)
(2.97499 2.43654e-06 -0.00889545)
(2.97411 1.07657e-06 -0.00974239)
(2.97247 1.67945e-05 -0.0108075)
(2.96706 6.17795e-05 -0.0112882)
(2.95675 0.000206264 -0.0121932)
(2.92248 0.000444333 -0.013739)
(2.84719 0.00136336 -0.0168838)
(2.62819 0.00287871 -0.0239003)
(1.9288 0.00854085 -0.0385821)
(0.396072 0.0224854 -0.0656541)
(-0.585888 0.0582512 -0.0626301)
(0.0121527 0.0913881 -0.0594299)
(0.434816 0.118692 -0.0579428)
(0.523081 0.134215 -0.0607002)
(0.468654 0.141613 -0.062434)
(0.399167 0.157235 -0.0624125)
(0.294935 0.169653 -0.061288)
(0.138035 0.176776 -0.0607884)
(0.0136504 0.184134 -0.0590107)
(0.174702 0.140142 -0.0536484)
(2.98855 1.12655e-05 -0.00143267)
(2.98291 1.1148e-06 -0.00328722)
(2.97953 7.86895e-06 -0.00492995)
(2.97738 -8.55934e-07 -0.00644482)
(2.97597 4.08318e-06 -0.00768284)
(2.97499 -9.67398e-07 -0.0088953)
(2.97412 7.69951e-06 -0.0097421)
(2.97251 4.0129e-05 -0.0108098)
(2.96715 0.000229819 -0.0112919)
(2.95695 0.000282685 -0.0122069)
(2.92304 0.00172817 -0.0137826)
(2.84838 0.00189461 -0.016879)
(2.63135 0.0066924 -0.0239728)
(1.93713 0.0153171 -0.0386112)
(0.419051 0.0320583 -0.065562)
(-0.531537 0.0902048 -0.0630265)
(0.034901 0.132132 -0.0589783)
(0.443246 0.164579 -0.0571358)
(0.51303 0.185042 -0.0600148)
(0.420738 0.206918 -0.061038)
(0.377746 0.223971 -0.0618475)
(0.282488 0.243858 -0.0604317)
(0.138872 0.260075 -0.0593831)
(0.0125753 0.267073 -0.0573036)
(0.154092 0.214173 -0.0520889)
(2.98855 3.05773e-06 -0.0014367)
(2.98291 1.4214e-06 -0.0032819)
(2.97953 2.0901e-06 -0.0049331)
(2.97738 1.58675e-06 -0.00644121)
(2.97597 -1.59694e-07 -0.00768589)
(2.975 3.55961e-06 -0.00889158)
(2.97414 1.40334e-06 -0.00974641)
(2.97266 3.16437e-05 -0.0107991)
(2.96726 0.000116171 -0.0112782)
(2.95795 0.000396534 -0.0123486)
(2.9241 0.000877992 -0.0131689)
(2.85054 0.00274645 -0.0183448)
(2.63785 0.00617663 -0.0212751)
(1.94816 0.0188446 -0.0422713)
(0.417006 0.0533596 -0.0641333)
(-0.51108 0.122645 -0.0633473)
(0.0531678 0.172822 -0.0586344)
(0.454529 0.210766 -0.0563215)
(0.519249 0.241622 -0.0591672)
(0.444726 0.272279 -0.0608594)
(0.380827 0.293509 -0.0609644)
(0.287239 0.317902 -0.0594129)
(0.151328 0.341718 -0.0578824)
(0.0193951 0.349924 -0.0553251)
(0.139559 0.291359 -0.050162)
(2.98855 -1.70529e-06 -0.0014342)
(2.98291 6.74856e-07 -0.00328567)
(2.97953 -1.23735e-06 -0.00493081)
(2.97738 1.83659e-06 -0.0064438)
(2.97597 -6.48036e-07 -0.007683)
(2.975 4.87133e-06 -0.00889551)
(2.97414 3.32347e-06 -0.00974039)
(2.9726 3.93297e-05 -0.0108149)
(2.96746 0.000127073 -0.0112887)
(2.95757 0.000473174 -0.0122185)
(2.92492 0.00103949 -0.013773)
(2.85284 0.00331027 -0.0168247)
(2.64365 0.00793019 -0.0237945)
(1.97579 0.0245429 -0.038014)
(0.499008 0.0712777 -0.0647545)
(-0.445356 0.153586 -0.0635679)
(0.0787225 0.211898 -0.0582097)
(0.469668 0.256178 -0.0552332)
(0.528682 0.29606 -0.0582061)
(0.451906 0.339649 -0.0600309)
(0.386076 0.364563 -0.0600252)
(0.298687 0.392719 -0.0582197)
(0.173146 0.423115 -0.0562188)
(0.034511 0.436612 -0.0531608)
(0.129986 0.379247 -0.0478408)
(2.98855 -4.11021e-06 -0.00143681)
(2.98291 1.07895e-06 -0.00328215)
(2.97953 -4.03161e-06 -0.00493314)
(2.97738 4.13023e-06 -0.00644114)
(2.97597 -3.46082e-06 -0.00768586)
(2.975 9.18836e-06 -0.00889106)
(2.97417 2.62841e-06 -0.00974726)
(2.97277 4.32177e-05 -0.0107958)
(2.96762 0.000158422 -0.0112851)
(2.95872 0.000563939 -0.0123154)
(2.92638 0.00126042 -0.013125)
(2.85655 0.0041397 -0.0181205)
(2.65435 0.00989064 -0.0209144)
(2.00312 0.031348 -0.0408631)
(0.530707 0.0913065 -0.0628728)
(-0.393764 0.183891 -0.064016)
(0.10477 0.249985 -0.0579275)
(0.484908 0.300199 -0.0543773)
(0.541323 0.347791 -0.0572441)
(0.469206 0.3992 -0.0591548)
(0.398445 0.433733 -0.0590106)
(0.318172 0.468673 -0.0569046)
(0.204717 0.507176 -0.0543358)
(0.0606493 0.530712 -0.0507813)
(0.126497 0.484624 -0.0450268)
(2.98855 -1.1068e-05 -0.00143439)
(2.98291 2.91928e-06 -0.0032859)
(2.97953 -9.30415e-06 -0.00493012)
(2.97738 8.74942e-06 -0.00644551)
(2.97597 -9.10987e-06 -0.00767993)
(2.975 1.53622e-05 -0.00890054)
(2.97417 -5.69074e-06 -0.00973319)
(2.97273 3.04296e-05 -0.0108276)
(2.96789 4.96668e-05 -0.0112837)
(2.9585 0.000681764 -0.0121672)
(2.92783 0.000405723 -0.0136407)
(2.86048 0.00510787 -0.0165416)
(2.66504 0.00933296 -0.0231827)
(2.04884 0.0352601 -0.0358881)
(0.63958 0.108437 -0.0636814)
(-0.321822 0.220777 -0.0634996)
(0.131682 0.291276 -0.0575362)
(0.501922 0.343367 -0.0532278)
(0.556276 0.396751 -0.0561056)
(0.488264 0.454362 -0.0578754)
(0.418868 0.500936 -0.0577125)
(0.346288 0.54556 -0.0555578)
(0.24723 0.595147 -0.0524085)
(0.101381 0.635667 -0.0482025)
(0.132529 0.616136 -0.0418673)
(2.98856 -1.78891e-06 -0.00143425)
(2.98291 2.38266e-06 -0.00328607)
(2.97954 -4.10762e-06 -0.00492988)
(2.97738 4.79552e-06 -0.00644616)
(2.97598 -7.11315e-06 -0.00767878)
(2.975 9.39311e-06 -0.0089026)
(2.97419 -2.68356e-06 -0.00972995)
(2.97281 4.96636e-05 -0.01083)
(2.96815 0.000216337 -0.011277)
(2.95906 0.000713544 -0.0121258)
(2.92968 0.00214355 -0.0135762)
(2.86525 0.00494507 -0.016355)
(2.67847 0.0145613 -0.022873)
(2.09415 0.0371949 -0.0345919)
(0.742947 0.111917 -0.0632504)
(-0.211289 0.250219 -0.0636105)
(0.176386 0.331954 -0.0569565)
(0.523521 0.387027 -0.052099)
(0.575168 0.444117 -0.0550105)
(0.512267 0.506759 -0.056554)
(0.447713 0.56555 -0.0561902)
(0.384568 0.621129 -0.0539324)
(0.30378 0.685714 -0.0504339)
(0.165194 0.754905 -0.0455061)
(0.155071 0.787048 -0.0381999)
(2.98856 1.11911e-05 -0.0014352)
(2.98291 1.62804e-06 -0.00328362)
(2.97954 4.16823e-07 -0.00493267)
(2.97737 5.10585e-06 -0.00644155)
(2.97598 -1.34874e-05 -0.00768495)
(2.975 2.11829e-05 -0.00889455)
(2.9742 -4.8519e-05 -0.00973781)
(2.97291 8.93796e-05 -0.01082)
(2.96844 -0.0001076 -0.0112456)
(2.96012 0.00169431 -0.0121471)
(2.93131 -0.000596576 -0.0135128)
(2.87132 0.0127052 -0.0163603)
(2.68967 0.00274707 -0.0225964)
(2.1349 0.0523835 -0.0336031)
(0.836522 0.106413 -0.0625683)
(-0.111084 0.274849 -0.0634315)
(0.2255 0.372442 -0.0560743)
(0.546195 0.432144 -0.0508203)
(0.596266 0.490532 -0.0537784)
(0.541374 0.556533 -0.0552993)
(0.48424 0.625016 -0.0546512)
(0.433982 0.692412 -0.0522676)
(0.380017 0.776625 -0.0482354)
(0.267554 0.888176 -0.0429184)
(0.206777 1.05219 -0.0347562)
(2.9951 4.30705e-07 9.04806e-07)
(2.98906 4.26015e-07 -3.4002e-07)
(2.98252 5.91874e-07 6.10574e-07)
(2.97637 4.99053e-07 -2.30298e-07)
(2.97072 1.65826e-07 2.15935e-07)
(2.96582 8.07686e-07 -1.21523e-08)
(2.96112 -4.69712e-07 1.29276e-08)
(2.95642 4.13576e-06 1.16899e-06)
(2.94839 -2.31172e-06 3.77156e-06)
(2.93439 5.92031e-05 7.9059e-06)
(2.89297 -3.54894e-05 1.56526e-05)
(2.80331 0.000318475 2.64487e-05)
(2.55235 6.3934e-05 2.01171e-05)
(1.73022 0.000708641 4.39276e-06)
(-0.0207553 0.000907943 -0.000219255)
(-1.14195 0.01372 -0.00010705)
(-0.192534 0.026073 0.000107681)
(0.294723 0.0371474 0.000249707)
(0.39465 0.0419998 0.000506808)
(0.299334 0.041352 0.00115242)
(-0.142147 0.0622585 8.96426e-05)
(-0.10379 0.0682478 -0.000289299)
(-0.1377 0.0687016 -0.000240206)
(-0.0879638 0.0704596 -8.91731e-05)
(0.0889913 0.0599281 -0.000290459)
(2.9951 3.16882e-07 2.63884e-06)
(2.98906 5.63006e-07 -2.29974e-06)
(2.98252 7.0338e-07 1.9483e-06)
(2.97637 1.00415e-06 -2.097e-06)
(2.97072 7.06244e-07 1.71064e-06)
(2.96582 8.12356e-07 -1.73456e-06)
(2.96112 1.28692e-06 2.34916e-06)
(2.95642 3.93549e-06 3.52156e-06)
(2.94843 2.21008e-05 3.0214e-05)
(2.93437 7.51123e-05 -1.93649e-05)
(2.89314 0.000203517 0.000213457)
(2.80341 0.000552124 -0.000136875)
(2.55279 0.00131228 0.000356144)
(1.72908 0.00374924 1.04014e-05)
(-0.0179772 0.01118 -0.000828892)
(-1.13599 0.042158 -0.000164351)
(-0.176744 0.0723798 0.00016825)
(0.30574 0.0955931 9.87999e-05)
(0.390695 0.101578 -0.000191534)
(0.276598 0.0945867 -0.000811464)
(-0.17978 0.123768 0.000108771)
(-0.123577 0.141799 0.000358992)
(-0.155853 0.149754 0.000163525)
(-0.104885 0.156633 2.49652e-05)
(0.0867011 0.13929 -7.70509e-05)
(2.9951 3.69915e-07 1.41122e-06)
(2.98906 8.39956e-07 -8.81275e-07)
(2.98253 7.24217e-07 8.37216e-07)
(2.97637 1.26736e-06 -8.0492e-07)
(2.97072 4.5509e-07 3.95019e-07)
(2.96582 8.22427e-07 -3.98846e-07)
(2.96112 1.76365e-06 1.87025e-07)
(2.95644 7.02474e-06 1.52779e-06)
(2.94845 4.10672e-05 4.48383e-06)
(2.93454 0.000146963 9.7434e-06)
(2.89335 0.000392024 1.49443e-05)
(2.80427 0.00109871 3.2577e-05)
(2.55472 0.00264693 4.94885e-07)
(1.73807 0.00775968 -3.07841e-05)
(0.00236528 0.0233426 -0.000364701)
(-1.10863 0.0676755 0.000144489)
(-0.158211 0.116254 2.82724e-05)
(0.316061 0.15362 -7.17832e-05)
(0.381138 0.168508 -0.000405317)
(0.26435 0.164431 -0.000911629)
(-0.183548 0.20204 0.000107938)
(-0.116163 0.226054 0.000460904)
(-0.155843 0.241125 0.000378107)
(-0.112132 0.252891 0.000171457)
(0.0753561 0.229542 0.000192988)
(2.9951 8.01721e-07 2.15902e-06)
(2.98906 1.25023e-06 -1.78699e-06)
(2.98253 8.16848e-07 1.49802e-06)
(2.97637 1.20072e-06 -1.60067e-06)
(2.97072 -7.02241e-07 1.18315e-06)
(2.96582 1.603e-06 -1.32333e-06)
(2.96113 2.73185e-07 1.79273e-06)
(2.95645 1.71175e-05 2.55782e-06)
(2.94855 4.76202e-05 2.57466e-05)
(2.93466 0.000314418 -2.39799e-05)
(2.89391 0.000434922 0.000197356)
(2.80538 0.00211389 -0.000168983)
(2.55782 0.00373074 0.000325485)
(1.74644 0.0122966 -5.35092e-05)
(0.0235402 0.0351986 -0.000786194)
(-1.07701 0.0962394 0.000108804)
(-0.138305 0.159402 5.94192e-05)
(0.328447 0.208386 -2.25242e-05)
(0.375297 0.234063 -2.15702e-05)
(0.270071 0.235872 0.000317794)
(-0.171896 0.285072 7.18751e-05)
(-0.0982762 0.31031 0.000173587)
(-0.144989 0.332323 0.000273884)
(-0.112696 0.347057 0.00021911)
(0.0658234 0.31861 0.00026753)
(2.9951 -7.55582e-07 7.03473e-07)
(2.98906 4.4769e-07 -3.60402e-07)
(2.98253 -8.61992e-07 2.59466e-07)
(2.97637 6.5294e-07 -2.52463e-07)
(2.97072 -9.90727e-07 -8.37866e-08)
(2.96582 1.56409e-06 1.04459e-07)
(2.96113 3.16641e-06 -3.2348e-07)
(2.95648 1.85889e-05 1.02439e-07)
(2.94869 9.07852e-05 -9.71036e-07)
(2.93488 0.00036141 1.40109e-06)
(2.89475 0.000859363 -1.01037e-05)
(2.80721 0.00269597 -1.13434e-05)
(2.56291 0.00632899 -4.67556e-05)
(1.76178 0.0195929 -6.83217e-05)
(0.0581894 0.0584194 -0.000316473)
(-1.03298 0.134454 5.39939e-05)
(-0.11301 0.205823 6.39791e-05)
(0.341852 0.262713 1.10037e-05)
(0.37127 0.298583 -5.79737e-05)
(0.271614 0.31202 -0.000157343)
(-0.130239 0.363397 -1.85966e-05)
(-0.0760286 0.392794 2.45511e-05)
(-0.126167 0.422217 0.000157128)
(-0.108104 0.440039 0.00023164)
(0.0588608 0.408406 0.000286183)
(2.9951 -3.1044e-06 1.35499e-06)
(2.98906 -9.19438e-08 -1.34007e-06)
(2.98253 -2.79268e-06 1.07378e-06)
(2.97637 7.13277e-07 -1.24042e-06)
(2.97072 -6.86282e-07 1.24063e-06)
(2.96582 2.51503e-06 -1.34485e-06)
(2.96114 6.38491e-06 2.05906e-06)
(2.95653 2.32582e-05 1.61491e-06)
(2.94883 0.000122812 2.0884e-05)
(2.93531 0.0004659 -3.01866e-05)
(2.89582 0.0012016 0.000183202)
(2.81021 0.00361759 -0.000195929)
(2.57089 0.00896582 0.000325709)
(1.79216 0.0278518 -7.57067e-05)
(0.112168 0.0833769 -0.000623862)
(-0.97452 0.174221 1.44677e-05)
(-0.0846015 0.252124 5.59994e-05)
(0.356597 0.315984 1.8968e-05)
(0.372623 0.361858 -1.11403e-05)
(0.272053 0.389147 4.23712e-05)
(-0.0691338 0.438687 -5.41996e-05)
(-0.0487298 0.476504 -2.38873e-05)
(-0.0991584 0.513723 0.000100529)
(-0.0977621 0.537108 0.000218906)
(0.0545875 0.506695 0.000279268)
(2.9951 -4.58459e-06 -1.48143e-06)
(2.98906 1.25498e-07 1.80836e-06)
(2.98253 -3.65895e-06 -1.36105e-06)
(2.97637 1.10603e-06 2.02281e-06)
(2.97073 4.77654e-09 -1.72227e-06)
(2.96583 2.16623e-06 2.16982e-06)
(2.96115 9.68573e-06 -2.4595e-06)
(2.95658 2.60223e-05 -2.6415e-06)
(2.94906 0.000146233 -2.29102e-05)
(2.93579 0.000586897 2.3696e-05)
(2.89736 0.00149963 -0.000193028)
(2.81407 0.00460089 0.000173226)
(2.58169 0.0113361 -0.000356364)
(1.82984 0.0351169 6.64816e-05)
(0.180398 0.103999 0.000560882)
(-0.902452 0.212731 -0.000134169)
(-0.0525258 0.297906 -4.87467e-05)
(0.372704 0.367987 -4.23589e-05)
(0.37972 0.423119 -1.98199e-05)
(0.276102 0.465397 -1.22496e-05)
(-0.00319599 0.515127 -4.58589e-05)
(-0.0150743 0.562351 -1.84583e-05)
(-0.0621147 0.608401 8.97768e-05)
(-0.0794667 0.641849 0.000211007)
(0.0546488 0.619263 0.000258437)
(2.9951 -5.06073e-06 -6.60735e-07)
(2.98906 1.77533e-06 7.3814e-07)
(2.98253 -3.72845e-06 -4.62586e-07)
(2.97638 3.50055e-06 8.90609e-07)
(2.97073 -3.19708e-07 -3.95193e-07)
(2.96583 3.44086e-06 7.32359e-07)
(2.96116 1.10725e-05 -1.96848e-07)
(2.95664 2.98697e-05 -5.36387e-07)
(2.94931 0.00017043 -1.14472e-06)
(2.93646 0.000691744 -3.50166e-06)
(2.89913 0.00173896 5.57537e-08)
(2.8189 0.00536275 -1.48504e-05)
(2.59474 0.0130819 2.35944e-05)
(1.87613 0.0402941 3.14174e-05)
(0.262594 0.119288 0.000173541)
(-0.81713 0.249069 0.000121482)
(-0.0169599 0.343414 -9.0873e-05)
(0.390324 0.41888 -5.74379e-05)
(0.392759 0.48192 -2.23637e-05)
(0.287316 0.537587 -2.14549e-05)
(0.0610305 0.593759 -3.171e-05)
(0.0267089 0.647398 -7.95412e-06)
(-0.0130499 0.707086 8.44379e-05)
(-0.0496429 0.757332 0.000201834)
(0.0615826 0.754212 0.000234233)
(2.9951 -3.15758e-06 -1.43745e-07)
(2.98906 5.67253e-06 1.88023e-07)
(2.98253 -6.03692e-06 -3.26811e-08)
(2.97638 1.15959e-05 2.64922e-07)
(2.97073 -1.13839e-05 6.05082e-08)
(2.96584 1.79263e-05 1.64275e-07)
(2.96117 -3.00035e-06 1.04852e-07)
(2.95671 5.06621e-05 -1.50781e-07)
(2.94962 0.000254172 -5.76666e-07)
(2.93712 0.000803301 -1.63117e-06)
(2.90121 0.00216682 -2.54336e-06)
(2.82404 0.00576031 -6.52364e-06)
(2.60909 0.0147222 -6.02332e-06)
(1.92481 0.0427293 -1.12254e-05)
(0.35951 0.127372 -1.63028e-05)
(-0.713962 0.283679 -0.00013194)
(0.0214535 0.390077 -4.91552e-05)
(0.40928 0.469269 -1.33754e-05)
(0.409954 0.538107 -1.07681e-05)
(0.306533 0.604057 -1.60559e-05)
(0.123676 0.670885 -1.97615e-05)
(0.0773845 0.733013 -4.36538e-06)
(0.0517157 0.807831 7.70608e-05)
(0.0036272 0.883946 0.000187733)
(0.0781934 0.921349 0.000199382)
(2.9951 6.16401e-06 2.70412e-07)
(2.98906 7.91847e-06 8.05925e-08)
(2.98253 -1.03002e-05 2.97923e-07)
(2.97637 2.69262e-05 4.91595e-08)
(2.97073 -4.57048e-05 1.31698e-07)
(2.96584 7.76496e-05 -8.66397e-08)
(2.96119 -0.000108158 -8.7581e-08)
(2.95686 0.000257635 -3.42701e-07)
(2.94994 5.80961e-05 -5.86531e-07)
(2.93808 0.00177806 -2.11814e-06)
(2.90319 -0.000761678 -3.24295e-06)
(2.83 0.0131352 -8.37376e-06)
(2.62305 0.00301215 -1.46028e-05)
(1.97667 0.0554411 -1.93946e-05)
(0.473497 0.124722 -2.42657e-05)
(-0.583786 0.314406 -9.13402e-06)
(0.0648029 0.437295 -6.165e-06)
(0.428497 0.519017 7.66362e-06)
(0.429533 0.591336 -1.26473e-05)
(0.333302 0.66514 -2.06102e-05)
(0.187103 0.742014 -2.66298e-05)
(0.140251 0.815702 -1.57741e-05)
(0.135085 0.909109 4.50091e-05)
(0.0934161 1.02194 0.000171236)
(0.114788 1.17729 0.000174322)
(2.98855 8.87898e-06 0.00143305)
(2.98292 -4.48161e-07 0.00328735)
(2.97953 6.01725e-06 0.00493032)
(2.97738 -2.67082e-06 0.00644473)
(2.97597 4.24894e-06 0.00768311)
(2.97499 -3.81435e-06 0.0088949)
(2.97411 7.39558e-06 0.0097427)
(2.97247 1.99876e-05 0.0108096)
(2.96703 0.000162185 0.0112945)
(2.95668 2.25607e-05 0.0122261)
(2.92219 0.00116343 0.0137928)
(2.84616 0.000137782 0.0169621)
(2.6251 0.00271446 0.0240067)
(1.91431 0.0034948 0.0388502)
(0.366414 -0.00150091 0.0652545)
(-0.588248 0.00291951 0.0631755)
(-0.00480645 0.0130032 0.0599874)
(0.422161 0.0191049 0.0590406)
(0.525987 0.0121223 0.0616356)
(0.493176 -0.0161969 0.0631394)
(0.433984 -0.0142041 0.0632979)
(0.337072 0.00138564 0.0628613)
(0.19442 0.0206082 0.0623956)
(0.0642808 0.0420328 0.0609811)
(0.1665 0.0484097 0.0556885)
(2.98855 2.94528e-06 0.00143727)
(2.98291 1.09833e-06 0.00328151)
(2.97953 2.1931e-06 0.0049337)
(2.97738 5.96617e-07 0.00644073)
(2.97596 2.8861e-07 0.00768656)
(2.975 1.00287e-07 0.00889074)
(2.97413 -5.20346e-07 0.00974788)
(2.97261 8.1313e-06 0.0107979)
(2.96704 3.30191e-05 0.0112859)
(2.95747 0.000111914 0.0123881)
(2.92262 0.00023759 0.0131725)
(2.84662 0.00072466 0.0185121)
(2.62729 0.00146169 0.0212563)
(1.91024 0.0041717 0.042548)
(0.329975 0.0104264 0.0641302)
(-0.639085 0.0352906 0.0626928)
(-0.00784663 0.0557396 0.0599295)
(0.417899 0.069004 0.0588157)
(0.495983 0.0670554 0.0614311)
(0.38326 0.0641525 0.061905)
(0.366988 0.0692107 0.0635345)
(0.277101 0.0853361 0.0633618)
(0.113036 0.104539 0.0627285)
(0.0110937 0.118744 0.0603545)
(0.155555 0.105695 0.0548194)
(2.98855 9.06962e-07 0.00143411)
(2.98291 1.7615e-06 0.00328623)
(2.97953 7.78674e-07 0.00493077)
(2.97738 2.29429e-06 0.00644395)
(2.97597 -1.17436e-06 0.00768316)
(2.97499 2.32784e-06 0.00889488)
(2.97412 -1.88565e-06 0.00974203)
(2.9725 9.03411e-06 0.0108119)
(2.96712 3.08806e-05 0.0112951)
(2.95684 0.000150777 0.0122471)
(2.92266 0.00029725 0.0138073)
(2.84708 0.00101286 0.0170086)
(2.62759 0.0023469 0.0240518)
(1.91936 0.00747139 0.039001)
(0.380709 0.0221241 0.0649931)
(-0.567797 0.0660932 0.0628532)
(0.0152089 0.0969673 0.0593902)
(0.427393 0.120941 0.0579303)
(0.494396 0.136575 0.060645)
(0.392379 0.160875 0.0614044)
(0.361279 0.160549 0.0627541)
(0.264432 0.162518 0.0623981)
(0.0867401 0.179989 0.0618679)
(-0.0100995 0.196527 0.0590517)
(0.13848 0.166678 0.05376)
(2.98855 7.59287e-06 0.00143747)
(2.98291 7.09585e-08 0.00328176)
(2.97953 3.91286e-06 0.00493329)
(2.97738 -1.95479e-06 0.00644126)
(2.97596 5.78968e-07 0.00768517)
(2.975 -1.86502e-06 0.00889277)
(2.97413 4.22256e-06 0.00974414)
(2.97263 2.96936e-05 0.0108047)
(2.96716 0.000190976 0.0112792)
(2.95769 0.000197906 0.0123724)
(2.92334 0.00148439 0.0130974)
(2.84842 0.00133667 0.0183514)
(2.63251 0.00563833 0.0211108)
(1.92725 0.0134996 0.0424731)
(0.375743 0.0315883 0.0639029)
(-0.550162 0.0891457 0.0633614)
(0.0328311 0.133922 0.0591649)
(0.4403 0.168199 0.0572785)
(0.508781 0.194087 0.0598689)
(0.433129 0.221112 0.0616612)
(0.367275 0.230849 0.0619018)
(0.266646 0.237609 0.0608392)
(0.0993046 0.255728 0.0601899)
(-0.00875919 0.273062 0.0574685)
(0.137031 0.227303 0.0522187)
(2.98855 -1.10925e-06 0.00143778)
(2.98291 -5.81514e-07 0.00328126)
(2.97953 -2.054e-06 0.00493333)
(2.97738 -7.56505e-07 0.00644101)
(2.97597 -2.15295e-06 0.00768512)
(2.975 1.44422e-06 0.00889318)
(2.97414 8.07918e-07 0.00974298)
(2.97266 2.58972e-05 0.0108077)
(2.96727 8.47355e-05 0.0112745)
(2.9579 0.000331605 0.0123476)
(2.92403 0.000732281 0.0130771)
(2.85019 0.00244477 0.0182054)
(2.63765 0.00587147 0.0210864)
(1.94366 0.0183525 0.0425085)
(0.409875 0.0548727 0.0636298)
(-0.512261 0.121059 0.0635314)
(0.0522179 0.172524 0.0588633)
(0.451259 0.212961 0.0565453)
(0.512769 0.246849 0.0591795)
(0.429142 0.283594 0.060652)
(0.37068 0.299837 0.0610006)
(0.274571 0.314977 0.0595505)
(0.122667 0.335745 0.0584176)
(0.000190539 0.352188 0.0556413)
(0.136068 0.295657 0.0503224)
(2.98855 -1.30596e-05 0.00143767)
(2.98291 2.45869e-07 0.00328123)
(2.97953 -9.74593e-06 0.00493354)
(2.97738 4.81564e-06 0.00644081)
(2.97597 -5.92652e-06 0.00768585)
(2.975 1.03264e-05 0.00889178)
(2.97415 -2.23518e-06 0.00974539)
(2.9727 2.04891e-05 0.0107996)
(2.96742 -4.8616e-06 0.0112724)
(2.95825 0.000467361 0.0123313)
(2.92505 4.70142e-05 0.013082)
(2.85292 0.00361078 0.0181997)
(2.64487 0.00629274 0.0209824)
(1.9695 0.0242936 0.0418881)
(0.459837 0.0817923 0.0631583)
(-0.464367 0.155948 0.0635566)
(0.0743157 0.211534 0.0584288)
(0.465774 0.256044 0.0556079)
(0.524778 0.298581 0.0583068)
(0.449059 0.344802 0.0601464)
(0.37926 0.369191 0.0600474)
(0.289457 0.392897 0.0582806)
(0.153879 0.41916 0.0565696)
(0.0196677 0.436591 0.0535318)
(0.131978 0.379273 0.0480199)
(2.98855 -1.46224e-05 0.00143348)
(2.98291 1.17409e-06 0.00328694)
(2.97953 -1.1627e-05 0.00492991)
(2.97738 7.36177e-06 0.00644558)
(2.97597 -8.51285e-06 0.00768123)
(2.975 1.48877e-05 0.00889797)
(2.97415 -3.24137e-06 0.00973769)
(2.97265 2.74197e-05 0.0108157)
(2.96763 3.00935e-05 0.0112819)