/*--------------------------------*- C++ -*----------------------------------*\
  =========                 |
  \\      /  F ield         | OpenFOAM: The Open Source CFD Toolbox
   \\    /   O peration     | Website:  https://openfoam.org
    \\  /    A nd           | Version:  6
     \\/     M anipulation  |
\*---------------------------------------------------------------------------*/
FoamFile
{
    version     2.0;
    format      ascii;
    class       volScalarField;
    location    "37";
    object      p;
}
// * * * * * * * * * * * * * * * * * * * * * * * * * * * * * * * * * * * * * //

dimensions      [0 2 -2 0 0 0 0];

internalField   nonuniform List<scalar> 
918
(
0.581821
1.31589
0.00477689
0.581699
0.00553234
1.28371
-0.446337
0.744036
0.562909
-0.0622042
-0.00431189
0.559905
1.14076
0.90762
-1.13123
0.0435119
0.697877
-0.371063
0.56082
0.0274855
0.779008
0.56964
0.572112
0.562906
0.619962
0.866598
1.01735
0.0165765
-0.00050541
-0.000511019
0.0222185
0.0121054
0.0277025
1.16687
1.21877
1.24192
0.530019
0.358796
-0.33532
-0.388227
-0.370082
-0.471396
0.737095
0.73605
-0.138173
0.744429
0.752708
0.548796
0.562292
0.563122
0.564317
0.563162
0.564466
0.450478
-0.0662753
-0.0974462
-0.0446214
-0.0346757
0.0975856
-0.00514049
-0.00636133
-0.00118588
0.00039974
0.480553
0.556059
0.553327
0.564957
0.574254
1.25606
1.22982
1.25586
1.16642
1.184
1.1178
1.09074
0.929666
0.952834
0.890819
0.879496
-1.5977
-2.55713
-0.546212
-0.26216
0.000625927
0.037469
0.0492071
0.688415
0.68765
0.698036
0.707264
1.09414
-0.339855
-0.413004
0.561278
0.559806
0.569134
0.570041
0.564984
0.565001
0.0305281
0.0313555
0.0291338
0.0269251
0.0323392
0.770152
0.769236
0.562354
0.559819
0.583325
0.605685
0.594925
0.305642
0.627044
0.640397
0.722177
0.873909
0.861249
0.873405
0.992451
0.960221
1.04953
1.07123
0.00875443
0.00163806
0.0336619
0.0271651
0.0273004
0.525841
0.519533
0.546241
0.533566
0.536543
0.263007
0.110934
0.441263
0.465029
-0.25229
-0.295921
-0.403251
-0.401078
-0.510171
0.631688
0.731583
0.728749
-0.160313
-0.0817509
-0.208121
-0.0230596
-0.0797186
0.539924
0.546035
0.54218
0.557386
0.551592
0.554002
0.566387
0.563538
0.56515
0.510017
0.640501
0.368251
0.33895
-0.22272
-0.116293
-0.209335
-0.0231924
-0.0189584
0.11274
0.139808
0.0906247
0.0787242
-0.0108906
-0.00414308
-0.00748194
0.00560672
0.00984735
0.472365
0.4599
0.491409
0.498744
0.544728
0.545955
0.550052
0.548155
1.04179
1.06449
1.0707
1.0469
-3.54806
-6.20574
0.0909931
0.254263
0.00279717
0.0126399
0.001435
0.0274448
0.0127254
0.00607327
0.045633
0.0437447
0.0437883
0.0488787
0.679525
0.678064
1.06415
1.08345
1.03575
1.01122
0.550601
0.55255
0.557146
0.554066
0.0166134
0.0285951
0.023617
0.754469
0.763039
0.761868
0.266345
0.179895
0.354344
0.384337
0.669064
0.648719
0.664803
0.782064
0.821585
1.08817
1.11227
1.09639
1.10925
1.16009
1.18299
1.14798
0.505035
0.515563
0.510001
0.549414
0.547017
0.548068
0.543924
0.545193
0.543633
-0.00215561
-0.378411
0.518317
0.520069
0.506278
0.513251
0.717235
0.800447
0.709717
0.719541
0.717703
0.0230378
-0.0244505
0.298508
0.269507
0.413691
0.446797
0.429574
1.01702
0.977617
1.02541
1.00071
0.965583
0.988792
-0.315986
-2.09611
-1.08244
0.663189
0.462904
0.555827
0.0619776
0.0547317
0.0551861
1.0656
1.10584
0.709859
0.898062
0.852638
0.849144
0.877336
0.934043
0.865944
0.900153
0.932758
0.911155
0.587141
0.526514
0.540923
0.878343
0.93487
0.145424
0.0723919
0.0488261
0.160963
0.226286
0.194991
1.08682
0.992666
1.0594
0.560057
0.560973
0.0246791
0.035145
0.565025
0.564754
0.0206333
0.0312528
0.574667
-0.90603
0.157739
0.554362
0.54438
0.561009
-0.0287019
0.382916
-0.00576116
0.0922129
0.0561727
0.555934
0.492195
0.450499
0.051779
0.0317581
0.0288298
-0.163097
0.557802
0.556169
0.560392
0.561245
0.561985
0.0416758
0.0351718
0.0311323
0.0343684
0.0320059
0.031508
0.524985
0.543777
-0.134529
0.560644
0.562737
0.562459
0.556503
0.561525
0.560071
0.0456021
0.0328959
0.0376839
0.248915
0.379502
0.763475
0.842651
0.709711
0.539112
0.236989
0.695883
0.750656
0.673215
0.806924
0.722465
0.731901
0.221015
0.0824772
0.221795
0.157695
0.551347
0.550671
0.541934
0.538927
0.555789
0.55355
0.558623
0.555801
0.558936
0.560117
0.0104594
-0.0244464
-0.0377555
-0.0894328
0.349036
0.609008
0.276076
0.304148
0.204116
0.00293637
0.00045798
-0.00135028
7.32123e-05
0.0446953
0.0405957
0.0854093
0.0914482
0.0739226
0.0540235
0.0360586
0.0394222
0.0300443
0.549502
0.548762
0.554399
0.56259
0.501586
0.505286
0.4718
0.490599
0.477115
0.41835
0.448412
0.426036
0.0327059
0.0541633
0.0252349
0.032101
0.0321098
0.0466714
0.0480459
0.039733
0.0401163
0.0415479
0.0353644
0.0296527
-0.126245
-0.243024
1.01786
0.939141
0.169957
0.547744
0.553387
0.550565
0.555141
0.558332
0.55902
0.556657
0.553205
0.544031
0.545541
0.54219
0.543087
-0.0781771
-0.184409
-0.0145234
-0.0856425
0.184945
0.65909
0.38838
0.337039
0.322385
0.542005
0.750429
0.683201
0.758707
0.760659
-0.355822
0.0629451
-0.280899
0.268184
0.252065
0.785423
0.829317
0.848433
0.804191
0.759066
0.00577177
0.579554
-0.0067876
0.0387447
0.226261
0.119473
0.743355
0.700408
0.706288
0.721907
0.741023
0.717312
0.701799
0.691983
0.72182
0.727273
0.540319
0.278459
0.240711
0.191782
0.680927
0.576301
0.630663
0.552615
0.546671
0.549272
0.548111
0.529662
0.536841
0.53265
0.539188
0.542679
0.550476
0.550629
0.546626
0.548521
-0.0131203
-0.0130085
-0.0275481
-0.0763001
-0.0745915
-0.115248
-0.0448943
0.15745
0.102399
0.279325
0.407096
0.125758
-0.00751426
0.00785551
0.0615924
0.231935
0.227551
0.100649
0.213544
0.172146
0.16464
0.256352
0.279266
0.022479
0.0196003
0.0153891
0.0100973
0.0654376
0.154319
0.145753
0.0480366
0.037917
0.00310452
0.00513626
0.0382146
0.0272095
0.0319914
0.0496125
-0.0116609
0.0281348
0.044412
0.0503797
0.0410971
0.0443607
0.543024
0.545075
0.544885
0.553686
0.567623
0.582367
0.546272
0.522385
0.51355
0.516592
0.489896
0.499013
0.494149
0.509293
0.53073
0.539551
0.53724
0.53981
0.522401
0.524014
0.509552
0.514218
0.485232
0.467641
0.457752
0.0302895
0.0560726
0.0559936
0.0224037
0.0629594
0.0596491
0.0459581
0.0553964
0.0399257
0.039665
0.037509
0.0402778
0.0438948
-0.0290496
0.0504877
-0.132281
-0.181365
-0.231466
0.932929
1.0684
0.848107
0.625678
0.625647
0.873522
1.00262
0.596978
0.794264
0.815886
0.605239
0.89305
0.551657
0.551297
0.549168
0.548371
0.549375
0.0247756
0.123368
0.14569
0.195298
0.309462
0.416143
0.339879
0.230219
0.364852
0.389442
0.659611
0.668955
0.618022
0.639105
0.636059
0.459284
0.541006
0.582458
0.530811
0.602634
0.635207
0.584503
0.626006
0.546763
0.497355
0.49145
0.444559
0.479531
0.461386
0.435043
0.542749
0.519871
0.530561
0.520844
0.541875
0.56453
0.565542
0.589033
0.603617
0.523136
0.473003
0.489911
0.516583
0.473939
0.489742
0.510395
0.209625
0.114841
0.279421
-0.0507998
0.0416747
0.0782496
0.0374066
-0.0102688
0.296946
-0.347068
-0.289446
-0.974367
0.51966
0.911806
0.705009
0.718846
0.737991
0.717697
0.726799
0.742791
0.750532
0.673168
0.690841
0.694236
0.657335
0.689724
0.688361
0.69742
0.539922
0.449753
0.450799
0.386792
0.255159
0.29212
0.466964
0.405711
0.33795
0.331617
0.504764
0.373337
0.448757
0.505634
0.437148
0.367777
0.598553
0.644322
0.633551
0.605605
0.51331
0.538746
0.558858
0.6007
0.627864
0.65468
0.53815
0.544325
0.545293
0.542574
0.540719
0.543776
0.543928
0.546225
0.546767
0.549267
0.548566
0.00566743
0.014594
0.00141876
-0.0035977
0.0661396
0.0392167
0.0435881
0.00839722
0.0342245
0.0345493
0.0167965
0.00273425
0.0136236
0.0243047
0.118414
0.136527
0.145315
0.109336
0.302417
0.454967
0.521243
0.389066
0.261608
0.280947
0.353537
0.053013
0.0735851
0.0589502
0.106419
0.0849093
0.0172033
0.0135516
0.0219052
0.0226865
0.0323104
0.0227017
0.0263025
0.0331049
0.022145
0.0151936
0.0194246
0.523949
0.516941
0.520218
0.512913
0.511287
0.527484
0.531874
0.533125
0.538496
0.540885
0.53087
0.536705
0.540503
0.040416
0.0395307
0.0245684
0.0405326
0.0442415
0.0430912
0.044158
0.160882
0.0685768
0.102228
0.0340758
-0.0878541
-0.027998
0.531065
0.525754
0.519933
0.748866
0.589692
0.504654
0.600663
0.719025
0.304974
0.511439
0.342814
0.926421
0.824191
0.970275
0.593
0.281776
0.443132
0.456648
0.292856
0.418258
0.385996
0.261426
0.300129
0.321565
0.404833
0.287647
0.265487
0.024559
0.201636
0.315891
0.297506
0.427204
0.484664
0.29107
0.205878
0.155645
0.644513
0.662155
0.674204
0.646251
0.667109
0.604544
0.59457
0.612428
0.620491
0.615554
-0.613043
-0.201946
-1.40463
-0.81201
-0.361602
0.545875
0.535103
0.781224
0.687812
0.741779
0.725224
0.658411
0.623685
0.657962
0.68495
0.37716
0.479671
0.447777
0.451923
0.392267
0.322369
0.612882
0.614871
0.637675
0.661949
0.636493
0.66436
0.536682
0.536447
0.535449
0.531883
0.530373
0.533308
0.0721101
0.0466731
0.0863235
0.0824353
0.0639214
0.0629724
0.0413919
0.0338891
0.0357457
0.0373086
0.034977
0.0375837
0.20381
0.147544
0.0583089
0.10336
0.0338032
-0.0468511
-0.0493118
0.0392231
0.138224
0.1191
0.424469
0.701188
0.525817
0.69051
0.481704
0.5807
0.503556
0.477227
0.507042
0.404597
0.493966
0.0470345
-0.146881
-0.206199
0.844769
0.801129
0.588289
0.333541
0.222612
0.524357
0.557714
0.515712
0.551366
0.602089
0.589058
0.0328274
0.132934
0.194195
0.504215
0.303888
0.319557
0.312837
0.469126
0.446204
)
;

boundaryField
{
    wall-4
    {
        type            zeroGradient;
    }
    velocity-inlet-5
    {
        type            zeroGradient;
    }
    velocity-inlet-6
    {
        type            zeroGradient;
    }
    pressure-outlet-7
    {
        type            fixedValue;
        value           uniform 0;
    }
    wall-8
    {
        type            zeroGradient;
    }
    frontAndBackPlanes
    {
        type            empty;
    }
}


// ************************************************************************* //
