/*--------------------------------*- C++ -*----------------------------------*\
  =========                 |
  \\      /  F ield         | OpenFOAM: The Open Source CFD Toolbox
   \\    /   O peration     | Website:  https://openfoam.org
    \\  /    A nd           | Version:  6
     \\/     M anipulation  |
\*---------------------------------------------------------------------------*/
FoamFile
{
    version     2.0;
    format      ascii;
    class       surfaceScalarField;
    location    "37";
    object      phi;
}
// * * * * * * * * * * * * * * * * * * * * * * * * * * * * * * * * * * * * * //

dimensions      [0 3 -1 0 0 0 0];

internalField   nonuniform List<scalar> 
1300
(
3.75095
5.62643
-3.07006
3.75095
-7.03021
5.62643
-4.31874
4.31874
-0.925513
0.925513
1.87645
1.8745
-2.68441
2.68441
-2.07678
2.07678
-2.55629
2.55629
-5.24794
5.24794
-5.0698
5.0698
4.71895
-4.71895
-6.09659
6.09659
-1.25268
1.25268
-3.71063
3.71063
3.17315
-3.17315
-2.2623
2.2623
-0.262855
0.262855
-0.554116
4.30507
3.19684
3.19684
-2.01854
2.01854
-4.87269
4.87269
6.22254
-6.22254
4.82131
-4.82131
-1.75125
-2.10308
1.4269
-11.1235
-5.60331
-5.60331
-8.44102
8.44102
-2.81459
2.81184
2.94484
-2.94484
-1.72854
1.72854
-4.30797
-0.0107694
-4.30797
4.29842
0.020319
4.29842
-1.01686
0.0913512
-1.01686
3.84635
-3.84635
0.796625
0.128887
0.796625
3.06676
-3.06676
-1.87687
3.75332
1.87409
-1.87203
6.1771
-1.87893
3.75343
-6.02926
6.02926
-2.90419
0.219779
-2.90419
2.50654
0.177869
2.50654
-6.80119
6.80119
-2.14316
0.0663872
-2.14316
2.06764
0.00914175
2.06764
2.87605
-2.87605
-2.65067
0.0943822
-2.65067
2.42963
0.126654
2.42963
0.353478
5.27295
-5.97991
8.79175
-5.27295
0.0250156
5.21023
0.0377108
5.21023
-5.10525
0.0354495
-5.10525
5.01207
0.0577355
5.01207
4.81358
-0.0946325
4.81358
-4.83314
0.114198
-4.83314
-3.77501
-4.41793
-6.27633
0.179742
-6.27633
-1.24692
-0.00575879
-1.24692
1.21255
0.0401276
1.21255
-3.6548
3.6548
-4.02784
0.317209
-4.02784
3.12803
0.0451198
3.12803
1.86812
1.88283
5.61907
-5.61907
2.44592
-2.2475
-0.0147937
-2.2475
-2.32015
-2.50117
2.32015
-0.05785
-0.508788
0.245933
-0.508788
3.15693
0.0399026
3.15693
2.27432
0.155312
-2.27432
0.255777
3.25461
-3.25461
1.3452
0.673348
1.3452
-5.55952
5.55952
4.96071
0.0513616
-4.96071
0.0880118
6.15768
0.064863
6.15768
-6.20763
-0.014909
-6.20763
2.60496
-4.70804
-2.43125
5.86398
0.232602
-5.86398
0.260675
2.91508
0.0297652
2.91508
-2.92117
2.92117
-2.98265
0.0378085
-2.98265
-2.1572
0.428661
-2.1572
1.40773
0.320808
1.40773
-4.17998
-0.127996
-4.17998
-4.17694
0.149107
4.17694
0.12148
1.06275
-1.06275
-1.08994
0.0730735
-1.08994
-3.98585
-0.194123
3.98585
-0.139507
-3.77056
-0.0757882
-3.77056
-3.02085
0.0382017
3.02085
0.0459075
3.1118
0.0451331
-3.1118
0.0450416
-1.87095
3.75379
-1.88
3.75408
-5.64965
-0.379611
-5.64965
6.32673
-0.297466
6.32673
3.28529
0.42534
-3.28529
0.381098
2.36275
0.143792
2.36275
-6.7854
-0.0157929
-6.7854
6.79443
0.00675695
6.79443
2.25735
0.105398
-2.25735
0.114186
2.11144
-0.0438069
2.11144
2.89828
-0.0222344
2.89828
-2.87329
-0.00275927
-2.87329
2.79855
-2.79855
2.72927
0.0692841
-2.72927
0.0785989
-11.124
11.1091
-0.0361795
-11.0879
5.17405
5.17405
4.26783
0.545748
4.26783
-5.02194
0.188801
-5.02194
3.1564
-5.58765
3.25282
-7.02784
4.9222
-16.0457
4.3016
-8.71953
6.60295
-6.60295
6.44479
0.158164
-6.44479
0.168459
-1.27679
0.0298709
-1.27679
-3.04098
-0.613814
-3.04098
4.29705
-0.642256
4.29705
-3.0285
3.0285
-3.07696
0.0484528
3.07696
0.0510764
2.1789
-0.067458
-2.1789
-0.0686014
0.650461
0.146164
-0.650461
0.141674
3.45521
-0.200597
3.45521
-3.06688
-0.187732
-3.06688
-1.3077
0.0309132
1.3077
0.037492
-5.80786
0.248333
-5.80786
-11.1816
0.0937246
-11.1439
-6.11391
-6.11391
2.32711
11.1189
-2.89147
0.018181
2.89147
0.0236084
2.9763
0.0522002
-2.9763
0.055135
-2.86187
0.0633197
2.86187
0.0592979
-2.53051
0.373307
-2.53051
-1.01105
1.01105
-1.1678
0.156751
1.1678
0.239927
1.34725
-0.284501
1.34725
1.16307
0.0494835
-1.16307
0.0731304
-3.72348
-0.0470736
-3.72348
6.55932
-0.23259
6.55932
-2.9469
-0.119983
2.9469
-0.0486172
-0.0348047
11.1439
-5.13924
0.0339882
5.13924
-11.2088
11.2428
-3.24184
0.711329
3.24184
1.02599
5.28687
0.272653
-5.28687
0.264925
6.72438
0.0700511
-6.72438
0.121433
-2.55224
-0.488743
-2.55224
-5.04465
-0.605003
5.04465
-0.747594
-11.4821
-0.203682
11.6858
-11.4244
6.01154
0.146142
-6.01154
11.3889
-0.96222
-0.100531
0.96222
0.0488321
1.68067
-0.333421
1.68067
3.65111
-0.1959
-3.65111
-0.0723739
-6.69438
-0.0910166
6.69438
-0.135063
-2.10832
-0.443916
2.10832
-0.427651
-4.26715
4.30705
1.90995
-2.4489
-2.25915
-4.95006
1.85475
1.89904
4.30067
-10.1333
-5.91238
-9.8726
7.21406
-6.94913
-9.36836
9.27373
7.68142
-7.7572
-5.77832
5.8294
6.48396
-6.43805
1.87912
1.8742
7.97742
-7.75764
-15.7417
15.3621
7.56393
-7.49755
15.8812
-15.897
-17.9158
17.9859
-5.70864
5.80302
-6.72961
6.72685
-6.95676
6.90814
-3.31644
-3.7114
13.1216
-12.9418
8.3
-8.31479
-8.61357
8.93078
3.38455
0.922502
3.42968
-1.88206
3.76119
-1.87136
3.78131
2.69029
-6.00673
2.89736
-5.15651
3.9485
4.3515
-3.89065
-1.05941
-5.92369
5.95346
-5.81485
5.87415
9.01022
-9.02099
-1.88508
3.75928
-1.869
3.76805
-3.42361
-2.35471
3.37849
0.922179
8.00649
5.11506
-8.2391
-1.6335
-7.87913
7.68323
-8.16198
7.97425
-0.439914
5.83694
-5.39702
4.43278
-1.65146
7.4884
5.5626
5.7514
5.86016
-5.5875
1.08898
-6.486
-6.39799
-2.56649
2.63956
2.51636
-2.38747
5.99507
1.68635
5.85556
-5.66416
-2.09305
-5.71123
3.82068
2.00872
3.86913
4.08071
2.40325
4.11891
3.02989
-3.03608
0.00618921
-3.05871
6.0886
0.723198
-5.41342
-4.49124
5.00601
2.97141
5.18388
-5.55911
-2.19853
-5.17801
-9.59665
-6.14503
-10.2017
10.1427
5.21934
9.84526
-12.0252
11.8901
4.84107
2.72287
4.85021
-4.97713
-2.52042
-4.86295
11.6864
-2.60521
-9.08114
-10.3567
-7.55915
10.3499
5.53132
10.9798
7.00612
11.1012
4.43736
7.24899
-9.96868
2.40953
-3.86595
-1.8427
-3.78735
3.67091
2.13212
3.79756
-4.21462
-2.51499
-4.19644
-4.28971
-2.66705
4.31194
2.41491
-4.40053
-3.76145
4.52052
2.38762
4.23854
-10.1509
4.481
-8.1924
-9.22735
-3.71447
-9.05889
3.61362
2.71134
-6.32496
-2.39311
8.60903
-4.25753
7.54962
-5.04837
-3.26643
-5.11697
-6.90796
-1.70561
-6.75885
-8.9413
8.45255
-9.23611
8.59386
12.664
-5.70311
-6.96086
-3.96681
-2.47124
3.92177
-0.49209
-3.71058
3.71677
0.0506056
3.83192
4.75442
4.26233
-3.88398
-1.93087
-3.82885
3.82767
2.04648
3.89099
6.76823
2.24199
6.78855
-6.46225
-2.55874
-6.59025
9.13716
-8.7085
2.87662
-2.84571
5.29971
2.67454
-5.09911
-2.78001
6.23256
-3.1544
-3.07816
-12.3602
10.8607
1.49955
-4.8718
-0.439019
-0.176165
-5.58965
-3.77871
5.47545
0.275944
11.1366
7.35789
-5.51501
5.76334
6.17079
6.22215
-0.175835
5.92041
-5.20908
5.34244
-2.51283
-2.8296
5.33022
-5.52435
-1.26002
-5.39491
4.13489
0.331216
1.75598
-1.51005
-1.9905
-0.575988
-1.91737
1.48755
1.0288
1.63372
0.931279
1.70828
-2.97393
0.587833
2.3861
-2.04265
-1.79963
-3.64844
-1.07941
4.72785
5.5739
2.10933
-5.50152
-0.209708
2.70787
-2.66774
-0.771141
-2.8773
2.12
-2.89114
-3.55355
-1.85205
5.4056
-3.36967
-0.459171
3.31747
0.551654
-3.82662
-2.09707
3.78881
0.330095
-3.12675
6.19068
-3.06393
-5.05763
2.52902
3.55958
4.53774
-4.79089
2.44799
2.3429
-1.23131
4.27293
0.910955
4.41672
-6.94521
4.74669
5.70023
3.23055
-6.12557
0.947559
-5.99765
8.37414
-7.24508
-1.12906
3.8873
4.48684
7.10334
5.56063
-5.7114
12.8147
-1.06065
-6.18442
7.05831
-3.82776
4.77789
-8.60565
-10.3385
4.1541
-9.25962
11.0592
-1.79954
-3.62594
-8.39926
12.8856
-1.21341
-11.6722
8.63185
-4.21622
-4.28762
8.50385
-6.82144
6.80804
-1.96542
-4.84262
-10.1794
-5.71765
10.2704
1.61974
-9.87885
12.2884
-2.62986
4.16935
0.68086
4.12554
3.27631
-5.3962
2.11988
3.54513
-5.51055
2.07462
-7.47082
-6.82221
12.1504
-5.32821
-10.5367
-9.62641
-0.91027
2.5275
9.76088
-9.53363
7.42594
2.10768
3.30538
0.585608
-3.37466
-0.412683
0.255379
4.51806
-4.77344
4.05294
4.20825
3.28189
1.23617
3.84488
2.10857
-3.86849
-0.327945
-4.15896
1.49191
-1.74406
-3.67974
5.17165
-4.06145
0.381705
-2.73761
-3.50231
6.23992
-4.58031
3.03924
3.15144
5.08572
-4.91393
1.41162
-2.39678
-2.51715
2.64983
-4.39388
1.97596
3.1957
4.36358
0.602131
6.01569
6.13473
-8.72703
0.534636
11.2498
-9.61629
2.52043
8.58076
-9.94637
0.319962
-8.73892
1.06363
-5.32116
-5.26132
5.12841
-6.83402
-3.47725
6.21058
0.57797
-6.33206
-0.426796
-6.06738
-2.87391
-6.5113
-3.06768
-6.16843
-8.77908
-1.67031
-7.10877
6.78225
-6.70525
-3.49641
7.45284
1.14102
-7.47042
7.36989
-7.53583
7.20241
0.0944279
3.62234
4.35676
1.88552
-2.39103
4.27656
-5.05752
7.29951
-8.62058
3.56306
4.08179
-6.64053
-4.53879
5.06801
4.06915
5.38882
8.97831
-10.4931
1.51482
-10.7562
12.0855
-1.32928
-16.5561
5.79992
-7.57784
2.58677
0.289854
2.61664
0.629636
2.45664
-3.08628
-2.21608
-2.17858
-2.36149
-3.4907
5.85219
1.14771
-3.41099
2.26328
-3.55197
4.69968
0.0302828
-3.44127
5.22642
-2.76977
5.51627
-3.52169
1.99458
3.46278
5.80276
-2.33998
4.4097
-1.73515
1.86102
-4.20099
-1.62968
-2.96434
5.09645
-3.27558
3.65729
-0.323012
3.9803
-4.07338
0.918985
-0.791497
3.41675
3.67253
4.30475
-3.06858
2.9744
-4.70955
-1.22659
-4.10742
-0.911724
-0.235984
-3.82421
4.06019
6.06438
-6.30036
-5.31689
9.57353
-4.25664
7.73167
-5.46647
-2.2652
-4.31208
-4.39642
3.93878
1.98164
9.71331
0.176014
-5.64249
-5.03307
-4.00708
3.21534
2.12709
-1.92029
3.41984
2.09646
-0.340475
0.517692
1.11603
1.86768
-1.34999
0.252349
1.61534
-1.2577
1.94343
0.764444
-1.99291
0.0755406
-1.30535
3.42535
1.08075
-2.10955
0.759557
0.996556
-3.50939
4.8234
-2.55559
-2.26781
5.81995
1.16198
-3.71756
4.23294
-3.90172
2.38432
-3.46373
-1.33325
-5.23496
-3.54862
-2.55551
4.81879
-3.29667
5.406
1.26524
-5.19629
6.46153
-3.57568
1.72363
-3.06172
3.82617
-1.12401
-1.93772
2.91998
2.48562
-3.03553
0.158237
-0.115554
2.35808
-2.47363
-0.533063
-2.57572
-4.57426
4.90435
-2.10555
4.55354
2.171
-1.91549
6.46904
1.80995
-3.72544
-3.24768
-3.70685
-1.38254
3.1552
-0.566087
-4.29686
-5.40871
4.19146
0.225258
-6.79665
7.70842
-0.911763
-3.82525
-0.921438
4.80874
-5.98848
0.477929
-3.91385
3.79456
4.70552
4.93078
-11.4439
-0.228277
-6.22454
1.11482
-7.33936
5.60166
-3.57094
7.72504
-10.3848
6.88841
-9.2438
6.59598
-0.743377
6.23712
-4.11724
2.84402
-8.56166
-6.94192
5.46744
-2.74458
6.1483
-3.12941
9.27771
-5.75927
5.23576
4.04195
-1.02634
-4.09063
-5.20322
4.17688
0.0325429
4.15808
4.98131
-2.87274
4.65337
2.2555
-4.65228
-2.13838
-6.4911
1.83881
-3.33965
-1.91819
3.757
3.16753
3.75314
1.23985
-3.34046
7.32678
-8.23705
-1.99857
-3.26275
5.18038
-1.0035
3.40721
-6.66996
-1.91395
4.82617
-0.754899
-4.07127
0.876948
-4.35419
1.65783
-6.01203
5.17619
-5.60298
2.24283
-9.82067
-5.22759
-5.17876
-2.27277
-5.26306
-7.62225
5.34947
-1.82233
5.54756
-8.601
7.8461
-3.48451
8.83398
-5.45919
-1.0521
5.88685
1.31557
10.1495
0.0910653
-4.62986
-1.89979
3.83135
-1.93156
1.31555
-3.73314
0.0982104
2.46243
3.35752
-6.59732
-0.0432108
-4.67307
-3.91413
7.98328
5.6594
11.7238
1.23065
9.18456
-1.20128
10.4152
4.18754
4.42747
-3.03307
4.54789
1.02712
4.59018
-0.822721
2.8173
1.79392
1.78816
0.879583
2.30152
1.37101
3.22051
0.134228
-2.04436
4.65702
-8.6641
-0.985465
-8.11835
1.15538
5.43752
-4.28214
3.02214
-0.895049
1.09059
0.0314602
-1.61228
1.58082
-2.79814
-1.95275
-0.337416
-1.60487
2.36442
1.82048
-2.02701
-0.771136
0.278377
-3.82699
3.18535
-3.02712
-0.541492
5.92004
-2.77816
0.304528
-1.05453
-2.27119
-2.84718
2.77164
6.17545
0.293591
3.11152
5.19794
3.10087
0.228131
3.90352
-5.70306
-3.5673
-5.93134
-0.329674
4.47906
1.73981
8.02106
5.78177
4.77826
-1.8917
-10.1287
6.54186
-1.99397
5.21258
-1.14132
-4.87071
5.04443
2.25508
-5.6224
0.0194181
-4.85129
-6.84526
-0.492624
8.33873
-9.65693
8.60482
5.73091
1.37787
-4.4367
-0.742055
4.27995
0.147516
10.5627
-0.90993
-7.18135
8.09128
-4.52759
3.54212
0.747718
2.67212
2.32853
1.43349
-5.74787
-10.03
-1.89382
-1.61557
-4.16163
0.56622
-2.3867
6.10876
-2.56664
3.84356
5.52464
6.61523
-2.07984
-4.22052
6.33648
-2.49292
4.12231
)
;

boundaryField
{
    wall-4
    {
        type            calculated;
        value           uniform 0;
    }
    velocity-inlet-5
    {
        type            calculated;
        value           uniform -3.75095;
    }
    velocity-inlet-6
    {
        type            calculated;
        value           uniform -5.62643;
    }
    pressure-outlet-7
    {
        type            calculated;
        value           nonuniform List<scalar> 8(3.07006 7.03021 3.85434 9.69656 8.19294 5.03621 6.40922 9.22381);
    }
    wall-8
    {
        type            calculated;
        value           uniform 0;
    }
    frontAndBackPlanes
    {
        type            empty;
        value           nonuniform 0();
    }
}


// ************************************************************************* //
