/*--------------------------------*- C++ -*----------------------------------*\
  =========                 |
  \\      /  F ield         | OpenFOAM: The Open Source CFD Toolbox
   \\    /   O peration     | Website:  https://openfoam.org
    \\  /    A nd           | Version:  6
     \\/     M anipulation  |
\*---------------------------------------------------------------------------*/
FoamFile
{
    version     2.0;
    format      ascii;
    class       volVectorField;
    location    "37";
    object      U;
}
// * * * * * * * * * * * * * * * * * * * * * * * * * * * * * * * * * * * * * //

dimensions      [0 1 -1 0 0 0 0];

internalField   nonuniform List<vector> 
918
(
(0.985047 -0.000707414 0)
(0.00533537 2.96625 0)
(-0.0165674 0.807886 0)
(0.979573 0.00195833 0)
(-0.0766817 1.88228 -1.32169e-20)
(-0.00708768 2.94855 -2.75552e-18)
(0.818083 1.13988 3.91306e-19)
(0.320396 0.11828 -1.65295e-20)
(0.999919 -0.000246106 0)
(0.0773647 0.755995 0)
(-0.00530825 0.535035 0)
(0.736294 -0.0150532 0)
(0.0102218 2.93153 0)
(0.00325777 2.79462 0)
(-0.000738613 3.19205 7.87498e-19)
(-0.00832689 1.84159 -3.80693e-20)
(0.377957 0.0297021 1.08826e-18)
(0.238178 1.15058 3.02144e-19)
(0.964502 0.00666981 0)
(0.00109935 0.61017 0)
(0.0927202 0.186947 -7.80182e-19)
(1.00184 -0.00456576 0)
(0.999853 -0.00893559 0)
(0.97515 -0.0060648 0)
(0.599799 -0.0356173 0)
(0.022976 2.6436 0)
(-0.0124244 2.91205 1.02133e-18)
(-0.00813477 0.861671 0)
(-0.019631 1.03323 0)
(-0.00608556 0.835398 0)
(-0.085771 2.57155 0)
(-0.059623 1.99395 1.05171e-20)
(-0.0286561 1.77049 0)
(-0.0221519 2.98761 -9.98561e-23)
(-0.0164999 3.00549 2.14117e-18)
(0.00230445 3.00059 0)
(0.871036 -0.00938475 0)
(0.374686 0.917501 1.92326e-19)
(0.820057 1.15047 -4.49205e-19)
(0.955477 1.00406 4.81779e-19)
(0.685215 1.23472 -8.94491e-20)
(0.6965 1.20717 5.20363e-19)
(0.352002 0.214679 1.61259e-20)
(0.33399 0.10025 0)
(1.13358 0.513172 0)
(0.31763 0.217033 7.35343e-20)
(0.291425 0.137785 -7.63083e-20)
(0.920363 -0.0069774 0)
(1.00025 7.87278e-05 0)
(0.999909 0.000313798 0)
(1.00369 -0.00729874 0)
(1.00091 -0.000952681 0)
(1.0001 -2.01503e-05 0)
(0.0988929 1.82612 -8.55886e-19)
(0.0373076 0.920965 0)
(0.12169 0.829901 0)
(0.0110507 0.879392 0)
(0.0490699 0.690628 0)
(0.0163509 2.01037 0)
(0.00674473 0.746096 0)
(0.0137794 0.561827 0)
(-0.00102718 0.739676 0)
(-0.0153853 0.537183 0)
(0.839152 -0.0149217 0)
(0.845137 0.0315736 0)
(0.767816 -0.00432534 0)
(0.817918 0.042414 0)
(0.699565 -0.0190551 0)
(0.0139532 3.0002 1.02509e-18)
(0.0111801 3.00598 0)
(0.00626392 3.00388 0)
(0.0119074 2.99711 1.16784e-23)
(0.00828336 2.95872 -1.52353e-18)
(0.0122213 2.9829 0)
(0.00900148 2.90471 0)
(0.0208188 2.93164 2.42105e-24)
(0.00414251 2.82416 0)
(0.0255197 2.9189 0)
(-0.00051202 2.74403 0)
(0.310141 3.59227 0)
(-0.122759 3.67564 0)
(0.152646 3.28316 -7.32936e-19)
(0.00622057 3.01579 0)
(-0.0409529 2.19017 0)
(-0.0145199 2.1208 3.75456e-20)
(-0.00167065 1.86209 -4.24864e-20)
(0.45631 0.134749 -3.76574e-19)
(0.378845 0.000343598 -3.63477e-19)
(0.436797 0.162179 -1.13078e-18)
(0.365267 0.0510106 -7.45349e-19)
(0.254463 0.989019 0)
(0.339216 1.27832 -3.22496e-19)
(0.414436 1.18024 5.33245e-19)
(0.987969 0.00807092 0)
(0.943449 0.0057892 0)
(1.00029 0.000674737 0)
(1.00254 0.00907174 0)
(1.00315 0.00891561 -2.87022e-18)
(0.992126 0.0095103 2.16891e-18)
(-0.0124286 0.783215 0)
(-0.0233703 0.602136 0)
(0.0145457 0.886411 0)
(-0.023034 0.798809 0)
(-0.0137525 0.618806 0)
(0.123474 0.198445 2.41509e-19)
(0.174144 0.171882 0)
(0.993605 -0.00769734 0)
(0.953976 -0.00647042 0)
(0.768471 0.0502995 0)
(0.702978 0.0549917 0)
(0.659177 -0.0247732 0)
(0.966277 -0.0063795 0)
(0.631832 0.0598378 0)
(0.459053 -0.0367836 1.58995e-18)
(-0.0409911 2.86092 8.34502e-19)
(0.0337902 2.91378 0)
(0.042483 2.89197 0)
(0.00353889 2.7014 0)
(-0.00856088 2.98671 9.80719e-19)
(-0.0141295 2.89481 0)
(-0.0109127 2.99174 -3.01242e-18)
(-0.0117051 2.92971 1.0241e-18)
(0.0551627 1.26928 0)
(0.0293165 1.34758 0)
(-0.0283127 2.06094 -1.0657e-21)
(-0.0359227 2.00261 0)
(-0.00560466 1.82482 0)
(0.93809 -0.00561639 0)
(0.855882 -0.0104041 0)
(0.863799 0.00618508 0)
(0.949122 -0.00639362 0)
(0.883053 -0.00792029 0)
(0.49933 1.11889 -2.42539e-19)
(0.547226 1.1905 0)
(0.335438 0.849757 3.58433e-20)
(0.279433 0.71472 0)
(0.915909 1.04063 -1.32384e-19)
(1.02923 0.840606 2.56141e-19)
(0.401556 1.34046 0)
(0.547494 1.29477 0)
(0.598044 1.22798 0)
(0.0935692 0.171906 -3.12479e-19)
(0.369491 0.208241 0)
(0.331454 0.0948362 2.11335e-19)
(0.991765 0.896599 0)
(1.05563 0.739067 0)
(1.08522 0.672632 -1.82908e-19)
(1.11385 0.581301 0)
(1.16838 0.370247 4.45926e-20)
(0.957164 -0.00723782 0)
(0.962554 -0.0082103 0)
(0.900536 -0.00726319 0)
(0.98388 -0.00814868 0)
(0.974334 -0.00809379 0)
(0.936421 -0.00651981 0)
(1.0002 0.00250401 0)
(1.00076 0.00125003 0)
(0.999999 0.000777127 0)
(0.0395157 2.07524 4.72101e-19)
(0.147221 1.7705 0)
(0.0103313 2.19291 7.38309e-19)
(0.0606563 1.87796 -6.30374e-19)
(0.173018 1.13248 -2.46693e-19)
(0.0561861 0.997008 0)
(0.122384 0.996541 0)
(0.0126065 0.831497 0)
(0.0308965 0.6445 0)
(-0.00835785 2.23397 -1.44407e-21)
(0.0246433 2.00404 0)
(-0.00762886 2.21955 -7.37568e-20)
(0.0182318 2.00668 1.34712e-19)
(0.00694525 0.799007 0)
(0.0162513 0.770685 0)
(0.0222801 0.606323 0)
(-0.0108135 0.747255 0)
(-0.00897391 0.547238 0)
(0.936179 0.0131899 0)
(0.850188 -0.0113557 0)
(0.926288 0.00433221 0)
(0.843184 -0.0120933 0)
(0.812718 0.00073799 0)
(0.901144 0.0208966 0)
(0.877115 0.0255915 0)
(0.789228 -0.0016663 0)
(0.010463 3.06734 -9.64362e-21)
(0.0148371 3.0594 0)
(0.0124136 2.97035 0)
(0.00757592 2.87662 0)
(0.901005 3.99078 0)
(1.19656 3.38416 9.37707e-19)
(0.0832205 3.09699 0)
(-0.0155052 2.92171 0)
(0.0864582 1.4696 0)
(0.0309697 1.85314 0)
(0.0241832 1.71597 0)
(-0.0541063 2.52622 1.91719e-20)
(-0.046088 2.35447 0)
(-0.0895753 2.46166 0)
(0.0175546 1.95851 4.82617e-21)
(-0.018259 2.17991 3.90718e-20)
(-0.0137049 2.15798 4.31217e-20)
(0.011008 1.9045 0)
(0.472292 0.110646 5.69124e-19)
(0.385745 -0.0116878 -5.59173e-19)
(0.233074 1.57707 0)
(0.281472 0.725152 -3.39548e-19)
(0.177651 1.67634 -1.1274e-18)
(0.242294 1.19128 1.1282e-18)
(0.901977 0.00626085 0)
(0.967239 0.0104374 0)
(0.975137 0.00973075 0)
(0.923174 0.00608386 0)
(-0.0309057 0.76391 0)
(-0.026253 0.776142 0)
(-0.0197577 0.57079 0)
(0.273954 0.213931 6.76344e-19)
(0.23013 0.199912 -8.02242e-19)
(0.241834 0.14998 0)
(1.08757 0.0849477 2.99202e-20)
(1.07117 0.0384612 0)
(1.00729 0.0412767 0)
(0.905299 -0.00398903 0)
(0.497891 0.0864799 0)
(0.550126 0.061647 -2.54898e-18)
(0.405467 -0.0195093 9.60464e-19)
(0.0110438 2.97712 8.7028e-19)
(-0.0330955 2.8619 4.59741e-20)
(0.00832229 3.05296 -2.02911e-20)
(0.0158022 3.04341 7.58584e-19)
(-0.0118501 2.99997 3.3617e-20)
(-0.0122814 2.95234 -1.3556e-22)
(-0.0150627 3.01327 -6.2515e-19)
(0.0143657 3.02657 4.39874e-19)
(0.00757289 3.03481 -7.157e-19)
(0.933094 0.0016338 0)
(0.938521 -0.00180179 0)
(0.846069 -0.010413 0)
(0.956685 0.0113556 0)
(0.943058 0.0125982 0)
(0.88205 0.00602648 0)
(0.917549 0.016884 0)
(0.926305 0.0143756 0)
(0.83849 0.00353216 0)
(0.673909 1.42107 -1.58368e-20)
(0.692791 1.53275 0)
(0.123949 0.309671 7.42091e-20)
(0.196923 0.631475 5.88915e-19)
(0.233229 0.6845 -3.4347e-19)
(0.218143 0.515624 6.8179e-19)
(0.323539 0.797357 1.64786e-18)
(0.120907 0.222426 3.91857e-19)
(0.414208 0.18152 7.92947e-19)
(0.397319 0.202807 2.04745e-19)
(0.352511 0.0700244 3.93743e-19)
(1.15926 0.433818 2.52586e-20)
(1.18393 0.23712 2.18712e-20)
(0.000614877 2.23668 2.96278e-19)
(0.0477837 1.93825 0)
(0.965404 0.0312439 0)
(0.941791 0.0181963 0)
(0.86408 -0.016416 0)
(0.0121842 3.07437 0)
(0.0167809 2.94394 1.35454e-18)
(0.0139759 2.95677 0)
(0.00584949 2.85011 -1.34409e-18)
(0.00965333 3.08983 3.31811e-19)
(0.0116053 3.08387 0)
(0.713984 1.83126 -1.64491e-19)
(1.24104 2.63983 5.57492e-19)
(0.699067 2.01032 -1.3839e-18)
(0.0227315 2.97635 -7.68745e-19)
(0.0416995 3.0004 0)
(-0.0379586 2.8802 0)
(-0.0112052 2.20419 -1.00116e-20)
(-0.0176209 2.18799 -9.24574e-20)
(0.0156083 1.98945 -3.14703e-21)
(0.266894 1.37596 1.0747e-18)
(0.263984 0.518592 -7.35031e-19)
(0.069268 1.9918 8.10634e-19)
(0.122215 1.86102 -9.68449e-19)
(0.208319 1.51652 1.02789e-19)
(0.0046006 3.12006 -2.08818e-18)
(0.0181543 3.11947 2.25159e-18)
(-0.00489823 2.98083 9.23229e-19)
(-0.000368494 2.97513 -8.92741e-19)
(-0.0178302 2.87826 -9.40333e-19)
(0.0124106 3.10016 -2.47296e-18)
(0.00535942 3.10663 2.42936e-18)
(0.245015 0.669048 0)
(0.199356 0.636719 -1.2443e-18)
(0.0643959 0.209323 5.46804e-19)
(0.336201 0.912762 1.16266e-18)
(0.186935 0.263791 -1.79128e-18)
(1.1714 0.169867 7.40991e-20)
(1.18345 0.295494 0)
(1.16608 0.117125 -2.16684e-20)
(-0.00873379 2.2468 -2.1373e-21)
(-0.00404046 2.23983 0)
(0.0364518 1.9748 0)
(0.310378 1.3016 -3.86786e-19)
(0.348408 1.13913 -8.31831e-19)
(0.215099 0.370585 1.48545e-18)
(1.00642 -0.00975039 0)
(1.00773 -0.00781475 5.28166e-19)
(0.039993 1.25045 0)
(0.000649543 1.16297 0)
(1.00245 0.00331806 1.39936e-21)
(1.00327 0.00796987 1.0831e-18)
(-0.0567572 2.53251 -2.39681e-20)
(-0.0442697 2.55873 0)
(0.0431858 3.17422 5.63275e-19)
(0.379672 3.55459 0)
(1.12052 0.68408 -8.22318e-20)
(1.01208 0.0108527 -2.7484e-21)
(1.02075 -0.00912223 0)
(1.00161 0.000205649 1.34987e-22)
(0.106091 1.36094 0)
(0.145351 2.59681 0)
(0.0299435 1.32061 0)
(-0.0046248 2.64029 6.8467e-20)
(-0.0242808 2.58954 5.0482e-20)
(0.999973 0.0260804 2.57361e-21)
(1.06147 0.00470574 0)
(1.09796 0.0259916 0)
(0.00985904 1.87596 0)
(-0.0337721 2.582 0)
(0.0219213 1.26822 0)
(0.283566 1.48178 -1.26943e-19)
(1.01145 -0.00910191 0)
(1.0097 -0.0130403 0)
(1.00228 0.000910319 6.76965e-19)
(1.00549 -0.00496894 -7.9698e-19)
(1.00114 -0.000890104 0)
(0.0484289 1.56519 0)
(0.0575998 1.35505 0)
(0.0500402 1.49499 0)
(0.0305723 1.25284 0)
(0.00825973 1.17858 0)
(-0.0109851 1.13136 0)
(1.03498 -0.004777 0)
(1.01966 0.0149717 -9.51533e-22)
(0.782775 1.30398 2.28045e-19)
(1.00234 0.000353237 -6.75499e-19)
(1.00344 0.00455811 8.06044e-19)
(1.00131 0.00212699 0)
(1.01138 0.00973194 6.73301e-19)
(1.00706 0.00752346 -8.18624e-19)
(1.00744 0.0113443 0)
(-0.0385898 2.6002 0)
(-0.0400974 2.57355 4.24911e-20)
(-0.0388667 2.58795 -2.82024e-20)
(1.22493 0.260569 6.52904e-19)
(1.15685 0.083995 0)
(0.0470808 3.09034 -1.08584e-18)
(0.0513737 2.87053 -7.66373e-20)
(0.106114 3.20159 1.45431e-18)
(0.124415 3.21435 -3.27135e-19)
(0.14691 3.26244 0)
(0.0236401 3.13786 3.0026e-19)
(0.0630826 3.16212 1.08183e-18)
(0.0635908 3.17942 -5.60969e-19)
(0.0275564 3.12919 0)
(0.651083 0.30567 0)
(0.597662 0.351532 0)
(1.10077 0.71488 2.12106e-19)
(1.06756 0.85069 -2.26653e-19)
(1.16268 0.60415 0)
(1.19461 0.532595 0)
(1.01589 0.0120036 -1.25176e-18)
(1.01479 0.0127771 1.57413e-18)
(1.02549 -0.00889171 0)
(1.02384 -0.010419 0)
(1.00659 0.00281305 0)
(1.01079 0.00409339 0)
(1.00445 0.00212262 0)
(1.00957 0.00654649 0)
(1.00704 0.00515372 0)
(1.00453 0.00533212 0)
(0.093971 1.3575 0)
(0.0754365 1.34226 0)
(0.132024 1.40422 0)
(0.128064 1.4111 0)
(0.152997 2.61981 0)
(0.194501 2.6842 -4.58515e-19)
(0.109505 2.68127 0)
(0.0851433 2.68284 2.12828e-19)
(0.0290891 2.68926 -2.292e-19)
(0.023236 1.32321 0)
(0.0192975 1.25707 0)
(0.0319476 1.33478 0)
(0.0340829 1.27602 0)
(-0.00433415 1.99478 -3.15959e-20)
(-0.0256592 2.61687 3.64451e-20)
(-0.01337 2.6834 6.21465e-20)
(-0.0232583 2.69247 0)
(-0.0294645 2.62282 -1.1618e-19)
(-0.0275527 2.61655 -6.22385e-20)
(0.00564564 1.9941 2.51024e-20)
(-0.0136169 2.418 -4.8892e-20)
(-0.0180515 2.43636 -7.04459e-20)
(1.01043 0.0370388 1.26739e-18)
(1.00715 0.0169017 -1.58068e-18)
(1.00401 0.0423514 -1.29515e-18)
(0.979308 0.0291315 1.62946e-18)
(1.06295 0.0077882 0)
(1.04845 -0.00726129 0)
(1.08995 0.0345974 0)
(1.07373 0.0133152 0)
(1.07233 -0.000548983 0)
(1.13632 0.073445 0)
(1.11099 0.0427516 0)
(1.11277 0.0350592 0)
(-0.0663157 2.45561 -7.99065e-21)
(0.00751879 2.10737 0)
(-0.0365953 2.285 0)
(-0.0363536 2.60186 1.77568e-20)
(-0.0314429 2.61365 -8.5887e-22)
(0.013839 1.64545 5.4295e-20)
(0.0306335 1.58915 -5.48469e-20)
(0.031021 1.4068 0)
(0.0382048 1.41859 0)
(0.0256365 1.42626 0)
(0.015268 1.2857 0)
(-0.00400316 1.19914 0)
(0.375611 1.50138 1.96415e-19)
(0.418746 1.51023 1.24047e-19)
(0.589605 2.47243 -2.47575e-19)
(0.384451 2.56659 7.63862e-19)
(0.354723 2.07182 8.53617e-20)
(1.02056 -0.00811243 0)
(1.01569 -0.00942115 0)
(1.0148 -0.013259 0)
(1.00762 -0.000716487 0)
(1.00494 -0.000630881 0)
(1.00796 -0.00461788 0)
(1.00949 -0.00362637 0)
(1.0145 -0.00446687 0)
(1.02044 0.0157549 1.22881e-18)
(1.01774 0.0148364 -1.55878e-18)
(1.021 0.0178418 -1.23869e-18)
(1.01886 0.0163357 1.54988e-18)
(0.74483 1.34625 0)
(0.678084 1.3871 1.82851e-19)
(0.85025 1.22339 4.74867e-20)
(0.881178 1.19646 -6.30068e-20)
(1.16419 2.62282 3.71864e-19)
(0.795712 0.113089 6.27989e-19)
(1.16272 0.0978139 0)
(1.19872 0.186613 -5.27958e-19)
(1.17962 0.148136 -2.19846e-20)
(1.0126 0.149817 0)
(0.0880943 3.02543 4.09867e-19)
(0.0893835 2.90544 -1.29749e-18)
(0.0378573 2.36437 8.24803e-19)
(0.134796 -0.0630494 -3.98272e-19)
(0.347112 3.45669 -2.19637e-19)
(0.19694 3.34684 0)
(0.22762 3.40714 2.86103e-19)
(0.230208 3.0836 -1.37067e-18)
(0.264508 3.20409 0)
(0.00638959 3.12268 5.56898e-20)
(0.016523 3.13148 -6.39813e-19)
(0.0155393 3.12721 9.41685e-19)
(0.0338172 3.14027 0)
(0.0321188 3.14981 0)
(1.26193 2.58998 0)
(0.514523 0.832182 -5.57501e-19)
(0.991421 1.03096 3.44725e-20)
(0.96185 1.0705 0)
(0.825493 0.958068 -1.35888e-19)
(1.04748 0.894601 2.83454e-20)
(0.406862 0.390911 -9.83717e-19)
(0.710317 0.319138 -2.46809e-20)
(0.66548 0.247905 4.43359e-19)
(0.615113 0.373063 3.27674e-20)
(0.527859 0.35325 -1.322e-18)
(0.670209 0.336142 0)
(0.697912 0.421645 7.66071e-19)
(0.702771 0.42582 0)
(0.646166 0.363552 0)
(0.60844 0.306894 0)
(0.759848 0.643654 4.43996e-19)
(1.22935 0.290006 -5.38815e-19)
(1.2125 0.432899 0)
(1.22549 0.378647 0)
(0.758033 0.180989 6.62051e-19)
(0.82347 0.541786 -4.17954e-19)
(0.743567 0.498362 7.4148e-19)
(0.946674 0.427472 -7.97083e-19)
(1.019 0.0144504 8.35644e-19)
(1.01743 0.0135179 -8.43039e-19)
(1.01617 0.0142361 0)
(1.03635 -0.00503425 0)
(1.03002 -0.00798254 -7.92215e-19)
(1.02821 -0.0107737 7.84096e-19)
(1.02491 0.0101776 0)
(1.02312 0.0142029 0)
(1.01244 0.00448778 0)
(1.01453 0.00904837 0)
(1.01592 0.00383839 0)
(1.0152 0.00267738 0)
(0.0610377 1.35052 0)
(0.0608717 1.31418 0)
(0.143138 1.39629 9.79894e-21)
(0.263326 1.47446 5.28249e-20)
(0.156164 1.44573 1.13308e-19)
(0.178826 1.45212 -1.85161e-19)
(0.147286 1.40509 0)
(0.126289 1.57408 -1.56954e-19)
(0.124784 1.5671 0)
(0.352028 2.03234 -1.24226e-19)
(0.336632 2.34727 6.79731e-19)
(0.181147 1.44773 1.36836e-19)
(0.264331 1.37446 3.5126e-22)
(0.193754 1.37463 -2.86195e-22)
(0.28023 1.31014 -1.5024e-19)
(0.253829 1.57609 0)
(0.252615 1.62585 1.45125e-19)
(0.0280369 2.28086 -3.81259e-20)
(0.0374847 2.68365 0)
(0.0666369 2.42055 1.5422e-19)
(0.0594872 2.44059 0)
(0.0707139 2.69902 -2.35859e-19)
(0.0438218 2.71614 0)
(0.0252882 1.41835 -1.60747e-20)
(0.0344806 1.47302 0)
(0.0328849 1.3839 0)
(0.0250905 1.38668 1.83377e-20)
(-0.00391137 2.66896 -7.71948e-21)
(0.0233256 2.70832 2.6721e-19)
(0.00615605 2.73799 1.70354e-21)
(-0.00420497 1.84168 3.66948e-20)
(-0.00980486 1.68676 1.36839e-20)
(0.0121083 1.30575 0)
(-0.00686872 1.23468 0)
(0.0379209 1.5676 5.66927e-20)
(0.0311267 1.44733 4.08391e-20)
(0.0313412 1.51653 -5.47768e-20)
(0.0407587 1.59681 0)
(-0.0465392 2.28887 -1.7337e-20)
(-0.0504901 2.55846 5.09933e-21)
(-0.02845 2.46306 -1.06381e-20)
(-0.0207134 1.85928 -4.44411e-20)
(-0.0361991 2.51384 -1.41292e-20)
(-0.0308264 2.45405 8.02218e-20)
(1.01899 0.0206731 -8.39697e-19)
(1.01525 0.0262112 8.43664e-19)
(1.01432 0.0161165 0)
(1.01244 0.0659048 1.1563e-18)
(0.992874 0.0532398 -1.32633e-18)
(0.955712 0.0484746 1.48225e-18)
(1.01268 0.10743 -1.57822e-19)
(1.04301 -0.00523968 0)
(1.05089 -0.00124534 7.6208e-19)
(1.0394 -0.00855897 -7.60808e-19)
(1.071 0.0395115 -4.53904e-20)
(1.06331 0.0264204 3.90892e-19)
(1.06468 0.0612953 0)
(1.05237 0.0513309 -1.40461e-19)
(1.03251 0.0415301 0)
(1.02546 0.0374022 0)
(1.0278 0.0127341 0)
(1.0243 0.0154213 0)
(1.04061 0.0312537 2.88545e-19)
(1.03932 0.0268546 -6.37255e-19)
(1.05189 0.0356275 -3.06076e-19)
(1.04762 0.0357336 -3.37219e-19)
(1.07426 0.0642374 6.51809e-19)
(1.09755 0.0514234 0)
(1.10321 0.0888799 0)
(-0.0533686 2.2819 -3.32253e-20)
(-0.0176332 2.07876 -9.40728e-21)
(-0.0197128 2.05967 0)
(-0.050473 2.45771 3.34606e-20)
(-0.0258689 2.41721 1.70531e-20)
(-0.0654028 2.455 -1.30228e-20)
(-0.0307298 2.62886 5.59748e-20)
(-0.0416435 2.572 -3.98099e-21)
(-0.0341329 2.52902 1.50644e-20)
(-0.0289345 2.62067 -2.36388e-20)
(-0.0317005 2.6223 2.96081e-20)
(0.017489 1.52631 -1.61106e-22)
(0.00276879 1.67191 5.13232e-20)
(0.367752 1.42647 -7.34986e-20)
(0.363566 1.35841 7.6572e-20)
(0.630276 1.43106 -1.76881e-19)
(0.508552 1.50034 -1.19607e-19)
(0.553718 1.46585 0)
(0.603767 2.43076 2.33371e-19)
(0.66682 2.4301 3.5292e-19)
(0.42268 2.52485 9.83791e-20)
(0.398033 2.54995 -6.93306e-19)
(0.502934 2.49379 6.05426e-19)
(0.558469 2.47937 0)
(0.496057 2.52928 -5.80147e-19)
(0.262812 2.60104 1.23903e-18)
(0.36518 2.57243 -6.30614e-20)
(0.289226 2.66312 -1.71367e-18)
(0.963092 2.39345 7.64436e-19)
(0.845523 2.39294 0)
(1.01132 0.00116779 2.74954e-20)
(1.01519 -0.0053815 -2.24395e-20)
(1.01764 -0.00416097 -4.10436e-19)
(1.01543 -0.0012468 4.09067e-19)
(1.01291 0.00162027 0)
(0.620382 1.29227 0)
(0.654983 1.17866 0)
(0.762954 1.09917 0)
(0.64155 1.1398 0)
(1.19547 2.63921 5.06132e-20)
(1.08648 2.3858 0)
(0.823863 2.20295 4.08586e-21)
(0.824935 2.45561 0)
(0.917137 2.54344 -4.83415e-19)
(0.948894 2.49385 3.23092e-19)
(0.810811 0.137686 0)
(0.77493 0.132671 1.72127e-19)
(0.91979 0.145311 9.98221e-19)
(0.842038 0.122268 -3.75963e-19)
(0.809215 0.0811579 -1.14188e-18)
(1.08132 0.223547 -9.59516e-19)
(0.988415 0.283287 -7.26708e-21)
(0.926646 0.323483 9.09853e-19)
(1.02033 0.233769 7.66741e-19)
(0.936737 0.183223 -1.32804e-18)
(0.899392 0.196571 1.65433e-19)
(0.939411 0.290864 -3.51016e-19)
(0.913424 0.19974 0)
(1.00183 0.186867 6.52042e-19)
(1.05351 0.201297 0)
(1.05074 0.204195 0)
(1.11925 0.112114 3.01605e-19)
(1.06524 0.173122 -1.02249e-20)
(1.07395 0.227789 -1.71202e-19)
(1.10964 0.194226 0)
(1.02361 0.0456695 6.50499e-19)
(1.03861 0.0594624 8.12086e-19)
(1.03295 0.0434596 -6.45229e-19)
(1.04076 0.0644661 -5.44713e-19)
(1.01502 0.0699071 -8.18645e-19)
(0.990678 0.155653 0)
(0.994108 0.10011 0)
(0.965249 0.0624944 -5.25764e-19)
(0.914702 0.091759 2.08047e-19)
(1.03597 0.106464 7.55034e-19)
(1.07336 0.122553 -8.81038e-19)
(1.06557 0.161535 7.89978e-19)
(1.03583 0.141517 0)
(1.08247 0.110855 0)
(1.05744 0.101598 -3.58249e-19)
(1.04401 0.100304 -6.15396e-19)
(0.585231 1.10933 1.38154e-19)
(0.623713 1.44215 -4.46468e-20)
(1.14606 2.73663 -2.76109e-19)
(1.19906 3.11721 8.6452e-21)
(1.25453 2.74145 -2.03112e-19)
(1.29653 2.71324 5.19405e-20)
(1.27193 2.33394 -3.68407e-20)
(1.18672 3.02284 -9.91302e-20)
(1.20526 2.97945 2.63711e-19)
(1.18147 3.27112 -1.125e-19)
(1.40149 2.9867 1.3918e-19)
(1.41364 2.92536 0)
(0.546337 0.854863 -5.10535e-20)
(0.237626 1.22983 5.11943e-19)
(0.494074 0.467418 6.27112e-19)
(0.366927 0.229783 7.19366e-19)
(0.546753 0.383796 7.44962e-19)
(0.555185 0.478916 -1.1971e-18)
(0.556177 0.477479 9.79771e-19)
(0.511142 0.413493 -3.78806e-19)
(0.445797 0.346629 8.57681e-19)
(0.770091 0.241521 -3.78607e-19)
(0.731515 0.280514 0)
(0.705147 0.210368 1.08503e-20)
(0.729495 0.516902 4.03093e-19)
(0.689052 0.490294 -1.46643e-18)
(0.651269 0.470633 2.35918e-20)
(0.651047 0.445868 0)
(0.683183 0.738924 4.06774e-19)
(0.794962 0.7876 4.69186e-19)
(0.725515 0.837029 -5.43817e-19)
(0.862776 0.805244 -1.76546e-19)
(0.903266 0.851931 -4.62429e-20)
(0.910787 0.858708 4.74239e-20)
(0.854789 0.667982 -7.38432e-19)
(0.922166 0.718744 1.64217e-19)
(0.974924 0.723958 0)
(0.97289 0.701165 -2.17011e-19)
(1.02838 0.311763 2.43859e-19)
(1.14273 0.314243 3.15527e-19)
(1.0646 0.263918 3.92877e-19)
(0.986958 0.358122 -4.7847e-19)
(1.02326 0.466245 0)
(1.11025 0.41368 0)
(0.88241 0.395516 8.65156e-21)
(0.845651 0.288311 0)
(0.870206 0.270922 4.31115e-19)
(0.908063 0.319575 1.00101e-20)
(0.945534 0.452883 2.25014e-18)
(0.870681 0.521597 5.71533e-19)
(0.895821 0.470037 -6.16455e-19)
(0.814825 0.448707 6.54089e-19)
(0.802795 0.43176 3.94041e-19)
(0.791625 0.403214 -3.86339e-19)
(1.02792 -0.000771485 6.79188e-19)
(1.02023 0.000173269 0)
(1.01891 0.00103888 4.43059e-19)
(1.02256 -0.00113584 -1.00316e-18)
(1.02242 0.00415229 4.88247e-19)
(1.02018 0.0110816 -1.02173e-18)
(1.02107 0.0108237 0)
(1.01999 0.0116599 -2.12737e-19)
(1.01635 0.00749602 5.33075e-19)
(1.01674 0.010638 -2.68205e-19)
(1.01745 0.0102069 1.96512e-19)
(0.0325885 1.32161 0)
(0.0384781 1.34858 0)
(0.0432414 1.32781 0)
(0.0443681 1.29027 0)
(0.075898 1.35524 9.3843e-20)
(0.0908843 1.33084 -4.98915e-20)
(0.0546836 1.52866 -3.29967e-20)
(0.110708 1.35956 -2.49543e-20)
(0.0364087 1.4546 -4.9751e-20)
(0.0401789 1.45031 3.8435e-20)
(0.0669137 1.35617 -3.5171e-20)
(0.0554338 1.36031 -1.17135e-20)
(0.0468466 1.34029 -1.5781e-21)
(0.039036 1.3608 -5.40552e-21)
(0.107367 2.3903 -1.70045e-19)
(0.0968625 2.43413 0)
(0.153472 2.0397 1.25704e-19)
(0.114904 1.71122 6.43416e-20)
(0.225044 2.02726 -1.04489e-19)
(0.204091 2.44273 0)
(0.246513 2.39127 -6.92572e-19)
(0.306309 2.38721 4.89745e-19)
(0.256689 2.00144 -2.79767e-19)
(0.141551 2.16633 1.85405e-19)
(0.114872 2.27752 0)
(0.0147101 1.86701 -8.88666e-20)
(-0.0134131 2.40806 -1.36037e-19)
(-0.00403784 2.15331 0)
(0.00186627 2.46775 -1.45187e-20)
(0.0204173 2.31231 5.35341e-20)
(0.0190461 1.40361 2.80567e-21)
(0.00584594 1.38891 -5.00511e-20)
(0.00218979 1.39225 9.52631e-21)
(0.0183032 1.39262 2.16967e-20)
(0.0229325 1.42265 0)
(-0.000188449 1.3711 0)
(-0.00249523 1.28857 2.80089e-20)
(-0.00396391 1.35899 -1.03686e-20)
(-0.00267916 1.35799 0)
(0.00442553 1.28844 1.43e-20)
(-0.00790479 1.20547 -3.31902e-20)
(1.0415 0.0136635 0)
(1.0482 0.00920662 -7.1265e-20)
(1.03883 0.0222852 -5.1395e-19)
(1.04874 0.0212226 0)
(1.05345 0.0207264 0)
(1.03623 0.011693 -6.62137e-21)
(1.03044 0.011918 8.23391e-19)
(1.03201 0.0161002 1.00188e-18)
(1.02587 0.0198762 0)
(1.02249 0.0204968 0)
(1.03548 0.0242576 5.12385e-19)
(1.02556 0.0261817 0)
(1.02406 0.0263417 0)
(-0.0477869 2.03711 0)
(-0.0052517 1.67059 -6.09003e-21)
(-0.0299404 1.78072 -1.17869e-20)
(0.0012627 1.35924 0)
(-0.020237 1.55875 2.69063e-20)
(-0.000777179 1.46118 -1.80347e-20)
(0.0268175 1.38616 0)
(0.406566 1.6672 0)
(0.355767 1.29882 -1.19331e-19)
(0.283052 1.34466 0)
(0.424868 1.30667 7.0428e-20)
(0.464181 1.4583 0)
(0.446744 1.40281 -7.16333e-21)
(1.03842 2.68638 -1.643e-20)
(0.978805 2.4144 -9.6045e-19)
(0.937014 2.20322 1.0991e-18)
(0.860545 2.38593 2.51467e-19)
(0.852318 2.50348 0)
(0.919981 2.50126 0)
(0.946934 2.38685 0)
(0.923523 2.37426 -9.78882e-19)
(0.695231 2.47556 -4.20144e-19)
(0.802561 2.4592 -1.07337e-19)
(0.81064 2.4376 8.11398e-20)
(0.702386 2.40411 0)
(0.806669 2.39797 0)
(0.769003 2.413 -3.80681e-19)
(0.768146 2.48273 0)
(0.600147 1.0735 0)
(0.513283 0.89631 -5.89354e-19)
(0.516079 0.961585 -3.44111e-20)
(0.499325 1.09502 0)
(0.486444 1.00849 9.02775e-19)
(0.75955 0.875542 -1.55841e-19)
(0.774139 1.01161 0)
(0.750434 0.988986 2.25411e-19)
(0.637664 1.02102 0)
(0.632082 0.937478 0)
(1.16347 2.76965 -2.51736e-19)
(1.13842 2.82888 -1.12592e-19)
(0.925947 2.35924 1.13148e-19)
(0.902148 2.33772 -8.79466e-20)
(1.13233 2.74654 0)
(1.08411 2.71506 1.05739e-19)
(1.09961 2.50512 -3.25537e-19)
(0.998713 2.25651 -2.82954e-20)
(0.499717 1.35793 0)
(0.515851 1.09218 -1.21751e-19)
(0.576187 1.17456 0)
(0.855003 0.205471 0)
(0.794482 0.154867 0)
(0.739301 0.138345 0)
(0.859514 0.205214 -6.61304e-19)
(0.785494 0.202603 3.94009e-19)
(0.928958 0.0773659 -4.30696e-19)
(0.945056 0.124875 0)
(0.920818 0.134932 1.85059e-19)
(0.866075 0.0964127 7.4123e-19)
(0.831816 0.0685943 -4.64232e-19)
(1.10277 3.36472 -6.60701e-19)
(1.16754 3.28731 0)
(1.12271 3.45002 -1.54855e-18)
(0.661969 3.59549 1.28792e-18)
(1.03368 3.09075 1.00502e-19)
(0.519359 0.834692 5.97723e-19)
(0.507542 0.802559 0)
(0.383556 0.496772 -1.56791e-19)
(0.465104 0.679443 9.07168e-19)
(0.520763 0.473767 -2.18413e-19)
(0.510803 0.516743 2.47364e-19)
(0.686284 0.54952 5.20351e-19)
(0.712276 0.576962 0)
(0.642861 0.615666 0)
(0.611929 0.564122 0)
(0.985534 0.615477 1.21165e-19)
(0.927929 0.566289 -5.53109e-19)
(0.951073 0.600216 4.14042e-19)
(1.00652 0.520388 -4.21603e-19)
(1.0491 0.495718 0)
(1.05751 0.596142 -1.09871e-19)
(0.84556 0.390788 -8.8901e-19)
(0.841572 0.385167 -1.1298e-18)
(0.8076 0.379312 6.9808e-19)
(0.807371 0.343241 -7.14508e-19)
(0.841587 0.299692 -5.58189e-19)
(0.806008 0.301624 6.85998e-19)
(1.02654 0.00602766 -5.11602e-19)
(1.0262 0.00614682 1.03142e-18)
(1.02966 0.000294934 6.59131e-19)
(1.0336 0.000862084 -7.91474e-19)
(1.03354 0.0105659 0)
(1.02983 0.0107444 -1.28766e-18)
(0.0852057 1.66262 2.50418e-20)
(0.0464418 1.58729 0)
(0.100576 1.70988 1.78308e-19)
(0.106073 1.68388 -1.63493e-19)
(0.0389071 1.53235 6.19403e-20)
(0.031528 1.51506 0)
(-0.000900713 1.69214 0)
(-0.00750189 1.49642 -1.14783e-20)
(-0.0107854 1.42775 1.03249e-20)
(-0.0124145 1.55368 -2.77437e-21)
(-0.0134704 1.90259 -2.1131e-20)
(-0.033979 1.9512 1.14377e-20)
(0.49052 1.3798 -3.3662e-19)
(0.493617 1.37731 3.66402e-19)
(0.437828 1.29535 -6.86914e-20)
(0.424857 1.30139 1.19747e-20)
(0.612608 1.30086 0)
(0.544776 1.39177 6.11394e-20)
(0.545754 1.3949 -5.94789e-20)
(0.470562 1.2751 6.54884e-20)
(0.508602 1.2386 0)
(0.575 1.20678 0)
(0.669567 2.43821 6.19139e-19)
(0.663024 2.46165 1.38534e-18)
(0.719917 2.47628 -9.50971e-19)
(0.618994 2.44957 -2.13463e-19)
(0.556072 2.54752 2.95071e-19)
(0.496063 2.50987 -7.59259e-19)
(0.988048 2.39187 -6.19567e-19)
(1.02238 2.41142 0)
(0.943504 2.18846 -6.82658e-19)
(1.05433 2.69557 0)
(1.05339 2.6775 0)
(0.618361 2.31755 7.30288e-21)
(1.12344 3.08353 6.70147e-20)
(1.00682 2.98631 -1.23738e-19)
(0.337741 0.875469 0)
(0.358878 0.785627 -3.16325e-19)
(0.545182 0.71052 -3.26185e-19)
(0.386472 2.16536 0)
(0.412868 2.75283 -7.06866e-20)
(0.424204 2.49313 0)
(0.689473 0.702705 -8.68804e-19)
(0.750856 0.695039 1.22238e-18)
(0.761855 0.658377 -1.22143e-18)
(0.681066 0.661984 -1.1099e-19)
(0.735017 0.618385 -4.6286e-19)
(0.979038 2.77164 -5.0762e-20)
(1.01595 2.77415 -2.42842e-19)
(0.572698 2.24717 4.38079e-19)
(0.617457 1.76207 -3.49386e-19)
(0.714306 1.87967 -5.34037e-19)
(0.982345 2.41348 -1.41392e-19)
(0.980201 2.37048 3.99435e-19)
(0.662684 1.80453 3.54706e-20)
(0.467765 1.3266 1.93158e-19)
)
;

boundaryField
{
    wall-4
    {
        type            noSlip;
    }
    velocity-inlet-5
    {
        type            fixedValue;
        value           uniform (1 0 0);
    }
    velocity-inlet-6
    {
        type            fixedValue;
        value           uniform (0 3 0);
    }
    pressure-outlet-7
    {
        type            zeroGradient;
    }
    wall-8
    {
        type            noSlip;
    }
    frontAndBackPlanes
    {
        type            empty;
    }
}


// ************************************************************************* //
