/*--------------------------------*- C++ -*----------------------------------*\
  =========                 |
  \\      /  F ield         | OpenFOAM: The Open Source CFD Toolbox
   \\    /   O peration     | Website:  https://openfoam.org
    \\  /    A nd           | Version:  6
     \\/     M anipulation  |
\*---------------------------------------------------------------------------*/
FoamFile
{
    version     2.0;
    format      ascii;
    class       volScalarField;
    location    "4.5";
    object      Ma;
}
// * * * * * * * * * * * * * * * * * * * * * * * * * * * * * * * * * * * * * //

dimensions      [0 0 0 0 0 0 0];

internalField   nonuniform List<scalar> 
26250
(
3.04661
3.07698
3.10415
3.12669
3.14772
3.1645
3.18059
3.18998
3.18955
3.17358
3.12715
2.98479
2.68134
1.94
0.932969
0.433677
0.492331
0.57813
0.631639
0.621064
0.610161
0.575676
0.494328
0.35021
0.23763
3.0466
3.07699
3.10414
3.1267
3.14771
3.16451
3.18059
3.19002
3.18961
3.17377
3.12759
2.98584
2.68344
1.94396
0.939925
0.44401
0.501713
0.58676
0.640372
0.641827
0.623248
0.585017
0.509338
0.374194
0.266704
3.04658
3.07701
3.10412
3.12672
3.14769
3.16453
3.18059
3.19014
3.18976
3.17415
3.12855
2.98761
2.68768
1.94834
0.943372
0.4299
0.491234
0.579922
0.632677
0.633985
0.612594
0.570172
0.495358
0.362188
0.254677
3.04635
3.07724
3.10387
3.12696
3.14745
3.16479
3.18045
3.19083
3.19044
3.17501
3.13336
2.99128
2.69678
1.96245
0.957158
0.459235
0.514448
0.595062
0.64397
0.636836
0.617065
0.574669
0.497173
0.36219
0.253125
3.04559
3.07802
3.10304
3.12782
3.14654
3.16575
3.17929
3.1914
3.18741
3.18143
3.12884
3.01744
2.6751
1.99597
1.00021
0.48825
0.537176
0.612824
0.659283
0.656405
0.6353
0.592205
0.512793
0.375879
0.264687
3.04625
3.07734
3.10376
3.12707
3.14732
3.1649
3.18032
3.19073
3.19061
3.17743
3.14163
3.00149
2.72125
1.99942
1.00712
0.50863
0.553645
0.624611
0.672302
0.671165
0.650036
0.608096
0.530206
0.394317
0.283951
3.04573
3.07788
3.10319
3.12768
3.14668
3.16563
3.17946
3.19167
3.18931
3.18349
3.13388
3.02977
2.69968
2.05427
1.06748
0.55257
0.582007
0.645811
0.690774
0.69096
0.669521
0.628705
0.553698
0.421121
0.315555
3.04621
3.07738
3.10371
3.12712
3.14728
3.16496
3.18029
3.19093
3.19091
3.17914
3.14396
3.01507
2.75282
2.05232
1.08768
0.578131
0.596659
0.656341
0.704157
0.70672
0.688035
0.651479
0.583412
0.45956
0.368088
3.04621
3.0774
3.10372
3.12713
3.1473
3.16496
3.1803
3.191
3.19096
3.18022
3.14447
3.02431
2.77226
2.09469
1.15509
0.631615
0.629643
0.679214
0.724279
0.727481
0.711624
0.680985
0.624501
0.518168
0.457561
3.04818
3.07535
3.10586
3.12489
3.14957
3.16264
3.18257
3.18884
3.19403
3.18318
3.15246
3.03594
2.79982
2.12975
1.19881
0.681352
0.666588
0.708994
0.749421
0.753764
0.741779
0.720121
0.683081
0.614913
0.625915
2.96753
2.95207
2.9411
2.9352
2.92969
2.92707
2.92325
2.91924
2.90337
2.87709
2.7972
2.62414
2.24463
1.42666
0.330661
0.268249
0.0459973
0.261944
0.306707
0.246613
0.236175
0.179182
0.0720093
0.0437439
0.100626
2.96753
2.95207
2.9411
2.9352
2.9297
2.92707
2.92325
2.91926
2.90344
2.87722
2.79756
2.62486
2.2461
1.43109
0.337907
0.241497
0.0591874
0.27333
0.323408
0.290772
0.254295
0.192214
0.102393
0.0735006
0.13208
2.96753
2.95207
2.9411
2.9352
2.9297
2.92707
2.92326
2.9193
2.9036
2.87757
2.79835
2.62685
2.24969
1.43695
0.340528
0.275617
0.0736426
0.279125
0.327813
0.297586
0.260735
0.207325
0.137913
0.117184
0.140714
2.96752
2.95207
2.94109
2.9352
2.92969
2.92707
2.92328
2.91939
2.90387
2.87816
2.79955
2.63016
2.25499
1.44765
0.35771
0.235594
0.102398
0.293643
0.331869
0.285787
0.267482
0.228185
0.181319
0.165597
0.16364
2.96756
2.952
2.94115
2.93512
2.92976
2.927
2.92343
2.91969
2.9052
2.87843
2.80734
2.62572
2.27075
1.45781
0.358008
0.223438
0.127422
0.31083
0.34878
0.318214
0.293784
0.26245
0.229732
0.215476
0.198909
2.96752
2.95206
2.9411
2.93518
2.92971
2.92706
2.92336
2.91963
2.90473
2.88001
2.80374
2.64154
2.2756
1.49309
0.40926
0.204984
0.155425
0.33142
0.369213
0.345638
0.32546
0.302989
0.28122
0.268653
0.246248
2.96758
2.95198
2.94116
2.93511
2.92977
2.927
2.92348
2.91987
2.90603
2.88073
2.8125
2.63961
2.29858
1.52471
0.432571
0.180121
0.187321
0.354905
0.393194
0.377313
0.361793
0.348725
0.337265
0.328221
0.308618
2.96753
2.95205
2.94111
2.93517
2.92972
2.92706
2.92343
2.9199
2.90584
2.88266
2.81021
2.65816
2.31082
1.57124
0.503609
0.16627
0.221317
0.380309
0.419538
0.410179
0.402562
0.39898
0.399065
0.397307
0.391176
2.96754
2.95205
2.94112
2.93518
2.92973
2.92707
2.92345
2.92004
2.90642
2.88434
2.81442
2.66653
2.33345
1.60735
0.565926
0.164404
0.260559
0.408451
0.447348
0.444662
0.446623
0.453276
0.467125
0.481635
0.506039
2.96771
2.95196
2.94124
2.93512
2.92982
2.92705
2.92354
2.92028
2.90747
2.88636
2.82017
2.67681
2.35558
1.65046
0.626842
0.185872
0.303927
0.439837
0.477037
0.480576
0.491068
0.510192
0.544471
0.586297
0.692605
2.98571
2.97024
2.95103
2.93551
2.91917
2.90731
2.89389
2.88297
2.86152
2.82715
2.735
2.53937
2.13503
1.25761
0.0957805
0.591507
0.0812498
0.185669
0.237116
0.180332
0.096695
0.0761567
0.0949393
0.0692066
0.06492
2.98567
2.97027
2.951
2.93554
2.91914
2.90734
2.89386
2.88301
2.8615
2.82742
2.73486
2.54122
2.13544
1.25716
0.101407
0.582679
0.0814186
0.19928
0.241094
0.171613
0.133949
0.114983
0.133058
0.115331
0.100145
2.98571
2.97024
2.95104
2.93551
2.91917
2.90731
2.8939
2.88302
2.86171
2.82755
2.73607
2.54149
2.1395
1.26513
0.112733
0.566355
0.091084
0.217048
0.248835
0.186132
0.166596
0.155318
0.176388
0.16913
0.14747
2.98567
2.97028
2.951
2.93554
2.91913
2.90734
2.89388
2.8831
2.86187
2.82819
2.73688
2.54541
2.1442
1.2725
0.126646
0.548262
0.108839
0.239798
0.264581
0.214907
0.202916
0.198893
0.222638
0.223227
0.198992
2.98564
2.97031
2.95096
2.93557
2.9191
2.90738
2.89386
2.88322
2.86215
2.82909
2.73833
2.55096
2.15219
1.28761
0.154106
0.518627
0.131896
0.266043
0.286163
0.250087
0.235633
0.245165
0.270759
0.278075
0.253485
2.98565
2.9703
2.95098
2.93556
2.91911
2.90737
2.8939
2.88332
2.86268
2.83
2.74138
2.55625
2.16571
1.31563
0.189907
0.483562
0.157506
0.294218
0.313421
0.289216
0.272893
0.294066
0.322118
0.335969
0.314576
2.98562
2.97033
2.95095
2.93559
2.91908
2.90741
2.89389
2.88348
2.86326
2.83142
2.74474
2.56518
2.18277
1.35098
0.234201
0.443974
0.185814
0.324015
0.344561
0.331043
0.317717
0.346629
0.377499
0.40044
0.387037
2.98561
2.97034
2.95094
2.93561
2.91908
2.90743
2.89391
2.88365
2.86402
2.83298
2.74905
2.57485
2.20332
1.39696
0.289877
0.397727
0.216895
0.354993
0.378613
0.374684
0.368927
0.400303
0.438831
0.47311
0.475654
2.98554
2.97041
2.95088
2.93567
2.91902
2.9075
2.89389
2.88387
2.86478
2.83494
2.75329
2.58788
2.22542
1.44733
0.35774
0.343152
0.250609
0.387029
0.413434
0.41823
0.423651
0.458059
0.50581
0.556925
0.591773
2.98564
2.97032
2.95097
2.93558
2.91911
2.90743
2.89401
2.88418
2.86593
2.83687
2.75904
2.59754
2.25058
1.51525
0.429799
0.284071
0.286377
0.419516
0.448581
0.460814
0.476602
0.517791
0.58034
0.655821
0.778549
2.96752
2.95208
2.94109
2.93521
2.92969
2.92708
2.92326
2.91929
2.90346
2.87728
2.79739
2.62417
2.24351
1.41959
0.323934
0.259595
0.0454845
0.26597
0.32309
0.30372
0.268469
0.209315
0.122827
0.0573313
0.116614
2.96756
2.95201
2.94115
2.93513
2.92975
2.927
2.92339
2.9195
2.90458
2.87684
2.80371
2.61605
2.25134
1.41317
0.297306
0.318206
0.0524261
0.260883
0.302117
0.233446
0.226231
0.177299
0.0972993
0.0803897
0.119562
2.96752
2.95207
2.94109
2.9352
2.92969
2.92707
2.92328
2.91936
2.90369
2.87779
2.79838
2.62702
2.24785
1.42585
0.333866
0.253386
0.0807173
0.276454
0.311624
0.257537
0.239663
0.18933
0.125534
0.124808
0.135829
2.96755
2.95201
2.94114
2.93513
2.92975
2.927
2.9234
2.91959
2.9048
2.87763
2.80528
2.62062
2.2606
1.43124
0.329799
0.244903
0.101608
0.292682
0.331296
0.295958
0.263714
0.217916
0.169901
0.170084
0.165281
2.96754
2.95201
2.94113
2.93513
2.92974
2.92701
2.92342
2.91967
2.90501
2.87839
2.80673
2.62502
2.2692
1.45006
0.351926
0.239601
0.127065
0.308615
0.345853
0.31389
0.290478
0.255372
0.220046
0.217535
0.201779
2.96756
2.952
2.94115
2.93512
2.92975
2.92701
2.92345
2.91976
2.90547
2.87939
2.80925
2.63128
2.28193
1.48146
0.387062
0.208065
0.156018
0.329254
0.367331
0.345333
0.323256
0.298894
0.274257
0.269142
0.248743
2.96753
2.95206
2.94111
2.93518
2.92972
2.92707
2.92339
2.91976
2.90523
2.8811
2.80662
2.64926
2.29142
1.5352
0.454857
0.184552
0.188424
0.354118
0.391836
0.37585
0.360339
0.346644
0.332745
0.32786
0.310341
2.96753
2.95206
2.94111
2.93519
2.92972
2.92708
2.92342
2.91992
2.90576
2.8826
2.81031
2.65709
2.31209
1.57236
0.510117
0.160421
0.22493
0.381613
0.419615
0.409443
0.401721
0.397872
0.396175
0.396715
0.392219
2.96754
2.95205
2.94113
2.93518
2.92974
2.92708
2.92345
2.92003
2.9064
2.8843
2.81427
2.66654
2.33318
1.60771
0.567379
0.162109
0.261653
0.410123
0.448231
0.444754
0.44636
0.452883
0.465382
0.480961
0.506532
2.96771
2.95196
2.94124
2.93513
2.92981
2.92706
2.92354
2.92028
2.90745
2.8863
2.82006
2.67662
2.35528
1.65055
0.627484
0.18554
0.305
0.441485
0.478285
0.481047
0.491141
0.510156
0.54339
0.585213
0.692969
3.04642
3.07717
3.10394
3.12689
3.14751
3.16472
3.1805
3.1906
3.19021
3.17431
3.1316
2.98561
2.68526
1.93768
0.916673
0.428519
0.490921
0.580899
0.635889
0.63776
0.62061
0.579235
0.502027
0.367072
0.26077
3.0455
3.07812
3.10294
3.12794
3.14643
3.16586
3.17913
3.19132
3.18651
3.18009
3.12509
3.0093
2.64995
1.94849
0.953871
0.428271
0.492288
0.584075
0.633599
0.622063
0.609655
0.571719
0.489181
0.348353
0.2418
3.0464
3.07719
3.10391
3.12691
3.14748
3.16473
3.18043
3.1904
3.19011
3.17525
3.13658
2.9898
2.69735
1.94795
0.920725
0.435834
0.497764
0.583787
0.634031
0.622619
0.609122
0.571709
0.487908
0.344452
0.235629
3.04549
3.07812
3.10293
3.12793
3.14642
3.16584
3.17914
3.19118
3.18629
3.17903
3.12536
3.00594
2.66023
1.97733
0.978618
0.472131
0.525546
0.605568
0.652305
0.649297
0.628902
0.588679
0.50725
0.365002
0.25176
3.04554
3.07807
3.10298
3.12788
3.14648
3.16578
3.17923
3.19108
3.18659
3.17803
3.12692
3.00912
2.67057
2.01531
0.97969
0.474663
0.528816
0.607931
0.654455
0.651615
0.632746
0.593493
0.515557
0.377061
0.264439
3.04561
3.078
3.10306
3.12781
3.14655
3.16574
3.1793
3.1914
3.18775
3.18079
3.12991
3.01825
2.68362
2.03064
1.02001
0.512018
0.556527
0.626549
0.671278
0.670574
0.649094
0.608985
0.532253
0.3956
0.284304
3.04627
3.07732
3.10379
3.12705
3.14736
3.16488
3.18041
3.19104
3.19083
3.17739
3.13944
3.00612
2.73346
2.0246
1.04841
0.539118
0.571635
0.63727
0.684939
0.686278
0.664769
0.627133
0.553511
0.421961
0.316171
3.04629
3.07731
3.1038
3.12704
3.14738
3.16488
3.18044
3.19118
3.19098
3.17847
3.13995
3.01451
2.75104
2.05693
1.10085
0.58673
0.599257
0.656541
0.703763
0.705266
0.684802
0.650265
0.582584
0.460277
0.369096
3.04623
3.07738
3.10374
3.12712
3.14731
3.16495
3.18032
3.19102
3.19097
3.18013
3.14426
3.02414
2.77223
2.09511
1.1555
0.632768
0.630632
0.680409
0.725513
0.727999
0.710493
0.681258
0.624414
0.519161
0.458828
3.04817
3.07539
3.10581
3.12498
3.14945
3.16275
3.18248
3.1889
3.19389
3.18305
3.15218
3.03578
2.80018
2.12886
1.19811
0.680982
0.666734
0.709722
0.750366
0.754586
0.741948
0.721198
0.684264
0.615516
0.626909
3.04512
3.07849
3.10255
3.12834
3.14602
3.16635
3.17893
3.19326
3.19294
3.18851
3.1491
3.06311
2.78368
2.2435
1.30332
0.753744
0.716904
0.749558
0.782581
0.787491
0.780309
0.770883
0.762478
0.760806
0.820919
3.04806
3.07544
3.1057
3.12505
3.14933
3.16292
3.18241
3.18981
3.19702
3.18758
3.16148
3.05842
2.84078
2.25003
1.33044
0.808225
0.764046
0.788851
0.816357
0.825398
0.825107
0.827383
0.838441
0.870018
0.952525
3.04511
3.07849
3.10252
3.12837
3.14596
3.16646
3.17895
3.19408
3.19589
3.19287
3.15987
3.08719
2.84268
2.38186
1.46798
0.871084
0.808643
0.823826
0.844207
0.857671
0.864781
0.876115
0.898643
0.943438
1.02748
3.04767
3.07587
3.10526
3.12556
3.14882
3.16352
3.18193
3.1912
3.19955
3.19238
3.16879
3.08628
2.89623
2.4052
1.54186
0.960583
0.86102
0.861725
0.875059
0.890572
0.903069
0.920331
0.948961
0.99607
1.07414
3.04742
3.07613
3.10498
3.12585
3.14851
3.16387
3.18162
3.192
3.20114
3.19523
3.17645
3.10563
2.95326
2.52161
1.73247
1.06278
0.907258
0.896223
0.905114
0.921475
0.940241
0.961121
0.992913
1.03864
1.10899
3.04591
3.07766
3.10336
3.12751
3.1468
3.16565
3.17991
3.19423
3.2012
3.20033
3.18248
3.13631
2.99021
2.69513
1.98565
1.22619
0.98217
0.954576
0.95523
0.968575
0.986328
1.00596
1.03532
1.07719
1.13814
3.04631
3.07724
3.10378
3.12706
3.14724
3.16521
3.18039
3.19413
3.20315
3.20273
3.1902
3.15339
3.04451
2.81259
2.21285
1.39413
1.05315
1.01165
1.01102
1.02347
1.0406
1.05757
1.08217
1.11797
1.1693
3.04655
3.07701
3.10403
3.12681
3.14749
3.16496
3.18065
3.19394
3.20358
3.20341
3.19617
3.16567
3.08404
2.87685
2.39119
1.57685
1.1075
1.03908
1.04182
1.05934
1.08135
1.10098
1.12432
1.15588
1.19892
3.04507
3.07853
3.10245
3.12845
3.14585
3.16664
3.17903
3.19565
3.20243
3.2075
3.20129
3.178
3.1119
2.93616
2.53953
1.74207
1.18731
1.06885
1.06475
1.08027
1.10468
1.13198
1.15839
1.18932
1.22838
3.04686
3.07669
3.1044
3.12641
3.14795
3.16443
3.18136
3.1934
3.20611
3.21062
3.20944
3.19076
3.14355
3.00474
2.71287
2.05708
1.35781
1.13904
1.11071
1.11401
1.13261
1.15931
1.18601
1.21654
1.25318
3.04566
3.07793
3.10312
3.12774
3.14662
3.16582
3.18002
3.19487
3.20519
3.21416
3.21078
3.20155
3.16253
3.06836
2.83837
2.28592
1.5594
1.22517
1.16668
1.15853
1.16871
1.18942
1.21521
1.24282
1.2754
3.0467
3.07687
3.10422
3.12661
3.14778
3.16463
3.18122
3.19368
3.20659
3.21357
3.21478
3.20854
3.18443
3.11364
2.94072
2.53212
1.78584
1.30189
1.19877
1.1883
1.19617
1.21649
1.2435
1.2709
1.29968
3.04596
3.07764
3.10342
3.12745
3.14691
3.16557
3.18025
3.19479
3.20562
3.21583
3.21815
3.21538
3.1972
3.14353
3.01846
2.69276
2.08272
1.46306
1.25855
1.22992
1.23082
1.24604
1.27096
1.29737
1.32504
3.04606
3.07753
3.10352
3.12735
3.147
3.16548
3.18033
3.19478
3.20576
3.21666
3.22172
3.22108
3.209
3.17559
3.08294
2.88927
2.36774
1.65298
1.33845
1.27483
1.26808
1.27569
1.2961
1.32298
1.35027
3.04648
3.07708
3.10398
3.12686
3.14748
3.16497
3.18083
3.19428
3.2063
3.21653
3.22372
3.22356
3.21755
3.19502
3.13198
2.98672
2.60399
1.92827
1.43354
1.30617
1.29108
1.29644
1.31429
1.34146
1.36976
3.04564
3.07794
3.10307
3.12782
3.14652
3.16592
3.17991
3.1952
3.20543
3.21753
3.22342
3.22702
3.22336
3.20768
3.16942
3.05933
2.82476
2.24759
1.61157
1.37012
1.32954
1.32668
1.33718
1.36013
1.38878
3.0458
3.07775
3.10318
3.12778
3.14662
3.16569
3.18027
3.19481
3.20574
3.21753
3.22442
3.23068
3.22848
3.21957
3.19262
3.12056
2.95127
2.55412
1.87676
1.46938
1.36941
1.35595
1.36034
1.37766
1.40404
3.04605
3.07753
3.10351
3.12735
3.14701
3.16544
3.18039
3.1947
3.20605
3.21709
3.22543
3.23243
3.2322
3.22797
3.21173
3.16209
3.04884
2.77485
2.19988
1.639
1.43688
1.4001
1.3939
1.40167
1.42103
3.04601
3.07757
3.10348
3.12738
3.14698
3.16548
3.18034
3.19478
3.20596
3.21726
3.22544
3.23373
3.23659
3.23542
3.22481
3.19434
3.11817
2.94688
2.50089
1.8588
1.52844
1.44083
1.42632
1.4288
1.44328
3.0464
3.07718
3.10389
3.12696
3.1474
3.16506
3.18076
3.19435
3.20639
3.21686
3.22591
3.23382
3.23902
3.23869
3.23288
3.21263
3.16666
3.04577
2.76307
2.17915
1.66228
1.48633
1.45439
1.45245
1.46073
3.04594
3.07764
3.1034
3.12746
3.14689
3.16558
3.18025
3.19487
3.20588
3.21739
3.22544
3.23439
3.23912
3.24126
3.23856
3.22644
3.20046
3.11591
2.95352
2.50294
1.91697
1.58418
1.49283
1.47821
1.48072
3.04596
3.07762
3.10341
3.12744
3.14691
3.16555
3.18029
3.19483
3.20593
3.21734
3.22559
3.23427
3.24029
3.24477
3.24314
3.23787
3.22021
3.17107
3.05494
2.79645
2.24266
1.74413
1.55433
1.51525
1.50775
3.04618
3.07739
3.10366
3.12718
3.14717
3.16528
3.18055
3.19455
3.20622
3.21703
3.22588
3.23414
3.2407
3.24604
3.24702
3.24472
3.23514
3.20496
3.13472
2.9751
2.5677
1.97797
1.65713
1.55676
1.5399
3.04622
3.07736
3.1037
3.12716
3.1472
3.16526
3.18057
3.19453
3.20623
3.21703
3.22587
3.23421
3.24072
3.24686
3.24975
3.24919
3.24351
3.2249
3.18438
3.07989
2.8334
2.31173
1.81018
1.61131
1.5684
3.04639
3.07718
3.10389
3.12695
3.14741
3.16503
3.1808
3.1943
3.20647
3.21678
3.22612
3.23397
3.24101
3.24686
3.25108
3.2511
3.2489
3.23834
3.2168
3.14564
3.01006
2.63955
2.0958
1.7264
1.60855
3.04609
3.07749
3.10356
3.12729
3.14706
3.1654
3.18043
3.19469
3.20608
3.21718
3.22574
3.23435
3.2407
3.24727
3.25154
3.25437
3.25323
3.24787
3.23603
3.19307
3.11407
2.90217
2.46268
1.92762
1.68785
3.04621
3.07736
3.1037
3.12715
3.1472
3.16525
3.18058
3.19453
3.20624
3.21701
3.22591
3.23418
3.2409
3.24715
3.25209
3.25602
3.25653
3.25477
3.24733
3.22477
3.17102
3.04918
2.73871
2.20466
1.80005
3.04636
3.07721
3.10385
3.12699
3.14737
3.16508
3.18075
3.19436
3.20641
3.21684
3.22608
3.23401
3.24105
3.24705
3.25227
3.2565
3.2587
3.25791
3.25435
3.23955
3.21419
3.1268
2.97615
2.54701
2.04713
3.04614
3.07744
3.10362
3.12724
3.14712
3.16534
3.18049
3.19463
3.20614
3.21712
3.2258
3.23431
3.24076
3.24737
3.25202
3.25708
3.25962
3.26052
3.25899
3.25179
3.23768
3.18976
3.09742
2.8639
2.39737
3.0461
3.07747
3.10358
3.12727
3.14708
3.16538
3.18045
3.19466
3.20611
3.21715
3.22577
3.23434
3.24075
3.24736
3.25209
3.2571
3.26032
3.26289
3.26208
3.25915
3.25081
3.22481
3.16788
3.0352
2.70369
3.04631
3.07727
3.1038
3.12705
3.14731
3.16514
3.18069
3.19442
3.20635
3.2169
3.22602
3.23408
3.241
3.2471
3.25235
3.25689
3.26077
3.26366
3.2644
3.2631
3.25873
3.24345
3.21325
3.13005
2.95584
3.04633
3.07724
3.10382
3.12703
3.14733
3.16512
3.18071
3.1944
3.20637
3.21687
3.22605
3.23404
3.24105
3.24707
3.25238
3.25691
3.26082
3.26407
3.26595
3.26564
3.26342
3.25415
3.23816
3.18306
3.08488
3.04619
3.07738
3.10367
3.12718
3.14717
3.16529
3.18055
3.19457
3.2062
3.21705
3.22587
3.23423
3.24085
3.24727
3.25219
3.2571
3.26069
3.26436
3.26642
3.26686
3.26574
3.26003
3.24956
3.21079
3.14234
3.04619
3.07738
3.10367
3.12718
3.14718
3.16528
3.18055
3.19456
3.20621
3.21705
3.22588
3.23423
3.24085
3.24728
3.25218
3.25712
3.26067
3.26442
3.2666
3.26774
3.26684
3.26236
3.25355
3.22044
3.16023
3.04617
3.0774
3.10365
3.1272
3.14715
3.1653
3.18053
3.19459
3.20618
3.21707
3.22585
3.23426
3.24083
3.24731
3.25216
3.25715
3.26066
3.26446
3.26669
3.26824
3.26741
3.2637
3.25497
3.22546
3.16256
3.04617
3.0774
3.10365
3.12719
3.14716
3.1653
3.18053
3.19457
3.20619
3.21706
3.22586
3.23425
3.24084
3.24729
3.25218
3.25713
3.26068
3.26445
3.26676
3.26839
3.26762
3.26404
3.25594
3.22636
3.16927
3.04619
3.07739
3.10367
3.12718
3.14717
3.16528
3.18055
3.19455
3.20621
3.21704
3.22588
3.23422
3.24087
3.24727
3.2522
3.25711
3.26071
3.26443
3.26682
3.2685
3.26778
3.26427
3.25654
3.2267
3.1712
3.04616
3.07741
3.10365
3.12721
3.14715
3.1653
3.18052
3.19457
3.20619
3.21704
3.2259
3.2342
3.2409
3.24725
3.25221
3.2571
3.26073
3.2644
3.26689
3.26893
3.26822
3.26535
3.25686
3.231
3.16959
3.04617
3.0774
3.10365
3.12719
3.14716
3.16529
3.18054
3.19457
3.2062
3.21705
3.22587
3.23424
3.24085
3.24729
3.25218
3.25713
3.2607
3.26445
3.26683
3.26864
3.26792
3.26469
3.25695
3.22886
3.1738
3.04618
3.07739
3.10366
3.12719
3.14717
3.16529
3.18054
3.19456
3.2062
3.21705
3.22587
3.23423
3.24085
3.24728
3.25218
3.25712
3.2607
3.26445
3.26682
3.26857
3.26786
3.26451
3.25683
3.22792
3.17337
2.96807
2.95149
2.94166
2.9346
2.9303
2.92647
2.92417
2.91973
2.91152
2.88326
2.83103
2.69391
2.35995
1.72196
0.647966
0.22314
0.345143
0.468161
0.505582
0.515997
0.53543
0.569285
0.627627
0.710572
0.881818
2.96826
2.95141
2.94177
2.93458
2.93037
2.92648
2.92425
2.92002
2.91247
2.88785
2.8352
2.71309
2.38411
1.78784
0.73681
0.283266
0.388064
0.486124
0.529259
0.548924
0.579145
0.62767
0.701924
0.807343
0.974381
2.968
2.95155
2.94158
2.93468
2.93023
2.92658
2.92432
2.92072
2.91361
2.88914
2.84352
2.72375
2.42384
1.85126
0.825679
0.3638
0.426804
0.495473
0.547165
0.578415
0.618887
0.677836
0.759296
0.865767
1.00523
2.96772
2.95191
2.94126
2.93507
2.92988
2.92699
2.92401
2.92138
2.9147
2.89554
2.85015
2.75047
2.46358
1.93931
0.975588
0.464746
0.458931
0.510557
0.564049
0.604073
0.653169
0.716101
0.797868
0.897887
1.01849
2.96786
2.95178
2.94139
2.93496
2.92996
2.92696
2.92396
2.92161
2.91392
2.89994
2.85863
2.75954
2.54173
1.99116
1.11284
0.570167
0.490274
0.529078
0.580724
0.625973
0.680112
0.745662
0.825067
0.917037
1.02461
2.96797
2.95161
2.94153
2.93476
2.93014
2.92672
2.92434
2.92167
2.91702
2.9002
2.87014
2.78555
2.58006
2.16674
1.28087
0.690076
0.522684
0.552059
0.600175
0.648341
0.702424
0.766295
0.844795
0.929964
1.02639
2.96824
2.95136
2.94177
2.93453
2.93037
2.92652
2.92458
2.9217
2.9181
2.90384
2.88007
2.80885
2.64597
2.30229
1.53587
0.833196
0.582689
0.595221
0.632511
0.678057
0.727057
0.785254
0.858358
0.939948
1.02689
2.9679
2.9517
2.94143
2.93487
2.93001
2.92689
2.92419
2.92227
2.91813
2.91041
2.88603
2.83451
2.70877
2.41267
1.78493
0.981164
0.655651
0.649892
0.674123
0.713718
0.756324
0.806211
0.870604
0.945933
1.02695
2.96776
2.95179
2.94133
2.93493
2.92994
2.92694
2.92418
2.92252
2.91931
2.9133
2.89357
2.8518
2.75301
2.49335
1.99606
1.12567
0.723032
0.693835
0.715498
0.747185
0.785223
0.830089
0.885191
0.952101
1.02646
2.96823
2.9514
2.94175
2.93457
2.93034
2.92661
2.92459
2.92238
2.92051
2.91548
2.89802
2.86833
2.78235
2.57973
2.17268
1.33135
0.838776
0.731579
0.748361
0.773627
0.810069
0.851208
0.899959
0.959056
1.0261
2.96806
2.95153
2.94162
2.93467
2.93025
2.92666
2.92457
2.92236
2.9207
2.9156
2.90639
2.87681
2.81565
2.66419
2.30771
1.60688
0.978512
0.785845
0.782098
0.802179
0.835561
0.873844
0.917228
0.968401
1.02776
2.96809
2.95153
2.94163
2.93469
2.93025
2.92669
2.92458
2.92247
2.92098
2.91738
2.91062
2.88808
2.8453
2.72811
2.47915
1.89317
1.16968
0.867278
0.827866
0.837327
0.862342
0.897063
0.936023
0.980898
1.03291
2.96775
2.95184
2.94131
2.93499
2.92994
2.927
2.92426
2.92286
2.9209
2.91923
2.91248
2.89992
2.86486
2.77865
2.5947
2.124
1.35916
0.950432
0.870469
0.873415
0.891202
0.921559
0.956398
0.995798
1.04116
2.96767
2.95192
2.94123
2.93506
2.92986
2.92706
2.9242
2.92291
2.92108
2.91978
2.91609
2.90399
2.88046
2.8182
2.6614
2.34476
1.64527
1.09108
0.922167
0.909401
0.920513
0.945428
0.977297
1.0127
1.05269
2.96803
2.95159
2.94156
2.93475
2.93017
2.92678
2.92449
2.92268
2.92138
2.91994
2.91761
2.90836
2.89315
2.84482
2.74726
2.51201
2.00537
1.29955
1.00742
0.958819
0.959587
0.975924
1.0021
1.03178
1.06619
2.96812
2.95146
2.94167
2.93462
2.93029
2.92662
2.92464
2.92252
2.92155
2.91992
2.91836
2.91194
2.90156
2.86611
2.79829
2.63136
2.22354
1.54186
1.09968
0.997835
0.99296
1.00333
1.02672
1.05512
1.08525
2.96808
2.9515
2.94162
2.93468
2.93024
2.92666
2.92461
2.92255
2.92154
2.92008
2.91891
2.91467
2.90736
2.88195
2.83644
2.709
2.4393
1.84035
1.25817
1.06194
1.03015
1.03287
1.04913
1.07471
1.10348
2.96793
2.95167
2.94148
2.93482
2.9301
2.92683
2.92444
2.92274
2.92138
2.92036
2.91925
2.91749
2.91043
2.89819
2.86252
2.78064
2.60496
2.15598
1.47797
1.14477
1.07419
1.06675
1.07497
1.09535
1.12159
2.96803
2.95157
2.94158
2.93472
2.9302
2.92673
2.92453
2.92264
2.9215
2.92028
2.91961
2.91819
2.9148
2.90291
2.88321
2.82408
2.69361
2.41177
1.78752
1.28636
1.1253
1.10181
1.10406
1.11905
1.14158
2.96785
2.95175
2.9414
2.9349
2.93002
2.92692
2.92435
2.92283
2.92132
2.92049
2.91945
2.91869
2.91658
2.90869
2.89622
2.85546
2.77664
2.58744
2.14593
1.51338
1.20883
1.14366
1.13619
1.14226
1.16043
2.96795
2.95164
2.9415
2.93479
2.93012
2.9268
2.92446
2.92271
2.92143
2.92038
2.91958
2.91875
2.91747
2.91247
2.9044
2.8766
2.82613
2.69429
2.38894
1.80278
1.33163
1.19036
1.16879
1.16894
1.18186
2.96805
2.95154
2.9416
2.93469
2.93022
2.92671
2.92456
2.92262
2.92153
2.9203
2.91969
2.91873
2.91797
2.91516
2.90993
2.8924
2.86152
2.77033
2.59485
2.14281
1.55887
1.27309
1.20726
1.19866
1.2032
2.96804
2.95156
2.94158
2.93472
2.9302
2.92674
2.92454
2.92265
2.9215
2.92032
2.91968
2.91881
2.91828
2.91666
2.91344
2.90172
2.88277
2.82421
2.70474
2.4317
1.85636
1.41274
1.2603
1.23105
1.22872
2.96794
2.95166
2.94149
2.93481
2.9301
2.92683
2.92444
2.92274
2.9214
2.92042
2.91959
2.91895
2.91837
2.91765
2.91563
2.90843
2.89681
2.86017
2.78707
2.6151
2.21619
1.63622
1.34817
1.27425
1.25998
2.96789
2.95172
2.94144
2.93487
2.93005
2.92689
2.92438
2.9228
2.92135
2.92048
2.91953
2.91902
2.91833
2.9179
2.91675
2.91236
2.90528
2.88135
2.83828
2.72304
2.46994
1.93572
1.48975
1.32833
1.29489
2.96794
2.95165
2.9415
2.9348
2.93011
2.92682
2.92445
2.92273
2.92142
2.92041
2.9196
2.91896
2.91841
2.91797
2.91735
2.91556
2.90955
2.89893
2.86883
2.80091
2.65346
2.28577
1.72197
1.42086
1.3331
2.96802
2.95158
2.94157
2.93473
2.93018
2.92675
2.92452
2.92267
2.92148
2.92035
2.91967
2.9189
2.91849
2.91789
2.91756
2.91638
2.91386
2.90534
2.89048
2.84698
2.75414
2.54437
2.08837
1.59603
1.39636
2.96792
2.95168
2.94147
2.93483
2.93009
2.92685
2.92442
2.92277
2.92138
2.92045
2.91957
2.91899
2.91839
2.91803
2.91751
2.91702
2.91511
2.91151
2.89998
2.87851
2.81851
2.69586
2.39096
1.86827
1.51358
2.9679
2.9517
2.94145
2.93485
2.93007
2.92687
2.9244
2.92278
2.92136
2.92046
2.91955
2.91901
2.91837
2.91805
2.91754
2.91724
2.91626
2.91423
2.90717
2.89535
2.85951
2.78914
2.61802
2.24721
1.71587
2.96799
2.9516
2.94154
2.93476
2.93016
2.92678
2.92449
2.92269
2.92146
2.92037
2.91964
2.91892
2.91847
2.91795
2.91767
2.91722
2.91682
2.91527
2.91247
2.90271
2.88644
2.8377
2.73842
2.50928
2.03125
2.96801
2.95159
2.94156
2.93475
2.93017
2.92677
2.9245
2.92268
2.92147
2.92036
2.91965
2.91892
2.91848
2.91795
2.91768
2.91726
2.91703
2.91629
2.91467
2.90892
2.89968
2.87058
2.81318
2.67785
2.35387
2.96792
2.95168
2.94147
2.93483
2.93008
2.92685
2.92442
2.92277
2.92138
2.92045
2.91957
2.919
2.9184
2.91803
2.9176
2.91736
2.91699
2.9167
2.91553
2.91322
2.90598
2.89238
2.85493
2.77772
2.58915
2.96791
2.95168
2.94146
2.93484
2.93008
2.92686
2.92441
2.92277
2.92138
2.92045
2.91956
2.919
2.91839
2.91804
2.9176
2.91737
2.91703
2.91683
2.91629
2.91433
2.91091
2.8998
2.87997
2.82493
2.70943
2.96796
2.95164
2.94151
2.93479
2.93012
2.92681
2.92446
2.92272
2.92142
2.9204
2.91961
2.91896
2.91844
2.91799
2.91764
2.91733
2.91708
2.91681
2.91645
2.91498
2.91254
2.90348
2.88918
2.84241
2.75407
2.96798
2.95162
2.94153
2.93477
2.93014
2.92679
2.92448
2.9227
2.92144
2.92038
2.91963
2.91894
2.91846
2.91798
2.91766
2.91731
2.9171
2.91681
2.91652
2.91533
2.91329
2.90561
2.8932
2.85267
2.76921
2.96799
2.95161
2.94154
2.93477
2.93015
2.92678
2.92448
2.9227
2.92145
2.92038
2.91964
2.91893
2.91847
2.91797
2.91767
2.9173
2.91711
2.9168
2.91655
2.91549
2.91365
2.90656
2.89521
2.85754
2.77942
2.96797
2.95163
2.94152
2.93478
2.93013
2.9268
2.92447
2.92271
2.92143
2.92039
2.91962
2.91894
2.91845
2.91798
2.91765
2.91732
2.91709
2.91685
2.91663
2.91597
2.91369
2.90887
2.89683
2.86406
2.79444
2.96799
2.95161
2.94154
2.93476
2.93016
2.92678
2.92449
2.92269
2.92146
2.92037
2.91965
2.91892
2.91848
2.91796
2.91768
2.91729
2.91712
2.91679
2.9166
2.91573
2.91407
2.9083
2.89722
2.86542
2.78831
2.96798
2.95162
2.94153
2.93478
2.93014
2.92679
2.92447
2.92271
2.92144
2.92039
2.91962
2.91894
2.91845
2.91798
2.91765
2.91732
2.91709
2.91685
2.91664
2.916
2.91351
2.90934
2.89635
2.86652
2.79566
2.96798
2.95162
2.94152
2.93478
2.93014
2.9268
2.92447
2.92271
2.92144
2.92039
2.91962
2.91894
2.91845
2.91798
2.91765
2.91732
2.91709
2.91685
2.91664
2.91602
2.91353
2.9094
2.89643
2.86687
2.79615
2.98639
2.96957
2.95171
2.93483
2.91988
2.90663
2.89499
2.88352
2.8689
2.83354
2.76995
2.61309
2.25095
1.56158
0.457817
0.254214
0.324273
0.446727
0.48011
0.501171
0.52864
0.579089
0.658977
0.765278
0.959943
2.98641
2.96955
2.95173
2.93481
2.9199
2.90662
2.89505
2.8837
2.86962
2.83602
2.77662
2.6275
2.28587
1.62606
0.541187
0.249654
0.360943
0.468784
0.506286
0.535819
0.576005
0.638556
0.730994
0.853964
1.04093
2.98575
2.97021
2.95107
2.93548
2.91921
2.90737
2.89427
2.88504
2.86988
2.84515
2.77919
2.64272
2.35026
1.67996
0.67594
0.275782
0.394712
0.483081
0.527953
0.567104
0.62015
0.690675
0.786274
0.905933
1.0563
2.98671
2.96924
2.95202
2.93454
2.92016
2.90647
2.89525
2.88433
2.87185
2.84871
2.78926
2.66428
2.39911
1.76577
0.78723
0.340286
0.419002
0.487272
0.545535
0.594142
0.656336
0.732387
0.823926
0.934059
1.06006
2.98581
2.97014
2.95116
2.93538
2.91937
2.90719
2.89469
2.88479
2.87246
2.84983
2.80168
2.69921
2.42053
1.91344
0.913419
0.425766
0.422494
0.492445
0.561313
0.617853
0.684451
0.761246
0.849805
0.948406
1.05869
2.98669
2.96926
2.95201
2.93452
2.92021
2.90637
2.89552
2.88414
2.87318
2.85013
2.81216
2.71024
2.4823
2.02363
1.06332
0.530028
0.424826
0.492194
0.572629
0.635772
0.704991
0.782591
0.867115
0.958214
1.0553
2.98687
2.96908
2.95218
2.93435
2.92037
2.90622
2.89571
2.88419
2.87437
2.85464
2.82274
2.73647
2.5486
2.15998
1.29671
0.655494
0.450801
0.504952
0.587545
0.651376
0.719706
0.796306
0.879594
0.964009
1.05256
2.98693
2.96903
2.95223
2.93431
2.92041
2.90619
2.8958
2.88434
2.87559
2.85958
2.83322
2.76443
2.61374
2.30608
1.59341
0.792977
0.508762
0.5484
0.610614
0.670221
0.733734
0.806345
0.886551
0.968664
1.0495
2.98688
2.96907
2.95219
2.93434
2.92037
2.90622
2.8958
2.88453
2.87648
2.86335
2.84179
2.78399
2.66519
2.40604
1.8051
0.92138
0.573914
0.595763
0.636137
0.691014
0.748426
0.814711
0.890186
0.968814
1.04685
2.98663
2.96934
2.95192
2.93463
2.92007
2.90657
2.89542
2.88513
2.87609
2.86533
2.84323
2.80407
2.70375
2.46945
2.00714
1.08618
0.675266
0.622612
0.658856
0.709499
0.762857
0.822331
0.892126
0.966583
1.04123
2.9864
2.96956
2.95171
2.93484
2.91988
2.90676
2.89525
2.88536
2.87619
2.86706
2.85012
2.81757
2.74205
2.55268
2.18822
1.37227
0.803171
0.650535
0.680747
0.724438
0.775351
0.829674
0.892652
0.963061
1.0344
2.98663
2.96934
2.95194
2.93462
2.92011
2.90653
2.89552
2.88512
2.87681
2.86773
2.85622
2.82596
2.77401
2.63528
2.34526
1.70734
0.952578
0.711383
0.715222
0.744231
0.79066
0.840141
0.895614
0.958575
1.02692
2.98588
2.97008
2.95122
2.93533
2.91942
2.9072
2.89488
2.88579
2.87638
2.869
2.85889
2.83807
2.79525
2.6996
2.45636
1.97072
1.13393
0.78396
0.745703
0.767553
0.80678
0.852537
0.901614
0.957501
1.01894
2.98756
2.9684
2.95286
2.93371
2.92101
2.90566
2.89639
2.88436
2.87782
2.86821
2.86172
2.84648
2.81198
2.7359
2.57273
2.16104
1.3962
0.907198
0.781674
0.794322
0.823326
0.86586
0.909872
0.958941
1.0135
2.98618
2.96977
2.9515
2.93504
2.91969
2.90693
2.89514