/*--------------------------------*- C++ -*----------------------------------*\
  =========                 |
  \\      /  F ield         | OpenFOAM: The Open Source CFD Toolbox
   \\    /   O peration     | Website:  https://openfoam.org
    \\  /    A nd           | Version:  6
     \\/     M anipulation  |
\*---------------------------------------------------------------------------*/
FoamFile
{
    version     2.0;
    format      ascii;
    class       volScalarField;
    location    "4.5";
    object      p;
}
// * * * * * * * * * * * * * * * * * * * * * * * * * * * * * * * * * * * * * //

dimensions      [1 -1 -2 0 0 0 0];

internalField   nonuniform List<scalar> 
26250
(
0.957649
0.911022
0.875218
0.843948
0.82048
0.796993
0.782939
0.763636
0.763752
0.773525
0.782736
0.907189
1.03157
1.89242
3.54665
8.28264
8.02952
7.366
6.81997
6.76115
6.78117
6.87819
7.13339
7.66805
8.41896
0.957649
0.911019
0.87522
0.843943
0.820487
0.796984
0.782951
0.763608
0.763717
0.773374
0.78253
0.906385
1.03001
1.88746
3.5322
8.25268
8.00803
7.35164
6.79704
6.73477
6.77715
6.90149
7.17149
7.67967
8.44094
0.957641
0.91102
0.875221
0.843936
0.820505
0.796956
0.78299
0.763511
0.763604
0.773026
0.782035
0.904899
1.02709
1.88022
3.51133
8.22575
7.96219
7.29338
6.75934
6.70934
6.76159
6.90246
7.19195
7.67904
8.43613
0.957591
0.91108
0.875187
0.843979
0.820487
0.796947
0.783027
0.763141
0.763008
0.771869
0.780374
0.900833
1.02018
1.86532
3.47678
8.12068
7.8881
7.26463
6.74281
6.70167
6.74409
6.87995
7.17494
7.66887
8.42612
0.957488
0.911227
0.875073
0.844146
0.82028
0.797294
0.782491
0.764374
0.762683
0.765552
0.802609
0.837977
1.13587
1.63594
3.54477
7.95223
7.78267
7.20534
6.70291
6.65871
6.70236
6.83774
7.13554
7.64052
8.41401
0.957542
0.911143
0.875131
0.844067
0.820395
0.797083
0.782884
0.763356
0.763375
0.769451
0.77718
0.891418
1.0031
1.81932
3.35688
7.82712
7.65544
7.14642
6.63983
6.59026
6.63636
6.77407
7.07386
7.58221
8.38468
0.957492
0.911225
0.875056
0.844183
0.820208
0.797419
0.782245
0.764631
0.761402
0.764133
0.798801
0.83141
1.11444
1.58249
3.38802
7.58614
7.48961
7.04635
6.55996
6.50565
6.55229
6.68788
6.98137
7.4814
8.31485
0.957565
0.911119
0.875165
0.844011
0.820459
0.79698
0.782979
0.763194
0.763195
0.768634
0.775756
0.882735
0.983194
1.75425
3.14693
7.384
7.30211
6.95734
6.46757
6.40394
6.44706
6.57211
6.84418
7.31334
8.16014
0.957614
0.911061
0.87519
0.843959
0.820491
0.796929
0.783027
0.763121
0.763133
0.768359
0.775514
0.876933
0.973474
1.69933
3.01458
7.09975
7.08502
6.83321
6.3639
6.28773
6.32278
6.42586
6.65249
7.04415
7.83187
0.957776
0.910861
0.875255
0.84395
0.820361
0.797227
0.782459
0.764048
0.761313
0.76567
0.771836
0.867075
0.951952
1.66356
2.87985
6.76237
6.89655
6.68534
6.25993
6.1621
6.18292
6.24827
6.39293
6.62725
7.13029
1.03457
1.06944
1.09339
1.10981
1.12289
1.13222
1.14047
1.14822
1.16137
1.20133
1.25848
1.50095
1.90554
3.45189
7.56842
17.5102
15.7364
14.0103
13.4822
13.6597
13.6483
13.7983
14.1858
14.6874
15.1283
1.03457
1.06943
1.0934
1.1098
1.12289
1.13221
1.14048
1.14821
1.16132
1.20118
1.25811
1.50007
1.90307
3.44505
7.54655
17.4263
15.6919
13.9532
13.4082
13.4918
13.6411
13.8311
14.1862
14.6394
15.0949
1.03456
1.06943
1.0934
1.1098
1.1229
1.1322
1.14049
1.14817
1.16119
1.20077
1.25742
1.49747
1.89823
3.42905
7.50333
17.4082
15.5636
13.8316
13.316
13.4095
13.5933
13.7847
14.1223
14.518
14.9925
1.03454
1.06945
1.09338
1.10981
1.1229
1.13219
1.14049
1.14808
1.16095
1.20003
1.2563
1.49298
1.89068
3.403
7.43297
17.1646
15.4139
13.6971
13.242
13.4111
13.4859
13.6512
13.9698
14.3223
14.81
1.03449
1.0695
1.09334
1.10988
1.12283
1.13227
1.14039
1.14789
1.15985
1.2002
1.24662
1.4962
1.85984
3.37098
7.36199
16.8701
15.211
13.5234
13.0891
13.2263
13.3324
13.4723
13.7559
14.0683
14.5666
1.03451
1.06948
1.09336
1.10985
1.12287
1.13221
1.14048
1.14785
1.16034
1.1979
1.25279
1.47865
1.86298
3.30876
7.16406
16.5934
14.9723
13.3111
12.8937
13.0216
13.137
13.2511
13.4902
13.7504
14.2479
1.03449
1.06952
1.09332
1.1099
1.12279
1.13232
1.1403
1.14784
1.15928
1.19761
1.24197
1.47954
1.82086
3.25214
6.99236
16.1487
14.688
13.0682
12.6612
12.7654
12.8978
12.9789
13.1594
13.3488
13.8188
1.03453
1.06946
1.09338
1.10982
1.12289
1.13217
1.14048
1.14764
1.15956
1.19505
1.2467
1.46002
1.8105
3.17661
6.69238
15.7216
14.366
12.8025
12.4003
12.488
12.6052
12.6458
12.7504
12.8397
13.2298
1.03456
1.06942
1.0934
1.10978
1.12291
1.13214
1.14046
1.14761
1.15912
1.19351
1.24151
1.45211
1.76888
3.12153
6.38542
15.1428
13.9919
12.5079
12.1143
12.1815
12.2583
12.2463
12.2435
12.1792
12.3781
1.03461
1.06938
1.09344
1.10973
1.12294
1.13212
1.14043
1.14752
1.15839
1.1913
1.23561
1.43971
1.73137
3.04497
6.08505
14.4771
13.5616
12.1813
11.8101
11.8516
11.8644
11.7936
11.6334
11.29
11.063
1.00893
1.03178
1.05929
1.08751
1.1132
1.13837
1.15842
1.18251
1.20221
1.25416
1.32886
1.62043
2.10785
3.92527
8.94429
20.5182
18.0018
16.0126
15.4791
15.6379
15.7857
15.9107
16.2679
16.658
16.9678
1.00892
1.03178
1.05929
1.08751
1.1132
1.13835
1.15844
1.18246
1.20224
1.25367
1.3296
1.6177
2.1095
3.91961
8.93299
20.4131
17.9338
15.9556
15.4578
15.6409
15.7832
15.8684
16.2059
16.5635
16.8789
1.00892
1.03178
1.05929
1.08751
1.1132
1.13836
1.15843
1.18248
1.20205
1.2537
1.32775
1.61748
2.10076
3.90466
8.8752
20.2794
17.7967
15.8244
15.3799
15.6143
15.7305
15.7566
16.0501
16.3443
16.6635
1.00892
1.03178
1.05929
1.0875
1.11321
1.13835
1.15844
1.18241
1.20196
1.25279
1.32756
1.61194
2.09582
3.87882
8.80063
20.1137
17.6038
15.6366
15.24
15.513
15.6051
15.5801
15.8153
16.0385
16.3523
1.00891
1.03179
1.05929
1.0875
1.11322
1.13833
1.15846
1.1823
1.20178
1.25155
1.32677
1.60433
2.08614
3.83822
8.67305
19.8006
17.3529
15.4095
15.0543
15.3577
15.4261
15.3583
15.5212
15.664
15.9642
1.00892
1.03178
1.05929
1.0875
1.11322
1.13833
1.15843
1.18228
1.20138
1.25063
1.32343
1.5975
2.06429
3.77676
8.47137
19.4211
17.0659
15.145
14.8174
15.1255
15.1956
15.0874
15.1649
15.2163
15.4844
1.00893
1.03177
1.0593
1.08749
1.11322
1.13833
1.15841
1.18221
1.20101
1.2489
1.32064
1.58574
2.04055
3.69558
8.21568
18.977
16.7392
14.8455
14.5366
14.8258
14.9024
14.754
14.7347
14.6719
14.8752
1.00895
1.03175
1.05931
1.08747
1.11322
1.13832
1.15837
1.18216
1.20048
1.24711
1.31648
1.57332
2.00946
3.60072
7.90173
18.4379
16.3645
14.5128
14.2148
14.4643
14.5316
14.3528
14.2241
14.0132
14.0983
1.00896
1.03173
1.05933
1.08744
1.11324
1.1383
1.15835
1.18205
1.20004
1.24454
1.31354
1.55636
1.98036
3.49475
7.55974
17.7969
15.9358
14.1493
13.8599
14.0612
14.0927
13.8717
13.6131
13.1996
13.0495
1.00897
1.03169
1.05939
1.08734
1.11338
1.13809
1.15854
1.18171
1.19901
1.24271
1.30641
1.54452
1.93592
3.38797
7.21159
17.0376
15.4488
13.7571
13.4821
13.6318
13.606
13.3222
12.8892
12.1959
11.5832
1.03453
1.06945
1.09337
1.10982
1.12288
1.13221
1.14048
1.14818
1.16123
1.20106
1.25802
1.50026
1.90583
3.45516
7.59405
17.5351
15.7442
13.9754
13.3971
13.4664
13.6311
13.8419
14.2301
14.7121
15.1933
1.03448
1.06951
1.09332
1.1099
1.1228
1.13231
1.14036
1.14806
1.1603
1.20198
1.24978
1.5078
1.88681
3.45509
7.63075
17.5711
15.6644
13.9294
13.4324
13.6193
13.6185
13.7685
14.1635
14.6477
15.1196
1.03451
1.06948
1.09334
1.10986
1.12285
1.13225
1.14046
1.14811
1.16106
1.20047
1.25719
1.49636
1.89989
3.43387
7.54054
17.3613
15.5721
13.8451
13.3797
13.5567
13.5717
13.7054
14.0616
14.5026
14.9649
1.03446
1.06953
1.0933
1.10992
1.12279
1.13232
1.14037
1.14798
1.16013
1.20112
1.24853
1.5024
1.87495
3.4163
7.51078
17.1418
15.4087
13.7005
13.2439
13.3582
13.4722
13.6201
13.9232
14.2959
14.7677
1.03445
1.06955
1.09329
1.10993
1.12279
1.13232
1.14037
1.14789
1.15996
1.20029
1.24733
1.49727
1.86318
3.37894
7.39562
16.9152
15.1947
13.5143
13.0935
13.2446
13.3343
13.4675
13.7268
14.0365
14.5203
1.03447
1.06953
1.09331
1.10991
1.1228
1.13231
1.14034
1.14787
1.15966
1.19913
1.24499
1.48955
1.84506
3.32374
7.21947
16.5522
14.961
13.3088
12.895
13.012
13.1464
13.2555
13.4698
13.7185
14.1998
1.03454
1.06944
1.09339
1.10979
1.12292
1.13213
1.14052
1.14773
1.15998
1.19665
1.25045
1.46985
1.84199
3.24073
6.94833
16.1988
14.6989
13.0779
12.6677
12.7703
12.908
12.9835
13.1415
13.3169
13.7722
1.03456
1.06942
1.09342
1.10975
1.12295
1.13209
1.14053
1.14762
1.15956
1.19522
1.24608
1.46216
1.80581
3.1834
6.67423
15.6765
14.3781
12.8185
12.4095
12.4961
12.6141
12.65
12.7348
12.8071
13.186
1.03457
1.06941
1.09341
1.10976
1.12292
1.13212
1.14046
1.14761
1.15913
1.19354
1.2417
1.45215
1.76954
3.12195
6.38393
15.1441
14.0019
12.5172
12.122
12.1888
12.2657
12.2519
12.2314
12.145
12.3399
1.0346
1.06937
1.09343
1.10973
1.12294
1.13211
1.14044
1.14751
1.15841
1.19136
1.23573
1.44
1.73199
3.04577
6.08626
14.4772
13.564
12.183
11.8152
11.8574
11.8707
11.7979
11.6262
11.2618
11.0305
0.957587
0.911074
0.875181
0.84398
0.820477
0.796965
0.783002
0.763262
0.763258
0.772253
0.781161
0.904771
1.0284
1.89316
3.56924
8.31176
8.03997
7.33297
6.76885
6.70707
6.75536
6.89293
7.18485
7.69245
8.44884
0.957476
0.911239
0.875056
0.844158
0.820257
0.797321
0.782467
0.764498
0.763036
0.766214
0.805198
0.842687
1.15518
1.69343
3.68472
8.29133
8.02257
7.28593
6.77518
6.73515
6.76143
6.87268
7.1492
7.69195
8.43526
0.957549
0.911122
0.875136
0.844053
0.820399
0.797086
0.782884
0.763505
0.763544
0.771149
0.779676
0.900423
1.01984
1.87765
3.54395
8.23927
7.97314
7.28895
6.77226
6.72907
6.75578
6.8646
7.13588
7.6849
8.42175
0.957442
0.911275
0.875025
0.844205
0.820225
0.797362
0.782475
0.764471
0.763387
0.766607
0.806133
0.843814
1.15139
1.66465
3.62031
8.08328
7.88197
7.24509
6.74118
6.69233
6.73206
6.85446
7.13003
7.66488
8.42074
0.957428
0.911298
0.875007
0.844239
0.820188
0.797405
0.782436
0.764436
0.763508
0.766766
0.805664
0.842273
1.14293
1.63701
3.56593
7.95935
7.77194
7.17219
6.69288
6.6538
6.69502
6.82291
7.10452
7.62499
8.40789
0.95746
0.911257
0.875036
0.844201
0.820209
0.797398
0.782353
0.764544
0.762469
0.76546
0.802724
0.837524
1.13042
1.6134
3.48731
7.78917
7.64356
7.11439
6.63278
6.58732
6.63295
6.76506
7.05011
7.56175
8.37221
0.957575
0.911087
0.875187
0.84397
0.820507
0.796913
0.783055
0.763021
0.762935
0.770007
0.777792
0.88966
0.997493
1.78934
3.25504
7.62478
7.49481
7.05899
6.55724
6.50063
6.54673
6.67753
6.95757
7.45826
8.29401
0.957607
0.911052
0.875227
0.843904
0.820577
0.796801
0.783157
0.762863
0.762812
0.769627
0.777159
0.884458
0.986831
1.7461
3.1367
7.37378
7.30499
6.9739
6.47119
6.40201
6.44353
6.56308
6.82147
7.28934
8.1336
0.957626
0.911042
0.875202
0.843931
0.820508
0.796899
0.783043
0.763091
0.7631
0.768429
0.775606
0.87717
0.973472
1.69987
3.01389
7.09867
7.09417
6.84391
6.36962
6.28927
6.32228
6.41973
6.63314
7.021
7.80411
0.957764
0.910856
0.875246
0.843947
0.820368
0.797217
0.782491
0.764013
0.761394
0.765785
0.772009
0.867304
0.952096
1.664
2.88025
6.76292
6.89913
6.68799
6.2629
6.16367
6.18281
6.2436
6.37872
6.60717
7.10548
0.957457
0.911333
0.874925
0.844374
0.819914
0.797807
0.781612
0.765041
0.758756
0.760636
0.787706
0.811341
1.05046
1.392
2.88625
6.31794
6.67574
6.51147
6.15853
6.02964
6.02978
6.03624
6.03146
5.94319
5.38512
0.957678
0.911022
0.875076
0.844253
0.819944
0.797854
0.781455
0.765218
0.758079
0.761642
0.766773
0.849959
0.926037
1.52955
2.58825
5.93209
6.4266
6.30864
6.04339
5.89995
5.85853
5.80952
5.70458
5.45729
4.83491
0.957388
0.911449
0.874783
0.844597
0.819611
0.79824
0.780923
0.765717
0.75612
0.75746
0.779494
0.798279
1.00477
1.27074
2.56011
5.47874
6.15201
6.09244
5.92573
5.77349
5.69415
5.5998
5.44352
5.16718
4.62696
0.957607
0.911155
0.87489
0.844507
0.819568
0.798377
0.780629
0.766103
0.755191
0.757857
0.762072
0.830665
0.893037
1.37289
2.20885
4.92609
5.93028
5.90863
5.81622
5.6572
5.54486
5.41503
5.22665
4.94178
4.49538
0.957552
0.911249
0.874763
0.844695
0.819292
0.798784
0.780007
0.766834
0.753161
0.755604
0.758865
0.81641
0.868629
1.26882
1.94287
4.24159
5.77111
5.79298
5.72654
5.5732
5.41599
5.2584
5.05589
4.77586
4.39076
0.957341
0.911548
0.874566
0.844961
0.819049
0.79908
0.77963
0.767122
0.751949
0.752298
0.763507
0.773642
0.89634
1.0315
1.79273
3.37532
5.63431
5.75871
5.68634
5.51047
5.30833
5.12801
4.92092
4.65339
4.31026
0.957339
0.911543
0.874535
0.845029
0.818935
0.799278
0.779297
0.767511
0.750581
0.750545
0.758349
0.765855
0.859305
0.94927
1.55854
2.59511
5.3393
5.68991
5.62293
5.45188
5.21312
5.01611
4.80961
4.55804
4.24907
0.957346
0.911524
0.874541
0.845026
0.818932
0.799295
0.779261
0.767542
0.750401
0.750368
0.75441
0.761409
0.831667
0.905414
1.38856
2.20881
4.72617
5.52072
5.48921
5.37076
5.12836
4.91879
4.71381
4.47857
4.19956
0.95724
0.911656
0.874529
0.844982
0.819103
0.798965
0.77982
0.766581
0.751712
0.747449
0.749819
0.755144
0.810556
0.872653
1.25033
1.91849
4.0367
5.28514
5.31448
5.24848
5.08016
4.84526
4.63545
4.41288
4.15866
0.957462
0.911307
0.874819
0.844579
0.819581
0.798285
0.780751
0.765116
0.753374
0.742325
0.742901
0.755215
0.765811
0.883092
1.01467
1.70522
3.1096
5.02479
5.22121
5.17215
5.03563
4.79675
4.58064
4.36413
4.12744
0.957406
0.911373
0.874831
0.844503
0.819741
0.797996
0.781186
0.764416
0.754146
0.740238
0.740929
0.743093
0.773592
0.804186
1.00409
1.33005
2.41818
4.54682
5.09758
5.07723
4.98455
4.78252
4.54845
4.32986
4.10464
0.957501
0.911242
0.87491
0.844421
0.819795
0.797949
0.781206
0.764391
0.754081
0.739902
0.739682
0.742391
0.747811
0.806509
0.865392
1.25187
1.88593
3.85677
4.912
4.96227
4.90968
4.76807
4.5226
4.30162
4.08625
0.957407
0.911394
0.874777
0.84461
0.819555
0.798297
0.780686
0.765161
0.752788
0.741465
0.735002
0.736176
0.74914
0.763741
0.871563
1.01751
1.65663
2.94233
4.63829
4.88028
4.84523
4.73665
4.51479
4.28772
4.07504
0.957389
0.91143
0.874716
0.844715
0.819398
0.798544
0.780318
0.765698
0.751923
0.742392
0.731856
0.732151
0.740218
0.747447
0.825433
0.900838
1.3767
2.14022
4.12711
4.74185
4.73435
4.67483
4.52015
4.28804
4.07278
0.957414
0.911391
0.874722
0.844723
0.819364
0.798618
0.780196
0.765896
0.751584
0.742754
0.730512
0.73049
0.733947
0.738819
0.791616
0.840168
1.17962
1.70394
3.3491
4.51593
4.64801
4.61284
4.50873
4.29434
4.07513
0.957328
0.911503
0.874673
0.844772
0.819367
0.798577
0.780311
0.765671
0.751967
0.742031
0.731454
0.727771
0.729364
0.733344
0.765135
0.806401
1.00695
1.35722
2.38204
4.18862
4.56135
4.54606
4.47798
4.31652
4.08574
0.957347
0.911468
0.874707
0.844719
0.819452
0.798436
0.780535
0.765312
0.752521
0.741074
0.732631
0.724026
0.724822
0.726541
0.748908
0.77181
0.914587
1.12756
1.90303
3.464
4.37125
4.45704
4.42229
4.31736
4.10717
0.957385
0.911413
0.87475
0.844654
0.819513
0.798359
0.780624
0.765196
0.75266
0.740876
0.732628
0.723158
0.721543
0.722955
0.735405
0.749379
0.845895
0.967609
1.51427
2.56205
4.03812
4.36627
4.35416
4.29497
4.15132
0.95739
0.911414
0.874741
0.844665
0.819479
0.798415
0.780523
0.765368
0.752366
0.741348
0.731749
0.724106
0.717639
0.718051
0.725656
0.732484
0.797803
0.857188
1.24609
1.82139
3.4024
4.18619
4.27318
4.24401
4.15292
0.957425
0.911371
0.874759
0.844655
0.819467
0.798449
0.78045
0.76549
0.752165
0.741649
0.731246
0.724649
0.715836
0.715835
0.719772
0.724513
0.763458
0.807511
1.04374
1.42562
2.5552
3.86895
4.18739
4.17965
4.13421
0.957376
0.911437
0.874726
0.844693
0.819448
0.798461
0.780455
0.765456
0.752235
0.741503
0.731477
0.724192
0.716301
0.713977
0.715257
0.718884
0.740157
0.772832
0.906933
1.14464
1.85528
3.25247
4.01138
4.11791
4.09444
0.957377
0.911434
0.874736
0.84468
0.819474
0.798418
0.780528
0.765334
0.75243
0.741192
0.731931
0.723435
0.717145
0.710856
0.711252
0.712484
0.726603
0.740454
0.835917
0.952932
1.45862
2.41614
3.67716
4.0276
4.02726
0.957407
0.911393
0.87476
0.844649
0.819497
0.798393
0.780548
0.765319
0.752438
0.74119
0.731931
0.723406
0.717021
0.710505
0.708096
0.708894
0.716092
0.723768
0.783057
0.840459
1.17715
1.68801
3.03632
3.83658
3.97397
0.957419
0.911382
0.874761
0.844646
0.819489
0.798406
0.780521
0.765369
0.752353
0.741333
0.731704
0.723746
0.716438
0.711108
0.705663
0.705845
0.709881
0.714479
0.748419
0.787481
0.984088
1.29784
2.18731
3.47024
3.86639
0.957435
0.911361
0.874772
0.844636
0.819493
0.798406
0.780512
0.765385
0.752322
0.741382
0.731625
0.723859
0.716245
0.71128
0.704871
0.704554
0.705748
0.709033
0.726599
0.753932
0.862483
1.05179
1.62401
2.76761
3.63593
0.957404
0.911405
0.87475
0.844662
0.819478
0.798416
0.780511
0.765371
0.752352
0.741318
0.731735
0.723661
0.716565
0.710674
0.705595
0.70186
0.702241
0.703835
0.713598
0.727874
0.79317
0.888826
1.24238
1.89274
3.23099
0.957416
0.911387
0.874761
0.844648
0.81949
0.798401
0.78053
0.765348
0.752386
0.741271
0.731804
0.723559
0.716707
0.71044
0.705767
0.700869
0.699468
0.7001
0.705604
0.711276
0.755618
0.79656
1.04785
1.40417
2.45874
0.957433
0.911363
0.874773
0.844634
0.819499
0.798395
0.780534
0.765351
0.752378
0.741292
0.731765
0.72363
0.716582
0.710642
0.705372
0.701274
0.697675
0.697917
0.700587
0.704792
0.726418
0.760334
0.883198
1.10363
1.70137
0.957408
0.911399
0.874754
0.844657
0.819483
0.798411
0.780518
0.765364
0.752361
0.74131
0.731739
0.723664
0.716528
0.710716
0.705236
0.701358
0.696974
0.696194
0.696964
0.69916
0.710745
0.72795
0.801113
0.911445
1.30151
0.957403
0.911404
0.874752
0.84466
0.819483
0.79841
0.780521
0.765358
0.752371
0.741291
0.731769
0.723613
0.71661
0.710575
0.705459
0.700931
0.697432
0.694182
0.694331
0.695073
0.701826
0.709016
0.756432
0.80217
1.06601
0.957428
0.91137
0.87477
0.844638
0.819497
0.798396
0.780534
0.765347
0.752383
0.741281
0.731784
0.723598
0.716632
0.710549
0.705488
0.700884
0.697378
0.693849
0.692509
0.692926
0.696236
0.700863
0.725006
0.75961
0.892249
0.957433
0.911365
0.874771
0.844634
0.819498
0.798395
0.780533
0.765351
0.752378
0.741292
0.731767
0.723627
0.716588
0.710621
0.70537
0.701065
0.697053
0.694192
0.691174
0.69128
0.692889
0.695378
0.709092
0.72921
0.808257
0.957416
0.911388
0.874759
0.84465
0.819487
0.798405
0.780523
0.765359
0.752368
0.741301
0.731754
0.723642
0.716567
0.710649
0.705331
0.701116
0.69697
0.694242
0.690823
0.690449
0.691053
0.692687
0.701639
0.714487
0.772705
0.957412
0.911391
0.874758
0.844652
0.819487
0.798406
0.780523
0.765358
0.75237
0.741298
0.731759
0.723632
0.716581
0.710624
0.705371
0.701051
0.69707
0.694061
0.691018
0.689709
0.69012
0.691386
0.698829
0.709372
0.760344
0.957409
0.911394
0.874756
0.844654
0.819487
0.798407
0.780525
0.765357
0.752373
0.741293
0.731767
0.72362
0.716599
0.710597
0.705409
0.700993
0.697151
0.693935
0.691153
0.689307
0.689608
0.690548
0.69775
0.706177
0.758161
0.957409
0.911393
0.874757
0.844653
0.819488
0.798406
0.780527
0.765355
0.752377
0.741289
0.731773
0.723612
0.71661
0.710583
0.705428
0.700967
0.697184
0.693887
0.691199
0.689162
0.689426
0.690355
0.69707
0.70587
0.753907
0.95741
0.911391
0.874758
0.844651
0.819489
0.798404
0.780528
0.765353
0.752379
0.741286
0.731777
0.723607
0.716618
0.710571
0.705444
0.700946
0.697209
0.693853
0.691229
0.689044
0.689282
0.690226
0.696634
0.7055
0.752187
0.957407
0.911395
0.874756
0.844653
0.819488
0.798405
0.780528
0.765353
0.75238
0.741285
0.731781
0.723602
0.716626
0.710559
0.705462
0.700923
0.697241
0.693791
0.691333
0.68866
0.688932
0.68944
0.696462
0.702697
0.753608
0.957408
0.911394
0.874757
0.844653
0.819488
0.798405
0.780528
0.765353
0.752379
0.741286
0.731778
0.723606
0.71662
0.710567
0.705451
0.700936
0.697226
0.693824
0.691263
0.688938
0.689143
0.689969
0.696292
0.704494
0.750309
0.95741
0.911392
0.874757
0.844652
0.819489
0.798405
0.780528
0.765354
0.752378
0.741287
0.731776
0.723609
0.716616
0.710575
0.70544
0.700952
0.697207
0.693849
0.691237
0.688997
0.689214
0.690092
0.696392
0.704902
0.750536
1.03447
1.06951
1.09339
1.10976
1.12303
1.13189
1.14093
1.14634
1.15992
1.18062
1.25662
1.35616
1.84236
2.74158
5.97141
13.6857
13.0452
11.8407
11.5008
11.5038
11.4598
11.2822
10.9035
10.116
8.24689
1.03451
1.06945
1.09344
1.1097
1.12312
1.13176
1.14108
1.14595
1.15923
1.17619
1.25201
1.33285
1.80877
2.60373
5.61365
12.857
12.4792
11.5589
11.2163
11.1654
11.0421
10.7424
10.171
9.18722
7.25584
1.03441
1.06958
1.0933
1.10988
1.1229
1.13199
1.14076
1.14568
1.15771
1.17558
1.24265
1.32432
1.75673
2.48033
5.27335
11.9294
11.8786
11.3556
10.9613
10.8382
10.6374
10.2316
9.58186
8.61523
7.12849
1.03447
1.06954
1.09328
1.10991
1.12281
1.1321
1.14057
1.14565
1.15691
1.17008
1.23399
1.29717
1.70211
2.32312
4.8051
10.8855
11.4607
11.1539
10.7316
10.5331
10.2704
9.81622
9.16369
8.28604
7.126
1.03443
1.06959
1.09321
1.11002
1.12262
1.13247
1.13988
1.14703
1.15395
1.17601
1.20224
1.34057
1.49776
2.41066
4.12671
9.66325
11.1972
10.9797
10.5328
10.263
9.9565
9.49543
8.872
8.08627
7.12526
1.03432
1.06971
1.09314
1.11011
1.1226
1.13241
1.14009
1.14606
1.15427
1.16741
1.2128
1.26737
1.55768
1.98906
3.79165
8.1271
11.0373
10.8554
10.3874
10.0256
9.68713
9.23682
8.65555
7.94959
7.12306
1.03426
1.06977
1.09308
1.1102
1.1225
1.13256
1.13986
1.14629
1.15319
1.16473
1.20122
1.24939
1.47646
1.82054
3.21372
6.48704
10.9012
10.7466
10.2649
9.81384
9.44913
9.01717
8.48077
7.84433
7.12047
1.03427
1.06977
1.09304
1.11026
1.12238
1.13279
1.13944
1.14697
1.15149
1.16449
1.182
1.25401
1.34707
1.77865
2.58381
5.1473
10.4609
10.4869
10.1538
9.62066
9.23566
8.82397
8.32965
7.75476
7.11308
1.03425
1.06978
1.09304
1.11026
1.12239
1.13276
1.13944
1.14681
1.1508
1.16152
1.17538
1.23582
1.29999
1.66849
2.25528
4.42322
9.41329
10.1098
9.90965
9.44923
9.05156
8.65539
8.20103
7.67815
7.10163
1.03432
1.06969
1.09315
1.1101
1.12256
1.13252
1.13968
1.14641
1.15056
1.15902
1.17214
1.21765
1.2737
1.56293
1.98617
3.75949
7.75329
9.74034
9.64374
9.32139
8.8987
8.51001
8.087
7.61012
7.08877
1.03436
1.06963
1.09323
1.10997
1.12274
1.13222
1.14012
1.14567
1.15168
1.15673
1.17155
1.19206
1.27832
1.39016
1.92361
2.92728
6.06291
9.44879
9.4445
9.23628
8.7954
8.39753
7.9941
7.55329
7.0746
1.03441
1.06957
1.09328
1.10989
1.12282
1.13211
1.14024
1.14548
1.15163
1.15579
1.16688
1.18404
1.24397
1.33564
1.6946
2.38261
4.50292
8.78386
9.28164
9.12085
8.72867
8.31046
7.91529
7.5019
7.06144
1.0344
1.06959
1.09323
1.10997
1.12271
1.13227
1.14
1.14578
1.15099
1.15565
1.16178
1.18118
1.20404
1.32323
1.45458
2.20843
3.52932
7.50441
8.99887
8.92845
8.67206
8.23771
7.84829
7.45713
7.0477
1.03435
1.06966
1.09317
1.11007
1.12261
1.13241
1.13986
1.14588
1.15091
1.15481
1.16119
1.17033
1.20551
1.24393
1.46116
1.7552
3.01523
5.71859
8.62191
8.73644
8.57956
8.20594
7.79913
7.42025
7.03581
1.03434
1.06968
1.09316
1.11009
1.12259
1.13245
1.1398
1.14597
1.1507
1.15495
1.15957
1.16737
1.19077
1.22489
1.36215
1.56518
2.39205
4.00413
7.87374
8.58077
8.47521
8.18034
7.76877
7.39319
7.02381
1.03429
1.06972
1.09314
1.11011
1.1226
1.13243
1.13984
1.14591
1.15075
1.15485
1.1591
1.16488
1.1815
1.20606
1.30474
1.42957
2.05117
3.13457
6.376
8.27224
8.26753
8.12252
7.77199
7.38332
7.02298
1.03431
1.06969
1.09316
1.11007
1.12264
1.13237
1.13992
1.14581
1.15085
1.15468
1.15885
1.16313
1.17483
1.19324
1.25855
1.35855
1.74985
2.49207
4.70069
7.70593
8.11178
8.02014
7.76335
7.38557
7.02528
1.03436
1.06963
1.0932
1.11002
1.12267
1.13233
1.13994
1.1458
1.15081
1.15472
1.15832
1.16201
1.16816
1.187
1.21102
1.32553
1.45603
2.1525
3.31948
6.57997
7.88367
7.86751
7.73099
7.40569
7.03656
1.03435
1.06965
1.09318
1.11004
1.12265
1.13236
1.13991
1.14583
1.1508
1.15464
1.15841
1.16087
1.16668
1.17579
1.20573
1.24562
1.4288
1.68712
2.74379
4.89938
7.39864
7.73906
7.65876
7.42336
7.06221
1.03436
1.06964
1.09319
1.11004
1.12264
1.13237
1.13988
1.14586
1.15074
1.15471
1.15826
1.16093
1.16483
1.17136
1.19068
1.21973
1.33188
1.48869
2.15723
3.37159
6.43
7.5288
7.51937
7.40389
7.12025
1.03433
1.06967
1.09317
1.11006
1.12263
1.13239
1.13987
1.14588
1.15072
1.15472
1.15818
1.16095
1.16412
1.1687
1.18146
1.20131
1.27411
1.37607
1.81567
2.59681
4.87021
7.06892
7.40002
7.34098
7.15066
1.03433
1.06967
1.09318
1.11006
1.12264
1.13238
1.13989
1.14585
1.15076
1.15468
1.15821
1.1609
1.16383
1.16696
1.17508
1.18865
1.23185
1.30571
1.55103
2.02876
3.3708
6.10144
7.17761
7.21361
7.12687
1.03435
1.06966
1.09319
1.11004
1.12265
1.13236
1.1399
1.14584
1.15076
1.15468
1.15821
1.16084
1.16371
1.1659
1.17134
1.18016
1.20864
1.25061
1.41782
1.67484
2.62842
4.56488
6.68574
7.09693
7.06029
1.03436
1.06964
1.09319
1.11004
1.12264
1.13237
1.13989
1.14586
1.15073
1.15473
1.15812
1.16092
1.16349
1.16544
1.16895
1.17478
1.19248
1.21848
1.32112
1.4628
2.04797
3.0933
5.68232
6.84213
6.94485
1.03437
1.06964
1.09319
1.11004
1.12264
1.13237
1.13988
1.14588
1.15071
1.15476
1.15809
1.16097
1.16339
1.16547
1.16783
1.1718
1.18283
1.20019
1.26153
1.35303
1.70999
2.35262
4.15202
6.26758
6.8007
1.03435
1.06966
1.09318
1.11005
1.12263
1.13238
1.13987
1.14588
1.15071
1.15475
1.15809
1.16097
1.16335
1.16551
1.1672
1.17029
1.17522
1.19108
1.21157
1.30591
1.41727
1.95125
2.82238
5.13081
6.49127
1.03436
1.06965
1.09319
1.11004
1.12264
1.13237
1.13988
1.14587
1.15072
1.15474
1.15811
1.16093
1.1634
1.16541
1.16737
1.16904
1.17317
1.17981
1.20157
1.23207
1.35979
1.5432
2.22684
3.53288
5.81883
1.03437
1.06964
1.0932
1.11003
1.12265
1.13237
1.13989
1.14587
1.15072
1.15475
1.15809
1.16096
1.16335
1.16547
1.1672
1.16899
1.17112
1.17663
1.18584
1.21486
1.26417
1.42515
1.73752
2.60938
4.49511
1.03436
1.06965
1.09319
1.11004
1.12264
1.13238
1.13988
1.14588
1.15071
1.15476
1.15808
1.16098
1.16332
1.1655
1.16713
1.16893
1.17033
1.17373
1.17933
1.19662
1.22335
1.32022
1.46924
2.00054
2.97158
1.03435
1.06966
1.09318
1.11005
1.12264
1.13238
1.13988
1.14587
1.15071
1.15475
1.1581
1.16095
1.16337
1.16542
1.16723
1.16871
1.17028
1.17201
1.17648
1.18382
1.20767
1.24318
1.38027
1.59018
2.3261
1.03436
1.06965
1.09319
1.11004
1.12264
1.13237
1.13989
1.14587
1.15072
1.15474
1.15811
1.16094
1.16338
1.16541
1.16724
1.16867
1.17016
1.17131
1.17405
1.17857
1.19251
1.213
1.29444
1.39855
1.85927
1.03437
1.06964
1.09319
1.11004
1.12265
1.13237
1.13989
1.14587
1.15072
1.15474
1.1581
1.16095
1.16336
1.16544
1.16719
1.16873
1.17001
1.17131
1.17269
1.1763
1.18206
1.20096
1.22967
1.33377
1.50466
1.03436
1.06965
1.09319
1.11005
1.12264
1.13238
1.13988
1.14587
1.15071
1.15475
1.15809
1.16096
1.16335
1.16545
1.16718
1.16873
1.17001
1.17116
1.17236
1.17432
1.1795
1.18808
1.21574
1.26016
1.41646
1.03435
1.06966
1.09318
1.11005
1.12264
1.13238
1.13988
1.14587
1.15071
1.15475
1.15809
1.16096
1.16336
1.16544
1.16719
1.16872
1.17002
1.17113
1.17229
1.1738
1.17778
1.18431
1.20591
1.23911
1.3671
1.03435
1.06966
1.09318
1.11005
1.12264
1.13238
1.13988
1.14587
1.15071
1.15475
1.1581
1.16095
1.16336
1.16543
1.1672
1.16871
1.17003
1.17112
1.17225
1.17354
1.17694
1.18241
1.20135
1.22779
1.34905
1.03435
1.06966
1.09318
1.11005
1.12264
1.13238
1.13988
1.14587
1.15072
1.15474
1.1581
1.16095
1.16337
1.16543
1.1672
1.1687
1.17003
1.17112
1.17223
1.17342
1.17654
1.18155
1.19902
1.22327
1.3366
1.03436
1.06965
1.09319
1.11004
1.12264
1.13237
1.13988
1.14587
1.15072
1.15474
1.1581
1.16095
1.16337
1.16543
1.1672
1.16871
1.17002
1.17114
1.17207
1.17342
1.17522
1.18258
1.18959
1.2347
1.27718
1.03435
1.06965
1.09319
1.11005
1.12264
1.13237
1.13988
1.14587
1.15072
1.15474
1.1581
1.16095
1.16337
1.16542
1.16721
1.1687
1.17003
1.17112
1.1722
1.17322
1.17604
1.18013
1.19651
1.2154
1.32309
1.03436
1.06965
1.09319
1.11004
1.12264
1.13237
1.13988
1.14587
1.15072
1.15474
1.1581
1.16095
1.16337
1.16543
1.1672
1.16872
1.17
1.17116
1.17205
1.17335
1.17539
1.18207
1.19005
1.23287
1.27469
1.03436
1.06965
1.09319
1.11004
1.12264
1.13237
1.13988
1.14587
1.15072
1.15474
1.1581
1.16095
1.16336
1.16544
1.16719
1.16872
1.17
1.17116
1.17205
1.17333
1.17537
1.18199
1.18994
1.2325
1.27372
1.00892
1.0317
1.05947
1.08715
1.11381
1.13731
1.15986
1.17911
1.20204
1.23283
1.32829
1.45945
2.03584
3.1313
7.00414
16.1374
14.8534
13.3629
13.0993
13.1858
13.1006
12.7129
12.0539
10.9298
8.57176
1.00891
1.03171
1.05948
1.08713
1.11385
1.13725
1.15992
1.17889
1.20158
1.23081
1.32023
1.44461
1.98184
3.00226
6.59677
15.18
14.2431
13.0112
12.7421
12.7507
12.5922
12.0806
11.2029
9.85555
7.45918
1.00889
1.03175
1.05937
1.08733
1.11348
1.1379
1.15872
1.18081
1.19669
1.23365
1.28592
1.49063
1.77153
3.05702
5.93479
14.1626
13.6494
12.745
12.4365
12.3486
12.0899
11.4772
10.523
9.22318
7.40497
1.00883
1.03186
1.05926
1.08744
1.11337
1.13796
1.15867
1.18056
1.19642
1.22986
1.27723
1.46358
1.70842
2.88569
5.40228
13.0127
13.0745
12.5998
12.1606
11.9736
11.6347
10.9765
10.0593
8.90002
7.44671
1.00889
1.03174
1.05941
1.08722
1.11372
1.13735
1.15969
1.17857
1.19985
1.22034
1.29119
1.3679
1.78387
2.44087
5.03716
11.6163
12.7855
12.4149
11.8946
11.618
11.2432
10.6059
9.75618
8.73419
7.5401
1.00882
1.0318
1.0594
1.08717
1.11387
1.13709
1.16008
1.17799
1.19998
1.22066
1.27925
1.35958
1.70323
2.27701
4.46892
9.97809
12.6569
12.2888
11.6569
11.3
10.9098
10.3155
9.5417
8.6353
7.61886
1.00877
1.03185
1.05937
1.08722
1.11384
1.13711
1.16005
1.17788
1.19939
1.21755
1.26661
1.33564
1.61451
2.07624
3.79955
8.11906
12.6292
12.2083
11.4492
11.0193
10.6215
10.0722
9.37221
8.56178
7.67328
1.00874
1.03189
1.05931
1.0873
1.11374
1.13724
1.15987
1.17791
1.1987
1.21395
1.25442
1.30875
1.53099
1.86893
3.16342
6.2086
12.4324
12.0286
11.2761
10.7764
10.3679
9.85969
9.22717
8.49951
7.71053
1.00873
1.03192
1.05926
1.08737
1.11362
1.13743
1.15958
1.17818
1.19771
1.21185
1.24448
1.29064
1.47131
1.70708
2.83054
5.12882
11.5619
11.556
11.1497
10.5636
10.1326
9.66623
9.097
8.44429
7.73655
1.00876
1.0319
1.05925
1.08742
1.11346
1.13775
1.15894
1.17927
1.19539
1.21488
1.23435
1.29529
1.37201
1.72934
2.30229
4.50083
9.65652
11.1307
10.889
10.3704
9.92813
9.49246
8.97884
8.39046
7.75383
1.00882
1.03182
1.05932
1.08733
1.11354
1.13766
1.15903
1.17912
1.19535
1.21387
1.22972
1.27948
1.33506
1.61418
2.03139
3.67072
7.61141
10.946
10.7335
10.2435
9.77326
9.34453
8.87244
8.34035
7.76287
1.00885
1.03179
1.05937
1.08726
1.11364
1.13747
1.1593
1.17861
1.19602
1.21161
1.22922
1.25695
1.33427
1.45995
1.91499
2.8245
5.57748
10.55
10.5183
10.1932
9.67126
9.22317
8.77957
8.29134
7.76344
1.00888
1.03174
1.0594
1.08722
1.11367
1.13743
1.15936
1.17848
1.1961
1.21077
1.22776
1.24594
1.31039
1.38462
1.74747
2.36984
4.48759
9.38275
10.2566
10.0566
9.59641
9.12066
8.69199
8.24247
7.76136
1.00875
1.03194
1.05924
1.08741
1.1135
1.13761
1.15916