/*--------------------------------*- C++ -*----------------------------------*\
  =========                 |
  \\      /  F ield         | OpenFOAM: The Open Source CFD Toolbox
   \\    /   O peration     | Website:  https://openfoam.org
    \\  /    A nd           | Version:  6
     \\/     M anipulation  |
\*---------------------------------------------------------------------------*/
FoamFile
{
    version     2.0;
    format      ascii;
    class       surfaceScalarField;
    location    "4.5";
    object      phi;
}
// * * * * * * * * * * * * * * * * * * * * * * * * * * * * * * * * * * * * * //

dimensions      [1 0 -1 0 0 0 0];

internalField   nonuniform List<scalar> 
72625
(
0.00162356
7.15225e-11
5.87426e-05
0.00157665
9.57059e-10
4.69141e-05
0.00153806
2.58761e-10
3.85917e-05
0.00150613
1.40617e-09
3.19292e-05
0.00147905
-1.50591e-10
2.70767e-05
0.00145656
1.38013e-09
2.24905e-05
0.00143681
-3.18481e-10
1.97524e-05
0.00142086
4.14253e-09
1.59427e-05
0.00140578
1.25239e-08
1.50653e-05
0.00139164
4.38353e-08
1.40916e-05
0.00138325
8.49308e-08
8.30136e-06
0.00136628
2.65558e-07
1.66656e-05
0.00138546
6.12452e-07
-1.97506e-05
0.00133719
2.20081e-06
4.5983e-05
0.00157233
7.20023e-06
-0.000242426
0.00179735
3.63466e-05
-0.000261531
0.00169807
4.25632e-05
5.65263e-05
0.00149645
4.67332e-05
0.000154685
0.00138778
6.04829e-05
4.80375e-05
0.00136731
7.42873e-05
-5.39416e-05
0.00128398
7.02094e-05
1.30103e-05
0.00118058
5.41451e-05
4.91344e-05
0.00102659
3.48036e-05
0.000119057
0.000681305
3.80519e-05
0.000307095
1.45167e-05
0.000666614
0.00162356
1.47038e-09
5.8742e-05
0.00157665
2.76407e-09
4.69145e-05
0.00153806
-9.02119e-11
3.85915e-05
0.00150612
2.80068e-09
3.19292e-05
0.00147905
-3.01087e-09
2.70771e-05
0.00145656
4.45139e-09
2.24895e-05
0.00143681
-4.75074e-09
1.97544e-05
0.00142086
1.48616e-08
1.59369e-05
0.00140576
4.57414e-08
1.50669e-05
0.00139161
1.28534e-07
1.406e-05
0.00138309
2.53236e-07
8.34907e-06
0.00136619
6.2705e-07
1.64946e-05
0.00138502
1.39555e-06
-1.95689e-05
0.00133777
3.98933e-06
4.53673e-05
0.00156941
1.25748e-05
-0.0002371
0.00180918
5.27922e-05
-0.000256401
0.00172386
8.71925e-05
4.05469e-05
0.00151531
0.000112405
0.000142797
0.00142518
0.000112319
3.82215e-05
0.0013793
0.000118167
1.93347e-06
0.00133546
0.000124285
-1.0303e-05
0.00126458
0.000119282
5.66816e-06
0.00110428
0.000104807
9.01977e-05
0.000752977
0.000109631
0.000279621
0.000119139
0.000648266
0.00162356
9.28493e-09
5.87401e-05
0.00157665
-1.75607e-09
4.69156e-05
0.00153805
3.43956e-09
3.85912e-05
0.00150613
-2.80233e-09
3.19289e-05
0.00147905
-2.54618e-09
2.70794e-05
0.00145656
5.49677e-09
2.24857e-05
0.00143681
-1.5948e-08
1.97604e-05
0.00142083
7.8022e-08
1.59247e-05
0.00140573
9.27253e-08
1.50558e-05
0.0013915
3.08221e-07
1.40424e-05
0.00138274
7.20975e-07
8.29669e-06
0.00136614
6.55223e-07
1.65208e-05
0.0013828
4.52474e-06
-1.97551e-05
0.0013376
3.73308e-06
4.53655e-05
0.00155813
3.02453e-05
-0.000238294
0.00176857
0.000131186
-0.000289064
0.00165629
0.000156627
4.27098e-05
0.00147737
0.000156314
0.000135012
0.00139632
0.00015813
3.52146e-05
0.00133966
0.000164127
1.06661e-05
0.00130366
0.000177868
-1.76205e-05
0.00123751
0.000193591
-8.22992e-06
0.00106427
0.000198832
7.91489e-05
0.000705914
0.000199468
0.000268419
0.000212271
0.000612733
0.00162358
1.92586e-08
5.87243e-05
0.00157666
-1.82902e-08
4.69326e-05
0.00153807
1.80008e-08
3.85779e-05
0.00150615
-2.49912e-08
3.19424e-05
0.00147904
3.09591e-08
2.7069e-05
0.00145661
-5.72375e-08
2.24902e-05
0.00143675
8.50796e-08
1.97618e-05
0.00142119
-2.14431e-07
1.58689e-05
0.0014067
3.55011e-08
1.49653e-05
0.00139159
1.18493e-06
1.38309e-05
0.00138848
-4.16356e-06
8.15256e-06
0.00135831
1.47336e-05
1.58824e-05
0.00141287
-2.94332e-05
-2.05897e-05
0.00131744
5.57699e-05
4.33255e-05
0.00157364
5.88674e-06
-0.000231947
0.00178686
0.000183107
-0.000265425
0.00170088
0.000218077
2.43546e-05
0.00150053
0.000226768
0.000129898
0.00140578
0.000225559
2.73117e-05
0.00135448
0.000245531
-3.01304e-05
0.00128875
0.000255691
-1.21339e-05
0.0012147
0.000269449
-1.8581e-06
0.00104897
0.000288253
7.62466e-05
0.000682294
0.00030226
0.000263802
0.000309541
0.000585017
0.00162366
-9.99384e-09
5.86842e-05
0.00157665
1.77422e-08
4.69789e-05
0.00153814
-1.15566e-08
3.85357e-05
0.00150611
1.73045e-08
3.1992e-05
0.00147915
-2.46501e-08
2.70098e-05
0.00145648
4.37078e-08
2.25757e-05
0.00143701
-8.14308e-08
1.9635e-05
0.00142038
1.99943e-07
1.61718e-05
0.00140602
-1.41239e-07
1.49518e-05
0.00139524
-6.73497e-07
1.24107e-05
0.00137024
5.48592e-06
1.53531e-05
0.00140088
-1.1654e-05
-4.06297e-06
0.001304
4.20603e-05
2.47968e-05
0.00145989
-3.88102e-05
-6.125e-05
0.00146261
8.76811e-05
-8.43799e-05
0.00175911
0.000180244
-0.000293985
0.00169894
0.000260783
1.72734e-05
0.00152975
0.000269785
0.000126156
0.00144364
0.00028321
2.84373e-05
0.001389
0.000307718
-7.5775e-06
0.00132419
0.000332477
-1.20131e-05
0.00123706
0.000354706
1.80842e-06
0.00106535
0.00038243
7.7457e-05
0.000694248
0.000414168
0.000259128
0.000435771
0.000568025
0.00162358
9.24308e-09
5.87145e-05
0.00157667
-1.66799e-08
4.69444e-05
0.00153808
1.38696e-08
3.85663e-05
0.00150616
-2.25866e-08
3.19582e-05
0.00147905
3.49894e-08
2.70498e-05
0.00145664
-6.24077e-08
2.25175e-05
0.00143671
1.1917e-07
1.97302e-05
0.0014212
-2.32047e-07
1.59346e-05
0.00140558
3.74627e-07
1.51183e-05
0.00139028
1.09839e-06
1.35214e-05
0.001392
-4.20882e-06
7.9838e-06
0.00135051
1.46737e-05
1.50917e-05
0.00144309
-2.93344e-05
-2.11699e-05
0.00130173
6.16985e-05
4.07734e-05
0.00159065
1.18815e-05
-0.000213228
0.00178955
0.000257747
-0.000276662
0.00173893
0.000317695
-6.4894e-06
0.00154457
0.00033792
0.000126166
0.00145787
0.000342951
2.69247e-05
0.00139982
0.000372193
-6.47726e-06
0.00134197
0.000405634
-1.53504e-05
0.00125644
0.000438037
2.15604e-06
0.0010803
0.000481223
7.72901e-05
0.000706313
0.000536224
0.000251812
0.000592563
0.000549523
0.00162365
-1.35134e-08
5.86909e-05
0.00157665
1.33924e-08
4.69725e-05
0.00153814
-1.8098e-08
3.85388e-05
0.0015061
2.67354e-08
3.19919e-05
0.00147917
-3.95176e-08
2.70034e-05
0.00145644
7.3421e-08
2.25922e-05
0.00143708
-1.18774e-07
1.95968e-05
0.00142037
2.47277e-07
1.6231e-05
0.00140627
-2.85877e-07
1.4758e-05
0.00139592
-8.85632e-07
1.23335e-05
0.001372
4.63843e-06
1.50586e-05
0.00140009
-9.90542e-06
-3.50363e-06
0.0013068
3.97847e-05
2.41035e-05
0.00145905
-3.24813e-05
-5.8057e-05
0.00146106
8.28381e-05
-7.30597e-05
0.00175357
0.000260496
-0.000295514
0.0017308
0.000366192
-2.59803e-05
0.00156715
0.00038354
0.000117968
0.00148274
0.000400278
2.70486e-05
0.0014199
0.000435173
-1.95523e-07
0.0013649
0.000477033
-1.64544e-05
0.0012784
0.000521109
3.34979e-06
0.00109937
0.000584168
7.5995e-05
0.000722695
0.000673107
0.00023972
0.000791218
0.000524044
0.00162359
-9.24907e-09
5.87165e-05
0.00157667
-4.22117e-09
4.69421e-05
0.00153808
-2.52313e-10
3.85705e-05
0.00150615
4.00135e-09
3.1951e-05
0.00147905
1.18827e-09
2.70596e-05
0.00145661
8.36887e-09
2.25036e-05
0.00143674
1.00415e-09
1.97479e-05
0.00142105
1.12205e-08
1.59272e-05
0.00140572
4.2565e-08
1.51665e-05
0.001391
7.32363e-08
1.36025e-05
0.00138716
8.87144e-08
8.44919e-06
0.00135981
2.37163e-06
1.49558e-05
0.00141556
2.43501e-06
-1.83523e-05
0.00131883
2.45012e-05
3.96361e-05
0.00153947
5.73116e-05
-0.000195223
0.00175338
0.000319995
-0.000273687
0.00175584
0.000420959
-5.74503e-05
0.00157368
0.000447787
0.000117842
0.00148865
0.000457625
2.76319e-05
0.00143054
0.000495128
-1.90483e-06
0.00138047
0.000543507
-1.64689e-05
0.00129612
0.00059963
5.74229e-06
0.00112051
0.000686538
7.31438e-05
0.000749896
0.000822934
0.00022069
0.00105449
0.000486607
0.00162361
-3.0468e-08
5.87237e-05
0.00157663
3.49393e-08
4.69339e-05
0.00153807
-1.50977e-08
3.85745e-05
0.00150613
6.58681e-09
3.19449e-05
0.00147905
1.31986e-08
2.70655e-05
0.0014566
-3.59923e-08
2.24959e-05
0.00143676
7.44428e-08
1.97605e-05
0.00142097
-1.13699e-07
1.59144e-05
0.00140556
2.46406e-07
1.51963e-05
0.00139121
7.53855e-07
1.36759e-05
0.0013808
1.40601e-06
9.08026e-06
0.00136618
2.56989e-06
1.43922e-05
0.00137384
8.82995e-06
-1.39991e-05
0.00135113
1.42832e-05
3.28104e-05
0.0014973
7.38761e-05
-0.000162797
0.00171818
0.000363793
-0.00026505
0.00175788
0.000460951
-7.98393e-05
0.00158868
0.000508672
0.000108207
0.00150421
0.000513726
2.83061e-05
0.00145089
0.000552287
-3.90358e-06
0.00140375
0.000604387
-1.38119e-05
0.00132293
0.00067225
8.11866e-06
0.00115439
0.000785908
6.90559e-05
0.000803425
0.000983017
0.000190756
0.0014383
0.00041954
0.00162339
5.88184e-05
5.98679e-08
0.00157668
4.68343e-05
-7.67878e-08
0.00153794
3.86481e-05
5.33691e-08
0.00150615
3.18826e-05
-6.73357e-08
0.00147899
2.71008e-05
6.23951e-08
0.00145653
2.24933e-05
-8.3475e-08
0.00143681
1.97086e-05
1.13552e-07
0.00142063
1.60551e-05
-1.20189e-07
0.00140614
1.49524e-05
4.3462e-07
0.00139218
1.33367e-05
1.22197e-06
0.00138577
8.8876e-06
-2.37964e-06
0.00136178
1.36157e-05
1.36777e-05
0.00140641
-1.52955e-05
-1.99599e-05
0.00131703
3.35749e-05
6.96741e-05
0.00151846
-0.000170074
4.23176e-05
0.0017338
-0.000262145
0.000410317
0.00176138
-7.55816e-05
0.000508819
0.00161174
9.63325e-05
0.000561863
0.00153064
3.06297e-05
0.000564135
0.0014852
-5.17363e-06
0.000602822
0.00144073
-7.81425e-06
0.000656597
0.00136984
7.73744e-06
0.000735304
0.00121821
5.8704e-05
0.000878699
0.000901759
0.000158114
0.00114122
0.000305777
0.00203403
0.00172978
-3.46368e-10
7.16761e-06
0.00176404
1.0963e-09
1.26516e-05
0.00178822
7.6931e-11
1.44073e-05
0.00180604
1.87468e-09
1.41146e-05
0.00181989
-7.10489e-12
1.32234e-05
0.00183054
2.0594e-09
1.1836e-05
0.0018394
3.24638e-10
1.08953e-05
0.00184585
3.03968e-09
9.48548e-06
0.00185195
1.37798e-08
8.9554e-06
0.00185738
4.36834e-08
8.61173e-06
0.00185804
1.24601e-07
7.5229e-06
0.00186756
3.30257e-07
6.77225e-06
0.00184386
9.92114e-07
2.966e-06
0.00189361
3.37755e-06
-7.16811e-06
0.00176752
1.53598e-05
-0.000132005
0.00154907
0.000140838
-0.000184114
0.00134827
0.000132132
0.000124942
0.00126087
0.000184709
5.71928e-05
0.000984985
0.000256686
6.71035e-05
0.00115563
0.000431835
-0.000656542
0.000817797
0.000305447
4.52755e-05
0.000501539
0.000225406
0.00013986
0.000164853
0.000219505
0.000236056
-0.000132567
0.000281141
0.000323218
0.000147758
0.000386053
0.00172978
9.54387e-10
7.16646e-06
0.00176404
1.8139e-09
1.26531e-05
0.00178822
1.03382e-09
1.44058e-05
0.00180604
2.42398e-09
1.41164e-05
0.00181989
1.79409e-10
1.32205e-05
0.00183054
2.54108e-09
1.18404e-05
0.00183941
7.60237e-10
1.08884e-05
0.00184585
9.21483e-09
9.48887e-06
0.00185199
3.45617e-08
8.90909e-06
0.00185726
1.20302e-07
8.70383e-06
0.00185843
2.63764e-07
7.04175e-06
0.0018669
8.77459e-07
7.4347e-06
0.00184483
2.08645e-06
1.40998e-06
0.00189306
7.66867e-06
-7.17495e-06
0.00176477
3.12272e-05
-0.000124988
0.00159708
0.00011131
-5.96662e-05
0.00135997
0.000299465
0.000110114
0.00130353
0.000349706
3.41162e-05
0.001194
0.000388941
1.5409e-05
0.00118965
0.000442079
-4.03725e-06
0.00100629
0.000476604
1.8009e-06
0.000621124
0.000498356
0.000117783
0.000220913
0.000518039
0.00019171
-3.87479e-05
0.0005466
0.000273631
0.000409372
0.00034769
0.00172977
4.5482e-09
7.16722e-06
0.00176404
1.25325e-09
1.26512e-05
0.00178822
3.09816e-09
1.44072e-05
0.00180604
9.71717e-10
1.41143e-05
0.00181989
6.67259e-11
1.32234e-05
0.00183054
3.18281e-09
1.18363e-05
0.00183941
-1.51775e-09
1.0895e-05
0.00184584
2.00634e-08
9.48385e-06
0.00185191
7.18372e-08
8.95167e-06
0.00185721
2.54968e-07
8.59011e-06
0.00185783
4.34571e-07
7.52095e-06
0.00186674
1.85823e-06
6.58775e-06
0.00184291
3.32121e-06
2.83373e-06
0.00189054
1.37677e-05
-8.37558e-06
0.00176034
5.20944e-05
-0.000129292
0.00150006
0.000429985
-0.000348144
0.00131483
0.000431754
9.54379e-05
0.00128223
0.000491139
2.60657e-05
0.00119621
0.000516006
-5.90946e-06
0.00118017
0.000529431
-6.07387e-05
0.000995203
0.000658699
-1.48451e-05
0.000620116
0.000748132
0.000116981
0.000237031
0.000797387
0.000182739
-2.07639e-05
0.000817645
0.000254965
0.000668318
0.000332814
0.00172976
9.45662e-09
7.16423e-06
0.00176404
-5.47491e-09
1.26546e-05
0.00178821
9.29683e-09
1.44041e-05
0.00180605
-8.521e-09
1.41182e-05
0.00181988
1.12177e-08
1.32197e-05
0.00183055
-1.19993e-08
1.18408e-05
0.0018394
1.86549e-08
1.08887e-05
0.00184576
4.03582e-08
9.49084e-06
0.00185165
2.40745e-07
8.91205e-06
0.00185695
8.97094e-08
8.68317e-06
0.00185623
2.20999e-06
7.11291e-06
0.0018664
3.46527e-07
7.17568e-06
0.00183824
9.34573e-06
1.54892e-06
0.00188652
1.74984e-05
-8.70751e-06
0.00176312
6.3282e-05
-0.000120073
0.00155139
0.000489969
-0.000114355
0.00132231
0.000596209
8.87459e-05
0.00126238
0.000653248
2.75964e-05
0.00107259
0.000725091
7.92642e-06
0.00111292
0.000934475
-0.00047562
0.000912924
0.000873315
-2.68628e-05
0.000589425
0.000959234
0.00011043
0.000236276
0.00105206
0.000174593
-7.49874e-06
0.00108597
0.000239043
0.000922865
0.000322773
0.00172974
-3.1133e-09
7.16028e-06
0.00176405
6.00588e-09
1.26593e-05
0.0017882
-3.83864e-09
1.43991e-05
0.00180605
7.10944e-09
1.41249e-05
0.00181987
-8.71927e-09
1.32135e-05
0.00183058
1.33824e-08
1.18426e-05
0.00183936
-1.84241e-08
1.08903e-05
0.00184613
1.23571e-08
9.42604e-06
0.00185263
-7.67076e-08
8.77692e-06
0.00185548
5.35227e-07
9.11086e-06
0.00186927
-9.21102e-07
4.71217e-06
0.00184911
4.62787e-06
1.17425e-05
0.00188997
1.99173e-06
-8.7108e-06
0.00181214
2.73061e-05
6.76658e-06
0.00177484
0.000128384
-0.000112527
0.00152143
0.000558705
-0.00010999
0.00131799
0.000732812
8.38582e-05
0.00126814
0.000802993
2.6128e-05
0.00113451
0.000890936
-3.89405e-06
0.00112408
0.00101115
-7.39496e-05
0.00092709
0.00109697
-3.88323e-05
0.000600142
0.00119424
9.3616e-05
0.000260061
0.00130949
0.00015997
2.33748e-05
0.00135739
0.000224189
0.00120301
0.000311048
0.00172975
4.11913e-09
7.16104e-06
0.00176405
-7.21962e-09
1.26584e-05
0.00178821
6.20204e-09
1.44003e-05
0.00180606
-1.09579e-08
1.41226e-05
0.00181987
1.4739e-08
1.3217e-05
0.00183058
-2.01469e-08
1.18405e-05
0.00183937
3.56641e-08
1.08926e-05
0.00184585
5.21229e-09
9.46101e-06
0.00185179
2.2162e-07
8.87689e-06
0.00185701
1.42422e-07
8.68503e-06
0.00185437
2.51018e-06
7.20059e-06
0.00186631
8.02851e-07
6.93629e-06
0.00183253
1.29132e-05
1.67762e-06
0.00188258
2.81057e-05
-1.00898e-05
0.00177721
0.000120094
-9.98984e-05
0.00154896
0.000760272
-0.00025063
0.00131835
0.000877733
7.89176e-05
0.001281
0.000944873
2.15047e-05
0.00115822
0.0010521
-1.15489e-05
0.00112178
0.00121272
-0.00017171
0.000938031
0.0013116
-4.63632e-05
0.000630758
0.00142679
7.67225e-05
0.000305796
0.00156503
0.000146539
6.90235e-05
0.00163563
0.000210136
0.00152558
0.000295766
0.00172975
-8.31638e-09
7.15974e-06
0.00176405
5.46972e-09
1.26603e-05
0.00178821
-1.03443e-08
1.43981e-05
0.00180605
1.20365e-08
1.41255e-05
0.00181987
-1.63864e-08
1.32143e-05
0.00183058
2.58909e-08
1.18384e-05
0.00183934
-2.77122e-08
1.08989e-05
0.00184612
3.85713e-08
9.4174e-06
0.00185228
-3.55795e-08
8.85673e-06
0.00185515
5.72608e-07
9.02441e-06
0.00186807
-5.45232e-07
5.20999e-06
0.00184923
5.07015e-06
1.10062e-05
0.00188776
5.96258e-06
-7.46348e-06
0.00181614
3.49476e-05
6.71835e-06
0.00179482
0.000169263
-0.000101237
0.00156499
0.000808979
-0.000115115
0.00133735
0.00100705
7.20962e-05
0.00130352
0.00107465
2.18141e-05
0.00120342
0.0011955
-1.63821e-05
0.00113541
0.00136792
-8.75282e-05
0.000967747
0.00151008
-4.74337e-05
0.000686016
0.00165003
6.16798e-05
0.000377544
0.00181603
0.000133292
0.000130086
0.00192514
0.000197402
0.00190209
0.00027739
0.00172976
-6.81941e-09
7.16238e-06
0.00176405
7.2164e-11
1.26568e-05
0.00178821
-3.39195e-09
1.4403e-05
0.00180605
2.41834e-09
1.4118e-05
0.00181987
8.06358e-10
1.32241e-05
0.00183057
1.89825e-09
1.18303e-05
0.00183937
1.09857e-08
1.09053e-05
0.00184588
8.36835e-09
9.44572e-06
0.00185201
1.04588e-07
8.89748e-06
0.00185714
3.94012e-07
8.64603e-06
0.00185613
1.50116e-06
7.41782e-06
0.00186631
2.88736e-06
6.91521e-06
0.00183926
1.35993e-05
1.03604e-06
0.00188692
3.11819e-05
-4.31484e-06
0.0017877
0.000168208
-9.52997e-05
0.00162088
0.000954743
-0.000253397
0.00136362
0.00114157
6.50876e-05
0.00133329
0.00120146
2.12209e-05
0.00124517
0.00132782
-1.66999e-05
0.00116834
0.00151404
-7.13478e-05
0.00101224
0.00169005
-4.0511e-05
0.000764879
0.00185633
4.66021e-05
0.000477062
0.00205819
0.000118577
0.000213599
0.0022263
0.000182736
0.00235165
0.000250316
0.00172976
-7.71495e-09
7.16348e-06
0.00176403
9.87827e-09
1.26563e-05
0.00178821
-6.40217e-09
1.44022e-05
0.00180603
6.55091e-09
1.41178e-05
0.00181988
-1.60592e-09
1.32224e-05
0.00183054
-1.17965e-09
1.1833e-05
0.0018394
1.63345e-08
1.09004e-05
0.00184585
8.15822e-09
9.46003e-06
0.00185208
1.9312e-07
8.88367e-06
0.00185687
5.37359e-07
8.7335e-06
0.00185856
2.01214e-06
6.88643e-06
0.00186389
3.71156e-06
8.19292e-06
0.00185068
1.55048e-05
-2.70197e-06
0.00187173
3.52563e-05
7.60964e-06
0.00180258
0.000176935
-0.000102698
0.00166909
0.00101612
-0.000193727
0.00140476
0.00126909
5.6639e-05
0.00136541
0.00132822
2.0655e-05
0.00129029
0.00144674
-1.56231e-05
0.00121669
0.00163869
-5.51144e-05
0.00108199
0.00184432
-3.35492e-05
0.000878942
0.00203255
3.47258e-05
0.000634131
0.00227401
9.7788e-05
0.000355464
0.00253565
0.000159728
0.0029132
0.000213451
0.00172982
7.16422e-06
2.68383e-08
0.00176402
1.26592e-05
-1.64354e-08
0.00178825
1.43981e-05
1.13786e-08
0.00180602
1.41259e-05
-4.10293e-09
0.00181993
1.32082e-05
-1.3074e-08
0.00183054
1.18478e-05
3.38168e-08
0.00183945
1.08882e-05
-7.7915e-08
0.00184587
9.4564e-06
1.92901e-07
0.00185225
8.96092e-06
-2.02922e-07
0.00185529
8.68923e-06
2.15489e-06
0.00186211
6.95608e-06
-2.90414e-06
0.00185349
7.96228e-06
1.79594e-05
0.00187143
-2.4387e-06
-1.52805e-05
0.00183965
1.1921e-05
8.85893e-05
0.00181725
-0.000100787
0.000129739
0.00169256
-0.000208232
0.00108606
0.00144584
3.98189e-05
0.00140004
0.00140366
1.86008e-05
0.00144799
0.00134361
-1.45035e-05
0.00155183
0.0012753
-4.17916e-05
0.00174344
0.00118886
-3.04643e-05
0.00195317
0.0010249
2.80833e-05
0.00217594
0.000818146
8.06082e-05
0.00245857
0.000606621
0.00011985
0.002785
0.00015339
0.00367125
0.00169386
6.21964e-10
-7.16532e-06
0.00171917
1.96043e-10
-1.26522e-05
0.00174798
5.64108e-10
-1.44048e-05
0.00177621
4.81593e-10
-1.41154e-05
0.00180265
-3.87945e-10
-1.32221e-05
0.00182633
2.48924e-09
-1.18369e-05
0.00184812
-3.14393e-09
-1.08932e-05
0.00186709
1.11033e-08
-9.49539e-06
0.00188501
-2.64969e-09
-8.95929e-06
0.00190213
1.10301e-07
-8.63108e-06
0.00191729
-9.15185e-08
-7.53004e-06
0.0019301
7.07203e-07
-6.80304e-06
0.0019362
4.373e-08
-3.16352e-06
0.00191945
2.84066e-06
6.66523e-06
0.00166008
1.10427e-05
0.000115941
0.00117204
0.000217041
8.55038e-05
0.00118016
0.000239116
-0.000122611
0.00100595
0.000276455
-4.5224e-05
0.00083204
0.000268486
-2.76044e-05
-5.35788e-05
0.000250611
-2.16767e-05
-0.00029701
0.00031916
-3.06188e-05
-0.000449314
0.00041945
-0.000127425
-0.000459784
0.000455905
-0.000209552
-0.000330505
0.000507873
-0.0003141
0.000456434
-0.000401093
0.00169386
2.72516e-10
-7.16171e-06
0.00171917
5.55665e-10
-1.26566e-05
0.00174798
6.53818e-10
-1.44001e-05
0.00177621
8.8678e-10
-1.41222e-05
0.00180265
9.93977e-10
-1.32157e-05
0.00182633
-1.15618e-09
-1.18393e-05
0.00184811
4.64418e-09
-1.08931e-05
0.00186705
-4.20174e-09
-9.43704e-06
0.00188473
4.30125e-08
-8.8145e-06
0.0019026
2.05907e-08
-9.09371e-06
0.00191417
4.69334e-07
-5.06901e-06
0.0019334
3.37073e-07
-1.14809e-05
0.00192482
2.93659e-06
7.10175e-06
0.00192122
7.42853e-06
-8.23235e-06
0.00165964
4.28206e-05
0.000104429
0.00113561
0.000296966
0.000383153
0.00116441
0.000419659
-9.95759e-05
0.00100975
0.000507389
-4.23507e-05
0.000810635
0.00053272
-4.98604e-05
-8.78116e-05
0.000505535
0.000639325
-0.000409458
0.00065868
-1.62457e-05
-0.000505542
0.000741434
-0.000108283
-0.000483707
0.000814698
-0.000189098
-0.000313531
0.000880665
-0.000269516
0.000829303
-0.000338916
0.00169386
1.02498e-09
-7.16286e-06
0.00171917
5.80811e-10
-1.26551e-05
0.00174798
7.76716e-10
-1.44021e-05
0.00177621
8.1796e-10
-1.4119e-05
0.00180266
-8.29312e-10
-1.32201e-05
0.00182633
2.3153e-09
-1.1837e-05
0.00184812
-1.8857e-09
-1.0896e-05
0.00186707
1.44718e-08
-9.47748e-06
0.00188497
2.80438e-08
-8.93859e-06
0.00190198
2.23701e-07
-8.62986e-06
0.00191734
2.30669e-07
-7.59076e-06
0.00192923
1.64044e-06
-6.65632e-06
0.0019357
2.7466e-06
-3.4416e-06
0.0019149
1.23758e-05
7.4048e-06
0.00166214
5.89491e-05
0.000106961
0.0011432
0.000414325
5.22611e-05
0.00114636
0.000606523
-9.49581e-05
0.000992235
0.00072203
-3.46835e-05
0.000769471
0.000777212
-2.78248e-05
-5.64899e-05
0.000827379
0.000443201
-0.000402872
0.00097641
1.36333e-05
-0.000488768
0.00105156
-0.000107417
-0.00046183
0.0011507
-0.000180388
-0.000309124
0.00122774
-0.000245022
0.00116039
-0.000307614
0.00169386
8.13605e-10
-7.15916e-06
0.00171917
1.11515e-10
-1.26595e-05
0.00174797
3.8483e-10
-1.43977e-05
0.00177622
3.45786e-10
-1.41253e-05
0.00180265
-1.38035e-09
-1.32145e-05
0.00182633
2.9601e-09
-1.18394e-05
0.00184812
-2.11698e-09
-1.08956e-05
0.00186703
2.0689e-08
-9.4276e-06
0.00188472
5.10138e-08
-8.80298e-06
0.00190234
3.07481e-07
-9.02895e-06
0.00191435
4.33667e-07
-5.09026e-06
0.00193194
2.31529e-06
-1.11319e-05
0.00192444
4.63025e-06
7.15949e-06
0.00191642
1.92724e-05
-7.6519e-06
0.00165434
9.69429e-05
0.000103621
0.0011587
0.000679492
0.000114984
0.00112816
0.000813148
-8.76961e-05
0.000983166
0.000926577
-3.21867e-05
0.000761372
0.0010131
-6.36087e-06
-1.84976e-05
0.00107368
5.77449e-05
-0.000350436
0.00125039
3.09219e-05
-0.000432411
0.00135332
-0.000109501
-0.000418361
0.00148323
-0.000172146
-0.000289715
0.00156671
-0.000228787
0.00149156
-0.000298344
0.00169385
-8.95974e-10
-7.15702e-06
0.00171917
-1.58028e-10
-1.26631e-05
0.00174797
-6.13707e-10
-1.4395e-05
0.00177622
-1.81172e-10
-1.41297e-05
0.00180265
5.12863e-10
-1.32101e-05
0.00182634
-9.57221e-10
-1.18442e-05
0.00184811
6.63083e-09
-1.08901e-05
0.00186697
8.27954e-09
-9.42386e-06
0.00188447
9.18397e-08
-8.75975e-06
0.00190269
2.66876e-07
-9.08223e-06
0.00191153
9.96337e-07
-4.67832e-06
0.00193477
2.45919e-06
-1.16841e-05
0.0019139
8.23429e-06
8.55504e-06
0.00191911
2.87141e-05
-7.95783e-06
0.00166522
0.000146394
9.15217e-05
0.00115121
0.000851602
0.000230747
0.00112721
0.00100076
-8.00971e-05
0.000984764
0.00112368
-2.8754e-05
0.000751386
0.00124295
-5.63461e-07
0.000110969
0.00136791
0.000272019
-0.000247283
0.00153383
3.57917e-05
-0.000357522
0.00165507
-9.80986e-05
-0.000361299
0.00180612
-0.000159395
-0.00025744
0.00190405
-0.000217252
0.00183799
-0.000293072
0.00169385
-2.38708e-09
-7.15918e-06
0.00171917
1.19835e-10
-1.26602e-05
0.00174797
-2.03123e-09
-1.43975e-05
0.00177622
2.24495e-10
-1.41261e-05
0.00180265
5.22615e-11
-1.32133e-05
0.00182633
9.73253e-10
-1.18399e-05
0.00184812
5.42093e-09
-1.08967e-05
0.00186699
1.98801e-08
-9.41827e-06
0.0018847
8.92684e-08
-8.83083e-06
0.0019022
4.44689e-07
-9.00056e-06
0.00191462
9.72508e-07
-5.18278e-06
0.0019311
3.78752e-06
-1.09206e-05
0.00192435
9.51749e-06
7.14553e-06
0.00191236
3.7431e-05
-6.88778e-06
0.00167673
0.000182534
9.92006e-05
0.00115926
0.00101378
0.000103525
0.00113479
0.00118114
-7.73234e-05
0.000997784
0.00130792
-2.59405e-05
0.000765085
0.00145388
1.00057e-05
0.000232285
0.00163893
8.98174e-05
-0.000123811
0.00180176
4.15929e-05
-0.000259933
0.00194927
-8.15625e-05
-0.000286399
0.002125
-0.000146077
-0.000208949
0.00224145
-0.000205006
0.00220667
-0.000282146
0.00169386
-3.2845e-09
-7.16308e-06
0.00171917
2.66526e-10
-1.26551e-05
0.00174797
-2.37207e-09
-1.44036e-05
0.00177621
9.31376e-10
-1.41169e-05
0.00180265
6.33282e-10
-1.32221e-05
0.00182632
1.03157e-09
-1.18359e-05
0.00184811
9.3247e-09
-1.08944e-05
0.001867
1.92794e-08
-9.46611e-06
0.0018847
1.25074e-07
-8.88126e-06
0.00190236
4.738e-07
-8.66685e-06
0.00191433
1.34238e-06
-7.13012e-06
0.00193196
4.10625e-06
-6.9844e-06
0.0019233
1.20172e-05
-1.30294e-06
0.00191406
4.35546e-05
9.75775e-06
0.00168692
0.000214074
9.39914e-05
0.00117456
0.0011699
0.000239962
0.00114709
0.00135469
-7.43753e-05
0.00101954
0.00148037
-2.3288e-05
0.000794396
0.00164879
1.37026e-05
0.000376771
0.0018839
8.48941e-05
1.22496e-05
0.00207588
4.27266e-05
-0.000142365
0.00223095
-6.56375e-05
-0.000182217
0.00243052
-0.000132698
-0.000138145
0.00258684
-0.000192367
0.00261245
-0.000266842
0.00169386
-3.48487e-09
-7.16524e-06
0.00171917
2.13459e-09
-1.26526e-05
0.00174797
-1.69277e-09
-1.44068e-05
0.0017762
2.30996e-09
-1.41121e-05
0.00180265
2.12502e-09
-1.32281e-05
0.00182631
1.15098e-09
-1.18278e-05
0.00184812
1.22203e-08
-1.09048e-05
0.00186702
2.43379e-08
-9.45548e-06
0.00188483
1.19677e-07
-8.91304e-06
0.0019019
6.66722e-07
-8.62683e-06
0.00191677
1.1884e-06
-7.27591e-06
0.00192953
5.33496e-06
-7.12812e-06
0.00193063
1.2072e-05
-1.16938e-07
0.00191873
4.87074e-05
2.37342e-06
0.00170685
0.000226054
0.000104222
0.00119883
0.00129185
0.000131633
0.00116563
0.00152047
-6.78517e-05
0.00104947
0.00164112
-2.3647e-05
0.000841905
0.00182508
1.43632e-05
0.000491797
0.00209392
6.85001e-05
0.000169849
0.00231988
3.71553e-05
5.98773e-06
0.00249063
-4.94473e-05
-5.30897e-05
0.00272582
-0.000117882
-3.61266e-05
0.00292991
-0.000177628
0.00306855
-0.000242349
0.00169386
-1.37717e-09
-7.1645e-06
0.00171916
7.16073e-09
-1.26549e-05
0.00174797
-6.65853e-09
-1.4403e-05
0.00177619
1.33898e-08
-1.41158e-05
0.00180265
-1.32414e-08
-1.32227e-05
0.0018263
1.91929e-08
-1.1832e-05
0.00184811
1.45128e-09
-1.09002e-05
0.00186704
2.2464e-08
-9.46083e-06
0.00188461
3.18514e-07
-8.88646e-06
0.00190225
4.83318e-07
-8.734e-06
0.00191498
2.26504e-06
-6.90718e-06
0.00193302
3.62023e-06
-8.18232e-06
0.00192178
1.80089e-05
2.60177e-06
0.00193993
4.57593e-05
-7.6184e-06
0.00173029
0.000229207
0.00010341
0.00122578
0.00136576
0.000235555
0.00119222
0.00166865
-5.82648e-05
0.00108318
0.00179247
-2.18097e-05
0.000899951
0.00197827
1.42274e-05
0.000618311
0.00226695
5.32605e-05
0.000341484
0.0025315
3.14057e-05
0.000182187
0.00272159
-3.71735e-05
0.000116207
0.00298659
-9.7356e-05
0.000110967
0.00324895
-0.000154517
0.00360051
-0.000207729
0.00169385
-7.16361e-06
9.47668e-09
0.00171917
-1.26589e-05
3.30185e-09
0.00174797
-1.43971e-05
-9.81595e-09
0.0017762
-1.41253e-05
3.21516e-08
0.00180267
-1.32079e-05
-6.36305e-08
0.00182626
-1.18476e-05
1.19955e-07
0.00184824
-1.08882e-05
-1.9859e-07
0.00186675
-9.45741e-06
4.24476e-07
0.00188538
-8.9591e-06
-3.94495e-07
0.00190129
-8.69186e-06
1.95173e-06
0.00192081
-6.9618e-06
-3.3323e-06
0.00192207
-7.98824e-06
1.82612e-05
0.00194848
2.36203e-06
-1.3211e-05
0.00193837
-1.20183e-05
7.9815e-05
0.00178504
0.000100299
0.000181069
0.00129321
0.000208449
0.00143979
0.00120954
-3.99078e-05
0.00183174
0.0011206
-1.86364e-05
0.00191844
0.0009645
1.34927e-05
0.00210619
0.000743672
4.04837e-05
0.0024053
0.000526914
2.88976e-05
0.00268858
0.00039595
-2.95949e-05
0.00290983
0.000349225
-8.04438e-05
0.00319394
0.000335276
-0.000115994
0.00349814
-0.000149374
0.00423768
0.00172976
9.58068e-09
-5.87271e-05
0.00176404
-7.81698e-09
-4.6929e-05
0.00178821
9.7262e-09
-3.85806e-05
0.00180604
-1.10502e-08
-3.19396e-05
0.00181988
1.30167e-08
-2.70711e-05
0.00183055
-1.53136e-08
-2.24896e-05
0.0018394
1.92602e-08
-1.97609e-05
0.00184575
2.52075e-08
-1.58794e-05
0.00185158
1.90319e-07
-1.49718e-05
0.0018569
-1.18695e-07
-1.38519e-05
0.00185572
1.73635e-06
-8.05838e-06
0.00186614
-1.15143e-06
-1.61287e-05
0.00183689
5.02077e-06
2.10768e-05
0.0018854
2.41436e-06
-4.42742e-05
0.00175864
-8.72979e-06
0.000251072
0.00160368
-1.62155e-05
0.000255887
0.00137454
0.000159227
-5.29471e-05
0.00131302
0.000162747
-0.00014655
0.00123779
9.51636e-05
-4.76107e-05
0.00126166
-2.49173e-05
-2.07014e-05
0.00113572
9.77906e-05
-2.5637e-06
0.000812355
0.000210502
-1.4652e-05
0.000417574
0.000276876
-9.17314e-05
7.17763e-05
0.000317454
-0.000285857
0.000324309
-0.000653726
0.00172974
-4.23534e-09
-5.868e-05
0.00176405
8.76123e-09
-4.69831e-05
0.0017882
-4.89396e-09
-3.85315e-05
0.00180605
9.73208e-09
-3.19956e-05
0.00181986
-1.04016e-08
-2.70055e-05
0.00183057
1.32625e-08
-2.25804e-05
0.00183935
-2.0451e-08
-1.96298e-05
0.00184613
-1.01609e-08
-1.6182e-05
0.00185261
-1.40434e-07
-1.49587e-05
0.0018554
3.21116e-07
-1.23401e-05
0.00186901
-1.38942e-06
-1.55376e-05
0.00184914
2.7734e-06
4.41442e-06
0.00188937
-2.25613e-06
-2.58505e-05
0.00181674
9.02283e-06
5.77278e-05
0.00176877
5.33117e-05
9.00572e-05
0.00145056
0.000353983
0.000330291
0.00129146
0.000290475
-7.20533e-05
0.00121518
0.000331246
-0.000134749
0.000937668
0.000361524
-3.88441e-05
0.00108518
0.000418876
4.78735e-05
0.00078947
0.000390772
-1.36662e-05
0.000520631
0.00041143
-4.05278e-05
0.000198161
0.000507459
-9.73231e-05
-6.25125e-05
0.000596472
-0.000287967
0.000547456
-0.000624672
0.00172975
8.84297e-09
-5.87212e-05
0.00176405
-6.27432e-09
-4.69359e-05
0.00178821
8.23973e-09
-3.85732e-05
0.00180606
-8.82275e-09
-3.19505e-05
0.00181987
9.42627e-09
-2.70571e-05
0.00183057
-1.2045e-08
-2.25108e-05
0.00183938
1.50935e-08
-1.9736e-05
0.0018458
2.63751e-08
-1.5933e-05
0.00185159
1.9573e-07
-1.50654e-05
0.00185698
-5.2051e-08
-1.36545e-05
0.001854
1.8669e-06
-7.86379e-06
0.00186617
-6.41773e-07
-1.54535e-05
0.00183074
6.86184e-06
2.28709e-05
0.00187838
1.01409e-05
-4.13704e-05
0.0017558
3.35924e-05
0.00024892
0.00154534
0.000355285
0.000260728
0.00131657
0.000463803
-3.98258e-05
0.00122256
0.000517114
-0.000126711
0.000990572
0.000589355
-2.38086e-05
0.00107263
0.000730076
4.97852e-05
0.000802612
0.000670149
4.11119e-06
0.000466447
0.000663837
-2.384e-05
0.00012391
0.000759015
-8.95358e-05
-9.74133e-05
0.000850432
-0.000277777
0.000741228
-0.000598891
0.00172973
1.68562e-09
-5.86752e-05
0.00176406
-2.8597e-10
-4.69889e-05
0.00178819
6.3533e-10
-3.85268e-05
0.00180606
-1.60539e-09
-3.20026e-05
0.00181986
-5.48252e-10
-2.7e-05
0.00183059
1.21398e-10
-2.25878e-05
0.00183935
-1.99705e-09
-1.96307e-05
0.00184611
1.9969e-08
-1.61839e-05
0.0018525
5.1525e-08
-1.50479e-05
0.00185564
2.57942e-07
-1.24944e-05
0.00186789
4.51102e-07
-1.59079e-05
0.00185072
2.01316e-06
3.33312e-06
0.0018869
4.48502e-06
-2.66421e-05
0.00181094
1.80663e-05
6.03899e-05
0.00177635
8.47246e-05