/*--------------------------------*- C++ -*----------------------------------*\
  =========                 |
  \\      /  F ield         | OpenFOAM: The Open Source CFD Toolbox
   \\    /   O peration     | Website:  https://openfoam.org
    \\  /    A nd           | Version:  6
     \\/     M anipulation  |
\*---------------------------------------------------------------------------*/
FoamFile
{
    version     2.0;
    format      ascii;
    class       volScalarField;
    location    "4.5";
    object      T;
}
// * * * * * * * * * * * * * * * * * * * * * * * * * * * * * * * * * * * * * //

dimensions      [0 0 0 1 0 0 0];

internalField   nonuniform List<scalar> 
26250
(
0.980124
0.967374
0.955882
0.946587
0.937821
0.931005
0.924384
0.920566
0.919969
0.927731
0.943378
1.01109
1.13686
1.60255
2.52295
2.7089
2.66791
2.63357
2.59395
2.60669
2.61341
2.6331
2.66971
2.72261
2.71836
0.980129
0.967368
0.955888
0.946581
0.937827
0.930999
0.924388
0.920548
0.919954
0.92765
0.9432
1.0106
1.13582
1.59986
2.51896
2.70365
2.66295
2.62706
2.59038
2.59044
2.6025
2.62932
2.66085
2.71875
2.71031
0.980141
0.967354
0.955901
0.946569
0.937839
0.930986
0.924393
0.920496
0.919905
0.927497
0.942793
1.00983
1.13334
1.59746
2.51634
2.71048
2.6723
2.63277
2.59808
2.59737
2.61076
2.63872
2.67152
2.72767
2.71821
0.980287
0.967208
0.956052
0.946419
0.937987
0.930833
0.924499
0.920177
0.919657
0.927234
0.940406
1.00854
1.12783
1.5931
2.50726
2.70036
2.66108
2.62741
2.59361
2.60012
2.61323
2.64137
2.67471
2.73335
2.73467
0.980775
0.966714
0.956558
0.9459
0.938519
0.930283
0.925118
0.919775
0.921979
0.921964
0.946982
0.986101
1.15628
1.59065
2.36788
2.67205
2.63272
2.60456
2.57433
2.57789
2.5934
2.62524
2.66183
2.72419
2.73261
0.980351
0.967145
0.95612
0.946353
0.938059
0.930768
0.924568
0.92019
0.919742
0.926297
0.936553
1.00432
1.11418
1.57353
2.4645
2.67576
2.63633
2.60451
2.57072
2.57191
2.58615
2.61586
2.65166
2.71499
2.72751
0.980685
0.966805
0.956467
0.945991
0.938431
0.930365
0.925018
0.919706
0.921125
0.921228
0.944839
0.980724
1.14429
1.5396
2.3146
2.64006
2.61444
2.58774
2.55767
2.55815
2.5729
2.60266
2.63893
2.70358
2.72158
0.980381
0.967116
0.956148
0.946321
0.938085
0.930733
0.924592
0.920097
0.919657
0.925492
0.93606
0.997993
1.09847
1.53821
2.41063
2.63709
2.61923
2.58403
2.54909
2.54806
2.56093
2.58795
2.62167
2.68663
2.70603
0.980381
0.967109
0.956144
0.94632
0.93808
0.930735
0.924587
0.92007
0.919656
0.9249
0.936288
0.99331
1.09053
1.5024
2.35645
2.60751
2.60317
2.5742
2.53996
2.53621
2.54649
2.56851
2.59676
2.65905
2.67109
0.979112
0.968407
0.954823
0.947689
0.936714
0.932123
0.92324
0.921386
0.918265
0.923745
0.932738
0.988776
1.075
1.48996
2.32548
2.58563
2.58417
2.56093
2.53114
2.52501
2.53322
2.5462
2.56321
2.60135
2.57919
1.01423
1.02101
1.02631
1.02895
1.03185
1.03303
1.03514
1.03694
1.04475
1.05699
1.09429
1.18488
1.39814
1.99538
2.8244
2.71868
2.79672
2.75801
2.75716
2.76402
2.77011
2.78434
2.81988
2.82678
2.75997
1.01422
1.02101
1.02631
1.02895
1.03185
1.03303
1.03514
1.03693
1.04472
1.05693
1.09411
1.18454
1.39727
1.98924
2.8242
2.72093
2.79274
2.75225
2.74576
2.75527
2.76686
2.77661
2.80484
2.83266
2.76596
1.01423
1.02101
1.02631
1.02896
1.03185
1.03303
1.03514
1.03691
1.04464
1.05676
1.09375
1.1834
1.39504
1.98488
2.82295
2.7124
2.7926
2.75137
2.74301
2.75172
2.76658
2.77382
2.7942
2.83044
2.76815
1.01423
1.02101
1.02632
1.02895
1.03185
1.03303
1.03513
1.03687
1.04452
1.05646
1.09325
1.18143
1.392
1.9735
2.81934
2.72099
2.79001
2.74624
2.74258
2.74962
2.76405
2.76991
2.78533
2.82477
2.76764
1.0142
1.02106
1.02628
1.02901
1.03181
1.03308
1.03504
1.03676
1.04364
1.05698
1.08785
1.18729
1.37903
1.96396
2.81904
2.72706
2.78984
2.74259
2.73798
2.74305
2.75516
2.76204
2.77449
2.81259
2.76433
1.01423
1.02102
1.02631
1.02897
1.03185
1.03304
1.03509
1.03676
1.04411
1.05553
1.09141
1.17497
1.37983
1.92675
2.80906
2.72459
2.7842
2.73487
2.7301
2.73426
2.7431
2.74842
2.76024
2.79819
2.75627
1.01419
1.02107
1.02627
1.02902
1.0318
1.03308
1.03502
1.03668
1.04327
1.05584
1.08553
1.17983
1.36241
1.88977
2.80787
2.7298
2.77697
2.72495
2.72118
2.7253
2.73279
2.73297
2.73984
2.77485
2.73812
1.01422
1.02103
1.02631
1.02897
1.03183
1.03304
1.03505
1.03664
1.04359
1.05428
1.08838
1.16672
1.35744
1.85249
2.78979
2.728
2.75711
2.71523
2.70697
2.70927
2.71613
2.71662
2.71497
2.7459
2.71178
1.01422
1.02103
1.0263
1.02897
1.03183
1.03304
1.03504
1.03658
1.04333
1.05357
1.08617
1.16382
1.34099
1.82998
2.77765
2.7299
2.72985
2.70235
2.69776
2.69521
2.69381
2.69098
2.68701
2.70086
2.65096
1.01411
1.02109
1.02622
1.02901
1.03177
1.03305
1.03499
1.03648
1.0428
1.05272
1.08316
1.15928
1.32676
1.80559
2.75928
2.74432
2.7009
2.67197
2.67681
2.67982
2.67451
2.66351
2.6423
2.64583
2.56449
1.00631
1.01272
1.02146
1.02804
1.03564
1.04067
1.04703
1.05172
1.06212
1.0784
1.12233
1.22869
1.46482
2.13721
2.88078
2.52501
2.78402
2.76056
2.76319
2.7263
2.80631
2.80707
2.80792
2.80872
2.76903
1.00633
1.01269
1.02149
1.02802
1.03566
1.04064
1.04705
1.05169
1.06217
1.07817
1.1226
1.22703
1.46493
2.14002
2.8783
2.52793
2.78309
2.75782
2.76174
2.72705
2.80215
2.8033
2.80252
2.80482
2.7638
1.0063
1.01272
1.02146
1.02804
1.03564
1.04067
1.04703
1.0517
1.06202
1.07821
1.12179
1.22756
1.46175
2.13291
2.8754
2.53689
2.77993
2.75104
2.75716
2.72506
2.79361
2.79698
2.79441
2.79557
2.75602
1.00633
1.01269
1.02149
1.02802
1.03566
1.04064
1.04704
1.05165
1.06199
1.07781
1.12158
1.22478
1.45897
2.12977
2.87039
2.55453
2.78339
2.74858
2.75399
2.71527
2.78779
2.79
2.78379
2.78708
2.74831
1.00635
1.01267
1.02151
1.02799
1.03569
1.04062
1.04706
1.05159
1.06189
1.07729
1.12106
1.22112
1.45411
2.11829
2.864
2.56982
2.78148
2.74356
2.74994
2.71151
2.77237
2.77604
2.77076
2.76855
2.73252
1.00634
1.01268
1.0215
1.028
1.03568
1.04062
1.04704
1.05155
1.0616
1.07692
1.11941
1.2187
1.44496
2.09288
2.85656
2.58937
2.77659
2.73462
2.74119
2.70313
2.75878
2.76489
2.7533
2.75405
2.71838
1.00637
1.01265
1.02152
1.02798
1.0357
1.0406
1.04705
1.05146
1.06133
1.0762
1.11785
1.21352
1.43412
2.06178
2.84584
2.6125
2.77216
2.72434
2.73129
2.69707
2.7306
2.74247
2.73442
2.72519
2.68732
1.00637
1.01265
1.02153
1.02797
1.03571
1.04059
1.04704
1.05138
1.06095
1.07547
1.11571
1.20842
1.42099
2.01806
2.83151
2.63235
2.76389
2.71261
2.71549
2.68469
2.7103
2.72465
2.70544
2.69578
2.65636
1.00642
1.0126
1.02157
1.02793
1.03575
1.04054
1.04707
1.05127
1.06062
1.07441
1.11389
1.20052
1.40773
1.97313
2.80762
2.66603
2.74849
2.69756
2.70391
2.67194
2.67526
2.69319
2.67401
2.65003
2.58868
1.00635
1.01266
1.02151
1.02799
1.03568
1.04059
1.047
1.05115
1.05999
1.07365
1.11075
1.19673
1.39145
1.89273
2.79888
2.68311
2.73827
2.67574
2.68057
2.65828
2.65392
2.66195
2.63198
2.59493
2.48196
1.01423
1.02101
1.02632
1.02895
1.03186
1.03303
1.03514
1.03691
1.04471
1.05689
1.09421
1.18476
1.39886
2.00364
2.82489
2.71662
2.79287
2.75504
2.74404
2.75392
2.76214
2.77897
2.79237
2.82986
2.78306
1.01421
1.02106
1.02628
1.02901
1.03181
1.03309
1.03506
1.03685
1.04391
1.05777
1.08949
1.19251
1.39089
2.01081
2.83035
2.6831
2.80334
2.76515
2.7629
2.77234
2.77726
2.79299
2.80642
2.82869
2.7678
1.01423
1.02101
1.02632
1.02895
1.03186
1.03303
1.03513
1.03688
1.04461
1.05663
1.09381
1.18301
1.39633
1.99831
2.82148
2.71399
2.78993
2.75042
2.75177
2.76107
2.76872
2.7873
2.80455
2.82333
2.76328
1.01421
1.02105
1.02629
1.02901
1.03181
1.03308
1.03506
1.03681
1.04383
1.05736
1.08883
1.18995
1.38526
1.99434
2.82005
2.72367
2.79269
2.74859
2.74297
2.75286
2.764
2.77409
2.79857
2.81816
2.76012
1.01421
1.02105
1.02629
1.029
1.03182
1.03308
1.03505
1.03677
1.04376
1.05696
1.08822
1.18751
1.38012
1.97412
2.81672
2.72397
2.79152
2.74463
2.73935
2.74526
2.75749
2.76444
2.78589
2.80757
2.75498
1.0142
1.02106
1.02628
1.02901
1.03181
1.03308
1.03503
1.03673
1.04354
1.05648
1.08703
1.1842
1.37238
1.93928
2.81295
2.72864
2.78741
2.73906
2.7322
2.73576
2.74476
2.75017
2.77044
2.79618
2.74694
1.01422
1.02102
1.02631
1.02897
1.03184
1.03304
1.03508
1.03671
1.04387
1.05501
1.09008
1.17091
1.37045
1.88145
2.79934
2.72481
2.77725
2.72716
2.72396
2.72808
2.7339
2.7332
2.74612
2.77415
2.7295
1.01423
1.02102
1.02631
1.02896
1.03184
1.03303
1.03506
1.03664
1.04363
1.05437
1.08818
1.16795
1.35571
1.85211
2.79028
2.72767
2.75082
2.71291
2.70724
2.71072
2.71811
2.71748
2.71934
2.7466
2.70363
1.01422
1.02103
1.0263
1.02897
1.03183
1.03303
1.03504
1.03659
1.04334
1.05358
1.08627
1.16375
1.34125
1.82951
2.77708
2.73163
2.72806
2.69856
2.69669
2.69557
2.69483
2.691
2.69038
2.70131
2.64464
1.0141
1.02109
1.02622
1.02901
1.03177
1.03305
1.03499
1.03648
1.04281
1.05274
1.08321
1.15938
1.327
1.80554
2.75867
2.74522
2.70216
2.66815
2.67211
2.67935
2.67523
2.66383
2.6457
2.64783
2.55801
0.980246
0.967248
0.956009
0.94646
0.937947
0.930877
0.924462
0.920284
0.91974
0.927537
0.941041
1.01116
1.13332
1.6095
2.5368
2.71412
2.673
2.63453
2.59771
2.59646
2.60676
2.63524
2.66558
2.72686
2.70459
0.980836
0.96665
0.956621
0.945832
0.938585
0.930217
0.9252
0.919784
0.92243
0.922468
0.948591
0.989138
1.1688
1.632
2.40705
2.69606
2.65631
2.62028
2.58373
2.59752
2.60438
2.62925
2.66138
2.71773
2.69892
0.980258
0.967238
0.956024
0.946449
0.937964
0.930868
0.924494
0.920353
0.91987
0.927218
0.938562
1.00968
1.12543
1.60819
2.53368
2.71254
2.66995
2.63552
2.59867
2.611
2.61894
2.64282
2.67718
2.73402
2.72658
0.980838
0.966649
0.956625
0.945833
0.938587
0.930224
0.925198
0.919837
0.922496
0.922971
0.948236
0.991692
1.16317
1.60751
2.37542
2.67744
2.63838
2.60859
2.57914
2.58276
2.59713
2.62865
2.6622
2.72542
2.72772
0.980808
0.966682
0.956595
0.945866
0.938555
0.93026
0.925151
0.919887
0.9223
0.923581
0.947461
0.99058
1.15791
1.56694
2.37419
2.67825
2.63812
2.60726
2.57691
2.5804
2.59398
2.62376
2.65824
2.7195
2.7306
0.980763
0.966726
0.956547
0.945911
0.93851
0.930293
0.925106
0.919781
0.921824
0.922338
0.94634
0.986192
1.15185
1.55739
2.34669
2.65818
2.61947
2.59302
2.56206
2.56306
2.57748
2.60724
2.64504
2.70711
2.72789
0.98034
0.967155
0.956102
0.946364
0.938041
0.930778
0.92453
0.920074
0.919604
0.926224
0.937975
1.00189
1.10873
1.55414
2.43732
2.65713
2.62753
2.59298
2.55935
2.5564
2.57193
2.59338
2.63381
2.68726
2.71945
0.980332
0.967162
0.956096
0.946369
0.938032
0.930778
0.924517
0.92002
0.91956
0.925673
0.938187
0.997772
1.10084
1.52766
2.39992
2.63433
2.62123
2.58772
2.55478
2.55135
2.56693
2.58538
2.62458
2.67269
2.70124
0.980369
0.96712
0.956132
0.946326
0.938072
0.930738
0.924578
0.920066
0.919647
0.924939
0.936387
0.99341
1.09051
1.50268
2.35644
2.60636
2.60144
2.57244
2.54018
2.53742
2.55254
2.56867
2.60428
2.65216
2.66473
0.979125
0.968387
0.954857
0.947635
0.936783
0.93206
0.923292
0.921348
0.918326
0.923795
0.932866
0.988843
1.07468
1.49062
2.3262
2.58555
2.58379
2.55929
2.53019
2.52407
2.53494
2.54655
2.56642
2.60638
2.5758
0.981072
0.966423
0.956855
0.945599
0.938818
0.929958
0.925343
0.918976
0.919533
0.919585
0.938476
0.967172
1.10494
1.40006
2.10528
2.52719
2.54549
2.52681
2.50715
2.50533
2.51071
2.52182
2.52077
2.51439
2.42229
0.979184
0.968353
0.954912
0.947597
0.936836
0.931992
0.923319
0.920999
0.917169
0.921934
0.929347
0.97832
1.05999
1.40644
2.17751
2.4857
2.5122
2.49471
2.47457
2.46903
2.47015
2.46984
2.4617
2.43701
2.33597
0.981075
0.966422
0.956865
0.945587
0.938839
0.929916
0.925336
0.918663
0.918336
0.918043
0.933912
0.95746
1.07758
1.30736
1.95462
2.4425
2.4873
2.47545
2.46204
2.452
2.4471
2.43816
2.41965
2.38603
2.30419
0.979432
0.968084
0.955179
0.947302
0.937127
0.931661
0.923594
0.920373
0.916274
0.91986
0.927153
0.965499
1.03878
1.30615
1.97653
2.36079
2.43892
2.43837
2.4313
2.42023
2.4132
2.40258
2.38028
2.34794
2.28128
0.979591
0.967923
0.955344
0.947131
0.937304
0.931469
0.923766
0.920013
0.915719
0.918687
0.924186
0.957007
1.01312
1.23691
1.84817
2.28974
2.41591
2.41703
2.40843
2.39719
2.37927
2.36592
2.33814
2.30712
2.24968
0.980555
0.966952
0.956339
0.946123
0.938317
0.930428
0.924766
0.91881
0.916071
0.915577
0.924142
0.939494
1.00819
1.13217
1.5659
2.1524
2.36502
2.37886
2.37884
2.36739
2.35032
2.3344
2.30701
2.27423
2.22403
0.980299
0.967219
0.956074
0.946401
0.938047
0.930702
0.924482
0.91895
0.915219
0.914793
0.92076
0.933311
0.983876
1.07456
1.42638
2.06935
2.30592
2.33142
2.33523
2.32514
2.31072
2.29652
2.2734
2.2428
2.19834
0.980144
0.967368
0.955922
0.94655
0.937898
0.930847
0.924333
0.919071
0.914996
0.914759
0.918009
0.928901
0.965443
1.04878
1.3144
1.93905
2.25571
2.3106
2.3085
2.29556
2.2782
2.26383
2.24461
2.21836
2.18229
0.981095
0.966399
0.956899
0.94555
0.938888
0.929839
0.925306
0.918057
0.915788
0.913065
0.915989
0.924074
0.953127
1.02433
1.2251
1.80512
2.18969
2.29071
2.29027
2.27553
2.25528
2.23267
2.21111
2.186
2.15349
0.979955
0.967566
0.955709
0.946779
0.937651
0.931121
0.923998
0.919337
0.913977
0.912309
0.911866
0.920691
0.93692
1.00114
1.12756
1.50604
2.04473
2.23938
2.26092
2.25806
2.24154
2.21638
2.19288
2.16536
2.13283
0.980723
0.966777
0.9565
0.945963
0.938454
0.930294
0.924797
0.91848
0.914615
0.910638
0.912335
0.914732
0.932172
0.968445
1.07175
1.40248
1.85445
2.15582
2.20179
2.21584
2.20914
2.19464
2.17351
2.15086
2.12271
0.98006
0.967448
0.955821
0.946653
0.937766
0.930993
0.924099
0.919174
0.913845
0.911108
0.910218
0.913104
0.921276
0.952994
1.0212
1.234
1.75545
2.08889
2.17506
2.18391
2.17831
2.16315
2.14338
2.12121
2.10056
0.980533
0.966964
0.956313
0.946145
0.938276
0.930457
0.92464
0.918577
0.914376
0.910089
0.909228
0.909574
0.917627
0.938094
0.992498
1.14065
1.50609
1.95737
2.13365
2.1517
2.15141
2.13914
2.11792
2.09667
2.07477
0.980463
0.967034
0.956246
0.946211
0.938214
0.930517
0.924584
0.918611
0.914295
0.909802
0.907822
0.907461
0.913056
0.924715
0.966721
1.04065
1.32524
1.84926
2.06709
2.12004
2.12122
2.11434
2.09609
2.07297
2.04989
0.980194
0.967316
0.955965
0.946507
0.937924
0.930823
0.924287
0.918911
0.913983
0.909962
0.906949
0.906748
0.909467
0.917206
0.945383
1.00021
1.19286
1.65566
1.9914
2.10065
2.10728
2.10199
2.0861
2.06105
2.03604
0.980737
0.966773
0.956525
0.945924
0.938501
0.930255
0.924828
0.918371
0.914506
0.909374
0.907272
0.905426
0.907033
0.912758
0.928494
0.973015
1.0756
1.43096
1.83556
2.04807
2.08068
2.08083
2.07091
2.04976
2.02331
0.980633
0.96689
0.956457
0.945947
0.938445
0.930384
0.924629
0.918581
0.914365
0.909363
0.906913
0.904036
0.905052
0.907966
0.919465
0.947063
1.02106
1.21915
1.62532
1.96328
2.04852
2.05876
2.05511
2.04066
2.0162
0.980471
0.967029
0.956257
0.946204
0.938215
0.930531
0.92456
0.918638
0.914193
0.909624
0.906432
0.903453
0.903588
0.904747
0.911669
0.9305
0.979613
1.09846
1.41758
1.81502
1.98665
2.01579
2.02469
2.01964
2.0056
0.980496
0.967008
0.956274
0.946193
0.938229
0.930513
0.924586
0.918606
0.914229
0.909563
0.906418
0.90298
0.901907
0.901864
0.906617
0.917524
0.951409
1.01633
1.25198
1.68847
1.90883
1.98191
1.99293
1.99181
1.98109
0.980248
0.967256
0.95602
0.946447
0.937979
0.930763
0.924336
0.918859
0.913975
0.909803
0.906153
0.903035
0.900897
0.900739
0.903266
0.910812
0.930034
0.977304
1.10776
1.46796
1.80478
1.9507
1.97412
1.97362
1.9661
0.980542
0.966962
0.956321
0.946142
0.938284
0.930455
0.924638
0.918552
0.914274
0.909496
0.906436
0.902712
0.900956
0.899863
0.900956
0.905549
0.915585
0.950075
1.01648
1.26204
1.59797
1.87029
1.94798
1.95733
1.95485
0.980531
0.966975
0.956313
0.946153
0.938274
0.930469
0.92462
0.918572
0.914255
0.909514
0.906379
0.902772
0.900495
0.898537
0.899321
0.900917
0.908438
0.9268
0.977079
1.08924
1.38779
1.73204
1.89372
1.92571
1.93361
0.980386
0.967122
0.956159
0.94631
0.938116
0.93063
0.924463
0.918736
0.914088
0.909689
0.906217
0.902862
0.900313
0.89812
0.897722
0.898299
0.90238
0.913444
0.944053
1.0051
1.21093
1.59139
1.80247
1.88937
1.89982
0.980365
0.967139
0.956139
0.946327
0.938098
0.930644
0.924451
0.918746
0.914079
0.909697
0.90621
0.902841
0.900298
0.897818
0.896677
0.896624
0.899051
0.906038
0.922734
0.963194
1.0731
1.37946
1.68634
1.8475
1.88049
0.980256
0.967255
0.956021
0.946452
0.937972
0.930776
0.924318
0.918884
0.913941
0.909841
0.906066
0.902983
0.900138
0.897873
0.896121
0.896041
0.89688
0.900911
0.909095
0.93781
0.992404
1.17898
1.47704
1.75433
1.85077
0.980447
0.967058
0.956222
0.946243
0.938182
0.930558
0.924535
0.918658
0.914163
0.909613
0.906287
0.902759
0.900335
0.897633
0.896034
0.894772
0.895235
0.897202
0.901706
0.918803
0.950655
1.03938
1.2618
1.60049
1.7844
0.980369
0.967139
0.95614
0.946329
0.938097
0.930646
0.924449
0.918748
0.914073
0.909706
0.906194
0.902854
0.900234
0.897708
0.895803
0.894184
0.893976
0.894407
0.897575
0.905712
0.92882
0.974535
1.12312
1.44381
1.69633
0.980271
0.967235
0.956042
0.946426
0.937998
0.930746
0.924349
0.918848
0.913977
0.909804
0.906097
0.90295
0.900142
0.897779
0.895701
0.89404
0.893125
0.89331
0.894683
0.900607
0.909963
0.946087
1.00635
1.23648
1.51174
0.980414
0.967091
0.956189
0.946277
0.938148
0.930593
0.9245
0.918692
0.91413
0.909645
0.906254
0.902787
0.900301
0.897609
0.895846
0.893771
0.89283
0.892337
0.892931
0.895683
0.901015
0.919912
0.957325
1.05752
1.29698
0.980437
0.967072
0.95621
0.946258
0.938169
0.930572
0.924521
0.918672
0.914148
0.909626
0.906274
0.902769
0.900315
0.897607
0.895822
0.89376
0.892579
0.891443
0.891811
0.892763
0.896166
0.905767
0.929993
0.980096
1.14145
0.980308
0.9672
0.956079
0.946391
0.938035
0.93071
0.924386
0.918813
0.914012
0.909769
0.906134
0.902914
0.900173
0.897748
0.895684
0.893882
0.892365
0.891208
0.890885
0.891272
0.892998
0.89889
0.910578
0.943516
1.01517
0.98029
0.967215
0.956062
0.946405
0.93802
0.930723
0.924372
0.918825
0.913998
0.909784
0.906114
0.902937
0.900146
0.897772
0.895662
0.893887
0.892334
0.891065
0.890291
0.890316
0.891187
0.894856
0.900769
0.922852
0.962014
0.98038
0.967125
0.956154
0.94631
0.938114
0.930626
0.924467
0.918726
0.914095
0.909681
0.906217
0.902827
0.900256
0.89766
0.895767
0.893787
0.892412
0.890934
0.890139
0.889886
0.890309
0.892511
0.89641
0.91176
0.939392
0.98038
0.967126
0.956154
0.946313
0.938113
0.930629
0.924465
0.91873
0.914091
0.909685
0.906212
0.902828
0.900255
0.897655
0.895774
0.893772
0.892426
0.890898
0.890087
0.889548
0.8899
0.891595
0.894906
0.907947
0.931923
0.980397
0.967113
0.956168
0.946301
0.938125
0.930615
0.924479
0.918715
0.914106
0.90967
0.906228
0.902813
0.900269
0.897637
0.895786
0.893754
0.892436
0.890876
0.890062
0.889355
0.889705
0.891022
0.894498
0.905594
0.931958
0.980394
0.967115
0.956166
0.946303
0.938123
0.93062
0.924474
0.918722
0.9141
0.909677
0.90622
0.902819
0.90026
0.897645
0.895777
0.893764
0.892425
0.890885
0.890035
0.889305
0.889624
0.890919
0.894052
0.9055
0.928629
0.980385
0.967123
0.956156
0.946312
0.938113
0.930631
0.924465
0.918733
0.914089
0.90969
0.906208
0.902834
0.900247
0.897658
0.895765
0.893775
0.892411
0.890897
0.890008
0.889263
0.88956
0.890841
0.893784
0.905473
0.927514
0.980402
0.967107
0.956169
0.946296
0.938129
0.930615
0.924484
0.918723
0.9141
0.909689
0.906201
0.902844
0.900231
0.897666
0.895761
0.893777
0.8924
0.890911
0.889988
0.889089
0.88942
0.890341
0.893909
0.903201
0.929653
0.980397
0.967113
0.956166
0.946304
0.938122
0.930622
0.924473
0.918724
0.914098
0.90968
0.906217
0.902824
0.900256
0.897648
0.895774
0.893764
0.89242
0.890885
0.890007
0.889207
0.889516
0.890658
0.89367
0.904503
0.926775
0.98039
0.967119
0.956161
0.946309
0.938117
0.930626
0.924468
0.918727
0.914095
0.909683
0.906217
0.902826
0.900259
0.897652
0.895774
0.893768
0.892418
0.890884
0.890008
0.889235
0.889536
0.890738
0.893685
0.90496
0.926711
1.01385
1.02141
1.02593
1.02937
1.03144
1.03344
1.03459
1.03684
1.0406
1.0541
1.08002
1.14253
1.33436
1.78857
2.69709
2.74659
2.70535
2.64848
2.64967
2.65369
2.64932
2.63564
2.5944
2.55344
2.40472
1.01373
1.02147
1.02585
1.02939
1.03139
1.03344
1.03455
1.03672
1.04032
1.05145
1.07893
1.13154
1.32427
1.73515
2.62047
2.73683
2.69923
2.65054
2.62988
2.62738
2.6182
2.59863
2.55209
2.4881
2.3428
1.0139
1.02136
1.02598
1.02932
1.03149
1.03338
1.03455
1.03637
1.03965
1.05126
1.07409
1.12745
1.29967
1.67778
2.54191
2.7137
2.6702
2.65493
2.62445
2.60519
2.59102
2.56512
2.5091
2.44757
2.32272
1.01409
1.02112
1.0262
1.02905
1.03174
1.03309
1.03478
1.03596
1.03936
1.0477
1.07183
1.11258
1.28063
1.60935
2.41489
2.6716
2.6638
2.64628
2.62096
2.59143
2.56054
2.5371
2.48286
2.42675
2.32316
1.014
1.02121
1.02611
1.02913
1.03166
1.03314
1.03476
1.03592
1.03966
1.04653
1.06447
1.11832
1.21612
1.5844
2.39879
2.60632
2.63978
2.62729
2.61178
2.58636
2.54247
2.50556
2.45489
2.40823
2.32529
1.01392
1.02133
1.02601
1.02927
1.03154
1.0333
1.03455
1.03593
1.0381
1.04614
1.06098
1.09846
1.21266
1.44349
2.17671
2.56884
2.63333
2.60613
2.59356
2.57549
2.53445
2.49706
2.43102
2.38783
2.32425
1.01373
1.0215
1.02584
1.02943
1.03138
1.03345
1.03438
1.03597
1.03761
1.04461
1.05591
1.08824
1.17525
1.36003
1.91704
2.47637
2.61429
2.59696
2.56749
2.54948
2.5163
2.48642
2.4243
2.3666
2.31583
1.01397
1.02127
1.02607
1.02919
1.03162
1.0332
1.03464
1.03565
1.03772
1.0414
1.05262
1.07855
1.13683
1.3003
1.77586
2.35627
2.56911
2.56735
2.55171
2.53342
2.49455
2.47111
2.42197
2.36132
2.30589
1.01406
1.02121
1.02614
1.02915
1.03167
1.03317
1.03465
1.03553
1.03717
1.04005
1.04902
1.07064
1.11347
1.26021
1.57505
2.27792
2.53497
2.53575
2.52298
2.51106
2.48053
2.4478
2.4116
2.35842
2.3015
1.01374
1.02148
1.02585
1.0294
1.0314
1.0334
1.03438
1.03567
1.03654
1.03892
1.0474
1.06181
1.10039
1.21275
1.44111
2.08278
2.4633
2.51951
2.49656
2.49038
2.47118
2.43891
2.40501
2.35771
2.30346
1.01386
1.02138
1.02595
1.02933
1.03147
1.03335
1.03442
1.03565
1.03649
1.03904
1.04337
1.05704
1.08804
1.15847
1.36446
1.91625
2.35334
2.48915
2.48216
2.46106
2.44663
2.41886
2.38907
2.3528
2.30541
1.01384
1.02138
1.02594
1.02931
1.03147
1.03333
1.03442
1.03559
1.03637
1.03819
1.0413
1.05208
1.07239
1.12893
1.25914
1.70155
2.18673
2.42825
2.45599
2.44828
2.4329
2.40809
2.37731
2.34433
2.30316
1.01408
1.02117
1.02616
1.02911
1.03169
1.03312
1.03464
1.03535
1.03648
1.03729
1.04055
1.04676
1.06185
1.10842
1.18951
1.49428
2.13523
2.35669
2.40651
2.40911
2.40288
2.38906
2.36314
2.33405
2.29911
1.01413
1.02112
1.02622
1.02906
1.03174
1.03308
1.03468
1.03531
1.03642
1.037
1.03884
1.04449
1.05638
1.08331
1.16917
1.33169
1.84734
2.2845
2.3873
2.38621
2.37827
2.36605
2.34768
2.32123
2.29052
1.01388
1.02135
1.02599
1.02927
1.03152
1.03328
1.03448
1.03549
1.03621
1.03701
1.0381
1.0427
1.04967
1.07243
1.12153
1.24051
1.54956
2.13555
2.33058
2.34945
2.34876
2.33669
2.32389
2.30755
2.28343
1.01382
1.02143
1.02591
1.02937
1.03143
1.03339
1.03437
1.0356
1.03609
1.03706
1.0378
1.04102
1.04571
1.06244
1.09684
1.17355
1.42025
1.97376
2.26212
2.32978
2.326
2.31531
2.29652
2.27806
2.2592
1.01385
1.0214
1.02595
1.02932
1.03147
1.03336
1.03439
1.03558
1.03611
1.03697
1.03756
1.0397
1.04299
1.05529
1.07675
1.13854
1.28185
1.7396
2.12353
2.28023
2.30278
2.30074
2.28665
2.26799
2.24509
1.01395
1.02129
1.02604
1.02923
1.03157
1.03324
1.03452
1.03545
1.03622
1.03681
1.03744
1.03828
1.04174
1.04762
1.06337
1.107
1.18474
1.47179
2.02124
2.21542
2.25544
2.26408
2.26045
2.24952
2.23267
1.01388
1.02136
1.02598
1.02929
1.0315
1.03331
1.03445
1.03551
1.03615
1.03687
1.03726
1.03799
1.03958
1.04541
1.05472
1.08169
1.15062
1.29448
1.71813
2.12654
2.23716
2.23937
2.23742
2.22546
2.21204
1.014
1.02123
1.0261
1.02917
1.03163
1.03318
1.03458
1.03538
1.03627
1.03673
1.03738
1.03777
1.03877
1.04273
1.04834
1.06765
1.10715
1.19809
1.45952
1.95975
2.17719
2.2157
2.21461
2.2093
2.19518
1.01394
1.02131
1.02603
1.02925
1.03156
1.03326
1.0345
1.03547
1.03619
1.03681
1.03729
1.03778
1.03839
1.04092
1.04452
1.05787
1.08238
1.14418
1.31417
1.75002
2.07638
2.18819
2.19007
2.18949
2.17753
1.01387
1.02138
1.02596
1.02931
1.03149
1.03332
1.03443
1.03553
1.03613
1.03687
1.03722
1.03781
1.03819
1.0396
1.04196
1.05051
1.06443
1.1094
1.195
1.4971
1.88228
2.12691
2.17061
2.16887
2.16351
1.01388
1.02136
1.02597
1.0293
1.0315
1.0333
1.03445
1.03551
1.03614
1.03685
1.03723
1.03777
1.03806
1.03889
1.04035
1.04616
1.05481
1.08241
1.14307
1.28594
1.65385
2.00411
2.13135
2.14828
2.1478
1.01394
1.0213
1.02604
1.02923
1.03157
1.03324
1.03451
1.03544
1.03621
1.03679
1.03729
1.03768
1.03805
1.03841
1.03937
1.04295
1.04824
1.06539
1.10209
1.18418
1.41579
1.85175
2.05638
2.11278
2.12189
1.01398
1.02126
1.02608
1.02919
1.03161
1.0332
1.03455
1.0354
1.03625
1.03674
1.03733
1.03763
1.03808
1.03831
1.03888
1.04109
1.04424
1.05577
1.07621
1.1311
1.26571
1.64954
1.9363
2.07156
2.09075
1.01394
1.0213
1.02603
1.02924
1.03156
1.03325
1.03451
1.03545
1.0362
1.03679
1.03728
1.03768
1.03802
1.0383
1.03861
1.03949
1.04241
1.04749
1.06084
1.09639
1.16227
1.38448
1.7998
1.99685
2.06393
1.01389
1.02135
1.02598
1.02929
1.03151
1.03329
1.03446
1.0355
1.03616
1.03684
1.03724
1.03772
1.03797
1.03835
1.03855
1.03915
1.04032
1.04444
1.05143
1.07139
1.1189
1.22261
1.50123
1.86434
2.02337
1.01395
1.02128
1.02605
1.02922
1.03158
1.03322
1.03453
1.03542
1.03623
1.03677
1.0373
1.03766
1.03804
1.03826
1.0386
1.03885
1.0398
1.04144
1.04699
1.0568
1.08548
1.14487
1.31605
1.65901
1.92311
1.01397
1.02127
1.02607
1.0292
1.03159
1.03321
1.03454
1.03542
1.03624
1.03676
1.03732
1.03764
1.03805
1.03825
1.03859
1.03876
1.03926
1.04019
1.04367
1.04901
1.06595
1.10024
1.18453
1.39232
1.78701
1.01391
1.02133
1.026
1.02927
1.03153
1.03328
1.03448
1.03548
1.03617
1.03682
1.03725
1.03771
1.03798
1.03832
1.0385
1.03879
1.03899
1.03978
1.04104
1.04581
1.05327
1.07612
1.12595
1.24237
1.53577
1.01389
1.02134
1.02599
1.02927
1.03152
1.03328
1.03447
1.03548
1.03617
1.03683
1.03725
1.03771
1.03798
1.03832
1.03849
1.03877
1.03891
1.03929
1.04003
1.04288
1.04707
1.06059
1.08951
1.15172
1.33794
1.01396
1.02128
1.02605
1.02922
1.03158
1.03322
1.03453
1.03543
1.03623
1.03677
1.03731
1.03765
1.03804
1.03827
1.03855
1.0387
1.03895
1.0391
1.03968
1.04075
1.0442
1.05053
1.068
1.10563
1.20138
1.01396
1.02128
1.02606
1.02921
1.03159
1.03322
1.03453
1.03542
1.03623
1.03677
1.03731
1.03765
1.03804
1.03826
1.03856
1.0387
1.03893
1.03905
1.03932
1.0403
1.04182
1.0472
1.05624
1.08218
1.13939
1.01393
1.02131
1.02602
1.02924
1.03155
1.03325
1.0345
1.03546
1.0362
1.0368
1.03728
1.03768
1.03801
1.03829
1.03852
1.03873
1.0389
1.03906
1.03925
1.04
1.04108
1.04557
1.05195
1.07441
1.11792
1.01391
1.02133
1.02601
1.02926
1.03154
1.03327
1.03449
1.03547
1.03618
1.03681
1.03726
1.03769
1.03799
1.03831
1.03851
1.03874
1.03888
1.03907
1.03922
1.03983
1.04074
1.04452
1.05022
1.06896
1.11237
1.01391
1.02133
1.02601
1.02926
1.03154
1.03327
1.03448
1.03548
1.03618
1.03682
1.03726
1.0377
1.03799
1.03831
1.0385
1.03875
1.03888
1.03908
1.03921
1.03976
1.04058
1.04408
1.04929
1.06663
1.1073
1.01392
1.02132
1.02602
1.02925
1.03155
1.03326
1.03449
1.03546
1.03619
1.03681
1.03727
1.03769
1.038
1.0383
1.03852
1.03874
1.03889
1.03905
1.03917
1.03951
1.04056
1.04306
1.04793
1.06554
1.09338
1.01391
1.02133
1.026
1.02927
1.03153
1.03328
1.03448
1.03548
1.03617
1.03682
1.03725
1.03771
1.03798
1.03832
1.0385
1.03876
1.03887
1.03909
1.03919
1.03963
1.04042
1.04311
1.04859
1.06232
1.10363
1.01392
1.02132
1.02601
1.02926
1.03154
1.03326
1.03449
1.03547
1.03619
1.03681
1.03727
1.03769
1.038
1.0383
1.03851
1.03874
1.03889
1.03905
1.03917
1.03948
1.04072
1.04272
1.04836
1.06399
1.09395
1.01392
1.02132
1.02601
1.02926
1.03154
1.03326
1.03449
1.03547
1.03619
1.03681
1.03727
1.03769
1.038
1.0383
1.03851
1.03874
1.03888
1.03905
1.03917
1.03947
1.04071
1.04268
1.04833
1.06381
1.09377
1.00585
1.01317
1.02101
1.0285
1.03517
1.04112
1.04638
1.05159
1.05835
1.07518
1.10714
1.18209
1.39692
1.93352
2.76928
2.70089
2.71402
2.67071
2.66473
2.63789
2.61645
2.62149
2.58625
2.51964
2.34078
1.00584
1.01318
1.021
1.02851
1.03516
1.04113
1.04635
1.05152
1.05801
1.07409
1.10366
1.17497
1.37482
1.8741
2.73517
2.71273
2.69363
2.65696
2.65158
2.62829
2.59349
2.57937
2.53866
2.45825
2.28583
1.00628
1.01273
1.02145
1.02806
1.03562
1.04064
1.04686
1.05077
1.05796
1.0697
1.10064
1.17512
1.32437
1.78935
2.73405
2.71155
2.67963
2.64334
2.63307
2.61037
2.56105
2.54249
2.49645
2.42444
2.28729
1.00563
1.01339
1.02079
1.02871
1.03496
1.04128
1.04618
1.05132
1.05682
1.06799
1.09555
1.16394
1.2938
1.73037
2.696
2.70435
2.64616
2.63989
2.62393
2.60155
2.54404
2.50398
2.46315
2.40135
2.29233
1.00624
1.01278
1.02139
1.02811
1.03553
1.04073
1.04665
1.05088
1.05684
1.06675
1.09232
1.13596
1.30265
1.61245
2.50977
2.6814
2.6588
2.62666
2.60432
2.58385
2.5303
2.4829
2.43222
2.38781
2.29807
1.00565
1.01337
1.0208
1.02871
1.03495
1.04131
1.04607
1.05139
1.05628
1.06743
1.08578
1.13392
1.2614
1.53932
2.36687
2.63394
2.66349
2.63019
2.59538
2.57282
2.52154
2.46335
2.41112
2.36773
2.30402
1.00552
1.01349
1.02069
1.02882
1.03484
1.04142
1.04594
1.05141
1.05569
1.06527
1.0805
1.1214
1.22365
1.44672
2.15815
2.57111
2.6526
2.62764
2.57503
2.55803
2.51752
2.45849
2.39243
2.35217
2.30052
1.00549
1.01353
1.02065
1.02886
1.0348
1.04145
1.04589
1.05135
1.05512
1.06282
1.07552
1.10765
1.18923
1.35438
1.87938
2.49193
2.62579
2.61083
2.56891
2.53471
2.50519
2.4552
2.38708
2.3322
2.29239
1.00552
1.0135
1.02068
1.02884
1.03483
1.04143
1.04589
1.05127
1.0547
1.06095
1.07121
1.09829
1.16302
1.29204
1.70027
2.51216
2.58192
2.56584
2.55633
2.52481
2.49485
2.45319
2.38849
2.32741
2.27854
1.00569
1.01333
1.02086
1.02864
1.03503
1.04121
1.04613
1.05093
1.05494
1.06003
1.07048
1.09005
1.13651
1.27049
1.54919
2.35785
2.55625
2.55574
2.53866
2.50876
2.47798
2.44818
2.39127
2.32925
2.27565
1.00584
1.01317
1.021
1.02849
1.03517
1.04107
1.04626
1.05077
1.05495
1.05918
1.0669
1.0837
1.11725
1.22446
1.42654
2.06443
2.48629
2.54864
2.52599
2.50084
2.46476
2.44014
2.39683
2.33429
2.27752
1.00569
1.01333
1.02085
1.02865
1.03501
1.04123
1.04608
1.05093
1.05461
1.05889
1.06412
1.07903
1.10394
1.17332
1.33329
1.82989
2.36849
2.51588
2.50733
2.48932
2.45028
2.4233
2.39312
2.34591
2.28382
1.0062
1.01282
1.02135
1.02815
1.0355
1.04075
1.04655
1.05045
1.05499
1.05813
1.06308
1.0725
1.09493
1.13787
1.27612
1.59231
2.2489
2.47461
2.48867
2.47628
2.44458
2.41009
2.38386
2.34652
2.29623
1.00506
1.01397
1.02021
1.02929
1.03437
1.04185
1.04546
1.05151
1.05392
1.05894
1.06126
1.06908
1.08466
1.12575
1.20092
1.45651
2.11361
2.38118