/*--------------------------------*- C++ -*----------------------------------*\
  =========                 |
  \\      /  F ield         | OpenFOAM: The Open Source CFD Toolbox
   \\    /   O peration     | Website:  https://openfoam.org
    \\  /    A nd           | Version:  6
     \\/     M anipulation  |
\*---------------------------------------------------------------------------*/
FoamFile
{
    version     2.0;
    format      ascii;
    class       volVectorField;
    location    "4.5";
    object      U;
}
// * * * * * * * * * * * * * * * * * * * * * * * * * * * * * * * * * * * * * //

dimensions      [0 1 -1 0 0 0 0];

internalField   nonuniform List<vector> 
26250
(
(3.01561 5.44623e-08 -0.0579677)
(3.02577 5.03419e-07 -0.0597714)
(3.03428 2.1758e-07 -0.0611245)
(3.04139 1.1045e-06 -0.0622759)
(3.04763 -2.95823e-08 -0.0631533)
(3.05271 1.45866e-06 -0.0640245)
(3.05729 -4.08922e-07 -0.0645774)
(3.05996 4.23047e-06 -0.0654432)
(3.05854 1.00323e-05 -0.0660134)
(3.05599 3.62533e-05 -0.0676306)
(3.03651 7.00599e-05 -0.0702002)
(3.00026 0.000216695 -0.0783972)
(2.8574 0.000477069 -0.0935742)
(2.45189 0.00145311 -0.139915)
(1.46261 0.00378714 -0.238332)
(0.657434 0.00984306 -0.277774)
(0.761166 0.012809 -0.2591)
(0.904035 0.0148835 -0.250447)
(0.984839 0.0185768 -0.254255)
(0.968189 0.024821 -0.2597)
(0.950956 0.0255338 -0.260746)
(0.895976 0.0211856 -0.263424)
(0.762034 0.0134529 -0.267379)
(0.511369 0.0107503 -0.268898)
(0.290444 0.00285121 -0.262932)
(3.01561 1.17412e-06 -0.0579681)
(3.02577 1.46958e-06 -0.059771)
(3.03428 9.4932e-07 -0.0611248)
(3.04139 2.89806e-06 -0.0622754)
(3.04763 -1.10137e-06 -0.0631536)
(3.0527 4.88818e-06 -0.0640241)
(3.05729 -3.31183e-06 -0.0645774)
(3.05997 1.74776e-05 -0.0654427)
(3.05857 4.21633e-05 -0.0660118)
(3.05604 0.000129142 -0.0676257)
(3.03665 0.000245946 -0.0701843)
(3.0006 0.000661615 -0.0783651)
(2.85833 0.00141169 -0.0934882)
(2.45485 0.00380093 -0.139692)
(1.47263 0.00981976 -0.238004)
(0.675334 0.0201826 -0.27663)
(0.776489 0.0289168 -0.257938)
(0.917152 0.0384938 -0.248609)
(0.998152 0.0469811 -0.252456)
(0.999345 0.0541828 -0.255891)
(0.970005 0.0564942 -0.258468)
(0.910436 0.050926 -0.261495)
(0.786783 0.0391158 -0.264069)
(0.55547 0.035866 -0.266174)
(0.352314 0.0296337 -0.260351)
(3.01561 8.18956e-06 -0.0579686)
(3.02577 -8.41607e-07 -0.0597703)
(3.03428 4.14361e-06 -0.0611254)
(3.04139 -1.64418e-06 -0.0622748)
(3.04763 -1.53261e-06 -0.0631539)
(3.0527 3.93904e-06 -0.0640239)
(3.0573 -8.04477e-06 -0.0645766)
(3.05999 6.91761e-05 -0.0654414)
(3.05863 0.000179557 -0.0660083)
(3.05616 0.000445497 -0.0676138)
(3.03693 0.000801659 -0.0701547)
(3.00124 0.00179926 -0.0782849)
(2.85973 0.00345602 -0.0932827)
(2.45855 0.00771358 -0.139366)
(1.4774 0.0173621 -0.237481)
(0.649915 0.0416466 -0.277142)
(0.758276 0.0567321 -0.258169)
(0.904961 0.0674893 -0.248822)
(0.985202 0.0742635 -0.252619)
(0.986125 0.0779672 -0.255841)
(0.951849 0.0825335 -0.258672)
(0.884621 0.0840535 -0.26118)
(0.761478 0.0799515 -0.263232)
(0.530493 0.0780504 -0.265141)
(0.32155 0.0751632 -0.259345)
(3.01561 2.17466e-05 -0.0579757)
(3.02576 -8.76758e-06 -0.0597621)
(3.03428 1.38049e-05 -0.0611334)
(3.04139 -1.89115e-05 -0.062266)
(3.04763 1.69154e-05 -0.0631622)
(3.0527 -3.79054e-05 -0.0640152)
(3.05734 4.43264e-05 -0.064581)
(3.06012 -9.98086e-05 -0.0654317)
(3.05888 5.5441e-05 -0.065992)
(3.05656 0.00133849 -0.0676113)
(3.03775 -0.00248995 -0.0700012)
(3.00299 0.0104299 -0.0781567)
(2.86243 -0.00977584 -0.092719)
(2.47273 0.0414215 -0.138593)
(1.4967 0.0304294 -0.2366)
(0.69832 0.0793767 -0.274849)
(0.793047 0.0993234 -0.255893)
(0.926291 0.10815 -0.246266)
(0.999949 0.113092 -0.250741)
(0.987549 0.118982 -0.255123)
(0.955694 0.124895 -0.257064)
(0.887688 0.13023 -0.259508)
(0.758525 0.132773 -0.261046)
(0.521872 0.131456 -0.262549)
(0.305302 0.123908 -0.258173)
(3.01561 7.06123e-06 -0.0579991)
(3.02576 -2.18909e-06 -0.0597357)
(3.03427 6.41925e-06 -0.0611604)
(3.04139 -7.16393e-06 -0.0622361)
(3.04761 7.42033e-06 -0.0631943)
(3.05272 -1.42079e-05 -0.0639767)
(3.05725 8.78324e-06 -0.0646289)
(3.06 -2.64281e-05 -0.0653621)
(3.05982 -8.04728e-05 -0.0661002)
(3.05402 0.00034441 -0.0675543)
(3.04397 0.000877145 -0.0694611)
(2.99536 0.00255003 -0.0785967)
(2.87509 0.00564432 -0.0908565)
(2.51328 0.0143388 -0.142172)
(1.52181 0.0366176 -0.227179)
(0.745383 0.0890574 -0.271026)
(0.825745 0.118413 -0.252609)
(0.949713 0.131952 -0.242441)
(1.01854 0.143658 -0.246722)
(1.01168 0.156496 -0.250459)
(0.97698 0.168313 -0.252754)
(0.907687 0.177866 -0.25525)
(0.774443 0.185291 -0.256605)
(0.531861 0.18863 -0.257733)
(0.308121 0.178548 -0.254216)
(3.01561 -5.73356e-07 -0.0579788)
(3.02576 -4.07048e-07 -0.0597585)
(3.03427 2.17276e-06 -0.0611373)
(3.04139 -3.6916e-06 -0.0622613)
(3.04763 7.79076e-06 -0.0631677)
(3.0527 -1.25519e-05 -0.0640076)
(3.05733 2.77841e-05 -0.0645889)
(3.06005 -1.55224e-05 -0.0654161)
(3.05918 0.000203273 -0.0659709)
(3.05735 0.000476092 -0.0675617)
(3.03952 0.00112187 -0.0697494)
(3.00695 0.00224509 -0.0777314)
(2.87093 0.00593535 -0.0913685)
(2.50433 0.0159649 -0.136096)
(1.56339 0.0445961 -0.231385)
(0.778746 0.110387 -0.271288)
(0.850472 0.146125 -0.251868)
(0.965259 0.163339 -0.240229)
(1.03447 0.179109 -0.244371)
(1.02882 0.196574 -0.247841)
(0.992366 0.213398 -0.249875)
(0.923223 0.227215 -0.25164)
(0.790045 0.240058 -0.252244)
(0.543217 0.251405 -0.252687)
(0.313151 0.244471 -0.249164)
(3.01561 -3.25603e-06 -0.0579947)
(3.02576 2.51283e-07 -0.0597407)
(3.03427 -4.94655e-06 -0.0611557)
(3.0414 3.80621e-06 -0.0622407)
(3.04761 -6.41288e-06 -0.0631903)
(3.05274 1.0314e-05 -0.0639787)
(3.05724 -5.3558e-06 -0.0646278)
(3.06015 2.19241e-05 -0.0653468)
(3.06023 4.96813e-05 -0.0660762)
(3.05478 0.000194894 -0.0674645)
(3.04542 0.000432862 -0.0692997)
(2.9994 0.00194162 -0.0779814)
(2.88648 0.00550146 -0.0896355)
(2.54518 0.0167825 -0.137415)
(1.60802 0.0555356 -0.22063)
(0.846837 0.133744 -0.2666)
(0.889887 0.177626 -0.249283)
(0.992074 0.197225 -0.236978)
(1.05635 0.215665 -0.240944)
(1.05167 0.236002 -0.244132)
(1.01308 0.257577 -0.246262)
(0.943764 0.277128 -0.2475)
(0.811671 0.298365 -0.247409)
(0.560718 0.322479 -0.247105)
(0.32255 0.328381 -0.243161)
(3.01561 -1.73442e-05 -0.0579804)
(3.02576 6.95298e-06 -0.059757)
(3.03427 -1.34977e-05 -0.0611386)
(3.04139 2.15631e-05 -0.0622602)
(3.04763 -2.37109e-05 -0.0631681)
(3.0527 5.59066e-05 -0.0640076)
(3.05734 -7.28571e-05 -0.0645873)
(3.06009 0.000179652 -0.0654108)
(3.05932 -0.000116417 -0.0659453)
(3.05766 -0.000854185 -0.0674455)
(3.04098 0.00339951 -0.0696004)
(3.01104 -0.00556354 -0.0770719)
(2.88371 0.0200413 -0.0897394)
(2.5419 -0.00650175 -0.132689)
(1.67256 0.0636228 -0.22445)
(0.887236 0.151879 -0.266745)
(0.910102 0.205575 -0.248793)
(1.00306 0.228127 -0.234505)
(1.07005 0.249518 -0.238037)
(1.06749 0.27388 -0.240983)
(1.03107 0.300535 -0.242686)
(0.965489 0.327236 -0.243175)
(0.838989 0.360296 -0.242113)
(0.587927 0.404673 -0.240798)
(0.341869 0.440835 -0.235425)
(3.01561 -3.01995e-05 -0.0579802)
(3.02577 7.90382e-06 -0.0597568)
(3.03428 -5.79266e-06 -0.0611387)
(3.04139 3.67342e-06 -0.0622604)
(3.04764 1.92484e-05 -0.0631676)
(3.0527 -2.09251e-05 -0.0640087)
(3.05734 6.50179e-05 -0.064585)
(3.06011 -7.64236e-05 -0.0654117)
(3.05937 0.000221431 -0.065934)
(3.05772 0.000737734 -0.0673653)
(3.04185 0.00142528 -0.0694802)
(3.01319 0.00423285 -0.0767461)
(2.89365 0.00949079 -0.0886421)
(2.56403 0.0267593 -0.130672)
(1.75813 0.0722835 -0.218543)
(0.967733 0.185632 -0.263179)
(0.955968 0.239317 -0.246725)
(1.03089 0.266778 -0.23163)
(1.09303 0.287272 -0.234853)
(1.08977 0.313422 -0.237504)
(1.05582 0.343345 -0.238556)
(0.995986 0.377364 -0.238174)
(0.88094 0.425484 -0.235893)
(0.639817 0.500173 -0.233253)
(0.385998 0.599685 -0.224956)
(3.01562 2.24154e-05 -0.0579189)
(3.02578 -1.77509e-05 -0.0598243)
(3.03427 2.26946e-05 -0.061071)
(3.04141 -4.21685e-05 -0.0623313)
(3.04761 4.97692e-05 -0.0630988)
(3.05274 -9.27415e-05 -0.0640751)
(3.0573 0.000140366 -0.0645268)
(3.06022 -0.000180622 -0.0654522)
(3.06 0.000564875 -0.0658872)
(3.05865 0.0018722 -0.0672994)
(3.0438 -0.000416383 -0.069188)
(3.01786 0.011988 -0.0763551)
(2.9016 -0.00278041 -0.087088)
(2.59576 0.0600169 -0.128909)
(1.81384 0.0780769 -0.21433)
(1.0411 0.22102 -0.260003)
(1.00721 0.273293 -0.243068)
(1.06842 0.305867 -0.228546)
(1.12369 0.324583 -0.231361)
(1.12074 0.351929 -0.233847)
(1.09157 0.384072 -0.234139)
(1.04141 0.426242 -0.232754)
(0.947886 0.495167 -0.228711)
(0.743455 0.617538 -0.222561)
(0.480855 0.8577 -0.208742)
(2.98855 -2.61192e-07 -0.00143234)
(2.98291 4.91207e-07 -0.00328772)
(2.97953 7.47613e-08 -0.00492941)
(2.97738 1.11967e-06 -0.00644601)
(2.97597 1.7495e-07 -0.00768121)
(2.975 1.35136e-06 -0.00889801)
(2.97415 4.37114e-07 -0.00973796)
(2.97264 2.03478e-06 -0.0108139)
(2.96759 8.6246e-06 -0.0112761)
(2.95791 2.71844e-05 -0.0121474)
(2.92607 7.4746e-05 -0.0136434)
(2.85639 0.000190951 -0.0165606)
(2.65401 0.000499592 -0.023281)
(2.01494 0.00143386 -0.0363633)
(0.55194 0.00400718 -0.0644644)
(-0.437215 0.0159295 -0.0649504)
(0.0414415 0.0226464 -0.0607196)
(0.42998 0.0310752 -0.0582277)
(0.503689 0.0442701 -0.0608211)
(0.399703 0.0678384 -0.0611287)
(0.381829 0.0688834 -0.0630458)
(0.286543 0.0571129 -0.0634437)
(0.0905413 0.048673 -0.0636802)
(0.00676093 0.0409112 -0.0607426)
(0.157294 0.0145483 -0.0547111)
(2.98855 3.93763e-07 -0.00143226)
(2.98291 1.38178e-06 -0.00328784)
(2.97953 9.45255e-07 -0.00492931)
(2.97738 2.63873e-06 -0.0064462)
(2.97597 7.16154e-07 -0.00768111)
(2.975 3.19116e-06 -0.00889799)
(2.97415 1.2936e-06 -0.00973816)
(2.97264 8.45448e-06 -0.0108131)
(2.96761 3.13324e-05 -0.011278)
(2.95796 0.000103986 -0.0121392)
(2.9262 0.000239504 -0.0136685)
(2.85675 0.000705654 -0.0165191)
(2.65492 0.00160327 -0.0233627)
(2.01808 0.00472903 -0.036307)
(0.56403 0.0126387 -0.064639)
(-0.392121 0.0267792 -0.0648813)
(0.0602497 0.050212 -0.0602669)
(0.44385 0.0726648 -0.0577517)
(0.524385 0.0925108 -0.0603998)
(0.462652 0.122786 -0.0618881)
(0.400588 0.120638 -0.0624233)
(0.293814 0.111422 -0.0619983)
(0.119588 0.106063 -0.0620945)
(0.0117086 0.107558 -0.059976)
(0.201963 0.067398 -0.0540465)
(2.98855 3.9582e-06 -0.00143245)
(2.98291 1.50588e-06 -0.00328781)
(2.97953 3.27398e-06 -0.00492925)
(2.97738 1.70886e-06 -0.00644637)
(2.97597 1.04316e-06 -0.00768057)
(2.975 2.7977e-06 -0.00889898)
(2.97415 9.01145e-07 -0.00973654)
(2.97266 1.80353e-05 -0.0108164)
(2.96767 6.71277e-05 -0.0112763)
(2.95808 0.000220011 -0.0121507)
(2.92655 0.000449661 -0.0136372)
(2.85755 0.00141079 -0.0165583)
(2.65705 0.00291322 -0.0232541)
(2.02411 0.00871268 -0.036235)
(0.568052 0.022571 -0.0644466)
(-0.445649 0.058054 -0.0638227)
(0.0535245 0.0931218 -0.060069)
(0.443055 0.121453 -0.0575424)
(0.521777 0.137416 -0.0602581)
(0.467562 0.145684 -0.0620246)
(0.397719 0.161395 -0.0620516)
(0.29215 0.173687 -0.0609072)
(0.128596 0.181539 -0.0604286)
(0.00836552 0.188079 -0.0585143)
(0.181107 0.138656 -0.0527708)
(2.98855 1.04541e-05 -0.00143373)
(2.98291 -8.1325e-08 -0.00328614)
(2.97953 8.35963e-06 -0.00493023)
(2.97738 -3.01309e-06 -0.00644513)
(2.97597 6.24097e-06 -0.00768129)
(2.975 -3.92482e-06 -0.00889884)
(2.97416 9.21592e-06 -0.00973592)
(2.9727 4.39683e-05 -0.0108245)
(2.96777 0.000219356 -0.0112904)
(2.95826 0.000287189 -0.0121603)
(2.92713 0.00170954 -0.013679)
(2.85876 0.00175718 -0.0165426)
(2.66039 0.00676749 -0.0233311)
(2.0333 0.0147236 -0.0360924)
(0.596277 0.032496 -0.0644125)
(-0.370745 0.0970769 -0.0644256)
(0.0806982 0.138532 -0.059587)
(0.452295 0.170337 -0.0566632)
(0.512155 0.190294 -0.0595393)
(0.419692 0.211539 -0.0606736)
(0.376081 0.229214 -0.0614889)
(0.280037 0.249396 -0.0600361)
(0.130645 0.266507 -0.0589668)
(0.00645446 0.272396 -0.0567477)
(0.161494 0.213116 -0.0511189)
(2.98855 4.56771e-06 -0.00143651)
(2.98291 -8.33746e-08 -0.00328219)
(2.97953 3.99343e-06 -0.00493331)
(2.97738 -1.33544e-06 -0.00644067)
(2.97597 2.29238e-06 -0.00768709)
(2.975 -1.7715e-07 -0.00888915)
(2.97419 1.66669e-06 -0.00975044)
(2.97284 3.18047e-05 -0.0107902)
(2.96788 0.000109502 -0.0112943)
(2.95927 0.00038866 -0.0122942)
(2.92802 0.000832371 -0.0131229)
(2.86099 0.00276841 -0.0178985)
(2.66649 0.00616469 -0.0206966)
(2.04251 0.0190553 -0.0396991)
(0.595476 0.0527757 -0.0627454)
(-0.341205 0.124637 -0.064749)
(0.100166 0.178197 -0.0592386)
(0.463326 0.21721 -0.0558849)
(0.517776 0.248053 -0.0586902)
(0.443521 0.278203 -0.060436)
(0.379527 0.300137 -0.0605906)
(0.284673 0.325162 -0.0589895)
(0.144016 0.349842 -0.057424)
(0.0125589 0.356987 -0.0546775)
(0.148576 0.291353 -0.0490734)
(2.98855 6.91553e-07 -0.00143515)
(2.98291 -9.12175e-07 -0.00328434)
(2.97953 1.30029e-06 -0.00493191)
(2.97738 -2.21992e-06 -0.00644258)
(2.97597 3.17474e-06 -0.00768401)
(2.975 -3.12392e-06 -0.00889482)
(2.97419 9.29521e-06 -0.00973912)
(2.97279 1.49253e-05 -0.0108165)
(2.96808 8.95014e-05 -0.0112673)
(2.95886 0.000430565 -0.0121752)
(2.92904 0.00101576 -0.0136697)
(2.86327 0.00324716 -0.0164778)
(2.67295 0.00804539 -0.0231379)
(2.07207 0.0242212 -0.0351852)
(0.679441 0.0693987 -0.0635713)
(-0.291294 0.159804 -0.0639795)
(0.12265 0.220814 -0.0587874)
(0.476614 0.264983 -0.0549184)
(0.525638 0.304175 -0.0578128)
(0.450233 0.346962 -0.0596445)
(0.385072 0.372455 -0.0596329)
(0.296399 0.401398 -0.0577751)
(0.16695 0.4328 -0.0557034)
(0.0278701 0.445455 -0.0524423)
(0.13916 0.381571 -0.0466073)
(2.98855 -2.96554e-06 -0.00143686)
(2.98291 -2.13423e-07 -0.0032818)
(2.97953 -3.25936e-06 -0.00493412)
(2.97738 9.55428e-07 -0.00643922)
(2.97597 -2.15604e-06 -0.00768908)
(2.97501 3.94724e-06 -0.00888556)
(2.9742 4.16087e-06 -0.0097558)
(2.97291 3.03465e-05 -0.0107809)
(2.96821 0.000129577 -0.0113092)
(2.96003 0.000500318 -0.0122736)
(2.93028 0.00126919 -0.0130834)
(2.86708 0.00375819 -0.0176851)
(2.68286 0.0102573 -0.020323)
(2.09546 0.0281137 -0.0379811)
(0.716902 0.0875883 -0.0614558)
(-0.21691 0.193275 -0.064486)
(0.157903 0.262854 -0.0584416)
(0.493303 0.31138 -0.0540546)
(0.538281 0.357375 -0.0568642)
(0.467372 0.407549 -0.0587643)
(0.398015 0.442558 -0.0585794)
(0.316564 0.478494 -0.0564208)
(0.200382 0.51827 -0.0537759)
(0.0549688 0.541682 -0.0499049)
(0.135202 0.49052 -0.0436212)
(2.98855 -1.10502e-05 -0.0014353)
(2.98291 2.03941e-06 -0.00328424)
(2.97953 -8.88831e-06 -0.00493153)
(2.97738 8.38332e-06 -0.00644351)
(2.97598 -7.97095e-06 -0.00768222)
(2.975 1.62656e-05 -0.00889762)
(2.97421 -5.79851e-06 -0.00973477)
(2.97289 2.57561e-05 -0.0108179)
(2.96847 4.27083e-05 -0.0112503)
(2.95983 0.000582741 -0.0121176)
(2.93172 0.000595095 -0.0135545)
(2.87115 0.00434194 -0.0161848)
(2.6922 0.0105814 -0.0226006)
(2.1381 0.0281995 -0.033234)
(0.832604 0.102227 -0.0621963)
(-0.139774 0.227604 -0.0638525)
(0.197024 0.304775 -0.0577816)
(0.512516 0.356705 -0.0529573)
(0.554113 0.40781 -0.0557413)
(0.487451 0.463587 -0.0574725)
(0.419823 0.510526 -0.0572266)
(0.346328 0.556304 -0.0550041)
(0.245515 0.607788 -0.0517691)
(0.0979769 0.649319 -0.0472304)
(0.140895 0.627278 -0.0402743)
(2.98855 -1.11534e-05 -0.00143438)
(2.98291 1.01454e-06 -0.00328519)
(2.97954 -7.37612e-06 -0.00493127)
(2.97738 3.97931e-06 -0.0064443)
(2.97598 -1.71529e-06 -0.00768164)
(2.97501 4.11801e-06 -0.00889852)
(2.97421 1.14528e-05 -0.00973316)
(2.97294 2.71722e-05 -0.0108168)
(2.96869 0.000179312 -0.0112415)
(2.96056 0.000670029 -0.0120651)
(2.93314 0.00209433 -0.0135078)
(2.87661 0.00473528 -0.0159646)
(2.70202 0.0146877 -0.0223645)
(2.17389 0.0323963 -0.032528)
(0.935038 0.107264 -0.0616302)
(-0.0356778 0.261591 -0.0638947)
(0.246989 0.347959 -0.0570215)
(0.534103 0.403576 -0.0519212)
(0.572699 0.457059 -0.0546604)
(0.51232 0.516993 -0.0561401)
(0.450358 0.575689 -0.0556324)
(0.387406 0.632424 -0.0532989)
(0.306165 0.700081 -0.0496799)
(0.166399 0.772574 -0.0442919)
(0.164042 0.806609 -0.036292)
(2.98856 1.44574e-05 -0.00142988)
(2.98291 1.65768e-06 -0.00329)
(2.97954 3.63335e-06 -0.00493067)
(2.97738 4.48363e-06 -0.00644228)
(2.97598 -1.03295e-05 -0.00768835)
(2.97502 2.1128e-05 -0.00888554)
(2.97423 -3.91789e-05 -0.0097526)
(2.97304 0.000126251 -0.0107838)
(2.969 1.07093e-05 -0.0112631)
(2.96142 0.00175139 -0.0120968)
(2.93504 -0.000403499 -0.0134421)
(2.88205 0.0129554 -0.0159755)
(2.71318 0.00209635 -0.0220477)
(2.21678 0.0575859 -0.0315329)
(1.03412 0.105272 -0.060899)
(0.0730219 0.292168 -0.0641678)
(0.303348 0.392858 -0.0559267)
(0.557835 0.450735 -0.0506538)
(0.593353 0.504219 -0.0532604)
(0.542255 0.567337 -0.0547504)
(0.488779 0.634919 -0.0540506)
(0.440704 0.704577 -0.0514718)
(0.388579 0.793769 -0.047326)
(0.276767 0.911681 -0.0415233)
(0.219203 1.08677 -0.0325683)
(2.9951 4.79575e-07 9.84365e-07)
(2.98906 3.28387e-07 -4.93411e-07)
(2.98253 5.4723e-07 6.86035e-07)
(2.97637 5.13306e-07 -3.47365e-07)
(2.97072 -1.04485e-07 2.28172e-07)
(2.96583 1.47145e-06 4.48275e-08)
(2.96115 -1.26442e-06 -7.26082e-08)
(2.95658 6.2949e-06 1.07844e-06)
(2.94905 1.72329e-06 3.55e-06)
(2.93587 6.80482e-05 6.5488e-06)
(2.89746 -3.06569e-05 1.11446e-05)
(2.81478 0.000351376 1.54458e-05)
(2.58402 0.000105485 -5.84776e-06)
(1.83852 0.00093229 -5.53669e-05)
(0.162551 0.00223003 -0.000269315)
(-0.939757 0.0174571 -0.000106127)
(-0.132558 0.0284089 -4.18555e-05)
(0.306054 0.038666 0.000208117)
(0.391815 0.0428628 0.000527144)
(0.294809 0.0417655 0.00117554)
(-0.14895 0.0636605 0.000108506)
(-0.107322 0.0690106 -0.000269886)
(-0.142972 0.0697712 -0.000266795)
(-0.0915451 0.0712172 -0.000145398)
(0.0896676 0.0602486 -0.000371499)
(2.9951 6.57606e-07 2.44218e-06)
(2.98906 5.22074e-07 -2.34708e-06)
(2.98253 8.45258e-07 2.22303e-06)
(2.97637 9.96061e-07 -2.57677e-06)
(2.97073 4.71862e-07 2.48518e-06)
(2.96583 1.1277e-06 -2.65939e-06)
(2.96115 9.21041e-07 3.0931e-06)
(2.95658 4.96714e-06 3.76298e-06)
(2.9491 2.55324e-05 2.56713e-05)
(2.93584 8.44648e-05 -1.97593e-05)
(2.89766 0.000223179 0.000202379)
(2.81494 0.000605101 -0.000172792)
(2.58461 0.00145063 0.000333878)
(1.83907 0.00415692 -0.00017034)
(0.171586 0.0124874 -0.000884692)
(-0.925394 0.043698 -0.000618864)
(-0.114086 0.0737109 0.000146946)
(0.316414 0.0969632 0.000140996)
(0.387256 0.102767 -0.0001492)
(0.266591 0.0961413 -0.000771295)
(-0.185585 0.125837 0.000140086)
(-0.127699 0.144067 0.00038325)
(-0.161992 0.152889 0.000135248)
(-0.108804 0.15959 -4.88422e-05)
(0.0886003 0.140954 -0.000140162)
(2.9951 9.54251e-07 1.66199e-06)
(2.98906 8.03494e-07 -1.45626e-06)
(2.98253 1.0421e-06 1.47763e-06)
(2.97637 1.25103e-06 -1.64274e-06)
(2.97072 1.86339e-07 1.29584e-06)
(2.96583 1.10775e-06 -1.2385e-06)
(2.96115 1.34299e-06 6.3857e-07)
(2.9566 7.58363e-06 1.4597e-06)
(2.94912 4.38554e-05 3.34702e-06)
(2.93603 0.000156692 7.4261e-06)
(2.89788 0.000412546 5.42507e-06)
(2.81585 0.00115763 2.48113e-05)
(2.58671 0.00278828 -3.40326e-05)
(1.84764 0.00812764 -8.18492e-05)
(0.189651 0.0239704 -0.000392333)
(-0.899793 0.0639753 0.000202153)
(-0.0989306 0.115221 -4.60425e-05)
(0.325018 0.154804 -8.02537e-05)
(0.376422 0.17037 -0.000391371)
(0.25807 0.166759 -0.000887345)
(-0.187644 0.205729 0.000133559)
(-0.120596 0.230064 0.000484014)
(-0.161923 0.246419 0.000362005)
(-0.116137 0.257836 8.98818e-05)
(0.0766784 0.2325 0.000156904)
(2.9951 1.39277e-06 2.31969e-06)
(2.98906 9.64265e-07 -2.39816e-06)
(2.98253 1.10331e-06 2.32457e-06)
(2.97637 1.13962e-06 -2.86539e-06)
(2.97073 -1.29759e-06 2.77364e-06)
(2.96583 3.0532e-06 -3.19048e-06)
(2.96116 -1.73217e-06 3.14576e-06)
(2.95662 2.15313e-05 2.62558e-06)
(2.94923 5.60254e-05 2.06701e-05)
(2.93615 0.00033772 -2.70553e-05)
(2.89847 0.000447044 0.000188874)
(2.817 0.00220607 -0.000210864)
(2.58993 0.00384072 0.000323741)
(1.857 0.0127293 -0.000226678)
(0.211386 0.0367912 -0.00082497)
(-0.870734 0.0984283 9.95262e-05)
(-0.0815354 0.162246 2.77256e-05)
(0.336364 0.211921 -2.01688e-05)
(0.369198 0.237657 -1.13643e-05)
(0.260289 0.240112 0.000317212)
(-0.175145 0.290019 8.489e-05)
(-0.102273 0.316081 0.000190094)
(-0.150671 0.339534 0.000279018)
(-0.116786 0.353895 0.000156122)
(0.0674679 0.322916 0.000242731)
(2.9951 -6.20316e-08 1.17726e-06)
(2.98906 1.92703e-07 -1.19821e-06)
(2.98253 -2.61082e-07 1.17207e-06)
(2.97637 2.17639e-07 -1.46258e-06)
(2.97073 -7.58365e-07 1.2088e-06)
(2.96583 1.2598e-06 -1.25757e-06)
(2.96117 2.82005e-06 4.80094e-07)
(2.95665 1.90756e-05 -4.25387e-08)
(2.94938 9.31901e-05 -2.88066e-06)
(2.93637 0.000371137 -2.22867e-06)
(2.89934 0.000881686 -1.7223e-05)
(2.81891 0.00276191 -2.41366e-05)
(2.59523 0.00649189 -6.87156e-05)
(1.87393 0.0199016 -0.00013615)
(0.254072 0.0588467 -0.000359989)
(-0.819197 0.141873 -0.000200042)
(-0.0536635 0.213327 8.87798e-05)
(0.349138 0.268863 5.50439e-05)
(0.364513 0.303841 -2.73058e-05)
(0.262422 0.317365 -0.000110145)
(-0.130246 0.370088 -1.14584e-05)
(-0.079425 0.400683 2.96548e-05)
(-0.131276 0.431151 0.000175441)
(-0.112148 0.448889 0.000189687)
(0.0609551 0.414561 0.000268621)
(2.9951 -2.44733e-06 1.09039e-06)
(2.98906 -1.78457e-07 -1.2251e-06)
(2.98253 -2.05537e-06 1.21509e-06)
(2.97637 -6.96161e-08 -1.58924e-06)
(2.97073 1.77513e-07 1.98385e-06)
(2.96583 2.92846e-07 -2.55838e-06)
(2.96117 7.64709e-06 3.5916e-06)
(2.95669 1.93388e-05 -6.07772e-07)
(2.94952 0.000117356 1.72172e-05)
(2.93682 0.000456632 -3.05311e-05)
(2.90043 0.00121841 0.000189808)
(2.82196 0.00362053 -0.000244699)
(2.60329 0.00905384 0.000370366)
(1.90309 0.0276691 -0.000256997)
(0.310393 0.0817121 -0.000603243)
(-0.756805 0.180889 0.000186955)
(-0.0240524 0.261348 6.23245e-05)
(0.363097 0.323852 1.39752e-05)
(0.36561 0.368242 -8.08357e-06)
(0.263946 0.395521 5.77259e-05)
(-0.0725137 0.447425 -5.83402e-05)
(-0.0511379 0.486289 -2.74266e-05)
(-0.103257 0.524423 0.000124577)
(-0.101598 0.548215 0.00019309)
(0.0572203 0.51549 0.000283673)
(2.9951 -4.21404e-06 -1.41448e-06)
(2.98906 4.51297e-08 2.04639e-06)
(2.98253 -3.41169e-06 -1.95448e-06)
(2.97637 5.02306e-07 3.06711e-06)
(2.97073 -1.5594e-08 -3.48684e-06)
(2.96583 1.21504e-06 4.82652e-06)
(2.96118 9.37227e-06 -5.75255e-06)
(2.95674 2.59076e-05 2.80438e-06)
(2.94975 0.000140829 -1.78515e-05)
(2.9373 0.000592187 2.39144e-05)
(2.90197 0.00145043 -0.000206186)
(2.82579 0.00458481 0.000217896)
(2.61394 0.0110932 -0.000438157)
(1.93955 0.0340947 0.00019684)
(0.381793 0.101623 0.000490316)
(-0.683185 0.219574 -0.000233274)
(0.00781219 0.309277 -6.09056e-05)
(0.378643 0.377682 -5.92336e-05)
(0.372566 0.430649 -4.06185e-05)
(0.26934 0.472255 -2.98485e-05)
(-0.00674753 0.524968 -6.29205e-05)
(-0.0159368 0.573809 -2.86878e-05)
(-0.0647815 0.620864 0.000110654)
(-0.0825093 0.655882 0.000196885)
(0.0579024 0.631822 0.000280387)
(2.9951 -5.02389e-06 -9.41817e-07)
(2.98906 1.2185e-06 1.26076e-06)
(2.98253 -3.49234e-06 -1.0991e-06)
(2.97637 2.95887e-06 1.7874e-06)
(2.97073 4.5944e-07 -1.50367e-06)
(2.96584 4.2452e-06 2.05284e-06)
(2.96119 1.1265e-05 -1.3639e-06)
(2.9568 3.27206e-05 7.00036e-07)
(2.95 0.000156504 1.1998e-07)
(2.93793 0.000717689 -4.22769e-06)
(2.90373 0.00158803 1.52543e-05)
(2.83047 0.00541395 -4.83354e-05)
(2.62644 0.0125304 9.76738e-05)
(1.98411 0.0388188 -0.000117357)
(0.473607 0.116717 0.000207985)
(-0.591488 0.257959 0.000216942)
(0.0425346 0.358068 -6.85724e-05)
(0.39508 0.430991 -9.90719e-05)
(0.384909 0.491022 -5.82532e-05)
(0.2818 0.545422 -5.02868e-05)
(0.0572577 0.604657 -5.56314e-05)
(0.0275617 0.660184 -2.64048e-05)
(-0.0128838 0.721682 9.81874e-05)
(-0.0509468 0.775117 0.000205939)
(0.0656842 0.772447 0.000271289)
(2.9951 -3.66616e-06 -2.90583e-07)
(2.98906 4.73492e-06 3.8275e-07)
(2.98253 -6.29205e-06 -1.97169e-07)
(2.97638 1.13026e-05 5.29771e-07)
(2.97073 -1.01548e-05 -1.69603e-07)
(2.96584 2.02651e-05 4.54646e-07)
(2.96121 -2.34651e-06 -8.34988e-08)
(2.95686 5.49031e-05 7.67576e-08)
(2.95032 0.000242998 -3.00928e-07)
(2.93852 0.000805953 -7.50609e-07)
(2.90584 0.00206465 -4.7077e-06)
(2.83548 0.00576314 -9.23783e-07)
(2.64037 0.0145751 -1.383e-05)
(2.0326 0.04222 -7.28535e-06)
(0.58637 0.124424 1.76541e-05)
(-0.477137 0.293721 -6.75883e-06)
(0.083544 0.406986 -5.7335e-05)
(0.412363 0.483763 -5.87228e-05)
(0.401187 0.548836 -4.95777e-05)
(0.302159 0.61324 -4.54434e-05)
(0.121749 0.682152 -4.62663e-05)
(0.0806113 0.747381 -3.59845e-05)
(0.0558586 0.82523 7.80178e-05)
(0.0064062 0.906589 0.000222606)
(0.0837851 0.948431 0.000244862)
(2.9951 6.05445e-06 2.52325e-07)
(2.98906 9.25977e-06 7.82669e-08)
(2.98253 -1.01696e-05 2.4922e-07)
(2.97637 2.9795e-05 1.33916e-07)
(2.97073 -4.71494e-05 -1.70586e-09)
(2.96584 8.37178e-05 1.43829e-07)
(2.96122 -0.000113913 -2.84176e-07)
(2.95701 0.000266537 6.85848e-08)
(2.95063 4.8835e-06 -3.17367e-07)
(2.93948 0.00154863 -1.48198e-06)
(2.90781 -0.000496269 -2.72294e-06)
(2.84154 0.0125539 -6.57848e-06)
(2.65477 0.00428523 -1.29476e-05)
(2.08392 0.0541335 -1.36542e-05)
(0.709179 0.118713 -1.48395e-05)
(-0.334876 0.32307 -6.10253e-07)
(0.12753 0.456405 -1.4154e-05)
(0.430216 0.534626 -1.07066e-05)
(0.41977 0.602652 -3.29994e-05)
(0.329624 0.675152 -3.71813e-05)
(0.187924 0.753338 -3.96638e-05)
(0.147442 0.831834 -2.77429e-05)
(0.14481 0.930302 4.73169e-05)
(0.103778 1.05134 0.000190905)
(0.124036 1.22025 0.000219014)
(2.98855 7.34251e-06 0.00143412)
(2.98291 -1.27855e-06 0.00328623)
(2.97953 5.99678e-06 0.00493053)
(2.97738 -4.26977e-06 0.0064451)
(2.97597 6.24332e-06 0.00768134)
(2.975 -6.63474e-06 0.00889873)
(2.97415 8.94205e-06 0.00973628)
(2.97265 2.2584e-05 0.0108237)
(2.96763 0.000142694 0.0112898)
(2.95797 1.42566e-05 0.0121816)
(2.92616 0.00111365 0.0136869)
(2.85627 -2.71719e-05 0.0166248)
(2.65336 0.00260825 0.0233593)
(2.00909 0.00259975 0.0364723)
(0.540664 -0.00129505 0.0640622)
(-0.422904 -0.00496253 0.0647916)
(0.045521 0.00702373 0.0604688)
(0.437308 0.0151763 0.0584997)
(0.531619 0.00894876 0.0611792)
(0.499754 -0.0185089 0.062776)
(0.441429 -0.0160929 0.0629525)
(0.343287 -0.000429449 0.062511)
(0.194695 0.0193373 0.0620185)
(0.0625147 0.0418119 0.0603741)
(0.179557 0.051174 0.0546506)
(2.98855 3.81529e-06 0.00143715)
(2.98291 -1.23215e-08 0.00328175)
(2.97953 3.52415e-06 0.00493388)
(2.97738 -1.32317e-06 0.00644031)
(2.97597 2.19293e-06 0.00768742)
(2.975 -1.97289e-06 0.0088889)
(2.97417 -1.60382e-07 0.00975094)
(2.97278 8.48859e-06 0.0107903)
(2.96763 2.92222e-05 0.0112959)
(2.95874 0.000106486 0.0123245)
(2.92644 0.000211954 0.0131175)
(2.85672 0.000742359 0.018056)
(2.65505 0.00147526 0.0206881)
(2.0035 0.0044156 0.0401394)
(0.496115 0.0112217 0.0626181)
(-0.516101 0.0365953 0.0630629)
(0.0255267 0.0581108 0.0606338)
(0.423806 0.071674 0.0587097)
(0.493579 0.0693573 0.0612535)
(0.377949 0.0664786 0.0617929)
(0.364748 0.0712718 0.0634058)
(0.276121 0.0869561 0.0631872)
(0.106134 0.106795 0.0624433)
(0.00618886 0.121152 0.059701)
(0.156907 0.109774 0.0538121)
(2.98855 3.25078e-06 0.00143508)
(2.98291 5.47394e-07 0.0032849)
(2.97953 2.87902e-06 0.00493176)
(2.97738 -1.32004e-07 0.00644298)
(2.97597 7.07891e-07 0.00768362)
(2.975 -2.41018e-07 0.00889527)
(2.97416 -1.86935e-06 0.00973937)
(2.97268 8.85346e-06 0.0108169)
(2.96772 3.06065e-05 0.0112786)
(2.95812 0.000142593 0.0122)
(2.92666 0.000294441 0.0137)
(2.85725 0.00101489 0.0166719)
(2.65609 0.00246668 0.0234183)
(2.01525 0.00779043 0.0364863)
(0.556712 0.0223994 0.063789)
(-0.405831 0.0738271 0.0640312)
(0.0614678 0.103995 0.0598653)
(0.436843 0.126735 0.0575406)
(0.493601 0.141241 0.0602607)
(0.390376 0.164287 0.0611938)
(0.35813 0.163877 0.0625837)
(0.261943 0.1656 0.0622531)
(0.0786159 0.185004 0.0615541)
(-0.0144586 0.200909 0.0583548)
(0.138893 0.170038 0.0526918)
(2.98855 7.95312e-06 0.00143796)
(2.98291 -1.27159e-06 0.00328075)
(2.97953 5.65612e-06 0.00493477)
(2.97738 -4.78236e-06 0.0064389)
(2.97597 4.05142e-06 0.00768854)
(2.975 -6.16808e-06 0.0088876)
(2.97418 6.12221e-06 0.00975059)
(2.9728 3.31239e-05 0.0107901)
(2.96775 0.000175158 0.0112803)
(2.95897 0.000189535 0.0122951)
(2.92718 0.00146696 0.0130478)
(2.85864 0.00117179 0.0179164)
(2.66057 0.00577701 0.0205084)
(2.02077 0.0128248 0.0400101)
(0.549388 0.0317219 0.0624067)
(-0.388646 0.0900289 0.0648658)
(0.0780254 0.13849 0.0597039)
(0.449391 0.173982 0.0568186)
(0.507563 0.199757 0.0594581)
(0.431228 0.226727 0.0613345)
(0.364223 0.236144 0.0616408)
(0.262965 0.24271 0.0606173)
(0.0894366 0.263046 0.0599366)
(-0.0128743 0.279536 0.0567349)
(0.139968 0.230656 0.051057)
(2.98855 -1.72647e-06 0.00143827)
(2.98291 -4.6214e-07 0.00328011)
(2.97953 -1.95825e-06 0.00493529)
(2.97738 -8.35427e-07 0.00643789)
(2.97597 -1.18468e-06 0.00768983)
(2.975 -3.95827e-07 0.0088859)
(2.97419 3.81778e-06 0.00975206)
(2.97283 1.78187e-05 0.0107887)
(2.96786 7.94979e-05 0.0112734)
(2.95919 0.000341666 0.0122623)
(2.92788 0.000788548 0.0130455)
(2.8605 0.00251946 0.0177909)
(2.66573 0.00621076 0.0205258)
(2.03691 0.0188175 0.0397886)
(0.584776 0.0549834 0.0621996)
(-0.368591 0.127971 0.0643648)
(0.0922981 0.181714 0.0594272)
(0.457258 0.221723 0.0562105)
(0.509303 0.254589 0.0588087)
(0.427228 0.290363 0.0603845)
(0.367363 0.306639 0.060717)
(0.270659 0.321734 0.059267)
(0.112894 0.344629 0.0581239)
(-0.00471462 0.360315 0.0548461)
(0.139355 0.300565 0.0490729)
(2.98855 -1.2577e-05 0.00143745)
(2.98291 2.0871e-06 0.0032812)
(2.97953 -1.13204e-05 0.0049345)
(2.97738 7.99977e-06 0.00643895)
(2.97597 -1.03894e-05 0.0076891)
(2.975 1.46307e-05 0.00888626)
(2.97419 -5.23734e-06 0.00975352)
(2.97287 1.68966e-05 0.0107851)
(2.96801 1.42289e-05 0.0112906)
(2.95956 0.00049925 0.0122772)
(2.92892 6.64936e-05 0.0130443)
(2.86332 0.00393161 0.0177746)
(2.67316 0.00638361 0.0203962)
(2.06252 0.0256657 0.0390381)
(0.641188 0.0805174 0.061813)
(-0.294208 0.165544 0.064513)
(0.120118 0.223475 0.0589952)
(0.472157 0.266365 0.0552466)
(0.520526 0.307178 0.0579004)
(0.44572 0.352152 0.0597898)
(0.375787 0.376873 0.0596717)
(0.285475 0.40105 0.0579122)
(0.144902 0.429211 0.0562441)
(0.0134122 0.446753 0.0527175)
(0.136608 0.38616 0.0466927)
(2.98855 -1.34568e-05 0.00143452)
(2.98291 1.82888e-06 0.00328561)
(2.97954 -1.27766e-05 0.0049305)
(2.97738 8.48674e-06 0.00644516)
(2.97598 -1.22631e-05 0.00768075)
(2.975 1.75928e-05 0.00889965)
(2.9742 -7.88694e-06 0.00973367)
(2.97284 2.68883e-05 0.0108238)
(2.96825 3.81512e-05 0.0112699)