/*--------------------------------*- C++ -*----------------------------------*\
  =========                 |
  \\      /  F ield         | OpenFOAM: The Open Source CFD Toolbox
   \\    /   O peration     | Website:  https://openfoam.org
    \\  /    A nd           | Version:  6
     \\/     M anipulation  |
\*---------------------------------------------------------------------------*/
FoamFile
{
    version     2.0;
    format      ascii;
    class       volScalarField;
    location    "5";
    object      Ma;
}
// * * * * * * * * * * * * * * * * * * * * * * * * * * * * * * * * * * * * * //

dimensions      [0 0 0 0 0 0 0];

internalField   nonuniform List<scalar> 
26250
(
3.04662
3.07696
3.10416
3.12667
3.14774
3.16449
3.1806
3.18992
3.18948
3.17331
3.12644
2.98316
2.67752
1.93446
0.925626
0.433732
0.492179
0.578031
0.632309
0.622075
0.611237
0.57687
0.495719
0.351987
0.23966
3.04661
3.07697
3.10415
3.12668
3.14773
3.16449
3.18059
3.18996
3.18952
3.17348
3.12685
2.98411
2.67945
1.93776
0.931175
0.438418
0.497494
0.584026
0.638132
0.639841
0.621476
0.583335
0.507715
0.372993
0.265653
3.0466
3.07699
3.10414
3.12669
3.14772
3.16451
3.18059
3.19006
3.18965
3.17384
3.12778
2.98577
2.68341
1.9415
0.933536
0.421531
0.48525
0.576252
0.629035
0.630305
0.609162
0.566981
0.492166
0.359721
0.253237
3.04639
3.07717
3.10397
3.1268
3.14764
3.16459
3.18054
3.19032
3.19
3.17489
3.13271
2.98933
2.69208
1.95528
0.94664
0.450878
0.508731
0.59167
0.640479
0.63306
0.613396
0.571125
0.49359
0.359538
0.251772
3.04557
3.07804
3.10303
3.12784
3.14652
3.16576
3.17926
3.19133
3.18709
3.18106
3.12802
3.0155
2.6708
1.98641
0.989342
0.479539
0.531169
0.609211
0.65581
0.652733
0.631591
0.588369
0.509029
0.373203
0.26324
3.04627
3.07731
3.10378
3.12704
3.14735
3.16487
3.18034
3.19068
3.19054
3.17707
3.1407
2.99939
2.71643
1.99229
0.996634
0.500174
0.548892
0.621829
0.66956
0.668047
0.646766
0.604617
0.526691
0.391929
0.282583
3.04571
3.0779
3.10316
3.1277
3.14665
3.16565
3.17942
3.19164
3.18906
3.18321
3.133
3.0274
2.69544
2.04302
1.05594
0.542488
0.576716
0.642538
0.687803
0.687865
0.666274
0.625281
0.550313
0.418736
0.313971
3.04623
3.07736
3.10374
3.12709
3.14731
3.16493
3.18032
3.19091
3.19085
3.17879
3.14296
3.01286
2.74765
2.04424
1.07576
0.567593
0.590781
0.652812
0.70095
0.703414
0.684596
0.647867
0.579832
0.456863
0.365781
3.04624
3.07736
3.10375
3.1271
3.14732
3.16493
3.18033
3.19099
3.19093
3.17985
3.1435
3.02209
2.76701
2.08543
1.14143
0.621538
0.622948
0.674531
0.720705
0.723863
0.707782
0.676898
0.620394
0.514627
0.453931
3.04808
3.07547
3.10571
3.12508
3.14935
3.16286
3.18237
3.189
3.19369
3.18278
3.15163
3.03369
2.79463
2.11938
1.18425
0.670583
0.659332
0.703596
0.745386
0.749647
0.737353
0.715302
0.678061
0.609816
0.61971
2.96753
2.95207
2.9411
2.9352
2.92969
2.92708
2.92324
2.9192
2.90321
2.87674
2.79634
2.62182
2.2401
1.41632
0.322018
0.269246
0.0453371
0.262121
0.307622
0.24744
0.237024
0.180256
0.0731265
0.043907
0.103171
2.96753
2.95207
2.9411
2.9352
2.92969
2.92707
2.92324
2.91921
2.90327
2.87686
2.79668
2.6225
2.2415
1.42035
0.327684
0.250853
0.0560387
0.271944
0.322907
0.29074
0.254489
0.192677
0.102948
0.0732946
0.131632
2.96753
2.95207
2.9411
2.9352
2.9297
2.92707
2.92325
2.91926
2.90342
2.8772
2.79745
2.62445
2.24498
1.4261
0.329586
0.288164
0.0708301
0.277236
0.326457
0.296553
0.260066
0.20683
0.137605
0.116701
0.140401
2.96752
2.95207
2.9411
2.93519
2.9297
2.92707
2.92327
2.91934
2.9037
2.87778
2.79862
2.62764
2.25012
1.43599
0.346125
0.246225
0.0996908
0.291752
0.330178
0.283918
0.266176
0.226945
0.180365
0.164901
0.163453
2.96756
2.952
2.94115
2.93512
2.92976
2.927
2.92342
2.91964
2.90504
2.87802
2.80641
2.62324
2.26568
1.44594
0.346432
0.234036
0.124952
0.30903
0.3471
0.31632
0.292115
0.260796
0.228333
0.214456
0.198436
2.96752
2.95206
2.9411
2.93519
2.9297
2.92706
2.92335
2.91958
2.90455
2.87961
2.80278
2.6389
2.27051
1.48075
0.397222
0.214404
0.152503
0.329393
0.367301
0.343436
0.323432
0.300938
0.27936
0.267189
0.245219
2.96758
2.95199
2.94116
2.93511
2.92977
2.927
2.92347
2.91984
2.9059
2.88032
2.8116
2.63706
2.29344
1.51209
0.419482
0.188838
0.183662
0.352809
0.391224
0.375108
0.359507
0.346326
0.334912
0.326169
0.306748
2.96753
2.95205
2.94111
2.93518
2.92972
2.92706
2.92343
2.91987
2.90571
2.88226
2.80923
2.65621
2.30534
1.56287
0.490247
0.172562
0.217294
0.377891
0.417361
0.407745
0.39987
0.396119
0.396055
0.394372
0.388113
2.96754
2.95205
2.94112
2.93518
2.92973
2.92707
2.92345
2.92001
2.90626
2.88395
2.81351
2.66402
2.3286
1.59827
0.552449
0.165403
0.256076
0.405854
0.445063
0.442074
0.443628
0.449908
0.463323
0.477433
0.501073
2.9677
2.95196
2.94123
2.93513
2.92981
2.92706
2.92353
2.92025
2.9073
2.88595
2.81922
2.67406
2.35036
1.64059
0.61247
0.181671
0.298451
0.436993
0.47454
0.477662
0.487724
0.506146
0.539359
0.580082
0.683818
2.98571
2.97023
2.95104
2.9355
2.91917
2.9073
2.89389
2.88292
2.86134
2.82674
2.734
2.53684
2.13001
1.24733
0.0834045
0.607809
0.0854856
0.184882
0.236866
0.179678
0.0966916
0.0759289
0.0945178
0.0688144
0.0657631
2.98568
2.97027
2.95101
2.93553
2.91914
2.90733
2.89386
2.88296
2.86132
2.82701
2.73385
2.53866
2.13039
1.24675
0.0895053
0.598051
0.0846495
0.19866
0.240837
0.170824
0.133899
0.114629
0.132499
0.114807
0.100142
2.98571
2.97023
2.95104
2.9355
2.91917
2.9073
2.8939
2.88297
2.86153
2.82713
2.73504
2.53892
2.13436
1.25468
0.101422
0.580081
0.0932225
0.216273
0.248496
0.185055
0.166438
0.154768
0.175656
0.168352
0.1471
2.98568
2.97027
2.95101
2.93553
2.91914
2.90734
2.89388
2.88305
2.86169
2.82776
2.73584
2.54277
2.13898
1.26169
0.114829
0.56193
0.10981
0.238747
0.264012
0.213521
0.202443
0.198099
0.22165
0.222131
0.198235
2.98564
2.97031
2.95097
2.93557
2.9191
2.90737
2.89386
2.88317
2.86196
2.82865
2.73727
2.54824
2.14686
1.27645
0.141668
0.53296
0.131943
0.264795
0.28532
0.248794
0.235135
0.244016
0.269452
0.276579
0.252227
2.98566
2.97029
2.95098
2.93555
2.91912
2.90736
2.89389
2.88327
2.86249
2.82956
2.74031
2.5535
2.16025
1.30432
0.177367
0.49797
0.156857
0.292829
0.312308
0.287755
0.271918
0.292557
0.320419
0.333988
0.31268
2.98562
2.97033
2.95095
2.93559
2.91909
2.9074
2.89389
2.88343
2.86307
2.83098
2.74365
2.56243
2.17722
1.33948
0.221073
0.45813
0.184448
0.322342
0.343063
0.329361
0.316041
0.344646
0.375296
0.397783
0.384279
2.98562
2.97033
2.95095
2.93559
2.91909
2.90742
2.89392
2.8836
2.86384
2.83252
2.74805
2.57176
2.198
1.38478
0.274884
0.412437
0.21488
0.353319
0.376975
0.372737
0.366758
0.397907
0.436001
0.469564
0.471593
2.98555
2.9704
2.95089
2.93566
2.91903
2.90749
2.89389
2.88382
2.86459
2.83449
2.7522
2.58487
2.21988
1.43368
0.342224
0.357334
0.247738
0.384986
0.41155
0.416081
0.420944
0.454905
0.502081
0.552087
0.585891
2.98565
2.97031
2.95098
2.93557
2.91912
2.90742
2.89401
2.88413
2.86573
2.8364
2.75794
2.59441
2.24478
1.5003
0.413616
0.296096
0.283207
0.417478
0.446477
0.45825
0.473681
0.513963
0.575261
0.649018
0.76744
2.96752
2.95207
2.9411
2.93521
2.92969
2.92707
2.92325
2.91924
2.90328
2.87689
2.79644
2.62166
2.2386
1.40808
0.311626
0.273635
0.0430462
0.264341
0.32177
0.301959
0.266574
0.207703
0.12188
0.0570753
0.115858
2.96755
2.95201
2.94114
2.93513
2.92975
2.927
2.92338
2.91945
2.90442
2.87644
2.80279
2.61362
2.24638
1.40309
0.285766
0.329616
0.0521276
0.259924
0.301212
0.232213
0.224957
0.176075
0.0966136
0.0800309
0.118936
2.96752
2.95207
2.94109
2.9352
2.92969
2.92707
2.92327
2.91931
2.90351
2.8774
2.79744
2.62446
2.24293
1.41418
0.322385
0.264143
0.0796458
0.275517
0.310811
0.256362
0.23872
0.188226
0.124647
0.123997
0.134937
2.96755
2.95201
2.94114
2.93513
2.92975
2.927
2.92339
2.91954
2.90464
2.87722
2.80437
2.61816
2.25562
1.41954
0.318537
0.255489
0.100482
0.291752
0.330519
0.294976
0.262843
0.216815
0.168754
0.168845
0.16403
2.96754
2.95202
2.94113
2.93513
2.92974
2.927
2.92341
2.91962
2.90485
2.87798
2.80581
2.62254
2.2642
1.43817
0.340625
0.248409
0.125596
0.307658
0.345054
0.312708
0.289454
0.254151
0.218623
0.215877
0.200094
2.96756
2.95201
2.94114
2.93513
2.92975
2.92701
2.92344
2.91973
2.90531
2.87899
2.80832
2.62877
2.27682
1.46926
0.375176
0.217535
0.153771
0.328014
0.366334
0.344135
0.32201
0.297376
0.272425
0.26703
0.246521
2.96753
2.95206
2.94111
2.93519
2.92972
2.92707
2.92338
2.91971
2.90505
2.8807
2.80569
2.64651
2.28635
1.52257
0.441991
0.193177
0.185299
0.352438
0.390516
0.374413
0.358779
0.344824
0.330564
0.325249
0.307407
2.96753
2.95206
2.94111
2.93519
2.92972
2.92708
2.92342
2.91989
2.90563
2.88219
2.80931
2.65519
2.30649
1.56418
0.497207
0.164733
0.221148
0.379554
0.417997
0.407673
0.39967
0.395517
0.393336
0.393256
0.388272
2.96754
2.95206
2.94112
2.93519
2.92973
2.92708
2.92344
2.92001
2.90624
2.88392
2.81336
2.664
2.32829
1.59853
0.55367
0.1627
0.257052
0.407538
0.446279
0.442683
0.443941
0.45005
0.461867
0.476456
0.500919
2.9677
2.95197
2.94123
2.93513
2.9298
2.92706
2.92353
2.92025
2.90728
2.88589
2.81911
2.67385
2.35004
1.64061
0.612992
0.181258
0.299465
0.438504
0.475889
0.478463
0.488196
0.506454
0.538505
0.57883
0.683674
3.04652
3.07708
3.10404
3.12678
3.14762
3.1646
3.18052
3.19016
3.18976
3.17403
3.13084
2.98353
2.68013
1.92946
0.904753
0.418799
0.484246
0.577186
0.632383
0.634054
0.616937
0.575629
0.498953
0.365208
0.259762
3.04547
3.07815
3.10291
3.12796
3.1464
3.16588
3.17909
3.19124
3.18615
3.17967
3.12424
3.00739
2.64529
1.93951
0.943046
0.420267
0.486917
0.581274
0.631048
0.619153
0.606826
0.569001
0.486959
0.34731
0.241532
3.04642
3.07717
3.10393
3.12689
3.1475
3.1647
3.18044
3.19032
3.19
3.17485
3.13561
2.98756
2.69224
1.9406
0.910026
0.427846
0.492358
0.580897
0.631456
0.619776
0.606267
0.569075
0.485778
0.343515
0.235507
3.04547
3.07815
3.10291
3.12796
3.1464
3.16587
3.1791
3.19113
3.18596
3.17863
3.12448
3.00381
2.65593
1.96713
0.967627
0.463717
0.519654
0.602089
0.64928
0.646203
0.625843
0.58584
0.504922
0.363755
0.251357
3.04552
3.07809
3.10295
3.1279
3.14645
3.1658
3.1792
3.19103
3.18625
3.17759
3.12603
3.00675
2.66638
2.00403
0.96906
0.46717
0.523469
0.604695
0.65165
0.648672
0.629853
0.590659
0.513211
0.375702
0.263779
3.04559
3.07802
3.10303
3.12783
3.14652
3.16576
3.17927
3.19135
3.18743
3.18038
3.12903
3.01588
2.6794
2.01922
1.00878
0.503113
0.550185
0.622634
0.66794
0.667288
0.645942
0.605939
0.529691
0.39401
0.283253
3.04628
3.07731
3.1038
3.12703
3.14738
3.16488
3.18041
3.191
3.19088
3.17697
3.13854
3.00399
2.72855
2.01678
1.03729
0.529899
0.566615
0.633996
0.681972
0.683237
0.661701
0.624019
0.550787
0.420028
0.314596
3.0463
3.0773
3.10381
3.12704
3.14739
3.16488
3.18045
3.19116
3.19097
3.17814
3.13905
3.01237
2.74578
2.0479
1.08838
0.576837
0.593854
0.653264
0.70083
0.702259
0.681704
0.647045
0.579563
0.457837
0.366703
3.04621
3.07739
3.10373
3.12713
3.1473
3.16496
3.18034
3.19117
3.19108
3.17971
3.14321
3.02177
2.76681
2.08592
1.14157
0.62322
0.624345
0.675928
0.722011
0.724578
0.706953
0.677544
0.620715
0.515785
0.45511
3.04801
3.07555
3.10564
3.12516
3.14926
3.16294
3.18228
3.18908
3.19355
3.18264
3.15128
3.03349
2.79484
2.11896
1.18365
0.6705
0.659721
0.704427
0.746288
0.75052
0.73765
0.716627
0.679591
0.610628
0.620753
3.04513
3.07848
3.10256
3.12833
3.14602
3.16635
3.17892
3.19325
3.19268
3.18831
3.14815
3.06092
2.77812
2.23172
1.28732
0.741689
0.708828
0.743335
0.777866
0.782695
0.775097
0.765176
0.756128
0.753101
0.810781
3.04807
3.07543
3.10571
3.12504
3.14935
3.1629
3.18243
3.18973
3.19683
3.18727
3.16054
3.05606
2.83552
2.23704
1.31374
0.794939
0.754621
0.781747
0.810913
0.819588
0.818748
0.820335
0.830091
0.859195
0.936306
3.04508
3.07853
3.10249
3.12841
3.14593
3.1665
3.1789
3.19407
3.19564
3.19253
3.15886
3.08489
2.83627
2.36778
1.44914
0.857861
0.799198
0.816638
0.83854
0.851354
0.857567
0.867821
0.88856
0.930048
1.00801
3.04768
3.07586
3.10527
3.12554
3.14884
3.1635
3.18194
3.19112
3.19932
3.19194
3.16783
3.08344
2.88988
2.38858
1.51898
0.944153
0.851875
0.855362
0.869463
0.884181
0.895541
0.911157
0.937451
0.980674
1.05163
3.04742
3.07614
3.10498
3.12585
3.1485
3.16389
3.18159
3.19193
3.2009
3.19475
3.17548
3.10247
2.94687
2.50214
1.70371
1.04249
0.897295
0.888545
0.898098
0.914571
0.931775
0.951698
0.980295
1.02347
1.08597
3.04587
3.07771
3.10331
3.12756
3.14675
3.16571
3.17985
3.19424
3.20093
3.19995
3.1812
3.13327
2.98107
2.675
1.94467
1.19775
0.967883
0.943033
0.944699
0.958138
0.974843
0.994092
1.02044
1.06041
1.11514
3.04628
3.07727
3.10375
3.12709
3.14721
3.16524
3.18035
3.19415
3.20303
3.20253
3.1891
3.15047
3.03766
2.79646
2.18667
1.36204
1.04154
1.00389
1.00223
1.0141
1.02936
1.04521
1.06653
1.09995
1.14586
3.04653
3.07703
3.104
3.12684
3.14746
3.16499
3.18061
3.19396
3.20354
3.2033
3.19543
3.16374
3.07972
2.86707
2.36946
1.55666
1.09562
1.03121
1.03557
1.05239
1.07266
1.09015
1.11035
1.13866
1.17701
3.04504
3.07857
3.10241
3.12849
3.1458
3.1667
3.17897
3.1957
3.20228
3.20722
3.20081
3.17668
3.10775
2.92734
2.51459
1.71105
1.16351
1.0574
1.05587
1.07238
1.09585
1.12143
1.14506
1.17295
1.20718
3.04691
3.07663
3.10446
3.12634
3.14802
3.16436
3.18142
3.19332
3.20611
3.21029
3.20898
3.18924
3.13986
2.99396
2.68913
2.01048
1.32686
1.12218
1.09771
1.1028
1.12185
1.14773
1.17263
1.20043
1.23329
3.04567
3.07793
3.10312
3.12774
3.14663
3.16581
3.18003
3.19485
3.20521
3.21416
3.21096
3.19988
3.15874
3.059
2.8191
2.23534
1.51283
1.20387
1.15325
1.14662
1.15773
1.1781
1.20112
1.22623
1.25585
3.04623
3.07736
3.10375
3.12709
3.14728
3.16522
3.18057
3.19438
3.20592
3.21421
3.21413
3.20762
3.18195
3.10808
2.92765
2.49966
1.74766
1.27713
1.1851
1.17685
1.18544
1.20454
1.23001
1.25426
1.28064
3.04593
3.07767
3.10335
3.12751
3.14692
3.1655
3.18028
3.19491
3.20539
3.21585
3.21758
3.21411
3.19495
3.1406
3.00306
2.6752
2.019
1.42281
1.23736
1.21357
1.21622
1.23246
1.2566
1.28129
1.30611
3.046
3.07759
3.10345
3.12742
3.14693
3.16554
3.18027
3.19485
3.20566
3.2167
3.22137
3.22063
3.20738
3.17167
3.07284
2.86663
2.32611
1.60472
1.31344
1.26004
1.25436
1.26301
1.2832
1.30726
1.33218
3.04645
3.07712
3.10394
3.1269
3.14744
3.16501
3.18078
3.19433
3.20625
3.21656
3.22364
3.22342
3.21641
3.19234
3.1251
2.97187
2.56532
1.87802
1.40058
1.28934
1.27741
1.28374
1.30178
1.32747
1.35249
3.04559
3.078
3.10302
3.12785
3.14648
3.166
3.1798
3.19533
3.20532
3.21759
3.22322
3.22648
3.2225
3.20556
3.16319
3.04612
2.78456
2.18018
1.56219
1.34549
1.3114
1.31037
1.32253
1.34487
1.37081
3.0457
3.07791
3.10312
3.12776
3.14656
3.16591
3.17991
3.19516
3.20558
3.21746
3.22432
3.22992
3.22718
3.21721
3.18899
3.10765
2.93249
2.48668
1.81452
1.44515
1.35458
1.34158
1.34583
1.36242
1.3873
3.04602
3.07758
3.10347
3.12736
3.14695
3.16546
3.18032
3.19473
3.20602
3.21708
3.2254
3.23212
3.23124
3.22636
3.20864
3.1539
3.03424
2.73305
2.13635
1.59765
1.41409
1.38201
1.37748
1.38639
1.40523
3.0461
3.07748
3.10357
3.12728
3.14707
3.16538
3.18045
3.19465
3.2061
3.21709
3.22557
3.2333
3.23571
3.23387
3.22295
3.18865
3.10771
2.92081
2.4552
1.80401
1.49845
1.4236
1.41102
1.41355
1.42767
3.04628
3.07731
3.10376
3.1271
3.14725
3.16521
3.18061
3.19451
3.20624
3.21701
3.22574
3.23385
3.23833
3.23798
3.23154
3.20947
3.15893
3.02871
2.717
2.11212
1.61532
1.46203
1.43593
1.4354
1.44519
3.04596
3.07762
3.10342
3.12744
3.1469
3.16556
3.18026
3.19486
3.2059
3.21737
3.22544
3.23438
3.23886
3.24045
3.23745
3.22383
3.19561
3.10235
2.926
2.43251
1.84733
1.54683
1.4721
1.46068
1.46409
3.04592
3.07765
3.10338
3.12748
3.14686
3.16561
3.18022
3.19488
3.20592
3.21732
3.22554
3.23449
3.23982
3.24435
3.24276
3.23567
3.21677
3.1624
3.03625
2.74542
2.1705
1.68876
1.52446
1.49308
1.48774
3.04618
3.07739
3.10366
3.12718
3.14717
3.16528
3.18055
3.19454
3.20624
3.217
3.22592
3.2341
3.24066
3.24577
3.24614
3.24314
3.23273
3.19842
3.12265
2.94493
2.51258
1.90869
1.61794
1.53507
1.52073
3.04625
3.07734
3.10372
3.12712
3.14722
3.16522
3.1806
3.1945
3.20626
3.21698
3.22592
3.23416
3.24076
3.24666
3.24922
3.24834
3.24209
3.22128
3.17549
3.06003
2.78027
2.22903
1.74912
1.5802
1.54519
3.04646
3.07711
3.10395
3.12689
3.14747
3.16498
3.18085
3.19426
3.2065
3.21675
3.22614
3.23396
3.24101
3.24686
3.25102
3.25084
3.24808
3.23541
3.21097
3.1305
2.98056
2.55971
2.0139
1.68438
1.58362
3.0461
3.07747
3.10358
3.12728
3.14708
3.16538
3.18045
3.19467
3.2061
3.21716
3.22576
3.23434
3.2407
3.24726
3.25142
3.25383
3.2525
3.24601
3.23267
3.18327
3.09361
2.85181
2.36405
1.86296
1.65241
3.04618
3.0774
3.10366
3.1272
3.14716
3.1653
3.18053
3.19458
3.20619
3.21706
3.22586
3.23423
3.24085
3.24719
3.25201
3.25592
3.25582
3.25375
3.2451
3.21974
3.1579
3.02303
2.66571
2.11542
1.754
3.04635
3.07722
3.10384
3.12701
3.14735
3.1651
3.18073
3.19437
3.2064
3.21685
3.22606
3.23403
3.24104
3.24705
3.25226
3.25639
3.25829
3.25719
3.25305
3.23642
3.20703
3.11098
2.93564
2.47406
1.96353
3.04642
3.07713
3.10394
3.12688
3.14748
3.16495
3.18087
3.19423
3.20652
3.21673
3.22617
3.23392
3.24113
3.24698
3.25238
3.25671
3.25986
3.25976
3.25798
3.24949
3.23265
3.17819
3.07146
2.79644
2.29699
3.04612
3.07745
3.1036
3.12725
3.1471
3.16535
3.18048
3.19463
3.20614
3.21712
3.2258
3.2343
3.24077
3.24734
3.25209
3.25708
3.26019
3.26226
3.26136
3.25716
3.24774
3.21545
3.15083
2.99316
2.62141
3.04628
3.07729
3.10377
3.12708
3.14728
3.16518
3.18065
3.19446
3.20631
3.21695
3.22597
3.23414
3.24092
3.24721
3.25222
3.25702
3.2606
3.26358
3.26341
3.26167
3.256
3.23669
3.19788
3.09533
2.8704
3.04634
3.07722
3.10384
3.127
3.14736
3.16509
3.18074
3.19437
3.2064
3.21685
3.22607
3.23402
3.24105
3.24706
3.25239
3.25688
3.26083
3.26381
3.26499
3.26386
3.2604
3.24572
3.2211
3.13586
2.9867
3.04631
3.07725
3.10381
3.12704
3.14732
3.16513
3.1807
3.19441
3.20637
3.21689
3.22603
3.23407
3.24101
3.24711
3.25234
3.25695
3.2608
3.26408
3.26575
3.26519
3.26227
3.25031
3.22889
3.15739
3.01638
3.0463
3.07727
3.10379
3.12707
3.1473
3.16516
3.18068
3.19443
3.20633
3.21691
3.22599
3.23409
3.24096
3.24714
3.25228
3.25698
3.26075
3.2642
3.2661
3.26574
3.26307
3.25207
3.23231
3.1642
3.02814
3.04632
3.07726
3.10382
3.12704
3.14731
3.16513
3.18068
3.1944
3.20634
3.21688
3.22601
3.23408
3.24098
3.24713
3.25231
3.25698
3.26077
3.26423
3.26625
3.26609
3.26352
3.25357
3.23354
3.17075
3.02525
3.04634
3.07725
3.10382
3.12704
3.14732
3.16512
3.18069
3.19439
3.20636
3.21688
3.22602
3.23407
3.24099
3.24712
3.25231
3.25696
3.26078
3.26421
3.26628
3.26613
3.26368
3.25367
3.23461
3.17069
3.03117
3.04633
3.07724
3.10382
3.12703
3.14733
3.16512
3.18071
3.1944
3.20637
3.21689
3.22603
3.23407
3.241
3.24712
3.2523
3.25695
3.26077
3.2642
3.26629
3.26614
3.26367
3.25322
3.23425
3.16595
3.03332
3.04637
3.07721
3.10387
3.12698
3.14737
3.16507
3.18074
3.19433
3.20641
3.21682
3.22608
3.23401
3.24106
3.24706
3.25237
3.25691
3.26084
3.2642
3.26651
3.26638
3.26397
3.25479
3.23495
3.17433
3.03021
3.04634
3.07723
3.10384
3.12702
3.14734
3.16511
3.18071
3.19438
3.20637
3.21688
3.22604
3.23407
3.24101
3.24711
3.25232
3.25695
3.26078
3.2642
3.26632
3.26617
3.26383
3.25395
3.23519
3.17109
3.0346
3.04633
3.07724
3.10383
3.12703
3.14733
3.16512
3.1807
3.1944
3.20636
3.21689
3.22603
3.23408
3.241
3.24712
3.2523
3.25696
3.26077
3.2642
3.26627
3.26611
3.26364
3.25325
3.23429
3.16644
3.03469
2.96807
2.95149
2.94166
2.93461
2.93029
2.92648
2.92415
2.91965
2.91135
2.88281
2.82992
2.69136
2.35366
1.71016
0.632515
0.215248
0.338771
0.465427
0.503072
0.512878
0.531546
0.564163
0.620817
0.701082
0.867403
2.96826
2.95141
2.94177
2.93458
2.93036
2.92648
2.92423
2.91993
2.91229
2.88734
2.83398
2.71036
2.37784
1.77423
0.720531
0.271897
0.381425
0.484762
0.526838
0.545358
0.574278
0.621092
0.693193
0.794081
0.952102
2.96801
2.95154
2.9416
2.93466
2.93024
2.92656
2.92431
2.92063
2.91343
2.88857
2.8423
2.7208
2.41735
1.83708
0.807563
0.348992
0.421407
0.494818
0.544786
0.574233
0.613197
0.670165
0.748546
0.849123
0.978148
2.96776
2.95188
2.9413
2.93503
2.92992
2.92695
2.92404
2.92129
2.91452
2.89506
2.8488
2.74743
2.45539
1.92243
0.953595
0.448085
0.45471
0.508332
0.561286
0.599499
0.646581
0.707415
0.785725
0.879045
0.989913
2.96785
2.95179
2.94138
2.93496
2.92996
2.92696
2.92395
2.92158
2.91372
2.89941
2.85735
2.75582
2.53382
1.97132
1.08621
0.551438
0.485513
0.526116
0.577612
0.620857
0.673022
0.735933
0.811685
0.897088
0.995921
2.96793
2.95165
2.94149
2.9348
2.93011
2.92675
2.9243
2.92167
2.91686
2.89959
2.86857
2.78179
2.57003
2.14612
1.24581
0.668499
0.515149
0.546419
0.595029
0.641874
0.694424
0.755853
0.830664
0.909078
0.99839
2.96821
2.95139
2.94174
2.93456
2.93034
2.92655
2.92454
2.9217
2.91793
2.90319
2.87853
2.80503
2.63596
2.28065
1.49482
0.80828
0.569259
0.58478
0.624319
0.66949
0.717638
0.77395
0.84397
0.919198
0.999551
2.9679
2.95171
2.94143
2.93488
2.93001
2.9269
2.92418
2.92223
2.91793
2.90991
2.88473
2.83126
2.70067
2.39572
1.74678
0.956251
0.645422
0.641211
0.665766
0.704626
0.74589
0.793956
0.85571
0.926183
1.00047
2.96777
2.95178
2.94134
2.93492
2.92995
2.92692
2.92419
2.92247
2.91912
2.9129
2.89234
2.84926
2.7469
2.48108
1.96662
1.09518
0.706709
0.685942
0.708175
0.739476
0.775012
0.817593
0.869865
0.93299
1.0014
2.96823
2.95141
2.94174
2.93459
2.93033
2.92663
2.92457
2.92239
2.92038
2.91513
2.89713
2.86609
2.77722
2.56558
2.14527
1.28781
0.814155
0.721851
0.740463
0.765693
0.800309
0.838922
0.884618
0.940249
1.00221
2.96806
2.95153
2.94162
2.93467
2.93025
2.92666
2.92457
2.92234
2.92064
2.91526
2.90566
2.87487
2.81025
2.65262
2.27719
1.55592
0.948803
0.770553
0.771151
0.792959
0.825864
0.861592
0.901435
0.949474
1.00467
2.96806
2.95155
2.94161
2.93469
2.93025
2.92668
2.92457
2.92245
2.92093
2.91712
2.91005
2.88652
2.84129
2.71981
2.45541
1.85399
1.13236
0.851334
0.817235
0.827617
0.852359
0.884315
0.921017
0.961987
1.01025
2.96774
2.95185
2.9413
2.93499
2.92994
2.92698
2.92426
2.92286
2.92087
2.91914
2.91208
2.89884
2.86203
2.77138
2.57866
2.08744
1.31439
0.927191
0.858652
0.86382
0.880937
0.90875
0.941094
0.978106
1.01929
2.96764
2.95194
2.94121
2.93508
2.92984
2.92707
2.92419
2.92293
2.92105
2.91973
2.91581
2.9032
2.87797
2.81271
2.64615
2.31254
1.58655
1.05842
0.905517
0.897495
0.908956
0.932625
0.961865
0.99497
1.03177
2.96798
2.95163
2.94152
2.93479
2.93013
2.92682
2.92445
2.92272
2.92134
2.91995
2.91742
2.9077
2.89146
2.84049
2.73808
2.48704
1.96531
1.25697
0.988932
0.947823
0.948379
0.963954
0.987807
1.01479
1.04614
2.9681
2.95148
2.94165
2.93463
2.93027
2.92664
2.92461
2.92254
2.92153
2.91992
2.91825
2.91137
2.90034
2.86354
2.78907
2.61436
2.17734
1.48426
1.0692
0.983717
0.980812
0.991976
1.01416
1.03911
1.06563
2.96808
2.9515
2.94163
2.93465
2.93025
2.92666
2.9246
2.92256
2.92154
2.92005
2.91882
2.91425
2.9064
2.87914
2.82986
2.69436
2.39918
1.77226
1.21462
1.04049
1.01536
1.0197
1.03581
1.06009
1.08489
2.96796
2.95164
2.94151
2.93478
2.93013
2.92679
2.92446
2.9227
2.92141
2.92033
2.91923
2.91728
2.90967
2.89653
2.85781
2.7703
2.57996
2.11574
1.42957
1.12044
1.05825
1.05232
1.06122
1.08075
1.10406
2.96803
2.95157
2.94158
2.93472
2.9302
2.92673
2.92454
2.92264
2.9215
2.92026
2.91956
2.91795
2.91436
2.90166
2.88032
2.81695
2.67546
2.37372
1.71892
1.24627
1.10361
1.08507
1.08857
1.10329
1.1248
2.96784
2.95176
2.94139
2.93491
2.93001
2.92692
2.92435
2.92283
2.92131
2.92048
2.91943
2.91862
2.91631
2.9078
2.89425
2.85028
2.76549
2.55839
2.09684
1.46098
1.1846
1.12799
1.12145
1.12799
1.14512
2.96793
2.95166
2.94149
2.93481
2.9301
2.92683
2.92444
2.92274
2.92141
2.9204
2.91955
2.91875
2.91736
2.91189
2.90314
2.8732
2.81785
2.67727
2.34085
1.7345
1.29447
1.16999
1.15285
1.15415
1.16608
2.96806
2.95153
2.94161
2.93468
2.93022
2.9267
2.92456
2.92261
2.92154
2.92028
2.9197
2.91871
2.9179
2.91479
2.9091
2.89014
2.85627
2.75793
2.56496
2.08248
1.50165
1.24625
1.19127
1.18412
1.1881
2.96804
2.95156
2.94159
2.93472
2.9302
2.92673
2.92454
2.92265
2.92151
2.92031
2.91969
2.9188
2.91823
2.91639
2.91289
2.90019
2.87921
2.81566
2.68435
2.38466
1.78218
1.3682
1.23637
1.2138
1.21243
2.96796
2.95164
2.94151
2.93479
2.93013
2.92681
2.92446
2.92272
2.92143
2.92039
2.91962
2.91892
2.9184
2.91759
2.91532
2.90744
2.89456
2.8544
2.7748
2.58261
2.16334
1.57691
1.31767
1.25601
1.24361
2.96789
2.95171
2.94144
2.93487
2.93005
2.92689
2.92438
2.9228
2.92135
2.92048
2.91953
2.91902
2.91833
2.91787
2.91659
2.91169
2.90388
2.8775
2.82927
2.70351
2.4176
1.85488
1.43936
1.30255
1.27458
2.96792
2.95167
2.94148
2.93482
2.93009
2.92684
2.92443
2.92276
2.92139
2.92044
2.91957
2.91899
2.91838
2.91801
2.91729
2.91524
2.90853
2.89676
2.86273
2.78778
2.62088
2.23114
1.65547
1.38217
1.31052
2.96802
2.95157
2.94157
2.93473
2.93019
2.92675
2.92452
2.92267
2.92148
2.92034
2.91967
2.91889
2.91849
2.91788
2.91751
2.91611
2.91325
2.90374
2.88657
2.83744
2.73267
2.48847
1.99676
1.53061
1.3628
2.96794
2.95167
2.94149
2.93482
2.9301
2.92683
2.92444
2.92275
2.9214
2.92043
2.91959
2.91898
2.91841
2.918
2.91753
2.91697
2.91479
2.91061
2.89784
2.87289
2.80537
2.66582
2.31615
1.78711
1.46132
2.96791
2.95169
2.94146
2.93484
2.93008
2.92686
2.92441
2.92278
2.92137
2.92046
2.91955
2.91902
2.91837
2.91805
2.91753
2.9172
2.91604
2.91373
2.90589
2.89223
2.85193
2.77207
2.57462
2.17134
1.64537
2.96798
2.95162
2.94153
2.93477
2.93014
2.92679
2.92448
2.9227
2.92144
2.92038
2.91963
2.91894
2.91845
2.91797
2.91765
2.91723
2.91676
2.91491
2.91163
2.90046
2.88117
2.82508
2.7106
2.44034
1.92257
2.96801
2.95159
2.94156
2.93475
2.93017
2.92677
2.92451
2.92268
2.92147
2.92036
2.91965
2.91891
2.91848
2.91795
2.91768
2.91724
2.91697
2.916
2.91406
2.90721
2.89593
2.86058
2.79305
2.6254
2.26016
2.96795
2.95165
2.9415
2.93481
2.93011
2.92683
2.92444
2.92274
2.92141
2.92042
2.9196
2.91897
2.91842
2.91801
2.91762
2.91734
2.91701
2.91659
2.91494
2.9118
2.90217
2.88312
2.83412
2.72306
2.47628
2.96795
2.95165
2.9415
2.9348
2.93011
2.92682
2.92445
2.92274
2.92141
2.92041
2.9196
2.91896
2.91843
2.918
2.91764
2.91733
2.91707
2.91675
2.91582
2.91236
2.90694
2.88809
2.85472
2.76255
2.55231
2.96793
2.95166
2.94148
2.93482
2.9301
2.92684
2.92443
2.92275
2.9214
2.92043
2.91958
2.91898
2.91841
2.91801
2.91762
2.91734
2.91706
2.9168
2.91604
2.91302
2.90847
2.89164
2.86328
2.77983
2.59088
2.96793
2.95167
2.94148
2.93482
2.93009
2.92684
2.92442
2.92275
2.92139
2.92044
2.91958
2.91899
2.9184
2.91803
2.91761
2.91736
2.91704
2.91682
2.91615
2.91347
2.90923
2.89416
2.86711
2.78951
2.60731
2.96792
2.95168
2.94147
2.93483
2.93008
2.92685
2.92442
2.92276
2.92138
2.92044
2.91957
2.919
2.9184
2.91803
2.9176
2.91736
2.91704
2.91682
2.9162
2.91368
2.90968
2.89554
2.86954
2.79613
2.61944
2.96793
2.95167
2.94148
2.93482
2.93009
2.92684
2.92443
2.92276
2.92139
2.92044
2.91958
2.919
2.9184
2.91804
2.9176
2.91737
2.91701
2.91682
2.91606
2.91452
2.90972
2.89854
2.87152
2.79848
2.64611
2.96796
2.95164
2.94151
2.9348
2.93012
2.92682
2.92445
2.92273
2.92141
2.92042
2.9196
2.91897
2.91842
2.91801
2.91762
2.91734
2.91706
2.91679
2.91628
2.91408
2.91017
2.89847
2.87025
2.8038
2.62209
2.96793
2.95167
2.94148
2.93483
2.93009
2.92685
2.92442
2.92276
2.92139
2.92045
2.91957
2.919
2.9184
2.91804
2.91759
2.91737
2.91701
2.91679
2.91601
2.91452
2.90906
2.89916
2.87002
2.80085
2.64686
2.96792
2.95167
2.94148
2.93483
2.93009
2.92685
2.92442
2.92276
2.92138
2.92045
2.91957
2.919
2.9184
2.91804
2.91759
2.91737
2.91701
2.91679
2.91602
2.91453
2.90905
2.89929
2.87004
2.80166
2.64752
2.98641
2.96955
2.95172
2.93481
2.9199
2.90662
2.895
2.88347
2.86878
2.83299
2.76882
2.60997
2.24505
1.548
0.44217
0.262591
0.320406
0.444849
0.477967
0.4984
0.524874
0.574111
0.652169
0.755105
0.9431
2.98642
2.96954
2.95174
2.9348
2.91991
2.90661
2.89505
2.88365
2.8695
2.83549
2.77539
2.6244
2.27926
1.61222
0.524753
0.252167
0.357027
0.467044
0.504166
0.532747
0.571802
0.632171
0.722035
0.839608
1.01582
2.98564
2.97032
2.95096
2.93558
2.91911
2.90748
2.89415
2.88511
2.8696
2.84458
2.77789
2.6394
2.34306
1.66683
0.657714
0.270179
0.391258
0.48191
0.525743
0.563422
0.614542
0.683246
0.775133
0.887732
1.02661
2.98659
2.96937
2.95189
2.93467
2.92002
2.9066
2.89511
2.88443
2.87156
2.8482
2.78778
2.66079
2.39142
1.75069
0.766125
0.328461
0.417533
0.486901
0.543182
0.589886
0.65041
0.723506
0.811695
0.913154
1.02805
2.9858
2.97016
2.95114
2.9354
2.91935
2.90721
2.89467
2.88478
2.87233
2.84932
2.80016
2.69592
2.4114
1.89541
0.887713
0.40987
0.422808
0.492289
0.558766
0.613154
0.677724
0.752051
0.835956
0.927085
1.02561
2.98666
2.96929
2.95198
2.93455
2.92018
2.90639
2.89549
2.88415
2.873
2.84944
2.81048
2.70613
2.47193
2.0027
1.02952
0.510662
0.423144
0.491286
0.569402
0.630666
0.697993
0.772365
0.853356
0.936082
1.0245
2.98685
2.96911
2.95216
2.93438
2.92035
2.90624
2.89569
2.88419
2.87417
2.8539
2.82099
2.73209
2.5376
2.13641
1.25628
0.633479
0.443721
0.500048
0.582627
0.645435
0.712274
0.786145
0.865334
0.943158
1.02327
2.98687
2.96909
2.95217
2.93436
2.92036
2.90623
2.89575
2.88435
2.87541
2.85896
2.83163
2.76082
2.60315
2.28535
1.54002
0.766507
0.495685
0.537901
0.603351
0.663322
0.72561
0.795669
0.873081
0.947718
1.02155
2.98701
2.96895
2.95231
2.93423
2.92049
2.90611
2.8959
2.8844
2.87647
2.86264
2.84048
2.78063
2.65752
2.39115
1.77732
0.893455
0.557001
0.584965
0.629018
0.683911
0.74039
0.803901
0.876951
0.950691
1.02012
2.9866
2.96937
2.95189
2.93466
2.92005
2.90659
2.8954
2.88513
2.87601
2.8651
2.84218
2.80159
2.69749
2.45476
1.97666
1.04305
0.650475
0.614245
0.651891
0.702956
0.754481
0.811521
0.878514
0.94932
1.01776
2.98646
2.96951
2.95177
2.93478
2.91993
2.9067
2.8953
2.8853
2.87621
2.86682
2.84935
2.81533
2.73703
2.53833
2.15802
1.31771
0.775548
0.639659
0.671351
0.716711
0.767163
0.819084
0.879235
0.946302
1.01232
2.98666
2.96931
2.95196
2.93459
2.92014
2.9065
2.89554
2.88509
2.87681
2.86759
2.85574
2.82392
2.76921
2.6236
2.31638
1.65018
0.919823
0.692779
0.702935
0.734576
0.781086
0.829003
0.881877
0.942734
1.00618
2.98587
2.9701
2.9512
2.93534
2.91941
2.90721
2.89486
2.8858
2.87635
2.86894
2.85852
2.83639
2.79142
2.68946
2.43878
1.91552
1.09332
0.762065
0.734777
0.757673
0.796885
0.840959
0.887602
0.940872
1.00036
2.98756
2.96839
2.95286
2.9337
2.92101
2.90565
2.89639
2.88435
2.8778
2.86818
2.86148
2.84557
2.80971
2.72923
2.55951
2.12216
1.33992
0.878764
0.768292
0.78341
0.812357
0.853306
0.895875
0.942607
0.994551
2.98617
2.96979
2.95149
2.93505
2.91968
2.90695
2.89512
2.8856
2.87669
2.86958