/*--------------------------------*- C++ -*----------------------------------*\
  =========                 |
  \\      /  F ield         | OpenFOAM: The Open Source CFD Toolbox
   \\    /   O peration     | Website:  https://openfoam.org
    \\  /    A nd           | Version:  6
     \\/     M anipulation  |
\*---------------------------------------------------------------------------*/
FoamFile
{
    version     2.0;
    format      ascii;
    class       volScalarField;
    location    "5";
    object      p;
}
// * * * * * * * * * * * * * * * * * * * * * * * * * * * * * * * * * * * * * //

dimensions      [1 -1 -2 0 0 0 0];

internalField   nonuniform List<scalar> 
26250
(
0.95765
0.911022
0.875216
0.843952
0.820473
0.797004
0.782927
0.763676
0.763802
0.773744
0.783057
0.908464
1.03427
1.89997
3.56924
8.31499
8.06431
7.40058
6.84601
6.78323
6.80304
6.90005
7.15571
7.69123
8.4455
0.957649
0.911019
0.875217
0.843947
0.820479
0.796996
0.782937
0.763651
0.763772
0.773612
0.782869
0.907739
1.03282
1.89569
3.55676
8.29694
8.04451
7.37503
6.8181
6.75577
6.79843
6.92343
7.19464
7.70283
8.46253
0.957641
0.911023
0.875214
0.843948
0.820485
0.796985
0.782958
0.763583
0.763689
0.773292
0.782403
0.906342
1.03004
1.88919
3.538
8.27931
8.00104
7.30822
6.77637
6.72959
6.78238
6.92436
7.21561
7.70175
8.45287
0.957592
0.911083
0.875177
0.844
0.820448
0.797025
0.782923
0.763495
0.763556
0.772024
0.780692
0.902252
1.02339
1.87436
3.50545
8.17848
7.93025
7.27981
6.7591
6.72192
6.76485
6.90184
7.1987
7.69087
8.43908
0.957486
0.911231
0.875068
0.844151
0.820274
0.797297
0.782504
0.764372
0.762918
0.765832
0.803258
0.839143
1.13945
1.64667
3.57189
8.01142
7.82725
7.22385
6.71966
6.67886
6.72324
6.85994
7.15951
7.66187
8.42525
0.957544
0.91114
0.875133
0.844065
0.820396
0.797082
0.782885
0.76337
0.763388
0.769746
0.777607
0.893034
1.00658
1.82846
3.38602
7.88677
7.70184
7.1683
6.65872
6.61165
6.65825
6.79703
7.09828
7.60337
8.39528
0.957492
0.911227
0.875057
0.844182
0.820211
0.797413
0.78226
0.764628
0.761531
0.764298
0.799491
0.832657
1.11833
1.59228
3.41686
7.64871
7.53829
7.06985
6.5801
6.52783
6.57506
6.71178
7.00679
7.50363
8.32666
0.957569
0.911113
0.875169
0.844006
0.820463
0.796975
0.782984
0.763189
0.763199
0.768897
0.776182
0.884407
0.986719
1.76404
3.17742
7.45081
7.35413
6.98191
6.48866
6.42688
6.47067
6.59708
6.87112
7.33771
8.17546
0.957617
0.911055
0.875196
0.843951
0.820501
0.796917
0.78304
0.763105
0.763109
0.768627
0.775875
0.878641
0.976727
1.71064
3.04499
7.16957
7.1322
6.86722
6.38707
6.31143
6.34737
6.45228
6.68184
7.07198
7.85442
0.957766
0.910873
0.875253
0.843947
0.820378
0.79719
0.782529
0.763939
0.761541
0.765983
0.772243
0.868769
0.955129
1.6755
2.91229
6.84196
6.94029
6.72111
6.28234
6.18662
6.20877
6.27686
6.42585
6.66193
7.16646
1.03457
1.06944
1.09339
1.10981
1.12288
1.13222
1.14047
1.14826
1.16149
1.20174
1.25922
1.50384
1.9118
3.47301
7.62953
17.5724
15.8036
14.0661
13.5301
13.7051
13.6937
13.8438
14.2325
14.7347
15.1759
1.03457
1.06943
1.0934
1.1098
1.12289
1.13222
1.14047
1.14825
1.16144
1.20161
1.25886
1.50302
1.90944
3.46653
7.60938
17.5178
15.7537
14.0029
13.4528
13.5361
13.6862
13.8769
14.2338
14.6878
15.1419
1.03456
1.06943
1.09339
1.1098
1.12289
1.13221
1.14048
1.14821
1.16132
1.20121
1.2582
1.50048
1.90473
3.45091
7.56765
17.5149
15.6242
13.877
13.3592
13.4537
13.6383
13.8307
14.1705
14.5675
15.0382
1.03454
1.06945
1.09338
1.10982
1.12288
1.13222
1.14048
1.14813
1.1611
1.20051
1.25712
1.49614
1.89741
3.42569
7.50036
17.2758
15.4774
13.7435
13.2861
13.4573
13.5316
13.6977
14.0187
14.3723
14.8549
1.03449
1.06951
1.09333
1.10988
1.12283
1.13228
1.14039
1.14794
1.15997
1.20068
1.24745
1.49924
1.86697
3.39342
7.43098
16.9841
15.2776
13.5719
13.1342
13.2728
13.3792
13.5204
13.8059
14.1193
14.6121
1.03451
1.06948
1.09336
1.10985
1.12287
1.13222
1.14048
1.14789
1.16046
1.19836
1.25359
1.48191
1.8699
3.33213
7.23269
16.7084
15.0422
13.3617
12.9411
13.0718
13.186
13.3013
13.5422
13.8033
14.2956
1.03449
1.06952
1.09332
1.1099
1.12279
1.13232
1.14031
1.14785
1.15937
1.19807
1.24278
1.48259
1.82821
3.27434
7.06267
16.2726
14.763
13.1197
12.7099
12.8162
12.9492
13.0316
13.2141
13.4049
13.8711
1.03453
1.06946
1.09338
1.10982
1.1229
1.13216
1.14049
1.14765
1.15967
1.19542
1.24797
1.46196
1.82075
3.19052
6.76714
15.8541
14.4461
12.8567
12.4509
12.5408
12.66
12.7021
12.8094
12.9014
13.2899
1.03457
1.06942
1.0934
1.10977
1.12292
1.13213
1.14047
1.14762
1.15922
1.19393
1.24238
1.45498
1.77666
3.13881
6.45693
15.2785
14.076
12.5663
12.1672
12.2365
12.317
12.3071
12.3088
12.2503
12.4517
1.0346
1.06938
1.09344
1.10973
1.12295
1.13211
1.14045
1.14752
1.15851
1.19177
1.23643
1.44289
1.73926
3.06346
6.15784
14.6237
13.6514
12.2415
11.8642
11.9086
11.9272
11.8601
11.7079
11.3772
11.1648
1.00892
1.03179
1.05928
1.08751
1.1132
1.13837
1.15843
1.18253
1.20232
1.25466
1.32977
1.62386
2.11537
3.95034
9.02406
20.6535
18.0736
16.0667
15.5297
15.6893
15.8382
15.9634
16.3203
16.71
17.0189
1.00892
1.03179
1.05928
1.08751
1.1132
1.13836
1.15845
1.18248
1.20237
1.25417
1.33052
1.62117
2.11705
3.94492
9.01342
20.5375
18.0054
16.0111
15.5093
15.6922
15.8355
15.9212
16.259
16.6164
16.9305
1.00892
1.03179
1.05928
1.08751
1.1132
1.13837
1.15843
1.18251
1.20217
1.25421
1.32868
1.62097
2.10843
3.9302
8.95553
20.3966
17.8688
15.8816
15.4329
15.6665
15.7827
15.81
16.1044
16.3988
16.7165
1.00891
1.03179
1.05928
1.08751
1.11321
1.13835
1.15845
1.18243
1.20208
1.2533
1.32849
1.61552
2.10359
3.90484
8.88286
20.2364
17.6778
15.6948
15.2944
15.5668
15.6578
15.6344
15.8713
16.0953
16.4074
1.00891
1.03179
1.05928
1.08751
1.11322
1.13833
1.15846
1.18234
1.20191
1.25208
1.3277
1.60799
2.09399
3.8647
8.75697
19.9311
17.4289
15.4686
15.1099
15.4138
15.4805
15.4143
15.5795
15.7238
16.0227
1.00892
1.03178
1.05929
1.0875
1.11322
1.13834
1.15843
1.18231
1.20151
1.25116
1.32439
1.60119
2.07227
3.80347
8.55539
19.5556
17.1444
15.2053
14.8745
15.1845
15.2526
15.1453
15.2261
15.2801
15.5475
1.00893
1.03177
1.0593
1.08749
1.11322
1.13833
1.15841
1.18224
1.20114
1.24943
1.32163
1.58942
2.04864
3.72231
8.30005
19.1171
16.8211
14.9078
14.5957
14.8883
14.9632
14.8155
14.7999
14.7411
14.9449
1.00895
1.03175
1.05931
1.08747
1.11322
1.13832
1.15837
1.18218
1.20059
1.24771
1.31722
1.57738
2.01689
3.62742
7.98924
18.5872
16.4508
14.5766
14.2757
14.5287
14.5968
14.4188
14.2948
14.0901
14.1781
1.00896
1.03173
1.05933
1.08744
1.11324
1.1383
1.15836
1.18208
1.20016
1.24512
1.31442
1.56028
1.98828
3.52179
7.64393
17.954
16.0304
14.2154
13.9228
14.1285
14.1627
13.944
13.6918
13.2885
13.1462
1.00897
1.03169
1.05939
1.08734
1.11338
1.1381
1.15854
1.18174
1.19914
1.2433
1.30731
1.54854
1.94428
3.41566
7.29634
17.2047
15.5467
13.824
13.5468
13.7016
13.6805
13.4022
12.9795
12.3027
11.7138
1.03453
1.06946
1.09336
1.10983
1.12286
1.13224
1.14046
1.14823
1.16138
1.20155
1.25887
1.50343
1.91266
3.47813
7.66329
17.6592
15.8118
14.0194
13.4375
13.5088
13.6757
13.8858
14.272
14.7512
15.2279
1.03448
1.06952
1.09331
1.1099
1.12279
1.13232
1.14036
1.14811
1.16043
1.20246
1.25059
1.51086
1.89359
3.47717
7.70071
17.6854
15.7327
13.9762
13.4746
13.6634
13.6628
13.8125
14.2059
14.6872
15.1551
1.03451
1.06948
1.09334
1.10986
1.12285
1.13225
1.14046
1.14816
1.1612
1.20094
1.258
1.49956
1.9067
3.45694
7.60962
17.4739
15.6405
13.8943
13.4236
13.602
13.6164
13.7502
14.105
14.5432
15.0027
1.03446
1.06953
1.0933
1.10992
1.12279
1.13232
1.14037
1.14803
1.16025
1.20159
1.24935
1.50543
1.88204
3.43868
7.5804
17.2532
15.4779
13.7518
13.29
13.4045
13.518
13.6664
13.9686
14.3389
14.8082
1.03445
1.06955
1.0933
1.10993
1.12279
1.13232
1.14037
1.14794
1.16009
1.20077
1.24816
1.50032
1.87033
3.40132
7.46539
17.0219
15.2655
13.5675
13.1416
13.2937
13.3816
13.5153
13.7746
14.0825
14.564
1.03447
1.06952
1.09331
1.10991
1.1228
1.1323
1.14035
1.14788
1.15976
1.19959
1.24584
1.49263
1.85233
3.34628
7.28931
16.6684
15.0334
13.3625
12.9442
13.0626
13.1959
13.3059
13.521
13.7688
14.248
1.03454
1.06944
1.09339
1.10979
1.12292
1.13214
1.14052
1.14778
1.16011
1.19712
1.25118
1.47321
1.84877
3.26406
7.01712
16.3202
14.7744
13.1318
12.7179
12.8218
12.9598
13.0363
13.1961
13.372
13.8264
1.03457
1.06941
1.09342
1.10975
1.12295
1.13208
1.14054
1.14762
1.15967
1.19559
1.2474
1.46401
1.81639
3.19699
6.7483
15.8035
14.4591
12.8745
12.4611
12.5494
12.6692
12.7066
12.7946
12.8697
13.249
1.03458
1.0694
1.09341
1.10975
1.12293
1.13211
1.14048
1.14761
1.15922
1.19395
1.24256
1.45504
1.77738
3.13945
6.45624
15.2836
14.0855
12.5765
12.1752
12.2439
12.3243
12.3125
12.2972
12.2179
12.4167
1.03459
1.06937
1.09343
1.10973
1.12295
1.1321
1.14046
1.14752
1.15852
1.19183
1.23655
1.4432
1.73991
3.0644
6.1595
14.6246
13.6531
12.2437
11.8694
11.9144
11.9335
11.8646
11.7015
11.3506
11.1354
0.957594
0.91107
0.875171
0.844
0.820436
0.797042
0.782911
0.763588
0.763669
0.772573
0.781544
0.90634
1.03179
1.90373
3.60154
8.37801
8.08789
7.34907
6.78356
6.72517
6.7741
6.91224
7.20396
7.70622
8.45392
0.957474
0.911245
0.875051
0.844164
0.820252
0.797324
0.782484
0.764501
0.763293
0.766518
0.805867
0.843767
1.15929
1.70336
3.7154
8.35513
8.07068
7.30588
6.79196
6.75427
6.78072
6.89206
7.16801
7.70607
8.44156
0.957551
0.91112
0.875137
0.844052
0.820399
0.797091
0.78288
0.763553
0.763605
0.771473
0.780143
0.902153
1.02362
1.88752
3.57555
8.30246
8.02128
7.31009
6.79018
6.74879
6.77556
6.88419
7.15435
7.69979
8.42933
0.957441
0.911275
0.875027
0.844199
0.820237
0.797343
0.782512
0.764444
0.763607
0.766882
0.806835
0.845077
1.15516
1.67545
3.64912
8.14478
7.92985
7.26842
6.7608
6.71294
6.75275
6.87498
7.14962
7.68029
8.42917
0.957427
0.911297
0.875012
0.84423
0.820206
0.797376
0.782488
0.764388
0.763751
0.767069
0.806399
0.843578
1.14685
1.64697
3.59486
8.01839
7.81958
7.19795
6.71424
6.67571
6.71692
6.84467
7.1255
7.64135
8.41756
0.957459
0.911257
0.875039
0.844194
0.820223
0.797375
0.782395
0.764506
0.762682
0.765732
0.803439
0.838811
1.13433
1.62339
3.51643
7.85082
7.69279
7.14024
6.65465
6.60993
6.6557
6.78795
7.07274
7.57977
8.38361
0.957578
0.911084
0.87519
0.843965
0.820512
0.796904
0.783067
0.763015
0.762926
0.770267
0.778156
0.891328
1.00087
1.79941
3.28461
7.68816
7.54527
7.08572
6.57997
6.52423
6.57068
6.70194
6.98229
7.47884
8.30812
0.95761
0.911047
0.875231
0.843898
0.820584
0.796791
0.783171
0.76284
0.762801
0.76987
0.777464
0.88617
0.990071
1.75735
3.16664
7.44022
7.35715
7.00081
6.49437
6.42634
6.46836
6.58885
6.84854
7.31332
8.15199
0.957625
0.91104
0.875209
0.84392
0.820529
0.796864
0.783085
0.762964
0.762898
0.768721
0.775926
0.878975
0.97697
1.71122
3.04542
7.17414
7.13652
6.87619
6.39383
6.31418
6.34799
6.44713
6.66331
7.04988
7.82974
0.95775
0.910872
0.875244
0.843943
0.820388
0.797178
0.782562
0.763898
0.761615
0.766103
0.772434
0.869036
0.955495
1.67543
2.91317
6.84326
6.94139
6.72289
6.28574
6.18912
6.20972
6.27327
6.41273
6.64312
7.1443
0.957459
0.911327
0.874934
0.84436
0.819938
0.797772
0.781669
0.764965
0.758948
0.760808
0.78839
0.812712
1.05471
1.40361
2.91949
6.40395
6.72085
6.54831
6.18106
6.05542
6.05771
6.0699
6.06864
5.98921
5.45242
0.957682
0.911014
0.875086
0.844237
0.819968
0.79782
0.78151
0.765169
0.758302
0.761867
0.767367
0.851634
0.929009
1.54357
2.62225
6.0231
6.47596
6.34762
6.06491
5.92524
5.88965
5.84598
5.74964
5.51724
4.92213
0.957387
0.911448
0.874789
0.844585
0.819631
0.798209
0.780976
0.76566
0.756317
0.757705
0.78025
0.799458
1.00978
1.28263
2.59552
5.57021
6.2034
6.13317
5.94836
5.80051
5.72826
5.64172
5.49605
5.23687
4.72855
0.957611
0.911147
0.8749
0.844491
0.819592
0.798341
0.780687
0.76604
0.75541
0.758203
0.762521
0.832729
0.896485
1.38898
2.24738
5.0319
5.97396
5.9455
5.84147
5.68623
5.58169
5.46093
5.28527
5.01883
4.60184
0.957555
0.911243
0.874772
0.84468
0.819318
0.798738
0.780099
0.766688
0.753612
0.755927
0.759336
0.818603
0.872082
1.28655
1.98473
4.36614
5.80856
5.81795
5.75161
5.60086
5.45457
5.30785
5.11809
4.85739
4.49893
0.957338
0.91155
0.87457
0.844952
0.819067
0.79905
0.779683
0.76706
0.752145
0.752545
0.764434
0.775033
0.902918
1.04577
1.83989
3.51898
5.67855
5.77981
5.70834
5.53731
5.34805
5.17957
4.98573
4.73642
4.418
0.957335
0.911545
0.874536
0.845026
0.818944
0.799265
0.779319
0.767487
0.750653
0.750627
0.75919
0.767064
0.864356
0.960039
1.58592
2.6679
5.43247
5.72575
5.65608
5.48221
5.25443
5.06943
4.87644
4.64155
4.35441
0.957342
0.91153
0.874537
0.845031
0.818928
0.7993
0.779257
0.767548
0.750414
0.750375
0.754956
0.762208
0.834976
0.910733
1.41034
2.25342
4.83168
5.58063
5.54112
5.40994
5.16939
4.97236
4.78101
4.56138
4.30153
0.957234
0.911665
0.874519
0.844997
0.819082
0.798998
0.779773
0.766664
0.751623
0.747777
0.750264
0.75568
0.813596
0.876831
1.27287
1.96779
4.17955
5.34856
5.35922
5.29081
5.12034
4.89744
4.7008
4.49339
4.25685
0.957466
0.9113
0.874817
0.844582
0.81957
0.798306
0.780719
0.765177
0.75331
0.742565
0.743205
0.756295
0.767469
0.890906
1.03076
1.76015
3.2622
5.09007
5.26058
5.21082
5.07421
4.84456
4.6424
4.44137
4.22183
0.957399
0.911377
0.87483
0.844504
0.819745
0.79799
0.781201
0.764391
0.754198
0.74014
0.741076
0.743158
0.776127
0.809422
1.01998
1.36852
2.50605
4.69094
5.15553
5.12856
5.02813
4.8193
4.60544
4.40376
4.1952
0.957444
0.911314
0.874873
0.844463
0.819772
0.79797
0.7812
0.764375
0.754126
0.739839
0.739864
0.743164
0.749147
0.810684
0.872208
1.2808
1.94452
4.0075
4.98458
5.01052
4.95551
4.80982
4.57857
4.37301
4.17274
0.957393
0.911407
0.874767
0.844619
0.819558
0.798283
0.780729
0.765073
0.752965
0.741206
0.735686
0.737027
0.75082
0.766112
0.882302
1.03072
1.72986
3.12153
4.73111
4.93193
4.8946
4.78439
4.56289
4.35234
4.15567
0.957382
0.911436
0.87471
0.844718
0.8194
0.798538
0.780338
0.765662
0.751996
0.742304
0.732109
0.732468
0.741419
0.749126
0.832515
0.915121
1.41583
2.24035
4.3003
4.81436
4.80004
4.73129
4.56582
4.34479
4.14582
0.957407
0.911399
0.874717
0.844728
0.81936
0.798621
0.780195
0.765896
0.75159
0.742752
0.730545
0.730521
0.734743
0.739853
0.79658
0.847917
1.21347
1.77307
3.53713
4.60362
4.70314
4.66545
4.55744
4.34569
4.14386
0.957316
0.911519
0.874663
0.844783
0.819354
0.798596
0.780283
0.765718
0.751891
0.742173
0.731278
0.728342
0.730131
0.734305
0.769565
0.812545
1.03778
1.42386
2.58737
4.29218
4.62034
4.60145
4.52839
4.36033
4.14934
0.95733
0.911491
0.8747
0.844725
0.819445
0.798452
0.780504
0.765369
0.752411
0.741302
0.732259
0.725127
0.725857
0.72827
0.751365
0.779881
0.927464
1.17494
1.98833
3.62291
4.44806
4.51387
4.47779
4.37143
4.16548
0.957379
0.91142
0.874748
0.844654
0.819514
0.798357
0.780628
0.765192
0.752667
0.740866
0.732684
0.723148
0.722263
0.72381
0.737677
0.754303
0.855837
0.998422
1.58496
2.74827
4.14839
4.43498
4.41918
4.3536
4.20239
0.957399
0.911399
0.874753
0.84465
0.819497
0.798389
0.780559
0.765315
0.752449
0.741222
0.731973
0.723852
0.718568
0.719284
0.727321
0.735747
0.805146
0.874742
1.28364
1.9275
3.59066
4.28253
4.34085
4.30981
4.21562
0.957412
0.911386
0.874751
0.84466
0.819467
0.798442
0.780466
0.765462
0.752211
0.741579
0.731367
0.724514
0.716308
0.716436
0.720823
0.726031
0.769085
0.815763
1.07999
1.50053
2.76936
3.98892
4.26051
4.24905
4.19738
0.957375
0.911438
0.874725
0.844695
0.819446
0.798464
0.780448
0.765474
0.752198
0.741568
0.731379
0.724358
0.716135
0.714714
0.716213
0.720408
0.743675
0.780213
0.927773
1.19252
1.96392
3.45875
4.11315
4.1861
4.16048
0.957372
0.91144
0.874732
0.844685
0.819468
0.798428
0.780507
0.765373
0.752365
0.741276
0.731853
0.723493
0.717152
0.711249
0.711669
0.713367
0.728772
0.745721
0.849065
0.988996
1.54425
2.641
3.8148
4.10727
4.10241
0.957407
0.911393
0.87476
0.844647
0.8195
0.798388
0.780555
0.765313
0.752444
0.741181
0.731961
0.723333
0.717198
0.710312
0.708911
0.709919
0.717968
0.727437
0.791157
0.860685
1.22349
1.80378
3.25804
3.94565
4.04922
0.957424
0.911376
0.874764
0.84464
0.819494
0.798398
0.780532
0.765353
0.752376
0.7413
0.731757
0.723663
0.716578
0.710948
0.706181
0.706526
0.711022
0.716255
0.75476
0.796925
1.0245
1.37988
2.42474
3.61281
3.95621
0.957445
0.911349
0.874778
0.844628
0.819496
0.798402
0.780515
0.765383
0.752323
0.741385
0.731619
0.723873
0.716218
0.711341
0.70479
0.704775
0.706643
0.710006
0.730577
0.761765
0.884375
1.10029
1.733
2.9747
3.75982
0.957407
0.911403
0.874751
0.844661
0.819477
0.798416
0.780508
0.765375
0.752344
0.741331
0.731712
0.723699
0.716504
0.710782
0.705462
0.702316
0.702862
0.704843
0.716007
0.732737
0.8076
0.918806
1.33306
2.11606
3.38549
0.957413
0.911393
0.874758
0.844653
0.819487
0.798403
0.780527
0.765348
0.752385
0.741267
0.73181
0.723544
0.716735
0.71039
0.705872
0.700756
0.700024
0.700764
0.707248
0.713712
0.764472
0.81098
1.10052
1.50573
2.66697
0.957437
0.91136
0.874775
0.844631
0.819501
0.798392
0.780535
0.765347
0.752382
0.741285
0.731775
0.723613
0.71661
0.710597
0.705454
0.701179
0.698031
0.698374
0.70154
0.706456
0.731194
0.769942
0.910408
1.16291
1.83322
0.957444
0.91135
0.874783
0.844624
0.819506
0.798389
0.780534
0.765353
0.752367
0.74131
0.731732
0.723683
0.716495
0.710773
0.705143
0.701524
0.69674
0.69673
0.697846
0.700178
0.714066
0.7347
0.81838
0.957185
1.40902
0.957411
0.911397
0.874757
0.844654
0.819486
0.798407
0.780521
0.765358
0.752367
0.741298
0.731757
0.723632
0.716581
0.710621
0.705388
0.701055
0.697284
0.694685
0.695017
0.696177
0.704039
0.71415
0.767467
0.829802
1.13009
0.957426
0.911375
0.874769
0.84464
0.819496
0.798396
0.780533
0.765345
0.752384
0.741275
0.73179
0.723584
0.716654
0.71051
0.70555
0.700786
0.697556
0.693654
0.693265
0.69383
0.698256
0.704024
0.735651
0.776817
0.954567
0.957437
0.911361
0.874776
0.84463
0.819502
0.79839
0.780537
0.765343
0.752386
0.741278
0.731785
0.723598
0.716629
0.710557
0.705467
0.70092
0.697288
0.693921
0.692026
0.692367
0.695088
0.699366
0.720497
0.752881
0.877899
0.957434
0.911366
0.874774
0.844634
0.819499
0.798393
0.780532
0.765349
0.752377
0.741291
0.731765
0.723626
0.716587
0.710618
0.705376
0.70105
0.697081
0.694135
0.691326
0.691502
0.693676
0.696769
0.715332
0.73996
0.858281
0.957433
0.911369
0.874771
0.844637
0.819495
0.798397
0.780527
0.765354
0.752369
0.7413
0.731751
0.723644
0.716561
0.710654
0.705325
0.701119
0.696977
0.694247
0.69099
0.691102
0.693024
0.695716
0.713071
0.73484
0.851632
0.957435
0.911367
0.874772
0.844636
0.819495
0.798397
0.780526
0.765356
0.752366
0.741305
0.731745
0.723653
0.716549
0.71067
0.705303
0.701148
0.696934
0.694293
0.690853
0.690903
0.692656
0.694954
0.7122
0.730289
0.85306
0.957437
0.911365
0.874772
0.844635
0.819495
0.798397
0.780525
0.765357
0.752364
0.741307
0.731741
0.723657
0.716542
0.710678
0.705292
0.701161
0.696916
0.694311
0.690818
0.690864
0.692553
0.694897
0.711487
0.73034
0.848957
0.957437
0.911364
0.874773
0.844635
0.819495
0.798397
0.780525
0.765358
0.752363
0.741309
0.731739
0.723661
0.716537
0.710686
0.705281
0.701176
0.696897
0.694332
0.690804
0.690852
0.692559
0.695011
0.711547
0.733067
0.846494
0.957441
0.911358
0.874778
0.84463
0.819498
0.798394
0.780527
0.765356
0.752363
0.741308
0.731738
0.723662
0.716535
0.710689
0.705276
0.701185
0.69688
0.694354
0.690682
0.69068
0.692286
0.694277
0.711218
0.727797
0.849565
0.957439
0.911362
0.874775
0.844634
0.819496
0.798397
0.780525
0.765358
0.752362
0.741309
0.731737
0.723662
0.716535
0.710687
0.705281
0.701177
0.6969
0.694331
0.690798
0.690839
0.692445
0.694777
0.711008
0.730347
0.845888
0.957437
0.911364
0.874774
0.844635
0.819495
0.798398
0.780524
0.765358
0.752361
0.741309
0.731737
0.723662
0.716536
0.710685
0.705283
0.701173
0.696906
0.694325
0.690828
0.690877
0.692593
0.695035
0.711531
0.732946
0.845671
1.03447
1.06951
1.09339
1.10976
1.12304
1.13188
1.14095
1.14638
1.16011
1.18098
1.25792
1.35855
1.8514
2.76334
6.04204
13.8421
13.1425
11.8994
11.5553
11.5636
11.5251
11.3575
10.9927
10.2287
8.41623
1.03452
1.06945
1.09345
1.10969
1.12312
1.13176
1.1411
1.14601
1.15944
1.1766
1.25336
1.33581
1.8169
2.6311
5.68054
13.0259
12.5921
11.6054
11.2685
11.2268
11.1152
10.8315
10.2773
9.32702
7.47695
1.03441
1.06958
1.0933
1.10988
1.1229
1.13199
1.14077
1.14574
1.15791
1.17605
1.24398
1.32754
1.76521
2.50749
5.34317
12.1108
11.9956
11.3951
11.0136
10.9055
10.7173
10.3317
9.70462
8.78172
7.38779
1.03447
1.06954
1.09329
1.1099
1.12282
1.13209
1.14059
1.14565
1.1571
1.17047
1.23551
1.29993
1.71291
2.35126
4.8822
11.0935
11.537
11.2048
10.7862
10.6043
10.3577
9.923
9.29921
8.46934
7.39013
1.03444
1.06958
1.09322
1.11001
1.12263
1.13245
1.13991
1.14702
1.15408
1.17661
1.20328
1.34494
1.50567
2.44521
4.21241
9.89727
11.2544
11.0275
10.5844
10.3368
10.0487
9.60877
9.01567
8.27829
7.3883
1.03432
1.0697
1.09315
1.1101
1.12262
1.13238
1.14014
1.14601
1.15444
1.16786
1.21464
1.27055
1.57053
2.01747
3.88762
8.39202
11.0803
10.897
10.4396
10.1024
9.78348
9.35499
8.80359
8.1429
7.3805
1.03427
1.06977
1.09309
1.11018
1.12252
1.13254
1.1399
1.14624
1.15335
1.1652
1.20299
1.25266
1.48877
1.84834
3.30473
6.75402
10.9688
10.8056
10.321
9.89402
9.54908
9.1384
8.63151
8.03468
7.36432
1.03427
1.06977
1.09304
1.11026
1.12238
1.13279
1.13945
1.14698
1.15161
1.16503
1.18304
1.25769
1.35483
1.8031
2.64495
5.30437
10.6118
10.5926
10.2179
9.70283
9.33788
8.94695
8.48047
7.94019
7.34246
1.03425
1.06979
1.09303
1.11027
1.12238
1.13277
1.13944
1.14684
1.15092
1.16195
1.17644
1.23851
1.30703
1.68349
2.31048
4.53421
9.66571
10.2206
9.9993
9.52218
9.1512
8.77798
8.34909
7.85768
7.32037
1.03432
1.06969
1.09315
1.1101
1.12255
1.13253
1.13966
1.14647
1.15053
1.15944
1.17277
1.22034
1.27776
1.58146
2.02254
3.88846
8.06304
9.83102
9.724
9.39162
8.99294
8.62847
8.23142
7.78419
7.29809
1.03435
1.06963
1.09322
1.10997
1.12275
1.13222
1.14012
1.14568
1.15173
1.15691
1.1724
1.19338
1.28467
1.4001
1.96796
3.03305
6.37766
9.56379
9.53796
9.30936
8.87256
8.50937
8.13417
7.72098
7.27503
1.03439
1.06959
1.09327
1.10991
1.12282
1.13212
1.14023
1.14549
1.15167
1.15594
1.16753
1.18517
1.24871
1.34298
1.72555
2.45284
4.67532
8.99981
9.38406
9.21
8.80681
8.41981
8.05246
7.66523
7.25387
1.0344
1.06959
1.09323
1.10997
1.12272
1.13227
1.14001
1.14576
1.15104
1.15566
1.16206
1.18246
1.20638
1.33208
1.47065
2.26985
3.66766
7.82654
9.11311
9.02603
8.74974
8.34483
7.98099
7.61386
7.23159
1.03436
1.06965
1.09317
1.11006
1.12262
1.13239
1.13987
1.14585
1.15097
1.15477
1.1615
1.1708
1.20845
1.24814
1.47979
1.79453
3.14265
6.05024
8.7823
8.83019
8.67127
8.30484
7.92413
7.56819
7.20871
1.03434
1.06967
1.09316
1.11009
1.12259
1.13245
1.13981
1.14596
1.15074
1.15492
1.15975
1.16794
1.19249
1.22975
1.37228
1.59982
2.45992
4.20853
8.1455
8.69391
8.57913
8.27773
7.88481
7.53213
7.18776
1.03428
1.06973
1.09313
1.11011
1.12259
1.13244
1.13984
1.14591
1.15076
1.15485
1.15919
1.1652
1.18306
1.20766
1.31648
1.44347
2.12296
3.2852
6.75034
8.40599
8.38723
8.22665
7.8714
7.50912
7.17502
1.0343
1.0697
1.09316
1.11008
1.12263
1.13238
1.13991
1.14582
1.15083
1.15472
1.15886
1.16342
1.17596
1.19554
1.26654
1.37196
1.8049
2.61716
5.07155
7.89811
8.21919
8.12272
7.86078
7.50002
7.16882
1.03435
1.06964
1.09319
1.11003
1.12267
1.13234
1.13994
1.14581
1.1508
1.15474
1.1583
1.16222
1.16877
1.18892
1.21506
1.33764
1.4847
2.2154
3.49852
6.89329
8.02311
7.9932
7.83837
7.50741
7.17311
1.03435
1.06965
1.09319
1.11003
1.12266
1.13234
1.13993
1.1458
1.15083
1.15461
1.15848
1.161
1.16717
1.17686
1.20926
1.25174
1.4517
1.73211
2.88947
5.26269
7.60265
7.86577
7.77851
7.53116
7.18698
1.03436
1.06964
1.09319
1.11004
1.12264
1.13236
1.1399
1.14585
1.15076
1.15468
1.15831
1.16091
1.16509
1.17211
1.19294
1.22475
1.3447
1.525
2.23506
3.58196
6.76765
7.68469
7.65965
7.52081
7.21883
1.03434
1.06967
1.09317
1.11006
1.12263
1.13239
1.13987
1.14588
1.15071
1.15474
1.15817
1.16097
1.16418
1.1691
1.18294
1.20421
1.28435
1.39194
1.88293
2.73669
5.23017
7.28324
7.53242
7.4651
7.26202
1.03433
1.06968
1.09317
1.11006
1.12263
1.13238
1.13988
1.14586
1.15073
1.15472
1.15816
1.16096
1.16384
1.1672
1.176
1.19067
1.23792
1.31875
1.58899
2.11838
3.57746
6.44742
7.34697
7.34378
7.24744
1.03434
1.06966
1.09318
1.11005
1.12265
1.13236
1.13991
1.14584
1.15077
1.15468
1.15821
1.16085
1.16375
1.16607
1.17196
1.18147
1.21279
1.25875
1.44291
1.73349
2.77952
4.9334
6.9222
7.24025
7.19514
1.03436
1.06964
1.09319
1.11004
1.12265
1.13237
1.13989
1.14586
1.15074
1.15472
1.15814
1.1609
1.16352
1.16542
1.16927
1.1756
1.19503
1.22417
1.33513
1.50287
2.12961
3.31055
6.05623
7.02426
7.08421
1.03437
1.06964
1.09319
1.11003
1.12264
1.13237
1.13988
1.14587
1.15071
1.15476
1.15809
1.16097
1.16341
1.16546
1.16798
1.17227
1.18447
1.20344
1.2725
1.37133
1.78071
2.50217
4.54793
6.52592
6.96127
1.03436
1.06966
1.09318
1.11005
1.12264
1.13238
1.13987
1.14588
1.1507
1.15476
1.15808
1.16098
1.16333
1.16553
1.16717
1.17063
1.17604
1.19362
1.21688
1.3215
1.45245
2.0317
3.02708
5.52764
6.69762
1.03436
1.06966
1.09319
1.11005
1.12264
1.13237
1.13988
1.14587
1.15072
1.15473
1.15811
1.16093
1.1634
1.16541
1.1674
1.16921
1.17384
1.18119
1.20594
1.24122
1.38534
1.60842
2.39549
3.96703
6.10642
1.03437
1.06964
1.0932
1.11003
1.12265
1.13237
1.13989
1.14586
1.15072
1.15474
1.1581
1.16095
1.16336
1.16546
1.16722
1.16901
1.17135
1.17765
1.18774
1.22161
1.27598
1.46502
1.81901
2.81421
4.90511
1.03438
1.06963
1.0932
1.11003
1.12265
1.13236
1.13989
1.14587
1.15071
1.15475
1.15808
1.16098
1.16332
1.16551
1.16713
1.16895
1.17048
1.17427
1.1806
1.20007
1.23186
1.3395
1.52628
2.11372
3.27984
1.03436
1.06966
1.09319
1.11005
1.12264
1.13238
1.13988
1.14587
1.15071
1.15475
1.15809
1.16096
1.16336
1.16543
1.16722
1.16872
1.1703
1.17227
1.17744
1.18586
1.21361
1.25662
1.4139
1.67794
2.53558
1.03436
1.06965
1.09319
1.11004
1.12265
1.13237
1.13989
1.14586
1.15072
1.15473
1.15811
1.16093
1.16339
1.16539
1.16725
1.16866
1.1702
1.1715
1.17474
1.18006
1.1968
1.22264
1.31808
1.45843
2.00451
1.03437
1.06964
1.0932
1.11004
1.12265
1.13237
1.13989
1.14586
1.15073
1.15473
1.15811
1.16094
1.16338
1.16541
1.16722
1.1687
1.17006
1.17132
1.17311
1.1779
1.18542
1.21159
1.24949
1.39905
1.64647
1.03437
1.06965
1.09319
1.11004
1.12265
1.13237
1.13989
1.14587
1.15072
1.15474
1.1581
1.16095
1.16337
1.16543
1.16721
1.1687
1.17006
1.1711
1.17282
1.17574
1.18421
1.19747
1.24649
1.31287
1.61933
1.03437
1.06965
1.09319
1.11004
1.12264
1.13237
1.13988
1.14587
1.15071
1.15475
1.15809
1.16096
1.16335
1.16544
1.16719
1.16871
1.17004
1.1711
1.17259
1.17514
1.18247
1.19394
1.23671
1.29403
1.56732
1.03437
1.06964
1.09319
1.11004
1.12264
1.13237
1.13988
1.14587
1.15071
1.15475
1.15809
1.16097
1.16334
1.16545
1.16717
1.16874
1.17001
1.17113
1.1725
1.17478
1.18155
1.19181
1.23188
1.28318
1.54209
1.03437
1.06964
1.09319
1.11004
1.12264
1.13237
1.13988
1.14587
1.15071
1.15475
1.15809
1.16097
1.16334
1.16546
1.16716
1.16874
1.17
1.17114
1.17245
1.17461
1.18104
1.1906
1.22916
1.27623
1.52706
1.03437
1.06964
1.0932
1.11004
1.12265
1.13237
1.13988
1.14587
1.15071
1.15475
1.15808
1.16098
1.16333
1.16547
1.16714
1.16878
1.16994
1.1713
1.17222
1.175
1.17825
1.1944
1.20975
1.31006
1.4173
1.03437
1.06964
1.0932
1.11004
1.12264
1.13237
1.13988
1.14587
1.15071
1.15476
1.15808
1.16098
1.16333
1.16548
1.16714
1.16878
1.16995
1.17121
1.17239
1.1743
1.18057
1.18773
1.22776
1.26633
1.51789
1.03438
1.06964
1.0932
1.11004
1.12265
1.13237
1.13988
1.14587
1.15071
1.15476
1.15808
1.16098
1.16332
1.16549
1.16713
1.1688
1.16992
1.17132
1.17232
1.17497
1.17897
1.19391
1.21162
1.30915
1.41736
1.03437
1.06964
1.0932
1.11004
1.12265
1.13237
1.13988
1.14587
1.15071
1.15476
1.15808
1.16098
1.16332
1.16548
1.16713
1.16879
1.16993
1.17131
1.17231
1.17495
1.17896
1.19376
1.21149
1.30866
1.41499
1.00892
1.03171
1.05947
1.08715
1.1138
1.13732
1.15985
1.17915
1.2021
1.23329
1.32961
1.46297
2.04563
3.15743
7.08849
16.315
14.9596
13.4293
13.1651
13.259
13.1798
12.8032
12.1611
11.0662
8.7836
1.00891
1.03171
1.05948
1.08714
1.11385
1.13726
1.1599
1.17895
1.20163
1.23123
1.32169
1.44795
1.99239
3.02922
6.68099
15.3717
14.3579
13.0742
12.8076
12.8268
12.6787
12.1852
11.3317
10.027
7.74165
1.00891
1.03173
1.05939
1.08732
1.11348
1.1379
1.1587
1.18088
1.1967
1.23429
1.28704
1.49478
1.78145
3.08446
6.02382
14.3671
13.7666
12.8017
12.4997
12.4279
12.1877
11.5985
10.6722
9.42961
7.73667
1.00885
1.03184
1.05928
1.08742
1.11338
1.13796
1.15867
1.18061
1.19647
1.23041
1.27857
1.46796
1.71831
2.91634
5.49545
13.2403
13.1719
12.6501
12.2256
12.06
11.7409
11.1054
10.2246
9.12658
7.78161
1.0089
1.03173
1.05942
1.08721
1.11372
1.13735
1.1597
1.17859
1.19992
1.22067
1.29298
1.3711
1.797
2.47079
5.13853
11.877
12.8445
12.4648
11.9617
11.709
11.3552
10.7425
9.93136
8.97149
7.87668
1.00883
1.03178
1.05941
1.08716
1.11388
1.13708
1.1601
1.17799
1.20006
1.22115
1.28129
1.36343
1.71778
2.30995
4.58005
10.2757
12.6924
12.3314
11.7279
11.3959
11.027
10.4578
9.72199
8.87234
7.93865
1.00878
1.03184
1.05938
1.0872
1.11386
1.1371
1.16006
1.17789
1.19948
1.21808
1.26872
1.33973
1.62934
2.11046
3.91186
8.44453
12.6722
12.2593
11.5237
11.1183
10.7425
10.2181
9.55359
8.7941
7.97396
1.00875
1.03189
1.05932
1.08728
1.11375
1.13723
1.15989
1.1779
1.19881
1.21435
1.25642
1.3118
1.54438
1.89785
3.2566
6.49833
12.5289
12.1069
11.3533
10.8749
10.4895
10.0063
9.407
8.72364
7.992
1.00872
1.03193
1.05926
1.08738
1.11362
1.13742
1.15962
1.17812
1.19795
1.21197
1.2459
1.29383
1.48002
1.73167
2.87889
5.30623
11.7908
11.7002
11.2277
10.6554
10.2523
9.81159
9.27369
8.65928
8.00163
1.00876
1.0319
1.05925
1.08742
1.11346
1.13775
1.15895
1.17926
1.19546
1.21501
1.23517
1.2983
1.37819
1.75051
2.35081
4.65979
10.0393
11.2302
10.9724
10.4499
10.0417
9.6337
9.15101
8.59805
8.00349
1.00881
1.03183
1.05931
1.08734
1.11353
1.13766
1.15903
1.17912
1.19539
1.21397
1.23028
1.28215
1.33981
1.63327
2.07464
3.81181
8.0061
11.0293
10.8104
10.3207
9.87698
9.4815
9.0401
8.53959
8.00157
1.00884
1.03179
1.05936
1.08727
1.11363
1.13748
1.1593
1.17862
1.19602
1.21171
1.22953
1.25856
1.34015
1.47236
1.95699
2.93249
5.90424
10.7014
10.6283
10.2676
9.76781
9.35492
8.9422
8.48549
7.99503
1.00888
1.03173
1.05941
1.08722
1.11368
1.13742
1.15937
1.17848
1.19611
1.21081
1.22802
1.24703
1.31475
1.39534
1.77293
2.44874
4.66498
9.70975
10.366
10.1466
9.67764
9.24673
8.85166
8.42992
7.98119
1.00876
1.03193
1.05924
1.08741
1.11351
1.13761
1.15916
1.17875
1.19558
1.21156