/*--------------------------------*- C++ -*----------------------------------*\
  =========                 |
  \\      /  F ield         | OpenFOAM: The Open Source CFD Toolbox
   \\    /   O peration     | Website:  https://openfoam.org
    \\  /    A nd           | Version:  6
     \\/     M anipulation  |
\*---------------------------------------------------------------------------*/
FoamFile
{
    version     2.0;
    format      ascii;
    class       surfaceScalarField;
    location    "5";
    object      phi;
}
// * * * * * * * * * * * * * * * * * * * * * * * * * * * * * * * * * * * * * //

dimensions      [1 0 -1 0 0 0 0];

internalField   nonuniform List<scalar> 
72625
(
0.00162356
6.92011e-11
5.87432e-05
0.00157665
9.07501e-10
4.69137e-05
0.00153806
3.07003e-10
3.85919e-05
0.00150613
1.37251e-09
3.19292e-05
0.00147905
-9.33096e-11
2.70762e-05
0.00145656
1.42608e-09
2.24913e-05
0.00143681
-4.76363e-10
1.9751e-05
0.00142086
4.12138e-09
1.59453e-05
0.00140578
1.12058e-08
1.50622e-05
0.00139163
3.93288e-08
1.41014e-05
0.00138327
7.87702e-08
8.27375e-06
0.00136626
2.4455e-07
1.66913e-05
0.00138567
5.71907e-07
-1.99603e-05
0.0013378
1.95597e-06
4.57257e-05
0.00157947
6.40052e-06
-0.000248448
0.00180197
2.67361e-05
-0.000249922
0.00170887
3.47622e-05
5.7683e-05
0.00150527
4.63336e-05
0.000156719
0.00139508
6.11218e-05
4.86139e-05
0.00137446
7.4519e-05
-5.42905e-05
0.00129071
7.05429e-05
1.28263e-05
0.0011871
5.42457e-05
4.899e-05
0.00103421
3.43172e-05
0.000118222
0.000688861
3.7793e-05
0.000307208
2.07888e-05
0.000667684
0.00162356
1.49773e-09
5.87426e-05
0.00157665
2.50218e-09
4.6914e-05
0.00153805
3.74644e-10
3.85917e-05
0.00150612
2.08608e-09
3.19293e-05
0.00147905
-1.84176e-09
2.70766e-05
0.00145656
3.01646e-09
2.24905e-05
0.00143681
-3.82271e-09
1.97528e-05
0.00142086
1.30906e-08
1.59401e-05
0.00140577
2.99592e-08
1.50643e-05
0.00139163
9.80779e-08
1.4072e-05
0.00138315
2.26773e-07
8.32103e-06
0.0013662
5.92345e-07
1.6531e-05
0.0013852
1.34045e-06
-1.97788e-05
0.001338
3.71506e-06
4.52569e-05
0.00157478
1.17345e-05
-0.000242458
0.00180969
4.50515e-05
-0.000253954
0.00171903
7.92282e-05
4.56466e-05
0.00151288
0.000108549
0.000143643
0.00142377
0.000111407
3.85629e-05
0.00137838
0.000117477
2.1571e-06
0.00133505
0.000123843
-1.02426e-05
0.00126408
0.000118936
5.98841e-06
0.00110355
0.000104121
9.04402e-05
0.00075138
0.000109419
0.000280257
0.000125608
0.000646303
0.00162356
9.21603e-09
5.87407e-05
0.00157665
-1.78476e-09
4.69152e-05
0.00153805
4.0297e-09
3.8591e-05
0.00150613
-4.41041e-09
3.19296e-05
0.00147905
1.12628e-09
2.70776e-05
0.00145656
-2.83937e-09
2.24889e-05
0.00143681
-3.57193e-09
1.97558e-05
0.00142086
2.97129e-08
1.59327e-05
0.00140581
1.15065e-08
1.50575e-05
0.00139155
2.89094e-07
1.40578e-05
0.00138278
7.09295e-07
8.27026e-06
0.0013661
6.2844e-07
1.65683e-05
0.00138294
4.45428e-06
-1.99533e-05
0.00133745
3.63421e-06
4.5384e-05
0.00156229
2.95061e-05
-0.00024293
0.00176817
0.000128712
-0.00029034
0.00164654
0.000151059
4.92869e-05
0.00146893
0.000151352
0.00013466
0.00139003
0.000155075
3.50482e-05
0.00133425
0.000161831
1.12131e-05
0.00129911
0.00017606
-1.73043e-05
0.00123308
0.00019208
-7.37426e-06
0.00105931
0.000197431
8.02111e-05
0.000700492
0.000198772
0.000269204
0.000216072
0.000609841
0.00162356
1.97777e-08
5.87258e-05
0.00157668
-1.84739e-08
4.69309e-05
0.00153804
1.70986e-08
3.85793e-05
0.00150616
-2.26006e-08
3.19416e-05
0.00147905
2.53718e-08
2.70675e-05
0.00145658
-4.55159e-08
2.24981e-05
0.00143679
6.63806e-08
1.97465e-05
0.00142104
-1.55573e-07
1.59228e-05
0.0014059
9.43664e-08
1.50586e-05
0.00139115
1.19598e-06
1.3832e-05
0.00138796
-4.22692e-06
8.10897e-06
0.00135778
1.48042e-05
1.59156e-05
0.0014126
-2.95995e-05
-2.07529e-05
0.00131752
5.53675e-05
4.32268e-05
0.00157752
6.11905e-06
-0.000236937
0.00178875
0.000182163
-0.000265523
0.0016933
0.000215425
3.05378e-05
0.00149295
0.000222424
0.000129151
0.00139943
0.000221683
2.67595e-05
0.0013488
0.0002426
-3.03379e-05
0.00128351
0.000253017
-1.18758e-05
0.00120929
0.000267004
-9.28793e-07
0.00104285
0.000286077
7.75595e-05
0.000676317
0.000300679
0.000264402
0.000310598
0.000581672
0.00162366
-1.07285e-08
5.86833e-05
0.00157665
1.88765e-08
4.698e-05
0.00153814
-1.23478e-08
3.85348e-05
0.00150611
1.80475e-08
3.19929e-05
0.00147915
-2.49795e-08
2.70092e-05
0.00145648
4.29905e-08
2.25757e-05
0.00143699
-7.70212e-08
1.96379e-05
0.00142043
1.94173e-07
1.61653e-05
0.00140604
-8.99901e-08
1.49803e-05
0.00139523
-6.46554e-07
1.24219e-05
0.00137002
5.56366e-06
1.53944e-05
0.00140091
-1.17616e-05
-4.1492e-06
0.00130374
4.20953e-05
2.4811e-05
0.00145912
-3.85599e-05
-6.14057e-05
0.00146602
8.70756e-05
-8.79183e-05
0.0017604
0.000180169
-0.000293275
0.00169292
0.000259111
2.32179e-05
0.00152313
0.000266106
0.000125951
0.00143767
0.000279298
2.76991e-05
0.00138344
0.000304175
-7.53301e-06
0.0013191
0.000329195
-1.20345e-05
0.0012319
0.000351715
2.26997e-06
0.00105923
0.000379768
7.87511e-05
0.000688143
0.000411774
0.000259779
0.000433481
0.000565171
0.00162358
9.8239e-09
5.87156e-05
0.00157667
-1.7595e-08
4.69431e-05
0.00153808
1.43065e-08
3.85675e-05
0.00150616
-2.28848e-08
3.1957e-05
0.00147905
3.49344e-08
2.70511e-05
0.00145664
-6.17095e-08
2.2516e-05
0.00143671
1.17154e-07
1.97318e-05
0.0014212
-2.29018e-07
1.59314e-05
0.00140566
3.53532e-07
1.51058e-05
0.00139033
1.12884e-06
1.35416e-05
0.00139218
-4.25568e-06
7.96251e-06
0.00135039
1.47856e-05
1.51484e-05
0.00144325
-2.94993e-05
-2.12934e-05
0.00130236
6.15557e-05
4.05927e-05
0.00159446
1.21554e-05
-0.00021753
0.00179308
0.00025686
-0.000276099
0.00173629
0.000315448
-1.5715e-07
0.00154109
0.000334626
0.000126436
0.00145426
0.000339481
2.64586e-05
0.00139622
0.000368926
-6.92469e-06
0.00133817
0.00040243
-1.53975e-05
0.00125222
0.000434949
2.49106e-06
0.00107553
0.000478048
7.81986e-05
0.000701613
0.00053325
0.000252231
0.000587805
0.000547205
0.00162365
-1.44111e-08
5.869e-05
0.00157665
1.44042e-08
4.69734e-05
0.00153814
-1.8596e-08
3.85381e-05
0.0015061
2.73145e-08
3.19924e-05
0.00147917
-3.95364e-08
2.70031e-05
0.00145644
7.32101e-08
2.25921e-05
0.00143708
-1.16813e-07
1.9598e-05
0.00142037
2.4782e-07
1.62301e-05
0.00140621
-2.58456e-07
1.47723e-05
0.00139591
-8.98404e-07
1.23247e-05
0.00137179
4.70534e-06
1.51152e-05
0.00140014
-9.98112e-06
-3.57665e-06
0.00130639
3.99419e-05
2.41858e-05
0.00145915
-3.24375e-05
-5.87423e-05
0.00146388
8.27265e-05
-7.56274e-05
0.00175751
0.000258934
-0.000296454
0.00172795
0.000363375
-1.91301e-05
0.00156339
0.000380463
0.000118458
0.00147946
0.000396618
2.65789e-05
0.00141668
0.000431764
-2.76229e-07
0.00136179
0.000473848
-1.67433e-05
0.00127508
0.000517994
3.43606e-06
0.00109528
0.00058085
7.67976e-05
0.000719139
0.000669277
0.000239922
0.000784695
0.000522172
0.00162359
-9.13005e-09
5.87178e-05
0.00157667
-3.81012e-09
4.69405e-05
0.00153808
-5.64282e-10
3.85717e-05
0.00150615
4.32921e-09
3.19497e-05
0.00147905
5.13597e-10
2.70607e-05
0.00145661
8.91573e-09
2.25026e-05
0.00143674
5.35668e-10
1.97483e-05
0.00142105
1.15441e-08
1.59265e-05
0.0014056
4.88463e-08
1.51525e-05
0.00139098
7.434e-08
1.36328e-05
0.00138721
9.37584e-08
8.37422e-06
0.00135963
2.37435e-06
1.51533e-05
0.00141601
2.48216e-06
-1.89125e-05
0.001319
2.41894e-05
4.01941e-05
0.00154358
5.75801e-05
-0.000199771
0.00175812
0.000318561
-0.000274964
0.00175083
0.000421282
-5.13557e-05
0.00156994
0.000442369
0.000118605
0.00148553
0.000453458
2.73104e-05
0.00142735
0.00049176
-2.04411e-06
0.00137747
0.000540434
-1.69322e-05
0.00129312
0.000596511
5.59838e-06
0.00111696
0.000683017
7.37818e-05
0.000746542
0.000818536
0.000220956
0.00104572
0.000485428
0.0016236
-2.80157e-08
5.87251e-05
0.00157663
3.23996e-08
4.69322e-05
0.00153807
-1.39671e-08
3.85762e-05
0.00150613
5.75629e-09
3.19431e-05
0.00147905
1.18639e-08
2.70675e-05
0.0014566
-3.25091e-08
2.24937e-05
0.00143677
6.55232e-08
1.97626e-05
0.00142097
-1.00097e-07
1.59107e-05
0.00140562
2.01778e-07
1.51802e-05
0.00139128
7.28341e-07
1.36982e-05
0.00138094
1.37875e-06
9.035e-06
0.0013662
2.54283e-06
1.45195e-05
0.00137416
8.84948e-06
-1.43013e-05
0.00135032
1.41042e-05
3.37225e-05
0.00150158
7.35684e-05
-0.000167442
0.00172253
0.000361036
-0.000263845
0.0017625
0.000459455
-7.89457e-05
0.00158673
0.000506179
0.000111279
0.00150065
0.000510973
2.82463e-05
0.00144703
0.000549388
-4.25229e-06
0.00140029
0.000601654
-1.47182e-05
0.00131968
0.000669154
7.75197e-06
0.00115085
0.000782119
6.94962e-05
0.000800979
0.00097745
0.000190758
0.00142735
0.000419231
0.00162341
5.88132e-05
5.76954e-08
0.00157667
4.68401e-05
-7.4176e-08
0.00153796
3.86435e-05
5.17823e-08
0.00150614
3.18872e-05
-6.56007e-08
0.001479
2.70979e-05
6.19142e-08
0.00145655
2.24929e-05
-8.42591e-08
0.0014368
1.97151e-05
1.1665e-07
0.00142065
1.60375e-05
-1.30143e-07
0.00140609
1.49838e-05
4.39317e-07
0.00139209
1.33602e-05
1.23317e-06
0.00138575
8.85936e-06
-2.4578e-06
0.00136146
1.37086e-05
1.37881e-05
0.00140688
-1.56529e-05
-2.04073e-05
0.00131625
3.44342e-05
6.98042e-05
0.00151985
-0.000172649
4.21552e-05
0.00173061
-0.00026027
0.000409676
0.00175923
-7.60388e-05
0.000506333
0.00160656
9.91664e-05
0.000559256
0.00152587
3.02679e-05
0.000561131
0.00148025
-5.42143e-06
0.000600194
0.00143656
-8.91336e-06
0.000654044
0.00136659
7.28598e-06
0.00073162
0.0012143
5.88789e-05
0.000875284
0.000898124
0.000157831
0.00113555
0.000305746
0.00201963
0.00172978
-3.5925e-10
7.16781e-06
0.00176404
1.04728e-09
1.26515e-05
0.00178823
1.42346e-10
1.44072e-05
0.00180604
1.79293e-09
1.4115e-05
0.00181989
1.1883e-10
1.32225e-05
0.00183054
1.9612e-09
1.18376e-05
0.0018394
3.35133e-10
1.08935e-05
0.00184585
2.9504e-09
9.4896e-06
0.00185194
1.3154e-08
8.95966e-06
0.00185737
4.14032e-08
8.61369e-06
0.00185801
1.19507e-07
7.51518e-06
0.00186752
3.14461e-07
6.78675e-06
0.00184363
9.49326e-07
2.92221e-06
0.00189317
3.21447e-06
-7.06961e-06
0.00176896
1.44884e-05
-0.000139792
0.00154983
0.000106307
-0.000138494
0.0013559
0.000121966
0.000128838
0.00126987
0.000181876
6.02146e-05
0.000993816
0.000256035
6.80366e-05
0.00116249
0.000431476
-0.000654982
0.000824798
0.00030518
4.47973e-05
0.000508919
0.00022505
0.000139288
0.000172571
0.000217714
0.00023632
-0.000124341
0.000279117
0.000324498
0.000156364
0.000386348
0.00172978
9.4496e-10
7.16654e-06
0.00176404
1.68473e-09
1.26531e-05
0.00178822
1.2206e-09
1.44057e-05
0.00180604
2.16775e-09
1.41167e-05
0.00181989
5.37575e-10
1.322e-05
0.00183054
2.22944e-09
1.18412e-05
0.00183941
7.81151e-10
1.08875e-05
0.00184585
9.21218e-09
9.49189e-06
0.00185198
3.3096e-08
8.91162e-06
0.00185726
1.15682e-07
8.70451e-06
0.00185841
2.53271e-07
7.03483e-06
0.00186688
8.53515e-07
7.44445e-06
0.00184457
2.03239e-06
1.37614e-06
0.00189269
7.47123e-06
-7.15276e-06
0.00176464
3.05189e-05
-0.000131482
0.00158956
9.27114e-05
-6.69501e-05
0.00135862
0.000286328
0.000111435
0.00130434
0.000343692
3.55447e-05
0.00119673
0.000386343
1.53467e-05
0.0011937
0.000440104
-3.96434e-06
0.00101134
0.000475053
1.72685e-06
0.000627388
0.000496875
0.00011761
0.000226486
0.000516231
0.000192311
-3.55525e-05
0.000545983
0.000274889
0.00041901
0.000347503
0.00172977
4.55926e-09
7.16731e-06
0.00176404
1.07471e-09
1.26513e-05
0.00178822
3.4395e-09
1.4407e-05
0.00180604
3.77567e-10
1.41146e-05
0.00181989
1.05529e-09
1.32228e-05
0.00183054
1.69041e-09
1.18371e-05
0.00183941
-1.87434e-10
1.08942e-05
0.00184584
1.93825e-08
9.48618e-06
0.00185191
6.67321e-08
8.95407e-06
0.00185723
2.44865e-07
8.59076e-06
0.00185782
4.2152e-07
7.51368e-06
0.00186673
1.81878e-06
6.60591e-06
0.0018427
3.24953e-06
2.79827e-06
0.00189032
1.34346e-05
-8.29521e-06
0.00176022
5.09549e-05
-0.000134232
0.00149336
0.000432693
-0.000366343
0.00131063
0.000422576
9.5179e-05
0.00127788
0.000484678
2.60624e-05
0.00119375
0.000511548
-6.39523e-06
0.00118056
0.000524745
-6.06599e-05
0.000996496
0.00065575
-1.44224e-05
0.00062208
0.000746202
0.000117227
0.000239142
0.000795586
0.000183268
-1.92649e-05
0.000816896
0.000256145
0.000676453
0.000332549
0.00172976
9.47821e-09
7.16425e-06
0.00176404
-5.23116e-09
1.26548e-05
0.00178821
8.78584e-09
1.44038e-05
0.00180604
-7.64452e-09
1.41188e-05
0.00181989
9.77204e-09
1.3219e-05
0.00183055
-1.00145e-08
1.18409e-05
0.00183939
1.6845e-08
1.08895e-05
0.00184581
3.99146e-08
9.48387e-06
0.00185179
2.45644e-07
8.90365e-06
0.00185706
9.24627e-08
8.69003e-06
0.00185627
2.20766e-06
7.11467e-06
0.00186634
3.66386e-07
7.19774e-06
0.00183797
9.25316e-06
1.53713e-06
0.00188568
1.75179e-05
-8.59785e-06
0.00175974
6.29417e-05
-0.000124054
0.00154709
0.000488538
-0.000110827
0.00131999
0.000590823
8.8538e-05
0.00125802
0.000647539
2.78162e-05
0.0010673
0.000720805
7.82822e-06
0.00111067
0.000931439
-0.000480851
0.000909885
0.000870138
-2.59595e-05
0.000587615
0.000956051
0.000111012
0.000236101
0.00104908
0.000175124
-7.40679e-06
0.00108443
0.000239832
0.000927869
0.000322291
0.00172974
-3.41242e-09
7.16035e-06
0.00176405
6.32654e-09
1.26592e-05
0.0017882
-4.1973e-09
1.43991e-05
0.00180605
7.43722e-09
1.41249e-05
0.00181987
-8.97829e-09
1.32133e-05
0.00183058
1.3437e-08
1.1843e-05
0.00183936
-1.78616e-08
1.08892e-05
0.00184612
1.22077e-08
9.43102e-06
0.00185265
-7.59296e-08
8.77223e-06
0.0018555
5.40757e-07
9.1128e-06
0.00186932
-9.09423e-07
4.70196e-06
0.00184908
4.59318e-06
1.17501e-05
0.00188972
2.03985e-06
-8.68737e-06
0.00181223
2.70014e-05
6.5933e-06
0.0017721
0.000129781
-0.000115737
0.00151642
0.000560223
-0.000111321
0.00131655
0.000729014
8.40381e-05
0.0012649
0.00079799
2.66379e-05
0.00113071
0.00088615
-3.91958e-06
0.00112199
0.00100637
-7.42284e-05
0.000924502
0.00109324
-3.81931e-05
0.000597256
0.00119068
9.43465e-05
0.000258355
0.00130582
0.000160385
2.25217e-05
0.00135485
0.000224658
0.0012045
0.000310515
0.00172975
4.17319e-09
7.16118e-06
0.00176405
-7.35436e-09
1.26583e-05
0.00178821
6.07172e-09
1.44005e-05
0.00180606
-1.07411e-08
1.41225e-05
0.00181987
1.41539e-08
1.3217e-05
0.00183058
-1.88619e-08
1.18408e-05
0.00183937
3.39905e-08
1.0892e-05
0.00184583
1.17073e-08
9.46434e-06
0.00185175
2.31562e-07
8.88051e-06
0.00185698
1.4938e-07
8.68468e-06
0.00185433
2.51859e-06
7.19114e-06
0.00186619
8.40054e-07
6.9528e-06
0.00183232
1.28865e-05
1.65671e-06
0.0018815
2.83645e-05
-9.98152e-06
0.00177491
0.00012131
-0.000103525
0.00154169
0.000758522
-0.000243135
0.00131657
0.000873243
7.98446e-05
0.00127744
0.00094101
2.19589e-05
0.00115284
0.00104813
-1.13895e-05
0.001119
0.00121001
-0.000177233
0.000934636
0.00130757
-4.58507e-05
0.000627044
0.00142258
7.7703e-05
0.000303034
0.00156055
0.000146999
6.73403e-05
0.00163178
0.000210475
0.00152316
0.000295347
0.00172975
-8.70693e-09
7.15993e-06
0.00176405
5.69174e-09
1.266e-05
0.00178821
-1.06443e-08
1.43984e-05
0.00180605
1.23241e-08
1.41251e-05
0.00181987
-1.6616e-08
1.32147e-05
0.00183058
2.62179e-08
1.1838e-05
0.00183934
-2.78376e-08
1.08991e-05
0.00184613
3.96981e-08
9.41685e-06
0.00185232
-3.55523e-08
8.85078e-06
0.00185515
5.93278e-07
9.02853e-06
0.00186824
-6.26994e-07
5.18292e-06
0.00184908
5.2981e-06
1.10207e-05
0.00188819
5.37057e-06
-7.47211e-06
0.00181404
3.72733e-05
6.5296e-06
0.00179192
0.000170389
-0.000103647
0.00155702
0.000808994
-0.000114103
0.00133341
0.0010029
7.38785e-05
0.00130013
0.00107048
2.16256e-05
0.00119912
0.00119175
-1.65967e-05
0.00113231
0.0013649
-8.89268e-05
0.000963976
0.00150621
-4.75732e-05
0.000681503
0.00164556
6.2391e-05
0.00037398
0.00181077
0.000133574
0.000128104
0.00191963
0.000197429
0.00189567
0.000277201
0.00172976
-6.85797e-09
7.16273e-06
0.00176405
1.66329e-10
1.26563e-05
0.00178821
-3.49006e-09
1.44035e-05
0.00180605
2.49455e-09
1.41173e-05
0.00181987
6.74637e-10
1.3225e-05
0.00183057
1.82972e-09
1.18291e-05
0.00183937
1.11783e-08
1.09069e-05
0.00184589
6.84272e-09
9.44237e-06
0.001852
1.04135e-07
8.90187e-06
0.00185721
3.81354e-07
8.61719e-06
0.00185583
1.57491e-06
7.53721e-06
0.00186693
2.70289e-06
6.58063e-06
0.0018372
1.41406e-05
1.91484e-06
0.00189136
3.03236e-05
-7.16727e-06
0.00178504
0.000171098
-9.52977e-05
0.0016132
0.000959028
-0.000255339
0.0013586
0.00113813
6.71742e-05
0.0013294
0.00119601
2.16393e-05
0.00124099
0.00132374
-1.68283e-05
0.00116454
0.00151114
-7.23952e-05
0.00100794
0.00168609
-4.07785e-05
0.000759522
0.00185181
4.7226e-05
0.000472362
0.00205224
0.000118987
0.000210868
0.00221876
0.000182791
0.00234114
0.000250281
0.00172977
-6.96969e-09
7.16376e-06
0.00176403
9.29954e-09
1.26559e-05
0.00178821
-6.03316e-09
1.44027e-05
0.00180603
6.24693e-09
1.41171e-05
0.00181988
-1.90727e-09
1.32233e-05
0.00183054
-6.32331e-10
1.18317e-05
0.0018394
1.48093e-08
1.09019e-05
0.00184585
8.18362e-09
9.45763e-06
0.00185206
1.88707e-07
8.88505e-06
0.00185688
5.21696e-07
8.71997e-06
0.00185857
2.01361e-06
6.90321e-06
0.00186399
3.64018e-06
8.09413e-06
0.00185079
1.54571e-05
-2.51401e-06
0.00187383
3.4977e-05
5.8203e-06
0.00180216
0.000177584
-0.000103274
0.00166504
0.00101615
-0.00018603
0.00140098
0.00126454
5.76752e-05
0.00136282
0.00132361
2.11329e-05
0.00128682
0.00144313
-1.57299e-05
0.00121292
0.00163639
-5.6162e-05
0.00107622
0.00184129
-3.37536e-05
0.000871944
0.00202837
3.49287e-05
0.000627525
0.00226753
9.8043e-05
0.000350128
0.00252631
0.000160054
0.00289612
0.000213632
0.00172982
7.1643e-06
2.61611e-08
0.00176402
1.26588e-05
-1.586e-08
0.00178825
1.43986e-05
1.08684e-08
0.00180602
1.41251e-05
-3.69841e-09
0.00181992
1.32094e-05
-1.31719e-08
0.00183054
1.18464e-05
3.32398e-08
0.00183945
1.08895e-05
-7.79348e-08
0.00184586
9.45647e-06
1.84578e-07
0.0018523
8.95475e-06
-2.22213e-07
0.00185533
8.68151e-06
2.16359e-06
0.00186222
6.95751e-06
-3.00996e-06
0.0018535
7.91475e-06
1.80901e-05
0.00187112
-2.30077e-06
-1.55926e-05
0.00184222
1.03443e-05
8.77422e-05
0.00181685
-0.000101334
0.000130618
0.00169122
-0.000209437
0.0010885
0.00144157
4.26852e-05
0.00139441
0.00140062
1.93048e-05
0.00144376
0.0013391
-1.46955e-05
0.00154912
0.0012709
-4.28366e-05
0.00174139
0.00118137
-3.05483e-05
0.00195181
0.00101667
2.79768e-05
0.00217181
0.000810632
8.06957e-05
0.00245123
0.000598562
0.000120409
0.00277518
0.000153248
0.0036466
0.00169386
5.36185e-10
-7.16519e-06
0.00171917
2.8115e-10
-1.26528e-05
0.00174798
5.27586e-10
-1.44041e-05
0.00177621
5.10046e-10
-1.41165e-05
0.00180265
-2.63216e-10
-1.32206e-05
0.00182633
2.11883e-09
-1.18378e-05
0.00184812
-2.63368e-09
-1.08932e-05
0.00186708
9.76539e-09
-9.48887e-06
0.001885
-4.43234e-09
-8.95245e-06
0.00190213
1.07238e-07
-8.63853e-06
0.00191728
-9.36041e-08
-7.53395e-06
0.00193012
6.96867e-07
-6.83904e-06
0.00193613
3.0406e-08
-3.17147e-06
0.00191968
2.75552e-06
6.45162e-06
0.00164909
1.07539e-05
0.00011888
0.00117104
0.000239321
9.66563e-05
0.00117663
0.00024599
-0.000123714
0.00100495
0.000278551
-4.72967e-05
0.000831595
0.000269215
-2.83852e-05
-5.4079e-05
0.000251813
-2.17045e-05
-0.000297407
0.000319249
-3.17199e-05
-0.000449337
0.000418577
-0.000127961
-0.000458979
0.000454552
-0.000209185
-0.000328146
0.000506656
-0.000313571
0.000457885
-0.000400332
0.00169386
1.74712e-10
-7.16168e-06
0.00171917
5.79494e-10
-1.26568e-05
0.00174798
6.33231e-10
-1.43998e-05
0.00177621
9.26784e-10
-1.41226e-05
0.00180265
1.00999e-09
-1.3215e-05
0.00182633
-1.06964e-09
-1.18404e-05
0.0018481
4.45211e-09
-1.08914e-05
0.00186705
-3.94505e-09
-9.44237e-06
0.00188473
4.24184e-08
-8.80984e-06
0.0019026
1.90087e-08
-9.097e-06
0.00191414
4.63202e-07
-5.05616e-06
0.00193339
3.27254e-07
-1.15215e-05
0.00192469
2.89836e-06
7.14964e-06
0.00192109
7.3336e-06
-8.29139e-06
0.00165011
4.30932e-05
0.000105965
0.00113023
0.0003093
0.000379328
0.0011627
0.000424159
-0.000100235
0.00100972
0.000509416
-4.30258e-05
0.000810809
0.000532881
-5.00034e-05
-8.99515e-05
0.000504898
0.000643106
-0.000410733
0.000658102
-1.69417e-05
-0.000506138
0.000739805
-0.000108838
-0.000483571
0.000812621
-0.000188932
-0.000312798
0.000878994
-0.000268817
0.000830021
-0.00033808
0.00169386
9.63926e-10
-7.16299e-06
0.00171917
5.7119e-10
-1.26549e-05
0.00174798
7.63922e-10
-1.44022e-05
0.00177621
8.25033e-10
-1.41192e-05
0.00180265
-8.31418e-10
-1.32196e-05
0.00182633
2.38351e-09
-1.1838e-05
0.00184812
-2.00087e-09
-1.08947e-05
0.00186707
1.46578e-08
-9.48103e-06
0.00188498
2.81481e-08
-8.94239e-06
0.00190199
2.21215e-07
-8.63114e-06
0.00191732
2.2822e-07
-7.58205e-06
0.00192923
1.61947e-06
-6.68584e-06
0.00193557
2.70985e-06
-3.41134e-06
0.00191505
1.22054e-05
7.18346e-06
0.00165526
5.82943e-05
0.000109148
0.00113772
0.000411492
4.56226e-05
0.00114531
0.000606084
-9.53992e-05
0.000992507
0.000722209
-3.46823e-05
0.000769234
0.000776586
-2.74964e-05
-6.03777e-05
0.000826073
0.000447153
-0.000405218
0.000975084
1.289e-05
-0.00049012
0.00104946
-0.000108061
-0.000462491
0.00114808
-0.000180401
-0.000308868
0.00122524
-0.000244337
0.00116009
-0.000307041
0.00169386
7.42813e-10
-7.15935e-06
0.00171917
1.46717e-10
-1.26592e-05
0.00174797
3.15268e-10
-1.43979e-05
0.00177622
3.32981e-10
-1.41253e-05
0.00180265
-1.2603e-09
-1.32141e-05
0.00182633
2.58437e-09
-1.18407e-05
0.00184811
-1.49139e-09
-1.0893e-05
0.00186703
1.94661e-08
-9.43467e-06
0.00188471
4.95899e-08
-8.80031e-06
0.00190234
3.03901e-07
-9.0332e-06
0.00191433
4.30994e-07
-5.0764e-06
0.00193191
2.29582e-06
-1.11491e-05
0.00192435
4.59645e-06
7.15324e-06
0.00191624
1.91215e-05
-7.57927e-06
0.001647
9.67685e-05
0.000105468
0.00115523
0.000676814
0.000112302
0.00112636
0.000810641
-8.82052e-05
0.000982807
0.000925332
-3.25113e-05
0.000760723
0.00101199
-6.18016e-06
-2.34398e-05
0.00107138
5.73473e-05
-0.000353955
0.00124899
3.00891e-05
-0.000434862
0.00135094
-0.000110201
-0.000419709
0.00147976
-0.000172288
-0.000290062
0.00156317
-0.00022838
0.00148966
-0.000297998
0.00169385
-9.87924e-10
-7.15724e-06
0.00171917
-1.14431e-10
-1.26626e-05
0.00174797
-7.66997e-10
-1.43954e-05
0.00177622
-3.61615e-11
-1.41292e-05
0.00180265
2.64423e-10
-1.32104e-05
0.00182634
-5.69027e-10
-1.18448e-05
0.00184811
6.17418e-09
-1.08883e-05
0.00186698
9.15575e-09
-9.43094e-06
0.00188446
9.22279e-08
-8.75432e-06
0.00190268
2.66716e-07
-9.08338e-06
0.00191149
9.91269e-07
-4.6642e-06
0.00193468
2.45186e-06
-1.16847e-05
0.00191378
8.20301e-06
8.54385e-06
0.00191848
2.86608e-05
-7.81757e-06
0.00165658
0.0001475
9.4172e-05
0.00114841
0.000855132
0.000215132
0.00112492
0.000998133
-8.1028e-05
0.000983954
0.00112174
-2.95536e-05
0.000750755
0.00124126
-6.74308e-07
0.000104091
0.00136473
0.000278397
-0.000252592
0.00153164
3.52498e-05
-0.000360587
0.00165137
-9.8722e-05
-0.000363327
0.00180179
-0.00015964
-0.000258416
0.00189933
-0.000217042
0.00183401
-0.000292921
0.00169385
-2.44594e-09
-7.15946e-06
0.00171917
1.17497e-10
-1.26597e-05
0.00174797
-2.12869e-09
-1.4398e-05
0.00177622
2.6045e-10
-1.41254e-05
0.00180265
-4.11667e-11
-1.32139e-05
0.00182633
1.08569e-09
-1.18397e-05
0.00184812
5.38353e-09
-1.08964e-05
0.00186699
1.99847e-08
-9.41928e-06
0.0018847
8.90069e-08
-8.82416e-06
0.00190219
4.46461e-07
-9.0006e-06
0.00191458
9.66031e-07
-5.16812e-06
0.00193102
3.79933e-06
-1.09321e-05
0.00192418
9.49465e-06
7.14378e-06
0.00191196
3.75129e-05
-6.78885e-06
0.0016687
0.000184008
0.000101978
0.00115538
0.00101731
0.000104635
0.00113246
0.00117796
-7.81153e-05
0.000996757
0.00130528
-2.66346e-05
0.000763929
0.00145212
9.87026e-06
0.000224646
0.00163601
9.00455e-05
-0.000129745
0.00179841
4.11665e-05
-0.000263991
0.00194507
-8.24854e-05
-0.000289188
0.00212001
-0.000146515
-0.00021051
0.00223558
-0.000205101
0.00220042
-0.000282248
0.00169386
-3.32631e-09
-7.1633e-06
0.00171917
2.17714e-10
-1.26548e-05
0.00174797
-2.434e-09
-1.44038e-05
0.00177621
9.71351e-10
-1.41166e-05
0.00180265
5.43535e-10
-1.32222e-05
0.00182632
1.09311e-09
-1.18362e-05
0.00184811
9.47157e-09
-1.08935e-05
0.001867
1.91342e-08
-9.47036e-06
0.00188469
1.30274e-07
-8.88438e-06
0.00190236
4.62362e-07
-8.66828e-06
0.00191422
1.38848e-06
-7.10505e-06
0.00193194
4.03797e-06
-7.01833e-06
0.00192296
1.21705e-05
-1.24361e-06
0.0019134
4.36707e-05
9.74828e-06
0.00168022
0.0002149
9.74272e-05
0.00117082
0.00117375
0.000235395
0.00114579
0.00135173
-7.60197e-05
0.00101773
0.00147754
-2.33144e-05
0.000792331
0.00164631
1.39375e-05
0.000370017
0.00188227
8.63623e-05
5.40886e-06
0.00207189
4.30024e-05
-0.000147214
0.00222582
-6.61988e-05
-0.00018632
0.00242494
-0.000133032
-0.00014079
0.00257923
-0.000192451
0.00260336
-0.000267223
0.00169386
-3.6276e-09
-7.16559e-06
0.00171917
2.27561e-09
-1.2652e-05
0.00174798
-1.86791e-09
-1.44073e-05
0.0017762
2.41232e-09
-1.41114e-05
0.00180266
1.93133e-09
-1.32289e-05
0.00182631
1.11948e-09
-1.1827e-05
0.00184812
1.19397e-08
-1.09059e-05
0.00186701
2.40591e-08
-9.45333e-06
0.00188485
1.1564e-07
-8.91849e-06
0.00190184
6.70414e-07
-8.59936e-06
0.00191702
1.15811e-06
-7.40415e-06
0.00192896
5.36515e-06
-6.78115e-06
0.00193208
1.19605e-05
-1.05824e-06
0.00191445
4.86098e-05
5.37524e-06
0.00169848
0.00022958
0.000104758
0.00119096
0.00129874
0.000124001
0.00116403
0.00151484
-7.01155e-05
0.00104844
0.00163815
-2.42342e-05
0.000839392
0.00182327
1.45506e-05
0.000486719
0.00209219
6.96441e-05
0.00016301
0.00231654
3.75863e-05
-4.15975e-07
0.00248579
-4.9931e-05
-5.80542e-05
0.00271948
-0.000118402
-3.95442e-05
0.0029208
-0.000177944
0.00305625
-0.000242888
0.00169386
-1.28609e-09
-7.16483e-06
0.00171916
6.99082e-09
-1.26542e-05
0.00174797
-6.59073e-09
-1.44038e-05
0.00177619
1.30672e-08
-1.41148e-05
0.00180266
-1.31532e-08
-1.32241e-05
0.0018263
1.87381e-08
-1.18308e-05
0.00184811
1.62601e-09
-1.09014e-05
0.00186704
2.18922e-08
-9.46135e-06
0.00188461
3.17837e-07
-8.89196e-06
0.00190222
4.82441e-07
-8.7195e-06
0.00191494
2.26897e-06
-6.92425e-06
0.00193281
3.5842e-06
-8.08219e-06
0.00192183
1.79436e-05
2.41704e-06
0.00193649
4.54199e-05
-5.86537e-06
0.00172659
0.000231305
0.000103854
0.00122411
0.00137445
0.000237133
0.00118942
0.00166561
-5.96082e-05
0.00108138
0.00178915
-2.26031e-05
0.000897432
0.00197638
1.44216e-05
0.000611832
0.00226637
5.44608e-05
0.000332944
0.00252926
3.18385e-05
0.00017412
0.0027161
-3.71251e-05
0.000108702
0.00297975
-9.76068e-05
0.000104948
0.00323896
-0.00015512
0.0035825
-0.000208424
0.00169385
-7.16381e-06
9.48743e-09
0.00171917
-1.26582e-05
2.85215e-09
0.00174797
-1.43979e-05
-9.70317e-09
0.0017762
-1.41243e-05
3.15155e-08
0.00180267
-1.32094e-05
-6.30602e-08
0.00182626
-1.18461e-05
1.18865e-07
0.00184824
-1.08895e-05
-1.97213e-07
0.00186675
-9.45752e-06
4.22711e-07
0.00188536
-8.95307e-06
-3.84645e-07
0.00190121
-8.68422e-06
1.9819e-06
0.0019208
-6.96304e-06
-3.39933e-06
0.00192179
-7.94193e-06
1.83598e-05
0.00194866
2.22952e-06
-1.35536e-05
0.00193493
-1.04977e-05
8.00055e-05
0.00177983
0.000100746
0.000183059
0.00128492
0.000209064
0.00144765
0.00120767
-4.2787e-05
0.00182693
0.00111849
-1.95234e-05
0.00191642
0.000960722
1.37441e-05
0.00210509
0.000737124
4.16523e-05
0.00240478
0.000518002
2.91208e-05
0.00268788
0.000385457
-2.93551e-05
0.00290524
0.000338819
-8.05436e-05
0.00318688
0.000325786
-0.000116712
0.00348831
-0.000149601
0.00421027
0.00172976
9.82881e-09
-5.87319e-05
0.00176404
-7.52371e-09
-4.69246e-05
0.00178821
9.24148e-09
-3.85827e-05
0.00180604
-9.94073e-09
-3.19394e-05
0.00181988
1.13677e-08
-2.70676e-05
0.00183055
-1.30388e-08
-2.24999e-05
0.00183939
1.76795e-08
-1.97456e-05
0.00184581
2.4963e-08
-1.59343e-05
0.00185171
1.96208e-07
-1.50519e-05
0.00185704
-1.11786e-07
-1.38656e-05
0.00185578
1.74967e-06
-8.0231e-06
0.00186616
-1.11585e-06
-1.61852e-05
0.00183663
5.05788e-06
2.12514e-05
0.00188472
2.72184e-06
-4.44509e-05
0.0017555
-8.8169e-06
0.000255989
0.00159818
-4.84291e-06
0.000255633
0.00137093
0.000163053
-6.02484e-05
0.00130701
0.000162579
-0.000146243
0.00123152
9.38939e-05
-4.70264e-05
0.00125796
-2.75852e-05
-2.08487e-05
0.00113094
9.70392e-05
-2.11096e-06
0.00080744
0.000209863
-1.47765e-05
0.000414607
0.000276123
-9.29054e-05
7.01551e-05
0.000316407
-0.000285939
0.000320749
-0.000651357
0.00172974
-4.66063e-09
-5.86788e-05
0.00176405
9.30692e-09
-4.69846e-05
0.0017882
-5.19465e-09
-3.85301e-05
0.00180605
1.01825e-08
-3.1997e-05
0.00181986
-1.04062e-08
-2.70044e-05
0.00183058
1.31187e-08
-2.25807e-05
0.00183935
-1.95774e-08
-1.96331e-05
0.00184612
-9.71469e-09
-1.61765e-05
0.00185264
-1.41402e-07
-1.49918e-05
0.00185545
3.24439e-07
-1.23551e-05
0.00186911
-1.38346e-06
-1.5583e-05
0.0018491
2.75142e-06
4.54299e-06
0.00188953
-2.25743e-06
-2.60145e-05
0.00181666
8.73489e-06
5.8417e-05
0.00176655
5.408e-05
9.22472e-05
0.00144825
0.000361981
0.000328384
0.0012924
0.000295536
-7.78283e-05
0.00121317
0.000332367
-0.000134161
0.000934095
0.000360442
-3.79623e-05
0.00108279
0.000417438
4.88788e-05
0.000786377
0.000389192
-1.31965e-05
0.000517069
0.000410106
-4.02854e-05
0.000195915
0.000505676
-9.77874e-05
-6.27708e-05
0.000593633
-0.000287781
0.00054204
-0.000622578
0.00172975
8.85238e-09
-5.87221e-05
0.00176405
-6.23288e-09
-4.69348e-05
0.00178821
8.12366e-09
-3.85741e-05
0.00180606
-8.48569e-09
-3.19495e-05
0.00181987
9.05895e-09
-2.7058e-05
0.00183057
-1.14067e-08
-2.25102e-05
0.00183938
1.47253e-08
-1.97361e-05
0.0018458
2.58548e-08
-1.59366e-05
0.00185158
1.9756e-07
-1.50622e-05
0.00185699
-5.27438e-08
-1.36794e-05
0.00185401
1.86359e-06
-7.84922e-06
0.00186614
-6.06422e-07
-1.55332e-05
0.00183069
6.81529e-06
2.2905e-05
0.00187759
1.03342e-05
-4.13482e-05
0.00175223
3.36835e-05
0.000253841
0.00153885
0.000359713
0.000259227
0.00131668
0.000467149
-4.57881e-05
0.00122191
0.000517904
-0.00012608
0.000988294
0.000588947
-2.29267e-05
0.00107184
0.000729696
5.08017e-05
0.00080016
0.000668536
4.68961e-06
0.000463432
0.00066167
-2.34357e-05
0.000122328
0.000755495
-8.9583e-05
-9.70198e-05
0.0008459
-0.0002777
0.000734727
-0.000597182
0.00172973
1.55737e-09
-5.86741e-05
0.00176406
-1.41167e-10
-4.69897e-05
0.00178819
4.2259e-10
-3.85265e-05
0.00180606
-1.32837e-09
-3.20023e-05
0.00181986
-8.16606e-10
-2.70015e-05
0.00183059
4.71068e-10
-2.25844e-05
0.00183935
-1.96103e-09
-1.96378e-05
0.0018461
1.93729e-08
-1.61722e-05
0.00185252
5.27624e-08
-1.5075e-05
0.00185566
2.59711e-07
-1.25052e-05
0.00186796
4.52398e-07
-1.59626e-05
0.00185071
2.01232e-06
3.39759e-06
0.00188684
4.4798e-06
-2.6707e-05
0.00181092
1.80406e-05
6.06413e-05
0.00177367