/*--------------------------------*- C++ -*----------------------------------*\
  =========                 |
  \\      /  F ield         | OpenFOAM: The Open Source CFD Toolbox
   \\    /   O peration     | Website:  https://openfoam.org
    \\  /    A nd           | Version:  6
     \\/     M anipulation  |
\*---------------------------------------------------------------------------*/
FoamFile
{
    version     2.0;
    format      ascii;
    class       volScalarField;
    location    "5";
    object      T;
}
// * * * * * * * * * * * * * * * * * * * * * * * * * * * * * * * * * * * * * //

dimensions      [0 0 0 1 0 0 0];

internalField   nonuniform List<scalar> 
26250
(
0.980116
0.967383
0.955874
0.946596
0.937813
0.931015
0.924378
0.920592
0.919991
0.927843
0.94367
1.01181
1.13897
1.606
2.52674
2.70901
2.66758
2.63338
2.59342
2.60608
2.61286
2.63246
2.66942
2.72212
2.71768
0.980121
0.967377
0.955879
0.946591
0.937818
0.93101
0.924382
0.920576
0.919978
0.927771
0.943502
1.01138
1.13798
1.60378
2.52411
2.70638
2.6657
2.62907
2.59212
2.59217
2.60417
2.63072
2.66249
2.71967
2.71127
0.980131
0.967367
0.955887
0.946585
0.937824
0.931001
0.924386
0.920533
0.919938
0.927628
0.943108
1.01067
1.13564
1.60179
2.52284
2.71419
2.67643
2.63539
2.60085
2.60031
2.61358
2.64103
2.67412
2.72898
2.71927
0.98026
0.967252
0.955987
0.946519
0.937868
0.930955
0.924431
0.920402
0.919869
0.927282
0.940662
1.00943
1.1304
1.59747
2.51403
2.7042
2.66502
2.63002
2.59645
2.60348
2.61645
2.64423
2.67774
2.73524
2.73616
0.980787
0.966703
0.956567
0.945891
0.938528
0.930273
0.925134
0.919795
0.922124
0.922105
0.947329
0.986938
1.15831
1.59914
2.37663
2.6766
2.63692
2.60738
2.57724
2.58101
2.59653
2.62819
2.66475
2.72579
2.73416
0.980337
0.96716
0.956105
0.946369
0.938043
0.930785
0.924554
0.920214
0.919759
0.926454
0.936932
1.00524
1.11676
1.57781
2.47141
2.68034
2.63987
2.60696
2.57336
2.5749
2.58927
2.61859
2.65509
2.71649
2.72883
0.980698
0.966791
0.956481
0.945977
0.938445
0.93035
0.925036
0.91971
0.921246
0.921317
0.945199
0.981791
1.1463
1.54975
2.32276
2.64604
2.6154
2.59058
2.56061
2.56117
2.57616
2.60572
2.64217
2.70582
2.72311
0.980366
0.967131
0.956132
0.946338
0.938069
0.930751
0.924574
0.920112
0.919667
0.925639
0.936471
0.998966
1.10117
1.54316
2.41894
2.64313
2.62293
2.5866
2.55172
2.55101
2.56403
2.59101
2.62486
2.68896
2.70792
0.980362
0.967129
0.956126
0.946338
0.938064
0.930751
0.924569
0.920083
0.919653
0.925061
0.93669
0.99431
1.09314
1.5083
2.36888
2.61242
2.60834
2.57768
2.54274
2.53938
2.54984
2.5721
2.60027
2.66195
2.67377
0.97918
0.968331
0.954917
0.947571
0.936846
0.931989
0.923358
0.921282
0.918417
0.923919
0.933049
0.989796
1.07741
1.49683
2.33903
2.59153
2.58943
2.56497
2.53409
2.52834
2.53686
2.5501
2.56717
2.60539
2.58489
1.01423
1.02101
1.02632
1.02895
1.03185
1.03303
1.03515
1.03695
1.04483
1.05716
1.09468
1.18617
1.4009
2.00666
2.82444
2.72125
2.79932
2.76043
2.75925
2.76618
2.77228
2.78655
2.8215
2.82898
2.76036
1.01423
1.02101
1.02631
1.02895
1.03185
1.03303
1.03515
1.03695
1.04479
1.05711
1.09451
1.18585
1.40005
2.00108
2.82466
2.72109
2.79541
2.75506
2.74849
2.75793
2.7695
2.77937
2.807
2.83438
2.76667
1.01423
1.02101
1.02631
1.02896
1.03185
1.03303
1.03514
1.03693
1.04472
1.05694
1.09416
1.18473
1.3979
1.9966
2.82413
2.70739
2.79613
2.75467
2.74603
2.75453
2.76926
2.7767
2.79687
2.83209
2.76879
1.01423
1.02101
1.02632
1.02896
1.03185
1.03303
1.03513
1.03689
1.0446
1.05665
1.09367
1.18283
1.39493
1.98629
2.82036
2.71967
2.79242
2.74885
2.74544
2.75232
2.76665
2.77288
2.78855
2.82653
2.76834
1.0142
1.02106
1.02628
1.02901
1.03181
1.03308
1.03505
1.03679
1.04371
1.05718
1.08827
1.18863
1.38211
1.97723
2.8194
2.7259
2.7921
2.74519
2.74024
2.74526
2.75697
2.76433
2.77738
2.81445
2.76515
1.01423
1.02102
1.02631
1.02896
1.03185
1.03304
1.0351
1.03678
1.0442
1.05573
1.09184
1.17643
1.38286
1.93997
2.81066
2.72409
2.78632
2.73757
2.73344
2.73755
2.74623
2.75153
2.7635
2.80054
2.75729
1.01419
1.02107
1.02627
1.02902
1.0318
1.03308
1.03502
1.03669
1.04333
1.05604
1.08593
1.1812
1.36549
1.90376
2.81014
2.72876
2.78087
2.72614
2.72316
2.72773
2.73525
2.73571
2.74302
2.77738
2.73966
1.01422
1.02103
1.02631
1.02897
1.03183
1.03304
1.03506
1.03666
1.04365
1.05445
1.0889
1.16739
1.36152
1.85758
2.79202
2.72729
2.76341
2.71872
2.70972
2.71221
2.7195
2.71988
2.71879
2.74919
2.71409
1.01422
1.02102
1.0263
1.02897
1.03183
1.03304
1.03505
1.0366
1.04341
1.05376
1.08658
1.1651
1.34408
1.8358
2.781
2.72914
2.73425
2.70579
2.70092
2.69774
2.69683
2.69454
2.69083
2.70492
2.65407
1.01411
1.02109
1.02623
1.02901
1.03178
1.03305
1.035
1.03649
1.04288
1.05292
1.08357
1.16073
1.33005
1.81197
2.7642
2.74304
2.70588
2.67606
2.68108
2.68343
2.67811
2.66755
2.64765
2.65147
2.57237
1.0063
1.01272
1.02146
1.02805
1.03564
1.04067
1.04703
1.05175
1.0622
1.0786
1.12281
1.23014
1.46812
2.14678
2.88186
2.5153
2.78555
2.76276
2.76534
2.72862
2.80838
2.8093
2.80974
2.81064
2.76991
1.00632
1.0127
1.02148
1.02802
1.03566
1.04065
1.04705
1.05172
1.06226
1.07838
1.12308
1.2285
1.46824
2.14977
2.87937
2.51819
2.78403
2.75956
2.76364
2.72909
2.80423
2.8055
2.80453
2.80663
2.76478
1.0063
1.01272
1.02146
1.02805
1.03564
1.04067
1.04702
1.05172
1.06211
1.07842
1.12227
1.22903
1.46512
2.14271
2.87645
2.52807
2.78037
2.75213
2.75843
2.72693
2.79575
2.79918
2.79634
2.79727
2.75711
1.00632
1.0127
1.02148
1.02802
1.03566
1.04065
1.04704
1.05168
1.06207
1.07803
1.12207
1.2263
1.46237
2.14
2.87161
2.54665
2.78437
2.74991
2.75525
2.71691
2.78985
2.79166
2.78585
2.78885
2.74955
1.00635
1.01267
1.02151
1.028
1.03569
1.04062
1.04706
1.05161
1.06198
1.07751
1.12156
1.22268
1.45756
2.12878
2.86579
2.56208
2.78276
2.7452
2.75143
2.71305
2.77473
2.7788
2.77309
2.77056
2.73404
1.00634
1.01268
1.0215
1.02801
1.03567
1.04063
1.04704
1.05157
1.06168
1.07714
1.11991
1.22027
1.44848
2.10337
2.85891
2.58193
2.77845
2.73651
2.74252
2.70428
2.76126
2.76691
2.75563
2.75604
2.7202
1.00636
1.01266
1.02152
1.02798
1.0357
1.0406
1.04705
1.05149
1.06142
1.07641
1.11838
1.21507
1.4377
2.07213
2.84928
2.60471
2.77358
2.72705
2.73421
2.69862
2.73371
2.74602
2.73701
2.72791
2.68953
1.00636
1.01266
1.02152
1.02798
1.0357
1.0406
1.04704
1.05141
1.06102
1.07572
1.11614
1.21028
1.42424
2.02936
2.83605
2.62781
2.76566
2.71341
2.71716
2.68696
2.71257
2.72684
2.70857
2.69873
2.65971
1.00641
1.01261
1.02157
1.02793
1.03574
1.04055
1.04707
1.05129
1.06071
1.07465
1.11439
1.20225
1.41108
1.9873
2.81117
2.65499
2.75454
2.70193
2.70645
2.67343
2.67901
2.6975
2.67751
2.65439
2.5903
1.00635
1.01267
1.0215
1.02799
1.03568
1.0406
1.047
1.05117
1.06008
1.0739
1.11125
1.19852
1.3949
1.90872
2.80192
2.67838
2.74312
2.67964
2.6843
2.66159
2.65552
2.66565
2.63694
2.60049
2.49385
1.01423
1.02101
1.02632
1.02895
1.03186
1.03303
1.03514
1.03694
1.04479
1.05709
1.09464
1.18615
1.40184
2.01622
2.82628
2.71038
2.79681
2.75912
2.74741
2.75705
2.7651
2.78162
2.79505
2.83188
2.78388
1.01421
1.02106
1.02628
1.02901
1.03181
1.03309
1.03506
1.03687
1.04398
1.05797
1.08991
1.19385
1.39399
2.01986
2.83415
2.67806
2.80431
2.76659
2.76445
2.77408
2.77906
2.79463
2.80857
2.83055
2.76879
1.01423
1.02101
1.02632
1.02895
1.03186
1.03303
1.03514
1.0369
1.04469
1.05682
1.09423
1.18443
1.39929
2.01125
2.82215
2.71228
2.79145
2.75206
2.75335
2.76271
2.77022
2.78863
2.8066
2.82507
2.76485
1.01421
1.02105
1.02629
1.02901
1.03181
1.03308
1.03506
1.03683
1.0439
1.05756
1.08924
1.19129
1.38829
2.00774
2.81992
2.72233
2.79442
2.7504
2.74472
2.75468
2.76582
2.77567
2.80058
2.82002
2.76191
1.01421
1.02105
1.02629
1.029
1.03182
1.03308
1.03506
1.03679
1.04383
1.05716
1.08863
1.18886
1.38315
1.98772
2.81676
2.7232
2.79339
2.74666
2.74122
2.74702
2.75922
2.76568
2.78674
2.80935
2.75695
1.0142
1.02106
1.02628
1.02901
1.03181
1.03308
1.03504
1.03674
1.04361
1.05668
1.08746
1.18555
1.37547
1.95291
2.81369
2.72798
2.78957
2.74123
2.73448
2.738
2.74708
2.75255
2.77289
2.79848
2.74907
1.01423
1.02102
1.02631
1.02896
1.03184
1.03303
1.03508
1.03673
1.04396
1.05522
1.09048
1.17246
1.37339
1.8948
2.80212
2.72428
2.7807
2.7289
2.72614
2.73049
2.73589
2.73488
2.74758
2.77594
2.73191
1.01423
1.02102
1.02631
1.02896
1.03184
1.03303
1.03506
1.03665
1.04369
1.05454
1.08872
1.16856
1.35993
1.85706
2.79237
2.72756
2.75651
2.71594
2.70952
2.71333
2.72135
2.72072
2.72267
2.75009
2.70675
1.01422
1.02102
1.0263
1.02897
1.03183
1.03303
1.03505
1.03659
1.04342
1.05377
1.08668
1.16505
1.34437
1.83541
2.78076
2.73074
2.7316
2.70281
2.69976
2.69777
2.69734
2.69361
2.69278
2.70476
2.64805
1.01411
1.02108
1.02623
1.02901
1.03178
1.03305
1.035
1.03649
1.04289
1.05295
1.08363
1.16084
1.3303
1.81197
2.76371
2.74354
2.70564
2.67323
2.67705
2.68292
2.67881
2.66823
2.65066
2.65316
2.5663
0.980183
0.967311
0.955944
0.946528
0.937884
0.930948
0.924429
0.920473
0.919939
0.927648
0.94133
1.01209
1.13609
1.61469
2.54489
2.71824
2.6774
2.63725
2.60044
2.59949
2.60974
2.63808
2.66803
2.72817
2.70547
0.980852
0.966633
0.956637
0.945815
0.938602
0.930202
0.925222
0.919808
0.922593
0.92263
0.948957
0.989912
1.17125
1.63937
2.41479
2.70001
2.66028
2.62296
2.5864
2.60056
2.60737
2.63214
2.66409
2.71931
2.70042
0.980245
0.967251
0.95601
0.946463
0.93795
0.930883
0.924486
0.920388
0.919905
0.927383
0.938954
1.01067
1.12822
1.6126
2.5401
2.71626
2.67375
2.63803
2.60117
2.61378
2.62175
2.64547
2.67951
2.7355
2.72798
0.980853
0.966633
0.956641
0.945816
0.938604
0.930209
0.925218
0.91985
0.92265
0.923117
0.948605
0.992639
1.1652
1.617
2.38372
2.68168
2.64246
2.6114
2.58197
2.58571
2.60008
2.63141
2.66477
2.72716
2.72895
0.980823
0.966666
0.95661
0.94585
0.93857
0.930246
0.925169
0.9199
0.92245
0.923747
0.947828
0.991662
1.15988
1.57759
2.38149
2.68168
2.64137
2.6095
2.57925
2.58296
2.59659
2.62639
2.66064
2.7215
2.73168
0.980777
0.966711
0.956563
0.945895
0.938526
0.930278
0.925126
0.919791
0.921972
0.922495
0.946702
0.98727
1.15384
1.56798
2.35474
2.66281
2.62361
2.59579
2.56462
2.56561
2.57997
2.6096
2.64707
2.70862
2.72875
0.980333
0.967161
0.956093
0.946375
0.938033
0.930782
0.924528
0.920098
0.919552
0.926407
0.938332
1.00283
1.11129
1.55904
2.44508
2.66266
2.62883
2.59595
2.56225
2.55942
2.57484
2.59643
2.6362
2.68944
2.72032
0.980326
0.967167
0.956092
0.94637
0.938029
0.930782
0.924511
0.920034
0.919548
0.925812
0.938548
0.998732
1.1035
1.5337
2.40921
2.64044
2.62459
2.5903
2.55735
2.55426
2.56994
2.58845
2.62733
2.67527
2.7023
0.980377
0.967112
0.95614
0.946319
0.938079
0.930732
0.924573
0.920007
0.919572
0.925133
0.936833
0.994473
1.09324
1.50838
2.36961
2.61009
2.60667
2.576
2.54322
2.54059
2.55586
2.57203
2.60771
2.65561
2.66689
0.979222
0.968282
0.954963
0.947521
0.936896
0.931939
0.92341
0.921233
0.918478
0.923971
0.933217
0.989863
1.07724
1.49685
2.33958
2.59113
2.58871
2.56319
2.5335
2.52759
2.5387
2.55018
2.56982
2.61043
2.58078
0.981069
0.966427
0.956853
0.9456
0.938819
0.929956
0.925351
0.918967
0.919652
0.91962
0.938877
0.968073
1.1076
1.40816
2.11937
2.53585
2.55106
2.53198
2.5108
2.50924
2.5149
2.52661
2.52592
2.51993
2.43011
0.979178
0.968359
0.954905
0.947605
0.936828
0.932002
0.92331
0.921036
0.917234
0.922046
0.929716
0.979407
1.06216
1.41519
2.194
2.49582
2.51928
2.50069
2.47939
2.47406
2.4752
2.4758
2.46857
2.44565
2.35133
0.981098
0.966398
0.956889
0.945562
0.938863
0.929892
0.925363
0.918657
0.918442
0.918157
0.934348
0.95834
1.08067
1.31641
1.97111
2.45265
2.49436
2.48176
2.4668
2.45768
2.45361
2.44548
2.42824
2.39686
2.3189
0.979427
0.968091
0.955172
0.947311
0.937118
0.931672
0.923587
0.920406
0.916359
0.92005
0.927505
0.966784
1.04136
1.31644
1.99732
2.37412
2.44593
2.44319
2.43581
2.426
2.41978
2.41104
2.39092
2.36223
2.30335
0.979592
0.967921
0.955346
0.947129
0.937309
0.93146
0.923785
0.920034
0.915803
0.918903
0.924532
0.958453
1.01547
1.24826
1.8733
2.3077
2.42448
2.42387
2.41487
2.40155
2.38642
2.37129
2.34964
2.31586
2.27126
0.980584
0.966921
0.95637
0.946089
0.93835
0.930393
0.924804
0.91879
0.916187
0.915693
0.924696
0.940624
1.01236
1.14229
1.59566
2.17837
2.37695
2.39031
2.38943
2.37804
2.36303
2.34429
2.32326
2.2864
2.24469
0.980317
0.967199
0.956094
0.946379
0.938069
0.93068
0.924506
0.918932
0.915275
0.914829
0.921223
0.934503
0.986836
1.08283
1.44045
2.09207
2.31616
2.33629
2.34273
2.33257
2.32139
2.30615
2.28983
2.25824
2.22035
0.980159
0.967353
0.955937
0.946534
0.937915
0.93083
0.924351
0.919055
0.915022
0.914776
0.918323
0.929685
0.96738
1.05299
1.32851
1.95287
2.26632
2.31758
2.314
2.30244
2.28614
2.27197
2.25669
2.23278
2.20095
0.981118
0.966374
0.956925
0.945522
0.938917
0.929808
0.925341
0.918026
0.915858
0.913161
0.916187
0.924537
0.955045
1.0278
1.23996
1.83014
2.21139
2.3005
2.2994
2.28346
2.26514
2.24267
2.22385
2.20045
2.17347
0.97992
0.967603
0.955672
0.946818
0.937612
0.931162
0.92396
0.919382
0.913962
0.912451
0.912008
0.921347
0.9383
1.00608
1.13937
1.53753
2.07228
2.25409
2.27241
2.26773
2.25133
2.22729
2.20481
2.17942
2.15016
0.980719
0.966779
0.956499
0.945965
0.938452
0.930299
0.92479
0.91849
0.914604
0.910636
0.912224
0.91547
0.933744
0.972473
1.08042
1.44235
1.89345
2.17421
2.21359
2.22771
2.22061
2.20548
2.18715
2.16619
2.13985
0.980362
0.967137
0.956112
0.946358
0.938063
0.930644
0.924481
0.918768
0.914232
0.910738
0.910512
0.913471
0.922272
0.95546
1.02659
1.25381
1.787
2.11173
2.18696
2.19401
2.18771
2.1751
2.15525
2.13758
2.1177
0.980552
0.96694
0.956354
0.946111
0.938272
0.930494
0.924628
0.918507
0.914516
0.910042
0.909447
0.910134
0.918564
0.938858
1.00004
1.14532
1.55749
1.9934
2.15147
2.16679
2.16505
2.15152
2.13166
2.11084
2.09207
0.9805
0.966993
0.956288
0.946167
0.938253
0.930482
0.924619
0.918567
0.914353
0.909766
0.907977
0.90759
0.913744
0.926249
0.971053
1.05144
1.34705
1.88295
2.09067
2.13387
2.13547
2.12755
2.10884
2.08922
2.06648
0.980213
0.967294
0.955986
0.946485
0.937947
0.930797
0.924315
0.918882
0.914012
0.909938
0.906994
0.906758
0.909965
0.918238
0.948419
1.0061
1.21512
1.69214
2.01995
2.11625
2.12069
2.11446
2.09799
2.07414
2.05214
0.980765
0.966738
0.956552
0.945909
0.938524
0.93021
0.924893
0.918299
0.914566
0.909345
0.907352
0.905622
0.90738
0.913514
0.931254
0.978019
1.09575
1.47656
1.87965
2.07217
2.09789
2.09762
2.08612
2.06528
2.04131
0.980696
0.966793
0.956494
0.945958
0.938481
0.930256
0.924835
0.918383
0.914449
0.909411
0.90692
0.904331
0.905621
0.909009
0.920709
0.953033
1.02758
1.26461
1.6707
1.98243
2.06146
2.07275
2.06952
2.05596
2.0329
0.980491
0.966999
0.95628
0.9462
0.938249
0.930519
0.924602
0.918621
0.914209
0.909622
0.906441
0.903568
0.904015
0.905415
0.912851
0.934079
0.985121
1.1205
1.4556
1.84883
2.00834
2.03358
2.04104
2.03458
2.0205
0.980441
0.967064
0.956215
0.946253
0.938173
0.930571
0.924525
0.918674
0.914153
0.909648
0.906349
0.903163
0.902217
0.902494
0.907264
0.919905
0.955569
1.0287
1.27299
1.72299
1.93632
1.99877
2.00851
2.00728
1.99709
0.980326
0.967175
0.956102
0.94636
0.938066
0.930672
0.924426
0.918766
0.914066
0.909713
0.906249
0.902991
0.901189
0.900996
0.903804
0.912006
0.933402
0.984006
1.13181
1.51278
1.84334
1.97235
1.99063
1.99026
1.98125
0.980531
0.966973
0.956309
0.946154
0.938274
0.930464
0.924632
0.918561
0.914262
0.909514
0.906425
0.902722
0.901054
0.900172
0.901369
0.906596
0.917445
0.955803
1.02829
1.31018
1.65038
1.90292
1.96638
1.9736
1.97031
0.980553
0.966952
0.956334
0.94613
0.938304
0.930435
0.924659
0.918545
0.914259
0.909527
0.906407
0.902643
0.900734
0.898683
0.899399
0.901822
0.909675
0.930268
0.984358
1.11615
1.4299
1.77834
1.92116
1.94645
1.95324
0.980387
0.967122
0.956159
0.946311
0.938116
0.930629
0.924465
0.918737
0.914079
0.909707
0.906197
0.902873
0.900334
0.898217
0.898048
0.898931
0.903266
0.916191
0.948754
1.01883
1.23722
1.63716
1.83644
1.90882
1.91793
0.980347
0.967156
0.956125
0.946346
0.938084
0.930665
0.924436
0.918765
0.914061
0.90972
0.906186
0.902867
0.90028
0.897898
0.896872
0.89694
0.899602
0.907394
0.926544
0.970944
1.09986
1.43209
1.73499
1.87477
1.90215
0.980208
0.967296
0.95598
0.946487
0.937938
0.930805
0.924291
0.918906
0.913921
0.909857
0.906053
0.90299
0.900137
0.897872
0.896146
0.896089
0.897179
0.902128
0.911393
0.944204
1.00473
1.22909
1.53236
1.78857
1.87282
0.980437
0.967068
0.956213
0.946253
0.938172
0.930568
0.924524
0.918669
0.914152
0.909623
0.906277
0.902768
0.90033
0.897642
0.896077
0.894976
0.895501
0.897946
0.902981
0.922754
0.95914
1.06263
1.31929
1.64595
1.81463
0.98039
0.967116
0.956164
0.946302
0.938124
0.930618
0.924476
0.918719
0.914102
0.909676
0.906223
0.902825
0.900263
0.897678
0.895849
0.894201
0.894263
0.894772
0.898483
0.907587
0.934428
0.984484
1.16185
1.5029
1.73422
0.980279
0.967226
0.956051
0.946417
0.938007
0.930736
0.924358
0.918839
0.913985
0.909794
0.906108
0.902939
0.900151
0.897774
0.895707
0.894078
0.893282
0.893587
0.895185
0.901812
0.9128
0.952228
1.0243
1.27694
1.57203
0.980237
0.967286
0.95599
0.946496
0.937931
0.930824
0.924279
0.918923
0.913913
0.909868
0.906045
0.903004
0.900095
0.897824
0.895644
0.893983
0.89267
0.892635
0.893322
0.896586
0.902971
0.924517
0.967443
1.09138
1.35287
0.980426
0.967081
0.956198
0.94627
0.938155
0.930587
0.924506
0.918689
0.914132
0.909644
0.906255
0.902788
0.900298
0.897618
0.89582
0.893773
0.892618
0.891688
0.892059
0.89358
0.897252
0.909663
0.936548
0.998309
1.18017
0.980324
0.967185
0.956095
0.946374
0.938053
0.930689
0.924408
0.918787
0.914037
0.909741
0.906163
0.902878
0.900219
0.897687
0.895757
0.893805
0.89246
0.891199
0.891281
0.891806
0.894068
0.901479
0.916932
0.957293
1.0551
0.980284
0.967227
0.956051
0.94642
0.938005
0.930739
0.924356
0.918842
0.913982
0.909798
0.906103
0.902944
0.900143
0.897773
0.89566
0.893897
0.892334
0.891162
0.890654
0.891012
0.892319
0.898191
0.907296
0.942246
1.00276
0.980307
0.967207
0.956072
0.946399
0.938027
0.930717
0.924376
0.91882
0.914001
0.909774
0.906124
0.902917
0.900164
0.897746
0.895681
0.893863
0.892349
0.891055
0.890374
0.890477
0.891639
0.896325
0.904528
0.932716
0.992275
0.980311
0.967196
0.956083
0.946382
0.938039
0.930699
0.92439
0.918803
0.914022
0.909762
0.90615
0.902908
0.900196
0.897734
0.895715
0.893846
0.892373
0.891005
0.890247
0.890268
0.891347
0.895635
0.903251
0.929762
0.988698
0.980296
0.967205
0.956065
0.9464
0.93803
0.930721
0.92439
0.918825
0.914015
0.909778
0.906136
0.902915
0.900179
0.897738
0.8957
0.89385
0.892362
0.890997
0.890192
0.890121
0.891193
0.894947
0.903041
0.926275
0.991843
0.980288
0.967207
0.956064
0.946398
0.938028
0.930722
0.924382
0.91883
0.914007
0.909781
0.906132
0.902918
0.900174
0.897744
0.895697
0.89386
0.892361
0.891008
0.890179
0.890114
0.89112
0.894958
0.902492
0.926602
0.988765
0.980292
0.967215
0.956061
0.946404
0.938021
0.930723
0.924374
0.918825
0.914001
0.909775
0.906125
0.902917
0.900173
0.897746
0.8957
0.893865
0.892364
0.891013
0.890176
0.890112
0.891113
0.89519
0.902432
0.929277
0.985669
0.980268
0.967238
0.956031
0.946434
0.937995
0.930757
0.924353
0.918862
0.913978
0.909813
0.906098
0.902951
0.900139
0.897775
0.895661
0.893889
0.892325
0.891021
0.890086
0.890015
0.891041
0.894417
0.902559
0.924712
0.990166
0.980286
0.967222
0.956053
0.946411
0.938014
0.930731
0.92437
0.918834
0.913997
0.909783
0.906118
0.902922
0.900164
0.897749
0.895691
0.89387
0.892357
0.891017
0.890166
0.890105
0.891059
0.894856
0.902203
0.926635
0.986666
0.980291
0.967218
0.956059
0.946404
0.93802
0.930724
0.924375
0.918826
0.914003
0.909775
0.906125
0.902915
0.900172
0.897743
0.8957
0.893863
0.892365
0.891013
0.890184
0.89012
0.891128
0.895174
0.902424
0.929079
0.985092
1.01385
1.02141
1.02593
1.02936
1.03144
1.03344
1.0346
1.03688
1.04068
1.0543
1.08059
1.14375
1.33822
1.79886
2.70679
2.74725
2.7095
2.65213
2.65348
2.65785
2.65348
2.63997
2.60039
2.56209
2.41643
1.01373
1.02146
1.02585
1.02938
1.0314
1.03344
1.03456
1.03676
1.0404
1.05169
1.07953
1.13293
1.32752
1.74799
2.6339
2.73888
2.70341
2.65283
2.6342
2.632
2.62357
2.60502
2.55954
2.49967
2.36184
1.01389
1.02137
1.02597
1.02933
1.03148
1.03339
1.03455
1.03641
1.03973
1.05154
1.07466
1.12895
1.30303
1.69027
2.55736
2.71909
2.6765
2.65631
2.6272
2.61036
2.59638
2.57195
2.51887
2.46179
2.34419
1.01407
1.02115
1.02617
1.02907
1.03171
1.03312
1.03476
1.03601
1.03945
1.04791
1.07251
1.11396
1.28533
1.62348
2.43515
2.6793
2.66773
2.64966
2.62398
2.59604
2.56781
2.54521
2.49296
2.44367
2.34372
1.014
1.02121
1.02611
1.02913
1.03167
1.03314
1.03477
1.03593
1.03975
1.04679
1.06502
1.12035
1.21984
1.59966
2.42335
2.61792
2.64271
2.63195
2.61491
2.59096
2.54884
2.51552
2.46673
2.42674
2.34545
1.01395
1.0213
1.02604
1.02924
1.03157
1.03328
1.03458
1.03592
1.03817
1.04642
1.06176
1.10017
1.21836
1.45702
2.2081
2.58284
2.63772
2.61214
2.59905
2.58113
2.54095
2.50676
2.44312
2.40987
2.34523
1.01376
1.02148
1.02586
1.02941
1.0314
1.03343
1.03441
1.03596
1.03768
1.04491
1.05666
1.08999
1.18066
1.37345
1.94933
2.49726
2.62213
2.6031
2.57453
2.55707
2.52381
2.49583
2.43465
2.38797
2.33974
1.01397
1.02126
1.02608
1.02919
1.03162
1.03319
1.03465
1.03566
1.03782
1.04164
1.05321
1.08014
1.14099
1.30994
1.81412
2.36521
2.57617
2.57469
2.55937
2.54182
2.50367
2.48177
2.4332
2.37873
2.33083
1.01406
1.02121
1.02614
1.02916
1.03166
1.03318
1.03465
1.03555
1.03726
1.04023
1.04963
1.0718
1.11667
1.26579
1.60059
2.30263
2.54466
2.54309
2.53022
2.51856
2.48959
2.45856
2.42467
2.37387
2.32367
1.01375
1.02147
1.02586
1.02939
1.03141
1.03338
1.0344
1.03566
1.0366
1.0391
1.04779
1.06296
1.10266
1.22109
1.45887
2.12041
2.48145
2.52798
2.50419
2.49823
2.48036
2.44969
2.41872
2.37326
2.32382
1.01386
1.02139
1.02595
1.02933
1.03147
1.03335
1.03442
1.03566
1.03652
1.0392
1.04373
1.05788
1.09095
1.16393
1.38424
1.96115
2.37675
2.50004
2.49255
2.46966
2.45597
2.42797
2.40433
2.36977
2.32505
1.01386
1.02137
1.02596
1.02931
1.03147
1.03333
1.03442
1.0356
1.0364
1.03832
1.04158
1.05278
1.0745
1.13269
1.27321
1.73317
2.21896
2.43978
2.46664
2.45791
2.44309
2.41947
2.38797
2.36184
2.32355
1.01408
1.02116
1.02617
1.0291
1.03169
1.03313
1.03464
1.03535
1.0365
1.03733
1.04072
1.04729
1.06313
1.11229
1.19738
1.52111
2.17453
2.37285
2.41705
2.41819
2.41401
2.40222
2.37689
2.34751
2.31874
1.01415
1.0211
1.02623
1.02904
1.03175
1.03307
1.03469
1.0353
1.03644
1.03702
1.03898
1.04481
1.05769
1.08577
1.17762
1.35081
1.90094
2.31114
2.39898
2.39709
2.389
2.3798
2.36421
2.33745
2.30893
1.01391
1.02132
1.02602
1.02925
1.03155
1.03325
1.0345
1.03546
1.03624
1.03699
1.03818
1.043
1.05041
1.07457
1.12538
1.25582
1.57107
2.16538
2.34656
2.35895
2.35857
2.34739
2.33851
2.32398
2.30162
1.01383
1.02142
1.02592
1.02936
1.03145
1.03337
1.03439
1.03558
1.03611
1.03706
1.03784
1.04129
1.04637
1.06334
1.10211
1.18141
1.45302
2.02222
2.28882
2.34173
2.33807
2.32603
2.30853
2.2942
2.27903
1.01385
1.0214
1.02594
1.02934
1.03146
1.03336
1.0344
1.03557
1.03611
1.037
1.0376
1.0399
1.04343
1.0566
1.08014
1.14531
1.30605
1.79635
2.16344
2.29988
2.31653
2.31276
2.29936
2.27979
2.26248
1.01393
1.02131
1.02603
1.02925
1.03155
1.03326
1.0345
1.03547
1.0362
1.03684
1.03744
1.03837
1.0421
1.04839
1.06568
1.11204
1.19936
1.49382
2.05615
2.23943
2.27255
2.28
2.27544
2.26377
2.24806
1.01388
1.02136
1.02597
1.02929
1.0315
1.0333
1.03445
1.03551
1.03614
1.03688
1.03728
1.03811
1.03978
1.04598
1.05614
1.08496
1.16049
1.31647
1.76876
2.16163
2.25624
2.25632
2.25355
2.24247
2.22822
1.01401
1.02123
1.02611
1.02916
1.03164
1.03317
1.03458
1.03538
1.03628
1.03673
1.03739
1.0378
1.03889
1.04315
1.04925
1.0702
1.11216
1.21516
1.48513
1.99415
2.19946
2.2309
2.23035
2.22508
2.21129
1.01395
1.0213
1.02604
1.02923
1.03157
1.03324
1.03451
1.03545
1.03621
1.0368
1.03731
1.03777
1.03844
1.0412
1.04511
1.0594
1.08676
1.15182
1.34469
1.8043
2.10824
2.20629
2.20633
2.20512
2.19466
1.01386
1.02138
1.02596
1.02932
1.03148
1.03333
1.03443
1.03554
1.03612
1.03688
1.03721
1.03782
1.03822
1.03978
1.04234
1.05156
1.06692
1.11534
1.21089
1.5409
1.9279
2.15039
2.18524
2.18375
2.17947
1.01388
1.02136
1.02597
1.0293
1.0315
1.0333
1.03445
1.03551
1.03614
1.03686
1.03722
1.03777
1.03808
1.03903
1.04061
1.04687
1.05651
1.08645
1.1534
1.31463
1.71065
2.04464
2.15341
2.1647
2.16456
1.01393
1.02131
1.02602
1.02925
1.03155
1.03325
1.0345
1.03546
1.03619
1.0368
1.03727
1.0377
1.03803
1.03843
1.03951
1.04342
1.04927
1.06823
1.10755
1.20304
1.44333
1.89197
2.08405
2.13106
2.13852
1.01398
1.02126
1.02607
1.02919
1.03161
1.0332
1.03455
1.0354
1.03625
1.03674
1.03733
1.03763
1.03808
1.03833
1.03895
1.04142
1.04489
1.05753
1.08085
1.14013
1.29713
1.71222
1.98018
2.09376
2.11168
1.01395
1.02129
1.02605
1.02922
1.03158
1.03323
1.03452
1.03543
1.03622
1.03677
1.0373
1.03766
1.03805
1.03828
1.03863
1.03963
1.04289
1.04849
1.06381
1.10277
1.18072
1.41443
1.84846
2.03258
2.08403
1.01389
1.02135
1.02598
1.02929
1.03151
1.03329
1.03446
1.0355
1.03615
1.03684
1.03723
1.03773
1.03797
1.03836
1.03857
1.03927
1.0406
1.04517
1.05327
1.07597
1.12907
1.25525
1.55984
1.92067
2.0513
1.01394
1.02129
1.02604
1.02923
1.03157
1.03324
1.03452
1.03544
1.03621
1.03678
1.03729
1.03767
1.03803
1.03829
1.03858
1.03887
1.03995
1.04187
1.04791
1.05955
1.09168
1.16022
1.36698
1.71611
1.97349
1.01396
1.02128
1.02606
1.02921
1.03159
1.03322
1.03454
1.03542
1.03624
1.03676
1.03732
1.03764
1.03805
1.03825
1.03859
1.03877
1.03936
1.04042
1.04425
1.0504
1.06959
1.10769
1.2091
1.43316
1.82929
1.01392
1.02132
1.02601
1.02926
1.03154
1.03327
1.03449
1.03547
1.03618
1.03681
1.03726
1.0377
1.038
1.03831
1.03852
1.03878
1.03902
1.03995
1.04143
1.04686
1.0557
1.08223
1.13909
1.28315
1.61181
1.01389
1.02134
1.02599
1.02928
1.03152
1.03328
1.03447
1.03549
1.03617
1.03683
1.03724
1.03771
1.03798
1.03833
1.03849
1.03878
1.03893
1.03943
1.04031
1.04369
1.04877
1.06555
1.09875
1.18025
1.39064
1.01394
1.0213
1.02603
1.02923
1.03156
1.03324
1.03451
1.03545
1.03621
1.03679
1.03729
1.03767
1.03802
1.03828
1.03854
1.03872
1.03893
1.03914
1.03997
1.04142
1.04595
1.05501
1.07739
1.13343
1.26207
1.01394
1.0213
1.02603
1.02924
1.03156
1.03324
1.03451
1.03545
1.0362
1.03679
1.03728
1.03768
1.03801
1.03829
1.03853
1.03873
1.0389
1.03907
1.03952
1.04126
1.04366
1.05273
1.06879
1.11117
1.22621
1.01395
1.02129
1.02604
1.02923
1.03157
1.03323
1.03452
1.03544
1.03622
1.03678
1.0373
1.03767
1.03803
1.03828
1.03854
1.03872
1.03891
1.03905
1.03942
1.04096
1.04294
1.05112
1.0646
1.103
1.20522
1.01395
1.02129
1.02605
1.02922
1.03158
1.03323
1.03453
1.03544
1.03622
1.03677
1.0373
1.03766
1.03803
1.03827
1.03855
1.03871
1.03892
1.03905
1.03938
1.04073
1.04262
1.04981
1.06292
1.098
1.1968
1.01396
1.02128
1.02605
1.02922
1.03158
1.03322
1.03453
1.03543
1.03622
1.03677
1.0373
1.03765
1.03803
1.03827
1.03855
1.0387
1.03893
1.03905
1.03935
1.04063
1.04243
1.0491
1.06186
1.09458
1.19092
1.01395
1.02129
1.02604
1.02922
1.03157
1.03323
1.03452
1.03543
1.03622
1.03677
1.0373
1.03765
1.03803
1.03826
1.03855
1.0387
1.03894
1.03905
1.03944
1.04022
1.04231
1.04814
1.05923
1.09897
1.16406
1.01393
1.02131
1.02603
1.02924
1.03156
1.03325
1.03451
1.03545
1.03621
1.03679
1.03729
1.03767
1.03802
1.03828
1.03853
1.03872
1.03891
1.03907
1.03932
1.0404
1.04233
1.04729
1.06221
1.08999
1.19087
1.01395
1.02129
1.02605
1.02922
1.03158
1.03323
1.03453
1.03543
1.03622
1.03677
1.0373
1.03765
1.03804
1.03826
1.03856
1.0387
1.03894
1.03907
1.03947
1.04017
1.04277
1.04759
1.06027
1.09716
1.16493
1.01395
1.02129
1.02605
1.02922
1.03158
1.03323
1.03453
1.03543
1.03622
1.03677
1.0373
1.03765
1.03804
1.03826
1.03856
1.0387
1.03894
1.03906
1.03946
1.04015
1.04279
1.04751
1.0603
1.09673
1.1647
1.00584
1.01318
1.021
1.02851
1.03516
1.04113
1.04637
1.05162
1.0584
1.07547
1.10767
1.18381
1.40035
1.94858
2.77192
2.69809
2.721
2.67403
2.66835
2.64086
2.62156
2.62676
2.5921
2.52843
2.35306
1.00583
1.01319
1.02099
1.02852
1.03515
1.04114
1.04635
1.05154
1.05806
1.07435
1.10427
1.1766
1.37878
1.88828
2.74083
2.70951
2.6966
2.66125
2.65554
2.63214
2.59581
2.58564
2.54671
2.47052
2.3042
1.00635
1.01266
1.02152
1.02798
1.0357
1.04056
1.04694
1.05071
1.05811
1.06999
1.10126
1.17688
1.32887
1.79842
2.74191
2.71324
2.68343
2.64754
2.63761
2.61498
2.56737
2.54813
2.50716
2.44057
2.30709
1.00571
1.0133
1.02087
1.02862
1.03505
1.04119
1.04627
1.05124
1.05699
1.06824
1.09627
1.1658
1.29831
1.74118
2.70709
2.71004
2.64856
2.64264
2.62826
2.60659
2.54806
2.5143
2.47213
2.42214
2.31511
1.00625
1.01277
1.0214
1.0281
1.03555
1.04072
1.04667
1.05088
1.05691
1.06698
1.09312
1.13744
1.30831
1.62574
2.52809
2.68974
2.65712
2.62998
2.6089
2.58959
2.53707
2.49058
2.44531
2.40659
2.32599
1.00567
1.01335
1.02082
1.02869
1.03497
1.04129
1.04609
1.05138
1.05637
1.06775
1.08663
1.13589
1.26746
1.55422
2.39554
2.64548
2.6643
2.63191
2.60026
2.57864
2.52766
2.47465
2.42111
2.39086
2.32814
1.00554
1.01348
1.0207
1.02881
1.03485
1.04141
1.04596
1.0514
1.05579
1.06563
1.08137
1.12351
1.22981
1.46254
2.18917
2.58813
2.65745
2.63186
2.58055
2.56519
2.52456
2.46803
2.4048
2.37162
2.32575
1.00553
1.01349
1.02069
1.02882
1.03484
1.04141
1.04593
1.05133
1.05521
1.0631
1.07635
1.10926
1.19521
1.3665
1.93665
2.49922
2.63355
2.61775
2.57401
2.54118
2.51402
2.46738
2.39625
2.35607
2.31987
1.00543
1.01359
1.02059
1.02892
1.03475
1.0415
1.04582
1.05135
1.05469
1.06135
1.07185
1.10004
1.16694
1.30111
1.71691
2.51751
2.59232
2.5766
2.56298
2.53121
2.50069
2.46581
2.39831
2.34145
2.30766
1.00571
1.01331
1.02088
1.02862
1.03504
1.04119
1.04615
1.05092
1.05498
1.06014
1.07099
1.09128
1.13959
1.27903
1.57121
2.38864
2.56867
2.56536
2.54644
2.51284
2.48543
2.46057
2.40494
2.34331
2.29652
1.0058
1.01321
1.02096
1.02853
1.03513
1.04111
1.04622
1.05081
1.05492
1.05931
1.06723
1.08487
1.11948
1.2327
1.44609
2.11325
2.50237
2.55813
2.53768
2.50747
2.46822
2.44926
2.41025
2.34904
2.29733
1.00567
1.01334
1.02083
1.02867
1.03499
1.04124
1.04607
1.05095
1.0546
1.05897
1.06434
1.08003
1.10637
1.17921
1.35087
1.88185
2.38892
2.52762
2.51829
2.50076
2.45917
2.43294
2.40737
2.35775
2.30212
1.0062
1.01281
1.02136
1.02814
1.03551
1.04074
1.04656
1.05044
1.055
1.05816
1.06326
1.07337
1.09677
1.14358
1.28438
1.64761
2.27628
2.48902
2.49692
2.48592
2.45467
2.41905
2.39782
2.36376
2.30947
1.00506
1.01397
1.02021
1.02929
1.03437
1.04185
1.04545
1.05152
1.05392
1.05896
1.06137
1.06954
1.08562
1.12944
1.20666
1.48415
2.16413