/*--------------------------------*- C++ -*----------------------------------*\
  =========                 |
  \\      /  F ield         | OpenFOAM: The Open Source CFD Toolbox
   \\    /   O peration     | Website:  https://openfoam.org
    \\  /    A nd           | Version:  6
     \\/     M anipulation  |
\*---------------------------------------------------------------------------*/
FoamFile
{
    version     2.0;
    format      ascii;
    class       volVectorField;
    location    "5";
    object      U;
}
// * * * * * * * * * * * * * * * * * * * * * * * * * * * * * * * * * * * * * //

dimensions      [0 1 -1 0 0 0 0];

internalField   nonuniform List<vector> 
26250
(
(3.01561 5.26942e-08 -0.0579673)
(3.02577 4.6745e-07 -0.0597719)
(3.03428 2.70378e-07 -0.061124)
(3.04139 1.03167e-06 -0.0622763)
(3.04763 9.40823e-08 -0.0631528)
(3.05271 1.34713e-06 -0.0640249)
(3.05728 -3.06519e-07 -0.0645773)
(3.05994 3.92802e-06 -0.0654448)
(3.0585 9.3038e-06 -0.0660171)
(3.05592 3.3203e-05 -0.0676442)
(3.03629 6.53849e-05 -0.0702303)
(2.99969 0.000199267 -0.0784921)
(2.85597 0.000443072 -0.0937965)
(2.44747 0.00128373 -0.140441)
(1.4518 0.00332637 -0.238999)
(0.657544 0.00723283 -0.277864)
(0.760892 0.0100291 -0.259103)
(0.903899 0.0137041 -0.250283)
(0.985887 0.0181815 -0.254125)
(0.969784 0.024591 -0.259617)
(0.952676 0.0254033 -0.260678)
(0.8979 0.0210608 -0.263351)
(0.764412 0.0132023 -0.267345)
(0.514661 0.0105219 -0.268828)
(0.294974 0.00434036 -0.262804)
(3.01561 1.19316e-06 -0.0579676)
(3.02577 1.23669e-06 -0.0597715)
(3.03428 1.36812e-06 -0.0611243)
(3.04139 2.24332e-06 -0.062276)
(3.04763 6.33141e-08 -0.0631531)
(3.0527 3.35876e-06 -0.0640246)
(3.05728 -1.70931e-06 -0.0645773)
(3.05995 1.44506e-05 -0.0654442)
(3.05853 3.49875e-05 -0.0660156)
(3.05597 0.000116418 -0.0676396)
(3.03642 0.000229074 -0.0702149)
(3.00001 0.000618544 -0.078462)
(2.85679 0.00133059 -0.0937138)
(2.44997 0.00344182 -0.140242)
(1.45997 0.00888178 -0.238787)
(0.665714 0.0157096 -0.27707)
(0.769725 0.024109 -0.258265)
(0.912913 0.0365431 -0.248979)
(0.994737 0.0464644 -0.252741)
(0.996339 0.0539699 -0.256158)
(0.967308 0.0564427 -0.258724)
(0.907797 0.0508562 -0.261714)
(0.784187 0.0388013 -0.264316)
(0.553304 0.035657 -0.266371)
(0.349918 0.0321432 -0.260503)
(3.01561 8.15781e-06 -0.0579681)
(3.02577 -1.20393e-06 -0.0597709)
(3.03428 4.9186e-06 -0.0611247)
(3.04139 -3.26332e-06 -0.0622756)
(3.04763 1.90532e-06 -0.0631534)
(3.0527 -2.96103e-06 -0.0640243)
(3.05729 3.61007e-07 -0.064577)
(3.05997 2.91907e-05 -0.0654427)
(3.05859 7.29598e-05 -0.0660117)
(3.05608 0.000364216 -0.0676272)
(3.03669 0.00074124 -0.0701858)
(3.00062 0.00174342 -0.0783845)
(2.85807 0.0033473 -0.0935157)
(2.45319 0.00745466 -0.139932)
(1.4634 0.0164827 -0.238352)
(0.635388 0.0387118 -0.277599)
(0.748679 0.0531779 -0.258576)
(0.899234 0.0653285 -0.249463)
(0.979635 0.0730203 -0.253167)
(0.980529 0.0769781 -0.256314)
(0.94658 0.0817381 -0.259119)
(0.879571 0.0833116 -0.261563)
(0.756291 0.0791699 -0.263624)
(0.525966 0.0775829 -0.265455)
(0.317831 0.0772003 -0.259628)
(3.01561 2.20897e-05 -0.0579745)
(3.02576 -8.71729e-06 -0.0597642)
(3.03427 1.35052e-05 -0.0611304)
(3.04139 -1.83032e-05 -0.0622709)
(3.04763 1.54274e-05 -0.0631565)
(3.0527 -3.54743e-05 -0.0640205)
(3.05731 3.96587e-05 -0.0645802)
(3.06001 -9.25094e-05 -0.0654342)
(3.0588 3.78862e-05 -0.066002)
(3.05652 0.0013205 -0.0676215)
(3.03753 -0.00255802 -0.0700364)
(3.00235 0.0104251 -0.0782672)
(2.86069 -0.0098936 -0.0929692)
(2.46703 0.0409906 -0.13918)
(1.48175 0.0299421 -0.237474)
(0.684053 0.0777991 -0.275236)
(0.784004 0.0970587 -0.2562)
(0.921183 0.105639 -0.246895)
(0.994798 0.110914 -0.251337)
(0.981982 0.11712 -0.255679)
(0.950212 0.123265 -0.25758)
(0.882238 0.128718 -0.259979)
(0.752806 0.131427 -0.26151)
(0.517085 0.130574 -0.262963)
(0.301596 0.124933 -0.258597)
(3.01561 6.89699e-06 -0.0579996)
(3.02576 -1.54695e-06 -0.0597352)
(3.03427 5.24115e-06 -0.0611609)
(3.04139 -4.93008e-06 -0.0622357)
(3.04762 3.10938e-06 -0.0631948)
(3.05272 -6.06606e-06 -0.0639764)
(3.05724 -8.23812e-07 -0.0646294)
(3.05997 1.72306e-05 -0.0653651)
(3.05975 3.66784e-05 -0.0661041)
(3.0539 0.000425447 -0.0675689)
(3.04373 0.000922546 -0.0694881)
(2.9947 0.00254754 -0.0787022)
(2.87299 0.00558022 -0.0910807)
(2.50784 0.0142409 -0.142972)
(1.50757 0.0364505 -0.228311)
(0.730735 0.0884097 -0.271497)
(0.81627 0.117132 -0.252903)
(0.944334 0.129872 -0.243023)
(1.01354 0.141414 -0.247322)
(1.0064 0.154341 -0.251004)
(0.971583 0.166272 -0.253278)
(0.901922 0.17593 -0.255739)
(0.768564 0.183526 -0.257077)
(0.527167 0.187336 -0.258161)
(0.304541 0.178431 -0.254717)
(3.01561 -6.90621e-07 -0.0579781)
(3.02576 -1.85014e-07 -0.0597593)
(3.03427 1.78572e-06 -0.0611365)
(3.04139 -3.16263e-06 -0.0622622)
(3.04763 7.0774e-06 -0.0631667)
(3.0527 -1.18283e-05 -0.0640088)
(3.05733 2.81981e-05 -0.0645879)
(3.06004 -1.53136e-05 -0.0654186)
(3.05914 0.000219281 -0.0659762)
(3.05725 0.000508578 -0.0675769)
(3.03924 0.00114202 -0.0697813)
(3.00623 0.00224754 -0.0778376)
(2.86916 0.0058811 -0.0916096)
(2.49873 0.016081 -0.136685)
(1.54882 0.0444474 -0.232288)
(0.76467 0.109518 -0.271727)
(0.843138 0.144514 -0.252144)
(0.9613 0.161237 -0.240695)
(1.03075 0.176749 -0.244894)
(1.02456 0.194225 -0.248368)
(0.987856 0.211063 -0.250387)
(0.918205 0.224924 -0.252112)
(0.78489 0.237867 -0.252772)
(0.53939 0.249514 -0.253131)
(0.310433 0.243279 -0.249702)
(3.01561 -3.49776e-06 -0.0579953)
(3.02576 3.78101e-07 -0.05974)
(3.03427 -5.06499e-06 -0.0611564)
(3.0414 4.13328e-06 -0.06224)
(3.04761 -6.54761e-06 -0.0631911)
(3.05274 1.08665e-05 -0.063978)
(3.05724 -5.41704e-06 -0.0646287)
(3.06013 2.47522e-05 -0.0653475)
(3.06019 5.60161e-05 -0.0660823)
(3.05466 0.000203473 -0.0674805)
(3.04515 0.000440912 -0.0693259)
(2.99868 0.00193671 -0.0780985)
(2.88447 0.0054868 -0.0898545)
(2.5395 0.0166924 -0.138357)
(1.59301 0.055295 -0.221725)
(0.830533 0.132348 -0.267222)
(0.881459 0.175307 -0.249362)
(0.987514 0.194831 -0.237458)
(1.05241 0.213214 -0.241483)
(1.04758 0.233585 -0.244652)
(1.00875 0.255184 -0.246792)
(0.939045 0.274693 -0.248008)
(0.806941 0.295868 -0.247934)
(0.557439 0.319963 -0.247635)
(0.320557 0.325976 -0.243762)
(3.01561 -1.79376e-05 -0.0579796)
(3.02576 7.35207e-06 -0.0597578)
(3.03427 -1.38211e-05 -0.0611378)
(3.04139 2.21338e-05 -0.0622611)
(3.04763 -2.40448e-05 -0.0631672)
(3.0527 5.65698e-05 -0.0640086)
(3.05734 -7.2052e-05 -0.0645866)
(3.06009 0.000182663 -0.0654119)
(3.05928 -8.77142e-05 -0.065951)
(3.05756 -0.00084541 -0.0674561)
(3.04069 0.0034688 -0.0696519)
(3.0103 -0.00558863 -0.0771358)
(2.8818 0.0201231 -0.0900905)
(2.53592 -0.00672166 -0.133053)
(1.65663 0.0633423 -0.225574)
(0.870333 0.150162 -0.267362)
(0.901066 0.203692 -0.24909)
(0.998177 0.225229 -0.235004)
(1.06583 0.24662 -0.23856)
(1.06319 0.271142 -0.24151)
(1.02653 0.297916 -0.243228)
(0.960622 0.324553 -0.243711)
(0.834185 0.357403 -0.242659)
(0.584617 0.401507 -0.241375)
(0.339986 0.437001 -0.236104)
(3.01561 -2.82467e-05 -0.0579794)
(3.02577 7.26584e-06 -0.0597578)
(3.03428 -5.58293e-06 -0.0611377)
(3.04139 3.51186e-06 -0.0622614)
(3.04764 1.71292e-05 -0.0631667)
(3.0527 -1.79736e-05 -0.0640098)
(3.05734 5.74842e-05 -0.064584)
(3.06012 -6.66215e-05 -0.0654132)
(3.05933 0.00019087 -0.0659385)
(3.05764 0.000702986 -0.0673804)
(3.04157 0.00139243 -0.0695194)
(3.01249 0.00419753 -0.0768424)
(2.89161 0.00951857 -0.0889223)
(2.55768 0.0263639 -0.131151)
(1.74148 0.0717713 -0.219934)
(0.951922 0.183032 -0.263707)
(0.945843 0.237667 -0.247173)
(1.02436 0.263896 -0.232063)
(1.08831 0.28447 -0.235369)
(1.08506 0.310706 -0.238068)
(1.05075 0.340701 -0.239156)
(0.990578 0.374487 -0.238793)
(0.875594 0.422147 -0.236511)
(0.635745 0.49607 -0.233948)
(0.383629 0.593968 -0.225757)
(3.01562 2.26282e-05 -0.0579222)
(3.02578 -1.7586e-05 -0.0598204)
(3.03427 2.23201e-05 -0.0610757)
(3.04141 -4.14445e-05 -0.0623252)
(3.04762 4.83125e-05 -0.0631056)
(3.05274 -9.06304e-05 -0.0640684)
(3.0573 0.000135606 -0.0645319)
(3.0602 -0.000178244 -0.0654502)
(3.05992 0.000528992 -0.0658919)
(3.05856 0.00185052 -0.0673149)
(3.0435 -0.000510717 -0.0692188)
(3.01717 0.0119999 -0.0764649)
(2.89945 -0.00294451 -0.0873603)
(2.58902 0.0598361 -0.129468)
(1.79659 0.0775195 -0.215834)
(1.02464 0.218049 -0.260607)
(0.996406 0.270953 -0.243777)
(1.06084 0.303244 -0.229003)
(1.1182 0.32213 -0.231945)
(1.11527 0.34938 -0.234448)
(1.08565 0.381439 -0.234804)
(1.03509 0.42293 -0.233445)
(0.941442 0.491264 -0.229429)
(0.737724 0.612131 -0.223459)
(0.477106 0.849113 -0.209937)
(2.98855 -2.70479e-07 -0.00143224)
(2.98291 4.58717e-07 -0.00328782)
(2.97953 1.15026e-07 -0.00492938)
(2.97738 1.06038e-06 -0.00644599)
(2.97597 2.59349e-07 -0.00768135)
(2.975 1.28029e-06 -0.00889771)
(2.97414 4.51197e-07 -0.00973851)
(2.97262 1.96776e-06 -0.0108131)
(2.96754 8.19723e-06 -0.0112776)
(2.95779 2.5665e-05 -0.0121527)
(2.92569 7.13003e-05 -0.0136556)
(2.85541 0.000180998 -0.0166001)
(2.65126 0.000474665 -0.0233593)
(2.00597 0.00135691 -0.0366651)
(0.537295 0.0037192 -0.0646584)
(-0.439143 0.0121768 -0.0653994)
(0.0408281 0.0199119 -0.0607488)
(0.430589 0.0295162 -0.0581713)
(0.505504 0.043316 -0.0608141)
(0.401333 0.0674738 -0.0611699)
(0.383485 0.0685888 -0.0630941)
(0.288575 0.056865 -0.0634929)
(0.0932903 0.0482288 -0.0637083)
(0.00869078 0.0410182 -0.0607924)
(0.161645 0.0161211 -0.0547053)
(2.98855 3.77937e-07 -0.00143218)
(2.98291 1.25784e-06 -0.00328791)
(2.97953 1.12484e-06 -0.00492931)
(2.97738 2.40603e-06 -0.00644614)
(2.97597 1.06244e-06 -0.00768128)
(2.975 2.88945e-06 -0.0088977)
(2.97414 1.39393e-06 -0.00973866)
(2.97263 8.37433e-06 -0.0108125)
(2.96756 3.01445e-05 -0.0112795)
(2.95784 0.000100093 -0.0121443)
(2.92581 0.000230438 -0.0136802)
(2.85576 0.000681946 -0.0165575)
(2.65212 0.00154953 -0.0234383)
(2.00888 0.00456803 -0.0366062)
(0.546767 0.0121013 -0.0648192)
(-0.408116 0.0210478 -0.0650273)
(0.0549489 0.0460389 -0.0603283)
(0.442054 0.0706348 -0.0578331)
(0.523983 0.0914627 -0.0604774)
(0.463015 0.122083 -0.0619585)
(0.401291 0.120105 -0.0624912)
(0.295015 0.110889 -0.0620649)
(0.121622 0.10534 -0.0621358)
(0.0126116 0.107077 -0.0600172)
(0.200406 0.0696501 -0.0540785)
(2.98855 3.95489e-06 -0.0014324)
(2.98291 1.25328e-06 -0.0032878)
(2.97953 3.58614e-06 -0.00492938)
(2.97738 1.19976e-06 -0.00644611)
(2.97597 1.80921e-06 -0.00768106)
(2.975 1.8117e-06 -0.00889823)
(2.97415 1.46859e-06 -0.00973756)
(2.97264 1.77073e-05 -0.010815)
(2.96761 6.24381e-05 -0.011277)
(2.95795 0.000208541 -0.012155)
(2.92615 0.000431422 -0.0136484)
(2.85654 0.00136862 -0.0165948)
(2.6542 0.00283283 -0.023329)
(2.01474 0.00847367 -0.0365198)
(0.549657 0.0218301 -0.0646091)
(-0.466558 0.0555519 -0.0636793)
(0.0470342 0.0905458 -0.0601421)
(0.440497 0.119799 -0.0577309)
(0.520052 0.136206 -0.0603985)
(0.466389 0.14445 -0.0621207)
(0.39714 0.160358 -0.062134)
(0.291913 0.172772 -0.0609906)
(0.129285 0.180513 -0.0604928)
(0.00859174 0.187261 -0.0585681)
(0.178867 0.140687 -0.0528491)
(2.98855 1.04853e-05 -0.00143368)
(2.98291 2.92748e-08 -0.00328612)
(2.97953 8.26481e-06 -0.00493042)
(2.97738 -2.80159e-06 -0.00644464)
(2.97597 5.96889e-06 -0.00768234)
(2.975 -3.64093e-06 -0.00889677)
(2.97416 8.95229e-06 -0.00973887)
(2.97268 4.31287e-05 -0.0108157)
(2.96771 0.000218876 -0.0112788)
(2.95813 0.000282256 -0.0121673)
(2.92672 0.00169817 -0.0136912)
(2.85771 0.00174225 -0.0165812)
(2.65743 0.00667317 -0.0234011)
(2.02343 0.0145629 -0.0363946)
(0.576806 0.0318161 -0.0645543)
(-0.389403 0.0954342 -0.0643564)
(0.0750325 0.136266 -0.0596102)
(0.449962 0.168176 -0.0568397)
(0.510116 0.188461 -0.059694)
(0.417151 0.210127 -0.0607729)
(0.374559 0.227879 -0.0615796)
(0.278623 0.248127 -0.0601351)
(0.130128 0.265131 -0.0590584)
(0.00632814 0.271276 -0.056828)
(0.159204 0.21445 -0.0512475)
(2.98855 4.36163e-06 -0.00143655)
(2.98291 2.85764e-07 -0.0032821)
(2.97953 3.43858e-06 -0.00493339)
(2.97738 -6.07593e-07 -0.00644056)
(2.97597 1.24868e-06 -0.00768719)
(2.975 1.02832e-06 -0.00888914)
(2.97418 9.95144e-07 -0.00975019)
(2.97283 3.15133e-05 -0.0107909)
(2.96781 0.000112734 -0.0112912)
(2.95913 0.000393783 -0.0122987)
(2.92762 0.000838973 -0.0131269)
(2.85991 0.0027586 -0.0179442)
(2.66352 0.00612721 -0.0207618)
(2.03271 0.0189259 -0.0399875)
(0.575894 0.052504 -0.0629143)
(-0.360259 0.123823 -0.0647044)
(0.0946305 0.176432 -0.059241)
(0.461255 0.215097 -0.0560353)
(0.515928 0.245958 -0.0588331)
(0.441267 0.276228 -0.0605436)
(0.377652 0.29825 -0.0606718)
(0.282809 0.32333 -0.0590801)
(0.142781 0.348003 -0.0575256)
(0.0121508 0.355374 -0.0547896)
(0.146421 0.291578 -0.0492456)
(2.98855 5.14462e-07 -0.00143508)
(2.98291 -7.63759e-07 -0.00328444)
(2.97953 9.29925e-07 -0.00493184)
(2.97738 -1.82123e-06 -0.00644265)
(2.97597 2.54364e-06 -0.00768396)
(2.975 -2.173e-06 -0.00889487)
(2.97418 8.50854e-06 -0.00973924)
(2.97277 1.91091e-05 -0.0108167)
(2.96802 9.73963e-05 -0.01127)
(2.95873 0.000439845 -0.0121794)
(2.92862 0.00102764 -0.0136803)
(2.86218 0.00325707 -0.0165143)
(2.66989 0.0080265 -0.0232061)
(2.06197 0.0242435 -0.0354988)
(0.659254 0.0692839 -0.0637329)
(-0.309798 0.158603 -0.0639778)
(0.11583 0.218925 -0.0587901)
(0.474195 0.262931 -0.0550486)
(0.523621 0.302039 -0.0579663)
(0.447611 0.344905 -0.0597691)
(0.382945 0.370217 -0.0597455)
(0.294204 0.3991 -0.0578853)
(0.165136 0.430443 -0.0558272)
(0.027161 0.4432 -0.0525932)
(0.13737 0.380445 -0.0468234)
(2.98855 -3.20928e-06 -0.00143687)
(2.98291 -1.41524e-07 -0.00328177)
(2.97953 -3.55194e-06 -0.00493411)
(2.97738 1.30948e-06 -0.00643927)
(2.97597 -2.66148e-06 -0.00768898)
(2.97501 4.99006e-06 -0.00888578)
(2.9742 3.17184e-06 -0.00975551)
(2.9729 3.52128e-05 -0.0107816)
(2.96816 0.000137488 -0.011309)
(2.9599 0.000520579 -0.0122812)
(2.92988 0.0012277 -0.0130876)
(2.86597 0.00390208 -0.0177297)
(2.67988 0.0099606 -0.0203847)
(2.08577 0.0291431 -0.0383024)
(0.694971 0.0877281 -0.0616566)
(-0.237556 0.191624 -0.0644483)
(0.149999 0.260548 -0.0584697)
(0.490782 0.309084 -0.0541595)
(0.53612 0.355138 -0.0569902)
(0.464721 0.405429 -0.0588915)
(0.395492 0.440065 -0.058691)
(0.313962 0.475768 -0.0565372)
(0.198042 0.515311 -0.0539146)
(0.05378 0.538584 -0.0500877)
(0.133652 0.487848 -0.0438814)
(2.98855 -1.13877e-05 -0.00143518)
(2.98291 2.0333e-06 -0.00328441)
(2.97953 -9.16532e-06 -0.00493142)
(2.97738 8.52401e-06 -0.00644366)
(2.97598 -8.21611e-06 -0.00768208)
(2.975 1.6509e-05 -0.00889781)
(2.97421 -5.92636e-06 -0.00973466)
(2.97288 2.58508e-05 -0.0108188)
(2.96842 4.16998e-05 -0.0112525)
(2.95966 0.00058635 -0.0121247)
(2.93139 0.000589915 -0.0135565)
(2.86987 0.00436077 -0.01623)
(2.68984 0.0105407 -0.0226371)
(2.12961 0.0287878 -0.0334693)
(0.810313 0.102657 -0.062383)
(-0.160979 0.226332 -0.0638096)
(0.188412 0.30271 -0.0578422)
(0.509899 0.354144 -0.0531013)
(0.551914 0.405306 -0.0558836)
(0.484671 0.461189 -0.0576131)
(0.416902 0.507677 -0.0573706)
(0.343246 0.553096 -0.0551446)
(0.242544 0.604104 -0.051937)
(0.0960588 0.645057 -0.0474567)
(0.13933 0.622708 -0.0405847)
(2.98855 -1.06028e-05 -0.00143431)
(2.98291 9.54503e-07 -0.00328533)
(2.97954 -7.20819e-06 -0.00493114)
(2.97738 3.97844e-06 -0.00644449)
(2.97598 -2.06879e-06 -0.0076814)
(2.97501 4.42835e-06 -0.00889888)
(2.97421 1.06154e-05 -0.00973289)
(2.97293 2.60729e-05 -0.010818)
(2.96863 0.000176907 -0.0112451)
(2.96043 0.000654133 -0.0120713)
(2.93274 0.00213702 -0.0135172)
(2.87548 0.00460431 -0.0160059)
(2.69951 0.0148728 -0.0224284)
(2.16504 0.0318937 -0.0327416)
(0.912928 0.107237 -0.0618203)
(-0.0557695 0.259758 -0.0638726)
(0.23801 0.345524 -0.0571083)
(0.531418 0.400725 -0.0519973)
(0.570593 0.454332 -0.0548011)
(0.509403 0.514351 -0.0562805)
(0.447045 0.572529 -0.0557838)
(0.383714 0.628748 -0.0534674)
(0.302271 0.695542 -0.0498745)
(0.163215 0.766771 -0.0445751)
(0.162053 0.799224 -0.0366669)
(2.98856 1.45109e-05 -0.00143017)
(2.98291 1.72081e-06 -0.00328969)
(2.97954 3.54886e-06 -0.00493073)
(2.97738 4.56099e-06 -0.00644239)
(2.97598 -1.05819e-05 -0.00768786)
(2.97501 2.10394e-05 -0.00888664)
(2.97422 -4.02114e-05 -0.00975072)
(2.97303 0.000120426 -0.0107875)
(2.96894 -6.39683e-06 -0.0112601)
(2.96129 0.00174334 -0.0121018)
(2.93463 -0.000469118 -0.0134512)
(2.88088 0.0129672 -0.0160186)
(2.71052 0.00193978 -0.0221253)
(2.20743 0.0568174 -0.0317474)
(1.01103 0.104819 -0.0611017)
(0.0512453 0.289481 -0.0640849)
(0.293546 0.389498 -0.0560441)
(0.55493 0.447778 -0.0507289)
(0.591085 0.501504 -0.0534394)
(0.539004 0.564545 -0.0549206)
(0.484899 0.631651 -0.0542243)
(0.436131 0.700357 -0.0516735)
(0.383261 0.788079 -0.0475785)
(0.271371 0.903773 -0.0418749)
(0.215854 1.07478 -0.0331052)
(2.9951 4.16713e-07 1.00213e-06)
(2.98906 3.78563e-07 -6.03213e-07)
(2.98253 5.42386e-07 8.55785e-07)
(2.97637 5.39439e-07 -5.98882e-07)
(2.97072 -1.24443e-08 5.73309e-07)
(2.96583 1.26443e-06 -3.72092e-07)
(2.96115 -1.0321e-06 2.00058e-07)
(2.95656 5.53607e-06 9.06988e-07)
(2.94899 1.69402e-07 2.66046e-06)
(2.93572 6.53605e-05 4.75097e-06)
(2.89701 -3.30181e-05 8.36057e-06)
(2.81364 0.000344736 9.23976e-06)
(2.58084 9.73195e-05 -1.76565e-05)
(1.82757 0.00089619 -8.65947e-05)
(0.141571 0.00213608 -0.00035199)
(-0.963776 0.0190871 -0.000366586)
(-0.139574 0.0295824 -4.35354e-05)
(0.304772 0.0393493 0.000277302)
(0.391514 0.0431962 0.00057221)
(0.293802 0.0420757 0.00119153)
(-0.149113 0.0634145 0.000112959)
(-0.107103 0.0687381 -0.000259102)
(-0.142382 0.0694862 -0.000237604)
(-0.09084 0.0711165 -9.70343e-05)
(0.0912034 0.0605067 -0.000296457)
(2.9951 5.21223e-07 2.49505e-06)
(2.98906 5.81258e-07 -2.41055e-06)
(2.98253 8.17027e-07 2.25991e-06)
(2.97637 1.04109e-06 -2.61879e-06)
(2.97073 5.7536e-07 2.48853e-06)
(2.96583 9.60108e-07 -2.65342e-06)
(2.96115 1.08842e-06 3.02201e-06)
(2.95657 4.30075e-06 3.58022e-06)
(2.94903 2.38131e-05 2.55515e-05)
(2.9357 8.10708e-05 -2.0876e-05)
(2.89721 0.000217497 0.00020076)
(2.81378 0.000592289 -0.000175234)
(2.58141 0.00142214 0.000325203)
(1.82798 0.00407507 -0.000180237)
(0.151371 0.0123713 -0.000952082)
(-0.947919 0.0459527 -0.000709604)
(-0.119624 0.0750936 0.000111991)
(0.315278 0.0975051 0.000158148)
(0.386951 0.10279 -0.000133456)
(0.265344 0.0960623 -0.000768214)
(-0.185828 0.125476 0.000145245)
(-0.127598 0.143465 0.000393002)
(-0.161518 0.152146 0.000166519)
(-0.108278 0.158961 3.52855e-06)
(0.0887279 0.140903 -7.47843e-05)
(2.9951 8.35771e-07 1.64038e-06)
(2.98906 8.11481e-07 -1.38124e-06)
(2.98253 1.00617e-06 1.36778e-06)
(2.97637 1.28405e-06 -1.50499e-06)
(2.97072 1.98059e-07 1.12222e-06)
(2.96583 1.1828e-06 -1.09104e-06)
(2.96115 1.23789e-06 5.4245e-07)
(2.95658 7.74416e-06 1.33062e-06)
(2.94905 4.38575e-05 3.18031e-06)
(2.93588 0.000154637 6.79665e-06)
(2.89743 0.000407747 4.87679e-06)
(2.81468 0.00113901 2.05654e-05)
(2.58347 0.00274599 -4.03329e-05)
(1.83658 0.00800066 -0.000102174)
(0.170377 0.0236584 -0.000439154)
(-0.920075 0.0643341 0.000175267)
(-0.10413 0.11541 -8.72834e-05)
(0.323744 0.154654 -0.000102405)
(0.376125 0.169889 -0.00039492)
(0.256437 0.166204 -0.000891205)
(-0.188088 0.20511 0.000135092)
(-0.120741 0.229064 0.000490558)
(-0.161727 0.245204 0.000389753)
(-0.115755 0.256674 0.00014152)
(0.0763869 0.232 0.000202036)
(2.9951 1.29555e-06 2.28389e-06)
(2.98906 9.94232e-07 -2.24909e-06)
(2.98253 1.04471e-06 2.10221e-06)
(2.97637 1.15332e-06 -2.54041e-06)
(2.97073 -1.23666e-06 2.32766e-06)
(2.96583 2.88989e-06 -2.66844e-06)
(2.96115 -1.48538e-06 2.72041e-06)
(2.9566 2.09567e-05 2.51547e-06)
(2.94916 5.4886e-05 2.14204e-05)
(2.936 0.000333357 -2.67437e-05)
(2.89801 0.000442745 0.00018882)
(2.81581 0.00218106 -0.000207884)
(2.58663 0.00379656 0.000316024)
(1.84565 0.0125706 -0.000220986)
(0.19118 0.0362485 -0.000841884)
(-0.891481 0.0969599 9.79503e-05)
(-0.0873386 0.161079 -2.59801e-06)
(0.335002 0.210993 -4.90284e-05)
(0.368822 0.236679 -2.40896e-05)
(0.258273 0.239086 0.000315813)
(-0.175601 0.288966 8.38426e-05)
(-0.102746 0.314637 0.000191422)
(-0.150787 0.337827 0.000299368)
(-0.116525 0.352177 0.000196479)
(0.0669818 0.321811 0.000267678)
(2.9951 -1.83047e-07 1.13319e-06)
(2.98906 2.43928e-07 -1.08198e-06)
(2.98253 -4.15168e-07 1.01745e-06)
(2.97637 2.96386e-07 -1.25471e-06)
(2.97073 -8.39227e-07 9.61783e-07)
(2.96583 1.26188e-06 -1.01341e-06)
(2.96116 2.91924e-06 3.16478e-07)
(2.95663 1.88775e-05 -1.41214e-07)
(2.94931 9.24823e-05 -2.86175e-06)
(2.93622 0.000368639 -2.29426e-06)
(2.89887 0.000876395 -1.71191e-05)
(2.8177 0.00274424 -2.40442e-05)
(2.59188 0.0064481 -6.91208e-05)
(1.86227 0.0197776 -0.000135041)
(0.232573 0.0585272 -0.000365407)
(-0.84143 0.1405 -0.000166359)
(-0.0598864 0.211798 6.53457e-05)
(0.34773 0.267519 2.59476e-05)
(0.363984 0.302493 -4.59705e-05)
(0.261234 0.315736 -0.000125454)
(-0.132241 0.368677 -1.47876e-05)
(-0.0802295 0.398777 3.09356e-05)
(-0.131737 0.428932 0.000188573)
(-0.112033 0.446524 0.000218059)
(0.0603587 0.412664 0.000277974)
(2.9951 -2.55918e-06 1.08643e-06)
(2.98906 -1.56392e-07 -1.17989e-06)
(2.98253 -2.23307e-06 1.1398e-06)
(2.97637 4.16561e-08 -1.46303e-06)
(2.97073 -3.99666e-08 1.79096e-06)
(2.96583 5.81885e-07 -2.25642e-06)
(2.96117 7.41582e-06 3.18288e-06)
(2.95668 1.98419e-05 2.9555e-07)
(2.94945 0.000117657 1.77837e-05)
(2.93667 0.000457213 -3.05141e-05)
(2.89995 0.00121239 0.000188422)
(2.82073 0.00361442 -0.000240556)
(2.5999 0.00901726 0.000362699)
(1.89145 0.0276114 -0.000242231)
(0.288585 0.0815892 -0.000611389)
(-0.779693 0.179796 0.000179981)
(-0.0303049 0.259697 4.86342e-05)
(0.361707 0.322209 -4.2681e-06)
(0.364857 0.36657 -1.92348e-05)
(0.26295 0.39342 5.55632e-05)
(-0.0753208 0.445524 -6.09495e-05)
(-0.0521768 0.483834 -2.83502e-05)
(-0.104136 0.521604 0.000128726)
(-0.101688 0.545058 0.000207881)
(0.056554 0.512592 0.000280228)
(2.9951 -4.28884e-06 -1.448e-06)
(2.98906 3.45683e-08 2.08536e-06)
(2.98253 -3.54546e-06 -1.96253e-06)
(2.97637 5.70673e-07 3.06083e-06)
(2.97073 -1.54399e-07 -3.41905e-06)
(2.96583 1.35611e-06 4.66393e-06)
(2.96118 9.44656e-06 -5.47714e-06)
(2.95672 2.59817e-05 1.85544e-06)
(2.94968 0.000144101 -1.85811e-05)
(2.93715 0.000587 2.36627e-05)
(2.90149 0.00147355 -0.000204293)
(2.82456 0.00455648 0.0002108)
(2.61054 0.0111382 -0.000426038)
(1.92786 0.0341371 0.000176942)
(0.359155 0.101293 0.000503096)
(-0.706512 0.217992 -0.000219455)
(0.00144957 0.307177 -6.3411e-05)
(0.377085 0.37571 -7.42638e-05)
(0.371517 0.428683 -4.98488e-05)
(0.268153 0.469931 -3.35091e-05)
(-0.0098084 0.522447 -6.52897e-05)
(-0.0173606 0.570852 -2.93549e-05)
(-0.0662231 0.617342 0.00011111)
(-0.0829264 0.651737 0.000201974)
(0.05714 0.627612 0.000268083)
(2.9951 -5.16223e-06 -9.37094e-07)
(2.98906 1.24628e-06 1.27443e-06)
(2.98253 -3.63898e-06 -1.10654e-06)
(2.97637 3.02388e-06 1.78635e-06)
(2.97073 3.106e-07 -1.49187e-06)
(2.96584 4.22959e-06 2.01191e-06)
(2.96119 1.12215e-05 -1.30385e-06)
(2.95679 3.24116e-05 5.65593e-07)
(2.94992 0.000157297 3.017e-08)
(2.93779 0.000712883 -4.28097e-06)
(2.90323 0.00159665 1.38389e-05)
(2.82925 0.00539089 -4.62197e-05)
(2.62309 0.0125307 9.09468e-05)
(1.97231 0.0387772 -0.000111771)
(0.447941 0.116807 0.000214074)
(-0.617447 0.256435 0.000241032)
(0.0363161 0.355499 -7.28888e-05)
(0.393717 0.428615 -0.000109936)
(0.383748 0.488745 -6.42478e-05)
(0.280262 0.542916 -5.2884e-05)
(0.0541113 0.601617 -5.71234e-05)
(0.0256688 0.656567 -2.83858e-05)
(-0.0151779 0.717396 9.30827e-05)
(-0.0519373 0.769639 0.000200202)
(0.0647038 0.766375 0.000252377)
(2.9951 -3.7014e-06 -2.8385e-07)
(2.98906 4.70037e-06 4.25611e-07)
(2.98253 -6.30725e-06 -2.79354e-07)
(2.97638 1.11599e-05 6.20312e-07)
(2.97073 -1.01613e-05 -3.2181e-07)
(2.96584 1.98913e-05 6.29224e-07)
(2.9612 -2.3544e-06 -2.58599e-07)
(2.95685 5.41379e-05 3.4471e-07)
(2.95025 0.000239952 2.34562e-08)
(2.93837 0.000804515 -4.53546e-07)
(2.90534 0.0020431 -4.45533e-06)
(2.83423 0.00575134 -1.39471e-06)
(2.63693 0.0144483 -1.49358e-05)
(2.02065 0.0420172 -1.11739e-05)
(0.560088 0.124648 8.02667e-06)
(-0.503708 0.29204 -2.5132e-05)
(0.0758531 0.404107 -5.43648e-05)
(0.411044 0.48115 -6.36059e-05)
(0.399941 0.546303 -5.15828e-05)
(0.300206 0.610498 -4.59665e-05)
(0.118264 0.678759 -4.52841e-05)
(0.0778626 0.743068 -3.43281e-05)
(0.0524852 0.819879 7.40765e-05)
(0.00411951 0.899465 0.00021072)
(0.0824471 0.939343 0.000222851)
(2.9951 6.13013e-06 2.33165e-07)
(2.98906 8.96452e-06 1.24678e-07)
(2.98253 -1.01333e-05 1.83837e-07)
(2.97637 2.92035e-05 1.77763e-07)
(2.97073 -4.68396e-05 -5.70687e-08)
(2.96584 8.27234e-05 1.75047e-07)
(2.96122 -0.000113019 -2.96432e-07)
(2.95699 0.000265091 1.10073e-07)
(2.95055 1.06484e-05 -2.83045e-07)
(2.93933 0.00156944 -1.51692e-06)
(2.9073 -0.000531259 -2.80102e-06)
(2.84025 0.0125856 -7.1796e-06)
(2.65121 0.00408372 -1.36648e-05)
(2.07205 0.0540897 -1.61721e-05)
(0.682088 0.118749 -2.02557e-05)
(-0.362891 0.321138 -4.99526e-06)
(0.119825 0.453493 -9.79428e-06)
(0.42886 0.532075 -1.39145e-05)
(0.418341 0.600067 -3.35693e-05)
(0.327174 0.672212 -3.70759e-05)
(0.183875 0.749678 -3.98501e-05)
(0.14346 0.826782 -2.89134e-05)
(0.139927 0.923605 4.21242e-05)
(0.0990907 1.0419 0.000179754)
(0.121367 1.20584 0.00019729)
(2.98855 7.55242e-06 0.00143384)
(2.98291 -8.92784e-07 0.00328643)
(2.97953 5.79818e-06 0.00493071)
(2.97738 -3.53264e-06 0.0064446)
(2.97597 5.38727e-06 0.00768246)
(2.975 -5.43522e-06 0.00889661)
(2.97415 8.38781e-06 0.00973893)
(2.97263 2.22742e-05 0.0108155)
(2.96757 0.000146643 0.0112816)
(2.95783 2.08529e-05 0.0121837)
(2.92574 0.00112484 0.0136968)
(2.85521 -1.21028e-07 0.0166561)
(2.65037 0.00263994 0.0234197)
(1.99904 0.00275932 0.0367235)
(0.519948 -0.00120917 0.0641262)
(-0.445822 -0.00363508 0.0645841)
(0.0382265 0.00821194 0.0604457)
(0.434861 0.0158028 0.0586687)
(0.529724 0.00918372 0.0613384)
(0.497075 -0.0185727 0.0628951)
(0.438471 -0.016078 0.0630627)
(0.340704 -0.000369107 0.062617)
(0.193088 0.0193931 0.0621326)
(0.0618243 0.0417129 0.0605216)
(0.178359 0.0504815 0.0548451)
(2.98855 3.6898e-06 0.00143717)
(2.98291 5.51596e-07 0.00328166)
(2.97953 3.07561e-06 0.00493396)
(2.97738 -3.3361e-07 0.00644021)
(2.97597 1.22428e-06 0.00768752)
(2.975 -6.96857e-07 0.00888887)
(2.97417 -4.29575e-07 0.00975063)
(2.97276 8.67373e-06 0.0107907)
(2.96757 3.28871e-05 0.011292)
(2.9586 0.000114093 0.0123276)
(2.92604 0.00022622 0.0131206)
(2.85567 0.000753465 0.0180989)
(2.65216 0.00149096 0.0207383)
(1.99368 0.00442668 0.0403507)
(0.476838 0.0112873 0.0627679)
(-0.534353 0.038379 0.0628844)
(0.0205862 0.059429 0.0605348)
(0.42222 0.0720047 0.0587912)
(0.492212 0.0691121 0.0613548)
(0.376041 0.0659644 0.0618626)
(0.362738 0.0708914 0.0634856)
(0.274116 0.0865857 0.06327)
(0.104884 0.106312 0.0625513)
(0.00615733 0.120456 0.0598489)
(0.15653 0.108389 0.0540045)
(2.98855 2.93428e-06 0.00143499)
(2.98291 8.65042e-07 0.00328502)
(2.97953 2.55443e-06 0.00493166)
(2.97738 4.17211e-07 0.00644306)
(2.97597 3.78612e-07 0.00768359)
(2.975 2.57749e-07 0.00889518)
(2.97415 -1.73517e-06 0.00973967)
(2.97266 8.90349e-06 0.010816)
(2.96766 3.11728e-05 0.01128)
(2.95799 0.000143462 0.0122028)
(2.92624 0.000294695 0.0137087)
(2.85619 0.00101999 0.0167011)
(2.65309 0.00243337 0.0234732)
(2.00522 0.00772969 0.036764)
(0.537337 0.0223878 0.0638569)
(-0.423808 0.0744544 0.0638904)
(0.0567015 0.104489 0.0597863)
(0.435395 0.126561 0.0576211)
(0.492514 0.140604 0.0603552)
(0.388663 0.163575 0.0612587)
(0.356838 0.163121 0.0626512)
(0.260358 0.164702 0.0623306)
(0.0774371 0.183864 0.0616699)
(-0.014309 0.199519 0.0585067)
(0.138849 0.168124 0.0528922)
(2.98855 7.87452e-06 0.00143795)
(2.98291 -1.063e-06 0.0032808)
(2.97953 5.43427e-06 0.00493463)
(2.97738 -4.33382e-06 0.00643913)
(2.97597 3.63534e-06 0.00768817)
(2.975 -5.51665e-06 0.00888813)
(2.97417 5.87391e-06 0.00974979)
(2.97279 3.24489e-05 0.0107912)
(2.96769 0.000175796 0.0112775)
(2.95883 0.000188656 0.0122994)
(2.92678 0.00146274 0.0130505)
(2.85756 0.00118949 0.0179581)
(2.65761 0.00574764 0.0205673)
(2.01097 0.0128979 0.0402906)
(0.530292 0.0316936 0.0625245)
(-0.406546 0.090684 0.0647679)
(0.0734197 0.138802 0.059643)
(0.448002 0.173693 0.0568889)
(0.506674 0.198935 0.0595437)
(0.430167 0.22555 0.0614051)
(0.363454 0.234891 0.061707)
(0.261815 0.241349 0.0606938)
(0.0886313 0.26133 0.0600498)
(-0.012718 0.277481 0.0568964)
(0.139929 0.228259 0.051266)
(2.98855 -1.89462e-06 0.00143827)
(2.98291 -3.97502e-07 0.00328018)
(2.97953 -2.16938e-06 0.00493509)
(2.97738 -6.00675e-07 0.00643823)
(2.97597 -1.55262e-06 0.00768926)
(2.975 4.03793e-07 0.00888679)
(2.97418 2.98284e-06 0.00975075)
(2.97281 2.20166e-05 0.0107905)
(2.9678 8.56297e-05 0.0112701)
(2.95905 0.000348623 0.0122663)
(2.92748 0.000791684 0.0130472)
(2.85941 0.00251696 0.0178336)
(2.66277 0.00618529 0.0205826)
(2.02713 0.0187756 0.0400962)
(0.565607 0.0549239 0.0623381)
(-0.384285 0.127366 0.0643687)
(0.0881382 0.181024 0.0593769)
(0.456069 0.22094 0.056267)
(0.508554 0.253536 0.0588859)
(0.425988 0.288963 0.0604425)
(0.366678 0.305008 0.0607794)
(0.269783 0.319904 0.0593343)
(0.112242 0.342356 0.0582141)
(-0.00469634 0.357595 0.0550146)
(0.139271 0.297582 0.0492938)
(2.98855 -1.27619e-05 0.00143746)
(2.98291 1.96127e-06 0.00328124)
(2.97953 -1.13282e-05 0.00493437)
(2.97738 7.80676e-06 0.0064392)
(2.97597 -1.01103e-05 0.00768868)
(2.975 1.44378e-05 0.00888696)
(2.97419 -4.85859e-06 0.00975244)
(2.97286 1.79994e-05 0.0107868)
(2.96795 1.54668e-05 0.0112881)
(2.95942 0.000501351 0.012282)
(2.92851 8.07653e-05 0.0130471)
(2.86222 0.00390224 0.017818)
(2.67017 0.0064086 0.0204559)
(2.0527 0.0255535 0.0393485)
(0.621061 0.0805479 0.0619676)
(-0.313009 0.164193 0.0644841)
(0.115039 0.221925 0.0589554)
(0.470728 0.265124 0.0553168)
(0.51964 0.305903 0.057991)
(0.444685 0.350609 0.0598733)
(0.375088 0.374945 0.0597508)
(0.284591 0.398819 0.0580014)
(0.144205 0.426401 0.0563647)
(0.0133324 0.443361 0.0529019)
(0.136497 0.382404 0.0469296)
(2.98855 -1.36365e-05 0.00143445)
(2.98291 1.81279e-06 0.00328572)
(2.97954 -1.28522e-05 0.00493042)
(2.97738 8.45466e-06 0.00644529)
(2.97598 -1.21767e-05 0.00768061)
(2.975 1.75394e-05 0.00889989)
(2.97419 -7.59271e-06 0.00973354)
(2.97282 2.7861e-05 0.0108244)