/*--------------------------------*- C++ -*----------------------------------*\
  =========                 |
  \\      /  F ield         | OpenFOAM: The Open Source CFD Toolbox
   \\    /   O peration     | Website:  https://openfoam.org
    \\  /    A nd           | Version:  6
     \\/     M anipulation  |
\*---------------------------------------------------------------------------*/
FoamFile
{
    version     2.0;
    format      ascii;
    class       volScalarField;
    location    "13";
    object      p;
}
// * * * * * * * * * * * * * * * * * * * * * * * * * * * * * * * * * * * * * //

dimensions      [0 2 -2 0 0 0 0];

internalField   nonuniform List<scalar> 
918
(
0.201052
0.964716
0.0060481
0.200335
0.000683065
0.933044
-0.841963
0.387668
0.181352
-0.145884
0.0208889
0.175409
0.789616
0.556076
-1.51651
0.0145512
0.342308
-0.687881
0.178901
0.00400061
0.453968
0.188739
0.19132
0.182235
0.235067
0.526145
0.667834
5.89106e-05
-0.00283572
-0.00248662
0.00247308
-0.000650589
0.00522515
0.816184
0.868129
0.891214
0.152181
-0.010464
-0.704604
-0.773427
-0.760742
-0.86762
0.374563
0.376741
-0.513457
0.386275
0.397656
0.16969
0.180567
0.181345
0.183322
0.181853
0.18318
0.292607
-0.180391
-0.253212
-0.0838167
-0.0682245
0.0773869
0.0180158
0.00757376
0.0229686
0.0242805
0.110774
0.170332
0.165393
0.18091
0.190683
0.904899
0.878627
0.904581
0.815541
0.833088
0.766653
0.739965
0.578718
0.602254
0.538723
0.528526
-1.98622
-2.94693
-0.925661
-0.637533
0.00139446
0.0208943
0.0246784
0.326215
0.328824
0.336441
0.347892
0.801275
-0.659887
-0.777274
0.178633
0.176814
0.187383
0.188638
0.183425
0.183757
0.0117906
0.0209056
-0.00139941
0.00538632
0.00482221
0.435355
0.432023
0.182191
0.179097
0.198328
0.2216
0.211907
-0.052984
0.251209
0.27067
0.36348
0.52468
0.515778
0.526631
0.643147
0.609048
0.699703
0.720649
0.00677113
0.00178443
0.00935094
0.00822727
0.00888517
0.147842
0.142431
0.159406
0.153965
0.155434
-0.100929
-0.247243
0.0655216
0.0885394
-0.628686
-0.681463
-0.74659
-0.792071
-0.856097
0.146558
0.364224
0.368895
-0.523961
-0.447984
-0.586006
-0.386931
-0.452501
0.157562
0.166827
0.162317
0.176409
0.171278
0.172648
0.184519
0.181668
0.183382
0.319526
0.391339
0.24761
0.224215
-0.477905
-0.316693
-0.440826
-0.0359358
-0.0251989
0.088231
0.100126
0.0674725
0.0657697
0.00335035
0.00863072
0.00403331
0.0247381
0.0271192
0.105193
0.0950921
0.118695
0.125497
0.161867
0.161287
0.164191
0.165281
0.691582
0.713278
0.720199
0.696999
-3.93615
-6.58293
-0.275414
-0.108713
0.00257869
0.00287021
0.00154748
0.00243909
0.00315444
0.000534805
0.0394818
0.0378993
0.0288565
0.0343706
0.313672
0.316068
0.786377
0.819489
0.729867
0.701688
0.166222
0.169261
0.175162
0.171505
0.0281705
0.0238838
0.0297618
0.397632
0.414166
0.413224
-0.08902
-0.17622
-0.00393593
0.0232466
0.306112
0.284344
0.310338
0.425629
0.464559
0.735843
0.760785
0.74502
0.758449
0.809429
0.832394
0.797106
0.130942
0.140499
0.135622
0.166398
0.16366
0.164508
0.161152
0.161297
0.160146
-0.360402
-0.73102
0.161677
0.159268
0.124901
0.131909
0.222626
0.336757
0.344241
0.354711
0.355366
-0.335106
-0.388009
0.187721
0.173815
0.0483746
0.0806464
0.064245
0.667431
0.627907
0.675902
0.651261
0.616688
0.640582
-0.665645
-2.45381
-1.42994
0.302526
0.0991594
0.194132
0.056502
0.043511
0.0473399
0.8012
0.804354
0.446124
0.594692
0.552081
0.495181
0.524586
0.581952
0.509758
0.546274
0.583407
0.561802
0.116066
0.158207
0.12217
0.431456
0.503752
-0.209219
-0.274829
-0.311414
0.111199
0.14511
0.128459
0.715635
0.58247
0.66356
0.180627
0.180555
0.0110213
0.0178741
0.18284
0.182525
0.00661712
0.00962801
0.203243
-1.30009
-0.19687
0.173996
0.164438
0.179268
-0.138517
0.289785
0.0187194
0.0869294
0.0589638
0.170109
0.120773
0.0824828
0.00739775
0.0193765
0.0162263
-0.461978
0.177578
0.175305
0.178645
0.18012
0.180829
0.00933694
0.010191
0.00748515
0.0132215
0.00977296
0.00952582
0.149469
0.159405
-0.487752
0.178972
0.180844
0.180572
0.175682
0.179291
0.177586
0.0151373
0.0115681
0.010033
-0.105119
0.0215733
0.412236
0.504757
0.346354
0.167633
-0.129902
0.334294
0.395426
0.306556
0.455925
0.345215
0.362424
-0.148089
-0.286514
-0.12859
-0.192814
0.171341
0.169249
0.161797
0.158177
0.173715
0.17188
0.176782
0.174845
0.177541
0.178505
-0.0802815
-0.0636642
-0.183871
-0.260008
0.322976
0.405222
0.202803
0.233191
0.138668
0.0227149
0.023015
0.0176586
0.0126739
0.0510828
0.062216
0.0772602
0.0672569
0.0482187
0.0454411
0.0497089
0.0556085
0.0595874
0.165339
0.164492
0.168464
0.176859
0.128273
0.131139
0.100786
0.119086
0.109614
0.0563849
0.0839963
0.0614211
0.007911
0.00976934
0.00793573
0.0235748
0.0278208
0.0144496
0.0129547
0.0128924
0.0101393
0.0111664
0.0192472
0.0223524
-0.483378
-0.577624
0.758469
0.640551
-0.46727
0.16761
0.171473
0.169487
0.173471
0.176269
0.176512
0.174566
0.172724
0.160273
0.163072
0.15783
0.15848
-0.441611
-0.587657
-0.390227
-0.464614
-0.178839
0.290179
0.0298426
-0.0270811
-0.0357837
0.176442
0.350283
0.321429
0.433647
0.433936
-0.745762
-0.308066
-0.659084
-0.117628
-0.151792
0.431004
0.478104
0.49861
0.451876
0.402608
-0.34968
0.170785
-0.369821
-0.347012
-0.176308
-0.245828
0.390985
0.329301
0.336873
0.350915
0.377071
0.333603
0.321056
0.315981
0.344622
0.351401
0.160806
-0.0605115
-0.10833
-0.147522
0.311079
0.197066
0.247337
0.164666
0.164663
0.16771
0.167191
0.154168
0.156052
0.153731
0.158393
0.160779
0.169281
0.169785
0.165479
0.166982
-0.0370775
-0.0200301
-0.156107
-0.386685
-0.27951
-0.367606
-0.248016
0.0185894
0.0590128
-0.143678
0.159432
-0.148301
-0.432606
-0.32144
-0.494171
-0.16432
-0.278822
0.0927071
0.149297
0.162507
0.139175
0.200306
0.181542
0.0352212
0.0427413
0.0277635
0.0268997
0.0904369
0.110818
0.107412
0.045193
0.0485192
0.0251603
0.0264294
0.0625037
0.0381814
0.0484653
0.0599383
0.0206158
0.0236242
0.0281336
0.035697
0.0376444
0.0394179
0.159027
0.161872
0.159242
0.173704
0.182181
0.195623
0.170451
0.146632
0.136742
0.141199
0.120024
0.124086
0.12759
0.134712
0.151573
0.157815
0.156398
0.157535
0.143875
0.145512
0.131099
0.136277
0.121803
0.105029
0.0920181
0.017741
0.0111505
0.0144032
0.0153408
0.0101723
0.0128316
0.0412897
0.032819
0.0368181
0.0320396
0.0363893
0.0162852
0.0177147
-0.584825
-0.625089
-0.552263
-0.597446
-0.61847
0.67013
0.713286
0.577343
0.318414
0.30782
0.536778
0.69812
0.38995
0.480758
0.493902
0.0748403
0.427922
0.1716
0.171592
0.168675
0.168279
0.168899
-0.355708
-0.259319
-0.240923
-0.200843
-0.0566432
0.0450124
0.0665795
-0.179062
-0.0374001
0.0203428
0.286704
0.29876
0.244848
0.266676
0.263389
0.10014
0.17541
0.215297
0.176114
0.224108
0.249491
0.20374
0.235815
0.179413
0.141421
0.140147
0.0842036
0.111925
0.0946233
0.0719065
0.160611
0.142132
0.150916
0.143207
0.161598
0.194245
0.188213
0.207025
0.224983
0.150771
0.10801
0.121541
0.148832
0.105508
0.118611
0.136146
-0.142934
-0.227533
-0.102093
-0.463943
-0.32973
-0.289979
-0.329771
-0.407089
-0.0966352
-0.744206
-0.654951
-1.34247
0.118894
0.514595
0.350886
0.366391
0.373666
0.348839
0.354117
0.38019
0.389301
0.3032
0.321004
0.323838
0.274245
0.307624
0.320428
0.323235
0.136499
0.0709059
0.0574642
0.01264
-0.120808
-0.0931163
0.092462
0.0319474
-0.0397336
-0.0421783
0.133637
0.0267698
0.0888933
0.126811
0.0762585
0.0135387
0.219511
0.274523
0.267055
0.235718
0.151306
0.169001
0.185562
0.2212
0.251447
0.283291
0.158231
0.163382
0.166231
0.162789
0.158346
0.161726
0.162319
0.163248
0.163984
0.165572
0.164323
0.0111754
0.0151468
-0.00230313
0.00775811
-0.0284353
-0.0544211
0.0121399
-0.055655
0.0279862
0.0214958
-0.0186322
-0.0182825
-0.00524217
0.00961935
0.118879
0.130825
0.11867
0.0802184
0.0324939
0.303308
0.271493
0.191304
0.0754291
0.15742
0.264343
0.0723602
0.0827707
0.0709375
0.0899131
0.0847435
0.0301095
0.0273967
0.0312456
0.0404588
0.0352297
0.0294444
0.0248683
0.0256428
0.0279857
0.0275137
0.0278569
0.146159
0.140928
0.143008
0.136375
0.135543
0.148541
0.151645
0.152626
0.15698
0.158698
0.151003
0.155021
0.158211
0.0271932
0.0216681
0.0233911
0.023435
0.0232915
0.020176
0.020548
-0.451033
-0.698302
-0.719724
-0.559541
-0.556394
-0.560247
0.146999
0.0073516
0.122367
0.286313
0.179182
0.0800186
0.108391
0.193776
-0.143485
0.0777475
-0.0895142
0.556771
0.399051
0.546735
0.133433
-0.117123
0.0160639
0.0430469
-0.106041
-0.0153185
-0.0094201
-0.135829
-0.104779
-0.0714053
0.00977181
-0.0815945
-0.0996508
-0.30229
-0.0949279
-0.0619961
-0.0877996
0.0584907
0.118162
-0.00935815
-0.122449
-0.200785
0.268659
0.288621
0.303785
0.278495
0.297501
0.230068
0.219467
0.238322
0.247189
0.242702
-0.995056
-0.587443
-1.79703
-1.22175
-0.775344
0.137054
0.114645
0.354829
0.276005
0.352527
0.341108
0.291463
0.25675
0.268329
0.304553
0.0151135
0.119562
0.0810923
0.104933
0.0392114
-0.0332624
0.233186
0.239946
0.26491
0.293061
0.264669
0.296173
0.155559
0.155484
0.157109
0.155363
0.149964
0.152011
0.0735058
0.0564989
0.0649192
0.0515562
0.0371847
0.0390573
0.0307733
0.0284872
0.0252545
0.0260388
0.0294484
0.03356
-0.185805
-0.318459
-0.474942
-0.448546
-0.360739
-0.473084
-0.462966
-0.401579
-0.274517
-0.285822
-0.086107
0.28114
0.0340449
0.29167
-0.106907
0.143925
0.150279
0.127759
0.160008
0.0421251
0.135537
-0.341816
-0.513029
-0.570561
0.415048
0.368024
0.169072
-0.083748
-0.206936
0.0978878
0.170177
0.135655
0.173797
0.223339
0.218729
-0.361791
-0.290382
-0.201845
0.0749973
-0.103728
-0.110436
-0.0849967
0.012533
-0.00527144
)
;

boundaryField
{
    wall-4
    {
        type            zeroGradient;
    }
    velocity-inlet-5
    {
        type            zeroGradient;
    }
    velocity-inlet-6
    {
        type            zeroGradient;
    }
    pressure-outlet-7
    {
        type            fixedValue;
        value           uniform 0;
    }
    wall-8
    {
        type            zeroGradient;
    }
    frontAndBackPlanes
    {
        type            empty;
    }
}


// ************************************************************************* //
