/*--------------------------------*- C++ -*----------------------------------*\
  =========                 |
  \\      /  F ield         | OpenFOAM: The Open Source CFD Toolbox
   \\    /   O peration     | Website:  https://openfoam.org
    \\  /    A nd           | Version:  6
     \\/     M anipulation  |
\*---------------------------------------------------------------------------*/
FoamFile
{
    version     2.0;
    format      ascii;
    class       surfaceScalarField;
    location    "13";
    object      phi;
}
// * * * * * * * * * * * * * * * * * * * * * * * * * * * * * * * * * * * * * //

dimensions      [0 3 -1 0 0 0 0];

internalField   nonuniform List<scalar> 
1300
(
3.75095
5.62643
-6.21501
3.75095
-6.06044
5.62643
-4.38244
4.38244
-1.45148
1.45148
1.87711
1.87385
-4.38414
4.38414
-4.73483
4.73483
-2.81987
2.81987
-5.24794
5.24794
-5.06901
5.06901
4.7323
-4.7323
-4.90989
4.90989
-1.87777
1.87777
-3.83276
3.83276
3.17646
-3.17646
-5.08685
5.08685
-0.534647
0.534647
-0.554326
4.30528
3.19663
3.19663
-2.54517
2.54517
-4.8613
4.8613
6.22152
-6.22152
9.43093
-9.43093
-3.21592
-3.39975
1.3552
-8.11873
-4.70524
-4.70524
-8.44108
8.44108
-2.81465
2.81178
2.95122
-2.95122
-1.62442
1.62442
-4.42437
0.0419282
-4.42437
4.33579
0.0466456
4.33579
-1.59092
0.139439
-1.59092
4.08823
-4.08823
1.29404
0.157442
1.29404
3.06883
-3.06883
-1.87663
3.75374
1.87432
-1.87238
6.17766
-1.87857
3.75242
-5.02371
5.02371
-4.22802
-0.156115
-4.22802
4.50874
-0.1246
4.50874
-5.23195
5.23195
-4.67075
-0.0640876
-4.67075
4.82093
-0.0860936
4.82093
3.04001
-3.04001
-2.85363
0.0337581
-2.85363
2.77084
0.0490271
2.77084
0.353559
5.27287
-5.97999
8.79177
-5.27287
0.024926
5.21002
0.037922
5.21002
-5.10477
0.0357601
-5.10477
5.0107
0.0583109
5.0107
4.82583
-0.0935333
4.82583
-4.84497
0.112676
-4.84497
-3.31822
-3.36574
-5.00369
0.0937979
-5.00369
-1.92067
0.0429036
-1.92067
1.83574
0.0420294
1.83574
-3.55919
3.55919
-4.03759
0.204833
-4.03759
3.13656
0.0398951
3.13656
1.86704
1.88391
5.61799
-5.61799
2.44154
-5.05206
-0.0347833
-5.05206
-5.12688
-4.30405
5.12688
-0.0400349
-0.838234
0.303587
-0.838234
3.15774
0.0388839
3.15774
2.69525
0.0755987
-2.69525
0.150079
3.45869
-3.45869
1.88018
0.664987
1.88018
-5.56416
5.56416
4.95603
0.0546743
-4.95603
0.0947282
6.15759
0.0639329
6.15759
-6.20716
-0.0143591
-6.20716
3.37598
-6.77573
-3.40542
4.80981
0.100079
-4.80981
0.104574
2.95207
-0.000854053
2.95207
-2.92722
2.92722
-2.98397
0.0327522
-2.98397
-2.08275
0.458334
-2.08275
1.28169
0.342733
1.28169
-4.36928
-0.0550867
-4.36928
-4.2391
0.201512
4.2391
0.0966913
0.713738
-0.713738
-1.71799
0.127071
-1.71799
-4.19254
-0.176743
4.19254
-0.104311
-4.01084
-0.0773861
-4.01084
-3.02942
0.0454531
3.02942
0.0394053
3.1135
0.0442397
-3.1135
0.0446759
-1.8709
3.75481
-1.88006
3.75438
-4.81472
-0.208991
-4.81472
5.16272
-0.139015
5.16272
3.97967
-0.146914
-3.97967
-0.248348
4.59462
-0.0858803
4.59462
-5.23333
0.0013781
-5.23333
5.24837
-0.0164134
5.24837
4.63857
-0.0439503
-4.63857
-0.0321792
4.9145
-0.0935761
4.9145
3.09488
-0.0548762
3.09488
-3.00449
-0.0355181
-3.00449
2.88228
-2.88228
2.87324
0.00904018
-2.87324
0.0196083
-11.1254
11.1111
-0.0368995
-11.0885
5.17312
5.17312
4.26216
0.563671
4.26216
-5.02945
0.184481
-5.02945
3.32632
-6.73174
3.38212
-6.70033
3.35003
-11.4688
3.33486
-6.7006
5.1643
-5.1643
5.08733
0.0769702
-5.08733
0.0836402
-1.96735
0.0466774
-1.96735
-3.0789
-0.480286
-3.0789
3.99576
-0.436573
3.99576
-3.04984
3.04984
-3.09082
0.0409811
3.09082
0.04574
4.99215
-0.0776487
-4.99215
-0.0599128
1.0779
0.216139
-1.0779
0.239664
3.6584
-0.199713
3.6584
-3.28372
-0.174968
-3.28372
-1.92628
-0.0410744
1.92628
-0.0460978
-5.81042
0.246255
-5.81042
-11.1816
0.0930367
-11.1437
-6.11412
-6.11412
2.32696
11.1187
-2.9703
-0.0341927
2.9703
-0.0182257
2.99371
0.0561322
-2.99371
0.0664907
-2.89207
0.00979364
2.89207
0.0351449
-2.48565
0.4029
-2.48565
-0.864373
0.864373
-1.03207
0.167695
1.03207
0.249618
1.02959
-0.315855
1.02959
1.78071
0.0550322
-1.78071
0.0627205
-3.941
-0.0698358
-3.941
5.24044
-0.0777152
5.24044
-3.17013
-0.113585
3.17013
-0.0752512
-0.0350493
11.1461
-5.13807
0.0333009
5.13807
-11.2101
11.2434
-3.21791
0.732252
3.21791
1.04425
5.29208
0.272086
-5.29208
0.262622
5.22261
0.0257622
-5.22261
0.0583039
-2.55377
-0.525128
-2.55377
-4.45808
-0.356635
4.45808
-0.462321
-11.4822
-0.202443
11.6846
-11.4238
6.01286
0.144725
-6.01286
11.3881
-0.684219
-0.0295192
0.684219
0.180155
1.44096
-0.411367
1.44096
3.84004
-0.181636
-3.84004
-0.100968
-5.25001
0.0166799
5.25001
-0.00957378
-1.95702
-0.596758
1.95702
-0.516056
-4.26486
4.30374
1.91281
-3.36111
-3.41462
-7.66516
1.85715
1.89766
4.29868
-7.07638
-4.39239
-6.9718
7.23185
-6.96923
-9.40236
9.30883
7.41413
-7.49152
-5.76877
5.81451
6.4334
-6.39399
1.87934
1.87439
9.06747
-9.22358
-11.9981
11.7891
10.1701
-10.2342
11.0223
-11.0209
-12.5468
12.5725
-5.74812
5.78188
-6.62422
6.5887
-6.80849
6.73324
-3.28642
-3.41392
9.14105
-9.04725
11.7518
-11.7866
-7.30276
7.50759
3.39103
0.912709
3.43527
-1.88257
3.76192
-1.86985
3.78265
3.3958
-6.68222
3.33594
-6.75056
6.07308
5.67871
-6.03305
-1.63211
-5.8401
5.83924
-5.85131
5.88645
8.95866
-8.91674
-1.88334
3.75773
-1.87104
3.76871
-3.41539
-2.35338
3.3755
0.923187
5.60384
3.53721
-5.70391
-1.26789
-7.6171
7.43547
-7.8984
7.72343
-0.456738
5.83985
-5.38311
4.40456
-1.63586
7.47571
5.59599
5.78047
5.86518
-5.59309
1.10405
-6.48716
-6.39243
-2.71466
2.84173
2.67651
-2.51907
5.86073
1.5534
5.75642
-5.47913
-2.01239
-5.54897
3.80498
2.00954
3.84596
4.01842
2.41498
4.06387
3.03883
-3.03683
-0.00199484
-3.05941
6.09823
0.720897
-5.41279
-4.4896
6.35467
2.7128
6.23007
-5.56879
-3.65479
-5.81714
-7.33192
-4.6662
-7.68856
7.39271
4.39642
7.2537
-8.37442
8.36484
6.79478
3.37528
6.70869
-6.68928
-3.54487
-6.72146
10.5667
-2.55295
-8.01372
-7.06243
-5.48435
7.07884
3.94342
7.61109
4.96145
7.6694
3.56001
7.00666
-7.50343
2.01908
-3.83818
-1.90994
-3.81857
3.74889
2.03299
3.79792
-4.1388
-2.48541
-4.173
-4.21223
-2.59627
4.2671
2.3216
-4.31459
-3.58381
4.42818
2.30507
3.08127
-7.47367
3.61933
-7.03324
-6.37216
-2.67508
-6.28852
4.13521
2.6138
-6.74901
-2.54701
10.9297
-5.25097
9.29757
-7.30607
-4.48051
-7.36598
-6.12494
-1.17781
-5.92343
-8.58703
8.0619
-7.84475
7.40818
14.6823
-6.15198
-8.53036
-3.96471
-2.42928
3.92004
-0.484765
-3.71678
3.71478
0.045139
3.82779
4.7405
4.25574
-3.88692
-1.96438
-3.82043
3.87005
2.01641
3.87984
6.70959
2.24907
6.75624
-6.46981
-2.44692
-6.5249
9.06554
-8.60721
2.91508
-2.95616
5.14393
2.57951
-4.94421
-2.67289
6.03243
-3.03973
-2.9927
-12.365
10.8982
1.46674
-4.88925
-0.48469
0.0499576
-5.61236
-3.79
5.49969
0.280785
11.179
7.38901
-5.51654
5.76279
6.16806
6.22274
-0.1697
5.90783
-5.17558
5.21431
-2.39696
-2.81735
5.29216
-5.46891
-1.23273
-5.31757
4.08483
0.287516
1.90552
-1.60193
-2.10686
-0.607802
-2.04414
1.60673
1.06977
1.82287
0.994653
1.84708
-2.91406
0.532553
2.38151
-1.91941
-1.98651
-3.51885
-0.937578
4.45643
5.41641
2.01906
-5.31544
-0.233527
2.76724
-2.72521
-0.830082
-2.68877
1.96543
-2.79552
-3.39506
-1.84674
5.2418
-3.35663
-0.463803
3.3005
0.545462
-3.74439
-2.09571
3.71164
0.352233
-3.12566
6.21779
-3.09214
-5.09004
2.54599
3.55224
4.55552
-4.82371
2.44397
2.37974
-1.27146
5.65683
0.573235
5.57095
-7.73636
4.08157
5.55511
1.95248
-5.4082
-0.408942
-8.14531
10.7875
-7.94582
-2.84164
6.67777
4.10969
6.45775
8.22458
-6.34733
12.8051
1.16119
-9.10701
6.98411
-5.03163
3.70776
-8.73939
-11.9323
2.82532
-7.78219
8.84894
-1.06675
-2.37733
-5.99709
10.1595
-1.1789
-8.98062
6.0748
-5.49152
-5.29605
10.7876
-8.04446
8.84092
-2.85195
-5.98897
-6.99661
-4.02427
6.97993
1.38491
-9.98288
12.002
-2.97622
5.92408
0.784608
5.83051
4.18388
-5.98802
1.80414
3.86058
-6.71253
3.21976
-9.20778
-4.93262
9.62379
-4.69117
-7.6077
-6.81473
-0.792968
2.02649
9.97547
-6.98794
5.35689
1.63105
3.34392
0.535921
-3.35296
-0.465614
0.350799
4.43798
-4.78878
4.14872
4.22432
3.33269
1.10529
3.81514
2.02411
-3.79691
-0.376083
-4.02021
1.42394
-1.69861
-3.52202
4.94596
-3.94869
0.426674
-2.638
-3.49186
6.12987
-4.54794
3.06825
3.14955
5.08465
-4.85135
1.35949
-2.40147
-2.44988
2.5892
-4.28781
1.87186
3.0741
4.17692
0.593116
4.89912
4.72467
-7.51292
0.479678
8.26188
-6.99399
1.72735
5.94205
-7.08424
0.269509
-6.01902
1.09813
-6.3491
-5.65088
4.29104
-5.46886
-4.44835
5.86231
0.89393
-5.959
0.0355669
-5.81084
-2.7762
-6.40759
-2.2639
-5.58085
-8.61123
-2.00076
-6.61047
6.06114
-5.34079
-2.34777
5.80311
1.60507
-7.32083
7.29131
-7.57785
7.16649
0.083035
3.63175
4.33877
1.90949
-2.36029
4.26978
-5.00191
7.25098
-8.64523
3.64332
4.04692
-6.49384
-4.59832
4.94667
4.11887
5.2894
9.05535
-10.5479
1.49259
-10.7737
12.84
-2.06626
-16.7081
5.93442
-7.65277
2.63118
0.283904
2.67785
0.676697
2.33009
-3.00679
-2.27946
-2.32556
-2.26794
-3.2469
5.51485
1.17512
-3.24708
2.07195
-3.4556
4.63073
-0.00546507
-3.24161
5.09323
-2.76314
5.37713
-3.46107
1.91607
3.26929
5.50956
-2.24027
4.16141
-1.5819
1.75839
-3.99866
-1.48851
-2.97747
5.01046
-3.1524
3.57907
-0.221675
3.80075
-3.98665
0.946921
-0.65396
3.57036
3.72043
4.13046
-3.02517
2.86089
-4.44279
-1.13777
-3.84967
-0.775572
-0.637199
-3.68404
4.32124
5.90222
-6.53942
-5.41872
9.61359
-4.19488
7.7152
-5.50919
-2.20601
-4.2847
-4.32251
3.8818
2.02603
9.74122
0.140851
-5.65004
-5.03472
-3.99047
3.18861
2.0257
-2.08234
3.54908
2.03239
-0.126866
0.631293
1.19158
1.88629
-1.255
0.17069
1.7156
-1.43124
2.05121
0.716032
-2.10624
0.0621038
-1.41252
3.37796
0.968985
-2.03876
0.783761
1.02746
-3.42442
4.57167
-2.25469
-2.31698
5.59913
1.24364
-3.49833
4.07393
-3.78641
2.28342
-3.221
-1.21491
-5.00132
-3.44793
-2.41819
4.49015
-3.09665
5.11571
1.09508
-4.88219
5.97727
-3.49731
1.65057
-3.04503
3.76106
-1.13342
-1.91161
2.66152
2.58028
-2.81253
0.123758
-0.15101
2.1901
-2.34111
-0.605416
-2.52482
-4.51836
4.87059
-2.16639
4.61036
2.10338
-1.92688
6.53725
1.83248
-3.75936
-3.25756
-3.72136
-1.37962
3.1759
-1.06482
-5.65664
-7.05379
5.70059
-0.129636
-8.15536
10.103
-1.9476
-5.44256
1.361
5.31677
-7.74005
1.02752
-4.52029
5.58268
6.15591
6.02627
-9.51568
0.535058
-5.11926
2.26061
-7.37987
6.3703
-5.13415
7.95947
-9.276
6.92824
-7.67093
5.11783
-2.26204
5.5874
-3.78326
2.42632
-6.4506
-5.06569
7.01818
-3.6429
7.80279
-4.16844
11.9712
-7.14466
7.01136
4.95987
-1.45538
-5.9106
-6.85362
5.39824
0.157737
5.98824
4.92926
-2.90515
4.55318
2.22005
-4.62152
-2.06776
-6.46439
1.84287
-3.31484
-1.88727
3.73013
3.19739
3.73331
1.28025
-3.26769
6.74356
-7.53653
-2.05239
-3.59849
6.76111
-1.36287
4.0685
-7.66699
-2.2806
6.01632
-0.497816
-5.51851
0.135655
-4.584
0.761897
-5.3459
4.70696
-4.67139
2.20693
-9.8597
-5.1139
-4.93375
-2.41122
-5.16663
-7.74324
5.33202
-1.80882
5.48249
-8.90367
8.40585
-3.93631
9.26833
-5.3854
-1.02219
5.90146
1.26503
10.5334
-0.0403708
-4.55795
-1.82079
3.83152
-2.01073
1.36782
-3.72441
0.107109
2.38097
3.21815
-6.46581
-0.0280318
-4.58598
-3.83141
7.95029
5.78218
11.6844
1.13645
9.19966
-1.24937
10.3361
4.04003
4.28965
-3.19411
4.6867
1.12713
4.77045
-0.834709
2.75077
1.84315
1.88605
0.839161
2.27816
1.44227
3.22508
0.218296
-2.10726
4.69117
-8.68164
-0.958865
-8.11797
1.19085
5.59889
-4.40804
3.00002
-0.97432
0.989289
0.162646
-1.81078
1.64814
-2.6547
-1.93765
-0.222048
-1.5068
2.29056
1.87116
-2.06851
-0.586189
0.235126
-3.68305
2.98587
-2.86211
-0.281832
5.69544
-2.65137
0.31026
-1.0008
-2.21456
-2.82237
2.76026
6.23072
0.306528
3.13858
5.17712
3.08141
0.176259
5.36519
-6.43194
-3.84259
-5.89688
0.473417
5.79019
2.10335
7.87212
7.06322
5.70034
-1.96664
-9.50317
7.90002
-3.21332
5.83376
-0.315249
-5.03065
4.59665
2.65433
-5.49058
0.819187
-4.21146
-7.42479
-0.438306
8.84416
-10.0951
9.07286
6.29667
0.313801
-4.2626
-0.671143
4.09491
0.194739
10.5308
-1.02301
-7.20387
8.22689
-4.57588
3.61702
0.803318
2.74577
2.45146
1.47714
-5.72674
-10.1348
-1.79632
-1.6281
-4.1133
0.343131
-2.21429
6.14506
-2.52804
3.93905
5.69884
6.68813
-2.26463
-4.27479
6.4595
-2.52045
4.16768
)
;

boundaryField
{
    wall-4
    {
        type            calculated;
        value           uniform 0;
    }
    velocity-inlet-5
    {
        type            calculated;
        value           uniform -3.75095;
    }
    velocity-inlet-6
    {
        type            calculated;
        value           uniform -5.62643;
    }
    pressure-outlet-7
    {
        type            calculated;
        value           nonuniform List<scalar> 8(6.21501 6.06044 6.61567 6.76354 6.68396 6.7814 6.70843 6.68489);
    }
    wall-8
    {
        type            calculated;
        value           uniform 0;
    }
    frontAndBackPlanes
    {
        type            empty;
        value           nonuniform 0();
    }
}


// ************************************************************************* //
