/*--------------------------------*- C++ -*----------------------------------*\
  =========                 |
  \\      /  F ield         | OpenFOAM: The Open Source CFD Toolbox
   \\    /   O peration     | Website:  https://openfoam.org
    \\  /    A nd           | Version:  6
     \\/     M anipulation  |
\*---------------------------------------------------------------------------*/
FoamFile
{
    version     2.0;
    format      ascii;
    class       volScalarField;
    location    "97";
    object      p;
}
// * * * * * * * * * * * * * * * * * * * * * * * * * * * * * * * * * * * * * //

dimensions      [0 2 -2 0 0 0 0];

internalField   nonuniform List<scalar> 
918
(
0.53542
1.2209
0.00708067
0.535327
-0.0116629
1.18774
-0.506577
0.632238
0.516572
-0.12108
-0.0846564
0.518465
1.04552
0.812586
-1.16695
-0.0249602
0.631925
-0.418617
0.514642
-0.0959945
0.643504
0.523246
0.525711
0.516496
0.578005
0.765105
0.923524
-0.00371779
0.0126101
0.0072692
-0.0130136
-0.0334499
-0.030756
1.07085
1.12275
1.14612
0.483067
0.317032
-0.401227
-0.456539
-0.433436
-0.523139
0.632989
0.633885
-0.230488
0.63158
0.630467
0.502252
0.515966
0.516802
0.517925
0.516835
0.518113
0.406954
-0.128413
-0.156194
-0.105728
-0.105025
0.0242633
-0.0865456
-0.0876538
-0.0825134
-0.0841298
0.432072
0.513246
0.509915
0.522731
0.531763
1.16107
1.13498
1.16123
1.07062
1.08854
1.02264
0.995849
0.833804
0.857317
0.79583
0.782196
-1.61838
-2.55771
-0.594036
-0.321251
-0.011087
-0.0271605
-0.0265175
0.627607
0.62969
0.629498
0.632516
1.04376
-0.390545
-0.463479
0.515187
0.513718
0.522764
0.523669
0.518636
0.518633
-0.0922351
-0.0909552
-0.0797612
-0.0926425
-0.0909346
0.622882
0.625556
0.515931
0.513373
0.539924
0.562589
0.551158
0.248831
0.588597
0.605
0.629794
0.775513
0.762098
0.774679
0.898789
0.866665
0.955488
0.977329
0.0146446
-0.00194009
-0.0264599
-0.023909
-0.0246018
0.478806
0.472369
0.500631
0.48669
0.489734
0.223336
0.0745632
0.398371
0.421374
-0.325145
-0.376131
-0.459989
-0.458636
-0.566372
0.60367
0.635213
0.634218
-0.241799
-0.169216
-0.297528
-0.110987
-0.16871
0.493195
0.499451
0.495523
0.510922
0.505084
0.507511
0.520033
0.517218
0.518811
0.454467
0.583316
0.332789
0.290582
-0.277435
-0.174519
-0.258216
-0.0972769
-0.0960293
0.0334834
0.061943
0.0112441
-0.00196758
-0.0912632
-0.0886379
-0.0904859
-0.0849953
-0.087401
0.423511
0.410439
0.443335
0.450869
0.499891
0.50129
0.505794
0.50383
0.947821
0.970674
0.976085
0.952076
-3.52699
-6.14263
0.0184444
0.175492
-0.0105262
-0.0123458
-0.000748579
-0.0105213
-0.00191611
-0.00324801
-0.0365821
-0.0360124
-0.0296712
-0.0305537
0.62487
0.625456
1.01259
1.03875
0.984152
0.957511
0.504554
0.506428
0.511048
0.507934
-0.0874741
-0.0894421
-0.0881732
0.628979
0.626871
0.62792
0.207243
0.118011
0.300818
0.332148
0.620581
0.609976
0.619484
0.689693
0.728909
0.993923
1.01679
1.00186
1.01369
1.06401
1.08689
1.05213
0.457361
0.468297
0.462559
0.503434
0.501265
0.502203
0.498875
0.499759
0.49846
-0.0360136
-0.404815
0.469734
0.471016
0.463549
0.466124
0.691266
0.77561
0.630787
0.633167
0.633445
-0.0588016
-0.105938
0.238316
0.201859
0.362394
0.397157
0.378877
0.922826
0.88217
0.93059
0.905675
0.870394
0.894857
-0.340116
-2.09424
-1.09334
0.571469
0.376286
0.467192
-0.0202571
-0.0368085
-0.0337579
1.02735
1.06627
0.649672
0.840941
0.792932
0.751398
0.777719
0.841144
0.773619
0.808337
0.838839
0.814356
0.552044
0.480321
0.499048
0.851167
0.90704
0.0799911
0.000106298
-0.022719
0.0856838
0.157325
0.123725
1.04252
0.960014
1.02257
0.513614
0.514567
-0.022896
-0.0513062
0.518683
0.518394
-0.0241135
-0.0150692
0.482153
-0.932866
0.0805685
0.508242
0.497826
0.514684
-0.100453
0.309695
-0.0889113
0.00198783
-0.0306054
0.509414
0.444457
0.402078
-0.0119033
-0.0353399
-0.087885
-0.214223
0.511353
0.509711
0.514075
0.514892
0.515672
-0.0325223
-0.032863
-0.0222117
-0.0778669
-0.0713342
-0.0840478
0.477934
0.497982
-0.196393
0.51437
0.516477
0.516168
0.510415
0.51533
0.513977
-0.0270339
-0.0299332
-0.0318498
0.18685
0.329172
0.664569
0.738928
0.613764
0.448274
0.15968
0.60228
0.653696
0.579316
0.709716
0.633209
0.63033
0.147429
0.00281148
0.151916
0.0848956
0.505044
0.504499
0.495342
0.49222
0.509531
0.50721
0.512402
0.509665
0.512833
0.513969
-0.0552182
-0.0857293
-0.102578
-0.147441
0.273603
0.539491
0.218021
0.283179
0.142505
-0.0809595
-0.0789665
-0.0840089
-0.087541
-0.0516213
-0.0503717
-0.00478462
0.00660461
-0.0107719
-0.0367398
-0.0595161
-0.0510134
-0.0600671
0.502563
0.502426
0.507743
0.516501
0.454101
0.457802
0.424152
0.442874
0.429029
0.369078
0.398708
0.375856
-0.0219784
-0.0136334
-0.0137769
-0.0366444
-0.0359518
-0.0585412
-0.0516289
-0.0500064
-0.0479604
-0.0526948
-0.0810593
-0.0874952
-0.178305
-0.298698
0.958045
0.900706
0.137195
0.501237
0.506916
0.504078
0.508838
0.512028
0.512653
0.510216
0.506705
0.498117
0.499729
0.496246
0.497287
-0.133681
-0.244745
-0.0751274
-0.152446
0.146068
0.61177
0.336266
0.280779
0.265991
0.49462
0.682016
0.588262
0.642019
0.613057
-0.396327
-0.00144884
-0.332293
0.211771
0.209545
0.691968
0.733498
0.750894
0.707889
0.664401
-0.0218623
0.543371
-0.080533
-0.0281937
0.164735
0.0446519
0.597401
0.618502
0.624795
0.622852
0.626823
0.626574
0.616761
0.603404
0.627516
0.630617
0.488772
0.215055
0.17127
0.12544
0.616943
0.512594
0.563228
0.479459
0.500666
0.5031
0.502078
0.482737
0.490103
0.48576
0.492983
0.496623
0.504005
0.50417
0.49996
0.501931
-0.0779455
-0.0865323
-0.0705117
-0.12824
-0.132054
-0.175271
-0.0923775
0.0875008
0.0368065
0.225615
0.347356
0.0650951
-0.0579941
-0.042523
0.0114836
0.174953
0.171379
0.0450887
0.148446
0.119029
0.102088
0.218872
0.219624
-0.0559246
-0.0647815
-0.0613414
-0.067916
-0.0231389
0.0998466
0.0701286
-0.0368096
-0.04234
-0.0775359
-0.0811955
0.003054
-0.0442866
-0.0371928
-0.0032514
-0.0647602
-0.0392552
-0.0300787
-0.039193
-0.039259
-0.0380342
0.497064
0.498941
0.499047
0.50899
0.520733
0.53564
0.501784
0.47533
0.466346
0.469447
0.442532
0.451751
0.447059
0.4629
0.484411
0.492898
0.490974
0.493687
0.475694
0.477397
0.462761
0.467406
0.436643
0.417778
0.407603
-0.0610191
-0.0289131
-0.0422467
-0.0537075
-0.0289039
-0.0377262
-0.0383238
-0.0194852
-0.0393224
-0.0338562
-0.0433199
-0.0503997
-0.0511557
-0.0807266
0.000851187
-0.1842
-0.231022
-0.285372
0.879901
1.0183
0.809361
0.571625
0.584591
0.829036
0.938188
0.529147
0.755326
0.758052
0.569708
0.862844
0.505209
0.504781
0.502629
0.501791
0.502809
-0.0202378
0.0840087
0.093677
0.154497
0.270075
0.374718
0.310905
0.197036
0.329583
0.354431
0.608778
0.614994
0.573232
0.595983
0.598164
0.403672
0.484528
0.52204
0.479016
0.554613
0.588045
0.53174
0.575731
0.497168
0.446343
0.437578
0.392788
0.427304
0.408466
0.382774
0.496976
0.47384
0.484588
0.474881
0.496888
0.521835
0.522567
0.544169
0.561051
0.475636
0.421239
0.438209
0.467434
0.423105
0.440774
0.46285
0.185185
0.0866932
0.249826
-0.077604
0.0059503
0.0476884
0.00375604
-0.0373436
0.269208
-0.366069
-0.312192
-0.985596
0.492646
0.8198
0.540332
0.551741
0.624482
0.612527
0.620285
0.618993
0.625694
0.604164
0.61364
0.618721
0.590247
0.611106
0.598413
0.608662
0.490772
0.390578
0.395274
0.325207
0.185497
0.228004
0.415481
0.349205
0.275418
0.267849
0.445589
0.309954
0.389974
0.439836
0.362147
0.298137
0.526045
0.573015
0.566307
0.538495
0.41622
0.450424
0.451058
0.501926
0.546135
0.56927
0.491545
0.497828
0.498739
0.496014
0.494382
0.497503
0.497791
0.500087
0.50022
0.502812
0.502309
-0.0780397
-0.0635999
-0.075367
-0.084471
-0.0190022
-0.0302723
-0.0053568
-0.0326053
-0.0341522
-0.0302334
-0.0469592
-0.0621008
-0.0602675
-0.050377
0.0654174
0.0777996
0.0892674
0.0428789
0.254441
0.39128
0.485994
0.34603
0.195338
0.216608
0.279105
0.0276275
0.00614447
-0.00771395
0.0669509
0.0594047
-0.0682658
-0.0738841
-0.0723884
-0.0561207
-0.0489388
-0.0774301
-0.0812776
-0.0684184
-0.075739
-0.0800068
-0.0848713
0.477002
0.469909
0.473524
0.465933
0.464097
0.481008
0.485593
0.486701
0.492298
0.494807
0.484375
0.490202
0.494332
-0.0405161
-0.0582485
-0.0574097
-0.0614627
-0.0580264
-0.0561906
-0.0609209
0.123602
0.0288689
0.0655524
-0.00550458
-0.132974
-0.0737058
0.497461
0.489026
0.476034
0.717193
0.553012
0.471466
0.569748
0.691305
0.271986
0.471222
0.306554
0.884229
0.790921
0.936559
0.551024
0.250907
0.424055
0.430878
0.272007
0.397707
0.334831
0.210522
0.245735
0.281661
0.365599
0.250539
0.229904
-0.0134389
0.169217
0.278047
0.25997
0.385869
0.441659
0.262829
0.177661
0.123208
0.590417
0.607287
0.615791
0.587351
0.608097
0.564648
0.556644
0.57357
0.5837
0.576419
-0.620068
-0.209089
-1.40813
-0.827414
-0.375704
0.520305
0.525317
0.743253
0.642013
0.647106
0.629072
0.583443
0.56353
0.593014
0.604452
0.31404
0.398954
0.385267
0.36175
0.308209
0.250738
0.524246
0.534116
0.555761
0.584007
0.559523
0.587639
0.49031
0.49015
0.48883
0.485089
0.483592
0.486843
0.0135908
-0.0082554
0.0231788
0.0109325
-0.0080968
-0.00971629
-0.0490285
-0.0614781
-0.0608736
-0.0570356
-0.046001
-0.0445645
0.170944
0.108104
0.0192898
0.0607967
-0.00708448
-0.0838641
-0.0902571
0.00151492
0.101257
0.081882
0.386733
0.655234
0.480446
0.646444
0.444634
0.543047
0.4588
0.432372
0.459264
0.366076
0.457131
0.0592038
-0.143251
-0.198054
0.814036
0.778544
0.55567
0.316381
0.194278
0.48204
0.503227
0.463143
0.498143
0.541063
0.531792
0.0274444
0.11116
0.204034
0.507282
0.279003
0.298888
0.288532
0.456248
0.424042
)
;

boundaryField
{
    wall-4
    {
        type            zeroGradient;
    }
    velocity-inlet-5
    {
        type            zeroGradient;
    }
    velocity-inlet-6
    {
        type            zeroGradient;
    }
    pressure-outlet-7
    {
        type            fixedValue;
        value           uniform 0;
    }
    wall-8
    {
        type            zeroGradient;
    }
    frontAndBackPlanes
    {
        type            empty;
    }
}


// ************************************************************************* //
