/*--------------------------------*- C++ -*----------------------------------*\
  =========                 |
  \\      /  F ield         | OpenFOAM: The Open Source CFD Toolbox
   \\    /   O peration     | Website:  https://openfoam.org
    \\  /    A nd           | Version:  6
     \\/     M anipulation  |
\*---------------------------------------------------------------------------*/
FoamFile
{
    version     2.0;
    format      ascii;
    class       surfaceScalarField;
    location    "97";
    object      phi;
}
// * * * * * * * * * * * * * * * * * * * * * * * * * * * * * * * * * * * * * //

dimensions      [0 3 -1 0 0 0 0];

internalField   nonuniform List<scalar> 
1300
(
3.75095
5.62643
-3.30398
3.75095
-7.75808
5.62643
-4.29289
4.29289
-0.398099
0.398099
1.87651
1.87445
-2.43281
2.43281
-1.6753
1.6753
-2.52558
2.52558
-5.24819
5.24819
-5.06895
5.06895
4.69295
-4.69295
-6.35173
6.35173
-0.967252
0.967252
-3.5868
3.5868
3.17235
-3.17235
-1.73948
1.73948
0.114673
-0.114673
-0.554081
4.30503
3.19687
3.19687
-1.98652
1.98652
-4.87534
4.87534
6.22174
-6.22174
5.19869
-5.19869
-1.8947
-2.53361
1.78717
-11.446
-5.9709
-5.9709
-8.44087
8.44087
-2.81444
2.81199
2.94734
-2.94734
-1.71356
1.71356
-4.31096
0.018062
-4.31096
4.26215
0.0307411
4.26215
-0.512214
0.114115
-0.512214
3.96533
-3.96533
0.300118
0.0979807
0.300118
3.06734
-3.06734
-1.87685
3.75335
1.87411
-1.8721
6.17713
-1.87886
3.7533
-6.04157
6.04157
-2.68221
0.249401
-2.68221
2.19773
0.235087
2.19773
-6.90362
6.90362
-1.76869
0.0933903
-1.76869
1.68372
-0.00842706
1.68372
2.88863
-2.88863
-2.62599
0.100405
-2.62599
2.39114
0.134445
2.39114
0.35305
5.27338
-5.97948
8.79147
-5.27338
0.0251924
5.21021
0.0379747
5.21021
-5.10541
0.0364621
-5.10541
5.01385
0.055106
5.01385
4.77961
-0.0866628
4.77961
-4.81464
0.121695
-4.81464
-3.3547
-4.08494
-6.51301
0.161287
-6.51301
-1.03731
0.0700608
-1.03731
0.861139
0.106113
0.861139
-3.72317
3.72317
-3.94679
0.359992
-3.94679
3.12729
0.0450589
3.12729
1.86812
1.88284
5.61907
-5.61907
2.44672
-1.66524
-0.0742326
-1.66524
-1.83274
-3.36594
1.83274
-0.0932684
-0.120407
0.23508
-0.120407
3.15713
0.0397418
3.15713
2.23702
0.154116
-2.23702
0.250503
3.30379
-3.30379
1.32941
0.657114
1.32941
-5.55855
5.55855
4.96232
0.0515301
-4.96232
0.0869784
6.15659
0.0651511
6.15659
-6.20695
-0.0147845
-6.20695
2.4807
-5.01431
-2.69372
6.16205
0.189675
-6.16205
0.191149
2.91893
0.0284056
2.91893
-2.91762
2.91762
-2.9843
0.0369605
-2.9843
-2.13643
0.422867
-2.13643
1.39938
0.31418
1.39938
-4.22623
-0.0847272
-4.22623
-4.10634
0.159552
4.10634
0.155808
1.11429
-1.11429
-0.613599
0.101384
-0.613599
-4.07273
-0.1535
4.07273
-0.107402
-3.90222
-0.0631066
-3.90222
-3.02196
0.0376656
3.02196
0.0453711
3.11213
0.0449989
-3.11213
0.044796
-1.87099
3.75383
-1.87996
3.75406
-5.67523
-0.366339
-5.67523
6.36462
-0.323046
6.36462
3.10718
0.479621
-3.10718
0.424965
2.01414
0.183588
2.01414
-6.87586
-0.027766
-6.87586
6.91146
-0.00783624
6.91146
1.87341
0.140724
-1.87341
0.104727
1.67074
0.0129821
1.67074
2.91641
-0.0277752
2.91641
-2.88219
-0.00643952
-2.88219
2.78835
-2.78835
2.71328
0.0750665
-2.71328
0.0872914
-11.1249
11.1101
-0.0363065
-11.0886
5.17391
5.17391
4.23152
0.548094
4.23152
-5.01296
0.198313
-5.01296
2.67031
-5.36403
3.12947
-6.48417
4.67454
-16.1205
4.27577
-8.36071
6.76369
-6.76369
6.64539
0.118298
-6.64539
0.13238
-1.14059
0.103275
-1.14059
-3.12886
-0.594309
-3.12886
4.36593
-0.64276
4.36593
-3.02728
3.02728
-3.07617
0.0488864
3.07617
0.0511178
1.65171
0.0190317
-1.65171
-0.013534
0.202216
0.097902
-0.202216
0.0818096
3.52778
-0.223988
3.52778
-3.09809
-0.2057
-3.09809
-1.23454
0.0939477
1.23454
0.0948715
-5.80739
0.248849
-5.80739
-11.1823
0.0937713
-11.1444
-6.11318
-6.11318
2.32769
11.1192
-2.89737
0.0151811
2.89737
0.0215602
2.97433
0.0529519
-2.97433
0.0567109
-2.85569
0.067345
2.85569
0.0619271
-2.50445
0.368023
-2.50445
-1.01614
1.01614
-1.16271
0.146575
1.16271
0.23667
1.41765
-0.303363
1.41765
0.745661
0.115478
-0.745661
0.132062
-3.84515
-0.0570719
-3.84515
6.59709
-0.232468
6.59709
-2.9686
-0.129487
2.9686
-0.0521979
-0.0347414
11.1448
-5.13916
0.0337507
5.13916
-11.21
11.2437
-3.20933
0.704874
3.20933
1.02219
5.28352
0.275024
-5.28352
0.270565
6.85369
0.0577661
-6.85369
0.0900003
-2.63729
-0.491567
-2.63729
-5.09209
-0.583146
5.09209
-0.726159
-11.4823
-0.202187
11.6845
-11.4272
6.00958
0.147004
-6.00958
11.3907
-0.988197
-0.126089
0.988197
0.0279399
1.75877
-0.341126
1.75877
3.74747
-0.219686
-3.74747
-0.0976824
-6.76206
-0.113791
6.76206
-0.164976
-2.18812
-0.449179
2.18812
-0.429341
-4.26739
4.30713
1.90974
-2.31461
-2.6997
-5.68055
1.85531
1.89852
4.30203
-10.1374
-5.98309
-9.9463
7.21498
-6.94442
-9.31397
9.22731
7.94824
-8.01135
-5.77724
5.82836
6.48483
-6.43946
1.87949
1.87386
8.08058
-7.83118
-15.6776
15.3113
7.66896
-7.57557
15.8079
-15.8356
-17.8442
17.902
-5.70542
5.80582
-6.74289
6.73645
-6.97984
6.92765
-2.79583
-3.68834
13.1049
-12.9436
8.66983
-8.74406
-8.69539
9.05538
3.38462
0.922516
3.42962
-1.88177
3.76126
-1.87153
3.78127
2.78927
-5.5851
2.57476
-5.27446
4.42467
4.24516
-4.3314
-1.34915
-5.92887
5.95727
-5.80981
5.87173
9.20129
-9.18322
-1.88498
3.75885
-1.86908
3.7676
-3.42279
-2.35445
3.37773
0.924303
8.05531
5.04962
-8.24499
-1.70131
-8.03357
7.81388
-8.21742
8.01172
-0.436169
5.83861
-5.40244
4.43917
-1.65344
7.49205
5.56154
5.75985
5.86074
-5.58571
1.08368
-6.48613
-6.39915
-2.20902
2.31041
2.04574
-1.94776
6.16245
1.78579
6.05505
-5.81407
-2.19728
-5.87114
3.81965
2.00871
3.86853
4.08223
2.4026
4.11989
3.02941
-3.03687
0.00746222
-3.05943
6.08884
0.721979
-5.41389
-4.48958
4.99569
3.08489
5.23078
-5.60894
-2.22224
-5.18397
-9.57155
-6.10608
-10.1547
10.1564
5.15486
9.83339
-11.9353
11.7703
4.90876
2.7602
4.90033
-4.98552
-2.59005
-4.8808
11.6621
-2.65757
-9.00458
-10.3211
-7.52317
10.3289
5.47897
10.9604
6.9416
11.0504
4.41807
7.24408
-9.89704
2.37387
-3.86586
-1.83956
-3.77856
3.66485
2.14097
3.79929
-4.21888
-2.52401
-4.2037
-4.29525
-2.6846
4.32302
2.41343
-4.41766
-3.79976
4.54715
2.3805
4.06099
-10.0441
4.29972
-7.98806
-9.19226
-3.75138
-9.05988
3.58905
2.59873
-6.18778
-1.99605
8.61967
-4.37451
7.27051
-5.23069
-3.51338
-5.24422
-6.98488
-1.71051
-6.82533
-8.90535
8.41378
-9.18028
8.53752
12.4877
-5.62774
-6.85998
-3.96704
-2.47241
3.92225
-0.492631
-3.71006
3.71752
0.0512012
3.83247
4.75499
4.26236
-3.88283
-1.92698
-3.82612
3.82226
2.04948
3.8896
6.86832
2.33297
6.89906
-6.63121
-2.55202
-6.71593
9.08116
-8.65829
2.78803
-2.69408
5.38029
2.63143
-5.1563
-2.87727
6.22973
-3.20675
-3.02298
-12.3506
10.7807
1.56997
-4.8586
-0.419428
-0.534101
-5.56355
-3.75043
5.44185
0.318003
11.0987
7.34826
-5.51466
5.76351
6.16982
6.22135
-0.177802
5.87601
-5.17114
5.27975
-2.73454
-2.54521
5.48961
-5.64311
-1.22632
-5.56747
4.34115
0.411938
1.43656
-1.20148
-1.74493
-0.464094
-1.61287
1.08746
0.958279
1.18536
0.959448
1.35096
-2.94048
0.482685
2.45779
-1.98103
-1.46508
-3.8131
-1.15118
4.96428
5.73978
2.0741
-5.6421
-0.229041
2.5496
-2.44348
-0.837529
-2.97558
2.21898
-3.05651
-3.45512
-1.96118
5.4163
-3.36885
-0.457273
3.3159
0.552639
-3.82825
-2.10062
3.79129
0.328605
-3.12899
6.19034
-3.06135
-5.05596
2.52906
3.55978
4.53777
-4.78988
2.44927
2.34061
-1.2301
4.26118
0.969591
4.44477
-7.09656
4.87432
5.74717
3.30822
-6.22679
1.04281
-6.05375
8.53963
-7.39789
-1.14174
4.07162
4.46801
7.00435
5.48337
-5.69848
12.7028
-1.16009
-6.2378
7.21384
-3.90562
4.87588
-8.78151
-10.3593
4.12145
-9.19148
11.0794
-1.88791
-3.58376
-8.35152
12.7752
-1.2494
-11.5258
8.58399
-4.36193
-4.43354
8.79546
-7.01949
7.02358
-1.98491
-5.03867
-10.1426
-5.69304
10.2564
1.51393
-9.96597
12.3398
-2.72189
4.16424
0.736091
4.17723
3.37309
-5.47739
2.1043
3.6464
-5.63132
2.04841
-7.52581
-6.74775
12.0851
-5.33735
-10.4991
-9.53311
-0.966027
2.54846
9.79138
-9.49005
7.4243
2.06576
3.29869
0.590916
-3.37375
-0.40481
0.232718
4.50659
-4.73931
4.03201
4.18613
3.21576
1.29083
3.84953
2.10774
-3.87109
-0.332612
-4.1687
1.4841
-1.75527
-3.69298
5.17708
-4.06175
0.368771
-2.74156
-3.49255
6.23411
-4.58112
3.03561
3.15472
5.08509
-4.91413
1.42158
-2.39074
-2.5234
2.64017
-4.39544
2.00121
3.17588
4.38171
0.581948
5.90852
6.17657
-8.50725
0.519198
11.2262
-9.52489
2.47571
8.57469
-9.9
0.366898
-8.69298
0.983492
-5.358
-5.20429
5.23796
-6.94847
-3.54355
6.26532
0.633738
-6.42113
-0.404197
-6.05109
-2.85426
-6.50027
-3.03194
-6.14834
-8.73043
-1.67113
-7.05929
6.74265
-6.70143
-3.45326
7.42759
1.10993
-7.4636
7.33751
-7.52026
7.17914
0.0951292
3.62239
4.35749
1.88507
-2.39229
4.27736
-5.08736
7.42033
-8.7715
3.68413
4.25405
-6.80607
-4.51744
5.04468
4.03648
5.35886
8.90461
-10.3553
1.45071
-10.6228
11.9627
-1.33987
-16.3922
5.76937
-7.4876
2.41358
0.37445
2.51685
0.543565
2.50355
-3.04711
-2.15052
-2.05565
-2.44742
-3.49245
5.93987
1.05922
-3.47382
2.4146
-3.56317
4.62239
-0.0803533
-3.39346
5.18432
-2.68078
5.55877
-3.64352
1.91525
3.54896
5.84088
-2.29192
4.41902
-1.78759
1.9507
-4.24262
-1.54176
-2.95405
5.09503
-3.28006
3.64883
-0.35572
4.00455
-4.04006
0.833307
-0.824292
3.36183
3.61234
4.33214
-3.04132
2.93346
-4.72106
-1.30916
-4.13911
-0.963235
-0.182551
-3.7704
3.95295
5.98917
-6.17172
-5.27512
9.51083
-4.2357
7.68938
-5.43165
-2.25772
-4.27968
-4.37861
3.91166
1.96435
9.65373
0.177183
-5.60884
-4.99396
-3.97176
3.09063
2.18911
-1.70239
3.27235
2.23649
-0.79993
0.401041
0.784323
1.75846
-1.35741
0.335347
1.42311
-0.866133
1.68627
0.863326
-1.80175
0.18888
-1.37776
3.59674
1.08003
-2.03831
0.680893
0.8959
-3.63044
5.10396
-2.7374
-2.36656
5.99986
1.149
-3.8864
4.41848
-4.00654
2.45862
-3.60979
-1.42778
-5.43432
-3.64853
-2.47991
4.89451
-3.45996
5.53406
1.43939
-5.30502
6.74441
-3.63098
1.6698
-3.0501
3.91342
-0.991412
-2.05868
2.87363
2.54267
-3.1441
0.168525
-0.270471
2.41569
-2.68616
-0.640815
-2.62184
-4.57618
4.90479
-2.10378
4.55306
2.17358
-1.91778
6.47084
1.80757
-3.72535
-3.24839
-3.70566
-1.38474
3.15303
-0.569541
-4.31126
-5.60821
4.17053
0.274241
-7.07557
7.94728
-0.871712
-3.99068
-0.883643
4.95527
-6.09865
0.467333
-4.05024
3.89705
4.86664
5.14088
-11.2941
-0.231717
-6.13927
1.09387
-7.23314
5.56188
-3.5048
7.62625
-10.308
6.8547
-9.19803
6.48451
-0.748624
6.24069
-4.13639
2.76389
-8.45693
-6.943
5.6012
-2.841
6.33729
-3.23257
9.56986
-5.95446
5.39423
4.17564
-1.04818
-4.19604
-5.39444
4.34626
-0.000218361
4.17701
4.98719
-2.87945
4.65458
2.26487
-4.65561
-2.13057
-6.48894
1.83333
-3.33421
-1.92242
3.75575
3.16266
3.75358
1.23236
-3.34877
7.24939
-8.21541
-1.91204
-3.29225
5.38835
-1.04208
3.48303
-6.77527
-1.87497
4.73383
-0.72196
-4.01187
0.893906
-4.43745
1.67614
-6.11359
5.27233
-5.67653
2.25352
-9.74112
-5.21008
-5.18214
-2.2767
-5.24357
-7.55996
5.28326
-1.79058
5.54693
-8.49509
7.77313
-3.46761
8.75088
-5.4472
-1.05306
5.87654
1.30259
10.0535
0.165715
-4.68316
-1.94242
3.71622
-1.7738
1.14821
-3.60469
0.111538
2.49919
3.50068
-6.84034
0.0342723
-4.64889
-3.90316
7.93964
5.60766
11.5968
1.24152
9.12404
-1.1844
10.3656
4.17446
4.41113
-2.99583
4.44655
0.957117
4.64125
-0.895801
2.81105
1.62105
1.69111
0.752368
2.29717
1.31517
3.13048
0.0833657
-1.97228
4.62825
-8.60001
-0.980591
-8.05191
1.17539
5.43542
-4.26003
2.84614
-0.657029
1.07234
-0.202512
-1.12037
1.32288
-2.74772
-1.9203
-0.497191
-1.68706
2.36795
1.90968
-1.87076
-0.876962
0.325865
-3.9744
3.28393
-3.1154
-0.572734
6.17167
-2.88624
0.200076
-1.21644
-2.42177
-2.88586
2.69698
6.17454
0.296299
3.11319
5.20108
3.10047
0.221023
3.80954
-5.69745
-3.71627
-5.92917
-0.36729
4.58798
1.76529
8.02609
5.94093
4.89884
-1.87643
-10.0918
6.49708
-2.05053
5.1572
-1.14533
-4.96826
5.08499
2.33534
-5.71873
0.0422019
-4.92606
-6.97659
-0.47697
8.2501
-9.5765
8.52344
5.66917
1.39012
-4.42434
-0.757799
4.27777
0.133364
10.4989
-0.919653
-7.02644
7.94609
-4.51577
3.53518
0.674889
2.59747
1.99777
1.34074
-5.6857
-9.94573
-2.06449
-1.56595
-4.43105
0.533228
-2.44291
6.06167
-2.52649
3.80395
5.4196
6.49194
-2.0504
-4.12132
6.28611
-2.48216
4.00978
)
;

boundaryField
{
    wall-4
    {
        type            calculated;
        value           uniform 0;
    }
    velocity-inlet-5
    {
        type            calculated;
        value           uniform -3.75095;
    }
    velocity-inlet-6
    {
        type            calculated;
        value           uniform -5.62643;
    }
    pressure-outlet-7
    {
        type            calculated;
        value           nonuniform List<scalar> 8(3.30398 7.75808 4.42831 9.65883 7.43964 5.17442 5.79978 8.9503);
    }
    wall-8
    {
        type            calculated;
        value           uniform 0;
    }
    frontAndBackPlanes
    {
        type            empty;
        value           nonuniform 0();
    }
}


// ************************************************************************* //
