/*--------------------------------*- C++ -*----------------------------------*\
  =========                 |
  \\      /  F ield         | OpenFOAM: The Open Source CFD Toolbox
   \\    /   O peration     | Website:  https://openfoam.org
    \\  /    A nd           | Version:  6
     \\/     M anipulation  |
\*---------------------------------------------------------------------------*/
FoamFile
{
    version     2.0;
    format      ascii;
    class       volVectorField;
    location    "97";
    object      U;
}
// * * * * * * * * * * * * * * * * * * * * * * * * * * * * * * * * * * * * * //

dimensions      [0 1 -1 0 0 0 0];

internalField   nonuniform List<vector> 
918
(
(0.985049 -0.000715723 0)
(0.00543963 2.96618 0)
(-0.00450424 0.872319 0)
(0.979575 0.00196193 0)
(-0.0147344 2.06441 3.31319e-20)
(-0.00719064 2.9486 -2.5447e-18)
(0.822752 1.1254 4.47622e-19)
(0.118159 0.0861401 -1.41133e-20)
(0.999922 -0.000246177 0)
(0.0937404 0.674036 0)
(0.020327 0.350779 0)
(0.73297 0.00868684 0)
(0.0101829 2.93181 0)
(0.00326183 2.79442 0)
(-0.00289056 3.17553 8.26577e-19)
(-0.0131248 1.93316 2.44827e-20)
(0.296069 0.0456243 9.85801e-19)
(0.235139 1.112 3.52303e-19)
(0.964311 0.0067428 0)
(-0.00371245 0.330512 0)
(0.0574024 -0.0743564 -6.38893e-19)
(1.00183 -0.00455932 0)
(0.99985 -0.00892599 0)
(0.975169 -0.00605169 0)
(0.591873 0.028099 0)
(0.0208117 2.64502 0)
(-0.0121782 2.91149 9.30945e-19)
(-0.00668459 0.923689 0)
(-0.037063 1.1718 0)
(-0.00423598 0.891014 0)
(-0.0252502 2.58318 0)
(-0.00559006 2.11561 -2.64643e-20)
(-0.0103614 1.90461 0)
(-0.0219317 2.98768 -9.16396e-23)
(-0.0163826 3.00545 1.97492e-18)
(0.00231052 3.00043 0)
(0.871985 -0.00976551 0)
(0.371837 0.908936 1.66137e-19)
(0.821623 1.14414 -5.59485e-19)
(0.954138 1.01051 5.71204e-19)
(0.683948 1.22711 -1.02403e-19)
(0.697429 1.18701 5.84011e-19)
(0.14815 0.126474 1.37668e-20)
(0.15226 0.0936952 0)
(1.17029 0.533096 0)
(0.115631 0.108299 6.19422e-20)
(0.0931993 0.0711607 -6.4285e-20)
(0.92057 -0.00704511 0)
(1.00027 5.10235e-05 0)
(0.999907 0.000320744 0)
(1.0037 -0.00727984 0)
(1.00088 -0.000950248 0)
(1.00011 -5.40441e-06 0)
(0.0777701 1.83358 -7.70886e-19)
(0.0332675 0.847141 0)
(0.129501 0.764604 0)
(0.0185539 0.787032 0)
(0.0553991 0.589482 0)
(0.00575027 2.03677 0)
(-0.00714026 0.683984 0)
(0.0126733 0.403315 0)
(-0.0135626 0.678092 0)
(0.0120863 0.350839 0)
(0.843787 -0.0156293 0)
(0.842169 0.0259526 0)
(0.757162 0.00563059 0)
(0.79994 0.0275116 0)
(0.701791 0.0199114 0)
(0.0137987 3.00031 9.44533e-19)
(0.010939 3.00667 0)
(0.00585945 3.00352 0)
(0.0118433 2.99746 1.07196e-23)
(0.00802068 2.95884 -1.4038e-18)
(0.0122264 2.98281 0)
(0.00923215 2.90492 0)
(0.0210089 2.93147 2.16809e-24)
(0.00380355 2.82437 0)
(0.0260285 2.91881 0)
(-0.000653964 2.74514 0)
(0.30393 3.56833 0)
(-0.122103 3.65087 0)
(0.147925 3.26603 -7.69266e-19)
(0.00234888 3.00516 0)
(-0.0341049 1.99076 0)
(-0.00731368 2.18216 -2.41467e-20)
(-0.00885644 1.9462 2.56552e-20)
(0.348122 0.139091 -3.42422e-19)
(0.324082 0.0161684 -3.32849e-19)
(0.301469 0.157875 -1.02297e-18)
(0.262521 0.0673491 -6.6524e-19)
(0.265618 1.02536 0)
(0.334915 1.24383 -3.65644e-19)
(0.416842 1.15459 6.03606e-19)
(0.987686 0.00817365 0)
(0.94319 0.00577132 0)
(1.00028 0.000672095 0)
(1.00254 0.00906617 0)
(1.0031 0.0089992 -2.63478e-18)
(0.992135 0.00941075 1.99095e-18)
(-0.0254211 0.700263 0)
(0.00200736 0.337044 0)
(-0.0573645 1.01474 0)
(-0.039027 0.762378 0)
(-0.0209624 0.334828 0)
(-0.0800254 0.0691702 1.98707e-19)
(0.0349395 0.0561784 0)
(0.993626 -0.00769191 0)
(0.954055 -0.00648449 0)
(0.742138 0.0269187 0)
(0.672763 0.0259537 0)
(0.659886 0.0276645 0)
(0.980813 -0.0023654 0)
(0.583547 0.0655516 0)
(0.454814 -0.00981648 1.49838e-18)
(-0.0410943 2.86002 7.23526e-19)
(0.0338715 2.91431 0)
(0.0427962 2.89273 0)
(0.00319513 2.70251 0)
(-0.0087518 2.98638 8.89255e-19)
(-0.0138939 2.89425 0)
(-0.0109856 2.9915 -2.74127e-18)
(-0.0116384 2.92901 9.34024e-19)
(-0.0555468 1.35419 0)
(-0.0218641 1.38362 0)
(-0.00814776 2.14321 8.70659e-22)
(-0.00822535 2.10183 0)
(-0.0170441 1.91669 0)
(0.938928 -0.00519258 0)
(0.857349 -0.0111672 0)
(0.862616 0.00570856 0)
(0.949706 -0.00613209 0)
(0.883712 -0.00810352 0)
(0.494892 1.10853 -2.10761e-19)
(0.542493 1.17865 0)
(0.333824 0.843166 3.20595e-20)
(0.278971 0.708168 0)
(0.923063 1.03981 -1.61383e-19)
(1.04624 0.849812 3.25449e-19)
(0.395211 1.32235 0)
(0.546011 1.27814 0)
(0.600202 1.20439 0)
(0.104247 0.179478 -2.99857e-19)
(0.173835 0.140197 0)
(0.171448 0.10871 1.84901e-19)
(1.00917 0.903798 0)
(1.08477 0.751527 0)
(1.11445 0.686597 -2.613e-19)
(1.15051 0.597136 0)
(1.20667 0.391334 4.76074e-20)
(0.957532 -0.00709342 0)
(0.96275 -0.00810779 0)
(0.900942 -0.00737844 0)
(0.983934 -0.008121 0)
(0.97444 -0.0080293 0)
(0.936557 -0.00656699 0)
(1.0002 0.00250676 0)
(1.00078 0.00123767 0)
(1 0.000759174 0)
(0.0388197 2.08432 4.23665e-19)
(0.142507 1.78131 0)
(0.0166917 2.18952 6.59604e-19)
(0.0519459 1.8917 -5.40117e-19)
(0.16862 1.08696 -2.89029e-19)
(0.0514153 0.935095 0)
(0.12377 0.941899 0)
(0.00534451 0.749458 0)
(0.0316917 0.515763 0)
(-0.00254282 2.26132 -3.06939e-22)
(0.0213025 2.04287 0)
(-0.00448436 2.26088 -4.04525e-21)
(0.0036467 2.04921 -5.62579e-21)
(-0.00106584 0.718946 0)
(-0.00410781 0.697493 0)
(0.0154175 0.453175 0)
(-0.0164795 0.681174 0)
(0.00545955 0.346769 0)
(0.939593 0.0139216 0)
(0.856623 -0.0115326 0)
(0.928733 0.00490718 0)
(0.846363 -0.0127924 0)
(0.80906 0.00219507 0)
(0.899351 0.019897 0)
(0.875339 0.0230224 0)
(0.78251 0.00294655 0)
(0.0100585 3.06786 -8.77733e-21)
(0.015613 3.05789 0)
(0.012307 2.96998 0)
(0.00762725 2.87674 0)
(0.892488 3.96001 0)
(1.18564 3.35683 9.32476e-19)
(0.0801292 3.08806 0)
(-0.0182143 2.91668 0)
(-0.0206901 1.41135 0)
(-0.0392451 1.70279 0)
(-0.0285289 1.5408 0)
(-0.0353069 2.54515 -1.57172e-20)
(-0.0215966 2.24396 0)
(-0.0259374 2.38679 0)
(8.58673e-05 1.97632 -3.48985e-22)
(-0.00522432 2.256 -3.16303e-20)
(-0.0064039 2.22039 -2.63089e-20)
(-0.00502639 1.9595 0)
(0.391295 0.115686 5.24443e-19)
(0.363277 0.00938678 -5.14737e-19)
(0.230815 1.58836 0)
(0.29005 0.770553 -3.25348e-19)
(0.179169 1.68483 -1.06909e-18)
(0.247517 1.23001 1.07017e-18)
(0.90157 0.00598334 0)
(0.966977 0.0107149 0)
(0.97484 0.00989321 0)
(0.922922 0.00586006 0)
(-0.0230267 0.684143 0)
(-0.0223398 0.6903 0)
(0.00263145 0.332235 0)
(0.0838273 0.0970276 5.67383e-19)
(0.0584576 0.0722894 -6.63433e-19)
(0.0561099 0.0594345 0)
(1.10868 0.0911637 2.39192e-20)
(1.09224 0.0430158 0)
(1.01953 0.0440094 0)
(0.914441 -0.00121758 0)
(0.435384 0.0984337 0)
(0.495206 0.0796785 -2.39707e-18)
(0.399963 0.00663661 8.98333e-19)
(0.0102852 2.97708 7.70026e-19)
(-0.0331043 2.86109 4.59935e-20)
(0.00830311 3.05363 -1.85374e-20)
(0.016393 3.04265 6.90108e-19)
(-0.0117597 2.9999 3.07328e-20)
(-0.012442 2.95201 -1.23763e-22)
(-0.0150988 3.01307 -5.73499e-19)
(0.0153279 3.02553 4.08422e-19)
(0.00804843 3.03582 -6.64071e-19)
(0.934791 0.00216544 0)
(0.939568 -0.00110103 0)
(0.848245 -0.0112024 0)
(0.956228 0.0117774 0)
(0.942295 0.0131754 0)
(0.881354 0.00572583 0)
(0.915893 0.0172925 0)
(0.925126 0.0150041 0)
(0.83643 0.00327678 0)
(0.667743 1.40678 1.32853e-20)
(0.685902 1.51727 0)
(0.11717 0.285669 6.74743e-20)
(0.212673 0.649846 5.33396e-19)
(0.238333 0.687665 -3.12928e-19)
(0.211575 0.488582 6.21592e-19)
(0.341248 0.831277 1.58728e-18)
(0.136099 0.236247 3.81416e-19)
(0.258419 0.168589 7.05616e-19)
(0.211717 0.160926 1.82148e-19)
(0.219825 0.096221 3.4657e-19)
(1.19743 0.448698 9.73819e-20)
(1.22166 0.246956 9.46671e-20)
(0.00755631 2.24476 2.45866e-19)
(0.0392718 1.96279 0)
(0.973339 0.0332464 0)
(0.947001 0.0193388 0)
(0.871581 -0.0150416 0)
(0.0129929 3.07334 0)
(0.0166968 2.94387 1.22392e-18)
(0.013811 2.95653 0)
(0.0056792 2.85013 -1.21448e-18)
(0.00991492 3.08944 2.98785e-19)
(0.0111392 3.08394 0)
(0.704876 1.81251 -1.68714e-19)
(1.22977 2.61684 5.70786e-19)
(0.689629 1.99051 -1.38546e-18)
(0.0217725 2.97595 -6.67636e-19)
(0.0398015 2.99732 0)
(-0.0387014 2.87794 0)
(-0.00614513 2.24125 -1.37665e-20)
(-0.00481426 2.26173 6.29615e-20)
(0.000277207 2.01234 -7.13239e-21)
(0.268188 1.40214 1.0321e-18)
(0.28889 0.574394 -7.08335e-19)
(0.0686197 2.00196 7.49066e-19)
(0.118502 1.87411 -9.03795e-19)
(0.208881 1.53856 1.04177e-19)
(0.00611566 3.12033 -1.65776e-18)
(0.013338 3.12071 1.82628e-18)
(-0.00524864 2.98044 8.30777e-19)
(-0.00145874 2.97498 -7.95052e-19)
(-0.0175438 2.87702 -8.46182e-19)
(0.0117847 3.10066 -2.21782e-18)
(0.0055422 3.1054 2.25167e-18)
(0.268439 0.69644 0)
(0.218575 0.655587 -1.13882e-18)
(0.0748293 0.209445 5.012e-19)
(0.347521 0.95258 1.12776e-18)
(0.201085 0.281652 -1.73694e-18)
(1.19997 0.176933 4.73618e-20)
(1.2184 0.306582 0)
(1.19543 0.12189 1.00744e-20)
(-0.000292259 2.27001 -1.09009e-21)
(0.00392033 2.25386 0)
(0.0322626 2.0004 0)
(0.31288 1.31695 -3.69996e-19)
(0.354359 1.17944 -8.02956e-19)
(0.234643 0.393738 1.43672e-18)
(1.00644 -0.00967882 0)
(1.00774 -0.00778155 4.84267e-19)
(-0.0489989 1.33714 0)
(-0.058206 1.34507 0)
(1.00244 0.00326666 1.33376e-21)
(1.0032 0.00781018 9.94182e-19)
(-0.0265744 2.53218 1.99193e-20)
(-0.0290762 2.57476 0)
(0.0398494 3.17209 4.70436e-19)
(0.371975 3.53627 0)
(1.15988 0.695851 -4.95569e-20)
(1.01176 0.0106279 -2.86225e-21)
(1.02089 -0.00898705 0)
(1.00157 0.000290978 1.57537e-22)
(0.119251 1.37715 0)
(0.152479 2.58639 0)
(0.033796 1.32598 0)
(0.0011465 2.63154 -1.09617e-20)
(-0.021713 2.57846 -1.50042e-20)
(0.998425 0.0312194 2.72805e-21)
(1.06302 0.00591415 0)
(1.1002 0.0285001 0)
(-0.0375518 1.75037 0)
(-0.0200711 2.57736 0)
(-0.0137855 1.33242 0)
(0.30952 1.49378 -1.72033e-19)
(1.01152 -0.00904985 0)
(1.00971 -0.012983 0)
(1.00227 0.000930093 6.20051e-19)
(1.00547 -0.00491036 -7.31131e-19)
(1.00113 -0.000863059 0)
(-0.0266599 1.47729 0)
(-0.0147416 1.40244 0)
(-0.0222727 1.44014 0)
(-0.017055 1.31775 0)
(-0.0339406 1.30834 0)
(-0.0267234 1.2896 0)
(1.03571 -0.00428656 0)
(1.01905 0.0156902 -9.67341e-22)
(0.813905 1.31543 2.8276e-19)
(1.00246 0.000391832 -6.19907e-19)
(1.00339 0.00444006 7.39857e-19)
(1.00126 0.00208816 0)
(1.01104 0.00962543 6.17429e-19)
(1.00682 0.00744106 -7.5146e-19)
(1.0071 0.0111067 0)
(-0.025307 2.60432 0)
(-0.0290259 2.58313 -3.50901e-20)
(-0.0255911 2.59742 2.46789e-20)
(1.24297 0.27439 5.20293e-19)
(1.16365 0.089393 0)
(0.0435361 3.09148 -9.43079e-19)
(0.0519769 2.87409 -6.68696e-20)
(0.102752 3.20178 1.2607e-18)
(0.121068 3.21366 -2.66491e-19)
(0.13979 3.25541 0)
(0.0224768 3.13766 2.59118e-19)
(0.0607219 3.16197 9.39466e-19)
(0.0611253 3.1787 -4.84772e-19)
(0.0268171 3.12947 0)
(0.539634 0.288733 0)
(0.477584 0.305546 0)
(1.143 0.727419 1.09614e-19)
(1.10744 0.864039 -9.0723e-20)
(1.20009 0.613083 0)
(1.22691 0.546709 0)
(1.01569 0.0120362 -1.14691e-18)
(1.01462 0.0127886 1.44202e-18)
(1.02578 -0.00871219 0)
(1.02411 -0.0102834 0)
(1.00682 0.00328874 0)
(1.01088 0.00422332 0)
(1.00418 0.0022202 0)
(1.00931 0.00633448 0)
(1.00682 0.00503796 0)
(1.00436 0.00524841 0)
(0.108675 1.37742 0)
(0.0967049 1.33492 0)
(0.143762 1.42407 0)
(0.146743 1.40792 0)
(0.148102 2.60722 0)
(0.183269 2.67508 -4.06425e-19)
(0.0950981 2.65687 0)
(0.0859121 2.65109 1.75824e-19)
(0.0242613 2.67417 -1.55026e-19)
(0.0213954 1.33438 0)
(0.0313078 1.25082 0)
(0.0241039 1.3506 0)
(0.0484811 1.27226 0)
(-0.00194951 1.99348 4.51443e-20)
(-0.0214999 2.60697 -4.631e-20)
(-0.00454034 2.67397 -3.99376e-20)
(-0.0183765 2.68629 0)
(-0.0238145 2.61268 4.41711e-20)
(-0.0221972 2.6082 4.70796e-20)
(0.00421593 1.98933 -3.54265e-20)
(-0.0103248 2.39634 6.2127e-20)
(-0.0147831 2.42233 4.5273e-20)
(1.0113 0.0403711 1.16302e-18)
(1.00479 0.0211524 -1.44782e-18)
(1.00356 0.04737 -1.18783e-18)
(0.976175 0.0377173 1.49604e-18)
(1.0647 0.00925475 0)
(1.04994 -0.0064199 0)
(1.0927 0.0378886 0)
(1.07589 0.0151017 0)
(1.07467 0.000492106 0)
(1.14125 0.079808 0)
(1.11582 0.0465355 0)
(1.11932 0.0374918 0)
(-0.0321577 2.42898 4.30225e-21)
(-0.0231681 2.02407 0)
(-0.0242022 2.21929 0)
(-0.0221857 2.59818 -2.24438e-20)
(-0.0186639 2.60948 7.33284e-22)
(-0.00363492 1.59869 -6.31954e-20)
(-0.015415 1.52138 6.45941e-20)
(-0.0247571 1.4139 0)
(-0.0297261 1.42033 0)
(-0.0357535 1.40981 0)
(-0.00774622 1.33537 0)
(0.00911843 1.24738 0)
(0.38695 1.51849 2.86963e-19)
(0.435622 1.52276 1.5328e-19)
(0.591918 2.45975 -2.49293e-19)
(0.380822 2.54789 7.29136e-19)
(0.349392 2.0467 6.89641e-20)
(1.02072 -0.00798879 0)
(1.0158 -0.00934572 0)
(1.01486 -0.0132038 0)
(1.00775 -0.000548167 0)
(1.00484 -0.000693197 0)
(1.008 -0.00446503 0)
(1.00954 -0.00342983 0)
(1.01465 -0.00426688 0)
(1.01979 0.0164676 1.12532e-18)
(1.01718 0.0151053 -1.42996e-18)
(1.0202 0.0189586 -1.13419e-18)
(1.01759 0.0174524 1.42123e-18)
(0.770284 1.36213 0)
(0.70885 1.39816 2.47394e-19)
(0.878342 1.24307 1.0276e-19)
(0.914752 1.20268 -1.36381e-19)
(1.16112 2.60633 2.78771e-19)
(0.747846 0.131286 5.84415e-19)
(1.17201 0.108286 0)
(1.21496 0.20301 -4.22454e-19)
(1.19647 0.154419 -1.75853e-20)
(1.01115 0.166743 0)
(0.0753086 3.01836 3.37573e-19)
(0.0814394 2.90323 -1.10708e-18)
(0.0230215 2.36135 7.01571e-19)
(0.159524 -0.272673 -3.06262e-19)
(0.340101 3.44056 -2.52344e-19)
(0.191517 3.33716 0)
(0.221956 3.39227 3.28707e-19)
(0.219718 3.07543 -1.17835e-18)
(0.252323 3.19329 0)
(0.00644139 3.12239 4.90873e-20)
(0.0168885 3.13113 -5.66118e-19)
(0.0159051 3.1269 8.33223e-19)
(0.032928 3.14006 0)
(0.030938 3.14956 0)
(1.25297 2.56897 0)
(0.542688 0.790895 -5.20708e-19)
(1.02777 1.03819 -1.5136e-20)
(0.994431 1.0908 0)
(0.86343 0.972371 -1.05982e-19)
(1.08725 0.913561 2.66054e-20)
(0.281149 0.309606 -7.64008e-19)
(0.629849 0.325486 -2.27434e-20)
(0.519654 0.21707 3.92532e-19)
(0.511328 0.314531 2.80213e-20)
(0.375519 0.262232 -1.11752e-18)
(0.583473 0.324264 0)
(0.676091 0.439303 6.78499e-19)
(0.691127 0.452772 0)
(0.539371 0.320697 0)
(0.443691 0.25033 0)
(0.796674 0.661003 3.99997e-19)
(1.25468 0.308636 -4.22636e-19)
(1.24795 0.440905 0)
(1.24807 0.395974 0)
(0.683181 0.186446 5.96018e-19)
(0.846973 0.562231 -3.7117e-19)
(0.767601 0.520808 6.62326e-19)
(0.964931 0.456081 -6.61887e-19)
(1.01853 0.014796 7.66712e-19)
(1.0171 0.0136899 -7.7183e-19)
(1.01583 0.0143164 0)
(1.03709 -0.004504 0)
(1.03049 -0.00768201 -7.22605e-19)
(1.0287 -0.0105708 7.15101e-19)
(1.02476 0.0110158 0)
(1.02272 0.0151097 0)
(1.01271 0.00476629 0)
(1.0146 0.00909416 0)
(1.01645 0.00426905 0)
(1.01558 0.00294906 0)
(0.078817 1.36426 0)
(0.0815944 1.30403 0)
(0.157922 1.42669 5.41341e-20)
(0.277561 1.48997 8.31801e-20)
(0.177905 1.46163 1.8655e-19)
(0.213081 1.45836 -3.02263e-19)
(0.162592 1.43657 0)
(0.144598 1.58338 -8.48296e-20)
(0.141338 1.58046 0)
(0.350059 1.99931 -1.00405e-19)
(0.315566 2.33856 6.09905e-19)
(0.195856 1.46925 7.3917e-20)
(0.276945 1.40569 2.63795e-20)
(0.206909 1.40498 -2.15734e-20)
(0.291235 1.34346 -8.39107e-20)
(0.258274 1.57744 0)
(0.266044 1.62426 9.32392e-20)
(0.0187956 2.24159 -1.28419e-20)
(0.0358595 2.66728 0)
(0.0561342 2.39251 9.77556e-20)
(0.0481495 2.41882 0)
(0.0645826 2.67412 -2.1092e-19)
(0.0418448 2.70078 0)
(0.027157 1.46602 6.27631e-20)
(0.0315774 1.52296 0)
(0.0353927 1.42555 0)
(0.0269045 1.43498 -7.17954e-20)
(0.00503245 2.65868 5.72324e-21)
(0.0270142 2.68798 1.79383e-19)
(0.0124429 2.73206 8.6909e-22)
(0.00386288 1.84754 -2.85023e-20)
(-0.00484753 1.70011 -1.98096e-20)
(0.0192553 1.31525 0)
(0.0277799 1.22688 0)
(0.0425046 1.5939 4.63892e-22)
(0.0434371 1.47388 -5.57368e-20)
(0.0254759 1.55875 5.609e-20)
(0.0560527 1.6152 0)
(-0.0319388 2.26841 1.35126e-19)
(-0.0351329 2.54576 -5.71983e-20)
(-0.0207875 2.44611 1.04691e-20)
(-0.00382273 1.86297 3.45505e-20)
(-0.028131 2.50096 1.48857e-20)
(-0.0225974 2.4431 -3.82656e-20)
(1.01831 0.0224992 -7.70791e-19)
(1.01489 0.0289611 7.74469e-19)
(1.01228 0.0183464 0)
(1.0096 0.0709736 1.07668e-18)
(0.990446 0.0607646 -1.21626e-18)
(0.950064 0.0559828 1.36185e-18)
(1.01262 0.115664 -1.44351e-19)
(1.04403 -0.0046393 0)
(1.05224 -0.000383962 6.92293e-19)
(1.04033 -0.00814728 -6.91916e-19)
(1.07232 0.043856 -4.10454e-20)
(1.06502 0.0292099 3.54596e-19)
(1.0641 0.0658228 0)
(1.05436 0.0550736 -1.27729e-19)
(1.03216 0.04392 0)
(1.02616 0.0388084 0)
(1.02765 0.0136655 0)
(1.02403 0.0163932 0)
(1.0406 0.0337901 2.62497e-19)
(1.03931 0.0285463 -5.81021e-19)
(1.05319 0.0388692 -2.77703e-19)
(1.04823 0.0387568 -3.06404e-19)
(1.07783 0.0706746 5.86297e-19)
(1.10179 0.0567819 0)
(1.10847 0.0956897 0)
(-0.0298233 2.27424 7.79931e-20)
(-0.0329912 2.02909 4.53229e-21)
(-0.0280449 2.03903 0)
(-0.0311489 2.44247 -7.76264e-20)
(-0.0296723 2.40137 -8.6565e-21)
(-0.0359835 2.46865 1.03589e-20)
(-0.02153 2.6203 -4.00816e-20)
(-0.0271928 2.56226 2.29922e-21)
(-0.0255392 2.51586 -1.357e-20)
(-0.0175912 2.61331 2.55343e-20)
(-0.0214544 2.61563 -2.97074e-20)
(-0.0125592 1.52769 -1.06104e-21)
(-0.00717559 1.64498 -6.48541e-20)
(0.378381 1.45431 -1.22637e-19)
(0.3735 1.38475 1.68277e-20)
(0.650224 1.44589 -2.39393e-19)
(0.52554 1.51556 -1.48897e-19)
(0.579503 1.47461 0)
(0.605714 2.4178 2.18258e-19)
(0.665919 2.42691 3.39782e-19)
(0.412875 2.51073 9.48826e-20)
(0.398006 2.53655 -6.06075e-19)
(0.502035 2.47509 5.67199e-19)
(0.552493 2.47058 0)
(0.483465 2.52092 -5.58958e-19)
(0.253159 2.59701 1.11607e-18)
(0.366152 2.55599 -7.42882e-20)
(0.283977 2.65594 -1.5886e-18)
(0.970233 2.38443 7.15387e-19)
(0.847892 2.3849 0)
(1.01141 0.00139772 2.51446e-20)
(1.01537 -0.00515426 -2.05456e-20)
(1.01779 -0.00388546 -3.75558e-19)
(1.01564 -0.00101636 3.74254e-19)
(1.01313 0.00184773 0)
(0.638369 1.30714 0)
(0.682925 1.19224 0)
(0.798323 1.12271 0)
(0.670348 1.14924 0)
(1.19227 2.62192 5.15234e-20)
(1.08439 2.37272 0)
(0.815392 2.16402 3.59929e-21)
(0.820527 2.42617 0)
(0.91525 2.51681 -4.38531e-19)
(0.946543 2.46618 2.92815e-19)
(0.782976 0.162877 0)
(0.726382 0.143343 1.58222e-19)
(0.906472 0.163418 9.24906e-19)
(0.813784 0.145162 -3.45199e-19)
(0.754738 0.0914962 -1.06972e-18)
(1.08778 0.247834 -8.41682e-19)
(0.985235 0.316694 -9.79098e-21)
(0.927602 0.354787 8.13125e-19)
(1.01392 0.261111 6.92109e-19)
(0.930427 0.2078 -1.2208e-18)
(0.887579 0.220313 1.53381e-19)
(0.929688 0.321364 -3.17738e-19)
(0.904219 0.224982 0)
(1.00002 0.209435 5.97292e-19)
(1.05506 0.219286 0)
(1.05267 0.231302 0)
(1.12593 0.125769 2.67873e-19)
(1.0654 0.195835 -1.06687e-20)
(1.07932 0.249387 -1.53262e-19)
(1.11302 0.213122 0)
(1.02227 0.0482912 5.93173e-19)
(1.03695 0.0626461 7.40372e-19)
(1.03272 0.0461053 -5.89108e-19)
(1.04136 0.0693082 -4.96413e-19)
(1.01512 0.0763535 -7.60206e-19)
(0.984066 0.170442 0)
(0.987351 0.108077 0)
(0.962343 0.0742241 -4.84597e-19)
(0.898062 0.0998636 1.94059e-19)
(1.03881 0.116589 6.86653e-19)
(1.0761 0.138095 -7.84182e-19)
(1.07073 0.182431 7.0505e-19)
(1.03554 0.158767 0)
(1.0862 0.123499 0)
(1.0568 0.113259 -3.21852e-19)
(1.04254 0.109241 -5.58058e-19)
(0.587414 1.07932 1.20638e-19)
(0.607956 1.39753 -2.2035e-20)
(1.14289 2.71436 -2.49865e-19)
(1.19494 3.09848 3.68179e-21)
(1.25 2.72247 -1.27865e-19)
(1.28893 2.69246 2.26853e-20)
(1.26336 2.31474 -3.83766e-20)
(1.18237 3.00356 -7.67176e-20)
(1.2022 2.96048 2.28006e-19)
(1.17622 3.2512 -1.20099e-19)
(1.39328 2.96404 1.50802e-19)
(1.40441 2.89821 0)
(0.579241 0.815801 -4.80925e-20)
(0.19634 1.21197 4.64176e-19)
(0.528953 0.321508 4.96423e-19)
(0.411415 0.0877272 5.64437e-19)
(0.442984 0.290184 6.32702e-19)
(0.545695 0.416162 -1.02786e-18)
(0.557918 0.397375 8.42263e-19)
(0.44609 0.292408 -3.09278e-19)
(0.26156 0.225635 7.13515e-19)
(0.715686 0.257638 -3.43844e-19)
(0.660705 0.290986 0)
(0.594404 0.195698 7.89496e-21)
(0.727376 0.515422 3.58879e-19)
(0.699084 0.492264 -1.30031e-18)
(0.631292 0.44041 1.15681e-20)
(0.608813 0.418585 0)
(0.722964 0.722823 3.69102e-19)
(0.839471 0.803798 4.08277e-19)
(0.777511 0.853477 -4.75568e-19)
(0.907885 0.824017 -1.50271e-19)
(0.943403 0.86744 -3.49027e-20)
(0.950797 0.874929 3.5801e-20)
(0.884271 0.684829 -6.61226e-19)
(0.957264 0.730092 1.39711e-19)
(1.01311 0.732014 0)
(1.01118 0.706743 -1.78668e-19)
(1.03017 0.342504 2.09928e-19)
(1.15941 0.343499 2.54282e-19)
(1.07436 0.285462 3.44161e-19)
(0.99904 0.390287 -4.20168e-19)
(1.05818 0.491908 0)
(1.1401 0.431988 0)
(0.900227 0.428854 -5.03614e-22)
(0.845079 0.324388 0)
(0.891912 0.314965 3.88613e-19)
(0.913487 0.353297 3.16265e-21)
(0.988059 0.503589 1.84801e-18)
(0.919034 0.562454 4.76397e-19)
(0.943741 0.520818 -5.03395e-19)
(0.861102 0.495315 5.36429e-19)
(0.824678 0.469807 3.42742e-19)
(0.800883 0.449825 -3.35828e-19)
(1.0282 -0.000364519 6.2057e-19)
(1.02051 0.000607719 0)
(1.01913 0.00141719 4.04974e-19)
(1.0227 -0.000713195 -9.16705e-19)
(1.02258 0.00462177 4.46584e-19)
(1.02004 0.0116707 -9.3478e-19)
(1.0208 0.0114993 0)
(1.01971 0.0122717 -1.94677e-19)
(1.01662 0.00783451 4.87813e-19)
(1.01671 0.0109632 -2.45298e-19)
(1.01732 0.0106717 1.79677e-19)
(0.037682 1.33894 0)
(0.0443013 1.40299 0)
(0.0564695 1.342 0)
(0.0627827 1.27601 0)
(0.0875099 1.40555 -6.25058e-20)
(0.0946107 1.3781 1.252e-20)
(0.0870256 1.576 4.07465e-21)
(0.10833 1.41504 -4.06386e-20)
(0.0444819 1.48869 4.60273e-20)
(0.0488307 1.48344 -3.62712e-20)
(0.0755252 1.40194 -2.54218e-20)
(0.0646083 1.40384 7.13168e-20)
(0.0620628 1.38705 1.17749e-20)
(0.0481889 1.40445 7.86964e-21)
(0.101062 2.35562 -1.0689e-19)
(0.088609 2.40727 0)
(0.150278 2.00667 9.88936e-20)
(0.133108 1.70095 3.30986e-20)
(0.224739 1.99734 -8.23311e-20)
(0.189295 2.42626 0)
(0.256589 2.36221 -6.53745e-19)
(0.313051 2.3508 4.59575e-19)
(0.249061 1.97859 -2.0468e-19)
(0.13939 2.14326 1.47592e-19)
(0.11605 2.26044 0)
(0.014895 1.84311 -4.57197e-20)
(-0.0047696 2.36318 -2.72085e-21)
(0.00472515 2.12148 0)
(0.005597 2.4264 -1.71575e-20)
(0.0175073 2.25826 3.34936e-20)
(0.0121331 1.44169 -1.28551e-20)
(0.0121709 1.42342 2.18619e-19)
(0.00963154 1.43508 -7.02989e-20)
(0.0212208 1.44432 -6.26611e-20)
(0.024117 1.46948 0)
(0.00720631 1.42034 0)
(0.00229432 1.31677 -9.07687e-20)
(0.00191368 1.4103 2.6417e-20)
(0.00883465 1.40894 0)
(0.0124406 1.30717 -6.82281e-20)
(0.0236159 1.21624 1.37652e-19)
(1.04247 0.0150674 0)
(1.04902 0.0105559 -6.47361e-20)
(1.03918 0.0245684 -4.68064e-19)
(1.04961 0.0234549 0)
(1.05467 0.0226779 0)
(1.03637 0.0130437 -6.74931e-21)
(1.03021 0.0134608 7.54095e-19)
(1.03197 0.0174639 9.14416e-19)
(1.02563 0.0211499 0)
(1.02225 0.0218001 0)
(1.03567 0.0259845 4.67009e-19)
(1.02582 0.0282278 0)
(1.02369 0.0280287 0)
(-0.0199947 2.0299 0)
(-0.0113106 1.67121 -2.35501e-21)
(-0.00913019 1.77274 -3.57307e-20)
(-0.00598818 1.41766 0)
(-0.00840835 1.57899 -3.77437e-20)
(-0.0175874 1.49408 2.2977e-20)
(-0.0151436 1.43602 0)
(0.402836 1.61829 0)
(0.367665 1.32255 -2.87516e-20)
(0.275084 1.34615 0)
(0.4376 1.32049 -3.6641e-20)
(0.473541 1.48033 0)
(0.459166 1.42177 4.03129e-20)
(1.03971 2.66553 -1.52052e-20)
(0.984484 2.4034 -8.98489e-19)
(0.94631 2.20393 1.00532e-18)
(0.864406 2.37696 2.4299e-19)
(0.852033 2.48178 0)
(0.920945 2.47693 0)
(0.954044 2.37707 0)
(0.929866 2.36789 -9.41469e-19)
(0.690498 2.44605 -3.80407e-19)
(0.799714 2.42981 -9.82572e-20)
(0.806789 2.40813 7.40619e-20)
(0.70339 2.39798 0)
(0.808644 2.39136 0)
(0.7692 2.40803 -3.68505e-19)
(0.764883 2.46046 0)
(0.633287 1.07023 0)
(0.514205 0.853 -5.64869e-19)
(0.523394 0.930842 -3.29679e-20)
(0.500745 1.06634 0)
(0.488364 0.97304 8.62737e-19)
(0.805179 0.888739 -1.3256e-19)
(0.808894 1.02403 0)
(0.790201 1.00737 1.81359e-19)
(0.678665 1.02342 0)
(0.669793 0.927323 0)
(1.16132 2.7507 -2.19569e-19)
(1.13659 2.80935 -8.94384e-20)
(0.920857 2.33241 7.53677e-20)
(0.89775 2.3129 -7.60102e-20)
(1.13094 2.72813 0)
(1.08317 2.69596 9.12682e-20)
(1.09799 2.48965 -2.95699e-19)
(0.999343 2.2487 -2.78166e-20)
(0.495231 1.32497 0)
(0.515523 1.07449 -1.06237e-19)
(0.596439 1.18519 0)
(0.848772 0.233341 0)
(0.752545 0.17923 0)
(0.657869 0.142322 0)
(0.852663 0.232947 -6.12913e-19)
(0.739284 0.226927 3.59418e-19)
(0.917157 0.0898893 -4.00506e-19)
(0.922358 0.135045 0)
(0.904545 0.151664 1.73699e-19)
(0.837021 0.109698 6.9548e-19)
(0.79219 0.0765481 -4.35715e-19)
(1.09223 3.34136 -6.65274e-19)
(1.16095 3.26548 0)
(1.11018 3.4258 -1.56104e-18)
(0.653162 3.57253 1.29823e-18)
(1.02018 3.07303 1.17388e-19)
(0.533779 0.77241 5.7013e-19)
(0.511056 0.738593 0)
(0.341857 0.319264 -1.42257e-19)
(0.497906 0.630805 8.47975e-19)
(0.570633 0.320905 -1.82673e-19)
(0.5255 0.454811 2.19727e-19)
(0.688049 0.527045 4.56006e-19)
(0.730377 0.565901 0)
(0.674178 0.567085 0)
(0.661649 0.539425 0)
(1.01997 0.617074 8.82297e-20)
(0.972207 0.600868 -4.61513e-19)
(0.983617 0.61287 3.50923e-19)
(1.04734 0.554558 -3.39839e-19)
(1.09294 0.523357 0)
(1.09498 0.604777 -8.91755e-20)
(0.885748 0.425096 -7.64237e-19)
(0.87362 0.408972 -9.8656e-19)
(0.796128 0.419031 6.03424e-19)
(0.81009 0.378773 -6.28639e-19)
(0.85342 0.337065 -4.93551e-19)
(0.795985 0.341769 6.04507e-19)
(1.02661 0.00673245 -4.67357e-19)
(1.02624 0.00685356 9.41788e-19)
(1.02998 0.000955225 6.01397e-19)
(1.03418 0.00159465 -7.22153e-19)
(1.03401 0.011904 0)
(1.02981 0.0120483 -1.18046e-18)
(0.0821937 1.64615 9.83771e-21)
(0.0680278 1.60611 0)
(0.106308 1.70431 3.76342e-20)
(0.120954 1.68057 -3.21841e-20)
(0.0745652 1.57177 -7.55933e-21)
(0.0643982 1.57589 0)
(0.00864534 1.70726 0)
(-0.00641977 1.53018 2.02308e-20)
(-0.00575655 1.47373 -1.81667e-20)
(-0.0121854 1.5766 3.42101e-21)
(-0.000996278 1.8955 3.01402e-20)
(-0.0133133 1.95046 -1.20362e-20)
(0.493133 1.35787 -2.66353e-19)
(0.496014 1.3521 2.91296e-19)
(0.451828 1.31249 -1.46889e-20)
(0.428327 1.29016 7.84028e-21)
(0.631469 1.31428 0)
(0.557374 1.40864 1.13398e-19)
(0.558309 1.41157 -1.10364e-19)
(0.487964 1.30174 1.41771e-20)
(0.52841 1.25336 0)
(0.592731 1.21907 0)
(0.66425 2.40961 5.60106e-19)
(0.660008 2.43939 1.27923e-18)
(0.715221 2.45454 -8.79798e-19)
(0.613276 2.42678 -2.00824e-19)
(0.556795 2.51962 2.74572e-19)
(0.497523 2.48638 -7.08282e-19)
(0.991436 2.38206 -5.66603e-19)
(1.02252 2.3996 0)
(0.94909 2.1871 -6.18722e-19)
(1.05421 2.67693 0)
(1.05305 2.65777 0)
(0.595838 2.28303 -1.97088e-21)
(1.11502 3.06541 6.7247e-20)
(0.991049 2.9611 -1.13674e-19)
(0.313143 0.776849 0)
(0.309479 0.647322 -3.03903e-19)
(0.521179 0.586701 -3.07176e-19)
(0.357637 2.12409 0)
(0.399814 2.74361 -8.2652e-20)
(0.408892 2.47752 0)
(0.732196 0.693499 -7.85279e-19)
(0.797621 0.703691 1.09979e-18)
(0.79754 0.664801 -1.10347e-18)
(0.706344 0.648257 -9.95715e-20)
(0.757757 0.608526 -4.17981e-19)
(0.96573 2.74813 -5.09269e-20)
(1.01159 2.75664 -2.14952e-19)
(0.545904 2.19705 4.52545e-19)
(0.599905 1.73013 -3.56468e-19)
(0.698713 1.84862 -4.99966e-19)
(0.973471 2.38933 -1.38887e-19)
(0.97407 2.34268 3.70909e-19)
(0.639933 1.75555 3.38359e-20)
(0.447079 1.29059 1.76456e-19)
)
;

boundaryField
{
    wall-4
    {
        type            noSlip;
    }
    velocity-inlet-5
    {
        type            fixedValue;
        value           uniform (1 0 0);
    }
    velocity-inlet-6
    {
        type            fixedValue;
        value           uniform (0 3 0);
    }
    pressure-outlet-7
    {
        type            zeroGradient;
    }
    wall-8
    {
        type            noSlip;
    }
    frontAndBackPlanes
    {
        type            empty;
    }
}


// ************************************************************************* //
