/*--------------------------------*- C++ -*----------------------------------*\
  =========                 |
  \\      /  F ield         | OpenFOAM: The Open Source CFD Toolbox
   \\    /   O peration     | Website:  https://openfoam.org
    \\  /    A nd           | Version:  6
     \\/     M anipulation  |
\*---------------------------------------------------------------------------*/
FoamFile
{
    version     2.0;
    format      ascii;
    class       volScalarField;
    location    "6.5";
    object      Ma;
}
// * * * * * * * * * * * * * * * * * * * * * * * * * * * * * * * * * * * * * //

dimensions      [0 0 0 0 0 0 0];

internalField   nonuniform List<scalar> 
5250
(
2.99988
2.99968
2.99906
2.99806
2.99474
2.98938
2.97199
2.94088
2.85614
2.66322
2.26424
1.42193
0.362248
0.143655
0.0927908
0.29627
0.350915
0.318429
0.256737
0.197997
0.160275
0.129262
0.0963081
0.0625669
0.0432667
2.99988
2.99968
2.99907
2.99806
2.99476
2.98942
2.97209
2.94111
2.85665
2.66448
2.26654
1.4266
0.367212
0.14114
0.103628
0.303311
0.355235
0.321881
0.26133
0.205475
0.169925
0.140505
0.110287
0.0821198
0.0685324
2.99988
2.99969
2.99908
2.99808
2.9948
2.98951
2.97232
2.94161
2.85776
2.66731
2.27175
1.43823
0.379775
0.133441
0.12226
0.314146
0.362403
0.328543
0.270597
0.220354
0.189225
0.163584
0.138542
0.117645
0.108618
2.99988
2.99969
2.99909
2.99811
2.99487
2.98965
2.97268
2.9424
2.85952
2.67186
2.28025
1.45731
0.400108
0.123159
0.146048
0.327977
0.372708
0.339458
0.285766
0.242463
0.216652
0.195672
0.176392
0.161464
0.155657
2.99989
2.9997
2.9991
2.99814
2.99497
2.98985
2.97317
2.9435
2.86198
2.67822
2.2922
1.484
0.428152
0.114032
0.173739
0.344508
0.385739
0.354143
0.305746
0.269681
0.249412
0.233078
0.218915
0.208887
0.205449
2.99989
2.9997
2.99913
2.99819
2.99509
2.99009
2.97381
2.94492
2.86516
2.68644
2.30775
1.51889
0.464245
0.112258
0.204991
0.363648
0.401204
0.372169
0.330036
0.301163
0.286631
0.275478
0.266352
0.260467
0.25932
2.99989
2.99971
2.99915
2.99824
2.99524
2.9904
2.97459
2.94666
2.86897
2.69671
2.3267
1.56302
0.511634
0.124771
0.240297
0.385784
0.419435
0.393746
0.358965
0.337271
0.328215
0.322665
0.319502
0.31931
0.321741
2.9999
2.99972
2.99919
2.99831
2.99541
2.99077
2.97547
2.94877
2.87344
2.70777
2.34968
1.60162
0.569579
0.155985
0.278736
0.408108
0.439207
0.418493
0.391592
0.377618
0.374926
0.375822
0.38049
0.388915
0.399549
2.9999
2.99974
2.99922
2.99838
2.99561
2.99119
2.9765
2.95122
2.87868
2.72075
2.37687
1.64751
0.641031
0.204651
0.319547
0.428016
0.460037
0.445953
0.428104
0.421361
0.425294
0.434824
0.451768
0.476042
0.509033
2.99991
2.99975
2.99926
2.99847
2.99585
2.99168
2.97772
2.95398
2.88485
2.73569
2.40825
1.70243
0.721532
0.268011
0.36205
0.446893
0.481551
0.475801
0.467704
0.468562
0.479238
0.500349
0.536537
0.590658
0.692305
2.99991
2.99977
2.99931
2.99857
2.99612
2.99223
2.97914
2.95706
2.89198
2.75283
2.44384
1.76657
0.811811
0.344559
0.401981
0.464716
0.503098
0.506479
0.506411
0.514759
0.535885
0.572903
0.632219
0.72912
0.880181
2.99992
2.99979
2.99937
2.99869
2.99643
2.99287
2.98078
2.96064
2.90033
2.7726
2.48594
1.84412
0.919235
0.43117
0.433409
0.48644
0.525792
0.536674
0.543431
0.559584
0.592278
0.644866
0.718211
0.830073
0.981417
2.99993
2.99981
2.99943
2.99883
2.99679
2.9936
2.98269
2.96476
2.90993
2.79626
2.53564
1.93976
1.05384
0.527347
0.463664
0.505327
0.546233
0.565588
0.580117
0.604236
0.643936
0.7021
0.779781
0.880638
1.00071
2.99994
2.99984
2.99951
2.99898
2.9972
2.99444
2.98491
2.96951
2.92147
2.82257
2.5968
2.04909
1.21435
0.629978
0.490731
0.522317
0.565194
0.594873
0.616406
0.645589
0.687656
0.743583
0.817411
0.903749
1.00353
2.99995
2.99986
2.99958
2.99913
2.99763
2.99529
2.98721
2.97426
2.93308
2.85246
2.65747
2.19606
1.41441
0.745877
0.528199
0.55122
0.593446
0.628329
0.652591
0.682283
0.72405
0.775709
0.841689
0.9147
0.99868
2.99996
2.99989
2.99966
2.99928
2.99805
2.99612
2.9895
2.97903
2.94491
2.88303
2.71884
2.36623
1.67478
0.870245
0.586835
0.603383
0.638463
0.67176
0.693448
0.718586
0.756548
0.802793
0.861899
0.924346
0.994587
2.99997
2.99991
2.99972
2.99941
2.99839
2.99681
2.99133
2.98274
2.95433
2.90353
2.76578
2.46578
1.85222
0.960732
0.626459
0.64279
0.679273
0.714093
0.734277
0.755092
0.787002
0.82754
0.878955
0.935675
0.99464
2.99998
2.99993
2.99977
2.99952
2.99869
2.99741
2.99293
2.986
2.96268
2.92116
2.80934
2.54479
2.03954
1.1198
0.718615
0.677567
0.708791
0.73983
0.766099
0.787094
0.815661
0.850581
0.894378
0.944368
0.996333
2.99998
2.99994
2.99982
2.99962
2.99896
2.99794
2.99437
2.98891
2.97024
2.93783
2.84693
2.63438
2.21789
1.3661
0.856121
0.716113
0.731503
0.75806
0.788224
0.812558
0.839852
0.8733
0.910688
0.95382
0.999944
2.99999
2.99996
2.99986
2.99971
2.9992
2.99843
2.99569
2.99158
2.97715
2.95364
2.88355
2.72942
2.41054
1.69454
1.03782
0.787239
0.773819
0.789092
0.814764
0.839136
0.863897
0.893436
0.927492
0.964676
1.00486
2.99999
2.99997
2.9999
2.99978
2.9994
2.99881
2.99673
2.99366
2.98255
2.96549
2.90999
2.80196
2.54584
1.98003
1.2144
0.858677
0.815404
0.825555
0.846871
0.871734
0.893376
0.917883
0.946767
0.979024
1.01291
3
2.99998
2.99993
2.99984
2.99956
2.99912
2.9976
2.99535
2.98732
2.9747
2.93468
2.85066
2.65922
2.18314
1.45426
0.978155
0.856008
0.856829
0.873411
0.898405
0.920982
0.942289
0.966219
0.993399
1.02213
3
2.99999
2.99995
2.99989
2.99968
2.99936
2.99825
2.99661
2.99064
2.98181
2.95111
2.89836
2.75288
2.44291
1.82006
1.14211
0.913773
0.89501
0.906392
0.926983
0.949185
0.968654
0.987875
1.00996
1.03367
3
2.99999
2.99997
2.99992
2.99977
2.99955
2.99875
2.99759
2.99331
2.9871
2.96494
2.92805
2.82285
2.58954
2.11769
1.32672
0.981804
0.924469
0.933299
0.951861
0.973618
0.992828
1.00892
1.02601
1.04463
3
3
2.99998
2.99995
2.99984
2.99968
2.99913
2.99831
2.99532
2.99099
2.97538
2.95023
2.87331
2.70923
2.35639
1.66239
1.13841
0.975908
0.965506
0.977066
0.995964
1.01532
1.02998
1.04286
1.05443
3.00001
3
2.99999
2.99996
2.99991
2.99975
2.9995
2.99863
2.99734
2.9927
2.98567
2.96175
2.92038
2.79981
2.56967
2.00307
1.34586
1.05799
1.00484
1.00509
1.01736
1.03372
1.0458
1.05281
1.05553
3.00001
3
3
2.99997
2.99994
2.99983
2.99967
2.99907
2.99824
2.99506
2.99066
2.97423
2.94861
2.86823
2.7012
2.34246
1.64174
1.2017
1.05315
1.03528
1.03934
1.0485
1.05525
1.05244
1.04358
3.00001
3
3
2.99999
2.99996
2.99989
2.99978
2.9994
2.99886
2.99678
2.99398
2.98301
2.96756
2.91333
2.816
2.56921
2.0611
1.40838
1.13292
1.07297
1.06282
1.05822
1.05329
1.03952
1.01893
3.00001
3.00001
3
2.99999
2.99998
2.99994
2.99987
2.99963
2.99929
2.99802
2.99627
2.98965
2.97991
2.94653
2.8827
2.71952
2.34683
1.70871
1.25693
1.10634
1.07438
1.05613
1.03487
1.00633
0.971706
3.00001
3.00001
3
3
2.99999
2.99997
2.99991
2.99982
2.9995
2.99903
2.99736
2.9949
2.98647
2.9716
2.92667
2.82717
2.60249
2.1075
1.45805
1.16379
1.07882
1.02975
0.990312
0.949829
0.91332
3.00001
3.00001
3.00001
3
3
2.99998
2.99996
2.99987
2.99974
2.99928
2.99863
2.99619
2.99273
2.98018
2.95903
2.89264
2.75007
2.44887
1.81684
1.29421
1.06314
0.970316
0.920273
0.887672
0.867323
3.00001
3.00001
3.00001
3
3
2.99999
2.99997
2.99992
2.99984
2.99954
2.99914
2.99755
2.99543
2.98733
2.97422
2.93119
2.83745
2.62193
2.12191
1.45448
1.02494
0.866603
0.822967
0.816642
0.818408
3.00001
3.00001
3.00001
3.00001
3
3
2.99999
2.99995
2.99989
2.99967
2.99939
2.99818
2.99671
2.99013
2.98171
2.94744
2.89063
2.7228
2.37055
1.70712
1.02196
0.74077
0.705162
0.728832
0.758882
3.00001
3.00001
3.00001
3.00001
3
3
2.99999
2.99997
2.99993
2.99978
2.99959
2.99874
2.9977
2.99301
2.98664
2.96082
2.91487
2.77444
2.46764
1.85515
1.00351
0.598921
0.55156
0.607494
0.674437
3.00001
3.00001
3.00001
3.00001
3.00001
3
3
2.99999
2.99997
2.99991
2.99978
2.9995
2.99863
2.99697
2.99047
2.97594
2.9279
2.81217
2.50648
1.95593
1.05166
0.527102
0.406972
0.480288
0.579569
3.00001
3.00001
3.00001
3.00001
3.00001
3.00001
3
3
2.99998
2.99994
2.99986
2.99964
2.99922
2.99756
2.9952
2.98109
2.95329
2.84162
2.61629
1.99332
1.17685
0.481415
0.262776
0.356798
0.498208
3.00001
3.00001
3.00001
3.00001
3.00001
3
3
2.99999
2.99998
2.99994
2.99985
2.99969
2.99905
2.99794
2.99319
2.98279
2.94668
2.86151
2.62304
2.18089
1.33502
0.543563
0.217683
0.319215
0.4718
3.00001
3.00001
3.00001
3.00001
3.00001
3.00001
3
2.99999
2.99998
2.99993
2.99985
2.99952
2.99905
2.99715
2.99361
2.98164
2.95328
2.87347
2.6794
2.26302
1.49829
0.565787
0.169313
0.301079
0.45624
3.00001
3.00001
3.00001
3.00001
3.00001
3.00001
3
3
2.99999
2.99997
2.99991
2.99976
2.99951
2.99825
2.99694
2.98621
2.96472
2.8835
2.70353
2.24141
1.48329
0.517718
0.12978
0.276162
0.429924
3.00001
3.00001
3.00001
3.00001
3.00001
3.00001
3.00001
3
3
2.99998
2.99994
2.99986
2.99955
2.99904
2.99579
2.98933
2.96153
2.89137
2.71038
2.31817
1.56502
0.625135
0.173681
0.28804
0.417536
3.00001
3.00001
3.00001
3.00001
3.00001
3.00001
3.00001
3
3
2.99998
2.99995
2.99984
2.99965
2.99872
2.99751
2.9884
2.96953
2.89304
2.72326
2.28389
1.54117
0.589567
0.160616
0.270568
0.398635
3.00001
3.00001
3.00001
3.00001
3.00001
3.00001
3.00001
3
3
2.99999
2.99994
2.99987
2.99956
2.99915
2.99606
2.99169
2.96518
2.90108
2.72271
2.3472
1.60501
0.679555
0.210047
0.290778
0.400375
3.00001
3.00001
3.00001
3.00001
3.00001
3.00001
3.00001
3
3
2.99998
2.99995
2.99986
2.99968
2.99886
2.99772
2.98919
2.97222
2.89952
2.73929
2.31263
1.56379
0.607334
0.163695
0.257581
0.378087
3.00001
3.00001
3.00001
3.00001
3.00001
3.00001
3.00001
3
3
2.99998
2.99994
2.99986
2.99952
2.99902
2.99584
2.98891
2.96326
2.89521
2.72716
2.35749
1.63062
0.717586
0.223574
0.286963
0.391909
3.00001
3.00001
3.00001
3.00001
3.00001
3.00001
3.00001
3
3
2.99998
2.99991
2.99972
2.99928
2.99726
2.99476
2.9816
2.96269
2.88645
2.74056
2.37269
1.65436
0.738383
0.216803
0.277775
0.386526
3.00001
3.00001
3.00001
3.00001
3.00001
3.00001
3.00001
3
2.99999
2.99998
2.99989
2.99965
2.99923
2.99699
2.99445
2.9811
2.96208
2.88644
2.74119
2.37821
1.66349
0.748177
0.220491
0.276335
0.384186
3.00001
3.00001
3.00001
3.00001
3.00001
3.00001
3.00001
3
2.99999
2.99996
2.99989
2.99953
2.99916
2.99678
2.99414
2.98062
2.96147
2.88625
2.74112
2.38142
1.67081
0.761048
0.232379
0.281449
0.386299
3.00001
3.00001
3.00001
3.00001
3.00001
3.00001
3.00001
3
3
2.99998
2.99992
2.99981
2.99931
2.99804
2.9948
2.98478
2.96095
2.89229
2.72876
2.37189
1.65815
0.752962
0.249147
0.294289
0.393577
3.00001
3.00001
3.00001
3.00001
3.00001
3.00001
3.00001
3
3
2.99998
2.99994
2.9998
2.99958
2.99836
2.99675
2.98701
2.96639
2.89554
2.74111
2.32773
1.622
0.634553
0.160148
0.238942
0.367629
3.00001
3.00001
3.00001
3.00001
3.00001
3.00001
3.00001
3
3
2.99998
2.99992
2.99979
2.99937
2.99832
2.99492
2.98633
2.96087
2.89353
2.72582
2.37215
1.65551
0.751571
0.244257
0.286186
0.384751
1.07039
1.13453
0.934345
0.479747
0.361552
0.123211
0.187567
0.277649
0.348382
0.40658
0.459762
0.508168
0.550963
0.586764
0.615907
0.639955
0.662209
0.679646
0.689018
0.690611
0.687743
0.67888
0.662934
0.641294
0.615464
0.587491
0.557861
0.527372
0.496846
0.466218
0.436199
0.406494
0.37715
0.348226
0.31937
0.29107
0.263306
0.235447
0.207478
0.178859
0.150769
0.12275
0.0955793
0.0684035
0.0421544
0.0188203
0.0215077
0.0495271
0.0672637
0.0890853
0.112401
0.135066
0.157112
0.178163
0.199242
0.221153
0.243164
0.264482
0.285386
0.305847
0.326034
0.345947
0.365573
0.385035
0.404207
0.42326
0.442101
0.46082
0.479375
0.497859
0.516196
0.53455
0.552664
0.570991
0.589004
0.607156
0.62522
0.643201
0.661228
0.679096
0.696924
0.714711
0.73224
0.749796
0.767053
0.784229
0.801183
0.81793
0.834458
0.850734
0.866735
0.882437
0.897764
0.912646
0.927161
0.940661
0.953673
0.964749
0.973776
0.979747
1.09908
1.10699
0.926771
0.654087
0.347962
0.274773
0.208221
0.148559
0.0884237
0.103901
0.158937
0.21447
0.263763
0.304191
0.334546
0.358424
0.380631
0.401894
0.414114
0.414469
0.4082
0.397659
0.380596
0.357713
0.33191
0.304982
0.277282
0.249326
0.221373
0.19385
0.166971
0.140367
0.11441
0.0890666
0.0656642
0.0465123
0.0393796
0.0511937
0.0702622
0.0895089
0.11041
0.131747
0.153855
0.175836
0.197778
0.219317
0.240165
0.259979
0.279291
0.298918
0.318644
0.338289
0.357318
0.375695
0.393731
0.412395
0.431272
0.449728
0.467599
0.485228
0.502598
0.519806
0.536795
0.553652
0.570329
0.58689
0.603256
0.619683
0.635757
0.652086
0.668017
0.684227
0.700187
0.716298
0.732368
0.748443
0.764555
0.78065
0.79671
0.812818
0.828802
0.844796
0.860752
0.87647
0.892343
0.907682
0.923365
0.938232
0.953615
0.968003
0.982983
0.996886
1.01142
1.02475
1.0388
1.05116
1.0637
1.07378
1.08234
1.08744
1.08055
1.09655
1.02706
0.895732
0.736593
0.647828
0.578563
0.505217
0.424382
0.351689
0.287179
0.225465
0.168707
0.114928
0.071466
0.0448827
0.0629302
0.0894513
0.116223
0.121009
0.0975056
0.0902574
0.0767458
0.0616576
0.0558355
0.0595651
0.0733333
0.0893142
0.106361
0.125007
0.14526
0.166031
0.187462
0.208979
0.230651
0.252274
0.273723
0.294379
0.314063
0.333167
0.352038
0.370805
0.38943
0.40791
0.426065
0.443893
0.461125
0.477819
0.494031
0.510357
0.526514
0.542816
0.558609
0.573948
0.588747
0.604141
0.619873
0.635454
0.650484
0.665458
0.680059
0.694773
0.709023
0.723554
0.7375
0.751824
0.765547
0.77961
0.793234
0.807031
0.820656
0.834198
0.847881
0.861204
0.874984
0.888254
0.902083
0.915455
0.92923
0.942648
0.956356
0.969635
0.983323
0.99636
1.01001
1.0228
1.03633
1.04896
1.06219
1.07495
1.08787
1.10097
1.11358
1.12667
1.13865
1.15114
1.16161
1.17245
1.17936
1.18573
1.07486
1.11147
1.09859
1.04361
0.967001
0.90193
0.849494
0.790766
0.730339
0.667872
0.609109
0.550459
0.49435
0.439131
0.388364
0.34348
0.305251
0.274485
0.252357
0.241928
0.247266
0.263829
0.281148
0.300718
0.3204
0.339073
0.35639
0.372585
0.388341
0.404425
0.420773
0.437478
0.454298
0.471242
0.488007
0.504586
0.520764
0.536377
0.551326
0.565759
0.579905
0.593955
0.607878
0.621748
0.635455
0.648907
0.662103
0.674875
0.687516
0.700013
0.712639
0.725161
0.737697
0.749619
0.761384
0.773184
0.785807
0.798499
0.811077
0.823257
0.835399
0.847315
0.859325
0.871129
0.883101
0.894839
0.906772
0.918506
0.930442
0.94227
0.954271
0.966213
0.978358
0.990356
1.00273
1.01476
1.02731
1.03948
1.052
1.06447
1.07671
1.08944
1.10134
1.11411
1.12577
1.13844
1.14994
1.16249
1.1738
1.18617
1.1973
1.20919
1.22019
1.23119
1.24191
1.25151
1.26114
1.26864
1.2752
1.27803
1.06901
1.11642
1.13473
1.1224
1.09042
1.05584
1.02396
0.987541
0.947393
0.903534
0.858374
0.811797
0.763672
0.71581
0.667983
0.624314
0.587146
0.558632
0.539839
0.533907
0.540859
0.55783
0.577327
0.595234
0.610997
0.624738
0.636462
0.646371
0.655814
0.665287
0.67512
0.685469
0.696111
0.706934
0.717626
0.728157
0.738467
0.748522
0.758235
0.767562
0.77666
0.785528
0.794402
0.80315
0.811995
0.820622
0.829294
0.837645
0.846218
0.854551
0.863382
0.872155
0.881306
0.889915
0.898514
0.907013
0.916396
0.926061
0.935943
0.94547
0.955216
0.96463
0.974447
0.983942
0.993953
1.00363
1.01379
1.02368
1.03394
1.04414
1.05449
1.0651
1.07556
1.08658
1.09722
1.10852
1.11947
1.13084
1.14219
1.15347
1.16515
1.17633
1.18832
1.19954
1.21162
1.22281
1.23481
1.24594
1.25788
1.26884
1.28063
1.29139
1.30273
1.3132
1.32374
1.33363
1.34285
1.35117
1.35755
1.36165
1.06108
1.11302
1.14543
1.15779
1.15413
1.14277
1.12904
1.11091
1.08907
1.06239
1.03159
0.997849
0.960497
0.921045
0.880687
0.842334
0.808764
0.783718
0.769506
0.767651
0.777258
0.794748
0.816374
0.837572
0.854119
0.865581
0.873003
0.877246
0.879982
0.882508
0.885424
0.889272
0.893798
0.898603
0.903717
0.908823
0.913835
0.918626
0.923143
0.927459
0.931654
0.935786
0.940085
0.944448
0.949123
0.953801
0.958818
0.963749
0.969061
0.974367
0.98018
0.986184
0.992661
0.998977
1.00523
1.01147
1.01837
1.02595
1.03383
1.04172
1.04966
1.05759
1.06573
1.07381
1.08232
1.09068
1.09958
1.10826
1.11752
1.1265
1.13608
1.14531
1.15525
1.16474
1.175
1.18484
1.19525
1.20552
1.21587
1.2266
1.23699
1.24809
1.25846
1.26971
1.28009
1.29145
1.30181
1.31321
1.32341
1.33469
1.34468
1.35564
1.36541
1.37581
1.38514
1.39472
1.40301
1.41108
1.41688
1.42095
1.05466
1.10604
1.14586
1.17101
1.18425
1.18896
1.18921
1.185
1.17605
1.16262
1.14321
1.11958
1.09075
1.05783
1.0235
0.990289
0.962261
0.9421
0.932276
0.935217
0.948441
0.969283
0.992304
1.01223
1.02934
1.04243
1.04924
1.05034
1.04882
1.0453
1.04179
1.03938
1.0383
1.03794
1.0386
1.03949
1.04044
1.04131
1.04213
1.04301
1.04394
1.04499
1.04622
1.04771
1.04955
1.05166
1.05422
1.05691
1.06016
1.06344
1.06741
1.07147
1.0763
1.08104
1.08591
1.09061
1.09595
1.10181
1.10847
1.11506
1.12205
1.12886
1.13611
1.14323
1.15082
1.15833
1.16626
1.17431
1.18255
1.19123
1.1997
1.20895
1.21765
1.2274
1.23639
1.24653
1.25583
1.26631
1.27606
1.28675
1.29674
1.30746
1.31764
1.32842
1.33876
1.34962
1.36003
1.37086
1.38126
1.39187
1.40221
1.41235
1.42259
1.4321
1.44199
1.45065
1.45943
1.46653
1.47281
1.4759
1.04967
1.09907
1.14025
1.17236
1.19557
1.21042
1.22045
1.22526
1.22563
1.22019
1.20872
1.18997
1.16604
1.13695
1.107
1.07827
1.05471
1.03968
1.03334
1.03998
1.05865
1.08485
1.11121
1.13369
1.1504
1.16263
1.17243
1.17625
1.17499
1.17034
1.16434
1.15778
1.15217
1.14789
1.14484
1.14245
1.14065
1.13919
1.13785
1.13675
1.13565
1.13475
1.13394
1.13338
1.13316
1.13338
1.134
1.13504
1.13652
1.13828
1.14047
1.14304
1.14613
1.14957
1.15298
1.15651
1.16038
1.165
1.1703
1.17597
1.18191
1.18802
1.19435
1.2009
1.20767
1.21469
1.22194
1.22944
1.23721
1.24519
1.25345
1.26187
1.27057
1.27942
1.2885
1.29778
1.30725
1.31694
1.32662
1.33655
1.34647
1.35659
1.36673
1.377
1.38723
1.39761
1.40785
1.4182
1.42844
1.43854
1.44872
1.45844
1.46836
1.47764
1.487
1.49567
1.50399
1.5114
1.51742
1.52116
1.04672
1.09261
1.13364
1.16759
1.19528
1.21666
1.23203
1.24269
1.24726
1.24594
1.23673
1.21954
1.19631
1.17136
1.14287
1.11755
1.09975
1.09159
1.09096
1.10432
1.12859
1.15797
1.18582
1.21003
1.2286
1.24175
1.25105
1.25871
1.26198
1.26016
1.25516
1.24891
1.24106
1.23319
1.22604
1.21977
1.2147
1.21052
1.20705
1.20401
1.20107
1.19845
1.1959
1.19373
1.19181
1.19042
1.18935
1.18891
1.18876
1.1892
1.19002
1.19132
1.19314
1.19554
1.19806
1.2007
1.20367
1.20721
1.21169
1.21645
1.22192
1.22723
1.2333
1.23909
1.24568
1.25202
1.25909
1.26601
1.27353
1.28107
1.28903
1.29719
1.30555
1.31427
1.32301
1.33227
1.34129
1.35082
1.36014
1.36995
1.37962
1.38969
1.39964
1.40994
1.42005
1.43048
1.44067
1.45111
1.46134
1.47165
1.48183
1.49187
1.50183
1.51146
1.52094
1.52989
1.53838
1.54604
1.5522
1.55631
1.04641
1.08698
1.12589
1.15999
1.18834
1.21139
1.22841
1.24028
1.24504
1.24237
1.23141
1.21483
1.19436
1.16885
1.1443
1.12731
1.11937
1.11728
1.12643
1.1478
1.17573
1.2044
1.23104
1.2545
1.27428
1.28995
1.30176
1.31015
1.3164
1.31978
1.31895
1.31516
1.3099
1.3024
1.29319
1.28382
1.2753
1.26794
1.26172
1.25643
1.25195
1.2481
1.24458
1.24151
1.23872
1.23626
1.23431
1.23268
1.23167
1.23111
1.23107
1.23163
1.23275
1.23446
1.23654
1.23861
1.24093
1.24369
1.2473
1.25152
1.25619
1.26122
1.26646
1.2721
1.27782
1.28409
1.29034
1.29721
1.304
1.31145
1.31882
1.32688
1.33484
1.34346
1.35193
1.3609
1.36972
1.37903
1.38815
1.39773
1.40707
1.41687
1.42638
1.43639
1.44605
1.45622
1.46604
1.47623
1.4862
1.49627
1.50629
1.51609
1.52592
1.53532
1.54464
1.55336
1.56161
1.56903
1.57489
1.5789
1.04914
1.08488
1.11905
1.15039
1.17679
1.19807
1.21275
1.22053
1.22052
1.21324
1.20088
1.18438
1.16196
1.14066
1.12647
1.12085
1.11966
1.12806
1.14708
1.17323
1.20014
1.22627
1.25066
1.27309
1.29327
1.3109
1.32577
1.33775
1.34671
1.35264
1.35601
1.3571
1.35472
1.35016
1.34387
1.33528
1.32511
1.31511
1.3058
1.29786
1.29122
1.28568
1.28109
1.27699
1.27352
1.27031
1.26771
1.26537
1.26375
1.26243
1.26187
1.26162
1.26211
1.26318
1.26463
1.26634
1.26811
1.2704
1.27346
1.27723
1.28167
1.28633
1.29156
1.29685
1.3027
1.30866
1.31509
1.32172
1.32868
1.33599
1.34348
1.35146
1.35948
1.36803
1.37641
1.38534
1.39407
1.40331
1.41239
1.42189
1.43131
1.44105
1.45076
1.46069
1.47064
1.48068
1.49085
1.50086
1.51118
1.52105
1.53135
1.54102
1.551
1.56033
1.56962
1.57824
1.58625
1.59343
1.599
1.60288
1.05304
1.0837
1.11238
1.13838
1.15961
1.17532
1.18351
1.18389
1.17815
1.16792
1.15289
1.13329
1.11734
1.10736
1.10468
1.10649
1.11632
1.13479
1.15811
1.1829
1.20709
1.23051
1.25287
1.27438
1.29466
1.31352
1.33057
1.34553
1.35814
1.36817
1.37531
1.37931
1.38121
1.38079
1.37816
1.37376
1.36693
1.35751
1.34696
1.33671
1.3275
1.31955
1.31294
1.30759
1.3031
1.29958
1.29638
1.29398
1.29177
1.29019
1.28898
1.28839
1.28831
1.28899
1.29021
1.29177
1.2934
1.29537
1.29792
1.30126
1.30519
1.3096
1.31446
1.31964
1.32519
1.33101
1.33715
1.34358
1.35027
1.35734
1.36458
1.37236
1.38012
1.38842
1.39657
1.40526
1.41378
1.4228
1.43168
1.44098
1.45019
1.45973
1.46919
1.47895
1.48863
1.49852
1.50838
1.5183
1.52829
1.53814
1.5481
1.55778
1.56747
1.57672
1.58572
1.59413
1.60173
1.60864
1.61372
1.61744
1.05856
1.08272
1.10458
1.12255
1.13533
1.14061
1.13999
1.13421
1.12403
1.10894
1.09366
1.08227
1.07833
1.07829
1.08377
1.09646
1.11552
1.13687
1.15895
1.18105
1.20257
1.22403
1.24493
1.26574
1.28595
1.30547
1.324
1.34085
1.35626
1.36921
1.38023
1.3884
1.39415
1.39701
1.39821
1.39749
1.39472
1.39026
1.38255
1.37291
1.36228
1.35246
1.34363
1.33628
1.33037
1.32549
1.3218
1.31869
1.3163
1.31453
1.31305
1.31238
1.31203
1.3124
1.31337
1.31484
1.31634
1.31812
1.32029
1.32331
1.32695
1.33119
1.3358
1.34089
1.34626
1.35201
1.35801
1.36438
1.371
1.37804
1.38527
1.39295
1.40062
1.40883
1.41693
1.42553
1.434
1.44291
1.45172
1.46093
1.47004
1.47951
1.48887
1.49854
1.50811
1.51788
1.52766
1.53741
1.54735
1.55697
1.56688
1.57625
1.58578
1.59468
1.60332
1.61125
1.61834
1.62463
1.62891
1.6321
1.06241
1.07875
1.09104
1.09823
1.09913
1.09512
1.08714
1.07564
1.06085
1.04938
1.04387
1.04356
1.0475
1.05743
1.07373
1.09286
1.11283
1.13265
1.15232
1.172
1.19174
1.21188
1.23201
1.25242
1.27242
1.29232
1.31121
1.32944
1.34617
1.36159
1.37531
1.38699
1.3967
1.40381
1.40846
1.41077
1.41173
1.41128
1.40888
1.40369
1.39604
1.38658
1.3769
1.36779
1.35973
1.35325
1.348
1.344
1.34114
1.33881
1.33738
1.33631
1.3358
1.33588
1.33657
1.33785
1.33932
1.34099
1.34297
1.34559
1.34894
1.35286
1.35725
1.36207
1.36728
1.37283
1.37868
1.3849
1.39137
1.39833
1.40534
1.41282
1.42027
1.42827
1.43619
1.44462
1.45295
1.46168
1.47033
1.47931
1.48825
1.49747
1.50666
1.5161
1.52553
1.53508
1.54473
1.55426
1.56402
1.57342
1.58307
1.59223
1.6014
1.61
1.61814
1.62553
1.63192
1.63738
1.64051
1.64299
1.06335
1.06799
1.06798
1.06302
1.05443
1.04211
1.02674
1.01371
1.00626
1.00467
1.00799
1.01656
1.03116
1.04895
1.06805
1.08703
1.10572
1.12376
1.14165
1.15979
1.17824
1.19745
1.21694
1.237
1.25672
1.2766
1.29564
1.3144
1.33197
1.34877
1.36429
1.37839
1.39121
1.40193
1.41118
1.41784
1.42234
1.42486
1.42614
1.42614
1.42389
1.41889
1.41141
1.40253
1.3937
1.38548
1.37839
1.37273
1.36834
1.36524
1.36314
1.36166
1.36107
1.36081
1.36125
1.36228
1.36379
1.36538
1.36723
1.36946
1.37249
1.37609
1.38024
1.38474
1.38973
1.39504
1.40074
1.40676
1.41314
1.41987
1.42675
1.43398
1.44125
1.44897
1.45669
1.46486
1.47301
1.48151
1.48998
1.49874
1.50749
1.51648
1.5255
1.53468
1.54393
1.55321
1.56266
1.57191
1.58145
1.59053
1.59986
1.60856
1.61727
1.62518
1.63262
1.63911
1.64458
1.64882
1.6505
1.65238
1.05288
1.04575
1.03492
1.01946
1.00055
0.983921
0.972942
0.968944
0.970237
0.976759
0.989767
1.00764
1.02669
1.04538
1.06337
1.08055
1.09713
1.11382
1.13045
1.14782
1.1654
1.18375
1.20243
1.22154
1.24079
1.26005
1.27921
1.29803
1.31639
1.33414
1.3511
1.36713
1.38222
1.39578
1.40839
1.41876
1.42813
1.43471
1.43966
1.4425
1.44461
1.4451
1.44293
1.43791
1.43089
1.42272
1.41435
1.40668
1.40031
1.39538
1.39166
1.38947
1.38786
1.38732
1.38723
1.38794
1.38912
1.39066
1.39218
1.39412
1.39648
1.39975
1.4034
1.40778
1.41236
1.41759
1.42292
1.42887
1.43486
1.4415
1.44799
1.45517
1.46208
1.46969
1.47704
1.48506
1.49285
1.50124
1.50938
1.51802
1.52644
1.5353
1.54396
1.55297
1.56186
1.57087
1.58003
1.58885
1.5982
1.60672
1.61589
1.62395
1.63227
1.63941
1.64607
1.6517
1.65574
1.65844
1.65855
1.65983
1.03054
1.01082
0.98688
0.963781
0.946931
0.938668
0.937152
0.941065
0.952395
0.96971
0.988943
1.00814
1.02644
1.04369
1.05985
1.07556
1.09074
1.10632
1.122
1.13848
1.15528
1.17279
1.19064
1.20895
1.22759
1.2462
1.26515
1.28375
1.30248
1.32072
1.33866
1.35605
1.37264
1.38858
1.40332
1.41711
1.4294
1.4402
1.44934
1.45604
1.46108
1.46443
1.46697
1.46761
1.46559
1.46039
1.45315
1.44519
1.43714
1.42998
1.42424
1.41967
1.41691
1.41495
1.41421
1.41421
1.41509
1.4164
1.41796
1.41955
1.42169
1.42425
1.42771
1.43145
1.43595
1.44065
1.446
1.45156
1.45758
1.46377
1.47027
1.47703
1.48394
1.49114
1.49843
1.50601
1.51376
1.52165
1.52981
1.5379
1.54634
1.55463
1.56329
1.57174
1.58057
1.58902
1.59795
1.60632
1.61507
1.62336
1.63147
1.63939
1.64631
1.65304
1.65813
1.66278
1.66477
1.66553
1.66424
1.6655
0.992192
0.959489
0.933171
0.916375
0.910298
0.910303
0.918157
0.933619
0.953628
0.974084
0.993502
1.0113
1.02768
1.04303
1.0577
1.07217
1.08654
1.10125
1.11618
1.13172
1.14764
1.16424
1.18128
1.19889
1.21686
1.23512
1.25362
1.27218
1.29089
1.30944
1.32793
1.34608
1.36386
1.38114
1.3977
1.41357
1.42832
1.44205
1.45427
1.46503
1.47384
1.48047
1.48571
1.48977
1.49222
1.4928
1.49055
1.48489
1.47768
1.46952
1.46163
1.455
1.44941
1.44593
1.44331
1.44246
1.44229
1.44328
1.44462
1.44616
1.44779
1.45007
1.45276
1.45649
1.46022
1.465
1.46973
1.47536
1.48086
1.48703
1.49309
1.49976
1.5063
1.51342
1.52036
1.52793
1.53521
1.54323
1.55077
1.55913
1.56685
1.57538
1.58333
1.59188
1.60009
1.60851
1.61686
1.62498
1.63322
1.64079
1.64847
1.65503
1.66136
1.66627
1.67062
1.67263
1.67298
1.67147
1.6692
1.67003
0.935103
0.907528
0.892331
0.88805
0.890186
0.902199
0.921762
0.943218
0.964106
0.983222
1.00065
1.01641
1.03089
1.04461
1.05793
1.07134
1.08489
1.09877
1.11304
1.12773
1.143
1.15863
1.17497
1.1916
1.209
1.22663
1.24484
1.26319
1.28183
1.30049
1.31919
1.33778
1.3562
1.37436
1.3921
1.40938
1.42593
1.44179
1.45646
1.47021
1.48232
1.49287
1.50133
1.50807
1.51369
1.51774
1.51978
1.52007
1.51712
1.51099
1.50319
1.49496
1.48742
1.48084
1.47638
1.47294
1.47172
1.47118
1.47216
1.47348
1.47498
1.47664
1.47895
1.48192
1.48551
1.48965
1.49417
1.49932
1.5045
1.51038
1.51609
1.52253
1.52878
1.53562
1.5424
1.54954
1.55683
1.56425
1.57197
1.57964
1.5876
1.59547
1.60352
1.61158
1.61959
1.62778
1.63557
1.64366
1.65101
1.65849
1.66494
1.67096
1.67576
1.67967
1.68176
1.68169
1.6799
1.67739
1.6726
1.67206
0.886006
0.872474
0.869141
0.874856
0.890614
0.913425
0.936212
0.957287
0.976182
0.993108
1.00831
1.02232
1.03542
1.0481
1.06059
1.07317
1.08596
1.09911
1.1127
1.12666
1.14122
1.15611
1.17173
1.18769
1.20448
1.22159
1.2394
1.25741
1.27588
1.2945
1.3133
1.33223
1.35101
1.36985
1.3882
1.40652
1.42402
1.44129
1.45755
1.47326
1.48768
1.50112
1.51296
1.52298
1.53121
1.53821
1.5438
1.54756
1.54898
1.54856
1.54479
1.53795
1.53007
1.52176
1.51448
1.50856
1.50434
1.50221
1.5012
1.50195
1.50327
1.50467
1.50628
1.50864
1.51162
1.51525
1.51933
1.52381
1.52869
1.53396
1.53952
1.54546
1.55144
1.55794
1.56427
1.57124
1.57793
1.58527
1.59241
1.59999
1.60757
1.61518
1.62304
1.63058
1.63855
1.64594
1.65376
1.66083
1.66801
1.67435
1.68003
1.68469
1.68829
1.69025
1.6902
1.68849
1.68568
1.6808
1.67161
1.66846
0.8585
0.857197
0.868324
0.888237
0.911667
0.934076
0.954545
0.972663
0.988551
1.00288
1.01599
1.02842
1.04039
1.05223
1.06406
1.07606
1.08835
1.10096
1.11405
1.12751
1.14154
1.15601
1.17112
1.18677
1.20299
1.21982
1.23707
1.25491
1.27299
1.29155
1.31016
1.32909
1.34792
1.36687
1.3856
1.40426
1.42255
1.44068
1.45805
1.47509
1.49119
1.50658
1.52089
1.53394
1.54553
1.55509
1.56321
1.5703
1.57571
1.57827
1.5795
1.57797
1.57312
1.56577
1.55736
1.5492
1.54188
1.5368
1.53303
1.53162
1.5315
1.5325
1.53362
1.53513
1.53734
1.54049
1.54409
1.54809
1.55248
1.55724
1.56253
1.56793
1.57387
1.57975
1.58618
1.59253
1.59928
1.60605
1.61301
1.62019
1.62729
1.63475
1.64191
1.64941
1.65656
1.66377
1.67071
1.67724
1.68346
1.68874
1.69308
1.69642
1.69803
1.69797
1.69612
1.69318
1.68744
1.67884
1.66504
1.6596
0.828822
0.851228
0.880247
0.907984
0.933046
0.954827
0.973126
0.988728
1.00222
1.01443
1.02577
1.03679
1.04766
1.05863
1.06982
1.08125
1.09301
1.1051
1.11767
1.13067
1.14426
1.15837
1.17308
1.18836
1.20417
1.22057
1.23746
1.25493
1.2727
1.29096
1.30936
1.32809
1.34688
1.36579
1.38473
1.40352
1.42238
1.44074
1.4592
1.47692
1.49467
1.51136
1.52765
1.5425
1.55641
1.56853
1.5793
1.58806
1.59609
1.60258
1.60679
1.60815
1.60835
1.60552
1.59939
1.59076
1.5817
1.5732
1.56632
1.56118
1.5588
1.55743
1.55825
1.5592
1.56054
1.56266
1.56567
1.56946
1.57341
1.57815
1.58303
1.58854
1.59407
1.60012
1.60625
1.61273
1.61929
1.62601
1.63291
1.63978
1.64686
1.65383
1.66081
1.66783
1.67444
1.68122
1.68722
1.69308
1.698
1.70176
1.70473
1.70583
1.70559
1.70361
1.70027
1.69392
1.68346
1.67092
1.65546
1.64986
0.799583
0.843469
0.881791
0.912859
0.938516
0.95986
0.977786
0.993132
1.00681
1.01934
1.03123
1.04267
1.05401
1.06529
1.07654
1.08792
1.09948
1.11132
1.12352
1.13621
1.14943
1.16324
1.17762
1.19257
1.20806
1.22408
1.24058
1.25755
1.27496
1.29273
1.31088
1.32926
1.34795
1.36671
1.38566
1.40457
1.42349
1.44219
1.46077
1.47885
1.49664
1.51373
1.53034
1.54617
1.5611
1.57525
1.58789
1.59933
1.60879
1.61722
1.62453
1.62962
1.63197
1.63212
1.63043
1.62578
1.61805
1.60846
1.59871
1.59009
1.58369
1.57966
1.57784
1.57815
1.57911
1.58048
1.58273
1.58593
1.58999
1.59447
1.59944
1.60472
1.61034
1.61636
1.62263
1.6293
1.63593
1.64295
1.64974
1.65686
1.66381
1.67072
1.67776
1.68426
1.69092
1.69692
1.70243
1.70733
1.71079
1.71327
1.71418
1.71378
1.71196
1.70768
1.70092
1.68963
1.67491
1.66127
1.64657
1.64201
0.748958
0.809501
0.855602
0.89128
0.919648
0.942865
0.962724
0.98026
0.996291
1.01117
1.02527
1.03876
1.0518
1.06454
1.07718
1.08973
1.10231
1.115
1.12792
1.14109
1.15468
1.16861
1.18302
1.19788
1.21324
1.22908
1.24531
1.26196
1.2789
1.29624
1.31383
1.33174
1.34984
1.36812
1.38651
1.4049
1.42328
1.44153
1.45963
1.47743
1.49498
1.51208
1.52877
1.54495
1.56037
1.57534
1.58901
1.60211
1.61348
1.62358
1.63222
1.63991
1.64598
1.64919
1.64938
1.64806
1.64473
1.63793
1.62827
1.61802
1.60832
1.60065
1.59541
1.59305
1.59262
1.59387
1.5954
1.59777
1.60124
1.60587
1.61095
1.61628
1.62197
1.62793
1.63437
1.64088
1.64784
1.65464
1.66182