/*--------------------------------*- C++ -*----------------------------------*\
  =========                 |
  \\      /  F ield         | OpenFOAM: The Open Source CFD Toolbox
   \\    /   O peration     | Website:  https://openfoam.org
    \\  /    A nd           | Version:  6
     \\/     M anipulation  |
\*---------------------------------------------------------------------------*/
FoamFile
{
    version     2.0;
    format      ascii;
    class       volScalarField;
    location    "6.5";
    object      p;
}
// * * * * * * * * * * * * * * * * * * * * * * * * * * * * * * * * * * * * * //

dimensions      [1 -1 -2 0 0 0 0];

internalField   nonuniform List<scalar> 
5250
(
1.00005
1.00027
1.00071
1.00186
1.00402
1.01032
1.0213
1.05796
1.11317
1.34048
1.72805
3.14211
6.88529
15.1959
13.938
12.1641
11.519
11.5829
11.8186
12.1031
12.2553
12.3439
12.4174
12.4766
12.5145
1.00005
1.00027
1.00071
1.00185
1.00401
1.01028
1.02121
1.05773
1.11275
1.33909
1.72512
3.1331
6.8597
15.1435
13.8895
12.1248
11.4987
11.57
11.8139
12.0934
12.2419
12.3315
12.4072
12.4676
12.5076
1.00005
1.00027
1.0007
1.00184
1.00397
1.0102
1.02104
1.05724
1.11184
1.33602
1.71857
3.11248
6.79955
15.0245
13.7926
12.045
11.4489
11.5295
11.783
12.052
12.1929
12.283
12.3616
12.4232
12.4656
1.00005
1.00027
1.00069
1.00181
1.00392
1.01006
1.02076
1.05645
1.11041
1.33111
1.70801
3.0791
6.70221
14.839
13.6546
11.9383
11.3721
11.4591
11.7173
11.9716
12.1029
12.1908
12.2697
12.3308
12.3742
1.00005
1.00026
1.00068
1.00178
1.00385
1.00987
1.02037
1.05535
1.10842
1.32429
1.69331
3.03267
6.5678
14.5862
13.4747
11.8063
11.2718
11.3627
11.6196
11.8572
11.9781
12.062
12.1386
12.1964
12.2391
1.00005
1.00026
1.00066
1.00174
1.00375
1.00963
1.01988
1.05394
1.10586
1.31551
1.67433
2.97295
6.39635
14.2625
13.2523
11.6499
11.1506
11.2419
11.4907
11.707
11.8137
11.8893
11.9603
12.0141
12.0578
1.00004
1.00025
1.00064
1.00168
1.00364
1.00933
1.01928
1.0522
1.10281
1.30466
1.6513
2.90052
6.1841
13.8629
12.9871
11.4707
11.0108
11.0974
11.3279
11.517
11.6045
11.6653
11.7218
11.764
11.8058
1.00004
1.00024
1.00062
1.00162
1.0035
1.00898
1.01856
1.05023
1.09854
1.29404
1.61717
2.84003
5.91189
13.3833
12.6691
11.2863
10.857
10.9318
11.1298
11.2838
11.3433
11.3769
11.403
11.4146
11.4422
1.00004
1.00023
1.00059
1.00155
1.00335
1.00857
1.01773
1.04792
1.09361
1.28151
1.57849
2.76797
5.60086
12.8164
12.2791
11.1263
10.6944
10.7464
10.8948
11.0062
11.0261
11.0147
10.9773
10.9075
10.8721
1.00004
1.00022
1.00056
1.00146
1.00317
1.0081
1.01676
1.04526
1.08818
1.26645
1.53867
2.67519
5.27006
12.1595
11.8282
10.9787
10.5248
10.5428
10.6252
10.6808
10.6575
10.5744
10.4032
10.1435
9.8208
1.00004
1.0002
1.00052
1.00137
1.00296
1.00757
1.01566
1.04224
1.08232
1.24852
1.49867
2.55939
4.9228
11.4136
11.3356
10.8476
10.3606
10.3128
10.3394
10.3295
10.2508
10.0466
9.65689
8.96999
7.37985
1.00003
1.00019
1.00048
1.00126
1.00272
1.00695
1.01439
1.03876
1.07539
1.2282
1.45148
2.42903
4.52617
10.5327
10.9783
10.6716
10.1974
10.0742
10.0532
9.98707
9.81635
9.46813
8.90214
8.0316
6.48489
1.00003
1.00017
1.00043
1.00113
1.00244
1.00624
1.01293
1.03471
1.06771
1.20422
1.3977
2.27877
4.07446
9.48839
10.7301
10.513
10.0631
9.86084
9.77946
9.64383
9.38192
8.96395
8.35661
7.54076
6.46413
1.00003
1.00015
1.00037
1.00098
1.00213
1.00542
1.01125
1.03009
1.05848
1.17827
1.33157
2.11992
3.57431
8.26879
10.5764
10.3999
9.96117
9.6533
9.49992
9.31589
9.01834
8.59018
8.02621
7.3255
6.49869
1.00002
1.00012
1.00032
1.00084
1.00181
1.0046
1.00955
1.02532
1.05004
1.14752
1.27833
1.91296
3.07207
6.87914
10.5504
10.3656
9.8686
9.44733
9.23125
9.023
8.72388
8.3179
7.8161
7.22321
6.56994
1.00002
1.0001
1.00026
1.00069
1.0015
1.00378
1.00789
1.02058
1.04153
1.11621
1.22877
1.69496
2.56452
5.30793
10.4319
10.2742
9.78515
9.25805
8.98664
8.76733
8.48304
8.10773
7.66246
7.1524
6.60511
1.00002
1.00008
1.00022
1.00057
1.00123
1.00312
1.0065
1.01694
1.03421
1.09558
1.18689
1.56955
2.27375
4.64772
9.8058
9.94208
9.64043
9.07186
8.7618
8.5397
8.27577
7.93435
7.53365
7.08925
6.61863
1.00001
1.00007
1.00018
1.00046
1.001
1.00253
1.00528
1.01377
1.02768
1.0786
1.14585
1.47588
1.99528
4.01875
8.45549
9.47254
9.32186
8.93939
8.58507
8.34457
8.09641
7.78522
7.42326
7.03059
6.61752
1.00001
1.00005
1.00014
1.00037
1.0008
1.00201
1.0042
1.01092
1.02195
1.06219
1.11414
1.37598
1.75342
3.33535
6.8188
9.21025
9.13734
8.86806
8.47165
8.19665
7.94771
7.6617
7.33617
6.98127
6.61368
1.00001
1.00004
1.00011
1.00028
1.00061
1.00154
1.00323
1.0083
1.0168
1.04637
1.08635
1.27414
1.536
2.64006
4.94153
8.93996
9.0475
8.85109
8.44104
8.09993
7.83062
7.55789
7.25837
6.93675
6.60546
1.00001
1.00003
1.00008
1.00021
1.00047
1.00117
1.00245
1.00626
1.01275
1.0344
1.06634
1.20106
1.37986
2.23258
3.81247
8.1246
8.87696
8.75478
8.42341
8.0242
7.72963
7.46558
7.18981
6.89904
6.60075
1
1.00002
1.00006
1.00016
1.00034
1.00086
1.0018
1.0046
1.00929
1.02541
1.04679
1.15228
1.26193
1.9325
3.00665
6.42881
8.60025
8.56179
8.36899
7.97356
7.64347
7.38023
7.12684
6.86533
6.60106
1
1.00002
1.00004
1.00012
1.00025
1.00063
1.00132
1.00335
1.00684
1.01808
1.03571
1.10177
1.19485
1.59845
2.29934
4.41865
8.18731
8.46473
8.31837
7.97547
7.60219
7.32277
7.08163
6.84624
6.60837
1
1.00001
1.00003
1.00008
1.00018
1.00045
1.00095
1.00239
1.00489
1.01284
1.02536
1.07225
1.1337
1.42564
1.8919
3.55055
7.07913
8.25964
8.19458
7.96616
7.59946
7.29529
7.05756
6.84793
6.63228
1
1.00001
1.00002
1.00006
1.00013
1.00032
1.00066
1.00168
1.00343
1.00897
1.01771
1.05032
1.0916
1.29694
1.58212
2.75724
5.16648
7.84818
8.02394
7.91261
7.62722
7.30059
7.0621
6.86567
6.68787
1
1.00001
1.00002
1.00004
1.00009
1.0002
1.0005
1.00103
1.00264
1.00534
1.01421
1.02793
1.07872
1.15631
1.4529
1.9943
3.63728
6.92373
7.84684
7.80204
7.63865
7.33001
7.09329
6.92487
6.80638
1
1
1.00001
1.00003
1.00006
1.00014
1.00034
1.0007
1.00176
1.00357
1.00938
1.01828
1.05243
1.09378
1.30877
1.58562
2.79408
5.13948
7.45414
7.70252
7.62544
7.42099
7.18928
7.0708
7.05183
1
1
1.00001
1.00002
1.00004
1.00009
1.00022
1.00045
1.00114
1.00233
1.00605
1.01197
1.0328
1.06202
1.1878
1.35324
2.09663
3.38412
6.61057
7.56923
7.60094
7.54205
7.40691
7.39266
7.43206
1
1
1
1.00001
1.00003
1.00006
1.00014
1.00029
1.00071
1.00145
1.00375
1.00733
1.02055
1.03662
1.12163
1.2008
1.72372
2.44604
4.81212
7.17962
7.63652
7.7148
7.75653
7.85138
8.04272
1
1
1
1.00001
1.00002
1.00004
1.00008
1.00019
1.00038
1.00097
1.00193
1.00517
1.00957
1.02951
1.04783
1.17982
1.29076
2.03984
3.14723
6.27983
7.61599
8.07653
8.33714
8.61506
8.90933
1
1
1
1
1.00001
1.00002
1.00005
1.00011
1.00027
1.00054
1.00138
1.00273
1.00743
1.01367
1.04287
1.07001
1.26171
1.44438
2.46529
4.22887
7.38226
8.75849
9.30214
9.62338
9.81873
1
1
1
1
1.00001
1.00001
1.00003
1.00007
1.00017
1.00034
1.00088
1.00174
1.00474
1.0086
1.02758
1.04263
1.17405
1.26248
2.03856
3.12966
6.58391
9.52888
10.4204
10.564
10.5362
1
1
1
1
1
1.00001
1.00002
1.00005
1.00012
1.00024
1.00063
1.00126
1.00339
1.00657
1.0191
1.03438
1.11542
1.19451
1.71458
2.4556
5.09527
9.99829
11.3967
11.35
11.1614
1
1
1
1
1
1.00001
1.00001
1.00003
1.00008
1.00016
1.00043
1.00087
1.00241
1.00462
1.01426
1.02472
1.09136
1.14575
1.59266
2.18907
4.68667
9.85529
11.8695
11.7866
11.46
1
1
1
1
1
1
1.00001
1.00002
1.00004
1.00008
1.00023
1.00037
1.00138
1.00189
1.00964
1.01217
1.07588
1.0991
1.53761
2.02678
4.3707
9.46791
12.1333
11.9839
11.467
1
1
1
1
1
1
1
1.00001
1.00002
1.00007
1.00011
1.00036
1.00062
1.00207
1.00328
1.01784
1.02217
1.16406
1.22552
2.24222
3.65792
8.94715
12.6114
12.2588
11.372
1
1
1
1
1
1
1
1.00001
1.00003
1.00005
1.00014
1.00021
1.00087
1.00116
1.00653
1.00801
1.05384
1.06916
1.3988
1.72129
3.55233
7.72105
13.2396
12.6631
11.3524
1
1
1
1
1
1
1
1.00001
1.00003
1.00006
1.00016
1.00032
1.00099
1.00177
1.00666
1.00991
1.04867
1.06854
1.3347
1.62427
3.14267
6.47507
13.6537
12.915
11.3855
1
1
1
1
1
1
1
1.00001
1.00001
1.00004
1.00007
1.00024
1.00039
1.00146
1.00195
1.01301
1.01554
1.11988
1.1591
1.87977
2.756
6.50526
13.4687
12.8288
11.4185
1
1
1
1
1
1
1
1
1.00001
1.00002
1.00006
1.00011
1.0004
1.00065
1.00377
1.00473
1.03922
1.0503
1.3022
1.50845
2.99901
5.87074
13.1733
12.7123
11.5797
1
1
1
1
1
1
1
1
1.00001
1.00002
1.00004
1.00015
1.00027
1.00099
1.00153
1.01031
1.01241
1.10871
1.14345
1.81636
2.6251
6.11502
12.8864
12.5779
11.6167
1
1
1
1
1
1
1
1
1.00001
1.00002
1.00006
1.00009
1.00039
1.00052
1.00308
1.00372
1.03495
1.04335
1.28953
1.46656
2.92492
5.60733
12.7126
12.4875
11.7049
1
1
1
1
1
1
1
1
1.00001
1.00002
1.00004
1.00014
1.00025
1.00091
1.00144
1.00947
1.01145
1.10259
1.13357
1.77263
2.54413
5.91426
12.5231
12.3372
11.5814
1
1
1
1
1
1
1
1
1.00001
1.00002
1.00006
1.00011
1.00042
1.00067
1.00402
1.00503
1.03852
1.04876
1.28807
1.4675
2.87707
5.40234
12.3563
12.2216
11.5821
1
1
1
1
1
1
1
1
1.00001
1.00002
1.0001
1.00019
1.00089
1.00166
1.00606
1.01105
1.04063
1.06741
1.27448
1.47736
2.8167
5.25085
12.2
12.0895
11.4708
1
1
1
1
1
1
1
1
1.00001
1.00002
1.00013
1.00024
1.00098
1.00189
1.00638
1.01171
1.04131
1.06829
1.27412
1.47175
2.79712
5.18667
12.0519
11.9442
11.3274
1
1
1
1
1
1
1
1
1.00002
1.00003
1.00015
1.00031
1.00102
1.00204
1.00648
1.01201
1.0415
1.06873
1.27361
1.47079
2.78294
5.14479
11.9255
11.8189
11.2013
1
1
1
1
1
1
1
1
1.00001
1.00002
1.00009
1.00014
1.00076
1.00112
1.00567
1.00785
1.04112
1.05527
1.28432
1.4576
2.81
5.19492
11.8441
11.7087
11.0645
1
1
1
1
1
1
1
1
1.00001
1.00003
1.00005
1.0002
1.0003
1.00141
1.00183
1.01269
1.01528
1.10588
1.13689
1.7424
2.46144
5.59582
11.8513
11.6407
10.8587
1
1
1
1
1
1
1
1
1.00001
1.00002
1.00009
1.00014
1.00067
1.0009
1.00508
1.0063
1.04033
1.05028
1.28685
1.44944
2.81564
5.1779
11.8075
11.6486
10.9487
3.93103
2.67091
2.76154
3.23365
4.18011
4.1812
4.06008
3.92673
3.8061
3.68773
3.57019
3.45861
3.3585
3.2738
3.20412
3.14226
3.08181
3.04163
3.02437
3.01982
3.0267
3.05691
3.10761
3.17496
3.25401
3.34032
3.4313
3.52497
3.61928
3.71258
3.80394
3.89317
3.97977
4.06386
4.14502
4.22252
4.29624
4.36732
4.43614
4.50193
4.56268
4.61804
4.66758
4.71176
4.75063
4.78443
4.81474
4.84302
4.86805
4.88611
4.8975
4.90399
4.90603
4.9048
4.9002
4.8902
4.87514
4.8571
4.83622
4.81238
4.78547
4.75562
4.72307
4.6879
4.65042
4.61069
4.56896
4.52535
4.48011
4.4333
4.38518
4.3358
4.2854
4.23396
4.18175
4.12874
4.07505
4.02076
3.96586
3.91042
3.85442
3.79787
3.74075
3.68305
3.62479
3.56598
3.50671
3.44703
3.38716
3.32722
3.2675
3.20825
3.14982
3.09255
3.037
2.9837
2.93369
2.88824
2.8495
2.82134
4.43621
3.36953
3.43369
3.81597
4.27271
4.17692
4.03247
3.91288
3.7999
3.67915
3.55781
3.44265
3.3406
3.25644
3.19104
3.13737
3.0875
3.04559
3.02389
3.01708
3.02347
3.0533
3.10383
3.17144
3.25077
3.3366
3.42669
3.51944
3.6128
3.705
3.79508
3.88325
3.96929
4.05292
4.13362
4.21057
4.2837
4.3548
4.42481
4.49171
4.55321
4.60921
4.65929
4.70401
4.74346
4.77817
4.80888
4.83668
4.86098
4.8792
4.8911
4.89781
4.89994
4.89903
4.89527
4.8862
4.87049
4.85215
4.83137
4.80773
4.78112
4.75155
4.71927
4.68436
4.64713
4.60764
4.56617
4.52278
4.47775
4.43113
4.38317
4.33393
4.28362
4.23228
4.18008
4.12707
4.07333
4.01896
3.96396
3.9084
3.85228
3.7956
3.73839
3.68063
3.62236
3.56356
3.50436
3.44479
3.38507
3.32526
3.26574
3.20664
3.14837
3.09118
3.03571
2.98242
2.93237
2.88673
2.84755
2.81841
5.2633
4.44438
4.20917
4.2468
4.29893
4.21013
4.01357
3.86606
3.75383
3.64103
3.5291
3.42406
3.33162
3.25263
3.18932
3.13266
3.0813
3.03945
3.01067
2.99961
3.00834
3.04008
3.09055
3.15776
3.23723
3.32331
3.41435
3.50888
3.60386
3.69746
3.78891
3.87835
3.96523
4.04965
4.13108
4.20896
4.28307
4.3543
4.42309
4.48877
4.54955
4.60505
4.6549
4.69942
4.73879
4.77341
4.8039
4.8309
4.85408
4.87199
4.88414
4.89093
4.89287
4.89209
4.88899
4.88122
4.86555
4.8465
4.82542
4.80189
4.77558
4.74636
4.7144
4.67984
4.64292
4.60376
4.56258
4.5195
4.47472
4.42835
4.38059
4.33152
4.28131
4.23004
4.17784
4.12478
4.07095
4.01642
3.96125
3.90548
3.84917
3.79231
3.73495
3.6771
3.61882
3.56005
3.50097
3.44159
3.38206
3.32252
3.26322
3.20444
3.14641
3.08958
3.03424
2.98109
2.93084
2.88491
2.84505
2.81427
5.66677
4.98529
4.59356
4.44079
4.37252
4.24949
4.04978
3.88696
3.75817
3.63798
3.52312
3.41785
3.32748
3.25082
3.18697
3.13026
3.08152
3.04363
3.02029
3.0132
3.02
3.04396
3.09261
3.15807
3.23547
3.3206
3.41136
3.50514
3.59964
3.69276
3.78361
3.87216
3.95817
4.04145
4.12168
4.19846
4.27166
4.34179
4.40924
4.47361
4.53379
4.58903
4.63897
4.68364
4.72327
4.75818
4.78877
4.81548
4.83811
4.85599
4.86853
4.8758
4.87789
4.8773
4.87487
4.86858
4.85517
4.83556
4.81396
4.79053
4.76464
4.73601
4.70466
4.6707
4.63434
4.59572
4.55505
4.51246
4.46813
4.42217
4.37476
4.32598
4.27598
4.22483
4.17268
4.11956
4.06563
4.01091
3.95552
3.89951
3.84294
3.78591
3.72838
3.67052
3.6122
3.55359
3.49469
3.43568
3.37657
3.31763
3.25882
3.20053
3.1429
3.08635
3.03125
2.9781
2.92781
2.88148
2.84107
2.80886
5.90303
5.30808
4.87369
4.61528
4.46687
4.31936
4.13474
3.9546
3.80347
3.67375
3.55624
3.45056
3.36016
3.28564
3.22556
3.17491
3.1333
3.10302
3.08403
3.07613
3.07782
3.08822
3.11669
3.17149
3.23738
3.31651
3.40301
3.49552
3.59123
3.68592
3.77789
3.86657
3.95187
4.0338
4.11241
4.18764
4.25952
4.32829
4.39418
4.45698
4.51603
4.57064
4.62031
4.66494
4.70458
4.73953
4.77004
4.79647
4.81873
4.83658
4.84945
4.85729
4.85977
4.85931
4.85738
4.85238
4.84155
4.82274
4.80102
4.77741
4.75173
4.72366
4.69301
4.65979
4.62413
4.58616
4.54611
4.50408
4.46027
4.41477
4.36774
4.31928
4.26949
4.21849
4.16636
4.11321
4.05912
4.00422
3.94859
3.89234
3.8356
3.77836
3.72078
3.66293
3.6049
3.54666
3.4882
3.42959
3.37094
3.31241
3.2541
3.19621
3.13901
3.08278
3.02794
2.97497
2.92463
2.878
2.83701
2.80326
6.04713
5.53091
5.10808
4.80199
4.59214
4.41703
4.24097
4.06621
3.9034
3.76119
3.63955
3.53518
3.44825
3.38073
3.33067
3.29387
3.26671
3.24648
3.22983
3.21619
3.20584
3.20139
3.20445
3.21811
3.25176
3.3154
3.38876
3.4782
3.57628
3.67489
3.77049
3.86082
3.94555
4.0253
4.10071
4.17262
4.2414
4.30739
4.37071
4.4313
4.48878
4.54253
4.59195
4.63672
4.67668
4.71196
4.74277
4.76938
4.79181
4.81
4.82351
4.83222
4.83563
4.83531
4.83388
4.83007
4.82172
4.8051
4.78412
4.7606
4.73513
4.70753
4.6776
4.64517
4.61033
4.57313
4.53378
4.49239
4.44915
4.40414
4.35754
4.3094
4.25986
4.20899
4.15689
4.1037
4.04948
3.99443
3.9386
3.88225
3.82543
3.76848
3.71116
3.65364
3.59576
3.53784
3.47965
3.42152
3.36327
3.30529
3.24747
3.19021
3.13354
3.07786
3.02345
2.97083
2.92067
2.87394
2.83264
2.79781
6.14101
5.68762
5.29171
4.97449
4.73074
4.5322
4.35136
4.18037
4.02027
3.87927
3.76005
3.66327
3.5898
3.54009
3.51068
3.49314
3.4825
3.47087
3.45525
3.4343
3.40507
3.36568
3.32813
3.3109
3.31515
3.3334
3.37696
3.45638
3.54203
3.64241
3.74425
3.84074
3.92941
4.01033
4.08412
4.15345
4.21872
4.28129
4.34159
4.39965
4.45533
4.50802
4.55719
4.60215
4.64264
4.67842
4.70987
4.73689
4.7598
4.77849
4.79276
4.80252
4.80728
4.80715
4.80619
4.80337
4.79694
4.78368
4.76417
4.74135
4.71631
4.68915
4.65985
4.62817
4.59418
4.55781
4.51924
4.47856
4.43593
4.39148
4.34528
4.29752
4.24817
4.19747
4.14536
4.09216
4.0378
3.98272
3.92696
3.87093
3.81437
3.75759
3.70039
3.64305
3.58537
3.5277
3.46986
3.41219
3.3545
3.29712
3.23999
3.18335
3.12739
3.07227
3.01846
2.96624
2.91647
2.86983
2.82854
2.79331
6.20084
5.8
5.43631
5.12315
4.86698
4.65449
4.46893
4.30033
4.14658
4.01341
3.90585
3.82585
3.7777
3.75648
3.75727
3.76222
3.77234
3.77002
3.75951
3.73187
3.67231
3.58301
3.49805
3.43548
3.40491
3.40686
3.4193
3.45245
3.52168
3.6036
3.69707
3.79514
3.89005
3.97733
4.05577
4.12669
4.1917
4.2523
4.30973
4.36483
4.41794
4.4688
4.5169
4.56157
4.60235
4.63876
4.67088
4.69869
4.72237
4.74184
4.75711
4.76804
4.77436
4.77502
4.77439
4.77229
4.76734
4.75704
4.73987
4.71864
4.69442
4.66786
4.63908
4.60813
4.57488
4.53934
4.50154
4.46157
4.41957
4.37563
4.32987
4.28239
4.23327
4.18265
4.13058
4.07736
4.02319
3.96846
3.91306
3.85725
3.80089
3.74422
3.68719
3.63004
3.57271
3.51544
3.45815
3.40105
3.34409
3.28743
3.23113
3.17525
3.12011
3.06574
3.01268
2.96114
2.91199
2.86587
2.82493
2.79002
6.24316
5.88362
5.55112
5.25428
4.99781
4.78096
4.59553
4.43409
4.29446
4.17946
4.0982
4.05066
4.04819
4.05556
4.07831
4.12496
4.14373
4.13872
4.1179
4.06513
3.95575
3.82032
3.69739
3.60136
3.53719
3.50529
3.50579
3.51314
3.53584
3.58622
3.65889
3.73363
3.82046
3.91118
3.99728
4.07721
4.14924
4.21382
4.27245
4.32678
4.37801
4.42671
4.47302
4.5166
4.55704
4.59381
4.62665
4.65534
4.67998
4.70022
4.71661
4.72876
4.7366
4.7391
4.73871
4.73722
4.7336
4.72594
4.71158
4.6924
4.66959
4.64395
4.61594
4.58567
4.55318
4.51839
4.48137
4.44211
4.40074
4.35733
4.31199
4.26482
4.21589
4.16537
4.11345
4.06061
4.00687
3.95247
3.89732
3.84168
3.7855
3.72905
3.6723
3.6155
3.55862
3.50189
3.44521
3.38881
3.3326
3.27673
3.22127
3.16626
3.11198
3.05851
3.00632
2.9557
2.90741
2.86222
2.82204
2.78817
6.27379
5.94994
5.64435
5.36794
5.12519
4.91717
4.741
4.59659
4.48256
4.40383
4.36945
4.37291
4.39077
4.43417
4.51071
4.55774
4.55513
4.53715
4.48576
4.37431
4.21509
4.05693
3.91742
3.80325
3.71622
3.65567
3.62041
3.60649
3.60877
3.61955
3.64725
3.70457
3.75854
3.82852
3.90901
3.99553
4.07795
4.15316
4.22045
4.28042
4.33424
4.38326
4.42862
4.47093
4.51033
4.54667
4.57963
4.60893
4.63435
4.65576
4.67326
4.68656
4.69581
4.70042
4.7003
4.69942
4.69693
4.69136
4.67998
4.66283
4.64168
4.61734
4.5903
4.5608
4.52899
4.49489
4.45852
4.41993
4.37913
4.33625
4.29128
4.24441
4.19564
4.14544
4.094
4.04163
3.98825
3.93415
3.87927
3.82391
3.76805
3.71199
3.65568
3.59941
3.54311
3.48703
3.43108
3.37544
3.32009
3.26509
3.21057
3.15653
3.10328
3.05087
2.99978
2.95032
2.90326
2.85946
2.82051
2.7884
6.30076
6.00865
5.73228
5.48033
5.2586
5.07137
4.92172
4.8109
4.74
4.72669
4.73571
4.76664
4.83491
4.92735
4.99074
4.98885
4.97017
4.91611
4.79908
4.62893
4.45518
4.29457
4.15223
4.02955
3.92653
3.84276
3.7779
3.73141
3.70076
3.68903
3.69171
3.70337
3.73217
3.77991
3.83068
3.8974
3.9771
4.05927
4.13875
4.21106
4.27482
4.33058
4.37959
4.42323
4.4626
4.49843
4.53097
4.56024
4.58608
4.60834
4.62687
4.6416
4.65195
4.65848
4.65967
4.65916
4.65742
4.65329
4.64469
4.62983
4.61064
4.58787
4.56202
4.53343
4.50235
4.46888
4.43311
4.39507
4.3548
4.31236
4.26774
4.22113
4.17277
4.12312
4.07217
4.02023
3.96723
3.9135
3.85901
3.80407
3.74868
3.69312
3.63738
3.58171
3.52609
3.47071
3.41556
3.36072
3.30629
3.25222
3.19874
3.14576
3.09366
3.04247
2.99272
2.94479
2.89936
2.85756
2.82041
2.79052
6.32923
6.06775
5.82385
5.60451
5.41681
5.26768
5.16363
5.10885
5.11171
5.13035
5.17816
5.27506
5.3702
5.42805
5.42466
5.40085
5.33594
5.20186
5.03094
4.85386
4.68608
4.53218
4.39187
4.26452
4.14976
4.04794
3.95975
3.88607
3.82703
3.78343
3.75484
3.74786
3.7515
3.76527
3.79686
3.83358
3.88387
3.94923
4.02977
4.11053
4.18669
4.25517
4.31478
4.36582
4.40963
4.44758
4.48084
4.5102
4.53616
4.55884
4.57817
4.59403
4.60597
4.61387
4.61715
4.61686
4.61568
4.6127
4.60637
4.59388
4.5767
4.55559
4.53109
4.50356
4.4733
4.44048
4.40526
4.36772
4.3279
4.28583
4.24153
4.19539
4.14762
4.09854
4.04811
3.99665
3.94414
3.8909
3.83694
3.78256
3.72777
3.67284
3.61779
3.56284
3.50799
3.45342
3.39914
3.34522
3.29178
3.23876
3.1864
3.13464
3.08385
3.03413
2.98599
2.93995
2.89663
2.85752
2.8221
2.79598
6.37005
6.14311
5.9388
5.7646
5.62962
5.54198
5.5151
5.5246
5.55871
5.6348
5.74056
5.82704
5.86106
5.85157
5.81385
5.72641
5.5736
5.40566
5.23487
5.07003
4.91374
4.76646
4.62717
4.49535
4.37118
4.2558
4.1506
4.057
3.97616
3.90891
3.85547
3.81758
3.79302
3.79127
3.79545
3.80956
3.83925
3.87318
3.92473
3.99362
4.0709
4.14859
4.22073
4.28457
4.33935
4.3853
4.42358
4.45576
4.48314
4.50662
4.52671
4.54346
4.55686
4.56621
4.57162
4.5719
4.57126
4.56922
4.56454
4.55489
4.53955
4.52015
4.49714
4.47083
4.44152
4.40946
4.37483
4.33777
4.29833
4.25657
4.21271
4.16719
4.12005
4.07156
4.02171
3.97083
3.91891
3.86629
3.81297
3.75926
3.70517
3.65097
3.59668
3.54253
3.48852
3.43482
3.38148
3.32854
3.27617
3.22427
3.17316
3.12276
3.07349
3.02551
2.97937
2.9357
2.89518
2.85898
2.82656
2.80594
6.43058
6.25071
6.1031
5.99619
5.93823
5.94147
5.96327
6.01845
6.12623
6.22369
6.2883
6.28561
6.26316
6.20233
6.07713
5.91991
5.7524
5.5882
5.4307
5.27921
5.13217
4.98868
4.8487
4.71284
4.58194
4.45765
4.34135
4.23463
4.13848
4.05385
3.98122
3.92135
3.87441
3.84233
3.82271
3.82331
3.82853
3.84276
3.86759
3.90203
3.95601
4.02553
4.09894
4.17214
4.23989
4.29887
4.34833
4.38891
4.42193
4.44888
4.47101
4.48921
4.50391
4.51478
4.5219
4.52433
4.52392
4.52247
4.51904
4.51189
4.4989
4.48143
4.46003
4.43508
4.40688
4.37571
4.34177
4.30524
4.26616
4.22484
4.18161
4.13673
4.09024
4.0424
3.99322
3.94303
3.89183
3.83993
3.78738
3.73444
3.68115
3.62778
3.57436
3.52108
3.46801
3.41526
3.36295
3.31108
3.25987
3.20924
3.15952
3.11068
3.0632
3.01732
2.97364
2.93303
2.89581
2.86338
2.83546
2.82148
6.54021
6.42899
6.35671
6.35456
6.37082
6.42033
6.52336
6.62995
6.71098
6.72971
6.71513
6.6645
6.55426
6.40004
6.23618
6.07223
5.91484
5.76441
5.61922
5.47665
5.33489
5.19337
5.05278
4.91482
4.78057
4.65166
4.52919
4.41453
4.30844
4.21178
4.12501
4.04864
3.98313
3.92913
3.88678
3.85846
3.84124
3.84181
3.84668
3.85841
3.8825
3.91966
3.97334
4.04102
4.11188
4.18055
4.24332
4.29749
4.34214
4.37789
4.40605
4.42808
4.44536
4.45831
4.46715
4.47216
4.47205
4.47127
4.46909
4.46418
4.45415
4.43872
4.4191
4.3957
4.36882
4.33875
4.30569
4.26981
4.23129
4.19064
4.14809
4.10391
4.05813
4.01103
3.96263
3.91323
3.86285
3.81179
3.76009
3.70803
3.65564
3.60318
3.55069
3.49837
3.4463
3.39458
3.34338
3.29268
3.24276
3.19353
3.14542
3.09841
3.05308
3.00978
2.9692
2.93255
2.89888
2.87219
2.85
2.84362
6.73553
6.73128
6.74838
6.80301
6.91837
7.04786
7.14772
7.18996
7.17984
7.13805
7.04027
6.87905
6.70762
6.53584
6.37254
6.2193
6.07421
5.93418
5.79624
5.65854
5.51998
5.38068
5.24132
5.10372
4.96914
4.83878
4.71361
4.59447
4.48211
4.37711
4.27999
4.19117
4.11114
4.0403
3.97926
3.92863
3.88875
3.86207
3.84601
3.84661
3.84972
3.85924
3.88073
3.92282
3.97691
4.04065
4.10871
4.1743
4.23319
4.28294
4.32286
4.3537
4.37692
4.39407
4.40593
4.41337
4.41576
4.41534
4.41392
4.4106
4.40369
4.39097
4.37361
4.35213
4.32689
4.29819
4.26625
4.23126
4.19361
4.15384
4.1121
4.06874
4.02377
3.97752
3.92999
3.8815
3.83204
3.78194
3.7312
3.68011
3.6287
3.57724
3.52578
3.47451
3.42353
3.37294
3.32296
3.27355
3.22509
3.17746
3.13122
3.08639
3.04369
3.00357
2.96707
2.93439
2.90619
2.8866
2.87256
2.87275
7.07146
7.13548
7.27309
7.44378
7.58607
7.66878
7.66535
7.63476
7.55252
7.38747
7.20054
7.00925
6.82878
6.66305
6.51029
6.36728
6.23013
6.09579
5.96194
5.82758
5.69222
5.55621
5.4199
5.28455
5.15145
5.02142
4.89531
4.77362
4.65706
4.54603
4.44108
4.34265
4.25116
4.16711
4.09093
4.02331
3.96477
3.91595
3.87773
3.8512
3.83875
3.83479
3.8365
3.84454
3.86504
3.90731
3.96324
4.02694
4.09333
4.1561
4.21105
4.25609
4.29097
4.31671
4.33493
4.34653
4.353
4.35363
4.35295
4.3509
4.34642
4.33729
4.32273
4.30368
4.28049
4.25352
4.223
4.18928
4.15289
4.11424
4.07354
4.03114
3.98713
3.94184
3.8953
3.8478
3.79939
3.75033
3.70066
3.65063
3.60032
3.54995
3.49961
3.44947
3.3997
3.35036
3.30174
3.25381
3.20698
3.16127
3.11721
3.0751
3.03562
2.99965
2.96791
2.9402
2.91981
2.90881
2.9057
2.90721
7.54243
7.76669
7.9868
8.13507
8.17862
8.16016
8.09184
7.94068
7.72976
7.51262
7.30708
7.11934
6.94963
6.79517
6.65189
6.51579
6.38342
6.25262
6.12195
5.99084
5.85905
5.72682
5.59435
5.46212
5.33107
5.20188
5.07525
4.95162
4.83164
4.71571
4.60441
4.49817
4.39748
4.30281
4.21456
4.13331
4.05948
3.99382
3.93687
3.88928
3.85244
3.82811
3.81656
3.80674
3.80831
3.81663
3.8379
3.8816
3.93832
4.00205
4.06658
4.12621
4.17703
4.21725
4.24712
4.26771
4.28025
4.28612
4.28587
4.28473
4.28206
4.27648
4.26533
4.24928
4.22862
4.20391
4.17533
4.14345
4.10868
4.07148
4.03207
3.99087
3.948
3.90383
3.85839
3.81204
3.76476
3.71687
3.66835
3.61952
3.57037
3.52123
3.4721
3.42326
3.37479
3.3269
3.27978
3.23359
3.18867
3.14525
3.10389
3.06512
3.02982
2.99934
2.97228
2.9525
2.94158
2.94182
2.9439
2.95082
8.30616
8.54827
8.69167
8.69122
8.65488
8.54628
8.32359
8.07346
7.83116
7.61013
7.41284
7.23748
7.07944
6.93439
6.79778
6.66601
6.53706
6.40928
6.28169
6.15378
6.02541
5.89656
5.76738
5.63777
5.50832
5.37951
5.25207
5.12645
5.00329
4.88307
4.76637
4.65369
4.5455
4.44228
4.34441
4.25236
4.16649
4.08732
4.01544
3.95116
3.89552
3.84967
3.8144
3.79295
3.77612
3.76595
3.76795
3.77753
3.80043
3.84676
3.90355
3.96723
4.02984
4.08619
4.13268
4.16786
4.19209
4.20677
4.21258
4.2123
4.2109
4.2076
4.20081
4.18816
4.17053
4.14855
4.12257
4.09314
4.06053
4.02522
3.98747
3.94776
3.90625
3.86338
3.81922
3.77413
3.72813
3.68149
3.63427
3.58671
3.5389
3.49106
3.44332
3.39589
3.34894
3.30268
3.25732
3.21316
3.17053
3.12992
3.09194
3.05746
3.02786
3.00238
2.983
2.97388
2.97451
2.97817
2.98854
3.01322
9.14434
9.2472
9.23048
9.15348
8.97338
8.69877
8.41744
8.15507
7.92069
7.7144
7.53238
7.36967
7.22124
7.08264
6.95042
6.82225
6.69602
6.57064
6.44534
6.31971
6.19363
6.06685
5.93938
5.81102
5.68204
5.55278
5.42395
5.29606
5.16978
5.04568
4.92431
4.80627
4.69193
4.58186
4.4763
4.37578
4.28051
4.1908
4.107
4.02982
3.95951
3.89701
3.84317
3.79888
3.76711
3.74345
3.72404
3.71426
3.71714
3.72836
3.75432
3.80414
3.86176
3.92491
3.98512
4.03725
4.07836
4.10754
4.12531
4.13299
4.13272
4.13125
4.1277
4.12019
4.10601
4.08704
4.06408
4.03758
4.00773
3.97486
3.93929
3.90144
3.86163
3.8203
3.77764
3.73397
3.68939
3.64416
3.59835
3.55221
3.50585
3.45949
3.41331
3.36748
3.32228
3.27787
3.23464
3.19288
3.15313
3.11601
3.0824
3.05379
3.0301
3.0117
3.00389
3.0049
3.00954
3.02195
3.04878
3.10481
9.85462
9.81313
9.67936
9.40111
9.08088
8.76777
8.48484
8.23806
8.02382
7.8361
7.66885
7.51675
7.37546
7.2414
7.11198
6.98544
6.86054
6.73636
6.61229
6.48782
6.36256
6.23615
6.10857
5.97978
5.84991
5.7194
5.58875
5.45862
5.32957
5.20229
5.07721
4.95494
4.83576
4.72023
4.60851
4.50104
4.3979
4.29978
4.20679
4.11939
4.03777
3.96242
3.89399
3.83322
3.78112
3.73918
3.70938
3.68152
3.66061
3.65551
3.65938
3.67281
3.70274
3.75458
3.81285
3.87442
3.93156
3.97892
4.01392
4.03651
4.04691
4.04747
4.04628
4.04268
4.03471
4.01941
3.99966
3.97627
3.94954
3.91967
3.88686
3.85142
3.81378
3.77435
3.73349
3.69145
3.64849
3.60481
3.56058
3.51602
3.47128
3.42661
3.38216
3.33821
3.29499
3.25284
3.21213
3.17335
3.13722
3.1046
3.07698
3.05519
3.03827
3.03161
3.03298
3.03874
3.05375
3.08637
3.13399
3.21876
10.4295
10.1867
9.8228
9.45559
9.11748
8.82062
8.56494
8.3456
8.15447
7.98404
7.82838
7.68317
7.54516
7.41216
7.28267
7.15561
7.03003
6.90508
6.78014
6.65462
6.5281
6.40031
6.27125
6.14097
6.00963
5.87755
5.74511
5.61296
5.48164
5.3518
5.22382
5.0982
4.9753
4.85544
4.73897
4.62605
4.5171
4.41214
4.31159
4.21548
4.12444
4.03867
3.9589
3.88531
3.81899
3.7602
3.7098
3.67115
3.63697
3.60958
3.58882
3.58943
3.59507
3.61093
3.64457
3.69797
3.75791
3.81777
3.8708
3.91237
3.93998
3.95511
3.95734
3.95632
3.95292
3.94518
3.9296
3.90965
3.88604
3.85934
3.82965
3.79718
3.76223
3.72524
3.68653
3.64648
3.60535
3.56343
3.52096
3.47817
3.43526
3.39247
3.35004
3.30826
3.26742
3.22798
3.19038
3.1554
3.12391
3.09735
3.07766
3.06223
3.05703
3.05885
3.06581
3.08319
3.1198
3.18322
3.24251
3.33647
10.763
10.2657
9.82251
9.4603
9.15459
8.8961
8.67516
8.48276
8.31074
8.15272
8.0042
7.86225
7.72498
7.59132
7.46036
7.33106
7.20273
7.07478
6.94667
6.81797
6.68842
6.55785
6.42629
6.29381
6.16059
6.02685
5.89295
5.75931
5.62637
5.49462
5.36447
5.23632
5.11049
4.98719
4.86673
4.74933
4.63532
4.52484
4.41828
4.31581
4.21766
4.1239
4.03494
3.95109
3.87281
3.80079
3.73555
3.6786
3.63104
3.59211
3.55527
3.52848
3.51391
3.51564
3.52358
3.54346
3.58433
3.63888
3.6994
3.75645
3.80356
3.83735
3.85731
3.86315
3.86248
3.85964
3.85271
3.83843
3.81851
3.79465
3.76789
3.73854
3.70673
3.67267
3.63661
3.59892
3.55994
3.52007
3.47958
3.43879
3.39795
3.35732
3.31723
3.27797
3.24001
3.20388
3.17023
3.14016
3.11483
3.09703
3.08367
3.08017
3.08257
3.091
3.11169
3.1549
3.21837
3.29714
3.35994
3.44897
10.8035
10.2345
9.80224
9.47235
9.21278
9.00033
8.81634
8.64897
8.49154
8.34056
8.19416
8.05125
7.91107
7.77337
7.63771
7.50391
7.37126
7.23914
7.10707
6.97471
6.84186
6.70841
6.57434
6.43967
6.30459
6.1693
6.03418
5.89953
5.76554
5.63254
5.50077
5.37058
5.2422
5.11594
4.99205
4.87079
4.75242
4.63719
4.52533
4.41709
4.31264
4.21216
4.11587
4.02404
3.93687
3.85491
3.77833
3.70804
3.64468
3.58945
3.54398
3.50144
3.46628
3.44079
3.4356
3.43855
3.44943
3.47394
3.52305
3.57928
3.63796
3.69011
3.73012
3.75505
3.76639
3.7662
3.7643
3.75884
3.74686
3.72673
3.70264
3.67615
3.64751
3.61665
3.58364
3.54874
3.51234
3.47485
3.4367
3.39821
3.35973
3.32161
3.28421
3.24801
3.21355
3.18157
3.15303
3.12938
3.11314
3.10194
3.10086
3.10383
3.11409
3.13836
3.18826
3.25823
3.33574
3.41734
3.47477
3.55096
10.7082
10.1353
9.75971
9.50545
9.30888
9.14138
8.98547
8.83309
8.68206
8.53211
8.38373
8.23693
8.092
7.9493
7.80874
7.66983
7.53237
7.39586
7.25986
7.12395
6.98798
6.85181
6.71542
6.57881
6.44208
6.30539
6.16889
6.03308
5.89802
5.76386
5.63063
5.49865
5.36807
5.23926
5.11239
4.98781
4.86573
4.74644
4.63015
4.51712
4.40749
4.30146
4.19915
4.10075
4.00639
3.91636
3.83086
3.75041
3.67548
3.60694
3.54542
3.49332
3.44595
3.40362
3.37185
3.35393
3.35463
3.36003
3.37528
3.40832
3.46107
3.51961
3.57516
3.61996
3.65066
3.66697
3.66991
3.66873
3.66447
3.65463
3.63487
3.61156
3.58567
3.55774
3.5278
3.49597
3.46255
3.42793
3.39251
3.35673
3.321
3.28582
3.25164
3.21915
3.18907
3.16243
3.14052
3.12636
3.11755
3.11792
3.12213
3.13494
3.1636
3.22149
3.29546
3.37916
3.45946
3.53356
3.57946
3.64023
10.511
10.0185
9.76461
9.58762
9.44769
9.30843
9.16264
9.012
8.85891
8.70541
8.55269
8.40201
8.25388
8.10805
7.96435
7.82237
7.68171
7.5421
7.40303
7.26422
7.12564
6.98715
6.84876
6.71041
6.57215
6.43405
6.29609
6.15874
6.02238
5.88706
5.75255
5.61904
5.48663
5.35559
5.22621
5.09872
4.97348
4.85068
4.73063
4.61349
4.49949
4.38875
4.2814
4.17758
4.07736
3.98096
3.88846
3.80019
3.71647
3.63781
3.56492
3.49855
3.44052
3.38841
3.34111
3.30244
3.27753
3.26988
3.27218
3.28136
3.30332
3.34829
3.40353
3.46045
3.50996
3.54611
3.56703
3.57451
3.57384
3.57062
3.56241
3.54542
3.5228
3.49726
3.46989
3.44105
3.41081
3.37946
3.34725
3.31469