/*--------------------------------*- C++ -*----------------------------------*\
  =========                 |
  \\      /  F ield         | OpenFOAM: The Open Source CFD Toolbox
   \\    /   O peration     | Website:  https://openfoam.org
    \\  /    A nd           | Version:  6
     \\/     M anipulation  |
\*---------------------------------------------------------------------------*/
FoamFile
{
    version     2.0;
    format      ascii;
    class       surfaceScalarField;
    location    "6.5";
    object      phi;
}
// * * * * * * * * * * * * * * * * * * * * * * * * * * * * * * * * * * * * * //

dimensions      [1 0 -1 0 0 0 0];

internalField   nonuniform List<scalar> 
10325
(
0.00840002
3.63814e-10
0.00840002
2.27363e-09
0.00840001
6.90544e-09
0.00839999
1.83217e-08
0.00839995
4.14005e-08
0.00839984
9.75041e-08
0.00839962
2.05769e-07
0.00839905
5.0003e-07
0.00839803
1.02208e-06
0.00839481
2.88597e-06
0.00838766
6.91638e-06
0.00836462
2.30313e-05
0.0082661
9.48837e-05
0.00777705
0.00048293
0.00713916
0.00063548
0.00645912
0.00067902
0.00578851
0.000670063
0.00511433
0.000673661
0.00445552
0.000658251
0.00377093
0.000683973
0.00304868
0.000721527
0.00230098
0.000747067
0.00154197
0.000758415
0.000773522
0.000767975
0.000773118
0.00840002
7.60105e-10
0.00840002
4.75617e-09
0.00840001
1.43911e-08
0.00839999
3.8296e-08
0.00839994
8.63485e-08
0.00839982
2.04719e-07
0.00839959
4.30786e-07
0.00839896
1.06254e-06
0.00839782
2.14606e-06
0.00839417
6.22181e-06
0.00838585
1.49901e-05
0.008358
5.08755e-05
0.00823791
0.000211341
0.00769326
0.00102144
0.00708769
0.00123862
0.00646869
0.00129699
0.00583635
0.00130184
0.00518175
0.00132776
0.00450264
0.00133677
0.00379691
0.00138905
0.00306294
0.00145476
0.00231127
0.00149809
0.00154716
0.00152191
0.000775861
0.00153884
0.00154859
0.00840002
1.18926e-09
0.00840002
7.44023e-09
0.00840001
2.24916e-08
0.00839998
5.99203e-08
0.00839993
1.35133e-07
0.00839981
3.21272e-07
0.00839955
6.76407e-07
0.00839887
1.67643e-06
0.00839762
3.38392e-06
0.00839365
9.87087e-06
0.00838454
2.3862e-05
0.00835394
8.14451e-05
0.00822782
0.00033389
0.00767682
0.00156627
0.00706245
0.00185049
0.00646601
0.00189236
0.00585983
0.00190742
0.00522644
0.00196063
0.0045485
0.00201414
0.00383607
0.00210078
0.00309632
0.00219379
0.00233066
0.00226306
0.00155612
0.00229583
0.000773726
0.00232078
0.00232197
0.00840002
1.64144e-09
0.00840002
1.02684e-08
0.00840001
3.10274e-08
0.00839998
8.27044e-08
0.00839993
1.86558e-07
0.0083998
4.44034e-07
0.00839953
9.35381e-07
0.00839882
2.32069e-06
0.0083975
4.68804e-06
0.00839338
1.36722e-05
0.00838393
3.30719e-05
0.00835212
0.000113163
0.00822808
0.000454485
0.00768035
0.00210747
0.00706566
0.00246303
0.00648356
0.00247325
0.00589757
0.00249278
0.00528132
0.00257618
0.00461825
0.00267676
0.00390647
0.00281171
0.00316575
0.0029337
0.00239591
0.00303216
0.0015928
0.00309835
0.000787612
0.00312538
0.00310921
0.00840002
2.10685e-09
0.00840002
1.31783e-08
0.00840001
3.98051e-08
0.00839998
1.06135e-07
0.00839993
2.39442e-07
0.00839979
5.70228e-07
0.00839952
1.20173e-06
0.00839879
2.98056e-06
0.00839743
6.03171e-06
0.00839327
1.75196e-05
0.00838364
4.24573e-05
0.00835131
0.000145361
0.00823365
0.000568829
0.00769936
0.00263505
0.00708683
0.00307321
0.00651595
0.00304284
0.00594999
0.00305797
0.00535718
0.00316814
0.00471427
0.00331901
0.0040157
0.00350955
0.00327144
0.00367708
0.00249485
0.00380795
0.00168527
0.00390726
0.000842652
0.00396767
0.00395178
0.00840002
2.56851e-09
0.00840002
1.60668e-08
0.00840001
4.85359e-08
0.00839998
1.29399e-07
0.00839993
2.91815e-07
0.00839979
6.95066e-07
0.00839952
1.46296e-06
0.00839879
3.65027e-06
0.00839757
7.23697e-06
0.00839315
2.16207e-05
0.00838436
5.10093e-05
0.00835146
0.0001781
0.0082457
0.000671365
0.00773046
0.00314357
0.00712294
0.00367833
0.00655986
0.00360459
0.00601748
0.00359959
0.00545206
0.0037325
0.00483171
0.00393851
0.00416062
0.00417983
0.0034345
0.00440237
0.00264893
0.0045926
0.00180579
0.00475006
0.000918152
0.00485445
0.00486915
0.00840002
3.03448e-09
0.00840002
1.90175e-08
0.00840001
5.74158e-08
0.00839998
1.53367e-07
0.00839993
3.45372e-07
0.00839979
8.26023e-07
0.0083995
1.73804e-06
0.00839886
4.22826e-06
0.00839674
9.34268e-06
0.00839507
2.29776e-05
0.00837797
6.7857e-05
0.00838232
0.0001736
0.00826318
0.000787486
0.00778238
0.00361726
0.00716476
0.00429267
0.00663505
0.00413343
0.00612463
0.00410969
0.00559531
0.00426155
0.00500319
0.0045301
0.00435292
0.00482915
0.00364817
0.0051062
0.00287182
0.00536798
0.00200978
0.00561108
0.00104318
0.0058208
0.00591224
0.00840002
3.54461e-09
0.00840002
2.22072e-08
0.00840001
6.70524e-08
0.00839998
1.79038e-07
0.00839992
4.03253e-07
0.00839977
9.6354e-07
0.00839947
2.02711e-06
0.00839871
4.93502e-06
0.00839722
1.0784e-05
0.00839296
2.6944e-05
0.00838367
7.67927e-05
0.00835366
0.000202986
0.00827945
0.000858242
0.00783453
0.00405547
0.00720675
0.00491615
0.00674175
0.00459732
0.0062735
0.00457737
0.00578053
0.00475397
0.00523438
0.0050753
0.00462783
0.00543471
0.0039524
0.00578054
0.00319924
0.0061201
0.00232329
0.00648625
0.00126989
0.00687312
0.00718154
0.00840002
4.09848e-09
0.00840002
2.56532e-08
0.00840001
7.75104e-08
0.00839998
2.06647e-07
0.00839991
4.65946e-07
0.00839976
1.10862e-06
0.00839944
2.33533e-06
0.00839864
5.66925e-06
0.00839729
1.20916e-05
0.00839253
3.14002e-05
0.00838684
8.21599e-05
0.00834754
0.000241614
0.00830094
0.00090176
0.00792572
0.0044239
0.00737964
0.00545862
0.00690229
0.00507375
0.00646493
0.00501381
0.00601584
0.00520185
0.00551527
0.00557453
0.00496791
0.00598096
0.00438255
0.00636487
0.00371052
0.00679101
0.00286051
0.00733539
0.00173066
0.00800241
0.00891137
0.00840002
4.70859e-09
0.00840002
2.94462e-08
0.00840001
8.90697e-08
0.00839997
2.37033e-07
0.0083999
5.35098e-07
0.00839973
1.26695e-06
0.00839939
2.67238e-06
0.00839852
6.46913e-06
0.00839719
1.33901e-05
0.00839188
3.63846e-05
0.00838708
8.67208e-05
0.00834522
0.000282555
0.00830242
0.000941991
0.00797627
0.00474326
0.00748778
0.00594353
0.00708079
0.00547977
0.00670366
0.00538997
0.00629099
0.0056134
0.00588744
0.00597674
0.00545232
0.00641494
0.0049744
0.00684171
0.00441832
0.00734599
0.00373631
0.00801601
0.00277807
0.00895921
0.0116883
0.00840002
5.4291e-09
0.00840002
3.39521e-08
0.0084
1.02633e-07
0.00839997
2.73313e-07
0.00839988
6.17021e-07
0.00839967
1.46269e-06
0.00839925
3.08584e-06
0.00839821
7.44437e-06
0.00839595
1.56064e-05
0.00839088
4.11264e-05
0.00837703
0.000100293
0.00834528
0.000313365
0.00825819
0.00102654
0.00785157
0.00514299
0.00773569
0.0060558
0.0072664
0.00594858
0.00691749
0.00573747
0.00660013
0.00592905
0.00631421
0.00626118
0.00605171
0.00667626
0.00572428
0.0071681
0.00537482
0.00769429
0.00518258
0.00820708
0.00552537
0.00861513
0.00820181
0.0090093
0.00840002
6.20469e-09
0.00840002
3.87885e-08
0.0084
1.17209e-07
0.00839996
3.12298e-07
0.00839987
7.05619e-07
0.00839965
1.67446e-06
0.00839918
3.53614e-06
0.00839797
8.59089e-06
0.00839599
1.75285e-05
0.0083891
4.76707e-05
0.00837588
0.000113112
0.00833467
0.000353728
0.0082606
0.00109784
0.00788774
0.00550829
0.00768644
0.00625481
0.00740751
0.00622658
0.00715653
0.00598689
0.00695708
0.00612656
0.00676689
0.00644952
0.00658751
0.00685405
0.00645674
0.00729773
0.00645202
0.00769763
0.00667717
0.00798011
0.0073057
0.00798461
0.00735403
0.00814932
0.00840002
6.93957e-09
0.00840002
4.33636e-08
0.0084
1.30627e-07
0.00839997
3.49067e-07
0.00839988
7.89108e-07
0.00839966
1.88316e-06
0.0083992
3.98594e-06
0.00839806
9.65708e-06
0.0083953
2.02436e-05
0.00839117
5.14309e-05
0.00837234
0.000131623
0.00835447
0.000370617
0.0083084
0.00114083
0.00810483
0.00570362
0.00780215
0.00655605
0.00760789
0.00641991
0.00744228
0.00615069
0.00729198
0.00627489
0.00715355
0.00658586
0.00707619
0.00692943
0.00712966
0.00724256
0.00733942
0.00748655
0.00768698
0.0076307
0.0081923
0.00747698
0.00692739
0.00861453
0.00840002
7.12893e-09
0.00840002
4.45139e-08
0.00840002
1.34339e-07
0.00840001
3.58246e-07
0.00839998
8.10897e-07
0.00839993
1.92575e-06
0.00839982
4.07891e-06
0.00839946
9.94574e-06
0.00840005
1.95907e-05
0.00839411
5.69838e-05
0.00840764
0.000117735
0.00835232
0.000424715
0.00837751
0.00111252
0.00849271
0.00557955
0.00817279
0.00687563
0.00796897
0.00662327
0.00777571
0.00634205
0.00766516
0.00638307
0.00761542
0.00663369
0.00763361
0.00690957
0.00774047
0.00713406
0.00798432
0.007241
0.00833169
0.00728116
0.00874892
0.00705705
0.00664192
0.00902993
0.00840003
6.93636e-09
0.00840003
4.32862e-08
0.00840003
1.30187e-07
0.00840004
3.48025e-07
0.00840006
7.85091e-07
0.0084001
1.87886e-06
0.00840023
3.93225e-06
0.00840041
9.70606e-06
0.00840085
1.91031e-05
0.00840173
5.57496e-05
0.00841074
0.000108501
0.008426
0.000408177
0.0085083
0.00102806
0.00943145
0.00464597
0.00896054
0.00734557
0.0084809
0.00710211
0.00820294
0.00661796
0.00807621
0.00650733
0.00805201
0.00665552
0.00811712
0.00684306
0.00825361
0.00699634
0.00847908
0.00701415
0.00877855
0.00697983
0.00910968
0.00672335
0.00635651
0.00939111
0.00840003
5.95371e-09
0.00840003
3.71947e-08
0.00840005
1.12708e-07
0.0084001
2.99167e-07
0.0084002
6.77397e-07
0.00840048
1.58866e-06
0.00840104
3.36891e-06
0.00840283
7.86183e-06
0.00840546
1.64211e-05
0.00842033
4.06082e-05
0.00843939
8.92306e-05
0.00858653
0.000260106
0.0089487
0.000663634
0.0110812
0.00250986
0.0101971
0.00822493
0.00931862
0.00797809
0.00886404
0.00707111
0.00860454
0.00676374
0.00852266
0.00673449
0.00856336
0.00679997
0.00869207
0.00686601
0.00888994
0.00681423
0.00914189
0.00672554
0.00938635
0.00647603
0.0061153
0.00962329
0.00840003
5.20347e-09
0.00840003
3.25112e-08
0.00840005
9.84527e-08
0.00840008
2.61343e-07
0.00840017
5.91413e-07
0.00840036
1.38605e-06
0.00840078
2.94105e-06
0.00840176
6.82992e-06
0.00840381
1.43224e-05
0.00841028
3.38751e-05
0.00841943
7.98561e-05
0.00847926
0.000199124
0.00857225
0.000570622
0.00911039
0.00196708
0.00988802
0.00743905
0.0100012
0.00785988
0.00933293
0.00773676
0.00905888
0.00703535
0.008951
0.00684049
0.00895755
0.00679186
0.00905333
0.00676908
0.00921356
0.00665367
0.00943302
0.00650411
0.00963798
0.00626929
0.00593228
0.00981726
0.00840003
4.61255e-09
0.00840003
2.88055e-08
0.00840004
8.71794e-08
0.00840007
2.31549e-07
0.00840014
5.23995e-07
0.00840028
1.23033e-06
0.0084006
2.60556e-06
0.0084013
6.0824e-06
0.00840294
1.26287e-05
0.00840519
3.13684e-05
0.00841929
6.54107e-05
0.00842789
0.000189379
0.00850947
0.000487528
0.00872333
0.00174926
0.00958904
0.00655973
0.00962889
0.00781585
0.00959799
0.00776426
0.00936624
0.00726486
0.00927414
0.0069309
0.00928521
0.0067793
0.00936159
0.006691
0.00947209
0.00654166
0.0096385
0.00633604
0.00981489
0.00609029
0.0057806
0.00996388
0.00840003
4.08102e-09
0.00840003
2.54745e-08
0.00840004
7.68527e-08
0.00840007
2.04694e-07
0.00840013
4.62608e-07
0.00840025
1.09409e-06
0.00840054
2.30736e-06
0.0084011
5.46964e-06
0.00840248
1.11914e-05
0.00840475
2.88245e-05
0.00841286
5.70711e-05
0.00842654
0.000174414
0.00849262
0.00042019
0.00872729
0.00150874
0.00986291
0.00540957
0.00987389
0.0078049
0.00977012
0.00786731
0.00959563
0.00743917
0.00953822
0.00698836
0.00956317
0.00675366
0.00964642
0.00660748
0.00974037
0.00644597
0.009851
0.00622413
0.00998075
0.00595812
0.00565925
0.010099
0.00840003
3.3386e-09
0.00840003
2.08541e-08
0.00840005
6.31759e-08
0.00840008
1.67669e-07
0.00840016
3.79489e-07
0.00840036
8.89292e-07
0.00840077
1.87992e-06
0.00840182
4.3736e-06
0.00840396
8.99241e-06
0.00841007
2.24397e-05
0.00842359
4.33006e-05
0.00846977
0.00012687
0.00858847
0.000299805
0.00914289
0.000951142
0.0115542
0.00297688
0.0108132
0.00854607
0.0106264
0.00805746
0.0101462
0.00792065
0.00995146
0.00718179
0.00988637
0.00681764
0.00991149
0.00658225
0.00997873
0.0063773
0.0100561
0.00614471
0.0101403
0.0058714
0.005569
0.010227
0.00840003
2.71379e-09
0.00840003
1.69487e-08
0.00840004
5.12771e-08
0.00840008
1.36183e-07
0.00840014
3.08616e-07
0.0084003
7.22533e-07
0.00840064
1.53846e-06
0.00840144
3.53515e-06
0.00840296
7.42597e-06
0.00840801
1.71901e-05
0.00841347
3.76009e-05
0.00845075
8.86579e-05
0.00853053
0.00021883
0.00882835
0.000649755
0.00990342
0.00189434
0.011189
0.00724694
0.0109688
0.0082771
0.010816
0.00807498
0.0104502
0.00755043
0.0102956
0.00697055
0.0102444
0.00663111
0.0102548
0.00636639
0.0102931
0.00610447
0.0103373
0.00582432
0.0055159
0.0103865
0.00840003
2.09295e-09
0.00840003
1.30689e-08
0.00840005
3.96392e-08
0.00840008
1.04974e-07
0.00840015
2.37373e-07
0.00840031
5.53628e-07
0.00840067
1.16636e-06
0.00840149
2.69523e-06
0.00840339
5.48655e-06
0.00840676
1.36688e-05
0.00841949
2.471e-05
0.00842769
7.96972e-05
0.00850458
0.000141218
0.00858319
0.000568701
0.00908264
0.00138945
0.0109388
0.00537713
0.0111068
0.00810568
0.0110172
0.00816177
0.0108046
0.00776234
0.0106207
0.00715622
0.0105308
0.00671803
0.0104998
0.00639269
0.010504
0.00609659
0.0105191
0.00580374
0.00548071
0.0105478
0.00840003
1.60864e-09
0.00840003
1.00473e-08
0.00840004
3.04675e-08
0.00840007
8.06908e-08
0.00840012
1.82599e-07
0.00840024
4.25234e-07
0.0084005
9.00523e-07
0.00840111
2.05993e-06
0.0084023
4.269e-06
0.00840587
9.96842e-06
0.00840982
2.06056e-05
0.00843833
5.0421e-05
0.00846627
0.000112671
0.00872223
0.000309655
0.00927252
0.000835908
0.0118817
0.00274414
0.0117666
0.00821909
0.0116621
0.00826534
0.011343
0.00807939
0.0110398
0.00745761
0.0108841
0.00687268
0.0108028
0.00647096
0.010763
0.0061318
0.0107498
0.00581149
0.00547705
0.0107459
0.00840003
1.21762e-09
0.00840003
7.57539e-09
0.00840004
2.31462e-08
0.00840006
6.07544e-08
0.0084001
1.38532e-07
0.0084002
3.1931e-07
0.00840042
6.82205e-07
0.00840092
1.53984e-06
0.00840195
3.22361e-06
0.00840445
7.37955e-06
0.0084096
1.53479e-05
0.00842247
3.71247e-05
0.00845622
7.84469e-05
0.00854831
0.000215439
0.00881671
0.000565653
0.00958169
0.00197139
0.0115573
0.00623366
0.0117415
0.00807924
0.0117034
0.00811511
0.0113712
0.00778749
0.0112265
0.00701216
0.0111046
0.00658666
0.0110256
0.00620181
0.0109921
0.00583791
0.00550873
0.0109509
0.00840003
7.61507e-10
0.00840003
6.21582e-09
0.00840004
1.56332e-08
0.00840005
4.89139e-08
0.0084001
9.35003e-08
0.00840015
2.58727e-07
0.00840038
4.52308e-07
0.00840064
1.26858e-06
0.00840178
2.06132e-06
0.00840282
6.24492e-06
0.00840894
9.17943e-06
0.00841296
3.2806e-05
0.00844892
4.1031e-05
0.00847667
0.000187051
0.00872218
0.000314503
0.00946171
0.00123298
0.0117247
0.00395188
0.0120056
0.00779262
0.012012
0.0081059
0.0119027
0.00789246
0.0115717
0.00734027
0.011419
0.00673298
0.0113318
0.00628217
0.0112669
0.00589118
0.00555375
0.0112095
0.00840003
6.87616e-10
0.00840003
3.80335e-09
0.00840004
1.27478e-08
0.00840005
3.09348e-08
0.00840007
7.65103e-08
0.00840017
1.61909e-07
0.00840023
3.79783e-07
0.00840073
7.71034e-07
0.00840095
1.8233e-06
0.00840355
3.61673e-06
0.00840376
8.86346e-06
0.00841899
1.747e-05
0.0084151
4.43702e-05
0.00850481
9.67589e-05
0.00856353
0.000253645
0.00910541
0.000690042
0.0108507
0.00219709
0.0121959
0.00643205
0.0121972
0.00809949
0.0121185
0.00796584
0.0118497
0.00760086
0.0116925
0.00688215
0.0115861
0.00637638
0.0115137
0.00595028
0.00557718
0.0114675
0.00840003
4.93276e-10
0.00840003
2.75536e-09
0.00840003
9.02156e-09
0.00840004
2.23535e-08
0.00840007
5.39887e-08
0.00840011
1.16954e-07
0.00840022
2.66275e-07
0.00840043
5.56495e-07
0.00840098
1.26256e-06
0.00840198
2.59913e-06
0.00840472
6.04192e-06
0.00841001
1.21112e-05
0.00842309
3.0889e-05
0.00846113
5.83461e-05
0.00853514
0.000177902
0.00882815
0.000395136
0.00958105
0.00143842
0.0121222
0.00387337
0.0124983
0.00771267
0.012483
0.00797208
0.012341
0.00773376
0.0120355
0.00717819
0.0118729
0.0065222
0.0117963
0.00600203
0.0056133
0.0117195
0.00840003
3.46421e-10
0.00840003
1.93948e-09
0.00840003
6.3186e-09
0.00840004
1.57285e-08
0.00840006
3.78002e-08
0.00840009
8.22821e-08
0.00840017
1.86296e-07
0.00840033
3.91753e-07
0.0084007
8.81748e-07
0.00840146
1.83083e-06
0.00840329
4.15985e-06
0.00840668
8.66432e-06
0.00841746
1.98444e-05
0.00843271
4.27992e-05
0.00850852
0.000100919
0.00865774
0.000243911
0.00938172
0.000710223
0.0113582
0.00188405
0.0128513
0.00620354
0.012688
0.00812217
0.0126876
0.0077118
0.0124829
0.00735877
0.0122482
0.00673003
0.012052
0.00615011
0.00557078
0.0120521
0.00840003
2.56388e-10
0.00840003
1.20429e-09
0.00840003
4.50558e-09
0.00840004
9.93048e-09
0.00840005
2.68697e-08
0.00840008
5.16531e-08
0.00840013
1.32954e-07
0.00840028
2.42104e-07
0.00840052
6.35287e-07
0.00840124
1.10175e-06
0.00840231
3.05742e-06
0.00840607
4.86065e-06
0.00841005
1.56285e-05
0.0084331
1.97792e-05
0.0084445
8.80345e-05
0.00859508
9.36787e-05
0.00877196
0.000528407
0.00959526
0.00105596
0.0124157
0.00334855
0.0129953
0.00752206
0.0127904
0.00788676
0.0127001
0.00741881
0.0125786
0.00681569
0.0125671
0.00610322
0.00543229
0.0126283
0.00840003
1.17131e-10
0.00840003
8.88685e-10
0.00840003
2.34295e-09
0.00840004
7.04636e-09
0.00840005
1.39542e-08
0.00840006
3.66277e-08
0.00840013
6.66033e-08
0.00840019
1.73957e-07
0.00840053
2.98779e-07
0.00840079
8.16953e-07
0.00840252
1.31007e-06
0.00840331
3.96111e-06
0.00841341
5.4226e-06
0.00841138
2.12747e-05
0.00847722
2.13161e-05
0.00844278
0.000126064
0.00883394
0.000133223
0.00910556
0.000776907
0.0107108
0.00172733
0.0129741
0.00522377
0.0130791
0.00773831
0.013074
0.00737041
0.013099
0.00671705
0.0131657
0.00595362
0.00525042
0.0132657
0.00840003
8.40347e-11
0.00840003
4.69003e-10
0.00840003
1.56592e-09
0.00840003
3.81134e-09
0.00840004
9.28586e-09
0.00840006
1.95972e-08
0.00840008
4.48173e-08
0.00840016
9.06186e-08
0.00840024
2.0651e-07
0.00840064
4.08605e-07
0.00840097
9.49752e-07
0.00840305
1.84432e-06
0.00840376
4.47706e-06
0.00841645
8.40141e-06
0.00841403
2.24949e-05
0.00849777
4.08095e-05
0.00850131
0.000124823
0.00900735
0.000263792
0.00980158
0.000909071
0.0126613
0.00231854
0.0133995
0.00693011
0.0136164
0.00704797
0.0137305
0.0064945
0.0139001
0.00570782
0.00502405
0.0140767
0.00840003
4.99134e-11
0.00840003
2.82888e-10
0.00840003
9.24767e-10
0.00840003
2.29745e-09
0.00840004
5.4448e-09
0.00840004
1.17135e-08
0.00840006
2.58115e-08
0.0084001
5.32832e-08
0.00840018
1.15537e-07
0.00840035
2.34066e-07
0.00840075
5.11392e-07
0.00840155
1.01125e-06
0.00840348
2.33866e-06
0.00840745
4.23846e-06
0.00841688
1.19465e-05
0.00843822
1.8557e-05
0.00848729
6.98472e-05
0.0086248
0.000120729
0.00902445
0.0004877
0.0101424
0.00115084
0.0128618
0.00408953
0.0134832
0.0062682
0.0138326
0.00603645
0.014176
0.00530327
0.00462201
0.0145275
0.00840003
3.45655e-11
0.00840003
1.93219e-10
0.00840003
6.30768e-10
0.00840003
1.56168e-09
0.00840003
3.73613e-09
0.00840004
8.06502e-09
0.00840004
1.80367e-08
0.00840006
3.75002e-08
0.00840008
8.28086e-08
0.00840014
1.69613e-07
0.00840024
3.76664e-07
0.00840044
7.62952e-07
0.00840088
1.70403e-06
0.00840144
3.46035e-06
0.0084047
7.60298e-06
0.00840648
1.57756e-05
0.00843494
3.48566e-05
0.0084766
7.62452e-05
0.00873926
0.000200394
0.00935871
0.000495603
0.0115862
0.00173791
0.0125953
0.00497497
0.0133714
0.00521237
0.0139615
0.00469509
0.00424076
0.0143774
0.00840003
2.36064e-11
0.00840003
1.31074e-10
0.00840003
4.31363e-10
0.00840003
1.0738e-09
0.00840003
2.64251e-09
0.00840003
5.81595e-09
0.00840004
1.35836e-08
0.00840004
2.94427e-08
0.00840005
6.65985e-08
0.00840006
1.50801e-07
0.00840008
3.20907e-07
0.00840004
7.60527e-07
0.00840001
1.50869e-06
0.00839968
3.66134e-06
0.00839947
6.51962e-06
0.00839782
1.60278e-05
0.00840144
2.43437e-05
0.00840508
6.30118e-05
0.00846762
0.000104457
0.00866736
0.00029694
0.00927583
0.000963099
0.0104072
0.00352149
0.0116485
0.00401035
0.0126698
0.0037367
0.00358248
0.0134159
0.00840003
1.39199e-11
0.00840003
6.40778e-11
0.00840003
2.44626e-10
0.00840003
5.28097e-10
0.00840003
1.44934e-09
0.00840004
2.64694e-09
0.00840004
7.15485e-09
0.00840006
1.12483e-08
0.00840008
3.62122e-08
0.00840019
4.21931e-08
0.00840031
1.86743e-07
0.00840088
1.53971e-07
0.00840141
1.0017e-06
0.00840434
5.29019e-07
0.00840335
6.66364e-06
0.00841967
-7.11834e-07
0.00839038
4.45208e-05
0.00847759
-2.72858e-05
0.00829609
0.000252005
0.00861421
-3.26392e-05
0.00849623
0.000936068
0.00886035
0.0027436
0.00990442
0.00306515
0.0110341
0.00271918
0.00294928
0.0117618
0.00840003
1.96377e-12
0.00840003
2.90657e-11
0.00840003
5.94019e-11
0.00840003
2.29661e-10
0.00840003
2.99939e-10
0.00840003
1.02486e-09
0.00840004
7.99564e-10
0.00840005
4.41329e-09
0.00840008
-3.85437e-10
0.0084001
2.30534e-08
0.00840031
-2.32717e-08
0.00840032
1.45654e-07
0.00840108
-2.30397e-07
0.00840163
8.42742e-07
0.00840565
-2.75351e-06
0.00840048
7.63438e-06
0.00846705
-2.21727e-05
0.00834727
7.80801e-05
0.0086727
-9.55338e-05
0.00814289
0.000440829
0.00850402
0.000407489
0.00788581
0.00286815
0.00863038
0.00254837
0.00955512
0.00198668
0.00216545
0.0104254
0.00840003
6.635e-12
0.00840003
3.63508e-11
0.00840003
1.10507e-10
0.00840003
2.65699e-10
0.00840003
5.68895e-10
0.00840003
1.18121e-09
0.00840003
2.08056e-09
0.00840003
3.88474e-09
0.00840004
5.3678e-09
0.00840005
5.65519e-09
0.00840008
7.1382e-09
0.00840025
-4.7796e-08
0.00840017
-1.18821e-08
0.00840134
-3.63129e-07
0.0083992
2.15864e-07
0.00840702
-9.50296e-07
0.00837881
5.32789e-06
0.00845415
3.83003e-06
0.00826369
5.43454e-05
0.00859165
0.000100703
0.00835672
0.000454844
0.00884667
0.00172173
0.00926115
0.0023941
0.009421
0.002012
0.00185745
0.00979094
0.00840003
5.56284e-12
0.00840003
2.25581e-11
0.00840003
9.91457e-11
0.00840003
2.00901e-10
0.00840003
6.66973e-10
0.00840003
1.18384e-09
0.00840003
3.91441e-09
0.00840002
6.31966e-09
0.00840001
2.24601e-08
0.00839998
3.13308e-08
0.00839987
1.24014e-07
0.00839968
1.54406e-07
0.00839904
6.77319e-07
0.00839812
6.74674e-07
0.00839415
4.46461e-06
0.00839434
-9.56081e-08
0.00836942
2.77619e-05
0.0084064
-2.77325e-05
0.00826886
0.000169347
0.00846892
-0.000145068
0.00841563
0.000401958
0.00939734
0.000379543
0.00949244
0.00217005
0.00932723
0.00212478
0.0018002
0.00940453
0.00840003
1.99708e-12
0.00840003
1.85951e-11
0.00840003
4.1937e-11
0.00840003
1.53902e-10
0.00840003
2.63981e-10
0.00840003
9.40701e-10
0.00840003
1.32577e-09
0.00840003
5.55166e-09
0.00840005
5.84233e-09
0.00840004
3.21635e-08
0.00840013
2.49417e-08
0.00840009
1.7152e-07
0.00840082
1.04781e-07
0.00840014
9.89165e-07
0.00840716
-8.05964e-07
0.00839727
7.7385e-06
0.00843956
-1.47561e-05
0.00834521
6.08302e-05
0.00862032
-0.00010976
0.00815754
0.000292627
0.00868151
-0.000159093
0.00805069
0.000881066
0.00838351
0.00158581
0.00861115
0.00179219
0.00140142
0.00901466
0.00840003
1.04098e-12
0.00840003
1.36511e-12
0.00840003
1.80734e-11
0.00840003
1.46681e-11
0.00840003
1.20131e-10
0.00840003
2.33159e-11
0.00840003
7.62035e-10
0.00840004
-4.3719e-10
0.00840003
4.71696e-09
0.00840007
-5.10976e-09
0.00840005
2.71993e-08
0.00840018
-3.6207e-08
0.00840014
1.51535e-07
0.00840072
-3.1515e-07
0.00839755
1.98416e-06
0.0084096
-4.12582e-06
0.00836926
2.10874e-05
0.00847114
-4.30097e-05
0.00820081
0.000149653
0.00867776
-0.000212675
0.00801
0.00045489
0.00886924
-0.00012615
0.00888987
0.00128147
0.00902749
0.0015023
0.00133518
0.00906431
0.00840003
-2.38006e-13
0.00840003
3.40086e-12
0.00840003
-8.56994e-13
0.00840003
2.86602e-11
0.00840003
-1.39411e-11
0.00840003
2.03639e-10
0.00840003
-2.54582e-10
0.00840003
1.47398e-09
0.00840004
-2.66646e-09
0.00840002
9.36483e-09
0.00840006
-2.08632e-08
0.00839996
5.40834e-08
0.00840013
-1.32707e-07
0.00839952
3.52272e-07
0.00840153
-1.36357e-06
0.00839275
5.19467e-06
0.0084305
-1.64033e-05
0.00832885
5.27734e-05
0.00859724
-0.000121728
0.00809706
0.000264161
0.00879721
-0.000270641
0.00788837
0.000638488
0.0080998
0.000812155
0.00840138
0.00105704
0.000854614
0.00886015
0.00840003
5.90248e-13
0.00840003
-1.21139e-12
0.00840003
7.641e-12
0.00840003
-1.11846e-11
0.00840003
4.89504e-11
0.00840003
-1.1791e-10
0.00840003
3.71138e-10
0.00840003
-1.03265e-09
0.00840003
3.25552e-09
0.00840004
-7.09902e-09
0.00840001
2.48827e-08
0.00840012
-4.05966e-08
0.00839999
1.59112e-07
0.00840096
-2.66712e-07
0.00839813
1.48526e-06
0.00840936
-4.32425e-06
0.00837229
1.7807e-05
0.00846925
-4.54754e-05
0.00819672
0.000138191
0.00877587
-0.000330054
0.00805145
0.000415205
0.00885633
-0.000288101
0.00884483
0.000623127
0.00902747
0.000769398
0.000824919
0.00908077
0.00840003
-3.61699e-13
0.00840003
2.54833e-12
0.00840003
-3.45135e-12
0.00840003
1.73536e-11
0.00840003
-3.08295e-11
0.00840003
9.92015e-11
0.00840003
-2.96196e-10
0.00840003
8.36227e-10
0.00840004
-3.12956e-09
0.00840002
6.30655e-09
0.00840007
-2.2952e-08
0.00839998
3.10613e-08
0.00840017
-1.61022e-07
0.00839977
1.90843e-07
0.00840204
-2.2032e-06
0.00839409
2.58677e-06
0.00843369
-2.14979e-05
0.00834512
3.53428e-05
0.00861802
-0.000139439
0.00795617
0.000313605
0.00863201
-0.000270375
0.00772079
0.000544806
0.00779031
0.000399411
0.00808317
0.000426396
0.000328549
0.00864994
0.00840003
2.61298e-14
0.00840003
1.82888e-13
0.00840003
1.34046e-12
0.00840003
2.15207e-12
0.00840003
1.01989e-11
0.00840003
2.10632e-11
0.00840003
4.67907e-11
0.00840003
2.2704e-10
0.00840003
-3.12741e-11
0.00840003
2.12976e-10
0.00840001
-1.93786e-08
0.00839996
-4.26064e-08
0.00840019
-3.36571e-07
0.00840001
-7.87441e-07
0.00839899
-1.86644e-06
0.00840745
-5.40677e-06
0.00838307
-4.20235e-06
0.00843502
-1.96873e-05
0.00828697
2.97496e-06
0.00860802
-3.24164e-05
0.00826831
6.04675e-05
0.00867891
7.35907e-05
0.00873427
0.000282613
0.00889396
0.000268949
0.000294616
0.00902329
0.00840003
2.83821e-13
0.00840003
1.55637e-12
0.00840003
4.73549e-12
0.00840003
1.16832e-11
0.00840003
2.55971e-11
0.00840003
5.98794e-11
0.00840003
8.26735e-11
0.00840003
2.5161e-10
0.00840003
-4.77588e-10
0.00840001
-1.47493e-09
0.00839977
-1.65558e-08
0.00839973
-4.34645e-08
0.00839855
-1.12311e-07
0.00839733
-3.2075e-07
0.00839461
-5.91284e-07
0.00838688
-1.37808e-06
0.00838182
-2.42671e-06
0.00835413
-3.7271e-06
0.00835952
-6.2434e-06
0.00831004
-2.93745e-06
0.00836446
2.56231e-06
0.00837805
4.27057e-05
0.00856158
8.70822e-05
0.00876949
8.32805e-05
0.000184916
0.0089408
0.00840003
3.65053e-13
0.00840003
1.97693e-12
0.00840003
6.40196e-12
0.00840003
1.69388e-11
0.00840003
3.62911e-11
0.00840003
1.04155e-10
0.00840003
9.25506e-11
0.00840003
2.56252e-10
0.00840002
-2.10197e-09
0.00839999
-6.36926e-09
0.00839969
-2.61977e-08
0.00839968
-6.69857e-08
0.00839889
-8.43493e-08
0.0083979
-2.4861e-07
0.00839654
-1.95772e-07
0.00839268
-6.48116e-07
0.00838807
-2.55461e-07
0.00837726
-1.46118e-06
0.00836761
4.03927e-07
0.00835746
-3.66487e-06
0.00835372
6.19278e-06
0.00840793
1.22027e-05
0.00855486
-4.58057e-05
0.00869851
-5.89913e-05
8.9223e-05
0.00878601
0.00840003
3.26881e-13
0.00840003
1.84506e-12
0.00840003
5.40645e-12
0.00840003
1.50024e-11
0.00840003
2.74993e-11
0.00840003
6.6705e-11
0.00840003
1.50369e-10
0.00840002
2.54305e-10
0.00839997
3.27043e-09
0.00839994
8.61373e-09
0.00839966
4.76252e-08
0.00839938
1.27666e-07
0.00839889
2.59303e-07
0.00839704
8.59604e-07
0.0083956
8.59213e-07
0.00839
4.0601e-06
0.00838757
1.28099e-06
0.00837036
1.35107e-05
0.00837768
-7.76427e-06
0.00835353
2.36697e-05
0.00841126
-5.14132e-05
0.00851137
-2.86145e-05
0.00867133
-0.000177878
0.00873229
-0.00015815
5.64534e-05
0.0086766
0.00840003
6.17746e-13
0.00840003
-8.25358e-13
0.00840003
8.37215e-12
0.00840003
-1.16818e-11
0.00840003
6.06015e-11
0.00840003
-1.80432e-10
0.00840003
3.96858e-10
0.00840003
-1.77944e-09
0.00840002
2.74356e-09
0.00840003
-1.20835e-08
0.00839997
2.81959e-08
0.00840011
-6.19763e-08
0.00839941
3.41702e-07
0.00840053
-2.43055e-07
0.00839806
3.16068e-06
0.00840403
-3.26712e-06
0.0083865
1.94221e-05
0.00843915
-3.54308e-05
0.00830936
0.000123349
0.00863103
-0.000283791
0.0083028
0.000279175
0.00886282
-0.000487986
0.00896951
-0.000218227
0.0088755
-0.000125042
0.000186087
0.00858551
0.00840003
-3.3356e-13
0.00840003
2.41545e-12
0.00840003
-3.06387e-12
0.00840003
2.64583e-11
0.00840003
-3.1469e-11
0.00840003
2.59572e-10
0.00840003
-3.00702e-10
0.00840002
1.94342e-09
0.00840003
-3.05382e-09
0.00840001
1.15182e-08
0.00840005
-3.3386e-08
0.00839994
5.62235e-08
0.00840062
-3.22245e-07
0.00839992
3.48171e-07
0.00840604
-2.76575e-06
0.00840017
4.39855e-06
0.00843745
-1.89383e-05
0.00836928
3.98679e-05
0.00862384
-0.000122885
0.00806184
0.000290613
0.00862032
-0.000321974
0.00776882
0.000459863
0.00774361
-1.43921e-05
0.00771911
-0.000136062
-0.000243174
0.00794038
0.00840003
0.00840003
0.00840003
0.00840003
0.00840003
0.00840003
0.00840003
0.00840003
0.00840002
0.00840002
0.00839993
0.00840003
0.00839991
0.00840012
0.00839866
0.00840346
0.00838828
0.00843368
0.00831678
0.00863515
0.00832071
0.00890305
0.0089966
0.0087476
0.00822763
0.005244
0.00376236
0.00332089
0.00191238
0.00196845
0.00135105
0.000991666
0.000952365
-0.000327872
0.00131625
-0.000925071
0.000599466
-0.00152281
0.000599414
-0.00198122
0.00045942
-0.00230077
0.000321199
-0.00255329
0.00025474
-0.00276874
0.000217547
-0.00294568
0.000179035
-0.00308788
0.000144104
-0.00319834
0.000112087
-0.00327955
8.19743e-05
-0.00333288
5.27944e-05
-0.00336313
2.89699e-05
-0.00339502
2.81218e-05
-0.003427
2.74633e-05
-0.00344494
1.28272e-05
-0.00344397
-8.58881e-06
-0.00342548
-2.78334e-05
-0.00339053
-4.5628e-05
-0.00333796
-6.35601e-05
-0.00327062
-7.92626e-05
-0.00319127
-9.17059e-05
-0.00309958
-0.000102868
-0.00299896
-0.000113167
-0.00288817
-0.00012291
-0.00276915
-0.000130644
-0.00264465
-0.000137117
-0.00251103
-0.000144912
-0.00237343
-0.000149716
-0.00222723
-0.000157704
-0.0020748
-0.000163163
-0.00191715
-0.000169027
-0.00175469
-0.000172484
-0.00158682
-0.000178108
-0.00141088
-0.000185797
-0.00122347
-0.000196667
-0.0010333
-0.000198722
-0.000839152
-0.000201679
-0.000645546
-0.000200265
-0.000449698
-0.000201328
-0.00025152
-0.000202467
-4.81849e-05
-0.000206272
0.000163867
-0.000214075
0.000379055
-0.000216341
0.000582165
-0.000203145
0.000776485
-0.000193449
0.00096731
-0.000188889
0.00115252
-0.000182734
0.00133245
-0.000176945
0.00150649
-0.000170625
0.00167807
-0.000167758
0.0018496
-0.000167138
0.00201717
-0.000163112
0.00217969
-0.000158101
0.00233791
-0.000153533
0.00249057
-0.000148135
0.00263851
-0.000143243
0.00278119
-0.000138245
0.00291907
-0.000133315
0.0030521