/*--------------------------------*- C++ -*----------------------------------*\
  =========                 |
  \\      /  F ield         | OpenFOAM: The Open Source CFD Toolbox
   \\    /   O peration     | Website:  https://openfoam.org
    \\  /    A nd           | Version:  6
     \\/     M anipulation  |
\*---------------------------------------------------------------------------*/
FoamFile
{
    version     2.0;
    format      ascii;
    class       volScalarField;
    location    "6.5";
    object      T;
}
// * * * * * * * * * * * * * * * * * * * * * * * * * * * * * * * * * * * * * //

dimensions      [0 0 0 1 0 0 0];

internalField   nonuniform List<scalar> 
5250
(
1.00006
1.00014
1.00042
1.00083
1.00237
1.00459
1.0125
1.02649
1.06366
1.16192
1.38253
2.0016
2.80441
2.75092
2.80168
2.75172
2.73189
2.75068
2.76244
2.77698
2.78462
2.78961
2.794
2.79721
2.79887
1.00006
1.00014
1.00042
1.00083
1.00236
1.00457
1.01245
1.02638
1.06343
1.16125
1.38114
1.99678
2.80347
2.75077
2.80098
2.74981
2.73091
2.74969
2.7612
2.77543
2.78225
2.78728
2.79153
2.79409
2.79654
1.00006
1.00014
1.00042
1.00082
1.00234
1.00453
1.01235
1.02615
1.06295
1.15974
1.37805
1.98408
2.80168
2.75053
2.79884
2.7457
2.72856
2.74714
2.75919
2.77268
2.77998
2.78357
2.78857
2.79058
2.79116
1.00006
1.00014
1.00041
1.00081
1.00231
1.00447
1.01219
1.02578
1.06218
1.15731
1.37301
1.96356
2.79835
2.75217
2.79183
2.74109
2.72495
2.7429
2.75485
2.76703
2.77513
2.77914
2.78101
2.78484
2.78592
1.00006
1.00013
1.00041
1.0008
1.00227
1.00439
1.01197
1.02526
1.06112
1.15394
1.36594
1.93547
2.79287
2.75561
2.7805
2.73549
2.72032
2.73671
2.74893
2.75808
2.76385
2.7716
2.77466
2.77427
2.77439
1.00005
1.00013
1.0004
1.00078
1.00221
1.00428
1.01169
1.0246
1.05974
1.14961
1.35679
1.89942
2.78474
2.75906
2.76524
2.72757
2.71523
2.73045
2.74233
2.75217
2.75331
2.75619
2.75991
2.76302
2.76225
1.00005
1.00013
1.00038
1.00075
1.00215
1.00415
1.01135
1.02378
1.05812
1.14416
1.34583
1.85421
2.77039
2.76371
2.75261
2.71327
2.70417
2.7206
2.72886
2.73944
2.74337
2.74384
2.74468
2.74302
2.74217
1.00005
1.00012
1.00037
1.00073
1.00207
1.00399
1.01097
1.02284
1.0561
1.13915
1.33032
1.82853
2.75894
2.76166
2.7431
2.70013
2.6923
2.70589
2.71702
2.72186
2.72222
2.72291
2.72127
2.71894
2.71227
1.00005
1.00012
1.00035
1.00069
1.00198
1.0038
1.01053
1.02173
1.05374
1.1332
1.31237
1.7985
2.73086
2.75605
2.73243
2.68963
2.67872
2.68859
2.69756
2.70695
2.70528
2.69791
2.69036
2.67811
2.66162
1.00005
1.00011
1.00033
1.00065
1.00188
1.00359
1.00999
1.02048
1.05097
1.12604
1.29287
1.76198
2.68736
2.74471
2.71479
2.68906
2.66826
2.67295
2.6722
2.67601
2.67596
2.66958
2.64826
2.61817
2.55159
1.00004
1.0001
1.00031
1.00061
1.00176
1.00335
1.00937
1.01908
1.04781
1.11747
1.27215
1.71951
2.61943
2.7304
2.67869
2.67793
2.66342
2.66332
2.6607
2.65319
2.63681
2.62684
2.59794
2.5308
2.39867
1.00004
1.00009
1.00029
1.00056
1.00162
1.00307
1.00864
1.01747
1.04408
1.10783
1.24792
1.6673
2.54362
2.69579
2.68289
2.65349
2.64333
2.64375
2.64187
2.63283
2.61028
2.57434
2.53784
2.47168
2.33286
1.00004
1.00008
1.00026
1.0005
1.00145
1.00275
1.00779
1.01559
1.03986
1.09622
1.22017
1.60235
2.44009
2.64848
2.6737
2.65238
2.62873
2.62165
2.61705
2.60694
2.58618
2.54417
2.48417
2.43118
2.32739
1.00003
1.00007
1.00022
1.00044
1.00127
1.00239
1.0068
1.01347
1.03459
1.08413
1.18529
1.53318
2.31092
2.59
2.66039
2.64475
2.62362
2.60364
2.59207
2.57598
2.55411
2.52414
2.45786
2.41155
2.32071
1.00003
1.00006
1.00019
1.00037
1.00108
1.00203
1.00578
1.0113
1.02968
1.06886
1.1565
1.43197
2.12784
2.51352
2.643
2.62848
2.61301
2.5888
2.57157
2.55269
2.52284
2.49855
2.44297
2.40466
2.32785
1.00002
1.00005
1.00016
1.00031
1.00088
1.00167
1.00475
1.00913
1.02472
1.05319
1.1296
1.32223
1.88848
2.42311
2.6027
2.58923
2.58187
2.56588
2.54845
2.53317
2.49896
2.47545
2.42293
2.3917
2.33607
1.00002
1.00004
1.00013
1.00025
1.00073
1.00137
1.00393
1.0075
1.02049
1.04367
1.10669
1.26595
1.71125
2.38378
2.58928
2.56223
2.55421
2.53657
2.5234
2.51166
2.48392
2.45976
2.41442
2.37136
2.33207
1.00001
1.00003
1.00011
1.00021
1.00059
1.00111
1.00321
1.00608
1.01666
1.03597
1.0844
1.2283
1.53478
2.26289
2.54736
2.55181
2.52846
2.51763
2.49756
2.48763
2.46349
2.44591
2.41141
2.3688
2.33
1.00001
1.00003
1.00008
1.00016
1.00047
1.00088
1.00255
1.00481
1.01329
1.02823
1.06731
1.18083
1.40967
2.03935
2.45636
2.53779
2.51695
2.50687
2.48412
2.46747
2.44618
2.41926
2.39707
2.36404
2.32663
1.00001
1.00002
1.00006
1.00013
1.00036
1.00068
1.00196
1.00363
1.01029
1.0208
1.0514
1.1305
1.29208
1.79017
2.28982
2.48964
2.48928
2.48298
2.46868
2.45295
2.43486
2.41033
2.38388
2.35757
2.32524
1.00001
1.00002
1.00005
1.0001
1.00028
1.00051
1.00149
1.00273
1.00793
1.01524
1.04021
1.09363
1.21621
1.56945
2.23103
2.43794
2.45936
2.45193
2.44095
2.42236
2.40943
2.3914
2.36841
2.34316
2.31845
1
1.00001
1.00004
1.00007
1.0002
1.00038
1.00109
1.00201
1.00572
1.01127
1.0284
1.07127
1.15429
1.44878
2.07894
2.34929
2.436
2.43436
2.42562
2.40757
2.39011
2.37529
2.35742
2.33499
2.3138
1
1.00001
1.00003
1.00005
1.00015
1.00028
1.0008
1.00146
1.00427
1.00792
1.02209
1.0462
1.11354
1.27873
1.75848
2.22254
2.39727
2.40046
2.3928
2.38349
2.36756
2.35203
2.33975
2.32137
2.30354
1
1.00001
1.00002
1.00004
1.00011
1.0002
1.00057
1.00104
1.00306
1.00561
1.01582
1.03265
1.07948
1.20152
1.49128
2.07974
2.35823
2.38662
2.37595
2.36313
2.34951
2.33381
2.32331
2.31144
2.2971
1
1
1.00001
1.00003
1.00007
1.00014
1.0004
1.00073
1.00214
1.00391
1.0111
1.02243
1.05644
1.14057
1.3305
1.78427
2.22639
2.35747
2.35636
2.34486
2.33204
2.31602
2.30379
2.2948
2.28661
1
1
1.00001
1.00002
1.00004
1.00012
1.00022
1.00063
1.00115
1.00332
1.00626
1.01727
1.03561
1.09283
1.20626
1.61024
2.03405
2.29333
2.32979
2.32933
2.32086
2.3075
2.29611
2.29068
2.28774
1
1
1.00001
1.00001
1.00003
1.00008
1.00015
1.00043
1.00076
1.00227
1.00406
1.01166
1.02319
1.05895
1.14544
1.33859
1.81434
2.15955
2.28954
2.30228
2.30117
2.297
2.29137
2.29308
2.30063
1
1
1
1.00001
1.00002
1.00005
1.0001
1.00028
1.00049
1.00148
1.0026
1.00781
1.01431
1.03928
1.08609
1.20857
1.50413
2.04772
2.21841
2.27212
2.27819
2.29023
2.29421
2.306
2.32622
1
1
1
1.00001
1.00001
1.00003
1.00006
1.00017
1.00031
1.00091
1.00161
1.0047
1.00895
1.0235
1.05545
1.12804
1.34538
1.86091
2.10802
2.23528
2.26215
2.28226
2.30527
2.33473
2.36566
1
1
1
1
1.00001
1.00002
1.00004
1.00008
1.00023
1.00042
1.0012
1.00225
1.00594
1.01302
1.03162
1.08415
1.1882
1.49927
2.03865
2.1949
2.2556
2.29991
2.33322
2.37202
2.40596
1
1
1
1
1
1.00001
1.00002
1.00006
1.00011
1.00033
1.00059
1.00174
1.0032
1.00879
1.0188
1.04725
1.12362
1.27356
1.69872
2.11253
2.28562
2.35422
2.3928
2.41468
2.43173
1
1
1
1
1
1.00001
1.00001
1.00004
1.00007
1.00022
1.00037
1.00113
1.00201
1.00561
1.01186
1.02948
1.07979
1.17756
1.48958
2.05784
2.31932
2.44934
2.48414
2.48517
2.48386
1
1
1
1
1
1.00001
1.00001
1.00003
1.00005
1.00015
1.00026
1.00085
1.00143
1.00458
1.0081
1.02377
1.05121
1.1289
1.32919
1.88879
2.29663
2.54477
2.57474
2.55833
2.5318
1
1
1
1
1
1
1.00001
1.00002
1.00003
1.00011
1.00018
1.00059
1.001
1.00321
1.00599
1.01738
1.04021
1.10302
1.27576
1.7396
2.30959
2.64288
2.668
2.6232
2.58094
1
1
1
1
1
1
1
1.00001
1.00002
1.00004
1.00011
1.0002
1.00066
1.00111
1.00471
1.00917
1.03605
1.08211
1.26167
1.63599
2.27952
2.68761
2.74528
2.68986
2.64667
1
1
1
1
1
1
1
1.00001
1.00001
1.00003
1.00006
1.00017
1.00031
1.00123
1.00153
1.00966
1.01674
1.08205
1.16998
1.61076
2.36246
2.75541
2.77618
2.71505
2.65729
1
1
1
1
1
1
1
1.00001
1.00001
1.00003
1.00007
1.00012
1.00047
1.00072
1.00336
1.00646
1.02661
1.05913
1.19651
1.45354
2.04848
2.75917
2.80572
2.76343
2.6917
1
1
1
1
1
1
1
1.00001
1.00001
1.00004
1.00007
1.00023
1.00042
1.00124
1.00298
1.00765
1.02259
1.05553
1.16131
1.40265
1.89426
2.7528
2.82513
2.79318
2.72897
1
1
1
1
1
1
1
1
1.00001
1.00002
1.00004
1.00011
1.00019
1.00091
1.00085
1.00708
1.01286
1.05935
1.13263
1.42681
2.11983
2.61135
2.78539
2.76528
2.72013
1
1
1
1
1
1
1
1
1
1.00001
1.00003
1.00006
1.00023
1.0003
1.00219
1.00365
1.01927
1.04663
1.14852
1.36196
1.86775
2.72887
2.81216
2.77277
2.7375
1
1
1
1
1
1
1
1
1
1.00001
1.00002
1.00008
1.00014
1.00067
1.00072
1.00605
1.01072
1.05456
1.12323
1.39836
2.06409
2.55598
2.78169
2.75151
2.72753
1
1
1
1
1
1
1
1
1
1.00001
1.00003
1.00005
1.00022
1.00027
1.0021
1.00244
1.01758
1.04122
1.14328
1.34123
1.84699
2.69813
2.80936
2.76726
2.74365
1
1
1
1
1
1
1
1
1
1.00001
1.00002
1.00007
1.00013
1.00059
1.00067
1.0057
1.00954
1.05135
1.11506
1.3794
2.04802
2.54205
2.78171
2.75403
2.73329
1
1
1
1
1
1
1
1
1
1.00001
1.00003
1.00006
1.00025
1.0003
1.00213
1.00401
1.01834
1.04521
1.13942
1.33536
1.82298
2.68269
2.79503
2.75804
2.73626
1
1
1
1
1
1
1
1
1.00001
1.00001
1.00005
1.00012
1.00033
1.0013
1.00235
1.00849
1.01719
1.05149
1.12824
1.32402
1.79614
2.6805
2.78451
2.74681
2.72778
1
1
1
1
1
1
1
1
1.00001
1.00001
1.00006
1.00016
1.00035
1.00145
1.00248
1.00873
1.01744
1.05138
1.128
1.31981
1.79077
2.66789
2.77002
2.73863
2.7255
1
1
1
1
1
1
1
1
1.00001
1.00002
1.00005
1.00024
1.00037
1.00155
1.0026
1.00894
1.01766
1.05132
1.12769
1.31711
1.78372
2.64853
2.7519
2.7288
2.72523
1
1
1
1
1
1
1
1
1.00001
1.00001
1.00005
1.00007
1.00034
1.00081
1.0025
1.00636
1.01897
1.04672
1.13773
1.32401
1.80119
2.64234
2.7237
2.70682
2.71765
1
1
1
1
1
1
1
1
1
1.00001
1.00003
1.0001
1.00015
1.00086
1.00099
1.00652
1.01266
1.05271
1.11412
1.36884
1.9598
2.58952
2.68972
2.67653
2.70196
1
1
1
1
1
1
1
1
1.00001
1.00001
1.00004
1.00009
1.00031
1.00064
1.00251
1.00533
1.01928
1.04568
1.14019
1.32336
1.8033
2.6502
2.70434
2.70418
2.744
2.29732
2.2774
2.50321
2.79087
2.93532
3.07021
3.07817
3.06392
3.04162
3.02217
2.99827
2.97591
2.95211
2.9326
2.91415
2.89919
2.88219
2.87169
2.86084
2.85858
2.8577
2.86046
2.86852
2.87921
2.89356
2.90631
2.92135
2.93637
2.94761
2.96166
2.97235
2.98272
2.99435
3.00066
3.0114
3.01688
3.02229
3.02853
3.03119
3.034
3.03474
3.03482
3.03211
3.02973
3.02556
3.02344
3.01831
3.01494
3.0076
3.00208
2.99362
2.98574
2.97785
2.96993
2.96093
2.95237
2.94196
2.93298
2.92248
2.91232
2.90155
2.89022
2.87933
2.86717
2.85589
2.84354
2.83156
2.81909
2.80694
2.79418
2.78195
2.76858
2.75701
2.74277
2.73105
2.71777
2.70488
2.69239
2.67912
2.66665
2.65389
2.64068
2.62852
2.61514
2.60271
2.58958
2.5766
2.56355
2.55044
2.53738
2.52445
2.51164
2.49925
2.48731
2.47495
2.46491
2.45324
2.44518
2.43709
2.4324
2.25045
2.22367
2.44991
2.5675
2.84872
2.99598
3.07303
3.13115
3.14861
3.16111
3.17024
3.17104
3.16755
3.15574
3.14912
3.13871
3.12979
3.11888
3.11065
3.1093
3.10666
3.10632
3.10635
3.10759
3.11128
3.11334
3.11661
3.12039
3.12386
3.12684
3.1274
3.12573
3.1177
3.11344
3.10846
3.10409
3.09582
3.08984
3.07879
3.07288
3.06119
3.05409
3.0434
3.03468
3.02463
3.01475
3.00435
2.99414
2.9842
2.97317
2.96351
2.9516
2.94123
2.9293
2.91822
2.90653
2.8951
2.88191
2.87015
2.85737
2.84478
2.83153
2.81845
2.80468
2.79087
2.77658
2.76276
2.74724
2.73391
2.71769
2.70423
2.68811
2.6737
2.65799
2.6425
2.62698
2.61119
2.5955
2.57997
2.56398
2.54853
2.53265
2.51654
2.50125
2.48443
2.46983
2.45257
2.43877
2.4214
2.40817
2.39101
2.37816
2.36134
2.34941
2.3331
2.32271
2.30848
2.30043
2.29123
2.28713
2.27537
2.24331
2.30581
2.42665
2.50786
2.60498
2.71962
2.826
2.959
3.04309
3.10747
3.16199
3.19217
3.20462
3.19349
3.18164
3.19954
3.21314
3.21799
3.22284
3.22245
3.22114
3.2154
3.20189
3.18567
3.16843
3.15198
3.13441
3.11739
3.09921
3.07554
3.05636
3.03692
3.01919
3.00075
2.98382
2.9663
2.94946
2.93356
2.91729
2.90148
2.88559
2.87051
2.8549
2.84036
2.82551
2.81188
2.79815
2.78614
2.77267
2.76139
2.74817
2.73679
2.72414
2.71347
2.70094
2.68933
2.67683
2.66579
2.65308
2.64199
2.62904
2.61873
2.60557
2.5959
2.58297
2.57365
2.56166
2.55225
2.54154
2.5318
2.52252
2.51241
2.50448
2.49399
2.48647
2.47591
2.46787
2.45763
2.44917
2.439
2.43071
2.41993
2.41184
2.40014
2.39181
2.37923
2.36994
2.35705
2.34567
2.33295
2.31892
2.3063
2.29063
2.27823
2.26202
2.25118
2.23516
2.22822
2.21501
2.27994
2.23939
2.24852
2.3014
2.35585
2.40656
2.45415
2.52114
2.58988
2.68665
2.77542
2.87456
2.95758
3.0389
3.08716
3.10586
3.12409
3.14163
3.15347
3.15507
3.14927
3.13306
3.11303
3.08686
3.05862
3.02835
3.00023
2.97272
2.94784
2.92236
2.89827
2.87362
2.85081
2.82812
2.80777
2.7886
2.77105
2.75448
2.73895
2.72417
2.70983
2.69528
2.68122
2.66684
2.65275
2.6393
2.62598
2.61399
2.60184
2.59077
2.57937
2.56937
2.55852
2.54912
2.5388
2.52961
2.51865
2.50813
2.4967
2.48644
2.47579
2.46617
2.45582
2.44652
2.43619
2.42707
2.41688
2.40777
2.39768
2.38828
2.37818
2.36859
2.35828
2.34896
2.33814
2.32926
2.31821
2.30914
2.29871
2.28863
2.27955
2.26837
2.26056
2.24896
2.2417
2.23027
2.22325
2.21196
2.2052
2.19412
2.18719
2.17702
2.16946
2.1611
2.15274
2.14691
2.139
2.13529
2.13016
2.13036
2.27936
2.24199
2.22225
2.23294
2.25945
2.28799
2.31191
2.3454
2.38098
2.42808
2.48069
2.54049
2.60687
2.67213
2.74748
2.81572
2.86892
2.902
2.9257
2.92535
2.91556
2.89239
2.86155
2.82946
2.79957
2.77143
2.74541
2.72198
2.7
2.68035
2.66225
2.64444
2.62777
2.61194
2.59809
2.58549
2.57372
2.56221
2.55113
2.54098
2.53142
2.52309
2.51484
2.50758
2.49984
2.49335
2.48635
2.48094
2.47419
2.46929
2.46242
2.45702
2.44997
2.4447
2.43825
2.43297
2.42595
2.41961
2.41187
2.4054
2.39752
2.39129
2.38324
2.37701
2.36854
2.36192
2.3533
2.34621
2.33773
2.32984
2.32163
2.31259
2.30466
2.29467
2.28672
2.27638
2.2678
2.25785
2.24823
2.23905
2.22839
2.21982
2.20841
2.19994
2.1883
2.17969
2.16806
2.15927
2.1474
2.1385
2.12642
2.11731
2.10571
2.09625
2.08574
2.07623
2.06727
2.05874
2.0527
2.04747
2.28406
2.24504
2.21966
2.20848
2.21127
2.22135
2.23053
2.24626
2.26346
2.28647
2.31508
2.34732
2.38713
2.42922
2.47503
2.5202
2.56193
2.59262
2.61188
2.61687
2.60745
2.58827
2.56259
2.53612
2.5128
2.49446
2.48062
2.46991
2.46177
2.45453
2.44837
2.44146
2.43467
2.42908
2.42335
2.41821
2.41348
2.40947
2.40625
2.40348
2.40107
2.39919
2.39701
2.39525
2.39272
2.39088
2.38795
2.38599
2.38277
2.38039
2.37666
2.37334
2.36893
2.36507
2.36077
2.35684
2.35215
2.34689
2.34112
2.33544
2.32955
2.3239
2.31767
2.3121
2.30522
2.29939
2.29176
2.28546
2.27727
2.27065
2.26203
2.25535
2.24632
2.23954
2.23028
2.22304
2.21408
2.20603
2.19793
2.18897
2.18156
2.17187
2.16476
2.15467
2.14751
2.13705
2.12982
2.119
2.11177
2.1008
2.09346
2.08264
2.07491
2.06464
2.05681
2.04728
2.04016
2.03166
2.0268
2.02129
2.28503
2.2484
2.21708
2.19841
2.18811
2.18589
2.18526
2.18885
2.19674
2.20635
2.22364
2.24264
2.26789
2.29796
2.32924
2.36178
2.38873
2.41042
2.4233
2.42184
2.41154
2.3939
2.37203
2.35456
2.33807
2.32591
2.31744
2.31639
2.31784
2.32123
2.32496
2.3275
2.32853
2.33021
2.32991
2.32995
2.33026
2.33103
2.33187
2.33226
2.3325
2.33251
2.3324
2.33209
2.33134
2.33055
2.32878
2.32749
2.32473
2.3229
2.31931
2.31668
2.31235
2.3089
2.30441
2.30097
2.29643
2.29232
2.28658
2.28175
2.27568
2.27066
2.26433
2.25907
2.25255
2.24691
2.24024
2.23363
2.22684
2.21896
2.21235
2.20343
2.19702
2.18738
2.18094
2.17091
2.16422
2.15401
2.14674
2.13659
2.12892
2.11908
2.11113
2.10141
2.09321
2.08341
2.07498
2.06515
2.0565
2.04698
2.03797
2.02915
2.01964
2.01169
2.00208
1.99505
1.98659
1.98102
1.97517
1.97291
2.28782
2.24957
2.21991
2.19559
2.17686
2.16749
2.1598
2.15777
2.15791
2.16301
2.17258
2.19023
2.20871
2.23389
2.25894
2.28355
2.30411
2.31652
2.32479
2.31992
2.30493
2.28287
2.26114
2.24283
2.229
2.21998
2.2122
2.20995
2.21162
2.21701
2.22238
2.22885
2.23396
2.23758
2.23978
2.24197
2.24357
2.24493
2.24633
2.247
2.24781
2.2482
2.24882
2.24935
2.24967
2.2495
2.24894
2.248
2.24651
2.24516
2.24343
2.24156
2.23939
2.23685
2.2344
2.23175
2.22895
2.2255
2.2214
2.21702
2.21238
2.20763
2.20262
2.19732
2.19186
2.1861
2.18016
2.17393
2.16733
2.1606
2.15343
2.14629
2.13873
2.1312
2.1234
2.11548
2.10748
2.09914
2.09106
2.0825
2.07422
2.06558
2.05714
2.0485
2.04013
2.03142
2.02316
2.01455
2.00619
1.99803
1.98945
1.98184
1.97328
1.96603
1.95794
1.95094
1.94384
1.93751
1.93249
1.9288
2.29111
2.25343
2.2212
2.19718
2.17601
2.15933
2.14856
2.14041
2.1389
2.14044
2.14962
2.16487
2.18678
2.20787
2.23372
2.25478
2.27256
2.27728
2.28151
2.27023
2.25105
2.22606
2.20321
2.18267
2.16827
2.15727
2.15048
2.14429
2.14212
2.14402
2.14921
2.15488
2.16186
2.16866
2.17476
2.1805
2.18489
2.18858
2.19143
2.19384
2.19661
2.19879
2.20133
2.20328
2.20523
2.20645
2.20775
2.20806
2.20871
2.20851
2.20821
2.20758
2.20667
2.20508
2.20347
2.20163
2.1994
2.19697
2.19322
2.18991
2.18511
2.18161
2.17607
2.17211
2.16598
2.1614
2.15495
2.14965
2.14293
2.13678
2.1298
2.12278
2.11567
2.10791
2.10069
2.09233
2.085
2.0764
2.06877
2.05996
2.05187
2.04286
2.03445
2.02526
2.01677
2.00752
1.99903
1.98988
1.98128
1.97234
1.9636
1.95496
1.94621
1.93791
1.92943
1.9216
1.91393
1.9069
1.90144
1.89693
2.2921
2.26127
2.2286
2.20144
2.18035
2.16277
2.15106
2.14163
2.13981
2.14253
2.15328
2.16887
2.18731
2.21029
2.23043
2.24729
2.25302
2.25682
2.24945
2.23166
2.20871
2.18483
2.16298
2.14387
2.12771
2.11515
2.10552
2.09918
2.09442
2.09265
2.09346
2.09743
2.10204
2.10801
2.1159
2.12389
2.13134
2.13772
2.14309
2.14778
2.15161
2.15472
2.1577
2.16005
2.16233
2.1645
2.16601
2.16772
2.1686
2.16929
2.16956
2.16918
2.16834
2.16714
2.16554
2.16417
2.16249
2.16073
2.1581
2.15515
2.15182
2.14814
2.14456
2.14025
2.13636
2.13128
2.12692
2.12116
2.11631
2.10993
2.1044
2.0973
2.09104
2.08336
2.07655
2.06854
2.06136
2.05306
2.04566
2.03723
2.02982
2.02137
2.01401
2.00549
1.99811
1.9895
1.98195
1.97343
1.9655
1.95723
1.94892
1.94092
1.93251
1.92477
1.91664
1.90927
1.90202
1.89536
1.89032
1.88604
2.28913
2.2617
2.23497
2.20928
2.18909
2.17238
2.16237
2.15855
2.1596
2.16771
2.18143
2.19495
2.21653
2.235
2.24991
2.25371
2.25653
2.24979
2.2349
2.21275
2.19055
2.16863
2.14843
2.12975
2.11288
2.09819
2.08574
2.07593
2.06868
2.06424
2.06255
2.06187
2.0643
2.06842
2.07401
2.08104
2.09011
2.09864
2.10693
2.11381
2.11953
2.1243
2.128
2.13173
2.13463
2.13777
2.13997
2.14245
2.14373
2.14529
2.14563
2.14643
2.1462
2.14561
2.14503
2.14399
2.14321
2.14171
2.1395
2.13678
2.1332
2.12991
2.12563
2.12189
2.11703
2.11249
2.10704
2.10163
2.09576
2.08944
2.08318
2.07597
2.06931
2.06139
2.05442
2.04616
2.03887
2.03047
2.02284
2.01437
2.00644
1.99791
1.98976
1.98125
1.97293
1.96457
1.956
1.94796
1.93914
1.93141
1.9225
1.91492
1.90626
1.89876
1.89074
1.88355
1.87673
1.87043
1.86581
1.86189
2.28866
2.26384
2.24181
2.22077
2.20458
2.19187
2.18675
2.18783
2.1944
2.20646
2.21945
2.23994
2.25363
2.26549
2.26811
2.26741
2.26026
2.24556
2.22669
2.20599
2.18631
2.16666
2.14801
2.12965
2.11245
2.0964
2.08195
2.06929
2.05865
2.05026
2.0438
2.04086
2.03985
2.04022
2.04281
2.04673
2.05257
2.06069
2.0697
2.07885
2.08707
2.09435
2.10041
2.10519
2.10936
2.1122
2.11538
2.11721
2.11958
2.12102
2.12249
2.12327
2.12382
2.12342
2.12277
2.12173
2.1208
2.11953
2.11793
2.1156
2.11283
2.10966
2.10602
2.10216
2.09787
2.09343
2.08859
2.08347
2.07817
2.07231
2.06656
2.05979
2.05352
2.04606
2.03942
2.0316
2.02463
2.01661
2.00927
2.00111
1.99352
1.98529
1.97758
1.96933
1.96152
1.95336
1.94542
1.93745
1.92934
1.92154
1.9133
1.90557
1.89743
1.88987
1.88223
1.87514
1.8687
1.86251
1.85831
1.8544
2.28419
2.26528
2.24815
2.23457
2.22483
2.22228
2.22346
2.23043
2.2401
2.2553
2.26906
2.28261
2.28522
2.28835
2.28517
2.277
2.2617
2.24353
2.22496
2.2062
2.18868
2.17051
2.15338
2.13566
2.11869
2.10208
2.086
2.07185
2.05825
2.04776
2.03821
2.03196
2.02659
2.02474
2.02436
2.02515
2.02835
2.03238
2.03971
2.0483
2.05846
2.0673
2.07554
2.08219
2.08739
2.09206
2.09527
2.0984
2.10069
2.10221
2.10398
2.10434
2.10503
2.10481
2.10426
2.10316
2.1023
2.10117
2.0999
2.09771
2.09516
2.09188
2.08849
2.08446
2.08033
2.07576
2.07105
2.06583
2.06047
2.05442
2.04848
2.04164
2.03525
2.02773
2.02091
2.01303
2.0059
1.99787
1.99047
1.98229
1.9747
1.96642
1.95876
1.95051
1.94279
1.93477
1.92688
1.91919
1.91106
1.90368
1.89546
1.88827
1.88033
1.87332
1.86613
1.85961
1.85371
1.84823
1.84468
1.84139
2.28432
2.2703
2.26142
2.25628
2.25674
2.26136
2.27094
2.27924
2.29446
2.30538
2.31171
2.31415
2.31146
2.30479
2.29138
2.27643
2.26054
2.24476
2.22866
2.21225
2.19582
2.17866
2.16189
2.14426
2.12764
2.11037
2.09475
2.07897
2.06513
2.05208
2.04056
2.03117
2.02312
2.01799
2.01451
2.01361
2.01398
2.01497
2.01775
2.02342
2.03028
2.03915
2.04805
2.05626
2.06372
2.06943
2.0743
2.07796
2.08029
2.0827
2.08377
2.08491
2.08557
2.0857
2.08529
2.08437
2.08354
2.08243
2.08116
2.07934
2.07694
2.07402
2.07073
2.06705
2.06302
2.05868
2.0541
2.04903
2.04383
2.03785
2.03217
2.02554
2.01943
2.01215
2.00547
1.99771
1.99062
1.98275
1.97544
1.96756
1.96011
1.95218
1.94462
1.9367
1.92902
1.92124
1.9134
1.90593
1.89795
1.89078
1.88285
1.87579
1.86823
1.86137
1.85464
1.8485
1.84323
1.83846
1.83584
1.83334
2.28074
2.27958
2.28043
2.28696
2.29656
2.30686
2.32273
2.33545
2.34364
2.34628
2.34393
2.33802
2.32677
2.31401
2.29842
2.28294
2.26679
2.25178
2.23701
2.22188
2.20678
2.19017
2.17386
2.1561
2.13959
2.12215
2.10659
2.09054
2.07642
2.06253
2.05002
2.03887
2.0283
2.02033
2.0126
2.00807
2.00489
2.00368
2.00386
2.00436
2.00683
2.01191
2.01882
2.02696
2.03484
2.04219
2.04853
2.05338
2.05732
2.05992
2.06165
2.06318
2.06342
2.06403
2.06377
2.06315
2.06201
2.06092
2.05961
2.05819
2.05588
2.05327
2.05012
2.04687
2.04301
2.03896
2.03444
2.02963
2.02443
2.01873
2.01305
2.00675
2.00074
1.99388
1.98735
1.97998
1.97298
1.96538
1.95818
1.95054
1.94322
1.93555
1.92808
1.92047
1.9129
1.90548
1.89776
1.89061
1.8828
1.87599
1.86837
1.86189
1.8548
1.84876
1.84266
1.83748
1.83294
1.82921
1.82779
1.82568
2.29038
2.29807
2.30819
2.3215
2.33994
2.35504
2.36688
2.37156
2.37245
2.36892
2.36101
2.34716
2.33109
2.31627
2.3019
2.28819
2.27503
2.26079
2.24722
2.23203
2.21763
2.20192
2.18648
2.17036
2.15413
2.13788
2.12159
2.10573
2.09031
2.0755
2.06151
2.04844
2.03599
2.02553
2.01496
2.00763
1.99944
1.99518
1.99106
1.98953
1.98832
1.98839
1.9905
1.99521
2.00182
2.00925
2.01686
2.02378
2.02934
2.03359
2.03711
2.03863
2.04049
2.04088
2.04142
2.04104
2.04047
2.03948
2.03885
2.03757
2.0363
2.03385
2.03145
2.02796
2.02474
2.02046
2.01658
2.01157
2.00711
2.00127
1.99623
1.98969
1.98423
1.97724
1.9713
1.96388
1.95741
1.9497
1.94293
1.93517
1.92829
1.92055
1.91359
1.90597
1.89889
1.89167
1.88425
1.87765
1.86981
1.86377
1.85594
1.8502
1.84315
1.83778
1.83226
1.82763
1.82436
1.82175
1.82157
1.82005
2.31141
2.32944
2.34931
2.36936
2.38423
2.39257
2.39563
2.39313
2.38544
2.37253
2.35837
2.3441
2.32972
2.31562
2.30282
2.28972
2.27798
2.2648
2.25228
2.23803
2.22417
2.20918
2.1943
2.17905
2.16329
2.14807
2.13184
2.11668
2.10068
2.08567
2.07069
2.05626
2.04288
2.02971
2.01811
2.00691
1.99731
1.98888
1.98161
1.97688
1.9731
1.97139
1.96981
1.9699
1.97188
1.97691
1.98387
1.99099
1.99831
2.00476
2.00977
2.01439
2.01662
2.01894
2.01981
2.02027
2.01979
2.01917
2.01818
2.01748
2.016
2.01457
2.01189
2.00953
2.00591
2.00257
1.99811
1.99384
1.9888
1.98374
1.97821
1.97234
1.96645
1.96009
1.95384
1.94712
1.94031
1.93343
1.9262
1.9194
1.91203
1.90527
1.89787
1.89121
1.8838
1.87747
1.87009
1.86402
1.85702
1.85086
1.8447
1.8384
1.83341
1.82762
1.82414
1.81978
1.81857
1.81731
1.81843
1.81696
2.34259
2.37178
2.39248
2.41044
2.41401
2.41714
2.41216
2.40183
2.38656
2.37006
2.3544
2.3405
2.32767
2.31536
2.30351
2.29148
2.27983
2.2675
2.25548
2.24247
2.22952
2.21546
2.20124
2.18627
2.17112
2.1558
2.14022
2.12486
2.10913
2.09385
2.07845
2.06357
2.04902
2.03493
2.02169
2.00886
1.99737
1.98651
1.9773
1.96911
1.96261
1.95799
1.95457
1.95209
1.95074
1.95087
1.95304
1.95868
1.96496
1.97247
1.9797
1.98539
1.99099
1.99372
1.99681
1.99746
1.99824
1.99763
1.99703
1.9961
1.99536
1.99375
1.99225
1.98907
1.98687
1.98268
1.97936
1.97433
1.97016
1.96465
1.95984
1.95377
1.94837
1.94179
1.93599
1.92888
1.92279
1.91514
1.90899
1.90111
1.89506
1.88729
1.88115
1.87376
1.86737
1.86059
1.85405
1.84796
1.84149
1.83618
1.83012
1.82573
1.82064
1.81742
1.81375
1.8126
1.8119
1.81323
1.8151
1.81408
2.39844
2.41837
2.43259
2.43379
2.43218
2.42384
2.40931
2.39291
2.37634
2.36149
2.34728
2.33464
2.32337
2.31266
2.30247
2.29156
2.28058
2.26912
2.25733
2.24527
2.23241
2.2197
2.20583
2.19238
2.17759
2.16316
2.1477
2.13253
2.11691
2.10157
2.08621
2.07108
2.05614
2.0414
2.02714
2.01322
2.00013
1.98744
1.97625
1.96544
1.95642
1.94854
1.94239
1.93779
1.934
1.93124
1.93035
1.93044
1.93326
1.93905
1.9462
1.9535
1.95994
1.96606
1.96943
1.9732
1.97379
1.97509
1.97438
1.97377
1.97287
1.97204
1.97055
1.96856
1.96597
1.96276
1.95941
1.95504
1.95112
1.94585
1.94141
1.93548
1.93039
1.92408
1.91824
1.91177
1.90523
1.89865
1.89162
1.88497
1.8779
1.87128
1.86444
1.85776
1.85132
1.84455
1.83867
1.83201
1.82676
1.82074
1.81628
1.81165
1.80838
1.80553
1.80417
1.80428
1.80598
1.80781
1.81179
1.81206
2.43496
2.44836
2.45367
2.44996
2.43941
2.41938
2.40043
2.38346
2.3685
2.35472
2.3423
2.33054
2.31984
2.30948
2.29944
2.28931
2.279
2.26832
2.25709
2.2458
2.23362
2.22176
2.20868
2.196
2.18183
2.16804
2.15301
2.13835
2.12294
2.10764
2.09214
2.07642
2.06117
2.04551
2.03093
2.01586
2.00237
1.98855
1.97624
1.96391
1.95318
1.9428
1.93396
1.92651
1.92042
1.91525
1.91131
1.90844
1.9078
1.90806
1.91105
1.91707
1.92351
1.93058
1.93655
1.94162
1.94547
1.94705
1.94863
1.94809
1.94728
1.94648
1.94576
1.94428
1.9425
1.93992
1.93704
1.93374
1.92996
1.9257
1.92118
1.91608
1.91121
1.9054
1.90025
1.89386
1.88839
1.88166
1.87563
1.86883
1.86227
1.85584
1.84902
1.84306
1.83623
1.8307
1.82416
1.81903
1.81325
1.80865
1.80443
1.80108
1.79862
1.79742
1.79752
1.79908
1.80126
1.8048
1.81203
1.81484
2.4368
2.44517
2.44
2.42954
2.41375
2.40041
2.38683
2.37389
2.36249
2.35146
2.34112
2.33078
2.32082
2.31087
2.30112
2.29125
2.28104
2.27056
2.25943
2.24827
2.23638
2.22444
2.21173
2.19868
2.18521
2.17109
2.15692
2.14192
2.12709
2.11146
2.09625
2.08045
2.06524
2.04971
2.03476
2.01974
2.00533
1.99069
1.97725
1.96365
1.95126
1.93913
1.92788
1.91758
1.9082
1.90061
1.89427
1.88865
1.88369
1.882
1.8803
1.88126
1.88483
1.89042
1.89725
1.9037
1.91011
1.914
1.91794
1.91927
1.92022
1.91989
1.91967
1.91913
1.91812
1.91607
1.91374
1.91105
1.90791
1.90441
1.90005
1.89589
1.89077
1.88611
1.88043
1.87524
1.86935
1.86368
1.8578
1.85165
1.84588
1.83947
1.83387
1.8276
1.82213
1.81645
1.81117
1.8064
1.8017
1.79803
1.79497
1.79268
1.79202
1.79225
1.79423
1.79647
1.80107
1.80739
1.81825
1.82301
2.47334
2.45211
2.42661
2.40496
2.38564
2.36905
2.35663
2.34663
2.33898
2.33208
2.32592
2.31933
2.31255
2.30513
2.29703
2.28844
2.27934
2.26987
2.25967
2.24912
2.23778
2.22602
2.21361
2.20074
2.18752
2.17367
2.1596
2.14476
2.12994
2.11444
2.09917
2.08343
2.06789
2.05223
2.03656
2.0213
2.00562
1.99099
1.97556
1.96142
1.94629
1.9328
1.91898
1.90713
1.89567
1.88632
1.87732
1.87064
1.86376
1.85833
1.85416
1.8529
1.85203
1.85415
1.85885
1.86594
1.87345
1.88076
1.88679
1.89211
1.89424
1.89725
1.89704
1.89712
1.89689
1.8961
1.89451
1.89184
1.88936
1.88548
1.88173
1.87693
1.87247
1.86716
1.86197
1.85629
1.85067
1.84494
1.83905
1.83339
1.82747
1.82191
1.81641
1.81088
1.80616
1.80088
1.79693
1.79269
1.78951
1.78732
1.78545
1.78564
1.7863
1.78872
1.79172
1.79709
1.80519
1.8151
1.82778
1.83264
2.50259
2.46742
2.43323
2.4071
2.386
2.36855
2.35431
2.34286
2.33289
2.32418
2.31596
2.30835
2.30041
2.29248
2.28473
2.27688
2.26891
2.2606
2.25188
2.2424
2.23214
2.22099
2.20911
2.19658
2.18352
2.17002
2.15611
2.1418
2.12708
2.11207
2.09659
2.08104
2.06501
2.04915
2.03296
2.01702
2.00105
1.98552
1.96999
1.95535
1.94093
1.92752
1.91438
1.90199
1.89034
1.87885
1.86886
1.85921
1.85155
1.84449
1.83818
1.83371
1.83158
1.83123
1.83259
1.83636
1.8428
1.85111
1.85987
1.8681
1.87442
1.87886
1.88171
1.8822
1.8822
1.88187
1.88068
1.87869
1.87564
1.87222
1.86805
1.86355
1.85866
1.85323
1.84759
1.8414
1.83559
1.82915
1.82344
1.81717
1.81141
1.80583
1.80002
1.79527
1.79004
1.78587
1.78214
1.7788
1.77705
1.77587
1.77621
1.7772
1.77943
1.78425
1.78962
1.79913
1.81165
1.82263
1.83513
1.83925
2.52296
2.48141
2.45049
2.42455
2.40246
2.38408
2.36832
2.35493
2.34272
2.33168
2.3211
2.31111
2.30154
2.29208
2.28231
2.2725
2.26261
2.25264
2.24233
2.23181
2.22064
2.20924
2.19716
2.18468
2.1716
2.15804
2.14424
2.13004
2.11583
2.10117
2.0865
2.07151
2.0565
2.04139
2.02629
2.01137
1.99655
1.98203
1.96771
1.95383
1.94014
1.92699
1.9141
1.90153
1.8897
1.87765
1.86717
1.85618
1.84713
1.83848
1.83126
1.82465
1.81931
1.81639
1.81661
1.81808
1.82125
1.82747
1.83638
1.84585
1.85508
1.8625
1.86814
1.87092
1.8725
1.87194
1.87116
1.86947
1.86694
1.86309
1.85874
1.85412
1.84902
1.8437
1.8377
1.83192
1.82547
1.81961
1.81314
1.80734
1.80132
1.79556
1.7901
1.78482
1.77985
1.7759
1.77209
1.76993
1.76869
1.76896
1.7699
1.77214
1.77588
1.78367
1.79422
1.80634
1.81985
1.83012
1.84093
1.84386
2.58187
2.5322
2.49686
2.47053
2.44801
2.42726
2.40782
2.39013
2.37241
2.35592
2.34089
2.32709
2.31415
2.30199
2.29044
2.27914
2.26783
2.25665
2.24513
2.23372
2.22179
2.20985
2.19733
2.18462
2.17149
2.15793
2.1442
2.12984
2.11573
2.10096
2.0867
2.07186
2.05758
2.04286
2.02868
2.01419
2.00032
1.98623
1.97286
1.95937
1.94647
1.93353
1.92089
1.90831
1.89588
1.88366
1.87176
1.86031
1.84953
1.83986
1.83088
1.82406
1.8173
1.81265
1.80922
1.80937
1.81124
1.81404
1.81999
1.82776
1.83819
1.84767
1.85626
1.86215
1.86562
1.86718
1.86601
1.8647
1.86239
1.85886
1.85431
1.84936
1.84398
1.83805
1.83202
1.82575
1.81965
1.81328
1.80726
1.80107
1.79542
1.78957
1.78445
1.77927
1.77495
1.77118
1.76862
1.76696
1.76708
1.76773
1.76932
1.77333
1.7807
1.79207
1.80497
1.81776
1.83045
1.83867
1.84702
1.84834
2.59866
2.55808
2.53377
2.5131
2.49491
2.47738
2.45951
2.44162
2.4249
2.40786
2.3899
2.37159
2.35389
2.33696
2.32015
2.30355
2.28778
2.27344
2.25942
2.24628
2.23296
2.22009
2.20683
2.1937
2.18027
2.16654
2.15283
2.13848
2.12469
2.11036
2.09666
2.08255
2.06877
2.05496
2.04109
2.02761
2.01383
2.00067
1.98715
1.97418
1.96096
1.94799
1.93505
1.92206
1.9095
1.89671
1.88471
1.87258
1.86144
1.85058
1.84096
1.83224
1.82509
1.81861
1.81405
1.81029
1.81044
1.81158
1.81499
1.81924
1.82579
1.83577
1.84568
1.85496
1.86123
1.86556
1.86643
1.86518
1.86294
1.8597
1.85574
1.85068
1.84484
1.83835
1.83208
1.82551
1.81917
1.81255
1.80624
1.80006
1.79418
1.78859
1.78351
1.77876
1.77506
1.77195
1.77014
1.7698
1.77026
1.77174
1.77558
1.78418
1.79425