/*--------------------------------*- C++ -*----------------------------------*\
  =========                 |
  \\      /  F ield         | OpenFOAM: The Open Source CFD Toolbox
   \\    /   O peration     | Website:  https://openfoam.org
    \\  /    A nd           | Version:  6
     \\/     M anipulation  |
\*---------------------------------------------------------------------------*/
FoamFile
{
    version     2.0;
    format      ascii;
    class       volVectorField;
    location    "6.5";
    object      U;
}
// * * * * * * * * * * * * * * * * * * * * * * * * * * * * * * * * * * * * * //

dimensions      [0 1 -1 0 0 0 0];

internalField   nonuniform List<vector> 
5250
(
(2.99996 3.91178e-08 0)
(2.99988 2.50708e-07 0)
(2.99969 7.8043e-07 0)
(2.9993 2.12786e-06 0)
(2.99828 4.93494e-06 0)
(2.99622 1.19235e-05 0)
(2.99049 2.57282e-05 0)
(2.97957 6.32669e-05 0)
(2.94563 0.000129104 0)
(2.87074 0.000348968 0)
(2.66231 0.000761984 0)
(2.01171 0.00213339 0)
(0.606606 0.00561291 0)
(-0.237914 0.0129291 0)
(0.154042 0.0198412 0)
(0.490784 0.0257833 0)
(0.579278 0.0290697 0)
(0.527188 0.0313293 0)
(0.425491 0.0322531 0)
(0.328154 0.0343505 0)
(0.264786 0.0376752 0)
(0.211893 0.0413746 0)
(0.154484 0.0452719 0)
(0.0917725 0.0502768 0)
(0.0434884 0.0578639 0)
(2.99996 1.20845e-07 0)
(2.99988 7.76124e-07 0)
(2.99969 2.41366e-06 0)
(2.9993 6.59584e-06 0)
(2.99829 1.52885e-05 0)
(2.99624 3.70989e-05 0)
(2.99053 7.99925e-05 0)
(2.97965 0.000198638 0)
(2.94585 0.000403259 0)
(2.87127 0.00110888 0)
(2.66368 0.00244217 0)
(2.01587 0.00694043 0)
(0.614565 0.0184654 0)
(-0.230501 0.0408138 0)
(0.16324 0.0585787 0)
(0.497751 0.0722366 0)
(0.581774 0.078466 0)
(0.527421 0.0819348 0)
(0.426362 0.0823756 0)
(0.331458 0.0855195 0)
(0.268508 0.0907688 0)
(0.214219 0.0955796 0)
(0.155308 0.099164 0)
(0.0910755 0.102701 0)
(0.0419295 0.10666 0)
(2.99996 2.09599e-07 0)
(2.99988 1.34811e-06 0)
(2.9997 4.1906e-06 0)
(2.99931 1.14745e-05 0)
(2.9983 2.66004e-05 0)
(2.99627 6.47944e-05 0)
(2.99061 0.000139755 0)
(2.97981 0.000349685 0)
(2.94632 0.000708468 0)
(2.87245 0.00197159 0)
(2.66681 0.00437479 0)
(2.02582 0.0125597 0)
(0.634783 0.0336256 0)
(-0.209149 0.0723474 0)
(0.178606 0.0996785 0)
(0.50665 0.119464 0)
(0.584417 0.129664 0)
(0.527144 0.136545 0)
(0.427102 0.140064 0)
(0.336179 0.147013 0)
(0.274211 0.15604 0)
(0.218093 0.164082 0)
(0.157057 0.169872 0)
(0.0907856 0.1743 0)
(0.0402356 0.176949 0)
(2.99996 3.04362e-07 0)
(2.99989 1.95861e-06 0)
(2.9997 6.0885e-06 0)
(2.99931 1.66873e-05 0)
(2.99832 3.87038e-05 0)
(2.99632 9.4443e-05 0)
(2.99073 0.000203875 0)
(2.98008 0.000511414 0)
(2.94708 0.00103718 0)
(2.87434 0.00289396 0)
(2.67188 0.00644348 0)
(2.042 0.018527 0)
(0.667478 0.0494712 0)
(-0.175459 0.104687 0)
(0.199359 0.140733 0)
(0.51734 0.164963 0)
(0.588617 0.179039 0)
(0.52911 0.190024 0)
(0.43083 0.198371 0)
(0.34425 0.210144 0)
(0.283368 0.223519 0)
(0.225571 0.235635 0)
(0.162328 0.245312 0)
(0.093286 0.252784 0)
(0.0399107 0.256724 0)
(2.99996 4.03022e-07 0)
(2.99989 2.5943e-06 0)
(2.99971 8.06497e-06 0)
(2.99933 2.21164e-05 0)
(2.99835 5.13155e-05 0)
(2.99639 0.000125328 0)
(2.99091 0.00027074 0)
(2.98045 0.000679497 0)
(2.94814 0.00138032 0)
(2.87698 0.00384796 0)
(2.67895 0.00858649 0)
(2.06441 0.024643 0)
(0.71252 0.0654672 0)
(-0.129888 0.137699 0)
(0.225101 0.182372 0)
(0.529526 0.210393 0)
(0.594158 0.227471 0)
(0.533504 0.242078 0)
(0.437886 0.255394 0)
(0.355621 0.272251 0)
(0.295856 0.290512 0)
(0.23671 0.307467 0)
(0.171587 0.321761 0)
(0.0999044 0.333273 0)
(0.0420706 0.339609 0)
(2.99996 5.02701e-07 0)
(2.99989 3.23618e-06 0)
(2.99971 1.00597e-05 0)
(2.99934 2.75904e-05 0)
(2.9984 6.40032e-05 0)
(2.99648 0.000156382 0)
(2.99114 0.000337609 0)
(2.98092 0.000850202 0)
(2.94949 0.00171334 0)
(2.88039 0.0048199 0)
(2.68806 0.0107321 0)
(2.09309 0.0307069 0)
(0.770368 0.0819083 0)
(-0.0719193 0.172037 0)
(0.255999 0.225086 0)
(0.543149 0.256285 0)
(0.600936 0.275553 0)
(0.540474 0.293395 0)
(0.4488 0.311902 0)
(0.371202 0.334406 0)
(0.312769 0.358299 0)
(0.25264 0.381226 0)
(0.185389 0.401781 0)
(0.109785 0.418806 0)
(0.0459947 0.428528 0)
(2.99996 6.02442e-07 0)
(2.99989 3.88105e-06 0)
(2.99972 1.20577e-05 0)
(2.99936 3.30988e-05 0)
(2.99844 7.67058e-05 0)
(2.99658 0.00018786 0)
(2.99142 0.000405377 0)
(2.98149 0.00101023 0)
(2.95116 0.00213959 0)
(2.88454 0.00551811 0)
(2.69916 0.0136387 0)
(2.12808 0.0335616 0)
(0.84587 0.0985127 0)
(0.00173597 0.207417 0)
(0.293647 0.269655 0)
(0.559355 0.301552 0)
(0.609722 0.322442 0)
(0.55121 0.343446 0)
(0.465093 0.367853 0)
(0.392531 0.396905 0)
(0.335642 0.427637 0)
(0.27525 0.458154 0)
(0.206394 0.487422 0)
(0.125875 0.513644 0)
(0.0531304 0.53013 0)
(2.99997 7.07393e-07 0)
(2.9999 4.55952e-06 0)
(2.99973 1.4161e-05 0)
(2.99939 3.88962e-05 0)
(2.9985 9.01e-05 0)
(2.99671 0.000220986 0)
(2.99174 0.000476994 0)
(2.98224 0.00117609 0)
(2.95293 0.00259945 0)
(2.89001 0.00622488 0)
(2.71005 0.0166298 0)
(2.16545 0.0364627 0)
(0.93912 0.114478 0)
(0.0867152 0.244286 0)
(0.334477 0.318192 0)
(0.575134 0.344864 0)
(0.620267 0.366903 0)
(0.566362 0.391322 0)
(0.487933 0.422562 0)
(0.421212 0.459024 0)
(0.366918 0.498027 0)
(0.307818 0.538363 0)
(0.239025 0.580371 0)
(0.153346 0.622683 0)
(0.0670822 0.654586 0)
(2.99997 8.21795e-07 0)
(2.9999 5.29351e-06 0)
(2.99974 1.64473e-05 0)
(2.99942 4.51332e-05 0)
(2.99857 0.000104618 0)
(2.99686 0.000255945 0)
(2.99212 0.000552853 0)
(2.98311 0.0013623 0)
(2.95501 0.00296429 0)
(2.89627 0.0072932 0)
(2.72285 0.0184928 0)
(2.20901 0.0434629 0)
(1.05154 0.12818 0)
(0.190254 0.281482 0)
(0.378615 0.368319 0)
(0.585601 0.387041 0)
(0.63194 0.409336 0)
(0.586265 0.437014 0)
(0.518034 0.475424 0)
(0.458236 0.520213 0)
(0.408487 0.56785 0)
(0.35461 0.619958 0)
(0.291722 0.681162 0)
(0.204812 0.751632 0)
(0.0977657 0.824683 0)
(2.99997 9.46948e-07 0)
(2.99991 6.09277e-06 0)
(2.99976 1.89417e-05 0)
(2.99945 5.18894e-05 0)
(2.99865 0.000120385 0)
(2.99703 0.000293225 0)
(2.99256 0.000633976 0)
(2.98407 0.00155901 0)
(2.95745 0.00330502 0)
(2.90296 0.00848712 0)
(2.7382 0.0198441 0)
(2.25919 0.0518159 0)
(1.17448 0.140197 0)
(0.309493 0.31838 0)
(0.426863 0.416703 0)
(0.594367 0.428679 0)
(0.645453 0.449593 0)
(0.611185 0.481216 0)
(0.555962 0.524823 0)
(0.504209 0.577311 0)
(0.46184 0.633472 0)
(0.421777 0.700306 0)
(0.377471 0.787319 0)
(0.309523 0.904219 0)
(0.175343 1.09187 0)
(2.99997 1.09002e-06 0)
(2.99991 7.01123e-06 0)
(2.99977 2.18032e-05 0)
(2.99948 5.97029e-05 0)
(2.99874 0.000138599 0)
(2.99723 0.000337091 0)
(2.99305 0.000729493 0)
(2.98513 0.0017897 0)
(2.96029 0.00376989 0)
(2.91001 0.00977275 0)
(2.7563 0.022183 0)
(2.31573 0.0600524 0)
(1.30457 0.15614 0)
(0.439215 0.362276 0)
(0.476074 0.454088 0)
(0.598912 0.468648 0)
(0.660532 0.487673 0)
(0.640133 0.5229 0)
(0.598966 0.568839 0)
(0.558364 0.625508 0)
(0.529345 0.690659 0)
(0.514648 0.772856 0)
(0.513351 0.880265 0)
(0.546266 1.02323 0)
(0.585772 1.23092 0)
(2.99997 1.25088e-06 0)
(2.99992 8.04921e-06 0)
(2.99979 2.50334e-05 0)
(2.99953 6.86019e-05 0)
(2.99884 0.000159361 0)
(2.99745 0.000388028 0)
(2.99362 0.000840506 0)
(2.98638 0.00206784 0)
(2.96355 0.00432791 0)
(2.91822 0.0112792 0)
(2.77692 0.0256619 0)
(2.3802 0.0688905 0)
(1.4553 0.177333 0)
(0.571751 0.417454 0)
(0.521667 0.481481 0)
(0.612795 0.502352 0)
(0.678731 0.519701 0)
(0.67224 0.556364 0)
(0.644281 0.604225 0)
(0.619457 0.66385 0)
(0.610538 0.736821 0)
(0.62335 0.825817 0)
(0.660185 0.934471 0)
(0.754884 1.06451 0)
(0.895978 1.20174 0)
(2.99998 1.41329e-06 0)
(2.99993 9.10711e-06 0)
(2.99981 2.83303e-05 0)
(2.99957 7.78248e-05 0)
(2.99896 0.000181115 0)
(2.99771 0.000442647 0)
(2.99428 0.000961931 0)
(2.98778 0.00237316 0)
(2.96735 0.00499012 0)
(2.92766 0.0128073 0)
(2.80073 0.0299526 0)
(2.4542 0.0775089 0)
(1.63422 0.198012 0)
(0.71197 0.479193 0)
(0.559816 0.511281 0)
(0.631111 0.528202 0)
(0.699847 0.542719 0)
(0.70825 0.58053 0)
(0.694178 0.631541 0)
(0.686238 0.693448 0)
(0.695386 0.767333 0)
(0.727462 0.851426 0)
(0.785672 0.945111 0)
(0.891209 1.0446 0)
(1.03922 1.11835 0)
(2.99998 1.51266e-06 0)
(2.99994 9.74997e-06 0)
(2.99984 3.0339e-05 0)
(2.99963 8.33962e-05 0)
(2.99909 0.000194306 0)
(2.99801 0.000475114 0)
(2.99504 0.00103416 0)
(2.98944 0.00256024 0)
(2.97156 0.00529552 0)
(2.93887 0.0141647 0)
(2.82699 0.0312027 0)
(2.53569 0.0879072 0)
(1.83358 0.213975 0)
(0.856251 0.542888 0)
(0.588515 0.542507 0)
(0.649678 0.547214 0)
(0.724367 0.559811 0)
(0.749939 0.599123 0)
(0.747977 0.652228 0)
(0.751895 0.712936 0)
(0.77342 0.780755 0)
(0.816264 0.854018 0)
(0.882623 0.929091 0)
(0.983687 1.00101 0)
(1.11361 1.04738 0)
(2.99998 1.51231e-06 0)
(2.99995 9.74806e-06 0)
(2.99986 3.03338e-05 0)
(2.99968 8.34182e-05 0)
(2.99923 0.000194272 0)
(2.99831 0.000475753 0)
(2.99582 0.00103117 0)
(2.99101 0.00257757 0)
(2.97628 0.00519702 0)
(2.94898 0.0148872 0)
(2.8577 0.0294622 0)
(2.62619 0.0951449 0)
(2.0512 0.222337 0)
(1.01876 0.600398 0)
(0.627777 0.585898 0)
(0.681279 0.578361 0)
(0.761761 0.58306 0)
(0.800224 0.617809 0)
(0.805626 0.66793 0)
(0.814935 0.724001 0)
(0.84199 0.783351 0)
(0.888817 0.844649 0)
(0.955718 0.904043 0)
(1.04722 0.956683 0)
(1.15879 0.989396 0)
(2.99999 1.38595e-06 0)
(2.99996 8.92159e-06 0)
(2.99989 2.77634e-05 0)
(2.99974 7.61618e-05 0)
(2.99937 0.000177243 0)
(2.99861 0.000431877 0)
(2.99659 0.000935564 0)
(2.99259 0.00229852 0)
(2.98107 0.00475328 0)
(2.95868 0.0128213 0)
(2.88954 0.0259412 0)
(2.71974 0.0787668 0)
(2.29412 0.184376 0)
(1.24957 0.523113 0)
(0.737969 0.593047 0)
(0.752474 0.613548 0)
(0.820257 0.616143 0)
(0.863623 0.641899 0)
(0.870577 0.683786 0)
(0.878778 0.731974 0)
(0.904878 0.78199 0)
(0.950212 0.832141 0)
(1.01314 0.879472 0)
(1.09457 0.919459 0)
(1.19058 0.94517 0)
(2.99999 1.19963e-06 0)
(2.99996 7.70354e-06 0)
(2.99991 2.39794e-05 0)
(2.99978 6.54731e-05 0)
(2.99948 0.000152343 0)
(2.99885 0.000367215 0)
(2.99719 0.000799452 0)
(2.9939 0.00190614 0)
(2.98442 0.00406373 0)
(2.96622 0.00988568 0)
(2.90949 0.0219793 0)
(2.7738 0.0555154 0)
(2.41929 0.133572 0)
(1.43848 0.361952 0)
(0.812835 0.596204 0)
(0.795559 0.652487 0)
(0.857171 0.666181 0)
(0.914326 0.676365 0)
(0.929394 0.7048 0)
(0.938581 0.742372 0)
(0.962462 0.782388 0)
(1.00424 0.822188 0)
(1.06132 0.859586 0)
(1.13272 0.890526 0)
(1.21533 0.911102 0)
(2.99999 1.05543e-06 0)
(2.99997 6.7799e-06 0)
(2.99992 2.11062e-05 0)
(2.99983 5.76587e-05 0)
(2.99958 0.000134216 0)
(2.99907 0.000323775 0)
(2.99772 0.000705482 0)
(2.99506 0.00168295 0)
(2.98724 0.00359359 0)
(2.97322 0.00875337 0)
(2.92543 0.0193592 0)
(2.81993 0.0486319 0)
(2.52393 0.118229 0)
(1.65424 0.317806 0)
(0.948492 0.64485 0)
(0.830921 0.693607 0)
(0.873743 0.711917 0)
(0.935226 0.709484 0)
(0.969439 0.725271 0)
(0.986953 0.753026 0)
(1.01171 0.784469 0)
(1.05092 0.815564 0)
(1.1027 0.844369 0)
(1.16554 0.868374 0)
(1.237 0.884743 0)
(2.99999 9.34739e-07 0)
(2.99998 6.01129e-06 0)
(2.99994 1.87131e-05 0)
(2.99986 5.12312e-05 0)
(2.99966 0.000119307 0)
(2.99926 0.000289124 0)
(2.99819 0.00062907 0)
(2.99608 0.00151635 0)
(2.9899 0.00321072 0)
(2.97898 0.0081871 0)
(2.94113 0.0168176 0)
(2.86227 0.0472642 0)
(2.63106 0.108376 0)
(1.9259 0.311067 0)
(1.14554 0.698638 0)
(0.877402 0.729097 0)
(0.895687 0.737933 0)
(0.95185 0.731135 0)
(0.999875 0.737304 0)
(1.02677 0.758213 0)
(1.05374 0.784241 0)
(1.09068 0.809603 0)
(1.13808 0.83233 0)
(1.19427 0.851145 0)
(1.25684 0.864125 0)
(2.99999 7.97764e-07 0)
(2.99998 5.12968e-06 0)
(2.99995 1.59674e-05 0)
(2.99989 4.37062e-05 0)
(2.99974 0.000101761 0)
(2.99943 0.000246543 0)
(2.99862 0.000535753 0)
(2.99701 0.0012919 0)
(2.99243 0.00272266 0)
(2.98419 0.00700421 0)
(2.95669 0.0139343 0)
(2.90178 0.0401824 0)
(2.73855 0.0904351 0)
(2.25249 0.25822 0)
(1.4351 0.6378 0)
(1.00192 0.734227 0)
(0.962851 0.750657 0)
(0.992444 0.749076 0)
(1.03956 0.74708 0)
(1.07116 0.761485 0)
(1.09736 0.782922 0)
(1.13008 0.804302 0)
(1.17188 0.823044 0)
(1.22139 0.837941 0)
(1.27619 0.848077 0)
(3 6.50758e-07 0)
(2.99999 4.18013e-06 0)
(2.99996 1.30143e-05 0)
(2.99992 3.55511e-05 0)
(2.9998 8.28196e-05 0)
(2.99957 0.000199621 0)
(2.99896 0.000435291 0)
(2.99773 0.00103485 0)
(2.99435 0.00220328 0)
(2.988 0.00541986 0)
(2.96789 0.0111876 0)
(2.93004 0.0293022 0)
(2.8068 0.066786 0)
(2.47413 0.178155 0)
(1.75528 0.457411 0)
(1.11893 0.738613 0)
(1.02218 0.768323 0)
(1.03393 0.775935 0)
(1.07707 0.768457 0)
(1.11516 0.772788 0)
(1.14167 0.787141 0)
(1.17012 0.803483 0)
(1.20577 0.817971 0)
(1.24836 0.829141 0)
(1.29594 0.836191 0)
(3 5.16825e-07 0)
(2.99999 3.31821e-06 0)
(2.99997 1.03323e-05 0)
(2.99994 2.81989e-05 0)
(2.99986 6.56849e-05 0)
(2.99968 0.000158008 0)
(2.99923 0.000344525 0)
(2.99834 0.000815929 0)
(2.99584 0.00173709 0)
(2.9914 0.00424126 0)
(2.97604 0.008715 0)
(2.9504 0.023397 0)
(2.85659 0.048624 0)
(2.62377 0.144563 0)
(2.06788 0.347187 0)
(1.28011 0.780428 0)
(1.06021 0.812972 0)
(1.0613 0.81292 0)
(1.09975 0.800576 0)
(1.14685 0.792435 0)
(1.17959 0.797419 0)
(1.20704 0.807518 0)
(1.23809 0.817291 0)
(1.27451 0.824545 0)
(1.31567 0.828464 0)
(3 3.97998e-07 0)
(2.99999 2.55214e-06 0)
(2.99998 7.94603e-06 0)
(2.99996 2.16427e-05 0)
(2.99989 5.03283e-05 0)
(2.99977 0.000120703 0)
(2.99944 0.000262011 0)
(2.99879 0.000619616 0)
(2.99701 0.00130605 0)
(2.99359 0.00323589 0)
(2.98351 0.00636168 0)
(2.96449 0.0181602 0)
(2.90474 0.0355256 0)
(2.76025 0.110108 0)
(2.39983 0.256796 0)
(1.56448 0.671939 0)
(1.16059 0.809126 0)
(1.11381 0.826015 0)
(1.13377 0.824834 0)
(1.17788 0.812836 0)
(1.21562 0.809506 0)
(1.24303 0.813476 0)
(1.27001 0.818787 0)
(1.30078 0.822086 0)
(1.33559 0.823084 0)
(3 3.03881e-07 0)
(2.99999 1.94894e-06 0)
(2.99999 6.06697e-06 0)
(2.99997 1.65208e-05 0)
(2.99992 3.84369e-05 0)
(2.99983 9.20744e-05 0)
(2.9996 0.000200515 0)
(2.99913 0.000471425 0)
(2.99788 0.00100343 0)
(2.99545 0.00239745 0)
(2.98829 0.00503889 0)
(2.97542 0.0125413 0)
(2.93275 0.0267665 0)
(2.83761 0.0705457 0)
(2.58066 0.167268 0)
(1.85894 0.452828 0)
(1.28461 0.78928 0)
(1.15795 0.835969 0)
(1.16336 0.846249 0)
(1.20048 0.836611 0)
(1.24335 0.825375 0)
(1.27435 0.822476 0)
(1.29936 0.822567 0)
(1.32579 0.821908 0)
(1.355 0.818945 0)
(3 2.12797e-07 0)
(3 1.51859e-06 0)
(2.99999 4.4107e-06 0)
(2.99998 1.27522e-05 0)
(2.99995 2.79061e-05 0)
(2.99988 7.11097e-05 0)
(2.99972 0.000144482 0)
(2.99939 0.00036545 0)
(2.99851 0.000712365 0)
(2.99682 0.00186975 0)
(2.99183 0.00348125 0)
(2.98311 0.00998389 0)
(2.95322 0.0173696 0)
(2.89284 0.0560036 0)
(2.71567 0.113026 0)
(2.1932 0.347551 0)
(1.53018 0.737504 0)
(1.23634 0.846578 0)
(1.20449 0.863594 0)
(1.22344 0.861231 0)
(1.26367 0.84639 0)
(1.2992 0.836407 0)
(1.32463 0.830264 0)
(1.34769 0.8243 0)
(1.37046 0.814947 0)
(3 1.55811e-07 0)
(3 1.1023e-06 0)
(2.99999 3.22033e-06 0)
(2.99998 9.26541e-06 0)
(2.99996 2.03889e-05 0)
(2.99992 5.16424e-05 0)
(2.99982 0.000105688 0)
(2.99956 0.00026507 0)
(2.99905 0.000522573 0)
(2.99766 0.00135468 0)
(2.99498 0.00256134 0)
(2.9872 0.00723543 0)
(2.97189 0.0125237 0)
(2.92659 0.0406722 0)
(2.8212 0.0772432 0)
(2.53091 0.235027 0)
(1.82819 0.584878 0)
(1.36452 0.839705 0)
(1.25833 0.876912 0)
(1.25564 0.881159 0)
(1.28357 0.868663 0)
(1.31919 0.85175 0)
(1.34449 0.838817 0)
(1.3632 0.825047 0)
(1.37823 0.805811 0)
(3 1.2697e-07 0)
(3 7.26925e-07 0)
(3 2.44226e-06 0)
(2.99999 6.21907e-06 0)
(2.99998 1.54666e-05 0)
(2.99994 3.4457e-05 0)
(2.99988 8.09837e-05 0)
(2.99971 0.000173935 0)
(2.99937 0.000408794 0)
(2.99845 0.000864162 0)
(2.99671 0.00207926 0)
(2.99151 0.00435268 0)
(2.98257 0.0108518 0)
(2.95146 0.0235504 0)
(2.89033 0.0601695 0)
(2.7063 0.144416 0)
(2.17593 0.394369 0)
(1.58281 0.783118 0)
(1.32831 0.880318 0)
(1.29292 0.892174 0)
(1.30429 0.885788 0)
(1.33326 0.864638 0)
(1.3574 0.84204 0)
(1.36898 0.815943 0)
(1.37431 0.785359 0)
(3 9.02848e-08 0)
(3 5.16908e-07 0)
(3 1.73678e-06 0)
(2.99999 4.41925e-06 0)
(2.99998 1.09811e-05 0)
(2.99996 2.44549e-05 0)
(2.99992 5.73194e-05 0)
(2.99981 0.000123175 0)
(2.99959 0.000287531 0)
(2.999 0.00060841 0)
(2.99786 0.00144514 0)
(2.99463 0.00300508 0)
(2.9887 0.00750856 0)
(2.96994 0.0151522 0)
(2.93441 0.040869 0)
(2.82301 0.0901761 0)
(2.51504 0.253607 0)
(1.924 0.599939 0)
(1.45367 0.856845 0)
(1.34682 0.895479 0)
(1.33309 0.892336 0)
(1.34424 0.87044 0)
(1.35852 0.836466 0)
(1.36321 0.795934 0)
(1.36127 0.749694 0)
(3 6.48144e-08 0)
(3 3.47519e-07 0)
(3 1.22086e-06 0)
(3 2.98951e-06 0)
(2.99999 7.71065e-06 0)
(2.99998 1.6519e-05 0)
(2.99995 4.03077e-05 0)
(2.99988 8.28683e-05 0)
(2.99974 0.000202883 0)
(2.99938 0.000406542 0)
(2.99868 0.00102129 0)
(2.99666 0.00198355 0)
(2.9932 0.00528057 0)
(2.98093 0.00957689 0)
(2.9614 0.0287312 0)
(2.88793 0.0505459 0)
(2.71704 0.165968 0)
(2.30316 0.358749 0)
(1.64418 0.791861 0)
(1.39261 0.89252 0)
(1.34656 0.893289 0)
(1.34192 0.863067 0)
(1.34335 0.814997 0)
(1.33839 0.757012 0)
(1.32476 0.691873 0)
(3 4.0161e-08 0)
(3 2.30121e-07 0)
(3 7.71442e-07 0)
(3 1.96138e-06 0)
(2.99999 4.85195e-06 0)
(2.99999 1.07794e-05 0)
(2.99997 2.50926e-05 0)
(2.99993 5.37532e-05 0)
(2.99984 0.000124315 0)
(2.99966 0.000262228 0)
(2.99915 0.000614911 0)
(2.99826 0.00127373 0)
(2.99531 0.00312352 0)
(2.99087 0.00622327 0)
(2.97252 0.0167858 0)
(2.94352 0.0336985 0)
(2.83526 0.0941019 0)
(2.56957 0.237344 0)
(2.00596 0.556859 0)
(1.49217 0.863838 0)
(1.35522 0.887988 0)
(1.31882 0.836339 0)
(1.30448 0.765864 0)
(1.28996 0.689903 0)
(1.27567 0.616115 0)
(3 2.16295e-08 0)
(3 1.47654e-07 0)
(3 4.40059e-07 0)
(3 1.23411e-06 0)
(3 2.75011e-06 0)
(2.99999 6.73586e-06 0)
(2.99998 1.39332e-05 0)
(2.99996 3.34515e-05 0)
(2.9999 6.68734e-05 0)
(2.99977 0.00016344 0)
(2.99951 0.000316794 0)
(2.99879 0.000815924 0)
(2.99751 0.00147287 0)
(2.99324 0.00436533 0)
(2.98671 0.00689652 0)
(2.96007 0.0249747 0)
(2.91482 0.039452 0)
(2.76003 0.140335 0)
(2.34599 0.321954 0)
(1.74427 0.704222 0)
(1.38121 0.821952 0)
(1.27407 0.770244 0)
(1.24751 0.68569 0)
(1.23811 0.608073 0)
(1.23833 0.543867 0)
(3 1.44022e-08 0)
(3 8.26403e-08 0)
(3 2.75567e-07 0)
(3 6.9955e-07 0)
(3 1.71225e-06 0)
(2.99999 3.7814e-06 0)
(2.99999 8.66141e-06 0)
(2.99997 1.83793e-05 0)
(2.99994 4.16777e-05 0)
(2.99985 8.69181e-05 0)
(2.99969 0.000199416 0)
(2.99923 0.000409381 0)
(2.99843 0.000977619 0)
(2.99569 0.00192771 0)
(2.99179 0.00511869 0)
(2.97406 0.00957587 0)
(2.94834 0.0287685 0)
(2.84458 0.0592902 0)
(2.58389 0.174173 0)
(2.04395 0.419046 0)
(1.38307 0.723572 0)
(1.16461 0.695077 0)
(1.14562 0.60827 0)
(1.16933 0.538548 0)
(1.19527 0.484766 0)
(3 9.08323e-09 0)
(3 5.20558e-08 0)
(3 1.73509e-07 0)
(3 4.40148e-07 0)
(3 1.07609e-06 0)
(3 2.37677e-06 0)
(2.99999 5.42303e-06 0)
(2.99998 1.15031e-05 0)
(2.99996 2.58607e-05 0)
(2.9999 5.38351e-05 0)
(2.99978 0.000121689 0)
(2.99945 0.000248263 0)
(2.99883 0.000580616 0)
(2.99696 0.00112575 0)
(2.99375 0.0029336 0)
(2.98226 0.00521452 0)
(2.96367 0.0160606 0)
(2.89281 0.0299624 0)
(2.73146 0.0921286 0)
(2.33633 0.214503 0)
(1.45902 0.519484 0)
(1.03157 0.576431 0)
(1.00219 0.525273 0)
(1.06387 0.476595 0)
(1.12548 0.437429 0)
(3 6.25468e-09 0)
(3 3.57188e-08 0)
(3 1.20263e-07 0)
(3 3.06223e-07 0)
(3 7.64547e-07 0)
(3 1.71226e-06 0)
(2.99999 4.03298e-06 0)
(2.99999 8.79814e-06 0)
(2.99997 2.0357e-05 0)
(2.99993 4.48859e-05 0)
(2.99985 0.000101828 0)
(2.99962 0.000227304 0)
(2.9992 0.000501998 0)
(2.99781 0.00112487 0)
(2.99556 0.00234698 0)
(2.98642 0.0051718 0)
(2.97287 0.0100965 0)
(2.91377 0.0217246 0)
(2.78681 0.0449695 0)
(2.44485 0.0982708 0)
(1.50497 0.246696 0)
(0.88565 0.404521 0)
(0.803583 0.407314 0)
(0.902593 0.391678 0)
(1.01321 0.3839 0)
(3 4.03486e-09 0)
(3 2.16279e-08 0)
(3 7.65528e-08 0)
(3 1.87913e-07 0)
(3 4.91644e-07 0)
(3 1.05653e-06 0)
(3 2.65248e-06 0)
(2.99999 5.43304e-06 0)
(2.99999 1.40132e-05 0)
(2.99996 2.76629e-05 0)
(2.99993 7.37575e-05 0)
(2.99979 0.000140755 0)
(2.99962 0.000387605 0)
(2.99862 0.000693475 0)
(2.9975 0.00215175 0)
(2.98954 0.002813 0)
(2.98018 0.0116102 0)
(2.92533 0.00827079 0)
(2.81481 0.056388 0)
(2.50131 0.0462551 0)
(1.57642 0.189749 0)
(0.800269 0.326009 0)
(0.602588 0.302615 0)
(0.731734 0.291634 0)
(0.888835 0.31462 0)
(3 1.70782e-09 0)
(3 9.93749e-09 0)
(3 3.25345e-08 0)
(3 8.15762e-08 0)
(3 1.91891e-07 0)
(3 4.05129e-07 0)
(3 8.93229e-07 0)
(3 1.75475e-06 0)
(2.99999 4.11677e-06 0)
(2.99998 7.42396e-06 0)
(2.99994 1.93142e-05 0)
(2.99989 3.56937e-05 0)
(2.99968 9.68256e-05 0)
(2.9994 0.000173712 0)
(2.99748 0.000538919 0)
(2.99545 0.000949774 0)
(2.9779 0.00352799 0)
(2.95588 0.00653478 0)
(2.82983 0.0230725 0)
(2.52914 0.0593183 0)
(1.80276 0.148305 0)
(0.713088 0.36069 0)
(0.358323 0.251599 0)
(0.550352 0.206761 0)
(0.775328 0.241729 0)
(3 9.24547e-10 0)
(3 6.9893e-09 0)
(3 1.87126e-08 0)
(3 5.39623e-08 0)
(3 9.77263e-08 0)
(3 2.42769e-07 0)
(3 3.17001e-07 0)
(3 8.69419e-07 0)
(2.99999 3.36676e-07 0)
(2.99998 2.42297e-06 0)
(2.99995 -4.48707e-06 0)
(2.99986 4.01485e-06 0)
(2.99974 -5.02242e-05 0)
(2.99902 8.57235e-06 0)
(2.99821 -0.000483443 0)
(2.9924 0.000605558 0)
(2.98561 -0.00297616 0)
(2.94488 0.00900518 0)
(2.86919 -0.00736895 0)
(2.62856 0.0637734 0)
(1.90775 0.106883 0)
(0.83767 0.336943 0)
(0.286607 0.225404 0)
(0.498652 0.181476 0)
(0.747465 0.201132 0)
(3 1.31152e-09 0)
(3 6.72557e-09 0)
(3 2.44255e-08 0)
(3 5.80859e-08 0)
(3 1.55129e-07 0)
(3 3.1908e-07 0)
(3 8.08227e-07 0)
(3 1.51016e-06 0)
(2.99999 4.0003e-06 0)
(2.99998 6.16749e-06 0)
(2.99995 1.97886e-05 0)
(2.99985 2.13102e-05 0)
(2.99968 0.000103114 0)
(2.99901 7.94911e-05 0)
(2.99807 0.000745049 0)
(2.99302 0.000102597 0)
(2.98644 0.00526085 0)
(2.95217 -0.00154524 0)
(2.88728 0.0288439 0)
(2.68017 0.00527606 0)
(2.05997 0.0942492 0)
(0.920601 0.183587 0)
(0.230857 0.16641 0)
(0.472332 0.173493 0)
(0.730218 0.186621 0)
(3 8.12848e-10 0)
(3 4.51915e-09 0)
(3 1.59408e-08 0)
(3 4.11056e-08 0)
(3 1.11667e-07 0)
(3 2.63697e-07 0)
(3 6.76176e-07 0)
(3 1.59483e-06 0)
(2.99999 3.97495e-06 0)
(2.99999 9.29163e-06 0)
(2.99996 2.2926e-05 0)
(2.99993 5.20527e-05 0)
(2.99979 0.000131636 0)
(2.9996 0.000288319 0)
(2.99821 0.000667946 0)
(2.99676 0.00136354 0)
(2.98371 0.00252367 0)
(2.96781 0.00493294 0)
(2.87722 0.00847999 0)
(2.67726 0.0218725 0)
(2.15933 0.0352768 0)
(0.831292 0.0942145 0)
(0.16018 0.145794 0)
(0.42418 0.17597 0)
(0.687949 0.171747 0)
(3 3.26654e-10 0)
(3 2.15714e-09 0)
(3 6.65772e-09 0)
(3 1.88678e-08 0)
(3 4.46574e-08 0)
(3 1.13068e-07 0)
(3 2.55206e-07 0)
(3 6.26977e-07 0)
(3 1.34371e-06 0)
(2.99999 3.4535e-06 0)
(2.99998 6.88503e-06 0)
(2.99994 1.79337e-05 0)
(2.99989 3.50606e-05 0)
(2.99949 9.25552e-05 0)
(2.99906 0.000165128 0)
(2.99478 0.000495186 0)
(2.98992 0.000858999 0)
(2.958 0.0022161 0)
(2.90468 0.00399787 0)
(2.70534 0.0111147 0)
(2.13868 0.0262142 0)
(1.0307 0.0638963 0)
(0.263823 0.123396 0)
(0.455092 0.151453 0)
(0.67606 0.142076 0)
(3 8.63366e-11 0)
(3 4.77629e-10 0)
(3 1.61888e-09 0)
(3 4.04987e-09 0)
(3 9.78374e-09 0)
(3 2.11047e-08 0)
(3 4.53735e-08 0)
(3 9.2493e-08 0)
(3 1.57649e-07 0)
(2.99999 3.0863e-07 0)
(2.99998 1.32215e-07 0)
(2.99995 6.94573e-07 0)
(2.99985 -2.1843e-06 0)
(2.99972 -6.70933e-06 0)
(2.99858 6.54621e-05 0)
(2.99741 0.000144069 0)
(2.98539 0.00063286 0)
(2.97091 0.00137561 0)
(2.88617 0.00288133 0)
(2.70073 0.00784698 0)
(2.21414 0.0154448 0)
(0.94153 0.0441356 0)
(0.251475 0.0923082 0)
(0.432821 0.11872 0)
(0.648769 0.111928 0)
(3 3.78733e-11 0)
(3 2.33909e-10 0)
(3 7.28135e-10 0)
(3 1.89843e-09 0)
(3 3.9118e-09 0)
(3 9.81344e-09 0)
(3 1.43308e-08 0)
(3 5.43608e-08 0)
(3 8.42243e-08 0)
(2.99999 3.25512e-07 0)
(2.99998 6.60017e-07 0)
(2.99994 2.24295e-06 0)
(2.99988 5.05592e-06 0)
(2.99955 1.61334e-05 0)
(2.9992 2.88196e-05 0)
(2.99532 0.000161896 0)
(2.99112 0.000315809 0)
(2.96026 0.00113116 0)
(2.91123 0.00244575 0)
(2.71831 0.00701568 0)
(2.1812 0.0160499 0)
(1.11574 0.0330603 0)
(0.34604 0.0648325 0)
(0.476307 0.0843024 0)
(0.657828 0.0840607 0)
(3 2.45737e-11 0)
(3 1.65555e-10 0)
(3 4.8339e-10 0)
(3 9.40786e-10 0)
(3 2.17128e-09 0)
(3 -1.10427e-09 0)
(3 7.33551e-09 0)
(3 -1.76767e-08 0)
(3 -1.0392e-08 0)
(2.99999 -4.75927e-08 0)
(2.99998 1.06266e-07 0)
(2.99996 -5.17042e-07 0)
(2.99986 -1.64727e-07 0)
(2.99974 1.33198e-06 0)
(2.99872 -9.51539e-05 0)
(2.99769 -0.000190668 0)
(2.98636 -0.000546687 0)
(2.97303 -0.00103994 0)
(2.89258 -0.00100593 0)
(2.71613 -0.00119824 0)
(2.23792 0.00289284 0)
(0.968117 0.0197649 0)
(0.269906 0.0411011 0)
(0.42412 0.0533395 0)
(0.622643 0.0551116 0)
(3 -3.60807e-11 0)
(3 2.75398e-10 0)
(3 -2.02377e-10 0)
(3 1.98131e-09 0)
(3 -2.27688e-09 0)
(3 1.27302e-08 0)
(3 -2.96389e-08 0)
(3 1.23467e-07 0)
(3 -3.98539e-07 0)
(2.99999 7.69311e-07 0)
(2.99998 -5.82123e-06 0)
(2.99994 -2.8476e-06 0)
(2.99988 -7.47594e-05 0)
(2.99946 -0.000107369 0)
(2.99902 -0.000665469 0)
(2.99489 -0.000625244 0)
(2.99029 -0.00425963 0)
(2.95992 0.000857715 0)
(2.91101 -0.0179716 0)
(2.7242 0.0177734 0)
(2.20145 -0.0269009 0)
(1.17473 0.0375003 0)
(0.371847 0.0379308 0)
(0.475054 0.0379554 0)
(0.647444 0.0329428 0)
(3 3.33261e-11 0)
(3 1.98028e-10 0)
(3 6.2794e-10 0)
(3 1.61343e-09 0)
(3 3.78872e-09 0)
(3 1.00586e-08 0)
(3 1.31062e-08 0)
(3 6.60591e-08 0)
(3 -9.01136e-08 0)
(2.99999 -1.02568e-07 0)
(2.99998 -5.20811e-06 0)
(2.9999 -1.21086e-05 0)
(2.99977 -6.85737e-05 0)
(2.99921 -0.000176465 0)
(2.99826 -0.000414628 0)
(2.99423 -0.00112406 0)
(2.98803 -0.00130116 0)
(2.95981 -0.00362726 0)
(2.91098 -0.00156584 0)
(2.73015 -0.00319706 0)
(2.21717 0.00463279 0)
(1.20877 0.0172426 0)
(0.361463 0.0150031 0)
(0.460181 0.0131635 0)
(0.638034 0.0211182 0)
(3 6.97673e-11 0)
(3 3.98834e-10 0)
(3 1.31185e-09 0)
(3 3.50357e-09 0)
(3 7.86094e-09 0)
(3 2.14301e-08 0)
(3 2.49652e-08 0)
(3 7.15124e-08 0)
(3 -3.3879e-07 0)
(2.99999 -1.14569e-06 0)
(2.99997 -6.40291e-06 0)
(2.99988 -1.80859e-05 0)
(2.99974 -3.50037e-05 0)
(2.99915 -9.89705e-05 0)
(2.99815 -0.000154598 0)
(2.99407 -0.00034826 0)
(2.98779 -0.000497157 0)
(2.95966 -0.00089211 0)
(2.91135 -0.000955526 0)
(2.73215 -0.00108242 0)
(2.22608 0.00134028 0)
(1.22203 0.00542605 0)
(0.366967 0.00154785 0)
(0.4573 -0.000515255 0)
(0.634125 0.0127987 0)
(3 7.43972e-11 0)
(3 4.16252e-10 0)
(3 1.38644e-09 0)
(3 3.71451e-09 0)
(3 8.18802e-09 0)
(3 2.10515e-08 0)
(3 3.65659e-08 0)
(3 6.56916e-08 0)
(3 2.05894e-07 0)
(2.99998 3.18602e-07 0)
(2.99996 3.48587e-06 0)
(2.99987 9.37683e-06 0)
(2.9997 3.05404e-05 0)
(2.9991 9.86059e-05 0)
(2.99803 0.000134934 0)
(2.99391 0.000519886 0)
(2.98749 0.00033825 0)
(2.95938 0.00161692 0)
(2.91086 -0.00027361 0)
(2.73303 0.00075345 0)
(2.23146 -0.00258307 0)
(1.23853 -0.00747298 0)
(0.385331 -0.0110535 0)
(0.464794 -0.0111112 0)
(0.637689 0.00531475 0)
(3 1.01567e-10 0)
(3 1.29377e-10 0)
(3 1.50124e-09 0)
(3 5.36331e-10 0)
(3 9.93288e-09 0)
(3 -1.29623e-08 0)
(3 6.14254e-08 0)
(3 -1.91726e-07 0)
(3 7.31758e-07 0)
(2.99999 -3.61423e-07 0)
(2.99998 1.05283e-05 0)
(2.99991 1.22936e-05 0)
(2.99982 9.33661e-05 0)
(2.99925 0.000125177 0)
(2.99854 0.000683004 0)
(2.99425 0.000374817 0)
(2.9889 0.00361017 0)
(2.95908 -0.00185886 0)
(2.91057 0.0154753 0)
(2.72916 -0.018308 0)
(2.22521 0.0260559 0)
(1.22366 -0.0271113 0)
(0.410352 -0.0261225 0)
(0.483765 -0.019917 0)
(0.648731 0.0108524 0)
(3 3.05559e-11 0)
(3 1.77404e-10 0)
(3 6.14973e-10 0)
(3 1.7638e-09 0)
(3 3.59886e-09 0)
(3 1.00125e-08 0)
(3 1.26834e-08 0)
(3 2.18606e-08 0)
(3 -4.26559e-08 0)
(2.99999 -1.27379e-07 0)
(2.99997 -9.30281e-07 0)
(2.99994 -2.16786e-06 0)
(2.9998 -7.18343e-07 0)
(2.99964 3.89158e-06 0)
(2.99823 3.40985e-05 0)
(2.99673 0.000131843 0)
(2.9851 6.90689e-05 0)
(2.97087 0.000490018 0)
(2.89329 -0.000102911 0)
(2.72337 0.000535257 0)
(2.27068 -0.00066169 0)
(1.02112 -0.00094551 0)
(0.262492 -0.0090722 0)
(0.390686 -0.0132708 0)
(0.604291 -0.00199833 0)
(3 -3.58646e-11 0)
(3 2.42886e-10 0)
(3 -2.42777e-10 0)
(3 2.9069e-09 0)
(3 -2.66883e-09 0)
(3 3.06385e-08 0)
(3 -2.53933e-08 0)
(3 2.43487e-07 0)
(3 -2.88259e-07 0)
(2.99999 1.51789e-06 0)
(2.99998 -3.87327e-06 0)
(2.99991 7.07241e-06 0)
(2.99982 -4.43644e-05 0)
(2.99928 3.35417e-05 0)
(2.99866 -0.000433779 0)
(2.99428 0.000461146 0)
(2.98926 -0.00295085 0)
(2.95887 0.00445384 0)
(2.91058 -0.0154327 0)
(2.72878 0.0204214 0)
(2.22293 -0.0298453 0)
(1.22338 0.0180378 0)
(0.401573 0.00912617 0)
(0.470614 -0.000990865 0)
(0.637147 -0.0156967 0)
(1.10864 1.18451 0)
(1.33383 1.07343 0)
(1.16938 0.904349 0)
(0.458861 0.657103 0)
(-0.42433 0.451271 0)
(-0.210734 0.0469047 0)
(-0.325581 0.0478567 0)
(-0.48479 0.0342232 0)
(-0.606872 0.0294407 0)
(-0.706258 0.0279825 0)
(-0.795689 0.0255425 0)
(-0.876357 0.0218655 0)
(-0.94649 0.0172153 0)
(-1.00475 0.0121491 0)
(-1.05138 0.00734419 0)
(-1.08964 0.00376491 0)
(-1.12423 0.00243658 0)
(-1.15172 0.00409692 0)
(-1.16539 0.00540434 0)
(-1.16762 0.00538653 0)
(-1.1626 0.00473972 0)
(-1.14817 0.00404587 0)
(-1.12278 0.00340432 0)
(-1.08816 0.0029112 0)
(-1.04693 0.00278483 0)
(-1.00154 0.00307704 0)
(-0.953486 0.00350859 0)
(-0.903684 0.00389129 0)
(-0.853004 0.00418857 0)
(-0.802323 0.00435983 0)
(-0.752015 0.00426985 0)
(-0.702025 0.00375634 0)
(-0.652619 0.00287031 0)
(-0.603208 0.0016648 0)
(-0.554214 0.000265115 0)
(-0.505562 -0.00145302 0)
(-0.457736 -0.00363354 0)
(-0.409687 -0.00654196 0)
(-0.361091 -0.00984912 0)
(-0.311284 -0.012673 0)
(-0.262244 -0.0145294 0)
(-0.213239 -0.0160108 0)
(-0.165534 -0.0172581 0)
(-0.117577 -0.0187538 0)
(-0.0704249 -0.0204136 0)
(-0.023525 -0.0227483 0)
(0.0270362 -0.0257925 0)
(0.0814805 -0.0275016 0)
(0.114152 -0.0240184 0)
(0.152803 -0.021823 0)
(0.193369 -0.0207201 0)
(0.232545 -0.0197696 0)
(0.270461 -0.0188621 0)
(0.306508 -0.0179915 0)
(0.342393 -0.0175384 0)
(0.379587 -0.017601 0)
(0.416715 -0.0173695 0)
(0.452633 -0.0169139 0)
(0.487599 -0.0163661 0)
(0.521705 -0.0157871 0)
(0.555152 -0.0152624 0)
(0.587945 -0.0147842 0)
(0.620159 -0.0143434 0)
(0.651818 -0.0139257 0)
(0.68295 -0.0135159 0)
(0.713613 -0.0131094 0)
(0.743824 -0.0127031 0)
(0.773623 -0.0122924 0)
(0.803052 -0.011879 0)
(0.83213 -0.0114619 0)
(0.860899 -0.0110407 0)
(0.889375 -0.0106198 0)
(0.917598 -0.010191 0)
(0.945582 -0.00976834 0)
(0.973335 -0.00933366 0)
(1.00089 -0.00890361 0)
(1.02823 -0.00846954 0)