/*--------------------------------*- C++ -*----------------------------------*\
  =========                 |
  \\      /  F ield         | OpenFOAM: The Open Source CFD Toolbox
   \\    /   O peration     | Website:  https://openfoam.org
    \\  /    A nd           | Version:  6
     \\/     M anipulation  |
\*---------------------------------------------------------------------------*/
FoamFile
{
    version     2.0;
    format      ascii;
    class       volScalarField;
    location    "2";
    object      Ma;
}
// * * * * * * * * * * * * * * * * * * * * * * * * * * * * * * * * * * * * * //

dimensions      [0 0 0 0 0 0 0];

internalField   nonuniform List<scalar> 
26250
(
3.04645
3.07714
3.10398
3.12685
3.14756
3.16468
3.18051
3.19051
3.19024
3.17634
3.1348
3.00257
2.72311
2.00574
1.02276
0.489744
0.532218
0.598514
0.644846
0.633275
0.623921
0.591855
0.511672
0.356821
0.233471
3.04644
3.07714
3.10397
3.12686
3.14755
3.16469
3.1805
3.19054
3.19028
3.17653
3.13523
3.00383
2.72553
2.01208
1.03423
0.517257
0.548151
0.611605
0.65908
0.658641
0.642078
0.606144
0.529381
0.381401
0.259204
3.04642
3.07717
3.10394
3.12689
3.14752
3.16472
3.18049
3.19064
3.19042
3.17697
3.13638
3.00588
2.7304
2.0177
1.03991
0.50923
0.541317
0.60635
0.654413
0.656623
0.636733
0.596703
0.521888
0.377884
0.257303
3.04626
3.07732
3.10377
3.12705
3.14735
3.16488
3.18036
3.19081
3.19069
3.17813
3.14146
3.00989
2.74029
2.03214
1.05593
0.543169
0.562694
0.62069
0.665064
0.661072
0.641597
0.59986
0.523161
0.377937
0.257482
3.04571
3.07789
3.10318
3.12769
3.14667
3.16564
3.17948
3.19179
3.18991
3.18417
3.13639
3.03584
2.7139
2.08459
1.09964
0.573549
0.584388
0.637663
0.678209
0.674912
0.655846
0.614671
0.535899
0.388967
0.267448
3.04762
3.07596
3.10519
3.12563
3.14879
3.16344
3.18181
3.18936
3.19253
3.18051
3.14951
3.02017
2.76452
2.06654
1.10559
0.597087
0.600996
0.649839
0.6908
0.689521
0.670629
0.630204
0.552525
0.406355
0.285625
3.04557
3.07802
3.10303
3.12785
3.14652
3.16582
3.17936
3.19222
3.19099
3.18577
3.14093
3.04583
2.73995
2.13184
1.17371
0.637798
0.627664
0.670998
0.708659
0.708507
0.689885
0.651443
0.576533
0.433302
0.316934
3.04813
3.07544
3.10575
3.12507
3.14937
3.16288
3.18238
3.18895
3.19363
3.1827
3.15171
3.03404
2.79682
2.12701
1.19787
0.666908
0.650747
0.691156
0.726853
0.727402
0.710624
0.675982
0.607398
0.472097
0.369724
3.04834
3.07521
3.10601
3.12479
3.14966
3.16257
3.18271
3.18873
3.19426
3.18403
3.15255
3.04332
2.81654
2.16962
1.26296
0.711688
0.681919
0.71702
0.748946
0.750468
0.736794
0.70792
0.649802
0.531612
0.459699
3.04823
3.0753
3.10588
3.1249
3.14953
3.16272
3.18259
3.18925
3.19574
3.18614
3.15815
3.05398
2.83846
2.22793
1.32248
0.771754
0.727253
0.753432
0.778439
0.781017
0.77086
0.750559
0.710909
0.630633
0.631272
2.96755
2.95205
2.94112
2.93518
2.92972
2.92706
2.92338
2.91968
2.90507
2.88061
2.80579
2.64725
2.28747
1.5281
0.425063
0.186646
0.0619952
0.261129
0.296822
0.230883
0.223678
0.17306
0.0744482
0.0441222
0.109473
2.96755
2.95204
2.94112
2.93518
2.92973
2.92706
2.92338
2.9197
2.90515
2.88075
2.80621
2.64813
2.28938
1.53381
0.437483
0.143188
0.0872173
0.278967
0.317912
0.276868
0.240497
0.1796
0.0938797
0.0733157
0.131668
2.96755
2.95205
2.94112
2.93517
2.92973
2.92706
2.92339
2.91975
2.90531
2.88112
2.80701
2.65037
2.29322
1.54126
0.442258
0.169414
0.0973342
0.285889
0.325099
0.292419
0.25679
0.200633
0.130069
0.116446
0.143736
2.96754
2.95204
2.94111
2.93517
2.92972
2.92705
2.92342
2.91983
2.90557
2.88175
2.8082
2.65367
2.29901
1.55196
0.463942
0.134149
0.12881
0.301914
0.332439
0.288898
0.272202
0.228215
0.175792
0.163831
0.165247
2.96758
2.95199
2.94116
2.93511
2.92977
2.92701
2.9235
2.91998
2.90652
2.88215
2.81559
2.64835
2.31509
1.55447
0.464318
0.131659
0.152257
0.317239
0.346592
0.315121
0.299297
0.264293
0.225161
0.213333
0.198466
2.96764
2.95199
2.94118
2.93515
2.92977
2.92706
2.92349
2.91999
2.90626
2.88357
2.81221
2.6633
2.31968
1.58513
0.519711
0.124516
0.183316
0.337967
0.366767
0.344918
0.330318
0.304892
0.277489
0.266909
0.243553
2.96758
2.95197
2.94116
2.93511
2.92978
2.92701
2.92355
2.92013
2.90731
2.88444
2.82061
2.66224
2.34303
1.60239
0.542561
0.130975
0.217334
0.360936
0.390106
0.376499
0.36521
0.350091
0.335154
0.326742
0.304128
2.96768
2.95196
2.94122
2.93514
2.9298
2.92707
2.92354
2.92019
2.90722
2.88626
2.81878
2.67807
2.3553
1.64575
0.618414
0.151703
0.256178
0.387328
0.415831
0.409199
0.404781
0.400323
0.398044
0.395468
0.386168
2.96772
2.95194
2.94125
2.93513
2.92982
2.92706
2.92358
2.92032
2.90794
2.88788
2.82295
2.68888
2.37784
1.69158
0.685253
0.192034
0.300504
0.415643
0.443755
0.44349
0.447456
0.454919
0.468397
0.48025
0.501306
2.96775
2.95191
2.94128
2.93509
2.92985
2.92704
2.92365
2.92059
2.90903
2.88991
2.82911
2.69926
2.40355
1.73804
0.749146
0.248804
0.346331
0.438322
0.471472
0.479162
0.492522
0.513306
0.546501
0.5848
0.691193
2.98563
2.97032
2.95096
2.93558
2.9191
2.9074
2.8939
2.88345
2.86325
2.83109
2.74466
2.5636
2.18096
1.3494
0.204903
0.450466
0.0444837
0.188038
0.228549
0.15844
0.0792965
0.07867
0.0993205
0.0681686
0.077876
2.9856
2.97035
2.95093
2.93561
2.91907
2.90743
2.89388
2.88348
2.86324
2.83136
2.74451
2.56555
2.18146
1.34957
0.210389
0.442381
0.0540765
0.200252
0.23066
0.150875
0.118702
0.119146
0.13725
0.114199
0.106039
2.98563
2.97032
2.95096
2.93558
2.9191
2.9074
2.89391
2.8835
2.86346
2.83152
2.7458
2.56598
2.186
1.35832
0.220739
0.430926
0.0747105
0.217806
0.238729
0.163411
0.159399
0.160287
0.18073
0.168429
0.149392
2.98559
2.97036
2.95092
2.93561
2.91906
2.90743
2.89389
2.88358
2.86362
2.83218
2.7466
2.57036
2.19102
1.36853
0.240138
0.409387
0.101068
0.240496
0.254526
0.195898
0.20172
0.204014
0.226559
0.222532
0.198952
2.98555
2.97039
2.95088
2.93565
2.91902
2.90747
2.89387
2.88369
2.86391
2.8331
2.7481
2.57636
2.19946
1.38697
0.272206
0.377814
0.131611
0.266864
0.277452
0.238497
0.243559
0.249443
0.273723
0.277294
0.252179
2.98556
2.97039
2.95089
2.93564
2.91903
2.90747
2.8939
2.8838
2.86443
2.83404
2.75108
2.58202
2.21297
1.41632
0.311671
0.344488
0.163791
0.295319
0.305382
0.282114
0.281957
0.297294
0.324136
0.335472
0.312536
2.98551
2.97043
2.95084
2.93569
2.91899
2.90752
2.89389
2.88396
2.86502
2.83551
2.75432
2.59186
2.22957
1.4583
0.36299
0.305509
0.1972
0.325181
0.336603
0.326381
0.322547
0.348302
0.378898
0.400582
0.384787
2.98548
2.97046
2.95082
2.93572
2.91898
2.90755
2.8939
2.88414
2.86576
2.83711
2.75846
2.60245
2.24961
1.51309
0.422886
0.264431
0.231859
0.356178
0.370539
0.371213
0.370024
0.402722
0.439772
0.473815
0.473676
2.98547
2.97047
2.95081
2.93574
2.91896
2.90759
2.89391
2.88434
2.8665
2.839
2.76255
2.61322
2.27259
1.55828
0.488871
0.229572
0.269636
0.385783
0.404956
0.415577
0.421436
0.459947
0.507028
0.558552
0.59106
2.98556
2.97039
2.95089
2.93566
2.91905
2.90752
2.89401
2.88464
2.86758
2.841
2.7681
2.62193
2.299
1.59885
0.55614
0.211984
0.310045
0.414429
0.438119
0.457847
0.474881
0.520517
0.581816
0.657343
0.778122
2.96753
2.95205
2.94111
2.93518
2.92972
2.92706
2.92339
2.91973
2.90519
2.88085
2.80605
2.64791
2.28726
1.52513
0.429504
0.146854
0.0747209
0.275428
0.325573
0.309563
0.270889
0.202954
0.108804
0.0561382
0.131707
2.96757
2.952
2.94116
2.93512
2.92976
2.92701
2.92347
2.91986
2.90594
2.88052
2.81201
2.63831
2.29502
1.51402
0.398061
0.211755
0.0651701
0.263203
0.300106
0.236274
0.226459
0.17134
0.0953532
0.0820511
0.137941
2.96756
2.95204
2.94113
2.93517
2.92973
2.92705
2.92342
2.9198
2.90542
2.88134
2.80695
2.6509
2.2914
1.53199
0.438871
0.147284
0.0999258
0.280449
0.307279
0.246986
0.235248
0.182582
0.126048
0.125136
0.147008
2.96757
2.952
2.94115
2.93512
2.92976
2.92701
2.92348
2.9199
2.90613
2.88132
2.81348
2.64311
2.30437
1.53475
0.430966
0.156985
0.118716
0.294082
0.323162
0.284097
0.261995
0.21301
0.169773
0.170399
0.171445
2.96757
2.95199
2.94114
2.93512
2.92975
2.92701
2.92349
2.91993
2.90631
2.88206
2.81485
2.64763
2.31334
1.54968
0.456579
0.146421
0.149195
0.311876
0.339624
0.308255
0.290612
0.251995
0.218312
0.217546
0.20503
2.96757
2.95199
2.94115
2.93511
2.92976
2.92701
2.92351
2.92002
2.90672
2.88308
2.81725
2.65394
2.32612
1.57275
0.496175
0.130595
0.182468
0.333705
0.361378
0.339391
0.323366
0.296316
0.271276
0.269518
0.249639
2.96761
2.95202
2.94115
2.93517
2.92975
2.92707
2.92348
2.92009
2.9066
2.88471
2.81509
2.66872
2.33654
1.61136
0.566528
0.131249
0.218098
0.359099
0.386656
0.372183
0.360015
0.344466
0.329609
0.328224
0.309316
2.96761
2.95201
2.94118
2.93516
2.92978
2.92708
2.92352
2.9202
2.9072
2.88614
2.81866
2.67785
2.35541
1.64733
0.621234
0.152977
0.25831
0.387506
0.414241
0.406045
0.400868
0.39638
0.393389
0.396486
0.390294
2.96771
2.95195
2.94125
2.93513
2.92982
2.92707
2.92358
2.92032
2.90793
2.88783
2.82283
2.68873
2.37761
1.69177
0.685994
0.192791
0.301941
0.416435
0.443509
0.44172
0.444695
0.451727
0.464421
0.480211
0.504463
2.96775
2.95191
2.94128
2.93509
2.92985
2.92705
2.92364
2.92058
2.909
2.88985
2.829
2.69906
2.40324
1.7381
0.749741
0.249807
0.347791
0.439685
0.471874
0.478489
0.490705
0.511412
0.543958
0.584323
0.692941
3.04625
3.07734
3.10376
3.12708
3.14733
3.16491
3.18038
3.19104
3.19072
3.17748
3.13974
3.00481
2.73034
2.00828
1.01664
0.511893
0.545559
0.610693
0.6606
0.663306
0.647236
0.607128
0.528056
0.382749
0.261172
3.04571
3.0779
3.10317
3.12771
3.14665
3.16566
3.17942
3.19163
3.18891
3.18289
3.13255
3.02753
2.69021
2.03529
1.05242
0.505102
0.54661
0.614153
0.658224
0.652713
0.641383
0.6049
0.523651
0.374904
0.256083
3.04655
3.07704
3.10409
3.12674
3.14766
3.1646
3.1806
3.19075
3.19066
3.17825
3.14491
3.00873
2.74199
2.01435
1.01615
0.515247
0.548366
0.610952
0.655399
0.644377
0.632953
0.597377
0.514575
0.361319
0.242385
3.04571
3.0779
3.10316
3.1277
3.14665
3.16564
3.17943
3.19154
3.18892
3.18239
3.13305
3.02571
2.69887
2.06801
1.07325
0.545332
0.570352
0.629406
0.66966
0.664472
0.646881
0.608887
0.526889
0.373067
0.250131
3.04572
3.07787
3.10317
3.12768
3.14667
3.16561
3.17949
3.19141
3.18901
3.18089
3.13411
3.02511
2.70995
2.09492
1.07764
0.558291
0.577014
0.633963
0.673507
0.670531
0.652892
0.614072
0.535016
0.384449
0.262459
3.04572
3.07787
3.10318
3.12767
3.14669
3.16562
3.17951
3.19171
3.18989
3.18352
3.13704
3.03445
2.72305
2.11015
1.12066
0.600412
0.602682
0.651225
0.689253
0.687284
0.668267
0.628633
0.551082
0.403368
0.282933
3.0472
3.07653
3.10447
3.12641
3.14795
3.16427
3.18105
3.1904
3.19148
3.18054
3.1478
3.025
2.77732
2.09417
1.1503
0.627446
0.621771
0.666639
0.705311
0.704718
0.685631
0.648063
0.57375
0.430926
0.315949
3.04721
3.0764
3.10478
3.1261
3.14835
3.16393
3.18144
3.18969
3.192
3.18203
3.14831
3.03318
2.79413
2.13161
1.20892
0.667565
0.649384
0.689582
0.725457
0.72481
0.706882
0.672891
0.604733
0.470195
0.370004
3.04825
3.07534
3.10587
3.12497
3.14948
3.16277
3.18246
3.18896
3.19389
3.18358
3.15254
3.04308
2.81637
2.16923
1.2621
0.712374
0.682396
0.717422
0.749223
0.749618
0.734627
0.705767
0.648089
0.53064
0.460474
3.04823
3.07531
3.10589
3.1249
3.14953
3.16271
3.18257
3.18924
3.19559
3.18589
3.1583
3.05388
2.83835
2.2271
1.32193
0.771532
0.727529
0.753984
0.779492
0.78139
0.770534
0.750146
0.71065
0.630263
0.632284
3.0455
3.07808
3.10295
3.12792
3.14643
3.16595
3.17942
3.19312
3.19472
3.19041
3.15754
3.0806
2.82708
2.3375
1.41724
0.815053
0.762232
0.782647
0.803599
0.810052
0.806721
0.79927
0.790045
0.782368
0.830375
3.04765
3.07586
3.10525
3.12553
3.14884
3.16347
3.18194
3.19097
3.19878
3.19076
3.16823
3.07788
2.88506
2.35359
1.463
0.89592
0.81399
0.821075
0.835454
0.845548
0.848707
0.852777
0.863845
0.892187
0.964322
3.04549
3.07812
3.10291
3.12799
3.14634
3.16611
3.17937
3.19413
3.198
3.19574
3.16866
3.10751
2.89886
2.50533
1.63791
0.982671
0.857638
0.853172
0.863641
0.87749
0.88841
0.901446
0.924111
0.966968
1.04609
3.04724
3.07629
3.10484
3.12597
3.14838
3.16401
3.18148
3.19215
3.20106
3.19579
3.17643
3.11119
2.95049
2.55574
1.74849
1.08542
0.906413
0.890177
0.89769
0.912536
0.928582
0.946178
0.974165
1.02032
1.09689
3.04699
3.07656
3.10455
3.12634
3.14802
3.16436
3.18129
3.19301
3.20286
3.19901
3.1844
3.13163
3.00772
2.68924
1.99474
1.2204
0.966355
0.940045
0.945341
0.961207
0.978351
0.996734
1.02319
1.06655
1.13327
3.04634
3.07722
3.10381
3.12705
3.14724
3.1652
3.1804
3.19405
3.20294
3.20272
3.1917
3.15761
3.05274
2.82265
2.24316
1.41114
1.03049
0.987246
0.992865
1.01046
1.03149
1.05
1.0757
1.11303
1.17058
3.04492
3.07854
3.10244
3.12831
3.146
3.16638
3.17929
3.19524
3.20227
3.20477
3.19752
3.1702
3.08609
2.89562
2.39738
1.58594
1.07924
1.01009
1.01593
1.03813
1.06566
1.08949
1.11715
1.15372
1.20327
3.04524
3.07836
3.10261
3.12826
3.14602
3.16646
3.17919
3.19548
3.20258
3.20724
3.20132
3.17806
3.11404
2.94168
2.54683
1.75727
1.1779
1.04798
1.04248
1.05826
1.08445
1.11549
1.14616
1.18348
1.2298
3.04541
3.07819
3.10282
3.12805
3.14625
3.16621
3.17951
3.19526
3.20363
3.21018
3.20545
3.18866
3.14037
3.00079
2.70679
1.98665
1.32953
1.11624
1.08808
1.09231
1.11164
1.1407
1.1707
1.20588
1.24916
3.04638
3.07718
3.10389
3.12693
3.14744
3.16496
3.18087
3.19397
3.20609
3.21304
3.21271
3.20133
3.16901
3.071
2.85841
2.31401
1.53734
1.1978
1.14251
1.13747
1.15076
1.17401
1.20208
1.23229
1.26995
3.04525
3.07835
3.10271
3.12817
3.14623
3.16624
3.17964
3.19537
3.20496
3.21592
3.21516
3.21146
3.1837
3.11679
2.93609
2.54392
1.8071
1.29232
1.17979
1.16972
1.17837
1.20091
1.23125
1.26201
1.2954
3.04737
3.07617
3.10495
3.12586
3.14853
3.16386
3.18198
3.19298
3.20744
3.2138
3.21944
3.21438
3.19771
3.14699
3.01456
2.72205
2.0385
1.43823
1.2397
1.21165
1.21302
1.22924
1.25601
1.28574
1.31713
3.04609
3.07752
3.10354
3.12735
3.14701
3.16548
3.18032
3.19479
3.20574
3.2166
3.22147
3.22065
3.20874
3.17116
3.08707
2.85477
2.36971
1.63774
1.3216
1.26194
1.25443
1.26319
1.28414
1.31208
1.34162
3.0465
3.07706
3.10399
3.12685
3.14749
3.16496
3.18084
3.19428
3.20631
3.21652
3.22368
3.22348
3.21737
3.19439
3.13126
2.98347
2.60208
1.91493
1.41841
1.29447
1.2806
1.2866
1.30623
1.33498
1.36491
3.04555
3.07804
3.10298
3.12791
3.14639
3.16608
3.17977
3.1953
3.20538
3.21763
3.22336
3.22761
3.2238
3.20884
3.16728
3.06277
2.80987
2.23444
1.59538
1.35655
1.31929
1.31768
1.33075
1.356
1.38675
3.04585
3.07773
3.10333
3.12757
3.14667
3.16578
3.1802
3.19465
3.20618
3.21706
3.22463
3.23044
3.22798
3.22008
3.19262
3.12155
2.94881
2.55587
1.86519
1.45527
1.35922
1.34794
1.35392
1.374
1.40334
3.046
3.07759
3.10345
3.12741
3.14694
3.16551
3.18036
3.19472
3.20603
3.21714
3.22539
3.23241
3.23241
3.22859
3.21198
3.1643
3.04565
2.78767
2.18723
1.63025
1.42993
1.39407
1.38803
1.39768
1.41954
3.04619
3.0774
3.10365
3.12722
3.14714
3.16532
3.18053
3.19458
3.20617
3.21705
3.22562
3.23337
3.23623
3.2347
3.22478
3.19315
3.11919
2.94276
2.49842
1.85051
1.52292
1.43876
1.4244
1.42733
1.44205
3.04643
3.07716
3.1039
3.12698
3.14736
3.16512
3.18069
3.19442
3.20633
3.21691
3.22584
3.23381
3.23863
3.23833
3.23295
3.21295
3.16736
3.04607
2.76477
2.175
1.65792
1.48494
1.45428
1.45294
1.46235
3.04596
3.07761
3.10343
3.12743
3.14692
3.16554
3.18028
3.19484
3.20592
3.21734
3.22549
3.23435
3.23914
3.2413
3.23866
3.22673
3.20092
3.11703
2.95504
2.5052
1.91676
1.58405
1.4942
1.48057
1.4836
3.04603
3.07753
3.10349
3.12736
3.14696
3.16549
3.18033
3.19478
3.20598
3.21727
3.22565
3.2343
3.24018
3.24476
3.24327
3.23757
3.22126
3.17076
3.0618
2.79912
2.25274
1.74578
1.55775
1.51929
1.51323
3.04612
3.07746
3.10359
3.12727
3.14708
3.16538
3.18044
3.19466
3.20611
3.21714
3.22578
3.23424
3.24059
3.24624
3.24721
3.2453
3.23534
3.20679
3.13484
2.98366
2.57327
1.98351
1.65968
1.56081
1.54393
3.04627
3.07731
3.10375
3.12711
3.14724
3.16522
3.1806
3.1945
3.20626
3.217
3.2259
3.2342
3.24074
3.24689
3.24988
3.24933
3.24405
3.22565
3.18776
3.08241
2.84857
2.32956
1.8196
1.61917
1.57568
3.04599
3.07759
3.10345
3.1274
3.14696
3.16551
3.1803
3.19483
3.20594
3.21729
3.22567
3.23445
3.24049
3.2475
3.25056
3.25221
3.25004
3.24024
3.2176
3.15363
3.01101
2.6679
2.11778
1.73887
1.61849
3.04605
3.07752
3.10352
3.12733
3.14701
3.16546
3.18037
3.19474
3.20605
3.2172
3.22572
3.23439
3.24067
3.24733
3.25158
3.25481
3.25369
3.24902
3.23709
3.19822
3.11932
2.91901
2.50438
1.94432
1.69972
3.04632
3.07725
3.10381
3.12704
3.14731
3.16514
3.18069
3.19441
3.20636
3.21689
3.22602
3.23406
3.24101
3.24704
3.25222
3.25596
3.25677
3.25471
3.24849
3.22521
3.18141
3.05544
2.7868
2.25517
1.82546
3.04632
3.07726
3.1038
3.12705
3.14731
3.16515
3.18068
3.19443
3.20634
3.21692
3.22599
3.23411
3.24095
3.24716
3.25219
3.25674
3.25906
3.25872
3.25514
3.2426
3.21771
3.14363
2.9948
2.59617
2.09201
3.04618
3.0774
3.10365
3.1272
3.14716
3.1653
3.18053
3.19458
3.20619
3.21707
3.22585
3.23425
3.24082
3.2473
3.2521
3.25704
3.25987
3.26101
3.25968
3.25318
3.24085
3.19556
3.11405
2.8989
2.45571
3.04616
3.07742
3.10363
3.12722
3.14713
3.16532
3.18052
3.19459
3.20619
3.21706
3.22587
3.23424
3.24083
3.24729
3.25216
3.25705
3.26051
3.26316
3.26252
3.25993
3.25276
3.22838
3.18087
3.05616
2.76758
3.04633
3.07724
3.10382
3.12703
3.14733
3.16512
3.18071
3.19439
3.20638
3.21687
3.22605
3.23405
3.24103
3.24709
3.25236
3.2569
3.2608
3.26381
3.26495
3.26393
3.2604
3.24695
3.22246
3.14684
3.00249
3.04636
3.07718
3.10388
3.12693
3.14742
3.16501
3.18082
3.19428
3.20648
3.21677
3.22614
3.23396
3.24111
3.24701
3.25243
3.25687
3.26089
3.26416
3.26646
3.26637
3.26493
3.25829
3.24538
3.20521
3.11927
3.04622
3.07735
3.10371
3.12715
3.14721
3.16525
3.18059
3.19452
3.20624
3.21701
3.22591
3.23419
3.24088
3.24724
3.25222
3.25707
3.26073
3.26438
3.26681
3.26826
3.26766
3.26452
3.25839
3.23405
3.19258
3.04632
3.07725
3.10381
3.12703
3.14732
3.16512
3.18071
3.1944
3.20637
3.21688
3.22604
3.23405
3.24102
3.24709
3.25236
3.25692
3.26088
3.26426
3.26719
3.26923
3.26969
3.26857
3.26532
3.25307
3.23105
3.04636
3.07722
3.10385
3.127
3.14736
3.16509
3.18074
3.19436
3.2064
3.21684
3.22606
3.23402
3.24104
3.24707
3.25237
3.25692
3.26088
3.2643
3.26721
3.2697
3.27114
3.27101
3.2695
3.26348
3.2525
3.04623
3.07735
3.10371
3.12714
3.14722
3.16524
3.1806
3.19451
3.20626
3.217
3.22592
3.23418
3.2409
3.24723
3.25223
3.25706
3.26075
3.26444
3.26711
3.2699
3.27156
3.27256
3.27201
3.26945
3.2639
3.04632
3.07725
3.10381
3.12703
3.14732
3.16513
3.18071
3.1944
3.20637
3.21688
3.22604
3.23406
3.24102
3.24709
3.25235
3.25693
3.26088
3.2643
3.26727
3.26978
3.27196
3.27339
3.27358
3.2726
3.27003
3.04635
3.07722
3.10384
3.12701
3.14735
3.1651
3.18072
3.19438
3.20638
3.21686
3.22605
3.23404
3.24103
3.24709
3.25236
3.25693
3.26088
3.26431
3.26726
3.26981
3.27198
3.27377
3.27477
3.27459
3.27342
3.04627
3.07731
3.10375
3.1271
3.14726
3.1652
3.18064
3.19447
3.2063
3.21696
3.22596
3.23414
3.24094
3.24718
3.25227
3.25702
3.2608
3.26439
3.26718
3.26991
3.27191
3.27397
3.27517
3.27578
3.27533
3.04631
3.07726
3.10381
3.12704
3.14732
3.16514
3.18069
3.19442
3.20634
3.21692
3.22598
3.23412
3.24095
3.24717
3.25229
3.257
3.26082
3.26437
3.2672
3.26988
3.27195
3.27396
3.27541
3.2765
3.2763
3.04631
3.07726
3.1038
3.12704
3.14732
3.16513
3.1807
3.1944
3.20637
3.21688
3.22604
3.23406
3.24102
3.24709
3.25236
3.25693
3.26089
3.2643
3.26727
3.26981
3.27203
3.27389
3.27553
3.27663
3.27678
2.96803
2.95154
2.94161
2.93466
2.93025
2.92656
2.92425
2.92042
2.91299
2.88729
2.84068
2.71507
2.41094
1.82068
0.771054
0.305669
0.381801
0.453092
0.494124
0.512709
0.537935
0.574578
0.631193
0.709404
0.882675
2.9682
2.95144
2.94172
2.93461
2.93033
2.92653
2.9244
2.92082
2.91408
2.892
2.84558
2.73586
2.43907
1.90047
0.868753
0.382282
0.408921
0.466623
0.514513
0.543658
0.58035
0.631206
0.704998
0.807388
0.974963
2.96758
2.95197
2.94117
2.93508
2.92984
2.92697
2.92403
2.92156
2.91514
2.89397
2.85428
2.74936
2.48159
1.9734
0.983467
0.47606
0.433694
0.481306
0.533263
0.572518
0.619017
0.678944
0.761179
0.866279
1.0049
2.96785
2.95179
2.94137
2.93496
2.92996
2.92693
2.92414
2.92171
2.91635
2.89984
2.86207
2.777
2.53334
2.08236
1.16521
0.585978
0.462087
0.49797
0.551354
0.598149
0.650241
0.714939
0.799327
0.900205
1.02011
2.96788
2.95174
2.94141
2.93493
2.92998
2.92693
2.92407
2.92188
2.91568
2.90449
2.86982
2.79106
2.60972
2.16002
1.35058
0.701446
0.502773
0.527836
0.576959
0.626892
0.67948
0.743195
0.825176
0.920124
1.02883
2.96832
2.95129
2.94184
2.93446
2.93044
2.92646
2.92465
2.92166
2.91837
2.90522
2.88256
2.81524
2.66154
2.33087
1.58989
0.846951
0.571955
0.582915
0.617021
0.661801
0.710346
0.768846
0.844396
0.93373
1.03197
2.9682
2.95134
2.94176
2.93448
2.93037
2.92648
2.92463
2.9219
2.91932
2.90866
2.89089
2.83425
2.71719
2.44107
1.83998
0.993168
0.639389
0.640177
0.665466
0.703675
0.744265
0.795254
0.862632
0.943777
1.03528
2.96786
2.95172
2.94141
2.93486
2.93001
2.92689
2.92425
2.92256
2.91961
2.91377
2.89551
2.85461
2.76067
2.50307
2.01686
1.13741
0.714225
0.68071
0.705956
0.738268
0.776451
0.82101
0.879613
0.952016
1.03481
2.96824
2.95136
2.94177
2.93453
2.93036
2.92657
2.92461
2.92236
2.92058
2.91574
2.90031
2.86827
2.79064
2.58301
2.1853
1.35868
0.829788
0.715405
0.735037
0.763066
0.802996
0.846141
0.897502
0.960833
1.0351
2.96798
2.95163
2.94153
2.93478
2.93014
2.92679
2.92444
2.9226
2.92077
2.9173
2.90403
2.88223
2.81537
2.66846
2.34468
1.63219
0.983642
0.772921
0.769743
0.790847
0.828319
0.869964
0.915718
0.971571
1.03642
2.968
2.95157
2.94158
2.93471
2.93022
2.92671
2.92455
2.92249
2.92112
2.91779
2.91102
2.88891
2.84712
2.73188
2.48542
1.91791
1.16001
0.849199
0.815715
0.829158
0.857667
0.89677
0.93827
0.985536
1.04217
2.96808
2.95156
2.94162
2.93472
2.93023
2.92673
2.92457
2.92256
2.92132
2.91896
2.91405
2.89702
2.86583
2.78152
2.57898
2.16069
1.36896
0.938105
0.853634
0.861703
0.883947
0.919776
0.959755
1.0022
1.05107
2.96781
2.95179
2.94137
2.93494
2.92998
2.92696
2.9243
2.92285
2.92106
2.91972
2.91487
2.90586
2.87903
2.81661
2.67377
2.32502
1.6305
1.07832
0.910279
0.899711
0.913408
0.941793
0.979244
1.01957
1.06268
2.96807
2.95154
2.9416
2.93472
2.9302
2.92675
2.92452
2.92265
2.92141
2.91988
2.91761
2.90874
2.8934
2.84649
2.74633
2.51226
1.99948
1.28301
0.992223
0.946046
0.950195
0.969725
1.00107
1.03739
1.07679
2.96812
2.95146
2.94167
2.93461
2.93029
2.92662
2.92464
2.92251
2.92156
2.91991
2.91843
2.91212
2.90154
2.86679
2.79682
2.62718
2.21921
1.52216
1.08838
0.98849
0.984935
0.998163
1.02347
1.05589
1.09149
2.96808
2.95151
2.94162
2.93467
2.93023
2.92668
2.92461
2.92253
2.92157
2.92007
2.91889
2.91467
2.90745
2.88201
2.83677
2.71028
2.43793
1.85074
1.24394
1.04975
1.02434
1.0304
1.05019
1.07851
1.11
2.96804
2.95156
2.94159
2.93471
2.9302
2.92672
2.92456
2.92261
2.92152
2.92019
2.9193
2.91672
2.91176
2.8945
2.86435
2.77622
2.59478
2.16294
1.4847
1.14261
1.06631
1.06265
1.07443
1.09944
1.12948
2.96781
2.95179
2.94137
2.93494
2.92998
2.92695
2.92432
2.92286
2.92127
2.92051
2.91924
2.91811
2.91354
2.9053
2.87948
2.82662
2.69475
2.39465
1.77161
1.27953
1.12587
1.10085
1.10433
1.12064
1.14686
2.96785
2.95176
2.9414
2.93492
2.93001
2.92693
2.92434
2.92284
2.92131
2.9205
2.91943
2.91865
2.91656
2.90892
2.89634
2.85667
2.77549
2.58726
2.14284
1.50177
1.20835
1.1462
1.139
1.14672
1.16598
2.96797
2.95162
2.94152
2.93477
2.93014
2.92679
2.92447
2.9227
2.92144
2.92037
2.91959
2.91874
2.91747
2.91255
2.90454
2.877
2.8267
2.6952
2.39051
1.80279
1.33096
1.19326
1.17323
1.17515
1.18941
2.96805
2.95154
2.9416
2.93469
2.93021
2.92671
2.92456
2.92262
2.92153
2.92029
2.9197
2.91873
2.91796
2.91515
2.91009
2.89239
2.8623
2.77121
2.59705
2.14697
1.55797
1.2749
1.21221
1.20513
1.21143
2.96803
2.95157
2.94158
2.93472
2.93019
2.92674
2.92453
2.92265
2.9215
2.92033
2.91968
2.91882
2.91832
2.91679
2.9136
2.90233
2.88336
2.82598
2.70649
2.4301
1.86311
1.41634
1.26714
1.23884
1.23719
2.96792
2.95168
2.94147
2.93483
2.93009
2.92684
2.92443
2.92275
2.9214
2.92043
2.91959
2.91895
2.91838
2.91768
2.91573
2.90863
2.8975
2.86089
2.79139
2.62173
2.22561
1.64302
1.35564
1.28326
1.27054
2.9679
2.9517
2.94145
2.93485
2.93006
2.92686
2.9244
2.92278
2.92136
2.92046
2.91954
2.91901
2.91834
2.91791
2.91683
2.9127
2.90579
2.88313
2.84083
2.72923
2.48188
1.96507
1.49906
1.33805
1.30521
2.96802
2.95158
2.94157
2.93473
2.93018
2.92675
2.92452
2.92267
2.92148
2.92034
2.91967
2.91889
2.91848
2.91785
2.91727
2.91503
2.91097
2.89704
2.87308
2.80143
2.66311
2.3026
1.76753
1.44178
1.34635
2.968
2.9516
2.94155
2.93475
2.93016
2.92677
2.9245
2.92268
2.92147
2.92036
2.91966
2.91891
2.91848
2.91792
2.91756
2.9167
2.91347
2.90746
2.8898
2.8539
2.76231
2.56697
2.10944
1.62833
1.41871
2.96794
2.95166
2.94149
2.93481
2.93011
2.92683
2.92444
2.92274
2.92141
2.92042
2.9196
2.91897
2.91842
2.91799
2.91761
2.91713
2.91575
2.91099
2.90286
2.878
2.82731
2.70603
2.42073
1.89354
1.53626
2.9679
2.95169
2.94146
2.93484
2.93007
2.92686
2.92441
2.92277
2.92137
2.92045
2.91956
2.91901
2.91838
2.91805
2.91756
2.9173
2.91647
2.91459
2.90829
2.89717
2.86496
2.7963
2.64004
2.28012
1.7571
2.96798
2.95162
2.94153
2.93477
2.93014
2.92679
2.92448
2.92271
2.92144
2.92039
2.91962
2.91894
2.91845
2.91798
2.91764
2.91731
2.91695
2.91591
2.91218
2.90604
2.88621
2.84935
2.75274
2.54114
2.08026
2.968
2.95161
2.94154
2.93476
2.93016
2.92678
2.92449
2.92269
2.92146
2.92037
2.91965
2.91892
2.91847
2.91796
2.91768
2.91727
2.91708
2.91648
2.91504
2.91004
2.90193
2.87701
2.82489
2.70733
2.4096
2.96793
2.95167
2.94148
2.93482
2.93009
2.92684
2.92443
2.92276
2.92139
2.92044
2.91958
2.91899
2.9184
2.91803
2.91761
2.91736
2.91704
2.91679
2.91605
2.91342
2.9089
2.89435
2.86844
2.79417
2.65114
2.96794
2.95166
2.94149
2.93481
2.9301
2.92683
2.92444
2.92275
2.9214
2.92043
2.91958
2.91898
2.91841
2.91802
2.91761
2.91736
2.91705
2.91688
2.91652
2.91546
2.91205
2.90602
2.88819
2.85262
2.76416
2.968
2.95161
2.94154
2.93476
2.93016
2.92678
2.92449
2.9227
2.92145
2.92038
2.91964
2.91893
2.91847
2.91796
2.91767
2.9173
2.91711
2.91681
2.91664
2.91604
2.91474
2.9102
2.90278
2.88016
2.83355
2.96795
2.95165
2.9415
2.9348
2.93012
2.92682
2.92445
2.92273
2.92142
2.92041
2.9196
2.91896
2.91843
2.918
2.91764
2.91733
2.91708
2.91686
2.91668
2.91644
2.91575
2.91333
2.90943
2.8964
2.87426
2.96796
2.95164
2.94151
2.9348
2.93012
2.92682
2.92445
2.92273
2.92141
2.92042
2.9196
2.91897
2.91843
2.91801
2.91763
2.91734
2.91707
2.91688
2.91667
2.91651
2.91619
2.91503
2.91297
2.90621
2.89458
2.96799
2.95161
2.94154
2.93477
2.93015
2.92679
2.92448
2.9227
2.92145
2.92038
2.91963
2.91893
2.91846
2.91797
2.91766
2.91731
2.91711
2.91684
2.91671
2.91648
2.91634
2.91582
2.91476
2.91101
2.9051
2.96794
2.95166
2.94149
2.93481
2.9301
2.92683
2.92444
2.92275
2.9214
2.92042
2.91959
2.91898
2.91842
2.91801
2.91762
2.91735
2.91707
2.91688
2.91667
2.91654
2.91636
2.91618
2.91548
2.91415
2.90983
2.96796
2.95164
2.94151
2.93479
2.93012
2.92682
2.92446
2.92273
2.92142
2.92041
2.9196
2.91897
2.91843
2.918
2.91763
2.91734
2.91707
2.91688
2.91668
2.91654
2.91639
2.91627
2.91602
2.9151
2.91344
2.96797
2.95163
2.94152
2.93478
2.93013
2.9268
2.92447
2.92272
2.92143
2.9204
2.91961
2.91895
2.91844
2.91799
2.91764
2.91733
2.91709
2.91686
2.91669
2.91653
2.9164
2.91628
2.91615
2.91578
2.91452
2.96795
2.95164
2.9415
2.9348
2.93012
2.92682
2.92446
2.92273
2.92142
2.92041
2.91961
2.91896
2.91844
2.91799
2.91764
2.91733
2.91709
2.91686
2.9167
2.91652
2.91641
2.91627
2.91619
2.91594
2.91498
2.98627
2.96969
2.95159
2.93494
2.91978
2.90675
2.89496
2.88391
2.87001
2.83815
2.77994
2.63851
2.30167
1.67116
0.58452
0.223743
0.345927
0.436564
0.467961
0.496491
0.526674
0.582059
0.660647
0.76642
0.964339
2.98633
2.96962
2.95165
2.93487
2.91985
2.90669
2.89507
2.88403
2.87071
2.84049
2.78739
2.65247
2.34251
1.73678
0.674922
0.27338
0.371901
0.445963
0.492106
0.532237
0.576515
0.641173
0.731327
0.853299
1.04377
2.98697
2.96901
2.95224
2.93434
2.92034
2.9063
2.89543
2.88429
2.87235
2.84983
2.79157
2.67118
2.41196
1.79111
0.828805
0.34947
0.382683
0.451404
0.511903
0.563537
0.620176
0.691405
0.78511
0.904462
1.05869
2.98758
2.96833
2.9529
2.93362
2.92104
2.90558
2.89617
2.8837
2.8739
2.85279
2.80219
2.6947
2.4652
1.89212
0.969969
0.439625
0.386009
0.453874
0.528766
0.590476
0.655602
0.729752
0.82138
0.931284
1.06174
2.98603
2.96994
2.95135
2.93519
2.91954
2.90703
2.8949
2.88486
2.87362
2.8543
2.81467
2.72728
2.49742
2.06506
1.13795
0.542355
0.397673
0.458789
0.544611
0.612226
0.682899
0.75898
0.846596
0.945916
1.05776
2.98697
2.969
2.95226
2.93428
2.92044
2.90615
2.8958
2.88418
2.87475
2.85597
2.82585
2.74393
2.56719
2.19558
1.36505
0.661037
0.434685
0.484288
0.566677
0.632088
0.702985
0.779966
0.864807
0.955705
1.05507
2.98717
2.9688
2.95246
2.93408
2.92063
2.90597
2.89601
2.88419
2.87586
2.86004
2.83544
2.76679
2.63257
2.31905
1.64953
0.797085
0.490229
0.535055
0.597765
0.65572
0.721382
0.795518
0.877398
0.962175
1.05198
2.9868
2.96911
2.95216
2.93434
2.92039
2.90617
2.89586
2.88448
2.87662
2.8637
2.84292
2.78637
2.6716
2.41986
1.82323
0.935628
0.562039
0.581921
0.62351
0.678511
0.738765
0.808113
0.886349
0.967056
1.04918
2.98594
2.97006
2.95122
2.93535
2.91937
2.90726
2.89477
2.88574
2.87583
2.86659
2.84853
2.80309
2.70829
2.50142
1.98549
1.12984
0.669814
0.606526
0.643742
0.697093
0.752943
0.817247
0.891381
0.968802
1.04647
2.98611
2.96986
2.95143
2.93512
2.91961
2.90702
2.89501
2.88561
2.87602
2.86729
2.84977
2.81982
2.74122
2.56274
2.19476
1.37294
0.79959
0.633805
0.664605
0.711623
0.766723
0.825563
0.894269
0.967812
1.04242
2.98598
2.96998
2.95131
2.93524
2.91949
2.90714
2.8949
2.88578
2.87611
2.86863
2.85501
2.83186
2.77239
2.64015
2.36662
1.75125
0.953376
0.69676
0.70265
0.733472
0.782616
0.83658
0.898042
0.966123
1.03666
2.98632
2.96963
2.95165
2.9349
2.91984
2.9068
2.89528
2.8854
2.87676
2.86862
2.85878
2.8364
2.79719
2.69425
2.46075
1.98796
1.10729
0.767205
0.733159
0.758093
0.800964
0.849742
0.904117
0.965338
1.03115
2.98623
2.96975
2.95154
2.93502
2.91972
2.90692
2.89516
2.88554
2.87672
2.86915
2.86064
2.84473
2.81321
2.74025
2.55503
2.19449
1.39675
0.89427
0.768606
0.785193
0.818194
0.863773
0.911874
0.966429
1.02624
2.98629
2.96967
2.95161
2.93493
2.9198
2.90683
2.89525
2.88547
2.87685
2.86946
2.86194
2.85166
2.82498
2.77523
2.65102
2.3744
1.76248
1.05884
0.833503
0.821459
0.840668
0.878992
0.923559
0.970561
1.02424
2.98669
2.96928
2.95198
2.93457
2.92014
2.9065
2.89555
2.88519
2.87713
2.86937