/*--------------------------------*- C++ -*----------------------------------*\
  =========                 |
  \\      /  F ield         | OpenFOAM: The Open Source CFD Toolbox
   \\    /   O peration     | Website:  https://openfoam.org
    \\  /    A nd           | Version:  6
     \\/     M anipulation  |
\*---------------------------------------------------------------------------*/
FoamFile
{
    version     2.0;
    format      ascii;
    class       volScalarField;
    location    "2";
    object      p;
}
// * * * * * * * * * * * * * * * * * * * * * * * * * * * * * * * * * * * * * //

dimensions      [1 -1 -2 0 0 0 0];

internalField   nonuniform List<scalar> 
26250
(
0.957633
0.91103
0.875229
0.843923
0.82053
0.796907
0.783035
0.763304
0.763348
0.771356
0.779713
0.89353
1.00555
1.8084
3.31398
7.83676
7.6818
7.21738
6.747
6.69595
6.71267
6.8035
7.05562
7.61183
8.44704
0.957632
0.911029
0.87523
0.843921
0.820536
0.796901
0.783045
0.763286
0.763326
0.771223
0.779541
0.892605
1.004
1.80097
3.2953
7.77919
7.65778
7.2309
6.73615
6.67328
6.70983
6.82496
7.08692
7.631
8.48026
0.95762
0.91104
0.875224
0.843929
0.820539
0.796895
0.783064
0.763223
0.763249
0.770837
0.778972
0.890894
1.00067
1.79246
3.27065
7.7331
7.60884
7.19302
6.70759
6.65023
6.69718
6.82825
7.10323
7.64208
8.49233
0.957577
0.911107
0.875172
0.844009
0.820458
0.796993
0.782966
0.763235
0.763247
0.769458
0.777089
0.886545
0.993025
1.77729
3.232
7.61752
7.52729
7.16362
6.69289
6.64182
6.68257
6.81162
7.09198
7.63483
8.49287
0.957515
0.911219
0.875051
0.844198
0.820174
0.797466
0.782167
0.764668
0.761069
0.763727
0.796925
0.828539
1.10311
1.55223
3.31204
7.4501
7.41505
7.09083
6.65605
6.60834
6.64697
6.77384
7.05872
7.60778
8.48605
0.957695
0.910976
0.875196
0.844029
0.820342
0.797209
0.782619
0.763718
0.762512
0.767233
0.773779
0.877456
0.975547
1.73846
3.11382
7.32159
7.27767
7.02187
6.59209
6.54316
6.58435
6.71459
7.00368
7.55111
8.46129
0.957522
0.911253
0.875009
0.844264
0.820061
0.797602
0.78193
0.764849
0.760214
0.762617
0.793599
0.823028
1.08185
1.50165
3.15428
7.0587
7.1296
6.91431
6.51044
6.46231
6.50388
6.6322
6.91681
7.45217
8.39657
0.957814
0.91086
0.875243
0.843969
0.820316
0.797255
0.78243
0.764031
0.761582
0.766063
0.772515
0.86836
0.956198
1.66901
2.89811
6.82041
6.99002
6.79543
6.41648
6.36769
6.40582
6.52291
6.78486
7.28784
8.24668
0.957881
0.910775
0.875267
0.843924
0.820312
0.797274
0.782339
0.764198
0.76109
0.765434
0.771534
0.862544
0.945358
1.61728
2.76389
6.49904
6.82616
6.65928
6.32089
6.25815
6.28719
6.38075
6.59626
7.02761
7.9161
0.957798
0.910893
0.875176
0.844085
0.82012
0.79757
0.781878
0.764721
0.759541
0.763352
0.768969
0.854041
0.931621
1.55682
2.63414
6.1425
6.63004
6.50357
6.22969
6.13863
6.15206
6.20564
6.33864
6.60714
7.19958
1.03457
1.06942
1.09342
1.10977
1.12294
1.13213
1.14052
1.1478
1.1602
1.19716
1.25187
1.47251
1.85049
3.25755
7.02888
16.6706
15.2412
13.7631
13.3431
13.5191
13.4874
13.6382
14.0154
14.5636
14.9948
1.03457
1.06941
1.09342
1.10976
1.12295
1.13212
1.14053
1.14779
1.16015
1.197
1.25146
1.47147
1.84757
3.24927
7.00117
16.5066
15.2091
13.7232
13.2811
13.3643
13.478
13.6707
14.0094
14.5107
14.9574
1.03456
1.06942
1.09342
1.10977
1.12295
1.13212
1.14054
1.14775
1.16002
1.19657
1.2508
1.46863
1.84253
3.23207
6.95352
16.4558
15.0914
13.6176
13.1959
13.2789
13.4311
13.6308
13.943
14.3834
14.8559
1.03454
1.06945
1.09339
1.10981
1.12292
1.13215
1.14052
1.14766
1.15981
1.19588
1.24951
1.46461
1.83258
3.21014
6.87068
16.1826
14.9346
13.4875
13.124
13.2628
13.3284
13.505
13.7985
14.1888
14.6854
1.0345
1.06951
1.09333
1.1099
1.12279
1.13232
1.14029
1.14778
1.159
1.19597
1.23969
1.46963
1.79706
3.19773
6.78514
15.8919
14.7198
13.316
12.9863
13.1219
13.1744
13.3225
13.5984
13.9365
14.4523
1.03455
1.06946
1.09337
1.10985
1.12285
1.13224
1.14039
1.14765
1.15932
1.19404
1.24494
1.45389
1.79668
3.14748
6.58898
15.6035
14.4663
13.107
12.7956
12.9133
12.9749
13.106
13.3462
13.6204
14.1403
1.03449
1.06954
1.09329
1.10996
1.12272
1.13239
1.14016
1.14776
1.15847
1.19352
1.2349
1.4542
1.75299
3.11409
6.40769
15.1404
14.1632
12.8675
12.5704
12.6699
12.7426
12.8368
13.024
13.2163
13.7185
1.0346
1.06944
1.09338
1.10984
1.12281
1.13227
1.14028
1.14765
1.15864
1.19142
1.23756
1.43877
1.73628
3.04924
6.11048
14.6455
13.8377
12.6048
12.3201
12.3989
12.464
12.5088
12.6185
12.7052
13.1345
1.03463
1.0694
1.09339
1.10981
1.12281
1.13226
1.14023
1.14761
1.15817
1.18959
1.23409
1.42606
1.70813
2.9631
5.82584
14.0444
13.4502
12.3252
12.0515
12.1051
12.1324
12.1131
12.1115
12.0411
12.2878
1.0346
1.06942
1.09339
1.10982
1.12283
1.13224
1.14023
1.14744
1.15738
1.18729
1.2282
1.41336
1.67126
2.877
5.54388
13.3395
12.9606
12.0749
11.7713
11.7836
11.7586
11.6569
11.4974
11.1485
10.9719
1.00894
1.03175
1.05932
1.08747
1.11323
1.13831
1.15842
1.18222
1.20107
1.24924
1.32105
1.58785
2.04482
3.7048
8.28163
19.3969
17.4858
15.7669
15.3317
15.4752
15.5862
15.7471
16.0976
16.4895
16.7938
1.00894
1.03176
1.05931
1.08747
1.11324
1.13831
1.15844
1.18218
1.20111
1.24876
1.32179
1.58515
2.04615
3.69894
8.26763
19.3211
17.4189
15.7098
15.3164
15.4905
15.5807
15.7063
16.0327
16.3927
16.7055
1.00894
1.03176
1.05931
1.08747
1.11324
1.13831
1.15842
1.18219
1.2009
1.24875
1.3199
1.58465
2.0372
3.68234
8.20857
19.1938
17.2847
15.5831
15.2477
15.4586
15.5202
15.5904
15.8709
16.1697
16.4934
1.00893
1.03177
1.0593
1.08749
1.11324
1.13831
1.15844
1.18212
1.20083
1.24779
1.31982
1.57876
2.03197
3.65499
8.12181
18.9991
17.0922
15.4038
15.1199
15.3735
15.382
15.3998
15.6318
15.8635
16.1851
1.00892
1.03178
1.05929
1.0875
1.11323
1.13831
1.15844
1.18204
1.20068
1.24654
1.31905
1.57086
2.02157
3.61354
7.98312
18.691
16.8443
15.1836
14.9397
15.2202
15.1898
15.1626
15.3386
15.4903
15.8019
1.00892
1.03178
1.0593
1.0875
1.11323
1.13831
1.15841
1.18201
1.2003
1.24553
1.31598
1.56362
2.00065
3.55285
7.77885
18.2865
16.5498
14.9281
14.7109
15.0028
14.9584
14.8823
14.9841
15.0429
15.325
1.00894
1.03177
1.05931
1.08749
1.11323
1.1383
1.15839
1.18193
1.19996
1.24365
1.31364
1.55105
1.97792
3.47268
7.52592
17.8059
16.2075
14.6394
14.4412
14.7245
14.6816
14.5519
14.5563
14.4948
14.7151
1.00896
1.03175
1.05932
1.08747
1.11322
1.1383
1.15835
1.18185
1.19948
1.24169
1.31011
1.53772
1.94855
3.37708
7.22888
17.2247
15.8241
14.3185
14.1333
14.3756
14.339
14.1533
14.0458
13.8313
13.9344
1.00897
1.03174
1.05933
1.08746
1.11322
1.13829
1.15831
1.18179
1.19892
1.23972
1.30537
1.52546
1.90768
3.29726
6.89153
16.5411
15.3711
13.9799
13.7976
13.9812
13.9285
13.68
13.4362
13.0119
12.8833
1.00897
1.0317
1.05939
1.08736
1.11337
1.13808
1.1585
1.18147
1.19791
1.23805
1.29758
1.51643
1.85378
3.23096
6.54413
15.7385
14.8309
13.6389
13.4466
13.558
13.468
13.1321
12.713
12.0069
11.4207
1.03453
1.06945
1.09338
1.1098
1.12291
1.13215
1.14051
1.14775
1.16007
1.19684
1.25146
1.47115
1.84986
3.25601
7.03138
16.5328
15.2517
13.754
13.2665
13.3292
13.4818
13.7144
14.0992
14.5854
15.0804
1.0345
1.0695
1.09333
1.10988
1.12281
1.13228
1.14034
1.1478
1.15939
1.19772
1.24308
1.48086
1.82847
3.26582
7.06903
16.6122
15.1646
13.7008
13.2986
13.4606
13.4688
13.6392
14.0347
14.5258
15.0147
1.03452
1.06947
1.09336
1.10984
1.12287
1.13219
1.14049
1.14768
1.15992
1.19626
1.25077
1.46722
1.84434
3.23582
6.97984
16.3988
15.0802
13.6157
13.2551
13.4263
13.4192
13.5637
13.9193
14.3822
14.8701
1.03446
1.06954
1.09329
1.10994
1.12276
1.13235
1.14029
1.14781
1.15928
1.19688
1.24177
1.47559
1.815
3.23013
6.94481
16.2275
14.9127
13.4696
13.1283
13.2472
13.3099
13.4684
13.7692
14.1752
14.6693
1.03445
1.06957
1.09327
1.10998
1.12273
1.13239
1.14025
1.14781
1.15916
1.19612
1.24055
1.47075
1.80162
3.20144
6.82593
15.9498
14.6986
13.2913
12.9749
13.1083
13.1652
13.3142
13.5698
13.9166
14.419
1.03448
1.06954
1.0933
1.10995
1.12275
1.13236
1.14024
1.14778
1.15887
1.19499
1.23821
1.46361
1.78085
3.16287
6.63988
15.5532
14.4548
13.0986
12.7903
12.9075
12.9757
13.1067
13.3163
13.5962
14.0982
1.03458
1.06943
1.0934
1.10979
1.1229
1.13215
1.14045
1.14757
1.15901
1.19306
1.24117
1.44948
1.76516
3.1133
6.36307
15.1698
14.1791
12.8731
12.5701
12.6675
12.746
12.8368
12.9949
13.1892
13.6704
1.03461
1.0694
1.09342
1.10976
1.12291
1.13213
1.14042
1.14753
1.15864
1.19156
1.23787
1.43937
1.73695
3.04866
6.10541
14.648
13.846
12.6101
12.3208
12.3994
12.4663
12.5061
12.593
12.6733
13.0832
1.03464
1.06939
1.09341
1.10978
1.12284
1.13222
1.14027
1.14758
1.15818
1.18965
1.23423
1.4263
1.70875
2.96358
5.82674
14.0445
13.4545
12.3281
12.0522
12.1056
12.1341
12.1128
12.0924
12.0051
12.2364
1.0346
1.06941
1.09339
1.1098
1.12284
1.13223
1.14024
1.14744
1.1574
1.18736
1.22834
1.41364
1.67191
2.87772
5.54512
13.3387
12.9604
12.0744
11.7717
11.7839
11.7591
11.6557
11.482
11.115
10.9272
0.957569
0.911099
0.875173
0.843987
0.820486
0.796936
0.783036
0.763038
0.763044
0.769861
0.777911
0.890106
1.00002
1.80289
3.31296
7.78825
7.66458
7.23201
6.72061
6.65431
6.70038
6.83783
7.13352
7.68716
8.563
0.9575
0.911212
0.875063
0.844159
0.82023
0.797376
0.782309
0.764557
0.761662
0.764486
0.799626
0.833264
1.12135
1.60497
3.44358
7.77854
7.64726
7.16847
6.71775
6.67268
6.70133
6.81763
7.10308
7.68269
8.55545
0.957572
0.911099
0.875144
0.844045
0.8204
0.797073
0.782901
0.763251
0.763262
0.768757
0.776311
0.886054
0.990881
1.79432
3.29184
7.73159
7.60027
7.16758
6.71331
6.66985
6.6946
6.80368
7.0827
7.66645
8.5315
0.957462
0.911267
0.875006
0.844251
0.820134
0.797509
0.782185
0.764683
0.761728
0.764552
0.800176
0.83374
1.11729
1.58117
3.38601
7.59904
7.51495
7.10655
6.67783
6.63503
6.66951
6.78801
7.0673
7.64239
8.51319
0.95744
0.911308
0.874975
0.844312
0.820067
0.797595
0.782094
0.764718
0.761902
0.764776
0.800222
0.833211
1.11141
1.54944
3.34143
7.45869
7.39888
7.03367
6.62636
6.59091
6.62975
6.75463
7.03573
7.60455
8.48735
0.957485
0.91126
0.875014
0.844253
0.820118
0.797532
0.7821
0.764714
0.761151
0.76383
0.797453
0.828747
1.09856
1.52883
3.26069
7.27954
7.26604
6.97918
6.56978
6.52953
6.57078
6.69835
6.97895
7.54031
8.44437
0.957702
0.910975
0.875218
0.843944
0.820477
0.79695
0.78297
0.763105
0.763093
0.767459
0.774397
0.875499
0.969623
1.70722
3.01155
7.10024
7.13522
6.90593
6.49518
6.44917
6.49074
6.61598
6.89051
7.43303
8.36581
0.957765
0.910903
0.875269
0.843867
0.820517
0.7969
0.782972
0.7633
0.76286
0.76716
0.773926
0.870335
0.960417
1.65918
2.89331
6.82223
6.99408
6.79498
6.4071
6.35622
6.39357
6.50703
6.75923
7.26113
8.20626
0.957869
0.910783
0.875281
0.843893
0.820364
0.797192
0.782468
0.764009
0.7614
0.765763
0.771484
0.862977
0.945494
1.61848
2.76437
6.50187
6.83104
6.66214
6.31867
6.25128
6.27896
6.36849
6.57544
6.99609
7.87092
0.957796
0.910876
0.875182
0.844065
0.820144
0.797543
0.781928
0.764674
0.759692
0.763558
0.76888
0.854245
0.931799
1.55714
2.63446
6.14293
6.63214
6.5047
6.22833
6.13351
6.14535
6.19505
6.32056
6.57761
7.15698
0.957467
0.911348
0.874879
0.844468
0.819769
0.798012
0.781286
0.765308
0.757675
0.759585
0.781606
0.801792
1.01694
1.30454
2.65591
5.78037
6.38766
6.31149
6.1207
6.00729
5.98756
5.98927
5.98634
5.91394
5.39712
0.957602
0.911147
0.874947
0.844445
0.819687
0.798226
0.780856
0.765849
0.756141
0.758793
0.763455
0.835809
0.902925
1.42381
2.34086
5.30471
6.17493
6.13587
6.01533
5.88263
5.82071
5.765
5.66107
5.42523
4.82571
0.957377
0.911476
0.874705
0.844728
0.819405
0.798551
0.78044
0.766229
0.754503
0.755477
0.77311
0.788647
0.962411
1.17505
2.27436
4.73612
5.98676
5.98279
5.91335
5.76959
5.66284
5.55633
5.40224
5.13946
4.61459
0.957509
0.911296
0.874752
0.844708
0.819311
0.798741
0.780086
0.766678
0.753401
0.755373
0.759164
0.813054
0.867736
1.23866
1.90387
4.08232
5.84529
5.89236
5.82554
5.6717
5.51741
5.37176
5.18574
4.91012
4.47271
0.957458
0.911374
0.874634
0.84489
0.819021
0.799206
0.779353
0.76754
0.751267
0.752522
0.755235
0.798651
0.840667
1.12836
1.62174
3.25463
5.72091
5.85717
5.77786
5.59101
5.38996
5.21552
5.01362
4.74003
4.35902
0.957328
0.911542
0.874534
0.845024
0.818943
0.799274
0.779314
0.767494
0.750764
0.750826
0.757032
0.764331
0.853682
0.938524
1.54256
2.54093
5.38959
5.78471
5.71056
5.52398
5.27936
5.08324
4.87588
4.61331
4.27413
0.957153
0.911758
0.874442
0.845135
0.818921
0.79927
0.779385
0.767322
0.750794
0.750037
0.753158
0.758865
0.829702
0.896287
1.38498
2.19824
4.7821
5.60519
5.56898
5.43761
5.18179
4.97065
4.76115
4.51309
4.20802
0.957186
0.911693
0.874506
0.845029
0.819079
0.799021
0.77977
0.766664
0.751621
0.747592
0.749984
0.755548
0.809477
0.871742
1.2442
1.90982
4.02692
5.35807
5.38318
5.3126
5.13389
4.89097
4.67161
4.43484
4.15749
0.95727
0.911561
0.874633
0.844816
0.819347
0.79861
0.780347
0.765757
0.752617
0.744605
0.746076
0.75032
0.790156
0.841718
1.11071
1.60886
3.16889
5.1091
5.2888
5.23485
5.08784
4.83594
4.60799
4.37724
4.12038
0.957413
0.911353
0.874814
0.844558
0.819653
0.798149
0.780977
0.76471
0.75381
0.740625
0.740763
0.747468
0.754356
0.837004
0.914367
1.45256
2.2965
4.64327
5.18667
5.15642
5.04867
4.81795
4.57075
4.33714
4.09237
0.957346
0.911464
0.874759
0.844606
0.819612
0.79818
0.780896
0.764831
0.753357
0.740874
0.7371
0.73863
0.758594
0.776657
0.929748
1.14075
2.01974
3.88488
4.9893
5.03144
4.97126
4.80752
4.54355
4.30542
4.07236
0.957551
0.911194
0.874886
0.844485
0.819637
0.798216
0.780757
0.765077
0.752922
0.741255
0.735647
0.737256
0.741067
0.782194
0.830609
1.09346
1.56419
3.00129
4.71544
4.93162
4.89201
4.77459
4.53384
4.28971
4.06025
0.957419
0.911398
0.874727
0.844693
0.819403
0.798533
0.780321
0.765697
0.751935
0.742385
0.732073
0.732444
0.740686
0.75024
0.824451
0.911013
1.38767
2.14743
4.19338
4.79188
4.78062
4.71216
4.54046
4.29046
4.05964
0.957418
0.911393
0.874726
0.844721
0.819365
0.798613
0.780195
0.765889
0.751587
0.742741
0.73055
0.730531
0.734156
0.739273
0.792258
0.843281
1.1835
1.7242
3.40101
4.57027
4.68972
4.64991
4.533
4.29687
4.06295
0.957321
0.911512
0.874679
0.844766
0.819379
0.798561
0.78033
0.76564
0.752005
0.741954
0.731538
0.727466
0.728977
0.732341
0.766521
0.8044
1.01767
1.37315
2.42865
4.24545
4.60278
4.5832
4.50471
4.32168
4.07501
0.957355
0.911451
0.874735
0.84469
0.819472
0.79843
0.780524
0.765342
0.752452
0.741201
0.732368
0.724593
0.72523
0.727135
0.74902
0.771914
0.916967
1.1292
1.92643
3.52128
4.41428
4.48504
4.44593
4.32898
4.0972
0.957386
0.911411
0.874759
0.844642
0.819524
0.798349
0.78063
0.765197
0.752649
0.740892
0.732601
0.723205
0.721497
0.722871
0.735371
0.747928
0.848802
0.960886
1.53131
2.59852
4.08167
4.39216
4.37578
4.30601
4.1423
0.957412
0.911386
0.874757
0.844646
0.819491
0.798401
0.780535
0.765353
0.752389
0.741309
0.731838
0.724007
0.718141
0.71875
0.725954
0.733881
0.797451
0.860744
1.25109
1.83607
3.4427
4.20882
4.28445
4.25218
4.1526
0.957433
0.911363
0.874762
0.84465
0.819468
0.798444
0.780457
0.765475
0.75219
0.741606
0.731323
0.724557
0.716134
0.716219
0.719841
0.724731
0.763239
0.808533
1.04421
1.43322
2.57671
3.88774
4.19765
4.18717
4.13439
0.957382
0.911431
0.87473
0.844688
0.819452
0.798453
0.780463
0.765446
0.752242
0.741497
0.73148
0.724185
0.716321
0.713972
0.71524
0.718852
0.740047
0.772781
0.906942
1.14612
1.86147
3.26892
4.02247
4.12136
4.09516
0.957386
0.911422
0.874742
0.844673
0.819478
0.798413
0.780529
0.765341
0.752407
0.741229
0.731893
0.723448
0.717174
0.710858
0.711221
0.712647
0.726067
0.74154
0.832518
0.954435
1.45448
2.41673
3.68435
4.02862
4.02649
0.957401
0.911401
0.874752
0.844656
0.81949
0.7984
0.780544
0.765328
0.752426
0.741214
0.731899
0.723443
0.716979
0.710528
0.707893
0.708638
0.715921
0.723209
0.781828
0.840083
1.17418
1.68706
3.03535
3.83318
3.9672
0.957415
0.911382
0.87476
0.844649
0.819488
0.79841
0.780521
0.765371
0.752353
0.741335
0.731702
0.723748
0.71643
0.711107
0.705591
0.705769
0.709592
0.714384
0.746353
0.787583
0.974603
1.28816
2.1624
3.45886
3.8558
0.957385
0.911427
0.874737
0.844678
0.819467
0.798431
0.780497
0.765394
0.752323
0.741365
0.73166
0.72379
0.716356
0.711085
0.705135
0.703946
0.705023
0.707506
0.726033
0.74892
0.861092
1.0397
1.60569
2.73472
3.6167
0.957393
0.911416
0.874745
0.844669
0.819477
0.798418
0.780515
0.765365
0.752366
0.741295
0.73177
0.723607
0.716643
0.710555
0.705731
0.701536
0.701827
0.703084
0.712862
0.725545
0.789262
0.881113
1.21872
1.83693
3.1812
0.957428
0.911369
0.87477
0.844637
0.819498
0.798394
0.780537
0.765343
0.752392
0.741268
0.731808
0.72356
0.716702
0.710452
0.705735
0.700879
0.699363
0.700031
0.704888
0.711987
0.748827
0.799003
1.01464
1.37583
2.38515
0.95743
0.911367
0.87477
0.844636
0.819496
0.798397
0.780531
0.765353
0.752375
0.741298
0.731758
0.723643
0.71656
0.710678
0.705302
0.701346
0.697294
0.697412
0.699949
0.703456
0.723869
0.754667
0.870323
1.07565
1.64454
0.957413
0.911393
0.874757
0.844653
0.819485
0.798407
0.78052
0.765361
0.752364
0.741307
0.731744
0.723657
0.716541
0.710693
0.705271
0.701281
0.697027
0.695745
0.696405
0.698426
0.708804
0.724628
0.791382
0.890444
1.24786
0.957411
0.911395
0.874756
0.844654
0.819486
0.798406
0.780524
0.765354
0.752374
0.741287
0.731774
0.723605
0.716625
0.710551
0.705495
0.700866
0.697492
0.693882
0.693992
0.69472
0.700485
0.708117
0.747458
0.795665
1.02244
0.957433
0.911365
0.874773
0.844634
0.8195
0.798393
0.780535
0.765346
0.752383
0.741282
0.731779
0.723604
0.716621
0.710565
0.705458
0.70093
0.697282
0.693934
0.692052
0.692376
0.69509
0.699173
0.719321
0.750804
0.861896
0.957439
0.911357
0.87478
0.844627
0.819505
0.798388
0.780538
0.765345
0.75238
0.741288
0.731766
0.723626
0.716583
0.710628
0.705353
0.701092
0.696988
0.694259
0.690802
0.690798
0.691781
0.693501
0.704442
0.718205
0.785125
0.957424
0.91138
0.874766
0.844643
0.819493
0.798399
0.780528
0.765352
0.752374
0.741291
0.731765
0.723623
0.716593
0.710606
0.705394
0.701013
0.697126
0.693962
0.691132
0.689245
0.689487
0.690463
0.695638
0.703682
0.738263
0.957434
0.911366
0.874773
0.844634
0.819499
0.798393
0.780534
0.765347
0.75238
0.741285
0.731774
0.723612
0.716609
0.710582
0.705431
0.700956
0.697207
0.693822
0.691242
0.688612
0.687845
0.688205
0.69073
0.694582
0.712528
0.957438
0.91136
0.874776
0.844631
0.819501
0.798391
0.780535
0.765346
0.752381
0.741285
0.731774
0.723614
0.716604
0.710593
0.705412
0.700993
0.697139
0.693936
0.691001
0.688869
0.68658
0.68662
0.687695
0.689311
0.698513
0.957424
0.91138
0.874766
0.844643
0.819493
0.798398
0.780529
0.76535
0.752376
0.741288
0.73177
0.723615
0.716603
0.710592
0.705413
0.700987
0.69715
0.69391
0.691044
0.68873
0.686609
0.685435
0.685672
0.686407
0.69097
0.957434
0.911366
0.874774
0.844634
0.819499
0.798393
0.780533
0.765347
0.75238
0.741285
0.731774
0.723612
0.716607
0.710586
0.705423
0.70097
0.697178
0.693863
0.691118
0.688589
0.686746
0.684735
0.684427
0.684741
0.68677
0.957438
0.911361
0.874775
0.844631
0.8195
0.798391
0.780534
0.765346
0.752381
0.741285
0.731774
0.723613
0.716606
0.710588
0.705418
0.700979
0.697162
0.693892
0.691064
0.688679
0.686553
0.68493
0.68339
0.683454
0.684326
0.957429
0.911374
0.874769
0.844639
0.819495
0.798396
0.780531
0.765349
0.752378
0.741286
0.731772
0.723614
0.716605
0.710589
0.705417
0.700981
0.697159
0.693895
0.691061
0.688679
0.686549
0.684878
0.683264
0.682568
0.682785
0.957433
0.911367
0.874773
0.844635
0.819498
0.798393
0.780533
0.765347
0.752379
0.741285
0.731773
0.723612
0.716607
0.710586
0.705423
0.700972
0.697173
0.693874
0.691094
0.688626
0.68663
0.684733
0.683418
0.68194
0.681979
0.957434
0.911367
0.874773
0.844634
0.819499
0.798392
0.780534
0.765346
0.752381
0.741284
0.731775
0.72361
0.716609
0.710583
0.705426
0.700967
0.69718
0.693865
0.691106
0.688609
0.686651
0.684702
0.683435
0.681834
0.681635
1.03446
1.06953
1.09336
1.10981
1.12298
1.13192
1.14083
1.14594
1.15835
1.17744
1.246
1.33471
1.77738
2.54305
5.47678
12.4938
12.3914
11.8261
11.4956
11.4501
11.3523
11.13
10.7629
9.98264
8.14546
1.03447
1.06951
1.09338
1.10978
1.12302
1.13186
1.1409
1.14552
1.15746
1.17302
1.24055
1.31094
1.73848
2.39937
5.10843
11.6165
11.9367
11.5961
11.2369
11.1179
10.9406
10.5941
10.0499
9.06726
7.16028
1.03438
1.06962
1.09323
1.10997
1.1228
1.13212
1.14055
1.14558
1.1562
1.17168
1.23089
1.29874
1.68355
2.26748
4.71931
10.5352
11.6218
11.3839
10.9954
10.7999
10.5464
10.1178
9.48205
8.51536
7.03274
1.03436
1.06967
1.09315
1.11008
1.12263
1.13235
1.1402
1.14592
1.15516
1.16726
1.22087
1.27479
1.61336
2.10649
4.19645
9.29429
11.4266
11.2282
10.7882
10.5056
10.1948
9.72935
9.07946
8.1984
7.03241
1.03433
1.0697
1.0931
1.11017
1.12245
1.13268
1.13961
1.14708
1.15292
1.17102
1.19373
1.30447
1.43419
2.14149
3.47244
7.87562
11.3441
11.1346
10.6152
10.2385
9.88941
9.41877
8.79817
8.00445
7.03333
1.03423
1.06981
1.09304
1.11024
1.12245
1.13264
1.13976
1.14642
1.15294
1.16392
1.1984
1.24456
1.45833
1.78698
3.09664
6.18002
11.183
11.0065
10.4717
9.99917
9.6215
9.16483
8.58447
7.87169
7.03461
1.03416
1.06986
1.09301
1.11029
1.12242
1.13269
1.13967
1.14642
1.15205
1.1614
1.189
1.2283
1.39528
1.63588
2.70149
4.91755
10.654
10.689
10.3319
9.77839
9.38179
8.94589
8.40919
7.76815
7.03432
1.03422
1.06979
1.09304
1.11025
1.12242
1.13273
1.13948
1.14674
1.1506
1.16103
1.17404
1.2326
1.29279
1.65889
2.21081
4.39164
9.38285
10.2459
10.0447
9.5837
9.17865
8.75763
8.26071
7.68205
7.03176
1.03426
1.06974
1.0931
1.11016
1.1225
1.1326
1.1396
1.1465
1.15043
1.15897
1.17008
1.21744
1.26561
1.55635
1.96885
3.70335
7.72226
9.89991
9.79666
9.45745
9.01741
8.60032
8.1379
7.60964
7.02545
1.03436
1.06963
1.0932
1.11002
1.12265
1.13237
1.13987
1.14605
1.1508
1.15717
1.16783
1.20122
1.24791
1.45229
1.7759
3.0299
5.935
9.62197
9.6185
9.38882
8.91032
8.47825
8.03552
7.54793
7.01492
1.03436
1.06964
1.09321
1.10999
1.12271
1.13226
1.14005
1.14568
1.15135
1.15549
1.16635
1.18323
1.24198
1.33256
1.68463
2.37194
4.49375
8.92956
9.43382
9.25754
8.8326
8.37915
7.9482
7.49354
7.00642
1.03442
1.06957
1.09325
1.10994
1.12275
1.13221
1.14009
1.14559
1.15132
1.1548
1.16326
1.1763
1.22195
1.2806
1.56513
2.01739
3.71612
7.52515
9.1077
9.03234
8.75397
8.29235
7.87166
7.44428
6.99472
1.03438
1.06963
1.09319
1.11004
1.12262
1.13239
1.13984
1.14596
1.15069
1.15552
1.16019
1.17463
1.19252
1.2792
1.38055
1.90495
2.86438
5.82522
8.73848
8.81788
8.64958
8.25272
7.81831
7.40567
6.98509
1.03434
1.06968
1.09315
1.11009
1.12258
1.13247
1.13977
1.14602
1.15063
1.15506
1.15959
1.16721
1.19061
1.22308
1.36394
1.56155
2.40605
4.03647
7.98349
8.65719
8.54108
8.22433
7.78278
7.37867
6.97907
1.03429
1.06973
1.09314
1.11012
1.12258
1.13246
1.1398
1.14597
1.15066
1.15496
1.15897
1.16473
1.18155
1.20556
1.30591
1.43297
2.06165
3.17754
6.49138
8.36047
8.34184
8.16946
7.78015
7.36615
6.97693
1.03431
1.06969
1.09318
1.11006
1.12265
1.13237
1.13992
1.14582
1.15083
1.15469
1.15884
1.16315
1.17485
1.19333
1.2588
1.35869
1.7528
2.50106
4.72291
7.80048
8.17904
8.07117
7.77437
7.36723
6.9805
1.03434
1.06966
1.09319
1.11003
1.12268
1.13232
1.13996
1.14576
1.15089
1.15458
1.15865
1.16184
1.17001
1.1832
1.22669
1.29588
1.54897
2.0259
3.49974
6.62808
7.9341
7.90917
7.74463
7.38032
6.99251
1.03438
1.06962
1.0932
1.11002
1.12265
1.13236
1.1399
1.14586
1.15073
1.15479
1.15819
1.16167
1.16607
1.17887
1.19745
1.27131
1.37305
1.81371
2.62705
5.01661
7.4496
7.7503
7.66318
7.40664
7.01901
1.03437
1.06964
1.09319
1.11004
1.12263
1.13238
1.13987
1.14589
1.1507
1.15476
1.1582
1.16102
1.1649
1.17132
1.19073
1.2186
1.33375
1.48712
2.16882
3.39051
6.47275
7.54045
7.52246
7.3882
7.07501
1.03433
1.06968
1.09317
1.11007
1.12263
1.13239
1.13987
1.14587
1.15072
1.15472
1.15819
1.16094
1.16414
1.1687
1.18139
1.20121
1.27384
1.3768
1.81703
2.60649
4.89602
7.08459
7.39577
7.32669
7.11534
1.03433
1.06968
1.09317
1.11006
1.12264
1.13237
1.1399
1.14584
1.15076
1.15467
1.15822
1.16088
1.16386
1.16696
1.175
1.18853
1.23161
1.30536
1.55151
2.02771
3.38273
6.11896
7.17124
7.19381
7.09636
1.03434
1.06966
1.09318
1.11005
1.12264
1.13237
1.1399
1.14585
1.15076
1.15469
1.15818
1.16087
1.16366
1.16582
1.17116
1.17979
1.20792
1.24974
1.4153
1.67962
2.623
4.58471
6.6712
7.07149
7.03105
1.03436
1.06965
1.09319
1.11004
1.12264
1.13237
1.13989
1.14587
1.15072
1.15474
1.15812
1.16092
1.16349
1.16541
1.16885
1.17466
1.19182
1.2183
1.31733
1.4581
2.03956
3.06809
5.65214
6.811
6.90899
1.03435
1.06966
1.09318
1.11005
1.12263
1.13239
1.13987
1.14588
1.1507
1.15476
1.15809
1.16097
1.16339
1.16546
1.16777
1.1716
1.18227
1.19898
1.25873
1.34755
1.69565
2.32746
4.0752
6.2258
6.76185
1.03434
1.06967
1.09318
1.11006
1.12263
1.13238
1.13988
1.14587
1.15072
1.15474
1.15811
1.16093
1.16342
1.16541
1.16754
1.16999
1.17639
1.18713
1.2212
1.27905
1.47041
1.8333
2.87095
5.01837
6.43215
1.03436
1.06965
1.09319
1.11004
1.12264
1.13237
1.13989
1.14586
1.15073
1.15473
1.15812
1.16092
1.1634
1.16542
1.16728
1.16913
1.1723
1.1812
1.1949
1.24366
1.31876
1.58962
2.09238
3.41494
5.73313
1.03437
1.06964
1.09319
1.11004
1.12265
1.13237
1.13989
1.14587
1.15072
1.15474
1.1581
1.16096
1.16336
1.16545
1.16723
1.16874
1.17117
1.17518
1.18743
1.20526
1.27618
1.3702
1.77724
2.46103
4.34944
1.03436
1.06965
1.09319
1.11004
1.12264
1.13237
1.13988
1.14587
1.15071
1.15475
1.15808
1.16097
1.16333
1.16548
1.16714
1.16887
1.17015
1.17334
1.17839
1.19472
1.21769
1.31271
1.44225
1.95536
2.86235
1.03436
1.06965
1.09319
1.11004
1.12264
1.13237
1.13988
1.14587
1.15071
1.15474
1.1581
1.16095
1.16336
1.16544
1.16719
1.16876
1.17001
1.17192
1.17518
1.18451
1.19919
1.25097
1.32935
1.62088
2.14395
1.03437
1.06965
1.09319
1.11004
1.12265
1.13237
1.13989
1.14586
1.15072
1.15474
1.15811
1.16094
1.16338
1.16541
1.16723
1.16867
1.17013
1.17115
1.17365
1.17765
1.19007
1.20742
1.28121
1.36917
1.78545
1.03437
1.06964
1.0932
1.11003
1.12265
1.13236
1.13989
1.14586
1.15072
1.15474
1.1581
1.16095
1.16336
1.16544
1.16719
1.16872
1.17003
1.17115
1.17256
1.17505
1.18178
1.19313
1.22892
1.29089
1.48659
1.03436
1.06965
1.09319
1.11004
1.12264
1.13237
1.13988
1.14587
1.15072
1.15474
1.1581
1.16095
1.16336
1.16544
1.16719
1.16872
1.17
1.17116
1.17209
1.17387
1.17681
1.18564
1.19907
1.24796
1.31954
1.03436
1.06965
1.09319
1.11004
1.12264
1.13237
1.13989
1.14587
1.15072
1.15474
1.1581
1.16095
1.16337
1.16542
1.16721
1.16869
1.17004
1.1711
1.17219
1.17309
1.17527
1.17888
1.19008
1.20603
1.27189
1.03437
1.06964
1.09319
1.11004
1.12265
1.13237
1.13989
1.14586
1.15072
1.15474
1.1581
1.16095
1.16337
1.16543
1.1672
1.16871
1.17002
1.17112
1.17212
1.17291
1.17415
1.17635
1.18224
1.19226
1.22328
1.03436
1.06965
1.09319
1.11004
1.12264
1.13237
1.13988
1.14587
1.15072
1.15474
1.1581
1.16095
1.16336
1.16543
1.1672
1.16871
1.17001
1.17112
1.1721
1.1729
1.17379
1.17503
1.17821
1.18353
1.20002
1.03436
1.06965
1.09319
1.11004
1.12265
1.13237
1.13989
1.14586
1.15072
1.15474
1.1581
1.16095
1.16337
1.16543
1.1672
1.1687
1.17002
1.17111
1.17211
1.17288
1.17371
1.17444
1.17621
1.17919
1.18808
1.03437
1.06964
1.0932
1.11004
1.12265
1.13237
1.13989
1.14586
1.15072
1.15474
1.1581
1.16095
1.16337
1.16543
1.1672
1.16871
1.17001
1.17113
1.17208
1.17292
1.17362
1.17433
1.17516
1.17725
1.18069
1.03437
1.06964
1.09319
1.11004
1.12265
1.13237
1.13989
1.14587
1.15072
1.15474
1.1581
1.16095
1.16336
1.16543
1.16719
1.16871
1.17001
1.17113
1.17208
1.17292
1.17361
1.17424
1.17487
1.17586
1.17838
1.03437
1.06964
1.0932
1.11004
1.12265
1.13237
1.13989
1.14586
1.15072
1.15474
1.1581
1.16095
1.16337
1.16543
1.1672
1.16871
1.17001
1.17112
1.17209
1.1729
1.17362
1.17422
1.17476
1.17545
1.17668
1.03437
1.06964
1.09319
1.11004
1.12265
1.13237
1.13989
1.14586
1.15072
1.15474
1.1581
1.16095
1.16337
1.16543
1.1672
1.16871
1.17002
1.17112
1.1721
1.17289
1.17363
1.17421
1.17476
1.1753
1.17625
1.00893
1.03169
1.05949
1.08713
1.11384
1.13725
1.1599
1.1788
1.20135
1.22918
1.31675
1.4323
1.95706
2.92423
6.38408
14.7673
14.2162
13.3137
13.0993
13.125
12.9756
12.5219
11.8822
10.7535
8.41711
1.00889
1.03172
1.05948
1.08712
1.11388
1.13717
1.15999
1.17855
1.20093
1.2274
1.30769
1.41853
1.8985
2.78309
5.97166
13.7715
13.6473
13.0845
12.7793
12.7028
12.4602
11.888
11.0492
9.69599
7.31664
1.00876
1.03193
1.05924
1.08746
1.1134
1.13791
1.15876
1.1804
1.1963
1.22863
1.27564
1.45553
1.6944
2.83386
5.25674
12.6359
13.2846
12.8953
12.4786
12.3015
11.9662
11.3155
10.3962
9.08843
7.26881
1.00869
1.03204
1.05912
1.0876
1.11326
1.13803
1.15864
1.18031
1.19594
1.22589
1.26558
1.42711
1.62476
2.65041
4.6661
11.2787
13.1011
12.7322
12.1937
11.9139
11.5284
10.8662
9.95813
8.78341
7.31528
1.0088
1.03184
1.05932
1.08731
1.11365
1.13741
1.15964
1.17843
1.19921
1.21756
1.27615
1.34223
1.67883
2.20945
4.26453
9.64288
13.0606
12.627
11.9269
11.5585
11.1514
10.5151
9.66846
8.6312
7.41893
1.00874
1.0319
1.05931
1.08729
1.11376
1.13721
1.15994
1.17794
1.19917
1.21667
1.26282
1.32996
1.5906
2.03166
3.64652
7.73986
13.011
12.5177
11.6841
11.2395
10.8245
10.2301
9.45803
8.5406
7.50667
1.00871
1.03192
1.05929
1.08731
1.11375
1.13723
1.15988
1.17791
1.19849
1.21406
1.25055
1.31202
1.50697
1.86715
3.07547
6.06295
12.6716
12.2668
11.4676
10.96
10.5363
9.9873
9.28827
8.47041
7.56703
1.00876
1.03186
1.05932
1.08729
1.11372
1.13729
1.15974
1.17797
1.19782
1.21155
1.24314
1.28884
1.46365
1.69392
2.79277
5.05299
11.5592
11.6956
11.2969
10.7153
10.277
9.77334
9.14311
8.41037
7.60949
1.00885
1.03175
1.0594
1.08722
1.11372
1.13734
1.15956
1.17821
1.1971
1.21107
1.23724
1.27395
1.41763
1.59309
2.49339
4.20464
9.64003
11.3142
11.0563
10.5159
10.0601
9.58684
9.0166
8.35842
7.64056
1.00887
1.03176
1.05937
1.08728
1.11357
1.13761
1.15907
1.17906
1.19537
1.21361
1.23007
1.27617
1.33864
1.60275
2.03247
3.62773
7.55388
11.1622
10.9309
10.4003
9.89826
9.42988
8.90506
8.30955
7.66168
1.00888
1.03174
1.05939
1.08726
1.1136
1.13756
1.15911
1.17895
1.19532
1.2129
1.2264
1.26203
1.30949
1.50534
1.78941
2.9153
5.42783
10.7822
10.7235
10.3517
9.78766
9.29737
8.80489
8.26224
7.67513
1.00887
1.03176
1.05939
1.08723
1.11367
1.13741
1.15938
1.17843
1.19615
1.21073
1.22775
1.24804
1.30882
1.39124
1.75165
2.34445
4.56178
9.50622
10.4081
10.196
9.69933
9.18206
8.71131
8.21374
7.67917
1.00886
1.03177
1.05938
1.08725
1.11366
1.13743
1.15938
1.1784
1.19615
1.21037
1.22673
1.24158
1.28996
1.34389
1.61861
2.02784
3.6388
7.40739
10.1409
9.99617
9.59894
9.09481
8.63027
8.1673
7.67809
1.00883
1.03182
1.05934
1.08731
1.11361
1.13751
1.15928
1.17855
1.19586
1.21065