/*--------------------------------*- C++ -*----------------------------------*\
  =========                 |
  \\      /  F ield         | OpenFOAM: The Open Source CFD Toolbox
   \\    /   O peration     | Website:  https://openfoam.org
    \\  /    A nd           | Version:  6
     \\/     M anipulation  |
\*---------------------------------------------------------------------------*/
FoamFile
{
    version     2.0;
    format      ascii;
    class       surfaceScalarField;
    location    "2";
    object      phi;
}
// * * * * * * * * * * * * * * * * * * * * * * * * * * * * * * * * * * * * * //

dimensions      [1 0 -1 0 0 0 0];

internalField   nonuniform List<scalar> 
72625
(
0.00162357
2.75473e-10
5.87345e-05
0.00157665
8.38549e-10
4.69217e-05
0.00153806
4.34943e-11
3.85872e-05
0.00150613
9.2452e-10
3.19322e-05
0.00147905
-8.43067e-10
2.70774e-05
0.00145656
6.60263e-10
2.24864e-05
0.0014368
-1.39177e-09
1.97628e-05
0.00142087
1.93452e-09
1.59261e-05
0.00140575
7.22228e-09
1.51149e-05
0.00139171
3.47209e-08
1.399e-05
0.00138303
7.20829e-08
8.60322e-06
0.00136653
2.82848e-07
1.61195e-05
0.00138376
6.23824e-07
-1.78586e-05
0.00133599
2.9262e-06
4.45685e-05
0.00152765
8.73491e-06
-0.000200822
0.00177002
5.80657e-05
-0.000301824
0.00170513
5.98182e-05
4.06019e-06
0.00151347
4.74016e-05
0.000144132
0.00141054
5.90919e-05
4.37297e-05
0.00139073
7.31692e-05
-5.39114e-05
0.00130597
6.97025e-05
1.44176e-05
0.00119729
5.57573e-05
5.18067e-05
0.00102719
4.11809e-05
0.000129413
0.000686981
3.57907e-05
0.000301397
5.70028e-06
0.000685195
0.00162357
2.1267e-09
5.87339e-05
0.00157665
1.07681e-09
4.69223e-05
0.00153806
1.13716e-10
3.85868e-05
0.00150613
3.80276e-10
3.19327e-05
0.00147905
-2.99293e-09
2.70774e-05
0.00145657
1.99906e-09
2.24862e-05
0.00143681
-6.49519e-09
1.97641e-05
0.00142087
1.12336e-08
1.59227e-05
0.00140574
1.97215e-08
1.512e-05
0.0013917
8.983e-08
1.39653e-05
0.00138287
2.30629e-07
8.66488e-06
0.00136647
6.47596e-07
1.59472e-05
0.00138315
1.49575e-06
-1.75674e-05
0.00133783
4.40362e-06
4.35805e-05
0.0015275
1.37095e-05
-0.000195072
0.00178401
6.83799e-05
-0.000268137
0.00176277
0.000104169
-2.43986e-05
0.00155478
0.000120621
0.000134392
0.00146229
0.000117631
3.39338e-05
0.00141846
0.000122688
-6.48177e-06
0.00136662
0.000127569
-6.86224e-06
0.00128847
0.000122356
1.0572e-05
0.00111584
0.000111989
0.000101532
0.000761689
0.000105977
0.000280936
9.8317e-05
0.000672181
0.00162357
8.19755e-09
5.87313e-05
0.00157665
-5.45463e-09
4.69247e-05
0.00153806
4.98541e-09
3.8585e-05
0.00150614
-9.16599e-09
3.19344e-05
0.00147905
4.54271e-09
2.70768e-05
0.00145658
-8.45508e-09
2.24859e-05
0.00143681
-2.49727e-09
1.97662e-05
0.00142088
2.18687e-08
1.59171e-05
0.00140582
-4.03973e-08
1.5115e-05
0.00139161
3.39965e-07
1.39385e-05
0.00138246
7.80159e-07
8.59751e-06
0.00136624
8.35307e-07
1.59397e-05
0.00138092
4.60537e-06
-1.77964e-05
0.00133777
4.01598e-06
4.32975e-05
0.00151851
3.0479e-05
-0.000198003
0.00174596
0.000132437
-0.000292812
0.0017071
0.000166863
-2.52223e-05
0.00152953
0.000169358
0.00012875
0.00144636
0.000169289
3.13956e-05
0.00139069
0.000174058
3.91912e-06
0.00135121
0.000184902
-1.82466e-05
0.00128905
0.000196566
-1.2558e-05
0.00111818
0.000199424
8.31629e-05
0.000747414
0.000201837
0.0002729
0.000201991
0.000647128
0.00162359
1.15596e-08
5.87194e-05
0.00157666
-2.16997e-08
4.69394e-05
0.00153808
1.99534e-08
3.85718e-05
0.00150615
-3.14385e-08
3.19505e-05
0.00147905
4.40879e-08
2.70586e-05
0.00145661
-7.56391e-08
2.25058e-05
0.00143674
1.2667e-07
1.9744e-05
0.00142106
-2.33923e-07
1.59305e-05
0.00140552
3.57008e-07
1.51477e-05
0.00139096
1.19681e-06
1.36871e-05
0.00138686
-3.56595e-06
8.43912e-06
0.00135883
1.35597e-05
1.52144e-05
0.00140921
-2.73431e-05
-1.84619e-05
0.00131693
5.48138e-05
4.12364e-05
0.00153605
1.17057e-06
-0.000190354
0.00175601
0.000175097
-0.00026409
0.00174701
0.000219577
-4.49198e-05
0.00155017
0.000242899
0.000122923
0.00145763
0.000237439
2.40972e-05
0.00140302
0.000250283
-2.2095e-05
0.00134154
0.000261939
-1.60132e-05
0.00127383
0.000276148
-1.238e-05
0.00110416
0.000290758
7.78237e-05
0.000730015
0.000305551
0.000268797
0.000310301
0.000625135
0.00162367
-3.41132e-08
5.86929e-05
0.00157663
4.00193e-08
4.69719e-05
0.00153814
-2.86702e-08
3.85364e-05
0.00150609
3.14078e-08
3.19957e-05
0.00147917
-3.58166e-08
2.69961e-05
0.00145644
5.4296e-08
2.26019e-05
0.00143707
-9.36768e-08
1.95831e-05
0.00142041
1.92365e-07
1.62431e-05
0.00140633
-3.02389e-07
1.47273e-05
0.00139569
-5.73981e-07
1.23794e-05
0.00137215
4.97247e-06
1.49787e-05
0.00139926
-1.04414e-05
-3.11133e-06
0.00130755
3.98388e-05
2.43682e-05
0.00146088
-3.9306e-05
-5.93599e-05
0.00143178
8.88039e-05
-5.89208e-05
0.00172506
0.000173976
-0.00029359
0.00172692
0.000265458
-4.90628e-05
0.00156992
0.000283677
0.000115517
0.00148487
0.000298027
2.40837e-05
0.00143032
0.000319856
-1.54061e-05
0.0013632
0.00034081
-1.21446e-05
0.00128329
0.000360056
-4.39653e-06
0.00111403
0.000382911
7.67347e-05
0.000735522
0.000415509
0.000266967
0.000438599
0.000610626
0.00162347
3.2605e-08
5.87871e-05
0.00157668
-5.80146e-08
4.68687e-05
0.00153801
3.34668e-08
3.86216e-05
0.00150617
-4.62455e-08
3.19087e-05
0.00147901
5.05358e-08
2.70821e-05
0.00145662
-6.92407e-08
2.25017e-05
0.00143668
1.24063e-07
1.97212e-05
0.001421
-1.93289e-07
1.59965e-05
0.0014075
4.43596e-07
1.50935e-05
0.0013903
9.23949e-07
1.33429e-05
0.00139057
-3.8081e-06
8.37449e-06
0.00135315
1.31085e-05
1.41712e-05
0.00143886
-2.76632e-05
-1.82824e-05
0.00129967
6.09228e-05
3.84665e-05
0.00155566
7.0672e-06
-0.000174889
0.00173867
0.000261534
-0.000270253
0.00175836
0.000315515
-7.21089e-05
0.00157994
0.000348864
0.000112334
0.00149704
0.000358834
2.17419e-05
0.00144072
0.000384995
-9.06204e-06
0.00137948
0.000414026
-1.22088e-05
0.0012999
0.000443047
-3.67432e-06
0.00112645
0.0004809
7.5012e-05
0.000744588
0.000534646
0.000261077
0.000593112
0.000593294
0.00162371
-5.48874e-08
5.86904e-05
0.00157662
5.25441e-08
4.69777e-05
0.00153816
-3.77987e-08
3.85275e-05
0.00150607
4.75296e-08
3.20063e-05
0.00147917
-3.72471e-08
2.69778e-05
0.00145642
6.46261e-08
2.26251e-05
0.00143707
-7.98053e-08
1.95449e-05
0.00142044
1.57086e-07
1.62869e-05
0.00140653
-2.65351e-07
1.4612e-05
0.00139569
-6.34419e-07
1.23782e-05
0.00137267
4.35427e-06
1.48046e-05
0.00139674
-8.44249e-06
-2.51758e-06
0.00130672
3.8005e-05
2.41797e-05
0.00146062
-3.08858e-05
-6.22762e-05
0.00143116
8.46834e-05
-4.86863e-05
0.00172403
0.000271728
-0.000304744
0.0017535
0.000358279
-7.29184e-05
0.00159729
0.000400704
0.000103277
0.00151858
0.000415995
2.12621e-05
0.00146032
0.000445945
-2.81999e-06
0.00140326
0.000482474
-1.14368e-05
0.00132237
0.000522899
9.7926e-07
0.00114793
0.000581803
7.32121e-05
0.000762912
0.000667524
0.000250234
0.000792093
0.000567056
0.00162345
-1.2283e-08
5.88247e-05
0.00157665
2.52949e-10
4.68312e-05
0.00153798
7.18352e-10
3.86482e-05
0.00150613
4.81824e-09
3.18819e-05
0.001479
7.18999e-09
2.70979e-05
0.00145656
1.5405e-09
2.24937e-05
0.00143675
2.17697e-08
1.97108e-05
0.00142075
-2.01116e-08
1.60445e-05
0.00140605
1.03282e-07
1.4991e-05
0.00139173
1.75686e-07
1.33535e-05
0.00138541
3.09059e-07
8.97387e-06
0.00136169
2.38654e-06
1.35811e-05
0.00141153
2.89215e-06
-1.42336e-05
0.00132367
2.2946e-05
3.34226e-05
0.00151734
5.53347e-05
-0.000165033
0.00173662
0.000327894
-0.000277404
0.00175508
0.000411678
-7.27279e-05
0.00160704
0.00045642
9.15948e-05
0.00153438
0.000468601
1.9684e-05
0.00147883
0.000503626
-2.33922e-06
0.0014254
0.00054676
-1.09996e-05
0.00134404
0.000599333
4.75614e-06
0.00117335
0.000681117
7.10726e-05
0.00079633
0.000810065
0.000232556
0.00106477
0.000526736
0.00162342
1.5651e-08
5.88429e-05
0.00157661
-2.54893e-09
4.68117e-05
0.00153794
8.61734e-09
3.86605e-05
0.00150609
-1.79133e-08
3.18693e-05
0.00147898
1.81594e-08
2.71055e-05
0.00145653
-4.00887e-08
2.24902e-05
0.00143681
5.33366e-08
1.97046e-05
0.00142063
-5.53304e-08
1.60775e-05
0.00140619
2.58498e-07
1.49389e-05
0.00139219
6.13275e-07
1.34035e-05
0.00138093
1.0514e-06
9.18382e-06
0.0013681
2.22767e-06
1.3622e-05
0.00137738
6.80642e-06
-1.2738e-05
0.00134834
1.97726e-05
3.15577e-05
0.00148557
7.04938e-05
-0.000153367
0.00174291
0.000353785
-0.000285264
0.00176269
0.000459607
-6.85013e-05
0.00163018
0.000511469
7.70234e-05
0.00155834
0.000520372
1.99524e-05
0.00150766
0.000558626
-4.42516e-06
0.00145553
0.000606325
-7.57529e-06
0.00137418
0.000671625
8.90152e-06
0.0012087
0.000779382
6.70503e-05
0.000839735
0.00097229
0.000205381
0.00145131
0.000455608
0.00162342
5.88257e-05
6.20218e-08
0.00157665
4.6834e-05
-5.76891e-08
0.00153797
3.8639e-05
4.47461e-08
0.00150611
3.19007e-05
-5.40005e-08
0.00147901
2.70638e-05
4.16065e-08
0.00145649
2.25506e-05
-6.12814e-08
0.00143686
1.9611e-05
6.70558e-08
0.00142059
1.62055e-05
-5.8678e-08
0.00140609
1.46902e-05
3.14074e-07
0.00139251
1.3236e-05
1.00992e-06
0.00138509
9.24655e-06
-1.79425e-06
0.0013635
1.33009e-05
1.10877e-05
0.00139828
-1.19406e-05
-1.58366e-05
0.00132358
2.92584e-05
6.46643e-05
0.00150819
-0.000151212
3.6503e-05
0.00177739
-0.000281816
0.000364121
0.00178253
-5.2918e-05
0.000506493
0.00167745
5.03575e-05
0.000565746
0.00159963
2.25822e-05
0.000575607
0.00155448
-6.2675e-06
0.00060999
0.0015011
-4.69011e-06
0.000664283
0.00142381
1.10993e-05
0.000737656
0.00127343
5.99034e-05
0.00086961
0.000944058
0.000170104
0.00113082
0.000333461
0.00206377
0.00172977
-4.2119e-11
7.16602e-06
0.00176404
1.10739e-09
1.26529e-05
0.00178822
3.27034e-12
1.44069e-05
0.00180604
1.59057e-09
1.41138e-05
0.00181989
-7.25037e-10
1.3226e-05
0.00183054
1.55428e-09
1.1831e-05
0.0018394
-8.41254e-10
1.09019e-05
0.00184587
2.24783e-09
9.46106e-06
0.00185204
1.37988e-08
8.92149e-06
0.00185735
4.68671e-08
8.61423e-06
0.00185822
1.34234e-07
7.58774e-06
0.00186731
3.70639e-07
6.54974e-06
0.0018451
1.11926e-06
3.11426e-06
0.00189465
3.96429e-06
-8.9789e-06
0.00176896
1.73699e-05
-9.40135e-05
0.00155443
0.00022659
-0.000317941
0.00129067
0.000159317
0.000106995
0.00120045
0.000191735
4.2251e-05
0.000926433
0.000253613
6.50716e-05
0.00111168
0.000405651
-0.000645474
0.000762226
0.000297406
6.47519e-05
0.000468089
0.00021168
0.000132394
0.000163666
0.000215224
0.000215296
-0.000158608
0.000281964
0.000339096
0.000152208
0.000377395
0.00172977
1.72818e-09
7.16521e-06
0.00176404
1.06205e-09
1.2654e-05
0.00178822
1.07006e-09
1.44056e-05
0.00180604
9.16169e-10
1.41156e-05
0.00181989
-7.0751e-10
1.32231e-05
0.00183054
1.00177e-09
1.18362e-05
0.00183941
-1.40617e-09
1.08936e-05
0.00184586
8.07894e-09
9.46875e-06
0.00185208
3.24968e-08
8.88226e-06
0.00185725
1.20761e-07
8.69821e-06
0.00185869
2.53504e-07
7.09632e-06
0.00186669
9.26487e-07
7.27771e-06
0.00184657
2.13212e-06
1.43612e-06
0.00189432
8.20084e-06
-8.42905e-06
0.00177378
3.11697e-05
-8.97387e-05
0.00162835
0.000149782
-5.01405e-05
0.00133827
0.000328738
9.46877e-05
0.00127336
0.000368639
2.2175e-05
0.00114412
0.000404961
1.28541e-05
0.00112431
0.000466261
-4.74928e-05
0.000906308
0.00048455
2.16332e-05
0.000531871
0.000478565
0.000115825
0.000164514
0.000498943
0.000181473
-0.000102958
0.000541187
0.00028698
0.000387578
0.000335727
0.00172977
5.26438e-09
7.16567e-06
0.00176404
-1.6219e-09
1.26529e-05
0.00178822
3.96019e-09
1.44065e-05
0.00180604
-3.51513e-09
1.41142e-05
0.00181989
1.73453e-09
1.32256e-05
0.00183055
-1.59276e-09
1.18318e-05
0.00183941
-2.68821e-09
1.09017e-05
0.00184585
2.29532e-08
9.45783e-06
0.00185203
5.23826e-08
8.91708e-06
0.00185726
2.14372e-07
8.59197e-06
0.00185806
4.40822e-07
7.59889e-06
0.00186675
1.71307e-06
6.35339e-06
0.00184421
3.7348e-06
2.99124e-06
0.00189317
1.26686e-05
-9.95073e-06
0.00177044
5.16221e-05
-9.7342e-05
0.00153303
0.000427383
-0.000337892
0.00129515
0.000452465
8.73991e-05
0.00126649
0.000508974
1.70148e-05
0.00118194
0.000536642
-1.49605e-05
0.00114513
0.000565142
-5.85924e-05
0.000939009
0.00066659
4.9655e-06
0.000537771
0.000748695
0.000117614
0.000170623
0.00076793
0.000175895
-8.13735e-05
0.000799582
0.000264072
0.00063212
0.000321981
0.00172976
7.22114e-09
7.16244e-06
0.00176405
-8.85648e-09
1.26576e-05
0.00178821
1.01343e-08
1.4402e-05
0.00180605
-1.54186e-08
1.41206e-05
0.00181988
1.83447e-08
1.32188e-05
0.00183057
-2.73862e-08
1.18393e-05
0.00183938
3.61546e-08
1.08929e-05
0.00184589
-1.38532e-08
9.45884e-06
0.00185205
1.642e-07
8.871e-06
0.00185716
6.65946e-08
8.70317e-06
0.0018567
2.1739e-06
7.13745e-06
0.00186636
-3.91121e-08
7.21026e-06
0.00184028
1.00136e-05
1.09108e-06
0.00188977
1.19842e-05
-7.76501e-06
0.00178078
5.98669e-05
-9.15455e-05
0.00159122
0.000459027
-0.000110647
0.00131514
0.000606014
7.59788e-05
0.00126093
0.000669993
1.57325e-05
0.00109703
0.000731981
-7.04611e-06
0.00111656
0.000867609
-0.000345233
0.000887272
0.0008796
-1.71639e-07
0.000537926
0.000967854
0.000117773
0.000182973
0.00102397
0.000170702
-6.05947e-05
0.00106232
0.000246959
0.000879937
0.000316806
0.00172976
-1.00805e-08
7.15903e-06
0.00176405
8.98333e-09
1.26631e-05
0.00178821
-1.03274e-08
1.43951e-05
0.00180605
9.63034e-09
1.41303e-05
0.00181987
-1.4611e-08
1.32064e-05
0.00183058
1.76235e-08
1.18492e-05
0.00183934
-2.58233e-08
1.08852e-05
0.00184611
3.00527e-08
9.43429e-06
0.0018522
-5.43279e-08
8.84927e-06
0.00185507
4.40798e-07
9.11015e-06
0.00186817
-7.68034e-07
4.80991e-06
0.00184882
4.19849e-06
1.18838e-05
0.0018904
2.56518e-06
-9.94955e-06
0.00180603
2.39351e-05
1.28081e-05
0.00178828
0.000111618
-9.49485e-05
0.00154877
0.000535404
-0.000134606
0.00130325
0.000735716
6.51319e-05
0.00125496
0.000816564
1.65962e-05
0.00111382
0.000908654
-1.12389e-05
0.00112272
0.00103106
-0.000188716
0.00089876
0.00110093
-9.63054e-06
0.000562737
0.00119467
0.000105063
0.000212918
0.00128314
0.000161002
-2.43454e-05
0.00133114
0.000232569
0.00115561
0.000310353
0.00172981
1.07303e-08
7.16089e-06
0.00176404
-1.80808e-08
1.26629e-05
0.00178825
1.10726e-08
1.43969e-05
0.00180606
-2.1495e-08
1.41269e-05
0.0018199
2.045e-08
1.32104e-05
0.0018306
-2.82452e-08
1.18455e-05
0.00183936
4.1359e-08
1.08883e-05
0.00184595
-1.23884e-08
9.45542e-06
0.00185194
1.7557e-07
8.88717e-06
0.00185672
1.7427e-07
8.77725e-06
0.00185498
2.31745e-06
7.00095e-06
0.00186454
9.59866e-07
7.75887e-06
0.00183628
1.29326e-05
-6.52514e-07
0.00187726
2.11979e-05
2.70613e-08
0.0017869
0.000108767
-8.35426e-05
0.00159555
0.000724426
-0.000273281
0.00131242
0.000888943
5.64389e-05
0.00126623
0.000960751
1.35413e-05
0.00114556
0.00106889
-1.77065e-05
0.00112294
0.00121691
-0.000173222
0.000929865
0.00130529
-2.35328e-05
0.000600909
0.00142692
9.3253e-05
0.000261357
0.00153948
0.000151915
2.35133e-05
0.0016085
0.000218402
0.00147324
0.000298686
0.00172977
-2.06287e-08
7.15933e-06
0.00176405
1.14361e-08
1.26651e-05
0.00178822
-1.69436e-08
1.43926e-05
0.00180605
1.57292e-08
1.41334e-05
0.00181986
-1.55822e-08
1.32036e-05
0.00183059
2.31663e-08
1.18479e-05
0.0018393
-1.8099e-08
1.08897e-05
0.00184611
2.88609e-08
9.43375e-06
0.00185202
-1.90177e-08
8.90408e-06
0.00185498
4.79409e-07
9.08547e-06
0.00186717
-1.46763e-07
5.06168e-06
0.00184947
4.21525e-06
1.1786e-05
0.00189036
7.24579e-06
-1.1212e-05
0.00179445
3.12947e-05
2.32329e-05
0.00179687
0.000153515
-9.78476e-05
0.00157597
0.000803619
-0.000168461
0.00132684
0.00101701
4.60319e-05
0.00128264
0.0010952
1.24816e-05
0.00118135
0.00121355
-2.20721e-05
0.00113257
0.00137794
-0.00011608
0.000958443
0.00149823
-3.07557e-05
0.0006654
0.00164411
7.68551e-05
0.000334393
0.00179754
0.000141028
9.24298e-05
0.00189336
0.000203419
0.00184967
0.000282016
0.00172985
-6.50509e-09
7.16428e-06
0.00176403
2.26708e-10
1.2662e-05
0.00178827
-1.96532e-09
1.43976e-05
0.00180604
1.97078e-09
1.4125e-05
0.0018199
3.62463e-09
1.32109e-05
0.00183058
4.05381e-10
1.18421e-05
0.00183936
1.50105e-08
1.08927e-05
0.00184597
1.30143e-08
9.45806e-06
0.00185189
1.12386e-07
8.93041e-06
0.0018564
4.63181e-07
8.85064e-06
0.0018572
1.17947e-06
6.79318e-06
0.00186222
3.87474e-06
8.77515e-06
0.001848
1.06377e-05
-3.55449e-06
0.00185815
3.90469e-05
1.50293e-05
0.00178943
0.000151312
-9.59169e-05
0.0016151
0.00091017
-0.000215232
0.00136151
0.00115966
3.55856e-05
0.00130906
0.00122677
1.2357e-05
0.00122212
0.00134268
-2.18028e-05
0.00115975
0.00151819
-8.00643e-05
0.001002
0.00167601
-3.1292e-05
0.000740517
0.00184772
6.20232e-05
0.000436496
0.0020407
0.000126792
0.00018339
0.00218757
0.00018715
0.00230206
0.000256353
0.00172986
7.5178e-09
7.16647e-06
0.00176401
4.32105e-09
1.26603e-05
0.00178827
3.71165e-09
1.43975e-05
0.00180601
2.06953e-09
1.41243e-05
0.00181991
1.79758e-09
1.3209e-05
0.00183056
-1.44933e-09
1.18449e-05
0.00183937
1.40442e-08
1.08901e-05
0.00184599
1.87724e-08
9.45701e-06
0.00185186
2.27055e-07
8.9457e-06
0.0018563
6.08412e-07
8.80791e-06
0.00185767
2.05021e-06
6.88616e-06
0.00186289
3.85771e-06
8.29012e-06
0.00184734
1.53738e-05
-2.06365e-06
0.0018689
3.71885e-05
1.13714e-05
0.00178731
0.000163644
-8.5987e-05
0.00163892
0.000978843
-0.000210077
0.00139389
0.00130794
2.49196e-05
0.00134885
0.00133448
1.36435e-05
0.00127225
0.00145901
-1.93938e-05
0.00120299
0.00164339
-6.03507e-05
0.00107605
0.0018243
-2.92758e-05
0.000862915
0.00202244
4.69537e-05
0.000600087
0.00226188
0.000105472
0.000331829
0.00249308
0.000163237
0.00286736
0.000220563
0.00172985
7.16187e-06
2.68439e-08
0.00176402
1.26669e-05
-6.29636e-09
0.00178827
1.43902e-05
9.84885e-09
0.00180603
1.41374e-05
7.73951e-09
0.00181992
1.31937e-05
-2.14993e-08
0.00183056
1.18604e-05
5.09769e-08
0.00183939
1.08779e-05
-9.13963e-08
0.00184591
9.4527e-06
2.54154e-07
0.00185187
9.00724e-06
-5.64115e-08
0.00185492
8.69242e-06
2.08851e-06
0.00186137
7.00018e-06
-2.20864e-06
0.00185371
7.51327e-06
1.7163e-05
0.0018714
-4.36216e-07
-1.40041e-05
0.00183453
6.21533e-06
9.65714e-05
0.00180705
-7.44657e-05
0.000112707
0.00165879
-0.000211045
0.00105134
0.00147966
-1.08323e-07
0.00143079
0.00139022
3.15172e-05
0.00144171
0.00133714
-1.74012e-05
0.00155211
0.00127655
-4.54082e-05
0.00174306
0.00117609
-2.714e-05
0.00194715
0.0010026
3.64118e-05
0.00217045
0.000793018
8.46693e-05
0.00244349
0.000597335
0.000121668
0.0027333
0.000158843
0.003638
0.00169386
6.75399e-10
-7.16311e-06
0.00171917
5.11716e-11
-1.26551e-05
0.00174798
8.0028e-10
-1.44033e-05
0.00177621
4.94121e-11
-1.41166e-05
0.00180266
1.13809e-10
-1.32235e-05
0.00182632
1.54862e-09
-1.18322e-05
0.00184812
-2.71138e-09
-1.09008e-05
0.00186704
8.80529e-09
-9.4649e-06
0.00188489
-4.79138e-09
-8.92014e-06
0.001902
1.06289e-07
-8.63221e-06
0.00191728
-8.86171e-08
-7.61292e-06
0.00192954
7.01092e-07
-6.53338e-06
0.00193571
1.36368e-07
-3.29425e-06
0.00191453
2.93765e-06
8.87147e-06
0.00171451
1.21658e-05
9.2221e-05
0.00116264
0.000154006
7.24685e-05
0.00115508
0.000220842
-0.000108174
0.00095367
0.000269286
-2.57216e-05
0.00077413
0.00025603
-1.06544e-05
-8.28995e-05
0.000224633
-1.50712e-05
-0.000289766
0.000322005
-5.13184e-05
-0.000433277
0.000415937
-0.000143101
-0.000470396
0.000466516
-0.000218898
-0.000320053
0.000507681
-0.000324202
0.000442931
-0.000391316
0.00169386
7.4609e-10
-7.1601e-06
0.00171917
5.53535e-10
-1.26596e-05
0.00174797
5.42034e-10
-1.4398e-05
0.00177621
9.14755e-10
-1.41242e-05
0.00180265
-1.62942e-10
-1.32147e-05
0.00182633
-7.01016e-10
-1.18375e-05
0.00184811
2.68059e-09
-1.08987e-05
0.00186701
-2.59293e-09
-9.42152e-06
0.0018847
4.50377e-08
-8.8571e-06
0.00190251
2.98023e-08
-9.06027e-06
0.00191426
4.80218e-07
-5.22612e-06
0.00193302
4.01406e-07
-1.13091e-05
0.00192439
3.01703e-06
7.08096e-06
0.00191884
7.97156e-06
-8.29358e-06
0.00171207
4.16745e-05
8.5879e-05
0.00113979
0.000266898
0.000401811
0.00113306
0.00040785
-8.7386e-05
0.000953474
0.000499787
-2.87856e-05
0.000732228
0.000525154
-3.43063e-05
-0.000116942
0.000519284
0.000506209
-0.000402523
0.000664862
-3.68584e-05
-0.000504768
0.000743479
-0.000112654
-0.000492078
0.000817817
-0.000187301
-0.000297367
0.00087017
-0.000275255
0.000807021
-0.000332136
0.00169386
2.20394e-09
-7.16101e-06
0.00171917
-5.05037e-10
-1.26585e-05
0.00174797
1.82046e-09
-1.43998e-05
0.00177621
-1.32608e-09
-1.41208e-05
0.00180266
-3.07162e-10
-1.32197e-05
0.00182632
5.55105e-11
-1.18335e-05
0.00184813
-2.88692e-09
-1.09028e-05
0.00186702
1.24277e-08
-9.44759e-06
0.00188486
2.17171e-08
-8.90357e-06
0.00190187
2.26422e-07
-8.63958e-06
0.00191744
2.07087e-07
-7.70582e-06
0.00192876
1.70023e-06
-6.39167e-06
0.00193556
2.85147e-06
-3.73743e-06
0.00191093
1.27685e-05
9.53284e-06
0.00170795
6.20304e-05
8.35645e-05
0.00114136
0.000420973
6.73581e-05
0.00111367
0.00060474
-8.37305e-05
0.000935396
0.000718092
-2.33014e-05
0.000697245
0.00076857
-1.98746e-05
-0.000124609
0.000792532
0.000488507
-0.000413828
0.000972514
-1.47215e-05
-0.000495764
0.0010499
-0.000109926
-0.00047356
0.00114151
-0.0001748
-0.000295074
0.00120568
-0.000254766
0.00113347
-0.000306241
0.00169385
1.71448e-09
-7.15688e-06
0.00171917
-1.22967e-09
-1.26644e-05
0.00174797
1.40341e-09
-1.43932e-05
0.00177622
-2.43333e-09
-1.41312e-05
0.00180265
-5.6417e-11
-1.32082e-05
0.00182633
-8.98177e-10
-1.18436e-05
0.00184812
-9.94008e-10
-1.08955e-05
0.001867
1.47303e-08
-9.42212e-06
0.00188471
4.23387e-08
-8.86641e-06
0.00190234
3.00996e-07
-9.02679e-06
0.00191449
4.26891e-07
-5.23332e-06
0.00193207
2.33865e-06
-1.11358e-05
0.0019236
4.8012e-06
7.49826e-06
0.00191851
1.926e-05
-9.40441e-06
0.00170708
9.57241e-05
8.43222e-05
0.00115618
0.000625089
0.000228905
0.00109951
0.000808025
-7.25502e-05
0.000925763
0.000928341
-2.09361e-05
0.000671995
0.0010161
-5.01386e-07
-8.3261e-05
0.00107235
0.000128542
-0.000376688
0.00126378
1.32803e-06
-0.000447155
0.00135141
-0.000116067
-0.000433533
0.00146198
-0.000167927
-0.00028244
0.00153551
-0.000238858
0.00145762
-0.000296875
0.00169385
-1.37084e-09
-7.1548e-06
0.00171918
-2.14178e-10
-1.26684e-05
0.00174797
-1.78548e-09
-1.43897e-05
0.00177623
-4.62181e-10
-1.41375e-05
0.00180264
-1.11361e-09
-1.3201e-05
0.00182634
-7.65616e-10
-1.18536e-05
0.00184811
4.63413e-09
-1.08832e-05
0.00186698
1.04171e-08
-9.43697e-06
0.00188462
8.8208e-08
-8.836e-06
0.00190281
2.79593e-07
-9.08565e-06
0.00191188
9.51593e-07
-4.7894e-06
0.00193529
2.49525e-06
-1.18137e-05
0.00191243
7.97682e-06
9.60469e-06
0.00192995
2.78298e-05
-1.34588e-05
0.00171681
0.000136403
7.55671e-05
0.00116732
0.000805191
0.000227856
0.00109647
0.00100319
-6.07286e-05
0.000930695
0.00112866
-1.83295e-05
0.000679726
0.00124661
8.9395e-06
-2.07468e-05
0.00135326
0.00022938
-0.000308076
0.0015333
8.11154e-06
-0.00038008
0.00163599
-0.000110127
-0.000378677
0.00177402
-0.000157535
-0.000255759
0.00186597
-0.00022571
0.00179621
-0.000291439
0.00169385
-2.79414e-09
-7.15883e-06
0.00171918
-2.82615e-10
-1.26635e-05
0.00174797
-2.8327e-09
-1.43937e-05
0.00177623
-5.99993e-10
-1.41321e-05
0.00180264
-7.4775e-10
-1.32054e-05
0.00182634
9.43258e-10
-1.18484e-05
0.00184811
5.0406e-09
-1.0889e-05
0.00186699
2.12661e-08
-9.43356e-06
0.00188477
8.55305e-08
-8.88993e-06
0.00190235
4.73038e-07
-9.0245e-06
0.0019146
9.01765e-07
-5.20952e-06
0.00193214
3.88208e-06
-1.12936e-05
0.00192122
9.254e-06
8.87697e-06
0.00192903
3.62683e-05
-1.66763e-05
0.00172483
0.000166833
8.85114e-05
0.00117689
0.000955114
0.000117279
0.00110068
0.00118861
-5.48004e-05
0.000944573
0.0013153
-1.74208e-05
0.000699395
0.0014586
1.53617e-05
0.000101728
0.00162237
0.000153677
-0.00019576
0.00178812
1.96777e-05
-0.000290632
0.00192075
-9.87955e-05
-0.000305315
0.00208457
-0.000147887
-0.000212444
0.00220013
-0.000213508
0.00216003
-0.000284828
0.00169385
-3.62003e-09
-7.16368e-06
0.00171918
-3.12271e-10
-1.26589e-05
0.00174797
-2.84303e-09
-1.44005e-05
0.00177623
2.15378e-10
-1.41211e-05
0.00180264
9.24398e-10
-1.32151e-05
0.00182633
1.68429e-09
-1.18433e-05
0.0018481
8.94332e-09
-1.08846e-05
0.00186701
2.40362e-08
-9.4778e-06
0.00188475
1.1588e-07
-8.86656e-06
0.0019026
5.06665e-07
-8.82419e-06
0.00191396
1.20842e-06
-6.61072e-06
0.00193398
4.26645e-06
-8.76425e-06
0.00191703
1.13436e-05
3.48215e-06
0.00194302
4.35486e-05
-9.8481e-06
0.00173087
0.000187323
9.14917e-05
0.00119018
0.0010892
0.000231315
0.00111425
0.00135788
-4.97021e-05
0.00096482
0.00149245
-1.55087e-05
0.000727799
0.00165414
1.97887e-05
0.000251227
0.00187626
0.000104047
-5.67133e-05
0.00204012
2.70055e-05
-0.000173837
0.00219344
-8.07822e-05
-0.000201292
0.00238568
-0.000137158
-0.000144771
0.00254156
-0.000199204
0.00256125
-0.00027096
0.00169386
-1.96114e-09
-7.16813e-06
0.00171918
5.60827e-10
-1.26547e-05
0.00174797
7.88138e-11
-1.44035e-05
0.00177622
5.58238e-10
-1.41164e-05
0.00180264
4.68102e-09
-1.32182e-05
0.00182632
-1.07314e-09
-1.18387e-05
0.0018481
1.69566e-08
-1.08889e-05
0.00186704
1.73508e-08
-9.47429e-06
0.00188482
1.40579e-07
-8.88341e-06
0.00190241
5.48427e-07
-8.81376e-06
0.00191568
1.50541e-06
-6.76814e-06
0.001933
4.354e-06
-8.77347e-06
0.00192271
1.42569e-05
3.65105e-06
0.00195537
4.15611e-05
-1.55118e-05
0.00174929
0.000197595
9.75962e-05
0.00122581
0.0011953
0.000195731
0.00112582
0.00152841
-3.73314e-05
0.000992569
0.00165198
-1.40828e-05
0.000776025
0.0018293
2.01856e-05
0.00040295
0.00208832
7.83023e-05
0.000103474
0.00228039
2.86457e-05
-2.95882e-05
0.00245142
-6.42501e-05
-7.18895e-05
0.00267466
-0.000123697
-4.47216e-05
0.00287934
-0.000182634
0.00301348
-0.000247186
0.00169386
-1.71283e-10
-7.16771e-06
0.00171917
8.08306e-09
-1.2658e-05
0.00174797
-4.76796e-09
-1.43995e-05
0.00177621
1.47106e-08
-1.41212e-05
0.00180264
-1.20673e-08
-1.32111e-05
0.00182631
1.97953e-08
-1.18431e-05
0.0018481
3.24992e-09
-1.08894e-05
0.00186702
1.82742e-08
-9.46073e-06
0.00188472
3.15517e-07
-8.93765e-06
0.00190244
4.33362e-07
-8.80606e-06
0.00191537
2.28118e-06
-6.89352e-06
0.00193304
3.1515e-06
-8.30244e-06
0.0019234
1.94725e-05
1.9777e-06
0.00195231
3.51079e-05
-1.13684e-05
0.0017701
0.000205452
8.5606e-05
0.00125983
0.00127627
0.000212432
0.00113617
0.00170025
-2.52805e-05
0.00102522
0.00179027
-1.40741e-05
0.00083988
0.00197703
1.88405e-05
0.000541941
0.00226478
5.93556e-05
0.000280681
0.00248448
2.76767e-05
0.000148301
0.00267761
-4.87112e-05
9.43234e-05
0.00293378
-0.000103392
9.98216e-05
0.00319045
-0.000158314
0.00354044
-0.000213309
0.00169384
-7.16205e-06
7.67389e-09
0.00171918
-1.26658e-05
8.93523e-09
0.00174796
-1.43904e-05
-1.1406e-08
0.00177621
-1.41358e-05
4.04398e-08
0.00180265
-1.31942e-05
-6.74003e-08
0.00182627
-1.18598e-05
1.30236e-07
0.00184823
-1.08778e-05
-2.08177e-07
0.00186672
-9.45408e-06
4.34215e-07
0.00188552
-9.00552e-06
-4.70173e-07
0.0019016
-8.69678e-06
1.7082e-06
0.00192079
-7.00935e-06
-2.91423e-06
0.00192075
-7.5428e-06
1.80916e-05
0.00195305
3.49631e-07
-1.38547e-05
0.00190617
-6.2984e-06
9.4013e-05
0.00180595
7.39715e-05
0.000154753
0.00128331
0.000213179
0.00136692
0.00112322
6.49947e-07
0.0018564
0.00106483
-3.11012e-05
0.00191142
0.000917065
1.72553e-05
0.00209064
0.000696577
4.47879e-05
0.00239318
0.000476679
2.6261e-05
0.0026505
0.000362149
-3.75065e-05
0.00286425
0.000323955
-8.33306e-05
0.00313708
0.000322951
-0.000117728
0.00342663
-0.000153775
0.00417029
0.00172975
6.97342e-09
-5.87189e-05
0.00176404
-7.2035e-09
-4.69384e-05
0.00178821
9.40884e-09
-3.85732e-05
0.00180605
-1.22211e-08
-3.19471e-05
0.00181987
1.67412e-08
-2.70648e-05
0.00183056
-2.22438e-08
-2.24952e-05
0.00183939
2.946e-08
-1.97584e-05
0.00184582
-5.25941e-09
-1.58878e-05
0.00185181
1.35711e-07
-1.50581e-05
0.00185701
-1.2707e-07
-1.37212e-05
0.00185597
1.74136e-06
-8.32087e-06
0.00186643
-1.64693e-06
-1.54674e-05
0.00183805
5.41797e-06
1.95592e-05
0.00188983
-6.76472e-07
-4.22423e-05
0.00178022
-9.82042e-06
0.000210071
0.00164108
-5.36877e-05
0.000260958
0.00136761
0.000145482
1.79585e-05
0.00132429
0.000158792
-0.000142119
0.00126801
9.30526e-05
-4.73786e-05
0.00126894
1.7304e-06
-1.79783e-05
0.00111661
0.000101282
-1.22399e-06
0.000752767
0.000227298
-5.30152e-06
0.00031338
0.000303397
-8.71302e-05
-3.20457e-05
0.000327876
-0.0003105
0.000278596
-0.00069914
0.00172975
-3.693e-09
-5.86912e-05
0.00176405
7.8333e-09
-4.69718e-05
0.0017882
-5.49412e-09
-3.85392e-05
0.00180605
1.05859e-08
-3.19902e-05
0.00181987
-1.40927e-08
-2.70057e-05
0.00183058
2.00889e-08
-2.25877e-05
0.00183934
-3.26428e-08
-1.96051e-05
0.00184611
2.30937e-08
-1.6219e-05
0.00185229
-9.84255e-08
-1.47994e-05
0.00185515
3.02926e-07
-1.23779e-05
0.00186824
-1.4477e-06
-1.51284e-05
0.00184855
3.24118e-06
3.37511e-06
0.00188865
-2.90984e-06
-2.48335e-05
0.00181381
1.1548e-05
5.44336e-05
0.00177142
4.90073e-05
6.7741e-05
0.00144762
0.000321758
0.00034588
0.00125535
0.000259662
-1.13885e-05
0.0011972
0.000316426
-0.000129555
0.000956829
0.000335418
-3.63158e-05
0.00107409
0.000356507
3.22156e-05
0.000784957
0.000364142
-1.09802e-05
0.000508214
0.000421692
-2.84178e-05
0.000166107
0.000543433
-9.11424e-05
-8.85685e-05
0.000600231
-0.000295809
0.000526405
-0.000666589
0.00172976
1.0332e-08
-5.87305e-05
0.00176405
-8.25045e-09
-4.69264e-05
0.00178821
1.10904e-08
-3.85797e-05
0.00180606
-1.50821e-08
-3.19447e-05
0.00181987
1.62735e-08
-2.70603e-05
0.00183059
-2.70066e-08
-2.2509e-05
0.00183937
2.97497e-08
-1.97374e-05
0.00184589
-2.07976e-08
-1.59339e-05
0.00185191
1.2121e-07
-1.51376e-05
0.00185714
-8.13244e-08
-1.35037e-05
0.00185419
1.88888e-06
-8.10187e-06
0.00186693
-1.17116e-06
-1.48466e-05
0.00183078
7.66787e-06
2.17175e-05
0.00188651
6.41517e-06
-4.10134e-05
0.00177339
3.12975e-05
0.000212758
0.00159897
0.00029192
0.000267409
0.0012987
0.000448437
2.58784e-05
0.00120264
0.000508377
-0.000120166
0.000962858
0.000576512
-2.12973e-05
0.0010447
0.000711059
5.05598e-05
0.000746587
0.000644714
2.3402e-06
0.000418473
0.000661639
-2.06756e-05
9.705e-05
0.000775901
-9.17841e-05
-0.000117281
0.000842379
-0.000284777
0.000740383
-0.000636155
0.00172975
3.21479e-09
-5.86863e-05
0.00176405
-2.37513e-09
-4.69789e-05
0.0017882
1.79755e-09
-3.85314e-05
0.00180606
-5.74761e-09
-3.20023e-05
0.00181986
1.02998e-09
-2.69918e-05
0.00183061
-6.34399e-09
-2.2607e-05
0.00183933
4.61899e-12
-1.95867e-05
0.00184612
5.62707e-09
-1.62412e-05
0.00185218
2.31539e-08
-1.48246e-05
0.0018553
2.06571e-07
-1.24624e-05
0.00186696
4.0901e-07
-1.54266e-05
0.00185011
1.89661e-06
2.52834e-06
0.00188609
4.61302e-06
-2.56082e-05
0.00181157
1.57517e-05
5.54929e-05