/*--------------------------------*- C++ -*----------------------------------*\
  =========                 |
  \\      /  F ield         | OpenFOAM: The Open Source CFD Toolbox
   \\    /   O peration     | Website:  https://openfoam.org
    \\  /    A nd           | Version:  6
     \\/     M anipulation  |
\*---------------------------------------------------------------------------*/
FoamFile
{
    version     2.0;
    format      ascii;
    class       volScalarField;
    location    "2";
    object      T;
}
// * * * * * * * * * * * * * * * * * * * * * * * * * * * * * * * * * * * * * //

dimensions      [0 0 0 1 0 0 0];

internalField   nonuniform List<scalar> 
26250
(
0.980225
0.967272
0.955985
0.946485
0.937922
0.930899
0.924453
0.920321
0.919794
0.926562
0.940263
1.00306
1.11461
1.56099
2.46091
2.69058
2.65424
2.62909
2.59412
2.60734
2.61362
2.6332
2.67047
2.72598
2.74312
0.98023
0.967267
0.95599
0.94648
0.937928
0.930894
0.924457
0.920308
0.919785
0.926474
0.9401
1.00245
1.11363
1.55624
2.45278
2.67359
2.64692
2.61812
2.58577
2.58695
2.59863
2.62505
2.65935
2.72039
2.73626
0.980247
0.96725
0.956008
0.946463
0.937945
0.930877
0.924468
0.920264
0.919746
0.9263
0.939608
1.00157
1.11091
1.55317
2.44736
2.6793
2.65375
2.6238
2.59124
2.59107
2.60386
2.63229
2.66513
2.72731
2.73737
0.980345
0.967155
0.956109
0.946364
0.938045
0.930779
0.924551
0.920161
0.91971
0.925898
0.937112
1.00014
1.10511
1.54837
2.4375
2.66385
2.64765
2.61711
2.58721
2.59121
2.60443
2.63434
2.66807
2.73371
2.74303
0.980695
0.966799
0.956473
0.945987
0.938434
0.930362
0.925008
0.919663
0.920839
0.92104
0.943753
0.978179
1.13741
1.51385
2.29178
2.63007
2.62214
2.5946
2.5684
2.57272
2.58734
2.62029
2.65597
2.72579
2.73687
0.979474
0.96802
0.955237
0.947235
0.93718
0.931643
0.923697
0.921013
0.918914
0.924995
0.933388
0.995952
1.0917
1.53194
2.39688
2.63085
2.62429
2.59529
2.56605
2.56753
2.58083
2.6117
2.64776
2.71996
2.73233
0.980783
0.966713
0.956561
0.945894
0.938522
0.93026
0.925081
0.919468
0.920385
0.920495
0.941805
0.974273
1.12417
1.48051
2.22328
2.59854
2.59879
2.57695
2.5522
2.55295
2.56631
2.59555
2.63154
2.70616
2.72423
0.979145
0.968353
0.954893
0.947577
0.936832
0.931983
0.923354
0.921297
0.918442
0.923938
0.933026
0.989511
1.0765
1.49171
2.32108
2.59249
2.59221
2.57003
2.5439
2.54397
2.55583
2.58193
2.61655
2.68946
2.70653
0.979011
0.968503
0.954733
0.947752
0.936657
0.932172
0.923156
0.921454
0.918176
0.923304
0.933135
0.985014
1.06824
1.45972
2.26654
2.56487
2.57574
2.55591
2.53153
2.52955
2.53911
2.56063
2.59161
2.6631
2.67015
0.979081
0.968445
0.954804
0.947689
0.936727
0.932099
0.923221
0.921242
0.917633
0.922456
0.930784
0.980299
1.05942
1.42067
2.21093
2.52533
2.55191
2.53456
2.51909
2.51428
2.5213
2.53514
2.55489
2.60589
2.57203
1.01421
1.02103
1.0263
1.02897
1.03183
1.03304
1.03508
1.03674
1.04394
1.05524
1.09045
1.17187
1.37291
1.88835
2.81803
2.73301
2.78874
2.7558
2.75315
2.76703
2.77467
2.78879
2.84253
2.8451
2.74515
1.01421
1.02103
1.0263
1.02897
1.03183
1.03304
1.03508
1.03673
1.0439
1.05518
1.09023
1.17145
1.37178
1.88159
2.81426
2.73709
2.7821
2.74581
2.73845
2.74899
2.76579
2.77816
2.83188
2.84991
2.74717
1.01421
1.02103
1.0263
1.02897
1.03183
1.03304
1.03507
1.03671
1.04382
1.05499
1.08989
1.17016
1.36953
1.87508
2.81247
2.73691
2.7859
2.74701
2.738
2.7459
2.76209
2.76576
2.81545
2.84891
2.75104
1.01422
1.02103
1.0263
1.02897
1.03183
1.03304
1.03506
1.03668
1.0437
1.05468
1.08938
1.16842
1.36584
1.86594
2.80711
2.74031
2.77996
2.7403
2.73472
2.74861
2.7587
2.75746
2.80412
2.84565
2.75502
1.01419
1.02107
1.02627
1.02902
1.0318
1.03308
1.03501
1.03663
1.04307
1.05511
1.08414
1.1752
1.35148
1.86963
2.81322
2.75086
2.77958
2.73959
2.73248
2.74088
2.75342
2.74993
2.78721
2.83676
2.75238
1.01415
1.02106
1.02626
1.02899
1.0318
1.03304
1.03502
1.03661
1.04339
1.05383
1.08746
1.164
1.35159
1.84438
2.79303
2.74715
2.76527
2.73311
2.72698
2.73147
2.74224
2.73727
2.77387
2.82691
2.7454
1.01419
1.02108
1.02627
1.02902
1.03179
1.03308
1.03498
1.03656
1.04273
1.05398
1.08188
1.16827
1.33259
1.83913
2.79745
2.75661
2.75565
2.72739
2.72012
2.72237
2.73244
2.72489
2.74678
2.80433
2.73084
1.01412
1.02109
1.02623
1.029
1.03178
1.03304
1.03499
1.03652
1.04295
1.05263
1.08419
1.15785
1.32694
1.80608
2.76633
2.75408
2.73767
2.71282
2.71097
2.71056
2.71412
2.70774
2.72433
2.78147
2.7068
1.01409
1.0211
1.02621
1.02901
1.03177
1.03305
1.03497
1.03646
1.04261
1.05186
1.08229
1.15216
1.3135
1.77392
2.74076
2.74806
2.72
2.68642
2.68954
2.69518
2.69709
2.68514
2.68549
2.7323
2.65492
1.01407
1.02113
1.02619
1.02904
1.03175
1.03307
1.03493
1.03635
1.04206
1.051
1.07902
1.14765
1.29718
1.74624
2.70332
2.73955
2.70813
2.67914
2.66952
2.66964
2.66952
2.65999
2.64937
2.67838
2.56447
1.00636
1.01266
1.02151
1.02799
1.03569
1.04061
1.04704
1.05148
1.06131
1.07639
1.11776
1.21453
1.4353
2.05988
2.86245
2.6203
2.79227
2.76645
2.76601
2.73975
2.84631
2.84643
2.84524
2.83495
2.76545
1.00638
1.01264
1.02154
1.02797
1.03571
1.04059
1.04706
1.05146
1.06135
1.07617
1.11804
1.21285
1.43537
2.06162
2.85936
2.62316
2.79163
2.76406
2.76473
2.74342
2.84257
2.84323
2.84143
2.83194
2.76618
1.00636
1.01266
1.02151
1.02799
1.03569
1.04061
1.04704
1.05146
1.0612
1.07619
1.11718
1.21327
1.43194
2.05397
2.85583
2.62984
2.79061
2.76075
2.76272
2.7424
2.84073
2.83977
2.8364
2.82351
2.76377
1.00638
1.01264
1.02154
1.02796
1.03572
1.04058
1.04706
1.05141
1.06116
1.07577
1.11701
1.21021
1.42917
2.04681
2.8483
2.6421
2.78988
2.75656
2.75931
2.73725
2.83341
2.82917
2.82546
2.81572
2.75801
1.00641
1.01261
1.02157
1.02794
1.03574
1.04056
1.04708
1.05135
1.06106
1.07524
1.11649
1.20631
1.42424
2.0316
2.83654
2.6563
2.78595
2.74913
2.75415
2.72613
2.82521
2.82081
2.8145
2.79843
2.74572
1.00641
1.01262
1.02156
1.02794
1.03574
1.04056
1.04706
1.0513
1.06078
1.07484
1.11491
1.20358
1.41542
2.00577
2.82305
2.6696
2.78056
2.7417
2.74614
2.71262
2.80716
2.80205
2.79789
2.78518
2.73247
1.00644
1.01259
1.02159
1.02791
1.03577
1.04053
1.04708
1.05122
1.06052
1.07406
1.11351
1.19772
1.40571
1.96214
2.8113
2.69504
2.76698
2.72901
2.73636
2.70167
2.78473
2.78876
2.77865
2.75678
2.70264
1.00646
1.01257
1.02161
1.02789
1.03578
1.0405
1.04708
1.05113
1.06016
1.07327
1.11154
1.19185
1.39394
1.90085
2.80366
2.70354
2.75914
2.71076
2.71888
2.69023
2.74848
2.7624
2.75217
2.73104
2.67227
1.00646
1.01256
1.02162
1.02788
1.03579
1.04048
1.04708
1.05103
1.05981
1.07236
1.10962
1.18674
1.37837
1.86177
2.79648
2.70986
2.74164
2.70324
2.70226
2.67305
2.71887
2.73711
2.71938
2.68582
2.59972
1.00641
1.01261
1.02156
1.02794
1.03574
1.04053
1.04701
1.05092
1.05922
1.07159
1.1065
1.18445
1.35829
1.83862
2.78598
2.72444
2.71415
2.68711
2.68868
2.65726
2.67702
2.70035
2.67834
2.63451
2.50486
1.01422
1.02102
1.02631
1.02897
1.03184
1.03304
1.03508
1.03672
1.04389
1.05511
1.09036
1.17134
1.3732
1.8914
2.8148
2.73888
2.78464
2.74775
2.73947
2.74509
2.76312
2.76719
2.78355
2.85375
2.7571
1.0142
1.02106
1.02627
1.02901
1.0318
1.03308
1.03502
1.03668
1.04333
1.05591
1.08575
1.18028
1.36472
1.90275
2.82332
2.73658
2.79709
2.7636
2.75966
2.77542
2.78787
2.78697
2.80718
2.85275
2.74347
1.01421
1.02103
1.02629
1.02897
1.03183
1.03304
1.03506
1.03669
1.04378
1.05484
1.09003
1.16948
1.37092
1.88559
2.81074
2.73747
2.78405
2.7485
2.74951
2.7664
2.78354
2.78464
2.81688
2.84751
2.74578
1.0142
1.02106
1.02628
1.02901
1.03181
1.03308
1.03502
1.03666
1.04326
1.05549
1.08515
1.17772
1.35905
1.88147
2.81763
2.745
2.78856
2.74829
2.74371
2.75151
2.76978
2.77353
2.81534
2.84027
2.74438
1.0142
1.02106
1.02628
1.02901
1.03181
1.03308
1.03502
1.03665
1.0432
1.0551
1.08459
1.17536
1.35312
1.87204
2.81257
2.7481
2.78638
2.74562
2.73995
2.74618
2.76155
2.7618
2.80781
2.82965
2.74092
1.01419
1.02107
1.02627
1.02902
1.0318
1.03308
1.03501
1.03661
1.04301
1.05461
1.08347
1.17226
1.34433
1.85737
2.8045
2.75331
2.77528
2.74214
2.73505
2.73818
2.74868
2.74645
2.79453
2.82046
2.73304
1.01417
1.02105
1.02628
1.02898
1.03182
1.03304
1.03503
1.03656
1.04324
1.05336
1.08591
1.16252
1.33883
1.82801
2.78283
2.74897
2.75249
2.73204
2.72844
2.73047
2.73815
2.73182
2.76737
2.80137
2.717
1.01417
1.02105
1.02626
1.02899
1.0318
1.03303
1.03501
1.03651
1.04296
1.05269
1.08423
1.15801
1.32693
1.80518
2.76593
2.75289
2.72829
2.70853
2.7126
2.71787
2.72201
2.71257
2.74004
2.77865
2.69319
1.0141
1.02109
1.02621
1.02901
1.03177
1.03305
1.03497
1.03646
1.04262
1.05188
1.08235
1.15222
1.31369
1.77372
2.74015
2.74817
2.71645
2.68358
2.68725
2.69848
2.70347
2.69287
2.70187
2.73634
2.64111
1.01407
1.02112
1.02619
1.02904
1.03175
1.03307
1.03494
1.03635
1.04207
1.05103
1.07907
1.14775
1.29742
1.74617
2.70267
2.73902
2.70629
2.67492
2.66787
2.67011
2.67458
2.66227
2.65775
2.68051
2.55579
0.980353
0.96714
0.956122
0.946347
0.938058
0.930763
0.924549
0.920065
0.91967
0.926169
0.937756
1.0025
1.10947
1.56477
2.46735
2.68134
2.65098
2.62338
2.58859
2.58875
2.59958
2.62827
2.66753
2.72742
2.73524
0.980698
0.966787
0.956482
0.945971
0.938447
0.930345
0.925039
0.91971
0.921303
0.92148
0.945415
0.981394
1.14892
1.55589
2.32563
2.66788
2.63352
2.60766
2.57732
2.58523
2.59243
2.61823
2.65655
2.71815
2.72348
0.980163
0.967335
0.955913
0.946551
0.937858
0.930947
0.92441
0.920192
0.919785
0.925961
0.935168
1.00124
1.10162
1.56761
2.46966
2.68119
2.65056
2.62523
2.59347
2.60596
2.61337
2.63728
2.6754
2.73584
2.74408
0.980699
0.966789
0.956484
0.945974
0.938449
0.930352
0.925032
0.919751
0.921286
0.921716
0.945015
0.982964
1.1444
1.52597
2.30489
2.646
2.62626
2.60125
2.57612
2.58213
2.59596
2.62631
2.66404
2.73138
2.7462
0.980689
0.966806
0.956474
0.94599
0.938434
0.93037
0.925004
0.919804
0.921207
0.922562
0.944405
0.983963
1.13892
1.5023
2.29343
2.63679
2.62432
2.59545
2.57097
2.5751
2.58872
2.62078
2.65665
2.72648
2.74459
0.980688
0.966811
0.956468
0.945998
0.938424
0.930374
0.924993
0.919695
0.920835
0.92136
0.943289
0.979529
1.13261
1.49365
2.26433
2.6105
2.60744
2.58077
2.55478
2.55724
2.57107
2.6028
2.63897
2.71045
2.73661
0.979743
0.967659
0.955682
0.946753
0.937687
0.931145
0.92416
0.920439
0.919444
0.924874
0.93454
0.993489
1.08613
1.51133
2.36302
2.61131
2.60753
2.58131
2.55211
2.55228
2.56451
2.59183
2.6264
2.69351
2.72064
0.979738
0.96774
0.955491
0.946948
0.937449
0.931344
0.92392
0.920834
0.919165
0.924097
0.934789
0.989491
1.07941
1.48125
2.31018
2.59359
2.59606
2.57546
2.54789
2.54794
2.55919
2.58372
2.61616
2.68327
2.69823
0.979069
0.968416
0.954819
0.947645
0.936766
0.932049
0.923306
0.921315
0.918349
0.923528
0.933087
0.985133
1.06825
1.46058
2.26807
2.56324
2.57393
2.55505
2.53269
2.53307
2.54415
2.56695
2.59698
2.66213
2.66246
0.97908
0.968441
0.954803
0.947687
0.936729
0.932099
0.923229
0.921245
0.917697
0.922586
0.930673
0.980344
1.05944
1.42126
2.2114
2.52541
2.55051
2.53336
2.51661
2.51399
2.52208
2.53846
2.56084
2.61304
2.56798
0.980823
0.966679
0.956603
0.945854
0.938566
0.930204
0.925066
0.919124
0.918698
0.919118
0.93484
0.960181
1.08466
1.33653
2.00336
2.48557
2.52406
2.50958
2.49983
2.4977
2.50098
2.51052
2.51105
2.50525
2.42154
0.979447
0.968086
0.955185
0.947315
0.937121
0.931683
0.923589
0.920464
0.916573
0.920592
0.926925
0.969464
1.04128
1.33924
2.053
2.42065
2.48157
2.47504
2.46642
2.46098
2.4611
2.46104
2.45522
2.43293
2.3509
0.980827
0.966659
0.956624
0.945821
0.938606
0.930135
0.925089
0.918728
0.917426
0.917123
0.930131
0.949716
1.05095
1.23146
1.81405
2.35753
2.45937
2.45963
2.45267
2.4418
2.43184
2.42147
2.40198
2.37051
2.29856
0.979705
0.967822
0.955434
0.947053
0.937384
0.931385
0.92385
0.919927
0.915769
0.918348
0.924508
0.954021
1.0173
1.2164
1.79821
2.26069
2.41424
2.42807
2.42413
2.4179
2.40573
2.39421
2.36918
2.33353
2.26642
0.979865
0.967655
0.955604
0.946841
0.937583
0.931203
0.923948
0.919551
0.91517
0.917041
0.921429
0.945304
0.99298
1.14442
1.63332
2.14799
2.36285
2.38009
2.37786
2.36847
2.35953
2.34823
2.33164
2.29793
2.24585
0.980278
0.967232
0.95606
0.946403
0.938047
0.930704
0.924476
0.91898
0.915297
0.914892
0.920148
0.931484
0.980366
1.07011
1.4145
2.07309
2.32074
2.3465
2.34121
2.32668
2.30816
2.29588
2.27593
2.25156
2.20598
0.981194
0.966395
0.956903
0.945635
0.938789
0.930005
0.92513
0.918307
0.915746
0.914131
0.917596
0.926678
0.965339
1.03837
1.31176
1.95661
2.29097
2.33916
2.33234
2.31402
2.2861
2.26482
2.24015
2.21018
2.17271
0.980991
0.966508
0.956798
0.945662
0.938788
0.929947
0.925211
0.918155
0.915701
0.913195
0.915939
0.92415
0.952073
1.02177
1.22038
1.79051
2.20393
2.31776
2.31728
2.30275
2.2804
2.24997
2.22167
2.18605
2.14648
0.980883
0.966614
0.956679
0.945781
0.938658
0.930083
0.925053
0.918272
0.91527
0.912102
0.914343
0.920133
0.940568
0.998062
1.13349
1.61529
2.0591
2.25158
2.27825
2.27697
2.26468
2.23895
2.2121
2.17902
2.13851
0.980261
0.967254
0.956022
0.946459
0.937965
0.930802
0.924296
0.919003
0.914098
0.911258
0.910865
0.916269
0.927043
0.972345
1.05387
1.3689
1.95584
2.18537
2.2254
2.23075
2.22017
2.20523
2.1834
2.16167
2.12897
0.980989
0.966514
0.95675
0.945705
0.938683
0.930051
0.925005
0.918226
0.914755
0.909912
0.91056
0.910797
0.923591
0.94788
1.03045
1.22204
1.68366
2.11553
2.21009
2.21311
2.20498
2.18496
2.15786
2.13049
2.10334
0.979629
0.967892
0.955371
0.947115
0.937306
0.931463
0.923637
0.919621
0.913346
0.911206
0.908369
0.910807
0.916375
0.938243
0.991596
1.12735
1.57182
1.96409
2.14995
2.176
2.17839
2.16737
2.14555
2.11888
2.09163
0.980448
0.967042
0.956235
0.946213
0.938211
0.930515
0.924585
0.918608
0.914303
0.909823
0.90793
0.907653
0.912939
0.927251
0.963524
1.06019
1.33345
1.86275
2.07667
2.12435
2.13262
2.12687
2.11303
2.09295
2.06937
0.980181
0.967328
0.955954
0.946516
0.937918
0.930826
0.924282
0.918913
0.913979
0.909965
0.906968
0.906776
0.909528
0.917517
0.945573
1.00204
1.19322
1.66912
2.00824
2.11013
2.11516
2.10948
2.09259
2.06861
2.04425
0.980791
0.966709
0.95658
0.945871
0.938576
0.930163
0.924911
0.91831
0.914542
0.909319
0.907327
0.905164
0.906925
0.912098
0.929911
0.970595
1.0836
1.4427
1.85264
2.06617
2.0917
2.09063
2.07658
2.05314
2.02519
0.980604
0.966906
0.956366
0.946074
0.938413
0.930331
0.924667
0.918675
0.914111
0.909637
0.906781
0.904146
0.905322
0.907742
0.919549
0.946496
1.0226
1.2163
1.63673
1.98292
2.06323
2.06969
2.06364
2.04532
2.01727
0.980507
0.966991
0.956289
0.946173
0.938256
0.930493
0.924581
0.918629
0.914203
0.909596
0.906454
0.903466
0.903506
0.904455
0.911736
0.92921
0.982382
1.09008
1.42367
1.82076
1.99562
2.02583
2.03683
2.02981
2.01213
0.980384
0.967112
0.956167
0.94629
0.938134
0.930608
0.924479
0.918719
0.914111
0.909676
0.906318
0.903145
0.902012
0.902195
0.906508
0.918211
0.950643
1.01843
1.25449
1.69397
1.91436
1.98498
1.99774
1.99668
1.98806
0.980228
0.967267
0.956016
0.946436
0.938003
0.930726
0.92438
0.918815
0.914013
0.909773
0.906189
0.903026
0.901057
0.900912
0.903223
0.910688
0.929671
0.977315
1.10665
1.47144
1.81145
1.95514
1.97698
1.97642
1.96806
0.98053
0.96698
0.956305
0.946163
0.938266
0.930476
0.924619
0.918575
0.914251
0.909525
0.906407
0.902736
0.900944
0.89985
0.900925
0.90544
0.915428
0.949629
1.01593
1.26056
1.59916
1.87346
1.95033
1.95848
1.95563
0.980483
0.96703
0.956267
0.9462
0.938239
0.930505
0.924592
0.918603
0.914223
0.909556
0.906346
0.902755
0.900562
0.898537
0.899232
0.901113
0.907832
0.927289
0.973592
1.08828
1.38039
1.73495
1.89461
1.92659
1.93181
0.980426
0.967077
0.956205
0.946258
0.938171
0.930569
0.924527
0.918669
0.914153
0.909629
0.90627
0.902803
0.900372
0.898025
0.897665
0.898034
0.902376
0.912656
0.944106
1.00065
1.20704
1.58792
1.80634
1.89187
1.9036
0.980329
0.967171
0.956108
0.946355
0.938074
0.930666
0.924432
0.918763
0.914062
0.909714
0.906195
0.902849
0.900291
0.897809
0.896626
0.896589
0.898809
0.90587
0.921084
0.962698
1.06541
1.36623
1.68334
1.84618
1.88117
0.98051
0.966993
0.956289
0.946179
0.938243
0.930495
0.924607
0.918575
0.914241
0.909552
0.906325
0.902711
0.900437
0.897514
0.896442
0.895544
0.896463
0.900047
0.909228
0.933971
0.993321
1.1609
1.46339
1.74802
1.84861
0.980471
0.967035
0.956245
0.946219
0.938212
0.930525
0.924569
0.918629
0.914183
0.909597
0.9063
0.902738
0.900359
0.8976
0.896032
0.894595
0.895093
0.896712
0.901447
0.916581
0.948652
1.03346
1.2321
1.59805
1.78105
0.980299
0.967207
0.956071
0.946397
0.93803
0.930714
0.924383
0.918816
0.914008
0.909773
0.90613
0.902918
0.900172
0.897768
0.895736
0.894227
0.893862
0.894529
0.896956
0.906101
0.923439
0.973693
1.09608
1.40552
1.68011
0.980299
0.967204
0.956073
0.946392
0.938034
0.930707
0.924389
0.918807
0.914018
0.909759
0.906145
0.902897
0.900195
0.897721
0.89575
0.893934
0.893006
0.892965
0.894436
0.899288
0.908795
0.938397
0.998299
1.20864
1.48334
0.980391
0.967113
0.956165
0.9463
0.938124
0.930617
0.924475
0.918719
0.914101
0.909675
0.906224
0.902818
0.900269
0.897643
0.895805
0.8938
0.892727
0.892161
0.892671
0.895175
0.899765
0.917824
0.95066
1.041
1.26611
0.980402
0.967101
0.956179
0.946287
0.938137
0.930605
0.924484
0.918715
0.9141
0.90968
0.906219
0.902821
0.900268
0.897642
0.895787
0.893791
0.892495
0.891351
0.891639
0.892499
0.895309
0.904739
0.923997
0.972345
1.10744
0.980295
0.967213
0.956065
0.946406
0.93802
0.930725
0.92437
0.918829
0.913995
0.909786
0.906116
0.90293
0.900159
0.897758
0.895677
0.893885
0.892351
0.891156
0.890676
0.890973
0.892341
0.897637
0.906813
0.937283
0.994872
0.980274
0.967255
0.956026
0.946462
0.937968
0.930791
0.92431
0.918892
0.913938
0.90984
0.906065
0.902979
0.900108
0.897803
0.895631
0.893913
0.892298
0.891043
0.890091
0.89006
0.890623
0.893163
0.898181
0.913488
0.949094
0.980361
0.967145
0.956133
0.946333
0.938091
0.93065
0.924443
0.918751
0.914071
0.909706
0.906194
0.902849
0.900236
0.897677
0.895753
0.893796
0.892399
0.890919
0.890004
0.889361
0.889589
0.890775
0.893016
0.902689
0.918903
0.980299
0.96721
0.956068
0.946401
0.938024
0.930721
0.924374
0.918825
0.913999
0.909781
0.90612
0.902926
0.900162
0.897755
0.895678
0.893875
0.892318
0.890987
0.889841
0.889026
0.888817
0.889181
0.89042
0.895244
0.903454
0.980272
0.967232
0.956044
0.94642
0.938002
0.930739
0.924355
0.918845
0.913985
0.909801
0.906111
0.902944
0.900153
0.897769
0.895671
0.893882
0.892316
0.890975
0.889831
0.888857
0.888273
0.888246
0.88885
0.891194
0.895286
0.980359
0.967148
0.956129
0.946338
0.938086
0.930656
0.924439
0.918757
0.914065
0.909712
0.906186
0.902855
0.900229
0.897682
0.895747
0.893801
0.89239
0.890899
0.889891
0.888758
0.888139
0.887685
0.887902
0.888841
0.890974
0.980298
0.967211
0.956068
0.946402
0.938024
0.930721
0.924374
0.918824
0.913999
0.90978
0.90612
0.902925
0.900162
0.897755
0.895678
0.893874
0.892319
0.890973
0.889812
0.888824
0.887971
0.887399
0.887297
0.887635
0.888597
0.980277
0.967226
0.956051
0.946417
0.93801
0.930736
0.924364
0.918837
0.913992
0.909791
0.906115
0.902933
0.900158
0.897758
0.895675
0.893874
0.892318
0.890972
0.889812
0.888815
0.887959
0.887262
0.886851
0.886872
0.887321
0.980333
0.967174
0.956105
0.946362
0.938062
0.930679
0.924414
0.918781
0.914041
0.909736
0.906165
0.90288
0.900208
0.897708
0.895724
0.893825
0.892364
0.890924
0.889858
0.888763
0.888003
0.887172
0.886724
0.886434
0.88661
0.980302
0.967206
0.956072
0.946397
0.938029
0.930713
0.924384
0.918809
0.914019
0.909755
0.906152
0.90289
0.9002
0.897715
0.895715
0.893836
0.892352
0.890936
0.889846
0.888773
0.887985
0.887177
0.886633
0.886172
0.886249
0.980305
0.967204
0.956074
0.946396
0.938028
0.930716
0.924376
0.918821
0.913999
0.909778
0.906119
0.902924
0.90016
0.897754
0.895675
0.893874
0.892316
0.890973
0.889809
0.888814
0.887945
0.887217
0.886576
0.886138
0.88606
1.01389
1.02138
1.02596
1.02933
1.03148
1.03339
1.03457
1.03651
1.03992
1.05223
1.07526
1.13212
1.3066
1.70111
2.59961
2.73678
2.68566
2.67497
2.66034
2.65089
2.64091
2.62283
2.58955
2.57883
2.41017
1.01377
1.02144
1.02588
1.02937
1.03142
1.03341
1.03449
1.03632
1.03955
1.04956
1.07374
1.12048
1.29425
1.63443
2.50621
2.71787
2.68287
2.66781
2.64817
2.63458
2.61996
2.59136
2.54116
2.49831
2.35729
1.01419
1.02108
1.02626
1.02904
1.03176
1.03311
1.03477
1.0359
1.03898
1.04896
1.06896
1.11476
1.26915
1.57672
2.40385
2.67873
2.67835
2.65945
2.6354
2.61247
2.58964
2.55809
2.49646
2.44827
2.34241
1.014
1.02121
1.02612
1.02912
1.03167
1.03315
1.03469
1.03584
1.03853
1.04583
1.06573
1.1005
1.24103
1.49814
2.25023
2.62064
2.67018
2.65291
2.62775
2.60043
2.5742
2.53783
2.46738
2.41343
2.3303
1.01398
1.02124
1.02609
1.02915
1.03165
1.03317
1.0347
1.0358
1.03887
1.04428
1.0597
1.10145
1.18385
1.46238
2.1705
2.54181
2.64338
2.62939
2.6117
2.57552
2.54783
2.51784
2.44864
2.39064
2.31697
1.01368
1.02155
1.02579
1.02948
1.03133
1.03349
1.03433
1.03601
1.0375
1.04392
1.05473
1.08531
1.16683
1.34264
1.89997
2.47161
2.62172
2.61084
2.59622
2.56467
2.5247
2.49682
2.43813
2.37163
2.30881
1.01376
1.02151
1.02585
1.02946
1.03137
1.03348
1.03435
1.0359
1.03708
1.04236
1.05059
1.07703
1.13767
1.27818
1.6703
2.43624
2.57155
2.56643
2.55964
2.54307
2.50685
2.47712
2.42536
2.36098
2.29081
1.014
1.02126
1.02609
1.0292
1.03162
1.0332
1.03461
1.03552
1.03701
1.03987
1.04799
1.06945
1.1089
1.25737
1.55126
2.29151
2.55154
2.5492
2.53014
2.5183
2.4875
2.46301
2.42022
2.3597
2.29108
1.01374
1.02151
1.02584
1.02943
1.03138
1.03343
1.03437
1.03569
1.0365
1.03891
1.04596
1.06253
1.09552
1.21221
1.43207
2.07052
2.48551
2.53778
2.51083
2.49915
2.46991
2.43913
2.40675
2.35778
2.29367
1.01392
1.02132
1.02601
1.02925
1.03154
1.03327
1.0345
1.03552
1.03648
1.03809
1.04465
1.05484
1.08575
1.16232
1.33589
1.83594
2.36428
2.50979
2.5004
2.4831
2.45792
2.42357
2.39599
2.35352
2.30068
1.0139
1.02136
1.02598
1.0293
1.03149
1.03332
1.03443
1.03559
1.03631
1.03798
1.04112
1.0517
1.07156
1.12689
1.2562
1.66007
2.2136
2.45349
2.46781
2.45682
2.43843
2.40302
2.373
2.34389
2.29884
1.01385
1.02137
1.02595
1.02929
1.03148
1.0333
1.03443
1.03555
1.03622
1.03743
1.03971
1.04788
1.06315
1.101
1.21116
1.45649
2.04281
2.39201
2.44652
2.43962
2.4259
2.39688
2.35815
2.32883
2.29354
1.01403
1.02121
1.02612
1.02914
1.03165
1.03315
1.03461
1.03537
1.03639
1.03708
1.03946
1.04385
1.05572
1.08837
1.15339
1.35606
1.9018
2.26808
2.39869
2.40397
2.39744
2.38296
2.35128
2.31545
2.28486
1.01385
1.02138
1.02596
1.0293
1.0315
1.0333
1.03445
1.0355
1.03619
1.03704
1.03811
1.04247
1.04969
1.07128
1.12297
1.23918
1.56311
2.1639
2.34525
2.36986
2.36814
2.35886
2.33914
2.30617
2.27381
1.01382
1.02143
1.02591
1.02937
1.03144
1.03338
1.03437
1.0356
1.03609
1.03707
1.03777
1.04091
1.04578
1.06197
1.09776
1.17613
1.42398
1.98843
2.27311
2.339
2.33847
2.32926
2.31899
2.29627
2.26699
1.01385
1.02139
1.02594
1.02933
1.03148
1.03334
1.0344
1.03559
1.03609
1.03698
1.03757
1.03971
1.04294
1.0553
1.07662
1.13773
1.28316
1.71884
2.15283
2.30575
2.30954
2.30381
2.28861
2.27196
2.24979
1.01387
1.02137
1.02597
1.0293
1.0315
1.03331
1.03443
1.03553
1.03613
1.03692
1.03739
1.0387
1.04096
1.04939
1.06328
1.1057
1.19705
1.47049
1.93953
2.23144
2.28632
2.28531
2.27541
2.25501
2.23121
1.01403
1.02121
1.02612
1.02914
1.03166
1.03315
1.0346
1.03536
1.0363
1.03671
1.03748
1.03803
1.04028
1.04413
1.05614
1.08237
1.14437
1.31124
1.78172
2.10859
2.23212
2.25124
2.25062
2.24147
2.22217
1.01401
1.02123
1.0261
1.02916
1.03164
1.03317
1.03458
1.03537
1.03628
1.03673
1.03739
1.03778
1.03879
1.04259
1.04839
1.06679
1.10845
1.19736
1.46909
1.98209
2.1753
2.21247
2.21763
2.21402
2.20409
1.01392
1.02132
1.02602
1.02926
1.03154
1.03327
1.03449
1.03547
1.03619
1.03682
1.03728
1.03778
1.0384
1.04088
1.04446
1.05768
1.08209
1.14382
1.31339
1.75028
2.08372
2.18857
2.19004
2.18854
2.1783
1.01387
1.02138
1.02596
1.02931
1.03149
1.03332
1.03443
1.03553
1.03613
1.03688
1.03721
1.03781
1.0382
1.03962
1.04187
1.05059
1.06406
1.10914
1.19392
1.49592
1.88395
2.13124
2.17111
2.16866
2.16176
1.01388
1.02136
1.02598
1.02929
1.0315
1.0333
1.03445
1.03551
1.03615
1.03685
1.03723
1.03776
1.03805
1.03883
1.04029
1.04583
1.05458
1.08154
1.1421
1.28791
1.65487
2.00414
2.13064
2.14716
2.14716
1.01395
1.02128
1.02605
1.02922
1.03158
1.03323
1.03452
1.03544
1.03622
1.03678
1.03729
1.03768
1.03804
1.0384
1.03932
1.04289
1.04785
1.06528
1.09971
1.18065
1.41019
1.85642
2.05685
2.1107
2.11657
1.01397
1.02127
1.02607
1.02921
1.03159
1.03321
1.03454
1.03542
1.03624
1.03676
1.03732
1.03764
1.03807
1.03831
1.03884
1.04091
1.04402
1.05485
1.07508
1.12797
1.25997
1.61467
1.94485
2.07519
2.09183
1.01389
1.02135
1.02598
1.02929
1.03151
1.03329
1.03446
1.0355
1.03616
1.03684
1.03724
1.03772
1.03798
1.03837
1.03867
1.0398
1.04161
1.04844
1.05918
1.09416
1.16065
1.38031
1.71872
1.99262
2.06798
1.0139
1.02134
1.026
1.02927
1.03153
1.03328
1.03447
1.03548
1.03617
1.03683
1.03724
1.03772
1.03798
1.03834
1.03855
1.03897
1.04056
1.04335
1.05158
1.06874
1.11227
1.21242
1.5113
1.82819
2.009
1.01394
1.0213
1.02604
1.02923
1.03156
1.03324
1.03451
1.03545
1.03621
1.03679
1.03729
1.03767
1.03802
1.03829
1.03854
1.03879
1.03946
1.0418
1.04556
1.05705
1.08245
1.13824
1.2989
1.67138
1.90564
1.01397
1.02127
1.02606
1.02921
1.03159
1.03322
1.03454
1.03542
1.03623
1.03676
1.03731
1.03765
1.03805
1.03826
1.03857
1.03873
1.03916
1.04004
1.0431
1.04831
1.06304
1.09792
1.17178
1.37969
1.75946
1.01392
1.02132
1.02601
1.02926
1.03154
1.03326
1.03449
1.03547
1.03619
1.03681
1.03727
1.03769
1.038
1.0383
1.03852
1.03874
1.03893
1.03943
1.0413
1.04404
1.05352
1.07096
1.11678
1.22647
1.53587
1.0139
1.02133
1.026
1.02927
1.03153
1.03327
1.03448
1.03548
1.03617
1.03682
1.03725
1.03771
1.03798
1.03832
1.0385
1.03876
1.03889
1.0392
1.03987
1.04234
1.04609
1.05739
1.08411
1.13644
1.30775
1.01395
1.02129
1.02605
1.02922
1.03158
1.03323
1.03452
1.03543
1.03622
1.03677
1.0373
1.03766
1.03803
1.03827
1.03855
1.03871
1.03892
1.03906
1.03942
1.04073
1.04274
1.04978
1.06145
1.0978
1.1664
1.01394
1.0213
1.02604
1.02923
1.03157
1.03324
1.03452
1.03544
1.03621
1.03678
1.0373
1.03766
1.03803
1.03827
1.03855
1.03871
1.03892
1.03902
1.03921
1.03973
1.04139
1.04417
1.05247
1.06967
1.1109
1.0139
1.02133
1.026
1.02927
1.03153
1.03327
1.03448
1.03548
1.03618
1.03682
1.03726
1.0377
1.03799
1.03832
1.0385
1.03875
1.03887
1.03907
1.03917
1.03948
1.04008
1.04231
1.04573
1.05603
1.0797
1.01393
1.0213
1.02603
1.02924
1.03156
1.03325
1.03451
1.03545
1.0362
1.03679
1.03728
1.03768
1.03801
1.03829
1.03853
1.03873
1.03889
1.03904
1.03917
1.0393
1.03962
1.04084
1.04254
1.04891
1.05872
1.01393
1.02131
1.02603
1.02924
1.03156
1.03325
1.03451
1.03545
1.0362
1.03679
1.03728
1.03767
1.03802
1.03828
1.03853
1.03872
1.0389
1.03903
1.03917
1.03927
1.03944
1.04002
1.04094
1.04423
1.04945
1.01391
1.02133
1.02601
1.02926
1.03154
1.03327
1.03448
1.03547
1.03618
1.03681
1.03726
1.0377
1.03799
1.03831
1.03851
1.03875
1.03888
1.03906
1.03914
1.0393
1.03938
1.03965
1.04013
1.04199
1.0446
1.01394
1.0213
1.02604
1.02923
1.03157
1.03324
1.03451
1.03544
1.03621
1.03678
1.03729
1.03767
1.03802
1.03828
1.03854
1.03872
1.03891
1.03903
1.03917
1.03926
1.03938
1.03947
1.03983
1.04043
1.04252
1.01393
1.02131
1.02602
1.02924
1.03155
1.03325
1.0345
1.03545
1.0362
1.03679
1.03728
1.03768
1.03802
1.03829
1.03853
1.03872
1.0389
1.03903
1.03917
1.03926
1.03937
1.03944
1.03957
1.04003
1.04077
1.01392
1.02132
1.02602
1.02925
1.03155
1.03326
1.03449
1.03546
1.03619
1.0368
1.03727
1.03768
1.03801
1.0383
1.03852
1.03873
1.03889
1.03904
1.03916
1.03927
1.03936
1.03944
1.03951
1.03969
1.04032
1.01393
1.02131
1.02603
1.02924
1.03156
1.03325
1.0345
1.03545
1.0362
1.0368
1.03728
1.03768
1.03801
1.03829
1.03852
1.03873
1.03889
1.03905
1.03916
1.03928
1.03935
1.03945
1.0395
1.03962
1.0401
1.00593
1.01309
1.02109
1.02842
1.03524
1.04104
1.04642
1.05139
1.05786
1.07289
1.10232
1.16848
1.36757
1.81869
2.74157
2.7367
2.7089
2.66946
2.66684
2.64299
2.64546
2.66082
2.62935
2.55912
2.35219
1.00589
1.01313
1.02105
1.02846
1.0352
1.04108
1.04636
1.05135
1.05752
1.07196
1.09826
1.16226
1.34158
1.76993
2.65931
2.72584
2.69308
2.66728
2.65238
2.61952
2.60725
2.61248
2.58187
2.50306
2.31154
1.00546
1.01355
1.02064
1.02885
1.03483
1.0414
1.04606
1.05137
1.05656
1.06739
1.09455
1.15999
1.28672
1.71462
2.63964
2.69902
2.68112
2.66343
2.64395
2.60569
2.57602
2.56615
2.53465
2.46586
2.31718
1.00504
1.01402
1.02018
1.02935
1.03434
1.04192
1.04553
1.05184
1.05566
1.06617
1.08929
1.14803
1.25526
1.64587
2.5686
2.66536
2.67768
2.65497
2.63076
2.59101
2.54844
2.52926
2.49758
2.44327
2.32346
1.00609
1.01292
1.02126
1.02824
1.03541
1.04085
1.04652
1.05089
1.05626
1.06481
1.0855
1.12342
1.25626
1.50622
2.32962
2.63793
2.67518
2.65303
2.61829
2.58125
2.52659
2.49501
2.46236
2.42274
2.33647
1.00546
1.01355
1.02063
1.02888
1.03478
1.04147
1.04588
1.05143
1.0555
1.06466
1.07891
1.1179
1.21291
1.4243
2.09939
2.58116
2.66259
2.64242
2.59962
2.57247
2.51849
2.47305
2.4308
2.39797
2.3347
1.00533
1.01369
1.02049
1.02901
1.03465
1.0416
1.04574
1.05148
1.05493
1.06278
1.07393
1.10757
1.17523
1.35089
1.81546
2.5243
2.63322
2.61929
2.5778
2.55066
2.50651
2.45967
2.40902
2.37554
2.3281
1.00557
1.01348
1.0207
1.02884
1.03482
1.04146
1.04585
1.05131
1.05461
1.06082
1.07062
1.09726
1.15942
1.28354
1.68706
2.51005
2.60243
2.58585
2.56993
2.54063
2.49623
2.44936
2.39289
2.35159
2.31436
1.00615
1.01283
1.02135
1.02813
1.03554
1.04069
1.04663
1.05043
1.05529
1.05917
1.068
1.08892
1.14035
1.23696
1.57828
2.4049
2.5463
2.56964
2.55391
2.52074
2.48799
2.44638
2.38738
2.33694
2.2971
1.00604
1.01297
1.0212
1.0283
1.03535
1.04089
1.04644
1.05059
1.05509
1.05901
1.0674
1.08201
1.11866
1.21655
1.42293
2.11921
2.48656
2.56004
2.54277
2.51444
2.47099
2.44025
2.38713
2.33254
2.28505
1.00613
1.01289
1.02128
1.02822
1.03544
1.0408
1.04652
1.05048
1.05508
1.05835
1.06485
1.07612
1.10365
1.17562
1.31866
1.71987
2.42088
2.52545
2.51708
2.50028
2.46178
2.42831
2.38534
2.33301
2.28267
1.00589
1.01312
1.02105
1.02845
1.0352
1.04103
1.04626
1.05073
1.0547
1.05841
1.06301
1.07375
1.09314
1.14168
1.27449
1.56475
2.29353
2.50042
2.49991
2.48425
2.44863
2.41638
2.37995
2.33459
2.28366
1.00596
1.01304
1.02112
1.02837
1.03528
1.04094
1.04635
1.05063
1.05476
1.05813
1.06219
1.0694
1.08578
1.11809
1.22317
1.42318
2.0289
2.42316
2.48468
2.47129
2.44484
2.40273
2.37258
2.33356
2.28768
1.00592
1.0131
1.02108
1.02843
1.03522
1.04101
1.04628
1.05069
1.05467
1.05803
1.06152
1.06627