/*--------------------------------*- C++ -*----------------------------------*\
  =========                 |
  \\      /  F ield         | OpenFOAM: The Open Source CFD Toolbox
   \\    /   O peration     | Website:  https://openfoam.org
    \\  /    A nd           | Version:  6
     \\/     M anipulation  |
\*---------------------------------------------------------------------------*/
FoamFile
{
    version     2.0;
    format      ascii;
    class       volVectorField;
    location    "2";
    object      U;
}
// * * * * * * * * * * * * * * * * * * * * * * * * * * * * * * * * * * * * * //

dimensions      [0 1 -1 0 0 0 0];

internalField   nonuniform List<vector> 
26250
(
(3.01561 2.09795e-07 -0.057973)
(3.02576 3.60987e-07 -0.0597656)
(3.03428 2.05674e-07 -0.0611302)
(3.04139 6.30932e-07 -0.0622698)
(3.04763 -3.31772e-07 -0.0631589)
(3.0527 5.81372e-07 -0.0640184)
(3.05732 -1.02625e-06 -0.0645797)
(3.06006 1.90126e-06 -0.0654266)
(3.05891 5.4743e-06 -0.0659755)
(3.05673 2.85741e-05 -0.0674911)
(3.03891 5.60421e-05 -0.0699058)
(3.00615 0.000224692 -0.0774472)
(2.87346 0.000481362 -0.0914731)
(2.50233 0.00195034 -0.134821)
(1.58771 0.00491586 -0.230969)
(0.754222 0.0165436 -0.276055)
(0.827134 0.0198533 -0.259387)
(0.937537 0.0179696 -0.249969)
(1.0069 0.0196856 -0.253892)
(0.988867 0.0249407 -0.259145)
(0.974273 0.0251681 -0.259956)
(0.923513 0.02101 -0.262809)
(0.792299 0.0146815 -0.266825)
(0.524061 0.0100312 -0.268947)
(0.283382 -1.43497e-05 -0.263094)
(3.01561 1.82943e-06 -0.0579733)
(3.02576 4.06791e-07 -0.0597652)
(3.03428 1.17999e-06 -0.0611305)
(3.04139 3.6264e-07 -0.0622694)
(3.04763 -1.02612e-06 -0.0631592)
(3.0527 9.65698e-07 -0.064018)
(3.05732 -3.75051e-06 -0.0645799)
(3.06006 9.76252e-06 -0.065426)
(3.05893 2.61794e-05 -0.0659737)
(3.05677 0.00011655 -0.0674847)
(3.03907 0.000239009 -0.0698881)
(3.00651 0.000716247 -0.0774059)
(2.87476 0.00152889 -0.0913778)
(2.50644 0.00465917 -0.134482)
(1.60324 0.0118175 -0.230285)
(0.799725 0.0309797 -0.273509)
(0.852805 0.040659 -0.257653)
(0.957304 0.0435033 -0.246998)
(1.02845 0.048755 -0.251269)
(1.02676 0.0554844 -0.254768)
(1.00097 0.0572948 -0.257092)
(0.945491 0.0521865 -0.260358)
(0.821063 0.0430538 -0.263189)
(0.569075 0.0356859 -0.265714)
(0.339829 0.0228167 -0.260451)
(3.01561 7.86289e-06 -0.057974)
(3.02576 -3.73443e-06 -0.0597643)
(3.03428 5.05514e-06 -0.0611314)
(3.04139 -8.8149e-06 -0.0622684)
(3.04763 3.64074e-06 -0.0631601)
(3.0527 -1.13148e-05 -0.0640171)
(3.05733 1.67273e-06 -0.06458)
(3.06008 9.98582e-06 -0.0654241)
(3.059 2.2086e-05 -0.0659691)
(3.0569 0.000332649 -0.067471)
(3.03939 0.000738155 -0.0698573)
(3.00723 0.00181901 -0.0773183)
(2.87638 0.00367157 -0.091167)
(2.51099 0.00821571 -0.134122)
(1.61045 0.0190706 -0.229541)
(0.785628 0.0493579 -0.274104)
(0.840661 0.0666482 -0.257793)
(0.947761 0.0743341 -0.246751)
(1.02004 0.0793897 -0.250861)
(1.02255 0.0831453 -0.254195)
(0.991055 0.0871682 -0.256682)
(0.928512 0.0879319 -0.259556)
(0.806472 0.0841346 -0.261561)
(0.560063 0.0792621 -0.26362)
(0.331138 0.0698075 -0.258264)
(3.01561 1.50559e-05 -0.0579787)
(3.02576 -1.15265e-05 -0.0597589)
(3.03427 1.48464e-05 -0.0611369)
(3.04139 -2.73045e-05 -0.0622621)
(3.04763 3.10164e-05 -0.0631667)
(3.0527 -6.19055e-05 -0.0640092)
(3.05734 8.61605e-05 -0.0645868)
(3.06008 -0.000156099 -0.0654134)
(3.0592 0.000215594 -0.0659572)
(3.05736 0.00145746 -0.067467)
(3.04027 -0.00190078 -0.0697112)
(3.00909 0.0100765 -0.0772139)
(2.87927 -0.00900442 -0.0905614)
(2.5248 0.0412187 -0.133461)
(1.63239 0.0292261 -0.22851)
(0.839978 0.0818768 -0.271388)
(0.872754 0.105367 -0.25594)
(0.96706 0.11593 -0.244143)
(1.0334 0.120135 -0.248972)
(1.02611 0.124293 -0.25305)
(0.995197 0.129379 -0.254835)
(0.929267 0.134171 -0.257635)
(0.80297 0.135053 -0.259305)
(0.551995 0.132978 -0.26094)
(0.31879 0.121504 -0.255857)
(3.01561 -1.71459e-05 -0.0579949)
(3.02576 2.27916e-06 -0.0597403)
(3.03426 -1.457e-06 -0.0611563)
(3.0414 -4.51631e-06 -0.06224)
(3.04761 1.42164e-05 -0.0631916)
(3.05275 -2.10228e-05 -0.063977)
(3.05725 3.74825e-05 -0.0646296)
(3.06019 -4.56015e-05 -0.0653408)
(3.06033 6.58847e-05 -0.0660619)
(3.05512 0.000489189 -0.0674113)
(3.04612 0.00103486 -0.0692223)
(3.00152 0.00263378 -0.0776164)
(2.89297 0.00582006 -0.0888568)
(2.56124 0.0132353 -0.135287)
(1.65005 0.0351083 -0.217524)
(0.886495 0.0894519 -0.26703)
(0.903395 0.123947 -0.252973)
(0.988513 0.14089 -0.240806)
(1.04787 0.152314 -0.245245)
(1.04071 0.163621 -0.249075)
(1.00985 0.173784 -0.250798)
(0.944698 0.182233 -0.253641)
(0.814002 0.187282 -0.255113)
(0.557319 0.190002 -0.256304)
(0.317906 0.177267 -0.251544)
(3.01561 -1.12716e-06 -0.0579357)
(3.02578 -6.17398e-06 -0.059805)
(3.03427 1.45267e-07 -0.0610909)
(3.0414 -1.02148e-05 -0.0623089)
(3.04762 7.85236e-06 -0.0631211)
(3.05272 -1.42748e-05 -0.0640528)
(3.05732 2.49743e-05 -0.0645461)
(3.0601 -5.258e-06 -0.0654455)
(3.05964 0.000139195 -0.0658944)
(3.05816 0.000328175 -0.0674549)
(3.04201 0.000907866 -0.069437)
(3.01306 0.00186287 -0.076895)
(2.88711 0.00559186 -0.0889859)
(2.55434 0.0150742 -0.131797)
(1.69653 0.0431488 -0.222959)
(0.923797 0.114735 -0.26714)
(0.927792 0.153394 -0.252096)
(1.00445 0.172981 -0.238999)
(1.0629 0.188849 -0.243098)
(1.05737 0.20485 -0.246399)
(1.02519 0.219656 -0.247873)
(0.95957 0.23222 -0.250103)
(0.828559 0.242486 -0.251004)
(0.567401 0.252761 -0.251588)
(0.32103 0.242969 -0.246601)
(3.0156 -1.69715e-05 -0.0579985)
(3.02576 2.6638e-07 -0.059736)
(3.03426 -6.75087e-06 -0.0611607)
(3.04141 2.58749e-06 -0.0622349)
(3.0476 6.75316e-06 -0.0631973)
(3.05276 -8.8186e-07 -0.0639697)
(3.05726 2.99842e-05 -0.0646375)
(3.06028 -1.90338e-05 -0.0653231)
(3.06061 0.000128535 -0.0660468)
(3.05576 0.0003058 -0.0673333)
(3.04737 0.000564929 -0.0690575)
(3.0054 0.00215338 -0.0771067)
(2.90376 0.00556596 -0.0874021)
(2.59049 0.017538 -0.132704)
(1.73657 0.0567419 -0.209431)
(0.983391 0.145196 -0.2625)
(0.963431 0.183794 -0.248682)
(1.03019 0.208142 -0.235827)
(1.08303 0.2264 -0.239785)
(1.0783 0.244689 -0.242734)
(1.04517 0.263431 -0.244187)
(0.980854 0.28115 -0.2457)
(0.850985 0.300122 -0.245854)
(0.58617 0.322646 -0.245734)
(0.331366 0.32559 -0.240474)
(3.01561 -5.11398e-05 -0.0579193)
(3.02579 1.96335e-05 -0.0598237)
(3.03427 -1.97193e-05 -0.0610728)
(3.04141 3.34613e-05 -0.0623286)
(3.04762 -6.76685e-06 -0.0631024)
(3.05274 4.70494e-05 -0.0640715)
(3.0573 -1.93347e-05 -0.0645298)
(3.06019 9.05606e-05 -0.0654522)
(3.05991 -8.32322e-05 -0.0658976)
(3.05852 -0.000563917 -0.0673088)
(3.04354 0.00348975 -0.0692456)
(3.01711 -0.00431924 -0.0763521)
(2.90044 0.0204072 -0.0870885)
(2.59461 -0.00568872 -0.129068)
(1.81118 0.0661901 -0.213857)
(1.02772 0.167363 -0.262344)
(0.996474 0.209835 -0.246438)
(1.05653 0.238357 -0.2337)
(1.10492 0.258766 -0.237014)
(1.09989 0.280909 -0.239535)
(1.06768 0.304592 -0.2407)
(1.00648 0.329498 -0.241348)
(0.881705 0.360568 -0.240651)
(0.616987 0.401819 -0.239334)
(0.354564 0.436096 -0.23254)
(3.01561 2.5609e-06 -0.0579129)
(3.02579 -2.38736e-06 -0.0598323)
(3.03427 7.83205e-06 -0.0610649)
(3.04142 -1.04292e-05 -0.0623383)
(3.04761 2.07605e-05 -0.0630934)
(3.05275 -3.03207e-05 -0.0640813)
(3.05729 6.02402e-05 -0.0645202)
(3.06023 -5.47869e-05 -0.0654547)
(3.06007 0.00029928 -0.0658837)
(3.05874 0.000757288 -0.067229)
(3.04453 0.00134127 -0.0691984)
(3.01946 0.00393326 -0.0758724)
(2.90976 0.00808796 -0.086388)
(2.61809 0.0296949 -0.12633)
(1.8885 0.0740897 -0.208257)
(1.0917 0.2002 -0.259236)
(1.03822 0.246599 -0.242983)
(1.0881 0.276989 -0.230966)
(1.13073 0.29472 -0.233582)
(1.12578 0.318848 -0.235783)
(1.09676 0.345867 -0.236382)
(1.04133 0.378356 -0.236091)
(0.926891 0.424543 -0.234345)
(0.672993 0.495991 -0.231712)
(0.402202 0.594269 -0.222128)
(3.01561 5.91308e-05 -0.0579166)
(3.02579 -2.56661e-05 -0.0598271)
(3.03426 3.35262e-05 -0.0610704)
(3.04142 -5.1469e-05 -0.0623305)
(3.0476 3.53669e-05 -0.0631032)
(3.05277 -8.499e-05 -0.0640671)
(3.05728 8.75874e-05 -0.0645387)
(3.06038 -9.88418e-05 -0.0654183)
(3.06058 0.000502956 -0.0658816)
(3.05937 0.00149292 -0.0671716)
(3.04611 -0.000451844 -0.0689333)
(3.02278 0.0110239 -0.0754278)
(2.92032 -0.00272202 -0.085079)
(2.65195 0.0605876 -0.123188)
(1.95453 0.0752032 -0.202288)
(1.17983 0.217614 -0.254425)
(1.10364 0.273793 -0.238141)
(1.13569 0.311271 -0.228231)
(1.16838 0.329634 -0.229607)
(1.16339 0.355748 -0.231611)
(1.13784 0.387174 -0.231573)
(1.09177 0.427984 -0.23021)
(0.998221 0.49329 -0.226787)
(0.781913 0.613295 -0.220986)
(0.503091 0.854149 -0.20564)
(2.98855 -4.09152e-08 -0.00143332)
(2.98291 4.68718e-07 -0.00328679)
(2.97954 1.19934e-07 -0.00492974)
(2.97738 9.0016e-07 -0.00644598)
(2.97597 -1.64232e-07 -0.00768045)
(2.975 9.25226e-07 -0.0088995)
(2.97419 -2.41482e-07 -0.00973456)
(2.97281 1.43222e-06 -0.0108164)
(2.96818 8.56687e-06 -0.0112594)
(2.95907 2.9575e-05 -0.0120946)
(2.92989 8.20473e-05 -0.0135443)
(2.86567 0.000219755 -0.0162203)
(2.68016 0.00058307 -0.0226986)
(2.09959 0.00171369 -0.0339767)
(0.710712 0.00501608 -0.063394)
(-0.300675 0.0255137 -0.0644423)
(0.0774629 0.0306603 -0.0614625)
(0.427975 0.0362168 -0.0586328)
(0.486462 0.0469273 -0.0609322)
(0.373272 0.0664694 -0.0612438)
(0.361364 0.0653097 -0.063026)
(0.277215 0.0511134 -0.0637399)
(0.0982939 0.0441971 -0.0643403)
(0.0064452 0.042374 -0.060841)
(0.172563 0.0158361 -0.0535693)
(2.98855 1.19238e-06 -0.00143326)
(2.98291 9.17958e-07 -0.00328689)
(2.97954 1.18942e-06 -0.00492961)
(2.97738 1.36307e-06 -0.00644616)
(2.97597 4.44843e-08 -0.00768027)
(2.975 1.46803e-06 -0.00889951)
(2.97419 -4.51829e-07 -0.00973469)
(2.97282 6.9468e-06 -0.0108157)
(2.9682 3.00012e-05 -0.0112611)
(2.95913 0.000107932 -0.0120864)
(2.93004 0.000244205 -0.0135683)
(2.8661 0.000764466 -0.0161823)
(2.68128 0.00174521 -0.0227748)
(2.10366 0.00521211 -0.033965)
(0.731012 0.014325 -0.0635563)
(-0.223854 0.042065 -0.0650979)
(0.116856 0.0617185 -0.0608143)
(0.451807 0.0788921 -0.0577292)
(0.513649 0.0964282 -0.0602949)
(0.437426 0.124782 -0.0617547)
(0.375965 0.121394 -0.0623123)
(0.272348 0.107485 -0.0623358)
(0.101954 0.102942 -0.0629822)
(0.00516003 0.108127 -0.0600051)
(0.201835 0.0640681 -0.052762)
(2.98855 5.09102e-06 -0.00143348)
(2.98291 -4.78132e-07 -0.00328667)
(2.97954 3.90398e-06 -0.00492974)
(2.97738 -2.38652e-06 -0.00644594)
(2.97597 1.481e-06 -0.00768023)
(2.975 -2.36053e-06 -0.00889981)
(2.97419 -6.44393e-07 -0.00973377)
(2.97283 1.65815e-05 -0.0108178)
(2.96826 5.94067e-05 -0.0112581)
(2.95925 0.000207536 -0.0120977)
(2.93042 0.000457543 -0.0135377)
(2.86696 0.00137541 -0.016221)
(2.68358 0.00323672 -0.0226711)
(2.11021 0.00848932 -0.033863)
(0.738562 0.0245476 -0.0633992)
(-0.26432 0.0672674 -0.0645106)
(0.110746 0.102201 -0.0606921)
(0.452659 0.127785 -0.0573602)
(0.514911 0.143634 -0.0600955)
(0.454335 0.156708 -0.0617991)
(0.386477 0.170178 -0.0617246)
(0.276553 0.176471 -0.0608911)
(0.105094 0.181229 -0.0611805)
(0.000536919 0.187639 -0.0584898)
(0.192155 0.131399 -0.0514481)
(2.98855 9.44225e-06 -0.00143442)
(2.98291 -3.5988e-06 -0.00328505)
(2.97953 9.19194e-06 -0.00493098)
(2.97737 -9.63762e-06 -0.00644398)
(2.97597 1.12726e-05 -0.00768248)
(2.975 -1.55884e-05 -0.00889698)
(2.9742 1.78648e-05 -0.00973668)
(2.97287 1.24427e-05 -0.0108161)
(2.96836 0.000146243 -0.0112569)
(2.95945 0.000222933 -0.0121111)
(2.93097 0.00168213 -0.0135893)
(2.86839 0.00141524 -0.0162024)
(2.68673 0.00738659 -0.0227737)
(2.11967 0.0118762 -0.0337135)
(0.774003 0.0334472 -0.0632984)
(-0.186295 0.10185 -0.065074)
(0.1455 0.146057 -0.0601841)
(0.463798 0.177439 -0.0564692)
(0.510128 0.19615 -0.0593477)
(0.424276 0.21375 -0.0608616)
(0.382471 0.233241 -0.060959)
(0.276789 0.251876 -0.0596608)
(0.112809 0.265309 -0.059501)
(-0.00237031 0.270472 -0.0567232)
(0.177056 0.203474 -0.049791)
(2.98855 -2.4968e-06 -0.00143592)
(2.98291 -3.4997e-06 -0.00328228)
(2.97953 -1.24718e-07 -0.0049341)
(2.97738 -6.29804e-06 -0.00643914)
(2.97597 3.46959e-06 -0.00769027)
(2.97501 -8.31184e-06 -0.00888382)
(2.97421 8.33943e-06 -0.00975873)
(2.97295 8.42048e-06 -0.0107756)
(2.96843 7.08914e-05 -0.0113098)
(2.96046 0.000312775 -0.0122306)
(2.93162 0.000898514 -0.0130974)
(2.87093 0.00232033 -0.0174411)
(2.69127 0.00683029 -0.0202441)
(2.12511 0.0152448 -0.0372982)
(0.774669 0.0511851 -0.0614028)
(-0.165561 0.126403 -0.0655373)
(0.163052 0.18508 -0.0599654)
(0.471185 0.224883 -0.0558904)
(0.510122 0.254141 -0.0585415)
(0.43381 0.283476 -0.0601855)
(0.387477 0.304805 -0.06001)
(0.284186 0.328483 -0.0584866)
(0.129622 0.3481 -0.0576942)
(0.00104418 0.355117 -0.0547109)
(0.166645 0.279933 -0.0477431)
(2.98855 7.45558e-07 -0.00143097)
(2.98291 -3.85662e-06 -0.00328891)
(2.97953 3.69753e-07 -0.00493014)
(2.97738 -6.85704e-06 -0.00644362)
(2.97597 2.95567e-06 -0.00768554)
(2.97501 -7.04257e-06 -0.0088908)
(2.97422 9.57261e-06 -0.00974561)
(2.97292 1.13654e-05 -0.0108001)
(2.96861 8.11939e-05 -0.0112633)
(2.96013 0.00040146 -0.0121176)
(2.93258 0.00100758 -0.0135988)
(2.87334 0.00306724 -0.0161086)
(2.69669 0.00854262 -0.0226495)
(2.15239 0.0198889 -0.0328459)
(0.863781 0.0663967 -0.0621825)
(-0.109349 0.162664 -0.0646159)
(0.193512 0.227936 -0.0593676)
(0.484378 0.272993 -0.0550524)
(0.51646 0.311067 -0.0577403)
(0.444506 0.351897 -0.0595077)
(0.392498 0.376382 -0.0590358)
(0.295968 0.404462 -0.0571505)
(0.155116 0.431748 -0.0558637)
(0.0136767 0.445469 -0.0525307)
(0.159323 0.367992 -0.0452756)
(2.98855 -7.06395e-06 -0.0014363)
(2.98291 -3.42086e-06 -0.00328085)
(2.97953 -4.81656e-06 -0.00493576)
(2.97738 -3.28832e-06 -0.00643678)
(2.97597 1.70296e-06 -0.00769359)
(2.97502 -2.21602e-06 -0.00887961)
(2.97422 1.3246e-05 -0.00976431)
(2.97301 1.40649e-05 -0.0107675)
(2.96875 0.000103467 -0.0113146)
(2.96124 0.000446069 -0.0121945)
(2.93377 0.00138847 -0.0130652)
(2.87746 0.00338311 -0.0171668)
(2.70464 0.010949 -0.0199202)
(2.17264 0.0241981 -0.035989)
(0.901513 0.084672 -0.0599232)
(-0.0456651 0.202355 -0.0652275)
(0.227586 0.273673 -0.0588839)
(0.498794 0.321802 -0.054379)
(0.526447 0.365472 -0.0569026)
(0.460176 0.413149 -0.0586867)
(0.403649 0.445133 -0.0580558)
(0.315186 0.481157 -0.0558315)
(0.19106 0.518797 -0.0537104)
(0.0401457 0.543403 -0.0499192)
(0.154266 0.476446 -0.0422525)
(2.98855 -2.0536e-05 -0.00142847)
(2.98292 8.29602e-08 -0.00329147)
(2.97953 -1.31122e-05 -0.00492937)
(2.97738 7.05336e-06 -0.00644465)
(2.97597 -4.97188e-06 -0.00768618)
(2.97502 1.31099e-05 -0.00888908)
(2.97423 3.53256e-06 -0.00974955)
(2.973 2.44602e-05 -0.0107873)
(2.96897 5.99127e-05 -0.0112679)
(2.96121 0.000576318 -0.0120596)
(2.93501 0.000644724 -0.0135153)
(2.88164 0.00449604 -0.0157799)
(2.71302 0.00985245 -0.0222052)
(2.21129 0.0307653 -0.031247)
(1.02184 0.100381 -0.060864)
(0.0460311 0.238857 -0.0648864)
(0.273671 0.318452 -0.0579377)
(0.517725 0.368899 -0.0534623)
(0.540433 0.416613 -0.0559457)
(0.479772 0.469441 -0.0575077)
(0.42318 0.512247 -0.0567518)
(0.344953 0.55856 -0.0543499)
(0.238619 0.609942 -0.0516646)
(0.0842346 0.652441 -0.0472258)
(0.157979 0.614156 -0.038817)
(2.98855 7.19398e-07 -0.00142682)
(2.98292 2.35705e-06 -0.00329356)
(2.97954 8.26007e-07 -0.0049288)
(2.97739 3.82619e-06 -0.00644564)
(2.97598 1.53955e-06 -0.00768617)
(2.97502 4.36385e-06 -0.00888851)
(2.97424 1.1276e-05 -0.00975095)
(2.97305 3.73e-05 -0.0107811)
(2.96922 0.000201552 -0.0112667)
(2.96178 0.000741397 -0.0120328)
(2.93676 0.00193839 -0.013431)
(2.88615 0.00530053 -0.0156746)
(2.72508 0.0134194 -0.0216416)
(2.25246 0.0372169 -0.0310041)
(1.12795 0.105391 -0.0599479)
(0.150897 0.272707 -0.0648081)
(0.326819 0.368198 -0.0569306)
(0.538687 0.413727 -0.0524017)
(0.558026 0.46394 -0.0546363)
(0.504372 0.522067 -0.0561112)
(0.452343 0.576475 -0.0553436)
(0.387385 0.634701 -0.0526898)
(0.30238 0.703786 -0.0493345)
(0.155594 0.777189 -0.0440519)
(0.178423 0.796334 -0.0348673)
(2.98855 2.57972e-05 -0.00142918)
(2.98292 6.28161e-06 -0.00328941)
(2.97953 1.06063e-05 -0.00493272)
(2.97738 9.56398e-06 -0.00643881)
(2.97597 -1.27088e-05 -0.00769497)
(2.97503 2.99425e-05 -0.00887558)
(2.97425 -4.74431e-05 -0.00976764)
(2.97316 0.000169393 -0.0107596)
(2.96955 0.000137497 -0.0112822)
(2.96265 0.00177278 -0.012054)
(2.93872 5.46597e-05 -0.0133176)
(2.89161 0.0127058 -0.0157229)
(2.73741 0.00249457 -0.020893)
(2.29564 0.0636387 -0.0312492)
(1.22606 0.102391 -0.0586208)
(0.268386 0.305583 -0.0646123)
(0.381129 0.420031 -0.0560407)
(0.550083 0.457678 -0.0516621)
(0.577237 0.5073 -0.0532592)
(0.533903 0.570015 -0.0544748)
(0.490823 0.635436 -0.0536493)
(0.44365 0.708126 -0.0509005)
(0.388237 0.798948 -0.0470951)
(0.269765 0.917336 -0.0412409)
(0.230975 1.08206 -0.0311252)
(2.9951 5.14326e-07 1.12768e-06)
(2.98906 1.47816e-07 -8.95485e-07)
(2.98253 6.38745e-07 1.0031e-06)
(2.97637 2.29311e-07 -9.22084e-07)
(2.97073 1.41265e-07 7.38603e-07)
(2.96583 1.05819e-06 -5.08934e-07)
(2.96118 -1.16026e-06 2.60981e-07)
(2.95673 4.97056e-06 1.29475e-06)
(2.94971 -6.97023e-07 3.33964e-06)
(2.93723 6.34053e-05 8.00081e-06)
(2.90176 -3.35797e-05 9.972e-06)
(2.82523 0.000344475 3.05028e-05)
(2.61287 0.000137382 1.30352e-05)
(1.93669 0.000989224 2.64375e-05)
(0.34666 0.00266089 -2.80235e-05)
(-0.729057 0.0135477 0.000642962)
(-0.0697432 0.0257139 -5.82169e-05)
(0.310525 0.0372909 5.53907e-05)
(0.377812 0.0416929 0.000480154)
(0.259102 0.040509 0.00117397)
(-0.116692 0.0654244 3.63063e-05)
(-0.111502 0.0719957 -0.000482584)
(-0.149631 0.0753466 -0.000516573)
(-0.0876173 0.0741421 -0.000130364)
(0.116555 0.056446 -0.000493792)
(2.9951 1.04609e-06 2.17436e-06)
(2.98906 2.92201e-07 -2.42713e-06)
(2.98253 1.02304e-06 2.55926e-06)
(2.97637 5.98029e-07 -3.21156e-06)
(2.97073 2.48366e-07 3.61653e-06)
(2.96583 7.24059e-07 -4.27466e-06)
(2.96118 1.64205e-07 5.02535e-06)
(2.95673 4.58146e-06 -2.95102e-07)
(2.94976 2.58645e-05 1.90142e-05)
(2.93721 8.91735e-05 -1.77155e-05)
(2.90196 0.00023368 0.000203745)
(2.82542 0.000648436 -0.000211271)
(2.61352 0.00156131 0.000395807)
(1.93775 0.00451082 -0.000285731)
(0.355505 0.0134401 -0.000760629)
(-0.71538 0.0398046 -0.000493867)
(-0.0554556 0.0713306 0.000245482)
(0.318856 0.0957684 0.000135701)
(0.370077 0.100682 -0.000109045)
(0.230763 0.0959018 -0.000592088)
(-0.153316 0.128633 5.91763e-05)
(-0.137154 0.146801 0.000197359)
(-0.169554 0.157407 -0.00015513)
(-0.104672 0.161172 -8.99069e-05)
(0.111426 0.136703 -0.000329501)
(2.9951 2.18587e-06 1.36951e-06)
(2.98906 1.37641e-07 -1.45733e-06)
(2.98253 1.7876e-06 1.71797e-06)
(2.97637 -2.23595e-07 -1.96022e-06)
(2.97073 -1.47765e-07 1.9817e-06)
(2.96583 -4.0877e-07 -1.88948e-06)
(2.96118 -4.09475e-07 1.19293e-06)
(2.95676 6.8512e-06 1.60283e-06)
(2.94978 4.21348e-05 2.66309e-06)
(2.9374 0.000166873 7.58599e-06)
(2.90221 0.000411034 6.80032e-07)
(2.82638 0.00124145 3.16968e-05)
(2.61584 0.00293382 -3.74702e-05)
(1.94667 0.00868284 -6.4734e-05)
(0.372097 0.0263636 -0.000296245)
(-0.695502 0.0680403 0.000268482)
(-0.0403573 0.118099 6.21533e-05)
(0.326287 0.156537 1.13914e-05)
(0.358852 0.16934 -0.00036871)
(0.212637 0.167377 -0.000901884)
(-0.165476 0.211647 7.57655e-05)
(-0.132443 0.235409 0.000419496)
(-0.171151 0.251701 0.000145128)
(-0.114024 0.25903 7.08933e-06)
(0.096875 0.228685 -8.21512e-05)
(2.9951 2.94381e-06 2.13164e-06)
(2.98906 -4.26027e-07 -2.47072e-06)
(2.98253 2.35378e-06 2.7677e-06)
(2.97637 -1.86264e-06 -3.57112e-06)
(2.97073 -5.54147e-07 4.12378e-06)
(2.96583 -6.18709e-07 -5.26115e-06)
(2.96119 -2.44356e-06 5.90045e-06)
(2.95677 1.6395e-05 -3.96391e-06)
(2.94989 4.42238e-05 1.35022e-05)
(2.93752 0.000332164 -2.47945e-05)
(2.90284 0.000423097 0.00018823)
(2.82764 0.00226528 -0.000247424)
(2.6193 0.00402344 0.000365125)
(1.95786 0.0131962 -0.0003464)
(0.403275 0.0402342 -0.000839549)
(-0.65729 0.103811 -0.000213781)
(-0.0206502 0.167545 0.000121889)
(0.335873 0.215925 0.000109164)
(0.348399 0.239532 -2.64192e-05)
(0.213717 0.243657 9.54778e-05)
(-0.15895 0.300048 0.000117565)
(-0.113693 0.323772 0.000229149)
(-0.161792 0.344748 0.000179904)
(-0.117147 0.354559 8.21893e-05)
(0.0844598 0.319426 9.35012e-05)
(2.9951 2.45636e-07 1.48884e-06)
(2.98906 -8.95233e-07 -1.59585e-06)
(2.98253 -4.40533e-07 1.45811e-06)
(2.97637 -2.03064e-06 -2.02909e-06)
(2.97073 -1.08233e-06 1.66907e-06)
(2.96583 -1.24089e-06 -1.98332e-06)
(2.9612 1.99404e-06 1.04837e-06)
(2.95679 1.66279e-05 -9.62724e-07)
(2.95004 8.47224e-05 -4.03928e-06)
(2.93774 0.000375327 -3.6905e-06)
(2.90374 0.000848822 -2.07637e-05)
(2.82967 0.00281842 -2.54542e-05)
(2.62485 0.00652261 -9.4915e-05)
(1.97681 0.0198779 -6.43327e-05)
(0.454439 0.0604929 -0.000466449)
(-0.598146 0.14625 -0.000279938)
(0.0057376 0.219598 0.000119007)
(0.347248 0.274227 0.000151092)
(0.342772 0.30744 7.16171e-05)
(0.228968 0.32037 8.29754e-05)
(-0.14117 0.384271 5.82805e-05)
(-0.0908359 0.408979 5.26916e-05)
(-0.14422 0.435974 0.000176859)
(-0.114811 0.449438 0.000121257)
(0.0754038 0.411005 0.000196277)
(2.9951 -3.09804e-06 2.15426e-06)
(2.98906 -7.66298e-07 -2.22909e-06)
(2.98253 -3.24179e-06 1.87021e-06)
(2.97637 -1.15415e-06 -2.48621e-06)
(2.97073 -1.17207e-06 2.45955e-06)
(2.96584 -9.08534e-08 -3.34933e-06)
(2.96121 6.36407e-06 4.12398e-06)
(2.95684 2.13276e-05 -3.34207e-06)
(2.95019 0.00011334 1.14328e-05)
(2.93817 0.000485821 -2.37205e-05)
(2.90484 0.00115473 0.000164029)
(2.83267 0.00372355 -0.000219593)
(2.63278 0.00891309 0.000330291)
(2.00568 0.0272543 -0.000267924)
(0.51733 0.0812156 -0.000591986)
(-0.530851 0.187085 0.000248687)
(0.034953 0.270875 6.48597e-05)
(0.359823 0.331118 5.23153e-05)
(0.342135 0.372884 3.27899e-05)
(0.241762 0.39679 3.49041e-05)
(-0.0990535 0.461904 -4.68953e-06)
(-0.0614051 0.493846 -4.85145e-06)
(-0.117251 0.529348 0.000186629)
(-0.106237 0.54969 0.000149645)
(0.0705357 0.511788 0.000252084)
(2.9951 -4.7685e-06 -2.43177e-06)
(2.98906 -9.95702e-07 3.29989e-06)
(2.98253 -4.31991e-06 -2.89729e-06)
(2.97637 -8.14696e-07 4.41425e-06)
(2.97073 -2.59342e-07 -4.88461e-06)
(2.96584 1.54788e-06 6.45931e-06)
(2.96122 9.36208e-06 -7.51181e-06)
(2.95689 2.96222e-05 4.89769e-06)
(2.95043 0.000133731 -1.38061e-05)
(2.93862 0.000629419 1.16052e-05)
(2.90643 0.00134739 -0.000152739)
(2.83653 0.00471734 0.000107033)
(2.6434 0.0108769 -0.000254786)
(2.04245 0.0337569 1.37728e-05)
(0.600596 0.0985092 0.000531487)
(-0.447602 0.226264 -0.000150009)
(0.0685217 0.320789 -9.10969e-05)
(0.373022 0.386556 -3.53198e-05)
(0.34637 0.43596 2.31024e-06)
(0.252033 0.473575 1.44542e-05)
(-0.0386811 0.536858 -2.1807e-05)
(-0.0246956 0.581123 -1.78559e-07)
(-0.0784769 0.626699 0.000185412)
(-0.0886953 0.659166 0.000170656)
(0.0703696 0.62865 0.000293486)
(2.9951 -4.17767e-06 -4.29117e-07)
(2.98906 -3.13051e-07 1.04255e-06)
(2.98253 -3.20213e-06 -1.22484e-06)
(2.97637 9.94611e-07 2.20006e-06)
(2.97073 1.65776e-06 -2.60816e-06)
(2.96584 3.3676e-06 3.63591e-06)
(2.96123 1.38036e-05 -3.73326e-06)
(2.95695 3.18121e-05 2.82002e-06)
(2.9507 0.000164359 7.5576e-08)
(2.9392 0.000666511 -3.49348e-06)
(2.90823 0.00169672 -7.66185e-06)
(2.84113 0.00497829 -1.3778e-05)
(2.65597 0.0134311 -1.41135e-05)
(2.0858 0.0359501 1.00834e-05)
(0.699326 0.11102 6.2404e-05)
(-0.345875 0.26346 -1.29698e-05)
(0.103697 0.370909 -4.83899e-05)
(0.387415 0.440231 -3.30288e-05)
(0.356463 0.496219 -4.58761e-06)
(0.265578 0.547886 -3.08073e-06)
(0.0290413 0.612756 -1.49004e-05)
(0.0209489 0.669014 1.78073e-05)
(-0.0257307 0.729113 0.000165717)
(-0.0582733 0.780848 0.000207214)
(0.0774272 0.770439 0.000323314)
(2.9951 -1.60435e-06 -1.73002e-07)
(2.98906 5.15568e-06 3.8425e-07)
(2.98253 -3.87838e-06 -4.427e-07)
(2.97638 1.17846e-05 7.41456e-07)
(2.97073 -8.34131e-06 -7.01433e-07)
(2.96585 1.97977e-05 9.84769e-07)
(2.96124 3.66358e-07 -8.1999e-07)
(2.95701 4.91456e-05 5.49332e-07)
(2.95097 0.000251442 -1.51535e-07)
(2.93992 0.000713611 -1.43803e-06)
(2.91001 0.00229655 -3.61961e-06)
(2.84677 0.00496617 -5.55453e-06)
(2.66806 0.0165456 -1.32523e-05)
(2.12593 0.0351306 -8.41426e-06)
(0.80912 0.116911 -1.15967e-05)
(-0.232279 0.298101 -6.84501e-07)
(0.140445 0.423794 -2.57252e-05)
(0.400456 0.491886 -1.84733e-05)
(0.371156 0.552614 -4.67475e-06)
(0.285639 0.616486 -3.25966e-06)
(0.098816 0.687842 -1.0678e-05)
(0.0760861 0.75713 2.31504e-06)
(0.0454351 0.834878 0.00012647)
(-0.00169624 0.915377 0.000241118)
(0.0943802 0.948316 0.000335265)
(2.9951 5.62779e-06 -1.87272e-08)
(2.98906 1.27674e-05 3.43688e-07)
(2.98253 -8.93623e-06 -6.24907e-08)
(2.97637 3.59846e-05 4.25164e-07)
(2.97074 -4.74152e-05 -2.4827e-07)
(2.96585 9.04475e-05 3.49388e-07)
(2.96125 -0.000117827 -3.68946e-07)
(2.95716 0.000268888 -6.63693e-08)
(2.95126 -4.5551e-05 -5.44473e-07)
(2.94093 0.00134454 -1.79838e-06)
(2.91176 -0.00025393 -3.25242e-06)
(2.85348 0.0122343 -6.51643e-06)
(2.67937 0.00480266 -1.40808e-05)
(2.16723 0.0566165 -1.27012e-05)
(0.921188 0.114407 -1.65358e-05)
(-0.105165 0.333719 4.09169e-06)
(0.176776 0.479222 1.54168e-06)
(0.411402 0.540611 2.96313e-06)
(0.389523 0.60362 -2.01659e-06)
(0.31314 0.67747 -1.64031e-06)
(0.171728 0.757764 -3.29874e-06)
(0.145382 0.842904 8.30633e-06)
(0.137172 0.942245 0.000104685)
(0.0960048 1.06261 0.000233291)
(0.13252 1.22436 0.000308113)
(2.98855 5.33945e-06 0.00143516)
(2.98291 -1.91498e-06 0.00328483)
(2.97953 5.52208e-06 0.00493139)
(2.97738 -5.2787e-06 0.00644412)
(2.97598 8.29155e-06 0.00768179)
(2.975 -1.00457e-05 0.0088986)
(2.97419 1.36462e-05 0.00973457)
(2.97283 5.40201e-06 0.0108236)
(2.96822 9.39634e-05 0.0112679)
(2.95913 -2.46689e-05 0.0121344)
(2.93005 0.0010889 0.0135931)
(2.86575 -0.000347319 0.0163087)
(2.68018 0.00263826 0.0228318)
(2.09721 0.00118609 0.0341567)
(0.7178 -0.00267066 0.0633143)
(-0.233723 -0.0114993 0.0656374)
(0.108567 0.00107002 0.0613118)
(0.452692 0.0108537 0.0582822)
(0.535374 0.00616468 0.0609367)
(0.50887 -0.0145864 0.0624196)
(0.445843 -0.00795649 0.0626175)
(0.331611 0.0125863 0.0621074)
(0.167062 0.035168 0.0616902)
(0.051031 0.0523998 0.0603625)
(0.208068 0.0418671 0.0527361)
(2.98855 2.25483e-06 0.00143701)
(2.98291 -8.88718e-07 0.00328177)
(2.97953 2.92315e-06 0.00493433)
(2.97738 -2.089e-06 0.00643945)
(2.97597 2.89593e-06 0.0076889)
(2.97501 -2.69681e-06 0.00888629)
(2.9742 3.34775e-07 0.00975476)
(2.97291 8.99368e-06 0.0107821)
(2.9682 2.76592e-05 0.0113046)
(2.95992 0.000104172 0.012261)
(2.93006 0.000192298 0.0130839)
(2.86622 0.000730418 0.0176212)
(2.68099 0.00141333 0.0202643)
(2.08809 0.0042152 0.0377918)
(0.66592 0.0108803 0.06158)
(-0.342877 0.0313087 0.0645217)
(0.0716304 0.0542837 0.0616601)
(0.42791 0.0698825 0.0588082)
(0.490296 0.06637 0.0612187)
(0.384126 0.0593576 0.0621438)
(0.367037 0.0651551 0.0633266)
(0.264693 0.0883311 0.0628728)
(0.0933791 0.11377 0.0621298)
(0.0166086 0.124022 0.059568)
(0.198469 0.100615 0.0518494)
(2.98855 4.77795e-06 0.00143487)
(2.98291 -9.50541e-07 0.00328494)
(2.97953 4.47947e-06 0.00493207)
(2.97738 -3.53341e-06 0.00644252)
(2.97597 2.91354e-06 0.00768426)
(2.975 -5.87693e-06 0.00889467)
(2.9742 3.32796e-07 0.00973817)
(2.97285 -1.32497e-06 0.0108174)
(2.96831 1.31349e-05 0.0112582)
(2.95927 0.000123222 0.0121519)
(2.93054 0.00028338 0.0136073)
(2.86669 0.000986104 0.0163415)
(2.68281 0.00265771 0.0228909)
(2.10339 0.00743094 0.033986)
(0.732732 0.0226882 0.062898)
(-0.224586 0.0687966 0.064888)
(0.119084 0.0996326 0.0607562)
(0.444322 0.124201 0.0576668)
(0.487261 0.136189 0.0603208)
(0.37533 0.155333 0.0612796)
(0.354522 0.156308 0.0626577)
(0.248454 0.165029 0.0621651)
(0.0644874 0.191846 0.0615748)
(-0.00685806 0.202853 0.0582438)
(0.171274 0.16558 0.050879)
(2.98855 1.01826e-05 0.00143768)
(2.98291 -3.44488e-06 0.00328058)
(2.97953 8.07846e-06 0.0049357)
(2.97738 -1.10295e-05 0.00643713)
(2.97597 8.25399e-06 0.0076917)
(2.97501 -1.9033e-05 0.00888244)
(2.97421 1.34548e-05 0.00975829)
(2.97292 -5.11332e-06 0.0107772)
(2.9683 9.32782e-05 0.0112963)
(2.96015 0.000107149 0.0122375)
(2.93078 0.00143122 0.0130271)
(2.86831 0.000771559 0.0174799)
(2.68631 0.00621456 0.0200918)
(2.10481 0.0102249 0.0374105)
(0.720162 0.0306782 0.0612115)
(-0.234989 0.0904674 0.0651449)
(0.12729 0.139361 0.0606311)
(0.451609 0.174535 0.057177)
(0.493472 0.198646 0.0596684)
(0.409627 0.224798 0.0612187)
(0.363179 0.233325 0.0614957)
(0.251812 0.242416 0.0605731)
(0.0720629 0.268949 0.0601557)
(-0.0126704 0.281259 0.0565884)
(0.158871 0.230189 0.0493884)
(2.98855 -1.758e-06 0.00143806)
(2.98291 -1.54068e-06 0.00327971)
(2.97953 -2.62998e-06 0.00493635)
(2.97738 -3.35285e-06 0.00643575)
(2.97597 -2.17537e-06 0.00769348)
(2.97501 -4.15332e-06 0.00887996)
(2.97421 3.06838e-06 0.00976099)
(2.97293 6.96425e-06 0.0107742)
(2.9684 5.92788e-05 0.0112883)
(2.96036 0.00030586 0.0122024)
(2.93145 0.000755013 0.0130131)
(2.87034 0.00236284 0.0173213)
(2.69087 0.00659696 0.02004)
(2.11992 0.0156594 0.0373504)
(0.76139 0.0539976 0.0607098)
(-0.190786 0.135223 0.0650507)
(0.151576 0.188167 0.0603349)
(0.461741 0.225052 0.0565785)
(0.496853 0.2563 0.0590305)
(0.416212 0.289902 0.0605564)
(0.368859 0.305803 0.0604445)
(0.26212 0.321219 0.0590658)
(0.0946407 0.348483 0.0585054)
(-0.0100287 0.361702 0.0546586)
(0.15154 0.299991 0.0475479)
(2.98855 -1.98729e-05 0.00143697)
(2.98291 7.74017e-07 0.00328098)
(2.97953 -1.70064e-05 0.00493535)
(2.97738 8.56218e-06 0.00643738)
(2.97597 -1.48151e-05 0.00769198)
(2.97501 1.84108e-05 0.00888178)
(2.97421 -9.24264e-06 0.00976015)
(2.97296 2.41529e-05 0.0107732)
(2.96855 4.18994e-05 0.0112985)
(2.96073 0.000445282 0.0122053)
(2.93244 0.000344988 0.0130151)
(2.87339 0.0033149 0.017286)
(2.69693 0.00781442 0.0199462)
(2.14302 0.0199791 0.0367652)
(0.825099 0.077575 0.0602295)
(-0.114803 0.1718 0.065291)
(0.187319 0.231826 0.0597433)
(0.477619 0.272303 0.0556085)
(0.507268 0.310609 0.0581452)
(0.432582 0.353117 0.059841)
(0.377417 0.3761 0.0593428)
(0.27856 0.400296 0.0575572)
(0.128232 0.431274 0.0566614)
(0.00191075 0.449561 0.052607)
(0.148693 0.382311 0.0452796)
(2.98855 -2.05896e-05 0.00143117)
(2.98291 -5.26082e-07 0.00328865)
(2.97953 -1.74116e-05 0.00492982)
(2.97738 7.62328e-06 0.00644583)
(2.97598 -1.26966e-05 0.00768177)
(2.97501 1.87116e-05 0.00889791)
(2.97422 -5.85454e-06 0.00973554)
(2.97296 2.80306e-05 0.0108142)
(2.96875 5.49342e-05 0.0112408)