/*--------------------------------*- C++ -*----------------------------------*\
  =========                 |
  \\      /  F ield         | OpenFOAM: The Open Source CFD Toolbox
   \\    /   O peration     | Website:  https://openfoam.org
    \\  /    A nd           | Version:  6
     \\/     M anipulation  |
\*---------------------------------------------------------------------------*/
FoamFile
{
    version     2.0;
    format      ascii;
    class       volScalarField;
    location    "58";
    object      p;
}
// * * * * * * * * * * * * * * * * * * * * * * * * * * * * * * * * * * * * * //

dimensions      [0 2 -2 0 0 0 0];

internalField   nonuniform List<scalar> 
918
(
0.530289
1.2411
0.00589623
0.530198
-0.0115352
1.20882
-0.502556
0.647792
0.511431
-0.1273
-0.0686986
0.512241
1.06583
0.831989
-1.17412
-0.0200753
0.626507
-0.42316
0.509449
-0.0722848
0.670385
0.518113
0.52058
0.511367
0.574988
0.787731
0.942593
-0.00395507
0.0100151
0.00496047
-0.0131204
-0.0337411
-0.0292155
1.09197
1.14387
1.16704
0.47801
0.311017
-0.3977
-0.450101
-0.431865
-0.520865
0.644045
0.642176
-0.221758
0.650478
0.653907
0.497156
0.510825
0.51166
0.512791
0.511689
0.512972
0.385466
-0.136308
-0.163111
-0.110317
-0.108357
0.0339903
-0.0714444
-0.0740406
-0.0647976
-0.0642459
0.427202
0.507241
0.504
0.516973
0.526698
1.18126
1.15507
1.18114
1.09144
1.10912
1.04292
1.01591
0.854467
0.877803
0.814912
0.803242
-1.63281
-2.5822
-0.595442
-0.317442
-0.0103931
-0.0205509
-0.0180903
0.621738
0.623886
0.625413
0.628954
1.02183
-0.395124
-0.466017
0.509968
0.508486
0.517637
0.51854
0.513499
0.513503
-0.0666188
-0.0629753
-0.0634388
-0.0710822
-0.0730372
0.662774
0.662395
0.510805
0.508251
0.535162
0.557569
0.545592
0.245917
0.583437
0.593913
0.648655
0.797369
0.78396
0.796423
0.917682
0.88544
0.974771
0.996471
0.0133646
-0.00123267
-0.0220513
-0.0208586
-0.021294
0.473753
0.467326
0.495079
0.48163
0.48467
0.215805
0.0649766
0.393529
0.417479
-0.319996
-0.367797
-0.462397
-0.45946
-0.565906
0.593576
0.639589
0.63669
-0.235376
-0.161521
-0.288638
-0.104463
-0.161117
0.488125
0.494364
0.490446
0.505805
0.499979
0.502401
0.514902
0.512078
0.513676
0.445622
0.575129
0.304153
0.279249
-0.286833
-0.180724
-0.266602
-0.0971277
-0.0923147
0.0452479
0.0738136
0.0213389
0.00886376
-0.0838232
-0.0758089
-0.0795661
-0.0640506
-0.0633647
0.418673
0.405677
0.438403
0.445906
0.494223
0.495698
0.500176
0.498127
0.967058
0.989696
0.995857
0.972027
-3.5625
-6.20012
0.028487
0.1884
-0.0090536
-0.0100147
0.000462902
-0.00970181
-0.00019925
-0.00264705
-0.0250124
-0.0254219
-0.0200711
-0.0205128
0.619568
0.621142
0.987118
1.02001
0.968549
0.945717
0.499294
0.501189
0.505819
0.5027
-0.063539
-0.0628489
-0.0645497
0.655516
0.660766
0.658963
0.204972
0.116661
0.297045
0.328087
0.614719
0.598231
0.611146
0.70797
0.746992
1.01337
1.03728
1.02161
1.03438
1.08519
1.10812
1.073
0.452357
0.46326
0.457544
0.498147
0.495856
0.496854
0.493113
0.49415
0.492714
-0.0467771
-0.41973
0.469237
0.470302
0.460134
0.464443
0.679329
0.76183
0.627946
0.632888
0.63229
-0.0542462
-0.101386
0.237875
0.209362
0.358032
0.392459
0.374373
0.942271
0.902647
0.95056
0.92582
0.890769
0.914127
-0.356491
-2.12265
-1.11648
0.590329
0.392953
0.484719
-0.00749828
-0.0242147
-0.0205613
1.01357
1.05064
0.641878
0.824613
0.779046
0.773915
0.801816
0.859304
0.790924
0.825417
0.858055
0.836329
0.545332
0.478764
0.495304
0.837016
0.891911
0.0798311
0.00235222
-0.0211215
0.0978433
0.167836
0.136303
1.02749
0.945145
1.0066
0.508491
0.509436
-0.0176855
-0.0411967
0.513548
0.513262
-0.0206367
-0.0107262
0.501949
-0.94324
0.0832034
0.50304
0.492744
0.509545
-0.10803
0.318123
-0.0717221
0.0180475
-0.017368
0.505966
0.439445
0.397218
-0.0041975
-0.0282905
-0.0640611
-0.221281
0.50623
0.504591
0.508928
0.509749
0.510521
-0.024963
-0.0255183
-0.0174949
-0.0588642
-0.0559875
-0.0637404
0.47288
0.493058
-0.19753
0.509217
0.511317
0.51102
0.505191
0.510149
0.508764
-0.0202331
-0.0247496
-0.026546
0.1856
0.324558
0.686265
0.762037
0.634764
0.467324
0.172174
0.622055
0.674791
0.599442
0.730856
0.635146
0.645424
0.150099
0.00807003
0.154329
0.0870344
0.499895
0.499305
0.490282
0.487156
0.504358
0.502031
0.507233
0.504438
0.507615
0.508776
-0.0629567
-0.0887533
-0.108471
-0.152044
0.282542
0.537926
0.220698
0.241473
0.148796
-0.0636077
-0.0621505
-0.0699678
-0.0737802
-0.0299582
-0.0343936
0.0119354
0.0190896
0.00208482
-0.0246294
-0.0365738
-0.0337182
-0.0406627
0.499186
0.498564
0.503724
0.512074
0.449028
0.452753
0.419125
0.437834
0.424057
0.364102
0.393912
0.371152
-0.0153056
-0.0045121
-0.00784943
-0.0278027
-0.0266816
-0.0483353
-0.0412259
-0.0388273
-0.0353324
-0.0403086
-0.058996
-0.0618597
-0.184934
-0.303729
0.928577
0.860958
0.130285
0.496142
0.501798
0.498972
0.50367
0.506873
0.507512
0.505088
0.50158
0.493134
0.494515
0.491443
0.492523
-0.137714
-0.245887
-0.0760827
-0.150394
0.138443
0.60615
0.332104
0.277666
0.262824
0.488145
0.693859
0.608215
0.668531
0.65552
-0.400329
0.00519017
-0.331717
0.215878
0.207407
0.710967
0.75417
0.772558
0.728698
0.684441
-0.0361052
0.539725
-0.0763863
-0.0266372
0.163007
0.0491366
0.64391
0.617738
0.62315
0.639622
0.650176
0.631498
0.615883
0.609882
0.634875
0.638554
0.487336
0.214239
0.172288
0.126069
0.612718
0.511833
0.563286
0.480473
0.495506
0.497931
0.496865
0.477672
0.48504
0.480702
0.487891
0.491554
0.498865
0.499072
0.49495
0.496838
-0.0794809
-0.0855149
-0.0689592
-0.135168
-0.139475
-0.185553
-0.0896182
0.0746688
0.0231076
0.229523
0.360427
0.0533827
-0.0599145
-0.0426597
0.00700272
0.159866
0.169602
0.0497076
0.156535
0.113524
0.108327
0.193463
0.21709
-0.0463377
-0.0514973
-0.0527462
-0.0574482
-0.00594196
0.0993268
0.0805161
-0.0220816
-0.0297572
-0.0592128
-0.0607977
-0.0175248
-0.0404588
-0.0342678
-0.0088582
-0.0558839
-0.0299351
-0.01947
-0.0224375
-0.0249129
-0.023758
0.49255
0.49475
0.494703
0.501355
0.514443
0.528002
0.496112
0.470277
0.461278
0.464392
0.437401
0.446658
0.441845
0.457616
0.479148
0.488486
0.48589
0.488654
0.470507
0.472301
0.457647
0.462226
0.431363
0.412824
0.402701
-0.0525623
-0.0190051
-0.0326254
-0.0460257
-0.0201706
-0.0300151
-0.0263105
-0.00814927
-0.0265322
-0.0231435
-0.0328243
-0.038302
-0.0390964
-0.0879908
-0.00541601
-0.185438
-0.23586
-0.288039
0.866184
1.00522
0.785974
0.579238
0.594162
0.810021
0.917161
0.537494
0.698978
0.743632
0.563616
0.849363
0.500042
0.499655
0.49754
0.496725
0.497688
-0.0269821
0.0766364
0.0900431
0.147746
0.263179
0.369105
0.299193
0.186299
0.318893
0.343351
0.603836
0.610004
0.565243
0.587494
0.58481
0.399552
0.479914
0.518571
0.474537
0.548332
0.581742
0.528021
0.57132
0.491004
0.441446
0.432961
0.388632
0.422818
0.404022
0.378444
0.491048
0.468169
0.478861
0.468604
0.489523
0.516648
0.516341
0.53506
0.55509
0.470416
0.416992
0.43399
0.462269
0.418301
0.435229
0.457153
0.172587
0.0758773
0.23884
-0.0900286
-0.00279327
0.0357865
-0.00645709
-0.049349
0.257613
-0.381893
-0.327936
-1.00677
0.482196
0.842179
0.596525
0.608598
0.649798
0.635017
0.644771
0.652999
0.65745
0.601714
0.611434
0.61608
0.588643
0.61325
0.613114
0.620657
0.491439
0.394129
0.393569
0.328248
0.188656
0.228898
0.421193
0.352903
0.277883
0.270254
0.44179
0.30848
0.386601
0.439161
0.364254
0.298934
0.526478
0.57163
0.562956
0.536585
0.421689
0.454677
0.458232
0.50687
0.549529
0.57544
0.486478
0.492799
0.493723
0.490979
0.489276
0.492408
0.492677
0.494956
0.495205
0.497773
0.497208
-0.068006
-0.0562184
-0.0727725
-0.0772321
-0.0305158
-0.0386364
-0.0092513
-0.0297706
-0.0323374
-0.0289907
-0.0499952
-0.0624515
-0.0582929
-0.046958
0.0694466
0.0894799
0.0867753
0.0442633
0.221886
0.407577
0.467988
0.335087
0.184132
0.206779
0.296632
0.00157089
0.00930659
-0.00648826
0.054719
0.0392183
-0.0528323
-0.0569078
-0.0556378
-0.0450401
-0.0374077
-0.0584532
-0.0565024
-0.0464879
-0.0546046
-0.0583115
-0.0604757
0.471946
0.464831
0.468477
0.460826
0.458991
0.476018
0.480547
0.48174
0.48733
0.490072
0.479419
0.485542
0.489729
-0.027211
-0.044032
-0.0450292
-0.0411405
-0.0406478
-0.0399383
-0.0433922
0.115689
0.0213472
0.058467
-0.0137753
-0.139961
-0.0809226
0.48797
0.483588
0.473755
0.705408
0.542603
0.46182
0.560924
0.68003
0.262846
0.460948
0.296225
0.871386
0.778139
0.922565
0.540263
0.241301
0.406979
0.417018
0.259155
0.382561
0.329364
0.20553
0.241008
0.273813
0.356496
0.243156
0.22237
-0.0193586
0.161007
0.271163
0.253437
0.380586
0.437797
0.250403
0.166734
0.113977
0.585392
0.601595
0.609645
0.581234
0.601913
0.563366
0.550939
0.564405
0.573432
0.575804
-0.642039
-0.230246
-1.4308
-0.841944
-0.390792
0.509771
0.506592
0.736876
0.642981
0.666346
0.650021
0.590134
0.558291
0.603925
0.62012
0.318163
0.404067
0.390553
0.366805
0.31241
0.254894
0.526133
0.535052
0.558185
0.584051
0.559399
0.586401
0.485188
0.48504
0.483734
0.480002
0.47852
0.481764
0.0262076
-0.00139514
0.0347962
0.0200541
-0.00769972
-0.0114367
-0.0307795
-0.0419195
-0.0408788
-0.0383067
-0.0296747
-0.0281266
0.159161
0.0985933
0.0100816
0.0521251
-0.0142987
-0.0975924
-0.0983142
-0.00900037
0.0916544
0.0735849
0.379333
0.643517
0.470541
0.644012
0.441327
0.543569
0.456017
0.429
0.457572
0.35981
0.449559
0.0309571
-0.16909
-0.22499
0.807342
0.766232
0.548512
0.302098
0.185781
0.480674
0.508349
0.468954
0.494065
0.546328
0.526281
0.00553067
0.0962443
0.176273
0.483098
0.266188
0.283364
0.274572
0.438177
0.409662
)
;

boundaryField
{
    wall-4
    {
        type            zeroGradient;
    }
    velocity-inlet-5
    {
        type            zeroGradient;
    }
    velocity-inlet-6
    {
        type            zeroGradient;
    }
    pressure-outlet-7
    {
        type            fixedValue;
        value           uniform 0;
    }
    wall-8
    {
        type            zeroGradient;
    }
    frontAndBackPlanes
    {
        type            empty;
    }
}


// ************************************************************************* //
