/*--------------------------------*- C++ -*----------------------------------*\
  =========                 |
  \\      /  F ield         | OpenFOAM: The Open Source CFD Toolbox
   \\    /   O peration     | Website:  https://openfoam.org
    \\  /    A nd           | Version:  6
     \\/     M anipulation  |
\*---------------------------------------------------------------------------*/
FoamFile
{
    version     2.0;
    format      ascii;
    class       volVectorField;
    location    "58";
    object      U;
}
// * * * * * * * * * * * * * * * * * * * * * * * * * * * * * * * * * * * * * //

dimensions      [0 1 -1 0 0 0 0];

internalField   nonuniform List<vector> 
918
(
(0.985049 -0.00071379 0)
(0.00534861 2.96624 0)
(-0.00173692 0.884428 0)
(0.979574 0.00196134 0)
(-0.0124551 2.06423 3.32162e-20)
(-0.00710088 2.94856 -2.59103e-18)
(0.812645 1.11512 4.436e-19)
(0.17556 0.0829594 -1.44123e-20)
(0.999921 -0.000243528 0)
(0.0841737 0.680147 0)
(0.0112851 0.441174 0)
(0.734554 -0.0177452 0)
(0.0102213 2.93156 0)
(0.00335204 2.79476 0)
(-0.00178432 3.18306 8.30344e-19)
(-0.0137013 1.9197 1.90874e-20)
(0.290297 0.0288911 9.77793e-19)
(0.229028 1.10229 3.58924e-19)
(0.964389 0.0067392 0)
(0.00233749 0.425565 0)
(0.0224572 0.107603 -6.7445e-19)
(1.00183 -0.00456034 0)
(0.999851 -0.00892825 0)
(0.975165 -0.00605271 0)
(0.595616 0.00530771 0)
(0.0216928 2.64435 0)
(-0.0123879 2.91195 9.4948e-19)
(-0.00484117 0.938005 0)
(-0.0285762 1.16927 0)
(-0.00308912 0.908433 0)
(-0.020261 2.59629 0)
(-0.0033669 2.11407 -2.65301e-20)
(-0.00883079 1.89373 0)
(-0.0221193 2.98762 -9.34469e-23)
(-0.0164842 3.00549 2.01298e-18)
(0.00230527 3.00057 0)
(0.871799 -0.00972347 0)
(0.376505 0.916886 1.6152e-19)
(0.811523 1.133 -5.55923e-19)
(0.944448 0.99783 5.63663e-19)
(0.675063 1.21557 -1.02002e-19)
(0.688342 1.1765 5.81514e-19)
(0.201449 0.151709 1.40602e-20)
(0.187776 0.0707678 0)
(1.1557 0.527308 0)
(0.175406 0.138989 6.40409e-20)
(0.153091 0.0783664 -6.64556e-20)
(0.920515 -0.00704405 0)
(1.00026 6.43691e-05 0)
(0.999908 0.000319729 0)
(1.0037 -0.00728353 0)
(1.00089 -0.00094639 0)
(1.00011 -8.08941e-06 0)
(0.0929403 1.84162 -7.31743e-19)
(0.0306547 0.870474 0)
(0.117879 0.756565 0)
(0.0177351 0.821126 0)
(0.0468201 0.614344 0)
(0.00356544 2.02479 0)
(-0.00433227 0.741426 0)
(0.00855237 0.472983 0)
(-0.00994965 0.73757 0)
(0.00750367 0.43458 0)
(0.842911 -0.0157173 0)
(0.836519 0.0352202 0)
(0.765993 -0.00888687 0)
(0.80331 0.0453786 0)
(0.702838 -0.0119398 0)
(0.0139276 3.00022 9.61805e-19)
(0.0111404 3.00608 0)
(0.00619536 3.00384 0)
(0.0119072 2.99717 1.09241e-23)
(0.00824598 2.95874 -1.42948e-18)
(0.0122388 2.98288 0)
(0.00904896 2.90467 0)
(0.0207553 2.93166 2.2238e-24)
(0.00414202 2.82426 0)
(0.0255137 2.919 0)
(-0.000464602 2.74445 0)
(0.307058 3.57963 0)
(-0.122397 3.66257 0)
(0.150316 3.27396 -7.72791e-19)
(0.00420269 3.01004 0)
(-0.0281947 1.98849 0)
(-0.00663916 2.17376 -1.88255e-20)
(-0.00983586 1.93109 1.74245e-20)
(0.367114 0.144513 -3.39312e-19)
(0.313395 0.00335145 -3.29781e-19)
(0.324975 0.162227 -1.0157e-18)
(0.258953 0.0382846 -6.6188e-19)
(0.261638 1.01896 0)
(0.327626 1.22984 -3.6866e-19)
(0.409946 1.14437 6.08185e-19)
(0.987777 0.0081407 0)
(0.943307 0.00579395 0)
(1.00028 0.000671774 0)
(1.00254 0.00906667 0)
(1.00312 0.00897989 -2.60866e-18)
(0.992136 0.00943301 1.97124e-18)
(-0.0155717 0.756114 0)
(0.00495465 0.438133 0)
(-0.0502764 1.02334 0)
(-0.0252466 0.804908 0)
(-0.0151583 0.420151 0)
(0.00912137 0.132536 2.08784e-19)
(0.0800107 0.0987757 0)
(0.993622 -0.0076946 0)
(0.954038 -0.00647986 0)
(0.744162 0.0425624 0)
(0.674563 0.0244641 0)
(0.658852 0.00594003 0)
(0.977589 -0.00325801 0)
(0.599739 0.071459 0)
(0.44347 -0.033743 1.47018e-18)
(-0.0411109 2.86012 7.46355e-19)
(0.0336077 2.91407 0)
(0.0423302 2.89262 0)
(0.00331544 2.70208 0)
(-0.00863497 2.98665 9.07774e-19)
(-0.0140245 2.89462 0)
(-0.0109444 2.9917 -2.79648e-18)
(-0.0116796 2.92965 9.51925e-19)
(-0.0413526 1.34222 0)
(-0.012773 1.37017 0)
(-0.006844 2.13559 7.25634e-22)
(-0.00642141 2.09533 0)
(-0.0167621 1.90425 0)
(0.938769 -0.00525003 0)
(0.857074 -0.0111 0)
(0.863506 0.00507525 0)
(0.949579 -0.00617464 0)
(0.88358 -0.00807609 0)
(0.500298 1.11719 -2.05324e-19)
(0.547548 1.18719 0)
(0.338408 0.851389 3.15576e-20)
(0.282557 0.71596 0)
(0.911325 1.02929 -1.59054e-19)
(1.03253 0.839717 3.1837e-19)
(0.388286 1.30967 0)
(0.53854 1.26621 0)
(0.592209 1.19279 0)
(0.101574 0.181282 -2.9481e-19)
(0.220072 0.15738 0)
(0.194418 0.076729 1.85227e-19)
(0.995949 0.89384 0)
(1.07088 0.742172 0)
(1.10024 0.677664 -2.536e-19)
(1.13755 0.588736 0)
(1.19314 0.389857 4.6276e-20)
(0.957436 -0.00711825 0)
(0.962689 -0.0081219 0)
(0.900851 -0.00736768 0)
(0.983921 -0.00812799 0)
(0.974408 -0.00804122 0)
(0.936523 -0.00656429 0)
(1.0002 0.00250319 0)
(1.00077 0.00124008 0)
(1 0.00076448 0)
(0.0442925 2.08742 4.08646e-19)
(0.145101 1.78474 0)
(0.0192442 2.20435 6.15914e-19)
(0.0522068 1.88983 -5.16049e-19)
(0.163968 1.07948 -2.94797e-19)
(0.0454178 0.941729 0)
(0.117964 0.936513 0)
(0.0042599 0.792852 0)
(0.0254444 0.552453 0)
(-0.00344791 2.25604 -4.87715e-22)
(0.0175599 2.03051 0)
(-0.00484526 2.25647 -1.31584e-20)
(0.00242757 2.03519 1.37161e-20)
(-0.00268095 0.766246 0)
(-0.00384624 0.748103 0)
(0.0132551 0.502883 0)
(-0.0111256 0.747848 0)
(0.00195834 0.434453 0)
(0.938943 0.0136587 0)
(0.85545 -0.0117542 0)
(0.928273 0.00472487 0)
(0.84577 -0.0128152 0)
(0.812149 -0.00277471 0)
(0.897648 0.0235233 0)
(0.8712 0.0293026 0)
(0.788472 -0.00636026 0)
(0.0104312 3.06736 -8.95491e-21)
(0.014844 3.0593 0)
(0.012405 2.9703 0)
(0.0076112 2.8766 0)
(0.897281 3.97489 0)
(1.19182 3.37046 9.41024e-19)
(0.0816597 3.09208 0)
(-0.0167828 2.919 0)
(-0.0143579 1.3957 0)
(-0.0349804 1.69531 0)
(-0.0226934 1.52923 0)
(-0.0316696 2.55596 -1.37059e-20)
(-0.016351 2.24675 0)
(-0.0204521 2.39336 0)
(-0.000865481 1.95919 5.28118e-22)
(-0.00482858 2.2494 -2.19655e-20)
(-0.00580579 2.21077 -1.78976e-20)
(-0.00607027 1.94461 0)
(0.40561 0.120191 5.20513e-19)
(0.345845 -0.00378469 -5.10637e-19)
(0.238833 1.59031 0)
(0.287824 0.753613 -3.19705e-19)
(0.179478 1.69205 -1.05556e-18)
(0.245812 1.21589 1.05576e-18)
(0.901753 0.00596272 0)
(0.967108 0.0106157 0)
(0.974957 0.00982342 0)
(0.923054 0.00590268 0)
(-0.00729486 0.749715 0)
(-0.0186527 0.749737 0)
(-0.00131796 0.435652 0)
(0.147791 0.132535 5.90145e-19)
(0.118718 0.121447 -6.98443e-19)
(0.113459 0.0843564 0)
(1.10373 0.0892957 2.36495e-20)
(1.08744 0.0417527 0)
(1.01678 0.0432708 0)
(0.91217 -0.00198113 0)
(0.446765 0.0957169 0)
(0.513375 0.0739437 -2.35366e-18)
(0.389124 -0.00841502 8.84105e-19)
(0.0107198 2.97699 7.89789e-19)
(-0.0331123 2.86135 4.54601e-20)
(0.00835912 3.05299 -1.89031e-20)
(0.0159078 3.04336 7.08039e-19)
(-0.0118499 2.99996 3.13182e-20)
(-0.0122902 2.95232 -1.26395e-22)
(-0.0150745 3.01323 -5.85085e-19)
(0.0145087 3.02643 4.12127e-19)
(0.00762514 3.03493 -6.69164e-19)
(0.934492 0.00201948 0)
(0.939362 -0.00119778 0)
(0.847842 -0.011153 0)
(0.95641 0.0117117 0)
(0.942525 0.0131916 0)
(0.881754 0.00551688 0)
(0.915736 0.0185238 0)
(0.92536 0.0151706 0)
(0.838148 0.00122141 0)
(0.673141 1.41612 2.23185e-20)
(0.691198 1.52676 0)
(0.119172 0.297361 6.73285e-20)
(0.210756 0.651803 5.31974e-19)
(0.239714 0.693349 -3.11803e-19)
(0.217411 0.50351 6.18241e-19)
(0.336804 0.827268 1.56045e-18)
(0.132345 0.235154 3.74698e-19)
(0.290048 0.170954 7.02608e-19)
(0.249198 0.170186 1.81281e-19)
(0.226158 0.0601802 3.46408e-19)
(1.1857 0.442721 9.22521e-20)
(1.21214 0.244316 9.06238e-20)
(0.00865857 2.2467 2.4037e-19)
(0.038497 1.9537 0)
(0.971688 0.032751 0)
(0.946011 0.0190082 0)
(0.869902 -0.0154558 0)
(0.0122042 3.07423 0)
(0.0167214 2.94393 1.25183e-18)
(0.0139198 2.95672 0)
(0.00586686 2.85014 -1.24224e-18)
(0.0097455 3.08963 3.05711e-19)
(0.0115097 3.08391 0)
(0.711452 1.8234 -1.73226e-19)
(1.23629 2.62873 5.85398e-19)
(0.696202 2.00157 -1.40475e-18)
(0.0222933 2.97582 -6.88198e-19)
(0.0407486 2.99846 0)
(-0.0383241 2.87881 0)
(-0.00608634 2.23463 -1.27103e-20)
(-0.00463989 2.25501 4.11301e-20)
(-0.000524777 1.99536 -7.20724e-21)
(0.268914 1.3976 1.01617e-18)
(0.280169 0.559469 -6.98451e-19)
(0.0706835 2.00688 7.37551e-19)
(0.126056 1.87522 -8.86432e-19)
(0.208212 1.5378 9.9537e-20)
(0.00462162 3.12015 -1.90604e-18)
(0.0171987 3.11981 2.06685e-18)
(-0.00502358 2.98079 8.48076e-19)
(-0.00069237 2.97505 -8.1362e-19)
(-0.0177212 2.87788 -8.6379e-19)
(0.0122279 3.1004 -2.27294e-18)
(0.00533446 3.10621 2.24508e-18)
(0.262911 0.695712 0)
(0.215303 0.658339 -1.13365e-18)
(0.0724085 0.213756 4.98708e-19)
(0.344488 0.945526 1.10919e-18)
(0.196816 0.278414 -1.70813e-18)
(1.19282 0.174496 4.71594e-20)
(1.20888 0.302845 0)
(1.18829 0.12022 9.3679e-21)
(-0.00126845 2.26451 -1.24764e-21)
(0.00303334 2.25071 0)
(0.0294449 1.98903 0)
(0.314565 1.31755 -3.64877e-19)
(0.352757 1.17131 -7.90494e-19)
(0.229065 0.388315 1.41396e-18)
(1.00644 -0.00969231 0)
(1.00774 -0.00779034 4.79485e-19)
(-0.0361691 1.32481 0)
(-0.0423713 1.32992 0)
(1.00244 0.00328096 1.35194e-21)
(1.00321 0.0078234 9.84337e-19)
(-0.022523 2.54196 1.73655e-20)
(-0.0261539 2.58486 0)
(0.0413451 3.17277 4.9009e-19)
(0.375351 3.54422 0)
(1.15316 0.689553 -5.07506e-20)
(1.01184 0.0106923 -2.82256e-21)
(1.02083 -0.00905264 0)
(1.00158 0.000268781 1.54017e-22)
(0.105025 1.37021 0)
(0.134559 2.59161 0)
(0.0247058 1.31689 0)
(-0.00227626 2.63812 3.9008e-21)
(-0.0229473 2.58689 -5.03899e-21)
(0.996593 0.0285347 2.388e-21)
(1.06278 0.0057111 0)
(1.09962 0.0282295 0)
(-0.0330567 1.74133 0)
(-0.0196808 2.58621 0)
(-0.0101885 1.31409 0)
(0.307476 1.48297 -1.77911e-19)
(1.01151 -0.00906754 0)
(1.00971 -0.0129936 0)
(1.00228 0.000940426 6.14301e-19)
(1.00548 -0.00491899 -7.23849e-19)
(1.00113 -0.000865588 0)
(-0.0200201 1.46225 0)
(-0.00954238 1.38139 0)
(-0.0152646 1.42292 0)
(-0.0126493 1.30178 0)
(-0.0239051 1.29312 0)
(-0.0175828 1.27181 0)
(1.03558 -0.00437254 0)
(1.01895 0.0150374 -8.74268e-22)
(0.810048 1.30673 2.81076e-19)
(1.00241 0.000376186 -6.13528e-19)
(1.00339 0.00446399 7.32497e-19)
(1.00127 0.00210334 0)
(1.01116 0.0096469 6.11109e-19)
(1.00688 0.00747114 -7.43947e-19)
(1.00719 0.011148 0)
(-0.0240465 2.61376 0)
(-0.0265395 2.59284 -2.88975e-20)
(-0.0238262 2.60701 2.0483e-20)
(1.23966 0.271171 5.15978e-19)
(1.1626 0.088392 0)
(0.0448455 3.09097 -9.74413e-19)
(0.0515287 2.87319 -6.9028e-20)
(0.103845 3.20168 1.30264e-18)
(0.122395 3.21379 -2.7915e-19)
(0.142904 3.25845 0)
(0.0230777 3.13772 2.67927e-19)
(0.0616203 3.16207 9.70633e-19)
(0.0621059 3.17884 -5.01063e-19)
(0.0271288 3.12948 0)
(0.595667 0.284619 0)
(0.535807 0.311874 0)
(1.13389 0.720842 1.14526e-19)
(1.09966 0.856078 -9.84737e-20)
(1.19262 0.606355 0)
(1.22028 0.541286 0)
(1.01575 0.0120322 -1.13517e-18)
(1.01471 0.0127815 1.42721e-18)
(1.02568 -0.00875525 0)
(1.02401 -0.0103206 0)
(1.00672 0.00310624 0)
(1.01091 0.00420646 0)
(1.00429 0.00220338 0)
(1.00943 0.00638685 0)
(1.0069 0.0050604 0)
(1.00444 0.00528408 0)
(0.0951382 1.3687 0)
(0.081648 1.33215 0)
(0.128748 1.41312 0)
(0.135852 1.4002 0)
(0.146219 2.61766 0)
(0.189408 2.68602 -4.09203e-19)
(0.104694 2.67579 0)
(0.0816186 2.67739 1.64677e-19)
(0.0278444 2.68167 -1.58752e-19)
(0.0154116 1.32234 0)
(0.0199966 1.25493 0)
(0.0176375 1.33778 0)
(0.0356614 1.27642 0)
(-0.0009013 1.99379 2.71774e-20)
(-0.0226366 2.615 -3.1042e-20)
(-0.00919273 2.68071 -1.93183e-20)
(-0.0207137 2.69291 0)
(-0.0246717 2.62137 1.88027e-20)
(-0.0234198 2.61671 3.19722e-20)
(0.0065885 1.99134 -2.01224e-20)
(-0.01045 2.40756 4.16491e-20)
(-0.0153614 2.43005 2.18988e-20)
(1.00959 0.0396761 1.15397e-18)
(1.00431 0.0178095 -1.43543e-18)
(1.00326 0.0451292 -1.17949e-18)
(0.974185 0.036364 1.4838e-18)
(1.06443 0.00899399 0)
(1.04973 -0.00652777 0)
(1.09218 0.037009 0)
(1.07546 0.0146783 0)
(1.07418 0.000523796 0)
(1.1407 0.0783092 0)
(1.11501 0.0454562 0)
(1.1179 0.037258 0)
(-0.028565 2.43602 2.99928e-21)
(-0.02036 2.0198 0)
(-0.0192584 2.22077 0)
(-0.0216574 2.60717 -1.70677e-20)
(-0.018673 2.61798 5.20987e-22)
(-0.000734623 1.5803 -5.13787e-20)
(-0.00932345 1.50455 5.2439e-20)
(-0.0186802 1.39414 0)
(-0.0230909 1.40043 0)
(-0.0306996 1.39344 0)
(-0.00735782 1.31561 0)
(0.00118016 1.24371 0)
(0.384815 1.5074 2.98371e-19)
(0.432594 1.5115 1.55602e-19)
(0.58461 2.47442 -2.49647e-19)
(0.373728 2.57206 6.81893e-19)
(0.352598 2.06083 6.87517e-20)
(1.02066 -0.0080325 0)
(1.01577 -0.00937742 0)
(1.01483 -0.0132331 0)
(1.00769 -0.000588439 0)
(1.00488 -0.000663494 0)
(1.00799 -0.00450057 0)
(1.00954 -0.00347117 0)
(1.01463 -0.00432703 0)
(1.01971 0.016125 1.11396e-18)
(1.01732 0.014733 -1.40875e-18)
(1.02005 0.0183908 -1.12357e-18)
(1.01766 0.0169346 1.40131e-18)
(0.766032 1.35411 0)
(0.706733 1.38753 2.48532e-19)
(0.870812 1.23502 1.02108e-19)
(0.90998 1.19376 -1.35517e-19)
(1.16555 2.61553 2.59403e-19)
(0.756966 0.124831 5.77443e-19)
(1.17069 0.106147 0)
(1.21231 0.199441 -4.18473e-19)
(1.19325 0.153611 -1.73847e-20)
(1.01472 0.16349 0)
(0.0794131 3.01969 3.42555e-19)
(0.0840661 2.90341 -1.14977e-18)
(0.0283744 2.3605 7.28677e-19)
(0.138474 -0.202555 -3.40789e-19)
(0.343349 3.44782 -2.53329e-19)
(0.193854 3.3415 0)
(0.224528 3.3989 3.29991e-19)
(0.223967 3.0779 -1.20192e-18)
(0.256979 3.19709 0)
(0.00632508 3.12269 5.04123e-20)
(0.016386 3.13148 -5.82292e-19)
(0.0154512 3.12719 8.57021e-19)
(0.0331839 3.14029 0)
(0.0314116 3.14963 0)
(1.25964 2.58041 0)
(0.528157 0.796182 -5.20569e-19)
(1.02138 1.02945 -1.22636e-20)
(0.985269 1.08322 0)
(0.85463 0.968102 -1.04348e-19)
(1.07725 0.90451 2.6946e-20)
(0.358588 0.331117 -8.38592e-19)
(0.670113 0.315475 -2.17584e-20)
(0.581997 0.222136 3.91686e-19)
(0.564221 0.3315 2.89369e-20)
(0.458184 0.291731 -1.16137e-18)
(0.628859 0.316218 0)
(0.695999 0.418268 6.59563e-19)
(0.699486 0.425368 0)
(0.601675 0.331043 0)
(0.531309 0.256057 0)
(0.790227 0.650488 3.91252e-19)
(1.2498 0.303582 -4.20784e-19)
(1.24161 0.435289 0)
(1.24279 0.391878 0)
(0.706417 0.186031 5.9358e-19)
(0.839164 0.549452 -3.71193e-19)
(0.761102 0.511259 6.61486e-19)
(0.961352 0.445167 -6.681e-19)
(1.0185 0.0146157 7.55041e-19)
(1.01714 0.0136165 -7.62833e-19)
(1.01602 0.0141765 0)
(1.03695 -0.00458338 0)
(1.03037 -0.00772549 -7.15172e-19)
(1.02857 -0.0106044 7.07748e-19)
(1.02474 0.0108357 0)
(1.02273 0.0149186 0)
(1.01269 0.00464542 0)
(1.01455 0.0091077 0)
(1.0163 0.00416754 0)
(1.01552 0.00288983 0)
(0.0646162 1.35472 0)
(0.0649804 1.30785 0)
(0.146918 1.40986 5.27871e-20)
(0.275301 1.47941 8.80564e-20)
(0.167874 1.45191 1.97844e-19)
(0.208465 1.45167 -3.20004e-19)
(0.158335 1.42122 0)
(0.143496 1.592 -7.12212e-20)
(0.144766 1.58346 0)
(0.350167 2.0142 -1.00086e-19)
(0.333647 2.34374 6.21631e-19)
(0.202623 1.4639 6.20624e-20)
(0.271851 1.39361 2.70473e-20)
(0.206352 1.38915 -2.2051e-20)
(0.286109 1.33354 -7.90665e-20)
(0.254346 1.57955 0)
(0.272927 1.62533 9.02813e-20)
(0.0259616 2.26327 -1.64716e-20)
(0.0369907 2.67541 0)
(0.0640768 2.41178 9.70281e-20)
(0.0592441 2.43331 0)
(0.0686531 2.69414 -1.8283e-19)
(0.0423508 2.70935 0)
(0.0234715 1.43518 5.2678e-20)
(0.0333897 1.49405 0)
(0.0289399 1.40054 0)
(0.0194804 1.40439 -6.05127e-20)
(0.000298037 2.66539 -2.15399e-21)
(0.0246671 2.69904 1.80776e-19)
(0.00802538 2.73618 9.94553e-22)
(-0.000248032 1.84038 -1.66807e-20)
(-0.00504364 1.69147 -1.26832e-20)
(0.0113219 1.30437 0)
(0.0167761 1.2335 0)
(0.0385647 1.58572 -2.27812e-20)
(0.03535 1.46263 -5.12043e-20)
(0.0294208 1.53583 5.79431e-20)
(0.0449734 1.61093 0)
(-0.0308999 2.27404 1.11483e-19)
(-0.0339219 2.55496 -4.7304e-20)
(-0.0204059 2.45435 7.50396e-21)
(-0.00655891 1.85838 2.02289e-20)
(-0.0283114 2.50943 9.42146e-21)
(-0.023937 2.45017 -1.87944e-20)
(1.01783 0.0216267 -7.6029e-19)
(1.01383 0.0280387 7.66449e-19)
(1.0125 0.0165916 0)
(1.01243 0.0697018 1.04584e-18)
(0.991345 0.0552245 -1.20307e-18)
(0.953124 0.0573198 1.34362e-18)
(1.01239 0.116707 -1.4279e-19)
(1.04384 -0.00473629 0)
(1.05203 -0.000528657 6.84774e-19)
(1.04018 -0.00820881 -6.84399e-19)
(1.0721 0.0432815 -4.0576e-20)
(1.06478 0.0285297 3.50505e-19)
(1.06418 0.0649258 0)
(1.05432 0.0540753 -1.26258e-19)
(1.03264 0.0446345 0)
(1.02527 0.0400403 0)
(1.02761 0.0136158 0)
(1.02395 0.0160811 0)
(1.04051 0.033444 2.59609e-19)
(1.03951 0.0288551 -5.74954e-19)
(1.05303 0.0383156 -2.74604e-19)
(1.04822 0.0382869 -3.03106e-19)
(1.0777 0.0695464 5.79132e-19)
(1.10145 0.0554769 0)
(1.10831 0.0940463 0)
(-0.0287221 2.28082 6.69801e-20)
(-0.0297032 2.0277 3.06933e-21)
(-0.0253379 2.03703 0)
(-0.0300443 2.4494 -6.67013e-20)
(-0.02676 2.40704 -5.94306e-21)
(-0.0338151 2.4769 8.40842e-21)
(-0.0223266 2.62889 -2.71946e-20)
(-0.0267041 2.57116 1.36813e-21)
(-0.025274 2.52449 -9.24031e-21)
(-0.0177643 2.62182 1.88534e-20)
(-0.022034 2.62408 -2.1564e-20)
(-0.00922621 1.49672 -1.80171e-22)
(-0.00406379 1.62829 -4.93703e-20)
(0.374486 1.44672 -1.29143e-19)
(0.370466 1.37947 8.47514e-21)
(0.647952 1.4351 -2.40616e-19)
(0.524531 1.50467 -1.51564e-19)
(0.579138 1.46326 0)
(0.608252 2.42524 2.24163e-19)
(0.668099 2.43533 3.34648e-19)
(0.426293 2.51937 8.7523e-20)
(0.401879 2.54527 -6.26223e-19)
(0.504231 2.48692 5.69868e-19)
(0.551024 2.48309 0)
(0.494767 2.52787 -5.39114e-19)
(0.262014 2.59537 1.1159e-18)
(0.356652 2.5757 -5.85878e-20)
(0.280158 2.65635 -1.54539e-18)
(0.969766 2.39335 7.07326e-19)
(0.848668 2.39497 0)
(1.01146 0.0013695 2.49029e-20)
(1.01535 -0.00521928 -2.03365e-20)
(1.01772 -0.00399273 -3.71768e-19)
(1.01558 -0.00107827 3.70402e-19)
(1.01311 0.00181549 0)
(0.635942 1.3017 0)
(0.676881 1.18655 0)
(0.78998 1.11552 0)
(0.664312 1.14415 0)
(1.19646 2.63099 5.16262e-20)
(1.08938 2.3825 0)
(0.819957 2.17563 3.44688e-21)
(0.823227 2.4385 0)
(0.917424 2.52782 -4.24474e-19)
(0.948975 2.4773 2.83433e-19)
(0.788331 0.159648 0)
(0.737703 0.143246 1.56917e-19)
(0.914678 0.158804 9.12552e-19)
(0.819396 0.141318 -3.44922e-19)
(0.772604 0.0904592 -1.04813e-18)
(1.08736 0.242851 -8.32972e-19)
(0.987064 0.311582 -9.59396e-21)
(0.931097 0.347341 8.08673e-19)
(1.01604 0.255055 6.8618e-19)
(0.935263 0.202825 -1.20611e-18)
(0.893241 0.215769 1.51384e-19)
(0.933306 0.311035 -3.1534e-19)
(0.909226 0.219538 0)
(1.00155 0.207342 5.89998e-19)
(1.05621 0.214594 0)
(1.05235 0.22652 0)
(1.12492 0.12325 2.64931e-19)
(1.06511 0.191518 -1.07378e-20)
(1.0795 0.244466 -1.51607e-19)
(1.11404 0.208934 0)
(1.02413 0.0490171 5.8797e-19)
(1.03814 0.0628073 7.31083e-19)
(1.03294 0.0467757 -5.8292e-19)
(1.04231 0.068626 -4.90002e-19)
(1.01568 0.0747483 -7.40909e-19)
(0.985647 0.165477 0)
(0.988917 0.107567 0)
(0.962609 0.0726609 -4.77607e-19)
(0.904168 0.0961311 1.90914e-19)
(1.03979 0.116492 6.78907e-19)
(1.07573 0.135301 -7.76306e-19)
(1.0701 0.178187 6.9802e-19)
(1.03506 0.155714 0)
(1.08589 0.12083 0)
(1.05764 0.111421 -3.17927e-19)
(1.04341 0.106958 -5.51426e-19)
(0.587888 1.09127 1.12745e-19)
(0.615974 1.41145 -1.65045e-20)
(1.14567 2.72254 -2.38693e-19)
(1.19847 3.10634 8.75484e-22)
(1.2545 2.73191 -1.11077e-19)
(1.29471 2.70313 1.26452e-20)
(1.27051 2.32654 -3.78438e-20)
(1.18617 3.01187 -6.69061e-20)
(1.20552 2.96871 2.12936e-19)
(1.18053 3.26003 -1.25588e-19)
(1.39869 2.97514 1.56394e-19)
(1.41037 2.91207 0)
(0.566835 0.82231 -4.69572e-20)
(0.21691 1.21525 4.74372e-19)
(0.509661 0.379831 5.38906e-19)
(0.392861 0.141349 6.14004e-19)
(0.497458 0.319788 6.56652e-19)
(0.543622 0.430287 -1.06317e-18)
(0.548872 0.419674 8.74901e-19)
(0.48038 0.333585 -3.30244e-19)
(0.373263 0.271212 7.49684e-19)
(0.732206 0.252586 -3.41756e-19)
(0.689979 0.281251 0)
(0.634489 0.197661 7.78404e-21)
(0.737041 0.506094 3.59336e-19)
(0.703239 0.476412 -1.30529e-18)
(0.632706 0.438953 1.78545e-20)
(0.6275 0.418276 0)
(0.710814 0.71535 3.71145e-19)
(0.827081 0.796146 4.08695e-19)
(0.764921 0.846299 -4.76361e-19)
(0.895771 0.818109 -1.5178e-19)
(0.932065 0.861121 -3.5272e-20)
(0.939715 0.86888 3.61765e-20)
(0.876183 0.672876 -6.66053e-19)
(0.948755 0.72111 1.41115e-19)
(1.00247 0.725343 0)
(1.00183 0.701601 -1.80838e-19)
(1.03164 0.336089 2.09803e-19)
(1.15724 0.334817 2.53114e-19)
(1.07367 0.280142 3.40686e-19)
(0.997857 0.380857 -4.17969e-19)
(1.05202 0.482503 0)
(1.13427 0.424245 0)
(0.89585 0.417726 1.12839e-21)
(0.849646 0.311705 0)
(0.892726 0.300633 3.85297e-19)
(0.913723 0.343757 5.33481e-21)
(0.980325 0.489213 1.86738e-18)
(0.912348 0.547748 4.81956e-19)
(0.934602 0.504099 -5.10494e-19)
(0.853994 0.481735 5.44134e-19)
(0.82241 0.454728 3.45806e-19)
(0.80229 0.427711 -3.38879e-19)
(1.02811 -0.000373977 6.14211e-19)
(1.0204 0.00049429 0)
(1.01903 0.00132371 4.00804e-19)
(1.02258 -0.00081792 -9.07305e-19)
(1.02252 0.00449997 4.42051e-19)
(1.02004 0.0115403 -9.25099e-19)
(1.02079 0.0113206 0)
(1.01973 0.0120596 -1.92679e-19)
(1.01652 0.00774377 4.82886e-19)
(1.01668 0.0108565 -2.42351e-19)
(1.01729 0.010537 1.77333e-19)
(0.0281567 1.32835 0)
(0.0330263 1.37561 0)
(0.043609 1.33354 0)
(0.0473321 1.28248 0)
(0.0793274 1.39541 -8.06326e-20)
(0.082965 1.36949 2.31362e-20)
(0.0877264 1.56022 4.62831e-21)
(0.0950668 1.39564 -3.64445e-20)
(0.0386013 1.47245 4.37824e-20)
(0.0431001 1.46768 -3.4385e-20)
(0.067362 1.38542 -1.89072e-20)
(0.0567993 1.38797 7.43063e-20)
(0.0500584 1.36392 1.17141e-20)
(0.040477 1.38522 7.38402e-21)
(0.100206 2.3801 -1.0687e-19)
(0.0903935 2.42277 0)
(0.145909 2.02157 9.33522e-20)
(0.127775 1.70128 3.28916e-20)
(0.214319 2.02673 -7.50947e-20)
(0.220511 2.42719 0)
(0.223551 2.4051 -6.03239e-19)
(0.305865 2.38343 4.51557e-19)
(0.249651 1.99377 -2.00171e-19)
(0.142136 2.15832 1.38233e-19)
(0.112608 2.26053 0)
(0.0176156 1.86325 -9.26883e-21)
(-0.00431852 2.38851 -1.52135e-20)
(0.00356344 2.1426 0)
(0.00686486 2.45037 -1.6289e-20)
(0.0265825 2.29011 1.60672e-20)
(0.0104485 1.41417 -9.96832e-21)
(0.00994781 1.39886 1.68988e-19)
(0.00868777 1.4052 -5.34979e-20)
(0.0167673 1.40744 -4.93002e-20)
(0.0217061 1.43846 0)
(0.0069809 1.38828 0)
(-0.00225704 1.30045 -6.36109e-20)
(0.00340341 1.37395 1.81005e-20)
(0.00707871 1.37599 0)
(0.00590811 1.29605 -4.91637e-20)
(0.0124755 1.22255 9.80879e-20)
(1.04232 0.0148541 0)
(1.04884 0.0103366 -6.40338e-20)
(1.03904 0.0240869 -4.63248e-19)
(1.04945 0.0230527 0)
(1.05453 0.0223449 0)
(1.03626 0.0128589 -6.79479e-21)
(1.03014 0.0132263 7.46016e-19)
(1.03189 0.0172886 9.04842e-19)
(1.02556 0.0210157 0)
(1.0219 0.0215016 0)
(1.0355 0.0258171 4.62194e-19)
(1.02552 0.0280333 0)
(1.02319 0.0282768 0)
(-0.0215157 2.02944 0)
(-0.00864202 1.6554 -2.11262e-21)
(-0.0103826 1.76298 -3.14534e-20)
(-0.00196158 1.38525 0)
(-0.00875503 1.55539 -2.59517e-20)
(-0.0136169 1.46385 1.69691e-20)
(-0.00541402 1.3977 0)
(0.407098 1.63854 0)
(0.36598 1.31819 -1.26447e-20)
(0.278856 1.34959 0)
(0.437613 1.31826 -5.71016e-20)
(0.471293 1.47087 0)
(0.457544 1.41524 4.91525e-20)
(1.04077 2.67558 -1.50399e-20)
(0.984502 2.41248 -8.88728e-19)
(0.946718 2.2111 1.0001e-18)
(0.865176 2.38711 2.39278e-19)
(0.8536 2.49293 0)
(0.922193 2.48809 0)
(0.953543 2.38674 0)
(0.929663 2.37726 -9.2552e-19)
(0.693487 2.45906 -3.71263e-19)
(0.801831 2.44252 -9.56598e-20)
(0.809339 2.42062 7.20969e-20)
(0.704344 2.40733 0)
(0.809605 2.40114 0)
(0.770547 2.41741 -3.62864e-19)
(0.766822 2.47221 0)
(0.62561 1.06855 0)
(0.515239 0.86738 -5.41356e-19)
(0.520196 0.937837 -3.13053e-20)
(0.501989 1.07702 0)
(0.488503 0.985971 8.29411e-19)
(0.794528 0.885261 -1.3032e-19)
(0.800856 1.01972 0)
(0.781404 1.0022 1.78634e-19)
(0.669185 1.0203 0)
(0.661634 0.927467 0)
(1.16422 2.75837 -2.13341e-19)
(1.13918 2.81669 -8.50111e-20)
(0.924353 2.34072 6.68161e-20)
(0.901168 2.3216 -7.3462e-20)
(1.13387 2.73616 0)
(1.08591 2.70406 8.82541e-20)
(1.10206 2.4992 -2.92319e-19)
(1.0037 2.25794 -2.84726e-20)
(0.500503 1.33816 0)
(0.519403 1.0827 -9.93364e-20)
(0.594171 1.18254 0)
(0.850021 0.226208 0)
(0.763997 0.175134 0)
(0.681559 0.140783 0)
(0.863474 0.227972 -6.07609e-19)
(0.756575 0.22246 3.5636e-19)
(0.912078 0.0871663 -3.91203e-19)
(0.928938 0.14227 0)
(0.912094 0.151675 1.70776e-19)
(0.842224 0.11183 6.84621e-19)
(0.790923 0.0766204 -4.32713e-19)
(1.09857 3.35213 -6.81483e-19)
(1.16566 3.27521 0)
(1.11706 3.43719 -1.58329e-18)
(0.657947 3.58285 1.31921e-18)
(1.02778 3.07959 1.27988e-19)
(0.52932 0.792621 5.58852e-19)
(0.5115 0.76128 0)
(0.35907 0.400613 -1.43844e-19)
(0.475347 0.638214 8.47321e-19)
(0.537632 0.378981 -1.92111e-19)
(0.512657 0.46563 2.25275e-19)
(0.686772 0.530258 4.64707e-19)
(0.732128 0.561971 0)
(0.654752 0.572745 0)
(0.633183 0.534266 0)
(1.01054 0.608224 8.90508e-20)
(0.963611 0.58855 -4.66601e-19)
(0.974318 0.602024 3.55875e-19)
(1.03947 0.5436 -3.44373e-19)
(1.08503 0.513531 0)
(1.08658 0.596909 -9.04366e-20)
(0.882364 0.410933 -7.67855e-19)
(0.871103 0.399931 -9.8736e-19)
(0.806054 0.395356 6.05551e-19)
(0.8167 0.359801 -6.28419e-19)
(0.856145 0.321821 -4.92815e-19)
(0.807172 0.323506 6.04063e-19)
(1.02657 0.00658692 -4.62545e-19)
(1.02619 0.0067112 9.31924e-19)
(1.0299 0.000859303 5.95113e-19)
(1.0341 0.00151759 -7.14604e-19)
(1.03387 0.0117058 0)
(1.02975 0.0118629 -1.16769e-18)
(0.0807475 1.6454 1.16796e-20)
(0.0583819 1.59289 0)
(0.0990163 1.69929 6.011e-20)
(0.110795 1.67551 -5.21327e-20)
(0.082562 1.55879 -8.45359e-21)
(0.0714594 1.55616 0)
(0.00394161 1.69192 0)
(-0.0061681 1.50148 1.36903e-20)
(-0.00674642 1.4424 -1.22942e-20)
(-0.0115244 1.55219 3.15387e-21)
(-0.0043249 1.89083 1.98894e-20)
(-0.015804 1.94499 -7.62381e-21)
(0.496118 1.36884 -2.46068e-19)
(0.498737 1.36516 2.69115e-19)
(0.450538 1.30912 -9.42478e-22)
(0.430976 1.29817 6.95906e-21)
(0.625944 1.30811 0)
(0.555382 1.402 1.24484e-19)
(0.555977 1.40371 -1.21248e-19)
(0.487154 1.29382 9.06685e-22)
(0.525433 1.25072 0)
(0.589555 1.21563 0)
(0.667637 2.42266 5.46664e-19)
(0.662285 2.45118 1.25668e-18)
(0.717869 2.46666 -8.63725e-19)
(0.615366 2.43925 -2.04516e-19)
(0.557969 2.53372 2.73788e-19)
(0.497193 2.49958 -7.113e-19)
(0.99298 2.39093 -5.63241e-19)
(1.02574 2.40871 0)
(0.95177 2.1952 -6.16884e-19)
(1.05664 2.68503 0)
(1.05569 2.66652 0)
(0.606411 2.29652 2.2927e-20)
(1.12059 3.0724 9.04549e-20)
(0.999656 2.97131 -1.41535e-19)
(0.326681 0.816286 0)
(0.330015 0.704137 -2.98893e-19)
(0.531304 0.636025 -3.00644e-19)
(0.370411 2.14034 0)
(0.405993 2.74592 -9.0072e-20)
(0.416041 2.48185 0)
(0.718644 0.680335 -7.91676e-19)
(0.782685 0.683992 1.10419e-18)
(0.791844 0.654598 -1.0465e-18)
(0.693073 0.640769 -1.00622e-19)
(0.754731 0.600064 -4.13389e-19)
(0.973502 2.75721 -6.85121e-20)
(1.01486 2.76266 -1.95858e-19)
(0.558012 2.21709 4.10872e-19)
(0.608297 1.74123 -3.2903e-19)
(0.7071 1.8592 -4.80356e-19)
(0.979239 2.39775 -1.36584e-19)
(0.978551 2.35164 3.514e-19)
(0.651324 1.77362 3.22953e-20)
(0.457338 1.30356 1.68621e-19)
)
;

boundaryField
{
    wall-4
    {
        type            noSlip;
    }
    velocity-inlet-5
    {
        type            fixedValue;
        value           uniform (1 0 0);
    }
    velocity-inlet-6
    {
        type            fixedValue;
        value           uniform (0 3 0);
    }
    pressure-outlet-7
    {
        type            zeroGradient;
    }
    wall-8
    {
        type            noSlip;
    }
    frontAndBackPlanes
    {
        type            empty;
    }
}


// ************************************************************************* //
