/*--------------------------------*- C++ -*----------------------------------*\
  =========                 |
  \\      /  F ield         | OpenFOAM: The Open Source CFD Toolbox
   \\    /   O peration     | Website:  https://openfoam.org
    \\  /    A nd           | Version:  6
     \\/     M anipulation  |
\*---------------------------------------------------------------------------*/
FoamFile
{
    version     2.0;
    format      ascii;
    class       volScalarField;
    location    "12";
    object      p;
}
// * * * * * * * * * * * * * * * * * * * * * * * * * * * * * * * * * * * * * //

dimensions      [0 2 -2 0 0 0 0];

internalField   nonuniform List<scalar> 
918
(
0.213048
0.978796
0.00575456
0.212602
0.000574463
0.947094
-0.820205
0.402303
0.193289
-0.13154
0.0232261
0.186951
0.804101
0.57305
-1.49469
0.0134642
0.356482
-0.670411
0.191086
0.00427768
0.471393
0.20069
0.203318
0.194347
0.244631
0.542695
0.682768
-0.000873115
-0.00212116
-0.00224516
0.00148783
-0.000725449
0.00622093
0.830249
0.882167
0.905233
0.163089
0.0289311
-0.71321
-0.770334
-0.759501
-0.851348
0.387812
0.389736
-0.501059
0.398787
0.40885
0.182614
0.192653
0.193427
0.195338
0.193851
0.195345
0.301178
-0.160028
-0.236698
-0.0798162
-0.0710143
0.0819965
0.0180058
0.00743179
0.0236639
0.0246967
0.122836
0.182087
0.176477
0.19135
0.202426
0.918964
0.892681
0.9186
0.829743
0.847135
0.78108
0.754339
0.593472
0.61711
0.558203
0.545893
-1.96274
-2.92211
-0.904943
-0.617063
0.0014506
0.0211605
0.0267467
0.33796
0.341218
0.350279
0.360221
0.797599
-0.633272
-0.823309
0.190919
0.188806
0.199516
0.200894
0.195611
0.196061
0.0110423
0.0175584
-0.00253522
0.00586572
0.00422335
0.45083
0.44574
0.19438
0.19074
0.209883
0.232885
0.222609
-0.0416199
0.264657
0.286217
0.379993
0.539913
0.532449
0.543007
0.658303
0.6256
0.713958
0.735216
0.00737178
0.00236823
0.00912392
0.00890127
0.00927104
0.160533
0.154898
0.171239
0.165235
0.16817
-0.0652566
-0.214108
0.110268
0.135852
-0.625357
-0.6769
-0.74333
-0.772463
-0.835475
0.109807
0.37817
0.382465
-0.515803
-0.43382
-0.57757
-0.37684
-0.440325
0.169366
0.178877
0.173508
0.188082
0.183504
0.184652
0.196588
0.193807
0.195517
0.331601
0.403957
0.251756
0.229231
-0.45854
-0.285262
-0.403533
-0.0325582
-0.0168217
0.0922553
0.104277
0.0717725
0.0698857
0.000635825
0.00517808
-0.00438343
0.0256198
0.0274219
0.117126
0.107486
0.131323
0.137917
0.173673
0.172808
0.176003
0.17673
0.705505
0.727715
0.734655
0.711295
-3.9094
-6.54751
-0.256822
-0.0912773
0.0024728
0.0023859
0.00174135
0.00132118
0.00290011
-0.000109437
0.0427086
0.037922
0.0299485
0.0336304
0.326061
0.326575
0.802878
0.854029
0.719726
0.708022
0.177035
0.181007
0.18717
0.183434
0.0283427
0.0219783
0.0305894
0.409361
0.426406
0.425825
-0.0791753
-0.164238
0.00819817
0.0352012
0.318064
0.296229
0.3234
0.44284
0.484441
0.7504
0.774917
0.759591
0.772513
0.823496
0.8463
0.81122
0.143162
0.152625
0.148062
0.178379
0.176114
0.17697
0.172243
0.173874
0.172969
-0.328975
-0.699847
0.18439
0.201661
0.180949
0.180384
0.225827
0.403653
0.358489
0.369521
0.372218
-0.321406
-0.376373
0.194538
0.178923
0.0614413
0.092456
0.0767228
0.682321
0.642022
0.690328
0.66535
0.630491
0.654721
-0.635505
-2.4234
-1.39842
0.318301
0.115009
0.210339
0.0597735
0.0470762
0.0484825
0.851738
0.877766
0.455494
0.602499
0.556977
0.511198
0.537429
0.59997
0.531843
0.565571
0.598622
0.572249
0.0614057
0.119857
0.0636779
0.523981
0.60779
-0.194664
-0.263363
-0.298704
0.115625
0.151352
0.13259
0.837712
0.680187
0.79112
0.192544
0.192693
0.0107064
0.0153947
0.195013
0.194582
0.00606571
0.0101993
0.216861
-1.27862
-0.1885
0.186438
0.17667
0.191452
-0.109409
0.285072
0.0214031
0.0915089
0.0597994
0.18037
0.133168
0.093358
0.00683313
0.0187865
0.0157577
-0.435908
0.18867
0.186659
0.190684
0.192365
0.192868
0.00952994
0.00944972
0.00635266
0.0123473
0.00848121
0.00911225
0.162709
0.171293
-0.476027
0.191094
0.193006
0.192678
0.188172
0.191425
0.190229
0.015339
0.0124383
0.0113539
-0.0890604
0.0352492
0.428097
0.522231
0.361515
0.181486
-0.113045
0.348665
0.410093
0.320192
0.471696
0.359351
0.375864
-0.142135
-0.273115
-0.111233
-0.177118
0.184085
0.18159
0.173462
0.16952
0.185274
0.184028
0.18867
0.187377
0.189639
0.190497
-0.0651059
-0.0582923
-0.147015
-0.223525
0.317217
0.407908
0.222731
0.234898
0.143539
0.0240207
0.0250796
0.0208609
0.00978384
0.0554871
0.0624029
0.0784556
0.0729844
0.0488838
0.0463905
0.0513377
0.0564709
0.0611365
0.175664
0.176106
0.17933
0.187843
0.139815
0.14341
0.111977
0.130138
0.120697
0.0684912
0.0951796
0.0730961
0.00753879
0.0102967
0.00818837
0.0232742
0.0292462
0.0136047
0.0133825
0.0121212
0.00946609
0.0109274
0.0191226
0.0230355
-0.471668
-0.551154
0.852585
0.66553
-0.102814
0.179585
0.183616
0.181404
0.185548
0.188276
0.188368
0.18592
0.184676
0.171728
0.175219
0.170001
0.169522
-0.441636
-0.584645
-0.378198
-0.454242
-0.138844
0.303024
0.0435702
-0.0162395
-0.025537
0.188099
0.364341
0.337887
0.453234
0.45237
-0.729579
-0.28977
-0.64107
-0.101716
-0.146956
0.44655
0.492116
0.511887
0.466693
0.417415
-0.319782
0.186234
-0.361807
-0.341381
-0.168627
-0.229054
0.405168
0.345267
0.35137
0.365866
0.389294
0.345995
0.333832
0.32732
0.357469
0.364585
0.179305
-0.0442132
-0.0971414
-0.135668
0.324044
0.211602
0.260056
0.181705
0.176342
0.179354
0.178606
0.165944
0.16824
0.165707
0.171403
0.172482
0.18183
0.181893
0.177384
0.17915
-0.0337124
-0.0152924
-0.124155
-0.331211
-0.251123
-0.344074
-0.194054
0.0943602
0.105609
0.0903859
0.235412
-0.00889343
-0.312315
-0.216953
-0.356283
-0.0112511
-0.120231
0.102138
0.153513
0.168823
0.1396
0.203529
0.187129
0.0364155
0.0451777
0.0307702
0.0297996
0.097207
0.119444
0.110981
0.0475517
0.0492882
0.0252808
0.0265989
0.0704865
0.0404952
0.0523242
0.0635793
0.0213616
0.0238712
0.0282089
0.0396517
0.0384927
0.041749
0.170791
0.173598
0.171296
0.185374
0.194535
0.207087
0.183029
0.158223
0.14912
0.153131
0.132204
0.135065
0.141338
0.147632
0.163956
0.169862
0.168775
0.169905
0.154762
0.156989
0.142823
0.148088
0.134458
0.117814
0.103334
0.0178575
0.0114403
0.0140598
0.0152456
0.00943336
0.0122342
0.0419014
0.0331836
0.0380898
0.0332821
0.0365914
0.0163868
0.0177752
-0.534534
-0.497563
-0.570951
-0.569185
-0.607658
0.777604
0.797856
0.648047
0.404972
0.434894
0.668248
0.760235
0.413317
0.485943
0.519788
-0.0124069
0.507535
0.183456
0.183298
0.180031
0.178725
0.180153
-0.348177
-0.263588
-0.233369
-0.203051
-0.011845
0.0904882
0.0873901
-0.213583
-0.0475852
-0.0179882
0.297083
0.309434
0.257224
0.27998
0.27532
0.114416
0.186299
0.228129
0.188148
0.237598
0.261239
0.21358
0.246006
0.191478
0.152166
0.15146
0.097262
0.123974
0.106669
0.0825343
0.171704
0.153552
0.162243
0.155425
0.173072
0.204926
0.199431
0.217389
0.236518
0.163139
0.122159
0.135241
0.161191
0.117199
0.129733
0.148398
-0.0698383
-0.144249
-0.0299051
-0.42592
-0.294179
-0.255591
-0.296514
-0.364652
-0.0504073
-0.71671
-0.628039
-1.31528
0.138781
0.522967
0.364151
0.379698
0.384801
0.360498
0.368084
0.393991
0.401403
0.31678
0.336008
0.338554
0.287042
0.321661
0.331531
0.336281
0.149049
0.080703
0.0706143
0.0239035
-0.105337
-0.0809768
0.110546
0.0461054
-0.0290868
-0.0316488
0.145433
0.0420239
0.104021
0.141954
0.0908073
0.0269497
0.234538
0.286317
0.283926
0.252802
0.166971
0.182563
0.199773
0.235875
0.265962
0.296272
0.169544
0.176078
0.178271
0.174205
0.17079
0.173589
0.173923
0.175273
0.175633
0.176827
0.175822
0.00855812
0.0187803
-0.00417291
0.00408444
-0.0121842
-0.0393172
0.0480031
-0.0331528
0.0319359
0.0276007
-0.00916332
-0.015366
-0.00351756
0.0156047
0.148503
0.170048
0.163767
0.117254
0.150284
0.352104
0.310679
0.264658
0.17061
0.220167
0.313958
0.0807581
0.0915863
0.0768445
0.101714
0.0960848
0.0280684
0.0270227
0.0317867
0.0405736
0.0361391
0.0305315
0.0257655
0.0255627
0.0286061
0.0276526
0.0274886
0.157323
0.152801
0.154522
0.148023
0.146938
0.160277
0.163229
0.164707
0.169309
0.170465
0.16307
0.16712
0.16999
0.027632
0.0224951
0.0238507
0.0231068
0.0243434
0.0209396
0.0203639
-0.578434
-0.618792
-0.567374
-0.638848
-0.552655
-0.597141
0.0698862
-0.101121
0.0551969
0.338146
0.185486
0.113372
0.1155
0.220984
-0.257931
0.0754485
-0.149823
0.646045
0.477071
0.61565
0.214522
-0.106764
0.0438045
0.0731104
-0.0660395
0.0178772
0.00321229
-0.11808
-0.0910183
-0.0554775
0.0352081
-0.0364767
-0.0144498
-0.198837
-0.0116127
-0.0272583
-0.0539467
0.108596
0.180812
-0.0168523
-0.0880745
-0.190706
0.280116
0.298636
0.314284
0.291256
0.309286
0.24176
0.231093
0.250911
0.258922
0.254615
-0.970929
-0.564167
-1.77469
-1.20154
-0.774736
0.156075
0.138316
0.365581
0.288885
0.365467
0.354634
0.304702
0.271777
0.282165
0.319126
0.0292507
0.133407
0.0952227
0.120647
0.0553651
-0.0155228
0.247695
0.252597
0.278683
0.307557
0.272549
0.310303
0.16779
0.168644
0.167433
0.165321
0.160981
0.163148
0.0860557
0.0632237
0.0976881
0.081581
0.0524276
0.0479222
0.0332575
0.0293978
0.0266828
0.0276863
0.0312606
0.0355796
-0.266181
-0.395721
-0.607133
-0.604932
-0.37465
-0.479363
-0.47796
-0.470152
-0.350734
-0.319074
-0.0103712
0.438008
0.170555
0.447069
0.125259
0.342443
0.131887
0.183824
0.200895
0.0572142
0.0933541
-0.319807
-0.495856
-0.566199
0.416552
0.373328
0.180215
-0.0697779
-0.214583
0.0931163
0.185206
0.149891
0.190184
0.238055
0.235539
-0.334
-0.251494
-0.182884
0.0990861
-0.0464958
-0.0531567
-0.0269799
0.0675139
0.042906
)
;

boundaryField
{
    wall-4
    {
        type            zeroGradient;
    }
    velocity-inlet-5
    {
        type            zeroGradient;
    }
    velocity-inlet-6
    {
        type            zeroGradient;
    }
    pressure-outlet-7
    {
        type            fixedValue;
        value           uniform 0;
    }
    wall-8
    {
        type            zeroGradient;
    }
    frontAndBackPlanes
    {
        type            empty;
    }
}


// ************************************************************************* //
