/*--------------------------------*- C++ -*----------------------------------*\
  =========                 |
  \\      /  F ield         | OpenFOAM: The Open Source CFD Toolbox
   \\    /   O peration     | Website:  https://openfoam.org
    \\  /    A nd           | Version:  6
     \\/     M anipulation  |
\*---------------------------------------------------------------------------*/
FoamFile
{
    version     2.0;
    format      ascii;
    class       surfaceScalarField;
    location    "12";
    object      phi;
}
// * * * * * * * * * * * * * * * * * * * * * * * * * * * * * * * * * * * * * //

dimensions      [0 3 -1 0 0 0 0];

internalField   nonuniform List<scalar> 
1300
(
3.75095
5.62643
-6.24484
3.75095
-6.1051
5.62643
-4.38002
4.38002
-1.47541
1.47541
1.87663
1.87433
-4.62288
4.62288
-4.83933
4.83933
-2.84751
2.84751
-5.24767
5.24767
-5.06815
5.06815
4.731
-4.731
-4.93704
4.93704
-1.90317
1.90317
-4.1673
4.1673
3.17675
-3.17675
-5.14008
5.14008
-0.550482
0.550482
-0.554052
4.30501
3.1969
3.1969
-2.57075
2.57075
-4.85994
4.85994
6.22131
-6.22131
9.46996
-9.46996
-3.22513
-3.39586
1.36206
-8.11441
-4.74304
-4.74304
-8.44108
8.44108
-2.81465
2.81178
2.9642
-2.9642
-1.63305
1.63305
-4.4014
0.0213831
-4.4014
4.3378
0.0422173
4.3378
-1.61113
0.135715
-1.61113
4.09405
-4.09405
1.31675
0.158656
1.31675
3.0679
-3.0679
-1.87691
3.75354
1.87405
-1.8727
6.17771
-1.87825
3.75258
-4.98938
4.98938
-4.5821
-0.0407802
-4.5821
4.66233
-0.0394491
4.66233
-5.25809
5.25809
-4.76088
-0.0784556
-4.76088
4.92734
-0.0880094
4.92734
3.06326
-3.06326
-2.87624
0.0287333
-2.87624
2.79911
0.0483992
2.79911
0.353672
5.27276
-5.9801
8.79188
-5.27276
0.0250837
5.2097
0.0379763
5.2097
-5.10456
0.0364096
-5.10456
5.00965
0.0584988
5.00965
4.82406
-0.0930536
4.82406
-4.84397
0.112968
-4.84397
-3.32577
-3.32772
-5.02661
0.0895711
-5.02661
-1.93616
0.0329938
-1.93616
1.86618
0.0369902
1.86618
-3.59274
3.59274
-4.12696
-0.0403426
-4.12696
3.13875
0.0379992
3.13875
1.86673
1.88423
5.61768
-5.61768
2.44093
-5.12097
-0.0191045
-5.12097
-5.17018
-4.29978
5.17018
-0.0301026
-0.855951
0.30547
-0.855951
3.1593
0.0375995
3.1593
2.71423
0.0848853
-2.71423
0.143476
3.47581
-3.47581
1.91787
0.652877
1.91787
-5.56535
5.56535
4.95454
0.055114
-4.95454
0.0945921
6.15716
0.0641483
6.15716
-6.20696
-0.0143513
-6.20696
3.37614
-6.772
-3.39857
4.84432
0.0927152
-4.84432
0.10128
2.97275
-0.00855018
2.97275
-2.92914
2.92914
-2.98702
0.0228233
-2.98702
-2.07478
0.441734
-2.07478
1.2969
0.336155
1.2969
-4.35407
-0.0473358
-4.35407
-4.27297
0.146015
4.27297
0.0648274
0.637043
-0.637043
-1.75552
0.144394
-1.75552
-4.18979
-0.164281
4.18979
-0.0957387
-4.03337
-0.0606714
-4.03337
-3.02825
0.0412336
3.02825
0.0396478
3.11457
0.0447331
-3.11457
0.0466673
-1.87108
3.7553
-1.87988
3.75392
-4.79259
-0.196794
-4.79259
5.12506
-0.135671
5.12506
4.40571
-0.238409
-4.40571
-0.176386
4.70742
-0.0450924
4.70742
-5.22148
-0.0366131
-5.22148
5.27534
-0.0172504
5.27534
4.71471
-0.00729256
-4.71471
-0.0461647
5.00989
-0.0825464
5.00989
3.11806
-0.0548005
3.11806
-3.02684
-0.0364175
-3.02684
2.9081
-2.9081
2.89922
0.00887765
-2.89922
0.0229764
-11.1257
11.1114
-0.0366699
-11.0891
5.17303
5.17303
4.25472
0.569336
4.25472
-5.02842
0.184449
-5.02842
3.33506
-6.73364
3.35786
-6.68363
3.32591
-11.4403
3.34304
-6.67076
5.16847
-5.16847
5.10436
0.0641093
-5.10436
0.0777494
-1.98835
0.0521887
-1.98835
-3.1272
-0.465545
-3.1272
4.04227
-0.449532
4.04227
-3.04981
3.04981
-3.09562
0.0458135
3.09562
0.0431247
5.07483
-0.0649405
-5.07483
-0.0461438
1.08721
0.229541
-1.08721
0.231263
3.67201
-0.196197
3.67201
-3.29561
-0.180198
-3.29561
-1.96975
-0.0186011
1.96975
-0.0518755
-5.81282
0.247463
-5.81282
-11.1821
0.0929984
-11.1441
-6.11396
-6.11396
2.32712
11.119
-2.99448
-0.0323642
2.99448
-0.0217319
2.98725
0.0625609
-2.98725
0.0581078
-2.91143
0.00333382
2.91143
0.0177083
-2.47291
0.398125
-2.47291
-0.837306
0.837306
-1.04872
0.211411
1.04872
0.248178
1.03885
-0.401806
1.03885
1.81473
0.0514435
-1.81473
0.0592132
-3.95575
-0.0776235
-3.95575
5.19061
-0.0655561
5.19061
-3.18466
-0.11095
3.18466
-0.066602
-0.0348825
11.1463
-5.13814
0.0335862
5.13814
-11.2104
11.244
-3.20643
0.733517
3.20643
1.0483
5.29183
0.273525
-5.29183
0.263407
5.22765
0.047698
-5.22765
0.0591774
-2.67554
-0.451655
-2.67554
-4.47929
-0.313302
4.47929
-0.437014
-11.4833
-0.199979
11.6833
-11.4248
6.0128
0.14437
-6.0128
11.3884
-0.566353
-0.0706894
0.566353
0.270953
1.51737
-0.478522
1.51737
3.85951
-0.187498
-3.85951
-0.0962455
-5.19829
-0.0231888
5.19829
-0.00768026
-2.05622
-0.619321
2.05622
-0.538851
-4.26716
4.30476
1.91055
-3.3627
-3.4093
-7.66248
1.85828
1.89703
4.29921
-7.05496
-4.38536
-6.95368
7.23489
-6.97149
-9.40172
9.30867
7.41907
-7.47974
-5.767
5.81012
6.41185
-6.3722
1.87887
1.87467
9.65291
-9.69369
-11.4862
11.2894
10.1739
-10.2523
10.8972
-10.9338
-12.4714
12.5191
-5.75145
5.78019
-6.6212
6.58478
-6.79922
6.73262
-3.28875
-3.39488
9.11065
-9.02108
11.757
-11.7761
-8.02602
7.98568
3.39208
0.912678
3.43681
-1.8835
3.76237
-1.86908
3.77963
3.38941
-6.67816
3.34423
-6.75353
6.06726
5.68969
-6.03716
-1.62532
-5.85051
5.84196
-5.86103
5.87874
8.9028
-8.88142
-1.88259
3.75726
-1.87133
3.76836
-3.41353
-2.35347
3.37553
0.923683
5.58712
3.52353
-5.67983
-1.27385
-7.62145
7.43395
-7.88243
7.70223
-0.458727
5.84119
-5.38246
4.40122
-1.62951
7.4707
5.60538
5.78983
5.86598
-5.59246
1.1055
-6.48796
-6.39337
-2.71023
2.85462
2.65625
-2.49759
5.86214
1.55693
5.76641
-5.45787
-2.02187
-5.53549
3.79879
2.01133
3.8446
4.00935
2.40249
4.05059
3.04672
-3.03557
-0.0111524
-3.06026
6.10698
0.721687
-5.41373
-4.49005
6.56891
3.084
6.52946
-6.04385
-3.64985
-6.22023
-6.96827
-4.51794
-7.28157
7.16077
4.12865
7.0251
-8.20081
8.19313
6.80346
3.37039
6.71545
-6.73454
-3.51777
-6.78071
10.5586
-2.64227
-7.9163
-7.0111
-5.46034
7.02835
3.86884
7.57954
4.9396
7.63872
3.58213
6.97644
-7.45098
1.99064
-3.83656
-1.91489
-3.81359
3.7423
2.03788
3.7907
-4.14157
-2.47963
-4.17393
-4.20969
-2.58953
4.26449
2.32029
-4.31287
-3.56956
4.42382
2.3088
3.05638
-7.44174
3.61438
-7.00926
-6.35027
-2.67081
-6.27252
4.1251
2.613
-6.7381
-2.55306
10.9319
-5.24222
9.30659
-7.31391
-4.46214
-7.36006
-5.99899
-2.02704
-5.85297
-7.75411
7.30245
-7.04315
6.59361
14.2652
-5.31442
-8.95081
-3.95712
-2.41508
3.91045
-0.47364
-3.72003
3.70888
0.0423371
3.82197
4.73464
4.261
-3.88956
-1.97147
-3.83145
3.869
2.00974
3.87234
6.58252
2.32029
6.62474
-6.43945
-2.44197
-6.48678
9.02142
-8.57969
2.91768
-2.93628
5.13084
2.57139
-4.93465
-2.68681
6.02106
-3.03188
-2.98918
-12.3612
10.8952
1.46602
-4.89053
-0.489315
0.0611663
-5.61211
-3.78961
5.49914
0.290695
11.1859
7.3963
-5.51593
5.76339
6.16733
6.22244
-0.170931
5.89214
-5.15862
5.22652
-2.41774
-2.80878
5.30617
-5.47045
-1.18062
-5.33044
4.14983
0.295958
1.91197
-1.6065
-2.1241
-0.586129
-2.06489
1.59463
1.06162
1.82417
1.01167
1.84295
-2.88139
0.518929
2.36246
-1.86971
-1.97866
-3.53676
-0.930877
4.46763
5.40281
2.03114
-5.30657
-0.228926
2.78749
-2.7505
-0.831918
-2.70484
1.96812
-2.80004
-3.36065
-1.88103
5.24167
-3.36275
-0.468703
3.30019
0.544416
-3.73864
-2.11187
3.71582
0.334768
-3.11557
6.19691
-3.08135
-5.08704
2.54901
3.55797
4.56035
-4.83785
2.45925
2.3786
-1.27988
5.78968
0.739783
5.74459
-8.29304
4.6432
6.15347
1.83222
-5.91506
-0.305178
-8.59822
10.4391
-8.05747
-2.38166
6.16714
4.27199
6.08415
8.18109
-5.83509
11.9192
0.884033
-8.9415
7.71419
-5.88197
3.74217
-9.62414
-11.9233
2.98176
-7.53115
8.75203
-1.22088
-2.3557
-5.84511
9.88686
-1.11444
-8.77242
5.91067
-5.43858
-5.34772
10.7863
-8.08086
8.86548
-2.74707
-6.11841
-6.87372
-4.06009
6.8969
1.29623
-9.97218
11.9628
-2.99574
5.93331
0.782149
5.85076
4.05881
-5.98694
1.92813
4.02205
-6.76912
2.9833
-8.97024
-4.91184
9.58831
-4.67648
-7.58264
-6.78505
-0.797598
2.02872
9.9341
-6.96832
5.35474
1.61358
3.33679
0.535544
-3.34567
-0.467916
0.348276
4.43675
-4.78503
4.13898
4.22386
3.31568
1.12107
3.82436
2.0176
-3.80263
-0.371302
-4.01702
1.42748
-1.69672
-3.49403
4.92151
-3.92576
0.431735
-2.62966
-3.47975
6.1094
-4.54455
3.06101
3.1359
5.07075
-4.83541
1.35566
-2.39825
-2.43716
2.5701
-4.26682
1.85652
3.06499
4.16532
0.595764
4.87651
4.7118
-7.48951
0.480256
8.23533
-6.96148
1.70974
5.92898
-7.06448
0.279431
-5.99309
1.10059
-6.34281
-5.6375
3.67337
-5.70041
-5.95077
5.67866
0.946078
-5.74349
-0.109486
-5.34547
-2.40864
-5.96479
-2.12683
-4.91631
-7.96192
-1.92059
-6.04133
5.38186
-4.91272
-2.36885
5.34973
1.24388
-7.49281
7.42212
-7.59483
7.11631
0.0689713
3.63991
4.32998
1.91489
-2.36003
4.27492
-4.78303
7.10332
-8.73805
3.95502
4.10709
-6.54906
-4.63096
4.9391
4.08232
5.27525
9.39803
-10.3534
0.955409
-11.0494
13.0976
-2.04812
-17.1034
6.05394
-7.70535
2.62749
0.290189
2.67968
0.664791
2.31586
-2.98065
-2.27149
-2.32337
-2.25172
-3.23738
5.4891
1.17722
-3.21351
2.03629
-3.46379
4.64101
0.038986
-3.2525
5.06653
-2.75067
5.35672
-3.4248
1.93192
3.27038
5.50422
-2.23384
4.15544
-1.58405
1.76875
-4.00259
-1.46863
-2.96588
5.00376
-3.14352
3.57526
-0.218733
3.79399
-3.96781
0.935929
-0.65213
3.57173
3.71521
4.15129
-3.03022
2.84048
-4.42453
-1.16211
-3.82876
-0.763777
-0.605747
-3.76877
4.37452
5.90161
-6.50736
-5.40861
9.56187
-4.15327
7.69803
-5.51135
-2.18668
-4.26638
-4.3133
3.86826
2.02388
9.72191
0.132745
-5.6441
-5.02587
-3.97758
3.21457
2.01195
-2.10892
3.57494
2.04775
-0.135778
0.628385
1.19579
1.88122
-1.25284
0.179455
1.70177
-1.42705
2.06153
0.72596
-2.11298
0.0480909
-1.38901
3.35714
0.973444
-2.03506
0.782224
0.999292
-3.41703
4.56586
-2.24573
-2.32012
5.56515
1.24629
-3.49203
4.08415
-3.78819
2.29024
-3.22112
-1.20178
-4.98997
-3.43305
-2.42723
4.46352
-3.06188
5.09302
1.10287
-4.86409
5.96696
-3.48895
1.60793
-3.04615
3.77211
-1.15205
-1.89409
2.64634
2.59533
-2.81858
0.113742
-0.172241
2.16627
-2.33851
-0.633768
-2.50348
-4.52984
4.86461
-2.14757
4.60682
2.12735
-1.92762
6.53444
1.83441
-3.76204
-3.25263
-3.72133
-1.38344
3.17691
-1.00961
-5.77109
-7.12803
5.77839
-0.0337978
-8.52152
10.2079
-1.68635
-5.43751
0.794319
5.37282
-7.66759
0.898474
-4.68429
5.52357
6.26335
6.22955
-9.11054
0.338124
-4.9819
1.89453
-6.87642
6.16652
-4.57812
7.55989
-8.58499
6.21614
-7.34112
5.17823
-1.6982
5.60344
-3.67531
2.31286
-6.37295
-5.07672
7.0085
-3.63811
7.79065
-4.15245
11.9431
-7.14819
6.9859
4.95719
-1.4316
-5.92846
-6.84327
5.41166
0.142638
5.9934
4.91401
-2.89641
4.54271
2.20374
-4.60199
-2.06308
-6.44532
1.84333
-3.30942
-1.87839
3.72172
3.19236
3.72791
1.28456
-3.25999
6.71689
-7.51449
-2.04041
-3.59709
6.74932
-1.33766
4.05563
-7.65272
-2.28718
7.18229
-1.78887
-5.39342
-1.86787
-4.0829
1.54229
-5.6252
4.15812
-4.2676
2.26024
-9.9656
-5.23257
-4.96161
-2.44351
-5.15132
-7.92293
5.47943
-1.86899
5.55313
-9.20801
7.41914
-3.88955
9.36898
-5.18175
-0.783041
5.7206
1.3957
10.7647
-0.0271488
-4.60381
-1.77667
3.86694
-2.09027
1.4379
-3.79592
0.0710225
2.33353
3.23162
-6.48336
-0.0657063
-4.66952
-3.84753
7.92985
5.71435
11.616
1.26252
9.17302
-1.24318
10.4355
4.03208
4.28025
-3.75558
4.71099
0.618941
4.57396
-0.8245
2.75642
1.85518
1.88818
0.862327
2.26755
1.44766
3.20348
0.222833
-2.10054
4.69739
-8.67497
-0.946705
-8.10564
1.20303
5.59429
-4.39126
3.00561
-0.99366
0.915334
0.165225
-1.79228
1.62705
-2.64356
-1.92805
-0.226286
-1.48262
2.26485
1.87451
-2.03856
-0.604994
0.23983
-3.67288
2.98129
-2.86755
-0.272213
5.69475
-2.60665
0.268138
-0.998725
-2.23534
-2.82147
2.77338
6.21448
0.319959
3.13314
5.18457
3.0727
0.176286
5.05747
-6.27835
-3.91277
-5.94022
0.226295
5.59911
2.08484
7.84925
7.04204
5.70438
-1.94835
-9.46283
8.45591
-3.74492
6.40779
-1.01437
-4.61083
4.16618
2.93714
-5.11226
0.844656
-3.76617
-7.5111
-1.04542
8.46456
-9.71926
8.93622
6.52758
-0.486251
-4.29507
-0.666542
4.08366
0.196591
10.6321
-0.999907
-7.21337
8.21327
-4.59438
3.64768
0.832351
2.74258
2.4594
1.46574
-5.74762
-10.1389
-1.8127
-1.60433
-4.13282
0.334814
-2.20933
6.15113
-2.50346
3.96446
5.70981
6.62515
-2.29023
-4.21713
6.4435
-2.47904
4.14611
)
;

boundaryField
{
    wall-4
    {
        type            calculated;
        value           uniform 0;
    }
    velocity-inlet-5
    {
        type            calculated;
        value           uniform -3.75095;
    }
    velocity-inlet-6
    {
        type            calculated;
        value           uniform -5.62643;
    }
    pressure-outlet-7
    {
        type            calculated;
        value           nonuniform List<scalar> 8(6.24484 6.1051 6.62098 6.75235 6.65348 6.77472 6.69293 6.66895);
    }
    wall-8
    {
        type            calculated;
        value           uniform 0;
    }
    frontAndBackPlanes
    {
        type            empty;
        value           nonuniform 0();
    }
}


// ************************************************************************* //
