/*--------------------------------*- C++ -*----------------------------------*\
  =========                 |
  \\      /  F ield         | OpenFOAM: The Open Source CFD Toolbox
   \\    /   O peration     | Website:  https://openfoam.org
    \\  /    A nd           | Version:  6
     \\/     M anipulation  |
\*---------------------------------------------------------------------------*/
FoamFile
{
    version     2.0;
    format      ascii;
    class       volScalarField;
    location    "25";
    object      p;
}
// * * * * * * * * * * * * * * * * * * * * * * * * * * * * * * * * * * * * * //

dimensions      [0 2 -2 0 0 0 0];

internalField   nonuniform List<scalar> 
918
(
0.206449
0.960435
0.0114232
0.206223
-0.00780096
0.928447
-0.82909
0.382676
0.187443
-0.437255
-0.420834
0.180445
0.785324
0.552474
-1.51225
-0.138037
0.34129
-0.729313
0.185243
-0.0323227
0.430938
0.194281
0.196742
0.18749
0.243322
0.512991
0.662537
0.0121361
0.0051722
0.00189169
-0.00578689
-0.0356056
-0.048197
0.811576
0.863519
0.886651
0.155198
-0.0147095
-0.711102
-0.769342
-0.742755
-0.86542
0.373648
0.376265
-0.507134
0.382059
0.392095
0.173495
0.18677
0.187601
0.188961
0.187702
0.189057
0.0974397
-0.447323
-0.479247
-0.420477
-0.417468
-0.213816
-0.439441
-0.436727
-0.40429
-0.364007
0.108939
0.177263
0.174846
0.185203
0.193819
0.900608
0.87431
0.900321
0.811175
0.828696
0.76222
0.735013
0.573725
0.597016
0.535834
0.522122
-1.98417
-2.95223
-0.922006
-0.634127
-0.00214305
-0.162259
-0.194136
0.328165
0.328173
0.340732
0.350567
0.699229
-0.721914
-0.847467
0.185645
0.184172
0.193659
0.194566
0.189493
0.189527
-0.057453
-0.0969493
-0.0122722
-0.0200873
-0.0215918
0.417803
0.413945
0.186934
0.184431
0.204057
0.22786
0.216107
-0.0563099
0.252702
0.270223
0.3648
0.516535
0.506195
0.517744
0.638299
0.605755
0.69381
0.715545
0.00155827
0.00375012
-0.118763
-0.0609819
-0.0832701
0.151461
0.145734
0.17046
0.15887
0.16169
-0.110309
-0.263362
0.0667441
0.088724
-0.625502
-0.67174
-0.791412
-0.774678
-0.862788
0.216266
0.370152
0.369538
-0.526365
-0.444617
-0.578536
-0.385987
-0.445607
0.164941
0.170766
0.167151
0.18208
0.176289
0.178722
0.190879
0.187993
0.18959
0.160863
0.287062
0.024566
0.00980566
-0.582935
-0.496382
-0.574226
-0.405566
-0.41295
-0.213945
-0.190683
-0.226953
-0.231778
-0.411019
-0.429281
-0.41735
-0.330241
-0.276334
0.10095
0.0897977
0.118837
0.125531
0.16826
0.169358
0.172521
0.170794
0.685724
0.709017
0.714954
0.691082
-3.95187
-6.62801
-0.276062
-0.109926
-0.00130358
0.00307522
0.00107212
0.00869071
0.00305265
-0.00297065
-0.288895
-0.289379
-0.231855
-0.261229
0.318584
0.319256
0.661172
0.686115
0.652789
0.637743
0.174934
0.176977
0.181548
0.178495
-0.227967
-0.137174
-0.176658
0.390378
0.403095
0.40168
-0.094765
-0.179255
-0.00975727
0.0191484
0.308667
0.280935
0.301313
0.426924
0.466121
0.732412
0.756885
0.740569
0.753663
0.804781
0.827776
0.79286
0.131353
0.142067
0.136509
0.173703
0.171227
0.172278
0.167536
0.16911
0.167005
-0.377811
-0.75717
0.144242
0.15701
0.125651
0.13217
0.29554
0.378952
0.348734
0.361577
0.362518
-0.335492
-0.387505
-0.0393774
-0.076552
0.0462659
0.0782043
0.061659
0.661348
0.621744
0.669753
0.645322
0.609501
0.634201
-0.695411
-2.48915
-1.46821
0.304656
0.101859
0.196223
-0.24887
-0.267517
-0.271277
0.685783
0.723876
0.347706
0.526809
0.478995
0.490603
0.517773
0.580354
0.511293
0.546846
0.578947
0.554867
0.184794
0.142998
0.152923
0.461168
0.521776
-0.214149
-0.285725
-0.312301
-0.178252
-0.141755
-0.152644
0.694819
0.584646
0.656435
0.184686
0.185611
-0.00605305
-0.0102679
0.189524
0.189251
-0.00176784
-0.0278472
0.214678
-1.28929
-0.20264
0.178779
0.168948
0.185449
-0.411922
0.0280366
-0.448689
-0.241364
-0.301597
0.175764
0.119468
0.0821953
0.00967603
-0.116324
-0.0693165
-0.51095
0.1824
0.180877
0.184903
0.185788
0.186499
-0.00351052
-0.0118036
-0.00313037
-0.0538382
-0.0235481
-0.0249408
0.15039
0.168068
-0.504587
0.185062
0.187175
0.186907
0.180882
0.185879
0.184458
-0.0736654
-0.0481863
-0.0995328
-0.110714
0.0146873
0.407665
0.48997
0.351164
0.17808
-0.129363
0.337806
0.394034
0.314674
0.450645
0.357371
0.364955
-0.144773
-0.280399
-0.137719
-0.19788
0.176009
0.175166
0.166654
0.163904
0.180303
0.178133
0.183051
0.180126
0.183174
0.184457
-0.378157
-0.406211
-0.414461
-0.470136
-0.00994418
0.246973
-0.0754269
-0.036071
-0.17078
-0.476345
-0.420809
-0.455789
-0.437338
-0.453409
-0.314995
-0.282125
-0.252519
-0.315223
-0.348685
-0.502655
-0.401241
-0.419882
0.170334
0.170837
0.175416
0.182295
0.128499
0.131787
0.100443
0.118107
0.104239
0.0514262
0.0803464
0.0579184
0.00101468
0.00634668
0.0049258
-0.127302
-0.234612
-0.0557448
-0.0290609
-0.0245194
-0.0241283
-0.0309373
-0.118319
-0.145795
-0.486852
-0.611932
0.639967
0.56357
-0.205419
0.172358
0.178129
0.175307
0.179727
0.182962
0.183676
0.181267
0.177841
0.168388
0.169863
0.1661
0.166595
-0.45184
-0.554438
-0.384425
-0.456665
-0.191049
0.295299
0.0240849
-0.0276142
-0.0412455
0.172267
0.375125
0.323554
0.410059
0.413275
-0.733463
-0.308751
-0.655694
-0.107185
-0.123014
0.430227
0.473146
0.490959
0.447612
0.402095
-0.372351
0.191843
-0.373674
-0.333803
-0.150461
-0.247055
0.385495
0.338797
0.345974
0.355033
0.373166
0.348006
0.325081
0.324386
0.350755
0.358637
0.165821
-0.0790638
-0.116192
-0.16465
0.320552
0.199406
0.25263
0.178549
0.171132
0.173797
0.172528
0.155117
0.162057
0.158324
0.163581
0.166909
0.175389
0.175593
0.171343
0.173533
-0.393491
-0.398632
-0.370569
-0.438498
-0.452429
-0.481219
-0.410248
-0.239233
-0.271209
-0.0893576
0.0286392
-0.292625
-0.395429
-0.381748
-0.331912
-0.183129
-0.128448
-0.225065
-0.149755
-0.131328
-0.152679
-0.0638005
-0.062316
-0.47139
-0.43603
-0.417452
-0.462149
-0.292865
-0.206116
-0.196126
-0.495514
-0.564196
-0.403897
-0.338805
-0.340299
-0.381345
-0.395686
-0.321554
-0.113928
-0.129652
-0.18996
-0.406778
-0.318259
-0.343406
0.166488
0.168316
0.168287
0.179764
0.188789
0.204337
0.173481
0.148016
0.139858
0.14286
0.117203
0.126477
0.1216
0.136147
0.157083
0.163001
0.161578
0.163566
0.148834
0.149682
0.136789
0.140628
0.114597
0.098326
0.0894631
-0.0570816
-0.033461
-0.0533309
-0.0610601
-0.0136097
-0.0322847
-0.316516
-0.229732
-0.286058
-0.246235
-0.352777
-0.0660075
-0.0774594
-0.401237
-0.33462
-0.508733
-0.555094
-0.607104
0.548422
0.670342
0.464936
0.261895
0.263854
0.494538
0.588927
0.237172
0.405978
0.448447
0.198849
0.476892
0.176412
0.175932
0.173784
0.172995
0.174307
-0.35814
-0.260415
-0.230256
-0.187749
-0.0697621
0.0387106
-0.061183
-0.166909
-0.0287613
-0.00418873
0.290433
0.303789
0.246682
0.272776
0.268012
0.0951312
0.173555
0.210309
0.167311
0.227331
0.259078
0.21097
0.250494
0.178152
0.136524
0.130786
0.0789569
0.113387
0.0934595
0.0670871
0.167468
0.146874
0.156849
0.148455
0.168013
0.195152
0.194027
0.214632
0.229298
0.150962
0.106433
0.121562
0.1459
0.106452
0.120386
0.139138
-0.181177
-0.27478
-0.105935
-0.428962
-0.335701
-0.299729
-0.339561
-0.391646
-0.0857073
-0.731301
-0.670754
-1.36211
0.132347
0.54245
0.350288
0.366417
0.372035
0.350902
0.358598
0.379147
0.387045
0.310354
0.32789
0.329846
0.281732
0.316201
0.323898
0.330913
0.157201
0.0725395
0.0694093
0.0111085
-0.116438
-0.0822735
0.092573
0.0311231
-0.0350706
-0.038942
0.138398
0.0129049
0.0854933
0.135697
0.0749535
0.00853784
0.225336
0.281585
0.268221
0.233352
0.153907
0.169529
0.19657
0.237106
0.260337
0.292218
0.162846
0.168924
0.169971
0.167233
0.165548
0.168278
0.168175
0.170605
0.171421
0.174044
0.173126
-0.411023
-0.389954
-0.381575
-0.399714
-0.331298
-0.346029
-0.299835
-0.330706
-0.345016
-0.33437
-0.357969
-0.373354
-0.37909
-0.37149
-0.214282
-0.206162
-0.215286
-0.254334
-0.107094
0.0774391
0.131147
0.00451742
-0.136341
-0.108857
-0.0290156
-0.32411
-0.330609
-0.369304
-0.261218
-0.267476
-0.483993
-0.450477
-0.450222
-0.559786
-0.505505
-0.367245
-0.19853
-0.23485
-0.286191
-0.286413
-0.230143
0.149631
0.143027
0.146035
0.139559
0.138325
0.152941
0.157091
0.158053
0.162569
0.164662
0.155931
0.160483
0.16414
-0.241937
-0.125585
-0.174952
-0.221814
-0.154883
-0.11541
-0.142695
-0.220634
-0.307568
-0.271258
-0.343745
-0.461729
-0.400735
0.126971
0.121816
0.128688
0.340899
0.193486
0.103107
0.190381
0.299376
-0.0805746
0.123247
-0.0466393
0.528518
0.418667
0.563048
0.205923
-0.105936
0.0492583
0.0635598
-0.100051
0.0216229
0.00302955
-0.118182
-0.0806146
-0.0643424
0.0162012
-0.0975122
-0.123764
-0.371259
-0.19959
-0.0683955
-0.0896911
0.0469255
0.105042
-0.109532
-0.186142
-0.233137
0.276645
0.297022
0.311438
0.282837
0.305935
0.23185
0.224149
0.241807
0.249792
0.242417
-1.00545
-0.596527
-1.79743
-1.19904
-0.749583
0.16587
0.144833
0.39904
0.303702
0.372427
0.354472
0.294498
0.257961
0.281616
0.314055
0.00798626
0.111941
0.0753878
0.0949805
0.0310471
-0.0415519
0.249754
0.249457
0.276593
0.301436
0.272027
0.300769
0.161641
0.161313
0.160012
0.156896
0.155669
0.158194
-0.262682
-0.295926
-0.259229
-0.275105
-0.289979
-0.301803
-0.385828
-0.36752
-0.289533
-0.268991
-0.286673
-0.339022
-0.194916
-0.247512
-0.32603
-0.284683
-0.35135
-0.424753
-0.430015
-0.343663
-0.251006
-0.267092
0.0437278
0.319479
0.148331
0.314568
0.104537
0.206105
0.120548
0.103674
0.139205
0.0142863
0.0964404
-0.356891
-0.54859
-0.610376
0.464632
0.418809
0.211853
-0.0522016
-0.157779
0.149804
0.182872
0.14327
0.179993
0.230302
0.221719
-0.359843
-0.247711
-0.205922
0.109373
-0.0844764
-0.0623955
-0.0713681
0.0799491
0.0537991
)
;

boundaryField
{
    wall-4
    {
        type            zeroGradient;
    }
    velocity-inlet-5
    {
        type            zeroGradient;
    }
    velocity-inlet-6
    {
        type            zeroGradient;
    }
    pressure-outlet-7
    {
        type            fixedValue;
        value           uniform 0;
    }
    wall-8
    {
        type            zeroGradient;
    }
    frontAndBackPlanes
    {
        type            empty;
    }
}


// ************************************************************************* //
