/*--------------------------------*- C++ -*----------------------------------*\
  =========                 |
  \\      /  F ield         | OpenFOAM: The Open Source CFD Toolbox
   \\    /   O peration     | Website:  https://openfoam.org
    \\  /    A nd           | Version:  6
     \\/     M anipulation  |
\*---------------------------------------------------------------------------*/
FoamFile
{
    version     2.0;
    format      ascii;
    class       surfaceScalarField;
    location    "25";
    object      phi;
}
// * * * * * * * * * * * * * * * * * * * * * * * * * * * * * * * * * * * * * //

dimensions      [0 3 -1 0 0 0 0];

internalField   nonuniform List<scalar> 
1300
(
3.75095
5.62643
-5.75573
3.75095
-5.67856
5.62643
-4.39874
4.39874
-1.15893
1.15893
1.87656
1.87439
-2.69506
2.69506
-2.27992
2.27992
-2.59009
2.59009
-5.24796
5.24796
-5.06882
5.06882
4.7303
-4.7303
-4.36753
4.36753
-1.55409
1.55409
-3.75884
3.75884
3.17385
-3.17385
-3.90929
3.90929
-0.368633
0.368633
-0.553743
4.3047
3.19721
3.19721
-2.21156
2.21156
-4.86899
4.86899
6.22239
-6.22239
8.64505
-8.64505
-2.88931
-3.42866
1.40166
-8.63163
-4.2769
-4.2769
-8.44105
8.44105
-2.81462
2.81181
2.9421
-2.9421
-1.72551
1.72551
-4.38507
-0.0136666
-4.38507
4.36159
0.0371432
4.36159
-1.29164
0.132713
-1.29164
3.93809
-3.93809
0.991091
0.167839
0.991091
3.06617
-3.06617
-1.87691
3.75347
1.87404
-1.8717
6.1764
-1.87925
3.75364
-5.88292
5.88292
-2.97772
0.282662
-2.97772
2.46942
0.225635
2.46942
-6.40026
6.40026
-2.18526
-0.0946579
-2.18526
2.52858
-0.248661
2.52858
2.8652
-2.8652
-2.67042
0.0803271
-2.67042
2.49606
0.0940334
2.49606
0.353551
5.27288
-5.97998
8.79179
-5.27288
0.0249233
5.21039
0.0375677
5.21039
-5.10512
0.0362972
-5.10512
5.01253
0.0562888
5.01253
4.82893
-0.0986302
4.82893
-4.84093
0.110632
-4.84093
-3.14736
-3.85064
-4.34274
-0.0247913
-4.34274
-1.56896
0.0148764
-1.56896
1.52008
0.0340058
1.52008
-3.53881
3.53881
-4.19333
0.434491
-4.19333
3.12877
0.0450801
3.12877
1.86815
1.88281
5.6191
-5.6191
2.44524
-3.56927
-0.340021
-3.56927
-4.22724
-4.4178
4.22724
-0.317956
-0.629075
0.260442
-0.629075
3.15695
0.0402619
3.15695
2.39491
0.101152
-2.39491
0.18335
3.29138
-3.29138
1.56512
0.646434
1.56512
-5.56253
5.56253
4.95904
0.0534948
-4.95904
0.0900497
6.15711
0.0652746
6.15711
-6.20796
-0.014427
-6.20796
3.04857
-6.47723
-3.63354
4.31998
0.0475458
-4.31998
0.0430866
2.91303
0.0290745
2.91303
-2.9268
2.9268
-2.98144
0.0393341
-2.98144
-2.16156
0.436047
-2.16156
1.39423
0.331283
1.39423
-4.25692
-0.128152
-4.25692
-4.29512
0.101784
4.29512
0.0664756
0.955968
-0.955968
-1.42134
0.129693
-1.42134
-4.06396
-0.192955
4.06396
-0.125873
-3.87492
-0.0631739
-3.87492
-3.02056
0.0391216
3.02056
0.0456115
3.11156
0.0453897
-3.11156
0.0453895
-1.87083
3.75363
-1.88013
3.75417
-5.5423
-0.340613
-5.5423
6.21747
-0.334558
6.21747
3.37537
0.383477
-3.37537
0.397649
2.33171
0.137714
2.33171
-6.5711
0.17084
-6.5711
5.9921
0.408153
5.9921
2.22748
0.104225
-2.22748
0.0422233
2.79845
-0.269871
2.79845
2.88221
-0.0170121
2.88221
-2.86675
0.00155373
-2.86675
2.81093
-2.81093
2.74645
0.0644832
-2.74645
0.0760276
-11.1236
11.1092
-0.0362438
-11.0874
5.17414
5.17414
4.28457
0.544355
4.28457
-5.02643
0.185506
-5.02643
3.0015
-6.63503
3.77854
-6.9259
3.77581
-12.4074
3.29515
-7.1458
4.89416
-4.89416
4.48775
0.406409
-4.48775
0.145009
-1.57087
0.00190607
-1.57087
-2.92903
-0.609782
-2.92903
4.2017
-0.662895
4.2017
-3.03078
3.03078
-3.07842
0.0476479
3.07842
0.0503493
3.19507
-0.396623
-3.19507
-0.374197
0.805518
0.185573
-0.805518
0.176443
3.52183
-0.230455
3.52183
-3.08049
-0.210888
-3.08049
-1.57251
0.00164012
1.57251
-0.00738704
-5.80873
0.246198
-5.80873
-11.1813
0.0938997
-11.1437
-6.11406
-6.11406
2.32699
11.1188
-2.88938
0.0226228
2.88938
0.0236507
2.97968
0.0510987
-2.97968
0.0528807
-2.86973
0.0587971
2.86973
0.0570713
-2.53989
0.378336
-2.53989
-0.979881
0.979881
-1.15786
0.177977
1.15786
0.236369
1.21673
-0.260766
1.21673
1.4921
0.0279794
-1.4921
0.0707661
-3.82125
-0.0536658
-3.82125
6.45868
-0.241203
6.45868
-2.94489
-0.135599
2.94489
-0.0626766
-0.0350214
11.1442
-5.13912
0.034005
5.13912
-11.2095
11.2435
-3.25542
0.715525
3.25542
1.02915
5.2902
0.272329
-5.2902
0.263768
5.45321
0.538888
-5.45321
0.559057
-2.42195
-0.50708
-2.42195
-4.94122
-0.601087
4.94122
-0.739511
-11.482
-0.202457
11.6845
-11.4257
6.01119
0.145929
-6.01119
11.3894
-0.896731
-0.059237
0.896731
0.0831501
1.54759
-0.330852
1.54759
3.73482
-0.212989
-3.73482
-0.0864311
-6.58433
0.0132358
6.58433
-0.125654
-1.97456
-0.447389
1.97456
-0.426973
-4.2665
4.30676
1.9099
-2.76692
-3.71031
-7.18472
1.85369
1.89995
4.29893
-7.8344
-4.57304
-7.79131
7.21632
-6.95255
-9.39115
9.29252
7.56922
-7.63239
-5.77841
5.82876
6.4834
-6.43779
1.87891
1.87456
8.02669
-7.74403
-15.6929
15.3523
5.93616
-6.03082
16.0518
-15.881
-17.9053
18.4442
-5.75029
5.83061
-6.66322
6.66477
-6.85612
6.79345
-2.53153
-4.39437
11.0641
-11.0889
9.3999
-9.73992
-8.51178
8.94627
3.38549
0.921269
3.43088
-1.88181
3.76072
-1.87183
3.78173
3.85889
-6.39042
2.77614
-6.48645
5.39836
4.00155
-5.0804
-2.10432
-5.92046
5.94953
-5.81401
5.87108
8.93837
-8.95204
-1.88537
3.75993
-1.8688
3.76874
-3.4225
-2.35591
3.37742
0.921519
6.52839
4.53575
-6.57594
-1.21537
-7.75448
7.54149
-8.03706
7.82617
-0.44305
5.83703
-5.39398
4.42594
-1.64964
7.48667
5.56668
5.75218
5.86114
-5.58881
1.09141
-6.4854
-6.39535
-2.58113
2.71082
2.56248
-2.39464
5.91769
1.65153
5.79181
-5.58694
-2.04545
-5.64061
3.82095
2.00781
3.8686
4.07872
2.40468
4.11784
3.03044
-3.03579
0.00535131
-3.0585
6.08893
0.724147
-5.41441
-4.49289
4.99499
3.03169
5.22063
-5.55281
-2.19122
-5.15516
-9.57132
-6.12159
-10.1724
10.1607
5.19164
9.8261
-11.9508
11.8251
3.80309
2.13307
3.55443
-4.07805
-1.95278
-4.03582
13.0155
-3.46539
-9.55012
-10.6116
-7.29374
10.2034
5.84841
10.6211
7.82313
11.1801
4.75077
8.26474
-10.5992
3.30544
-3.87032
-1.87996
-3.7943
3.72387
2.10674
3.81791
-4.19375
-2.46947
-4.17113
-4.23048
-2.62564
4.24749
2.41728
-4.31757
-3.71949
4.45317
2.34028
3.7213
-8.29434
3.4245
-7.81887
-8.2523
-2.83664
-8.10729
5.03105
1.51996
-6.551
-1.35938
9.95015
-5.9486
7.84582
-5.04109
-4.69883
-5.41529
-6.86288
-1.6489
-6.7611
-8.92283
8.41575
-9.22259
8.5597
12.7535
-5.73075
-7.02274
-3.96697
-2.47083
3.92158
-0.490695
-3.712
3.71736
0.048714
3.83044
4.75171
4.26102
-3.88154
-1.93247
-3.82866
3.8273
2.04379
3.88609
6.73725
2.20113
6.77439
-6.41364
-2.5384
-6.54179
9.16573
-8.72969
2.94637
-2.94473
5.21973
2.60644
-4.98927
-2.76521
6.13036
-3.05555
-3.07481
-12.3657
10.8916
1.4741
-4.87899
-0.453055
-0.0844222
-5.60026
-3.79089
5.48963
0.262556
11.1541
7.36322
-5.51654
5.76274
6.16792
6.22141
-0.173932
5.94011
-5.22459
5.36421
-2.51415
-2.85006
5.2887
-5.48166
-1.25309
-5.30142
4.04833
0.310154
1.8115
-1.55106
-2.0464
-0.53473
-1.97563
1.51231
1.05016
1.69789
0.989435
1.72138
-2.91096
0.540542
2.37042
-1.92153
-1.8541
-3.63191
-1.03388
4.6658
5.49401
2.04748
-5.40758
-0.233028
2.78236
-2.74835
-0.828115
-2.8038
2.08714
-2.91526
-3.44143
-1.90394
5.34537
-3.3689
-0.459765
3.3178
0.550799
-3.82615
-2.09431
3.78681
0.33103
-3.12683
6.1918
-3.06496
-5.0593
2.53014
3.55879
4.53795
-4.79083
2.44636
2.34448
-1.23204
4.12226
1.09837
4.25997
-6.83921
4.64799
5.76005
3.18622
-6.14353
0.98837
-5.85084
8.48088
-7.25953
-1.22135
4.08175
4.39913
7.20657
5.54692
-5.73695
12.9435
-1.11837
-6.14115
6.96921
-3.78299
4.7734
-8.55639
-10.3203
4.17916
-9.14665
11.0236
-1.87699
-3.60181
-8.34896
12.7485
-1.23594
-11.5125
8.59016
-4.23144
-4.59822
8.82966
-7.69683
6.55099
-1.38888
-5.16211
-10.1771
-5.70393
10.1638
1.66129
-10.9092
14.2146
-2.64441
3.47627
0.0781566
3.2064
3.31602
-5.88514
2.56913
4.38082
-5.7697
1.70209
-7.58723
-6.7839
11.2729
-4.48898
-9.62054
-9.93004
0.309501
1.83759
12.377
-9.66072
6.45077
3.20994
3.30638
0.579716
-3.37086
-0.423436
0.305809
4.52662
-4.83243
4.12371
4.22487
3.35763
1.16898
3.83736
2.11218
-3.86101
-0.310123
-4.12229
1.49665
-1.70502
-3.65738
5.15403
-4.07967
0.422291
-2.72433
-3.54794
6.27227
-4.60429
3.04445
3.14735
5.08823
-4.92695
1.37902
-2.43089
-2.49606
2.70065
-4.40567
1.96032
3.19371
4.3006
0.581112
6.23719
5.03568
-7.75715
-0.0617163
9.57143
-8.35606
3.18091
7.99923
-9.63168
-0.298356
-8.40564
-0.0186813
-5.92992
-6.56968
5.12015
-6.76905
-3.43624
6.23395
0.540437
-6.30043
-0.460666
-6.02584
-2.89699
-6.47323
-3.07954
-6.14306
-8.81649
-1.66292
-7.15357
6.75284
-6.6734
-3.49901
7.41291
1.14679
-7.43071
7.37147
-7.49963
7.16878
0.0948308
3.62253
4.35585
1.88502
-2.39048
4.27551
-5.01874
7.21986
-8.47411
3.45537
3.97774
-6.51614
-4.49636
5.07264
4.0931
5.40392
9.02305
-10.6107
1.58765
-10.8999
12.187
-1.28715
-16.7116
5.81169
-7.68853
2.68713
0.259237
2.68904
0.681922
2.40462
-3.08654
-2.26281
-2.27019
-2.29105
-3.38162
5.67267
1.1258
-3.29891
2.17311
-3.48407
4.60987
0.0311065
-3.33001
5.2114
-2.80677
5.47063
-3.45297
2.01767
3.32358
5.62107
-2.29748
4.3251
-1.71865
1.82173
-4.11921
-1.55989
-3.00556
5.1123
-3.26671
3.689
-0.279876
3.96887
-4.02903
0.973483
-0.671397
3.55347
3.73682
4.26331
-3.09432
2.93071
-4.64937
-1.1885
-4.06826
-0.874547
-0.239572
-3.83588
4.07545
6.11846
-6.35804
-5.34133
9.61697
-4.27564
7.75257
-5.48364
-2.26893
-4.32681
-4.40288
3.94847
1.99164
9.7442
0.173489
-5.65713
-5.0511
-4.02194
3.23086
2.13335
-1.9915
3.46561
2.07593
-0.264426
0.55692
1.14097
1.87877
-1.32185
0.233648
1.64512
-1.31741
2.01317
0.769184
-2.04115
0.0655213
-1.3461
3.43325
1.02432
-2.07449
0.752633
0.967857
-3.48201
4.72072
-2.48365
-2.23706
5.68857
1.15703
-3.64068
4.14439
-3.83424
2.35359
-3.38748
-1.28709
-5.12133
-3.4698
-2.44908
4.6222
-3.22359
5.27107
1.18076
-5.03804
6.2188
-3.54974
1.6458
-3.03335
3.80254
-1.06013
-1.97323
2.81725
2.52812
-2.95959
0.155799
-0.142346
2.30897
-2.45132
-0.606284
-2.52781
-4.57484
4.90586
-2.10535
4.55171
2.17015
-1.91416
6.46587
1.81091
-3.72507
-3.24839
-3.70815
-1.38059
3.15735
-0.18703
-3.84879
-5.34914
3.74457
0.515405
-7.03755
7.80297
-0.765427
-4.00585
-0.642138
4.72389
-5.85132
0.0816203
-4.14923
3.65375
4.75212
5.26752
-11.3966
-0.115948
-6.20493
1.22258
-7.42751
5.62171
-3.67653
7.85569
-10.4138
6.91477
-9.26699
6.63434
-0.793176
6.67342
-4.1043
2.8767
-8.58063
-6.91934
4.89646
-2.76339
4.97462
-3.42186
8.39648
-6.06627
5.42121
2.97527
-1.85927
-3.55602
-4.67496
2.81569
0.746245
3.95265
4.96792
-2.85574
4.6578
2.21734
-4.64823
-2.18833
-6.50407
1.85584
-3.35672
-1.90772
3.76356
3.18051
3.76023
1.2675
-3.33679
8.79011
-8.48061
-4.30113
-2.26855
5.4748
-2.65911
5.15395
-7.4225
-0.775971
4.8437
-0.805082
-4.03862
0.887045
-4.32328
1.65424
-5.97752
5.11481
-5.57548
2.2142
-9.90273
-5.21651
-5.13336
-2.25213
-5.2475
-7.67489
5.42276
-1.8632
5.50827
-8.70142
7.89634
-3.48562
8.90839
-5.42123
-1.052
5.8482
1.32057
10.229
0.0649833
-4.56135
-1.89028
3.87267
-1.98239
1.34059
-3.77089
0.101778
2.40331
3.28526
-6.45164
-0.0645019
-4.62585
-3.91761
8.0107
5.69937
11.8178
1.20713
9.23111
-1.22041
10.4382
4.18351
4.41988
-3.02098
4.60863
1.05447
4.50984
-0.836737
2.8544
1.8523
1.86718
0.881176
2.29921
1.43761
3.27269
0.18615
-2.08404
4.67192
-8.69387
-0.985206
-8.14951
1.14301
5.42288
-4.27987
3.09054
-0.957194
1.10814
0.0501972
-1.71344
1.66324
-2.79986
-1.97787
-0.332743
-1.60262
2.35525
1.83063
-2.02251
-0.777355
0.268484
-3.73828
3.119
-2.9632
-0.435074
5.78373
-2.70546
0.254139
-1.05965
-2.27367
-2.8084
2.74288
6.17233
0.293541
3.10737
5.19941
3.1051
0.249355
3.91336
-5.79035
-3.67388
-5.90629
-0.284588
4.43931
3.41786
8.95914
6.39314
3.73403
-3.68847
-12.1691
6.53152
-1.92288
5.24436
-1.20575
-4.77178
5.02109
2.19878
-5.56152
-0.0139576
-4.78573
-6.70862
-0.517836
8.41418
-9.71113
8.65913
5.76214
1.39143
-4.42687
-0.706486
4.2489
0.170986
10.6092
-0.896445
-7.25501
8.15146
-4.52643
3.54123
0.772408
2.6932
2.43565
1.47846
-5.77655
-10.0564
-1.90224
-1.57976
-4.13931
0.52649
-2.35712
6.1303
-2.58907
3.86137
5.56239
6.67053
-2.10034
-4.25769
6.37599
-2.51462
4.15591
)
;

boundaryField
{
    wall-4
    {
        type            calculated;
        value           uniform 0;
    }
    velocity-inlet-5
    {
        type            calculated;
        value           uniform -3.75095;
    }
    velocity-inlet-6
    {
        type            calculated;
        value           uniform -5.62643;
    }
    pressure-outlet-7
    {
        type            calculated;
        value           nonuniform List<scalar> 8(5.75573 5.67856 6.31797 7.22997 6.998 6.68211 6.78004 7.07096);
    }
    wall-8
    {
        type            calculated;
        value           uniform 0;
    }
    frontAndBackPlanes
    {
        type            empty;
        value           nonuniform 0();
    }
}


// ************************************************************************* //
