/*--------------------------------*- C++ -*----------------------------------*\
  =========                 |
  \\      /  F ield         | OpenFOAM: The Open Source CFD Toolbox
   \\    /   O peration     | Website:  https://openfoam.org
    \\  /    A nd           | Version:  6
     \\/     M anipulation  |
\*---------------------------------------------------------------------------*/
FoamFile
{
    version     2.0;
    format      ascii;
    class       volVectorField;
    location    "25";
    object      U;
}
// * * * * * * * * * * * * * * * * * * * * * * * * * * * * * * * * * * * * * //

dimensions      [0 1 -1 0 0 0 0];

internalField   nonuniform List<vector> 
918
(
(0.984998 -0.000746132 0)
(0.00532084 2.96626 0)
(-0.021802 1.52058 0)
(0.979578 0.00193349 0)
(0.00106366 1.50576 3.15668e-20)
(-0.00706599 2.94855 -1.97531e-18)
(0.833157 1.15899 7.24262e-19)
(0.401843 0.152605 -8.43024e-21)
(0.999922 -0.000239647 0)
(0.0732618 0.760456 0)
(-0.0352769 0.639626 0)
(0.741136 -0.00999611 0)
(0.0102045 2.93155 0)
(0.00334375 2.79415 0)
(-4.74408e-05 3.19923 1.13721e-18)
(0.0317149 1.3204 1.40983e-19)
(0.484693 0.0491281 5.29704e-19)
(0.224822 1.16527 6.55199e-19)
(0.964681 0.00674371 0)
(-0.0241404 1.11533 0)
(0.130931 0.222559 -4.26905e-19)
(1.00204 -0.00447282 0)
(0.999912 -0.00890107 0)
(0.975236 -0.00612621 0)
(0.644536 -0.0430914 0)
(0.0236233 2.64153 0)
(-0.0124245 2.9121 6.78894e-19)
(-0.0366602 1.52684 0)
(-0.0511248 1.68248 0)
(-0.0322161 1.52467 0)
(-0.0123572 1.93748 0)
(0.0202995 1.53803 -2.49566e-20)
(0.0143815 1.36474 0)
(-0.0222103 2.98758 -6.94516e-23)
(-0.0165239 3.00551 1.53533e-18)
(0.00230207 3.00063 0)
(0.87053 -0.00822308 0)
(0.370943 0.91842 -5.0061e-20)
(0.836149 1.16987 -1.06996e-18)
(0.975921 1.01921 9.80701e-19)
(0.69931 1.25454 -1.68244e-19)
(0.705928 1.23743 9.48629e-19)
(0.439969 0.254722 8.22489e-21)
(0.431884 0.140032 0)
(1.16628 0.521882 0)
(0.396384 0.263664 3.80337e-20)
(0.361129 0.163938 -3.94717e-20)
(0.920286 -0.0064231 0)
(1.00028 7.20259e-05 0)
(0.999909 0.00030342 0)
(1.00356 -0.00743047 0)
(1.00092 -0.00108364 0)
(1.00012 -5.54166e-05 0)
(0.101655 1.77938 -1.84002e-19)
(0.0560871 0.926166 0)
(0.140337 0.870655 0)
(0.0320217 0.858737 0)
(0.0535581 0.694116 0)
(-0.0582687 1.89476 0)
(-0.0138121 0.748691 0)
(0.00782039 0.601003 0)
(-0.0359388 0.792794 0)
(-0.0406588 0.726238 0)
(0.837312 -0.010817 0)
(0.857299 0.0236477 0)
(0.772222 5.34967e-05 0)
(0.838008 0.0288239 0)
(0.715599 -0.0154179 0)
(0.0139789 3.00018 7.24651e-19)
(0.0112263 3.0058 0)
(0.0063683 3.00395 0)
(0.0118994 2.99702 8.10192e-24)
(0.00832196 2.95872 -1.07701e-18)
(0.0122145 2.98296 0)
(0.00898326 2.90483 0)
(0.0213546 2.93118 1.48717e-24)
(0.00402482 2.82407 0)
(0.0267087 2.9186 0)
(-0.00107746 2.74438 0)
(0.313108 3.60302 0)
(-0.12315 3.6867 0)
(0.154512 3.29058 -1.05844e-18)
(0.00744181 3.02004 0)
(-0.0886474 1.86783 0)
(0.068054 1.48773 -1.39096e-19)
(0.0187676 1.27414 1.94425e-19)
(0.561348 0.139341 -1.8184e-19)
(0.495264 0.0153464 -1.73213e-19)
(0.529468 0.163628 -5.49201e-19)
(0.478383 0.0747951 -3.67754e-19)
(0.259433 0.941043 0)
(0.320183 1.31667 -6.69873e-19)
(0.45477 1.26232 1.09202e-18)
(0.988118 0.00810011 0)
(0.943785 0.00593488 0)
(1.00029 0.000676881 0)
(1.00254 0.00908648 0)
(1.00315 0.00892838 -9.62548e-19)
(0.992136 0.00953364 7.275e-19)
(-0.052451 1.22965 0)
(-0.044218 1.03535 0)
(-0.0567435 1.51345 0)
(-0.0401034 1.34259 0)
(-0.0144997 1.21477 0)
(0.174393 0.233698 1.32043e-19)
(0.219458 0.209895 0)
(0.993667 -0.00758656 0)
(0.954015 -0.00639645 0)
(0.80093 0.0320449 0)
(0.757848 0.041709 0)
(0.683939 -0.027305 0)
(0.978245 0.00113074 0)
(0.704365 0.0522866 0)
(0.54156 -0.0351913 6.80164e-19)
(-0.0401245 2.86306 4.02572e-19)
(0.0341233 2.9138 0)
(0.0433828 2.8908 0)
(0.00354891 2.70031 0)
(-0.0087056 2.98632 6.34621e-19)
(-0.0144929 2.8949 0)
(-0.0110479 2.99188 -1.9852e-18)
(-0.0115813 2.92982 6.80642e-19)
(-0.0790108 1.74958 0)
(-0.078771 1.77885 0)
(0.0509877 1.50485 3.26531e-21)
(0.0328031 1.49905 0)
(0.01087 1.34085 0)
(0.937241 -0.00439193 0)
(0.85524 -0.00827724 0)
(0.865868 0.00829412 0)
(0.948428 -0.0059403 0)
(0.882409 -0.00803456 0)
(0.496967 1.12081 5.04375e-20)
(0.546299 1.19424 0)
(0.328485 0.847066 2.27272e-21)
(0.272763 0.713644 0)
(0.935553 1.05618 -2.87062e-19)
(1.05215 0.852775 5.81082e-19)
(0.43188 1.36575 0)
(0.545204 1.33021 0)
(0.579652 1.24746 0)
(0.0883102 0.14529 -1.1851e-19)
(0.468455 0.244116 0)
(0.453718 0.143071 1.0638e-19)
(1.01363 0.90787 0)
(1.08155 0.747224 0)
(1.11142 0.681471 -5.08126e-19)
(1.14523 0.58938 0)
(1.20033 0.383414 4.7716e-20)
(0.956831 -0.00691233 0)
(0.962591 -0.00779988 0)
(0.900277 -0.00686565 0)
(0.983838 -0.00795564 0)
(0.974241 -0.00787519 0)
(0.936376 -0.00620717 0)
(1.00015 0.0024818 0)
(1.00089 0.00134557 0)
(0.999962 0.000788698 0)
(0.0415092 2.03854 1.27588e-19)
(0.153459 1.72019 0)
(0.0304692 2.14951 7.53313e-20)
(0.0597904 1.86161 -2.49457e-21)
(0.15013 1.15118 -5.42777e-19)
(0.061662 1.0194 0)
(0.116936 1.02317 0)
(0.0205286 0.801924 0)
(-0.00095749 0.651665 0)
(-0.0515754 2.13243 3.06141e-21)
(-0.0362968 1.95373 0)
(-0.0786247 2.02617 1.99719e-19)
(-0.0868689 1.7629 -4.08148e-19)
(0.00540319 0.775481 0)
(0.0122705 0.754604 0)
(-0.000865509 0.611584 0)
(-0.047456 0.872376 0)
(-0.0402617 0.807758 0)
(0.929014 0.012856 0)
(0.848261 -0.00675993 0)
(0.921986 0.00451985 0)
(0.842695 -0.00972665 0)
(0.817602 0.00373326 0)
(0.905124 0.0172578 0)
(0.884178 0.0197304 0)
(0.794298 0.00114728 0)
(0.0101916 3.06744 -6.36505e-21)
(0.0149671 3.05929 0)
(0.0124019 2.97038 0)
(0.00753473 2.87662 0)
(0.904955 4.00495 0)
(1.20142 3.3968 1.02777e-18)
(0.0841884 3.1012 0)
(-0.0148522 2.92399 0)
(-0.116299 1.76834 0)
(-0.12244 1.84519 0)
(-0.0965809 1.80684 0)
(-0.0394075 1.93651 2.30482e-21)
(-0.10174 1.89952 0)
(-0.0645623 1.88891 0)
(-0.0225653 1.43517 9.59341e-21)
(0.0205249 1.58317 -2.51985e-19)
(0.0586096 1.49882 -1.98981e-19)
(-0.00241898 1.30134 0)
(0.570714 0.108681 2.68468e-19)
(0.496515 -0.00135333 -2.6245e-19)
(0.229656 1.54319 0)
(0.281213 0.67264 -2.14981e-19)
(0.178412 1.64355 -7.11963e-19)
(0.246576 1.15188 7.11543e-19)
(0.903046 0.0073148 0)
(0.967552 0.0103062 0)
(0.975444 0.00967999 0)
(0.923735 0.00663507 0)
(-0.0617644 0.97559 0)
(-0.0550058 1.10456 0)
(-0.0549734 0.925107 0)
(0.342057 0.262335 3.45499e-19)
(0.28337 0.249379 -4.18717e-19)
(0.298217 0.189507 0)
(1.10558 0.0905016 -7.47449e-21)
(1.09122 0.0428117 0)
(1.0147 0.0446037 0)
(0.91206 0.00652966 0)
(0.588746 0.0846048 0)
(0.637045 0.0613099 -1.10225e-18)
(0.507765 -0.0146101 4.27351e-19)
(0.0114019 2.97752 4.84808e-19)
(-0.0329295 2.86252 4.61959e-20)
(0.00847598 3.05319 -1.36881e-20)
(0.0154461 3.04349 5.21572e-19)
(-0.0118437 3.00004 2.26795e-20)
(-0.0123113 2.95238 -9.21294e-23)
(-0.0150071 3.01336 -4.35329e-19)
(0.0140692 3.02685 3.05268e-19)
(0.00749836 3.03453 -4.89309e-19)
(0.930859 0.00235856 0)
(0.936911 -0.000649551 0)
(0.846591 -0.00753775 0)
(0.957288 0.0110327 0)
(0.943857 0.0119988 0)
(0.883633 0.00726705 0)
(0.919851 0.014585 0)
(0.927778 0.0141042 0)
(0.842399 0.0058676 0)
(0.674714 1.42634 3.08673e-19)
(0.694536 1.53898 0)
(0.164831 0.342264 2.04051e-20)
(0.166759 0.566342 1.65438e-19)
(0.236741 0.66825 -9.35249e-20)
(0.201515 0.556254 1.69017e-19)
(0.302108 0.734483 6.9233e-19)
(0.110734 0.191188 2.14255e-19)
(0.518661 0.192983 3.97027e-19)
(0.500662 0.225421 9.93796e-20)
(0.467714 0.111806 2.01429e-19)
(1.19083 0.440369 3.3096e-19)
(1.21669 0.240403 3.46344e-19)
(0.00500262 2.1567 -1.35705e-20)
(0.043794 1.93275 0)
(0.963661 0.0337146 0)
(0.934747 0.0199258 0)
(0.866795 -0.00645101 0)
(0.0123844 3.0751 0)
(0.0170662 2.94411 8.67541e-19)
(0.0140307 2.95697 0)
(0.00570286 2.84972 -8.61065e-19)
(0.0088756 3.09105 2.07868e-19)
(0.0115963 3.08268 0)
(0.716699 1.83904 -2.5338e-19)
(1.24595 2.65055 8.43524e-19)
(0.702058 2.01891 -1.66716e-18)
(0.0231567 2.9781 -3.71628e-19)
(0.0421743 3.00274 0)
(-0.0376826 2.88204 0)
(-0.0972744 1.86902 -1.8076e-20)
(-0.0392674 1.69876 4.81493e-19)
(-0.0676792 1.60682 -8.11446e-21)
(0.26124 1.33681 6.92859e-19)
(0.241949 0.455841 -4.77162e-19)
(0.0709819 1.96362 4.29531e-19)
(0.118108 1.8293 -5.56409e-19)
(0.217348 1.47709 9.64694e-20)
(0.00663938 3.12025 -1.094e-18)
(0.0132419 3.1209 1.20275e-18)
(-0.00487188 2.98041 5.6774e-19)
(-0.00123485 2.97533 -5.17057e-19)
(-0.0179683 2.87782 -5.78265e-19)
(0.0126851 3.09988 -1.52293e-18)
(0.00502655 3.1054 1.53986e-18)
(0.205129 0.603868 0)
(0.176722 0.589367 -3.34515e-19)
(0.0658497 0.196372 1.51672e-19)
(0.32101 0.837584 6.43786e-19)
(0.175849 0.229581 -9.81808e-19)
(1.19589 0.174181 -7.50431e-20)
(1.21356 0.300254 0)
(1.19254 0.120755 1.38499e-19)
(-0.0457375 2.17929 2.58873e-21)
(-0.0175405 2.18913 0)
(0.00660723 1.97611 0)
(0.310111 1.25582 -2.44881e-19)
(0.336183 1.06569 -5.21242e-19)
(0.196759 0.332504 8.96565e-19)
(1.0064 -0.00995792 0)
(1.00779 -0.00777026 1.75052e-19)
(-0.100198 1.7039 0)
(-0.105945 1.69422 0)
(1.00245 0.00342135 1.43931e-21)
(1.00329 0.00805777 3.61765e-19)
(-0.0342092 1.95977 -2.95453e-21)
(-0.0208692 1.98215 0)
(0.0441372 3.17607 1.97779e-19)
(0.383781 3.56231 0)
(1.09746 0.683808 7.51177e-20)
(1.01228 0.0111397 -2.59819e-21)
(1.02099 -0.00930932 0)
(1.00165 0.000152838 8.49264e-23)
(0.109845 1.3683 0)
(0.12171 2.59022 0)
(-0.0223493 1.04829 0)
(-0.0247209 2.64626 -2.41093e-19)
(-0.203097 2.61897 -2.36392e-19)
(1.00798 0.023856 2.67303e-21)
(1.05283 -0.000317542 0)
(1.07954 0.0247737 0)
(-0.140885 1.84343 0)
(-0.0695705 2.17816 0)
(-0.209786 1.45528 0)
(0.264505 1.47201 -4.37278e-19)
(1.01149 -0.00921094 0)
(1.00958 -0.0135486 0)
(1.00227 0.000600648 2.22794e-19)
(1.00568 -0.00488321 -2.64037e-19)
(1.00125 -0.000954655 0)
(-0.183261 1.78753 0)
(-0.135591 1.70484 0)
(-0.144225 1.76284 0)
(-0.188461 1.47937 0)
(-0.144886 1.60115 0)
(-0.134963 1.55899 0)
(1.03476 -0.00647948 0)
(1.01938 0.0137312 -1.18276e-21)
(0.765749 1.30116 5.44844e-19)
(1.00254 0.000239887 -2.24482e-19)
(1.00346 0.00485853 2.69173e-19)
(1.00123 0.00204021 0)
(1.01141 0.00967786 2.18091e-19)
(1.00714 0.00762354 -2.72392e-19)
(1.00751 0.0117595 0)
(-0.0541694 2.16316 0)
(-0.036332 2.06002 -7.59489e-20)
(-0.0231185 2.07486 6.33038e-20)
(1.20231 0.27006 -1.46865e-19)
(1.13579 0.0925037 0)
(0.0487161 3.08986 -5.72212e-19)
(0.0519634 2.86863 -4.29228e-20)
(0.108226 3.20219 7.36297e-19)
(0.125861 3.21537 -8.30139e-20)
(0.150082 3.26605 0)
(0.0236805 3.13833 1.43571e-19)
(0.0642855 3.162 5.67185e-19)
(0.0644791 3.18035 -2.71484e-19)
(0.0282317 3.12844 0)
(0.655065 0.336662 0)
(0.591722 0.380403 0)
(1.08486 0.711289 -2.75814e-19)
(1.04671 0.85168 4.16046e-19)
(1.14125 0.600229 0)
(1.17051 0.54128 0)
(1.01586 0.0120006 -4.00139e-19)
(1.01481 0.0126825 5.00438e-19)
(1.02536 -0.00945787 0)
(1.02343 -0.0109357 0)
(1.00672 0.00257283 0)
(1.01087 0.00383121 0)
(1.00453 0.00188286 0)
(1.00985 0.00616621 0)
(1.0073 0.00518933 0)
(1.00474 0.00531187 0)
(0.0916717 1.37329 0)
(0.0923429 1.33045 0)
(0.121756 1.39631 0)
(0.138336 1.41126 0)
(0.142355 2.61233 0)
(0.18986 2.67305 -1.83936e-19)
(0.102876 2.66433 0)
(0.0677303 2.66532 -3.98791e-20)
(0.0211246 2.67779 2.4048e-19)
(-0.0402838 1.0164 0)
(-0.0915768 0.971314 0)
(0.0761695 1.08625 0)
(0.0190512 1.03318 0)
(0.0314997 2.16689 4.08082e-19)
(-0.182896 2.65157 -3.3102e-19)
(-0.0795442 2.70144 -3.98114e-19)
(-0.13987 2.68138 0)
(-0.212885 2.6328 6.0798e-19)
(-0.216299 2.58017 3.89682e-19)
(0.0697416 2.22329 -2.84588e-19)
(-0.164068 2.58714 4.67649e-19)
(-0.0744597 2.55938 4.80079e-19)
(1.01526 0.0318761 3.95459e-19)
(1.00751 0.0187902 -4.92316e-19)
(1.00971 0.035785 -4.12887e-19)
(0.991967 0.0252047 5.29017e-19)
(1.05389 0.00211479 0)
(1.04292 -0.0111109 0)
(1.07526 0.0316182 0)
(1.06014 0.00728673 0)
(1.05666 -0.00375479 0)
(1.11731 0.0766405 0)
(1.09193 0.0445175 0)
(1.09373 0.04018 0)
(-0.0989108 1.96196 1.03049e-21)
(-0.168357 1.91485 0)
(-0.117571 1.91579 0)
(-0.119127 2.29083 -8.16055e-20)
(-0.110834 2.31349 5.54208e-21)
(-0.292513 1.85539 -4.99365e-20)
(-0.210979 1.79854 5.06391e-20)
(-0.258033 1.62146 0)
(-0.223742 1.66377 0)
(-0.18293 1.68833 0)
(-0.237046 1.38914 0)
(-0.152339 1.26137 0)
(0.373795 1.49382 8.20605e-19)
(0.389809 1.51134 3.29719e-19)
(0.604218 2.45422 -1.59542e-19)
(0.395801 2.5576 4.12055e-19)
(0.359481 2.08489 -4.9797e-20)
(1.02054 -0.00854171 0)
(1.01557 -0.00978147 0)
(1.01459 -0.013491 0)
(1.00776 -0.0011891 0)
(1.0047 -0.00110069 0)
(1.00775 -0.00502628 0)
(1.00947 -0.00343505 0)
(1.01451 -0.00433211 0)
(1.02016 0.0151174 3.80852e-19)
(1.01731 0.0142667 -4.86321e-19)
(1.02088 0.0168166 -3.83021e-19)
(1.01742 0.0146539 4.77664e-19)
(0.732147 1.34277 0)
(0.660205 1.38598 6.12781e-19)
(0.840119 1.21312 3.6687e-19)
(0.866351 1.20024 -4.86774e-19)
(1.16382 2.6307 -5.55372e-19)
(0.818273 0.105087 2.74188e-19)
(1.14113 0.102913 0)
(1.17909 0.189564 1.19556e-19)
(1.15968 0.16177 5.49323e-21)
(1.00091 0.134784 0)
(0.0930599 3.02962 -8.4784e-20)
(0.0931541 2.90605 -6.48634e-19)
(0.0421395 2.36255 4.26849e-19)
(0.142109 0.00128402 -2.03472e-19)
(0.350675 3.46352 -4.83109e-19)
(0.199788 3.35172 0)
(0.230649 3.41347 6.29302e-19)
(0.234918 3.08803 -2.15205e-19)
(0.268805 3.2082 0)
(0.00781716 3.12222 3.04538e-20)
(0.0183586 3.13109 -3.68157e-19)
(0.0172918 3.12699 5.4188e-19)
(0.0349656 3.13975 0)
(0.0329063 3.15029 0)
(1.2646 2.59929 0)
(0.528082 0.830884 -2.2511e-19)
(0.973681 1.0363 -2.10287e-19)
(0.955688 1.06102 0)
(0.808069 0.94724 5.94854e-20)
(1.03284 0.889122 2.9496e-20)
(0.424781 0.410968 -5.01291e-19)
(0.70697 0.334813 -2.48953e-20)
(0.688804 0.268429 2.12355e-19)
(0.605275 0.403331 1.63146e-20)
(0.533502 0.382985 -6.69587e-19)
(0.670368 0.355998 0)
(0.691293 0.432529 3.4302e-19)
(0.690317 0.433136 0)
(0.642379 0.38696 0)
(0.61728 0.33624 0)
(0.75158 0.627177 1.04751e-19)
(1.20558 0.292992 1.14294e-19)
(1.19183 0.432216 0)
(1.20123 0.391962 0)
(0.774316 0.207565 3.14364e-19)
(0.81108 0.551469 -1.70982e-19)
(0.738275 0.513076 2.78056e-19)
(0.910076 0.416275 -2.44882e-19)
(1.01884 0.0142087 2.6145e-19)
(1.01745 0.0133947 -2.6765e-19)
(1.01608 0.0140808 0)
(1.03561 -0.00615188 0)
(1.02986 -0.00844041 -2.39603e-19)
(1.02769 -0.012054 2.37147e-19)
(1.02512 0.00981346 0)
(1.02389 0.0139126 0)
(1.012 0.00406678 0)
(1.01434 0.00863953 0)
(1.01572 0.00324015 0)
(1.01476 0.00271034 0)
(0.0732318 1.35504 0)
(0.0723185 1.2541 0)
(0.147276 1.36646 3.78734e-19)
(0.250995 1.47263 2.49517e-19)
(0.163645 1.44776 5.4184e-19)
(0.179237 1.45349 -8.796e-19)
(0.183243 1.38583 0)
(0.122276 1.59613 2.91301e-19)
(0.101141 1.56946 0)
(0.355765 2.05007 7.24978e-20)
(0.356872 2.36687 2.16189e-19)
(0.168699 1.45713 -2.54422e-19)
(0.265078 1.36496 1.99685e-19)
(0.20047 1.36685 -1.60422e-19)
(0.288224 1.29935 3.29747e-19)
(0.276859 1.59471 0)
(0.259834 1.6109 -2.08571e-19)
(0.0525024 2.2703 1.11423e-19)
(0.0457881 2.67184 0)
(0.059263 2.38412 -1.91886e-19)
(0.031149 2.40066 0)
(0.0717975 2.67105 4.26255e-20)
(0.0463802 2.69966 0)
(0.0850592 1.48342 4.89441e-19)
(0.197856 1.63531 0)
(0.183601 1.37979 0)
(0.115095 1.33407 -5.39836e-19)
(-0.0335846 2.6699 -4.68541e-20)
(0.0443551 2.68453 -3.12838e-19)
(-0.00398403 2.71691 -2.06302e-21)
(-0.222878 2.19168 -3.35445e-19)
(0.0160867 1.9874 -1.95806e-19)
(-0.116335 1.02527 0)
(-0.0808496 1.00025 0)
(0.113037 1.69285 -5.07293e-19)
(0.172451 1.49487 -5.28918e-19)
(0.152559 1.66123 6.59053e-19)
(0.0995308 1.68266 0)
(-0.249289 2.13606 3.22506e-19)
(-0.198296 2.30971 -1.37995e-19)
(-0.234455 2.34791 4.76026e-20)
(-0.253756 2.12356 4.068e-19)
(-0.254416 2.49622 1.07869e-19)
(-0.250959 2.51263 -4.49445e-19)
(1.01951 0.0189143 -2.58946e-19)
(1.01685 0.0241792 2.62946e-19)
(1.01229 0.0143662 0)
(1.01377 0.0532069 3.75889e-19)
(0.999199 0.0408553 -4.45163e-19)
(0.965479 0.0344238 5.1883e-19)
(1.01171 0.0916405 -4.82385e-20)
(1.0414 -0.00639668 0)
(1.04621 -0.00488287 2.10254e-19)
(1.03755 -0.0104316 -2.09488e-19)
(1.06309 0.0366892 -1.11754e-20)
(1.0549 0.018458 1.00826e-19)
(1.06072 0.0553101 0)
(1.0566 0.0427096 -3.86559e-20)
(1.03686 0.0337395 0)
(1.03219 0.0294328 0)
(1.02804 0.0127917 0)
(1.02542 0.0144 0)
(1.04573 0.0245438 8.01868e-20)
(1.04126 0.0167116 -1.84104e-19)
(1.0529 0.0230318 -7.91383e-20)
(1.05027 0.0244402 -9.39984e-20)
(1.07081 0.0616876 1.56667e-19)
(1.08276 0.0520021 0)
(1.08673 0.0944571 0)
(-0.249228 2.10658 7.88941e-20)
(-0.205862 1.94895 3.73856e-21)
(-0.213499 1.9761 0)
(-0.147158 2.10709 -7.87502e-20)
(-0.102769 2.00412 -4.75651e-21)
(-0.127803 2.0536 1.28247e-20)
(-0.201986 2.56864 -3.45734e-19)
(-0.214752 2.44176 2.09628e-20)
(-0.259953 2.48562 -1.03229e-19)
(-0.164715 2.45941 2.06354e-19)
(-0.175282 2.4729 -2.36015e-19)
(-0.3686 1.74975 -8.07515e-21)
(-0.317941 1.87652 -1.1358e-19)
(0.378814 1.40198 -4.19798e-19)
(0.368423 1.34686 -4.18783e-19)
(0.621097 1.43227 -5.92631e-19)
(0.499722 1.50582 -3.277e-19)
(0.540695 1.47283 0)
(0.604608 2.4268 1.18344e-19)
(0.665115 2.41122 2.2103e-19)
(0.422614 2.52084 8.32716e-20)
(0.401288 2.55598 -1.56104e-19)
(0.509373 2.50889 2.41105e-19)
(0.557021 2.46855 0)
(0.497181 2.52119 -3.36748e-19)
(0.260798 2.59225 5.58426e-19)
(0.367261 2.56313 -5.73447e-20)
(0.287558 2.64883 -8.79431e-19)
(0.942551 2.39238 2.12909e-19)
(0.836235 2.38419 0)
(1.0109 0.000626065 8.77835e-21)
(1.01483 -0.00527061 -7.16775e-21)
(1.01787 -0.0040327 -1.29652e-19)
(1.01525 -0.00110523 1.2935e-19)
(1.01248 0.00135285 0)
(0.611123 1.28338 0)
(0.637142 1.15973 0)
(0.74206 1.07889 0)
(0.62433 1.12651 0)
(1.19429 2.64979 4.59979e-20)
(1.08318 2.3899 0)
(0.832391 2.2446 -2.22034e-21)
(0.823857 2.48582 0)
(0.915651 2.57076 2.46992e-20)
(0.947933 2.5214 -1.65354e-20)
(0.837896 0.137808 0)
(0.804905 0.139441 7.95159e-20)
(0.925113 0.129021 3.96668e-19)
(0.860605 0.103687 -1.65111e-19)
(0.841324 0.068675 -4.78429e-19)
(1.04887 0.219399 -1.94646e-19)
(0.949876 0.266437 -8.2831e-21)
(0.916345 0.305293 3.34773e-19)
(0.988575 0.211933 2.51077e-19)
(0.930894 0.167849 -4.9247e-19)
(0.899392 0.178012 6.59881e-20)
(0.909324 0.287428 -1.1846e-19)
(0.897748 0.192028 0)
(0.980834 0.162684 2.32044e-19)
(1.02654 0.179883 0)
(1.02091 0.188997 0)
(1.09467 0.114081 6.05209e-20)
(1.0412 0.16492 -1.02046e-20)
(1.04268 0.228397 -4.04394e-20)
(1.08975 0.19973 0)
(1.02631 0.0350218 1.95687e-19)
(1.04491 0.0517376 2.28825e-19)
(1.03937 0.034745 -1.94466e-19)
(1.04524 0.0575341 -1.54705e-19)
(1.02217 0.0606264 -2.64866e-19)
(0.976039 0.136369 0)
(0.992352 0.0828108 0)
(0.96799 0.0474873 -1.87792e-19)
(0.926627 0.0695462 7.97992e-20)
(1.03475 0.0961435 2.15906e-19)
(1.05733 0.120689 -1.9741e-19)
(1.05497 0.15329 1.87794e-19)
(1.02737 0.126688 0)
(1.06902 0.105965 0)
(1.05104 0.0966144 -8.37531e-20)
(1.04355 0.0911247 -1.70576e-19)
(0.591212 1.11824 -1.22937e-19)
(0.630654 1.46486 2.20885e-19)
(1.14999 2.75007 8.68172e-20)
(1.20052 3.12611 -6.90151e-20)
(1.25514 2.75167 5.61837e-19)
(1.29892 2.72307 -2.91374e-19)
(1.27352 2.34188 -3.57555e-20)
(1.18858 3.03287 2.15277e-19)
(1.20613 2.99035 -2.29326e-19)
(1.18234 3.28056 -2.47752e-19)
(1.40466 2.99733 3.04712e-19)
(1.41715 2.93756 0)
(0.549711 0.851779 -1.05354e-20)
(0.250318 1.23622 2.8628e-19)
(0.489835 0.49892 3.21685e-19)
(0.358549 0.271023 3.75406e-19)
(0.550204 0.405845 3.75514e-19)
(0.555019 0.487455 -5.81552e-19)
(0.556809 0.487626 4.80743e-19)
(0.515135 0.437132 -1.95e-19)
(0.463217 0.367175 4.47703e-19)
(0.786708 0.249923 -1.74886e-19)
(0.749135 0.278988 0)
(0.733101 0.224908 1.13704e-20)
(0.718566 0.518937 1.80647e-19)
(0.677058 0.48547 -6.66738e-19)
(0.630529 0.479498 2.24262e-20)
(0.631996 0.458604 0)
(0.682346 0.724182 1.27149e-19)
(0.778069 0.774095 6.84412e-20)
(0.707673 0.821419 -8.55392e-20)
(0.840487 0.793105 -9.25985e-21)
(0.88455 0.839298 1.6742e-20)
(0.892108 0.846573 -1.71653e-20)
(0.83628 0.658415 -1.79334e-19)
(0.903998 0.712635 8.61526e-21)
(0.954404 0.712542 0)
(0.952761 0.687565 6.04731e-21)
(0.983684 0.299548 5.77303e-20)
(1.11569 0.307807 -3.0588e-20)
(1.02673 0.261108 7.93882e-20)
(0.946427 0.344093 -1.29785e-19)
(0.992666 0.449142 0)
(1.07864 0.40654 0)
(0.867276 0.387132 1.40642e-20)
(0.839255 0.293718 0)
(0.854205 0.280045 1.8598e-19)
(0.885417 0.304182 9.43297e-21)
(0.907343 0.435454 6.69131e-19)
(0.845101 0.513696 1.59753e-19)
(0.862698 0.458115 -2.31152e-19)
(0.79644 0.450971 2.45667e-19)
(0.787492 0.446359 1.69628e-19)
(0.760663 0.420093 -1.6636e-19)
(1.02774 -0.000222325 2.05835e-19)
(1.02005 0.00022961 0)
(1.0186 0.00121698 1.3732e-19)
(1.02269 -0.00113351 -3.08373e-19)
(1.02199 0.00412355 1.50235e-19)
(1.0201 0.0108339 -3.15817e-19)
(1.0211 0.0106147 0)
(1.0206 0.0114573 -6.67453e-20)
(1.01591 0.00752425 1.67346e-19)
(1.01661 0.0103116 -8.43616e-20)
(1.01753 0.00961562 6.17615e-20)
(0.0712955 1.16777 0)
(0.181767 1.27076 0)
(0.085389 1.25421 0)
(0.05609 1.11471 0)
(0.0877759 1.39402 -7.26169e-19)
(0.0871605 1.37207 2.18804e-19)
(0.0604094 1.50905 1.70754e-19)
(0.0683684 1.39081 -2.09062e-19)
(0.14869 1.512 4.90563e-19)
(0.134665 1.49056 -3.79395e-19)
(0.105813 1.38216 -2.48043e-20)
(0.128765 1.3911 4.81298e-19)
(0.144717 1.34195 7.3175e-20)
(0.164533 1.3675 6.69855e-20)
(0.0905538 2.37381 2.10531e-19)
(0.0929351 2.43144 0)
(0.137859 2.05012 -5.93813e-20)
(0.0760164 1.72727 -1.18551e-19)
(0.212418 2.07536 4.49345e-20)
(0.222276 2.44945 0)
(0.24931 2.4103 -1.13923e-19)
(0.298309 2.40955 8.19629e-20)
(0.243143 2.02788 1.32106e-19)
(0.136513 2.19072 -3.81207e-20)
(0.106375 2.30304 0)
(0.0689334 1.93882 4.88803e-19)
(-0.0300662 2.46629 5.65977e-19)
(0.0320264 2.26934 0)
(0.00848291 2.45397 -2.25479e-20)
(-0.00718537 2.31469 -2.26129e-19)
(-0.0268637 1.3031 -8.50569e-20)
(-0.118052 1.2403 1.36404e-18)
(-0.157965 1.31213 -3.44937e-19)
(-0.0626229 1.4069 -5.05133e-19)
(0.0735739 1.50386 0)
(-0.22102 1.21138 0)
(-0.229446 1.21447 -2.42467e-19)
(-0.286697 1.25286 7.7184e-20)
(-0.227751 1.21516 0)
(-0.163528 1.09758 -2.08421e-19)
(-0.137065 1.11975 3.83677e-19)
(1.04042 0.00842106 0)
(1.04512 0.00414539 -1.96265e-20)
(1.04252 0.0155636 -1.46521e-19)
(1.04936 0.0115176 0)
(1.04802 0.00940536 0)
(1.03588 0.00634333 -6.14657e-21)
(1.03092 0.00885281 2.43764e-19)
(1.03231 0.0118055 2.92912e-19)
(1.02713 0.0179724 0)
(1.02486 0.0183469 0)
(1.03732 0.0180218 1.47463e-19)
(1.02882 0.0254462 0)
(1.02683 0.0222477 0)
(-0.387261 2.1393 0)
(-0.367353 1.91838 -3.24579e-20)
(-0.390671 2.06861 -7.66993e-20)
(-0.310977 1.39828 0)
(-0.431432 1.83416 -1.3563e-19)
(-0.378687 1.69426 3.96925e-20)
(-0.354163 1.48343 0)
(0.398483 1.68006 0)
(0.353267 1.28479 6.99465e-19)
(0.282201 1.33586 0)
(0.415866 1.28654 -9.09128e-19)
(0.457457 1.45246 0)
(0.436083 1.38876 4.17433e-19)
(1.03106 2.70737 -3.92825e-21)
(0.962182 2.41867 -2.68883e-19)
(0.909602 2.18538 2.75877e-19)
(0.849791 2.37878 1.1011e-19)
(0.847222 2.52347 0)
(0.913031 2.5232 0)
(0.926378 2.38644 0)
(0.905992 2.36605 -4.12433e-19)
(0.695305 2.50303 6.07846e-21)
(0.802243 2.49019 -1.14639e-20)
(0.808663 2.4664 8.76288e-21)
(0.696765 2.38974 0)
(0.798645 2.38442 0)
(0.763345 2.39612 -2.22242e-19)
(0.76968 2.50177 0)
(0.583307 1.05903 0)
(0.514626 0.910905 -4.41877e-20)
(0.516263 0.967593 -8.77495e-22)
(0.494586 1.10108 0)
(0.483073 1.02224 7.57774e-20)
(0.743383 0.855762 1.23197e-20)
(0.755074 0.998299 0)
(0.731184 0.973108 -6.63351e-20)
(0.621636 1.00992 0)
(0.616374 0.932113 0)
(1.16268 2.78356 6.92207e-20)
(1.13931 2.84303 1.36433e-19)
(0.930847 2.3815 -3.176e-19)
(0.904517 2.35585 4.64885e-20)
(1.12977 2.76069 0)
(1.07977 2.73087 -5.58003e-20)
(1.09451 2.51402 -5.44699e-20)
(0.99175 2.25468 -2.81552e-20)
(0.496362 1.37686 0)
(0.507406 1.08823 1.08254e-19)
(0.554855 1.15358 0)
(0.875972 0.201566 0)
(0.82247 0.166424 0)
(0.765278 0.169892 0)
(0.866527 0.210321 -2.90861e-19)
(0.808562 0.213853 1.82621e-19)
(0.935952 0.0581093 -1.63892e-19)
(0.949561 0.105701 0)
(0.921488 0.107929 7.36276e-20)
(0.884757 0.0763478 3.0141e-19)
(0.867977 0.0539381 -1.84854e-19)
(1.10778 3.37605 -9.49036e-19)
(1.16949 3.29823 0)
(1.12913 3.46048 -2.03028e-18)
(0.666551 3.60557 1.71967e-18)
(1.03987 3.09897 4.28874e-19)
(0.52222 0.851435 2.01106e-19)
(0.511868 0.824967 0)
(0.39733 0.531414 -7.93055e-20)
(0.470898 0.689366 3.66248e-19)
(0.520588 0.50362 -1.05736e-19)
(0.516015 0.527386 1.23301e-19)
(0.670279 0.543395 2.38883e-19)
(0.697988 0.573197 0)
(0.641061 0.614366 0)
(0.603413 0.561579 0)
(0.955019 0.595136 -5.63989e-20)
(0.901545 0.552677 -1.52774e-19)
(0.92946 0.591161 4.24389e-20)
(0.966134 0.499709 -1.08455e-19)
(1.0155 0.477752 0)
(1.02713 0.581025 3.46328e-21)
(0.823917 0.396876 -3.75193e-19)
(0.820242 0.38633 -4.4788e-19)
(0.790786 0.388417 2.93656e-19)
(0.785583 0.346324 -3.37173e-19)
(0.83347 0.305488 -2.46147e-19)
(0.800534 0.303186 3.02757e-19)
(1.02586 0.00583257 -1.53781e-19)
(1.02578 0.00582481 3.11365e-19)
(1.03031 -0.000422573 1.94327e-19)
(1.03343 0.00107114 -2.35711e-19)
(1.03264 0.00758021 0)
(1.02959 0.00645039 -3.81327e-19)
(0.0672454 1.68676 -6.64425e-20)
(0.0780122 1.61032 0)
(0.0706862 1.71714 -5.64857e-19)
(0.07349 1.69816 5.19565e-19)
(0.0640929 1.51966 -3.14286e-19)
(0.0939315 1.51878 0)
(-0.368769 2.11083 0)
(-0.332642 1.68398 1.08551e-19)
(-0.438256 1.6466 -9.86827e-20)
(-0.413777 1.84038 -3.96851e-20)
(-0.377895 2.16561 1.54597e-19)
(-0.372372 2.18403 -9.48756e-20)
(0.482451 1.39099 4.28962e-19)
(0.483453 1.38845 -4.59127e-19)
(0.421167 1.28343 4.6855e-19)
(0.41229 1.30394 -2.65808e-20)
(0.60096 1.29565 0)
(0.534908 1.37989 5.44034e-19)
(0.53611 1.38888 -5.28892e-19)
(0.450847 1.25702 -4.45566e-19)
(0.488536 1.22353 0)
(0.554852 1.19039 0)
(0.670206 2.4646 -8.96043e-21)
(0.6672 2.47669 5.50409e-19)
(0.722991 2.491 -3.77347e-19)
(0.630473 2.46544 -1.15429e-19)
(0.557018 2.57063 8.81213e-20)
(0.500533 2.52557 -2.66205e-19)
(0.972925 2.39095 -1.50295e-19)
(1.01738 2.41671 0)
(0.921952 2.16907 -1.95796e-19)
(1.0483 2.71076 0)
(1.04821 2.69678 0)
(0.630524 2.33214 3.65921e-19)
(1.12722 3.09388 4.49247e-19)
(1.01468 2.99964 -5.34056e-19)
(0.345562 0.906215 0)
(0.377128 0.829312 -1.38205e-19)
(0.557133 0.750763 -6.25788e-20)
(0.401023 2.18237 0)
(0.417644 2.75493 -3.01509e-19)
(0.430433 2.49871 0)
(0.687807 0.679455 -2.66936e-19)
(0.74059 0.672396 3.65188e-19)
(0.748899 0.643815 -3.64636e-19)
(0.674777 0.653114 -3.99687e-20)
(0.720438 0.608056 -1.66289e-19)
(0.9861 2.78299 -3.40338e-19)
(1.01849 2.78106 2.44447e-19)
(0.588502 2.26987 -1.69222e-19)
(0.627369 1.77209 6.83096e-20)
(0.718326 1.89446 3.18658e-20)
(0.986128 2.42411 -9.0288e-20)
(0.983854 2.38423 -9.41452e-20)
(0.677682 1.82328 -3.81521e-22)
(0.476139 1.34046 -5.43365e-20)
)
;

boundaryField
{
    wall-4
    {
        type            noSlip;
    }
    velocity-inlet-5
    {
        type            fixedValue;
        value           uniform (1 0 0);
    }
    velocity-inlet-6
    {
        type            fixedValue;
        value           uniform (0 3 0);
    }
    pressure-outlet-7
    {
        type            zeroGradient;
    }
    wall-8
    {
        type            noSlip;
    }
    frontAndBackPlanes
    {
        type            empty;
    }
}


// ************************************************************************* //
