/*--------------------------------*- C++ -*----------------------------------*\
  =========                 |
  \\      /  F ield         | OpenFOAM: The Open Source CFD Toolbox
   \\    /   O peration     | Website:  https://openfoam.org
    \\  /    A nd           | Version:  6
     \\/     M anipulation  |
\*---------------------------------------------------------------------------*/
FoamFile
{
    version     2.0;
    format      ascii;
    class       surfaceScalarField;
    location    "53";
    object      phi;
}
// * * * * * * * * * * * * * * * * * * * * * * * * * * * * * * * * * * * * * //

dimensions      [0 3 -1 0 0 0 0];

internalField   nonuniform List<scalar> 
1300
(
3.75095
5.62643
-3.33222
3.75095
-7.77211
5.62643
-4.23036
4.23036
-0.612293
0.612293
1.87646
1.87449
-2.54598
2.54598
-1.9725
1.9725
-2.53921
2.53921
-5.24805
5.24805
-5.06934
5.06934
4.70737
-4.70737
-6.31682
6.31682
-1.00792
1.00792
-3.58916
3.58916
3.17272
-3.17272
-1.97592
1.97592
-0.0784624
0.0784624
-0.554094
4.30505
3.19686
3.19686
-1.95511
1.95511
-4.87449
4.87449
6.22226
-6.22226
5.26814
-5.26814
-1.93593
-2.46579
1.81615
-11.5418
-5.95596
-5.95596
-8.44102
8.44102
-2.81459
2.81184
2.94651
-2.94651
-1.73339
1.73339
-4.2409
0.0105436
-4.2409
4.19667
0.0336857
4.19667
-0.685805
0.0735123
-0.685805
3.89694
-3.89694
0.509272
0.10302
0.509272
3.06711
-3.06711
-1.87687
3.75333
1.87409
-1.87208
6.17713
-1.87887
3.75336
-6.06602
6.06602
-2.76413
0.218148
-2.76413
2.34387
0.20211
2.34387
-6.86333
6.86333
-2.01903
0.0465231
-2.01903
1.97225
0.000248409
1.97225
2.88494
-2.88494
-2.63797
0.0987622
-2.63797
2.40369
0.135523
2.40369
0.353446
5.27298
-5.97988
8.79172
-5.27298
0.0249314
5.2104
0.0376492
5.2104
-5.10508
0.0357397
-5.10508
5.01339
0.0559571
5.01339
4.79957
-0.0921995
4.79957
-4.82391
0.116544
-4.82391
-3.37343
-4.05946
-6.47242
0.155607
-6.47242
-1.05908
0.0511582
-1.05908
0.92275
0.085169
0.92275
-3.7014
3.7014
-3.91448
0.325325
-3.91448
3.12769
0.0450313
3.12769
1.86812
1.88283
5.61908
-5.61908
2.44636
-1.94283
-0.033088
-1.94283
-2.03821
-3.22994
2.03821
-0.0622919
-0.297282
0.218819
-0.297282
3.15706
0.0397951
3.15706
2.24164
0.162052
-2.24164
0.286531
3.28773
-3.28773
1.2952
0.659906
1.2952
-5.55981
5.55981
4.96135
0.052038
-4.96135
0.0868592
6.15668
0.0655764
6.15668
-6.20773
-0.0145253
-6.20773
2.50116
-4.96696
-2.61575
6.13565
0.181163
-6.13565
0.179694
2.91772
0.0287947
2.91772
-2.92013
2.92013
-2.98374
0.0372266
-2.98374
-2.15673
0.423341
-2.15673
1.41782
0.315573
1.41782
-4.15176
-0.0891407
-4.15176
-4.05542
0.140943
4.05542
0.141248
1.10053
-1.10053
-0.757768
0.0719629
-0.757768
-3.99924
-0.152523
3.99924
-0.102301
-3.84395
-0.0529882
-3.84395
-3.02157
0.0378288
3.02157
0.0455398
3.11201
0.0450565
-3.11201
0.0449007
-1.87098
3.75381
-1.87997
3.75406
-5.68564
-0.38038
-5.68564
6.35265
-0.28663
6.35265
3.15438
0.434772
-3.15438
0.390257
2.19392
0.149954
2.19392
-6.83995
-0.0233801
-6.83995
6.86517
-0.00184076
6.86517
2.08775
0.106169
-2.08775
0.0687214
1.96772
0.00453605
1.96772
2.91141
-0.026477
2.91141
-2.87967
-0.00526194
-2.87967
2.79441
-2.79441
2.72179
0.0726249
-2.72179
0.0838153
-11.124
11.1094
-0.0363708
-11.0876
5.17403
5.17403
4.2552
0.544367
4.2552
-5.01681
0.192897
-5.01681
2.67203
-5.28778
3.07311
-6.44654
4.67406
-16.2159
4.31261
-8.37207
6.7157
-6.7157
6.60022
0.115475
-6.60022
0.127797
-1.14618
0.0871001
-1.14618
-3.10861
-0.592789
-3.10861
4.3421
-0.640706
4.3421
-3.02798
3.02798
-3.07665
0.0486616
3.07665
0.0510397
1.95535
0.0123657
-1.95535
0.0125232
0.394437
0.114835
-0.394437
0.0971554
3.50385
-0.216119
3.50385
-3.0879
-0.199822
-3.0879
-1.22921
0.0830368
1.22921
0.0659869
-5.80777
0.247954
-5.80777
-11.1815
0.0939416
-11.1439
-6.11379
-6.11379
2.32723
11.1189
-2.89563
0.0159599
2.89563
0.0220836
2.97561
0.0523762
-2.97561
0.0554772
-2.86018
0.0657611
2.86018
0.0599554
-2.5255
0.368772
-2.5255
-1.02808
1.02808
-1.18055
0.152468
1.18055
0.23727
1.39298
-0.292446
1.39298
0.839447
0.0833021
-0.839447
0.0816794
-3.80027
-0.0436827
-3.80027
6.58812
-0.235464
6.58812
-2.96103
-0.126869
2.96103
-0.0496222
-0.0350082
11.1444
-5.13902
0.0339409
5.13902
-11.21
11.244
-3.23257
0.707067
3.23257
1.02263
5.28499
0.274823
-5.28499
0.268178
6.80539
0.05978
-6.80539
0.0896991
-2.60187
-0.506742
-2.60187
-5.0897
-0.595945
5.0897
-0.747596
-11.4821
-0.202426
11.6846
-11.4262
6.01019
0.146491
-6.01019
11.3904
-0.988629
-0.1119
0.988629
0.0394506
1.72983
-0.336849
1.72982
3.71381
-0.20996
-3.71381
-0.0864594
-6.73887
-0.101087
6.73887
-0.150749
-2.15789
-0.443975
2.15789
-0.428067
-4.26732
4.30712
1.9098
-2.35978
-2.60718
-5.58971
1.85513
1.89868
4.30149
-10.1809
-6.03505
-10.0012
7.2129
-6.94472
-9.34344
9.25124
7.86274
-7.91573
-5.77784
5.82888
6.48431
-6.43877
1.87931
1.87402
7.99863
-7.78048
-15.7199
15.3395
7.57437
-7.52785
15.8502
-15.8736
-17.8933
17.9531
-5.69629
5.79506
-6.73935
6.73409
-6.97345
6.92383
-2.8186
-3.62794
13.1516
-12.996
8.58026
-8.61335
-8.65134
8.97666
3.38455
0.922565
3.42961
-1.88189
3.7612
-1.87147
3.78127
2.71713
-5.53572
2.57065
-5.17783
4.36221
4.21805
-4.29992
-1.28979
-5.92746
5.95626
-5.81076
5.87071
9.10048
-9.08993
-1.88497
3.759
-1.86908
3.76776
-3.42333
-2.35451
3.3783
0.923189
8.09599
5.05564
-8.27715
-1.72401
-7.99085
7.78089
-8.20368
8.00386
-0.435911
5.83743
-5.40152
4.43858
-1.65425
7.49168
5.55865
5.75155
5.86062
-5.5858
1.0841
-6.48562
-6.39876
-2.41098
2.48295
2.31426
-2.21124
6.08751
1.77523
5.98521
-5.77142
-2.1443
-5.81511
3.82016
2.00872
3.86882
4.08156
2.40274
4.11939
3.02992
-3.0364
0.00648264
-3.05904
6.08896
0.722597
-5.41355
-4.49036
4.99135
3.00728
5.19346
-5.55805
-2.22243
-5.16779
-9.61194
-6.10795
-10.2079
10.1124
5.22711
9.82577
-11.987
11.8362
4.8633
2.71107
4.86355
-4.96789
-2.55996
-4.89917
11.6729
-2.62337
-9.0495
-10.3441
-7.54922
10.346
5.50424
10.9916
6.96154
11.0813
4.42997
7.2429
-9.93422
2.38499
-3.86264
-1.83365
-3.77883
3.6535
2.14155
3.78903
-4.21778
-2.52157
-4.20182
-4.29336
-2.68009
4.31984
2.41425
-4.41198
-3.7917
4.53885
2.38497
4.04455
-10.0796
4.32752
-7.95546
-9.21977
-3.77625
-9.09197
3.51305
2.60905
-6.1221
-2.02267
8.49029
-4.27224
7.2005
-5.20461
-3.40874
-5.19208
-6.9147
-1.73664
-6.77376
-8.95678
8.45004
-9.23698
8.59627
12.6006
-5.67477
-6.92587
-3.96689
-2.47187
3.92199
-0.492385
-3.71016
3.71664
0.051043
3.83232
4.75488
4.2625
-3.88258
-1.92818
-3.8271
3.82286
2.04785
3.88862
6.79537
2.30511
6.82905
-6.55689
-2.53305
-6.64603
9.1224
-8.69906
2.83033
-2.74729
5.35635
2.64751
-5.14023
-2.85062
6.24016
-3.19664
-3.04352
-12.3519
10.8245
1.52742
-4.86026
-0.421681
-0.343218
-5.57763
-3.7658
5.46109
0.290456
11.115
7.34918
-5.51558
5.76353
6.16899
6.22103
-0.177732
5.90549
-5.19843
5.29601
-2.64981
-2.6462
5.43329
-5.58582
-1.21273
-5.5
4.28727
0.399393
1.6172
-1.39838
-1.86001
-0.55097
-1.77833
1.33145
0.982811
1.44629
0.916215
1.56673
-2.91239
0.570997
2.34139
-1.99618
-1.64024
-3.75199
-1.13173
4.88372
5.69072
2.09018
-5.60426
-0.21085
2.62283
-2.53767
-0.803368
-2.94862
2.18696
-2.99033
-3.49595
-1.88559
5.38154
-3.36899
-0.458107
3.31662
0.552201
-3.82768
-2.09978
3.79046
0.328936
-3.12806
6.19012
-3.06205
-5.05624
2.5289
3.56006
4.53762
-4.79038
2.44887
2.34151
-1.23032
4.27518
0.91828
4.42514
-6.97029
4.74786
5.71606
3.26061
-6.15083
0.983035
-5.98726
8.51655
-7.37061
-1.14593
4.07901
4.43753
7.08711
5.51353
-5.71154
12.7986
-1.13249
-6.23812
7.11975
-3.85915
4.83782
-8.69697
-10.3514
4.11324
-9.24135
11.0613
-1.81996
-3.61131
-8.37567
12.8527
-1.21463
-11.638
8.61114
-4.27082
-4.30925
8.58007
-6.89418
6.86922
-1.98316
-4.88606
-10.1605
-5.71309
10.2616
1.57466
-9.89211
12.2771
-2.64921
4.15228
0.711265
4.15682
3.31373
-5.44035
2.12662
3.58045
-5.56361
2.07186
-7.51222
-6.75564
12.0944
-5.33875
-10.5319
-9.55474
-0.97714
2.55217
9.72493
-9.51371
7.44997
2.06374
3.29985
0.588768
-3.37248
-0.406351
0.235681
4.51702
-4.75271
4.02471
4.18676
3.23633
1.28069
3.84834
2.10792
-3.87042
-0.331394
-4.16618
1.48609
-1.75193
-3.69138
5.17747
-4.06195
0.37057
-2.74569
-3.49477
6.24046
-4.57934
3.03665
3.15346
5.08451
-4.91371
1.41894
-2.3916
-2.52211
2.64301
-4.39494
1.99505
3.18241
4.38003
0.588328
5.89179
6.2026
-8.50083
0.545369
11.2582
-9.53423
2.47956
8.60172
-9.92952
0.374781
-8.71719
0.983749
-5.25599
-5.13835
5.16853
-6.90517
-3.52844
6.21587
0.613184
-6.35712
-0.41664
-6.08421
-2.87257
-6.52819
-3.06103
-6.17595
-8.77257
-1.6813
-7.09126
6.76874
-6.69628
-3.5116
7.44387
1.1524
-7.48735
7.37545
-7.55218
7.21533
0.0945738
3.62207
4.35707
1.8852
-2.39175
4.27695
-5.06165
7.36676
-8.72142
3.65977
4.20344
-6.73649
-4.51798
5.06982
4.05258
5.38539
8.95564
-10.4241
1.46848
-10.7023
12.0431
-1.3408
-16.4965
5.79419
-7.54089
2.47594
0.354385
2.56304
0.57789
2.49158
-3.06947
-2.1694
-2.10342
-2.42271
-3.49649
5.9192
1.0895
-3.44598
2.35648
-3.56937
4.65887
-0.0339146
-3.41207
5.20515
-2.71357
5.55954
-3.60328
1.95625
3.52659
5.83478
-2.3082
4.4227
-1.77519
1.92441
-4.2326
-1.57208
-2.95582
5.09737
-3.28464
3.65521
-0.34467
3.99988
-4.08251
0.885865
-0.846176
3.34058
3.62711
4.33045
-3.04976
2.94567
-4.72086
-1.28693
-4.13254
-0.950122
-0.194939
-3.82516
4.0201
6.03907
-6.234
-5.29292
9.54614
-4.25321
7.71772
-5.4495
-2.26822
-4.30283
-4.39623
3.93405
1.97144
9.68916
0.179987
-5.62948
-5.01844
-3.99581
3.13113
2.16488
-1.81208
3.3395
2.1553
-0.538099
0.447497
0.99879
1.79073
-1.34323
0.302436
1.48829
-1.09595
1.80526
0.81757
-1.88857
0.110232
-1.26214
3.4491
1.07926
-2.06207
0.718839
0.914621
-3.56443
5.01722
-2.68696
-2.33026
5.93184
1.1451
-3.83206
4.3549
-3.95551
2.42238
-3.55411
-1.40968
-5.36519
-3.58996
-2.5079
4.86438
-3.4113
5.50147
1.36844
-5.29062
6.65906
-3.61743
1.73184
-3.07423
3.8918
-1.04144
-2.03279
2.90579
2.47575
-3.10218
0.153562
-0.196394
2.40502
-2.60142
-0.585307
-2.58148
-4.57537
4.90431
-2.10432
4.55319
2.17263
-1.91698
6.47017
1.80836
-3.72534
-3.24788
-3.70599
-1.38383
3.15379
-0.594794
-4.30437
-5.48086
4.1982
0.226936
-6.95744
7.82738
-0.869947
-3.95016
-0.7977
4.87671
-6.04379
0.480182
-3.97193
3.85546
4.77374
5.00067
-11.4166
-0.221401
-6.18952
1.10927
-7.2988
5.54681
-3.5965
7.70974
-10.3545
6.84294
-9.20214
6.56381
-0.73499
6.24065
-4.11402
2.80886
-8.52195
-6.94728
5.49208
-2.781
6.20334
-3.14986
9.3532
-5.79907
5.27768
4.07552
-1.01459
-4.17749
-5.26937
4.25478
0.00830843
4.16513
4.98565
-2.87774
4.65426
2.26225
-4.65385
-2.13269
-6.48837
1.83453
-3.33491
-1.92106
3.75558
3.16345
3.75222
1.23347
-3.34587
7.2181
-8.19524
-1.87935
-3.259
5.25775
-1.00297
3.40699
-6.66599
-1.84901
4.79471
-0.737533
-4.05718
0.880061
-4.4085
1.68307
-6.09157
5.2221
-5.63874
2.25114
-9.79204
-5.23621
-5.19676
-2.2809
-5.27128
-7.60591
5.32502
-1.81172
5.56373
-8.56091
7.82337
-3.48224
8.80725
-5.47306
-1.05512
5.90113
1.3142
10.1215
0.153106
-4.67108
-1.94267
3.78755
-1.84487
1.18846
-3.67205
0.115493
2.47327
3.45857
-6.76054
0.024054
-4.64703
-3.91675
7.96933
5.62939
11.6685
1.24434
9.16057
-1.19124
10.4049
4.19415
4.43142
-3.04493
4.51341
0.975172
4.63494
-0.879343
2.83559
1.6837
1.73486
0.802806
2.28925
1.33787
3.17511
0.105644
-1.99777
4.64238
-8.63819
-0.987104
-8.09382
1.15742
5.42452
-4.2671
2.93598
-0.771099
1.0911
-0.0867672
-1.37419
1.46095
-2.73297
-1.91228
-0.423993
-1.60185
2.32069
1.84725
-1.8967
-0.836275
0.323932
-3.91389
3.23017
-3.07661
-0.600861
6.0582
-2.86685
0.265429
-1.135
-2.31605
-2.86703
2.75679
6.17471
0.295466
3.11265
5.19977
3.1
0.222258
3.85708
-5.67703
-3.65514
-5.89843
-0.351626
4.52509
1.73438
7.99055
5.8099
4.80694
-1.85905
-10.0543
6.55726
-2.04385
5.21646
-1.15928
-4.9323
5.05422
2.31254
-5.6674
0.0286653
-4.90363
-6.94748
-0.485648
8.30902
-9.63581
8.58069
5.70811
1.38315
-4.44537
-0.751394
4.2929
0.138524
10.5434
-0.904503
-7.11143
8.01593
-4.52001
3.53291
0.701456
2.63804
2.16241
1.39131
-5.72012
-9.98722
-2.02119
-1.54324
-4.35145
0.532269
-2.37952
6.0878
-2.55489
3.81958
5.46104
6.55215
-2.05493
-4.17908
6.30814
-2.48856
4.06358
)
;

boundaryField
{
    wall-4
    {
        type            calculated;
        value           uniform 0;
    }
    velocity-inlet-5
    {
        type            calculated;
        value           uniform -3.75095;
    }
    velocity-inlet-6
    {
        type            calculated;
        value           uniform -5.62643;
    }
    pressure-outlet-7
    {
        type            calculated;
        value           nonuniform List<scalar> 8(3.33222 7.77211 4.40172 9.72569 7.4329 5.11691 5.74513 8.98667);
    }
    wall-8
    {
        type            calculated;
        value           uniform 0;
    }
    frontAndBackPlanes
    {
        type            empty;
        value           nonuniform 0();
    }
}


// ************************************************************************* //
