/*--------------------------------*- C++ -*----------------------------------*\
  =========                 |
  \\      /  F ield         | OpenFOAM: The Open Source CFD Toolbox
   \\    /   O peration     | Website:  https://openfoam.org
    \\  /    A nd           | Version:  6
     \\/     M anipulation  |
\*---------------------------------------------------------------------------*/
FoamFile
{
    version     2.0;
    format      ascii;
    class       volVectorField;
    location    "53";
    object      U;
}
// * * * * * * * * * * * * * * * * * * * * * * * * * * * * * * * * * * * * * //

dimensions      [0 1 -1 0 0 0 0];

internalField   nonuniform List<vector> 
918
(
(0.985048 -0.000712626 0)
(0.005351 2.96624 0)
(-0.000605119 0.880717 0)
(0.979574 0.00196013 0)
(-0.012526 2.06785 3.14138e-20)
(-0.00709404 2.94856 -2.61266e-18)
(0.808353 1.10966 4.39368e-19)
(0.207084 0.089262 -1.4695e-20)
(0.999921 -0.000243088 0)
(0.0846597 0.700967 0)
(0.0107096 0.467719 0)
(0.734162 -0.0180912 0)
(0.010178 2.93164 0)
(0.00380611 2.79443 0)
(-0.00130247 3.18443 8.25999e-19)
(-0.0125614 1.91961 1.4107e-20)
(0.294518 0.024527 9.86139e-19)
(0.228527 1.11319 3.54418e-19)
(0.964417 0.00673718 0)
(-0.00137622 0.43059 0)
(0.0336026 0.120793 -6.8895e-19)
(1.00183 -0.0045624 0)
(0.999851 -0.00892948 0)
(0.975162 -0.00605354 0)
(0.595763 -0.0182701 0)
(0.0218624 2.64445 0)
(-0.0122646 2.91188 9.58585e-19)
(-0.00412817 0.936901 0)
(-0.024963 1.16775 0)
(-0.00197487 0.907879 0)
(-0.0195095 2.60098 0)
(-0.0034256 2.11763 -2.50913e-20)
(-0.00854885 1.89698 0)
(-0.0221421 2.9876 -9.42852e-23)
(-0.0164948 3.0055 2.03015e-18)
(0.00230312 3.0006 0)
(0.87169 -0.00970708 0)
(0.377383 0.918888 1.64923e-19)
(0.807366 1.12803 -5.51615e-19)
(0.940373 0.992239 5.56064e-19)
(0.671583 1.20947 -1.01391e-19)
(0.684935 1.17283 5.79444e-19)
(0.229013 0.164809 1.43361e-20)
(0.21508 0.0735358 0)
(1.14997 0.525361 0)
(0.20215 0.153605 6.53628e-20)
(0.182052 0.0886599 -6.78284e-20)
(0.92049 -0.00703367 0)
(1.00026 6.96809e-05 0)
(0.999908 0.000319083 0)
(1.0037 -0.00728417 0)
(1.00089 -0.000944193 0)
(1.00011 -9.4346e-06 0)
(0.0934868 1.84025 -7.42139e-19)
(0.0340046 0.884247 0)
(0.127026 0.778152 0)
(0.0201346 0.837786 0)
(0.0439683 0.634534 0)
(0.00391804 2.02046 0)
(-0.00635543 0.749552 0)
(0.0109113 0.494475 0)
(-0.00421514 0.742003 0)
(0.00614259 0.46665 0)
(0.842437 -0.0157292 0)
(0.83828 0.0343166 0)
(0.766232 -0.00830827 0)
(0.807845 0.045059 0)
(0.702454 -0.0164179 0)
(0.013941 3.0002 9.70186e-19)
(0.0111613 3.00593 0)
(0.00626753 3.00388 0)
(0.011877 2.9971 1.10239e-23)
(0.0082515 2.95876 -1.44193e-18)
(0.0122042 2.98298 0)
(0.00905326 2.90489 0)
(0.0211646 2.93157 2.24568e-24)
(0.00411854 2.82383 0)
(0.0260088 2.91881 0)
(-0.00106798 2.74499 0)
(0.308141 3.58226 0)
(-0.122395 3.66534 0)
(0.151115 3.27536 -7.68751e-19)
(0.00469981 3.01034 0)
(-0.0247344 1.98935 0)
(-0.00577962 2.17601 -1.39135e-20)
(-0.00861072 1.93019 1.25162e-20)
(0.379309 0.143605 -3.41815e-19)
(0.312861 0.000512646 -3.31974e-19)
(0.340885 0.159153 -1.02566e-18)
(0.268388 0.0329663 -6.69639e-19)
(0.259635 1.0093 0)
(0.325617 1.23855 -3.65587e-19)
(0.403268 1.14469 6.02572e-19)
(0.987803 0.00812875 0)
(0.943333 0.00579651 0)
(1.00028 0.000672353 0)
(1.00254 0.00906824 0)
(1.00312 0.00897775 -2.62404e-18)
(0.992135 0.00944202 1.98288e-18)
(-0.0161285 0.759666 0)
(-0.00214562 0.446267 0)
(-0.0496 1.02197 0)
(-0.0356888 0.808549 0)
(-0.0191043 0.426459 0)
(0.0284997 0.140278 2.13085e-19)
(0.0920144 0.109438 0)
(0.993619 -0.00769634 0)
(0.954029 -0.00647813 0)
(0.748275 0.0488021 0)
(0.681616 0.0527016 0)
(0.660614 -0.0204039 0)
(0.976049 -0.0036722 0)
(0.602702 0.0524416 0)
(0.447304 -0.0317792 1.48651e-18)
(-0.0408705 2.86113 7.58609e-19)
(0.0335082 2.91442 0)
(0.0424439 2.89219 0)
(0.00371172 2.70169 0)
(-0.00890429 2.98629 9.18397e-19)
(-0.0142946 2.89469 0)
(-0.011047 2.99185 -2.8257e-18)
(-0.0115898 2.92962 9.61563e-19)
(-0.0354513 1.34017 0)
(-0.0079913 1.36738 0)
(-0.00629919 2.13811 5.92532e-22)
(-0.00611951 2.0998 0)
(-0.0162515 1.90632 0)
(0.938676 -0.00527882 0)
(0.856906 -0.0110848 0)
(0.863552 0.00519268 0)
(0.949511 -0.00620382 0)
(0.883513 -0.0080637 0)
(0.501423 1.1193 -2.09479e-19)
(0.548662 1.18927 0)
(0.339063 0.853264 3.2069e-20)
(0.282962 0.717959 0)
(0.906093 1.02447 -1.56626e-19)
(1.02692 0.834702 3.12026e-19)
(0.384404 1.31031 0)
(0.53273 1.26383 0)
(0.586189 1.18852 0)
(0.100128 0.179476 -2.95874e-19)
(0.248455 0.167246 0)
(0.218693 0.076675 1.88376e-19)
(0.990524 0.889059 0)
(1.06561 0.738262 0)
(1.09483 0.673584 -2.46712e-19)
(1.13218 0.585511 0)
(1.18762 0.389131 4.56627e-20)
(0.957394 -0.00713943 0)
(0.962665 -0.00813371 0)
(0.900808 -0.00735784 0)
(0.983914 -0.00813288 0)
(0.974395 -0.0080488 0)
(0.936508 -0.00655861 0)
(1.0002 0.00250314 0)
(1.00077 0.00124487 0)
(1 0.000765981 0)
(0.0435882 2.08649 4.13874e-19)
(0.145029 1.78342 0)
(0.0182452 2.20352 6.26599e-19)
(0.0519452 1.88878 -5.26014e-19)
(0.164237 1.09361 -2.90905e-19)
(0.0462222 0.960858 0)
(0.119092 0.955584 0)
(0.0074017 0.802597 0)
(0.024112 0.573599 0)
(-0.003499 2.25288 -5.93166e-22)
(0.017312 2.02666 0)
(-0.00456063 2.25251 -2.00989e-20)
(0.00307901 2.03075 2.74429e-20)
(-0.000811876 0.771353 0)
(-0.00343103 0.758987 0)
(0.0108416 0.52166 0)
(-0.00819379 0.749731 0)
(0.00688195 0.458968 0)
(0.938581 0.0135314 0)
(0.854897 -0.0118873 0)
(0.928013 0.00463205 0)
(0.845434 -0.0128263 0)
(0.812177 -0.00231404 0)
(0.898274 0.0230619 0)
(0.872157 0.0286807 0)
(0.7883 -0.00551603 0)
(0.0101723 3.06777 -9.04355e-21)
(0.0152145 3.0588 0)
(0.0123965 2.97027 0)
(0.00766927 2.87666 0)
(0.89859 3.97868 0)
(1.19338 3.37394 9.41736e-19)
(0.0820045 3.09234 0)
(-0.0167542 2.9189 0)
(-0.01002 1.39215 0)
(-0.0294547 1.69231 0)
(-0.0182726 1.5264 0)
(-0.0298927 2.55943 -1.1913e-20)
(-0.0133084 2.24818 0)
(-0.0189215 2.3965 0)
(0.000107822 1.95631 7.50348e-22)
(-0.00412628 2.2479 -1.59549e-20)
(-0.00511705 2.2119 -1.28741e-20)
(-0.00503116 1.94204 0)
(0.413365 0.120097 5.2401e-19)
(0.343935 -0.00676161 -5.13899e-19)
(0.23078 1.59081 0)
(0.288702 0.757541 -3.22785e-19)
(0.184385 1.68717 -1.06445e-18)
(0.244329 1.21158 1.06535e-18)
(0.901788 0.0060138 0)
(0.967138 0.0105686 0)
(0.974989 0.00980652 0)
(0.92308 0.00592231 0)
(-0.0116287 0.758444 0)
(-0.00457129 0.756155 0)
(-0.00532621 0.445265 0)
(0.168975 0.149746 6.01766e-19)
(0.132452 0.137323 -7.1105e-19)
(0.1348 0.0966968 0)
(1.10169 0.0886667 2.40615e-20)
(1.08545 0.04131 0)
(1.01557 0.0430394 0)
(0.911052 -0.00218489 0)
(0.451753 0.097351 0)
(0.516335 0.0701978 -2.38015e-18)
(0.383308 -0.0099648 8.94402e-19)
(0.0109165 2.97736 8.02593e-19)
(-0.0325229 2.86167 4.60316e-20)
(0.00851047 3.05332 -1.9082e-20)
(0.0156454 3.04334 7.15917e-19)
(-0.0118292 2.99998 3.16216e-20)
(-0.0123479 2.95225 -1.27625e-22)
(-0.0150279 3.01333 -5.90425e-19)
(0.0142745 3.02671 4.15177e-19)
(0.00758891 3.03474 -6.74818e-19)
(0.934306 0.00195503 0)
(0.93923 -0.00124435 0)
(0.847606 -0.0111416 0)
(0.956461 0.0116377 0)
(0.942611 0.0131155 0)
(0.881799 0.00560472 0)
(0.916006 0.0183391 0)
(0.925488 0.0151026 0)
(0.838176 0.00145879 0)
(0.674439 1.41834 1.89244e-20)
(0.692461 1.52901 0)
(0.120864 0.30238 6.81775e-20)
(0.206608 0.647306 5.3989e-19)
(0.238717 0.693216 -3.1627e-19)
(0.219495 0.510793 6.26746e-19)
(0.33421 0.820813 1.5661e-18)
(0.130109 0.23212 3.76457e-19)
(0.312117 0.172589 7.11438e-19)
(0.276557 0.177206 1.84057e-19)
(0.238572 0.0561585 3.52074e-19)
(1.18114 0.440136 8.62252e-20)
(1.20868 0.243439 8.48851e-20)
(0.00797674 2.24567 2.45125e-19)
(0.0381933 1.95179 0)
(0.970855 0.0325861 0)
(0.945413 0.018913 0)
(0.869086 -0.015523 0)
(0.0126635 3.07446 0)
(0.0168866 2.94416 1.26555e-18)
(0.0139245 2.95681 0)
(0.00583968 2.8497 -1.25576e-18)
(0.00919439 3.09122 3.09353e-19)
(0.0114334 3.08296 0)
(0.712921 1.82601 -1.72814e-19)
(1.23787 2.63184 5.84125e-19)
(0.69767 2.00428 -1.40488e-18)
(0.0222153 2.9763 -6.99743e-19)
(0.0406153 2.99834 0)
(-0.0387212 2.87886 0)
(-0.00563863 2.23128 -1.28781e-20)
(-0.00405894 2.25243 2.84562e-20)
(0.000381648 1.99165 -7.42359e-21)
(0.268913 1.39312 1.0296e-18)
(0.277853 0.550013 -7.06427e-19)
(0.0696227 2.0049 7.47509e-19)
(0.124839 1.87345 -8.99037e-19)
(0.207048 1.53476 1.01794e-19)
(0.00778388 3.11966 -1.72335e-18)
(0.0138086 3.1209 1.90153e-18)
(-0.00515908 2.98007 8.61781e-19)
(-0.00124587 2.97494 -8.27197e-19)
(-0.0180146 2.87742 -8.77757e-19)
(0.0125381 3.09913 -2.29932e-18)
(0.00432933 3.10614 2.33908e-18)
(0.258962 0.690651 0)
(0.211721 0.654558 -1.14577e-18)
(0.0712408 0.213442 5.03883e-19)
(0.342904 0.938439 1.11572e-18)
(0.194809 0.274858 -1.71806e-18)
(1.19012 0.173733 4.90985e-20)
(1.20539 0.301421 0)
(1.18569 0.11981 6.99073e-21)
(-0.00169965 2.26211 -1.33688e-21)
(0.0024531 2.24913 0)
(0.0289844 1.98674 0)
(0.311174 1.31337 -3.68943e-19)
(0.352036 1.16476 -7.98842e-19)
(0.226917 0.384441 1.4264e-18)
(1.00644 -0.00969809 0)
(1.00774 -0.00779446 4.82355e-19)
(-0.031058 1.32232 0)
(-0.0373528 1.32793 0)
(1.00245 0.00328702 1.35847e-21)
(1.00321 0.00782526 9.90167e-19)
(-0.0210551 2.54472 1.50912e-20)
(-0.0249637 2.58777 0)
(0.0407824 3.17258 5.00328e-19)
(0.376519 3.54607 0)
(1.14975 0.68685 -5.35742e-20)
(1.01188 0.0107211 -2.8147e-21)
(1.02082 -0.00907195 0)
(1.00159 0.000263563 1.55571e-22)
(0.107046 1.36596 0)
(0.136293 2.59282 0)
(0.0216465 1.31634 0)
(-0.00344864 2.63691 1.16666e-20)
(-0.0227153 2.58557 1.15777e-21)
(0.997508 0.0275891 2.68009e-21)
(1.06262 0.00561929 0)
(1.0992 0.0280475 0)
(-0.0285718 1.73841 0)
(-0.0174304 2.5868 0)
(-0.00649025 1.31566 0)
(0.298547 1.48437 -1.78254e-19)
(1.0115 -0.00907505 0)
(1.0097 -0.012998 0)
(1.00229 0.00095124 6.18159e-19)
(1.00548 -0.00492441 -7.28146e-19)
(1.00113 -0.000870726 0)
(-0.0153291 1.45955 0)
(-0.00728622 1.37585 0)
(-0.0108704 1.41887 0)
(-0.0104522 1.30322 0)
(-0.0215376 1.29417 0)
(-0.0121644 1.27505 0)
(1.03551 -0.00442861 0)
(1.01907 0.0150241 -8.90833e-22)
(0.807621 1.30176 2.7835e-19)
(1.00239 0.000375449 -6.16951e-19)
(1.00338 0.00446831 7.36821e-19)
(1.00128 0.00210648 0)
(1.0112 0.0096578 6.14751e-19)
(1.00691 0.00749833 -7.48332e-19)
(1.0072 0.0111791 0)
(-0.0223084 2.61524 0)
(-0.0253399 2.59531 -2.50101e-20)
(-0.0224788 2.60903 1.7567e-20)
(1.23824 0.270313 5.25426e-19)
(1.16222 0.088093 0)
(0.044079 3.09118 -9.87716e-19)
(0.0510455 2.87286 -6.9922e-20)
(0.103491 3.20139 1.32313e-18)
(0.122359 3.21342 -2.8591e-19)
(0.14353 3.25875 0)
(0.0222671 3.13775 2.72232e-19)
(0.0609865 3.16177 9.83996e-19)
(0.0614507 3.17861 -5.08989e-19)
(0.0268163 3.12923 0)
(0.604311 0.286201 0)
(0.545381 0.315374 0)
(1.13038 0.718148 1.22889e-19)
(1.09731 0.853242 -1.08813e-19)
(1.18957 0.60507 0)
(1.2183 0.538761 0)
(1.01578 0.0120374 -1.142e-18)
(1.01473 0.0127929 1.43582e-18)
(1.02564 -0.00877221 0)
(1.02397 -0.0103372 0)
(1.00669 0.00304525 0)
(1.01092 0.00420247 0)
(1.0043 0.00219553 0)
(1.00945 0.00639637 0)
(1.00692 0.00505784 0)
(1.00447 0.00530593 0)
(0.0963724 1.36351 0)
(0.0802341 1.33567 0)
(0.131074 1.41063 0)
(0.134625 1.40611 0)
(0.146136 2.61964 0)
(0.190782 2.68822 -4.15566e-19)
(0.10513 2.6774 0)
(0.0815082 2.67836 1.67906e-19)
(0.0274715 2.68103 -1.65497e-19)
(0.0152391 1.32238 0)
(0.0179106 1.25273 0)
(0.0179267 1.3372 0)
(0.0340467 1.28219 0)
(-0.00183963 1.99297 1.80418e-20)
(-0.022404 2.61361 -2.28644e-20)
(-0.0102497 2.67912 -8.68982e-21)
(-0.020947 2.69119 0)
(-0.0239515 2.62014 3.17846e-21)
(-0.0226298 2.61554 2.27998e-20)
(0.00594422 1.99108 -1.24065e-20)
(-0.0101072 2.40697 3.06759e-20)
(-0.0154155 2.42922 9.85156e-21)
(1.00942 0.0390809 1.15943e-18)
(1.00495 0.0175982 -1.44396e-18)
(1.00239 0.0450149 -1.18612e-18)
(0.974674 0.0318589 1.49392e-18)
(1.06425 0.00887442 0)
(1.04959 -0.00658896 0)
(1.092 0.0366049 0)
(1.07524 0.0144833 0)
(1.07391 0.00050933 0)
(1.14039 0.0776184 0)
(1.11447 0.0448832 0)
(1.11711 0.0369973 0)
(-0.0254885 2.4371 2.36063e-21)
(-0.0156721 2.01702 0)
(-0.016188 2.22032 0)
(-0.0197067 2.60755 -1.33374e-20)
(-0.0170961 2.61804 3.88576e-22)
(0.00247115 1.57721 -4.54289e-20)
(-0.00570035 1.50247 4.63819e-20)
(-0.0170801 1.3925 0)
(-0.0212896 1.39869 0)
(-0.028107 1.3925 0)
(-0.00486261 1.318 0)
(0.00608643 1.24389 0)
(0.379351 1.50657 2.97866e-19)
(0.427935 1.51074 1.55328e-19)
(0.604052 2.46436 -2.47229e-19)
(0.375645 2.57228 6.4399e-19)
(0.352344 2.06466 6.88729e-20)
(1.02064 -0.00804518 0)
(1.01576 -0.00938754 0)
(1.01482 -0.0132417 0)
(1.00768 -0.000609403 0)
(1.0049 -0.000652886 0)
(1.00798 -0.00452076 0)
(1.00953 -0.00349533 0)
(1.01462 -0.00435207 0)
(1.01982 0.0160658 1.12063e-18)
(1.0174 0.01474 -1.41722e-18)
(1.02021 0.0182996 -1.13021e-18)
(1.01786 0.0167831 1.41128e-18)
(0.762198 1.34876 0)
(0.702299 1.38228 2.47196e-19)
(0.869373 1.23008 9.87393e-20)
(0.906399 1.18889 -1.31046e-19)
(1.16694 2.61787 2.70825e-19)
(0.765948 0.123359 5.80773e-19)
(1.16987 0.105119 0)
(1.21085 0.198006 -4.25939e-19)
(1.19177 0.153394 -1.76866e-20)
(1.01491 0.163252 0)
(0.0802637 3.02076 3.50234e-19)
(0.0843707 2.90415 -1.16919e-18)
(0.0294517 2.36296 7.40884e-19)
(0.136038 -0.176468 -3.50046e-19)
(0.344532 3.44931 -2.49703e-19)
(0.194799 3.34231 0)
(0.225507 3.40003 3.25268e-19)
(0.225215 3.07908 -1.22333e-18)
(0.258205 3.19841 0)
(0.00684324 3.12251 5.12234e-20)
(0.0178285 3.13113 -5.87992e-19)
(0.0164895 3.12702 8.65429e-19)
(0.0330848 3.13985 0)
(0.0308831 3.14974 0)
(1.26124 2.58313 0)
(0.530904 0.800407 -5.23156e-19)
(1.01837 1.02586 -8.60934e-21)
(0.983387 1.07827 0)
(0.852197 0.963963 -1.06485e-19)
(1.07501 0.902443 2.69135e-20)
(0.374745 0.340342 -8.59665e-19)
(0.675478 0.310009 -2.25085e-20)
(0.601271 0.220253 3.98219e-19)
(0.57114 0.339292 2.94357e-20)
(0.47058 0.305804 -1.18211e-18)
(0.635519 0.316594 0)
(0.69554 0.414937 6.68002e-19)
(0.698567 0.421134 0)
(0.607542 0.336383 0)
(0.545452 0.261883 0)
(0.787026 0.648841 3.94841e-19)
(1.24794 0.302058 -4.29032e-19)
(1.23928 0.433986 0)
(1.24147 0.390212 0)
(0.711539 0.184923 6.01396e-19)
(0.836573 0.548397 -3.75204e-19)
(0.757686 0.511132 6.67716e-19)
(0.958036 0.438802 -6.81569e-19)
(1.01857 0.0145941 7.59589e-19)
(1.01719 0.013609 -7.67594e-19)
(1.01606 0.0141884 0)
(1.03688 -0.0046422 0)
(1.03032 -0.00775558 -7.1984e-19)
(1.0285 -0.0106454 7.12387e-19)
(1.02475 0.0107459 0)
(1.02278 0.0148095 0)
(1.01266 0.0046054 0)
(1.01455 0.00910282 0)
(1.01625 0.00412434 0)
(1.01548 0.00286068 0)
(0.0642935 1.35439 0)
(0.064967 1.31452 0)
(0.142842 1.40618 5.1232e-20)
(0.272663 1.47734 8.55795e-20)
(0.16321 1.44784 1.87756e-19)
(0.192194 1.45253 -3.04611e-19)
(0.151833 1.41534 0)
(0.135663 1.58957 -7.60875e-20)
(0.138871 1.57985 0)
(0.350922 2.01833 -1.00265e-19)
(0.333972 2.34873 6.21616e-19)
(0.195476 1.46126 6.63055e-20)
(0.268426 1.38567 2.58205e-20)
(0.201529 1.38379 -2.10363e-20)
(0.28115 1.32618 -8.41469e-20)
(0.248636 1.57979 0)
(0.269126 1.62384 9.42773e-20)
(0.0253263 2.269 -1.66374e-20)
(0.0355809 2.67577 0)
(0.0643139 2.41437 9.69627e-20)
(0.0597886 2.43509 0)
(0.0679817 2.69513 -1.86402e-19)
(0.0415471 2.70944 0)
(0.0227828 1.43152 4.51565e-20)
(0.0328755 1.48985 0)
(0.0285008 1.39474 0)
(0.0193589 1.39774 -5.2222e-20)
(-0.00126735 2.66419 -2.08186e-21)
(0.0225661 2.69891 1.8874e-19)
(0.0062739 2.73419 1.06571e-21)
(-0.00104823 1.8393 -1.00774e-20)
(-0.00535496 1.69102 -9.01642e-21)
(0.011059 1.30571 0)
(0.0155556 1.23204 0)
(0.03584 1.58351 -1.66085e-20)
(0.0352528 1.45987 -3.85091e-20)
(0.0301966 1.53131 4.34205e-20)
(0.042116 1.61016 0)
(-0.0288955 2.27168 9.46714e-20)
(-0.0311176 2.55446 -3.98464e-20)
(-0.0188503 2.45269 5.44363e-21)
(-0.0060475 1.85719 1.22218e-20)
(-0.0271397 2.50808 6.4479e-21)
(-0.0231574 2.4488 -6.90359e-21)
(1.01804 0.0214787 -7.65605e-19)
(1.01403 0.0277369 7.70457e-19)
(1.01286 0.0167291 0)
(1.01218 0.0702202 1.05448e-18)
(0.990498 0.0570737 -1.21723e-18)
(0.950155 0.0541621 1.36197e-18)
(1.01339 0.115721 -1.43223e-19)
(1.04374 -0.00480336 0)
(1.05189 -0.000623423 6.89293e-19)
(1.04009 -0.00824119 -6.8889e-19)
(1.07177 0.042815 -4.08611e-20)
(1.06469 0.0283449 3.52921e-19)
(1.0643 0.0645073 0)
(1.05407 0.0537926 -1.27124e-19)
(1.03231 0.04416 0)
(1.02532 0.0394438 0)
(1.02764 0.0135226 0)
(1.02398 0.0160082 0)
(1.04056 0.0332652 2.61374e-19)
(1.0393 0.0285053 -5.78756e-19)
(1.0528 0.0379981 -2.76474e-19)
(1.0482 0.0379329 -3.05181e-19)
(1.07764 0.0691104 5.8327e-19)
(1.10115 0.0548633 0)
(1.10811 0.0932162 0)
(-0.0258538 2.27873 6.01925e-20)
(-0.0260396 2.02461 2.35479e-21)
(-0.0217804 2.03364 0)
(-0.0275117 2.44936 -5.99379e-20)
(-0.0240663 2.40736 -4.61533e-21)
(-0.0313142 2.47835 7.4232e-21)
(-0.0212396 2.62798 -1.93215e-20)
(-0.0247167 2.57042 7.82713e-22)
(-0.023723 2.52321 -6.65738e-21)
(-0.0163591 2.62146 1.4563e-20)
(-0.020817 2.62347 -1.63489e-20)
(-0.00754052 1.49516 -1.33457e-22)
(-0.000798684 1.62593 -4.16476e-20)
(0.366564 1.44444 -1.28174e-19)
(0.365166 1.37457 1.1748e-20)
(0.643332 1.43124 -2.39546e-19)
(0.51889 1.50313 -1.51242e-19)
(0.574131 1.46123 0)
(0.603202 2.43851 2.10614e-19)
(0.667935 2.43688 3.38118e-19)
(0.41854 2.52403 8.98824e-20)
(0.399778 2.54913 -6.26654e-19)
(0.503335 2.48815 5.72997e-19)
(0.561712 2.47908 0)
(0.488517 2.5354 -5.50797e-19)
(0.262578 2.59706 1.13723e-18)
(0.363242 2.57389 -5.92836e-20)
(0.283732 2.65646 -1.57215e-18)
(0.968387 2.39593 7.11235e-19)
(0.848742 2.39707 0)
(1.01147 0.00134868 2.50591e-20)
(1.01534 -0.00524564 -2.04593e-20)
(1.0177 -0.00402709 -3.74037e-19)
(1.01555 -0.0011027 3.72663e-19)
(1.01309 0.00179072 0)
(0.631984 1.29976 0)
(0.675734 1.18735 0)
(0.789229 1.11011 0)
(0.663407 1.142 0)
(1.19753 2.63365 5.10603e-20)
(1.09049 2.38494 0)
(0.822665 2.18258 3.47205e-21)
(0.824087 2.44451 0)
(0.918339 2.53326 -4.27429e-19)
(0.950105 2.48268 2.85421e-19)
(0.791061 0.161439 0)
(0.746691 0.138401 1.57809e-19)
(0.914061 0.156178 9.17229e-19)
(0.823222 0.136135 -3.45087e-19)
(0.773647 0.0849655 -1.05747e-18)
(1.08678 0.240637 -8.39502e-19)
(0.987497 0.308713 -8.7858e-21)
(0.928476 0.342093 8.18909e-19)
(1.01746 0.253283 6.89981e-19)
(0.936561 0.199901 -1.21082e-18)
(0.894344 0.21264 1.5238e-19)
(0.932966 0.303929 -3.16723e-19)
(0.909517 0.217369 0)
(1.00086 0.203121 5.92406e-19)
(1.05676 0.213834 0)
(1.0513 0.223954 0)
(1.12428 0.122164 2.66843e-19)
(1.06507 0.190083 -1.05218e-20)
(1.07936 0.242337 -1.52529e-19)
(1.11388 0.207508 0)
(1.0233 0.0484867 5.92339e-19)
(1.03822 0.062593 7.36182e-19)
(1.03275 0.0463333 -5.87649e-19)
(1.04217 0.0685301 -4.93572e-19)
(1.01484 0.0744722 -7.4669e-19)
(0.989337 0.167678 0)
(0.992316 0.107645 0)
(0.960843 0.0673331 -4.83136e-19)
(0.905425 0.0994888 1.90553e-19)
(1.03973 0.115323 6.81797e-19)
(1.0758 0.134322 -7.81457e-19)
(1.06972 0.176629 7.02293e-19)
(1.03634 0.153688 0)
(1.08576 0.119918 0)
(1.05762 0.110245 -3.2026e-19)
(1.04418 0.106939 -5.54515e-19)
(0.591406 1.09925 1.13295e-19)
(0.619996 1.41801 -1.81184e-20)
(1.14731 2.72508 -2.4184e-19)
(1.19957 3.10825 1.64716e-21)
(1.25582 2.73439 -1.20331e-19)
(1.29619 2.70574 1.602e-20)
(1.27225 2.32932 -3.76289e-20)
(1.1875 3.01401 -6.98265e-20)
(1.20676 2.97098 2.17422e-19)
(1.18142 3.26218 -1.24692e-19)
(1.4 2.97775 1.5498e-19)
(1.41172 2.91527 0)
(0.566992 0.824536 -4.72381e-20)
(0.221565 1.21606 4.79946e-19)
(0.507077 0.39585 5.50866e-19)
(0.388649 0.156524 6.3002e-19)
(0.506657 0.337103 6.67595e-19)
(0.544609 0.43943 -1.07993e-18)
(0.54956 0.431617 8.87005e-19)
(0.488477 0.350519 -3.36247e-19)
(0.391308 0.289036 7.62313e-19)
(0.736875 0.247081 -3.45984e-19)
(0.698583 0.274691 0)
(0.650497 0.196003 7.8411e-21)
(0.737292 0.502944 3.63457e-19)
(0.701411 0.475026 -1.32117e-18)
(0.629983 0.443501 1.87451e-20)
(0.629322 0.420854 0)
(0.707872 0.714965 3.74555e-19)
(0.826348 0.795011 4.12719e-19)
(0.76222 0.843868 -4.80986e-19)
(0.8943 0.816312 -1.53657e-19)
(0.929273 0.858652 -3.60148e-20)
(0.937014 0.86647 3.6939e-20)
(0.874801 0.67322 -6.71942e-19)
(0.94601 0.719913 1.42865e-19)
(0.998807 0.723685 0)
(0.996932 0.699536 -1.84221e-19)
(1.03074 0.332119 2.13171e-19)
(1.1551 0.33243 2.57395e-19)
(1.07194 0.278692 3.43522e-19)
(0.994327 0.376439 -4.23223e-19)
(1.04907 0.479551 0)
(1.13266 0.421412 0)
(0.896677 0.415568 1.31051e-21)
(0.848052 0.304554 0)
(0.888856 0.294044 3.89402e-19)
(0.908217 0.338866 6.17615e-21)
(0.975104 0.484465 1.90672e-18)
(0.905861 0.544198 4.91501e-19)
(0.927869 0.497855 -5.236e-19)
(0.848947 0.476002 5.57202e-19)
(0.819148 0.450693 3.51334e-19)
(0.795781 0.421036 -3.44497e-19)
(1.02809 -0.000391286 6.18049e-19)
(1.02037 0.000443324 0)
(1.01901 0.00128294 4.03267e-19)
(1.02254 -0.000878996 -9.12884e-19)
(1.02251 0.00444957 4.4475e-19)
(1.02006 0.0114782 -9.30775e-19)
(1.02083 0.0112492 0)
(1.01977 0.0119931 -1.93865e-19)
(1.0165 0.00770993 4.85852e-19)
(1.01669 0.0108226 -2.43859e-19)
(1.01731 0.0104886 1.78453e-19)
(0.0289318 1.32879 0)
(0.0312605 1.36654 0)
(0.0444774 1.33449 0)
(0.0493819 1.29054 0)
(0.0830296 1.38316 -5.02344e-20)
(0.0851128 1.35923 8.83611e-21)
(0.0766537 1.55358 9.39842e-22)
(0.0906803 1.38511 -3.98198e-20)
(0.0396095 1.46978 3.51019e-20)
(0.0441108 1.46587 -2.78749e-20)
(0.0683805 1.37616 -2.50356e-20)
(0.0559913 1.38048 6.38728e-20)
(0.0482126 1.35691 1.04963e-20)
(0.0396889 1.38074 6.1833e-21)
(0.101227 2.38405 -1.06559e-19)
(0.0905795 2.4255 0)
(0.148141 2.02725 9.08965e-20)
(0.122351 1.69879 3.24681e-20)
(0.21426 2.02633 -7.67911e-20)
(0.225473 2.42709 0)
(0.230241 2.40397 -6.00265e-19)
(0.303009 2.38801 4.49318e-19)
(0.253858 1.99262 -1.99831e-19)
(0.143433 2.16051 1.40306e-19)
(0.109438 2.26563 0)
(0.0176421 1.86665 -1.20078e-20)
(-0.00644789 2.39179 -3.0311e-20)
(0.00165787 2.14348 0)
(0.00461645 2.45381 -1.56321e-20)
(0.0266504 2.29635 1.66599e-20)
(0.0117629 1.41143 -8.41323e-21)
(0.0107888 1.3967 1.43676e-19)
(0.00994347 1.40247 -4.59258e-20)
(0.0164326 1.40369 -4.13968e-20)
(0.0216203 1.43476 0)
(0.0080556 1.38554 0)
(-0.00118637 1.29871 -5.31613e-20)
(0.00890994 1.37232 1.49972e-20)
(0.0101775 1.37359 0)
(0.00531926 1.2933 -4.02425e-20)
(0.0130543 1.22097 8.1109e-20)
(1.04224 0.0146919 0)
(1.04873 0.0101864 -6.4467e-20)
(1.03896 0.0238462 -4.66315e-19)
(1.04939 0.0228375 0)
(1.0544 0.0221334 0)
(1.03622 0.0126819 -6.77606e-21)
(1.03022 0.0130106 7.49655e-19)
(1.03188 0.0170988 9.10571e-19)
(1.02559 0.0208491 0)
(1.02196 0.0213862 0)
(1.03546 0.025645 4.65154e-19)
(1.02548 0.0277687 0)
(1.02335 0.0279457 0)
(-0.0203043 2.02706 0)
(-0.00583977 1.65318 -1.57839e-21)
(-0.00888894 1.76 -2.7514e-20)
(0.000826616 1.38415 0)
(-0.00615554 1.55362 -2.08417e-20)
(-0.0127067 1.46322 1.43094e-20)
(-0.00485238 1.39733 0)
(0.407104 1.64737 0)
(0.36185 1.31369 -1.61955e-20)
(0.278111 1.34906 0)
(0.432439 1.31762 -5.32581e-20)
(0.465219 1.46942 0)
(0.451742 1.41394 4.73528e-20)
(1.04075 2.6801 -1.51602e-20)
(0.983348 2.41564 -8.93754e-19)
(0.944772 2.21188 1.01067e-18)
(0.864974 2.38942 2.40178e-19)
(0.854403 2.49733 0)
(0.92226 2.49332 0)
(0.952185 2.38937 0)
(0.928693 2.37901 -9.29026e-19)
(0.693918 2.46483 -3.73761e-19)
(0.802321 2.4482 -9.66995e-20)
(0.810084 2.42655 7.28707e-20)
(0.705193 2.40942 0)
(0.809766 2.40284 0)
(0.770983 2.41907 -3.6518e-19)
(0.767954 2.47621 0)
(0.627214 1.0708 0)
(0.518498 0.874073 -5.42786e-19)
(0.52317 0.942285 -3.13663e-20)
(0.506425 1.08388 0)
(0.49215 0.993383 8.31949e-19)
(0.793295 0.883965 -1.31803e-19)
(0.799595 1.01579 0)
(0.779389 0.997088 1.81805e-19)
(0.669552 1.0206 0)
(0.661695 0.929503 0)
(1.16518 2.76096 -2.16783e-19)
(1.14045 2.81918 -8.70491e-20)
(0.926329 2.34481 6.97319e-20)
(0.902831 2.32544 -7.44574e-20)
(1.13463 2.73914 0)
(1.08653 2.70742 8.94865e-20)
(1.10266 2.5022 -2.9616e-19)
(1.004 2.25982 -2.86645e-20)
(0.503265 1.34691 0)
(0.522976 1.08941 -9.98541e-20)
(0.593359 1.18508 0)
(0.861957 0.225096 0)
(0.769972 0.17589 0)
(0.692311 0.140538 0)
(0.865078 0.224296 -6.1421e-19)
(0.760366 0.220268 3.60683e-19)
(0.920792 0.0826063 -3.93901e-19)
(0.939266 0.133724 0)
(0.911653 0.142994 1.70801e-19)
(0.84944 0.102454 6.84502e-19)
(0.809592 0.0704157 -4.28035e-19)
(1.10009 3.35477 -6.81352e-19)
(1.16663 3.27776 0)
(1.11889 3.43978 -1.58203e-18)
(0.659333 3.58526 1.31831e-18)
(1.02994 3.0827 1.25396e-19)
(0.530046 0.799006 5.64423e-19)
(0.513518 0.769828 0)
(0.363501 0.419161 -1.4519e-19)
(0.470718 0.64472 8.51565e-19)
(0.533979 0.396592 -1.95645e-19)
(0.512495 0.47309 2.27833e-19)
(0.683247 0.53099 4.72067e-19)
(0.728733 0.561846 0)
(0.650084 0.578541 0)
(0.624739 0.535619 0)
(1.00696 0.607449 9.18055e-20)
(0.958772 0.586242 -4.75532e-19)
(0.97061 0.601279 3.61345e-19)
(1.03508 0.539133 -3.51909e-19)
(1.08059 0.509721 0)
(1.08391 0.59597 -9.2116e-20)
(0.877895 0.407684 -7.81146e-19)
(0.868415 0.39756 -1.00135e-18)
(0.8058 0.391105 6.15766e-19)
(0.810993 0.353526 -6.39034e-19)
(0.85398 0.314752 -5.00633e-19)
(0.804867 0.31509 6.14267e-19)
(1.02657 0.00650698 -4.6542e-19)
(1.0262 0.00663145 9.37851e-19)
(1.02986 0.000773068 5.98897e-19)
(1.03405 0.00145639 -7.19176e-19)
(1.03377 0.0115065 0)
(1.02979 0.0117005 -1.17295e-18)
(0.0840773 1.64882 1.17093e-20)
(0.0549878 1.5924 0)
(0.0954749 1.69976 6.39726e-20)
(0.108453 1.67511 -5.63291e-20)
(0.0715311 1.55192 -1.73403e-21)
(0.0558012 1.5469 0)
(0.00359883 1.68992 0)
(-0.00551098 1.49848 1.06101e-20)
(-0.00698708 1.44009 -9.52587e-21)
(-0.00975521 1.55014 3.5885e-21)
(-0.00366637 1.8885 1.48903e-20)
(-0.0148582 1.94355 -5.21815e-21)
(0.496248 1.37481 -2.48943e-19)
(0.498332 1.37168 2.72241e-19)
(0.44729 1.30841 -4.25546e-21)
(0.429925 1.30183 7.14197e-21)
(0.621304 1.30516 0)
(0.549733 1.40019 1.19987e-19)
(0.550138 1.4016 -1.16778e-19)
(0.482186 1.29296 4.09872e-21)
(0.523243 1.25087 0)
(0.588351 1.21733 0)
(0.66806 2.42807 5.50498e-19)
(0.662347 2.45553 1.27414e-18)
(0.718885 2.47064 -8.76184e-19)
(0.618114 2.44208 -2.00335e-19)
(0.556982 2.53863 2.73354e-19)
(0.497034 2.50218 -7.102e-19)
(0.992225 2.39349 -5.69179e-19)
(1.02583 2.4113 0)
(0.95075 2.19606 -6.25947e-19)
(1.05703 2.68834 0)
(1.05626 2.67054 0)
(0.609389 2.30041 2.40565e-20)
(1.12235 3.07578 9.10787e-20)
(1.00227 2.97479 -1.43294e-19)
(0.329172 0.827443 0)
(0.33495 0.720134 -3.00901e-19)
(0.534298 0.650121 -3.05031e-19)
(0.373341 2.14495 0)
(0.407055 2.74684 -8.82551e-20)
(0.417665 2.48339 0)
(0.715477 0.678507 -7.99602e-19)
(0.777566 0.681301 1.11638e-18)
(0.789252 0.652091 -1.05777e-18)
(0.689234 0.641407 -1.01703e-19)
(0.751634 0.59949 -4.17702e-19)
(0.976146 2.76012 -6.89877e-20)
(1.01621 2.7646 -2.0024e-19)
(0.561187 2.22208 4.10979e-19)
(0.611858 1.74436 -3.29561e-19)
(0.710497 1.86315 -4.83404e-19)
(0.981553 2.40019 -1.36627e-19)
(0.980701 2.35434 3.55208e-19)
(0.655393 1.77758 3.25725e-20)
(0.462227 1.30919 1.7042e-19)
)
;

boundaryField
{
    wall-4
    {
        type            noSlip;
    }
    velocity-inlet-5
    {
        type            fixedValue;
        value           uniform (1 0 0);
    }
    velocity-inlet-6
    {
        type            fixedValue;
        value           uniform (0 3 0);
    }
    pressure-outlet-7
    {
        type            zeroGradient;
    }
    wall-8
    {
        type            noSlip;
    }
    frontAndBackPlanes
    {
        type            empty;
    }
}


// ************************************************************************* //
