/*--------------------------------*- C++ -*----------------------------------*\
  =========                 |
  \\      /  F ield         | OpenFOAM: The Open Source CFD Toolbox
   \\    /   O peration     | Website:  https://openfoam.org
    \\  /    A nd           | Version:  6
     \\/     M anipulation  |
\*---------------------------------------------------------------------------*/
FoamFile
{
    version     2.0;
    format      ascii;
    class       volScalarField;
    location    "80";
    object      p;
}
// * * * * * * * * * * * * * * * * * * * * * * * * * * * * * * * * * * * * * //

dimensions      [0 2 -2 0 0 0 0];

internalField   nonuniform List<scalar> 
918
(
0.539075
1.23192
0.00651371
0.538987
-0.0116098
1.19961
-0.501034
0.63486
0.520229
-0.125373
-0.0880307
0.522761
1.0565
0.824981
-1.16293
-0.0240565
0.633822
-0.417861
0.518284
-0.0823781
0.652866
0.526901
0.529366
0.520151
0.582088
0.777507
0.933934
-0.00294007
0.0109791
0.00586216
-0.0130749
-0.0335231
-0.0302923
1.08273
1.13467
1.15787
0.486705
0.32127
-0.395972
-0.450869
-0.428437
-0.517928
0.635296
0.636394
-0.225759
0.634654
0.634238
0.505905
0.519623
0.520459
0.52158
0.52049
0.521768
0.386924
-0.131991
-0.158557
-0.1104
-0.109719
0.0252856
-0.0891044
-0.0903621
-0.0857764
-0.084548
0.435672
0.517127
0.513924
0.527043
0.535492
1.17209
1.14587
1.17198
1.08224
1.09999
1.03352
1.00656
0.845383
0.868676
0.809416
0.795463
-1.61684
-2.55949
-0.58818
-0.313774
-0.0105588
-0.025483
-0.0241177
0.629988
0.632663
0.631827
0.635031
1.0396
-0.388982
-0.460852
0.518824
0.51735
0.526424
0.527329
0.522294
0.522293
-0.0797252
-0.0796245
-0.0676644
-0.0800854
-0.0787585
0.635099
0.635398
0.519586
0.517027
0.543321
0.566559
0.554653
0.252418
0.59206
0.608475
0.642416
0.788184
0.774709
0.787642
0.909288
0.877886
0.965263
0.986929
0.0140745
-0.00150879
-0.0252895
-0.0228226
-0.0234812
0.48244
0.475996
0.504156
0.490332
0.493379
0.226882
0.0772075
0.403238
0.426733
-0.320129
-0.370798
-0.457006
-0.454298
-0.562361
0.608754
0.637607
0.637226
-0.237166
-0.164529
-0.292723
-0.106823
-0.164222
0.496843
0.503104
0.499173
0.514576
0.508738
0.511165
0.523692
0.520876
0.52247
0.445245
0.579435
0.306792
0.279165
-0.278798
-0.176182
-0.259912
-0.102181
-0.100514
0.0351224
0.065011
0.0123172
-5.87495e-07
-0.0954848
-0.0914817
-0.094238
-0.0845743
-0.0844386
0.427101
0.41401
0.446932
0.454469
0.503632
0.505099
0.509743
0.507512
0.957436
0.980522
0.986421
0.962485
-3.53255
-6.15598
0.0278365
0.18574
-0.0096276
-0.0109886
-0.00012793
-0.0102232
-0.000808171
-0.00281763
-0.0342151
-0.0339112
-0.0271301
-0.0283233
0.628147
0.62897
1.01337
1.0402
0.980894
0.95926
0.508186
0.51006
0.514679
0.511564
-0.08261
-0.0810017
-0.0828855
0.63341
0.634165
0.633417
0.21087
0.121696
0.304351
0.335678
0.623629
0.613235
0.622622
0.701855
0.742259
1.00413
1.02797
1.01221
1.02511
1.07593
1.09887
1.06386
0.460964
0.471918
0.466171
0.507058
0.504853
0.505806
0.502484
0.503287
0.502021
-0.0338134
-0.404194
0.476517
0.477426
0.4694
0.472281
0.695824
0.779706
0.633297
0.636245
0.636411
-0.0547014
-0.101762
0.23684
0.207483
0.365913
0.400709
0.382416
0.933029
0.893427
0.941247
0.916603
0.881042
0.90458
-0.340091
-2.09799
-1.09562
0.58376
0.387729
0.47913
-0.0171298
-0.0339493
-0.0304333
1.02934
1.06878
0.650331
0.838113
0.78946
0.764891
0.791067
0.852894
0.787777
0.820547
0.849516
0.824452
0.557994
0.487137
0.505612
0.854991
0.910607
0.0837712
0.00411627
-0.0187919
0.0907089
0.165488
0.131126
1.04601
0.963574
1.02593
0.517269
0.518222
-0.018614
-0.0426181
0.522342
0.522053
-0.0228432
-0.0135286
0.494413
-0.929857
0.0840586
0.51189
0.501481
0.518341
-0.106199
0.318008
-0.0905542
0.00402163
-0.0275517
0.512636
0.448033
0.405619
-0.00815445
-0.0332901
-0.0756187
-0.213192
0.515007
0.513365
0.51773
0.518546
0.519326
-0.0285655
-0.0280501
-0.0194212
-0.0686547
-0.06227
-0.072949
0.481573
0.50184
-0.19203
0.518025
0.52013
0.519824
0.514055
0.518978
0.517618
-0.0247636
-0.0280662
-0.0301023
0.190504
0.332568
0.677097
0.751493
0.626617
0.460456
0.169828
0.614291
0.665892
0.59146
0.721989
0.634638
0.631875
0.150993
0.00733082
0.155558
0.0887693
0.508713
0.508165
0.499
0.495871
0.513179
0.510855
0.516053
0.513302
0.516474
0.517616
-0.0623429
-0.0903485
-0.107239
-0.149136
0.276858
0.544024
0.220519
0.245357
0.150004
-0.0834262
-0.0829934
-0.0859777
-0.0898626
-0.0457029
-0.0466459
-0.00258857
0.00828263
-0.00861626
-0.0343014
-0.0549776
-0.047849
-0.0569279
0.505816
0.505944
0.511536
0.521012
0.457689
0.461406
0.427675
0.446451
0.432585
0.372471
0.402245
0.379331
-0.0193081
-0.00965344
-0.0111307
-0.0342818
-0.0334467
-0.0542568
-0.0465917
-0.0460316
-0.04183
-0.0463461
-0.0702081
-0.0776456
-0.176595
-0.29634
0.96172
0.908678
0.136657
0.504893
0.510569
0.507733
0.512486
0.51568
0.516306
0.51387
0.510356
0.501902
0.5034
0.500181
0.50143
-0.129777
-0.240273
-0.0711756
-0.148143
0.149672
0.614071
0.339739
0.284321
0.26955
0.498235
0.693723
0.600978
0.654787
0.627256
-0.391316
0.00695748
-0.325792
0.219822
0.215501
0.703149
0.744384
0.762284
0.719677
0.676152
-0.0210547
0.548651
-0.0761784
-0.0242026
0.168184
0.0491778
0.615277
0.620998
0.628376
0.625541
0.63089
0.628037
0.615152
0.606645
0.62696
0.631735
0.490713
0.21876
0.1751
0.129293
0.620171
0.51401
0.563492
0.481695
0.504344
0.506773
0.505741
0.486378
0.49375
0.489403
0.496656
0.50033
0.507661
0.507845
0.503647
0.505595
-0.0831516
-0.0918807
-0.0711267
-0.127268
-0.133843
-0.176932
-0.0875851
0.0861509
0.0363555
0.227504
0.352015
0.0646139
-0.0541298
-0.0372771
0.0153039
0.179951
0.179496
0.0442652
0.155902
0.111558
0.104627
0.196348
0.216967
-0.0569317
-0.0628839
-0.0643986
-0.0698236
-0.0191321
0.103083
0.0740924
-0.0353033
-0.0418365
-0.0799188
-0.0818481
-0.00825301
-0.0469245
-0.0383447
-0.0133111
-0.062112
-0.0368699
-0.0277647
-0.0359894
-0.0360307
-0.035572
0.501244
0.502574
0.503159
0.511913
0.52399
0.538288
0.505122
0.478962
0.46997
0.473073
0.446087
0.455379
0.450612
0.466487
0.488086
0.496384
0.494636
0.497365
0.479303
0.481055
0.466429
0.471023
0.440176
0.421329
0.411134
-0.0580884
-0.0252137
-0.0389589
-0.050814
-0.0254237
-0.0346797
-0.0357443
-0.016998
-0.0364231
-0.0312417
-0.0409858
-0.0462316
-0.0465429
-0.078692
0.00339834
-0.179179
-0.228328
-0.281369
0.884293
1.02299
0.81197
0.584101
0.593016
0.833074
0.943226
0.548197
0.714981
0.765272
0.575911
0.866519
0.508852
0.508434
0.506291
0.505458
0.506463
-0.017098
0.0868689
0.0968401
0.157273
0.273983
0.379244
0.312494
0.199277
0.331902
0.356223
0.611025
0.617261
0.5755
0.598035
0.60106
0.407183
0.488039
0.526807
0.483395
0.556417
0.59085
0.536969
0.578842
0.500097
0.4499
0.441292
0.396305
0.430846
0.411918
0.386249
0.500693
0.477427
0.488343
0.478211
0.500311
0.525973
0.526172
0.547448
0.564968
0.479107
0.42488
0.441829
0.470993
0.42672
0.444259
0.466224
0.187123
0.0895672
0.252063
-0.0752879
0.00922633
0.0495686
0.00632054
-0.0349295
0.271747
-0.364757
-0.31156
-0.986605
0.496117
0.832817
0.558944
0.570436
0.630189
0.619738
0.629025
0.631608
0.633613
0.607944
0.617832
0.621822
0.588357
0.608988
0.603419
0.610679
0.495412
0.394802
0.398526
0.329139
0.189653
0.231784
0.421018
0.353537
0.278955
0.271046
0.448904
0.31368
0.393789
0.442644
0.365666
0.301747
0.528196
0.577617
0.570971
0.543224
0.419979
0.453638
0.454964
0.505485
0.549066
0.574
0.495192
0.50151
0.502416
0.499676
0.498058
0.501185
0.501471
0.503764
0.503916
0.506506
0.505992
-0.080531
-0.0673101
-0.080603
-0.0883822
-0.0302683
-0.0390451
-0.00382452
-0.0353955
-0.039564
-0.0347475
-0.0517673
-0.066076
-0.0645907
-0.0551728
0.0616571
0.0803895
0.0803989
0.0420112
0.253749
0.392275
0.453458
0.341576
0.192266
0.195824
0.270237
0.0156908
0.00776421
-0.0068726
0.0635975
0.0499208
-0.0692329
-0.0731142
-0.068108
-0.0561192
-0.0496964
-0.0700959
-0.0738141
-0.06326
-0.0705162
-0.0768501
-0.0791401
0.48062
0.473535
0.477111
0.46955
0.467723
0.484674
0.489351
0.490337
0.495897
0.49858
0.488005
0.493675
0.497927
-0.0375269
-0.0539528
-0.0540401
-0.0566969
-0.0533045
-0.0509684
-0.0543786
0.125342
0.0302788
0.0664137
-0.00428524
-0.131234
-0.0720744
0.501063
0.49507
0.482617
0.721064
0.556211
0.475388
0.575022
0.695957
0.274097
0.473949
0.308864
0.888353
0.794736
0.940342
0.554014
0.253561
0.42463
0.43294
0.274226
0.398434
0.337671
0.213384
0.248669
0.284587
0.368486
0.254296
0.233601
-0.00925918
0.172729
0.282098
0.264195
0.390554
0.447067
0.264069
0.179624
0.125571
0.58769
0.608527
0.618106
0.58867
0.611392
0.567766
0.559866
0.576853
0.587208
0.579869
-0.620845
-0.209258
-1.40903
-0.825166
-0.373401
0.523594
0.527282
0.746965
0.648475
0.655821
0.638031
0.586982
0.561887
0.601581
0.613092
0.318025
0.403033
0.390025
0.365793
0.312051
0.254707
0.52717
0.536594
0.559751
0.587784
0.563079
0.591639
0.493981
0.493832
0.492469
0.488713
0.487203
0.49053
0.0151154
-0.0104071
0.0245667
0.0137137
-0.0061915
-0.0115096
-0.0446873
-0.0560302
-0.0568253
-0.0531275
-0.0423916
-0.0406285
0.172329
0.110079
0.0202217
0.0623196
-0.0046553
-0.0876116
-0.0899228
0.00155744
0.102543
0.0840455
0.38961
0.65888
0.483376
0.650416
0.447554
0.548061
0.46472
0.43776
0.465276
0.370599
0.461283
0.0580367
-0.144605
-0.199443
0.818951
0.780886
0.559695
0.318702
0.198444
0.488411
0.508817
0.468515
0.498132
0.546303
0.531279
0.0272928
0.112635
0.203113
0.507819
0.280791
0.299832
0.289532
0.457081
0.424971
)
;

boundaryField
{
    wall-4
    {
        type            zeroGradient;
    }
    velocity-inlet-5
    {
        type            zeroGradient;
    }
    velocity-inlet-6
    {
        type            zeroGradient;
    }
    pressure-outlet-7
    {
        type            fixedValue;
        value           uniform 0;
    }
    wall-8
    {
        type            zeroGradient;
    }
    frontAndBackPlanes
    {
        type            empty;
    }
}


// ************************************************************************* //
