/*--------------------------------*- C++ -*----------------------------------*\
  =========                 |
  \\      /  F ield         | OpenFOAM: The Open Source CFD Toolbox
   \\    /   O peration     | Website:  https://openfoam.org
    \\  /    A nd           | Version:  6
     \\/     M anipulation  |
\*---------------------------------------------------------------------------*/
FoamFile
{
    version     2.0;
    format      ascii;
    class       surfaceScalarField;
    location    "80";
    object      phi;
}
// * * * * * * * * * * * * * * * * * * * * * * * * * * * * * * * * * * * * * //

dimensions      [0 3 -1 0 0 0 0];

internalField   nonuniform List<scalar> 
1300
(
3.75095
5.62643
-3.33045
3.75095
-7.75782
5.62643
-4.28085
4.28085
-0.372778
0.372778
1.8765
1.87446
-2.43038
2.43038
-1.72195
1.72195
-2.5262
2.5262
-5.24814
5.24814
-5.06965
5.06965
4.69688
-4.69688
-6.33724
6.33724
-0.959301
0.959301
-3.57811
3.57811
3.17242
-3.17242
-1.8433
1.8433
0.0979362
-0.0979362
-0.554082
4.30504
3.19687
3.19687
-1.9876
1.9876
-4.87522
4.87522
6.22251
-6.22251
5.24132
-5.24132
-1.91087
-2.51021
1.79652
-11.4691
-5.9613
-5.9613
-8.44099
8.44099
-2.81456
2.81187
2.94731
-2.94731
-1.72174
1.72174
-4.29901
0.0181557
-4.29901
4.25021
0.030641
4.25021
-0.491374
0.118596
-0.491374
3.95869
-3.95869
0.273118
0.0996597
0.273118
3.06732
-3.06732
-1.87685
3.75335
1.8741
-1.8721
6.17713
-1.87886
3.75331
-6.07346
6.07346
-2.67929
0.248917
-2.67929
2.19628
0.234094
2.19628
-6.89379
6.89379
-1.77179
0.0498361
-1.77179
1.72156
0.000393438
1.72156
2.8885
-2.8885
-2.62335
0.0971448
-2.62335
2.39028
0.135919
2.39028
0.353333
5.2731
-5.97976
8.79164
-5.2731
0.0249535
5.21035
0.0377893
5.21035
-5.10526
0.0356112
-5.10526
5.01313
0.056519
5.01313
4.78498
-0.0880959
4.78498
-4.81707
0.120185
-4.81707
-3.35989
-4.0774
-6.49825
0.161011
-6.49825
-1.03672
0.0774147
-1.03672
0.85193
0.10737
0.85193
-3.7275
3.7275
-3.93624
0.358134
-3.93624
3.12739
0.0450276
3.12739
1.86812
1.88283
5.61907
-5.61907
2.44666
-1.76359
-0.0797047
-1.76359
-1.93165
-3.30967
1.93165
-0.0883456
-0.123402
0.221338
-0.123402
3.15713
0.0397461
3.15713
2.23268
0.1576
-2.23268
0.245086
3.30288
-3.30288
1.32761
0.659988
1.32761
-5.55824
5.55824
4.96189
0.0512416
-4.96189
0.0866652
6.157
0.0655088
6.157
-6.20777
-0.0147441
-6.20777
2.48553
-4.99574
-2.6677
6.14942
0.187815
-6.14942
0.188125
2.91892
0.0283858
2.91892
-2.91843
2.91843
-2.98427
0.0369679
-2.98427
-2.14389
0.42215
-2.14389
1.408
0.313737
1.408
-4.21571
-0.0832953
-4.21571
-4.09483
0.158582
4.09483
0.155387
1.12003
-1.12003
-0.606172
0.114798
-0.606172
-4.06421
-0.151503
4.06421
-0.105524
-3.89797
-0.0607132
-3.89797
-3.02194
0.0376717
3.02194
0.0453724
3.11212
0.0450049
-3.11212
0.044803
-1.87099
3.75383
-1.87996
3.75406
-5.69544
-0.378016
-5.69544
6.36148
-0.288021
6.36148
3.10261
0.475503
-3.10261
0.423312
2.01189
0.184391
2.01189
-6.86621
-0.0275838
-6.86621
6.90064
-0.00684548
6.90064
1.87491
0.136983
-1.87491
0.10312
1.71872
0.00283711
1.71872
2.91636
-0.0278644
2.91636
-2.88212
-0.00638121
-2.88212
2.7906
-2.7906
2.71393
0.0766726
-2.71393
0.0905846
-11.124
11.1092
-0.0363721
-11.0876
5.17398
5.17398
4.23808
0.546899
4.23808
-5.01367
0.196603
-5.01367
2.66854
-5.33624
3.11427
-6.47416
4.67096
-16.1401
4.28711
-8.36451
6.74986
-6.74986
6.63115
0.118709
-6.63115
0.132902
-1.13535
0.0986309
-1.13535
-3.12818
-0.599325
-3.12818
4.36829
-0.640789
4.36829
-3.0275
3.0275
-3.07632
0.0488215
3.07632
0.0510663
1.72332
-0.00459498
-1.72332
-0.0402773
0.17663
0.0964886
-0.17663
0.0532277
3.52611
-0.223229
3.52611
-3.0977
-0.20518
-3.0977
-1.23198
0.0966303
1.23198
0.0956314
-5.80763
0.249388
-5.80763
-11.1817
0.0940662
-11.1439
-6.1137
-6.1137
2.32729
11.1189
-2.89736
0.0152388
2.89736
0.0215641
2.97473
0.0527697
-2.97473
0.056301
-2.85731
0.0667065
2.85731
0.061121
-2.51138
0.367489
-2.51138
-1.02462
1.02462
-1.17129
0.146676
1.17129
0.236709
1.42143
-0.301393
1.42143
0.739593
0.112337
-0.739593
0.133421
-3.84181
-0.0561613
-3.84181
6.59777
-0.236291
6.59777
-2.96839
-0.129311
2.96839
-0.0520289
-0.0349943
11.1442
-5.13899
0.0337278
5.13899
-11.2097
11.2435
-3.21628
0.7049
3.21628
1.0218
5.28329
0.274947
-5.28329
0.26962
6.84101
0.0596217
-6.84101
0.0911538
-2.63794
-0.490235
-2.63794
-5.10529
-0.590149
5.10529
-0.737003
-11.482
-0.202992
11.685
-11.4255
6.01062
0.146384
-6.01062
11.3898
-0.995934
-0.124098
0.995934
0.0286846
1.76077
-0.339345
1.76077
3.74481
-0.218697
-3.74481
-0.0970027
-6.75628
-0.10993
6.75628
-0.158505
-2.18907
-0.448875
2.18907
-0.428296
-4.26739
4.30714
1.90974
-2.32562
-2.67012
-5.63529
1.85529
1.89854
4.30194
-10.1449
-5.99518
-9.95677
7.21429
-6.94467
-9.32114
9.23305
7.94387
-8.00458
-5.77733
5.8284
6.48475
-6.43937
1.87946
1.87389
8.0748
-7.82588
-15.6695
15.2915
7.62434
-7.57451
15.8211
-15.8487
-17.8616
17.9213
-5.70726
5.8044
-6.74303
6.73664
-6.97994
6.92791
-2.79659
-3.67757
13.1145
-12.9534
8.60737
-8.68708
-8.68069
9.03882
3.38461
0.922522
3.42962
-1.88178
3.76124
-1.87153
3.78127
2.76828
-5.56487
2.56796
-5.23808
4.3889
4.21847
-4.30056
-1.33474
-5.92883
5.95722
-5.80931
5.87043
9.187
-9.16884
-1.88498
3.75887
-1.86908
3.76762
-3.42292
-2.35441
3.3779
0.924046
8.06245
5.052
-8.25027
-1.7065
-8.03136
7.81266
-8.21738
8.0122
-0.436048
5.83858
-5.40254
4.43917
-1.65312
7.4917
5.56117
5.75777
5.86066
-5.58571
1.08401
-6.48654
-6.39988
-2.24073
2.35553
2.12349
-2.02383
6.15385
1.79001
6.04833
-5.81294
-2.19164
-5.8691
3.81972
2.00868
3.86854
4.08218
2.40257
4.11985
3.02953
-3.03679
0.00725739
-3.05934
6.08887
0.722079
-5.41375
-4.4897
4.99231
3.08249
5.2264
-5.59481
-2.23107
-5.1715
-9.59508
-6.07446
-10.1852
10.0883
5.20325
9.80025
-11.9462
11.7877
4.87008
2.75427
4.87047
-4.98406
-2.59045
-4.88094
11.6831
-2.65476
-9.02838
-10.3275
-7.53416
10.3343
5.48681
10.9696
6.95162
11.0608
4.42709
7.25605
-9.9139
2.37973
-3.86783
-1.83943
-3.77724
3.66053
2.14388
3.79645
-4.21889
-2.52414
-4.20365
-4.29521
-2.68473
4.32308
2.41357
-4.41748
-3.79989
4.54679
2.38112
4.05625
-10.0514
4.30827
-7.98584
-9.19915
-3.7543
-9.06624
3.57005
2.59618
-6.16623
-1.99482
8.56763
-4.34916
7.2329
-5.19848
-3.4886
-5.23876
-6.97045
-1.71024
-6.81187
-8.91857
8.42833
-9.20153
8.56074
12.5085
-5.63461
-6.87389
-3.96702
-2.47235
3.92222
-0.492603
-3.71004
3.7173
0.0512045
3.83248
4.755
4.26239
-3.8824
-1.92691
-3.8261
3.82124
2.04919
3.88794
6.85527
2.33173
6.88591
-6.62166
-2.54718
-6.70495
9.09378
-8.67163
2.79266
-2.69603
5.37833
2.63386
-5.1551
-2.87625
6.23151
-3.20964
-3.02186
-12.3489
10.7901
1.5588
-4.85716
-0.41799
-0.515926
-5.56714
-3.754
5.44695
0.31082
11.1009
7.34689
-5.51448
5.76386
6.17049
6.22173
-0.178151
5.88451
-5.17961
5.26909
-2.73377
-2.53532
5.48373
-5.63524
-1.22122
-5.55949
4.33827
0.413094
1.47446
-1.25313
-1.75589
-0.484845
-1.62247
1.15189
0.971598
1.24838
0.960538
1.39499
-2.92076
0.510243
2.41052
-1.96022
-1.51359
-3.8224
-1.15336
4.97576
5.7376
2.07506
-5.64059
-0.228507
2.54942
-2.44205
-0.840538
-2.98186
2.2281
-3.06863
-3.46571
-1.94817
5.41388
-3.36875
-0.457349
3.31598
0.552558
-3.8282
-2.10063
3.79123
0.328614
-3.12894
6.19024
-3.06131
-5.05584
2.52899
3.55989
4.53767
-4.78992
2.44924
2.34068
-1.23004
4.25852
0.96788
4.44291
-7.06326
4.83219
5.74013
3.29869
-6.21563
1.04413
-6.01912
8.56637
-7.42273
-1.14364
4.11559
4.45078
7.03749
5.47102
-5.69459
12.7321
-1.17267
-6.25006
7.1918
-3.8931
4.8712
-8.7643
-10.3422
4.09215
-9.20666
11.0895
-1.88289
-3.59781
-8.34841
12.8045
-1.21555
-11.5889
8.58471
-4.34833
-4.42067
8.769
-7.00309
7.01112
-1.99125
-5.01988
-10.1459
-5.70276
10.2559
1.53184
-9.96649
12.3462
-2.71045
4.16009
0.710379
4.16293
3.36541
-5.47516
2.10975
3.63767
-5.62892
2.04893
-7.52409
-6.75514
12.0956
-5.34045
-10.5094
-9.5441
-0.965342
2.54819
9.79804
-9.4998
7.43084
2.06896
3.2967
0.591238
-3.37338
-0.403866
0.234615
4.51027
-4.74489
4.03106
4.18866
3.21981
1.29046
3.84949
2.10773
-3.87106
-0.332595
-4.16848
1.48375
-1.75491
-3.69377
5.17752
-4.06185
0.368081
-2.743
-3.49211
6.23511
-4.58243
3.03594
3.1543
5.08514
-4.91368
1.42157
-2.39086
-2.52282
2.64028
-4.39519
2.00121
3.17631
4.38233
0.582435
5.91337
6.18222
-8.50955
0.523703
11.2342
-9.52772
2.47955
8.58125
-9.91039
0.36629
-8.69995
0.975844
-5.32501
-5.19039
5.22696
-6.93719
-3.53734
6.2538
0.632109
-6.40919
-0.402684
-6.06211
-2.85646
-6.51098
-3.04554
-6.15598
-8.74013
-1.67302
-7.06711
6.75531
-6.6937
-3.49153
7.4307
1.13004
-7.47509
7.35099
-7.53279
7.19344
0.0950345
3.62226
4.35743
1.88508
-2.39223
4.27731
-5.07689
7.40862
-8.75606
3.67916
4.24824
-6.79543
-4.50781
5.05434
4.03944
5.36808
8.91333
-10.3619
1.44858
-10.635
11.9757
-1.3407
-16.41
5.77499
-7.49665
2.41639
0.376269
2.51502
0.543103
2.50351
-3.04661
-2.15292
-2.05729
-2.44462
-3.49342
5.93804
1.0548
-3.47592
2.42112
-3.55981
4.61462
-0.0805334
-3.39539
5.18873
-2.68522
5.565
-3.64035
1.92465
3.54628
5.84001
-2.29372
4.42034
-1.78648
1.94933
-4.24305
-1.54409
-2.95313
5.09701
-3.28198
3.65006
-0.352123
4.00218
-4.0416
0.831961
-0.821794
3.36687
3.61195
4.33098
-3.04051
2.93394
-4.72042
-1.30911
-4.13798
-0.961672
-0.180984
-3.77887
3.95985
5.99652
-6.17751
-5.2778
9.51754
-4.23974
7.69743
-5.43546
-2.26197
-4.28672
-4.38491
3.91923
1.96528
9.66271
0.179002
-5.61447
-5.00061
-3.97881
3.08303
2.18605
-1.72014
3.27894
2.23607
-0.761602
0.394716
0.853666
1.75853
-1.36382
0.346233
1.4123
-0.906893
1.6872
0.862226
-1.79954
0.177069
-1.33038
3.55847
1.08014
-2.05174
0.68792
0.888928
-3.6227
5.10299
-2.73771
-2.36528
5.99192
1.14619
-3.8839
4.4133
-4.00021
2.45172
-3.60508
-1.43218
-5.43238
-3.64237
-2.48014
4.90126
-3.4579
5.53296
1.43554
-5.30445
6.74
-3.62743
1.67926
-3.06222
3.92445
-0.98719
-2.07503
2.87431
2.53958
-3.14138
0.159519
-0.267073
2.41615
-2.68322
-0.652488
-2.61271
-4.57615
4.90476
-2.10372
4.55297
2.17358
-1.91771
6.47068
1.80759
-3.7253
-3.24825
-3.7056
-1.38462
3.15304
-0.573276
-4.30766
-5.59315
4.17068
0.272234
-7.08543
7.93303
-0.847598
-4.00294
-0.82925
4.94484
-6.09668
0.46776
-4.04775
3.88528
4.85316
5.12539
-11.3505
-0.23843
-6.14723
1.09739
-7.24463
5.54817
-3.5662
7.65835
-10.2959
6.80438
-9.16588
6.51471
-0.729918
6.24682
-4.13707
2.78156
-8.48432
-6.95248
5.59049
-2.83622
6.30087
-3.22233
9.5232
-5.93278
5.37977
4.14342
-1.06567
-4.17309
-5.36501
4.29935
0.0147607
4.17769
4.98718
-2.87946
4.65459
2.26474
-4.6556
-2.13045
-6.48835
1.83275
-3.33405
-1.92257
3.75532
3.16256
3.7538
1.2325
-3.34994
7.25319
-8.21854
-1.91275
-3.27764
5.34651
-1.04716
3.46709
-6.74473
-1.85791
4.74099
-0.724205
-4.01678
0.893626
-4.43097
1.67386
-6.10483
5.26333
-5.66601
2.25458
-9.75123
-5.22051
-5.19183
-2.27815
-5.25464
-7.56995
5.2918
-1.79496
5.55603
-8.50557
7.78137
-3.47012
8.76193
-5.45802
-1.05296
5.88632
1.30712
10.069
0.167344
-4.67516
-1.94263
3.72408
-1.78145
1.1404
-3.61153
0.112556
2.49424
3.49768
-6.8325
0.0370766
-4.63808
-3.9078
7.94724
5.60974
11.6063
1.24435
9.13211
-1.18487
10.3765
4.18322
4.41992
-3.00359
4.45216
0.956268
4.63543
-0.902097
2.82675
1.61292
1.69034
0.751717
2.29928
1.31268
3.13124
0.0846293
-1.97266
4.63106
-8.60987
-0.983404
-8.06297
1.17008
5.43026
-4.26019
2.85942
-0.673364
1.07797
-0.198668
-1.15089
1.34956
-2.73399
-1.91249
-0.500192
-1.66523
2.35315
1.89324
-1.85296
-0.881023
0.329228
-3.9716
3.27585
-3.11634
-0.57676
6.16324
-2.88853
0.205311
-1.20927
-2.4074
-2.89224
2.71517
6.17432
0.296355
3.11302
5.20112
3.10049
0.221032
3.79326
-5.67615
-3.73083
-5.91459
-0.366411
4.57843
1.76913
8.02891
5.91256
4.86539
-1.87933
-10.0979
6.50311
-2.05094
5.16241
-1.14563
-4.95921
5.07631
2.33231
-5.70842
0.0424095
-4.9168
-6.96774
-0.479629
8.261
-9.58942
8.53646
5.68
1.38711
-4.43351
-0.758322
4.28683
0.133092
10.5095
-0.913451
-7.04183
7.95528
-4.51681
3.53341
0.673227
2.60571
2.02279
1.34942
-5.69241
-9.9526
-2.07188
-1.55082
-4.43716
0.538602
-2.43184
6.06711
-2.5337
3.80514
5.42158
6.49955
-2.0473
-4.13021
6.28704
-2.4819
4.01766
)
;

boundaryField
{
    wall-4
    {
        type            calculated;
        value           uniform 0;
    }
    velocity-inlet-5
    {
        type            calculated;
        value           uniform -3.75095;
    }
    velocity-inlet-6
    {
        type            calculated;
        value           uniform -5.62643;
    }
    pressure-outlet-7
    {
        type            calculated;
        value           nonuniform List<scalar> 8(3.33045 7.75782 4.42108 9.6726 7.4373 5.15323 5.78281 8.95807);
    }
    wall-8
    {
        type            calculated;
        value           uniform 0;
    }
    frontAndBackPlanes
    {
        type            empty;
        value           nonuniform 0();
    }
}


// ************************************************************************* //
