/*--------------------------------*- C++ -*----------------------------------*\
  =========                 |
  \\      /  F ield         | OpenFOAM: The Open Source CFD Toolbox
   \\    /   O peration     | Website:  https://openfoam.org
    \\  /    A nd           | Version:  6
     \\/     M anipulation  |
\*---------------------------------------------------------------------------*/
FoamFile
{
    version     2.0;
    format      ascii;
    class       volVectorField;
    location    "80";
    object      U;
}
// * * * * * * * * * * * * * * * * * * * * * * * * * * * * * * * * * * * * * //

dimensions      [0 1 -1 0 0 0 0];

internalField   nonuniform List<vector> 
918
(
(0.985049 -0.000715412 0)
(0.00537259 2.96622 0)
(-0.00322368 0.879525 0)
(0.979575 0.00196185 0)
(-0.0138638 2.06425 3.31345e-20)
(-0.00711204 2.94857 -2.57082e-18)
(0.820441 1.12224 4.42741e-19)
(0.110728 0.0776453 -1.4168e-20)
(0.999922 -0.00024517 0)
(0.09135 0.667479 0)
(0.0145996 0.366127 0)
(0.732746 0.006705 0)
(0.0101608 2.93171 0)
(0.00348382 2.79446 0)
(-0.0024022 3.17796 8.21939e-19)
(-0.0137173 1.92828 2.32724e-20)
(0.295182 0.0437373 9.88981e-19)
(0.233619 1.10927 3.52482e-19)
(0.964332 0.00674393 0)
(-0.00185445 0.374362 0)
(0.0474965 -0.0407219 -6.51472e-19)
(1.00183 -0.0045598 0)
(0.999851 -0.00892628 0)
(0.975168 -0.00605179 0)
(0.591404 0.0266842 0)
(0.0206299 2.64492 0)
(-0.0122579 2.91186 9.40364e-19)
(-0.0068244 0.931477 0)
(-0.0332632 1.17118 0)
(-0.00456986 0.900966 0)
(-0.0231034 2.58697 0)
(-0.0047327 2.11455 -2.64656e-20)
(-0.00989964 1.90047 0)
(-0.0221024 2.98762 -9.2656e-23)
(-0.0164744 3.00549 1.99718e-18)
(0.0023009 3.00057 0)
(0.871976 -0.00975957 0)
(0.374411 0.912802 1.68556e-19)
(0.819215 1.14101 -5.51125e-19)
(0.951403 1.00777 5.63928e-19)
(0.6818 1.22385 -1.01326e-19)
(0.695323 1.18371 5.78184e-19)
(0.138576 0.129693 1.38199e-20)
(0.147394 0.0844646 0)
(1.1681 0.533004 0)
(0.107318 0.105986 6.22776e-20)
(0.0847448 0.0601256 -6.46326e-20)
(0.920565 -0.00704714 0)
(1.00027 5.44067e-05 0)
(0.999907 0.00032066 0)
(1.0037 -0.00727995 0)
(1.00088 -0.000948898 0)
(1.00011 -5.57336e-06 0)
(0.0911 1.8455 -7.33997e-19)
(0.0337624 0.850904 0)
(0.127477 0.758016 0)
(0.0187664 0.793248 0)
(0.0519785 0.582273 0)
(0.00494899 2.03299 0)
(-0.0102796 0.696153 0)
(0.00810841 0.394142 0)
(-0.017966 0.694128 0)
(0.00913399 0.360101 0)
(0.843725 -0.0156293 0)
(0.841887 0.0259421 0)
(0.757274 0.00231298 0)
(0.798994 0.0291496 0)
(0.703021 0.0136053 0)
(0.0138998 3.00023 9.54074e-19)
(0.0110995 3.00604 0)
(0.00617552 3.00382 0)
(0.0118739 2.99718 1.0829e-23)
(0.00820075 2.9588 -1.41799e-18)
(0.0122225 2.98302 0)
(0.00909691 2.90482 0)
(0.0209809 2.93179 2.19846e-24)
(0.00408118 2.824 0)
(0.0253765 2.91889 0)
(-0.00115714 2.74491 0)
(0.305052 3.57208 0)
(-0.122156 3.6548 0)
(0.148838 3.26854 -7.64957e-19)
(0.00307745 3.00651 0)
(-0.0312686 1.99024 0)
(-0.00739273 2.17871 -2.2953e-20)
(-0.00965194 1.94048 2.33989e-20)
(0.347431 0.139199 -3.43596e-19)
(0.322472 0.0131805 -3.3442e-19)
(0.300637 0.15351 -1.02663e-18)
(0.259447 0.0621761 -6.67805e-19)
(0.263267 1.02463 0)
(0.33299 1.24035 -3.63842e-19)
(0.414833 1.15162 6.00494e-19)
(0.987709 0.00816405 0)
(0.943225 0.00577058 0)
(1.00028 0.000672019 0)
(1.00254 0.0090663 0)
(1.00311 0.00899523 -2.65336e-18)
(0.992135 0.00941586 2.005e-18)
(-0.0253725 0.721107 0)
(-0.00160364 0.37521 0)
(-0.054301 1.01685 0)
(-0.0332299 0.781368 0)
(-0.0126848 0.379205 0)
(-0.0737308 0.0867777 2.02519e-19)
(0.035729 0.046846 0)
(0.993626 -0.00769247 0)
(0.954053 -0.006485 0)
(0.74292 0.028598 0)
(0.672774 0.0234852 0)
(0.660095 0.0267718 0)
(0.980569 -0.00247953 0)
(0.584789 0.0656298 0)
(0.452702 -0.0152483 1.50668e-18)
(-0.0410642 2.85986 7.38536e-19)
(0.0338211 2.91419 0)
(0.0426871 2.89265 0)
(0.00311468 2.7021 0)
(-0.00883298 2.98661 8.99363e-19)
(-0.0141667 2.89466 0)
(-0.0109338 2.99192 -2.77025e-18)
(-0.0116176 2.92967 9.42791e-19)
(-0.0483115 1.34867 0)
(-0.0174623 1.37751 0)
(-0.00779298 2.14005 8.27142e-22)
(-0.00767602 2.09894 0)
(-0.0171303 1.91169 0)
(0.938919 -0.00518763 0)
(0.857344 -0.0111572 0)
(0.862976 0.00520496 0)
(0.949696 -0.006131 0)
(0.883705 -0.00809912 0)
(0.497708 1.11257 -2.13763e-19)
(0.545044 1.18238 0)
(0.336484 0.847492 3.24611e-20)
(0.281183 0.712126 0)
(0.920582 1.037 -1.59201e-19)
(1.04376 0.847722 3.20862e-19)
(0.393253 1.31909 0)
(0.544147 1.27468 0)
(0.598254 1.20115 0)
(0.104343 0.181715 -3.02112e-19)
(0.167901 0.142914 0)
(0.17171 0.100207 1.85788e-19)
(1.00681 0.901665 0)
(1.08274 0.749789 0)
(1.11239 0.685208 -2.57097e-19)
(1.14899 0.59577 0)
(1.20504 0.391935 4.74331e-20)
(0.957524 -0.00709252 0)
(0.962743 -0.00810681 0)
(0.900936 -0.00737781 0)
(0.983932 -0.00812164 0)
(0.974435 -0.00802906 0)
(0.936553 -0.00656894 0)
(1.0002 0.00250581 0)
(1.00078 0.00123816 0)
(1 0.000760275 0)
(0.0436157 2.0877 4.09043e-19)
(0.145218 1.78926 0)
(0.0194932 2.20212 6.19122e-19)
(0.0516147 1.89524 -5.16669e-19)
(0.167342 1.08488 -2.89273e-19)
(0.0499119 0.93692 0)
(0.122315 0.939765 0)
(0.00664504 0.757699 0)
(0.0301726 0.506089 0)
(-0.00268225 2.25969 -3.31139e-22)
(0.0209551 2.0387 0)
(-0.00469687 2.25986 -5.36884e-21)
(0.00282279 2.04455 -2.09153e-21)
(-0.000696234 0.727993 0)
(-0.00497995 0.707209 0)
(0.0130061 0.444182 0)
(-0.0132172 0.695501 0)
(0.00993015 0.359824 0)
(0.93958 0.0139051 0)
(0.856592 -0.0115409 0)
(0.928727 0.0048929 0)
(0.846331 -0.0127764 0)
(0.810675 -0.00147398 0)
(0.897861 0.022957 0)
(0.874281 0.0255996 0)
(0.784451 -0.00260598 0)
(0.0102184 3.06795 -8.86688e-21)
(0.0150873 3.05879 0)
(0.0124455 2.97023 0)
(0.00768293 2.87671 0)
(0.894231 3.96502 0)
(1.1879 3.36149 9.3402e-19)
(0.0807249 3.0891 0)
(-0.0176886 2.91707 0)
(-0.0176814 1.40457 0)
(-0.0370254 1.70009 0)
(-0.0257244 1.5362 0)
(-0.0337621 2.54795 -1.49836e-20)
(-0.0191298 2.24529 0)
(-0.0232782 2.38881 0)
(-0.00086276 1.9707 -1.74456e-23)
(-0.00529588 2.25352 -2.96849e-20)
(-0.00639715 2.21661 -2.4005e-20)
(-0.00593135 1.95428 0)
(0.389607 0.116031 5.27451e-19)
(0.359588 0.00665098 -5.175e-19)
(0.232775 1.59102 0)
(0.28891 0.768676 -3.25826e-19)
(0.182288 1.68926 -1.06858e-18)
(0.246388 1.22686 1.06996e-18)
(0.901636 0.00580533 0)
(0.967004 0.0107433 0)
(0.97487 0.0098826 0)
(0.922964 0.00582053 0)
(-0.0202757 0.700084 0)
(-0.0267198 0.711381 0)
(0.0025519 0.361339 0)
(0.0781933 0.0906725 5.71239e-19)
(0.062797 0.0676545 -6.71584e-19)
(0.0441445 0.0450654 0)
(1.10821 0.0909424 2.42911e-20)
(1.09179 0.0428707 0)
(1.01931 0.0439054 0)
(0.914297 -0.00132942 0)
(0.437348 0.0974802 0)
(0.49668 0.0783471 -2.41006e-18)
(0.399409 0.00153441 9.02988e-19)
(0.0106371 2.97728 7.83914e-19)
(-0.0324522 2.86143 4.70761e-20)
(0.00865257 3.0532 -1.87294e-20)
(0.0158106 3.04338 7.0273e-19)
(-0.0118091 2.99996 3.10321e-20)
(-0.01235 2.95223 -1.25311e-22)
(-0.0150361 3.01327 -5.80259e-19)
(0.0143932 3.02661 4.0795e-19)
(0.00765409 3.03479 -6.62205e-19)
(0.934787 0.00215459 0)
(0.939562 -0.00110141 0)
(0.848238 -0.0111833 0)
(0.956252 0.0119006 0)
(0.942307 0.013344 0)
(0.881522 0.00538988 0)
(0.915365 0.0183599 0)
(0.925085 0.0151797 0)
(0.837157 0.00196973 0)
(0.670313 1.4106 1.12204e-20)
(0.688274 1.52097 0)
(0.118019 0.28965 6.84396e-20)
(0.21423 0.654488 5.40503e-19)
(0.240174 0.692068 -3.17042e-19)
(0.213735 0.492613 6.29627e-19)
(0.341194 0.834124 1.59772e-18)
(0.136059 0.237739 3.82906e-19)
(0.256426 0.166845 7.08267e-19)
(0.210051 0.163094 1.83209e-19)
(0.219268 0.0876279 3.48315e-19)
(1.19613 0.448 9.37575e-20)
(1.22067 0.246806 9.0938e-20)
(0.00880055 2.24605 2.39852e-19)
(0.0387157 1.95816 0)
(0.973255 0.0331857 0)
(0.946976 0.0193231 0)
(0.871541 -0.0150664 0)
(0.0126898 3.07389 0)
(0.0167158 2.94398 1.23945e-18)
(0.013923 2.95664 0)
(0.00587265 2.84989 -1.22983e-18)
(0.00950121 3.09039 3.02507e-19)
(0.0112313 3.08385 0)
(0.707685 1.81658 -1.68944e-19)
(1.23216 2.62097 5.71522e-19)
(0.692357 1.99453 -1.38778e-18)
(0.0219567 2.97569 -6.81507e-19)
(0.040128 2.99736 0)
(-0.0385966 2.87777 0)
(-0.00628512 2.23885 -1.31741e-20)
(-0.00496589 2.25922 5.798e-20)
(-0.000421166 2.0065 -7.24977e-21)
(0.268584 1.40337 1.0346e-18)
(0.28805 0.573009 -7.09866e-19)
(0.0704508 2.00618 7.48083e-19)
(0.123606 1.87867 -8.99615e-19)
(0.206548 1.54253 1.02273e-19)
(0.00679877 3.11936 -1.7078e-18)
(0.016567 3.11962 1.85142e-18)
(-0.00513549 2.98024 8.42421e-19)
(-0.00066572 2.97499 -8.09335e-19)
(-0.0177889 2.87781 -8.5803e-19)
(0.012558 3.09919 -2.24564e-18)
(0.00509257 3.10741 2.23568e-18)
(0.268558 0.70005 0)
(0.219622 0.660215 -1.15461e-18)
(0.0747 0.212141 5.08104e-19)
(0.347216 0.954339 1.13234e-18)
(0.200571 0.282373 -1.74412e-18)
(1.19924 0.176621 4.89137e-20)
(1.21735 0.306167 0)
(1.1947 0.121594 8.33317e-21)
(-0.000484447 2.26695 -1.1531e-21)
(0.00370024 2.25027 0)
(0.0323476 1.99476 0)
(0.313002 1.31884 -3.71457e-19)
(0.354228 1.18039 -8.05517e-19)
(0.234015 0.393804 1.44169e-18)
(1.00644 -0.00968 0)
(1.00774 -0.00778271 4.8771e-19)
(-0.0425609 1.33107 0)
(-0.0518885 1.3356 0)
(1.00244 0.00326949 1.33731e-21)
(1.0032 0.00780736 1.00123e-18)
(-0.0248866 2.5347 1.89872e-20)
(-0.0278658 2.57713 0)
(0.0402873 3.17222 4.82822e-19)
(0.37299 3.53868 0)
(1.15992 0.694764 -5.1094e-20)
(1.01178 0.0106334 -2.84708e-21)
(1.02088 -0.00899182 0)
(1.00158 0.000286851 1.57593e-22)
(0.117082 1.37666 0)
(0.136311 2.58414 0)
(0.032671 1.32642 0)
(7.74433e-05 2.63373 -8.14134e-21)
(-0.0218719 2.58094 -1.30489e-20)
(0.998451 0.0311887 3.01229e-21)
(1.06306 0.00590843 0)
(1.10017 0.028534 0)
(-0.0353361 1.74715 0)
(-0.0202197 2.57928 0)
(-0.0171108 1.32315 0)
(0.308878 1.49095 -1.70822e-19)
(1.01152 -0.00905268 0)
(1.00971 -0.0129843 0)
(1.00227 0.000934614 6.24571e-19)
(1.00547 -0.00491074 -7.36321e-19)
(1.00113 -0.000862339 0)
(-0.0243876 1.47086 0)
(-0.0133113 1.39284 0)
(-0.0190751 1.43261 0)
(-0.0198263 1.30928 0)
(-0.0327 1.29936 0)
(-0.0271944 1.27818 0)
(1.03569 -0.0042823 0)
(1.01893 0.0154011 -8.90051e-22)
(0.813094 1.31267 2.78557e-19)
(1.00245 0.000388606 -6.24257e-19)
(1.00339 0.00444374 7.45084e-19)
(1.00126 0.00209146 0)
(1.01107 0.00963311 6.21845e-19)
(1.00683 0.0074518 -7.56787e-19)
(1.00712 0.0111055 0)
(-0.0249304 2.60627 0)
(-0.028016 2.58528 -3.2882e-20)
(-0.0249415 2.59944 2.32319e-20)
(1.24282 0.274146 5.28295e-19)
(1.16365 0.0893177 0)
(0.0436236 3.09159 -9.60689e-19)
(0.0518098 2.87409 -6.8064e-20)
(0.103197 3.20175 1.28648e-18)
(0.121567 3.21356 -2.74536e-19)
(0.140921 3.25625 0)
(0.0224099 3.13765 2.64387e-19)
(0.0608064 3.16213 9.5705e-19)
(0.0613385 3.17869 -4.94558e-19)
(0.0266058 3.1297 0)
(0.550676 0.289888 0)
(0.49533 0.30749 0)
(1.14224 0.726306 1.14859e-19)
(1.10664 0.8619 -9.82144e-20)
(1.19981 0.61197 0)
(1.22644 0.54596 0)
(1.01569 0.0120288 -1.15522e-18)
(1.01465 0.0127596 1.45251e-18)
(1.02576 -0.00871822 0)
(1.0241 -0.0102887 0)
(1.0068 0.00325355 0)
(1.01088 0.00421791 0)
(1.0042 0.00221667 0)
(1.00934 0.00634442 0)
(1.00683 0.0050391 0)
(1.00437 0.00525699 0)
(0.109025 1.3766 0)
(0.095248 1.33357 0)
(0.138599 1.42088 0)
(0.147318 1.40491 0)
(0.142889 2.61123 0)
(0.185484 2.68275 -4.15822e-19)
(0.103699 2.66845 0)
(0.0831028 2.66656 1.67263e-19)
(0.0258591 2.67351 -1.61908e-19)
(0.0197834 1.33553 0)
(0.0305648 1.25311 0)
(0.0224362 1.34687 0)
(0.0495112 1.27518 0)
(-0.00189938 1.9961 4.10658e-20)
(-0.0216148 2.60914 -4.31901e-20)
(-0.00584137 2.67602 -3.68583e-20)
(-0.0187817 2.6878 0)
(-0.0241172 2.61519 3.95226e-20)
(-0.022768 2.61064 4.39299e-20)
(0.0050629 1.99287 -3.11927e-20)
(-0.0100972 2.40105 5.79413e-20)
(-0.0145118 2.42582 4.17824e-20)
(1.01169 0.0400577 1.17082e-18)
(1.00413 0.0214273 -1.45853e-18)
(1.00375 0.0473688 -1.19768e-18)
(0.974441 0.0380608 1.50923e-18)
(1.06472 0.00925944 0)
(1.04992 -0.0064394 0)
(1.09272 0.0378419 0)
(1.07588 0.0150995 0)
(1.07468 0.000596703 0)
(1.14139 0.0797361 0)
(1.11581 0.0464151 0)
(1.11918 0.0374754 0)
(-0.0307193 2.43083 3.78208e-21)
(-0.0220228 2.02373 0)
(-0.0218768 2.21996 0)
(-0.0222282 2.60018 -2.10392e-20)
(-0.018812 2.61132 6.76539e-22)
(-0.00394171 1.59236 -5.78513e-20)
(-0.0133188 1.51461 5.91038e-20)
(-0.0243856 1.4065 0)
(-0.0284396 1.41199 0)
(-0.0351557 1.40258 0)
(-0.0125022 1.32499 0)
(-0.000305316 1.24481 0)
(0.386052 1.51561 2.84018e-19)
(0.434807 1.51968 1.51788e-19)
(0.590944 2.46458 -2.49267e-19)
(0.375951 2.55999 6.58175e-19)
(0.35011 2.05066 6.92831e-20)
(1.02071 -0.0079946 0)
(1.0158 -0.00935113 0)
(1.01485 -0.0132089 0)
(1.00774 -0.000551496 0)
(1.00485 -0.000684888 0)
(1.008 -0.00446957 0)
(1.00954 -0.00343288 0)
(1.01465 -0.00427289 0)
(1.01966 0.0163606 1.13384e-18)
(1.01718 0.0149255 -1.43707e-18)
(1.01997 0.0188086 -1.14271e-18)
(1.01739 0.0167982 1.43298e-18)
(0.769448 1.35943 0)
(0.708166 1.39533 2.41974e-19)
(0.877341 1.24069 9.91823e-20)
(0.914089 1.20026 -1.31635e-19)
(1.16359 2.60979 2.87454e-19)
(0.746911 0.13284 5.8651e-19)
(1.17197 0.108096 0)
(1.21477 0.202729 -4.28879e-19)
(1.19613 0.154343 -1.78585e-20)
(1.01143 0.167129 0)
(0.0756723 3.01817 3.48596e-19)
(0.0817877 2.90312 -1.1306e-18)
(0.0230542 2.36085 7.15905e-19)
(0.156349 -0.26636 -3.17578e-19)
(0.341251 3.44282 -2.4824e-19)
(0.192488 3.33842 0)
(0.223003 3.39422 3.23363e-19)
(0.220726 3.07589 -1.20782e-18)
(0.253248 3.19425 0)
(0.00587491 3.12275 4.99155e-20)
(0.0165989 3.13131 -5.74626e-19)
(0.0154906 3.12712 8.45736e-19)
(0.0327166 3.14027 0)
(0.0308346 3.14961 0)
(1.256 2.57311 0)
(0.539551 0.788081 -5.26377e-19)
(1.02708 1.03589 -1.21719e-20)
(0.993388 1.08885 0)
(0.862356 0.970927 -1.07631e-19)
(1.08599 0.911325 2.66568e-20)
(0.310047 0.303632 -7.90483e-19)
(0.639873 0.323497 -2.26913e-20)
(0.520559 0.215249 3.94292e-19)
(0.527689 0.323684 2.81816e-20)
(0.401395 0.270883 -1.12592e-18)
(0.594911 0.322958 0)
(0.68673 0.434812 6.71657e-19)
(0.692417 0.443711 0)
(0.56126 0.328404 0)
(0.463327 0.250342 0)
(0.800812 0.659182 3.98501e-19)
(1.25435 0.308237 -4.29367e-19)
(1.24741 0.440324 0)
(1.2478 0.395656 0)
(0.680637 0.189604 5.99563e-19)
(0.847857 0.56168 -3.71213e-19)
(0.769355 0.525865 6.63304e-19)
(0.966324 0.456172 -6.6677e-19)
(1.01846 0.0147287 7.7035e-19)
(1.01707 0.0136601 -7.76718e-19)
(1.01589 0.0142255 0)
(1.03708 -0.0045079 0)
(1.03048 -0.00768543 -7.28021e-19)
(1.02868 -0.0105755 7.20467e-19)
(1.02475 0.0110134 0)
(1.02271 0.0151202 0)
(1.01271 0.004742 0)
(1.01457 0.00910165 0)
(1.01642 0.00425789 0)
(1.01557 0.00294081 0)
(0.0788707 1.36255 0)
(0.0804343 1.30535 0)
(0.153174 1.42211 5.7061e-20)
(0.276845 1.4872 8.34735e-20)
(0.174974 1.45869 1.88905e-19)
(0.212454 1.45691 -3.04908e-19)
(0.164303 1.4339 0)
(0.143832 1.58906 -8.38121e-20)
(0.1418 1.58392 0)
(0.351871 2.00092 -1.00871e-19)
(0.324293 2.3392 6.21303e-19)
(0.199165 1.46913 7.30238e-20)
(0.275728 1.40151 2.40941e-20)
(0.207789 1.40043 -1.96251e-20)
(0.289705 1.33984 -9.04176e-20)
(0.252707 1.57687 0)
(0.270232 1.62072 9.9144e-20)
(0.0227854 2.25229 -1.29026e-20)
(0.0362691 2.66672 0)
(0.0629029 2.40244 9.17862e-20)
(0.0571185 2.42719 0)
(0.0674945 2.685 -1.85659e-19)
(0.0416032 2.70121 0)
(0.0262503 1.46191 6.42665e-20)
(0.0326012 1.51762 0)
(0.033452 1.42287 0)
(0.0251923 1.43208 -7.35203e-20)
(0.00358451 2.66051 5.22084e-21)
(0.0261781 2.68839 1.86055e-19)
(0.0108618 2.73167 9.19304e-22)
(0.00256448 1.84897 -2.66413e-20)
(-0.00448869 1.70157 -1.8672e-20)
(0.0158709 1.31484 0)
(0.0220092 1.227 0)
(0.0386832 1.59368 -1.23073e-20)
(0.0417254 1.47463 -5.87079e-20)
(0.0267369 1.55456 6.21898e-20)
(0.051294 1.61779 0)
(-0.0317796 2.27092 1.28532e-19)
(-0.0352018 2.54819 -5.45197e-20)
(-0.0211019 2.44892 9.76487e-21)
(-0.00590639 1.86468 3.2286e-20)
(-0.0286583 2.5038 1.36181e-20)
(-0.0233598 2.446 -3.49418e-20)
(1.01798 0.0224154 -7.77324e-19)
(1.01527 0.0285587 7.80371e-19)
(1.01157 0.0177972 0)
(1.01059 0.0707622 1.07394e-18)
(0.990403 0.0611081 -1.22383e-18)
(0.949618 0.0564273 1.36875e-18)
(1.01337 0.115763 -1.4535e-19)
(1.04402 -0.00464851 0)
(1.05223 -0.000392973 6.97659e-19)
(1.04032 -0.00815559 -6.9728e-19)
(1.07231 0.0438913 -4.13751e-20)
(1.065 0.0290678 3.57376e-19)
(1.06415 0.0657281 0)
(1.05442 0.055037 -1.28704e-19)
(1.03231 0.0440975 0)
(1.02601 0.0391469 0)
(1.02762 0.0136912 0)
(1.02399 0.0163355 0)
(1.04069 0.0340018 2.6451e-19)
(1.03915 0.0284662 -5.85422e-19)
(1.05306 0.0387433 -2.79884e-19)
(1.04819 0.0387007 -3.08747e-19)
(1.07791 0.0706321 5.91013e-19)
(1.10186 0.0566423 0)
(1.10862 0.0955993 0)
(-0.0296689 2.27712 7.40093e-20)
(-0.0319925 2.02925 3.96908e-21)
(-0.0271603 2.03937 0)
(-0.031009 2.44416 -7.36842e-20)
(-0.0286498 2.40272 -7.59443e-21)
(-0.0351572 2.47084 9.62058e-21)
(-0.0219533 2.62254 -3.745e-20)
(-0.0274256 2.56473 2.08261e-21)
(-0.0258378 2.51864 -1.26132e-20)
(-0.0177927 2.61525 2.39758e-20)
(-0.0217337 2.6177 -2.78115e-20)
(-0.0128302 1.5172 -9.33741e-22)
(-0.00749811 1.63968 -5.94274e-20)
(0.377395 1.45158 -1.20848e-19)
(0.372559 1.38213 1.98622e-20)
(0.649355 1.44308 -2.34107e-19)
(0.524873 1.51262 -1.47479e-19)
(0.578878 1.47154 0)
(0.606171 2.42161 2.20024e-19)
(0.666672 2.43128 3.41047e-19)
(0.4166 2.51402 9.27272e-20)
(0.399583 2.54013 -6.19514e-19)
(0.502173 2.47814 5.732e-19)
(0.553366 2.47469 0)
(0.485442 2.52463 -5.5991e-19)
(0.257568 2.59702 1.13969e-18)
(0.358106 2.56182 -6.59187e-20)
(0.283499 2.65415 -1.58538e-18)
(0.970982 2.3886 7.23591e-19)
(0.848455 2.38953 0)
(1.01143 0.0013971 2.53298e-20)
(1.01538 -0.00516157 -2.06923e-20)
(1.01778 -0.00389654 -3.78264e-19)
(1.01563 -0.00102519 3.76958e-19)
(1.01312 0.00185087 0)
(0.637856 1.30467 0)
(0.682078 1.1901 0)
(0.796999 1.12079 0)
(0.669749 1.14702 0)
(1.19454 2.6252 5.15902e-20)
(1.08731 2.37721 0)
(0.816934 2.16499 3.64172e-21)
(0.821124 2.42899 0)
(0.915932 2.5195 -4.41334e-19)
(0.947415 2.46887 2.94632e-19)
(0.782668 0.165923 0)
(0.727421 0.14046 1.58935e-19)
(0.907735 0.163454 9.28324e-19)
(0.816373 0.146043 -3.46056e-19)
(0.754597 0.092465 -1.07447e-18)
(1.08784 0.247141 -8.49442e-19)
(0.98561 0.319448 -1.01672e-20)
(0.925456 0.352631 8.20446e-19)
(1.01271 0.260969 6.98253e-19)
(0.932203 0.208367 -1.22585e-18)
(0.888723 0.22036 1.53939e-19)
(0.927201 0.316144 -3.20531e-19)
(0.904766 0.22516 0)
(0.999998 0.208467 6.00515e-19)
(1.05517 0.218189 0)
(1.0525 0.230072 0)
(1.12579 0.12546 2.70222e-19)
(1.06533 0.195683 -1.07288e-20)
(1.07952 0.249032 -1.54527e-19)
(1.11346 0.212771 0)
(1.02281 0.0491875 5.97962e-19)
(1.03685 0.0629055 7.45544e-19)
(1.03235 0.0463682 -5.93437e-19)
(1.04167 0.0693607 -5.0004e-19)
(1.01454 0.0754803 -7.60018e-19)
(0.984507 0.170492 0)
(0.987902 0.108194 0)
(0.962394 0.0750122 -4.87308e-19)
(0.897034 0.099989 1.95281e-19)
(1.03899 0.116546 6.91484e-19)
(1.07596 0.13752 -7.909e-19)
(1.07057 0.182298 7.10972e-19)
(1.0351 0.158381 0)
(1.08608 0.12291 0)
(1.05685 0.113002 -3.24484e-19)
(1.04239 0.10906 -5.62216e-19)
(0.588043 1.08181 1.21922e-19)
(0.610112 1.39801 -2.44576e-20)
(1.14431 2.71611 -2.51854e-19)
(1.19674 3.10063 4.06858e-21)
(1.25232 2.72569 -1.34763e-19)
(1.2916 2.69614 2.47191e-20)
(1.26678 2.3194 -3.82266e-20)
(1.18434 3.00595 -7.87327e-20)
(1.20402 2.96293 2.311e-19)
(1.17827 3.25383 -1.19722e-19)
(1.39555 2.96766 1.49912e-19)
(1.40684 2.90282 0)
(0.576457 0.813672 -4.84024e-20)
(0.202351 1.21009 4.71677e-19)
(0.527185 0.328728 5.11858e-19)
(0.412828 0.0949273 5.80799e-19)
(0.461007 0.296957 6.3777e-19)
(0.546828 0.414002 -1.03979e-18)
(0.556753 0.396322 8.55156e-19)
(0.462469 0.292818 -3.1722e-19)
(0.309992 0.235431 7.2227e-19)
(0.716024 0.256644 -3.45858e-19)
(0.664489 0.28597 0)
(0.594759 0.19362 7.51726e-21)
(0.73649 0.513524 3.57667e-19)
(0.707786 0.487315 -1.29696e-18)
(0.631903 0.43781 1.30373e-20)
(0.618257 0.41811 0)
(0.723514 0.71919 3.72922e-19)
(0.83948 0.801975 4.12047e-19)
(0.777795 0.85188 -4.80083e-19)
(0.907386 0.823012 -1.52138e-19)
(0.942114 0.865976 -3.5578e-20)
(0.949612 0.873439 3.64897e-20)
(0.884689 0.681415 -6.67601e-19)
(0.957596 0.727918 1.4144e-19)
(1.0124 0.730823 0)
(1.01139 0.706339 -1.80913e-19)
(1.03107 0.343518 2.11289e-19)
(1.15915 0.342903 2.57814e-19)
(1.07449 0.28498 3.4726e-19)
(1.00067 0.390281 -4.22967e-19)
(1.05835 0.490778 0)
(1.1396 0.431349 0)
(0.900848 0.429115 -1.63064e-21)
(0.847644 0.321038 0)
(0.89266 0.313035 3.90175e-19)
(0.911381 0.351827 1.7713e-21)
(0.988658 0.500715 1.86253e-18)
(0.92074 0.559823 4.8053e-19)
(0.943812 0.518956 -5.07385e-19)
(0.861136 0.495813 5.41252e-19)
(0.825408 0.471149 3.45032e-19)
(0.802138 0.4503 -3.38115e-19)
(1.0282 -0.000359326 6.25165e-19)
(1.02046 0.000602707 0)
(1.0191 0.00141804 4.07961e-19)
(1.02268 -0.000699244 -9.23524e-19)
(1.02257 0.00461098 4.49887e-19)
(1.02002 0.0116627 -9.41702e-19)
(1.02076 0.0114852 0)
(1.01968 0.012253 -1.96086e-19)
(1.01658 0.00782628 4.91402e-19)
(1.01668 0.0109464 -2.46921e-19)
(1.01729 0.0106513 1.8078e-19)
(0.0367929 1.33598 0)
(0.0438656 1.39874 0)
(0.0569254 1.34135 0)
(0.0621258 1.27705 0)
(0.0888877 1.40715 -8.17187e-20)
(0.0922372 1.37957 2.16542e-20)
(0.0863311 1.57218 3.11106e-21)
(0.102319 1.41074 -3.93995e-20)
(0.0448181 1.4877 5.30796e-20)
(0.0504339 1.48197 -4.17746e-20)
(0.07773 1.39926 -2.12533e-20)
(0.0652827 1.40145 7.74783e-20)
(0.0606865 1.38245 1.26549e-20)
(0.0470761 1.40175 8.82428e-21)
(0.102793 2.3719 -1.00173e-19)
(0.0920409 2.41454 0)
(0.146708 2.00697 8.78649e-20)
(0.12954 1.69837 3.06742e-20)
(0.217157 2.00753 -8.34891e-20)
(0.220702 2.41643 0)
(0.255447 2.37449 -5.88943e-19)
(0.292401 2.37075 4.3063e-19)
(0.254484 1.9797 -1.94805e-19)
(0.145775 2.15063 1.4255e-19)
(0.108364 2.25688 0)
(0.0149891 1.85348 -2.82192e-20)
(-0.00523378 2.37276 -6.38904e-21)
(0.00307214 2.12917 0)
(0.00437751 2.43546 -1.73746e-20)
(0.0224944 2.27296 2.53675e-20)
(0.0123233 1.44002 -1.29167e-20)
(0.00768267 1.41938 2.13368e-19)
(0.00612707 1.42916 -6.899e-20)
(0.0210143 1.43795 -6.07435e-20)
(0.0231158 1.4654 0)
(0.00308182 1.41261 0)
(-0.00260908 1.31102 -8.35746e-20)
(-0.00462663 1.40246 2.43266e-20)
(0.00346204 1.40158 0)
(0.00730928 1.30332 -6.45956e-20)
(0.0136495 1.21351 1.28606e-19)
(1.04248 0.015095 0)
(1.04899 0.0105677 -6.52397e-20)
(1.03921 0.0246015 -4.71719e-19)
(1.0497 0.0234891 0)
(1.0547 0.022712 0)
(1.03639 0.0131087 -6.77012e-21)
(1.03008 0.0135455 7.61133e-19)
(1.03182 0.017625 9.20954e-19)
(1.02557 0.0212589 0)
(1.02234 0.021722 0)
(1.03563 0.0258876 4.70705e-19)
(1.02639 0.0284581 0)
(1.02327 0.0287297 0)
(-0.021381 2.03203 0)
(-0.011849 1.66754 -2.74916e-21)
(-0.00955224 1.77177 -3.45589e-20)
(-0.00965955 1.40778 0)
(-0.0108243 1.57242 -3.49021e-20)
(-0.0176738 1.48435 2.09958e-20)
(-0.0150985 1.42335 0)
(0.403389 1.62219 0)
(0.366735 1.32025 -3.22327e-20)
(0.275643 1.34574 0)
(0.436659 1.31871 -3.30959e-20)
(0.472858 1.47772 0)
(0.458276 1.41946 3.87404e-20)
(1.04036 2.66872 -1.53715e-20)
(0.985316 2.40746 -9.0894e-19)
(0.948126 2.20878 1.019e-18)
(0.865176 2.38155 2.44898e-19)
(0.852356 2.48545 0)
(0.921591 2.47992 0)
(0.954756 2.38162 0)
(0.93065 2.3727 -9.47411e-19)
(0.691098 2.44921 -3.83234e-19)
(0.800057 2.43305 -9.88837e-20)
(0.807338 2.41103 7.45213e-20)
(0.703977 2.40237 0)
(0.80925 2.39606 0)
(0.769755 2.41268 -3.70043e-19)
(0.765307 2.46414 0)
(0.633551 1.06807 0)
(0.515379 0.854169 -5.65099e-19)
(0.522041 0.927288 -3.29087e-20)
(0.501908 1.0683 0)
(0.489147 0.975709 8.64739e-19)
(0.805298 0.887701 -1.33815e-19)
(0.808216 1.02253 0)
(0.789447 1.00571 1.83762e-19)
(0.678479 1.02125 0)
(0.67035 0.924821 0)
(1.16281 2.75278 -2.22642e-19)
(1.13797 2.81108 -9.19064e-20)
(0.922191 2.33322 7.94098e-20)
(0.899011 2.31434 -7.73234e-20)
(1.13253 2.73057 0)
(1.08462 2.69832 9.28702e-20)
(1.10034 2.49362 -2.99259e-19)
(1.00222 2.25371 -2.82283e-20)
(0.496703 1.32723 0)
(0.516879 1.07614 -1.07386e-19)
(0.595718 1.18382 0)
(0.858552 0.234171 0)
(0.753639 0.183838 0)
(0.652304 0.146001 0)
(0.859182 0.233021 -6.00725e-19)
(0.738264 0.230748 3.61606e-19)
(0.916879 0.0912907 -4.03563e-19)
(0.92223 0.134887 0)
(0.902247 0.149821 1.74739e-19)
(0.83666 0.109596 6.99411e-19)
(0.793174 0.0776628 -4.38227e-19)
(1.09459 3.34468 -6.65838e-19)
(1.16298 3.26839 0)
(1.11256 3.42939 -1.55989e-18)
(0.654807 3.57565 1.29767e-18)
(1.02292 3.07499 1.14785e-19)
(0.534259 0.775728 5.72408e-19)
(0.512236 0.742856 0)
(0.345425 0.335563 -1.43614e-19)
(0.493801 0.625879 8.56701e-19)
(0.562171 0.328764 -1.86087e-19)
(0.523082 0.451452 2.22932e-19)
(0.689416 0.526515 4.59232e-19)
(0.737707 0.563613 0)
(0.670414 0.562034 0)
(0.656869 0.532646 0)
(1.01958 0.615436 8.9508e-20)
(0.972715 0.59784 -4.65515e-19)
(0.983421 0.610169 3.55407e-19)
(1.04743 0.552866 -3.43259e-19)
(1.09276 0.522014 0)
(1.09473 0.603539 -9.03994e-20)
(0.886461 0.424793 -7.70283e-19)
(0.874046 0.411068 -9.91398e-19)
(0.798555 0.412641 6.07271e-19)
(0.813829 0.378867 -6.31437e-19)
(0.855817 0.334589 -4.96588e-19)
(0.799017 0.338283 6.079e-19)
(1.02658 0.00673363 -4.7083e-19)
(1.0262 0.00685494 9.48725e-19)
(1.02997 0.000969877 6.05882e-19)
(1.0342 0.0016174 -7.27473e-19)
(1.03397 0.0119826 0)
(1.02972 0.0120788 -1.192e-18)
(0.0850622 1.6473 9.73107e-21)
(0.06994 1.60508 0)
(0.109547 1.70136 4.17409e-20)
(0.112881 1.67348 -3.63317e-20)
(0.082441 1.57117 -5.63563e-21)
(0.0727753 1.57521 0)
(0.00710165 1.70541 0)
(-0.00891036 1.52321 1.86339e-20)
(-0.00762988 1.46546 -1.67479e-20)
(-0.0137671 1.57039 3.08938e-21)
(-0.00249747 1.89682 2.79425e-20)
(-0.0148879 1.95061 -1.10153e-20)
(0.493767 1.35924 -2.69643e-19)
(0.496441 1.3539 2.94809e-19)
(0.450818 1.31086 -1.53774e-20)
(0.428564 1.29087 8.00771e-21)
(0.630551 1.31177 0)
(0.556538 1.40624 1.12789e-19)
(0.557525 1.4092 -1.09839e-19)
(0.486939 1.29902 1.48367e-20)
(0.527554 1.25166 0)
(0.592066 1.21735 0)
(0.664764 2.41282 5.64219e-19)
(0.660475 2.44311 1.28696e-18)
(0.715453 2.45838 -8.84975e-19)
(0.613313 2.43032 -2.01906e-19)
(0.55687 2.5238 2.76745e-19)
(0.497073 2.49024 -7.15647e-19)
(0.992932 2.38634 -5.74138e-19)
(1.02458 2.40387 0)
(0.951734 2.19231 -6.26883e-19)
(1.05558 2.67939 0)
(1.05447 2.66037 0)
(0.598539 2.28574 -8.96207e-22)
(1.11735 3.06743 6.8052e-20)
(0.994055 2.96374 -1.15044e-19)
(0.317447 0.784118 0)
(0.314125 0.659097 -3.05307e-19)
(0.523435 0.59691 -3.09811e-19)
(0.360361 2.1273 0)
(0.401473 2.74378 -8.08168e-20)
(0.410695 2.47753 0)
(0.732247 0.688011 -7.93794e-19)
(0.798614 0.698273 1.10743e-18)
(0.801607 0.662182 -1.0825e-18)
(0.705211 0.642856 -1.00621e-19)
(0.761458 0.602566 -4.17388e-19)
(0.9687 2.75009 -5.15393e-20)
(1.01321 2.75768 -2.16668e-19)
(0.548687 2.20063 4.51796e-19)
(0.602116 1.73118 -3.56194e-19)
(0.7014 1.85012 -5.02066e-19)
(0.975857 2.39071 -1.38506e-19)
(0.976219 2.3437 3.71843e-19)
(0.643479 1.75814 3.39199e-20)
(0.450035 1.29288 1.77719e-19)
)
;

boundaryField
{
    wall-4
    {
        type            noSlip;
    }
    velocity-inlet-5
    {
        type            fixedValue;
        value           uniform (1 0 0);
    }
    velocity-inlet-6
    {
        type            fixedValue;
        value           uniform (0 3 0);
    }
    pressure-outlet-7
    {
        type            zeroGradient;
    }
    wall-8
    {
        type            noSlip;
    }
    frontAndBackPlanes
    {
        type            empty;
    }
}


// ************************************************************************* //
