/*--------------------------------*- C++ -*----------------------------------*\
  =========                 |
  \\      /  F ield         | OpenFOAM: The Open Source CFD Toolbox
   \\    /   O peration     | Website:  https://openfoam.org
    \\  /    A nd           | Version:  6
     \\/     M anipulation  |
\*---------------------------------------------------------------------------*/
FoamFile
{
    version     2.0;
    format      ascii;
    class       volScalarField;
    location    "45";
    object      p;
}
// * * * * * * * * * * * * * * * * * * * * * * * * * * * * * * * * * * * * * //

dimensions      [0 2 -2 0 0 0 0];

internalField   nonuniform List<scalar> 
918
(
0.534292
1.26469
0.00533097
0.534196
-0.0101638
1.23254
-0.489916
0.678105
0.515414
-0.105684
-0.0407009
0.513788
1.08943
0.857729
-1.17008
-0.00908155
0.637771
-0.410581
0.513373
-0.0446178
0.713964
0.522113
0.524584
0.515377
0.573299
0.812667
0.966755
0.00610431
0.00598415
0.00360638
-0.0114751
-0.0309818
-0.0252342
1.11568
1.16761
1.19076
0.482248
0.317337
-0.381457
-0.432599
-0.415812
-0.51443
0.673078
0.671988
-0.198223
0.679812
0.686474
0.501214
0.514802
0.515637
0.516789
0.51567
0.516959
0.40289
-0.109497
-0.139121
-0.0885175
-0.0854399
0.0554444
-0.0435078
-0.0469924
-0.0393458
-0.0417631
0.431966
0.509675
0.506732
0.518689
0.528364
1.20486
1.17862
1.20468
1.11517
1.13283
1.06645
1.03941
0.878263
0.901623
0.842065
0.82785
-1.63467
-2.59148
-0.586909
-0.30496
-0.0100928
-0.00613831
-0.00362243
0.630264
0.630463
0.638974
0.645678
1.04278
-0.38244
-0.45249
0.513868
0.512384
0.521634
0.522538
0.517487
0.517499
-0.0453094
-0.0450972
-0.0295882
-0.0406942
-0.0355167
0.705012
0.70236
0.51482
0.512273
0.537353
0.559236
0.548286
0.25389
0.57921
0.594476
0.674145
0.820613
0.808639
0.820868
0.942159
0.910906
0.99805
1.01975
0.0143714
0.00104916
-0.0143801
-0.0166129
-0.0150557
0.478029
0.471659
0.498848
0.485836
0.488839
0.221499
0.0694013
0.400108
0.423963
-0.302774
-0.345129
-0.445442
-0.444831
-0.548848
0.589658
0.667694
0.663607
-0.213222
-0.139008
-0.265237
-0.0834481
-0.138773
0.492261
0.498436
0.494553
0.509833
0.504024
0.50644
0.518893
0.516056
0.517661
0.461536
0.59135
0.320441
0.293412
-0.26579
-0.1569
-0.248023
-0.0721985
-0.0638515
0.0663406
0.0933055
0.0427621
0.0294457
-0.0564032
-0.0510258
-0.0551298
-0.042244
-0.0446864
0.42355
0.410722
0.44306
0.450455
0.497695
0.499062
0.503284
0.50131
0.990124
1.01325
1.01925
0.995309
-3.57994
-6.23309
0.0459418
0.207887
-0.00568872
-0.00796305
0.00104192
-0.00650144
0.00143642
-0.00129818
-0.00764557
-0.00988361
-0.00399747
-0.00340496
0.624773
0.625582
1.0089
1.03407
0.986138
0.963019
0.50318
0.505097
0.509724
0.506619
-0.0443691
-0.0459537
-0.0476404
0.68834
0.697492
0.694881
0.213794
0.126642
0.303765
0.334324
0.619189
0.602522
0.616296
0.734312
0.775005
1.03696
1.06092
1.04507
1.05801
1.10889
1.13181
1.09676
0.456838
0.467627
0.461981
0.502007
0.499647
0.50069
0.49672
0.497881
0.496391
-0.0434045
-0.41915
0.475803
0.47817
0.46568
0.471907
0.675331
0.758258
0.646707
0.656627
0.654419
-0.0357553
-0.0832791
0.252661
0.224156
0.363821
0.39775
0.380074
0.965842
0.926139
0.974045
0.949311
0.913751
0.937378
-0.356729
-2.1327
-1.12164
0.614846
0.415501
0.508293
0.0136383
-0.00436147
0.000704011
1.02726
1.06756
0.661691
0.850875
0.804976
0.798093
0.823097
0.886136
0.820916
0.853746
0.882684
0.856852
0.542952
0.483088
0.496109
0.835956
0.893657
0.0912748
0.0163529
-0.00736546
0.116191
0.183116
0.152977
1.04249
0.950203
1.01637
0.512512
0.51344
-0.000384449
-0.0137997
0.517536
0.517257
-0.013848
-0.00618906
0.526473
-0.943058
0.0995102
0.506944
0.496802
0.51352
-0.0695178
0.334495
-0.0429072
0.0424108
0.00278282
0.509133
0.444045
0.402218
0.00584581
-0.0178843
-0.0414532
-0.208242
0.510254
0.508617
0.512898
0.513734
0.514496
-0.0129745
-0.00927511
-0.00767666
-0.0382774
-0.0325828
-0.0411459
0.477131
0.496626
-0.184642
0.51318
0.51528
0.514992
0.509097
0.514093
0.512676
-0.0118735
-0.0182493
-0.0201953
0.195848
0.329924
0.711873
0.788498
0.660585
0.491541
0.191451
0.646379
0.699523
0.624059
0.755159
0.660779
0.67019
0.164549
0.0267555
0.169381
0.10144
0.503844
0.503205
0.494352
0.491289
0.508319
0.506014
0.51118
0.508369
0.511511
0.512693
-0.0266119
-0.0659141
-0.0791351
-0.134955
0.302232
0.560754
0.22754
0.255599
0.163566
-0.035406
-0.0360521
-0.0419067
-0.0472365
-0.00151064
-0.0132181
0.035952
0.0419428
0.0201627
-0.00715769
-0.0109594
-0.0122786
-0.0167875
0.502512
0.50186
0.507554
0.515988
0.453511
0.457159
0.423891
0.442408
0.428787
0.369122
0.399099
0.376391
-0.00345851
0.00763249
0.00181422
-0.0154894
-0.012317
-0.0307368
-0.0236746
-0.0246835
-0.0191505
-0.0226434
-0.0375406
-0.0441052
-0.17235
-0.289386
0.96777
0.898632
0.125187
0.500191
0.505825
0.503012
0.507634
0.510838
0.511499
0.509103
0.505614
0.496795
0.498232
0.495041
0.49604
-0.126041
-0.232023
-0.0652045
-0.137364
0.143518
0.608237
0.338129
0.285456
0.270457
0.4922
0.710645
0.634246
0.701192
0.698593
-0.394766
0.0198663
-0.321827
0.227563
0.21382
0.735816
0.777141
0.794495
0.752384
0.708615
-0.0351419
0.544351
-0.0574408
-0.0111639
0.178935
0.0671014
0.682999
0.640432
0.645401
0.662322
0.677983
0.65551
0.636246
0.631581
0.659181
0.664716
0.495094
0.224709
0.183856
0.137179
0.626192
0.523069
0.576263
0.496741
0.49931
0.501825
0.500706
0.481877
0.489191
0.484915
0.491785
0.495344
0.502873
0.503071
0.499033
0.500905
-0.0588892
-0.0618782
-0.0684112
-0.120112
-0.12171
-0.163579
-0.0854416
0.109658
0.0561386
0.233222
0.356799
0.0827226
-0.0469209
-0.0309255
0.0215787
0.19123
0.18469
0.0536657
0.170612
0.124672
0.11735
0.207137
0.231579
-0.0246542
-0.0244906
-0.0271104
-0.0332291
0.0180543
0.115805
0.100335
-0.00292066
-0.00953475
-0.0376582
-0.0396516
0.00226363
-0.0132402
-0.00666577
0.00625177
-0.0422305
-0.0169219
-0.0056033
-0.00318274
-0.00719522
-0.00551671
0.496053
0.498191
0.498112
0.506115
0.520836
0.535951
0.498517
0.474552
0.465599
0.468696
0.442027
0.451188
0.446294
0.461763
0.48347
0.49231
0.489811
0.492486
0.474795
0.476455
0.462072
0.466502
0.436223
0.418074
0.408294
-0.0387303
-0.00477769
-0.0166223
-0.0356509
-0.00840208
-0.0206451
-0.0110009
0.00622676
-0.0104625
-0.0083661
-0.0185842
-0.0233945
-0.0226224
-0.0749016
0.00691869
-0.177335
-0.226289
-0.277639
0.880766
1.01582
0.801496
0.579907
0.59107
0.833423
0.930019
0.545936
0.753314
0.768428
0.560702
0.849424
0.504056
0.503699
0.501597
0.500789
0.501744
-0.0198852
0.0801129
0.0985904
0.152815
0.267731
0.374731
0.296994
0.184481
0.319311
0.343502
0.605762
0.614038
0.569402
0.590744
0.589786
0.406287
0.487381
0.528682
0.479067
0.552951
0.5858
0.533567
0.575996
0.496074
0.445988
0.437308
0.394563
0.427914
0.409757
0.384331
0.495517
0.472366
0.483316
0.472916
0.494208
0.515818
0.518232
0.542185
0.557495
0.474165
0.422831
0.439184
0.466822
0.424187
0.440386
0.461615
0.168825
0.0733336
0.239602
-0.0888778
0.000996097
0.0377704
-0.00332083
-0.0487402
0.258234
-0.384133
-0.328851
-1.01201
0.484997
0.867008
0.644582
0.658996
0.677259
0.660115
0.670271
0.683868
0.689066
0.617989
0.629467
0.633322
0.602363
0.631062
0.634681
0.641613
0.496799
0.401997
0.401196
0.337083
0.202906
0.242493
0.428107
0.359749
0.286776
0.280776
0.451168
0.318864
0.395471
0.451625
0.379372
0.311333
0.542221
0.589821
0.579694
0.551612
0.446842
0.477443
0.490801
0.536971
0.570612
0.597619
0.490561
0.496823
0.497772
0.495027
0.493236
0.49632
0.496527
0.498818
0.499221
0.501766
0.501128
-0.0400555
-0.029561
-0.0464924
-0.0488563
0.0301786
0.00580932
0.00519394
-0.0276282
-0.00800095
-0.00915357
-0.026024
-0.0426227
-0.0344749
-0.0212589
0.0713335
0.0875233
0.102471
0.0671418
0.266047
0.401225
0.464799
0.337954
0.221443
0.240358
0.307516
0.0188492
0.0347954
0.0202603
0.0704417
0.0474695
-0.0303729
-0.036453
-0.0325821
-0.025766
-0.016658
-0.0342689
-0.0406878
-0.0315617
-0.0371178
-0.0413056
-0.0440885
0.476245
0.46915
0.472582
0.46515
0.463356
0.479989
0.484396
0.485733
0.491197
0.493731
0.483456
0.489351
0.493375
-0.012579
-0.0287795
-0.0307999
-0.0255427
-0.0258667
-0.0249807
-0.0260861
0.115394
0.0236337
0.0561609
-0.00886472
-0.131776
-0.0720078
0.485604
0.481601
0.476784
0.705864
0.545589
0.46204
0.558406
0.676712
0.260841
0.465994
0.297464
0.878015
0.780737
0.926688
0.54757
0.242675
0.406398
0.42057
0.255012
0.380328
0.340905
0.216423
0.255829
0.281034
0.366194
0.245567
0.223975
-0.0178256
0.160033
0.2737
0.255174
0.385638
0.443496
0.248473
0.163471
0.112184
0.589818
0.607581
0.617815
0.590872
0.612425
0.557651
0.546615
0.564205
0.572755
0.567363
-0.64917
-0.237476
-1.43924
-0.84605
-0.394971
0.511534
0.502584
0.742482
0.648957
0.69123
0.672513
0.607421
0.571226
0.61273
0.634883
0.330916
0.423301
0.403023
0.387693
0.331131
0.27095
0.551072
0.554593
0.579451
0.603163
0.577768
0.603722
0.489174
0.488986
0.48782
0.484162
0.482723
0.485756
0.0267149
0.00387522
0.0431989
0.0398702
0.0223445
0.0242862
-0.0102218
-0.0199678
-0.0244474
-0.022553
-0.0135286
-0.00978864
0.159044
0.100237
0.0140056
0.0549445
-0.0106744
-0.0907552
-0.092846
-0.00524428
0.0921038
0.0736174
0.380051
0.653586
0.479323
0.644593
0.437846
0.540483
0.460547
0.435138
0.46471
0.361502
0.449384
0.0177135
-0.180427
-0.237988
0.80954
0.765991
0.552819
0.300494
0.187765
0.487524
0.516423
0.48183
0.506196
0.555427
0.535255
-0.00161163
0.0957995
0.164173
0.474575
0.265106
0.282631
0.274147
0.435001
0.40881
)
;

boundaryField
{
    wall-4
    {
        type            zeroGradient;
    }
    velocity-inlet-5
    {
        type            zeroGradient;
    }
    velocity-inlet-6
    {
        type            zeroGradient;
    }
    pressure-outlet-7
    {
        type            fixedValue;
        value           uniform 0;
    }
    wall-8
    {
        type            zeroGradient;
    }
    frontAndBackPlanes
    {
        type            empty;
    }
}


// ************************************************************************* //
