/*--------------------------------*- C++ -*----------------------------------*\
  =========                 |
  \\      /  F ield         | OpenFOAM: The Open Source CFD Toolbox
   \\    /   O peration     | Website:  https://openfoam.org
    \\  /    A nd           | Version:  6
     \\/     M anipulation  |
\*---------------------------------------------------------------------------*/
FoamFile
{
    version     2.0;
    format      ascii;
    class       surfaceScalarField;
    location    "45";
    object      phi;
}
// * * * * * * * * * * * * * * * * * * * * * * * * * * * * * * * * * * * * * //

dimensions      [0 3 -1 0 0 0 0];

internalField   nonuniform List<scalar> 
1300
(
3.75095
5.62643
-3.2403
3.75095
-7.71172
5.62643
-4.25361
4.25361
-0.75352
0.75352
1.87647
1.87449
-2.61174
2.61174
-2.05236
2.05236
-2.54481
2.54481
-5.24801
5.24801
-5.06916
5.06916
4.71421
-4.71421
-6.27813
6.27813
-1.09078
1.09078
-3.6697
3.6697
3.17292
-3.17292
-2.06328
2.06328
-0.174628
0.174628
-0.554103
4.30506
3.19685
3.19685
-1.97973
1.97973
-4.87435
4.87435
6.22252
-6.22252
5.20474
-5.20474
-1.96444
-2.38705
1.81053
-11.5677
-5.90118
-5.90118
-8.44101
8.44101
-2.81458
2.81185
2.94573
-2.94573
-1.73468
1.73468
-4.23662
-0.0169931
-4.23662
4.23841
0.0151948
4.23841
-0.842155
0.0886347
-0.842155
3.84433
-3.84433
0.629255
0.124265
0.629255
3.06698
-3.06698
-1.87687
3.75334
1.87408
-1.87207
6.17712
-1.87889
3.75338
-6.05373
6.05373
-2.82662
0.21488
-2.82662
2.4201
0.191648
2.4201
-6.85826
6.85826
-2.11403
0.0616685
-2.11403
2.02754
0.0248247
2.02754
2.88159
-2.88159
-2.64172
0.0969126
-2.64172
2.41389
0.130912
2.41389
0.353431
5.273
-5.97986
8.79171
-5.273
0.0249884
5.21027
0.0377403
5.21027
-5.10512
0.0359586
-5.10512
5.01267
0.0564976
5.01267
4.80828
-0.0940764
4.80828
-4.82878
0.114577
-4.82878
-3.39634
-4.0887
-6.44822
0.170083
-6.44822
-1.11279
0.0220069
-1.11279
1.03539
0.0553973
1.03539
-3.67645
3.67645
-3.987
0.317293
-3.987
3.12786
0.0450579
3.12786
1.86812
1.88283
5.61908
-5.61908
2.44616
-1.98928
-0.0740061
-1.98928
-2.13777
-3.06697
2.13777
-0.0744847
-0.392834
0.218206
-0.392834
3.15702
0.0398345
3.15702
2.25515
0.158747
-2.25515
0.275417
3.2755
-3.2755
1.3087
0.671033
1.3087
-5.5593
5.5593
4.96116
0.0515093
-4.96116
0.0868111
6.15704
0.0654856
6.15704
-6.20781
-0.0147128
-6.20781
2.58719
-4.97424
-2.56618
6.08607
0.192062
-6.08607
0.184887
2.91652
0.0292045
2.91652
-2.92037
2.92037
-2.98324
0.0375165
-2.98324
-2.16038
0.425699
-2.16038
1.41631
0.318369
1.41631
-4.11319
-0.123423
-4.11319
-4.12178
0.134782
4.12178
0.116637
1.07951
-1.07951
-0.907053
0.0648984
-0.907053
-3.94212
-0.171075
3.94212
-0.0977924
-3.80299
-0.0413344
-3.80299
-3.02127
0.0380309
3.02127
0.0457058
3.11193
0.0450837
-3.11193
0.0449533
-1.87097
3.7538
-1.87998
3.75406
-5.66987
-0.383864
-5.66987
6.34522
-0.291485
6.34522
3.22085
0.448856
-3.22085
0.394222
2.2813
0.138791
2.2813
-6.83328
-0.0249789
-6.83328
6.85951
-0.00124893
6.85951
2.18182
0.0994874
-2.18182
0.0677858
1.99868
0.0288582
1.99868
2.90623
-0.0246336
2.90623
-2.87736
-0.00423396
-2.87736
2.79592
-2.79592
2.72426
0.0716614
-2.72426
0.0825374
-11.1239
11.1092
-0.0362824
-11.0876
5.17399
5.17399
4.26397
0.544316
4.26397
-5.01891
0.190131
-5.01891
2.71201
-5.2782
3.08156
-6.4779
4.69349
-16.2612
4.32721
-8.41591
6.703
-6.703
6.58626
0.116738
-6.58626
0.138048
-1.17703
0.0642381
-1.17703
-3.08357
-0.592878
-3.08357
4.32906
-0.652612
4.32906
-3.02821
3.02821
-3.07681
0.0486066
3.07681
0.051051
1.96584
0.0328443
-1.96584
-0.023442
0.501501
0.127754
-0.501501
0.108668
3.48752
-0.21202
3.48752
-3.07922
-0.196283
-3.07922
-1.24658
0.0695462
1.24658
0.0621223
-5.80837
0.249068
-5.80837
-11.1817
0.0940127
-11.1439
-6.1138
-6.1138
2.32721
11.1189
-2.89394
0.0165835
2.89394
0.0225794
2.97585
0.0523594
-2.97585
0.0554741
-2.86064
0.0647253
2.86064
0.05973
-2.5311
0.370722
-2.5311
-1.02103
1.02103
-1.17725
0.156226
1.17725
0.239058
1.36789
-0.288383
1.36789
0.974667
0.0607202
-0.974667
0.0676136
-3.76918
-0.0338105
-3.76918
6.58022
-0.234998
6.58022
-2.95475
-0.124462
2.95475
-0.0485286
-0.0349585
11.1442
-5.13903
0.0339064
5.13903
-11.2097
11.2436
-3.24004
0.708942
3.24004
1.02392
5.28521
0.274094
-5.28521
0.266294
6.79612
0.0633901
-6.79612
0.0931167
-2.5786
-0.504966
-2.5786
-5.06824
-0.601632
5.06824
-0.739181
-11.4824
-0.202253
11.6847
-11.4259
6.01062
0.146413
-6.01062
11.39
-0.973739
-0.105772
0.973739
0.0472871
1.70544
-0.337549
1.70544
3.69322
-0.205699
-3.69322
-0.0759626
-6.7277
-0.105578
6.7277
-0.147486
-2.13446
-0.444145
2.13446
-0.429013
-4.26725
4.30709
1.90987
-2.4085
-2.56574
-5.47547
1.85497
1.89883
4.30112
-10.2099
-6.05132
-10.025
7.21244
-6.94615
-9.35772
9.26365
7.79294
-7.83427
-5.77806
5.82911
6.48401
-6.4383
1.87926
1.87408
7.99597
-7.78109
-15.7062
15.3223
7.55351
-7.49184
15.8495
-15.8745
-17.9153
17.9787
-5.70203
5.79894
-6.7345
6.73027
-6.96699
6.91846
-2.84637
-3.63153
13.1982
-13.0281
8.49272
-8.56672
-8.63476
8.95206
3.38452
0.922566
3.42961
-1.88195
3.76121
-1.87143
3.7813
2.69577
-5.54214
2.58243
-5.14816
4.29191
4.20081
-4.21743
-1.25805
-5.92631
5.95551
-5.8127
5.87243
9.02955
-9.04654
-1.88502
3.7591
-1.86904
3.76787
-3.42345
-2.35461
3.37839
0.922729
8.11405
5.08413
-8.30611
-1.71885
-7.96189
7.75619
-8.19136
7.99508
-0.437005
5.83703
-5.40002
4.43734
-1.65312
7.49015
5.55932
5.74945
5.86019
-5.58609
1.08596
-6.48598
-6.39917
-2.467
2.5319
2.42251
-2.29824
6.01831
1.77463
5.92052
-5.74041
-2.09386
-5.77422
3.82037
2.00874
3.86898
4.08107
2.40294
4.1191
3.03003
-3.03613
0.00610647
-3.05896
6.08899
0.722965
-5.41357
-4.49084
5.01254
2.98342
5.20419
-5.57664
-2.20444
-5.18242
-9.58314
-6.12303
-10.1848
10.1073
5.21506
9.81577
-11.9868
11.8393
4.83401
2.7195
4.85883
-4.95969
-2.53215
-4.8919
11.6709
-2.63773
-9.03322
-10.3515
-7.56382
10.3528
5.49673
11.0096
6.96915
11.1027
4.443
7.22795
-9.93973
2.37591
-3.86431
-1.83772
-3.78177
3.66115
2.13779
3.79206
-4.21629
-2.51821
-4.19971
-4.29118
-2.67581
4.31581
2.41445
-4.40751
-3.78385
4.53198
2.38649
4.06976
-10.1211
4.34616
-7.97769
-9.24808
-3.78002
-9.11003
3.50313
2.60946
-6.11259
-2.03902
8.44523
-4.24442
7.18718
-5.19259
-3.37414
-5.21603
-6.90231
-1.73246
-6.76753
-8.95845
8.45348
-9.23316
8.58055
12.6323
-5.6737
-6.95856
-3.96679
-2.47151
3.92184
-0.492234
-3.71032
3.71642
0.0508932
3.83219
4.75475
4.26252
-3.88338
-1.92931
-3.82791
3.82484
2.04759
3.88957
6.77387
2.25568
6.78907
-6.48234
-2.5642
-6.60576
9.13562
-8.70992
2.8609
-2.79136
5.34022
2.65485
-5.1282
-2.83369
6.23092
-3.18065
-3.05027
-12.3569
10.8461
1.51073
-4.86672
-0.429376
-0.254748
-5.58449
-3.77323
5.46991
0.279537
11.1257
7.35244
-5.51464
5.76371
6.17004
6.22155
-0.177617
5.91628
-5.20734
5.34105
-2.59955
-2.7415
5.36577
-5.53684
-1.23999
-5.45123
4.21124
0.38368
1.6955
-1.4773
-1.90123
-0.565777
-1.83361
1.426
0.996508
1.55375
0.907573
1.62433
-2.93478
0.585276
2.3495
-2.0272
-1.71296
-3.69166
-1.14037
4.83204
5.65126
2.10493
-5.5753
-0.198923
2.64297
-2.58757
-0.749541
-2.94212
2.18144
-2.93098
-3.53163
-1.87326
5.40489
-3.36934
-0.458567
3.31698
0.551998
-3.82734
-2.09896
3.78983
0.329269
-3.1275
6.19004
-3.06254
-5.05681
2.529
3.55998
4.53774
-4.79076
2.44865
2.34211
-1.23077
4.2876
0.916592
4.42639
-7.00301
4.79857
5.71566
3.2364
-6.16451
0.982091
-6.02092
8.41221
-7.26533
-1.14688
3.94438
4.46783
7.07311
5.55915
-5.721
12.7941
-1.05805
-6.20728
7.07898
-3.84258
4.78615
-8.62873
-10.3453
4.13802
-9.23629
11.0335
-1.79726
-3.61512
-8.3717
12.8514
-1.20907
-11.6423
8.6067
-4.23787
-4.2909
8.52877
-6.8756
6.82305
-1.96664
-4.85641
-10.1538
-5.72071
10.2593
1.57999
-9.88861
12.2645
-2.66066
4.14515
0.71368
4.17401
3.29509
-5.43548
2.14039
3.58051
-5.54715
2.06807
-7.50355
-6.77984
12.124
-5.34418
-10.5599
-9.58001
-0.979856
2.55895
9.70556
-9.52811
7.4706
2.0575
3.30184
0.587727
-3.3735
-0.408268
0.243138
4.51754
-4.76068
4.0352
4.19395
3.25131
1.26623
3.84723
2.10827
-3.86981
-0.329895
-4.16224
1.48643
-1.74779
-3.68667
5.1731
-4.06339
0.376715
-2.74313
-3.49771
6.24084
-4.58085
3.03745
3.15259
5.08503
-4.91357
1.41585
-2.39397
-2.51959
2.64754
-4.39532
1.9875
3.1856
4.37399
0.590142
5.9121
6.21192
-8.52156
0.543872
11.2961
-9.57721
2.48283
8.61987
-9.95343
0.373426
-8.73661
0.97576
-5.22018
-5.13683
5.13344
-6.8659
-3.49528
6.21562
0.573443
-6.33226
-0.435266
-6.07962
-2.87883
-6.52376
-3.05684
-6.17632
-8.77784
-1.68429
-7.09355
6.7692
-6.71053
-3.47424
7.44971
1.13084
-7.48569
7.37992
-7.55065
7.2131
0.0943356
3.62209
4.35686
1.88535
-2.39132
4.27667
-5.07075
7.32642
-8.67629
3.60555
4.13824
-6.70244
-4.53805
5.07323
4.06239
5.3916
8.97629
-10.4673
1.49099
-10.7425
12.078
-1.3355
-16.5449
5.80238
-7.56862
2.53326
0.327639
2.5975
0.599744
2.48182
-3.08157
-2.19161
-2.12949
-2.40016
-3.49339
5.89354
1.10899
-3.42142
2.31243
-3.57654
4.68553
0.00322705
-3.42465
5.20209
-2.72027
5.52973
-3.57331
1.95642
3.51065
5.82481
-2.31415
4.42058
-1.76573
1.90649
-4.22065
-1.58689
-2.95891
5.09669
-3.28194
3.65865
-0.336017
3.99467
-4.08288
0.902231
-0.83157
3.36238
3.63779
4.3223
-3.05607
2.94862
-4.71435
-1.27203
-4.1242
-0.938601
-0.214434
-3.84414
4.05857
6.06077
-6.2752
-5.30556
9.56426
-4.2587
7.72847
-5.459
-2.26948
-4.31043
-4.39949
3.93971
1.97657
9.70505
0.179153
-5.63815
-5.02819
-4.00426
3.18925
2.15181
-1.87208
3.38281
2.12683
-0.431326
0.474337
1.07941
1.8377
-1.36336
0.289216
1.54848
-1.18808
1.85697
0.785997
-1.91769
0.0840776
-1.26112
3.44257
1.08838
-2.08489
0.721525
0.952484
-3.55204
4.94304
-2.66269
-2.28034
5.89552
1.14426
-3.80695
4.30697
-3.92329
2.40473
-3.54511
-1.40222
-5.32551
-3.55088
-2.5273
4.83973
-3.36624
5.47117
1.3081
-5.27225
6.58035
-3.61189
1.73863
-3.062
3.84799
-1.07364
-1.98836
2.94107
2.46383
-3.0878
0.14568
-0.146734
2.38966
-2.53639
-0.541328
-2.56853
-4.57497
4.90424
-2.10464
4.55329
2.17203
-1.91647
6.46975
1.80899
-3.72546
-3.24782
-3.70639
-1.38335
3.15439
-0.587958
-4.30394
-5.44437
4.20445
0.221938
-6.846
7.78492
-0.938916
-3.86258
-0.93599
4.88037
-6.02004
0.472889
-3.95197
3.83295
4.74954
4.97148
-11.42
-0.222324
-6.20496
1.11385
-7.31881
5.58168
-3.56078
7.6988
-10.3642
6.88992
-9.23333
6.55191
-0.766896
6.23333
-4.09294
2.79989
-8.52059
-6.9406
5.47201
-2.7525
6.18569
-3.1156
9.30129
-5.77627
5.23242
4.06887
-1.01558
-4.20045
-5.23882
4.22325
-0.00640037
4.16761
4.98407
-2.87579
4.65417
2.25936
-4.65333
-2.13596
-6.48929
1.83595
-3.33669
-1.91984
3.75579
3.16519
3.75292
1.2362
-3.34465
7.2275
-8.20736
-1.88332
-3.25351
5.21127
-0.988027
3.38304
-6.63655
-1.83714
4.81036
-0.75068
-4.05969
0.863335
-4.35862
1.67906
-6.03767
5.18684
-5.62211
2.24747
-9.8161
-5.23822
-5.19093
-2.27924
-5.27141
-7.62251
5.34327
-1.82013
5.55979
-8.59146
7.84078
-3.48658
8.82985
-5.46927
-1.05449
5.89828
1.31481
10.1447
0.121215
-4.65927
-1.9343
3.83678
-1.90248
1.25495
-3.72292
0.113858
2.47348
3.42204
-6.68472
-0.0177243
-4.67699
-3.9185
7.98088
5.64576
11.7065
1.23926
9.17817
-1.19729
10.4174
4.19431
4.43337
-3.04732
4.53831
1.01125
4.6168
-0.861919
2.81834
1.73558
1.75759
0.82998
2.29451
1.34329
3.19674
0.115171
-2.01432
4.65023
-8.6545
-0.987916
-8.11018
1.15347
5.42829
-4.27482
2.99864
-0.846829
1.09615
-0.0316698
-1.50773
1.5394
-2.77317
-1.93906
-0.390575
-1.62719
2.34872
1.81538
-1.95814
-0.815031
0.327356
-3.87824
3.21775
-3.07207
-0.608246
5.9721
-2.82482
0.288434
-1.0862
-2.2801
-2.84587
2.7618
6.17475
0.295007
3.11221
5.19924
3.10028
0.224489
3.90746
-5.70472
-3.59609
-5.92704
-0.345366
4.53501
1.7166
7.98896
5.78547
4.79744
-1.83911
-10.0465
6.54909
-2.01078
5.21359
-1.1539
-4.88377
5.05445
2.27198
-5.62789
0.00578195
-4.87799
-6.88877
-0.490167
8.33094
-9.65449
8.6
5.72117
1.37239
-4.44563
-0.7453
4.28941
0.14396
10.5614
-0.904326
-7.153
8.05733
-4.52396
3.53604
0.72502
2.65779
2.26442
1.41759
-5.73541
-10.0102
-1.98741
-1.56462
-4.26776
0.56428
-2.37966
6.1004
-2.56436
3.83092
5.49297
6.58912
-2.06528
-4.20992
6.32398
-2.49306
4.09607
)
;

boundaryField
{
    wall-4
    {
        type            calculated;
        value           uniform 0;
    }
    velocity-inlet-5
    {
        type            calculated;
        value           uniform -3.75095;
    }
    velocity-inlet-6
    {
        type            calculated;
        value           uniform -5.62643;
    }
    pressure-outlet-7
    {
        type            calculated;
        value           nonuniform List<scalar> 8(3.2403 7.71172 4.35149 9.75715 7.48505 5.15337 5.79357 9.0207);
    }
    wall-8
    {
        type            calculated;
        value           uniform 0;
    }
    frontAndBackPlanes
    {
        type            empty;
        value           nonuniform 0();
    }
}


// ************************************************************************* //
