/*--------------------------------*- C++ -*----------------------------------*\
  =========                 |
  \\      /  F ield         | OpenFOAM: The Open Source CFD Toolbox
   \\    /   O peration     | Website:  https://openfoam.org
    \\  /    A nd           | Version:  6
     \\/     M anipulation  |
\*---------------------------------------------------------------------------*/
FoamFile
{
    version     2.0;
    format      ascii;
    class       volVectorField;
    location    "45";
    object      U;
}
// * * * * * * * * * * * * * * * * * * * * * * * * * * * * * * * * * * * * * //

dimensions      [0 1 -1 0 0 0 0];

internalField   nonuniform List<vector> 
918
(
(0.985047 -0.000710434 0)
(0.00534678 2.96624 0)
(-0.00174858 0.854809 0)
(0.979574 0.00195869 0)
(-0.014198 2.05188 3.01282e-20)
(-0.00709154 2.94856 -2.64314e-18)
(0.804905 1.12302 4.29148e-19)
(0.260632 0.100262 -1.50771e-20)
(0.999921 -0.00024307 0)
(0.0807329 0.728681 0)
(0.0148116 0.509592 0)
(0.734309 -0.0168236 0)
(0.0101972 2.9316 0)
(0.00374531 2.79408 0)
(-0.000710109 3.18882 8.24376e-19)
(-0.012726 1.90682 7.16106e-21)
(0.320195 0.022377 9.96023e-19)
(0.234378 1.13726 3.42638e-19)
(0.96446 0.00672291 0)
(-0.0335693 0.48945 0)
(0.0639894 0.155423 -7.16819e-19)
(1.00184 -0.00456127 0)
(0.999852 -0.0089332 0)
(0.975156 -0.00605594 0)
(0.594811 -0.0360485 0)
(0.0222902 2.64461 0)
(-0.0123292 2.91193 9.71856e-19)
(-0.00184422 0.925981 0)
(-0.00653712 1.15959 0)
(-0.0025685 0.897714 0)
(-0.0212984 2.60954 0)
(-0.00434828 2.1051 -2.40564e-20)
(-0.00792588 1.87366 0)
(-0.0221371 2.9876 -9.54757e-23)
(-0.0164972 3.00549 2.05381e-18)
(0.00230029 3.00059 0)
(0.871391 -0.00960445 0)
(0.377078 0.920062 1.65348e-19)
(0.803588 1.13499 -5.27377e-19)
(0.93709 0.988566 5.4174e-19)
(0.670953 1.21904 -9.8746e-20)
(0.682029 1.19372 5.68124e-19)
(0.285446 0.189783 1.47091e-20)
(0.269928 0.0851297 0)
(1.13552 0.517255 0)
(0.250658 0.182438 6.70964e-20)
(0.229684 0.105783 -6.96259e-20)
(0.920439 -0.00701482 0)
(1.00026 7.32614e-05 0)
(0.999909 0.000318493 0)
(1.0037 -0.00728745 0)
(1.00089 -0.000950345 0)
(1.00011 -1.23835e-05 0)
(0.0951998 1.83573 -7.63908e-19)
(0.0343085 0.900641 0)
(0.135622 0.796903 0)
(0.0161024 0.852446 0)
(0.0443271 0.666887 0)
(0.00874425 2.01684 0)
(0.00264277 0.758965 0)
(0.00517017 0.539544 0)
(0.000775159 0.750987 0)
(0.0132145 0.497749 0)
(0.841327 -0.0156638 0)
(0.840836 0.0333419 0)
(0.766473 -0.0070098 0)
(0.812033 0.0438273 0)
(0.70113 -0.0172403 0)
(0.0139363 3.00021 9.81814e-19)
(0.0111557 3.00596 0)
(0.00624877 3.00387 0)
(0.0119031 2.99712 1.11606e-23)
(0.00825301 2.95876 -1.45922e-18)
(0.0122371 2.98296 0)
(0.00904732 2.90474 0)
(0.0211983 2.93179 2.28435e-24)
(0.00412669 2.82376 0)
(0.0254061 2.91865 0)
(-0.00108601 2.74465 0)
(0.309636 3.58843 0)
(-0.122557 3.67173 0)
(0.152348 3.27985 -7.67252e-19)
(0.00576043 3.01316 0)
(-0.0257647 2.0042 0)
(-0.00714564 2.16599 -7.06266e-21)
(-0.00785902 1.92184 3.47928e-21)
(0.407895 0.138062 -3.447e-19)
(0.328548 -0.00213071 -3.33254e-19)
(0.379446 0.155774 -1.03644e-18)
(0.306163 0.0368699 -6.80532e-19)
(0.259524 0.999979 0)
(0.33238 1.26571 -3.5749e-19)
(0.407443 1.16802 5.88962e-19)
(0.987874 0.00809705 0)
(0.943404 0.00578539 0)
(1.00029 0.000672872 0)
(1.00254 0.00906963 0)
(1.00313 0.00895821 -2.62891e-18)
(0.992132 0.00946704 1.98657e-18)
(-0.0230704 0.766017 0)
(-0.0141189 0.467349 0)
(-0.0301517 0.989175 0)
(-0.0221522 0.798772 0)
(-0.0118851 0.499682 0)
(0.077941 0.164891 2.21774e-19)
(0.130263 0.136801 0)
(0.993613 -0.00769889 0)
(0.954013 -0.00646803 0)
(0.755034 0.0498707 0)
(0.690116 0.0551016 0)
(0.661469 -0.0230849 0)
(0.972348 -0.00445057 0)
(0.61903 0.0601235 0)
(0.449522 -0.0290292 1.47629e-18)
(-0.04115 2.8608 7.7617e-19)
(0.033719 2.91413 0)
(0.0423544 2.89218 0)
(0.00377274 2.7015 0)
(-0.00882591 2.98654 9.31419e-19)
(-0.0142668 2.8948 0)
(-0.0109517 2.9919 -2.86502e-18)
(-0.0116483 2.92974 9.74408e-19)
(-0.00620259 1.34286 0)
(0.0161613 1.37492 0)
(-0.00761066 2.13037 5.15817e-22)
(-0.00614336 2.08847 0)
(-0.0161282 1.88632 0)
(0.938436 -0.00538329 0)
(0.856454 -0.0109467 0)
(0.863573 0.00567438 0)
(0.949346 -0.00629957 0)
(0.883315 -0.00799643 0)
(0.501579 1.12099 -2.09977e-19)
(0.549083 1.19161 0)
(0.338151 0.853502 3.2131e-20)
(0.281852 0.718234 0)
(0.898543 1.02619 -1.51904e-19)
(1.01199 0.827744 2.98895e-19)
(0.389527 1.32737 0)
(0.534221 1.27972 0)
(0.585816 1.21288 0)
(0.0967163 0.174825 -2.92985e-19)
(0.306406 0.185391 0)
(0.269357 0.0789364 1.92634e-19)
(0.97664 0.883418 0)
(1.05186 0.727584 0)
(1.07971 0.660995 -2.3319e-19)
(1.11977 0.575802 0)
(1.17434 0.387186 4.45752e-20)
(0.957291 -0.00722177 0)
(0.962615 -0.00818096 0)
(0.900697 -0.00732205 0)
(0.9839 -0.00813918 0)
(0.97437 -0.00807244 0)
(0.936476 -0.00654518 0)
(1.0002 0.00250212 0)
(1.00077 0.00124569 0)
(1 0.000771098 0)
(0.0425426 2.08161 4.24953e-19)
(0.1455 1.77936 0)
(0.0157524 2.19948 6.4675e-19)
(0.0547943 1.88617 -5.437e-19)
(0.171799 1.11777 -2.80785e-19)
(0.0524926 0.981466 0)
(0.124068 0.97563 0)
(0.00393167 0.818401 0)
(0.0233471 0.603882 0)
(-0.00503155 2.25062 -7.90689e-22)
(0.0199332 2.02351 0)
(-0.00807709 2.25176 -3.14521e-20)
(0.00850436 2.02799 5.00931e-20)
(0.00756409 0.785879 0)
(0.00320461 0.771996 0)
(0.00802719 0.568683 0)
(-0.00595094 0.74546 0)
(-0.00411923 0.491195 0)
(0.937486 0.0135399 0)
(0.853285 -0.0118076 0)
(0.92723 0.00453618 0)
(0.844701 -0.0128313 0)
(0.812228 -0.00119435 0)
(0.899185 0.0224611 0)
(0.873714 0.0279311 0)
(0.788699 -0.00465746 0)
(0.0102782 3.06779 -9.16864e-21)
(0.0149056 3.05905 0)
(0.0124442 2.97026 0)
(0.0076501 2.87667 0)
(0.900518 3.98642 0)
(1.1959 3.38069 9.45062e-19)
(0.0828473 3.09458 0)
(-0.0159873 2.92006 0)
(-0.00228382 1.39309 0)
(-0.0284707 1.70281 0)
(-0.0103846 1.53968 0)
(-0.0308835 2.56617 -9.19913e-21)
(-0.0135651 2.26095 0)
(-0.0207544 2.40531 0)
(0.00306077 1.95164 2.41661e-21)
(-0.00353632 2.24819 -7.57753e-21)
(-0.00666824 2.20793 -3.66722e-21)
(-0.00302986 1.93454 0)
(0.432866 0.115743 5.246e-19)
(0.350788 -0.0108926 -5.14712e-19)
(0.23034 1.58429 0)
(0.285935 0.746207 -3.2381e-19)
(0.180113 1.67931 -1.07339e-18)
(0.243171 1.20825 1.07425e-18)
(0.901867 0.00609732 0)
(0.967193 0.0105073 0)
(0.975056 0.00976876 0)
(0.92313 0.00595341 0)
(-0.00761364 0.736451 0)
(-0.0225929 0.747382 0)
(-0.00317603 0.474803 0)
(0.212798 0.180026 6.17745e-19)
(0.174047 0.165579 -7.34743e-19)
(0.17859 0.119837 0)
(1.09681 0.0871554 2.45131e-20)
(1.08072 0.0402962 0)
(1.01241 0.0424619 0)
(0.908354 -0.00284639 0)
(0.465536 0.093747 0)
(0.525037 0.0695246 -2.36636e-18)
(0.387463 -0.0154492 8.91094e-19)
(0.010952 2.97745 8.19025e-19)
(-0.0324232 2.86208 4.74544e-20)
(0.00857981 3.05305 -1.93393e-20)
(0.0157242 3.04346 7.25046e-19)
(-0.0118064 2.99995 3.20407e-20)
(-0.0123466 2.95229 -1.29332e-22)
(-0.0150506 3.01329 -5.97874e-19)
(0.0142808 3.02668 4.19929e-19)
(0.00758707 3.0347 -6.82114e-19)
(0.9338 0.00179012 0)
(0.938908 -0.00139834 0)
(0.847008 -0.0110557 0)
(0.956565 0.0115194 0)
(0.942815 0.0129153 0)
(0.881865 0.00581394 0)
(0.916573 0.0177395 0)
(0.925824 0.0147317 0)
(0.83814 0.00237489 0)
(0.675388 1.42142 1.95083e-20)
(0.693736 1.5325 0)
(0.121637 0.30715 6.81047e-20)
(0.201335 0.639097 5.40533e-19)
(0.236114 0.690338 -3.16547e-19)
(0.219663 0.516041 6.26983e-19)
(0.329411 0.807532 1.55203e-18)
(0.12668 0.225988 3.73835e-19)
(0.354668 0.177809 7.23579e-19)
(0.33267 0.18897 1.87304e-19)
(0.282061 0.0610374 3.59366e-19)
(1.16972 0.433497 7.49812e-20)
(1.19917 0.243238 7.44332e-20)
(0.00561738 2.24235 2.5382e-19)
(0.0410218 1.94922 0)
(0.968743 0.0321829 0)
(0.94388 0.0188907 0)
(0.866725 -0.0156282 0)
(0.0125248 3.07416 0)
(0.0167857 2.94409 1.28442e-18)
(0.0139351 2.95671 0)
(0.00588895 2.84984 -1.2743e-18)
(0.00946125 3.09088 3.13999e-19)
(0.011385 3.08357 0)
(0.714776 1.83031 -1.73797e-19)
(1.24044 2.63738 5.87352e-19)
(0.699617 2.00891 -1.41092e-18)
(0.0223865 2.97597 -7.1578e-19)
(0.0411952 2.99896 0)
(-0.0384783 2.8791 0)
(-0.00778635 2.23029 -1.23466e-20)
(-0.00561534 2.25148 6.87146e-21)
(0.00629215 1.98696 -7.76247e-21)
(0.266905 1.38589 1.03374e-18)
(0.272563 0.535669 -7.09084e-19)
(0.0709128 1.99753 7.61259e-19)
(0.121163 1.86883 -9.16279e-19)
(0.206794 1.52628 1.03139e-19)
(0.00788615 3.11911 -1.75735e-18)
(0.0164151 3.1197 1.92168e-18)
(-0.00510802 2.98009 8.75947e-19)
(-0.000475092 2.97497 -8.44236e-19)
(-0.0180197 2.87796 -8.92179e-19)
(0.0125601 3.09873 -2.33332e-18)
(0.00502134 3.1077 2.34915e-18)
(0.252397 0.679536 0)
(0.204583 0.644524 -1.14143e-18)
(0.0698367 0.210852 5.01599e-19)
(0.341013 0.925023 1.11046e-18)
(0.191473 0.268575 -1.70958e-18)
(1.18356 0.171886 5.17573e-20)
(1.19697 0.29714 0)
(1.17968 0.119633 3.26756e-21)
(-0.00233001 2.26032 -1.51164e-21)
(0.00158111 2.24698 0)
(0.0307684 1.98253 0)
(0.311455 1.3074 -3.69468e-19)
(0.350675 1.15228 -7.98597e-19)
(0.222163 0.37748 1.42388e-18)
(1.00643 -0.00971144 0)
(1.00773 -0.00780457 4.83304e-19)
(-0.00768279 1.3192 0)
(-0.0293354 1.30537 0)
(1.00245 0.00330259 1.3732e-21)
(1.00323 0.00786178 9.92066e-19)
(-0.023072 2.55165 1.16459e-20)
(-0.0277083 2.59451 0)
(0.0420438 3.17305 5.14783e-19)
(0.3784 3.55092 0)
(1.14148 0.680146 -5.74522e-20)
(1.01194 0.0107663 -2.79964e-21)
(1.02078 -0.0090905 0)
(1.00159 0.000241783 1.50384e-22)
(0.109645 1.36379 0)
(0.14445 2.59132 0)
(0.0265144 1.31103 0)
(-0.000359097 2.63684 2.53886e-20)
(-0.0210797 2.58875 9.49085e-21)
(0.998669 0.0268561 2.65005e-21)
(1.06192 0.00502856 0)
(1.09827 0.0272476 0)
(-0.0253829 1.74455 0)
(-0.0220521 2.59447 0)
(-0.00895714 1.30415 0)
(0.291843 1.48298 -1.66806e-19)
(1.01147 -0.0090939 0)
(1.00969 -0.0130031 0)
(1.00229 0.000937012 6.196e-19)
(1.00548 -0.00494517 -7.29549e-19)
(1.00114 -0.000875749 0)
(-0.0107686 1.45965 0)
(-0.010759 1.36538 0)
(-0.00253207 1.41506 0)
(-0.0110045 1.29058 0)
(-0.0191534 1.26927 0)
(-0.0165057 1.25003 0)
(1.03537 -0.00458778 0)
(1.01936 0.0150479 -9.06769e-22)
(0.790737 1.30241 2.68247e-19)
(1.00234 0.000363583 -6.17995e-19)
(1.0034 0.00451115 7.38179e-19)
(1.00129 0.00211583 0)
(1.01127 0.00967778 6.15841e-19)
(1.00693 0.00750013 -7.4977e-19)
(1.00729 0.011251 0)
(-0.0263489 2.6234 0)
(-0.0283659 2.60289 -2.13056e-20)
(-0.0264065 2.61658 1.53821e-20)
(1.23463 0.268016 5.36509e-19)
(1.16043 0.0873625 0)
(0.0451714 3.09093 -1.01082e-18)
(0.0509288 2.87186 -7.15644e-20)
(0.104636 3.20122 1.35523e-18)
(0.123433 3.21354 -2.95144e-19)
(0.145572 3.26042 0)
(0.0226939 3.13766 2.78635e-19)
(0.0617132 3.16196 1.00693e-18)
(0.0623736 3.17875 -5.20897e-19)
(0.0268162 3.12941 0)
(0.621098 0.291939 0)
(0.57268 0.334473 0)
(1.11992 0.711898 1.36444e-19)
(1.08555 0.844909 -1.29078e-19)
(1.18046 0.59752 0)
(1.21137 0.534096 0)
(1.01582 0.0120334 -1.14407e-18)
(1.01476 0.0128058 1.43839e-18)
(1.02557 -0.00882803 0)
(1.02388 -0.0103775 0)
(1.00658 0.00289126 0)
(1.01092 0.00418923 0)
(1.00442 0.00216084 0)
(1.00947 0.0064349 0)
(1.00706 0.00512286 0)
(1.00449 0.00530761 0)
(0.0964009 1.36042 0)
(0.0770102 1.34264 0)
(0.136993 1.41031 0)
(0.134954 1.41221 0)
(0.151489 2.61425 0)
(0.190732 2.67996 -4.20677e-19)
(0.108802 2.67583 0)
(0.0827907 2.6762 1.75297e-19)
(0.0286808 2.68042 -1.78698e-19)
(0.0143612 1.31704 0)
(0.0190825 1.25048 0)
(0.0178984 1.33415 0)
(0.0285857 1.28154 0)
(0.00195157 1.99098 5.77565e-21)
(-0.0206527 2.61644 -1.15832e-20)
(-0.00772902 2.67935 7.79886e-21)
(-0.0186732 2.69331 0)
(-0.0228749 2.62421 -1.64727e-20)
(-0.0220989 2.61958 1.15506e-20)
(0.0104224 1.98983 -2.37661e-21)
(-0.00828136 2.40891 1.55422e-20)
(-0.0127022 2.43019 -8.84225e-21)
(1.00987 0.0382885 1.15993e-18)
(1.00577 0.0175147 -1.4448e-18)
(1.00302 0.0439275 -1.18656e-18)
(0.976644 0.0304843 1.49428e-18)
(1.06366 0.00837926 0)
(1.04919 -0.00672202 0)
(1.09087 0.0358721 0)
(1.07446 0.0139016 0)
(1.07314 -0.00046412 0)
(1.13907 0.0765393 0)
(1.11322 0.0439407 0)
(1.1157 0.0361386 0)
(-0.0272727 2.44401 9.93786e-22)
(-0.0133848 2.0254 0)
(-0.0167719 2.22842 0)
(-0.0227041 2.61504 -9.5797e-21)
(-0.0196623 2.62421 1.78268e-22)
(0.000702044 1.57464 -3.12105e-20)
(-0.00202808 1.49937 3.17845e-20)
(-0.014953 1.38647 0)
(-0.0175253 1.39174 0)
(-0.0217933 1.3862 0)
(-0.0029374 1.30862 0)
(0.00739778 1.25196 0)
(0.375061 1.50434 2.7695e-19)
(0.422727 1.50993 1.49768e-19)
(0.604465 2.46396 -2.4548e-19)
(0.388899 2.56111 7.23753e-19)
(0.35056 2.06868 6.87772e-20)
(1.02058 -0.00810313 0)
(1.01573 -0.00941685 0)
(1.01481 -0.0132392 0)
(1.0076 -0.000669764 0)
(1.00492 -0.000667439 0)
(1.00799 -0.00453565 0)
(1.00952 -0.00355585 0)
(1.01458 -0.00441671 0)
(1.02013 0.0159627 1.12219e-18)
(1.01758 0.0147952 -1.42034e-18)
(1.02058 0.0181647 -1.13131e-18)
(1.01828 0.0166323 1.4136e-18)
(0.748718 1.34675 0)
(0.684778 1.38418 2.36146e-19)
(0.855691 1.22663 9.16794e-20)
(0.892057 1.18974 -1.21651e-19)
(1.16693 2.62184 2.70507e-19)
(0.779994 0.121165 5.80045e-19)
(1.16798 0.103557 0)
(1.20775 0.195159 -4.34484e-19)
(1.18837 0.15306 -1.80164e-20)
(1.013 0.158316 0)
(0.0839017 3.02288 3.57358e-19)
(0.0866765 2.90509 -1.20177e-18)
(0.0334883 2.36528 7.63238e-19)
(0.133451 -0.114192 -3.66516e-19)
(0.346299 3.45353 -2.47713e-19)
(0.196254 3.34462 0)
(0.226962 3.40374 3.22675e-19)
(0.227902 3.08135 -1.24583e-18)
(0.261423 3.2014 0)
(0.00589523 3.12271 5.22293e-20)
(0.0170417 3.13123 -5.99312e-19)
(0.0156722 3.12708 8.82073e-19)
(0.0330574 3.14012 0)
(0.0310946 3.14969 0)
(1.263 2.5882 0)
(0.52256 0.820488 -5.25339e-19)
(1.00479 1.01965 1.0433e-22)
(0.970025 1.07176 0)
(0.839321 0.96091 -1.12251e-19)
(1.06086 0.892591 2.68409e-20)
(0.40111 0.361961 -9.01013e-19)
(0.687032 0.308193 -2.34655e-20)
(0.628901 0.22726 4.05937e-19)
(0.596114 0.3559 3.00175e-20)
(0.509053 0.32893 -1.20977e-18)
(0.647641 0.321585 0)
(0.701573 0.414617 6.78133e-19)
(0.701922 0.417766 0)
(0.624213 0.350398 0)
(0.570996 0.28455 0)
(0.780456 0.646373 3.9799e-19)
(1.24317 0.297932 -4.40116e-19)
(1.23378 0.431209 0)
(1.23688 0.386064 0)
(0.727627 0.180464 6.09487e-19)
(0.836386 0.539819 -3.80198e-19)
(0.752436 0.497051 6.75542e-19)
(0.954642 0.42877 -7.0181e-19)
(1.01877 0.0145487 7.61342e-19)
(1.0173 0.0135828 -7.69581e-19)
(1.01611 0.0142241 0)
(1.0367 -0.00478982 0)
(1.03021 -0.00782972 -7.2171e-19)
(1.02837 -0.0107195 7.14273e-19)
(1.02477 0.0105599 0)
(1.0229 0.0145494 0)
(1.01264 0.00453664 0)
(1.01456 0.00908622 0)
(1.01615 0.00403196 0)
(1.01539 0.00278825 0)
(0.0629848 1.35694 0)
(0.0611418 1.31874 0)
(0.13952 1.41031 5.12775e-20)
(0.266034 1.47754 7.79603e-20)
(0.162485 1.45135 1.71715e-19)
(0.19144 1.45628 -2.79398e-19)
(0.145289 1.41531 0)
(0.12676 1.57955 -1.06868e-19)
(0.125691 1.57239 0)
(0.347195 2.02708 -1.00108e-19)
(0.326682 2.34692 6.20331e-19)
(0.179956 1.45382 9.31657e-20)
(0.264413 1.37819 2.05753e-20)
(0.19051 1.3808 -1.67615e-20)
(0.279444 1.31478 -9.73878e-20)
(0.251363 1.57688 0)
(0.253087 1.6263 1.04768e-19)
(0.0265625 2.27363 -1.74881e-20)
(0.0366571 2.67477 0)
(0.0676053 2.4147 1.03874e-19)
(0.061829 2.43444 0)
(0.0680361 2.69317 -1.94558e-19)
(0.0424871 2.70846 0)
(0.0271275 1.42336 2.946e-20)
(0.0370237 1.48392 0)
(0.0320031 1.38952 0)
(0.0228501 1.38508 -3.45313e-20)
(0.00126822 2.66372 -1.43243e-21)
(0.0246935 2.69793 2.05579e-19)
(0.00890966 2.7331 1.20507e-21)
(0.00306401 1.83628 -2.29349e-21)
(-0.0026863 1.68507 -3.88508e-21)
(0.0140016 1.30243 0)
(0.0220815 1.23695 0)
(0.0386538 1.58025 6.36391e-21)
(0.0369703 1.45442 -1.38282e-20)
(0.0342386 1.5261 1.26618e-20)
(0.0435298 1.60851 0)
(-0.0306203 2.27784 7.86739e-20)
(-0.0325301 2.56252 -3.28259e-20)
(-0.0202342 2.46001 3.49741e-21)
(-0.00440334 1.85493 2.78123e-21)
(-0.0262921 2.51343 2.98781e-21)
(-0.0224685 2.45266 7.04785e-21)
(1.01844 0.0212113 -7.66914e-19)
(1.01448 0.0273565 7.71091e-19)
(1.01341 0.0166496 0)
(1.01207 0.0685649 1.05614e-18)
(0.991414 0.0553855 -1.21798e-18)
(0.952544 0.0522609 1.36343e-18)
(1.0136 0.11304 -1.43764e-19)
(1.04346 -0.00498455 0)
(1.05152 -0.000925645 6.90892e-19)
(1.03989 -0.0083177 -6.9059e-19)
(1.07087 0.0424052 -4.09967e-20)
(1.06408 0.0275672 3.54118e-19)
(1.06397 0.0631018 0)
(1.05415 0.0521752 -1.27411e-19)
(1.03232 0.0432018 0)
(1.02589 0.0384454 0)
(1.02768 0.0132695 0)
(1.02408 0.015838 0)
(1.04026 0.0325504 2.61993e-19)
(1.03959 0.0275759 -5.79899e-19)
(1.05258 0.0368028 -2.77278e-19)
(1.04832 0.0367465 -3.05935e-19)
(1.07645 0.0672583 5.85869e-19)
(1.10008 0.0533495 0)
(1.10646 0.0923312 0)
(-0.0270369 2.2847 5.05513e-20)
(-0.0249901 2.02935 1.02783e-21)
(-0.0213463 2.03832 0)
(-0.0315181 2.45652 -5.03164e-20)
(-0.0261462 2.41368 -1.98033e-21)
(-0.0338937 2.48634 6.00232e-21)
(-0.021169 2.63331 -9.37368e-21)
(-0.0244028 2.57687 1.33795e-22)
(-0.0234423 2.52901 -3.76131e-21)
(-0.0175194 2.6273 9.68343e-21)
(-0.0213305 2.62909 -1.04316e-20)
(-0.00635397 1.48396 -4.9831e-22)
(-0.00188521 1.62391 -2.99807e-20)
(0.36419 1.43553 -1.16839e-19)
(0.362748 1.36282 2.01527e-20)
(0.632269 1.4309 -2.28546e-19)
(0.510472 1.50145 -1.45131e-19)
(0.560324 1.4632 0)
(0.603793 2.43886 2.08219e-19)
(0.667579 2.43449 3.37893e-19)
(0.416642 2.52619 9.03017e-20)
(0.397658 2.5511 -6.24281e-19)
(0.500416 2.49092 5.72119e-19)
(0.56041 2.47935 0)
(0.489058 2.53446 -5.53146e-19)
(0.257027 2.60139 1.14612e-18)
(0.368361 2.56961 -6.70631e-20)
(0.287293 2.66268 -1.60843e-18)
(0.965651 2.39738 7.03966e-19)
(0.847983 2.39683 0)
(1.01143 0.00125647 2.51193e-20)
(1.01529 -0.00531588 -2.0499e-20)
(1.01764 -0.00410478 -3.74772e-19)
(1.01548 -0.00119365 3.73424e-19)
(1.01301 0.00169614 0)
(0.622809 1.29623 0)
(0.662552 1.18564 0)
(0.776083 1.11047 0)
(0.649806 1.14388 0)
(1.1975 2.63815 5.02777e-20)
(1.08974 2.38744 0)
(0.825313 2.19528 3.42334e-21)
(0.825567 2.45296 0)
(0.919108 2.54122 -4.24611e-19)
(0.951161 2.49088 2.8367e-19)
(0.802852 0.15574 0)
(0.762604 0.136719 1.58123e-19)
(0.918636 0.152068 9.19248e-19)
(0.830685 0.131027 -3.45358e-19)
(0.786158 0.0862875 -1.05604e-18)
(1.08407 0.235159 -8.46757e-19)
(0.981577 0.300353 -7.94424e-21)
(0.930416 0.33493 8.27113e-19)
(1.01618 0.245942 6.94108e-19)
(0.933355 0.194755 -1.21651e-18)
(0.896294 0.205929 1.52112e-19)
(0.940685 0.296657 -3.18461e-19)
(0.909239 0.208599 0)
(0.999939 0.197138 5.95377e-19)
(1.05523 0.20909 0)
(1.05047 0.218035 0)
(1.12174 0.11991 2.68655e-19)
(1.0634 0.186117 -1.05249e-20)
(1.07752 0.238013 -1.53204e-19)
(1.11492 0.204946 0)
(1.02337 0.0473154 5.93932e-19)
(1.03924 0.0614692 7.37807e-19)
(1.03291 0.0452342 -5.89174e-19)
(1.04216 0.0670548 -4.94696e-19)
(1.01498 0.0727599 -7.47772e-19)
(0.990537 0.163179 0)
(0.992522 0.105513 0)
(0.961428 0.0659516 -4.84037e-19)
(0.909801 0.0965448 1.91049e-19)
(1.03902 0.112617 6.84299e-19)
(1.07389 0.131353 -7.86874e-19)
(1.06826 0.173199 7.06865e-19)
(1.03498 0.150221 0)
(1.08365 0.117235 0)
(1.05718 0.108626 -3.21694e-19)
(1.04421 0.104371 -5.56708e-19)
(0.589991 1.10953 1.10328e-19)
(0.624397 1.43271 -1.62695e-20)
(1.14786 2.73166 -2.39104e-19)
(1.2004 3.11342 9.45356e-22)
(1.25631 2.73931 -1.19866e-19)
(1.29762 2.71094 1.49916e-20)
(1.27357 2.33356 -3.71971e-20)
(1.18826 3.01931 -6.737e-20)
(1.20707 2.97623 2.13656e-19)
(1.18253 3.26749 -1.26063e-19)
(1.4018 2.98355 1.56167e-19)
(1.41379 2.92195 0)
(0.55663 0.844291 -4.73642e-20)
(0.231607 1.22171 4.86567e-19)
(0.501373 0.433605 5.7468e-19)
(0.378522 0.195127 6.59934e-19)
(0.536051 0.359469 6.83161e-19)
(0.555657 0.456237 -1.10302e-18)
(0.557997 0.453514 9.04377e-19)
(0.507736 0.3824 -3.48215e-19)
(0.431136 0.314815 7.86385e-19)
(0.745311 0.23933 -3.494e-19)
(0.711146 0.271209 0)
(0.673937 0.192977 8.52462e-21)
(0.739011 0.499588 3.68664e-19)
(0.692877 0.476584 -1.34051e-18)
(0.641494 0.450935 2.09559e-20)
(0.639771 0.427802 0)
(0.701567 0.728412 3.76021e-19)
(0.819673 0.797394 4.16444e-19)
(0.749961 0.848495 -4.8526e-19)
(0.888352 0.814883 -1.55374e-19)
(0.919088 0.852856 -3.76343e-20)
(0.926743 0.860394 3.85867e-20)
(0.876357 0.671404 -6.76982e-19)
(0.943624 0.719583 1.44458e-19)
(0.992267 0.720924 0)
(0.991056 0.695677 -1.88046e-19)
(1.02841 0.321909 2.16638e-19)
(1.15251 0.322963 2.63128e-19)
(1.06798 0.273517 3.4681e-19)
(0.989871 0.36591 -4.28014e-19)
(1.0413 0.470421 0)
(1.12632 0.415872 0)
(0.893572 0.411784 4.39913e-21)
(0.84131 0.295803 0)
(0.879864 0.283163 3.94382e-19)
(0.907091 0.331192 8.63705e-21)
(0.967033 0.47088 1.96919e-18)
(0.897555 0.535674 5.05836e-19)
(0.917667 0.481555 -5.45402e-19)
(0.833064 0.459588 5.79181e-19)
(0.812414 0.438543 3.58855e-19)
(0.791023 0.406005 -3.51895e-19)
(1.02798 -0.000445161 6.19335e-19)
(1.0203 0.000357041 0)
(1.01893 0.00120009 4.04111e-19)
(1.02254 -0.000953475 -9.14863e-19)
(1.02249 0.00436354 4.45657e-19)
(1.02012 0.0113236 -9.32553e-19)
(1.02094 0.0110828 0)
(1.01987 0.011842 -1.94232e-19)
(1.01648 0.00762511 4.86824e-19)
(1.01672 0.0107359 -2.44353e-19)
(1.01736 0.0103708 1.78833e-19)
(0.0309252 1.32559 0)
(0.0298545 1.35444 0)
(0.0439438 1.33463 0)
(0.0438081 1.29206 0)
(0.0766883 1.36664 1.80934e-20)
(0.0910087 1.33888 -2.76294e-20)
(0.0501858 1.54885 -9.41152e-21)
(0.105219 1.38061 -4.92895e-20)
(0.0418456 1.46519 1.14704e-20)
(0.0448228 1.46275 -9.50684e-21)
(0.0668343 1.3696 -4.04318e-20)
(0.0557467 1.37445 4.61087e-20)
(0.0462059 1.35164 7.42433e-21)
(0.0395031 1.37314 2.68745e-21)
(0.107219 2.38527 -1.13905e-19)
(0.0957141 2.42841 0)
(0.148047 2.03334 1.05429e-19)
(0.116319 1.70595 4.2652e-20)
(0.221796 2.02382 -9.20294e-20)
(0.195255 2.43977 0)
(0.24857 2.38678 -6.04781e-19)
(0.306568 2.38201 4.29298e-19)
(0.252915 1.99396 -2.40652e-19)
(0.136513 2.15876 1.64718e-19)
(0.112899 2.26974 0)
(0.0221017 1.86195 -3.38032e-20)
(-0.00574725 2.39306 -5.9256e-20)
(0.00520836 2.1413 0)
(0.00503748 2.45498 -1.46066e-20)
(0.0254478 2.29996 2.57914e-20)
(0.0182592 1.40485 -6.05923e-21)
(0.0159931 1.39107 1.04533e-19)
(0.0150195 1.39499 -3.47548e-20)
(0.020692 1.3949 -2.81715e-20)
(0.0263488 1.42699 0)
(0.0116628 1.37748 0)
(0.00750319 1.30155 -4.57022e-20)
(0.00321103 1.36999 1.28435e-20)
(0.0102665 1.37139 0)
(0.0124037 1.29705 -3.53064e-20)
(0.0200556 1.22902 7.07324e-20)
(1.04205 0.0142462 0)
(1.04842 0.00977908 -6.46506e-20)
(1.03895 0.0232779 -4.67023e-19)
(1.04917 0.0221442 0)
(1.05419 0.021355 0)
(1.03619 0.0121811 -6.74356e-21)
(1.03025 0.012531 7.49944e-19)
(1.0318 0.0167316 9.12011e-19)
(1.02569 0.0205301 0)
(1.02232 0.0210083 0)
(1.03539 0.0250605 4.66322e-19)
(1.02556 0.0272801 0)
(1.02371 0.0273375 0)
(-0.0191422 2.02933 0)
(-0.00548198 1.65344 -2.86819e-21)
(-0.00843016 1.7611 -2.42223e-20)
(-0.00291352 1.37535 0)
(-0.0065298 1.54692 -1.59604e-20)
(-0.00868044 1.45109 1.05087e-20)
(-0.00669305 1.38266 0)
(0.405134 1.65766 0)
(0.356486 1.30242 -2.39771e-20)
(0.27746 1.34455 0)
(0.422058 1.30902 -4.33821e-20)
(0.462428 1.46399 0)
(0.445426 1.4062 4.17271e-20)
(1.04022 2.68616 -1.5067e-20)
(0.980972 2.41819 -8.84677e-19)
(0.940235 2.20938 1.00721e-18)
(0.863385 2.38968 2.37548e-19)
(0.854638 2.50303 0)
(0.921995 2.49996 0)
(0.94944 2.39058 0)
(0.926242 2.37864 -9.21493e-19)
(0.694872 2.47317 -3.70798e-19)
(0.80312 2.45675 -9.6334e-20)
(0.811259 2.43488 7.26875e-20)
(0.704557 2.4083 0)
(0.809103 2.40181 0)
(0.770846 2.41732 -3.63804e-19)
(0.768918 2.48158 0)
(0.611946 1.07318 0)
(0.520023 0.890899 -5.38089e-19)
(0.523274 0.956729 -3.12595e-20)
(0.50659 1.09528 0)
(0.493026 1.00694 8.25225e-19)
(0.779267 0.880364 -1.36066e-19)
(0.786784 1.01553 0)
(0.76443 0.993997 1.90561e-19)
(0.652152 1.02482 0)
(0.648136 0.936642 0)
(1.16522 2.76645 -2.16172e-19)
(1.14057 2.82498 -8.59859e-20)
(0.927492 2.35355 6.71082e-20)
(0.903548 2.33295 -7.35934e-20)
(1.13436 2.74449 0)
(1.08624 2.71312 8.84664e-20)
(1.10195 2.50585 -2.96006e-19)
(1.00216 2.26023 -2.86357e-20)
(0.502335 1.35546 0)
(0.52136 1.09494 -9.7258e-20)
(0.583681 1.18146 0)
(0.856862 0.218263 0)
(0.781091 0.170058 0)
(0.716138 0.137615 0)
(0.858953 0.21733 -6.05784e-19)
(0.771024 0.211662 3.63726e-19)
(0.922569 0.0805198 -3.94591e-19)
(0.94485 0.131415 0)
(0.916396 0.142684 1.70669e-19)
(0.856416 0.0984558 6.84498e-19)
(0.816092 0.0699981 -4.28666e-19)
(1.10251 3.36081 -6.86936e-19)
(1.16812 3.28347 0)
(1.12177 3.44601 -1.59077e-18)
(0.661358 3.59125 1.32621e-18)
(1.033 3.08735 1.29424e-19)
(0.525938 0.82276 5.61285e-19)
(0.512102 0.792794 0)
(0.376878 0.462694 -1.47405e-19)
(0.472862 0.661817 8.54919e-19)
(0.527835 0.439138 -2.00814e-19)
(0.514833 0.492315 2.31445e-19)
(0.69003 0.535481 4.80344e-19)
(0.723009 0.56437 0)
(0.651031 0.597797 0)
(0.624386 0.550658 0)
(0.998376 0.60133 9.52162e-20)
(0.952339 0.578015 -4.89226e-19)
(0.966345 0.59631 3.68614e-19)
(1.02836 0.528732 -3.64315e-19)
(1.07052 0.500357 0)
(1.07398 0.587278 -9.48207e-20)
(0.862651 0.399434 -8.01518e-19)
(0.857677 0.391027 -1.02083e-18)
(0.800532 0.383638 6.31347e-19)
(0.806835 0.34206 -6.52503e-19)
(0.846649 0.306467 -5.08201e-19)
(0.804573 0.306127 6.25035e-19)
(1.02653 0.00637345 -4.66323e-19)
(1.02618 0.00649981 9.40125e-19)
(1.02979 0.000624774 6.00213e-19)
(1.03394 0.00132392 -7.20878e-19)
(1.03368 0.0110994 0)
(1.0298 0.0112792 -1.1729e-18)
(0.0884761 1.66372 1.13262e-20)
(0.0491336 1.59813 0)
(0.0944478 1.70848 8.66768e-20)
(0.106191 1.68152 -8.03556e-20)
(0.0365999 1.54052 1.75661e-20)
(0.0224684 1.52906 0)
(0.00720578 1.68393 0)
(-0.00168261 1.48766 7.28467e-21)
(0.000561889 1.43073 -6.55295e-21)
(-0.00598779 1.54309 3.56113e-21)
(-0.00142785 1.88889 1.05679e-20)
(-0.0121566 1.9419 -2.41831e-21)
(0.492788 1.37809 -2.47562e-19)
(0.49544 1.37513 2.70685e-19)
(0.438951 1.30001 -6.31074e-21)
(0.426106 1.30032 7.199e-21)
(0.613482 1.30471 0)
(0.543508 1.39483 1.16729e-19)
(0.544382 1.39832 -1.13628e-19)
(0.469789 1.28195 6.07623e-21)
(0.513816 1.24288 0)
(0.580072 1.21327 0)
(0.669247 2.43582 5.46456e-19)
(0.662233 2.4607 1.27825e-18)
(0.720229 2.47591 -8.78664e-19)
(0.62076 2.44793 -2.00656e-19)
(0.554735 2.54538 2.72023e-19)
(0.494847 2.50687 -7.0713e-19)
(0.990164 2.39512 -5.67304e-19)
(1.02457 2.41361 0)
(0.947153 2.19416 -6.26555e-19)
(1.05646 2.69383 0)
(1.05578 2.67648 0)
(0.615367 2.31016 3.4429e-20)
(1.12412 3.08052 9.96163e-20)
(1.00587 2.98141 -1.54947e-19)
(0.334819 0.855147 0)
(0.350365 0.759365 -2.99855e-19)
(0.542311 0.687704 -3.0245e-19)
(0.381191 2.15637 0)
(0.41032 2.74964 -9.10639e-20)
(0.421625 2.4882 0)
(0.712181 0.686744 -8.04375e-19)
(0.767327 0.682476 1.13163e-18)
(0.781612 0.646767 -1.07435e-18)
(0.68621 0.645581 -1.02341e-19)
(0.748186 0.604857 -4.22138e-19)
(0.979099 2.76656 -7.54579e-20)
(1.01712 2.76962 -1.9533e-19)
(0.568129 2.23541 3.93173e-19)
(0.61718 1.75525 -3.18023e-19)
(0.714678 1.87296 -4.78705e-19)
(0.983469 2.40725 -1.36079e-19)
(0.981891 2.36254 3.5031e-19)
(0.66074 1.79184 3.21369e-20)
(0.468569 1.32123 1.68298e-19)
)
;

boundaryField
{
    wall-4
    {
        type            noSlip;
    }
    velocity-inlet-5
    {
        type            fixedValue;
        value           uniform (1 0 0);
    }
    velocity-inlet-6
    {
        type            fixedValue;
        value           uniform (0 3 0);
    }
    pressure-outlet-7
    {
        type            zeroGradient;
    }
    wall-8
    {
        type            noSlip;
    }
    frontAndBackPlanes
    {
        type            empty;
    }
}


// ************************************************************************* //
