/*--------------------------------*- C++ -*----------------------------------*\
  =========                 |
  \\      /  F ield         | OpenFOAM: The Open Source CFD Toolbox
   \\    /   O peration     | Website:  https://openfoam.org
    \\  /    A nd           | Version:  6
     \\/     M anipulation  |
\*---------------------------------------------------------------------------*/
FoamFile
{
    version     2.0;
    format      ascii;
    class       volScalarField;
    location    "5.5";
    object      Ma;
}
// * * * * * * * * * * * * * * * * * * * * * * * * * * * * * * * * * * * * * //

dimensions      [0 0 0 0 0 0 0];

internalField   nonuniform List<scalar> 
26250
(
3.04666
3.07692
3.1042
3.12663
3.14777
3.16444
3.18061
3.18976
3.18926
3.17256
3.12446
2.9786
2.66677
1.91809
0.902725
0.417697
0.481519
0.573108
0.629018
0.618989
0.60833
0.574192
0.493645
0.351957
0.241629
3.04665
3.07693
3.10419
3.12664
3.14777
3.16445
3.1806
3.18979
3.1893
3.17272
3.12487
2.97953
2.66878
1.92132
0.908087
0.421564
0.485934
0.578209
0.63368
0.6354
0.616876
0.578613
0.503241
0.370036
0.26385
3.04663
3.07695
3.10417
3.12666
3.14775
3.16447
3.1806
3.18988
3.18942
3.17307
3.12576
2.98121
2.6726
1.92516
0.910821
0.404463
0.473514
0.570442
0.624333
0.625372
0.604043
0.561818
0.487068
0.356254
0.251455
3.04652
3.07706
3.10405
3.12678
3.14762
3.16459
3.18052
3.19013
3.18973
3.17405
3.13067
2.98467
2.68108
1.93833
0.922538
0.4327
0.496192
0.585121
0.635071
0.62745
0.607681
0.565345
0.488012
0.35582
0.250099
3.04552
3.0781
3.10296
3.12791
3.14646
3.16582
3.17918
3.19121
3.18636
3.18018
3.12606
3.01079
2.66095
1.96383
0.964948
0.460512
0.517928
0.601907
0.64979
0.64663
0.625419
0.582035
0.503065
0.369295
0.261454
3.04633
3.07726
3.10384
3.12698
3.14741
3.16481
3.18039
3.19057
3.19037
3.17625
3.13861
2.9947
2.70533
1.9755
0.972829
0.482483
0.536498
0.614904
0.663939
0.66235
0.640963
0.598636
0.521101
0.388427
0.281075
3.04566
3.07795
3.10311
3.12776
3.1466
3.16571
3.17935
3.1916
3.18851
3.1826
3.13106
3.02212
2.68614
2.0185
1.03133
0.521876
0.565593
0.636284
0.682866
0.682968
0.661178
0.620115
0.545459
0.415953
0.312903
3.04624
3.07734
3.10375
3.12708
3.14733
3.16492
3.18039
3.19106
3.19086
3.17801
3.14072
3.00808
2.73675
2.02805
1.05238
0.54748
0.580288
0.646736
0.696584
0.699174
0.680157
0.643344
0.575696
0.454657
0.365029
3.04625
3.07735
3.10376
3.12708
3.14733
3.16492
3.18039
3.19116
3.19104
3.17907
3.14143
3.01737
2.75647
2.06617
1.11462
0.598303
0.609613
0.666858
0.715927
0.719508
0.70332
0.672471
0.616585
0.512672
0.453256
3.04769
3.07587
3.10529
3.12551
3.14891
3.16331
3.18193
3.1894
3.19295
3.18191
3.14968
3.02894
2.78346
2.10085
1.15697
0.649601
0.645531
0.694065
0.739678
0.744545
0.732175
0.71033
0.673912
0.607666
0.618837
2.96752
2.95207
2.94109
2.93521
2.92969
2.92708
2.92321
2.91909
2.90281
2.87588
2.79425
2.6164
2.22951
1.39313
0.298219
0.291528
0.0418775
0.261264
0.308766
0.249602
0.238926
0.182482
0.0757748
0.0443549
0.10644
2.96753
2.95207
2.9411
2.93521
2.92969
2.92708
2.92321
2.9191
2.90287
2.87599
2.79459
2.61697
2.23084
1.39586
0.303155
0.275251
0.0517191
0.270527
0.323376
0.29152
0.25545
0.194058
0.104696
0.0734665
0.130986
2.96753
2.95207
2.9411
2.93521
2.92969
2.92708
2.92322
2.91915
2.90302
2.87633
2.79532
2.61895
2.23421
1.40272
0.305446
0.313036
0.0676507
0.27553
0.326491
0.296633
0.260226
0.207257
0.138424
0.116771
0.140364
2.96752
2.95207
2.94109
2.9352
2.92969
2.92707
2.92324
2.91923
2.90329
2.87689
2.7965
2.62193
2.23919
1.41034
0.320971
0.269937
0.0961661
0.290171
0.329872
0.283732
0.265948
0.226823
0.180594
0.165056
0.164066
2.96756
2.952
2.94114
2.93512
2.92975
2.92699
2.92339
2.91952
2.90467
2.87709
2.80432
2.61768
2.25447
1.41958
0.321158
0.25858
0.12147
0.307569
0.346867
0.31595
0.29166
0.260452
0.228344
0.214599
0.199222
2.96752
2.95206
2.94109
2.93519
2.9297
2.92707
2.92332
2.91947
2.90413
2.87872
2.80063
2.63299
2.25927
1.45369
0.371669
0.235677
0.1486
0.327965
0.367158
0.343017
0.322919
0.30051
0.279189
0.267312
0.246056
2.96757
2.95199
2.94116
2.93512
2.92977
2.927
2.92346
2.91977
2.90557
2.87941
2.80955
2.63145
2.28221
1.48463
0.392555
0.209498
0.177961
0.350611
0.390862
0.374645
0.358942
0.345867
0.334664
0.326266
0.307513
2.96753
2.95205
2.94111
2.93518
2.92972
2.92706
2.92341
2.9198
2.90536
2.88137
2.80715
2.65111
2.29401
1.54062
0.463134
0.188024
0.210607
0.375635
0.416987
0.407294
0.399357
0.395666
0.395726
0.394469
0.388715
2.96753
2.95206
2.94111
2.93519
2.92972
2.92708
2.92343
2.91995
2.90594
2.88308
2.81141
2.65927
2.31745
1.58042
0.525084
0.170757
0.248283
0.403451
0.444789
0.441693
0.443068
0.44938
0.462918
0.477421
0.50149
2.96766
2.95198
2.94121
2.93514
2.92979
2.92706
2.9235
2.92018
2.90693
2.88507
2.81724
2.66823
2.33959
1.62056
0.583489
0.176553
0.288795
0.43438
0.474378
0.477393
0.487264
0.505478
0.538735
0.580037
0.684193
2.98573
2.97022
2.95106
2.93548
2.91919
2.90728
2.89388
2.88281
2.86095
2.82582
2.73177
2.53125
2.11909
1.22524
0.0589615
0.640127
0.0929308
0.18393
0.237916
0.182767
0.0953673
0.074576
0.0931217
0.0680116
0.0670973
2.98569
2.97025
2.95102
2.93552
2.91915
2.90731
2.89386
2.88285
2.86092
2.82608
2.7316
2.53299
2.11937
1.22414
0.0642183
0.631258
0.0915093
0.19775
0.241856
0.173772
0.132893
0.113481
0.131306
0.114278
0.100672
2.98573
2.97022
2.95106
2.93548
2.91919
2.90728
2.89389
2.88286
2.86113
2.82619
2.73277
2.53322
2.1232
1.232
0.0767254
0.612265
0.0983757
0.21554
0.249593
0.187391
0.165567
0.153801
0.17465
0.167958
0.147612
2.98569
2.97025
2.95102
2.93552
2.91915
2.90732
2.89387
2.88294
2.86128
2.82681
2.73353
2.53692
2.12763
1.23835
0.08948
0.593714
0.112956
0.237765
0.264921
0.215218
0.201691
0.197294
0.220752
0.221804
0.198763
2.98566
2.97029
2.95098
2.93555
2.91912
2.90735
2.89386
2.88305
2.86154
2.82768
2.73493
2.54222
2.13525
1.25223
0.115072
0.565917
0.133267
0.263636
0.285981
0.249706
0.234215
0.243241
0.268745
0.27627
0.252704
2.98567
2.97027
2.951
2.93554
2.91914
2.90734
2.89389
2.88316
2.86207
2.82858
2.73792
2.54745
2.14841
1.27993
0.150934
0.53067
0.156671
0.29159
0.312798
0.288232
0.271095
0.291908
0.319697
0.33365
0.313053
2.98564
2.97031
2.95097
2.93557
2.9191
2.90739
2.89388
2.88332
2.86264
2.83
2.74123
2.55638
2.16524
1.31477
0.193767
0.490031
0.182809
0.320949
0.343404
0.329599
0.315341
0.343881
0.374732
0.397424
0.384524
2.98565
2.9703
2.95098
2.93557
2.91912
2.90739
2.89392
2.88348
2.86344
2.83152
2.74582
2.56525
2.18653
1.35922
0.244502
0.444768
0.212048
0.351979
0.377248
0.372888
0.366373
0.397275
0.435354
0.469138
0.471712
2.98557
2.97038
2.95091
2.93564
2.91905
2.90747
2.89389
2.88371
2.86417
2.83349
2.74988
2.57848
2.208
1.40801
0.309687
0.388797
0.243833
0.383537
0.411828
0.415858
0.420345
0.454133
0.501453
0.551617
0.585947
2.98567
2.97028
2.951
2.93555
2.91914
2.9074
2.89401
2.88401
2.86532
2.83539
2.7556
2.58778
2.23279
1.46869
0.380467
0.324211
0.27855
0.416025
0.446726
0.458525
0.473482
0.513218
0.574533
0.64853
0.767512
2.96752
2.95208
2.94109
2.93521
2.92969
2.92708
2.92322
2.91913
2.9029
2.87606
2.79444
2.61645
2.22838
1.38593
0.288318
0.29661
0.0395146
0.262116
0.321016
0.300916
0.265382
0.206915
0.122106
0.0575108
0.114556
2.96755
2.95201
2.94114
2.93513
2.92975
2.92699
2.92335
2.91934
2.90407
2.87559
2.80083
2.60852
2.23603
1.38199
0.262716
0.351592
0.050991
0.258802
0.301356
0.233174
0.22519
0.176179
0.097172
0.0800196
0.118404
2.96752
2.95208
2.94109
2.93521
2.92968
2.92707
2.92324
2.9192
2.90312
2.87656
2.79542
2.61907
2.23257
1.39076
0.298764
0.286606
0.0764546
0.274161
0.310865
0.256915
0.239131
0.188559
0.124782
0.123758
0.134546
2.96754
2.95201
2.94113
2.93513
2.92974
2.927
2.92336
2.91942
2.90429
2.87634
2.80239
2.61293
2.24512
1.39581
0.295159
0.278083
0.0976701
0.290507
0.3307
0.295214
0.263154
0.217228
0.168774
0.168477
0.163587
2.96754
2.95202
2.94113
2.93513
2.92974
2.927
2.92338
2.9195
2.9045
2.87708
2.80382
2.6172
2.25357
1.41296
0.317131
0.266188
0.12262
0.306713
0.345519
0.313037
0.28979
0.254554
0.218668
0.215469
0.199655
2.96755
2.95201
2.94114
2.93513
2.92975
2.92701
2.92342
2.91964
2.90497
2.87809
2.80627
2.62334
2.26593
1.44322
0.350459
0.238028
0.14935
0.326735
0.366776
0.344527
0.32237
0.297728
0.272494
0.266589
0.2461
2.96753
2.95207
2.9411
2.93519
2.92971
2.92707
2.92334
2.91961
2.90464
2.87982
2.80365
2.64056
2.27556
1.4955
0.415339
0.21211
0.179158
0.350258
0.390554
0.374628
0.359008
0.345105
0.330696
0.324889
0.307065
2.96753
2.95206
2.94112
2.93519
2.92972
2.92707
2.92339
2.91978
2.90532
2.88128
2.80721
2.65088
2.29502
1.54649
0.470878
0.177158
0.213652
0.377084
0.417736
0.407657
0.399771
0.395712
0.393438
0.393004
0.388006
2.96753
2.95206
2.94112
2.93519
2.92973
2.92708
2.92343
2.91994
2.90591
2.88304
2.81134
2.65912
2.31753
1.58063
0.525835
0.16805
0.248613
0.404818
0.445884
0.442441
0.443752
0.450008
0.461894
0.476235
0.500795
2.96766
2.95199
2.94121
2.93514
2.92979
2.92706
2.9235
2.92017
2.90691
2.88502
2.81713
2.66805
2.33934
1.62069
0.584078
0.176108
0.289551
0.435523
0.475354
0.478111
0.487894
0.506153
0.538295
0.5787
0.683535
3.04655
3.07703
3.10408
3.12675
3.14766
3.16455
3.18053
3.19001
3.18955
3.17332
3.12897
2.97927
2.66989
1.91439
0.88349
0.402938
0.473007
0.571099
0.627256
0.628737
0.611435
0.570104
0.494059
0.362208
0.25822
3.04542
3.0782
3.10286
3.12802
3.14635
3.16593
3.17902
3.19114
3.18554
3.17892
3.12257
3.00352
2.63595
1.92181
0.922231
0.406246
0.477141
0.5763
0.627067
0.614874
0.602443
0.564665
0.483345
0.345613
0.241211
3.04646
3.07713
3.10398
3.12684
3.14755
3.16465
3.18045
3.19018
3.18978
3.1741
3.13367
2.98316
2.68167
1.92545
0.888646
0.412259
0.481423
0.575108
0.626684
0.614859
0.601179
0.564204
0.481728
0.341572
0.235234
3.04542
3.0782
3.10285
3.12802
3.14634
3.16592
3.17902
3.19103
3.18526
3.17786
3.12266
2.99961
2.64683
1.94723
0.945152
0.447203
0.507916
0.595438
0.643811
0.640782
0.620386
0.580542
0.500455
0.361281
0.250621
3.04546
3.07815
3.1029
3.12796
3.1464
3.16585
3.17913
3.19092
3.18551
3.17664
3.12411
3.00175
2.65768
1.98084
0.947377
0.452797
0.513061
0.598768
0.646974
0.643965
0.625042
0.585873
0.509165
0.373559
0.263128
3.04553
3.07808
3.10297
3.12789
3.14646
3.16581
3.17919
3.19125
3.18669
3.17945
3.12711
3.01078
2.67056
1.99545
0.985794
0.485386
0.537508
0.615303
0.662248
0.661907
0.640731
0.600942
0.525577
0.391878
0.282507
3.04631
3.07729
3.10382
3.12701
3.1474
3.16484
3.18045
3.19094
3.1906
3.17631
3.13649
2.9995
2.71818
2.0004
1.01404
0.51141
0.556493
0.628316
0.677436
0.678768
0.657125
0.619498
0.546962
0.418104
0.313921
3.04632
3.07727
3.10385
3.12699
3.14744
3.16483
3.18047
3.19113
3.19088
3.17737
3.13695
3.00781
2.7348
2.02955
1.0626
0.555736
0.582255
0.646886
0.696216
0.697899
0.677288
0.64269
0.575946
0.455989
0.366144
3.04625
3.07735
3.10377
3.12708
3.14735
3.16492
3.18039
3.19116
3.19112
3.17891
3.14122
3.01719
2.75638
2.06682
1.115
0.599018
0.610029
0.667432
0.716609
0.719693
0.702072
0.672795
0.616829
0.513771
0.454532
3.04761
3.07597
3.1052
3.12561
3.14881
3.16341
3.18182
3.18948
3.19277
3.18175
3.14933
3.02879
2.78389
2.10063
1.15666
0.64944
0.645617
0.694446
0.739922
0.744742
0.73188
0.711117
0.675099
0.608231
0.619948
3.04513
3.07846
3.10259
3.12829
3.14606
3.16631
3.17895
3.19302
3.19228
3.1875
3.14627
3.0569
2.76698
2.2088
1.25586
0.719217
0.694099
0.732546
0.771008
0.776558
0.768984
0.759457
0.751297
0.74995
0.809678
3.04809
3.07541
3.10575
3.12501
3.14939
3.16285
3.18245
3.18956
3.19633
3.18644
3.15937
3.05146
2.82503
2.21149
1.28159
0.770039
0.737357
0.76913
0.80256
0.811724
0.810942
0.813315
0.824178
0.855035
0.934887
3.04543
3.078
3.10294
3.1279
3.1464
3.16595
3.17943
3.1931
3.19464
3.19025
3.15708
3.08062
2.82427
2.34141
1.41433
0.835712
0.783588
0.805117
0.830387
0.843258
0.849346
0.859978
0.88176
0.924825
1.00409
3.04767
3.07586
3.10528
3.12553
3.14886
3.16347
3.18194
3.19095
3.19866
3.19092
3.16583
3.07804
2.87798
2.35783
1.478
0.916398
0.838023
0.846408
0.86245
0.877111
0.88807
0.903744
0.93021
0.975359
1.04659
3.04752
3.07601
3.10513
3.12569
3.14868
3.16369
3.18177
3.19157
3.20033
3.19377
3.17375
3.09665
2.93495
2.4656
1.65275
1.00797
0.882388
0.877726
0.889474
0.907032
0.923315
0.943883
0.972574
1.01675
1.08061
3.04577
3.07781
3.10321
3.12767
3.14665
3.16581
3.17973
3.19425
3.2004
3.1992
3.17874
3.12746
2.96417
2.63815
1.87538
1.14917
0.945357
0.925653
0.929581
0.94497
0.962774
0.983325
1.01141
1.05189
1.10874
3.04622
3.07734
3.10368
3.12716
3.14713
3.16532
3.18027
3.1942
3.20278
3.20213
3.18682
3.14476
3.02313
2.76502
2.13155
1.31595
1.02435
0.990782
0.988093
1.00005
1.01554
1.03207
1.05496
1.08907
1.13654
3.04647
3.07709
3.10394
3.1269
3.14739
3.16506
3.18054
3.19401
3.20341
3.20304
3.19377
3.15932
3.07003
2.84375
2.32104
1.50496
1.07749
1.02356
1.02958
1.04551
1.06445
1.08057
1.10046
1.12872
1.16748
3.04495
3.07866
3.10232
3.12859
3.14571
3.1668
3.17885
3.1958
3.20194
3.2065
3.19971
3.1737
3.09935
2.90899
2.46707
1.65205
1.12917
1.04373
1.04646
1.06569
1.08967
1.11356
1.13614
1.16366
1.19762
3.04705
3.0765
3.1046
3.12621
3.14816
3.16422
3.18155
3.19316
3.2061
3.20952
3.20796
3.18607
3.13212
2.97322
2.64192
1.92848
1.27903
1.10014
1.08198
1.09044
1.11149
1.13816
1.16316
1.19107
1.22389
3.04564
3.07796
3.10309
3.12778
3.14659
3.16584
3.18
3.19488
3.205
3.21355
3.21011
3.19754
3.15184
3.04459
2.78032
2.15714
1.439
1.17399
1.13656
1.13237
1.14568
1.16703
1.18963
1.21509
1.24536
3.04622
3.07734
3.10372
3.12712
3.14724
3.16517
3.18069
3.19418
3.20602
3.21387
3.2137
3.20535
3.17708
3.09528
2.89778
2.43473
1.66302
1.24864
1.17436
1.1679
1.17733
1.19614
1.21972
1.24253
1.26864
3.04586
3.07774
3.10338
3.12748
3.14675
3.16587
3.18001
3.19474
3.20588
3.21531
3.21678
3.21346
3.19147
3.12644
2.98265
2.58701
1.94638
1.36073
1.21062
1.19527
1.20127
1.22087
1.2469
1.2716
1.2964
3.04586
3.07774
3.10331
3.12757
3.14676
3.16575
3.18005
3.19502
3.20552
3.21666
3.22056
3.21953
3.20386
3.16368
3.04986
2.81979
2.22965
1.55117
1.28739
1.24423
1.23987
1.25021
1.27136
1.29516
1.32001
3.04638
3.0772
3.10386
3.12699
3.14735
3.16511
3.18068
3.19443
3.20615
3.21662
3.2234
3.22307
3.21381
3.18709
3.10929
2.94333
2.47628
1.77585
1.3728
1.28268
1.2716
1.27706
1.29376
1.31761
1.34123
3.04554
3.07801
3.10301
3.12782
3.14651
3.16594
3.17987
3.19525
3.2054
3.21746
3.22303
3.22511
3.22064
3.20107
3.15091
3.01995
2.71036
2.06514
1.50026
1.32521
1.29911
1.30035
1.31343
1.33507
1.35915
3.04573
3.07784
3.10318
3.12767
3.14666
3.1658
3.18001
3.19509
3.2056
3.21737
3.22401
3.22846
3.22542
3.2128
3.18158
3.08571
2.89335
2.37107
1.71623
1.40793
1.34007
1.33085
1.33548
1.35237
1.37659
3.04586
3.07772
3.10331
3.12753
3.14682
3.16564
3.18019
3.19493
3.20584
3.21722
3.22526
3.23182
3.22997
3.22379
3.2019
3.14155
3.00134
2.66629
2.02547
1.53183
1.38566
1.36226
1.36062
1.37183
1.39177
3.04612
3.07745
3.1036
3.12725
3.14711
3.16534
3.18049
3.19461
3.20614
3.21702
3.22559
3.23287
3.23438
3.23145
3.21888
3.17879
3.08818
2.8724
2.3753
1.72087
1.46045
1.40682
1.39665
1.39888
1.41303
3.04615
3.07744
3.10363
3.12724
3.14712
3.16535
3.18048
3.19464
3.20611
3.21713
3.2256
3.23383
3.23765
3.237
3.22896
3.20303
3.14403
2.9958
2.63247
1.99753
1.55534
1.4351
1.41784
1.41915
1.43077
3.0465
3.07707
3.10401
3.12685
3.14751
3.16495
3.18088
3.19422
3.20653
3.21672
3.22605
3.23376
3.23936
3.23922
3.23588
3.21978
3.18469
3.08219
2.86665
2.33482
1.74119
1.49952
1.4515
1.44467
1.4485
3.04584
3.07774
3.1033
3.12754
3.1468
3.16569
3.18009
3.19503
3.20581
3.21734
3.22559
3.23442
3.23945
3.24363
3.24133
3.23359
3.20861
3.14579
2.9946
2.6469
2.04454
1.61084
1.48746
1.46791
1.46733
3.04605
3.07752
3.10352
3.12733
3.14702
3.16544
3.18039
3.19472
3.20607
3.21716
3.22577
3.23422
3.24048
3.24553
3.24467
3.24094
3.22774
3.18726
3.09708
2.88374
2.41544
1.81528
1.5663
1.5099
1.49817
3.04616
3.07742
3.10364
3.12721
3.14715
3.16532
3.18052
3.19459
3.20618
3.21707
3.22583
3.23423
3.24065
3.24658
3.24848
3.24742
3.23921
3.21554
3.15598
3.0231
2.67205
2.08624
1.6711
1.54268
1.51842
3.04634
3.07724
3.10383
3.12703
3.14733
3.16513
3.1807
3.19441
3.20636
3.2169
3.226
3.2341
3.24085
3.2469
3.25045
3.25016
3.24609
3.23069
3.19968
3.10693
2.9182
2.43274
1.88283
1.61841
1.55042
3.04611
3.07747
3.10358
3.12727
3.14708
3.16538
3.18045
3.19467
3.2061
3.21717
3.22574
3.23436
3.24066
3.24727
3.25106
3.25277
3.25096
3.24241
3.22539
3.16475
3.05243
2.75398
2.20716
1.74922
1.59344
3.04605
3.07752
3.10353
3.12733
3.14703
3.16543
3.1804
3.19471
3.20606
3.21719
3.22573
3.23435
3.24073
3.24727
3.25188
3.2556
3.25464
3.25108
3.2399
3.20702
3.13021
2.96135
2.55112
1.97513
1.67899
3.04632
3.07725
3.10382
3.12703
3.14733
3.16512
3.18071
3.19439
3.20638
3.21687
3.22605
3.23404
3.24103
3.24703
3.25225
3.25613
3.25729
3.25547
3.24988
3.22849
3.18901
3.07165
2.83313
2.31148
1.81489
3.04634
3.07724
3.10382
3.12704
3.14732
3.16513
3.1807
3.19441
3.20635
3.21691
3.22601
3.2341
3.24097
3.24714
3.2522
3.25673
3.25918
3.25882
3.25549
3.24289
3.21954
3.14306
3.00301
2.61645
2.07092
3.04616
3.07742
3.10364
3.12722
3.14714
3.16532
3.18051
3.1946
3.20617
3.21709
3.22582
3.23428
3.24078
3.24734
3.25205
3.25708
3.25971
3.26059
3.25905
3.25168
3.23721
3.18725
3.09324
2.84011
2.3697
3.04615
3.07742
3.10363
3.12722
3.14713
3.16533
3.1805
3.19461
3.20616
3.2171
3.22581
3.23429
3.24078
3.24734
3.25207
3.2571
3.26011
3.26209
3.26098
3.25611
3.2442
3.20633
3.12165
2.92045
2.4453
3.0462
3.07738
3.10366
3.12719
3.14716
3.16529
3.18055
3.19456
3.20622
3.21704
3.22588
3.23423
3.24086
3.24727
3.25217
3.25705
3.26033
3.26257
3.26163
3.25716
3.24694
3.2082
3.13455
2.91824
2.46552
3.04617
3.07741
3.10364
3.1272
3.14715
3.16529
3.18054
3.19456
3.2062
3.21707
3.22584
3.23427
3.24081
3.24731
3.25214
3.25711
3.26042
3.26321
3.26229
3.25886
3.24808
3.21524
3.13415
2.94333
2.44729
3.04616
3.07741
3.10363
3.12721
3.14714
3.16532
3.18051
3.1946
3.20616
3.21708
3.22584
3.23424
3.24086
3.24726
3.25218
3.2571
3.2605
3.26344
3.26265
3.25931
3.24911
3.21717
3.13999
2.95443
2.47148
3.04607
3.07747
3.10359
3.12721
3.14715
3.16527
3.18055
3.19456
3.2062
3.21708
3.22586
3.23426
3.24085
3.24732
3.25216
3.25713
3.26054
3.26358
3.26268
3.26035
3.25036
3.22177
3.14623
2.97676
2.50931
3.04615
3.07739
3.10365
3.12717
3.14715
3.16528
3.18053
3.19457
3.2062
3.21707
3.22587
3.23426
3.24085
3.24731
3.25218
3.2571
3.26057
3.26359
3.26274
3.26016
3.25145
3.22189
3.15888
2.98792
2.58803
3.04618
3.07737
3.10366
3.12717
3.14715
3.16528
3.18054
3.19456
3.20622
3.21706
3.22588
3.23425
3.24086
3.24729
3.2522
3.25707
3.26061
3.26359
3.26293
3.26042
3.25228
3.22309
3.16458
2.9922
2.61923
3.04615
3.07732
3.10367
3.12713
3.14716
3.1653
3.18053
3.19462
3.20617
3.21716
3.22577
3.23441
3.2407
3.24747
3.25201
3.2573
3.2604
3.26402
3.26363
3.2619
3.25317
3.22836
3.1646
3.01507
2.63266
3.04619
3.07735
3.10365
3.12715
3.14714
3.16527
3.18055
3.19456
3.20623
3.21706
3.2259
3.23425
3.24088
3.24728
3.25221
3.25707
3.26063
3.26363
3.26316
3.26085
3.25321
3.2261
3.17026
3.01387
2.65682
3.0462
3.07737
3.10362
3.12718
3.14712
3.16527
3.18054
3.19457
3.20622
3.21708
3.22589
3.23426
3.24088
3.24729
3.25221
3.25706
3.26062
3.2636
3.26305
3.26066
3.25296
3.22537
3.17031
3.00917
2.65676
2.96806
2.95149
2.94165
2.93461
2.93029
2.92648
2.9241
2.91948
2.91099
2.88186
2.8276
2.68609
2.3409
1.68645
0.602174
0.202739
0.327511
0.463031
0.502904
0.512558
0.530842
0.56319
0.619977
0.700969
0.867771
2.96825
2.95142
2.94176
2.93459
2.93036
2.92649
2.92418
2.91975
2.9119
2.88629
2.8315
2.70495
2.36528
1.74791
0.689062
0.252062
0.36995
0.486184
0.527307
0.544728
0.573011
0.619648
0.692304
0.794009
0.952795
2.96806
2.95148
2.94164
2.93462
2.93028
2.92652
2.9243
2.92041
2.913
2.88746
2.83985
2.7151
2.40448
1.81065
0.772426
0.322453
0.412721
0.497893
0.545994
0.573295
0.611641
0.668599
0.747502
0.848754
0.978671
2.96785
2.95179
2.94139
2.93495
2.93
2.92687
2.92411
2.92109
2.91414
2.89404
2.84614
2.74146
2.43994
1.89076
0.912951
0.418154
0.450381
0.508027
0.561394
0.598531
0.644855
0.705944
0.784656
0.878407
0.99
2.96785
2.95179
2.94138
2.93497
2.92995
2.92696
2.92393
2.92152
2.91333
2.89836
2.8549
2.74871
2.519
1.93389
1.03827
0.518259
0.481056
0.525
0.576698
0.619347
0.67126
0.734098
0.810325
0.896071
0.995428
2.96784
2.95173
2.94141
2.93487
2.93003
2.92682
2.92422
2.92169
2.91653
2.89838
2.86555
2.77452
2.55118
2.10751
1.18443
0.630894
0.506601
0.541429
0.591768
0.638794
0.691886
0.753797
0.828647
0.907499
0.996989
2.96813
2.95146
2.94167
2.93463
2.93027
2.92661
2.92448
2.9217
2.91762
2.902
2.87551
2.79783
2.61586
2.23982
1.41496
0.764979
0.549615
0.570849
0.615817
0.663118
0.712999
0.770517
0.841283
0.916637
0.997073
2.96789
2.95171
2.94142
2.93488
2.93
2.9269
2.92415
2.92216
2.9175
2.90895
2.88246
2.82372
2.68705
2.3525
1.68186
0.906157
0.624851
0.62678
0.65593
0.697249
0.739619
0.788868
0.851508
0.9229
0.997073
2.96777
2.95177
2.94135
2.93491
2.92996
2.92692
2.92418
2.92238
2.91878
2.9121
2.88972
2.84476
2.73434
2.45721
1.90728
1.04345
0.682057
0.673528
0.699226
0.733734
0.769195
0.811759
0.864283
0.928329
0.99723
2.96809
2.95155
2.94161
2.93473
2.93019
2.92677
2.92442
2.9225
2.92006
2.91454
2.89512
2.86176
2.76639
2.54251
2.09106
1.21727
0.775642
0.71039
0.732198
0.759923
0.794484
0.832908
0.878471
0.934632
0.997072
2.96807
2.95151
2.94164
2.93465
2.93026
2.92665
2.92458
2.9223
2.92052
2.9146
2.9042
2.87092
2.79995
2.63022
2.22151
1.4679
0.902617
0.75062
0.758953
0.782987
0.81751
0.854761
0.894744
0.942793
0.998622
2.96807
2.95153
2.94163
2.93468
2.93025
2.92668
2.92457
2.92242
2.92082
2.91654
2.90878
2.88301
2.83223
2.70065
2.40076
1.7601
1.06488
0.821294
0.800665
0.813956
0.841909
0.875301
0.913364
0.954898
1.00335
2.96772
2.95187
2.9413
2.93499
2.92991
2.92703
2.92422
2.92284
2.92085
2.91896
2.91121
2.89631
2.85681
2.75573
2.54843
2.02142
1.24212
0.893369
0.843457
0.851764
0.870564
0.898668
0.931699
0.969359
1.01194
2.9676
2.95198
2.94117
2.93512
2.92979
2.92712
2.92415
2.92294
2.921
2.9196
2.91512
2.90124
2.87283
2.80063
2.61517
2.24806
1.48545
1.00232
0.883608
0.882694
0.89872
0.92371
0.952138
0.984881
1.02213
2.96792
2.95168
2.94147
2.93484
2.93007
2.92687
2.9244
2.92275
2.92129
2.91989
2.91698
2.90565
2.88718
2.83083
2.70297
2.43077
1.81453
1.17886
0.954307
0.926315
0.931758
0.951824
0.977776
1.00446
1.03528
2.96803
2.95155
2.94158
2.93469
2.9302
2.92671
2.92454
2.92261
2.92145
2.91996
2.91803
2.9101
2.89749
2.85493
2.77295
2.57459
2.10079
1.39629
1.03817
0.967182
0.964831
0.977234
1.0012
1.02611
1.05289
2.96811
2.95147
2.94166
2.93462
2.93028
2.92664
2.92462
2.92254
2.92155
2.91999
2.91866
2.91337
2.90442
2.87373
2.81705
2.66696
2.32673
1.66063
1.15997
1.01741
0.998992
1.00403
1.02071
1.0448
1.0705
2.96802
2.95157
2.94157
2.93471
2.9302
2.92672
2.92454
2.92263
2.92148
2.92024
2.91921
2.91682
2.9081
2.89301
2.84864
2.75021
2.5298
2.03949
1.35594
1.09322
1.04374
1.03813
1.04663
1.06491
1.08755
2.96804
2.95156
2.94159
2.93471
2.93021
2.92672
2.92455
2.92263
2.92151
2.92024
2.91947
2.9175
2.91342
2.899
2.87436
2.80264
2.64312
2.29973
1.61391
1.19393
1.08126
1.0693
1.07351
1.08886
1.10926
2.96783
2.95176
2.94139
2.93491
2.93001
2.92692
2.92435
2.92282
2.92132
2.92046
2.91944
2.9185
2.91575
2.90588
2.88999
2.84005
2.73945
2.50403
1.96999
1.38482
1.15295
1.10826
1.10388
1.11209
1.1299
2.96793
2.95168
2.94147
2.93484
2.93008
2.92687
2.92441
2.92278
2.92137
2.92045
2.91951
2.91876
2.91715
2.91066
2.90055
2.86763
2.79965
2.6446
2.24466
1.61971
1.24454
1.14818
1.13499
1.13699
1.14884
2.96803
2.95156
2.94158
2.93471
2.93019
2.92673
2.92453
2.92264
2.92151
2.9203
2.91967
2.91872
2.91776
2.91389
2.90721
2.88479
2.84378
2.73111
2.49171
1.95806
1.40705
1.20811
1.17073
1.1659
1.17209
2.96804
2.95155
2.94159
2.93471
2.9302
2.92673
2.92454
2.92264
2.92152
2.9203
2.9197
2.91876
2.91812
2.91584
2.91169
2.89691
2.87182
2.79756
2.64561
2.28942
1.66198
1.30469
1.20679
1.19356
1.19477
2.96802
2.95158
2.94157
2.93474
2.93018
2.92675
2.92452
2.92266
2.92149
2.92034
2.91967
2.91885
2.9184
2.91725
2.91459
2.90514
2.88965
2.84238
2.7416
2.52098
2.01395
1.48905
1.27438
1.22777
1.21914
2.96789
2.95171
2.94144
2.93486
2.93005
2.92688
2.92439
2.92279
2.92135
2.92047
2.91954
2.919
2.91833
2.91778
2.91621
2.91023
2.90094
2.87087
2.80897
2.66688
2.30518
1.72489
1.37139
1.26648
1.24561
2.96789
2.95171
2.94144
2.93486
2.93006
2.92687
2.9244
2.92278
2.92136
2.92046
2.91954
2.91902
2.91833
2.91797
2.91691
2.91446
2.90649
2.89174
2.85102
2.76079
2.55424
2.12059
1.55479
1.3307
1.27644
2.96802
2.95158
2.94157
2.93473
2.93019
2.92675
2.92452
2.92266
2.92149
2.92034
2.91968
2.91888
2.9185
2.91784
2.91739
2.91558
2.91199
2.90056
2.87849
2.82012
2.68955
2.39576
1.84017
1.43914
1.30867
2.96799
2.95162
2.94153
2.93477
2.93015
2.92679
2.92448
2.9227
2.92145
2.92038
2.91963
2.91893
2.91846
2.91795
2.91755
2.9168
2.91396
2.90865
2.89261
2.86141
2.77606
2.60615
2.17354
1.64727
1.37213
2.9679
2.9517
2.94145
2.93486
2.93006
2.92688
2.92439
2.92279
2.92136
2.92047
2.91954
2.91902
2.91836
2.91805
2.9175
2.91708
2.9154
2.91233
2.90175
2.88339
2.82897
2.71972
2.45414
1.9523
1.48483
2.96793
2.95167
2.94148
2.93482
2.93009
2.92684
2.92442
2.92276
2.92139
2.92044
2.91957
2.919
2.91839
2.91803
2.91758
2.91727
2.91655
2.91382
2.90905
2.89359
2.86557
2.78647
2.62828
2.23782
1.66442
2.968
2.9516
2.94154
2.93476
2.93016
2.92678
2.92449
2.9227
2.92145
2.92038
2.91963
2.91893
2.91846
2.91797
2.91765
2.91725
2.9168
2.91495
2.91168
2.90044
2.88051
2.82202
2.70008
2.40923
1.86467
2.96799
2.95161
2.94154
2.93476
2.93015
2.92678
2.92449
2.9227
2.92145
2.92038
2.91963
2.91894
2.91845
2.91798
2.91764
2.91731
2.91696
2.91591
2.91219
2.90543
2.88585
2.839
2.73252
2.45491
1.91113
2.968
2.9516
2.94155
2.93475
2.93016
2.92677
2.9245
2.92268
2.92147
2.92035
2.91966
2.9189
2.91849
2.91794
2.91769
2.91723
2.91692
2.91566
2.91341
2.90487
2.89039
2.84491
2.74211
2.51034
1.93093
2.96799
2.9516
2.94154
2.93475
2.93016
2.92677
2.9245
2.92268
2.92146
2.92036
2.91965
2.9189
2.91849
2.91793
2.91769
2.91723
2.91693
2.91573
2.91367
2.90524
2.89224
2.84738
2.7536
2.53139
1.9719
2.96798
2.95161
2.94153
2.93476
2.93015
2.92677
2.92449
2.92268
2.92146
2.92036
2.91965
2.91891
2.91848
2.91794
2.91768
2.91724
2.91697
2.91591
2.91397
2.90642
2.89383
2.85324
2.76117
2.54941
2.01322
2.96799
2.9516
2.94154
2.93475
2.93016
2.92677
2.92449
2.92268
2.92146
2.92036
2.91965
2.91891
2.91848
2.91795
2.91768
2.91725
2.91698
2.916
2.91418
2.90698
2.89531
2.85653
2.77227
2.57325
2.07338
2.96796
2.95163
2.94151
2.93478
2.93012
2.9268
2.92446
2.92271
2.92143
2.92039
2.91962
2.91895
2.91845
2.91798
2.91765
2.91731
2.917
2.91647
2.91418
2.90934
2.89725
2.8631
2.79166
2.57355
2.16206
2.96799
2.95159
2.94154
2.93474
2.93016
2.92676
2.92449
2.92268
2.92146
2.92036
2.91965
2.91892
2.91847
2.91796
2.91768
2.91727
2.91705
2.91628
2.9146
2.90881
2.89761
2.86539
2.78626
2.6083
2.16155
2.96798
2.95161
2.94152
2.93476
2.93013
2.92678
2.92447
2.9227
2.92144
2.92039
2.91962
2.91894
2.91845
2.91798
2.91765
2.91731
2.91702
2.91646
2.91402
2.9099
2.89694
2.86699
2.79583
2.60262
2.22747
2.96798
2.95162
2.94151
2.93477
2.93012
2.92679
2.92446
2.92271
2.92143
2.92039
2.91962
2.91895
2.91845
2.91798
2.91765
2.91731
2.91702
2.91648
2.91404
2.90996
2.89704
2.86746
2.79686
2.60553
2.2352
2.98646
2.9695
2.95177
2.93477
2.91994
2.90657
2.89502
2.88336
2.86851
2.83178
2.76648
2.60334
2.23348
1.5201
0.411756
0.283552
0.313713
0.444474
0.478685
0.49785
0.524224
0.573083
0.65133
0.754777
0.943468
2.98645
2.96951
2.95176
2.93477
2.91993
2.90659
2.89506
2.88355
2.86924
2.83437
2.77289
2.61804
2.26639
1.58482
0.492891
0.261988
0.350046
0.467133
0.505596
0.533322
0.571032
0.630829
0.721049
0.839291
1.01643
2.98567
2.97029
2.95099
2.93555
2.91913
2.90745
2.89414
2.88496
2.86894
2.84329
2.77539
2.6323
2.3294
1.64205
0.62268
0.263992
0.384512
0.484004
0.526738
0.562946
0.613276
0.681732
0.774097
0.887449
1.02716
2.98631
2.96966
2.95161
2.93495
2.91975
2.90687
2.89482
2.88462
2.87095
2.84704
2.78477
2.65387
2.37684
1.7225
0.727055
0.308839
0.415789
0.493721
0.544708
0.58913
0.648851
0.72219
0.810625
0.912524
1.02835
2.98576
2.9702
2.9511
2.93543
2.91931
2.90724
2.89462
2.88476
2.87206
2.84826
2.79716
2.68936
2.39402
1.86168
0.840303
0.382312
0.428484
0.496219
0.559416
0.611961
0.676304
0.750944
0.834949
0.926279
1.02516
2.9866
2.96936
2.95193
2.93461
2.92013
2.90644
2.89543
2.88415
2.87264
2.8481
2.80723
2.69825
2.45235
1.96381
0.969677
0.477198
0.426098
0.494768
0.569952
0.629797
0.696542
0.771158
0.851947
0.934826
1.02345
2.98679
2.96917
2.9521
2.93443
2.92029
2.90629
2.89562
2.88418
2.87379
2.85248
2.8176
2.72377
2.51642
2.09281
1.18018
0.595759
0.436748
0.496994
0.580479
0.644259
0.711075
0.784758
0.863821
0.941393
1.02158
2.9868
2.96916
2.9521
2.93443
2.92029
2.9063
2.89567
2.88437
2.87506
2.85775
2.82849
2.75369
2.58326
2.24392
1.4509
0.723375
0.477485
0.523809
0.598057
0.659925
0.723641
0.793824
0.870983
0.945712
1.01932
2.98697
2.96899
2.95227
2.93427
2.92045
2.90615
2.89586
2.88437
2.8762
2.86157
2.83796
2.77524
2.64256
2.3611
1.72807
0.849535
0.532778
0.570897
0.624165
0.680118
0.736866
0.801074
0.87423
0.9479
1.01729
2.98657
2.96939
2.95187
2.93468
2.92003
2.9066
2.89538
2.88512
2.87589
2.86463
2.84026
2.79679
2.68601
2.42662
1.92312
0.973466
0.612338
0.606406
0.647624
0.698289
0.750449
0.808024
0.875372
0.946108
1.01435
2.98663
2.96933
2.95194
2.93461
2.9201
2.90653
2.89546
2.88511
2.87628
2.86628
2.84781
2.81093
2.72744
2.51166
2.1035
1.22716
0.731955
0.628319
0.663027
0.71116
0.761289
0.814331
0.875141
0.94267
1.00842
2.9867
2.96927
2.952
2.93456
2.92017
2.90647
2.89557
2.88505
2.87678
2.86731
2.85476
2.81988
2.7592
2.59992
2.25734
1.54372
0.868478
0.668169
0.687294
0.724892
0.774499
0.822725
0.876615
0.937938
1.00163
2.98631
2.96965
2.95164
2.93491
2.91983
2.9068
2.89526
2.88541
2.87666
2.86847
2.858
2.83291
2.78612
2.66972
2.40745
1.81763
1.03367
0.731789
0.720259
0.745872
0.788416
0.834041
0.881122
0.935252
0.994616
2.98757
2.96839
2.95286
2.9337
2.92101
2.90565
2.89639
2.88435
2.87777
2.86811
2.86096
2.84367
2.80529
2.71571
2.53429
2.04443
1.23847
0.823544
0.750852
0.770566
0.802642
0.844868
0.888675
0.935814
0.988152
2.98621
2.96974
2.95154
2.935