/*--------------------------------*- C++ -*----------------------------------*\
  =========                 |
  \\      /  F ield         | OpenFOAM: The Open Source CFD Toolbox
   \\    /   O peration     | Website:  https://openfoam.org
    \\  /    A nd           | Version:  6
     \\/     M anipulation  |
\*---------------------------------------------------------------------------*/
FoamFile
{
    version     2.0;
    format      ascii;
    class       volScalarField;
    location    "5.5";
    object      p;
}
// * * * * * * * * * * * * * * * * * * * * * * * * * * * * * * * * * * * * * //

dimensions      [1 -1 -2 0 0 0 0];

internalField   nonuniform List<scalar> 
26250
(
0.957652
0.911022
0.875211
0.843962
0.820456
0.797034
0.782894
0.76379
0.763944
0.774345
0.783933
0.911982
1.04153
1.92167
3.63296
8.43993
8.15787
7.43513
6.86606
6.80333
6.82362
6.92136
7.17742
7.71072
8.45566
0.957652
0.91102
0.875212
0.843958
0.820461
0.797027
0.782904
0.763766
0.763914
0.774218
0.783746
0.911268
1.04011
1.91736
3.62081
8.42293
8.13783
7.40774
6.83756
6.77575
6.81916
6.94537
7.21794
7.72112
8.4683
0.957645
0.911021
0.87521
0.843956
0.82047
0.797013
0.782927
0.763702
0.763835
0.77391
0.783302
0.909882
1.0373
1.9109
3.60124
8.40676
8.09417
7.33916
6.79541
6.74968
6.80324
6.94649
7.23924
7.71907
8.45478
0.957605
0.911067
0.875183
0.843996
0.820444
0.79704
0.782912
0.763603
0.763688
0.772649
0.781602
0.905824
1.03078
1.89646
3.5705
8.30675
8.02368
7.30996
6.77804
6.74231
6.78586
6.92392
7.22198
7.70696
8.43724
0.957483
0.911235
0.87507
0.844146
0.82029
0.79727
0.78257
0.764328
0.763389
0.766417
0.80474
0.841816
1.14777
1.67024
3.63289
8.13925
7.92121
7.25603
6.7394
6.69949
6.74444
6.88193
7.18201
7.67658
8.42058
0.957549
0.911132
0.875138
0.844059
0.820401
0.797081
0.782887
0.763413
0.763434
0.770381
0.778528
0.896637
1.01395
1.85043
3.44926
8.01274
7.79698
7.20408
6.68064
6.63307
6.68
6.81907
7.11984
7.61693
8.38859
0.957489
0.911228
0.875058
0.844176
0.820222
0.797396
0.782294
0.764617
0.761796
0.764643
0.800997
0.835389
1.12676
1.61333
3.47785
7.77532
7.63396
7.10852
6.60382
6.54963
6.59693
6.73343
7.0272
7.51608
8.31897
0.957574
0.911101
0.875181
0.843985
0.820493
0.79693
0.783036
0.763037
0.763014
0.769483
0.777136
0.887996
0.994325
1.78383
3.23914
7.57937
7.45349
7.02486
6.51272
6.44749
6.49133
6.61754
6.89035
7.34899
8.16797
0.957617
0.911047
0.875211
0.843926
0.820542
0.796855
0.783112
0.762929
0.762843
0.769174
0.776552
0.882177
0.983206
1.73406
3.10536
7.29962
7.23691
6.91691
6.40955
6.32893
6.36516
6.47033
6.69939
7.08179
7.84793
0.957726
0.910919
0.875243
0.843946
0.820418
0.797111
0.78268
0.763697
0.762017
0.766656
0.773132
0.872287
0.96236
1.69651
2.97666
6.99299
7.01805
6.77634
6.30281
6.20169
6.22436
6.293
6.44177
6.67116
7.16162
1.03456
1.06944
1.09339
1.10982
1.12287
1.13225
1.14046
1.14836
1.16178
1.20274
1.261
1.51059
1.9262
3.52114
7.77019
17.7941
15.9397
14.142
13.5813
13.7552
13.7445
13.8942
14.2837
14.7837
15.2201
1.03456
1.06944
1.09339
1.10982
1.12287
1.13224
1.14046
1.14835
1.16173
1.20262
1.26063
1.50987
1.92399
3.51549
7.75238
17.7442
15.8856
14.0766
13.5026
13.585
13.7366
13.9273
14.286
14.7374
15.1852
1.03456
1.06944
1.09339
1.10981
1.12288
1.13223
1.14047
1.14831
1.16162
1.20222
1.26002
1.5073
1.91936
3.4996
7.70931
17.7406
15.7557
13.95
13.4092
13.5031
13.6887
13.881
14.2226
14.6171
15.0792
1.03454
1.06946
1.09337
1.10983
1.12287
1.13224
1.14047
1.14823
1.1614
1.20155
1.25891
1.50318
1.91225
3.47585
7.64676
17.5065
15.6024
13.8142
13.336
13.5075
13.582
13.7478
14.0701
14.4209
14.893
1.03449
1.06951
1.09333
1.10989
1.12282
1.13229
1.14038
1.14805
1.16025
1.20174
1.24932
1.50598
1.88267
3.44251
7.58039
17.2192
15.4017
13.6421
13.1837
13.322
13.4292
13.5699
13.8556
14.1662
14.6481
1.03451
1.06948
1.09335
1.10985
1.12286
1.13223
1.14047
1.148
1.16076
1.1994
1.25536
1.48911
1.88493
3.38308
7.37907
16.9368
15.1684
13.4328
12.9907
13.1209
13.2355
13.35
13.5901
13.8487
14.3299
1.03449
1.06951
1.09332
1.1099
1.1228
1.13231
1.14032
1.14788
1.15959
1.19909
1.2446
1.48925
1.84401
3.32235
7.21
16.5154
14.8925
13.1905
12.7583
12.8641
12.9977
13.0792
13.2601
13.4485
13.904
1.03454
1.06945
1.09339
1.1098
1.12291
1.13215
1.14051
1.1477
1.1599
1.19631
1.25017
1.46753
1.83924
3.22888
6.91588
16.103
14.5839
12.9269
12.4973
12.5864
12.7065
12.7478
12.8533
12.9428
13.3215
1.03457
1.06941
1.09341
1.10976
1.12294
1.13211
1.14051
1.14762
1.15944
1.19478
1.24475
1.45994
1.79604
3.17028
6.6047
15.5356
14.2213
12.638
12.2109
12.2792
12.3613
12.3507
12.3505
12.2895
12.4819
1.0346
1.06938
1.09345
1.10972
1.12297
1.13208
1.14049
1.14753
1.15874
1.19277
1.23813
1.44952
1.75559
3.10031
6.3048
14.9002
13.8003
12.3117
11.9035
11.9473
11.9684
11.9015
11.7479
11.4139
11.1909
1.00892
1.03179
1.05928
1.08752
1.11319
1.13838
1.15844
1.18258
1.2026
1.25577
1.33178
1.63138
2.13151
4.00405
9.19055
20.8956
18.2081
16.15
15.5905
15.7502
15.8991
16.0235
16.379
16.7668
17.0733
1.00892
1.03179
1.05928
1.08752
1.11319
1.13837
1.15845
1.18254
1.20264
1.25529
1.33253
1.62878
2.13331
3.99928
9.18325
20.7841
18.1388
16.0936
15.5694
15.7524
15.8962
15.9813
16.3182
16.6737
16.9848
1.00891
1.03179
1.05928
1.08752
1.11319
1.13837
1.15844
1.18256
1.20245
1.25534
1.33073
1.62863
2.1249
3.98494
9.12511
20.6402
18.0019
15.9639
15.4927
15.7266
15.8434
15.8699
16.1637
16.4563
16.7702
1.00891
1.03179
1.05928
1.08752
1.1132
1.13836
1.15845
1.18249
1.20237
1.25446
1.33054
1.62334
2.12024
3.96051
9.05591
20.4837
17.8098
15.7763
15.3539
15.6266
15.7181
15.6939
15.9308
16.1523
16.4604
1.00891
1.03179
1.05928
1.08751
1.11321
1.13835
1.15846
1.18241
1.2022
1.25327
1.32975
1.616
2.11086
3.92145
8.93424
20.1935
17.561
15.5483
15.1685
15.4727
15.5401
15.4735
15.6377
15.78
16.0747
1.00891
1.03179
1.05928
1.08751
1.11321
1.13834
1.15844
1.18237
1.2018
1.25235
1.3265
1.60923
2.08939
3.86053
8.73193
19.8219
17.2773
15.2837
14.9315
15.2415
15.3112
15.2036
15.2833
15.3355
15.5986
1.00893
1.03177
1.0593
1.08749
1.11321
1.13834
1.15842
1.1823
1.20144
1.25061
1.32377
1.5974
2.06585
3.77907
8.47575
19.3913
16.9572
14.985
14.6503
14.9436
15.0202
14.8729
14.8553
14.7952
14.9949
1.00894
1.03176
1.05931
1.08748
1.11322
1.13833
1.15837
1.18225
1.20084
1.249
1.31893
1.58592
2.03269
3.68336
8.16772
18.8732
16.5915
14.6518
14.3273
14.5806
14.6516
14.4739
14.3482
14.1426
14.2264
1.00896
1.03173
1.05933
1.08744
1.11324
1.1383
1.15837
1.18214
1.20043
1.24636
1.31632
1.56858
2.00471
3.57675
7.81898
18.2545
16.1763
14.2887
13.9716
14.1779
14.2159
13.9975
13.7428
13.3387
13.1917
1.00897
1.03169
1.05939
1.08735
1.11338
1.13811
1.15855
1.18182
1.1994
1.24455
1.30917
1.55698
1.96129
3.47249
7.46868
17.5195
15.6957
13.8954
13.5906
13.7477
13.7295
13.4535
13.028
12.3494
11.7528
1.03453
1.06946
1.09336
1.10984
1.12285
1.13226
1.14045
1.14832
1.16166
1.20251
1.26058
1.50991
1.92648
3.52446
7.79973
17.8692
15.9362
14.0916
13.4899
13.5608
13.7278
13.9369
14.3196
14.7949
15.2637
1.03448
1.06952
1.09331
1.10991
1.12279
1.13233
1.14035
1.14821
1.16069
1.20343
1.25229
1.51718
1.90759
3.52237
7.84162
17.8894
15.8543
14.0486
13.5263
13.7153
13.715
13.8638
14.2534
14.7304
15.1908
1.0345
1.06948
1.09334
1.10986
1.12284
1.13227
1.14045
1.14826
1.16148
1.20192
1.2597
1.50622
1.92068
3.50428
7.74872
17.6828
15.7641
13.9666
13.4756
13.6541
13.6686
13.8016
14.1529
14.5861
15.0387
1.03446
1.06953
1.0933
1.10992
1.12279
1.13233
1.14037
1.14814
1.16052
1.2026
1.2511
1.51181
1.89666
3.48491
7.72157
17.4635
15.6012
13.825
13.3423
13.4561
13.57
13.7174
14.0174
14.3823
14.8444
1.03445
1.06954
1.0933
1.10992
1.1228
1.13232
1.14038
1.14806
1.16036
1.2018
1.24995
1.50678
1.88539
3.44817
7.6095
17.2214
15.3882
13.6422
13.1943
13.3452
13.4328
13.5655
13.8235
14.1261
14.6001
1.03447
1.06952
1.09332
1.1099
1.12281
1.13229
1.14038
1.14793
1.16001
1.20062
1.24769
1.4992
1.86772
3.39365
7.434
16.8899
15.1563
13.4349
12.9951
13.1123
13.2458
13.3549
13.5693
13.8124
14.2841
1.03454
1.06944
1.09339
1.10979
1.12292
1.13215
1.14051
1.14788
1.16039
1.19815
1.25279
1.48042
1.86302
3.31323
7.15915
16.5513
14.9007
13.2018
12.7657
12.8688
13.0077
13.0837
13.2428
13.4148
13.8621
1.03457
1.06941
1.09342
1.10975
1.12295
1.1321
1.14053
1.14772
1.15994
1.19645
1.25005
1.46827
1.83758
3.22657
6.89846
16.0525
14.5953
12.9427
12.5057
12.5934
12.7145
12.7517
12.8392
12.9112
13.2838
1.03458
1.0694
1.09342
1.10974
1.12294
1.1321
1.14051
1.14763
1.15945
1.19483
1.24479
1.46023
1.79589
3.17108
6.6031
15.5443
14.2279
12.6453
12.2168
12.2847
12.3673
12.3554
12.3394
12.2576
12.4497
1.03459
1.06938
1.09344
1.10972
1.12297
1.13208
1.14051
1.14753
1.15876
1.19283
1.23826
1.4498
1.75614
3.10106
6.30542
14.8999
13.7991
12.3114
11.9068
11.9517
11.9736
11.9052
11.7416
11.388
11.1641
0.957598
0.911067
0.875171
0.844004
0.820427
0.797061
0.78289
0.763687
0.763794
0.773147
0.782376
0.909635
1.03862
1.92394
3.66085
8.4942
8.17327
7.37917
6.8041
6.7466
6.79593
6.9341
7.22425
7.71762
8.44954
0.95747
0.91125
0.87505
0.844163
0.820259
0.797308
0.782531
0.764474
0.763685
0.76701
0.807118
0.84585
1.16738
1.72265
3.77391
8.46812
8.15548
7.33926
6.81416
6.77677
6.80331
6.91426
7.18815
7.71757
8.43843
0.957555
0.911114
0.875141
0.844049
0.820399
0.797099
0.78287
0.763646
0.763723
0.772081
0.781025
0.905555
1.03073
1.90804
3.63581
8.41721
8.10619
7.34171
6.81199
6.77131
6.79821
6.90632
7.17389
7.7118
8.42642
0.957438
0.911276
0.875033
0.844187
0.82026
0.797307
0.782586
0.764395
0.764049
0.76743
0.808239
0.847533
1.16288
1.69694
3.70563
8.25895
8.01523
7.30167
6.78317
6.73536
6.77541
6.89737
7.1701
7.69186
8.42554
0.957424
0.911296
0.875024
0.844208
0.820246
0.797314
0.782602
0.764283
0.764281
0.767726
0.807951
0.846308
1.15488
1.66719
3.65247
8.12783
7.90485
7.236
6.73848
6.69848
6.73976
6.86722
7.14646
7.65263
8.41371
0.957457
0.911257
0.875048
0.844176
0.820255
0.797325
0.782489
0.764425
0.763169
0.766342
0.804982
0.841552
1.14243
1.6439
3.5749
7.96717
7.78174
7.17742
6.67851
6.63216
6.67801
6.80994
7.0933
7.59094
8.3798
0.957582
0.911077
0.875194
0.843959
0.820515
0.796905
0.783062
0.763055
0.762985
0.770881
0.779114
0.894724
1.00781
1.82039
3.34434
7.80852
7.63653
7.12305
6.60369
6.54607
6.59255
6.72346
7.00233
7.48995
8.30462
0.957614
0.91104
0.875234
0.843894
0.820583
0.796795
0.783166
0.762864
0.762786
0.770472
0.778318
0.889662
0.996743
1.78009
3.22664
7.56707
7.45391
7.03947
6.51601
6.4458
6.48811
6.60876
6.8678
7.32402
8.14871
0.957626
0.911034
0.875219
0.843907
0.82055
0.796836
0.783122
0.762906
0.762814
0.769258
0.776631
0.882452
0.983394
1.73426
3.10482
7.3002
7.24006
6.92464
6.41375
6.33018
6.36465
6.46467
6.68138
7.06029
7.82624
0.957711
0.910919
0.875233
0.843943
0.820425
0.7971
0.782714
0.763658
0.762128
0.76681
0.773351
0.87254
0.962602
1.69616
2.97651
6.99169
7.01566
6.77473
6.30405
6.20314
6.22454
6.28917
6.42934
6.65305
7.14094
0.957461
0.911316
0.874954
0.84433
0.819983
0.797713
0.781753
0.764942
0.759269
0.761335
0.789811
0.814914
1.06353
1.42627
2.98458
6.56556
6.79398
6.60219
6.19918
6.06896
6.07198
6.08511
6.08268
5.99877
5.45217
0.957705
0.910976
0.875126
0.844177
0.820045
0.797713
0.781671
0.765
0.758963
0.762422
0.768063
0.85497
0.934448
1.57043
2.68683
6.19168
6.55409
6.40263
6.07898
5.93734
5.90491
5.86107
5.76302
5.52591
4.92236
0.957456
0.911339
0.874885
0.844455
0.819792
0.797978
0.781345
0.765244
0.757758
0.759685
0.781741
0.801836
1.01928
1.30437
2.66089
5.73053
6.28289
6.18976
5.96425
5.81405
5.74426
5.65794
5.50929
5.245
4.72681
0.957638
0.911104
0.87495
0.844416
0.81969
0.798205
0.780886
0.765847
0.756004
0.759091
0.763658
0.836752
0.903004
1.41891
2.3172
5.21659
6.03461
5.99287
5.86283
5.70123
5.59832
5.47807
5.29875
5.02824
4.60327
0.957581
0.911198
0.874821
0.844609
0.819408
0.798617
0.78027
0.766515
0.754285
0.756687
0.760314
0.82276
0.878806
1.31989
2.06127
4.58817
5.85212
5.8453
5.77133
5.6108
5.47114
5.32568
5.13319
4.86842
4.50519
0.957337
0.911546
0.874587
0.844922
0.819117
0.798975
0.779802
0.766932
0.752543
0.753044
0.76623
0.777704
0.915225
1.07099
1.92726
3.77879
5.7231
5.78912
5.7181
5.54914
5.36549
5.19791
5.00192
4.74907
4.42686
0.957329
0.911551
0.87454
0.845018
0.818963
0.799237
0.779366
0.767439
0.750802
0.750801
0.760878
0.769401
0.87453
0.983692
1.63673
2.85735
5.5454
5.75603
5.68191
5.49966
5.27455
5.0892
4.89404
4.65601
4.36556
0.95733
0.911545
0.874528
0.845045
0.818918
0.799313
0.779248
0.767562
0.75046
0.75042
0.756194
0.76405
0.842291
0.923435
1.45938
2.3559
5.04494
5.64697
5.59158
5.43365
5.18787
4.99123
4.7992
4.5774
4.31451
0.957219
0.91169
0.874495
0.845033
0.819034
0.799072
0.779667
0.766849
0.751422
0.748547
0.751308
0.757024
0.819773
0.885918
1.31646
2.06217
4.42866
5.41888
5.40763
5.32199
5.12482
4.91079
4.71742
4.50942
4.2708
0.957473
0.911295
0.874807
0.844601
0.819531
0.798371
0.78062
0.765343
0.753134
0.743143
0.743921
0.758627
0.770932
0.906114
1.06188
1.86033
3.53208
5.17082
5.28648
5.23101
5.08327
4.85487
4.65629
4.4566
4.23642
0.957392
0.91139
0.874815
0.844528
0.819711
0.798044
0.781123
0.764521
0.754066
0.740727
0.741899
0.7442
0.780891
0.817122
1.04919
1.44053
2.65107
4.88187
5.20827
5.16896
5.05025
4.82216
4.61652
4.41885
4.21085
0.957439
0.911316
0.874877
0.844457
0.819784
0.797955
0.781213
0.764386
0.754112
0.74001
0.740047
0.744528
0.75082
0.820031
0.886351
1.34282
2.06237
4.24711
5.06126
5.05454
4.98785
4.81994
4.59326
4.39047
4.18936
0.957387
0.911398
0.874801
0.844571
0.819624
0.798207
0.780814
0.765007
0.753003
0.741324
0.735863
0.737373
0.753075
0.770242
0.89734
1.0914
1.8255
3.44009
4.82151
4.96598
4.92364
4.80317
4.57064
4.36407
4.17046
0.957363
0.911451
0.874718
0.844698
0.819444
0.79847
0.780438
0.765533
0.752179
0.742131
0.732684
0.733185
0.743949
0.752863
0.84724
0.952393
1.48583
2.49981
4.48729
4.87025
4.84732
4.76092
4.57077
4.3534
4.15896
0.957392
0.911415
0.874709
0.844736
0.819361
0.798619
0.780206
0.765881
0.751618
0.742733
0.730671
0.730661
0.73646
0.741845
0.807524
0.864384
1.28833
1.90959
3.79606
4.68042
4.7295
4.68643
4.56576
4.3534
4.15627
0.957304
0.911532
0.874651
0.844804
0.819326
0.798646
0.780206
0.765846
0.751693
0.742512
0.730854
0.729589
0.731775
0.736338
0.778235
0.824784
1.09472
1.54224
2.91776
4.3934
4.64297
4.61939
4.53955
4.36333
4.16101
0.957325
0.911494
0.874693
0.844741
0.81942
0.798499
0.780432
0.76549
0.752231
0.741612
0.73191
0.726352
0.727503
0.730932
0.756629
0.792911
0.95757
1.24998
2.14541
3.88298
4.516
4.53364
4.49473
4.38449
4.17677
0.957359
0.911445
0.874734
0.844671
0.819506
0.798363
0.780633
0.765173
0.752712
0.740789
0.732863
0.72301
0.72326
0.724787
0.742083
0.759986
0.880426
1.04164
1.72147
3.07858
4.27292
4.47266
4.45064
4.37446
4.21017
0.957399
0.911398
0.874759
0.844641
0.819514
0.798361
0.780605
0.765238
0.75257
0.741036
0.732288
0.723513
0.719784
0.720808
0.730342
0.741152
0.818371
0.908749
1.35239
2.1126
3.88257
4.37484
4.38122
4.34615
4.24451
0.95741
0.911392
0.874749
0.844658
0.819471
0.798431
0.780483
0.765432
0.752259
0.741508
0.731491
0.724384
0.716802
0.717049
0.722748
0.72886
0.779707
0.831412
1.14664
1.62991
3.0945
4.15276
4.3191
4.29925
4.2326
0.957439
0.911353
0.87477
0.844643
0.819473
0.798443
0.780448
0.765496
0.752146
0.741675
0.731198
0.724682
0.71564
0.715608
0.717686
0.721699
0.751002
0.79065
0.967757
1.27662
2.14275
3.77503
4.21877
4.23358
4.20394
0.95737
0.911447
0.874727
0.84469
0.819457
0.798446
0.780475
0.765422
0.752287
0.741403
0.731655
0.723808
0.716839
0.711942
0.712799
0.714188
0.73473
0.752806
0.878164
1.05224
1.69166
2.98159
3.99057
4.17707
4.16304
0.957388
0.911419
0.874748
0.844664
0.819491
0.798397
0.780548
0.765315
0.752442
0.741174
0.731973
0.723311
0.717286
0.710293
0.709804
0.710911
0.721376
0.732887
0.807505
0.902628
1.30063
2.03526
3.59295
4.06627
4.11306
0.957408
0.911392
0.874758
0.844649
0.819494
0.798397
0.780541
0.765337
0.752405
0.741254
0.731827
0.723561
0.716744
0.710781
0.70675
0.707219
0.712992
0.718387
0.768125
0.812523
1.10598
1.52481
2.79376
3.81837
4.0512
0.957427
0.911369
0.874767
0.844641
0.819491
0.798407
0.780517
0.76538
0.752335
0.741365
0.731652
0.723823
0.716305
0.711247
0.705152
0.705231
0.708046
0.712149
0.737918
0.775366
0.926059
1.19292
1.92867
3.34082
3.91652
0.957402
0.911406
0.874748
0.844664
0.819476
0.79842
0.780506
0.765382
0.752335
0.741349
0.731683
0.723753
0.716414
0.710966
0.705264
0.703257
0.704104
0.70678
0.720832
0.742801
0.834316
0.98528
1.49857
2.54687
3.62743
0.957396
0.911413
0.874748
0.844665
0.81948
0.79841
0.780523
0.76535
0.752386
0.741263
0.731819
0.723528
0.716765
0.710345
0.705996
0.700701
0.700926
0.701753
0.710789
0.71977
0.782565
0.848227
1.18645
1.72376
3.06907
0.957429
0.911368
0.874771
0.844635
0.8195
0.798392
0.780539
0.76534
0.752396
0.741263
0.731813
0.723555
0.716701
0.710461
0.705686
0.700922
0.698904
0.699472
0.703826
0.710249
0.743387
0.790679
0.982138
1.31322
2.22556
0.957432
0.911366
0.87477
0.844636
0.819495
0.798398
0.780528
0.765357
0.752369
0.741307
0.731744
0.723663
0.716531
0.710719
0.705245
0.701414
0.697197
0.697303
0.699694
0.703179
0.722803
0.752819
0.866608
1.06811
1.6709
0.95741
0.911395
0.874755
0.844655
0.819483
0.798411
0.780516
0.765368
0.752355
0.74132
0.731726
0.723684
0.716503
0.710749
0.705193
0.7014
0.69689
0.696147
0.696946
0.699146
0.711279
0.729098
0.806633
0.926827
1.37777
0.957406
0.911399
0.874754
0.844657
0.819484
0.79841
0.78052
0.765361
0.752366
0.741301
0.731755
0.723638
0.716574
0.710636
0.705366
0.701095
0.697223
0.694877
0.695302
0.696561
0.70649
0.717482
0.789405
0.865484
1.3325
0.957411
0.911391
0.874757
0.844651
0.819489
0.798403
0.78053
0.76535
0.752383
0.741281
0.731785
0.723598
0.716631
0.710556
0.705473
0.700935
0.697377
0.6944
0.694716
0.695963
0.70461
0.716486
0.780466
0.867278
1.31695
0.957409
0.911392
0.874757
0.84465
0.819491
0.7984
0.780536
0.765343
0.752396
0.741266
0.731808
0.723566
0.716679
0.710485
0.705578
0.700766
0.697586
0.693836
0.694055
0.694806
0.703555
0.711717
0.780658
0.847303
1.3269
0.957406
0.911395
0.874757
0.844651
0.819492
0.798399
0.780538
0.76534
0.7524
0.741258
0.73182
0.72355
0.716702
0.710451
0.705628
0.700685
0.697698
0.693524
0.69381
0.694446
0.702911
0.710874
0.776576
0.841385
1.30255
0.957397
0.911404
0.874755
0.844652
0.819495
0.798397
0.78054
0.765338
0.752402
0.741255
0.731824
0.723542
0.716713
0.710436
0.705645
0.700666
0.697691
0.693517
0.693586
0.694222
0.701936
0.708547
0.771482
0.829857
1.26533
0.957406
0.911392
0.874759
0.844648
0.819495
0.798398
0.78054
0.765339
0.752402
0.741256
0.731824
0.723543
0.716713
0.710436
0.705643
0.70067
0.697683
0.693509
0.693571
0.694254
0.701304
0.709199
0.762943
0.825654
1.19481
0.95741
0.911387
0.87476
0.844647
0.819493
0.798399
0.780538
0.765341
0.7524
0.741259
0.73182
0.72355
0.716704
0.71045
0.705624
0.700696
0.697644
0.693527
0.693457
0.694178
0.700643
0.708737
0.758521
0.822537
1.16335
0.95741
0.911385
0.874763
0.844647
0.819494
0.7984
0.780536
0.765343
0.752396
0.741263
0.731813
0.723557
0.716692
0.710468
0.705596
0.700742
0.697551
0.693625
0.692858
0.693368
0.699849
0.705164
0.758394
0.806253
1.14986
0.957412
0.911386
0.874759
0.844648
0.819492
0.798399
0.780537
0.765342
0.752398
0.741261
0.731816
0.723553
0.716698
0.710458
0.705615
0.700709
0.697623
0.693541
0.693314
0.693999
0.699989
0.70735
0.754211
0.811135
1.12641
0.957413
0.911388
0.874755
0.844648
0.819491
0.798398
0.780538
0.765341
0.752399
0.74126
0.731819
0.72355
0.716703
0.710451
0.705624
0.700696
0.697642
0.693526
0.693384
0.694071
0.700129
0.707738
0.754121
0.813051
1.12551
1.03447
1.0695
1.0934
1.10975
1.12306
1.13187
1.14099
1.14648
1.16051
1.18175
1.26061
1.36346
1.86961
2.80669
6.18086
14.1328
13.3009
11.9623
11.5889
11.5989
11.5633
11.3981
11.0312
10.2611
8.43297
1.03453
1.06943
1.09347
1.10967
1.12315
1.13174
1.14114
1.14612
1.15986
1.17747
1.25604
1.34173
1.83271
2.68523
5.8082
13.336
12.7765
11.638
11.2938
11.2594
11.1547
10.8749
10.3134
9.3549
7.48782
1.03444
1.06955
1.09334
1.10984
1.12295
1.13196
1.14081
1.14589
1.15837
1.17707
1.24678
1.33361
1.78224
2.5575
5.47674
12.4394
12.1827
11.4068
11.0349
10.9413
10.7573
10.3747
9.73807
8.80668
7.39905
1.03449
1.06951
1.09332
1.10987
1.12286
1.13205
1.14066
1.14566
1.15749
1.17129
1.23852
1.30552
1.73299
2.40521
5.024
11.4637
11.6373
11.2357
10.8099
10.6392
10.3978
9.96253
9.33057
8.49361
7.40293
1.03446
1.06955
1.09325
1.10997
1.12268
1.13239
1.13998
1.14701
1.15432
1.17777
1.20526
1.35327
1.52046
2.51061
4.37087
10.3132
11.3086
11.0488
10.6086
10.3698
10.086
9.64474
9.04626
8.30295
7.4029
1.03435
1.06967
1.09317
1.11006
1.12267
1.13232
1.14023
1.14592
1.15475
1.16874
1.21813
1.27672
1.59459
2.07054
4.06509
8.86265
11.0999
10.908
10.456
10.1352
9.82012
9.38948
8.83431
8.16881
7.39866
1.03428
1.06975
1.0931
1.11016
1.12255
1.13249
1.13997
1.14616
1.15367
1.16604
1.20652
1.2584
1.51337
1.89991
3.48121
7.2569
11.0132
10.8356
10.3377
9.92543
9.58456
9.17233
8.66282
8.06222
7.38793
1.03427
1.06977
1.09305
1.11026
1.12238
1.13279
1.13945
1.14705
1.15179
1.16618
1.1843
1.26659
1.36482
1.86095
2.77639
5.65399
10.7976
10.6877
10.2363
9.73037
9.37038
8.97984
8.51252
7.96956
7.36763
1.03424
1.0698
1.09302
1.11028
1.12237
1.13279
1.13943
1.14689
1.15117
1.16272
1.1789
1.2432
1.32136
1.71537
2.40617
4.7514
10.0421
10.347
10.0655
9.53866
9.1781
8.81141
8.38241
7.88818
7.34714
1.03433
1.06968
1.09314
1.11011
1.12254
1.13256
1.13963
1.14654
1.15057
1.16
1.17449
1.22498
1.28915
1.60975
2.1083
4.10107
8.58564
9.921
9.78033
9.40396
9.02116
8.66275
8.26501
7.81545
7.32696
1.03434
1.06965
1.09321
1.10999
1.12272
1.13225
1.14009
1.14573
1.15178
1.15731
1.17408
1.19631
1.29682
1.42
2.05049
3.22473
6.91774
9.64205
9.58568
9.31971
8.89882
8.53941
8.16594
7.7519
7.30498
1.03437
1.0696
1.09326
1.10992
1.12281
1.13212
1.14024
1.1455
1.15173
1.15626
1.16895
1.1877
1.25923
1.35916
1.79713
2.6201
5.15973
9.25495
9.44274
9.24796
8.82333
8.44728
8.0847
7.69835
7.28483
1.03438
1.0696
1.09324
1.10996
1.12274
1.13223
1.14006
1.14572
1.1511
1.15577
1.16259
1.18519
1.21062
1.34929
1.50651
2.3745
3.94291
8.32141
9.22092
9.09947
8.76999
8.371
8.01179
7.64533
7.26291
1.03435
1.06966
1.09317
1.11005
1.12264
1.13236
1.13993
1.14578
1.1511
1.15466
1.16225
1.17206
1.21438
1.2577
1.51818
1.8733
3.39784
6.67254
8.90189
8.88598
8.70302
8.31408
7.94641
7.59511
7.23849
1.03434
1.06967
1.09315
1.11009
1.12259
1.13244
1.13983
1.14593
1.15081
1.15483
1.16022
1.16919
1.19788
1.23499
1.41398
1.65673
2.70453
4.90205
8.37614
8.73182
8.60548
8.28344
7.90031
7.5584
7.21941
1.03428
1.06973
1.09312
1.11012
1.12257
1.13246
1.13981
1.14595
1.15071
1.15491
1.15924
1.16612
1.1861
1.21566
1.33461
1.49093
2.23837
3.58539
7.27487
8.49115
8.44214
8.24567
7.86921
7.5325
7.21033
1.03429
1.06971
1.09315
1.11009
1.12261
1.13241
1.13987
1.14588
1.15077
1.15481
1.15889
1.16398
1.17817
1.20009
1.2818
1.39753
1.90484
2.83587
5.66638
8.10685
8.27511
8.1629
7.87553
7.53093
7.21057
1.03433
1.06966
1.09318
1.11004
1.12265
1.13235
1.13992
1.14583
1.15078
1.1548
1.15824
1.16267
1.16997
1.19284
1.22316
1.36069
1.54321
2.33714
3.82168
7.36456
8.13771
8.07822
7.87573
7.53818
7.21648
1.03435
1.06965
1.09319
1.11003
1.12266
1.13233
1.13994
1.14578
1.15086
1.15459
1.15853
1.16129
1.16819
1.17909
1.2159
1.26567
1.49029
1.82948
3.126
5.83061
7.82503
7.95101
7.84622
7.57252
7.2348
1.03436
1.06964
1.09319
1.11003
1.12265
1.13235
1.13991
1.14583
1.15079
1.15464
1.15838
1.16088
1.16565
1.17358
1.19773
1.23419
1.37371
1.59597
2.40588
4.07933
7.16336
7.81161
7.76579
7.58579
7.26042
1.03436
1.06965
1.09319
1.11004
1.12264
1.13238
1.13987
1.14588
1.1507
1.15476
1.15816
1.161
1.16433
1.16985
1.18611
1.20823
1.30704
1.4184
2.01808
2.98829
5.81598
7.50781
7.62636
7.54538
7.31773
1.03432
1.06968
1.09317
1.11007
1.12263
1.13239
1.13987
1.14589
1.1507
1.15476
1.15812
1.16102
1.16389
1.16773
1.1782
1.19472
1.25273
1.34237
1.68053
2.31802
4.09401
6.8658
7.48481
7.4541
7.31779
1.03433
1.06968
1.09318
1.11006
1.12264
1.13237
1.1399
1.14584
1.15076
1.15468
1.15821
1.16086
1.16381
1.16643
1.17324
1.18434
1.22064
1.27871
1.48622
1.86799
3.04048
5.54304
7.17231
7.35176
7.28916
1.03434
1.06966
1.09318
1.11005
1.12264
1.13237
1.13989
1.14586
1.15074
1.15471
1.15817
1.16087
1.16361
1.1655
1.17008
1.17735
1.20086
1.23328
1.37451
1.5673
2.35032
3.86075
6.50531
7.2061
7.20752
1.03436
1.06964
1.09319
1.11004
1.12264
1.13237
1.13988
1.14587
1.15071
1.15475
1.1581
1.16095
1.16345
1.16544
1.16838
1.17329
1.18807
1.20825
1.29802
1.39913
1.93134
2.76791
5.18509
6.86545
7.14392
1.03436
1.06965
1.09318
1.11005
1.12264
1.13238
1.13987
1.14588
1.1507
1.15477
1.15807
1.161
1.1633
1.16564
1.16728
1.17144
1.17781
1.19909
1.22839
1.35083
1.5355
2.18996
3.4679
6.14773
6.98628
1.03435
1.06966
1.09318
1.11005
1.12264
1.13238
1.13988
1.14587
1.15072
1.15473
1.15811
1.16093
1.1634
1.16543
1.16746
1.16958
1.17518
1.18402
1.21462
1.259
1.43593
1.72604
2.68954
4.67722
6.57972
1.03437
1.06964
1.09319
1.11004
1.12265
1.13237
1.13989
1.14586
1.15073
1.15473
1.15812
1.16093
1.16339
1.16543
1.16726
1.16908
1.17196
1.17978
1.19258
1.23445
1.30577
1.53979
1.99611
3.22408
5.68966
1.03438
1.06963
1.0932
1.11003
1.12265
1.13237
1.13988
1.14587
1.15071
1.15475
1.15809
1.16098
1.16333
1.1655
1.16716
1.16901
1.17088
1.17587
1.18381
1.21067
1.25024
1.40345
1.65588
2.49
4.21232
1.03436
1.06965
1.09319
1.11005
1.12264
1.13238
1.13987
1.14588
1.1507
1.15476
1.15808
1.16098
1.16333
1.16547
1.16719
1.16877
1.17038
1.17308
1.18029
1.19227
1.23117
1.29697
1.51642
1.93978
3.1486
1.03435
1.06966
1.09318
1.11005
1.12264
1.13238
1.13988
1.14587
1.15071
1.15475
1.15809
1.16096
1.16336
1.16544
1.1672
1.16873
1.17024
1.17219
1.17744
1.18582
1.21466
1.25898
1.42759
1.73232
2.72206
1.03435
1.06965
1.09318
1.11005
1.12264
1.13237
1.13988
1.14587
1.15072
1.15474
1.15811
1.16094
1.16338
1.16542
1.16721
1.16874
1.17
1.17198
1.17504
1.1855
1.19802
1.26414
1.3375
1.74536
2.47625
1.03435
1.06966
1.09318
1.11005
1.12264
1.13237
1.13989
1.14586
1.15073
1.15473
1.15813
1.16092
1.16341
1.16538
1.16727
1.16865
1.17024
1.17168
1.17558
1.18162
1.20417
1.23258
1.38423
1.56318
2.59812
1.03435
1.06966
1.09318
1.11005
1.12264
1.13237
1.13989
1.14586
1.15074
1.15472
1.15813
1.16091
1.16342
1.16536
1.16729
1.16862
1.17027
1.17164
1.17531
1.18117
1.20204
1.23046
1.37088
1.54156
2.5201
1.03434
1.06966
1.09318
1.11005
1.12264
1.13237
1.13989
1.14586
1.15074
1.15472
1.15813
1.16091
1.16342
1.16536
1.16729
1.16863
1.17023
1.17152
1.17495
1.18028
1.2
1.22486
1.35952
1.51706
2.44004
1.03435
1.06965
1.09318
1.11004
1.12264
1.13237
1.13989
1.14586
1.15074
1.15472
1.15814
1.16091
1.16342
1.16536
1.16729
1.16862
1.17023
1.17146
1.17471
1.17983
1.19822
1.22255
1.34621
1.496
2.33921
1.03436
1.06965
1.09319
1.11004
1.12265
1.13237
1.13989
1.14586
1.15073
1.15472
1.15813
1.16092
1.16341
1.16538
1.16726
1.16866
1.17009
1.17145
1.1734
1.18092
1.1881
1.23504
1.27924
1.58462
2.03873
1.03435
1.06965
1.09319
1.11004
1.12264
1.13237
1.13989
1.14586
1.15073
1.15473
1.15812
1.16093
1.1634
1.16539
1.16725
1.16866
1.17016
1.17124
1.17417
1.17838
1.19513
1.21432
1.32559
1.45497
2.18082
1.03436
1.06965
1.09319
1.11004
1.12265
1.13237
1.13989
1.14586
1.15073
1.15473
1.15812
1.16093
1.1634
1.1654
1.16723
1.16871
1.17004
1.17144
1.17356
1.18029
1.18835
1.23152
1.27365
1.54676
1.94364
1.03436
1.06965
1.09319
1.11004
1.12264
1.13237
1.13989
1.14586
1.15073
1.15473
1.15813
1.16092
1.1634
1.16539
1.16725
1.16869
1.17006
1.17141
1.17354
1.18023
1.18826
1.23093
1.27227
1.54218
1.92971
1.00892
1.03171
1.05947
1.08716
1.11379
1.13735
1.15983
1.17925
1.20225
1.23431
1.33223
1.47052
2.06489
3.20972
7.25395
16.6448
15.1289
13.4926
13.2036
13.3012
13.2267
12.8539
12.2074
11.1069
8.80734
1.00891
1.03171
1.05947
1.08715
1.11382
1.13731
1.15985
1.17908
1.20176
1.23214
1.32458
1.45486
2.0129
3.08162
6.84391
15.7243
14.5421
13.1255
12.8374
12.8655
12.7239
12.2365
11.3755
10.0623
7.7567
1.00891
1.03173
1.05938
1.08735
1.11344
1.138
1.15857
1.18124
1.19671
1.23578
1.28898
1.50324
1.8015
3.13235
6.19806
14.7379
13.9536
12.8281
12.5201
12.4647
12.2364
11.6516
10.7131
9.46126
7.75201
1.00888
1.0318
1.05931
1.0874
1.11338
1.13797
1.15864
1.18074
1.19656
1.23165
1.28117
1.47636
1.73767
2.97161
5.6738
13.6423
13.3498
12.6243
12.2454
12.0996
11.7897
11.1546
10.2619
9.15551
7.79786
1.00892
1.03171
1.05944
1.08719
1.11374
1.13734
1.1597
1.17863
1.20006
1.22136
1.29649
1.37742
1.82201
2.52706
5.32667
12.3379
12.8916
12.4733
11.9914
11.7528
11.4006
10.7835
9.96588
9.00024
7.89536
1.00886
1.03176
1.05944
1.08713
1.1139
1.13705
1.16012
1.17802
1.20022
1.2221
1.2852
1.37079
1.74513
2.3713
4.7849
10.7985
12.6838
12.3292
11.7589
11.4388
11.0695
10.4959
9.7556
8.90178
7.96018
1.0088
1.03182
1.0594
1.08718
1.11388
1.13707
1.16009
1.17791
1.19966
1.21907
1.27282
1.34729
1.65774
2.1738
4.12276
9.03209
12.6631
12.262
11.5526
11.1577
10.7816
10.2549
9.58758
8.82452
7.99853
1.00876
1.03187
1.05933
1.08727
1.11377
1.1372
1.15992
1.17791
1.19901
1.21517
1.26021
1.31817
1.56955
1.9549
3.43858
7.0549
12.5915
12.1548
11.3731
10.9034
10.5239
10.0422
9.44164
8.75553
8.01985
1.00873
1.03193
1.05926
1.08737
1.11363
1.1374
1.15966
1.17809
1.19821
1.21251
1.24887
1.29875
1.49733
1.779
2.96764
5.61828
12.0941
11.8641
11.2317
10.6739
10.2868
9.84856
9.30922
8.6927
8.03129
1.00876
1.0319
1.05925
1.08743
1.11346
1.13775
1.15896
1.17926
1.19556
1.21527
1.23662
1.30421
1.38886
1.79135
2.43526
4.94253
10.6607
11.3109
11.0042
10.4719
10.0779
9.67365
9.18858
8.63216
8.03507
1.00879
1.03186
1.05929
1.08738
1.1135
1.13769
1.15901
1.17916
1.19541
1.21428
1.23127
1.28728
1.34884
1.6687
2.15364
4.06524
8.66844
11.0363
10.8174
10.3339
9.90838
9.519
9.07646
8.57372
8.03346
1.00882
1.03182
1.05934
1.0873
1.1136
1.13752
1.15926
1.17869
1.19599
1.21197
1.23019
1.26166
1.35265
1.49546
2.04714
3.14772
6.57603
10.8298
10.6923
10.2738
9.78857
9.38856
8.97768
8.52
8.02752
1.00884
1.0318
1.05935
1.08729
1.11361
1.13751
1.15925
1.17866
1.19585
1.21142
1.22759
1.25105
1.31984
1.42053
1.82069
2.59135
4.99915
10.1422
10.4559
10.1956
9.69317
9.27701
8.88694
8.46425
8.01466
1.00875
1.03194
1.05923
1.08742
1.11349
1.13764
1.15911
1.17883
1.19546
1.21183
1.224
1.24873
1.27912
1.41199
1.56522