/*--------------------------------*- C++ -*----------------------------------*\
  =========                 |
  \\      /  F ield         | OpenFOAM: The Open Source CFD Toolbox
   \\    /   O peration     | Website:  https://openfoam.org
    \\  /    A nd           | Version:  6
     \\/     M anipulation  |
\*---------------------------------------------------------------------------*/
FoamFile
{
    version     2.0;
    format      ascii;
    class       surfaceScalarField;
    location    "5.5";
    object      phi;
}
// * * * * * * * * * * * * * * * * * * * * * * * * * * * * * * * * * * * * * //

dimensions      [1 0 -1 0 0 0 0];

internalField   nonuniform List<scalar> 
72625
(
0.00162356
1.20701e-10
5.87449e-05
0.00157665
7.30206e-10
4.69121e-05
0.00153805
3.50297e-10
3.85926e-05
0.00150612
1.23729e-09
3.19291e-05
0.00147905
-5.37419e-13
2.70752e-05
0.00145655
1.35099e-09
2.24939e-05
0.00143681
-4.70816e-10
1.97465e-05
0.00142085
3.67322e-09
1.5955e-05
0.00140578
9.99917e-09
1.50578e-05
0.00139159
3.59407e-08
1.41384e-05
0.0013833
7.39407e-08
8.21617e-06
0.00136613
2.34253e-07
1.68494e-05
0.00138586
5.54365e-07
-2.02645e-05
0.00133764
1.95776e-06
4.60478e-05
0.00158864
6.31862e-06
-0.000257692
0.00180755
2.54034e-05
-0.000245343
0.00170326
3.33966e-05
7.01607e-05
0.00149934
4.60581e-05
0.00015765
0.00138981
6.09352e-05
4.85259e-05
0.00137057
7.42906e-05
-5.50929e-05
0.00128813
7.01719e-05
1.22098e-05
0.00118583
5.34335e-05
4.87936e-05
0.00103624
3.25419e-05
0.000116972
0.000691578
3.75305e-05
0.000306943
2.70874e-05
0.000664472
0.00162356
1.31542e-09
5.87443e-05
0.00157665
2.20344e-09
4.69125e-05
0.00153805
5.77898e-10
3.85923e-05
0.00150612
2.00385e-09
3.19292e-05
0.00147905
-1.59122e-09
2.70755e-05
0.00145655
2.8078e-09
2.24932e-05
0.00143681
-3.77366e-09
1.97482e-05
0.00142085
1.07884e-08
1.59503e-05
0.00140577
2.53213e-08
1.50601e-05
0.0013916
8.71733e-08
1.41095e-05
0.0013832
2.06048e-07
8.26375e-06
0.00136611
5.63513e-07
1.66823e-05
0.00138546
1.3122e-06
-2.00983e-05
0.001338
3.65618e-06
4.55511e-05
0.00158417
1.19431e-05
-0.000252148
0.00181433
4.35057e-05
-0.000249295
0.00170967
7.77235e-05
5.95973e-05
0.00150338
0.00010766
0.00014444
0.00141501
0.000110803
3.83863e-05
0.0013702
0.000116836
2.14808e-06
0.00132771
0.000123233
-1.06885e-05
0.00125662
0.000118142
6.25087e-06
0.00109552
0.000102962
9.05569e-05
0.000744064
0.00010909
0.00027978
0.000131788
0.000639465
0.00162356
7.3926e-09
5.87427e-05
0.00157665
7.77338e-10
4.69135e-05
0.00153805
2.36064e-09
3.85916e-05
0.00150613
-2.50603e-09
3.19296e-05
0.00147905
-6.99323e-10
2.70763e-05
0.00145656
-1.28485e-09
2.24918e-05
0.00143681
-5.93612e-09
1.97513e-05
0.00142085
2.57245e-08
1.59442e-05
0.00140581
1.35946e-08
1.50542e-05
0.00139151
2.71727e-07
1.40979e-05
0.00138281
6.85651e-07
8.21426e-06
0.00136601
5.6559e-07
1.67265e-05
0.0013832
4.40773e-06
-2.02867e-05
0.00133756
3.43555e-06
4.56612e-05
0.00157129
2.89141e-05
-0.000251083
0.00177236
0.000128415
-0.000287022
0.00163623
0.000150004
6.31184e-05
0.00145832
0.000149975
0.000135374
0.00138031
0.000153561
3.5141e-05
0.00132493
0.000160247
1.18627e-05
0.00129052
0.000174602
-1.70773e-05
0.00122398
0.000190778
-6.23513e-06
0.00104948
0.000196389
8.09289e-05
0.000691315
0.000198517
0.000268625
0.000220907
0.000602287
0.00162356
2.2844e-08
5.87326e-05
0.00157666
-2.16155e-08
4.69242e-05
0.00153806
1.80454e-08
3.85833e-05
0.00150614
-2.26046e-08
3.1939e-05
0.00147905
2.26819e-08
2.70681e-05
0.00145659
-3.91031e-08
2.24992e-05
0.00143678
5.4461e-08
1.97456e-05
0.001421
-1.2741e-07
1.59344e-05
0.00140591
4.37125e-08
1.50547e-05
0.0013911
1.20651e-06
1.38702e-05
0.00138808
-4.35058e-06
8.05403e-06
0.00135744
1.50619e-05
1.60618e-05
0.00141287
-2.99472e-05
-2.11007e-05
0.00131754
5.50683e-05
4.35146e-05
0.00158649
7.2461e-06
-0.000247689
0.00179203
0.000183807
-0.000261955
0.0016803
0.000216042
4.49924e-05
0.00148032
0.000220633
0.000129146
0.00138796
0.000219363
2.64852e-05
0.00133809
0.000240595
-3.0559e-05
0.00127323
0.000250952
-1.15591e-05
0.00119858
0.000265107
2.17938e-07
0.00103128
0.000284836
7.87505e-05
0.000666237
0.00030009
0.000263383
0.000313606
0.000573656
0.00162367
-1.23825e-08
5.86809e-05
0.00157665
2.15363e-08
4.69823e-05
0.00153814
-1.32924e-08
3.85332e-05
0.00150611
1.83865e-08
3.19934e-05
0.00147915
-2.31457e-08
2.70108e-05
0.0014565
3.82954e-08
2.25707e-05
0.00143697
-6.45258e-08
1.96506e-05
0.00142047
1.79697e-07
1.61434e-05
0.00140591
-4.4304e-09
1.50393e-05
0.00139506
-6.30692e-07
1.24433e-05
0.00136945
5.73637e-06
1.54962e-05
0.001401
-1.19603e-05
-4.33041e-06
0.00130288
4.25704e-05
2.49344e-05
0.00145822
-3.82352e-05
-6.19973e-05
0.00147358
8.7033e-05
-9.52516e-05
0.0017626
0.000183121
-0.000289378
0.00167961
0.000260558
3.77998e-05
0.00150936
0.000264248
0.000126517
0.00142493
0.00027649
2.72795e-05
0.00137162
0.000301469
-7.58459e-06
0.00130786
0.000326585
-1.19059e-05
0.0012202
0.000349496
3.2119e-06
0.00104665
0.000378433
7.98729e-05
0.000677029
0.000411157
0.00025848
0.000433732
0.000557053
0.00162357
1.12681e-08
5.87182e-05
0.00157667
-1.93535e-08
4.694e-05
0.00153807
1.53455e-08
3.85702e-05
0.00150616
-2.30447e-08
3.1954e-05
0.00147905
3.44883e-08
2.70542e-05
0.00145663
-5.92136e-08
2.25127e-05
0.00143672
1.12256e-07
1.97347e-05
0.00142119
-2.18682e-07
1.59267e-05
0.00140579
3.20768e-07
1.50812e-05
0.00139035
1.21824e-06
1.35836e-05
0.00139251
-4.33479e-06
7.91054e-06
0.00135007
1.50976e-05
1.52857e-05
0.00144413
-2.98302e-05
-2.16773e-05
0.00130304
6.18935e-05
4.07645e-05
0.0016041
1.36711e-05
-0.000228098
0.00179722
0.000259631
-0.000270604
0.00172625
0.000316801
1.40311e-05
0.00152985
0.000332519
0.000127929
0.00144346
0.000336151
2.66743e-05
0.00138606
0.000365855
-7.0315e-06
0.00132811
0.000399731
-1.52452e-05
0.00124147
0.000432839
3.22981e-06
0.0010639
0.000476843
7.91268e-05
0.000691387
0.0005329
0.000250708
0.000585858
0.000539451
0.00162366
-1.57869e-08
5.86877e-05
0.00157664
1.68961e-08
4.69756e-05
0.00153814
-1.99488e-08
3.85366e-05
0.0015061
2.97614e-08
3.19933e-05
0.00147917
-4.17596e-08
2.70031e-05
0.00145644
7.71823e-08
2.25909e-05
0.00143707
-1.17594e-07
1.96015e-05
0.00142035
2.73138e-07
1.62264e-05
0.00140602
-1.52236e-07
1.47994e-05
0.00139583
-8.98063e-07
1.23006e-05
0.00137134
4.88684e-06
1.52362e-05
0.00140023
-1.00555e-05
-3.73884e-06
0.00130551
4.03959e-05
2.43657e-05
0.00145969
-3.18944e-05
-6.03506e-05
0.00147061
8.36541e-05
-8.12685e-05
0.00176443
0.000260976
-0.000296093
0.00172048
0.000362908
-2.88614e-06
0.0015554
0.000376077
0.000121272
0.00147163
0.000392123
2.769e-05
0.00140905
0.000428319
1.09305e-08
0.00135397
0.000471367
-1.66342e-05
0.00126618
0.000516465
4.0251e-06
0.00108577
0.000579973
7.72016e-05
0.00071099
0.000669345
0.000238245
0.000782024
0.000515008
0.00162358
-8.20639e-09
5.87188e-05
0.00157666
-2.52502e-09
4.69387e-05
0.00153807
-1.46431e-09
3.85737e-05
0.00150615
5.23616e-09
3.19466e-05
0.00147905
-1.48087e-09
2.70655e-05
0.00145662
1.00908e-08
2.24946e-05
0.00143675
-1.09473e-09
1.9758e-05
0.0014211
1.22779e-08
1.58934e-05
0.0014056
6.25252e-08
1.50768e-05
0.00139112
8.89264e-08
1.36924e-05
0.00138747
1.38307e-07
8.26877e-06
0.00135955
2.41696e-06
1.54595e-05
0.00141697
2.73692e-06
-1.96823e-05
0.00132076
2.3468e-05
4.06035e-05
0.00155357
5.88376e-05
-0.000208433
0.00176857
0.000320489
-0.000275412
0.00174827
0.000417908
-3.56092e-05
0.00156506
0.000436298
0.000122711
0.00147978
0.000448597
2.87094e-05
0.00142149
0.000488577
-2.05429e-06
0.00137123
0.000538743
-1.71966e-05
0.00128603
0.000595877
5.68567e-06
0.00110898
0.000683024
7.39325e-05
0.000740324
0.00081906
0.000218866
0.00104352
0.000478986
0.00162359
-2.05718e-08
5.8725e-05
0.00157664
2.42092e-08
4.69314e-05
0.00153807
-9.94299e-09
3.85784e-05
0.00150613
1.5656e-09
3.19396e-05
0.00147904
1.15762e-08
2.70735e-05
0.0014566
-3.00968e-08
2.24842e-05
0.00143678
5.12953e-08
1.97738e-05
0.00142099
-9.35263e-08
1.58789e-05
0.0014061
5.77354e-08
1.51032e-05
0.00139161
6.35395e-07
1.37423e-05
0.00138152
1.26877e-06
8.8602e-06
0.00136661
2.44986e-06
1.48579e-05
0.00137622
8.66468e-06
-1.54442e-05
0.00134904
1.4649e-05
3.5795e-05
0.00151483
7.32802e-05
-0.000180602
0.00174812
0.000352556
-0.000266323
0.00176567
0.000465799
-6.62566e-05
0.0015822
0.000502476
0.00011701
0.00149385
0.000507322
2.94896e-05
0.00144033
0.000546837
-4.85811e-06
0.00139392
0.000600534
-1.54983e-05
0.0013133
0.000669044
7.34815e-06
0.00114386
0.000782997
6.93551e-05
0.000795843
0.000978387
0.000188612
0.00142588
0.000413602
0.00162344
5.87929e-05
4.98658e-08
0.00157667
4.68615e-05
-6.64341e-08
0.00153799
3.86284e-05
4.75364e-08
0.00150614
3.19e-05
-6.17762e-08
0.00147901
2.70916e-05
6.26905e-08
0.00145657
2.24914e-05
-8.86248e-08
0.00143677
1.97294e-05
1.28935e-07
0.0014207
1.59982e-05
-1.66566e-07
0.00140594
1.50507e-05
4.60562e-07
0.00139177
1.34149e-05
1.23832e-06
0.00138544
8.80402e-06
-2.61233e-06
0.00136067
1.39153e-05
1.40392e-05
0.00140694
-1.61543e-05
-2.09146e-05
0.001316
3.54311e-05
6.9624e-05
0.00152368
-0.000177068
4.21591e-05
0.00172214
-0.000255831
0.000408833
0.00175999
-7.63975e-05
0.00050387
0.00159805
0.00010628
0.000557799
0.00151584
3.13047e-05
0.000558096
0.00147074
-6.25628e-06
0.000598107
0.00142822
-1.02343e-05
0.000653199
0.00135915
6.50048e-06
0.000731514
0.00120717
5.83083e-05
0.000876567
0.000892717
0.000156018
0.00113673
0.000301499
0.00201716
0.00172978
-2.89798e-10
7.16799e-06
0.00176404
9.25328e-10
1.26514e-05
0.00178823
1.70067e-10
1.4407e-05
0.00180604
1.64882e-09
1.41157e-05
0.00181989
1.69769e-10
1.32213e-05
0.00183054
1.86653e-09
1.18394e-05
0.0018394
3.46984e-10
1.08912e-05
0.00184585
2.78037e-09
9.49643e-06
0.00185193
1.26206e-08
8.96741e-06
0.00185739
3.80981e-08
8.61715e-06
0.00185798
1.19351e-07
7.51162e-06
0.00186762
2.85583e-07
6.83651e-06
0.00184347
9.01711e-07
2.9102e-06
0.00189317
2.92359e-06
-6.68608e-06
0.00176918
1.34396e-05
-0.000148285
0.00155221
9.84112e-05
-0.00013045
0.00136364
0.000120922
0.000136831
0.00127732
0.000180279
6.32832e-05
0.00100358
0.000254224
6.7932e-05
0.00117413
0.000430253
-0.000656048
0.000837951
0.000304414
4.38499e-05
0.000523744
0.000224915
0.000138018
0.000188128
0.000216351
0.000236086
-0.000109564
0.000278752
0.000325594
0.000168143
0.000386374
0.00172978
9.7263e-10
7.16661e-06
0.00176404
1.45094e-09
1.26532e-05
0.00178822
1.2917e-09
1.44054e-05
0.00180604
1.96874e-09
1.41174e-05
0.00181989
6.56546e-10
1.32189e-05
0.00183054
2.12287e-09
1.18427e-05
0.0018394
7.34917e-10
1.08857e-05
0.00184585
8.84804e-09
9.49829e-06
0.00185197
3.16819e-08
8.91829e-06
0.00185728
1.13599e-07
8.70872e-06
0.00185839
2.37999e-07
7.02766e-06
0.00186693
8.51465e-07
7.49283e-06
0.0018443
1.98952e-06
1.36967e-06
0.00189199
7.49552e-06
-6.8191e-06
0.00176066
3.13717e-05
-0.000139905
0.00158152
8.71034e-05
-6.25013e-05
0.00136385
0.0002804
0.000116884
0.00130865
0.00034166
3.80022e-05
0.00120192
0.000384181
1.51706e-05
0.00120151
0.000437705
-4.86698e-06
0.00102106
0.000473049
1.08171e-06
0.000639186
0.000496109
0.000116877
0.000237976
0.00051546
0.000192471
-2.76593e-05
0.000548197
0.00027568
0.000433387
0.000346275
0.00172978
4.04343e-09
7.16741e-06
0.00176404
1.63018e-09
1.26514e-05
0.00178822
2.93055e-09
1.44067e-05
0.00180604
9.13685e-10
1.41154e-05
0.00181989
6.70543e-10
1.32216e-05
0.00183054
1.87503e-09
1.18389e-05
0.00183941
-3.09019e-10
1.0892e-05
0.00184585
1.83706e-08
9.4928e-06
0.0018519
6.47985e-08
8.96176e-06
0.00185727
2.38068e-07
8.59348e-06
0.00185779
4.22051e-07
7.50939e-06
0.00186686
1.76143e-06
6.65213e-06
0.00184253
3.18336e-06
2.77513e-06
0.00189064
1.28987e-05
-7.96987e-06
0.0017641
4.93848e-05
-0.000143712
0.00149426
0.000435409
-0.000369107
0.00131382
0.000422874
0.000100236
0.00127933
0.000483001
2.82793e-05
0.00119592
0.000508835
-6.07887e-06
0.00118556
0.000521027
-6.10681e-05
0.00100269
0.000653532
-1.47149e-05
0.000630933
0.000744717
0.000116877
0.000247546
0.000796164
0.00018343
-1.28297e-05
0.000820129
0.000256779
0.000691523
0.000331047
0.00172977
1.00873e-08
7.16436e-06
0.00176404
-5.55769e-09
1.26549e-05
0.00178822
8.89029e-09
1.44037e-05
0.00180605
-7.34209e-09
1.41191e-05
0.00181989
9.07966e-09
1.32183e-05
0.00183055
-8.81183e-09
1.18423e-05
0.0018394
1.59861e-08
1.08875e-05
0.00184582
3.86978e-08
9.49032e-06
0.00185178
2.49047e-07
8.9103e-06
0.00185708
8.80155e-08
8.69452e-06
0.00185626
2.19319e-06
7.10513e-06
0.00186632
4.30633e-07
7.2454e-06
0.00183771
9.07724e-06
1.53892e-06
0.00188458
1.77838e-05
-8.26746e-06
0.00175417
6.25705e-05
-0.000131749
0.00153887
0.00048993
-0.000103804
0.00132445
0.000590639
9.06132e-05
0.0012602
0.00064636
2.95698e-05
0.00106834
0.000718655
8.44328e-06
0.00111446
0.00093028
-0.000485995
0.000913865
0.000868415
-2.59043e-05
0.000592986
0.000954782
0.00011097
0.000243147
0.00104957
0.000175061
-2.52832e-06
0.00108867
0.000240241
0.000941955
0.000320429
0.00172974
-4.22898e-09
7.16044e-06
0.00176405
7.1255e-09
1.2659e-05
0.0017882
-4.62329e-09
1.43994e-05
0.00180605
7.93798e-09
1.41248e-05
0.00181987
-8.73464e-09
1.32133e-05
0.00183057
1.31067e-08
1.18441e-05
0.00183937
-1.62457e-08
1.08863e-05
0.00184609
1.32774e-08
9.44389e-06
0.00185269
-7.41877e-08
8.76305e-06
0.00185554
5.53327e-07
9.11919e-06
0.00186944
-8.79574e-07
4.68227e-06
0.00184913
4.52136e-06
1.17675e-05
0.00188943
2.22076e-06
-8.6055e-06
0.0018125
2.64417e-05
6.3174e-06
0.00176602
0.000134188
-0.000121759
0.00150635
0.000572659
-0.000114951
0.0013198
0.000728624
8.54162e-05
0.00126774
0.000795647
2.88441e-05
0.00113308
0.000883479
-3.09198e-06
0.0011253
0.00100443
-7.41375e-05
0.000927758
0.00109207
-3.81756e-05
0.000602
0.00118969
9.40755e-05
0.000264186
0.00130686
0.000160311
2.70897e-05
0.00135947
0.000224482
0.00121751
0.000308333
0.00172975
4.26924e-09
7.1615e-06
0.00176405
-7.44534e-09
1.26578e-05
0.00178821
5.95439e-09
1.44009e-05
0.00180606
-9.97595e-09
1.41222e-05
0.00181988
1.30925e-08
1.3217e-05
0.00183058
-1.58603e-08
1.18414e-05
0.00183937
3.06337e-08
1.08907e-05
0.00184581
2.6264e-08
9.47182e-06
0.00185168
2.52268e-07
8.88896e-06
0.00185694
1.67503e-07
8.68577e-06
0.00185426
2.53427e-06
7.17342e-06
0.00186601
9.69419e-07
6.99712e-06
0.00183199
1.28457e-05
1.64063e-06
0.00187965
2.92524e-05
-9.7166e-06
0.00177093
0.000124789
-0.000111259
0.00153356
0.000759848
-0.000222742
0.00132117
0.000872469
8.166e-05
0.00128182
0.00093834
2.41606e-05
0.0011565
0.00104567
-1.04456e-05
0.00112312
0.00120913
-0.000178587
0.00093823
0.0013073
-4.59176e-05
0.000631223
0.00142241
7.73627e-05
0.000308661
0.0015618
0.00014658
7.13458e-05
0.00163702
0.000210164
0.00153462
0.00029343
0.00172975
-9.42401e-09
7.16043e-06
0.00176405
6.56895e-09
1.26591e-05
0.00178821
-1.12238e-08
1.43992e-05
0.00180605
1.34163e-08
1.41241e-05
0.00181987
-1.71375e-08
1.32157e-05
0.00183058
2.67548e-08
1.18373e-05
0.00183934
-2.64975e-08
1.08993e-05
0.00184614
3.50039e-08
9.41651e-06
0.00185239
-3.45129e-08
8.84019e-06
0.00185517
6.26211e-07
9.03862e-06
0.0018685
-6.837e-07
5.132e-06
0.00184902
5.53983e-06
1.1055e-05
0.00188873
4.89325e-06
-7.47193e-06
0.00181127
4.01253e-05
6.27031e-06
0.00178665
0.000175834
-0.000108973
0.00154244
0.00081921
-0.000113656
0.00133363
0.00100032
7.71344e-05
0.00130268
0.00106684
2.33943e-05
0.00120304
0.00118877
-1.59434e-05
0.00113649
0.0013643
-8.87993e-05
0.000967905
0.00150674
-4.77086e-05
0.000685967
0.00164653
6.1692e-05
0.000379064
0.00181267
0.000133118
0.000131971
0.00192512
0.000196942
0.00190584
0.00027551
0.00172976
-6.72396e-09
7.16364e-06
0.00176405
9.04481e-10
1.26546e-05
0.00178821
-3.92779e-09
1.4405e-05
0.00180605
3.45414e-09
1.41153e-05
0.00181987
-7.59784e-10
1.32269e-05
0.00183056
3.63416e-09
1.1828e-05
0.00183938
8.19197e-09
1.09074e-05
0.00184584
1.49646e-08
9.44895e-06
0.00185185
1.09854e-07
8.9182e-06
0.00185719
3.92751e-07
8.57404e-06
0.00185553
1.55197e-06
7.68676e-06
0.00186748
2.82723e-06
6.13554e-06
0.00183543
1.40583e-05
3.11888e-06
0.00189487
3.2294e-05
-1.10052e-05
0.00178274
0.000176685
-9.83073e-05
0.00160017
0.000968964
-0.000245089
0.00135712
0.00113438
7.25606e-05
0.00133252
0.00119044
2.32524e-05
0.00124579
0.00132029
-1.62753e-05
0.00116935
0.00151057
-7.20974e-05
0.00101219
0.00168741
-4.10672e-05
0.00076384
0.00185376
4.65297e-05
0.000477427
0.00205464
0.000118249
0.000214467
0.0022246
0.000182116
0.00235022
0.000248826
0.00172976
-4.80538e-09
7.16453e-06
0.00176403
7.6511e-09
1.26543e-05
0.00178821
-4.80807e-09
1.44045e-05
0.00180603
4.89801e-09
1.41147e-05
0.00181988
-1.79978e-09
1.32262e-05
0.00183054
-9.673e-10
1.1829e-05
0.0018394
1.28821e-08
1.09048e-05
0.00184584
4.75811e-09
9.45592e-06
0.00185198
1.79198e-07
8.89502e-06
0.00185694
4.77105e-07
8.68009e-06
0.00185816
2.1269e-06
7.04065e-06
0.00186483
3.28475e-06
7.64757e-06
0.00184855
1.61068e-05
-1.36938e-06
0.001882
3.36859e-05
7.9193e-07
0.00180134
0.00018085
-0.000105387
0.0016576
0.00101828
-0.000174447
0.00140144
0.00125996
6.35138e-05
0.00136761
0.00131773
2.312e-05
0.00129257
0.00143995
-1.53633e-05
0.00121785
0.00163638
-5.60754e-05
0.00108077
0.00184308
-3.42708e-05
0.000876815
0.00203075
3.40725e-05
0.000632833
0.00227034
9.74068e-05
0.000354397
0.00253208
0.000159286
0.00290555
0.000212429
0.0017298
7.16449e-06
2.39139e-08
0.00176403
1.26575e-05
-1.49684e-08
0.00178824
1.44002e-05
9.75006e-09
0.00180603
1.41231e-05
-3.48802e-09
0.00181992
1.32127e-05
-1.24985e-08
0.00183053
1.18433e-05
3.09787e-08
0.00183946
1.08924e-05
-7.69215e-08
0.00184584
9.45653e-06
1.66873e-07
0.00185239
8.94135e-06
-2.63894e-07
0.00185544
8.66353e-06
2.18209e-06
0.0018626
6.95966e-06
-3.23032e-06
0.00185352
7.80166e-06
1.84012e-05
0.0018715
-1.99848e-06
-1.61192e-05
0.00184725
6.87756e-06
8.62469e-05
0.00181921
-0.000103439
0.000134044
0.00169369
-0.000212106
0.00109723
0.00143975
5.16573e-05
0.00138499
0.00140588
2.06004e-05
0.00143687
0.00134509
-1.4418e-05
0.00154619
0.00127645
-4.31939e-05
0.00174167
0.00118538
-3.07633e-05
0.00195438
0.00102098
2.71638e-05
0.00217424
0.000815411
8.02551e-05
0.00245379
0.000602081
0.000119892
0.00278126
0.000152364
0.0036565
0.00169386
5.56409e-10
-7.16552e-06
0.00171917
2.75934e-10
-1.26525e-05
0.00174798
5.26502e-10
-1.44041e-05
0.00177621
4.68825e-10
-1.41169e-05
0.00180265
-2.05708e-10
-1.32197e-05
0.00182633
1.90076e-09
-1.18396e-05
0.00184811
-2.31186e-09
-1.08907e-05
0.0018671
8.98696e-09
-9.4959e-06
0.00188503
-5.32222e-09
-8.95956e-06
0.00190216
1.03957e-07
-8.63847e-06
0.0019173
-9.69368e-08
-7.52368e-06
0.00193022
6.72448e-07
-6.8652e-06
0.00193619
-1.96932e-08
-3.0983e-06
0.00192053
2.49166e-06
6.2801e-06
0.00163358
8.81949e-06
0.000128412
0.001165
0.000237987
9.55094e-05
0.00118108
0.000247858
-0.000128301
0.00101397
0.000279959
-5.01109e-05
0.000840705
0.000270654
-2.97372e-05
-4.71487e-05
0.000253728
-2.22328e-05
-0.000289701
0.000319121
-3.29196e-05
-0.000442392
0.000419101
-0.000128613
-0.000452868
0.000454724
-0.000208412
-0.000322369
0.000507859
-0.000313061
0.000462815
-0.000399244
0.00169386
1.61523e-10
-7.16198e-06
0.00171917
5.28039e-10
-1.26563e-05
0.00174798
6.3113e-10
-1.44e-05
0.00177622
9.0365e-10
-1.41227e-05
0.00180265
9.83799e-10
-1.32143e-05
0.00182634
-8.88413e-10
-1.18424e-05
0.0018481
4.08858e-09
-1.08876e-05
0.00186707
-3.29033e-09
-9.45447e-06
0.00188474
4.19582e-08
-8.80317e-06
0.00190262
1.68334e-08
-9.10251e-06
0.00191412
4.5323e-07
-5.02377e-06
0.00193346
3.08149e-07
-1.15772e-05
0.00192462
2.82674e-06
7.29273e-06
0.00192118
7.14574e-06
-8.22551e-06
0.00163298
4.36581e-05
0.000112011
0.00112561
0.000319751
0.000358415
0.00116561
0.00042636
-0.000102781
0.00101763
0.000510274
-4.48556e-05
0.000820442
0.000533133
-5.03898e-05
-8.31485e-05
0.000505166
0.000646988
-0.000404607
0.000658889
-1.74326e-05
-0.000500125
0.000740586
-0.000109322
-0.000478452
0.000813429
-0.000188159
-0.000308911
0.000881775
-0.000268085
0.000836561
-0.00033679
0.00169386
9.07997e-10
-7.16345e-06
0.00171917
5.57779e-10
-1.26543e-05
0.00174798
7.48286e-10
-1.44024e-05
0.00177621
7.4633e-10
-1.41191e-05
0.00180265
-6.28217e-10
-1.32189e-05
0.00182633
1.98583e-09
-1.18398e-05
0.00184812
-1.47472e-09
-1.0892e-05
0.00186708
1.38093e-08
-9.48873e-06
0.00188501
2.66163e-08
-8.95e-06
0.00190202
2.15045e-07
-8.63096e-06
0.00191732
2.21287e-07
-7.56379e-06
0.00192933
1.57795e-06
-6.71998e-06
0.00193554
2.62863e-06
-3.30609e-06
0.00191567
1.18412e-05
7.00081e-06
0.00163914
5.69086e-05
0.000118125
0.00113168
0.000410667
4.28637e-05
0.00114912
0.000606757
-9.87433e-05
0.00100073
0.000722962
-3.65334e-05
0.000778718
0.000776945
-2.81275e-05
-5.43139e-05
0.00082634
0.000450473
-0.000399628
0.000976757
1.25003e-05
-0.000484282
0.00105052
-0.000108615
-0.00045787
0.00115006
-0.000179911
-0.000305209
0.00122887
-0.000243313
0.00116772
-0.000305721
0.00169386
5.57518e-10
-7.15994e-06
0.00171917
2.85377e-10
-1.26582e-05
0.00174797
1.79159e-10
-1.43987e-05
0.00177622
4.2864e-10
-1.41246e-05
0.00180265
-1.20288e-09
-1.32141e-05
0.00182633
2.22651e-09
-1.18425e-05
0.00184811
-8.60886e-10
-1.0889e-05
0.00186705
1.78069e-08
-9.44833e-06
0.00188473
4.78571e-08
-8.79217e-06
0.00190236
2.96459e-07
-9.03752e-06
0.0019143
4.26183e-07
-5.04159e-06
0.00193195
2.24788e-06
-1.11706e-05
0.00192432
4.51522e-06
7.21213e-06
0.00191623
1.87433e-05
-7.28307e-06
0.00163111
9.59051e-05
0.000112908
0.00115032
0.000670985
0.000112183
0.00112907
0.000808241
-9.07836e-05
0.000990415
0.00092517
-3.45009e-05
0.000770572
0.00101195
-6.97079e-06
-1.86609e-05
0.00107223
5.70002e-05
-0.000348896
0.00125103
2.97812e-05
-0.000430099
0.00135289
-0.000110442
-0.000415236
0.00148188
-0.00017187
-0.000286566
0.00156785
-0.000227751
0.00149806
-0.000296866
0.00169385
-1.21692e-09
-7.15777e-06
0.00171917
1.19847e-11
-1.26615e-05
0.00174797
-1.02718e-09
-1.43965e-05
0.00177622
3.15614e-10
-1.4128e-05
0.00180265
-2.00183e-10
-1.32112e-05
0.00182634
3.35988e-10
-1.18457e-05
0.0018481
5.19394e-09
-1.08847e-05
0.001867
1.10023e-08
-9.44647e-06
0.00188446
9.31406e-08
-8.74199e-06
0.00190267
2.67135e-07
-9.08373e-06
0.00191143
9.80478e-07
-4.63321e-06
0.00193457
2.44158e-06
-1.16641e-05
0.00191372
8.14715e-06
8.53965e-06
0.00191738
2.86012e-05
-7.39563e-06
0.00163787
0.000150369
0.000101793
0.00114622
0.000867272
0.00017593
0.00112549
0.00099644
-8.31587e-05
0.000990524
0.00112065
-3.21892e-05
0.000759537
0.00124127
-1.66924e-06
0.000109625
0.00136636
0.00028133
-0.000246458
0.00153346
3.52566e-05
-0.000354703
0.00165333
-9.84193e-05
-0.000358982
0.00180576
-0.000159609
-0.000255125
0.00190481
-0.000216706
0.00184282
-0.000291934
0.00169386
-2.52261e-09
-7.16007e-06
0.00171917
9.57777e-11
-1.26585e-05
0.00174797
-2.19525e-09
-1.43991e-05
0.00177622
3.11252e-10
-1.41242e-05
0.00180265
-7.04807e-11
-1.32151e-05
0.00182633
1.35634e-09
-1.18394e-05
0.00184812
5.24962e-09
-1.08952e-05
0.001867
2.05265e-08
-9.42412e-06
0.00188471
8.85182e-08
-8.81005e-06
0.00190219
4.50209e-07
-8.99983e-06
0.00191452
9.56387e-07
-5.13555e-06
0.00193096
3.83298e-06
-1.0941e-05
0.00192403
9.49029e-06
7.15333e-06
0.00191139
3.78254e-05
-6.51131e-06
0.0016519
0.000188073
0.000109074
0.00115139
0.00103009
0.000110571
0.00113315
0.00117524
-7.99648e-05
0.00100312
0.00130338
-2.90259e-05
0.000772439
0.00145229
8.98542e-06
0.000232884
0.0016376
8.9506e-05
-0.00012295
0.00180131
4.13947e-05
-0.000258986
0.0019484
-8.20272e-05
-0.000284657
0.00212403
-0.000146319
-0.000207421
0.00224195
-0.000204582
0.00220954
-0.000281109
0.00169386
-3.31115e-09
-7.16372e-06
0.00171917
7.76839e-11
-1.26542e-05
0.00174797
-2.29508e-09
-1.44042e-05
0.00177621
8.17474e-10
-1.41163e-05
0.00180265
9.66459e-10
-1.3222e-05
0.00182633
3.70166e-10
-1.18372e-05
0.00184811
1.08257e-08
-1.08918e-05
0.00186701
1.6772e-08
-9.47753e-06
0.00188469
1.37688e-07
-8.88964e-06
0.00190239
4.4361e-07
-8.67032e-06
0.00191405
1.47448e-06
-7.05307e-06
0.00193198
3.94758e-06
-7.08684e-06
0.00192248
1.25349e-05
-1.0968e-06
0.0019124
4.42212e-05
9.73248e-06
0.0016658
0.000218532
0.000105769
0.00116688
0.00118908
0.000222026
0.00114829
0.00134888
-7.90542e-05
0.00102421
0.00147536
-2.50087e-05
0.000800391
0.00164636
1.35588e-05
0.000377142
0.00188524
8.66016e-05
1.28418e-05
0.00207443
4.34803e-05
-0.000141117
0.00222913
-6.52461e-05
-0.000181821
0.00243031
-0.000132749
-0.000137783
0.00258642
-0.000191957
0.00261307
-0.000266208
0.00169386
-3.92645e-09
-7.1661e-06
0.00171916
2.82251e-09
-1.26512e-05
0.00174798
-2.37607e-09
-1.4408e-05
0.0017762
3.15068e-09
-1.41107e-05
0.00180266
9.05115e-10
-1.32292e-05
0.00182631
2.04645e-09
-1.1827e-05
0.00184812
1.00683e-08
-1.09055e-05
0.00186702
2.58202e-08
-9.4587e-06
0.0018849
1.1231e-07
-8.92964e-06
0.00190177
6.79779e-07
-8.55219e-06
0.00191743
1.11871e-06
-7.61797e-06
0.00192813
5.43451e-06
-6.16061e-06
0.0019346
1.18401e-05
-2.73286e-06
0.00190747
4.90635e-05
1.10612e-05
0.00168401
0.000235972
0.00010638
0.00118356
0.00131608
0.000124257
0.00116749
0.00151174
-7.53894e-05
0.00105577
0.00163567
-2.58262e-05
0.000848548
0.00182289
1.42587e-05
0.000497
0.00209445
6.97572e-05
0.0001708
0.00232051
3.82376e-05
5.11634e-06
0.00248985
-4.89757e-05
-5.36266e-05
0.00272472
-0.000117779
-3.66959e-05
0.0029286
-0.000177387
0.00306682
-0.000242017
0.00169386
-1.05588e-09
-7.1653e-06
0.00171916
6.93864e-09
-1.26532e-05
0.00174797
-6.46272e-09
-1.4405e-05
0.00177619
1.27031e-08
-1.41133e-05
0.00180266
-1.31665e-08
-1.32261e-05
0.0018263
1.77739e-08
-1.18287e-05
0.00184812
1.92782e-09
-1.09042e-05
0.00186704
2.00112e-08
-9.45744e-06
0.00188462
3.17495e-07
-8.89815e-06
0.00190216
4.84051e-07
-8.68222e-06
0.00191507
2.29256e-06
-7.04012e-06
0.00193219
3.53541e-06
-7.67176e-06
0.00192329
1.78901e-05
1.40025e-06
0.00192907
4.47942e-05
-9.33922e-07
0.00171449
0.000237672
0.000106232
0.0012189
0.00139657
0.000236475
0.00119221
0.00166579
-6.49991e-05
0.00108921
0.00178533
-2.40409e-05
0.000905552
0.00197646
1.43505e-05
0.000620388
0.00226903
5.47475e-05
0.000340548
0.0025334
3.26391e-05
0.000180142
0.0027202
-3.60654e-05
0.000113735
0.00298527
-9.6976e-05
0.000108314
0.00324735
-0.000154424
0.00359486
-0.000207709
0.00169385
-7.16393e-06
9.85761e-09
0.00171917
-1.2657e-05
1.92011e-09
0.00174797
-1.43994e-05
-9.20758e-09
0.0017762
-1.41225e-05
3.00725e-08
0.00180267
-1.32125e-05
-6.1846e-08
0.00182626
-1.18431e-05
1.16496e-07
0.00184824
-1.08924e-05
-1.9483e-07
0.00186675
-9.45769e-06
4.19112e-07
0.00188532
-8.93873e-06
-3.65665e-07
0.00190107
-8.66498e-06
2.03925e-06
0.00192081
-6.96541e-06
-3.52173e-06
0.00192133
-7.82532e-06
1.85431e-05
0.00194927
1.93382e-06
-1.40845e-05
0.00192721
-7.02031e-06
8.08522e-05
0.00176647
0.00010308
0.000190366
0.00126791
0.000209967
0.00146955
0.00121651
-5.14516e-05
0.00181895
0.00112727
-2.06081e-05
0.00191542
0.000970685
1.36814e-05
0.00210494
0.000745726
4.22542e-05
0.00240794
0.000525617
2.95515e-05
0.00269272
0.000391491
-2.83237e-05
0.00290946
0.000344507
-8.00176e-05
0.00319221
0.000330274
-0.000116283
0.00349739
-0.00014908
0.00422621
0.00172976
1.01792e-08
-5.87337e-05
0.00176404
-7.65724e-09
-4.69226e-05
0.00178821
9.19894e-09
-3.8584e-05
0.00180604
-9.61653e-09
-3.19384e-05
0.00181988
1.07055e-08
-2.70679e-05
0.00183055
-1.20671e-08
-2.25006e-05
0.00183939
1.66607e-08
-1.97434e-05
0.00184581
2.38132e-08
-1.59419e-05
0.0018517
1.99547e-07
-1.50458e-05
0.00185706
-1.16264e-07
-1.39018e-05
0.00185576
1.7519e-06
-7.96857e-06
0.00186621
-1.08513e-06
-1.63312e-05
0.00183649
5.02356e-06
2.15493e-05
0.00188428
3.03404e-06
-4.46834e-05
0.00175846
-1.09864e-05
0.000264151
0.00159535
3.43062e-06
0.000251738
0.00137244
0.000166536
-7.29307e-05
0.00130589
0.000162773
-0.000146693
0.00122863
9.44006e-05
-4.70253e-05
0.00125578
-2.81363e-05
-2.13799e-05
0.00112907
9.62208e-05
-2.56078e-06
0.000806924
0.000209141
-1.57889e-05
0.000417777
0.000275489
-9.49022e-05
7.26915e-05
0.000317187
-0.000285307
0.00031911
-0.000645977
0.00172974
-5.1933e-09
-5.86766e-05
0.00176405
9.79813e-09
-4.69868e-05
0.00178819
-5.36684e-09
-3.85286e-05
0.00180605
1.02788e-08
-3.19979e-05
0.00181986
-9.95641e-09
-2.70051e-05
0.00183057
1.2301e-08
-2.25774e-05
0.00183936
-1.84973e-08
-1.96424e-05
0.0018461
-9.37935e-09
-1.61588e-05
0.00185268
-1.46805e-07
-1.50378e-05
0.00185548
3.23059e-07
-1.23641e-05
0.00186926
-1.38985e-06
-1.56592e-05
0.00184901
2.67169e-06
4.82457e-06
0.00188986
-2.28681e-06
-2.6307e-05
0.00181656
7.9825e-06
5.99824e-05
0.00176388
5.51669e-05
9.74005e-05
0.00144211
0.000359742
0.000321234
0.00129931
0.00029512
-8.9569e-05
0.00121755
0.000333234
-0.000134025
0.000937807
0.000360751
-3.72756e-05
0.00108882
0.000417591
4.9974e-05
0.000790382
0.000389465
-1.25122e-05
0.000519527
0.000410315
-3.99656e-05
0.00019978
0.000505257
-9.83758e-05
-5.85125e-05
0.000593629
-0.000286396
0.000540572
-0.000617048
0.00172975
9.08873e-09
-5.87241e-05
0.00176405
-6.2402e-09
-4.69325e-05
0.00178821
7.91838e-09
-3.85762e-05
0.00180605
-7.96085e-09
-3.19475e-05
0.00181988
8.19884e-09
-2.70599e-05
0.00183057
-1.02788e-08
-2.2509e-05
0.00183938
1.36978e-08
-1.97363e-05
0.0018458
2.41008e-08
-1.59425e-05
0.00185156
1.99727e-07
-1.50532e-05
0.00185701
-5.98564e-08
-1.37202e-05
0.00185401
1.84905e-06
-7.80253e-06
0.00186612
-5.61741e-07
-1.5683e-05
0.00183063
6.66945e-06
2.31607e-05
0.00187653
1.05763e-05
-4.1582e-05
0.00175202
3.30486e-05
0.000263601
0.00153355
0.000362945
0.000254825
0.00131901
0.000468163
-5.80093e-05
0.00122486
0.000516966
-0.00012641
0.000992363
0.000587669
-2.26642e-05
0.0010785
0.000730053
5.16499e-05
0.000805653
0.000669075
5.4571e-06
0.000467071
0.000662649
-2.27692e-05
0.000127504
0.000754185
-8.94879e-05
-9.21285e-05
0.000845953
-0.000276219
0.000734009
-0.000591524
0.00172973
1.30523e-09
-5.86717e-05
0.00176406
2.75374e-10
-4.69918e-05
0.00178819
-1.13151e-10
-3.85257e-05
0.00180606
-6.04941e-10
-3.20019e-05
0.00181986
-1.66737e-09
-2.70045e-05
0.00183058
1.32989e-09
-2.25776e-05
0.00183936
-2.31136e-09
-1.96519e-05
0.00184607
1.73853e-08
-1.6149e-05
0.00185255
5.32675e-08
-1.51279e-05
0.0018557
2.57954e-07
-1.25231e-05
0.00186813
4.43657e-07
-1.60643e-05
0.00185075
1.98798e-06
3.57152e-06
0.00188703
4.37368e-06
-2.68496e-05
0.00181127
1.77273e-05
6.12636e-05
0.00177382