/*--------------------------------*- C++ -*----------------------------------*\
  =========                 |
  \\      /  F ield         | OpenFOAM: The Open Source CFD Toolbox
   \\    /   O peration     | Website:  https://openfoam.org
    \\  /    A nd           | Version:  6
     \\/     M anipulation  |
\*---------------------------------------------------------------------------*/
FoamFile
{
    version     2.0;
    format      ascii;
    class       volScalarField;
    location    "5.5";
    object      T;
}
// * * * * * * * * * * * * * * * * * * * * * * * * * * * * * * * * * * * * * //

dimensions      [0 0 0 1 0 0 0];

internalField   nonuniform List<scalar> 
26250
(
0.980092
0.967407
0.95585
0.946621
0.937789
0.931042
0.924365
0.920666
0.920054
0.928155
0.944478
1.01385
1.14486
1.61607
2.54288
2.71392
2.6723
2.63484
2.59372
2.60652
2.61313
2.63231
2.66892
2.72009
2.71477
0.980097
0.967401
0.955854
0.946616
0.937794
0.931036
0.924368
0.92065
0.920041
0.928088
0.94431
1.01343
1.14381
1.61392
2.5395
2.71193
2.67122
2.63146
2.59395
2.59408
2.60623
2.63249
2.66464
2.72004
2.71147
0.980109
0.967388
0.955867
0.946603
0.937806
0.931024
0.924375
0.92061
0.920004
0.927947
0.943935
1.0127
1.14155
1.61183
2.5392
2.71958
2.68221
2.63774
2.60272
2.60235
2.61572
2.64268
2.67637
2.72912
2.71921
0.98018
0.967318
0.955941
0.946531
0.93788
0.930951
0.924431
0.920487
0.919948
0.927627
0.941479
1.01149
1.13631
1.60804
2.5302
2.71073
2.67142
2.63327
2.59904
2.6065
2.6195
2.64695
2.68043
2.7362
2.73661
0.980823
0.966665
0.956608
0.945848
0.938569
0.930238
0.925177
0.919827
0.922454
0.922436
0.948145
0.98898
1.16299
1.6199
2.39564
2.6851
2.64461
2.61195
2.58117
2.58495
2.60036
2.63154
2.66779
2.72683
2.7349
0.980302
0.967196
0.956069
0.946406
0.938007
0.930823
0.924524
0.92027
0.919798
0.926799
0.937787
1.00734
1.12263
1.58847
2.48743
2.68799
2.6466
2.61091
2.57686
2.57852
2.59291
2.62204
2.65829
2.71752
2.72992
0.98073
0.966759
0.956515
0.945942
0.938479
0.930317
0.925076
0.919714
0.921513
0.921513
0.945999
0.984173
1.1507
1.57223
2.34014
2.65663
2.61921
2.59408
2.56348
2.56403
2.57959
2.60835
2.64538
2.70651
2.72399
0.980357
0.967142
0.956128
0.946343
0.938059
0.930758
0.924543
0.92006
0.91963
0.92596
0.937417
1.00106
1.10691
1.55279
2.43413
2.65382
2.62315
2.59007
2.55415
2.55349
2.56671
2.59351
2.62764
2.69038
2.70864
0.980357
0.967135
0.956121
0.946344
0.938058
0.930755
0.924548
0.920021
0.919562
0.925417
0.937557
0.996452
1.09825
1.52122
2.38851
2.62807
2.61545
2.58171
2.54484
2.54133
2.55183
2.57406
2.6018
2.66295
2.67433
0.979431
0.968074
0.955176
0.947305
0.937109
0.931718
0.923622
0.921033
0.918745
0.924292
0.93382
0.991874
1.08301
1.50778
2.36147
2.60308
2.59926
2.57156
2.53759
2.53137
2.53991
2.55286
2.56932
2.60597
2.58566
1.01423
1.02101
1.02632
1.02895
1.03186
1.03303
1.03516
1.037
1.04502
1.05758
1.09563
1.18917
1.40738
2.03078
2.82759
2.70126
2.80643
2.76723
2.76512
2.77046
2.77645
2.79037
2.82313
2.83076
2.75898
1.01423
1.02101
1.02632
1.02895
1.03186
1.03303
1.03516
1.037
1.04498
1.05754
1.09545
1.18892
1.40651
2.02789
2.82633
2.71
2.80151
2.76114
2.75296
2.76181
2.77309
2.7827
2.80896
2.83564
2.76615
1.01423
1.02101
1.02632
1.02895
1.03186
1.03303
1.03516
1.03698
1.04492
1.05737
1.09514
1.18776
1.40451
2.02053
2.8277
2.68427
2.80344
2.76205
2.75212
2.76051
2.774
2.78107
2.79927
2.83321
2.76812
1.01423
1.02101
1.02632
1.02895
1.03186
1.03303
1.03515
1.03694
1.04479
1.05708
1.09462
1.186
1.40149
2.01456
2.82169
2.71239
2.79393
2.75127
2.74982
2.75683
2.77132
2.77743
2.79217
2.82765
2.76765
1.01421
1.02106
1.02628
1.02901
1.03181
1.03309
1.03506
1.03684
1.04387
1.05764
1.08922
1.19164
1.38889
2.00746
2.8187
2.7211
2.79443
2.74732
2.74246
2.74788
2.76046
2.76884
2.78057
2.81534
2.7645
1.01423
1.02101
1.02632
1.02896
1.03185
1.03303
1.03511
1.03683
1.0444
1.05617
1.0928
1.17971
1.38951
1.96959
2.81247
2.72082
2.78955
2.73996
2.73528
2.73966
2.74877
2.75511
2.76709
2.8015
2.75675
1.01419
1.02107
1.02627
1.02902
1.0318
1.03308
1.03503
1.03673
1.04347
1.0565
1.08685
1.1842
1.37218
1.93485
2.81251
2.72602
2.78476
2.72968
2.72554
2.72977
2.73789
2.7389
2.74631
2.77875
2.73931
1.01422
1.02102
1.02631
1.02897
1.03184
1.03304
1.03507
1.03669
1.04381
1.05486
1.08989
1.16975
1.36907
1.87678
2.79571
2.7237
2.77159
2.72135
2.71177
2.71419
2.72118
2.72232
2.72194
2.75043
2.71381
1.01422
1.02102
1.02631
1.02897
1.03184
1.03303
1.03506
1.03662
1.04355
1.05415
1.08762
1.16712
1.35185
1.84684
2.78612
2.72587
2.74252
2.70885
2.70287
2.69986
2.6993
2.69713
2.69334
2.70657
2.65426
1.01414
1.02107
1.02624
1.029
1.03179
1.03305
1.03501
1.03652
1.04305
1.05336
1.08444
1.1638
1.33686
1.82473
2.77169
2.73859
2.71502
2.68007
2.68292
2.68476
2.67927
2.66997
2.65048
2.6528
2.57202
1.00629
1.01273
1.02145
1.02806
1.03563
1.04068
1.04703
1.0518
1.06239
1.07906
1.12387
1.23334
1.47527
2.16757
2.88252
2.49328
2.78642
2.76511
2.76785
2.73054
2.81116
2.81184
2.81188
2.81249
2.76981
1.00631
1.01271
1.02147
1.02803
1.03565
1.04066
1.04705
1.05177
1.06244
1.07884
1.12415
1.23175
1.47545
2.17108
2.88033
2.496
2.78477
2.7616
2.76582
2.73075
2.80671
2.80795
2.80703
2.80829
2.76486
1.00629
1.01273
1.02145
1.02806
1.03563
1.04068
1.04702
1.05178
1.0623
1.07889
1.12335
1.2323
1.47241
2.16415
2.87749
2.5063
2.78094
2.75372
2.7599
2.7284
2.79823
2.80162
2.79783
2.79866
2.75723
1.00631
1.01271
1.02147
1.02803
1.03565
1.04066
1.04704
1.05173
1.06226
1.07851
1.12316
1.22965
1.46976
2.16213
2.87308
2.52567
2.78491
2.75138
2.75655
2.71782
2.79228
2.79361
2.78889
2.79013
2.74972
1.00634
1.01268
1.0215
1.02801
1.03568
1.04063
1.04706
1.05167
1.06217
1.078
1.12267
1.22614
1.46507
2.15166
2.8683
2.54183
2.78381
2.74666
2.75269
2.71409
2.77745
2.78163
2.77431
2.77171
2.73426
1.00633
1.01269
1.02149
1.02802
1.03566
1.04064
1.04704
1.05163
1.06188
1.07763
1.12104
1.22372
1.45611
2.12607
2.86258
2.56201
2.78016
2.73836
2.74383
2.70545
2.76293
2.7684
2.75838
2.75729
2.72044
1.00635
1.01267
1.02151
1.02799
1.03569
1.04061
1.04705
1.05154
1.06163
1.0769
1.11953
1.21848
1.44538
2.09468
2.85476
2.58545
2.77474
2.72902
2.73565
2.6999
2.73733
2.74904
2.73839
2.72886
2.68979
1.00635
1.01267
1.0215
1.028
1.03568
1.04062
1.04703
1.05147
1.0612
1.07625
1.11712
1.21416
1.43129
2.05306
2.84396
2.61093
2.76754
2.71464
2.71847
2.68714
2.7125
2.72835
2.71079
2.70001
2.66001
1.0064
1.01262
1.02155
1.02795
1.03573
1.04056
1.04706
1.05135
1.0609
1.07516
1.11545
1.20594
1.41845
2.00917
2.82404
2.63711
2.75871
2.70409
2.70753
2.67715
2.683
2.70057
2.67942
2.65549
2.59056
1.00633
1.01268
1.02149
1.02801
1.03566
1.04061
1.04699
1.05123
1.06027
1.07442
1.1123
1.20234
1.40194
1.94367
2.80528
2.67077
2.7416
2.68176
2.68666
2.65906
2.65505
2.66735
2.63894
2.60178
2.49414
1.01423
1.02101
1.02632
1.02895
1.03186
1.03303
1.03516
1.03698
1.04498
1.05749
1.09555
1.18903
1.40811
2.03882
2.82985
2.68748
2.80079
2.76363
2.75186
2.76177
2.76988
2.7865
2.80001
2.83441
2.78357
1.01421
1.02105
1.02628
1.02901
1.03181
1.03309
1.03508
1.03692
1.04414
1.05839
1.0908
1.19666
1.40045
2.03943
2.83991
2.6676
2.80509
2.76776
2.76541
2.77526
2.78056
2.79659
2.81177
2.83267
2.76886
1.01423
1.02101
1.02632
1.02895
1.03186
1.03303
1.03515
1.03695
1.04488
1.05723
1.09514
1.18743
1.40557
2.03627
2.82448
2.69625
2.79719
2.75627
2.75679
2.76462
2.77179
2.78997
2.80943
2.82666
2.76572
1.01421
1.02105
1.02629
1.029
1.03182
1.03308
1.03507
1.03688
1.04406
1.058
1.09013
1.19414
1.39468
2.03424
2.82041
2.70829
2.79955
2.75505
2.74828
2.7578
2.7683
2.77747
2.80287
2.82154
2.76302
1.01422
1.02105
1.02629
1.029
1.03182
1.03308
1.03507
1.03685
1.04398
1.05761
1.08953
1.19175
1.38955
2.01706
2.81561
2.71924
2.7962
2.75005
2.74416
2.74972
2.76167
2.76755
2.7879
2.81077
2.75803
1.01421
1.02105
1.02629
1.029
1.03181
1.03308
1.03505
1.03678
1.04376
1.05712
1.08839
1.18847
1.38201
1.98272
2.81361
2.7246
2.79245
2.74414
2.73677
2.74032
2.74916
2.75434
2.7743
2.79978
2.75015
1.01423
1.02101
1.02631
1.02896
1.03185
1.03303
1.0351
1.03677
1.04415
1.05566
1.09136
1.17582
1.37962
1.92424
2.80602
2.72233
2.78453
2.73203
2.72829
2.7326
2.73818
2.73689
2.74871
2.77689
2.7328
1.01422
1.02102
1.02631
1.02897
1.03184
1.03303
1.03507
1.0367
1.04383
1.05493
1.0898
1.17011
1.36835
1.86871
2.79475
2.72466
2.76497
2.71903
2.71172
2.71525
2.72269
2.72198
2.72391
2.75082
2.7076
1.01422
1.02102
1.02631
1.02896
1.03184
1.03303
1.03506
1.03662
1.04356
1.05417
1.08765
1.16724
1.35174
1.84667
2.78603
2.72743
2.73999
2.70612
2.70176
2.70005
2.69968
2.69556
2.69375
2.70567
2.64814
1.01414
1.02107
1.02624
1.029
1.03179
1.03305
1.03502
1.03652
1.04306
1.05338
1.0845
1.16388
1.33706
1.82465
2.7714
2.73893
2.71426
2.67746
2.67987
2.68421
2.67992
2.66994
2.65191
2.65372
2.56693
0.980158
0.967338
0.955919
0.946551
0.937859
0.930973
0.924419
0.920544
0.920002
0.927948
0.94209
1.01399
1.14171
1.62406
2.55995
2.72276
2.68234
2.63937
2.6022
2.6014
2.61173
2.63964
2.66943
2.72723
2.70374
0.980882
0.966602
0.956669
0.945783
0.938633
0.930173
0.925259
0.919834
0.922872
0.922914
0.949679
0.991491
1.17617
1.65398
2.42928
2.70548
2.6658
2.62608
2.5891
2.60351
2.61037
2.63501
2.66655
2.71977
2.70069
0.980218
0.967279
0.955983
0.946491
0.937923
0.930912
0.924471
0.920456
0.91997
0.927699
0.939742
1.01263
1.13397
1.6221
2.55382
2.72132
2.67925
2.64065
2.60366
2.61668
2.62487
2.64859
2.68209
2.7366
2.72886
0.980887
0.966597
0.956676
0.94578
0.93864
0.930175
0.925262
0.919874
0.92297
0.923401
0.949367
0.99445
1.1696
1.63516
2.40206
2.68743
2.64808
2.61406
2.58434
2.58817
2.60265
2.63398
2.66703
2.72826
2.72966
0.980856
0.966632
0.956644
0.945816
0.938604
0.930215
0.92521
0.91993
0.922779
0.924111
0.948611
0.993948
1.16398
1.59978
2.39641
2.68666
2.6459
2.61167
2.5809
2.58472
2.59849
2.62831
2.66233
2.72246
2.73211
0.980813
0.966674
0.956599
0.945858
0.938562
0.930244
0.925169
0.919816
0.922304
0.92285
0.94749
0.989591
1.15799
1.59045
2.37104
2.67051
2.63018
2.59938
2.5672
2.56791
2.58205
2.61136
2.64806
2.70849
2.72867
0.980316
0.967175
0.956081
0.946389
0.938017
0.930806
0.924502
0.92013
0.919658
0.926667
0.939182
1.00483
1.11668
1.56937
2.46094
2.67186
2.63261
2.59915
2.56486
2.56185
2.57745
2.59839
2.63795
2.68944
2.71978
0.980312
0.967184
0.956069
0.946401
0.937998
0.930808
0.9245
0.920045
0.919547
0.926149
0.939429
1.00077
1.10906
1.54581
2.42829
2.65095
2.62936
2.59342
2.55958
2.55652
2.57242
2.59065
2.62898
2.67627
2.70133
0.980353
0.967137
0.956115
0.946346
0.938052
0.930756
0.924546
0.920024
0.919507
0.925495
0.937651
0.996545
1.09831
1.52113
2.38877
2.62677
2.61495
2.58134
2.54622
2.54308
2.55828
2.57426
2.60911
2.65681
2.6661
0.979483
0.968014
0.955233
0.947244
0.937171
0.931658
0.923685
0.920978
0.918825
0.924355
0.933985
0.99192
1.08272
1.50772
2.36174
2.60284
2.59888
2.57045
2.53801
2.53141
2.54223
2.55315
2.57177
2.61151
2.58142
0.981065
0.96644
0.956834
0.945624
0.938797
0.929978
0.925331
0.919078
0.91982
0.919932
0.939665
0.969592
1.11298
1.42387
2.14752
2.54948
2.55932
2.53907
2.51513
2.51304
2.5185
2.52975
2.5285
2.52204
2.43047
0.97917
0.968375
0.954885
0.947623
0.936807
0.932023
0.923297
0.921104
0.917426
0.922405
0.930052
0.98156
1.06656
1.43262
2.22597
2.51425
2.53089
2.5105
2.48575
2.47983
2.48111
2.48046
2.47224
2.44806
2.34996
0.980873
0.96673
0.956609
0.945869
0.938584
0.930204
0.925058
0.919131
0.918725
0.919181
0.93508
0.959912
1.08645
1.33339
2.0023
2.46786
2.50383
2.48965
2.47233
2.46336
2.45956
2.45155
2.43329
2.40111
2.32505
0.979434
0.968092
0.955166
0.947316
0.937109
0.931682
0.923585
0.920474
0.916614
0.920474
0.928231
0.969223
1.04617
1.33575
2.03402
2.39632
2.45528
2.44681
2.43884
2.43007
2.42376
2.41506
2.39689
2.36357
2.30923
0.979526
0.968003
0.955253
0.947227
0.937207
0.931569
0.923678
0.920205
0.916011
0.919311
0.925087
0.961081
1.01982
1.27005
1.91686
2.33939
2.43583
2.43363
2.42217
2.40549
2.39295
2.37518
2.35562
2.32054
2.27382
0.980643
0.966859
0.956431
0.946025
0.938412
0.93033
0.92487
0.918763
0.91642
0.915929
0.92575
0.94279
1.02019
1.1609
1.64287
2.22578
2.3978
2.40625
2.40258
2.38733
2.37106
2.35098
2.32679
2.29227
2.24541
0.980357
0.967157
0.956136
0.946335
0.938114
0.930634
0.924554
0.918896
0.915389
0.914896
0.922208
0.936801
0.993087
1.09928
1.46631
2.09768
2.33418
2.34926
2.35755
2.34705
2.33496
2.31895
2.299
2.26817
2.22744
0.980194
0.967317
0.955975
0.946495
0.937955
0.930789
0.924393
0.919021
0.915087
0.914811
0.919022
0.9315
0.97165
1.06336
1.36011
1.99259
2.28254
2.32397
2.31923
2.30849
2.29321
2.28038
2.26417
2.24024
2.20781
0.981173
0.96632
0.95698
0.945467
0.938973
0.92975
0.925405
0.917973
0.916003
0.913418
0.916621
0.925629
0.958861
1.03527
1.26848
1.87939
2.24299
2.31277
2.30873
2.2903
2.27166
2.25036
2.23243
2.20875
2.18212
0.979833
0.967688
0.955585
0.946904
0.937527
0.931248
0.923878
0.919475
0.913935
0.912779
0.912332
0.922691
0.941277
1.01554
1.16405
1.59484
2.11316
2.27253
2.28597
2.27782
2.25963
2.23478
2.21194
2.18592
2.15679
0.980738
0.966758
0.956516
0.945943
0.938473
0.930281
0.924807
0.918476
0.914692
0.910864
0.912547
0.916311
0.936735
0.978228
1.09868
1.50268
1.96029
2.19846
2.22527
2.24066
2.23243
2.21698
2.19824
2.17542
2.14719
0.980366
0.967146
0.956128
0.946343
0.938086
0.930672
0.924405
0.918885
0.914162
0.910893
0.910604
0.914462
0.924073
0.961187
1.03937
1.29353
1.85856
2.13541
2.1924
2.19921
2.19176
2.18001
2.16388
2.14984
2.13061
0.980599
0.966899
0.956337
0.946128
0.938376
0.930275
0.924788
0.918602
0.914226
0.910316
0.909793
0.910135
0.920059
0.945155
1.00723
1.20388
1.58509
2.05799
2.18098
2.18278
2.17577
2.1561
2.13322
2.1124
2.09373
0.980591
0.966899
0.956379
0.946076
0.938361
0.930352
0.924749
0.918463
0.914434
0.909755
0.908321
0.907926
0.915217
0.929297
0.980638
1.07506
1.39532
1.8838
2.12152
2.15282
2.15434
2.14446
2.12385
2.10203
2.07715
0.980262
0.967243
0.956037
0.946431
0.938004
0.930737
0.924373
0.918825
0.91407
0.909895
0.907107
0.906792
0.91113
0.920128
0.955567
1.01626
1.26836
1.76315
2.03626
2.11578
2.12413
2.11997
2.1066
2.08533
2.0639
0.9808
0.966728
0.956558
0.945923
0.938501
0.930245
0.924844
0.918351
0.914508
0.909423
0.907386
0.906147
0.908117
0.915144
0.936653
0.988131
1.13401
1.55599
1.93408
2.08585
2.10482
2.10392
2.09287
2.07404
2.05307
0.980674
0.966834
0.956455
0.946015
0.938417
0.930326
0.924773
0.918424
0.914424
0.909461
0.907021
0.904906
0.906241
0.910818
0.923374
0.962535
1.04351
1.34717
1.74639
2.01403
2.07243
2.07904
2.07515
2.06125
2.0398
0.980596
0.966908
0.956376
0.946094
0.93833
0.930415
0.924681
0.918507
0.914315
0.909538
0.90652
0.90366
0.904545
0.906373
0.915748
0.938611
0.999975
1.15428
1.52618
1.9073
2.0334
2.04968
2.05494
2.04637
2.03008
0.980425
0.967081
0.956198
0.94627
0.938154
0.930592
0.924504
0.918696
0.914134
0.909679
0.906336
0.903327
0.902725
0.903444
0.908814
0.923952
0.96314
1.05205
1.30965
1.77453
1.96765
2.01069
2.0187
2.01784
2.00813
0.980406
0.967093
0.956183
0.946277
0.938147
0.93059
0.924504
0.918688
0.914141
0.909641
0.906329
0.902972
0.901473
0.901322
0.904845
0.914491
0.939868
0.997061
1.17781
1.59065
1.89034
1.99279
2.00334
2.0022
1.9919
0.980182
0.967325
0.955949
0.946517
0.93791
0.930829
0.924267
0.918931
0.913894
0.909884
0.906073
0.903082
0.90074
0.900645
0.902011
0.908107
0.922157
0.963441
1.05582
1.37025
1.73555
1.93961
1.97956
1.98275
1.97936
0.980607
0.966896
0.956385
0.946094
0.938338
0.930391
0.924729
0.918461
0.914319
0.909522
0.906366
0.902688
0.90089
0.898891
0.899976
0.902372
0.913243
0.936724
1.00225
1.17106
1.50552
1.84928
1.95342
1.96654
1.96716
0.980469
0.967036
0.956245
0.946223
0.938206
0.930534
0.924561
0.918634
0.914176
0.909612
0.90628
0.902804
0.900431
0.898271
0.8987
0.899762
0.905288
0.920654
0.958772
1.04854
1.2798
1.68491
1.88366
1.93094
1.93922
0.980401
0.967103
0.956172
0.946291
0.938131
0.930607
0.924484
0.91871
0.914111
0.909668
0.906237
0.902822
0.90034
0.897909
0.897172
0.897219
0.900853
0.909254
0.935298
0.984751
1.15807
1.52622
1.79404
1.90374
1.92409
0.980286
0.967216
0.95606
0.946405
0.93802
0.930721
0.924374
0.91882
0.914005
0.909771
0.906138
0.902908
0.900225
0.89783
0.896388
0.896302
0.897979
0.903932
0.915963
0.953303
1.03184
1.30836
1.62839
1.84113
1.8965
0.980432
0.967071
0.956209
0.946255
0.938169
0.930569
0.924524
0.918668
0.914154
0.909619
0.906282
0.902759
0.900349
0.897638
0.896209
0.895377
0.896076
0.899359
0.905743
0.93016
0.975621
1.11121
1.41015
1.73638
1.86357
0.980469
0.967035
0.956243
0.946223
0.9382
0.93054
0.924551
0.918642
0.914176
0.9096
0.906296
0.902754
0.900329
0.897629
0.895914
0.894303
0.894752
0.89585
0.900531
0.912654
0.94569
1.0121
1.21543
1.58868
1.79297
0.980297
0.967211
0.956067
0.946403
0.938022
0.930723
0.924371
0.918827
0.913996
0.909785
0.906117
0.902932
0.900156
0.897778
0.895718
0.894171
0.893664
0.894241
0.896412
0.904853
0.920202
0.967512
1.07263
1.37089
1.68503
0.980289
0.967213
0.956063
0.9464
0.938024
0.930716
0.92438
0.918814
0.91401
0.909766
0.906137
0.902905
0.900187
0.897731
0.895738
0.893944
0.892957
0.892939
0.894286
0.899235
0.907993
0.939077
0.995385
1.19158
1.49778
0.980401
0.967104
0.956176
0.946291
0.938134
0.930607
0.924486
0.918708
0.914114
0.90966
0.906241
0.902801
0.90029
0.897623
0.895831
0.89378
0.892792
0.892313
0.892918
0.895735
0.901222
0.921072
0.958894
1.07118
1.31115
0.980407
0.9671
0.956183
0.946287
0.938141
0.930602
0.924491
0.9187
0.914119
0.909652
0.906246
0.902794
0.900296
0.897618
0.895828
0.893762
0.892654
0.891744
0.892221
0.893939
0.898774
0.912919
0.949602
1.02928
1.28548
0.980378
0.967125
0.95616
0.946309
0.938119
0.930626
0.924465
0.91873
0.914087
0.909686
0.906209
0.902829
0.900252
0.897657
0.895778
0.893791
0.89256
0.891572
0.891967
0.893588
0.897537
0.912788
0.942845
1.03271
1.26862
0.980394
0.96711
0.956172
0.946298
0.938129
0.930621
0.924471
0.918729
0.914096
0.909673
0.906234
0.902803
0.900279
0.897633
0.895801
0.893754
0.892541
0.891324
0.891751
0.892822
0.89737
0.909196
0.94504
1.01744
1.28409
0.980404
0.967107
0.956178
0.946295
0.938137
0.930606
0.924491
0.918704
0.91412
0.909662
0.906234
0.902822
0.900254
0.897658
0.89578
0.893757
0.892513
0.891238
0.891597
0.892659
0.896938
0.908558
0.942437
1.01284
1.26939
0.980457
0.967068
0.956207
0.946291
0.938129
0.930635
0.924464
0.918728
0.914098
0.909664
0.906221
0.902806
0.90026
0.897626
0.895793
0.893747
0.892493
0.891185
0.89163
0.892203
0.896535
0.906548
0.940119
1.0029
1.24762
0.980407
0.967122
0.95617
0.946318
0.938126
0.93063
0.924478
0.918723
0.914099
0.909672
0.906218
0.902807
0.900262
0.89763
0.895781
0.893762
0.892477
0.891185
0.891598
0.892352
0.895926
0.907109
0.933484
1.00094
1.19905
0.980388
0.967135
0.956162
0.946319
0.938125
0.930628
0.924471
0.918727
0.914088
0.909678
0.906209
0.902814
0.900254
0.897641
0.895772
0.893777
0.892459
0.891194
0.891504
0.89227
0.89554
0.906799
0.93059
1.0002
1.18037
0.980406
0.967162
0.956157
0.94634
0.938123
0.930619
0.924478
0.918694
0.914112
0.909616
0.90627
0.902722
0.900343
0.897541
0.895875
0.893659
0.892573
0.891
0.891249
0.891594
0.895434
0.904092
0.932022
0.988302
1.17743
0.980382
0.967147
0.956171
0.946327
0.938132
0.930636
0.924466
0.918728
0.914079
0.909673
0.906198
0.902815
0.900242
0.897644
0.895765
0.893782
0.892448
0.891183
0.891404
0.892098
0.895186
0.905527
0.928475
0.990187
1.16108
0.980376
0.967132
0.956188
0.946314
0.938145
0.930633
0.924469
0.918723
0.914084
0.909664
0.906203
0.902808
0.900246
0.897643
0.895765
0.893783
0.892454
0.89119
0.891453
0.892175
0.895266
0.90589
0.928217
0.992704
1.16028
1.01386
1.02141
1.02593
1.02936
1.03145
1.03344
1.03463
1.03696
1.04086
1.05473
1.08176
1.14628
1.34604
1.81972
2.72484
2.74526
2.71503
2.65842
2.65824
2.6602
2.65517
2.64143
2.60296
2.56393
2.41693
1.01374
1.02146
1.02586
1.02938
1.0314
1.03343
1.03459
1.03685
1.04058
1.05218
1.08074
1.13565
1.33401
1.77274
2.66025
2.73906
2.70892
2.6502
2.63872
2.63565
2.62642
2.60722
2.56129
2.50087
2.36176
1.01386
1.02141
1.02594
1.02936
1.03145
1.03342
1.03454
1.03651
1.03993
1.05208
1.07584
1.13178
1.30996
1.7132
2.58876
2.72397
2.68951
2.65572
2.62621
2.61429
2.59933
2.57448
2.521
2.46349
2.34438
1.01401
1.02121
1.02611
1.02913
1.03165
1.03318
1.03471
1.03612
1.03963
1.04835
1.07386
1.11673
1.29407
1.65043
2.47171
2.69227
2.66174
2.65289
2.62601
2.59795
2.57129
2.54759
2.49434
2.44496
2.34429
1.01401
1.0212
1.02612
1.02912
1.03167
1.03313
1.03478
1.03596
1.03993
1.04732
1.06605
1.12423
1.2267
1.62904
2.46474
2.63922
2.63812
2.63189
2.61894
2.59396
2.55132
2.51964
2.46842
2.42795
2.34608
1.01401
1.02124
1.0261
1.02918
1.03162
1.03322
1.03463
1.03589
1.03831
1.04696
1.06327
1.10349
1.22906
1.48284
2.25761
2.6075
2.63745
2.61173
2.60233
2.58482
2.54376
2.50911
2.44616
2.41139
2.34657
1.01381
1.02143
1.02591
1.02936
1.03145
1.03338
1.03445
1.03595
1.03782
1.04543
1.05818
1.09317
1.19189
1.39856
2.01886
2.52599
2.62794
2.60366
2.57922
2.56388
2.52999
2.50058
2.43729
2.39081
2.34262
1.01397
1.02126
1.02608
1.02919
1.03163
1.03319
1.03466
1.0357
1.03802
1.04215
1.05409
1.08444
1.14679
1.33773
1.8631
2.41445
2.58731
2.58144
2.558
2.54187
2.50908
2.48791
2.43832
2.38082
2.33457
1.01405
1.02122
1.02613
1.02917
1.03166
1.03318
1.03465
1.0356
1.03743
1.04056
1.051
1.07371
1.12318
1.27746
1.65555
2.34497
2.55898
2.5537
2.53349
2.51825
2.48796
2.46085
2.43056
2.37795
2.32684
1.01384
1.02137
1.02596
1.02929
1.03151
1.03328
1.0345
1.03557
1.03678
1.03934
1.04876
1.06495
1.10808
1.23242
1.49896
2.1801
2.5064
2.53696
2.51326
2.50305
2.47869
2.44956
2.4229
2.37748
2.32722
1.01385
1.0214
1.02594
1.02934
1.03146
1.03336
1.03441
1.03568
1.03657
1.03951
1.04444
1.05962
1.09641
1.17469
1.42089
2.04297
2.40153
2.51037
2.5
2.48246
2.46413
2.42837
2.40632
2.37412
2.32812
1.01385
1.02138
1.02595
1.02932
1.03148
1.03333
1.03442
1.03562
1.03644
1.03859
1.04219
1.05434
1.07926
1.14134
1.30602
1.8116
2.2807
2.45712
2.47188
2.46574
2.45242
2.42416
2.38831
2.36239
2.32563
1.0141
1.02115
1.02617
1.02911
1.03171
1.03309
1.03467
1.03535
1.0365
1.03741
1.04109
1.04857
1.0653
1.12046
1.21245
1.56648
2.22966
2.40072
2.42762
2.42335
2.42215
2.412
2.38405
2.35316
2.31908
1.01418
1.02108
1.02626
1.02902
1.03179
1.03303
1.03472
1.03528
1.03647
1.03706
1.03933
1.04567
1.06028
1.09129
1.19484
1.39011
1.98178
2.35391
2.41163
2.40675
2.38909
2.38329
2.37117
2.34638
2.31595
1.01395
1.02128
1.02605
1.02921
1.03159
1.03321
1.03454
1.03543
1.03627
1.03701
1.03836
1.04397
1.05272
1.07818
1.14616
1.28333
1.68616
2.20279
2.37794
2.37976
2.37306
2.35342
2.34018
2.32797
2.30843
1.01388
1.02137
1.02597
1.02931
1.0315
1.03332
1.03444
1.03553
1.03616
1.03702
1.03792
1.0419
1.0476
1.06774
1.10952
1.20307
1.4968
2.0815
2.30667
2.35606
2.35499
2.34378
2.32206
2.30393
2.28705
1.01383
1.02142
1.02592
1.02936
1.03144
1.03337
1.03438
1.03559
1.0361
1.03702
1.03767
1.04032
1.04436
1.05906
1.08674
1.158
1.35088
1.88986
2.20866
2.31159
2.3256
2.32382
2.31285
2.29321
2.2713
1.01389
1.02136
1.02598
1.0293
1.0315
1.03331
1.03445
1.03552
1.03615
1.0369
1.03743
1.03857
1.04284
1.05003
1.07011
1.12146
1.2294
1.53557
2.10114
2.26332
2.28425
2.29187
2.2888
2.28066
2.26352
1.01387
1.02136
1.02597
1.0293
1.0315
1.03331
1.03444
1.03552
1.03614
1.03689
1.03732
1.03833
1.04021
1.04724
1.05895
1.09185
1.17661
1.36352
1.8487
2.2005
2.26955
2.26643
2.26204
2.25029
2.23895
1.01402
1.02123
1.02611
1.02917
1.03163
1.03318
1.03458
1.03539
1.03627
1.03675
1.03738
1.03785
1.03914
1.04406
1.05126
1.0749
1.1249
1.2451
1.57589
2.02639
2.22512
2.24966
2.24858
2.24064
2.22404
1.01395
1.02128
1.02605
1.02921
1.03159
1.03321
1.03454
1.03542
1.03623
1.03676
1.03734
1.03775
1.03852
1.04178
1.04644
1.06144
1.09694
1.1659
1.41031
1.89668
2.13951
2.21397
2.22024
2.21998
2.21261
1.01388
1.02136
1.02597
1.0293
1.0315
1.03331
1.03445
1.03552
1.03613
1.03687
1.03723
1.03781
1.03828
1.04022
1.04323
1.05403
1.07331
1.12763
1.25273
1.62944
2.01589
2.1765
2.19327
2.19564
2.19193
1.01387
1.02137
1.02597
1.0293
1.0315
1.03331
1.03444
1.03552
1.03613
1.03687
1.03721
1.03779
1.03813
1.03929
1.04116
1.04842
1.05982
1.09544
1.1709
1.37738
1.80821
2.10193
2.1743
2.17371
2.17188
1.01389
1.02135
1.02598
1.02928
1.03151
1.03329
1.03446
1.0355
1.03615
1.03684
1.03723
1.03775
1.03801
1.03861
1.03984
1.04451
1.0517
1.07345
1.12569
1.23366
1.54799
1.93678
2.12257
2.15664
2.15909
1.01398
1.02126
1.02607
1.02919
1.0316
1.0332
1.03455
1.03541
1.03625
1.03675
1.03733
1.03764
1.03807
1.03836
1.03911
1.04211
1.04638
1.06007
1.09221
1.15561
1.37175
1.80873
2.03329
2.11835
2.13102
1.01398
1.02126
1.02607
1.0292
1.0316
1.03321
1.03454
1.03541
1.03624
1.03676
1.03732
1.03764
1.03807
1.03829
1.03883
1.03999
1.04382
1.05085
1.0694
1.11502
1.21866
1.4761
1.90921
2.07918
2.11247
1.01389
1.02135
1.02598
1.02929
1.03151
1.0333
1.03445
1.0355
1.03615
1.03684
1.03723
1.03773
1.03796
1.03838
1.03862
1.03952
1.04118
1.04661
1.05708
1.08386
1.15039
1.30769
1.67519
1.99382
2.09316
1.01391
1.02133
1.02601
1.02926
1.03154
1.03327
1.03448
1.03547
1.03618
1.03681
1.03726
1.0377
1.03799
1.03832
1.03855
1.03893
1.04033
1.04276
1.05037
1.06477
1.10626
1.18992
1.46963
1.81384
2.04677
1.01397
1.02126
1.02607
1.0292
1.0316
1.0332
1.03455
1.03541
1.03624
1.03675
1.03732
1.03763
1.03806
1.03825
1.0386
1.03882
1.03968
1.04107
1.04619
1.05471
1.08043
1.13462
1.27858
1.57994
1.95162
1.01395
1.02129
1.02605
1.02922
1.03158
1.03323
1.03452
1.03543
1.03622
1.03677
1.03731
1.03765
1.03804
1.03827
1.03857
1.03874
1.0391
1.04046
1.0426
1.05007
1.06285
1.10118
1.17897
1.42
1.81246
1.0139
1.02134
1.026
1.02927
1.03153
1.03327
1.03448
1.03548
1.03618
1.03681
1.03726
1.0377
1.03799
1.03831
1.03852
1.03877
1.039
1.03993
1.04142
1.04685
1.05609
1.08375
1.14433
1.30548
1.64716
1.01391
1.02133
1.026
1.02927
1.03153
1.03327
1.03448
1.03548
1.03618
1.03681
1.03726
1.0377
1.038
1.0383
1.03852
1.03874
1.03892
1.03945
1.04125
1.04456
1.05306
1.07773
1.1245
1.28233
1.65005
1.0139
1.02134
1.026
1.02927
1.03153
1.03328
1.03447
1.03549
1.03616
1.03683
1.03724
1.03772
1.03797
1.03833
1.03849
1.03879
1.03895
1.03961
1.04062
1.04477
1.05171
1.07199
1.1279
1.23492
1.63093
1.01391
1.02133
1.026
1.02927
1.03153
1.03328
1.03447
1.03549
1.03617
1.03683
1.03725
1.03772
1.03797
1.03833
1.03849
1.03879
1.03895
1.03958
1.04049
1.0447
1.05066
1.07136
1.12128
1.2241
1.59789
1.01392
1.02133
1.02601
1.02927
1.03153
1.03328
1.03448
1.03549
1.03617
1.03683
1.03725
1.03771
1.03798
1.03833
1.03849
1.03878
1.03893
1.03948
1.04037
1.04406
1.05005
1.06819
1.11786
1.21499
1.56935
1.01391
1.02134
1.026
1.02927
1.03153
1.03328
1.03448
1.03549
1.03617
1.03683
1.03725
1.03771
1.03798
1.03833
1.03849
1.03878
1.03893
1.03944
1.04027
1.04382
1.04928
1.0669
1.11164
1.20328
1.52373
1.01393
1.02131
1.02603
1.02925
1.03156
1.03326
1.0345
1.03546
1.0362
1.0368
1.03727
1.03769
1.038
1.0383
1.03852
1.03874
1.03892
1.03921
1.04027
1.0428
1.04763
1.06614
1.09432
1.22005
1.44842
1.01391
1.02134
1.026
1.02928
1.03153
1.03328
1.03448
1.03549
1.03617
1.03683
1.03725
1.03771
1.03798
1.03832
1.0385
1.03877
1.0389
1.03929
1.0401
1.04281
1.04839
1.06226
1.10485
1.18568
1.46389
1.01391
1.02133
1.02602
1.02927
1.03155
1.03327
1.03449
1.03547
1.03619
1.03681
1.03727
1.03769
1.038
1.0383
1.03852
1.03874
1.03892
1.03919
1.04041
1.0424
1.04803
1.06377
1.09381
1.20189
1.40773
1.01392
1.02133
1.02602
1.02926
1.03155
1.03327
1.0345
1.03547
1.03619
1.0368
1.03727
1.03769
1.038
1.0383
1.03852
1.03874
1.03892
1.03919
1.04041
1.04237
1.048
1.06351
1.09334
1.20037
1.40201
1.00581
1.01321
1.02097
1.02854
1.03513
1.04117
1.04635
1.05169
1.05851
1.07611
1.10873
1.18753
1.40686
1.98112
2.77301
2.69077
2.73048
2.67097
2.66838
2.64779
2.62459
2.62907
2.59401
2.5294
2.35267
1.00581
1.01321
1.02097
1.02854
1.03513
1.04116
1.04634
1.05159
1.05818
1.0749
1.10548
1.17998
1.3864
1.91711
2.74984
2.69806
2.70027
2.66392
2.65292
2.62749
2.59678
2.58779
2.54887
2.4719
2.30389
1.00634
1.01268
1.0215
1.028
1.03568
1.04058
1.04694
1.05079
1.05848
1.0707
1.10241
1.18071
1.33754
1.81459
2.7529
2.71313
2.6863
2.65521
2.64466
2.61802
2.56815
2.54986
2.50931
2.44152
2.30684
1.0059
1.01311
1.02107
1.02842
1.03525
1.04099
1.04648
1.05109
1.05734
1.06881
1.09777
1.16949
1.30697
1.76075
2.72432
2.71454
2.65382
2.63613
2.62784
2.60751
2.54944
2.51562
2.47441
2.42404
2.31494
1.00628
1.01274
1.02143
1.02808
1.03557
1.0407
1.0467
1.05088
1.05705
1.06745
1.09469
1.14042
1.31907
1.65077
2.56146
2.70008
2.6489
2.63477
2.6132
2.59339
2.53861
2.49153
2.44636
2.40761
2.32712
1.00571
1.01331
1.02086
1.02865
1.03501
1.04126
1.04613
1.05136
1.05656
1.06838
1.08827
1.13968
1.27895
1.58231
2.44198
2.66262
2.65797
2.63
2.60099
2.58052
2.53075
2.47579
2.42298
2.39216
2.32939
1.00558
1.01344
1.02074
1.02877
1.03489
1.04137
1.046
1.05139
1.05598
1.0663
1.08307
1.12746
1.24187
1.49183
2.25424
2.60962
2.65709
2.63274
2.58705
2.56752
2.52638
2.46953
2.40561
2.3733
2.32715
1.00558
1.01344
1.02074
1.02877
1.03489
1.04137
1.04598
1.05131
1.0554
1.06364
1.07796
1.1125
1.20626
1.39173
2.02149
2.52413
2.63774
2.62033
2.57427
2.55018
2.51712
2.46934
2.39833
2.35668
2.32109
1.00546
1.01356
1.02062
1.02889
1.03478
1.04148
1.04585
1.05135
1.05483
1.06188
1.07315
1.10254
1.17455
1.32055
1.74486
2.52687
2.6036
2.58337
2.56248
2.53169
2.50504
2.46859
2.40072
2.34362
2.30928
1.00573
1.01329
1.02089
1.02861
1.03506
1.04118
1.04616
1.05092
1.05504
1.06035
1.07187
1.09374
1.1451
1.29614
1.60984
2.43403
2.58345
2.57297
2.54395
2.51727
2.48744
2.46271
2.40673
2.34537
2.29861
1.00569
1.01333
1.02085
1.02866
1.03501
1.04123
1.0461
1.05094
1.05484
1.0596
1.06792
1.08716
1.12378
1.24816
1.48202
2.19312
2.52184
2.56537
2.54025
2.50552
2.47531
2.45452
2.41431
2.35086
2.29963
1.00564
1.01337
1.0208
1.02869
1.03496
1.04127
1.04604
1.05098
1.05461
1.0591
1.06479
1.08192
1.1116
1.19097
1.38785
1.97971
2.41979
2.53948
2.52649
2.50382
2.45712
2.43801
2.41199
2.36182
2.3048
1.0059
1.01311
1.02106
1.02845
1.03521
1.04103
1.04627
1.05073
1.05475
1.05848
1.06336
1.07532
1.09857
1.15451
1.29882
1.75022
2.30534
2.50461
2.50473
2.49422
2.45775
2.41975
2.40249
2.36748
2.31443
1.00505
1.01397
1.02021
1.02929
1.03437
1.04186
1.04545
1.05152
1.05394
1.05899
1.06161
1.07051
1.08741
1.13702
1.21693
1.54189
2.2478
2.43663
2.48052
2.47328
2.45517