/*--------------------------------*- C++ -*----------------------------------*\
  =========                 |
  \\      /  F ield         | OpenFOAM: The Open Source CFD Toolbox
   \\    /   O peration     | Website:  https://openfoam.org
    \\  /    A nd           | Version:  6
     \\/     M anipulation  |
\*---------------------------------------------------------------------------*/
FoamFile
{
    version     2.0;
    format      ascii;
    class       volVectorField;
    location    "5.5";
    object      U;
}
// * * * * * * * * * * * * * * * * * * * * * * * * * * * * * * * * * * * * * //

dimensions      [0 1 -1 0 0 0 0];

internalField   nonuniform List<vector> 
26250
(
(3.01561 9.19091e-08 -0.0579661)
(3.02577 3.72355e-07 -0.0597733)
(3.03427 2.68179e-07 -0.0611227)
(3.04139 8.97742e-07 -0.0622777)
(3.04763 1.00045e-07 -0.0631516)
(3.05271 1.23616e-06 -0.0640262)
(3.05727 -3.43223e-07 -0.0645772)
(3.05991 3.53437e-06 -0.0654484)
(3.0584 8.43592e-06 -0.0660262)
(3.05572 3.07481e-05 -0.0676767)
(3.03566 6.18283e-05 -0.0703056)
(2.99812 0.000191793 -0.0787148)
(2.85184 0.000428623 -0.0943346)
(2.43425 0.00127465 -0.141639)
(1.41923 0.00321316 -0.240816)
(0.629356 0.00664012 -0.278145)
(0.743189 0.00931473 -0.259193)
(0.895766 0.0131934 -0.250688)
(0.980401 0.0177512 -0.254426)
(0.964648 0.024201 -0.259893)
(0.947795 0.0249739 -0.260929)
(0.893306 0.0205075 -0.263522)
(0.760713 0.0123497 -0.267461)
(0.514396 0.00997076 -0.268783)
(0.299012 0.00559714 -0.262792)
(3.01561 1.09353e-06 -0.0579664)
(3.02577 1.1843e-06 -0.0597729)
(3.03428 1.34323e-06 -0.061123)
(3.04139 2.29342e-06 -0.0622774)
(3.04763 5.08608e-08 -0.0631519)
(3.05271 3.42933e-06 -0.0640259)
(3.05727 -1.99244e-06 -0.0645773)
(3.05992 1.26997e-05 -0.0654479)
(3.05842 3.09615e-05 -0.0660247)
(3.05576 0.000107003 -0.0676726)
(3.03579 0.000212157 -0.0702896)
(2.99843 0.000593513 -0.0786889)
(2.85266 0.00130142 -0.0942499)
(2.43673 0.0034041 -0.141466)
(1.42694 0.00889454 -0.24057)
(0.636197 0.0149143 -0.277459)
(0.750628 0.0231099 -0.258418)
(0.903437 0.0360212 -0.249529)
(0.987594 0.0461379 -0.253231)
(0.98923 0.0536785 -0.256623)
(0.95991 0.0561419 -0.259191)
(0.900047 0.0504075 -0.262129)
(0.776709 0.0379823 -0.26477)
(0.547775 0.035303 -0.266722)
(0.345693 0.034526 -0.260898)
(3.01561 6.63039e-06 -0.0579669)
(3.02577 -3.57602e-07 -0.0597722)
(3.03428 4.05891e-06 -0.0611236)
(3.04139 -1.92287e-06 -0.0622767)
(3.04763 7.29179e-07 -0.0631524)
(3.0527 -1.30817e-06 -0.0640254)
(3.05728 -2.57869e-06 -0.064577)
(3.05994 2.47255e-05 -0.0654464)
(3.05848 6.25017e-05 -0.0660211)
(3.05587 0.000337161 -0.0676601)
(3.03605 0.000691431 -0.0702628)
(2.99903 0.00166583 -0.078609)
(2.85393 0.0032367 -0.0940615)
(2.44005 0.00724372 -0.141144)
(1.43127 0.0160825 -0.240243)
(0.605172 0.0376311 -0.27793)
(0.729202 0.0519195 -0.258762)
(0.889741 0.0644673 -0.250059)
(0.972074 0.0722914 -0.253697)
(0.972617 0.0762192 -0.256817)
(0.938312 0.0809807 -0.259621)
(0.871023 0.0825028 -0.261996)
(0.747689 0.07836 -0.264097)
(0.519358 0.0772646 -0.265835)
(0.313018 0.0794692 -0.260073)
(3.01561 2.30364e-05 -0.0579704)
(3.02577 -8.59107e-06 -0.0597681)
(3.03427 1.27906e-05 -0.0611276)
(3.04139 -1.68433e-05 -0.0622721)
(3.04763 1.1908e-05 -0.0631569)
(3.0527 -2.9825e-05 -0.0640204)
(3.05729 2.91611e-05 -0.0645804)
(3.05997 -7.56175e-05 -0.0654393)
(3.05868 3.09551e-07 -0.066013)
(3.05628 0.00128977 -0.0676567)
(3.03686 -0.00269569 -0.0701103)
(3.00072 0.0104654 -0.0784993)
(2.85642 -0.0100469 -0.0935149)
(2.45361 0.0405 -0.140459)
(1.44748 0.0297134 -0.239355)
(0.652384 0.0768435 -0.275709)
(0.763408 0.0958942 -0.256378)
(0.910689 0.104312 -0.247599)
(0.986278 0.109515 -0.251971)
(0.973175 0.11573 -0.256306)
(0.941165 0.121894 -0.258195)
(0.872865 0.127391 -0.260538)
(0.743431 0.130378 -0.262045)
(0.50998 0.130131 -0.263456)
(0.29656 0.126738 -0.259156)
(3.01561 7.97189e-06 -0.0580012)
(3.02576 -1.61937e-06 -0.0597333)
(3.03427 5.16011e-06 -0.0611628)
(3.04139 -4.59326e-06 -0.0622337)
(3.04762 2.2434e-06 -0.0631965)
(3.05272 -4.50651e-06 -0.0639757)
(3.05724 -4.59562e-07 -0.0646296)
(3.05991 3.11844e-05 -0.0653725)
(3.0596 7.30092e-05 -0.0661169)
(3.0536 0.000471912 -0.0676058)
(3.04313 0.000984752 -0.0695504)
(2.99311 0.00262225 -0.0789436)
(2.86816 0.00567628 -0.0915699)
(2.49521 0.0143389 -0.144866)
(1.47515 0.0368724 -0.230669)
(0.698188 0.0885949 -0.272238)
(0.794771 0.116851 -0.253173)
(0.93288 0.128761 -0.243804)
(1.00436 0.139873 -0.248073)
(0.997075 0.152722 -0.251717)
(0.962039 0.164627 -0.253971)
(0.891815 0.174397 -0.256357)
(0.758611 0.182397 -0.257655)
(0.519665 0.186838 -0.258687)
(0.299158 0.179581 -0.255357)
(3.01561 -8.50955e-07 -0.0579764)
(3.02576 1.58905e-07 -0.0597612)
(3.03427 1.86985e-06 -0.0611345)
(3.04139 -2.89059e-06 -0.0622644)
(3.04763 7.84429e-06 -0.0631645)
(3.0527 -1.26538e-05 -0.0640114)
(3.05732 3.27361e-05 -0.064586)
(3.06003 -1.59525e-05 -0.065424)
(3.05904 0.000254165 -0.0659876)
(3.05703 0.000588732 -0.0676116)
(3.0386 0.00121865 -0.0698548)
(3.00464 0.00232093 -0.0780738)
(2.86492 0.00594099 -0.0921517)
(2.48593 0.0166121 -0.137991)
(1.51565 0.0450092 -0.234218)
(0.734574 0.109464 -0.272306)
(0.823023 0.144036 -0.252298)
(0.950469 0.159894 -0.24133)
(1.02227 0.174887 -0.245536)
(1.01598 0.192325 -0.249016)
(0.979017 0.209182 -0.251032)
(0.908817 0.223224 -0.252717)
(0.775661 0.236659 -0.253352)
(0.53264 0.248923 -0.25365)
(0.305775 0.24387 -0.250401)
(3.01561 -3.44638e-06 -0.0579968)
(3.02576 1.13936e-06 -0.0597382)
(3.03427 -5.35558e-06 -0.0611581)
(3.0414 6.08973e-06 -0.0622382)
(3.04761 -8.51443e-06 -0.0631927)
(3.05274 1.59952e-05 -0.0639765)
(3.05724 -8.8142e-06 -0.0646304)
(3.06009 5.40652e-05 -0.0653491)
(3.0601 0.000130058 -0.0660971)
(3.0544 0.000281645 -0.067517)
(3.04455 0.000517979 -0.0693856)
(2.99708 0.00201526 -0.0783572)
(2.88002 0.00551834 -0.090327)
(2.52701 0.0171411 -0.140434)
(1.56069 0.0560736 -0.223974)
(0.796344 0.132075 -0.268201)
(0.86343 0.173592 -0.249446)
(0.978058 0.192344 -0.237978)
(1.0452 0.210609 -0.241986)
(1.04037 0.231268 -0.245185)
(1.00119 0.25318 -0.24737)
(0.930974 0.273035 -0.248508)
(0.799038 0.294713 -0.248491)
(0.552006 0.319386 -0.248097)
(0.317175 0.326115 -0.244435)
(3.01561 -1.82824e-05 -0.0579793)
(3.02576 8.57277e-06 -0.0597584)
(3.03428 -1.47015e-05 -0.0611375)
(3.04139 2.42848e-05 -0.0622615)
(3.04764 -2.66162e-05 -0.0631662)
(3.0527 6.10996e-05 -0.0640099)
(3.05735 -7.37421e-05 -0.0645836)
(3.06015 0.000209234 -0.0654158)
(3.05923 2.60148e-05 -0.0659633)
(3.05735 -0.000768803 -0.0674833)
(3.04004 0.00370451 -0.0697451)
(3.00867 -0.00552812 -0.0773196)
(2.87782 0.0205055 -0.0907245)
(2.5236 -0.00681808 -0.134031)
(1.62479 0.0637541 -0.227599)
(0.837323 0.149445 -0.268315)
(0.883783 0.20073 -0.248871)
(0.989473 0.221048 -0.23541)
(1.05982 0.242925 -0.238974)
(1.05721 0.268345 -0.241983)
(1.02001 0.295913 -0.243715)
(0.95362 0.323132 -0.244175)
(0.827445 0.356475 -0.243153)
(0.580282 0.401126 -0.241875)
(0.337668 0.436872 -0.236723)
(3.01561 -2.18906e-05 -0.0579793)
(3.02576 5.09316e-06 -0.0597581)
(3.03428 -4.42438e-06 -0.0611374)
(3.04139 1.70645e-06 -0.062262)
(3.04764 1.37704e-05 -0.0631659)
(3.0527 -1.58237e-05 -0.064011)
(3.05736 4.37339e-05 -0.0645817)
(3.06018 -6.5499e-05 -0.0654159)
(3.05929 7.34419e-05 -0.0659458)
(3.05747 0.000579805 -0.067414)
(3.04097 0.00127765 -0.0696239)
(3.01102 0.00409656 -0.0770112)
(2.88729 0.0094899 -0.0895873)
(2.5448 0.0260999 -0.132062)
(1.70672 0.0715216 -0.222332)
(0.915639 0.179043 -0.265152)
(0.92494 0.235058 -0.247392)
(1.01324 0.259639 -0.232377)
(1.08162 0.280838 -0.235759)
(1.0788 0.308093 -0.238532)
(1.044 0.339014 -0.239615)
(0.983543 0.373419 -0.23923)
(0.869091 0.421549 -0.236895)
(0.631705 0.495893 -0.234402)
(0.381668 0.59374 -0.22631)
(3.01562 2.23352e-05 -0.0579345)
(3.02578 -1.75775e-05 -0.0598067)
(3.03427 2.17807e-05 -0.0610893)
(3.0414 -4.13335e-05 -0.0623109)
(3.04762 4.7943e-05 -0.0631192)
(3.05273 -9.13799e-05 -0.0640551)
(3.05731 0.000132114 -0.0645433)
(3.06017 -0.000203625 -0.0654445)
(3.05976 0.000409209 -0.0659028)
(3.05834 0.0017459 -0.0673487)
(3.04287 -0.000753281 -0.0692917)
(3.0156 0.0119908 -0.076691)
(2.89534 -0.00336969 -0.0879465)
(2.57568 0.0596428 -0.130469)
(1.76278 0.0766427 -0.218499)
(0.992494 0.211846 -0.261769)
(0.975093 0.269001 -0.244874)
(1.04685 0.300436 -0.229406)
(1.10999 0.31976 -0.232466)
(1.10777 0.347636 -0.235033)
(1.07773 0.380378 -0.235382)
(1.02715 0.422253 -0.233981)
(0.934274 0.491079 -0.229881)
(0.733095 0.612149 -0.223866)
(0.474745 0.848842 -0.210431)
(2.98855 -2.18301e-07 -0.00143206)
(2.98291 3.85505e-07 -0.00328797)
(2.97953 1.26984e-07 -0.00492939)
(2.97738 9.5066e-07 -0.00644585)
(2.97597 2.608e-07 -0.00768175)
(2.975 1.18527e-06 -0.00889698)
(2.97413 4.13968e-07 -0.00973975)
(2.97258 1.8323e-06 -0.0108112)
(2.9674 7.80203e-06 -0.0112803)
(2.95749 2.34619e-05 -0.0121615)
(2.92477 7.04548e-05 -0.0136775)
(2.8531 0.000164526 -0.0166677)
(2.64483 0.000441697 -0.0234922)
(1.98493 0.00121456 -0.0371831)
(0.497247 0.00328808 -0.0648428)
(-0.474618 0.0107561 -0.0647865)
(0.0299167 0.0187504 -0.0606226)
(0.429734 0.0285458 -0.05832)
(0.508028 0.0424609 -0.0609886)
(0.405404 0.0670132 -0.0613075)
(0.387096 0.0682231 -0.0632198)
(0.292678 0.0566835 -0.0635994)
(0.099284 0.0478368 -0.0637506)
(0.0119716 0.0414632 -0.0608816)
(0.16711 0.0181027 -0.0548084)
(2.98855 4.59725e-07 -0.00143199)
(2.98291 1.11218e-06 -0.00328804)
(2.97953 1.14788e-06 -0.00492934)
(2.97738 2.26977e-06 -0.00644599)
(2.97597 1.11603e-06 -0.00768169)
(2.975 2.8422e-06 -0.00889699)
(2.97413 1.36175e-06 -0.00973986)
(2.97258 8.0925e-06 -0.0108106)
(2.96742 2.90097e-05 -0.0112823)
(2.95754 9.67754e-05 -0.0121533)
(2.92489 0.00022119 -0.0137022)
(2.85342 0.000661998 -0.0166269)
(2.64558 0.00150007 -0.0235714)
(1.98741 0.00445168 -0.0371726)
(0.505354 0.0118562 -0.0649941)
(-0.448054 0.0196761 -0.0646374)
(0.0431514 0.0447939 -0.0602086)
(0.4403 0.0696118 -0.0579899)
(0.525362 0.0905495 -0.0606354)
(0.464914 0.12127 -0.0620966)
(0.403438 0.119469 -0.0626112)
(0.29788 0.11043 -0.0621638)
(0.126287 0.104758 -0.0621835)
(0.0146022 0.107141 -0.0601029)
(0.198051 0.072768 -0.0542193)
(2.98855 3.567e-06 -0.00143217)
(2.98291 1.28544e-06 -0.00328799)
(2.97953 3.18604e-06 -0.00492937)
(2.97738 1.34258e-06 -0.00644602)
(2.97597 1.51017e-06 -0.0076814)
(2.975 1.9371e-06 -0.00889755)
(2.97414 1.1596e-06 -0.00973873)
(2.9726 1.67079e-05 -0.010813)
(2.96747 6.01696e-05 -0.0112798)
(2.95765 0.000201594 -0.0121639)
(2.92523 0.00042006 -0.0136706)
(2.85419 0.0013281 -0.0166647)
(2.64769 0.00275152 -0.0234684)
(1.99353 0.00822952 -0.0370473)
(0.509081 0.0211771 -0.0648314)
(-0.506076 0.0543401 -0.0629931)
(0.0340854 0.0897965 -0.0600414)
(0.438325 0.119166 -0.0579319)
(0.520934 0.13535 -0.0605961)
(0.467418 0.143307 -0.0623079)
(0.398231 0.15931 -0.0622843)
(0.293539 0.171933 -0.0611194)
(0.132798 0.179818 -0.0605556)
(0.010227 0.187314 -0.0586609)
(0.175917 0.14415 -0.0530174)
(2.98855 1.0573e-05 -0.00143317)
(2.98291 3.58592e-07 -0.00328671)
(2.97953 8.04826e-06 -0.00493014)
(2.97738 -2.18569e-06 -0.00644487)
(2.97597 5.34283e-06 -0.00768231)
(2.975 -2.83903e-06 -0.00889654)
(2.97415 8.44683e-06 -0.00973942)
(2.97263 4.14228e-05 -0.0108141)
(2.96757 0.000218987 -0.0112821)
(2.95783 0.000274498 -0.0121765)
(2.92577 0.00168521 -0.0137134)
(2.85532 0.00173984 -0.0166539)
(2.65073 0.00652959 -0.023539)
(2.00137 0.0143854 -0.0369898)
(0.534381 0.03071 -0.0647327)
(-0.429919 0.0933289 -0.0640296)
(0.0637856 0.135054 -0.0594121)
(0.44772 0.1672 -0.0569526)
(0.5104 0.187429 -0.059856)
(0.417674 0.209218 -0.0609191)
(0.375104 0.226926 -0.0617293)
(0.279491 0.247277 -0.0602718)
(0.132719 0.264481 -0.0591583)
(0.00787783 0.271535 -0.0569338)
(0.156199 0.217838 -0.0514494)
(2.98855 4.22058e-06 -0.00143654)
(2.98291 6.34845e-07 -0.0032821)
(2.97953 3.27138e-06 -0.00493326)
(2.97738 -3.34908e-08 -0.00644086)
(2.97597 9.5063e-07 -0.00768664)
(2.975 1.69104e-06 -0.00889013)
(2.97417 1.29208e-06 -0.00974857)
(2.97278 3.19755e-05 -0.0107935)
(2.96767 0.000114483 -0.0112857)
(2.95882 0.000395734 -0.0123097)
(2.92671 0.00084569 -0.0131341)
(2.85745 0.0027476 -0.0180411)
(2.65683 0.00609775 -0.0208856)
(2.01083 0.0187912 -0.0406143)
(0.532913 0.0523422 -0.0631578)
(-0.403159 0.12348 -0.0644819)
(0.0834994 0.175416 -0.0590636)
(0.459371 0.213822 -0.056122)
(0.516369 0.244644 -0.0589421)
(0.441554 0.275056 -0.0606503)
(0.377914 0.297161 -0.0607934)
(0.283566 0.322346 -0.0592177)
(0.14486 0.347383 -0.0576241)
(0.0138316 0.355595 -0.0549004)
(0.142982 0.294669 -0.0494706)
(2.98855 -2.34956e-08 -0.00143487)
(2.98291 -3.7168e-07 -0.00328472)
(2.97953 5.00287e-07 -0.00493161)
(2.97738 -1.01032e-06 -0.00644289)
(2.97597 1.92093e-06 -0.00768376)
(2.975 -3.80453e-07 -0.00889501)
(2.97417 7.46857e-06 -0.00973954)
(2.97273 2.91811e-05 -0.0108167)
(2.96787 0.000115376 -0.0112757)
(2.95843 0.000464528 -0.0121892)
(2.92765 0.00105951 -0.0137037)
(2.85975 0.00330183 -0.0165917)
(2.66305 0.00805507 -0.0233538)
(2.03967 0.0244432 -0.0361361)
(0.616081 0.0696968 -0.0639821)
(-0.349557 0.157652 -0.0638704)
(0.105125 0.217051 -0.0586183)
(0.472811 0.261009 -0.0551052)
(0.524573 0.300304 -0.0580403)
(0.448077 0.343504 -0.0598445)
(0.383264 0.368997 -0.0598384)
(0.294984 0.398024 -0.0580026)
(0.166904 0.429763 -0.0559441)
(0.0289239 0.443359 -0.0527199)
(0.134183 0.382991 -0.0470734)
(2.98855 -3.65612e-06 -0.0014369)
(2.98291 4.57254e-07 -0.00328179)
(2.97953 -4.00446e-06 -0.00493399)
(2.97738 2.64166e-06 -0.00643951)
(2.97597 -3.58175e-06 -0.00768859)
(2.97501 7.41721e-06 -0.00888641)
(2.97419 2.1691e-06 -0.00975476)
(2.97288 4.19368e-05 -0.0107834)
(2.96802 0.000152272 -0.0113091)
(2.9596 0.000555746 -0.0122983)
(2.92898 0.00120537 -0.0130965)
(2.86351 0.00411564 -0.0178254)
(2.67328 0.00969757 -0.020512)
(2.06451 0.0307056 -0.0389957)
(0.649363 0.0888184 -0.0619879)
(-0.281597 0.190287 -0.0643217)
(0.134638 0.25819 -0.0583454)
(0.488369 0.306771 -0.0542178)
(0.537008 0.353207 -0.0570531)
(0.465275 0.403966 -0.0589582)
(0.395852 0.438853 -0.0587781)
(0.31478 0.474702 -0.0566478)
(0.199574 0.514621 -0.0540315)
(0.0555891 0.538685 -0.0502338)
(0.131057 0.48981 -0.0441501)
(2.98855 -1.18725e-05 -0.00143499)
(2.98291 2.64709e-06 -0.00328482)
(2.97953 -9.81532e-06 -0.004931)
(2.97738 9.59891e-06 -0.00644433)
(2.97598 -9.40755e-06 -0.00768113)
(2.975 1.7985e-05 -0.00889929)
(2.9742 -7.07024e-06 -0.0097333)
(2.97285 2.86402e-05 -0.0108245)
(2.9683 4.58649e-05 -0.0112635)
(2.95932 0.000614189 -0.0121391)
(2.93056 0.000545478 -0.013566)
(2.86725 0.00455356 -0.0163218)
(2.68404 0.0102583 -0.0227297)
(2.11008 0.0307629 -0.0340429)
(0.764737 0.104386 -0.0627443)
(-0.203591 0.225353 -0.0636973)
(0.171883 0.300086 -0.0577762)
(0.507716 0.351267 -0.0531073)
(0.553091 0.403086 -0.0559258)
(0.485434 0.45965 -0.0576742)
(0.417324 0.506488 -0.0574402)
(0.343977 0.552096 -0.055242)
(0.243853 0.603388 -0.0520576)
(0.0978217 0.645092 -0.0476135)
(0.137385 0.624106 -0.0408596)
(2.98855 -8.81589e-06 -0.0014343)
(2.98291 1.25895e-06 -0.00328557)
(2.97954 -6.57271e-06 -0.00493071)
(2.97738 4.17526e-06 -0.00644519)
(2.97598 -3.01837e-06 -0.00768027)
(2.97501 5.20319e-06 -0.0089007)
(2.97421 7.61504e-06 -0.00973109)
(2.97291 2.83155e-05 -0.0108243)
(2.96852 0.000177915 -0.0112586)
(2.96008 0.00064001 -0.0120859)
(2.93196 0.0021892 -0.0135374)
(2.87284 0.00449681 -0.016095)
(2.69434 0.0150622 -0.0225544)
(2.14727 0.0321342 -0.0331687)
(0.867544 0.107998 -0.0622123)
(-0.0970175 0.256899 -0.0638064)
(0.220946 0.342044 -0.0570054)
(0.529579 0.397207 -0.0519444)
(0.572303 0.451872 -0.0548437)
(0.510494 0.512776 -0.0563619)
(0.447545 0.571379 -0.0558887)
(0.384273 0.627793 -0.0535838)
(0.303312 0.69474 -0.0499887)
(0.164838 0.766638 -0.0447467)
(0.160644 0.800219 -0.0369392)
(2.98856 1.44632e-05 -0.00143129)
(2.98291 1.44455e-06 -0.00328841)
(2.97954 3.47745e-06 -0.00493103)
(2.97738 4.01701e-06 -0.00644245)
(2.97598 -1.03722e-05 -0.00768678)
(2.97501 1.95985e-05 -0.00888909)
(2.97422 -4.15068e-05 -0.00974669)
(2.973 0.000106302 -0.0107958)
(2.96881 -4.51294e-05 -0.0112541)
(2.96101 0.0017161 -0.0121126)
(2.93373 -0.000543209 -0.0134686)
(2.87839 0.0129138 -0.0161105)
(2.705 0.00202296 -0.0222633)
(2.18816 0.055168 -0.0322546)
(0.963792 0.104741 -0.0614782)
(0.0072351 0.285014 -0.0638653)
(0.274909 0.384335 -0.0561237)
(0.553196 0.443958 -0.0506489)
(0.593142 0.49907 -0.0534778)
(0.540259 0.562992 -0.0549986)
(0.485398 0.630528 -0.0543055)
(0.436395 0.699337 -0.0517983)
(0.383916 0.787141 -0.0477047)
(0.272854 0.903489 -0.0420389)
(0.214987 1.07549 -0.0333424)
(2.9951 4.32826e-07 9.6377e-07)
(2.98906 3.86043e-07 -5.26985e-07)
(2.98253 5.55541e-07 7.88093e-07)
(2.97637 5.22816e-07 -4.93945e-07)
(2.97072 2.31435e-08 4.82334e-07)
(2.96583 1.13992e-06 -2.69903e-07)
(2.96114 -9.01655e-07 1.51183e-07)
(2.95653 5.11363e-06 9.78114e-07)
(2.94884 -6.90166e-07 2.93776e-06)
(2.93539 6.27741e-05 5.69654e-06)
(2.89601 -3.60388e-05 1.00802e-05)
(2.8111 0.000329771 1.50791e-05)
(2.57386 6.79531e-05 -5.80865e-06)
(1.80387 0.00077873 -5.57964e-05)
(0.100091 0.00161047 -0.000302943)
(-1.0106 0.0183356 -0.000311118)
(-0.152339 0.0292698 1.83333e-05)
(0.30332 0.0392617 0.000298755)
(0.393445 0.04326 0.000563184)
(0.299041 0.0422259 0.00117627)
(-0.146893 0.0631638 0.000104168)
(-0.104502 0.068683 -0.000263072)
(-0.139863 0.0694399 -0.000215037)
(-0.0889563 0.0713868 -6.55428e-05)
(0.0934001 0.0612054 -0.000247768)
(2.9951 5.26575e-07 2.49751e-06)
(2.98906 5.49989e-07 -2.33888e-06)
(2.98253 8.07637e-07 2.15608e-06)
(2.97637 9.99413e-07 -2.44084e-06)
(2.97073 5.98329e-07 2.26061e-06)
(2.96582 9.16074e-07 -2.37695e-06)
(2.96114 1.10343e-06 2.79601e-06)
(2.95653 4.15871e-06 3.53514e-06)
(2.94888 2.29876e-05 2.63837e-05)
(2.93536 7.7561e-05 -2.01323e-05)
(2.8962 0.000209054 0.000202498)
(2.81121 0.000565569 -0.000163136)
(2.57435 0.00135548 0.000335713)
(1.80372 0.00387157 -0.000116138)
(0.108345 0.0117897 -0.000914919)
(-0.996253 0.0457806 -0.00060261)
(-0.132943 0.0751359 0.000165441)
(0.313801 0.0975747 0.000165509)
(0.388841 0.102893 -0.000145436)
(0.270615 0.0960554 -0.000783304)
(-0.184078 0.125233 0.000133873)
(-0.125124 0.143193 0.00038683)
(-0.159187 0.151841 0.000193352)
(-0.106743 0.158999 4.08753e-05)
(0.0890797 0.141726 -3.20239e-05)
(2.9951 7.8325e-07 1.56459e-06)
(2.98906 7.79988e-07 -1.21948e-06)
(2.98253 9.57836e-07 1.21945e-06)
(2.97637 1.21404e-06 -1.30588e-06)
(2.97072 2.90558e-07 9.29584e-07)
(2.96583 1.02707e-06 -9.11071e-07)
(2.96114 1.40298e-06 4.46646e-07)
(2.95655 7.54225e-06 1.37268e-06)
(2.9489 4.28685e-05 3.47931e-06)
(2.93555 0.000149761 7.54902e-06)
(2.89641 0.00039787 7.76644e-06)
(2.81209 0.00110235 2.41412e-05)
(2.57634 0.0026619 -2.71359e-05)
(1.81238 0.00774446 -7.90153e-05)
(0.128103 0.0229914 -0.00040538)
(-0.967182 0.0639289 0.000242376)
(-0.116716 0.115285 -4.43684e-05)
(0.322594 0.154479 -9.82095e-05)
(0.378341 0.169674 -0.000406129)
(0.261344 0.16585 -0.000904433)
(-0.186446 0.204802 0.000123298)
(-0.118346 0.228616 0.000481893)
(-0.159537 0.244722 0.000413269)
(-0.114376 0.256646 0.000180344)
(0.0762541 0.232945 0.000229715)
(2.9951 1.11781e-06 2.33488e-06)
(2.98906 1.08815e-06 -2.20241e-06)
(2.98253 9.54575e-07 2.0028e-06)
(2.97637 1.19609e-06 -2.36424e-06)
(2.97072 -1.08832e-06 2.06734e-06)
(2.96583 2.4831e-06 -2.36107e-06)
(2.96115 -9.49539e-07 2.48073e-06)
(2.95656 1.9547e-05 2.45653e-06)
(2.949 5.20677e-05 2.22451e-05)
(2.93566 0.00032338 -2.60552e-05)
(2.89697 0.000432612 0.000189557)
(2.81318 0.00212531 -0.000192886)
(2.57939 0.0036951 0.000319662)
(1.82085 0.0122082 -0.000153681)
(0.147577 0.0349866 -0.000773615)
(-0.938843 0.094124 0.000182472)
(-0.100547 0.159446 6.12243e-06)
(0.333821 0.210011 -6.37228e-05)
(0.371224 0.235914 -3.83251e-05)
(0.262774 0.238403 0.000306806)
(-0.174039 0.288614 7.34643e-05)
(-0.100517 0.314065 0.000184678)
(-0.148698 0.337335 0.000314315)
(-0.11512 0.352154 0.000226523)
(0.066626 0.322789 0.000277785)
(2.9951 -4.90764e-07 1.04045e-06)
(2.98906 3.86243e-07 -8.85888e-07)
(2.98253 -6.61587e-07 8.08947e-07)
(2.97637 5.697e-07 -9.71814e-07)
(2.97073 -1.05827e-06 6.47624e-07)
(2.96583 1.57397e-06 -6.85429e-07)
(2.96116 2.75445e-06 8.30396e-08)
(2.95659 1.89288e-05 -1.81769e-07)
(2.94915 9.19702e-05 -2.62625e-06)
(2.93588 0.000364063 -1.51964e-06)
(2.89781 0.000865458 -1.53958e-05)
(2.81502 0.00270534 -1.78508e-05)
(2.58449 0.00635347 -5.57247e-05)
(1.83673 0.0195129 -9.63836e-05)
(0.186104 0.0578428 -0.000303798)
(-0.891635 0.137966 -9.13565e-06)
(-0.074151 0.209624 7.29328e-05)
(0.346589 0.266043 -6.84924e-07)
(0.366429 0.301424 -6.52131e-05)
(0.264636 0.314959 -0.000138777)
(-0.129838 0.368107 -2.19419e-05)
(-0.078106 0.398092 2.7309e-05)
(-0.129623 0.428449 0.000192206)
(-0.110611 0.446447 0.000237323)
(0.0598583 0.41355 0.000276653)
(2.9951 -2.78668e-06 1.09206e-06)
(2.98906 -1.05825e-07 -1.10709e-06)
(2.98253 -2.47118e-06 1.00764e-06)
(2.97637 2.7182e-07 -1.22266e-06)
(2.97073 -3.39139e-07 1.41537e-06)
(2.96583 1.24611e-06 -1.6707e-06)
(2.96116 6.94457e-06 2.41892e-06)
(2.95664 2.10972e-05 1.838e-06)
(2.94929 0.000118707 1.89787e-05)
(2.93632 0.00045971 -2.99821e-05)
(2.89889 0.00120258 0.000186275)
(2.81803 0.00361151 -0.000226046)
(2.59245 0.00896659 0.000354406)
(1.86607 0.0275747 -0.000180411)
(0.241965 0.0816388 -0.000582901)
(-0.830499 0.178207 0.000206231)
(-0.0444078 0.257427 6.54855e-05)
(0.360789 0.320402 -1.23878e-05)
(0.367397 0.365352 -2.70439e-05)
(0.265879 0.392517 5.15046e-05)
(-0.0723565 0.444767 -6.2933e-05)
(-0.0501777 0.483091 -2.99987e-05)
(-0.102077 0.521058 0.000125764)
(-0.100169 0.544896 0.000218295)
(0.055999 0.513294 0.000268388)
(2.9951 -4.33416e-06 -1.484e-06)
(2.98906 2.32433e-09 2.08327e-06)
(2.98253 -3.57262e-06 -1.90607e-06)
(2.97637 5.97209e-07 2.9443e-06)
(2.97073 1.59701e-09 -3.16855e-06)
(2.96583 1.27363e-06 4.19419e-06)
(2.96117 1.00604e-05 -4.80497e-06)
(2.95669 2.52271e-05 -9.26344e-08)
(2.94952 0.000148106 -2.01823e-05)
(2.93679 0.000577826 2.32382e-05)
(2.90043 0.00151685 -0.00019902)
(2.82185 0.00452929 0.000198114)
(2.60311 0.0112797 -0.000392697)
(1.90255 0.0344181 0.000156427)
(0.31132 0.101306 0.000552016)
(-0.757755 0.215986 -0.000162354)
(-0.0125507 0.304255 -4.56505e-05)
(0.376319 0.37349 -6.85717e-05)
(0.374173 0.427314 -4.62192e-05)
(0.270828 0.468994 -2.86562e-05)
(-0.00683883 0.521682 -6.18719e-05)
(-0.0155182 0.56995 -2.82545e-05)
(-0.0641819 0.616778 0.000106351)
(-0.0813461 0.651455 0.000206165)
(0.0566122 0.628094 0.000250166)
(2.9951 -5.37646e-06 -8.42456e-07)
(2.98906 1.46019e-06 1.08023e-06)
(2.98253 -3.86728e-06 -8.76873e-07)
(2.97637 3.34388e-06 1.43181e-06)
(2.97073 -1.0948e-08 -1.00708e-06)
(2.96584 4.27795e-06 1.32476e-06)
(2.96118 1.09971e-05 -6.07186e-07)
(2.95676 3.19305e-05 -7.00746e-07)
(2.94976 0.000160136 -9.19437e-07)
(2.93748 0.000707363 -3.36163e-06)
(2.90216 0.00162345 2.84535e-06)
(2.82661 0.00537586 -1.66124e-05)
(2.61585 0.0126145 3.44754e-05)
(1.94716 0.0390802 3.97241e-05)
(0.39528 0.117338 0.000194605)
(-0.672227 0.254161 0.000235825)
(0.0225833 0.352038 -6.39666e-05)
(0.393504 0.425991 -9.72054e-05)
(0.386736 0.487151 -5.28835e-05)
(0.282858 0.54187 -4.27924e-05)
(0.0571301 0.600692 -4.95018e-05)
(0.0273699 0.655635 -2.42942e-05)
(-0.0132251 0.716664 8.8278e-05)
(-0.0502839 0.76923 0.000198793)
(0.0642809 0.766648 0.000231292)
(2.9951 -3.74408e-06 -2.24949e-07)
(2.98906 4.98686e-06 2.90636e-07)
(2.98253 -6.35462e-06 -1.35882e-07)
(2.97638 1.13693e-05 3.83142e-07)
(2.97073 -1.05789e-05 -4.19445e-08)
(2.96584 1.9572e-05 2.43497e-07)
(2.9612 -3.04105e-06 6.52375e-08)
(2.95681 5.34074e-05 -1.56829e-07)
(2.95009 0.000238242 -4.21874e-07)
(2.93803 0.000806743 -1.26652e-06)
(2.90427 0.00202471 -9.05861e-07)
(2.83156 0.00575084 -6.63189e-06)
(2.62966 0.0142903 3.07684e-06)
(1.99535 0.0418106 -1.39569e-05)
(0.505085 0.125421 1.83839e-05)
(-0.561025 0.289626 -4.17881e-05)
(0.0611203 0.400352 -3.77494e-05)
(0.411238 0.478178 -4.5156e-05)
(0.40326 0.544594 -3.72939e-05)
(0.302728 0.609372 -3.42937e-05)
(0.120971 0.677808 -3.73684e-05)
(0.0795134 0.742045 -3.01522e-05)
(0.0542951 0.819024 7.09464e-05)
(0.00592717 0.898876 0.0002066)
(0.0821416 0.939508 0.000204304)
(2.9951 6.57487e-06 2.36377e-07)
(2.98906 8.42697e-06 9.92753e-08)
(2.98253 -9.76521e-06 2.12968e-07)
(2.97637 2.80488e-05 1.30758e-07)
(2.97073 -4.61172e-05 -2.59549e-08)
(2.96584 8.04952e-05 1.21712e-07)
(2.96121 -0.000111361 -2.92624e-07)
(2.95696 0.00026152 6.40691e-08)
(2.95039 2.21998e-05 -3.82463e-07)
(2.939 0.0016106 -1.55792e-06)
(2.90621 -0.000585481 -3.04373e-06)
(2.8375 0.0126539 -6.41847e-06)
(2.6437 0.00379222 -1.1683e-05)
(2.04687 0.0542171 -1.28945e-05)
(0.625815 0.120135 -7.31024e-06)
(-0.422929 0.319158 1.66455e-06)
(0.105837 0.448908 6.78143e-06)
(0.42936 0.52896 2.21983e-06)
(0.422016 0.598383 -2.17834e-05)
(0.329714 0.671074 -2.78771e-05)
(0.186204 0.748698 -3.29725e-05)
(0.144928 0.825561 -2.36496e-05)
(0.141586 0.922513 4.14249e-05)
(0.101101 1.04118 0.000173815)
(0.121418 1.20602 0.000179347)
(2.98855 7.83436e-06 0.00143362)
(2.98291 -7.54195e-07 0.00328668)
(2.97953 5.82663e-06 0.0049306)
(2.97738 -3.24103e-06 0.00644465)
(2.97597 5.06176e-06 0.00768261)
(2.975 -4.94081e-06 0.0088962)
(2.97414 7.96442e-06 0.00973986)
(2.97259 2.12772e-05 0.010814)
(2.96744 0.000148146 0.0112848)
(2.95755 1.88522e-05 0.0121934)
(2.92486 0.00112529 0.01372)
(2.85299 2.12942e-05 0.0167298)
(2.64417 0.00263571 0.023565)
(1.97858 0.0029121 0.0372609)
(0.480714 -0.00160933 0.0644021)
(-0.482006 -0.00333604 0.0639917)
(0.025464 0.00904924 0.060356)
(0.431437 0.0165661 0.0588258)
(0.528868 0.00997188 0.0614884)
(0.495764 -0.0179052 0.0630454)
(0.436853 -0.015473 0.0632101)
(0.339648 0.000170828 0.0627657)
(0.193586 0.0197818 0.0622969)
(0.0627792 0.0418225 0.0606994)
(0.176085 0.0498774 0.0550926)
(2.98855 3.54744e-06 0.00143715)
(2.98291 7.25755e-07 0.00328168)
(2.97953 2.90983e-06 0.00493386)
(2.97738 -6.44925e-08 0.0064404)
(2.97597 1.03797e-06 0.0076872)
(2.975 -5.34363e-07 0.00888946)
(2.97416 -4.92125e-07 0.00974967)
(2.97272 8.19794e-06 0.0107926)
(2.96744 3.17589e-05 0.0112883)
(2.95832 0.000109912 0.0123396)
(2.92519 0.000223097 0.0131334)
(2.85344 0.000724687 0.0182015)
(2.64604 0.00144236 0.0208655)
(1.97316 0.00422777 0.0408653)
(0.438071 0.0107305 0.0631461)
(-0.569546 0.0380431 0.0626738)
(0.0112207 0.0593382 0.0603865)
(0.4204 0.071979 0.058844)
(0.49253 0.0691689 0.0614074)
(0.377762 0.0659787 0.06191)
(0.363228 0.0709249 0.0635429)
(0.274394 0.0865938 0.0633448)
(0.106501 0.1062 0.0626809)
(0.00724363 0.120341 0.0600296)
(0.155883 0.107586 0.0542568)
(2.98855 2.70959e-06 0.00143475)
(2.98291 1.13488e-06 0.00328536)
(2.97953 2.28111e-06 0.00493142)
(2.97738 8.49055e-07 0.00644331)
(2.97597 5.37557e-08 0.00768347)
(2.975 5.85165e-07 0.00889509)
(2.97414 -1.83549e-06 0.00974027)
(2.97262 8.09497e-06 0.0108147)
(2.96752 2.93533e-05 0.0112835)
(2.9577 0.000137629 0.012212)
(2.92534 0.000281422 0.0137317)
(2.85392 0.000998055 0.0167754)
(2.64675 0.00232922 0.0236178)
(1.98422 0.00748798 0.037346)
(0.497507 0.0220689 0.0641229)
(-0.460476 0.0735364 0.0634925)
(0.0455497 0.103475 0.0597371)
(0.433651 0.125633 0.0577538)
(0.493166 0.139782 0.060463)
(0.390066 0.162996 0.0613209)
(0.357918 0.162677 0.0627068)
(0.261292 0.164405 0.0623889)
(0.0795635 0.183289 0.061795)
(-0.0132761 0.199183 0.0586782)
(0.138593 0.16743 0.0531564)
(2.98855 7.88053e-06 0.00143793)
(2.98291 -6.4623e-07 0.00328092)
(2.97953 5.01548e-06 0.00493433)
(2.97738 -3.5053e-06 0.00643964)
(2.97597 2.62111e-06 0.00768737)
(2.975 -4.3581e-06 0.00888935)
(2.97416 5.00328e-06 0.00974803)
(2.97274 3.00064e-05 0.0107937)
(2.96755 0.000174799 0.0112726)
(2.95854 0.000179852 0.0123108)
(2.92592 0.00144158 0.0130601)
(2.85525 0.00119541 0.0180569)
(2.65132 0.00560858 0.0207051)
(1.99034 0.0128489 0.0408998)
(0.490712 0.0310026 0.0628538)
(-0.443883 0.0908323 0.0644103)
(0.0626767 0.138667 0.0595735)
(0.446477 0.172968 0.0570133)
(0.507724 0.19803 0.0596484)
(0.43137 0.224682 0.0614979)
(0.364745 0.234198 0.0617826)
(0.263336 0.240884 0.0607585)
(0.0914734 0.260485 0.0601547)
(-0.011597 0.276941 0.0570671)
(0.13948 0.227661 0.0515363)
(2.98855 -2.18046e-06 0.00143826)
(2.98291 -2.63908e-07 0.00328034)
(2.97953 -2.56341e-06 0.00493465)
(2.97738 -1.04683e-07 0.006439)
(2.97597 -2.34822e-06 0.00768799)
(2.975 1.9022e-06 0.00888877)
(2.97417 1.33505e-06 0.00974785)
(2.97277 2.87142e-05 0.0107947)
(2.96766 9.49583e-05 0.0112631)
(2.95876 0.000356465 0.0122755)
(2.92661 0.000786254 0.0130527)
(2.85706 0.00248874 0.0179304)
(2.6564 0.00606063 0.0207142)
(2.00622 0.0185078 0.0407914)
(0.52564 0.0542764 0.0626578)
(-0.415726 0.125277 0.0644298)
(0.0797828 0.179347 0.0592635)
(0.455373 0.219472 0.0563125)
(0.510359 0.252315 0.0589535)
(0.427596 0.28801 0.0605138)
(0.3683 0.304256 0.0608522)
(0.271724 0.319323 0.0594022)
(0.115412 0.34145 0.0582836)
(-0.00327968 0.356986 0.0551833)
(0.138912 0.296964 0.0495641)
(2.98855 -1.30303e-05 0.00143748)
(2.98291 1.53545e-06 0.00328132)
(2.97953 -1.11309e-05 0.00493406)
(2.97738 7.17042e-06 0.00643977)
(2.97597 -9.23507e-06 0.00768771)
(2.975 1.36686e-05 0.00888853)
(2.97418 -3.87885e-06 0.0097501)
(2.97282 2.03141e-05 0.0107904)
(2.96782 1.68157e-05 0.0112823)
(2.95912 0.000503637 0.0122924)
(2.92763 0.000109619 0.0130539)
(2.85982 0.00382764 0.0179146)
(2.66371 0.00645332 0.0205902)
(2.03163 0.0252538 0.0400466)
(0.578969 0.0805325 0.0622928)
(-0.352589 0.160923 0.0644406)
(0.10492 0.21867 0.0588314)
(0.469857 0.262908 0.0553653)
(0.521647 0.304427 0.058047)
(0.446616 0.349591 0.0599353)
(0.376974 0.37418 0.0598176)
(0.286776 0.398166 0.0580715)
(0.147473 0.425518 0.0564396)
(0.0154063 0.442634 0.0530598)
(0.135859 0.38194 0.0471923)
(2.98855 -1.371e-05 0.00143429)
(2.98291 1.44426e-06 0.00328596)
(2.97954 -1.24444e-05 0.00493026)
(2.97738 7.71284e-06 0.0064455)
(2.97597 -1.08243e-05 0.00768049)
(2.975 1.57438e-05 0.00889994)
(2.97418 -5.22064e-06 0.00973403)
(2.97278 2.30801e-05 0.0108245)
(2.96804 3.12968e-05 0.0112788)