/*--------------------------------*- C++ -*----------------------------------*\
  =========                 |
  \\      /  F ield         | OpenFOAM: The Open Source CFD Toolbox
   \\    /   O peration     | Website:  https://openfoam.org
    \\  /    A nd           | Version:  6
     \\/     M anipulation  |
\*---------------------------------------------------------------------------*/
FoamFile
{
    version     2.0;
    format      ascii;
    class       surfaceScalarField;
    location    "43";
    object      phi;
}
// * * * * * * * * * * * * * * * * * * * * * * * * * * * * * * * * * * * * * //

dimensions      [0 3 -1 0 0 0 0];

internalField   nonuniform List<scalar> 
1300
(
3.75095
5.62643
-3.18945
3.75095
-7.66159
5.62643
-4.2719
4.2719
-0.791621
0.791621
1.87647
1.87449
-2.63406
2.63406
-2.06332
2.06332
-2.54707
2.54707
-5.24799
5.24799
-5.06952
5.06952
4.716
-4.716
-6.2544
6.2544
-1.1242
1.1242
-3.68255
3.68255
3.17299
-3.17299
-2.12681
2.12681
-0.200969
0.200969
-0.554099
4.30505
3.19685
3.19685
-1.98582
1.98582
-4.87397
4.87397
6.22259
-6.22259
5.1409
-5.1409
-1.95144
-2.3404
1.79359
-11.5508
-5.868
-5.868
-8.44101
8.44101
-2.81458
2.81185
2.94551
-2.94551
-1.73381
1.73381
-4.25491
-0.0169972
-4.25491
4.25656
0.0153471
4.25656
-0.881169
0.0895474
-0.881169
3.82967
-3.82967
0.671404
0.120217
0.671404
3.06693
-3.06693
-1.87687
3.75333
1.87408
-1.87205
6.17711
-1.8789
3.75339
-6.04942
6.04942
-2.83977
0.205704
-2.83977
2.44275
0.191311
2.44275
-6.85122
6.85122
-2.1354
0.0720824
-2.1354
2.0241
0.0392168
2.0241
2.88047
-2.88047
-2.6433
0.0962332
-2.6433
2.41722
0.129852
2.41722
0.353438
5.27299
-5.97987
8.79172
-5.27299
0.0250052
5.21023
0.0377528
5.21023
-5.10518
0.0356562
-5.10518
5.01227
0.0572472
5.01227
4.81039
-0.0943984
4.81039
-4.83026
0.114263
-4.83026
-3.4132
-4.11279
-6.4174
0.162999
-6.4174
-1.13685
0.012645
-1.13685
1.07282
0.0513861
1.07282
-3.67164
3.67164
-4.00174
0.319187
-4.00174
3.12788
0.0451143
3.12788
1.86812
1.88283
5.61907
-5.61907
2.44608
-2.02715
-0.0996676
-2.02715
-2.18621
-2.95469
2.18621
-0.0593933
-0.424259
0.22329
-0.424259
3.157
0.0398547
3.157
2.25949
0.157726
-2.25949
0.27367
3.27206
-3.27206
1.31663
0.669192
1.31663
-5.55917
5.55917
4.96099
0.0512802
-4.96099
0.0870219
6.15727
0.0653169
6.15727
-6.20779
-0.0147985
-6.20779
2.63295
-4.97335
-2.54371
6.0629
0.191509
-6.0629
0.194895
2.91615
0.0293522
2.91615
-2.92042
2.92042
-2.98312
0.0376167
-2.98312
-2.16032
0.426515
-2.16032
1.41462
0.319188
1.41462
-4.12532
-0.129585
-4.12532
-4.13792
0.136176
4.13792
0.118641
1.07405
-1.07405
-0.953095
0.0719263
-0.953095
-3.93907
-0.18625
3.93907
-0.109399
-3.78695
-0.0427229
-3.78695
-3.02119
0.0380636
3.02119
0.0457417
3.1119
0.0450968
-3.1119
0.0449757
-1.87097
3.7538
-1.87999
3.75407
-5.66552
-0.383899
-5.66552
6.3438
-0.294382
6.3438
3.23105
0.4515
-3.23105
0.391285
2.30306
0.139697
2.30306
-6.8289
-0.0223188
-6.8289
6.85484
-0.0036212
6.85484
2.20431
0.0987458
-2.20431
0.0689115
2.00529
0.0188129
2.00529
2.90462
-0.024146
2.90462
-2.87652
-0.00395773
-2.87652
2.79652
-2.79652
2.72516
0.0713672
-2.72516
0.0818535
-11.1239
11.1091
-0.0362488
-11.0877
5.17399
5.17399
4.26585
0.544541
4.26585
-5.01977
0.189508
-5.01977
2.77526
-5.31897
3.11133
-6.52453
4.70872
-16.2595
4.31529
-8.42808
6.69075
-6.69075
6.55854
0.132216
-6.55854
0.141133
-1.19121
0.0543566
-1.19121
-3.07778
-0.593858
-3.07778
4.32319
-0.651551
4.32319
-3.02827
3.02827
-3.07686
0.0485959
3.07686
0.0510169
1.98075
0.0245411
-1.98075
-0.0464016
0.537815
0.133589
-0.537815
0.113556
3.48307
-0.211014
3.48307
-3.07652
-0.195537
-3.07652
-1.25641
0.0652002
1.25641
0.0602242
-5.80819
0.249016
-5.80819
-11.1817
0.0939702
-11.1439
-6.11382
-6.11382
2.32719
11.1189
-2.89339
0.0168727
2.89339
0.0227644
2.97589
0.0523795
-2.97589
0.0554641
-2.86078
0.0642525
2.86078
0.0596455
-2.53175
0.371433
-2.53175
-1.01776
1.01776
-1.17495
0.157189
1.17495
0.239663
1.36242
-0.288361
1.36242
1.01727
0.0555459
-1.01727
0.0641778
-3.75678
-0.0301716
-3.75678
6.58098
-0.237178
6.58098
-2.95296
-0.123559
2.95296
-0.0483412
-0.0349311
11.1441
-5.13905
0.0338767
5.13905
-11.2094
11.2433
-3.24137
0.709616
3.24137
1.02448
5.28553
0.27364
-5.28553
0.265764
6.78987
0.0649713
-6.78987
0.0991165
-2.57288
-0.504909
-2.57288
-5.06362
-0.601895
5.06362
-0.740432
-11.4823
-0.202998
11.6853
-11.425
6.01118
0.146086
-6.01118
11.3894
-0.969715
-0.10434
0.969715
0.0480496
1.69988
-0.337464
1.69988
3.68675
-0.203679
-3.68675
-0.0700273
-6.72661
-0.102289
6.72661
-0.145634
-2.12899
-0.443889
2.12899
-0.429106
-4.26723
4.30709
1.90987
-2.46344
-2.50992
-5.41813
1.85494
1.89885
4.30102
-10.2092
-6.05031
-10.0143
7.21276
-6.947
-9.36147
9.26707
7.76592
-7.80864
-5.77816
5.82917
6.48395
-6.4382
1.87922
1.87411
7.98837
-7.78267
-15.7046
15.3207
7.54461
-7.47253
15.8661
-15.8884
-17.9258
17.9908
-5.7037
5.79993
-6.73258
6.72862
-6.9652
6.91686
-2.86789
-3.65664
13.1986
-13.0356
8.43027
-8.52994
-8.63218
8.95136
3.38451
0.922578
3.42961
-1.88196
3.76118
-1.87143
3.7813
2.68481
-5.5527
2.63416
-5.14407
4.24951
4.18076
-4.19012
-1.22801
-5.92589
5.95524
-5.81326
5.87291
9.01993
-9.03692
-1.88503
3.75915
-1.86904
3.76789
-3.4235
-2.35465
3.37839
0.922633
8.10899
5.08956
-8.3005
-1.71381
-7.9513
7.74762
-8.18751
7.99198
-0.437785
5.83701
-5.39922
4.43619
-1.65254
7.48955
5.56022
5.74973
5.86012
-5.58648
1.08688
-6.4861
-6.39908
-2.48201
2.55393
2.45412
-2.3339
6.01043
1.75549
5.90103
-5.72414
-2.0845
-5.75431
3.82044
2.00874
3.86903
4.081
2.40295
4.11906
3.03008
-3.03611
0.00602927
-3.05891
6.08899
0.723036
-5.41356
-4.49093
5.0113
2.97707
5.20261
-5.57685
-2.20581
-5.18557
-9.58207
-6.12253
-10.184
10.1099
5.2108
9.81553
-11.9929
11.8473
4.83082
2.71379
4.87004
-4.95653
-2.516
-4.88762
11.6751
-2.63484
-9.04027
-10.3574
-7.56843
10.361
5.50507
11.0131
6.97771
11.1122
4.44499
7.23012
-9.95006
2.38163
-3.86452
-1.83917
-3.78267
3.66335
2.13658
3.7932
-4.21569
-2.51689
-4.19882
-4.29113
-2.67407
4.31528
2.41334
-4.40656
-3.78096
4.53012
2.38674
4.08739
-10.1377
4.34068
-7.99732
-9.25605
-3.7795
-9.11492
3.48999
2.62592
-6.11591
-2.06271
8.43479
-4.25403
7.20678
-5.16739
-3.36255
-5.21379
-6.90564
-1.72653
-6.76946
-8.9552
8.45029
-9.22921
8.57766
12.6371
-5.67355
-6.96354
-3.96677
-2.47143
3.9218
-0.49219
-3.71039
3.71642
0.0507909
3.83209
4.75467
4.26248
-3.88362
-1.92964
-3.82816
3.82545
2.04746
3.8897
6.77153
2.24839
6.78688
-6.46918
-2.56774
-6.59877
9.13773
-8.71122
2.87
-2.8048
5.33467
2.65731
-5.12366
-2.82764
6.22711
-3.17486
-3.05225
-12.3578
10.8514
1.50636
-4.86826
-0.432071
-0.231101
-5.5863
-3.77517
5.47204
0.277691
11.1291
7.35396
-5.51465
5.76367
6.17061
6.22189
-0.177191
5.91848
-5.20886
5.3464
-2.57056
-2.77585
5.34746
-5.53371
-1.25131
-5.44072
4.18941
0.367315
1.71307
-1.48978
-1.9191
-0.562904
-1.85492
1.4503
1.00382
1.58389
0.908772
1.64516
-2.95577
0.599197
2.35657
-2.047
-1.73471
-3.66562
-1.13256
4.79819
5.63598
2.11163
-5.56596
-0.188352
2.6489
-2.59752
-0.736039
-2.92958
2.17678
-2.91282
-3.54978
-1.86354
5.41332
-3.36944
-0.458723
3.31706
0.551977
-3.82724
-2.09865
3.78962
0.329443
-3.1273
6.19001
-3.06271
-5.05694
2.529
3.55999
4.53773
-4.79086
2.44864
2.34222
-1.23087
4.28711
0.915498
4.42681
-7.00597
4.80015
5.7159
3.23547
-6.1674
0.981828
-6.02414
8.39955
-7.25965
-1.1399
3.92372
4.47582
7.07784
5.55925
-5.71969
12.7975
-1.05286
-6.20679
7.07699
-3.84153
4.78027
-8.6218
-10.3395
4.13273
-9.22963
11.037
-1.80737
-3.61967
-8.37322
12.8493
-1.20513
-11.6442
8.6104
-4.22753
-4.28545
8.51298
-6.86236
6.80145
-1.95515
-4.84631
-10.1626
-5.72583
10.2649
1.58237
-9.88201
12.2636
-2.65189
4.15802
0.712018
4.17683
3.28203
-5.42876
2.14673
3.58034
-5.53548
2.05786
-7.48662
-6.78621
12.1334
-5.34714
-10.5657
-9.59638
-0.969337
2.55428
9.70935
-9.532
7.46686
2.06514
3.3025
0.587209
-3.37386
-0.408805
0.245353
4.51803
-4.76339
4.03855
4.19628
3.25678
1.26125
3.84675
2.10849
-3.86952
-0.329304
-4.16095
1.48688
-1.74761
-3.68534
5.17222
-4.0634
0.378058
-2.74252
-3.498
6.24052
-4.58169
3.03777
3.15224
5.08523
-4.913
1.415
-2.3944
-2.5186
2.6484
-4.39601
1.98574
3.18648
4.37248
0.591527
5.92336
6.21
-8.54928
0.551956
11.2996
-9.58575
2.49325
8.61898
-9.9601
0.363723
-8.75119
0.977558
-5.23158
-5.13836
5.13171
-6.85824
-3.49009
6.21546
0.571424
-6.3341
-0.435367
-6.07655
-2.87865
-6.52044
-3.05701
-6.1722
-8.7767
-1.68423
-7.09247
6.76606
-6.70526
-3.47871
7.4457
1.13196
-7.48328
7.37894
-7.54746
7.20999
0.0943012
3.62212
4.35678
1.88535
-2.39125
4.2766
-5.06723
7.31562
-8.6548
3.58757
4.11952
-6.68726
-4.53528
5.0728
4.06493
5.39199
8.97947
-10.4778
1.49834
-10.7498
12.0841
-1.33423
-16.5532
5.80337
-7.57375
2.54906
0.320946
2.60341
0.606817
2.47648
-3.0833
-2.19799
-2.13776
-2.39071
-3.49272
5.88342
1.11577
-3.41549
2.29973
-3.57075
4.68651
0.00849955
-3.42399
5.20463
-2.72815
5.52558
-3.56225
1.96333
3.49896
5.8147
-2.31574
4.42189
-1.76458
1.89847
-4.21421
-1.59425
-2.95986
5.09645
-3.28066
3.65872
-0.33306
3.99178
-4.08103
0.906164
-0.824245
3.37203
3.6457
4.31831
-3.05706
2.94815
-4.71273
-1.26606
-4.1212
-0.934721
-0.220406
-3.84175
4.06216
6.06441
-6.28482
-5.30924
9.56861
-4.25936
7.73055
-5.4616
-2.26895
-4.31176
-4.39946
3.94032
1.97816
9.70871
0.178461
-5.64006
-5.0304
-4.00592
3.19888
2.14752
-1.887
3.39337
2.1181
-0.405038
0.488763
1.09513
1.85384
-1.36508
0.281094
1.57275
-1.20868
1.87519
0.77371
-1.93074
0.0758165
-1.26347
3.44026
1.0931
-2.09692
0.731839
0.969567
-3.54013
4.90627
-2.63706
-2.26921
5.87584
1.15193
-3.78899
4.28878
-3.92147
2.40559
-3.53816
-1.3834
-5.30487
-3.54937
-2.53704
4.83677
-3.34638
5.45801
1.28698
-5.26966
6.55665
-3.60399
1.74045
-3.06439
3.8381
-1.08252
-1.98187
2.94928
2.46405
-3.08093
0.151342
-0.131648
2.38522
-2.51686
-0.527606
-2.5746
-4.57491
4.90435
-2.10463
4.55328
2.17196
-1.91627
6.46954
1.80915
-3.72542
-3.24779
-3.70652
-1.3832
3.15454
-0.584501
-4.30311
-5.43081
4.20437
0.222437
-6.83084
7.7705
-0.939658
-3.85376
-0.946391
4.87011
-6.00381
0.468323
-3.94594
3.82455
4.74005
4.96249
-11.4198
-0.224351
-6.20903
1.11206
-7.32109
5.58788
-3.57081
7.70354
-10.3587
6.87998
-9.22672
6.56364
-0.757446
6.23687
-4.09014
2.8034
-8.52922
-6.94686
5.46273
-2.74894
6.17475
-3.11215
9.2869
-5.76404
5.2223
4.0646
-1.02059
-4.19321
-5.23046
4.20988
-0.00816573
4.16867
4.98359
-2.87511
4.65429
2.2586
-4.653
-2.1374
-6.48967
1.83667
-3.33743
-1.91946
3.75613
3.16577
3.75297
1.23752
-3.34417
7.23801
-8.20735
-1.89087
-3.24749
5.19934
-0.989468
3.39479
-6.64228
-1.8368
4.81344
-0.756362
-4.05708
0.860115
-4.35021
1.67514
-6.02535
5.1831
-5.61847
2.24666
-9.82041
-5.23663
-5.18858
-2.27822
-5.26924
-7.62471
5.34649
-1.82135
5.5576
-8.59727
7.84091
-3.48681
8.8333
-5.46622
-1.05422
5.89533
1.31467
10.148
0.112314
-4.64759
-1.92927
3.84078
-1.9115
1.26961
-3.72944
0.11134
2.47153
3.40431
-6.66094
-0.0263222
-4.67391
-3.91814
7.98307
5.65047
11.7149
1.23707
9.18197
-1.19891
10.419
4.19309
4.43275
-3.04316
4.5415
1.019
4.60657
-0.856009
2.81934
1.7474
1.76005
0.837469
2.29472
1.35098
3.20088
0.117586
-2.02017
4.65259
-8.65851
-0.987476
-8.11396
1.15311
5.4293
-4.27619
3.0081
-0.860573
1.09659
-0.0119268
-1.54089
1.55281
-2.78777
-1.94592
-0.373172
-1.62751
2.35935
1.81275
-1.98618
-0.801598
0.317321
-3.86669
3.22084
-3.06949
-0.605447
5.9512
-2.81304
0.296179
-1.07259
-2.27843
-2.84133
2.76551
6.17471
0.294833
3.112
5.19919
3.10054
0.225427
3.89615
-5.70352
-3.59046
-5.92787
-0.339991
4.53012
1.71629
7.99307
5.78089
4.79142
-1.85086
-10.0582
6.54053
-1.99903
5.2063
-1.14922
-4.87613
5.05314
2.26248
-5.62456
0.00609543
-4.87003
-6.86906
-0.491702
8.33261
-9.65627
8.60205
5.7234
1.36907
-4.44454
-0.744033
4.28735
0.145397
10.5644
-0.904391
-7.16337
8.06776
-4.52491
3.53743
0.730814
2.66255
2.28363
1.42305
-5.74032
-10.0165
-1.94443
-1.5957
-4.21364
0.584548
-2.3973
6.10376
-2.56633
3.83482
5.50143
6.59803
-2.06926
-4.21556
6.32862
-2.4938
4.10422
)
;

boundaryField
{
    wall-4
    {
        type            calculated;
        value           uniform 0;
    }
    velocity-inlet-5
    {
        type            calculated;
        value           uniform -3.75095;
    }
    velocity-inlet-6
    {
        type            calculated;
        value           uniform -5.62643;
    }
    pressure-outlet-7
    {
        type            calculated;
        value           nonuniform List<scalar> 8(3.18945 7.66159 4.29185 9.75721 7.52599 5.17666 5.88659 9.024);
    }
    wall-8
    {
        type            calculated;
        value           uniform 0;
    }
    frontAndBackPlanes
    {
        type            empty;
        value           nonuniform 0();
    }
}


// ************************************************************************* //
