/*--------------------------------*- C++ -*----------------------------------*\
  =========                 |
  \\      /  F ield         | OpenFOAM: The Open Source CFD Toolbox
   \\    /   O peration     | Website:  https://openfoam.org
    \\  /    A nd           | Version:  6
     \\/     M anipulation  |
\*---------------------------------------------------------------------------*/
FoamFile
{
    version     2.0;
    format      ascii;
    class       volVectorField;
    location    "43";
    object      U;
}
// * * * * * * * * * * * * * * * * * * * * * * * * * * * * * * * * * * * * * //

dimensions      [0 1 -1 0 0 0 0];

internalField   nonuniform List<vector> 
918
(
(0.985047 -0.000710298 0)
(0.00534384 2.96624 0)
(-0.00261394 0.840824 0)
(0.979574 0.00195754 0)
(-0.0153381 2.03824 3.07285e-20)
(-0.00709049 2.94856 -2.6617e-18)
(0.808371 1.128 4.23666e-19)
(0.273979 0.10324 -1.53247e-20)
(0.999921 -0.000242574 0)
(0.080604 0.734215 0)
(0.0130046 0.518374 0)
(0.734723 -0.0166555 0)
(0.0102052 2.93157 0)
(0.00358439 2.79428 0)
(-0.000653121 3.19 8.19703e-19)
(-0.0126378 1.89801 5.25209e-21)
(0.33234 0.0235472 1.00954e-18)
(0.235889 1.14097 3.3785e-19)
(0.964478 0.00670996 0)
(-0.0287113 0.519354 0)
(0.0725469 0.164812 -7.29205e-19)
(1.00184 -0.00455843 0)
(0.999853 -0.00893338 0)
(0.975157 -0.00605589 0)
(0.595191 -0.0366556 0)
(0.0224584 2.6444 0)
(-0.0123592 2.91197 9.80013e-19)
(-0.00246021 0.913831 0)
(-0.00071112 1.14553 0)
(-0.00443923 0.886887 0)
(-0.023829 2.6095 0)
(-0.00655653 2.09623 -2.45299e-20)
(-0.00996264 1.86171 0)
(-0.0221386 2.98761 -9.61995e-23)
(-0.0164979 3.00549 2.06823e-18)
(0.00230077 3.00059 0)
(0.871305 -0.00954047 0)
(0.376617 0.91979 1.68782e-19)
(0.807825 1.13944 -5.14906e-19)
(0.941057 0.992801 5.32461e-19)
(0.674639 1.22372 -9.73656e-20)
(0.685528 1.19823 5.61224e-19)
(0.301093 0.195055 1.49506e-20)
(0.283599 0.0883993 0)
(1.13274 0.511257 0)
(0.266919 0.189924 6.82918e-20)
(0.245673 0.113159 -7.08662e-20)
(0.920419 -0.00701224 0)
(1.00026 7.3745e-05 0)
(0.999909 0.00031685 0)
(1.00369 -0.00729188 0)
(1.00089 -0.000953154 0)
(1.00011 -1.38504e-05 0)
(0.0951443 1.83386 -7.77752e-19)
(0.0309654 0.90774 0)
(0.134497 0.80126 0)
(0.0178193 0.858893 0)
(0.0436336 0.677057 0)
(0.00781776 2.0134 0)
(0.00998722 0.758521 0)
(0.00595784 0.549904 0)
(0.0040678 0.747455 0)
(0.00850455 0.501562 0)
(0.840923 -0.0154993 0)
(0.841556 0.0330781 0)
(0.766891 -0.00672839 0)
(0.813438 0.043494 0)
(0.700558 -0.017404 0)
(0.0139389 3.00021 9.88943e-19)
(0.0111597 3.00597 0)
(0.00624813 3.00387 0)
(0.011909 2.99712 1.12457e-23)
(0.00825888 2.95875 -1.46981e-18)
(0.0122411 2.98294 0)
(0.00903762 2.90471 0)
(0.0210248 2.93182 2.30767e-24)
(0.00416082 2.82385 0)
(0.0252292 2.91876 0)
(-0.000981765 2.74435 0)
(0.309908 3.58995 0)
(-0.122623 3.67328 0)
(0.152548 3.28107 -7.62905e-19)
(0.00597792 3.01404 0)
(-0.0281473 2.01497 0)
(-0.00596568 2.16416 -5.17999e-21)
(-0.00690125 1.90486 -3.26963e-21)
(0.417606 0.136517 -3.49175e-19)
(0.337393 -0.0021982 -3.37296e-19)
(0.391735 0.155744 -1.05117e-18)
(0.318788 0.0408144 -6.91411e-19)
(0.258488 0.998117 0)
(0.334497 1.27055 -3.53363e-19)
(0.410449 1.17302 5.8241e-19)
(0.987899 0.00808742 0)
(0.943405 0.00579812 0)
(1.00029 0.000674076 0)
(1.00254 0.00907192 0)
(1.00313 0.0089545 -2.6595e-18)
(0.992129 0.00947753 2.0097e-18)
(-0.0326976 0.770693 0)
(-0.0157306 0.493376 0)
(-0.0227707 0.969006 0)
(-0.010746 0.798797 0)
(-0.0148786 0.535474 0)
(0.091529 0.17378 2.25647e-19)
(0.142577 0.145872 0)
(0.993612 -0.00769888 0)
(0.954006 -0.00646379 0)
(0.757969 0.0497441 0)
(0.691793 0.0556993 0)
(0.661582 -0.0230467 0)
(0.971407 -0.00466938 0)
(0.622235 0.0602836 0)
(0.450858 -0.0295223 1.48987e-18)
(-0.0411403 2.86072 7.85815e-19)
(0.0337291 2.91396 0)
(0.0423712 2.89215 0)
(0.00370436 2.70141 0)
(-0.00874386 2.98663 9.39354e-19)
(-0.0142501 2.89485 0)
(-0.0109226 2.99188 -2.88912e-18)
(-0.0116722 2.92975 9.82515e-19)
(0.00930565 1.3427 0)
(0.0278258 1.38047 0)
(-0.00593276 2.1218 3.77646e-22)
(-0.00793343 2.07832 0)
(-0.0167654 1.8813 0)
(0.938367 -0.00543156 0)
(0.856317 -0.0108822 0)
(0.863573 0.00575576 0)
(0.9493 -0.00634106 0)
(0.883258 -0.00795725 0)
(0.501215 1.12085 -2.14117e-19)
(0.548819 1.19173 0)
(0.337542 0.852899 3.26017e-20)
(0.28126 0.717654 0)
(0.901996 1.0304 -1.48898e-19)
(1.01351 0.83116 2.91743e-19)
(0.392164 1.33078 0)
(0.537993 1.28414 0)
(0.589265 1.21822 0)
(0.0959146 0.173165 -2.95004e-19)
(0.321362 0.192092 0)
(0.284944 0.081648 1.96071e-19)
(0.977011 0.887059 0)
(1.04826 0.728193 0)
(1.07534 0.662439 -2.25091e-19)
(1.11579 0.574113 0)
(1.17037 0.383067 4.46549e-20)
(0.957264 -0.00724226 0)
(0.962602 -0.00818831 0)
(0.90066 -0.00731689 0)
(0.983896 -0.00814511 0)
(0.97436 -0.00807999 0)
(0.936464 -0.00654411 0)
(1.0002 0.00250381 0)
(1.00077 0.0012469 0)
(0.999999 0.000772767 0)
(0.0427267 2.0806 4.32242e-19)
(0.14584 1.77762 0)
(0.0159184 2.19874 6.59794e-19)
(0.0552508 1.88503 -5.55757e-19)
(0.173438 1.12095 -2.7674e-19)
(0.052809 0.984857 0)
(0.124241 0.978938 0)
(0.00370599 0.820493 0)
(0.0274039 0.613547 0)
(-0.00515904 2.25022 -8.61702e-22)
(0.0207152 2.02129 0)
(-0.00593206 2.25104 -3.53662e-20)
(0.00904866 2.0249 5.77746e-20)
(0.00732269 0.789774 0)
(0.00566822 0.774303 0)
(0.00778755 0.579246 0)
(-0.0131599 0.745216 0)
(-0.00186805 0.493299 0)
(0.937231 0.0135233 0)
(0.852776 -0.0118434 0)
(0.926976 0.00452376 0)
(0.844408 -0.0127299 0)
(0.81228 -0.000691008 0)
(0.899669 0.0220069 0)
(0.874136 0.0277426 0)
(0.788695 -0.00401412 0)
(0.0103434 3.06771 -9.24656e-21)
(0.0148362 3.05915 0)
(0.0124476 2.97028 0)
(0.00763552 2.87666 0)
(0.900867 3.98824 0)
(1.19636 3.38223 9.44698e-19)
(0.0830275 3.09534 0)
(-0.0157955 2.92052 0)
(0.00879728 1.40481 0)
(-0.0305597 1.72064 0)
(-0.00251948 1.56391 0)
(-0.0344067 2.56628 -8.1109e-21)
(-0.0182855 2.26448 0)
(-0.0252887 2.40621 0)
(0.0111374 1.952 1.03105e-21)
(-0.00924545 2.23815 -1.57683e-21)
(-0.00305467 2.20255 3.08309e-21)
(0.00133173 1.92745 0)
(0.440036 0.114249 5.3023e-19)
(0.355494 -0.0121932 -5.20358e-19)
(0.230086 1.58298 0)
(0.285815 0.74381 -3.25875e-19)
(0.179758 1.67766 -1.08165e-18)
(0.243099 1.20589 1.08248e-18)
(0.901884 0.00613154 0)
(0.967215 0.0104873 0)
(0.975063 0.00975271 0)
(0.923147 0.00595297 0)
(-0.00698877 0.733636 0)
(-0.0265154 0.74318 0)
(-0.0102543 0.489666 0)
(0.227758 0.189274 6.28375e-19)
(0.188683 0.17378 -7.47319e-19)
(0.19382 0.127534 0)
(1.09539 0.0867711 2.52334e-20)
(1.07947 0.040044 0)
(1.01146 0.0422976 0)
(0.907446 -0.00305073 0)
(0.470708 0.0922722 0)
(0.530237 0.0676956 -2.38835e-18)
(0.389875 -0.0164123 8.99518e-19)
(0.0110339 2.97732 8.27374e-19)
(-0.0325265 2.86202 4.72844e-20)
(0.00854301 3.05298 -1.94965e-20)
(0.0157539 3.04347 7.3053e-19)
(-0.0118089 2.99995 3.22997e-20)
(-0.0123335 2.95231 -1.30361e-22)
(-0.0150574 3.01328 -6.02379e-19)
(0.0143019 3.02665 4.23181e-19)
(0.00758382 3.03472 -6.8749e-19)
(0.933655 0.00169213 0)
(0.938802 -0.00145512 0)
(0.846794 -0.0109882 0)
(0.956588 0.0114991 0)
(0.942856 0.0128649 0)
(0.881875 0.00588974 0)
(0.916803 0.01748 0)
(0.925912 0.0146281 0)
(0.838162 0.00265754 0)
(0.675267 1.42178 1.51649e-20)
(0.693746 1.53301 0)
(0.121366 0.307064 6.87829e-20)
(0.199993 0.636768 5.46314e-19)
(0.235131 0.689013 -3.19826e-19)
(0.219581 0.516164 6.3368e-19)
(0.328877 0.804898 1.56226e-18)
(0.125571 0.224853 3.7615e-19)
(0.366845 0.179184 7.34975e-19)
(0.349057 0.19143 1.90476e-19)
(0.297964 0.0628283 3.65001e-19)
(1.16567 0.431317 6.75874e-20)
(1.19521 0.242711 6.64784e-20)
(0.00437486 2.24178 2.59725e-19)
(0.0432515 1.94934 0)
(0.968131 0.0320929 0)
(0.943309 0.0188912 0)
(0.866114 -0.0158035 0)
(0.0124436 3.07414 0)
(0.0167521 2.94405 1.29609e-18)
(0.0139489 2.95669 0)
(0.00589155 2.84991 -1.28594e-18)
(0.00952084 3.0906 3.16901e-19)
(0.0114285 3.08372 0)
(0.714887 1.83105 -1.72779e-19)
(1.24091 2.63857 5.84113e-19)
(0.699776 2.00978 -1.40853e-18)
(0.0225031 2.97597 -7.24438e-19)
(0.0413722 2.99932 0)
(-0.0383296 2.87932 0)
(-0.00820638 2.22845 -1.22008e-20)
(-0.0103817 2.24784 -2.22207e-21)
(0.00974524 1.98334 -7.26239e-21)
(0.26708 1.38346 1.04008e-18)
(0.270631 0.532674 -7.1336e-19)
(0.0706937 1.99607 7.69079e-19)
(0.120941 1.86718 -9.23583e-19)
(0.20652 1.52475 1.02356e-19)
(0.00666144 3.11924 -1.85615e-18)
(0.0180481 3.11929 1.99958e-18)
(-0.004973 2.9803 8.8305e-19)
(-0.000215514 2.97503 -8.52037e-19)
(-0.01797 2.87828 -8.99407e-19)
(0.0127049 3.09889 -2.35631e-18)
(0.00520566 3.10784 2.32385e-18)
(0.250279 0.676065 0)
(0.203864 0.64217 -1.15241e-18)
(0.0690244 0.210301 5.06438e-19)
(0.340168 0.921723 1.11719e-18)
(0.190487 0.267124 -1.71997e-18)
(1.18164 0.171239 5.47985e-20)
(1.19385 0.295612 0)
(1.17801 0.119192 -1.71292e-22)
(-0.00458135 2.26044 -1.58811e-21)
(-0.000654276 2.24657 0)
(0.0336419 1.98217 0)
(0.311352 1.30571 -3.71729e-19)
(0.350326 1.14967 -8.02927e-19)
(0.220921 0.376139 1.43189e-18)
(1.00643 -0.00971947 0)
(1.00773 -0.00780656 4.89018e-19)
(0.00742144 1.31775 0)
(-0.0161449 1.29658 0)
(1.00245 0.00330656 1.37843e-21)
(1.00323 0.00786767 1.00369e-18)
(-0.0260182 2.55124 1.02692e-20)
(-0.0305183 2.59239 0)
(0.0424624 3.17335 5.22828e-19)
(0.378834 3.55217 0)
(1.13744 0.680008 -6.10456e-20)
(1.01196 0.0107736 -2.79389e-21)
(1.02078 -0.00908846 0)
(1.00159 0.000238291 1.48168e-22)
(0.108136 1.36334 0)
(0.144131 2.59097 0)
(0.0211341 1.30562 0)
(-0.00134077 2.63907 2.90531e-20)
(-0.020728 2.59021 1.48718e-20)
(0.998983 0.0264758 2.59648e-21)
(1.06162 0.00484236 0)
(1.09803 0.026852 0)
(-0.0264886 1.7509 0)
(-0.0227022 2.59621 0)
(-0.0123499 1.29654 0)
(0.290451 1.48294 -1.60352e-19)
(1.01147 -0.00910115 0)
(1.00969 -0.0130044 0)
(1.00229 0.000926254 6.26793e-19)
(1.00548 -0.00494537 -7.38124e-19)
(1.00114 -0.000877037 0)
(-0.00734973 1.46223 0)
(0.00322645 1.36608 0)
(0.00760477 1.42487 0)
(-0.0142488 1.28234 0)
(-0.0117728 1.25928 0)
(-0.0160706 1.23773 0)
(1.03532 -0.00464397 0)
(1.01945 0.015065 -9.13783e-22)
(0.787404 1.30271 2.61941e-19)
(1.00236 0.000350129 -6.25462e-19)
(1.00339 0.00451214 7.46782e-19)
(1.00129 0.00211559 0)
(1.0113 0.00966021 6.23129e-19)
(1.00696 0.00754441 -7.58573e-19)
(1.00733 0.0112923 0)
(-0.0270343 2.62294 0)
(-0.0301675 2.60068 -1.46603e-20)
(-0.0274234 2.61467 1.05893e-20)
(1.23372 0.266996 5.52312e-19)
(1.15997 0.0872394 0)
(0.0457125 3.09079 -1.02388e-18)
(0.0510278 2.8715 -7.24658e-20)
(0.105129 3.20131 1.37232e-18)
(0.123797 3.21375 -3.00371e-19)
(0.146123 3.26103 0)
(0.0229752 3.13769 2.82256e-19)
(0.062099 3.16205 1.01992e-18)
(0.0627736 3.17892 -5.27624e-19)
(0.0269459 3.12942 0)
(0.625771 0.296972 0)
(0.584373 0.336144 0)
(1.11532 0.712282 1.47799e-19)
(1.08096 0.845579 -1.44325e-19)
(1.17616 0.596337 0)
(1.20722 0.531348 0)
(1.01584 0.012042 -1.15772e-18)
(1.01478 0.0128186 1.45558e-18)
(1.02555 -0.00883985 0)
(1.02387 -0.010372 0)
(1.00657 0.00286833 0)
(1.01097 0.00420374 0)
(1.00442 0.0021469 0)
(1.00944 0.00642714 0)
(1.00707 0.00511094 0)
(1.00452 0.00532895 0)
(0.0950759 1.3596 0)
(0.0762817 1.34232 0)
(0.136331 1.41059 0)
(0.133162 1.41229 0)
(0.151578 2.61403 0)
(0.191206 2.67975 -4.27868e-19)
(0.109526 2.67515 0)
(0.0832741 2.67644 1.8116e-19)
(0.0307439 2.68194 -1.84929e-19)
(0.0156945 1.31667 0)
(0.0229739 1.25458 0)
(0.0238622 1.33386 0)
(0.0260006 1.2787 0)
(0.00141457 1.99175 1.89742e-21)
(-0.021218 2.61806 -5.78958e-21)
(-0.00871371 2.68164 1.31971e-20)
(-0.0191932 2.69506 0)
(-0.0238078 2.62582 -2.88082e-20)
(-0.0223032 2.62132 2.80757e-21)
(0.00986453 1.99091 4.72609e-22)
(-0.00904009 2.41185 7.76835e-21)
(-0.0132717 2.4326 -1.49623e-20)
(1.00996 0.0379311 1.17356e-18)
(1.00603 0.017297 -1.46227e-18)
(1.00327 0.0435026 -1.20018e-18)
(0.977146 0.0301149 1.51121e-18)
(1.06343 0.0082094 0)
(1.04901 -0.00674837 0)
(1.09074 0.0357273 0)
(1.07429 0.0137922 0)
(1.07303 -0.000629021 0)
(1.1385 0.0761184 0)
(1.11291 0.0434766 0)
(1.11541 0.0357419 0)
(-0.0272506 2.4464 3.94617e-22)
(-0.0185418 2.02593 0)
(-0.0192591 2.23099 0)
(-0.0242898 2.61651 -7.62516e-21)
(-0.0228237 2.62648 1.21008e-22)
(0.00403193 1.57378 -2.28137e-20)
(0.00178493 1.49879 2.32288e-20)
(-0.0150576 1.38461 0)
(-0.014592 1.39099 0)
(-0.0165902 1.38675 0)
(-0.00808742 1.30076 0)
(0.00203355 1.24856 0)
(0.375097 1.50445 2.63992e-19)
(0.421789 1.51086 1.45905e-19)
(0.603631 2.46306 -2.47633e-19)
(0.387856 2.56089 7.2912e-19)
(0.350309 2.06931 7.16306e-20)
(1.02057 -0.00810908 0)
(1.01572 -0.00942407 0)
(1.0148 -0.0132409 0)
(1.00759 -0.000692927 0)
(1.00492 -0.000679947 0)
(1.00798 -0.00454733 0)
(1.00951 -0.00358963 0)
(1.01456 -0.00443638 0)
(1.02022 0.0159292 1.13564e-18)
(1.01764 0.0147985 -1.4378e-18)
(1.02068 0.018124 -1.14464e-18)
(1.01839 0.0165353 1.43148e-18)
(0.74673 1.3468 0)
(0.682453 1.38461 2.27805e-19)
(0.852454 1.22577 8.48393e-20)
(0.887768 1.19111 -1.12568e-19)
(1.16648 2.62256 2.83122e-19)
(0.784499 0.122559 5.85375e-19)
(1.1673 0.103038 0)
(1.20628 0.194081 -4.47221e-19)
(1.18707 0.152859 -1.85451e-20)
(1.0125 0.156382 0)
(0.0851608 3.02356 3.64639e-19)
(0.0875251 2.90522 -1.21873e-18)
(0.0347544 2.36517 7.74425e-19)
(0.133476 -0.0984226 -3.72697e-19)
(0.346685 3.45467 -2.4404e-19)
(0.196597 3.34535 0)
(0.227286 3.40486 3.1789e-19)
(0.228685 3.08205 -1.26376e-18)
(0.2624 3.20228 0)
(0.00587883 3.1228 5.278e-20)
(0.0166681 3.13137 -6.06369e-19)
(0.0154515 3.12718 8.92457e-19)
(0.0332037 3.14024 0)
(0.0313809 3.14971 0)
(1.26303 2.5892 0)
(0.52175 0.825194 -5.28539e-19)
(1.00008 1.02227 5.35037e-21)
(0.966165 1.07179 0)
(0.83594 0.96133 -1.15678e-19)
(1.05641 0.892784 2.73657e-20)
(0.403818 0.368825 -9.17702e-19)
(0.689563 0.311827 -2.43292e-20)
(0.638412 0.230127 4.13063e-19)
(0.604411 0.361174 3.04755e-20)
(0.517488 0.337633 -1.22906e-18)
(0.652673 0.325751 0)
(0.69735 0.415239 7.04532e-19)
(0.701654 0.420629 0)
(0.634053 0.348487 0)
(0.580601 0.291374 0)
(0.773361 0.646239 4.06504e-19)
(1.24145 0.295886 -4.53378e-19)
(1.23088 0.429498 0)
(1.23592 0.383179 0)
(0.7301 0.180522 6.18218e-19)
(0.834427 0.539809 -3.87592e-19)
(0.750923 0.492414 6.87388e-19)
(0.955129 0.427518 -7.16359e-19)
(1.01883 0.014527 7.7072e-19)
(1.01732 0.0135894 -7.78943e-19)
(1.01612 0.0142401 0)
(1.03664 -0.00485012 0)
(1.03018 -0.00786259 -7.30745e-19)
(1.02833 -0.0107456 7.2323e-19)
(1.02477 0.0104953 0)
(1.02292 0.0144723 0)
(1.01258 0.00450787 0)
(1.01454 0.00907696 0)
(1.01612 0.0040167 0)
(1.01536 0.00279488 0)
(0.0625363 1.35577 0)
(0.0614957 1.31926 0)
(0.140708 1.41097 5.22294e-20)
(0.265156 1.47776 7.44867e-20)
(0.161694 1.4521 1.65486e-19)
(0.19146 1.45714 -2.68573e-19)
(0.145353 1.41564 0)
(0.126354 1.57805 -1.18269e-19)
(0.124779 1.57287 0)
(0.347057 2.02788 -1.0426e-19)
(0.329089 2.34648 6.32254e-19)
(0.179463 1.45374 1.03104e-19)
(0.264301 1.37795 1.73959e-20)
(0.18976 1.38064 -1.41669e-20)
(0.279354 1.31371 -1.07279e-19)
(0.250308 1.57642 0)
(0.252212 1.62532 1.12741e-19)
(0.0273365 2.27391 -2.02756e-20)
(0.0380503 2.67597 0)
(0.0678162 2.41434 1.11718e-19)
(0.0616621 2.43381 0)
(0.0695596 2.69301 -2.0101e-19)
(0.0444408 2.70946 0)
(0.0278724 1.42099 2.4484e-20)
(0.0373347 1.48055 0)
(0.0335271 1.38426 0)
(0.0240114 1.38205 -2.86965e-20)
(0.000775357 2.66618 -2.33802e-21)
(0.0256342 2.69969 2.12787e-19)
(0.00891464 2.73506 1.26596e-21)
(0.00255938 1.83698 1.99894e-21)
(-0.00385676 1.68373 -2.06129e-21)
(0.017202 1.30578 0)
(0.0227885 1.24078 0)
(0.0405747 1.57678 1.1731e-20)
(0.0382251 1.45178 -6.50661e-21)
(0.0355617 1.52313 4.09356e-21)
(0.0450649 1.60569 0)
(-0.0320845 2.27907 6.58653e-20)
(-0.0325036 2.56417 -2.62903e-20)
(-0.0232027 2.46179 2.18149e-21)
(-0.00724991 1.85457 -2.4231e-21)
(-0.0282618 2.51464 1.18587e-21)
(-0.0235003 2.45391 1.55337e-20)
(1.01855 0.0211108 -7.76732e-19)
(1.01457 0.0272053 7.79973e-19)
(1.01362 0.0167898 0)
(1.01221 0.0681499 1.06878e-18)
(0.991749 0.0550179 -1.23169e-18)
(0.953109 0.0517321 1.37887e-18)
(1.01358 0.112054 -1.45623e-19)
(1.04336 -0.00506384 0)
(1.05135 -0.00104526 6.99875e-19)
(1.0398 -0.00836019 -6.99606e-19)
(1.07064 0.0419483 -4.15655e-20)
(1.06377 0.0277554 3.58854e-19)
(1.06377 0.0627184 0)
(1.05373 0.0519286 -1.29125e-19)
(1.03238 0.0429912 0)
(1.02596 0.0381437 0)
(1.02769 0.0131593 0)
(1.02412 0.0157627 0)
(1.04012 0.0324346 2.65391e-19)
(1.03943 0.0273878 -5.8723e-19)
(1.05257 0.0365348 -2.80992e-19)
(1.04847 0.0364347 -3.09956e-19)
(1.07626 0.067093 5.94545e-19)
(1.09965 0.052986 0)
(1.10589 0.0922663 0)
(-0.0282389 2.28712 4.3697e-20)
(-0.018935 2.03662 3.36321e-22)
(-0.0202363 2.04179 0)
(-0.0327424 2.45678 -4.35271e-20)
(-0.0296828 2.41497 -7.1351e-22)
(-0.032234 2.48695 4.11099e-21)
(-0.0230714 2.63493 -1.31724e-21)
(-0.0267731 2.57875 -9.19758e-23)
(-0.0257009 2.53037 -1.84039e-21)
(-0.0203644 2.63008 6.65052e-21)
(-0.0242875 2.63061 -6.92179e-21)
(-0.00878722 1.48645 -8.77735e-22)
(0.000827076 1.62373 -2.02117e-20)
(0.36521 1.43392 -1.09847e-19)
(0.36283 1.36132 2.9164e-20)
(0.631385 1.43108 -2.20453e-19)
(0.510209 1.50194 -1.41273e-19)
(0.558959 1.46396 0)
(0.603294 2.43835 2.10704e-19)
(0.66731 2.43304 3.39789e-19)
(0.417189 2.52501 8.97214e-20)
(0.397078 2.55053 -6.38732e-19)
(0.500432 2.4909 5.80877e-19)
(0.559867 2.47793 0)
(0.490149 2.53286 -5.56889e-19)
(0.258057 2.60031 1.16351e-18)
(0.367373 2.56742 -6.57223e-20)
(0.288243 2.66111 -1.62628e-18)
(0.965001 2.39695 7.10274e-19)
(0.847572 2.3958 0)
(1.01141 0.00121875 2.54232e-20)
(1.01526 -0.00533159 -2.07449e-20)
(1.01763 -0.0041193 -3.79291e-19)
(1.01546 -0.001199 3.77966e-19)
(1.01298 0.00167628 0)
(0.621583 1.29523 0)
(0.659243 1.1833 0)
(0.771769 1.10811 0)
(0.646364 1.14256 0)
(1.19715 2.63898 5.01704e-20)
(1.08906 2.38751 0)
(0.825697 2.19869 3.49732e-21)
(0.825744 2.45433 0)
(0.918953 2.54263 -4.32381e-19)
(0.95098 2.49252 2.88901e-19)
(0.805526 0.15299 0)
(0.765935 0.134658 1.59887e-19)
(0.919413 0.150723 9.28504e-19)
(0.833787 0.12907 -3.48107e-19)
(0.790034 0.0873565 -1.06763e-18)
(1.08333 0.232312 -8.61093e-19)
(0.98332 0.297112 -7.77611e-21)
(0.928011 0.332453 8.39055e-19)
(1.01428 0.243804 7.03069e-19)
(0.933797 0.192327 -1.23036e-18)
(0.897039 0.203241 1.53829e-19)
(0.942748 0.29524 -3.22428e-19)
(0.909736 0.206042 0)
(0.999455 0.19551 6.02097e-19)
(1.05399 0.206983 0)
(1.05046 0.214618 0)
(1.12185 0.119507 2.72977e-19)
(1.06233 0.184402 -1.05931e-20)
(1.0767 0.235931 -1.55664e-19)
(1.11546 0.20395 0)
(1.0234 0.0469807 6.01524e-19)
(1.0393 0.0610105 7.47486e-19)
(1.03293 0.0449933 -5.9661e-19)
(1.04168 0.0664014 -5.01096e-19)
(1.01504 0.0722668 -7.56747e-19)
(0.990999 0.161386 0)
(0.992612 0.104745 0)
(0.962225 0.0650933 -4.89417e-19)
(0.910128 0.096142 1.93562e-19)
(1.03825 0.111769 6.93473e-19)
(1.0737 0.130803 -7.99487e-19)
(1.06702 0.171966 7.18062e-19)
(1.03428 0.149079 0)
(1.08313 0.115751 0)
(1.05686 0.10789 -3.2651e-19)
(1.04418 0.103768 -5.64193e-19)
(0.588633 1.11032 1.13374e-19)
(0.624972 1.43624 -1.94096e-20)
(1.14768 2.73347 -2.43314e-19)
(1.20029 3.11477 1.83022e-21)
(1.25609 2.74037 -1.30195e-19)
(1.29762 2.71205 1.94889e-20)
(1.27346 2.3342 -3.71074e-20)
(1.18812 3.02065 -7.099e-20)
(1.20683 2.97753 2.19361e-19)
(1.18247 3.26884 -1.24591e-19)
(1.40199 2.98491 1.54242e-19)
(1.41403 2.92349 0)
(0.554631 0.847724 -4.7748e-20)
(0.233957 1.22371 4.90411e-19)
(0.499377 0.443247 5.84995e-19)
(0.375517 0.205122 6.71635e-19)
(0.542393 0.367484 6.94082e-19)
(0.558196 0.464402 -1.11806e-18)
(0.55979 0.462421 9.16426e-19)
(0.510575 0.39043 -3.54199e-19)
(0.437483 0.322196 7.99724e-19)
(0.749611 0.236714 -3.54302e-19)
(0.715055 0.271606 0)
(0.682054 0.194608 9.02823e-21)
(0.738092 0.503824 3.75899e-19)
(0.692918 0.4764 -1.36646e-18)
(0.646535 0.458033 2.2072e-20)
(0.643554 0.429932 0)
(0.693638 0.733727 3.78843e-19)
(0.814865 0.794145 4.25112e-19)
(0.743127 0.84534 -4.94223e-19)
(0.882755 0.814384 -1.58132e-19)
(0.91515 0.853441 -3.90083e-20)
(0.922797 0.860678 3.99933e-20)
(0.873312 0.673644 -6.84332e-19)
(0.939485 0.722029 1.47042e-19)
(0.988718 0.723386 0)
(0.98759 0.698067 -1.92003e-19)
(1.02939 0.31802 2.20489e-19)
(1.1509 0.319527 2.70074e-19)
(1.06693 0.271607 3.5269e-19)
(0.990439 0.362099 -4.34317e-19)
(1.03789 0.466893 0)
(1.1243 0.413256 0)
(0.892814 0.407654 5.84915e-21)
(0.841852 0.293742 0)
(0.876763 0.280838 3.99485e-19)
(0.90685 0.328772 9.20388e-21)
(0.965272 0.466296 2.01406e-18)
(0.892332 0.533291 5.16111e-19)
(0.914859 0.477823 -5.58386e-19)
(0.829179 0.454761 5.92316e-19)
(0.810767 0.434208 3.64482e-19)
(0.792535 0.403421 -3.57467e-19)
(1.02796 -0.000494866 6.26929e-19)
(1.0203 0.000355278 0)
(1.01893 0.00119568 4.0907e-19)
(1.02255 -0.000946813 -9.26103e-19)
(1.02247 0.00434444 4.51074e-19)
(1.02011 0.0112729 -9.43895e-19)
(1.02096 0.011031 0)
(1.01992 0.0117981 -1.96579e-19)
(1.01646 0.00760646 4.92706e-19)
(1.01673 0.0107117 -2.47351e-19)
(1.01737 0.0103365 1.8106e-19)
(0.0297885 1.32468 0)
(0.0323956 1.35129 0)
(0.0441305 1.33411 0)
(0.0440229 1.29249 0)
(0.0761151 1.36376 3.17445e-20)
(0.090972 1.33614 -3.46038e-20)
(0.0497672 1.54678 -1.40055e-20)
(0.10538 1.37915 -5.10813e-20)
(0.0430849 1.46185 3.5574e-21)
(0.0458218 1.45973 -3.27752e-21)
(0.0666783 1.36718 -4.1117e-20)
(0.0563381 1.3718 3.73717e-20)
(0.0468358 1.34973 6.11579e-21)
(0.0393692 1.36887 1.52161e-21)
(0.107566 2.38557 -1.22605e-19)
(0.0971729 2.42909 0)
(0.150864 2.03437 1.0817e-19)
(0.114416 1.7062 4.69346e-20)
(0.220984 2.02427 -9.45746e-20)
(0.198389 2.43784 0)
(0.252979 2.3847 -6.17492e-19)
(0.301578 2.38275 4.38842e-19)
(0.254676 1.99457 -2.46587e-19)
(0.139448 2.15949 1.68643e-19)
(0.113077 2.26986 0)
(0.0231581 1.86205 -3.92221e-20)
(-0.00606909 2.39701 -6.5063e-20)
(0.00493597 2.1441 0)
(0.00647912 2.45768 -1.48791e-20)
(0.0263717 2.30229 2.85618e-20)
(0.0197842 1.40365 -5.58361e-21)
(0.0144476 1.3891 9.05341e-20)
(0.0131605 1.39236 -3.15847e-20)
(0.0202787 1.39202 -2.26151e-20)
(0.0259739 1.42472 0)
(0.0109258 1.37423 0)
(0.00247394 1.3002 -3.83665e-20)
(0.00375396 1.36649 1.05401e-20)
(0.00857979 1.36849 0)
(0.013799 1.29735 -3.02371e-20)
(0.0183757 1.22941 6.03779e-20)
(1.042 0.0140765 0)
(1.04837 0.00961164 -6.55066e-20)
(1.03898 0.0231037 -4.72971e-19)
(1.04928 0.0219213 0)
(1.05401 0.02104 0)
(1.03623 0.0120059 -6.73124e-21)
(1.03024 0.0123685 7.59301e-19)
(1.03183 0.0165836 9.2327e-19)
(1.02572 0.0204185 0)
(1.02242 0.0208409 0)
(1.03545 0.0247961 4.72175e-19)
(1.02586 0.0270204 0)
(1.02368 0.0272267 0)
(-0.0224925 2.03004 0)
(-0.00336891 1.65536 -4.11765e-21)
(-0.0105307 1.76247 -2.1582e-20)
(-0.00360486 1.37202 0)
(-0.0143461 1.55047 -1.12346e-20)
(-0.00577014 1.45364 7.47494e-21)
(-0.00673021 1.37814 0)
(0.40422 1.66 0)
(0.355578 1.30065 -3.82579e-20)
(0.277282 1.34403 0)
(0.420942 1.30745 -2.68176e-20)
(0.462563 1.46312 0)
(0.445115 1.40468 3.45257e-20)
(1.03994 2.68701 -1.52185e-20)
(0.980413 2.41805 -8.92576e-19)
(0.939152 2.2083 1.01705e-18)
(0.86292 2.38877 2.39248e-19)
(0.854347 2.50388 0)
(0.921754 2.50103 0)
(0.948777 2.39011 0)
(0.925738 2.37774 -9.2779e-19)
(0.694851 2.47466 -3.76991e-19)
(0.803067 2.4582 -9.77515e-20)
(0.811452 2.43641 7.37902e-20)
(0.704192 2.40713 0)
(0.808681 2.40066 0)
(0.770551 2.41597 -3.65932e-19)
(0.768958 2.48242 0)
(0.607527 1.07162 0)
(0.519404 0.893005 -5.43742e-19)
(0.522659 0.958115 -3.16382e-20)
(0.505089 1.09632 0)
(0.491933 1.00867 8.33764e-19)
(0.773781 0.878479 -1.39126e-19)
(0.782719 1.01519 0)
(0.760438 0.99375 1.9567e-19)
(0.648095 1.02376 0)
(0.643667 0.936697 0)
(1.16496 2.7678 -2.20493e-19)
(1.14027 2.82651 -8.91109e-20)
(0.927445 2.35581 7.23057e-20)
(0.903404 2.33466 -7.51983e-20)
(1.134 2.74567 0)
(1.08584 2.71433 9.03987e-20)
(1.10146 2.50626 -2.99647e-19)
(1.00121 2.25965 -2.85647e-20)
(0.501291 1.35638 0)
(0.519769 1.09473 -9.9945e-20)
(0.580604 1.17914 0)
(0.857579 0.216277 0)
(0.783234 0.167804 0)
(0.721804 0.136062 0)
(0.859865 0.215525 -6.13573e-19)
(0.77283 0.209685 3.68777e-19)
(0.925181 0.0792628 -4.01248e-19)
(0.944386 0.129682 0)
(0.91692 0.141039 1.72508e-19)
(0.857929 0.098493 6.92446e-19)
(0.820224 0.0687514 -4.32921e-19)
(1.10294 3.36237 -6.84735e-19)
(1.16823 3.28499 0)
(1.1224 3.44753 -1.58696e-18)
(0.661777 3.59277 1.32281e-18)
(1.03346 3.08893 1.26588e-19)
(0.524782 0.826564 5.65106e-19)
(0.511541 0.796289 0)
(0.37914 0.473299 -1.48772e-19)
(0.471365 0.668781 8.6015e-19)
(0.526153 0.450011 -2.03843e-19)
(0.514465 0.50068 2.33919e-19)
(0.692049 0.540026 4.85725e-19)
(0.72284 0.568508 0)
(0.650137 0.605214 0)
(0.622565 0.557482 0)
(0.995882 0.603698 9.91738e-20)
(0.948608 0.577778 -4.99231e-19)
(0.964994 0.599063 3.74594e-19)
(1.02707 0.527348 -3.72827e-19)
(1.06699 0.497901 0)
(1.07052 0.587838 -9.69989e-20)
(0.858439 0.395678 -8.16488e-19)
(0.854184 0.387492 -1.03954e-18)
(0.801719 0.383927 6.42291e-19)
(0.804585 0.340806 -6.63346e-19)
(0.846037 0.30366 -5.16235e-19)
(0.804807 0.302559 6.34754e-19)
(1.02651 0.0063342 -4.72085e-19)
(1.02616 0.00645188 9.51793e-19)
(1.02983 0.000567071 6.07684e-19)
(1.0339 0.00125827 -7.29826e-19)
(1.03364 0.0109408 0)
(1.02979 0.0111335 -1.18746e-18)
(0.0911962 1.66554 1.31449e-20)
(0.0508092 1.59663 0)
(0.0987463 1.71057 1.04023e-19)
(0.1035 1.68078 -9.7281e-20)
(0.0307884 1.53868 2.6315e-20)
(0.0221652 1.52611 0)
(0.00791857 1.68463 0)
(-0.00267755 1.48813 5.31685e-21)
(-0.00091365 1.43001 -4.78627e-21)
(-0.00855205 1.54533 2.93302e-21)
(-0.00429758 1.88911 7.00366e-21)
(-0.015387 1.94371 -9.5987e-22)
(0.490965 1.37815 -2.60026e-19)
(0.494458 1.37449 2.84036e-19)
(0.436813 1.29932 -1.41944e-20)
(0.422844 1.29986 7.90398e-21)
(0.61197 1.3037 0)
(0.543364 1.39413 1.08944e-19)
(0.543953 1.39757 -1.06033e-19)
(0.468197 1.27913 1.36299e-20)
(0.510846 1.24096 0)
(0.577401 1.21087 0)
(0.668896 2.43687 5.55703e-19)
(0.662277 2.46136 1.29338e-18)
(0.720177 2.47649 -8.88925e-19)
(0.620512 2.44836 -2.02459e-19)
(0.553908 2.546 2.76372e-19)
(0.494248 2.50693 -7.18332e-19)
(0.989472 2.39487 -5.72955e-19)
(1.02398 2.4136 0)
(0.945929 2.19301 -6.33241e-19)
(1.05601 2.69499 0)
(1.05528 2.67757 0)
(0.616576 2.31262 3.28499e-20)
(1.12425 3.08215 9.71709e-20)
(1.00647 2.98341 -1.53208e-19)
(0.33598 0.861324 0)
(0.353013 0.76727 -3.0152e-19)
(0.543691 0.69465 -3.05004e-19)
(0.382931 2.15933 0)
(0.411134 2.7508 -8.90619e-20)
(0.422568 2.48978 0)
(0.703864 0.698479 -8.08479e-19)
(0.765376 0.69389 1.13481e-18)
(0.774781 0.653607 -1.10702e-18)
(0.688101 0.65521 -1.0309e-19)
(0.746563 0.611047 -4.2762e-19)
(0.97961 2.76837 -7.36059e-20)
(1.01709 2.77124 -2.00668e-19)
(0.569767 2.23912 3.96209e-19)
(0.617907 1.75724 -3.20298e-19)
(0.715209 1.8754 -4.84532e-19)
(0.98363 2.4092 -1.36597e-19)
(0.981859 2.36511 3.55742e-19)
(0.661928 1.7955 3.24932e-20)
(0.469363 1.32341 1.70892e-19)
)
;

boundaryField
{
    wall-4
    {
        type            noSlip;
    }
    velocity-inlet-5
    {
        type            fixedValue;
        value           uniform (1 0 0);
    }
    velocity-inlet-6
    {
        type            fixedValue;
        value           uniform (0 3 0);
    }
    pressure-outlet-7
    {
        type            zeroGradient;
    }
    wall-8
    {
        type            noSlip;
    }
    frontAndBackPlanes
    {
        type            empty;
    }
}


// ************************************************************************* //
