/*--------------------------------*- C++ -*----------------------------------*\
  =========                 |
  \\      /  F ield         | OpenFOAM: The Open Source CFD Toolbox
   \\    /   O peration     | Website:  https://openfoam.org
    \\  /    A nd           | Version:  6
     \\/     M anipulation  |
\*---------------------------------------------------------------------------*/
FoamFile
{
    version     2.0;
    format      ascii;
    class       volScalarField;
    location    "94";
    object      p;
}
// * * * * * * * * * * * * * * * * * * * * * * * * * * * * * * * * * * * * * //

dimensions      [0 2 -2 0 0 0 0];

internalField   nonuniform List<scalar> 
918
(
0.531995
1.21796
0.00702962
0.531901
-0.0117318
1.18479
-0.508178
0.627823
0.513147
-0.123741
-0.085785
0.515055
1.04258
0.809652
-1.1709
-0.0253296
0.628622
-0.420504
0.511213
-0.0948447
0.640042
0.519821
0.522286
0.51307
0.575932
0.762194
0.920485
-0.00368844
0.0122909
0.00697403
-0.0131361
-0.0336315
-0.0309907
1.0679
1.1198
1.14318
0.479638
0.312306
-0.403237
-0.458762
-0.434709
-0.524115
0.628524
0.629925
-0.233391
0.62719
0.626181
0.498825
0.51254
0.513376
0.5145
0.51341
0.514688
0.40729
-0.131009
-0.158247
-0.108151
-0.107277
0.0254187
-0.0873463
-0.0885425
-0.0837621
-0.0852812
0.428663
0.50978
0.506524
0.519298
0.528514
1.15813
1.13204
1.15829
1.06767
1.0856
1.01969
0.992887
0.83083
0.854315
0.792914
0.779272
-1.62259
-2.56227
-0.597762
-0.324779
-0.0109365
-0.0270429
-0.0260211
0.623991
0.626614
0.626592
0.629233
1.03337
-0.392024
-0.464752
0.511757
0.510286
0.519338
0.520243
0.515209
0.515207
-0.0914609
-0.0906351
-0.0782602
-0.091464
-0.0893792
0.619333
0.621885
0.512505
0.509947
0.536837
0.560615
0.548508
0.245526
0.586694
0.602382
0.626835
0.772579
0.759176
0.771748
0.895736
0.863642
0.952481
0.974353
0.014481
-0.00190334
-0.0267405
-0.0239586
-0.0247249
0.475377
0.468939
0.497169
0.483261
0.486305
0.218628
0.0698507
0.393627
0.416588
-0.327711
-0.378718
-0.461253
-0.459593
-0.56745
0.597591
0.631698
0.630932
-0.2445
-0.172004
-0.300313
-0.114096
-0.171793
0.489766
0.496024
0.492096
0.507496
0.501657
0.504085
0.516607
0.513792
0.515385
0.456185
0.581154
0.3321
0.29045
-0.279861
-0.176372
-0.260426
-0.0996253
-0.0982483
0.0350112
0.0631175
0.0102828
-0.00375237
-0.0929066
-0.0897511
-0.0917105
-0.0858522
-0.0878297
0.420109
0.407036
0.439914
0.447442
0.496479
0.497882
0.502343
0.500341
0.944839
0.967738
0.973107
0.949065
-3.53195
-6.14842
0.0151584
0.172302
-0.0104968
-0.0121255
-0.000655249
-0.0104865
-0.00162384
-0.00308728
-0.0360023
-0.0367688
-0.0299611
-0.0315832
0.622191
0.622705
0.999215
1.02647
0.972227
0.94704
0.501125
0.502996
0.507615
0.504502
-0.0880123
-0.0890622
-0.0883167
0.62487
0.62297
0.623885
0.203979
0.114713
0.297464
0.328782
0.617641
0.606609
0.616328
0.686755
0.72599
0.991021
1.01387
0.998918
1.01075
1.06107
1.08394
1.04919
0.453929
0.464867
0.459129
0.500003
0.49782
0.498763
0.495437
0.496295
0.495016
-0.0406802
-0.409561
0.464505
0.465876
0.458747
0.461131
0.684802
0.768667
0.627257
0.629914
0.630066
-0.0618963
-0.109116
0.237803
0.20049
0.359006
0.393758
0.375481
0.919792
0.879126
0.927554
0.902635
0.867312
0.89178
-0.344846
-2.0992
-1.09822
0.568497
0.373242
0.464174
-0.0206999
-0.0358927
-0.0332927
1.01603
1.05543
0.644158
0.837544
0.789972
0.748507
0.774822
0.83814
0.77071
0.805396
0.835778
0.811359
0.546337
0.47498
0.493548
0.843749
0.898994
0.0766976
-0.00313522
-0.0259872
0.0861961
0.156234
0.123294
1.03216
0.951346
1.01305
0.510188
0.511142
-0.0223579
-0.0501003
0.515257
0.514966
-0.0239764
-0.0150682
0.47922
-0.936894
0.0773411
0.504816
0.494399
0.511259
-0.105647
0.308975
-0.0891968
0.00254727
-0.0306806
0.505846
0.441018
0.398678
-0.011477
-0.0353654
-0.0869543
-0.215312
0.507927
0.506284
0.510649
0.511466
0.512247
-0.0321773
-0.0323403
-0.0219782
-0.0772242
-0.0703466
-0.083219
0.474508
0.494565
-0.198718
0.510944
0.51305
0.512742
0.506988
0.511901
0.510549
-0.0271656
-0.0299622
-0.0320107
0.183574
0.325795
0.661691
0.736025
0.610924
0.445331
0.156493
0.599338
0.650786
0.576388
0.706797
0.629619
0.62598
0.144225
-1.70487e-05
0.148867
0.0818092
0.501621
0.501077
0.491914
0.488792
0.506103
0.503781
0.508975
0.506237
0.509406
0.510542
-0.0605505
-0.0877211
-0.105319
-0.147933
0.276871
0.536476
0.218775
0.28212
0.1405
-0.0817592
-0.0804837
-0.0843291
-0.0879989
-0.0500398
-0.0503916
-0.00456545
0.00592059
-0.0110915
-0.0367564
-0.0588707
-0.0508368
-0.059646
0.498983
0.498781
0.504243
0.513089
0.450664
0.454369
0.420702
0.439441
0.425599
0.365686
0.395309
0.372469
-0.0216415
-0.0133008
-0.0134244
-0.0368181
-0.0361913
-0.0583604
-0.0512348
-0.0498276
-0.0473153
-0.0520079
-0.0798486
-0.0864646
-0.179384
-0.299965
0.943713
0.884251
0.133993
0.49781
0.503489
0.500651
0.50541
0.508602
0.509227
0.50679
0.503278
0.494684
0.496274
0.492864
0.493941
-0.135912
-0.245942
-0.0778362
-0.155167
0.141392
0.608788
0.332941
0.277533
0.262702
0.490425
0.679139
0.585461
0.639067
0.609813
-0.400191
-0.00484034
-0.335957
0.208336
0.205666
0.689031
0.730567
0.747957
0.704956
0.661462
-0.0264851
0.540026
-0.0831905
-0.0310368
0.161549
0.0419358
0.594062
0.615475
0.621677
0.618292
0.622495
0.622546
0.612375
0.59949
0.623166
0.626185
0.485331
0.211786
0.168095
0.122211
0.614232
0.508247
0.558562
0.475645
0.497221
0.499674
0.498649
0.479307
0.486675
0.48233
0.489551
0.493188
0.500577
0.500743
0.496532
0.498503
-0.0801035
-0.0890898
-0.0669199
-0.128711
-0.133758
-0.177751
-0.0858276
0.092913
0.0414636
0.225883
0.333848
0.0680452
-0.0554125
-0.0367951
0.0142602
0.175311
0.173959
0.0478897
0.147092
0.12274
0.104716
0.218383
0.218701
-0.0562475
-0.0638885
-0.0624684
-0.0687937
-0.0231413
0.0981342
0.0705133
-0.0372038
-0.0426817
-0.0789062
-0.0822671
0.00112974
-0.0448732
-0.0367354
-0.00522467
-0.0650999
-0.0394891
-0.030283
-0.039614
-0.0395024
-0.0383902
0.493676
0.495355
0.495615
0.505413
0.5169
0.531512
0.498713
0.471904
0.462921
0.46602
0.439063
0.448324
0.443552
0.459437
0.480991
0.489396
0.487542
0.490258
0.472246
0.473954
0.459341
0.463966
0.433124
0.414324
0.404127
-0.0612413
-0.0288068
-0.0422399
-0.0538554
-0.0287044
-0.0377691
-0.0387335
-0.0196216
-0.0395216
-0.0340756
-0.0440082
-0.050453
-0.0511556
-0.0816197
0.00145287
-0.18432
-0.232567
-0.28619
0.86846
1.00817
0.79141
0.554525
0.571964
0.814172
0.922581
0.524562
0.737764
0.751564
0.564108
0.855538
0.50178
0.501354
0.499203
0.498364
0.499381
-0.0232741
0.0804498
0.0905261
0.150992
0.265414
0.369988
0.306151
0.191703
0.323957
0.349111
0.606113
0.612748
0.572162
0.593161
0.593457
0.400606
0.480957
0.51842
0.476104
0.55229
0.583875
0.528414
0.572427
0.493791
0.443786
0.434913
0.389492
0.424441
0.405425
0.379657
0.493535
0.47042
0.481194
0.471452
0.493396
0.51976
0.519465
0.53889
0.55829
0.472111
0.41763
0.434757
0.463421
0.419508
0.437223
0.459367
0.18109
0.0824899
0.245423
-0.0819621
0.00135999
0.0431328
-0.000837569
-0.0417536
0.264771
-0.370489
-0.316743
-0.990262
0.48883
0.817008
0.537439
0.548959
0.62027
0.6086
0.616619
0.615316
0.621699
0.60121
0.610222
0.615311
0.585439
0.606399
0.59391
0.603707
0.487918
0.387602
0.391819
0.322072
0.182466
0.224787
0.41345
0.346525
0.272271
0.264672
0.441946
0.306632
0.386708
0.436147
0.358937
0.294928
0.522601
0.569601
0.562784
0.53462
0.412969
0.446401
0.447406
0.498119
0.541937
0.565316
0.488115
0.4944
0.495311
0.492584
0.490951
0.494073
0.494357
0.49665
0.496792
0.499381
0.498874
-0.0785583
-0.0646903
-0.0777527
-0.0862992
-0.0267761
-0.0359531
0.000192528
-0.0304623
-0.0359297
-0.0295183
-0.0469792
-0.0623526
-0.061291
-0.0523
0.0727894
0.0866917
0.0977775
0.056065
0.252845
0.392649
0.472979
0.358404
0.206484
0.233641
0.2987
0.0248515
0.00567698
-0.00683245
0.0648766
0.0572179
-0.0689263
-0.074534
-0.0719446
-0.0565885
-0.0495415
-0.0765422
-0.0813848
-0.0696432
-0.0762765
-0.0811809
-0.0858118
0.473571
0.466488
0.470064
0.462506
0.460684
0.477557
0.482162
0.483249
0.488831
0.491337
0.480927
0.486687
0.490813
-0.040868
-0.0585421
-0.0577074
-0.0622642
-0.0584338
-0.0563472
-0.0606804
0.11902
0.0269234
0.0624992
-0.0085499
-0.135537
-0.0760205
0.492221
0.483672
0.470751
0.710373
0.546519
0.465425
0.563816
0.684929
0.266178
0.464775
0.300651
0.874932
0.783145
0.927971
0.54392
0.247295
0.420045
0.426794
0.268168
0.393663
0.330958
0.207105
0.242184
0.278031
0.361648
0.24594
0.225478
-0.0178002
0.164664
0.273309
0.255181
0.381086
0.43681
0.258269
0.173524
0.119341
0.588423
0.604371
0.612018
0.584426
0.604796
0.565386
0.553566
0.568892
0.577396
0.574379
-0.624624
-0.213566
-1.41264
-0.831511
-0.379778
0.516531
0.521487
0.739464
0.638772
0.643622
0.625548
0.578822
0.558249
0.590119
0.600981
0.311219
0.395566
0.382617
0.358712
0.305145
0.247763
0.520627
0.531103
0.551881
0.58069
0.556483
0.584654
0.486878
0.486719
0.485399
0.481654
0.480156
0.483412
0.0194187
-0.00481062
0.0333335
0.0257955
0.00137692
-0.00971811
-0.0495263
-0.0616377
-0.0616117
-0.0575514
-0.0463765
-0.0449079
0.166323
0.103354
0.015302
0.0563729
-0.0103925
-0.0923636
-0.0950237
-0.0034026
0.0968732
0.0780523
0.380205
0.646558
0.473161
0.637239
0.43818
0.534332
0.453611
0.427378
0.454134
0.361142
0.452041
0.0549804
-0.14772
-0.202422
0.810368
0.77457
0.551843
0.312322
0.190299
0.478252
0.500798
0.460664
0.493447
0.537837
0.526693
0.0230802
0.106805
0.199842
0.5033
0.274757
0.294543
0.284173
0.45209
0.419881
)
;

boundaryField
{
    wall-4
    {
        type            zeroGradient;
    }
    velocity-inlet-5
    {
        type            zeroGradient;
    }
    velocity-inlet-6
    {
        type            zeroGradient;
    }
    pressure-outlet-7
    {
        type            fixedValue;
        value           uniform 0;
    }
    wall-8
    {
        type            zeroGradient;
    }
    frontAndBackPlanes
    {
        type            empty;
    }
}


// ************************************************************************* //
