/*--------------------------------*- C++ -*----------------------------------*\
  =========                 |
  \\      /  F ield         | OpenFOAM: The Open Source CFD Toolbox
   \\    /   O peration     | Website:  https://openfoam.org
    \\  /    A nd           | Version:  6
     \\/     M anipulation  |
\*---------------------------------------------------------------------------*/
FoamFile
{
    version     2.0;
    format      ascii;
    class       surfaceScalarField;
    location    "94";
    object      phi;
}
// * * * * * * * * * * * * * * * * * * * * * * * * * * * * * * * * * * * * * //

dimensions      [0 3 -1 0 0 0 0];

internalField   nonuniform List<scalar> 
1300
(
3.75095
5.62643
-3.30823
3.75095
-7.7539
5.62643
-4.29171
4.29171
-0.392156
0.392156
1.8765
1.87445
-2.43159
2.43159
-1.6807
1.6807
-2.5255
2.5255
-5.24819
5.24819
-5.06895
5.06895
4.69333
-4.69333
-6.34901
6.34901
-0.96562
0.96562
-3.58385
3.58385
3.17235
-3.17235
-1.74848
1.74848
0.116417
-0.116417
-0.55408
4.30503
3.19687
3.19687
-1.99175
1.99175
-4.87533
4.87533
6.2218
-6.2218
5.20324
-5.20324
-1.89501
-2.53104
1.7877
-11.4474
-5.9662
-5.9662
-8.44087
8.44087
-2.81444
2.81199
2.94736
-2.94736
-1.71454
1.71454
-4.31013
0.018417
-4.31013
4.26074
0.0309743
4.26074
-0.507952
0.115796
-0.507952
3.96501
-3.96501
0.293059
0.0990968
0.293059
3.06734
-3.06734
-1.87685
3.75335
1.8741
-1.8721
6.17713
-1.87886
3.75331
-6.04313
6.04313
-2.68106
0.249467
-2.68106
2.19814
0.23345
2.19814
-6.90375
6.90375
-1.76983
0.089138
-1.76983
1.68497
-0.00427305
1.68497
2.88869
-2.88869
-2.62518
0.0996754
-2.62518
2.39056
0.134937
2.39056
0.353049
5.27338
-5.97948
8.79147
-5.27338
0.0251932
5.21023
0.0379607
5.21023
-5.10545
0.0365004
-5.10545
5.01385
0.0551048
5.01385
4.78012
-0.0867852
4.78012
-4.81489
0.12156
-4.81489
-3.35643
-4.08601
-6.51156
0.162554
-6.51156
-1.035
0.069376
-1.035
0.86061
0.105009
0.860611
-3.72797
3.72797
-3.9446
0.360748
-3.9446
3.1273
0.0450484
3.1273
1.86812
1.88284
5.61907
-5.61907
2.44672
-1.67104
-0.0774443
-1.67104
-1.84362
-3.35962
1.84362
-0.0951352
-0.115224
0.231642
-0.115224
3.15713
0.0397405
3.15713
2.23412
0.15644
-2.23412
0.242376
3.30385
-3.30385
1.32771
0.66404
1.32771
-5.55855
5.55855
4.96231
0.0515374
-4.96231
0.0869837
6.15664
0.0651643
6.15664
-6.20698
-0.0148201
-6.20698
2.48065
-5.01169
-2.69099
6.15814
0.190871
-6.15814
0.191941
2.91897
0.0283877
2.91897
-2.91761
2.91761
-2.98431
0.0369553
-2.98431
-2.13725
0.422714
-2.13725
1.40051
0.314027
1.40051
-4.22569
-0.0844362
-4.22569
-4.10437
0.159768
4.10437
0.156368
1.11606
-1.11606
-0.61429
0.106338
-0.61429
-4.07219
-0.153508
4.07219
-0.107176
-3.90227
-0.0627391
-3.90227
-3.02197
0.0376625
3.02197
0.0453667
3.11214
0.0449974
-3.11214
0.0447957
-1.87099
3.75383
-1.87996
3.75407
-5.67828
-0.364857
-5.67828
6.36481
-0.321678
6.36481
3.10478
0.479078
-3.10478
0.423721
2.01144
0.186697
2.01144
-6.8773
-0.0264492
-6.8773
6.91174
-0.00799374
6.91174
1.87313
0.138309
-1.87313
0.103301
1.67144
0.0135313
1.67144
2.91654
-0.0278442
2.91654
-2.88224
-0.00645032
-2.88224
2.78858
-2.78858
2.71275
0.0758293
-2.71275
0.0875726
-11.1248
11.11
-0.0362741
-11.0885
5.17395
5.17395
4.23215
0.547967
4.23215
-5.01306
0.198163
-5.01306
2.66949
-5.36048
3.12978
-6.48621
4.67425
-16.1216
4.27789
-8.3639
6.76283
-6.76283
6.64435
0.118485
-6.64435
0.132786
-1.14607
0.11107
-1.14607
-3.13022
-0.597746
-3.13022
4.36741
-0.639445
4.36741
-3.02731
3.02731
-3.0762
0.0488911
3.0762
0.0511018
1.65501
0.0164246
-1.65501
-0.0160266
0.194759
0.0983005
-0.194759
0.0795347
3.52795
-0.224092
3.52795
-3.09833
-0.205524
-3.09833
-1.23248
0.0864106
1.23248
0.0952309
-5.80739
0.24884
-5.80739
-11.1823
0.0938064
-11.1444
-6.11318
-6.11318
2.3277
11.1192
-2.89742
0.0151793
2.89742
0.0215442
2.97431
0.0529946
-2.97431
0.0567022
-2.85588
0.0673062
2.85588
0.0617258
-2.50517
0.367917
-2.50517
-1.01751
1.01751
-1.16387
0.146358
1.16387
0.236638
1.41944
-0.303377
1.41944
0.744046
0.116565
-0.744046
0.129755
-3.84498
-0.0572902
-3.84498
6.59829
-0.23348
6.59829
-2.9688
-0.129527
2.9688
-0.0522645
-0.0347229
11.1447
-5.13923
0.0337753
5.13923
-11.2099
11.2436
-3.21002
0.704851
3.21002
1.02213
5.28355
0.275002
-5.28355
0.270491
6.85346
0.0582796
-6.85346
0.090627
-2.63989
-0.490336
-2.63989
-5.09103
-0.587249
5.09103
-0.723612
-11.4823
-0.20219
11.6845
-11.4272
6.00958
0.147058
-6.00958
11.3907
-0.989879
-0.126181
0.989879
0.027634
1.7605
-0.341066
1.7605
3.74755
-0.219605
-3.74755
-0.0974301
-6.76355
-0.113744
6.76355
-0.165263
-2.18987
-0.450017
2.18987
-0.429368
-4.26739
4.30714
1.90974
-2.31514
-2.69654
-5.67476
1.8553
1.89853
4.30202
-10.1381
-5.98356
-9.94614
7.21493
-6.94444
-9.31471
9.22793
7.94871
-8.01145
-5.77724
5.82834
6.48483
-6.43946
1.87949
1.87386
8.08612
-7.83666
-15.6733
15.3084
7.66102
-7.57188
15.8088
-15.8353
-17.8494
17.9077
-5.70596
5.80564
-6.74315
6.7367
-6.98001
6.92774
-2.79491
-3.6913
13.1073
-12.9448
8.66262
-8.74007
-8.6923
9.05305
3.38462
0.922513
3.42962
-1.88177
3.76126
-1.87153
3.78127
2.78778
-5.58269
2.57271
-5.26925
4.42168
4.24095
-4.32654
-1.34822
-5.9289
5.95728
-5.80975
5.87148
9.20071
-9.18229
-1.88499
3.75885
-1.86908
3.76761
-3.4228
-2.35443
3.37775
0.924271
8.05516
5.05218
-8.24603
-1.70011
-8.03383
7.81422
-8.21783
8.01231
-0.436152
5.83856
-5.40241
4.43918
-1.65345
7.49201
5.56147
5.75964
5.86072
-5.58572
1.08371
-6.48612
-6.39914
-2.20784
2.31418
2.05101
-1.95191
6.16129
1.78742
6.05411
-5.81423
-2.19721
-5.87152
3.81963
2.00871
3.86852
4.08224
2.40259
4.11991
3.02942
-3.03687
0.00744746
-3.05942
6.08884
0.72198
-5.41386
-4.48959
4.99521
3.09092
5.22866
-5.59868
-2.23798
-5.17496
-9.55713
-6.11617
-10.1444
10.1588
5.14961
9.83715
-11.9426
11.7774
4.8998
2.76122
4.89553
-4.98284
-2.58904
-4.87954
11.6648
-2.65891
-9.00584
-10.3224
-7.52701
10.3304
5.47843
10.964
6.94374
11.0546
4.42137
7.24338
-9.89981
2.37279
-3.86616
-1.8398
-3.77859
3.66417
2.14147
3.7991
-4.21894
-2.52421
-4.20376
-4.29534
-2.68466
4.32319
2.41351
-4.41779
-3.80004
4.54731
2.38043
4.06241
-10.046
4.3015
-7.99279
-9.19423
-3.75056
-9.06144
3.58865
2.59704
-6.18568
-1.99404
8.61151
-4.37056
7.26329
-5.22852
-3.51154
-5.24455
-6.98294
-1.70935
-6.82318
-8.90882
8.41848
-9.19364
8.5542
12.4913
-5.63005
-6.86129
-3.96705
-2.47241
3.92225
-0.492632
-3.71005
3.7175
0.05121
3.83248
4.75499
4.26236
-3.88282
-1.92694
-3.82611
3.82199
2.04949
3.8893
6.86732
2.33339
6.8983
-6.63086
-2.55143
-6.7153
9.08241
-8.6597
2.78904
-2.70263
5.38092
2.63138
-5.15683
-2.877
6.2368
-3.21015
-3.02665
-12.3505
10.7818
1.56877
-4.85854
-0.419359
-0.535777
-5.56395
-3.75076
5.44239
0.317247
11.099
7.34826
-5.51467
5.76351
6.16981
6.22135
-0.177788
5.87683
-5.17198
5.27765
-2.73336
-2.54429
5.48897
-5.64248
-1.22633
-5.56798
4.34165
0.411634
1.44138
-1.20974
-1.7434
-0.464435
-1.61365
1.09352
0.957489
1.19182
0.965233
1.34894
-2.9455
0.487174
2.45833
-1.98027
-1.46474
-3.81547
-1.14857
4.96404
5.73969
2.07454
-5.64226
-0.229266
2.5489
-2.44389
-0.837293
-2.97818
2.22184
-3.05913
-3.45924
-1.95796
5.4172
-3.36886
-0.457252
3.31587
0.552655
-3.82826
-2.10063
3.79131
0.328598
-3.129
6.19031
-3.06131
-5.05593
2.52904
3.5598
4.53775
-4.78988
2.44929
2.34059
-1.23008
4.2591
0.969551
4.4458
-7.07515
4.83718
5.74578
3.30727
-6.22486
1.0499
-6.02525
8.57286
-7.41517
-1.15769
4.12834
4.44452
7.00205
5.4893
-5.684
12.686
-1.18421
-6.23096
7.20946
-3.9022
4.8773
-8.7795
-10.3666
4.13564
-9.18706
11.0848
-1.89776
-3.58834
-8.3543
12.7754
-1.24937
-11.526
8.58778
-4.36067
-4.43362
8.79429
-7.01958
7.02267
-1.98911
-5.03356
-10.1439
-5.69144
10.2576
1.51978
-9.96848
12.3413
-2.72511
4.16409
0.731437
4.17762
3.37811
-5.4708
2.09269
3.64146
-5.63057
2.04669
-7.51749
-6.75165
12.0896
-5.338
-10.5022
-9.53708
-0.965124
2.54887
9.7924
-9.49261
7.42544
2.06717
3.29811
0.591188
-3.37394
-0.404652
0.232419
4.50694
-4.73936
4.03152
4.18796
3.21462
1.29232
3.84955
2.10773
-3.8711
-0.332662
-4.16874
1.48407
-1.75522
-3.69343
5.1775
-4.06188
0.36845
-2.74164
-3.49235
6.23399
-4.58144
3.03561
3.15469
5.0851
-4.91412
1.42177
-2.39077
-2.52335
2.64011
-4.39533
2.00152
3.17598
4.38195
0.581902
5.91305
6.1766
-8.51008
0.517291
11.2288
-9.52867
2.47762
8.57697
-9.90307
0.365987
-8.69546
0.981769
-5.35233
-5.20392
5.23766
-6.94702
-3.54184
6.26365
0.634644
-6.42002
-0.403153
-6.05199
-2.85683
-6.502
-3.04308
-6.15056
-8.72707
-1.67017
-7.0569
6.74831
-6.69444
-3.44994
7.41805
1.13614
-7.46529
7.33911
-7.52214
7.18108
0.0951221
3.62238
4.35748
1.88507
-2.3923
4.27737
-5.086
7.41938
-8.77082
3.68482
4.25483
-6.80626
-4.51599
5.0458
4.03662
5.35982
8.90534
-10.355
1.44968
-10.6229
11.9633
-1.34039
-16.393
5.77007
-7.48767
2.40948
0.379556
2.52055
0.550151
2.49145
-3.0416
-2.15248
-2.05725
-2.44667
-3.49299
5.93966
1.05838
-3.47635
2.41797
-3.56762
4.626
-0.0828033
-3.39355
5.17754
-2.68609
5.5571
-3.65042
1.90667
3.55071
5.84022
-2.28951
4.41904
-1.78766
1.95094
-4.24045
-1.54205
-2.95363
5.0951
-3.28036
3.64881
-0.355738
4.00455
-4.03872
0.828566
-0.824096
3.36387
3.60624
4.33288
-3.04057
2.93421
-4.72187
-1.30624
-4.13997
-0.963983
-0.181883
-3.77036
3.95224
5.98952
-6.1714
-5.27521
9.51139
-4.23618
7.69016
-5.43199
-2.25817
-4.28036
-4.37934
3.91244
1.96438
9.65455
0.177393
-5.60938
-4.99458
-3.97245
3.08851
2.18914
-1.70407
3.27284
2.23984
-0.798464
0.398823
0.792998
1.75974
-1.36092
0.337204
1.42254
-0.872533
1.68366
0.865241
-1.80022
0.186578
-1.37254
3.59438
1.08579
-2.04328
0.682355
0.894777
-3.62814
5.10551
-2.73671
-2.3688
6.00029
1.14951
-3.88622
4.41846
-4.00683
2.45769
-3.60626
-1.42854
-5.43536
-3.64794
-2.47951
4.89749
-3.46015
5.53469
1.43825
-5.30542
6.74367
-3.63001
1.67204
-3.0487
3.91394
-0.995987
-2.05271
2.87477
2.54243
-3.14349
0.165315
-0.268723
2.41637
-2.6851
-0.642761
-2.62303
-4.57621
4.90481
-2.10374
4.55303
2.17363
-1.91781
6.47084
1.80753
-3.72534
-3.2484
-3.70565
-1.38475
3.153
-0.56874
-4.3108
-5.6023
4.17249
0.273312
-7.10004
7.94332
-0.843274
-4.00913
-0.828051
4.95639
-6.09982
0.469251
-4.05313
3.89019
4.85974
5.13305
-11.2954
-0.230584
-6.14583
1.0882
-7.23403
5.53272
-3.50794
7.64358
-10.3142
6.86431
-9.1781
6.48589
-0.748145
6.23567
-4.14299
2.77017
-8.46161
-6.94183
5.6008
-2.83958
6.33224
-3.22961
9.56185
-5.95471
5.38923
4.17262
-1.05057
-4.19398
-5.38929
4.33872
-6.56131e-05
4.17755
4.98721
-2.87948
4.65455
2.26499
-4.65577
-2.13034
-6.48892
1.83315
-3.33423
-1.92249
3.75564
3.16261
3.7538
1.23229
-3.34915
7.25075
-8.21588
-1.91275
-3.29117
5.38313
-1.04441
3.48074
-6.77191
-1.87159
4.73402
-0.721681
-4.01234
0.896038
-4.43787
1.67531
-6.11318
5.27171
-5.67486
2.25395
-9.74162
-5.21134
-5.1837
-2.27717
-5.24497
-7.56083
5.28366
-1.79076
5.54835
-8.49542
7.77374
-3.46792
8.75158
-5.44893
-1.05307
5.8783
1.30278
10.0544
0.166741
-4.68273
-1.94145
3.71509
-1.77364
1.14706
-3.60362
0.111476
2.4994
3.50089
-6.84104
0.0347822
-4.64795
-3.9038
7.94042
5.60759
11.5971
1.24209
9.12465
-1.18423
10.3667
4.17559
4.41223
-2.9964
4.44609
0.955834
4.64066
-0.897237
2.80391
1.62332
1.69269
0.751198
2.29913
1.30711
3.1277
0.0860955
-1.97115
4.6285
-8.60095
-0.980882
-8.05299
1.17494
5.43493
-4.25999
2.84634
-0.657198
1.0727
-0.202416
-1.12121
1.32363
-2.74671
-1.91967
-0.497133
-1.68532
2.36768
1.90906
-1.87054
-0.876168
0.325587
-3.97353
3.28067
-3.11536
-0.572923
6.17074
-2.88661
0.201509
-1.21456
-2.42152
-2.88596
2.69938
6.1745
0.296336
3.11319
5.20115
3.10051
0.221035
3.78314
-5.6809
-3.73435
-5.91148
-0.378762
4.57763
1.76694
8.02546
5.93956
4.89515
-1.87676
-10.0926
6.49761
-2.05153
5.15722
-1.14488
-4.9683
5.08343
2.33595
-5.71808
0.0432148
-4.92508
-6.97661
-0.476387
8.25012
-9.57797
8.52489
5.66806
1.38884
-4.42551
-0.758197
4.27915
0.133081
10.4998
-0.918956
-7.02754
7.94649
-4.51598
3.53509
0.674484
2.59835
1.99811
1.34091
-5.68663
-9.94662
-2.0663
-1.56183
-4.4351
0.528938
-2.438
6.06223
-2.52713
3.80406
5.41936
6.49206
-2.04993
-4.12147
6.28612
-2.48206
4.01
)
;

boundaryField
{
    wall-4
    {
        type            calculated;
        value           uniform 0;
    }
    velocity-inlet-5
    {
        type            calculated;
        value           uniform -3.75095;
    }
    velocity-inlet-6
    {
        type            calculated;
        value           uniform -5.62643;
    }
    pressure-outlet-7
    {
        type            calculated;
        value           nonuniform List<scalar> 8(3.30823 7.7539 4.42605 9.65969 7.44244 5.17164 5.79927 8.95214);
    }
    wall-8
    {
        type            calculated;
        value           uniform 0;
    }
    frontAndBackPlanes
    {
        type            empty;
        value           nonuniform 0();
    }
}


// ************************************************************************* //
