/*--------------------------------*- C++ -*----------------------------------*\
  =========                 |
  \\      /  F ield         | OpenFOAM: The Open Source CFD Toolbox
   \\    /   O peration     | Website:  https://openfoam.org
    \\  /    A nd           | Version:  6
     \\/     M anipulation  |
\*---------------------------------------------------------------------------*/
FoamFile
{
    version     2.0;
    format      ascii;
    class       volVectorField;
    location    "94";
    object      U;
}
// * * * * * * * * * * * * * * * * * * * * * * * * * * * * * * * * * * * * * //

dimensions      [0 1 -1 0 0 0 0];

internalField   nonuniform List<vector> 
918
(
(0.985049 -0.000715903 0)
(0.00543997 2.96618 0)
(-0.00488189 0.873272 0)
(0.979575 0.00196186 0)
(-0.0145626 2.06325 3.33175e-20)
(-0.00719127 2.9486 -2.53823e-18)
(0.82267 1.12498 4.49079e-19)
(0.11627 0.0851864 -1.40142e-20)
(0.999922 -0.000245969 0)
(0.093084 0.672573 0)
(0.0184458 0.353343 0)
(0.732593 0.00894587 0)
(0.0101889 2.93181 0)
(0.00326967 2.79442 0)
(-0.00285313 3.17576 8.30126e-19)
(-0.0135789 1.93242 2.46026e-20)
(0.2954 0.0461989 9.80763e-19)
(0.235086 1.11109 3.54398e-19)
(0.964311 0.00674376 0)
(-0.00452911 0.334513 0)
(0.0575025 -0.0754503 -6.35373e-19)
(1.00183 -0.00455918 0)
(0.99985 -0.00892578 0)
(0.975169 -0.00605157 0)
(0.593433 0.0279014 0)
(0.0207966 2.64502 0)
(-0.0121527 2.91152 9.28043e-19)
(-0.00716493 0.924397 0)
(-0.036934 1.17147 0)
(-0.00489848 0.892037 0)
(-0.0249506 2.58349 0)
(-0.00548137 2.11439 -2.66119e-20)
(-0.0105026 1.9028 0)
(-0.0219315 2.98768 -9.13874e-23)
(-0.0163819 3.00545 1.96988e-18)
(0.00231045 3.00043 0)
(0.871991 -0.00977056 0)
(0.372168 0.909377 1.6307e-19)
(0.821494 1.14385 -5.63027e-19)
(0.953884 1.0104 5.74175e-19)
(0.683822 1.22677 -1.02651e-19)
(0.697356 1.18644 5.85162e-19)
(0.145997 0.126555 1.36701e-20)
(0.151374 0.0922862 0)
(1.17016 0.533176 0)
(0.112552 0.108068 6.15153e-20)
(0.0908351 0.0700062 -6.38426e-20)
(0.920572 -0.0070454 0)
(1.00027 5.15076e-05 0)
(0.999907 0.000320683 0)
(1.0037 -0.00727986 0)
(1.00088 -0.000949971 0)
(1.00011 -5.3561e-06 0)
(0.0779858 1.83396 -7.71778e-19)
(0.0337204 0.847875 0)
(0.129601 0.762792 0)
(0.0181375 0.787684 0)
(0.054501 0.589095 0)
(0.0057877 2.03593 0)
(-0.00683038 0.684859 0)
(0.0124726 0.402073 0)
(-0.0134477 0.679274 0)
(0.012735 0.351212 0)
(0.843801 -0.0156342 0)
(0.842229 0.0254763 0)
(0.756775 0.00614138 0)
(0.799945 0.0277827 0)
(0.701542 0.0194794 0)
(0.0137982 3.00031 9.42045e-19)
(0.0109378 3.00668 0)
(0.00585698 3.00351 0)
(0.0118412 2.99746 1.06899e-23)
(0.00802174 2.95884 -1.40011e-18)
(0.0122195 2.98281 0)
(0.00923089 2.90493 0)
(0.0210093 2.93149 2.1603e-24)
(0.0037992 2.82439 0)
(0.0260293 2.91881 0)
(-0.000660252 2.74513 0)
(0.304028 3.56868 0)
(-0.122109 3.65125 0)
(0.147999 3.26627 -7.7257e-19)
(0.00240668 3.0053 0)
(-0.0338694 1.99151 0)
(-0.00771143 2.18149 -2.42649e-20)
(-0.00911937 1.94517 2.55589e-20)
(0.347363 0.139171 -3.40537e-19)
(0.32326 0.0163431 -3.31223e-19)
(0.301242 0.15741 -1.01808e-18)
(0.26249 0.0672058 -6.61648e-19)
(0.266304 1.02614 0)
(0.334951 1.24296 -3.66815e-19)
(0.416696 1.15387 6.05456e-19)
(0.987687 0.00817059 0)
(0.943194 0.00577341 0)
(1.00028 0.000672037 0)
(1.00254 0.00906615 0)
(1.0031 0.0089982 -2.61737e-18)
(0.992135 0.0094116 1.9778e-18)
(-0.0264822 0.701757 0)
(0.00120112 0.33985 0)
(-0.0572283 1.01462 0)
(-0.0395836 0.763939 0)
(-0.0198716 0.340008 0)
(-0.0813225 0.0675695 1.97639e-19)
(0.0335916 0.0535897 0)
(0.993627 -0.00769157 0)
(0.954056 -0.00648436 0)
(0.741657 0.0275828 0)
(0.673172 0.0245601 0)
(0.65941 0.0275642 0)
(0.980816 -0.00243207 0)
(0.58443 0.0674782 0)
(0.45397 -0.00887801 1.49098e-18)
(-0.0411083 2.86003 7.19948e-19)
(0.0338751 2.9143 0)
(0.0428042 2.89273 0)
(0.00318941 2.70251 0)
(-0.00874491 2.98642 8.86281e-19)
(-0.0138807 2.89427 0)
(-0.0109765 2.99152 -2.73251e-18)
(-0.0116278 2.92902 9.31123e-19)
(-0.0546457 1.3534 0)
(-0.0214912 1.38278 0)
(-0.00841799 2.14248 8.77279e-22)
(-0.00839173 2.10058 0)
(-0.0174354 1.91516 0)
(0.938933 -0.00518807 0)
(0.857363 -0.011168 0)
(0.862622 0.00572405 0)
(0.949711 -0.00613069 0)
(0.883716 -0.00810178 0)
(0.495239 1.10898 -2.07053e-19)
(0.542797 1.17905 0)
(0.334193 0.843693 3.16337e-20)
(0.27929 0.708639 0)
(0.922931 1.03963 -1.62364e-19)
(1.04605 0.849783 3.27689e-19)
(0.395183 1.32179 0)
(0.545918 1.27762 0)
(0.600249 1.20365 0)
(0.104395 0.180009 -2.96955e-19)
(0.172539 0.14051 0)
(0.172531 0.108262 1.83947e-19)
(1.00898 0.903702 0)
(1.08465 0.751369 0)
(1.11436 0.686467 -2.63746e-19)
(1.15052 0.597044 0)
(1.20665 0.391437 4.76024e-20)
(0.957535 -0.00709254 0)
(0.962752 -0.00810784 0)
(0.900944 -0.00737655 0)
(0.983935 -0.00812072 0)
(0.974441 -0.00802917 0)
(0.936558 -0.00656699 0)
(1.0002 0.00250678 0)
(1.00078 0.00123826 0)
(1 0.000759458 0)
(0.0384085 2.08454 4.24715e-19)
(0.141291 1.78238 0)
(0.0171889 2.19069 6.58903e-19)
(0.0519067 1.89097 -5.39334e-19)
(0.168496 1.08599 -2.90809e-19)
(0.0502674 0.935409 0)
(0.123438 0.941044 0)
(0.0062949 0.749942 0)
(0.0317937 0.514201 0)
(-0.00225369 2.26101 -3.23168e-22)
(0.0219414 2.04239 0)
(-0.00505788 2.26208 -2.84968e-21)
(0.00329393 2.04999 -7.78605e-21)
(-0.00220239 0.719887 0)
(-0.00460106 0.699388 0)
(0.0158151 0.451143 0)
(-0.0173283 0.682211 0)
(0.00434088 0.345774 0)
(0.93962 0.0139162 0)
(0.856669 -0.0115328 0)
(0.928757 0.00490688 0)
(0.846378 -0.0127938 0)
(0.809258 0.00150893 0)
(0.899105 0.0204727 0)
(0.875407 0.0228741 0)
(0.782597 0.00235798 0)
(0.0100377 3.06787 -8.74972e-21)
(0.0156291 3.05788 0)
(0.0122952 2.96999 0)
(0.00760582 2.87677 0)
(0.892659 3.96048 0)
(1.18587 3.35727 9.33645e-19)
(0.0801752 3.08817 0)
(-0.0181877 2.91673 0)
(-0.0205988 1.41049 0)
(-0.0392182 1.70337 0)
(-0.0284812 1.54065 0)
(-0.0354395 2.54525 -1.56376e-20)
(-0.0214328 2.24495 0)
(-0.0255881 2.38721 0)
(0.000170024 1.97569 3.84446e-22)
(-0.00533121 2.25606 -3.17011e-20)
(-0.00635707 2.22014 -2.62212e-20)
(-0.00523123 1.9597 0)
(0.391442 0.116253 5.22103e-19)
(0.365712 0.00875145 -5.1251e-19)
(0.231919 1.58961 0)
(0.289709 0.770614 -3.21516e-19)
(0.176288 1.68736 -1.05649e-18)
(0.246193 1.23107 1.05738e-18)
(0.901577 0.00591026 0)
(0.966974 0.0107399 0)
(0.974842 0.00989113 0)
(0.922927 0.0058445 0)
(-0.0225588 0.684865 0)
(-0.0221599 0.691385 0)
(0.00444874 0.333517 0)
(0.0808159 0.0954863 5.63564e-19)
(0.0566954 0.0702063 -6.59246e-19)
(0.053106 0.0566328 0)
(1.10871 0.0911371 2.35812e-20)
(1.0923 0.0429922 0)
(1.01961 0.0439962 0)
(0.914509 -0.00120843 0)
(0.43637 0.097648 0)
(0.494466 0.0784556 -2.3848e-18)
(0.399042 0.00533033 8.93601e-19)
(0.0102853 2.97708 7.66849e-19)
(-0.0331135 2.86108 4.60092e-20)
(0.00829262 3.05361 -1.84831e-20)
(0.016406 3.04264 6.8806e-19)
(-0.011752 2.9999 3.06424e-20)
(-0.012452 2.95202 -1.23403e-22)
(-0.0150975 3.01307 -5.71923e-19)
(0.015335 3.02552 4.07325e-19)
(0.00805583 3.03582 -6.6217e-19)
(0.934808 0.00216808 0)
(0.939577 -0.00109364 0)
(0.848264 -0.0111951 0)
(0.956217 0.0118385 0)
(0.942295 0.0131906 0)
(0.881364 0.00564383 0)
(0.915767 0.0174847 0)
(0.925125 0.0149412 0)
(0.836481 0.00320093 0)
(0.668035 1.40717 1.72808e-20)
(0.68616 1.51764 0)
(0.117214 0.285931 6.67235e-20)
(0.213249 0.650935 5.27494e-19)
(0.238714 0.688385 -3.0967e-19)
(0.21174 0.488614 6.15036e-19)
(0.341497 0.832279 1.57253e-18)
(0.136276 0.236802 3.78171e-19)
(0.257962 0.167651 7.01835e-19)
(0.211803 0.160202 1.81244e-19)
(0.21994 0.0942639 3.44767e-19)
(1.19737 0.448704 9.99871e-20)
(1.22163 0.246893 9.75065e-20)
(0.0070517 2.24495 2.45566e-19)
(0.0399655 1.9635 0)
(0.973404 0.0332551 0)
(0.947038 0.019348 0)
(0.871656 -0.015009 0)
(0.0130138 3.07338 0)
(0.0166933 2.94391 1.21976e-18)
(0.0138011 2.95657 0)
(0.0056554 2.85017 -1.21034e-18)
(0.00993299 3.08949 2.97712e-19)
(0.0111158 3.08398 0)
(0.705173 1.81292 -1.6983e-19)
(1.23002 2.61724 5.74341e-19)
(0.689912 1.99091 -1.38903e-18)
(0.0217776 2.97595 -6.64333e-19)
(0.0398202 2.99734 0)
(-0.0387109 2.87796 0)
(-0.00600396 2.24189 -1.27992e-20)
(-0.00447826 2.26139 6.17121e-20)
(0.000547589 2.0115 -6.54683e-21)
(0.268414 1.40327 1.02052e-18)
(0.289077 0.575322 -7.00819e-19)
(0.0689761 2.00283 7.43951e-19)
(0.11917 1.87192 -9.00895e-19)
(0.210822 1.53931 1.05326e-19)
(0.00612372 3.12032 -1.6515e-18)
(0.0133438 3.1207 1.81929e-18)
(-0.00524646 2.98046 8.27793e-19)
(-0.0014584 2.97497 -7.91968e-19)
(-0.0175618 2.87702 -8.43142e-19)
(0.0117711 3.1007 -2.20971e-18)
(0.00555624 3.10543 2.24328e-18)
(0.268765 0.697361 0)
(0.219076 0.656636 -1.12619e-18)
(0.0748939 0.209952 4.95655e-19)
(0.347681 0.953515 1.11787e-18)
(0.201171 0.282169 -1.72164e-18)
(1.20001 0.176925 4.59982e-20)
(1.2184 0.306547 0)
(1.19547 0.121902 1.15236e-20)
(-8.89555e-05 2.27062 -1.09639e-21)
(0.00377312 2.25479 0)
(0.0324692 2.00063 0)
(0.313322 1.31781 -3.66313e-19)
(0.354544 1.18032 -7.95503e-19)
(0.234774 0.394235 1.42359e-18)
(1.00644 -0.00967829 0)
(1.00774 -0.00778103 4.81043e-19)
(-0.0482862 1.3362 0)
(-0.0575758 1.34361 0)
(1.00244 0.00326703 1.33323e-21)
(1.0032 0.00781275 9.87602e-19)
(-0.0266742 2.53235 1.98175e-20)
(-0.0293399 2.57481 0)
(0.0398925 3.1721 4.67458e-19)
(0.372053 3.53651 0)
(1.16012 0.695867 -4.81682e-20)
(1.01176 0.0106248 -2.86e-21)
(1.02089 -0.00898303 0)
(1.00157 0.000291591 1.57543e-22)
(0.117481 1.37893 0)
(0.152862 2.58643 0)
(0.0346877 1.32562 0)
(0.000840272 2.63155 -1.07471e-20)
(-0.0214124 2.57919 -1.51648e-20)
(0.998602 0.0311953 2.76977e-21)
(1.06307 0.0059375 0)
(1.10019 0.0285399 0)
(-0.0375547 1.75077 0)
(-0.0204821 2.57772 0)
(-0.0140899 1.33144 0)
(0.309418 1.49325 -1.72964e-19)
(1.01152 -0.00904914 0)
(1.00971 -0.0129823 0)
(1.00227 0.00093201 6.15939e-19)
(1.00547 -0.00490922 -7.26268e-19)
(1.00113 -0.000862396 0)
(-0.0266855 1.47666 0)
(-0.0149248 1.401 0)
(-0.0221311 1.43921 0)
(-0.017463 1.31685 0)
(-0.0340501 1.30707 0)
(-0.0265537 1.28845 0)
(1.03571 -0.00428228 0)
(1.01904 0.0156731 -9.40622e-22)
(0.814014 1.31522 2.84552e-19)
(1.00246 0.000392466 -6.15768e-19)
(1.00339 0.00444113 7.34959e-19)
(1.00126 0.00208928 0)
(1.01104 0.00963031 6.13276e-19)
(1.00682 0.00744365 -7.46478e-19)
(1.0071 0.0111044 0)
(-0.0257259 2.60459 0)
(-0.0293738 2.58325 -3.51755e-20)
(-0.0259761 2.59756 2.47541e-20)
(1.24306 0.274364 5.13069e-19)
(1.16375 0.0893361 0)
(0.0435202 3.09146 -9.38924e-19)
(0.0519912 2.87408 -6.65943e-20)
(0.102786 3.20176 1.2551e-18)
(0.121087 3.21365 -2.64473e-19)
(0.139907 3.25549 0)
(0.0224876 3.13766 2.57837e-19)
(0.060739 3.16196 9.35288e-19)
(0.0611406 3.1787 -4.82403e-19)
(0.0268166 3.12947 0)
(0.538749 0.289966 0)
(0.478631 0.30375 0)
(1.14308 0.727668 1.05495e-19)
(1.10739 0.863806 -8.55669e-20)
(1.20011 0.613009 0)
(1.22681 0.54677 0)
(1.01569 0.012036 -1.13914e-18)
(1.01462 0.0127792 1.43223e-18)
(1.02578 -0.00871303 0)
(1.02411 -0.0102829 0)
(1.00682 0.00328755 0)
(1.01088 0.00422387 0)
(1.00418 0.0022208 0)
(1.00932 0.00633558 0)
(1.00682 0.00503863 0)
(1.00436 0.00525226 0)
(0.109788 1.37858 0)
(0.0965488 1.33373 0)
(0.137582 1.42194 0)
(0.147866 1.40579 0)
(0.152005 2.60628 0)
(0.186786 2.6721 -4.03495e-19)
(0.0949776 2.6566 0)
(0.0845821 2.65184 1.75281e-19)
(0.0251282 2.67578 -1.52649e-19)
(0.0208644 1.3345 0)
(0.0307312 1.25127 0)
(0.0235691 1.35011 0)
(0.0482386 1.27223 0)
(-0.00149592 1.99349 4.43306e-20)
(-0.0212317 2.60759 -4.62268e-20)
(-0.00479876 2.67409 -3.95631e-20)
(-0.0181986 2.68679 0)
(-0.0238315 2.6135 4.46931e-20)
(-0.0225811 2.60903 4.73662e-20)
(0.00529435 1.98963 -3.43858e-20)
(-0.00986468 2.39721 6.20162e-20)
(-0.01428 2.42281 4.48491e-20)
(1.01124 0.0404123 1.15465e-18)
(1.00477 0.0213878 -1.43755e-18)
(1.00351 0.0476062 -1.17965e-18)
(0.975944 0.037595 1.48573e-18)
(1.06473 0.00928599 0)
(1.04995 -0.00642018 0)
(1.09275 0.037913 0)
(1.07592 0.0151355 0)
(1.07471 0.000550208 0)
(1.14131 0.0798395 0)
(1.11585 0.0465567 0)
(1.11934 0.0374957 0)
(-0.0323263 2.42935 4.25633e-21)
(-0.0235827 2.02541 0)
(-0.0241334 2.22005 0)
(-0.0224973 2.59858 -2.25644e-20)
(-0.0188425 2.60993 7.39241e-22)
(-0.00412058 1.59823 -6.28664e-20)
(-0.0154461 1.52066 6.42471e-20)
(-0.0249248 1.41271 0)
(-0.0298636 1.41902 0)
(-0.0359897 1.40866 0)
(-0.007925 1.33388 0)
(0.00873118 1.24712 0)
(0.387169 1.51795 2.88732e-19)
(0.435465 1.52228 1.54058e-19)
(0.591309 2.46131 -2.46897e-19)
(0.385778 2.55147 7.09866e-19)
(0.349404 2.04677 6.85427e-20)
(1.02072 -0.00798912 0)
(1.0158 -0.00934603 0)
(1.01486 -0.0132038 0)
(1.00775 -0.000546697 0)
(1.00484 -0.000691154 0)
(1.008 -0.00446375 0)
(1.00954 -0.00342859 0)
(1.01465 -0.00426587 0)
(1.01978 0.0164689 1.11757e-18)
(1.01718 0.015102 -1.41967e-18)
(1.02014 0.01896 -1.12627e-18)
(1.01752 0.0173367 1.41161e-18)
(0.770356 1.36191 0)
(0.708975 1.39786 2.48168e-19)
(0.878355 1.24293 1.05101e-19)
(0.914821 1.20245 -1.39488e-19)
(1.16143 2.60668 2.67377e-19)
(0.750311 0.126844 5.8161e-19)
(1.17216 0.108356 0)
(1.21505 0.202948 -4.16628e-19)
(1.19659 0.154583 -1.73369e-20)
(1.01276 0.166641 0)
(0.0752722 3.01833 3.33175e-19)
(0.0814078 2.90321 -1.1019e-18)
(0.0229106 2.36136 6.98303e-19)
(0.159922 -0.272984 -3.04709e-19)
(0.340195 3.44081 -2.54972e-19)
(0.191583 3.33729 0)
(0.222077 3.39248 3.32131e-19)
(0.219764 3.07549 -1.16863e-18)
(0.252384 3.19345 0)
(0.00644829 3.12239 4.88785e-20)
(0.0168947 3.13114 -5.63885e-19)
(0.0159094 3.1269 8.29936e-19)
(0.0329355 3.14006 0)
(0.0309449 3.14956 0)
(1.25328 2.56937 0)
(0.542409 0.789979 -5.17976e-19)
(1.02765 1.0378 -1.693e-20)
(0.99446 1.09058 0)
(0.863424 0.972631 -1.04243e-19)
(1.08703 0.913361 2.65532e-20)
(0.284954 0.309714 -7.59856e-19)
(0.629587 0.325767 -2.28487e-20)
(0.518016 0.216146 3.90578e-19)
(0.513741 0.312997 2.7823e-20)
(0.378264 0.262587 -1.10995e-18)
(0.583193 0.326447 0)
(0.678082 0.440611 6.7348e-19)
(0.69182 0.453447 0)
(0.541533 0.320284 0)
(0.442172 0.249146 0)
(0.797878 0.659786 3.95622e-19)
(1.25474 0.308582 -4.16668e-19)
(1.24808 0.440983 0)
(1.24807 0.395894 0)
(0.682324 0.186141 5.93432e-19)
(0.84746 0.561714 -3.679e-19)
(0.768363 0.521359 6.56781e-19)
(0.965343 0.456352 -6.5664e-19)
(1.01854 0.0147916 7.61178e-19)
(1.01709 0.0136881 -7.66622e-19)
(1.01582 0.0143134 0)
(1.0371 -0.00450255 0)
(1.03049 -0.00768165 -7.17536e-19)
(1.0287 -0.0105693 7.10083e-19)
(1.02476 0.0110229 0)
(1.02272 0.01512 0)
(1.01271 0.00476617 0)
(1.01459 0.00909547 0)
(1.01645 0.00427379 0)
(1.01558 0.00295074 0)
(0.0792673 1.36314 0)
(0.0820743 1.30519 0)
(0.151643 1.42228 5.21042e-20)
(0.277745 1.48933 8.40508e-20)
(0.176013 1.46052 1.89455e-19)
(0.212896 1.45849 -3.06076e-19)
(0.167427 1.43614 0)
(0.144248 1.58792 -8.94026e-20)
(0.141518 1.58409 0)
(0.34637 2.0004 -9.97912e-20)
(0.320091 2.33468 5.53825e-19)
(0.201514 1.46778 7.79076e-20)
(0.27673 1.40483 2.43664e-20)
(0.210756 1.40355 -1.98676e-20)
(0.291647 1.34312 -8.69061e-20)
(0.260855 1.578 0)
(0.266729 1.62516 9.5844e-20)
(0.0209754 2.24266 -1.4763e-20)
(0.0375989 2.66848 0)
(0.055757 2.39305 1.03698e-19)
(0.0472565 2.41848 0)
(0.0648035 2.67515 -2.10276e-19)
(0.0425117 2.70215 0)
(0.0276903 1.46582 6.33848e-20)
(0.0316916 1.52297 0)
(0.0347306 1.4254 0)
(0.0270779 1.43435 -7.25071e-20)
(0.00477706 2.65885 5.17987e-21)
(0.0277905 2.68904 1.76423e-19)
(0.01243 2.73227 8.74106e-22)
(0.00448508 1.84754 -2.87959e-20)
(-0.00371007 1.6998 -1.97046e-20)
(0.0187565 1.31532 0)
(0.0279553 1.22743 0)
(0.039422 1.59355 -1.7734e-21)
(0.0421067 1.47435 -5.60204e-20)
(0.0249706 1.55853 5.66671e-20)
(0.0528113 1.61582 0)
(-0.0323872 2.26932 1.35846e-19)
(-0.0357449 2.54647 -5.75247e-20)
(-0.0211156 2.447 1.05349e-20)
(-0.00371248 1.86298 3.49033e-20)
(-0.028409 2.50175 1.49887e-20)
(-0.0226848 2.44383 -3.87493e-20)
(1.01831 0.0225311 -7.65678e-19)
(1.01503 0.0289321 7.6897e-19)
(1.01206 0.0184188 0)
(1.00967 0.0710276 1.0688e-18)
(0.990486 0.0609841 -1.20742e-18)
(0.950552 0.0568587 1.35084e-18)
(1.01258 0.115955 -1.43341e-19)
(1.04403 -0.0046387 0)
(1.05225 -0.000376282 6.87216e-19)
(1.04034 -0.00814716 -6.86849e-19)
(1.07234 0.0438216 -4.07287e-20)
(1.06502 0.0291631 3.51902e-19)
(1.06421 0.0659064 0)
(1.0544 0.0550973 -1.2679e-19)
(1.03215 0.0439317 0)
(1.02625 0.0387933 0)
(1.02764 0.0136703 0)
(1.02401 0.0164042 0)
(1.04067 0.0338991 2.60578e-19)
(1.03928 0.0284693 -5.76859e-19)
(1.05312 0.0388403 -2.75603e-19)
(1.04822 0.0387548 -3.0416e-19)
(1.07789 0.0707469 5.81573e-19)
(1.10184 0.0568237 0)
(1.10854 0.0955445 0)
(-0.030368 2.27523 7.82393e-20)
(-0.0334445 2.02996 4.50838e-21)
(-0.0284528 2.04003 0)
(-0.0318177 2.44293 -7.78754e-20)
(-0.0301731 2.40177 -8.58909e-21)
(-0.0364299 2.4692 1.03697e-20)
(-0.0219151 2.62122 -4.02949e-20)
(-0.0275517 2.56296 2.31463e-21)
(-0.0258655 2.5167 -1.36775e-20)
(-0.0177636 2.61389 2.58495e-20)
(-0.021712 2.61641 -3.0062e-20)
(-0.0126857 1.52603 -1.09416e-21)
(-0.00749173 1.64464 -6.4969e-20)
(0.378457 1.45403 -1.23513e-19)
(0.373717 1.3843 1.68563e-20)
(0.650308 1.44554 -2.40134e-19)
(0.525642 1.51512 -1.49675e-19)
(0.579602 1.47421 0)
(0.607039 2.41786 2.15642e-19)
(0.666162 2.42764 3.36413e-19)
(0.415967 2.51219 9.4754e-20)
(0.400377 2.53564 -5.84565e-19)
(0.500853 2.47456 5.56599e-19)
(0.552228 2.47192 0)
(0.484652 2.5222 -5.47951e-19)
(0.253584 2.59091 1.10724e-18)
(0.365279 2.56241 -6.8413e-20)
(0.279215 2.65347 -1.56926e-18)
(0.970487 2.38493 7.07929e-19)
(0.848096 2.38552 0)
(1.01142 0.00139854 2.49744e-20)
(1.01537 -0.00515343 -2.04059e-20)
(1.01779 -0.00388486 -3.7299e-19)
(1.01564 -0.00101568 3.717e-19)
(1.01313 0.00185142 0)
(0.638447 1.3069 0)
(0.68315 1.19205 0)
(0.798441 1.12263 0)
(0.670584 1.149 0)
(1.19257 2.62221 5.15621e-20)
(1.08477 2.3732 0)
(0.815527 2.16378 3.52637e-21)
(0.820627 2.42622 0)
(0.915368 2.5169 -4.31421e-19)
(0.94664 2.46628 2.88063e-19)
(0.784042 0.163619 0)
(0.725132 0.148726 1.57591e-19)
(0.901246 0.15939 9.22221e-19)
(0.81397 0.143333 -3.45128e-19)
(0.756265 0.0934424 -1.061e-18)
(1.08801 0.247692 -8.3535e-19)
(0.985551 0.318167 -1.00531e-20)
(0.92841 0.353985 8.07401e-19)
(1.01302 0.260695 6.87634e-19)
(0.929612 0.206469 -1.21522e-18)
(0.887573 0.221259 1.52822e-19)
(0.929377 0.320334 -3.15928e-19)
(0.904761 0.225807 0)
(1.00092 0.210269 5.94931e-19)
(1.05457 0.219816 0)
(1.05234 0.230369 0)
(1.12605 0.125785 2.65602e-19)
(1.06471 0.195722 -1.05468e-20)
(1.07936 0.249593 -1.52254e-19)
(1.11295 0.212934 0)
(1.02222 0.0484516 5.88955e-19)
(1.03692 0.062715 7.3491e-19)
(1.03264 0.0461059 -5.84871e-19)
(1.04133 0.069303 -4.92817e-19)
(1.01504 0.0763199 -7.5468e-19)
(0.984893 0.168742 0)
(0.987014 0.107949 0)
(0.96121 0.0752397 -4.80984e-19)
(0.901964 0.0982476 1.90996e-19)
(1.03907 0.117141 6.81832e-19)
(1.07625 0.138195 -7.77701e-19)
(1.07054 0.181834 6.9949e-19)
(1.03548 0.158276 0)
(1.08638 0.123779 0)
(1.0568 0.113241 -3.19228e-19)
(1.04263 0.109458 -5.53851e-19)
(0.587505 1.07921 1.17907e-19)
(0.608066 1.39725 -1.91336e-20)
(1.14307 2.71446 -2.45699e-19)
(1.19514 3.09867 2.78857e-21)
(1.25028 2.72276 -1.18484e-19)
(1.28922 2.6928 1.85202e-20)
(1.26373 2.3152 -3.84273e-20)
(1.18258 3.00377 -7.30681e-20)
(1.20243 2.96068 2.22299e-19)
(1.17644 3.25144 -1.21686e-19)
(1.39351 2.96437 1.52757e-19)
(1.40465 2.89864 0)
(0.579285 0.815073 -4.76904e-20)
(0.19688 1.21172 4.62452e-19)
(0.529443 0.322093 4.93651e-19)
(0.4123 0.0883247 5.61512e-19)
(0.445149 0.290646 6.28368e-19)
(0.546426 0.41583 -1.02113e-18)
(0.558165 0.397196 8.37044e-19)
(0.448409 0.293183 -3.07475e-19)
(0.267058 0.227651 7.08981e-19)
(0.714067 0.259223 -3.42433e-19)
(0.661491 0.290409 0)
(0.594138 0.196702 7.72342e-21)
(0.729085 0.515906 3.56061e-19)
(0.701409 0.492714 -1.29036e-18)
(0.633528 0.439563 1.18495e-20)
(0.611766 0.418887 0)
(0.722591 0.721296 3.67146e-19)
(0.839377 0.802977 4.04807e-19)
(0.777559 0.853296 -4.71661e-19)
(0.90765 0.824218 -1.48976e-19)
(0.94339 0.867685 -3.43792e-20)
(0.950752 0.87521 3.52603e-20)
(0.883581 0.683433 -6.57407e-19)
(0.957035 0.729141 1.38506e-19)
(1.01323 0.73218 0)
(1.0114 0.707226 -1.76879e-19)
(1.03022 0.343198 2.08047e-19)
(1.15955 0.343401 2.51112e-19)
(1.07471 0.285436 3.41515e-19)
(0.99972 0.390497 -4.1665e-19)
(1.05823 0.491578 0)
(1.14006 0.431973 0)
(0.900229 0.427823 5.35112e-23)
(0.845098 0.3246 0)
(0.892309 0.314126 3.86514e-19)
(0.914893 0.352228 3.24005e-21)
(0.988026 0.503124 1.83323e-18)
(0.920268 0.562086 4.72372e-19)
(0.943902 0.519819 -4.99541e-19)
(0.860845 0.495129 5.32244e-19)
(0.825292 0.470326 3.40241e-19)
(0.80211 0.450546 -3.33311e-19)
(1.02821 -0.000362723 6.16255e-19)
(1.02051 0.000612293 0)
(1.01913 0.00142387 4.0219e-19)
(1.02271 -0.000697112 -9.10389e-19)
(1.02258 0.00462454 4.435e-19)
(1.02003 0.0116796 -9.28321e-19)
(1.02079 0.0115096 0)
(1.0197 0.0122825 -1.93348e-19)
(1.01661 0.00784108 4.84463e-19)
(1.0167 0.0109676 -2.43688e-19)
(1.01731 0.010675 1.78514e-19)
(0.0378371 1.3381 0)
(0.0442622 1.40131 0)
(0.0564732 1.34226 0)
(0.0626402 1.2763 0)
(0.0896155 1.40934 -7.38601e-20)
(0.0928317 1.38225 2.00361e-20)
(0.0900055 1.57297 -5.58974e-22)
(0.105592 1.41394 -3.63823e-20)
(0.0441338 1.48872 4.6932e-20)
(0.0501283 1.48231 -3.69676e-20)
(0.07925 1.40131 -2.12707e-20)
(0.0644386 1.403 7.20661e-20)
(0.0609557 1.38495 1.19768e-20)
(0.0471991 1.40384 8.21436e-21)
(0.100735 2.35475 -1.14151e-19)
(0.0900643 2.40841 0)
(0.155066 2.01109 1.04257e-19)
(0.128652 1.69556 3.85699e-20)
(0.220984 2.01122 -8.59002e-20)
(0.187396 2.43168 0)
(0.233366 2.37906 -6.5581e-19)
(0.324154 2.35002 4.34941e-19)
(0.248447 1.97815 -2.2689e-19)
(0.13866 2.13857 1.55622e-19)
(0.118708 2.25127 0)
(0.0120707 1.84458 -4.19116e-20)
(-0.00597024 2.36383 -1.87878e-21)
(0.00339019 2.1208 0)
(0.00369398 2.42856 -1.69135e-20)
(0.0165806 2.26112 3.16576e-20)
(0.0126972 1.44204 -1.29869e-20)
(0.0115131 1.42296 2.19603e-19)
(0.00913335 1.43409 -7.07588e-20)
(0.0219619 1.4436 -6.2711e-20)
(0.0247361 1.46932 0)
(0.00639125 1.41934 0)
(0.00200194 1.3168 -9.14363e-20)
(0.000533304 1.41063 2.67565e-20)
(0.00800292 1.40874 0)
(0.0123062 1.30758 -6.90948e-20)
(0.0225276 1.21633 1.38967e-19)
(1.04248 0.0150795 0)
(1.04902 0.0105686 -6.42634e-20)
(1.03919 0.0246168 -4.64687e-19)
(1.04962 0.0234924 0)
(1.05467 0.0227048 0)
(1.03638 0.0130688 -6.75342e-21)
(1.03019 0.0134856 7.48908e-19)
(1.03193 0.0175082 9.07882e-19)
(1.02562 0.0211807 0)
(1.02228 0.021814 0)
(1.03568 0.0259947 4.63669e-19)
(1.02589 0.0283146 0)
(1.02366 0.0281529 0)
(-0.0201957 2.03026 0)
(-0.0113769 1.67119 -2.46417e-21)
(-0.0093236 1.77298 -3.5921e-20)
(-0.0072933 1.41668 0)
(-0.00842936 1.57812 -3.80446e-20)
(-0.0176344 1.4927 2.30287e-20)
(-0.0162951 1.43434 0)
(0.402888 1.61851 0)
(0.368039 1.32246 -2.51219e-20)
(0.275531 1.34616 0)
(0.437736 1.32042 -4.34578e-20)
(0.473557 1.47985 0)
(0.459266 1.42156 4.34141e-20)
(1.03986 2.66571 -1.50392e-20)
(0.984773 2.40384 -8.89142e-19)
(0.946761 2.20466 9.94114e-19)
(0.86465 2.37755 2.40658e-19)
(0.852174 2.4821 0)
(0.921106 2.4771 0)
(0.954285 2.37762 0)
(0.93011 2.36852 -9.32685e-19)
(0.690587 2.44614 -3.73446e-19)
(0.799767 2.42999 -9.67325e-20)
(0.806889 2.40822 7.29049e-20)
(0.703498 2.39873 0)
(0.808896 2.39202 0)
(0.769411 2.40875 -3.65108e-19)
(0.764999 2.46064 0)
(0.633584 1.06988 0)
(0.513983 0.852763 -5.59346e-19)
(0.523101 0.930508 -3.26204e-20)
(0.500803 1.06612 0)
(0.488263 0.972788 8.54261e-19)
(0.805331 0.888984 -1.3091e-19)
(0.80901 1.02399 0)
(0.790445 1.00747 1.78654e-19)
(0.678849 1.02309 0)
(0.670082 0.927432 0)
(1.16155 2.75085 -2.15652e-19)
(1.13679 2.80946 -8.66369e-20)
(0.920996 2.33233 7.06116e-20)
(0.897887 2.3129 -7.44071e-20)
(1.13119 2.72831 0)
(1.0834 2.69611 8.93373e-20)
(1.09834 2.49002 -2.92261e-19)
(0.999783 2.24932 -2.78097e-20)
(0.495398 1.32487 0)
(0.515711 1.07441 -1.03833e-19)
(0.596581 1.18508 0)
(0.844927 0.23335 0)
(0.752218 0.181348 0)
(0.660325 0.141676 0)
(0.851133 0.232586 -6.09584e-19)
(0.740119 0.226396 3.57676e-19)
(0.909941 0.089174 -3.89594e-19)
(0.927326 0.144129 0)
(0.906945 0.151838 1.72028e-19)
(0.838177 0.109333 6.89432e-19)
(0.79003 0.0772463 -4.33702e-19)
(1.09246 3.34168 -6.68609e-19)
(1.16117 3.26575 0)
(1.11041 3.42615 -1.56631e-18)
(0.653318 3.57282 1.30303e-18)
(1.02041 3.07333 1.20822e-19)
(0.534002 0.772264 5.65889e-19)
(0.511236 0.73852 0)
(0.341808 0.319795 -1.41513e-19)
(0.497116 0.630432 8.43381e-19)
(0.570157 0.321194 -1.8164e-19)
(0.525285 0.454555 2.18563e-19)
(0.688402 0.528287 4.52366e-19)
(0.731453 0.566768 0)
(0.673101 0.566403 0)
(0.66142 0.539568 0)
(1.01951 0.616636 8.66111e-20)
(0.972658 0.600295 -4.57554e-19)
(0.983436 0.611869 3.48186e-19)
(1.04729 0.554578 -3.3713e-19)
(1.09282 0.523088 0)
(1.09506 0.604778 -8.82861e-20)
(0.885761 0.425011 -7.59003e-19)
(0.873083 0.408541 -9.80732e-19)
(0.797452 0.419122 5.99203e-19)
(0.81021 0.377866 -6.25028e-19)
(0.853275 0.336023 -4.91018e-19)
(0.796243 0.340124 6.01086e-19)
(1.0266 0.00673966 -4.64082e-19)
(1.02623 0.00686228 9.35178e-19)
(1.02998 0.000959327 5.97155e-19)
(1.03419 0.00160092 -7.17047e-19)
(1.03401 0.0119321 0)
(1.0298 0.0120639 -1.17241e-18)
(0.085733 1.64696 1.00391e-20)
(0.0717425 1.60426 0)
(0.108956 1.69971 6.26328e-20)
(0.116027 1.66873 -5.67944e-20)
(0.0880774 1.5724 1.04308e-21)
(0.0741414 1.57665 0)
(0.00868111 1.70687 0)
(-0.00666572 1.52921 2.03696e-20)
(-0.00563165 1.47284 -1.82956e-20)
(-0.0122811 1.57589 3.42777e-21)
(-0.00131358 1.89563 3.04011e-20)
(-0.0136344 1.95042 -1.21198e-20)
(0.493296 1.35783 -2.57323e-19)
(0.496151 1.35208 2.81539e-19)
(0.451917 1.31242 -8.48568e-21)
(0.42848 1.29013 7.39447e-21)
(0.631563 1.31384 0)
(0.557437 1.40832 1.19033e-19)
(0.558382 1.4112 -1.15924e-19)
(0.488193 1.30155 8.1888e-21)
(0.528563 1.25321 0)
(0.592863 1.21886 0)
(0.66444 2.40968 5.49897e-19)
(0.659953 2.43987 1.26117e-18)
(0.715422 2.45486 -8.67571e-19)
(0.614058 2.42703 -1.98114e-19)
(0.556471 2.51952 2.70348e-19)
(0.49735 2.48627 -6.95837e-19)
(0.991755 2.38257 -5.6026e-19)
(1.02285 2.40008 0)
(0.949594 2.18786 -6.11882e-19)
(1.05444 2.67712 0)
(1.05326 2.65793 0)
(0.595954 2.28326 1.8731e-21)
(1.11525 3.06568 7.14977e-20)
(0.991288 2.96136 -1.18033e-19)
(0.313535 0.777173 0)
(0.309561 0.647778 -3.02054e-19)
(0.521064 0.586975 -3.04536e-19)
(0.357711 2.12434 0)
(0.399993 2.74376 -8.50714e-20)
(0.409019 2.47757 0)
(0.731374 0.69085 -7.81272e-19)
(0.798376 0.70075 1.09212e-18)
(0.798772 0.663579 -1.08449e-18)
(0.704814 0.647569 -9.90014e-20)
(0.758233 0.607999 -4.13863e-19)
(0.965998 2.74831 -5.41462e-20)
(1.01176 2.75678 -2.09384e-19)
(0.545999 2.19722 4.46255e-19)
(0.599925 1.73003 -3.52166e-19)
(0.698889 1.84857 -4.93871e-19)
(0.973702 2.38943 -1.38327e-19)
(0.974305 2.34269 3.65255e-19)
(0.640159 1.75557 3.34384e-20)
(0.447146 1.29047 1.73705e-19)
)
;

boundaryField
{
    wall-4
    {
        type            noSlip;
    }
    velocity-inlet-5
    {
        type            fixedValue;
        value           uniform (1 0 0);
    }
    velocity-inlet-6
    {
        type            fixedValue;
        value           uniform (0 3 0);
    }
    pressure-outlet-7
    {
        type            zeroGradient;
    }
    wall-8
    {
        type            noSlip;
    }
    frontAndBackPlanes
    {
        type            empty;
    }
}


// ************************************************************************* //
