/*--------------------------------*- C++ -*----------------------------------*\
  =========                 |
  \\      /  F ield         | OpenFOAM: The Open Source CFD Toolbox
   \\    /   O peration     | Website:  https://openfoam.org
    \\  /    A nd           | Version:  6
     \\/     M anipulation  |
\*---------------------------------------------------------------------------*/
FoamFile
{
    version     2.0;
    format      ascii;
    class       volScalarField;
    location    "4";
    object      Ma;
}
// * * * * * * * * * * * * * * * * * * * * * * * * * * * * * * * * * * * * * //

dimensions      [0 0 0 0 0 0 0];

internalField   nonuniform List<scalar> 
5250
(
2.99989
2.99969
2.9991
2.99813
2.99493
2.98979
2.97299
2.94328
2.86108
2.67781
2.28992
1.48079
0.416003
0.0934235
0.114383
0.30226
0.351662
0.318688
0.257268
0.199155
0.161434
0.130169
0.096958
0.0630474
0.0437441
2.99989
2.99969
2.9991
2.99814
2.99495
2.98983
2.9731
2.94351
2.8616
2.67907
2.29225
1.48544
0.421145
0.0916273
0.12451
0.308916
0.355661
0.321923
0.261653
0.206417
0.170831
0.141222
0.110807
0.0825583
0.0690716
2.99989
2.9997
2.99911
2.99815
2.99499
2.98992
2.97333
2.94401
2.86272
2.68188
2.29752
1.49695
0.434015
0.0868282
0.142552
0.31937
0.36247
0.32838
0.270849
0.221206
0.190068
0.164218
0.139174
0.118266
0.109338
2.99989
2.9997
2.99912
2.99818
2.99506
2.99006
2.97369
2.94481
2.86451
2.68643
2.30612
1.51618
0.454963
0.0836196
0.16618
0.333127
0.372542
0.339233
0.286189
0.243446
0.217684
0.196482
0.177102
0.162376
0.156637
2.99989
2.99971
2.99914
2.99821
2.99516
2.99025
2.97419
2.94591
2.86697
2.69285
2.31814
1.54383
0.484858
0.0881981
0.194551
0.34994
0.385425
0.353946
0.306562
0.270902
0.250513
0.234294
0.220058
0.209952
0.206639
2.99989
2.99972
2.99916
2.99826
2.99528
2.9905
2.97482
2.94733
2.87008
2.7009
2.33368
1.57601
0.524874
0.107097
0.227064
0.369474
0.401191
0.372715
0.332032
0.30349
0.288247
0.276849
0.267902
0.262228
0.261059
2.9999
2.99972
2.99919
2.99832
2.99543
2.99081
2.97557
2.9491
2.87385
2.71034
2.3531
1.60889
0.576085
0.141442
0.262546
0.388265
0.418439
0.39472
0.361627
0.340397
0.330973
0.325068
0.321652
0.321431
0.32411
2.9999
2.99974
2.99922
2.99838
2.9956
2.99118
2.97647
2.95121
2.8784
2.7217
2.37664
1.64924
0.638767
0.189692
0.30083
0.407085
0.437666
0.420038
0.395445
0.381021
0.37789
0.378836
0.383913
0.392493
0.403214
2.99991
2.99975
2.99926
2.99846
2.99581
2.99161
2.97755
2.95364
2.88388
2.73494
2.40439
1.69792
0.710437
0.249979
0.341214
0.425664
0.45834
0.448012
0.432849
0.426125
0.429619
0.438923
0.456087
0.481069
0.515195
2.99991
2.99976
2.9993
2.99855
2.99606
2.99211
2.97883
2.95641
2.89034
2.75034
2.43646
1.75573
0.791859
0.321708
0.380128
0.443826
0.479359
0.478036
0.471641
0.472829
0.484426
0.506764
0.543642
0.598647
0.702636
2.99992
2.99978
2.99935
2.99866
2.99634
2.99269
2.98034
2.95965
2.89797
2.76836
2.47462
1.82605
0.888604
0.402614
0.411704
0.465141
0.502506
0.509158
0.510277
0.519451
0.542089
0.580962
0.64214
0.742602
0.90062
2.99993
2.9998
2.99941
2.99878
2.99668
2.99337
2.98211
2.96346
2.90691
2.78986
2.52026
1.91279
1.01054
0.49253
0.441505
0.484907
0.524294
0.53932
0.548886
0.567093
0.600898
0.65518
0.731366
0.849603
1.01447
2.99994
2.99983
2.99948
2.99893
2.99706
2.99416
2.98415
2.96798
2.91732
2.81551
2.57603
2.01853
1.16552
0.592659
0.469887
0.503157
0.5452
0.569994
0.58786
0.613563
0.654726
0.714018
0.797174
0.907622
1.04453
2.99995
2.99985
2.99956
2.99908
2.99748
2.995
2.98642
2.9727
2.92905
2.84327
2.63751
2.1487
1.34637
0.701705
0.503536
0.529778
0.572954
0.605394
0.627632
0.65766
0.701012
0.759281
0.83723
0.935165
1.04997
2.99996
2.99988
2.99963
2.99923
2.9979
2.99583
2.9887
2.97742
2.94071
2.87329
2.69766
2.31003
1.58572
0.8206
0.558192
0.578389
0.61519
0.647603
0.670304
0.698636
0.741812
0.796273
0.866963
0.950464
1.04765
2.99997
2.9999
2.9997
2.99936
2.99827
2.99656
2.99065
2.98141
2.9508
2.89652
2.7474
2.43419
1.78053
0.92315
0.604192
0.624344
0.659324
0.692909
0.714163
0.738694
0.77699
0.82685
0.890533
0.963967
1.04619
2.99997
2.99992
2.99975
2.99948
2.99858
2.99718
2.99232
2.98479
2.95952
2.91465
2.79376
2.51519
1.97299
1.05392
0.678008
0.661382
0.695017
0.727756
0.753159
0.776447
0.810088
0.853666
0.909126
0.974246
1.04582
2.99998
2.99994
2.9998
2.99958
2.99885
2.99773
2.99379
2.98777
2.96713
2.93154
2.83203
2.60042
2.14981
1.26744
0.799716
0.696488
0.719664
0.749224
0.780669
0.807482
0.838979
0.879604
0.927065
0.983621
1.04647
2.99999
2.99995
2.99985
2.99967
2.9991
2.99822
2.99513
2.99048
2.97418
2.9472
2.86845
2.69145
2.33061
1.54164
0.95778
0.752466
0.751819
0.773872
0.805325
0.834871
0.865398
0.901854
0.945439
0.993806
1.04885
2.99999
2.99996
2.99988
2.99975
2.99932
2.99865
2.99631
2.99282
2.9804
2.9609
2.899
2.77959
2.49084
1.90297
1.14273
0.834586
0.801656
0.813464
0.838324
0.866854
0.894589
0.92606
0.963955
1.00683
1.05383
3
2.99998
2.99991
2.99982
2.99949
2.99899
2.99723
2.99465
2.98524
2.97104
2.92382
2.83337
2.61667
2.10713
1.35359
0.927228
0.842652
0.850608
0.871487
0.898636
0.924025
0.951394
0.983717
1.02114
1.06236
3
2.99998
2.99994
2.99987
2.99963
2.99926
2.99796
2.99606
2.98911
2.97878
2.94323
2.88019
2.71384
2.3376
1.65933
1.07034
0.89516
0.888622
0.903552
0.927251
0.953148
0.97736
1.00458
1.03614
1.07189
3
2.99999
2.99996
2.99991
2.99973
2.99947
2.99854
2.99718
2.99222
2.98492
2.95924
2.91678
2.79065
2.54689
1.97615
1.26341
0.971951
0.92842
0.936694
0.956359
0.980604
1.00371
1.02772
1.05514
1.08557
3
3
2.99997
2.99994
2.99982
2.99963
2.99899
2.99805
2.9946
2.98967
2.97178
2.9432
2.85623
2.66922
2.28354
1.52539
1.10447
0.97702
0.97065
0.980719
1.00091
1.02477
1.04785
1.07281
1.10054
3
3
2.99998
2.99996
2.99988
2.99975
2.99932
2.99869
2.99638
2.99308
2.98098
2.96257
2.90278
2.79092
2.51046
1.97073
1.2969
1.05335
1.0177
1.01589
1.02916
1.04966
1.07107
1.09286
1.11703
3.00001
3
2.99999
2.99997
2.99993
2.99981
2.99962
2.99897
2.99802
2.99455
2.98949
2.97219
2.94096
2.8558
2.66138
2.26399
1.54498
1.15588
1.05327
1.04591
1.05418
1.07221
1.09521
1.11577
1.13681
3.00001
3
3
2.99998
2.99996
2.99988
2.99976
2.99933
2.99871
2.99641
2.99325
2.98122
2.96351
2.9044
2.79665
2.5204
2.00099
1.36123
1.12173
1.08663
1.08594
1.09936
1.1197
1.13992
1.15874
3.00001
3
3
2.99999
2.99998
2.99993
2.99985
2.99958
2.9992
2.99778
2.99586
2.98869
2.97769
2.94174
2.86645
2.69118
2.25715
1.62196
1.21508
1.11789
1.11153
1.12228
1.14043
1.16291
1.18307
3.00001
3.00001
3
3
2.99999
2.99996
2.99991
2.99973
2.99949
2.99856
2.99731
2.99233
2.98569
2.96011
2.91995
2.79649
2.56248
2.00566
1.43213
1.18752
1.14583
1.14663
1.15992
1.18012
1.20293
3.00001
3.00001
3.00001
3
2.99999
2.99998
2.99994
2.99987
2.99965
2.99932
2.99815
2.99647
2.99068
2.98072
2.95025
2.88281
2.72189
2.34167
1.72515
1.30947
1.18999
1.17254
1.1795
1.19553
1.217
3.00001
3.00001
3.00001
3
3
2.99999
2.99997
2.99991
2.99982
2.99951
2.99907
2.99741
2.99514
2.98674
2.97328
2.9294
2.83882
2.62665
2.15729
1.54992
1.28049
1.22079
1.21182
1.21766
1.23198
3.00001
3.00001
3.00001
3.00001
3
3
2.99999
2.99995
2.9999
2.9997
2.99944
2.9984
2.99711
2.99162
2.98468
2.9572
2.91317
2.78507
2.51283
1.98365
1.45706
1.26771
1.24224
1.2416
1.25147
3.00001
3.00001
3.00001
3.00001
3
3
2.99999
2.99997
2.99994
2.99983
2.99967
2.99906
2.9983
2.99502
2.99114
2.97424
2.95148
2.86989
2.72529
2.35893
1.78129
1.38982
1.27825
1.26406
1.26667
3.00001
3.00001
3.00001
3.00001
3.00001
3
3
2.99999
2.99997
2.99991
2.99982
2.99949
2.99907
2.9973
2.99522
2.98613
2.97449
2.92924
2.85241
2.6481
2.21859
1.65212
1.36995
1.30383
1.29234
3.00001
3.00001
3.00001
3.00001
3.00001
3.00001
3
3
2.99999
2.99995
2.99991
2.99973
2.9995
2.99855
2.99745
2.99251
2.98662
2.96152
2.92478
2.80567
2.58305
2.07897
1.59688
1.37517
1.32818
3.00001
3.00001
3.00001
3.00001
3.00001
3.00001
3.00001
3
3
2.99999
2.99995
2.9999
2.99973
2.99949
2.99865
2.99741
2.99328
2.98531
2.9613
2.90817
2.76832
2.4705
1.94532
1.52888
1.37715
3.00001
3.00001
3.00001
3.00001
3.00001
3.00001
3.00001
3.00001
3
3
2.99999
2.99996
2.99992
2.9998
2.99958
2.99913
2.99781
2.99521
2.98533
2.96069
2.89339
2.73501
2.36789
1.85363
1.49596
3.00001
3.00001
3.00001
3.00001
3.00001
3.00001
3.00001
3.00001
3.00001
3
3
2.99997
2.99995
2.99983
2.9997
2.99906
2.9984
2.99489
2.99124
2.97247
2.94933
2.85584
2.70733
2.30273
1.81721
3.00001
3.00001
3.00001
3.00001
3.00001
3.00001
3.00001
3.00001
3.00001
3
3
2.99999
2.99997
2.99994
2.99981
2.99966
2.99899
2.99822
2.99465
2.99029
2.97119
2.94375
2.84533
2.68439
2.25387
3.00001
3.00001
3.00001
3.00001
3.00001
3.00001
3.00001
3.00001
3.00001
3.00001
3
3
2.99999
2.99997
2.99993
2.9998
2.99964
2.99893
2.99811
2.99437
2.98964
2.96952
2.93942
2.83493
2.66114
3.00001
3.00001
3.00001
3.00001
3.00001
3.00001
3.00001
3.00001
3.00001
3.00001
3.00001
3
3
3
2.99998
2.99995
2.99989
2.99968
2.99935
2.99808
2.9965
2.9889
2.97006
2.93514
2.82105
3.00001
3.00001
3.00001
3.00001
3.00001
3.00001
3.00001
3.00001
3.00001
3.00001
3.00001
3.00001
3.00001
3
3
2.99998
2.99995
2.99986
2.99968
2.99895
2.99793
2.99354
2.9877
2.96559
2.91341
3.00001
3.00001
3.00001
3.00001
3.00001
3.00001
3.00001
3.00001
3.00001
3.00001
3.00001
3.00001
3.00001
3.00001
3
2.99999
2.99999
2.99993
2.99987
2.9994
2.9987
2.99456
2.99298
2.96579
2.96975
3.00001
3.00001
3.00001
3.00001
3.00001
3.00001
3.00001
3.00001
3.00001
3.00001
3.00001
3.00001
3.00001
3.00001
3
3
2.99998
2.99996
2.9998
2.99964
2.99827
2.99629
2.98311
2.98777
2.94577
3.00001
3.00001
3.00001
3.00001
3.00001
3.00001
3.00001
3.00001
3.00001
3.00001
3.00001
3.00001
3.00001
3.00001
3.00001
3
2.99999
2.99998
2.99986
2.99964
2.99898
2.99627
2.99284
2.97743
2.94616
3.00001
3.00001
3.00001
3.00001
3.00001
3.00001
3.00001
3.00001
3.00001
3.00001
3.00001
3.00001
3.00001
3.00001
3.00001
3
2.99999
2.99997
2.99984
2.99968
2.99861
2.9979
2.99349
2.97975
2.95233
3.00001
3.00001
3.00001
3.00001
3.00001
3.00001
3.00001
3.00001
3.00001
3.00001
3.00001
3.00001
3.00001
3.00001
3.00001
3
2.99999
2.99996
2.99985
2.99967
2.99868
2.99809
2.99284
2.99078
2.95405
3.00001
3.00001
3.00001
3.00001
3.00001
3.00001
3.00001
3.00001
3.00001
3.00001
3.00001
3.00001
3.00001
3.00001
3
3
2.99998
2.99996
2.99979
2.99953
2.99804
2.99709
2.98684
2.9896
2.96243
3.00001
3.00001
3.00001
3.00001
3.00001
3.00001
3.00001
3.00001
3.00001
3.00001
3.00001
3.00001
3.00001
3.00001
3.00001
3
2.99999
2.99996
2.99993
2.99968
2.99942
2.99764
2.99555
2.98056
2.97466
3.00001
3.00001
3.00001
3.00001
3.00001
3.00001
3.00001
3.00001
3.00001
3.00001
3.00001
3.00001
3.00001
3.00001
3
3
2.99998
2.99996
2.99977
2.9995
2.99797
2.99697
2.98669
2.98972
2.96302
1.12343
1.34398
1.4946
1.58451
1.60826
1.57407
1.50489
1.42645
1.3072
1.19407
1.1135
1.07428
1.05217
1.02375
0.962126
0.829764
0.558223
0.241045
0.107955
0.125975
0.138965
0.177157
0.238566
0.30163
0.360184
0.409791
0.448953
0.47911
0.504585
0.527984
0.548504
0.563768
0.572738
0.576794
0.572066
0.555642
0.526627
0.485676
0.435916
0.382405
0.328945
0.277361
0.228941
0.182317
0.137455
0.0950422
0.0566982
0.0326375
0.0561087
0.0785576
0.107463
0.137904
0.168988
0.197662
0.225449
0.254105
0.283691
0.311466
0.338545
0.364304
0.389901
0.414499
0.43893
0.46259
0.485995
0.5087
0.531226
0.553094
0.574787
0.59597
0.61704
0.637594
0.658208
0.678323
0.69846
0.718252
0.737928
0.757355
0.77665
0.795619
0.814505
0.833055
0.851431
0.86963
0.887482
0.905291
0.922717
0.940051
0.9572
0.973955
0.990911
1.00712
1.02375
1.03966
1.05573
1.071
1.08603
1.09908
1.11046
1.11686
1.17856
1.32283
1.42194
1.47861
1.49671
1.49102
1.48551
1.4971
1.52125
1.53844
1.54041
1.52691
1.49702
1.45052
1.37534
1.2512
1.01737
0.706061
0.493615
0.402092
0.337018
0.272218
0.206694
0.144858
0.0952257
0.0708325
0.0996887
0.152017
0.205767
0.254915
0.296809
0.32365
0.334113
0.333221
0.320365
0.300143
0.267315
0.22468
0.177825
0.130685
0.0890051
0.0626439
0.0675554
0.0955474
0.121193
0.151431
0.183271
0.214005
0.243015
0.269936
0.297254
0.324617
0.351808
0.377783
0.402218
0.427122
0.45278
0.478062
0.502015
0.525309
0.548002
0.570318
0.592134
0.613496
0.634504
0.65506
0.675329
0.695229
0.714864
0.734235
0.753326
0.772348
0.790984
0.809736
0.828064
0.846496
0.864636
0.882668
0.900652
0.91825
0.936027
0.953205
0.970735
0.98747
1.00476
1.02104
1.03809
1.05394
1.07078
1.08627
1.103
1.11827
1.13478
1.14969
1.16565
1.17988
1.1947
1.20696
1.21827
1.22418
1.16853
1.27691
1.36728
1.44289
1.51026
1.57667
1.64017
1.69575
1.73931
1.76748
1.7734
1.76862
1.75428
1.7252
1.67006
1.57732
1.37995
1.1009
0.86067
0.744622
0.678369
0.613931
0.546184
0.480707
0.418213
0.358274
0.299947
0.24345
0.189519
0.138962
0.0926039
0.0541659
0.036068
0.0456957
0.0736574
0.0712566
0.08275
0.127482
0.158164
0.190925
0.223017
0.253914
0.283314
0.310533
0.33613
0.362038
0.387177
0.412123
0.435339
0.458111
0.479985
0.50251
0.52433
0.546061
0.566048
0.586286
0.607192
0.62842
0.648914
0.6686
0.688024
0.707035
0.725676
0.744174
0.762195
0.780234
0.797853
0.815449
0.832787
0.849982
0.867108
0.883959
0.901021
0.917531
0.934615
0.950827
0.96792
0.983904
1.00089
1.01669
1.03347
1.04904
1.06563
1.08093
1.09735
1.11242
1.12861
1.14359
1.15969
1.17456
1.19049
1.20526
1.22082
1.23554
1.2506
1.26477
1.27901
1.29127
1.30231
1.3084
1.1595
1.25868
1.3475
1.4296
1.50584
1.57734
1.64206
1.70014
1.74718
1.78327
1.80859
1.82309
1.82557
1.82267
1.80413
1.75974
1.65072
1.43744
1.13811
0.98243
0.907413
0.849737
0.796867
0.744114
0.69155
0.640743
0.588155
0.535522
0.483127
0.43164
0.381166
0.332244
0.291669
0.263172
0.251821
0.273492
0.315443
0.360294
0.400605
0.434369
0.460801
0.483362
0.50329
0.521616
0.53926
0.556828
0.574442
0.591793
0.608992
0.625373
0.642292
0.658512
0.675901
0.692055
0.70842
0.723485
0.740384
0.757137
0.774761
0.790759
0.807598
0.823146
0.839689
0.855024
0.871295
0.886385
0.902401
0.917332
0.933182
0.948042
0.96375
0.978592
0.994194
1.0091
1.02462
1.03958
1.05499
1.07001
1.08534
1.10045
1.11564
1.13072
1.14567
1.16058
1.17538
1.19021
1.20509
1.21978
1.23461
1.24914
1.26375
1.27821
1.2925
1.30683
1.32077
1.33459
1.34788
1.36013
1.37065
1.37716
1.14573
1.23881
1.32483
1.40434
1.47848
1.54749
1.61056
1.66919
1.72111
1.7687
1.80993
1.84375
1.87038
1.88089
1.878
1.86276
1.81558
1.70774
1.46447
1.19082
1.07665
1.02015
0.973691
0.931564
0.89252
0.851901
0.811662
0.76874
0.722928
0.673805
0.624213
0.576658
0.531456
0.4956
0.486832
0.5077
0.545813
0.588742
0.627569
0.657323
0.677859
0.689894
0.69816
0.70495
0.713138
0.721813
0.731713
0.74163
0.752305
0.762676
0.773836
0.785053
0.797496
0.809515
0.821724
0.83292
0.845359
0.858391
0.872908
0.886706
0.900763
0.914147
0.927866
0.94148
0.955317
0.969169
0.983016
0.996879
1.0108
1.0248
1.03885
1.05283
1.06686
1.08066
1.09472
1.10863
1.12291
1.13715
1.15158
1.16592
1.18027
1.19452
1.20883
1.22314
1.23742
1.2516
1.26588
1.27989
1.2943
1.30817
1.32245
1.33619
1.35003
1.36369
1.37714
1.39054
1.40351
1.41547
1.42598
1.43213
1.13337
1.21838
1.29904
1.37499
1.4449
1.51178
1.57285
1.63088
1.68449
1.73345
1.7793
1.81872
1.85497
1.88252
1.89845
1.89792
1.88468
1.84319
1.73536
1.50184
1.25232
1.15282
1.1063
1.06891
1.03615
1.00553
0.972693
0.938861
0.899072
0.856977
0.811435
0.760077
0.706025
0.664738
0.658866
0.67955
0.716786
0.762129
0.80164
0.831101
0.85006
0.858291
0.857753
0.85432
0.852598
0.853531
0.856593
0.861181
0.866943
0.873051
0.88008
0.887415
0.896156
0.904975
0.914489
0.922955
0.932339
0.94239
0.954326
0.966397
0.97884
0.990848
1.00286
1.01473
1.0269
1.03935
1.0521
1.06491
1.07772
1.09043
1.10334
1.11632
1.12965
1.14284
1.15625
1.16947
1.18296
1.1965
1.21026
1.22415
1.238
1.25195
1.26573
1.27947
1.29339
1.30707
1.32121
1.33475
1.34876
1.36224
1.37604
1.38967
1.40328
1.41686
1.43019
1.4432
1.45603
1.46766
1.47823
1.48447
1.1225
1.20038
1.27425
1.34608
1.41297
1.47588
1.53642
1.59145
1.64543
1.69412
1.74059
1.78368
1.82188
1.85824
1.88689
1.90769
1.90954
1.89889
1.85907
1.76148
1.54156
1.31139
1.21811
1.1785
1.14613
1.1177
1.09177
1.06206
1.02796
0.988437
0.942291
0.88186
0.815454
0.774574
0.772152
0.794662
0.833445
0.880986
0.925641
0.956072
0.975959
0.987067
0.988284
0.980627
0.971068
0.963602
0.959373
0.958174
0.959317
0.961896
0.965577
0.969822
0.975258
0.981458
0.988457
0.994977
1.00162
1.00922
1.01826
1.02859
1.03922
1.04994
1.06048
1.07113
1.08187
1.09314
1.10459
1.11653
1.12846
1.14048
1.15252
1.16443
1.17671
1.18891
1.20159
1.21427
1.22716
1.24015
1.25316
1.26652
1.27992
1.29349
1.30698
1.32044
1.33392
1.34725
1.36094
1.37434
1.38818
1.40158
1.41518
1.42855
1.4419
1.45533
1.46859
1.48181
1.49455
1.50645
1.51686
1.52324
1.11358
1.18328
1.25227
1.31809
1.38271
1.44246
1.50019
1.55486
1.60572
1.65532
1.70043
1.74429
1.78454
1.82169
1.85693
1.88527
1.90822
1.91187
1.90334
1.86807
1.77981
1.58346
1.367
1.27377
1.23631
1.2086
1.182
1.15614
1.12194
1.08047
1.02232
0.943503
0.868312
0.835906
0.840388
0.865803
0.909886
0.96387
1.01249
1.04652
1.06583
1.07797
1.08352
1.08031
1.06988
1.05707
1.04563
1.03807
1.03402
1.03267
1.03321
1.03509
1.03812
1.04237
1.04754
1.05287
1.05803
1.06368
1.07063
1.07928
1.0889
1.09875
1.10873
1.11863
1.12885
1.13929
1.15024
1.16141
1.1729
1.1843
1.19589
1.2073
1.21909
1.23081
1.24298
1.25518
1.26768
1.28032
1.29315
1.30616
1.31924
1.33243
1.34587
1.35903
1.37262
1.38558
1.39915
1.41209
1.42568
1.43891
1.45243
1.46587
1.47911
1.49243
1.50549
1.51839
1.53135
1.5431
1.55416
1.56074
1.10756
1.16917
1.23181
1.29346
1.35319
1.41156
1.46627
1.51946
1.56987
1.6172
1.66356
1.70583
1.74731
1.78575
1.82119
1.85592
1.88341
1.9081
1.91304
1.90536
1.87715
1.78954
1.62558
1.42459
1.32791
1.28586
1.25469
1.2239
1.1885
1.1383
1.05748
0.957273
0.887139
0.869644
0.881488
0.913264
0.963114
1.02057
1.06943
1.10542
1.12924
1.14253
1.14994
1.15284
1.14853
1.13786
1.12367
1.11019
1.10069
1.09459
1.09189
1.09158
1.09299
1.09597
1.10014
1.10478
1.10919
1.11376
1.11927
1.12633
1.13501
1.14425
1.15382
1.16328
1.17302
1.18286
1.19319
1.20372
1.21466
1.22562
1.23678
1.24781
1.25911
1.27029
1.28198
1.29352
1.30567
1.31773
1.3302
1.34255
1.35519
1.36788
1.38076
1.39371
1.40678
1.4198
1.43285
1.44585
1.4588
1.47185
1.48487
1.49799
1.51119
1.52414
1.5373
1.54981
1.56237
1.57395
1.58432
1.59122
1.10556
1.15963
1.21554
1.27163
1.32715
1.38127
1.43423
1.48455
1.53376
1.58039
1.62497
1.66845
1.7083
1.74827
1.7843
1.8195
1.8522
1.88025
1.90448
1.91064
1.90418
1.87964
1.80373
1.66012
1.47134
1.36806
1.32037
1.27923
1.23101
1.16065
1.04698
0.939432
0.891355
0.889082
0.907637
0.948502
1.00423
1.0594
1.10494
1.14146
1.16839
1.18557
1.19538
1.19918
1.20124
1.19786
1.18895
1.17642
1.16346
1.15362
1.14665
1.14348
1.14308
1.14466
1.14802
1.15234
1.15671
1.16103
1.16592
1.17184
1.17946
1.18798
1.19712
1.20634
1.21587
1.2255
1.23554
1.24561
1.256
1.26638
1.27709
1.28776
1.2988
1.30978
1.32117
1.33256
1.34435
1.35606
1.36797
1.37986
1.3919
1.40395
1.41622
1.4285
1.44115
1.45366
1.46662
1.47924
1.4923
1.5049
1.51791
1.53048
1.54341
1.55601
1.56876
1.58122
1.59343
1.60487
1.61496
1.62148
1.10748
1.15512
1.2052
1.25559
1.30667
1.3567
1.4062
1.45421
1.50084
1.54588
1.58956
1.631
1.67188
1.70963
1.74744
1.78194
1.81582
1.84715
1.87479
1.89852
1.90513
1.8997
1.87778
1.81238
1.68318
1.50156
1.38996
1.32464
1.24984
1.13605
0.994449
0.908325
0.889196
0.898478
0.928876
0.977688
1.03305
1.08231
1.1239
1.15892
1.18705
1.20819
1.22279
1.23162
1.23769
1.2409
1.24095
1.23516
1.22548
1.214
1.20491
1.19829
1.1955
1.1952
1.19712
1.20076
1.20533
1.20982
1.21466
1.21993
1.22646
1.23402
1.24254
1.25131
1.26043
1.26955
1.27901
1.28857
1.29841
1.30833
1.31854
1.32888
1.33956
1.35026
1.36128
1.37227
1.38347
1.39457
1.40593
1.4172
1.42877
1.44021
1.45204
1.46367
1.47578
1.48769
1.50004
1.51229
1.52471
1.53714
1.5495
1.56182
1.57409
1.58611
1.59828
1.60987
1.62163
1.63217
1.64184
1.64781
1.11172
1.15429
1.19815
1.24448
1.29018
1.33735
1.38278
1.42878
1.47273
1.51634
1.55812
1.59905
1.63814
1.67639
1.71268
1.74797
1.78167
1.8133
1.84408
1.87013
1.8926
1.8985
1.89284
1.87155
1.81146
1.691
1.50805
1.37098
1.24664
1.05886
0.924623
0.883506
0.885664
0.905777
0.946753
1.00003
1.04897
1.09157
1.12904
1.16272
1.19225
1.21659
1.23728
1.25365
1.26736
1.27624
1.2823
1.28529
1.28376
1.2776
1.26878
1.26067
1.25438
1.2507
1.24981
1.25093
1.25399
1.2579
1.26219
1.2667
1.27211
1.27857
1.28612
1.29412
1.30252
1.31088
1.31951
1.32831
1.33752
1.34693
1.35667
1.3665
1.37666
1.3869
1.39749
1.40801
1.41875
1.42945
1.44035
1.45121
1.46226
1.47324
1.48453
1.49571
1.50727
1.51873
1.53046
1.54221
1.55405
1.56599
1.57792
1.58978
1.60174
1.61323
1.62506
1.63594
1.6472
1.65684
1.66584
1.6712
1.1196
1.15697
1.19632
1.23706
1.27939
1.3215
1.36465
1.40666
1.44889
1.48999
1.53019
1.56981
1.60759
1.64522
1.68043
1.71591
1.74824
1.78155
1.81057
1.84045
1.86458
1.8835
1.88553
1.87708
1.85074
1.78269
1.65653
1.44981
1.20708
0.971751
0.869719
0.86013
0.872947
0.91099
0.961761
1.00873
1.05057
1.08877
1.12591
1.16144
1.19418
1.22363
1.24974
1.27433
1.2955
1.31212
1.32303
1.33027
1.33462
1.33675
1.33298
1.32581
1.31718
1.30991
1.30487
1.3024
1.30226
1.30425
1.30744
1.31072
1.31468
1.31947
1.3257
1.3327
1.34034
1.3482
1.35634
1.36464
1.37327
1.38212
1.39133
1.40064
1.41028
1.41991
1.42979
1.43961
1.4498
1.46
1.47054
1.48107
1.49192
1.50261
1.51373
1.52456
1.53586
1.54687
1.55823
1.5695
1.58088
1.59234
1.60379
1.61513
1.6266
1.63746
1.64877
1.65887
1.66945
1.6783
1.68664
1.69155
1.13071
1.16386
1.19872
1.23528
1.27334
1.31229
1.35136
1.39108
1.42997
1.46904
1.50728
1.5446
1.58181
1.61706
1.65251
1.68592
1.71867
1.75067
1.77977
1.80962
1.83348
1.85549
1.86049
1.85474
1.83749
1.78758
1.69341
1.49133
1.22193
0.952106
0.852277
0.853346
0.876196
0.918863
0.970789
1.01764
1.06026
1.10149
1.14105
1.17858
1.21198
1.24256
1.27163
1.29882
1.32295
1.34276
1.35873
1.36995
1.37779
1.38204
1.38443
1.38229
1.37599
1.36702
1.3592
1.35251
1.34891
1.34741
1.34849
1.35071
1.35332
1.35656
1.36107
1.36706
1.37398
1.38144
1.38923
1.39724
1.40545
1.41381
1.42247
1.43126
1.44051
1.44968
1.45921
1.46861
1.47845
1.48822
1.49848
1.50861
1.51924
1.52954
1.54042
1.55084
1.56186
1.57249
1.58349
1.59437
1.60536
1.61639
1.62753
1.63837
1.64961
1.65985
1.67076
1.67995
1.68988
1.69785
1.70499
1.70923
1.14362
1.17273
1.20447
1.23742
1.27179
1.30712
1.34333
1.37956
1.41656
1.45232
1.48923
1.52405
1.5597
1.59367
1.62721
1.66027
1.69113
1.72284
1.75043
1.77886
1.80099
1.81673
1.81733
1.8088
1.78619
1.73397
1.62935
1.47916
1.31112
1.11361
0.97696
0.948257
0.956236
0.979421
1.01798
1.06164
1.10194
1.13821
1.17244
1.20488
1.23551
1.26441
1.29234
1.31815
1.34204
1.36275
1.38144
1.39639
1.40784
1.41492
1.41991
1.42183
1.42198
1.41767
1.4097
1.40088
1.3932
1.38862
1.38637
1.3867
1.3886
1.39109
1.39429
1.39882
1.4048
1.4116
1.41875
1.42613
1.43374
1.44161
1.44997
1.45859
1.46766
1.47662
1.48602
1.49523
1.50492
1.51439
1.52438
1.53408
1.5444
1.55428
1.56486
1.57497
1.58571
1.59614
1.60688
1.6175
1.62816
1.63869
1.64935
1.65948
1.6701
1.67942
1.6895
1.6977
1.70674
1.71339
1.71852
1.72204
1.16028
1.18569
1.2136
1.24346
1.27473
1.30664
1.33982
1.37285
1.40731
1.44046
1.47497
1.50785
1.5415
1.57365
1.60603
1.63666
1.66755
1.69551
1.72329
1.74557
1.76244
1.7648
1.7572
1.73797
1.69553
1.60216
1.50335
1.4275
1.36669
1.27508
1.15194
1.05876
1.02477
1.02528
1.03923
1.06874
1.10657
1.14253
1.17706
1.2098
1.24055
1.26954
1.29747
1.32376
1.348
1.37071
1.39139
1.41012
1.4255
1.43763
1.44603
1.45195
1.45532
1.45666
1.45458
1.44887
1.44033
1.43316
1.4271
1.42419
1.42339
1.42497
1.42724
1.43027
1.43446
1.44035
1.44715
1.45442
1.46189
1.4695
1.4776
1.48582
1.4945
1.50307
1.51211
1.52096
1.53032
1.53947
1.54919
1.55857
1.56861
1.57816
1.58839
1.59815
1.60847
1.61853
1.62888
1.63914
1.64945
1.65952
1.66978
1.67913
1.68914
1.69728
1.70663
1.71357
1.7211
1.72555
1.72791
1.73131
1.17929
1.20159
1.22584
1.25245
1.28033
1.31001
1.33988
1.3705
1.40165
1.43311
1.46438
1.49606
1.52665
1.55792
1.58741
1.61727
1.64453
1.67106
1.69251
1.7071
1.70849
1.70006
1.6795
1.63456
1.54632
1.46146
1.41738
1.40133
1.38803
1.36024
1.30475
1.22033
1.13161
1.08209
1.07257
1.08235
1.10252
1.13336
1.16919
1.20474
1.23759
1.26833
1.29707
1.32408
1.34903
1.37334
1.39573
1.41708
1.43563
1.45204
1.46503
1.47502
1.4823
1.48738
1.48898
1.48903
1.48561
1.4788
1.4716
1.46475
1.46142
1.45999
1.46108
1.46315
1.4658
1.46957
1.47522
1.48202
1.48948
1.49702
1.50503
1.513
1.52145
1.52972
1.53845
1.54695
1.55601
1.5648
1.57423
1.58327
1.59303
1.60223
1.61218
1.62154
1.6315
1.64107
1.65096
1.66063
1.67048
1.67982
1.68953
1.69787
1.70689
1.71411
1.72197
1.72762
1.7322
1.73384
1.73414
1.738
1.20189
1.22216
1.24263
1.26542
1.28937
1.31537
1.34288
1.3705
1.39923
1.42782
1.45733
1.48621
1.51564
1.54395
1.57215
1.59852
1.62293
1.64308
1.65327
1.65238
1.64228
1.61633
1.5676
1.48293
1.40857
1.37944
1.37841
1.38847
1.39574
1.39513
1.38115
1.34269
1.27447
1.18719
1.12944
1.11228
1.11826
1.13159
1.15799
1.19289
1.22833
1.26189
1.29292
1.32157
1.34858
1.37422
1.3984
1.42133
1.44243
1.46164
1.47872
1.49289
1.50415
1.51262
1.51909
1.52247
1.52349
1.52187
1.51698
1.51034
1.50374
1.49955
1.49697
1.49743
1.49936
1.50165
1.50525
1.51053
1.51768
1.52517
1.53307
1.54069
1.54877
1.55661
1.56498
1.57313
1.5819
1.59035
1.59948
1.60815
1.61755
1.62642
1.63596
1.64501
1.65451
1.66363
1.67302
1.68197
1.69121
1.69959
1.70826
1.7156
1.72322
1.72963
1.73504
1.73842
1.73946
1.73942
1.73695
1.74084
1.22277
1.24233
1.26172
1.28197
1.30326
1.32474
1.3485
1.37345
1.39928
1.42549
1.45218
1.47898
1.50567
1.5317
1.55657
1.57849
1.59571
1.60212
1.59696
1.58396
1.55194
1.49524
1.41475
1.35502
1.33809
1.34574
1.35965
1.381
1.40332
1.41088
1.40932
1.39815
1.36951
1.31283
1.23651
1.17786
1.1544
1.15553
1.16602
1.18744
1.21893
1.25306
1.28658
1.31805
1.34753
1.37487
1.40066
1.4248
1.44795
1.46909
1.48898
1.50641
1.52169
1.53395
1.54385
1.55181
1.55657
1.55782
1.55817
1.55536
1.54971
1.54349
1.53761
1.53514
1.53432
1.53601
1.538
1.54099
1.54611
1.55292
1.56058
1.56808
1.57596
1.58354
1.59167
1.59951
1.60803
1.61611
1.62491
1.63311
1.64211
1.65042
1.65958
1.66793
1.67715
1.68548
1.69453
1.70264
1.711
1.71839
1.72551
1.732
1.73785
1.74229
1.74455
1.74511
1.7443
1.74243
1.73558
1.73757
1.23735
1.25695
1.27599
1.29556
1.31561
1.33677
1.35781
1.37985
1.40251
1.4262
1.45023
1.47412
1.49744
1.51933
1.53806
1.55049
1.55233
1.54382
1.52538
1.48609
1.42017
1.34459
1.3022
1.29564
1.30699
1.32665
1.35349
1.3814
1.40377
1.41862
1.42251
1.42189
1.41326
1.39111
1.34701
1.28681
1.22984
1.20042
1.19614
1.20479
1.22078
1.24698
1.27886
1.31241
1.34431
1.37383
1.40169
1.42782
1.45253
1.4755
1.49713
1.51709
1.53517
1.55104
1.56433
1.57516
1.58435
1.59008
1.59302
1.59379
1.5925
1.58813
1.58219
1.57614
1.57305
1.57098
1.57202
1.57375
1.57647
1.58086
1.58764
1.5949
1.60277
1.61015
1.61805
1.62555
1.63368
1.64137
1.64975
1.65745
1.6661
1.67374
1.68261
1.69022
1.69895
1.70661
1.7147
1.72207
1.72897
1.73518
1.74102
1.7459
1.74927
1.75047
1.75038
1.74955
1.74575
1.74025
1.73015
1.72842
1.25117
1.26966
1.28732
1.30562
1.32454
1.3446
1.36536
1.38643
1.40805
1.42935
1.45054
1.47085
1.48925
1.50402
1.51006
1.50626
1.49386
1.46648
1.41817
1.34583
1.28207
1.254
1.25582
1.26967
1.29358
1.32562
1.35384
1.379
1.3993
1.41622
1.42775
1.433
1.4341
1.42971
1.41493
1.38375
1.33705
1.28443
1.25112
1.24075
1.24617
1.25714
1.27799
1.30747
1.33894
1.37044
1.40073
1.4293
1.45561
1.48031
1.50339
1.5254
1.54513
1.56385
1.57999
1.59432
1.60601
1.61608
1.62343
1.62743
1.62844
1.6283
1.62564
1.62056
1.61477
1.61035
1.60783
1.60825
1.60972
1.6119
1.61575
1.62151
1.62906
1.63651
1.64428
1.6515
1.65927
1.6664
1.67445
1.68156
1.68983
1.6969
1.70504
1.71214
1.71984
1.72677
1.73351
1.73951
1.74492
1.74988
1.75385
1.75593
1.75635
1.75554
1.75371
1.74834
1.74176
1.73269
1.72367
1.72241
1.26649
1.28453
1.30086
1.31718
1.33438
1.35248
1.37189
1.39133
1.41148
1.43081
1.44884
1.46423
1.47363
1.47406
1.46427
1.44625
1.40956
1.34838
1.27603
1.22782
1.21276
1.22021
1.23771
1.26571
1.29764
1.32696
1.35199
1.37328
1.39301
1.41009
1.4263
1.43864
1.44716
1.44983
1.44952
1.44161
1.42109
1.38502
1.34136
1.30527
1.28845
1.2884
1.29686
1.3126
1.33677
1.36591
1.39719
1.42743
1.45577
1.48263
1.50772
1.53105
1.55307
1.57336
1.59235
1.60917
1.62417
1.63678
1.64777
1.65653
1.66152
1.6638
1.6643
1.66311
1.65899
1.6537
1.64839
1.646
1.64461
1.64597
1.6477
1.65069
1.65611
1.66301
1.67072
1.67778
1.68532
1.69205
1.69946
1.70609
1.71345
1.72011
1.72718
1.73367
1.74002
1.74569
1.75068
1.7551
1.75902
1.76169
1.76255
1.76212
1.761
1.75669
1.7509
1.74192
1.73427
1.72795
1.72164
1.72208
1.27912
1.29705
1.31576
1.33243
1.34808
1.36337
1.37993
1.39711
1.41354
1.4293
1.44097
1.44505
1.43962
1.42586
1.39804
1.34894
1.27903
1.21495
1.18285
1.17874
1.18876
1.21133
1.24294
1.27421
1.30206
1.3261
1.34737
1.36689
1.38573
1.40386
1.42199
1.4385
1.45334
1.46424
1.46995
1.47137
1.46841
1.45639
1.43137
1.39689
1.35999
1.33866
1.33275
1.33842
1.34875
1.36753
1.39479
1.42341
1.45349
1.48226
1.50961
1.53488
1.55878
1.58112
1.60221
1.62131
1.63913
1.65457
1.66845
1.68023
1.69016
1.69655
1.69993
1.70067
1.70045
1.69756
1.693
1.68753
1.68386
1.68169
1.68254
1.68387
1.68624
1.69054
1.69719
1.70399
1.71119
1.71772
1.72455
1.73081
1.73731
1.74326
1.74912
1.75449
1.75909
1.76303
1.76637
1.76897
1.77006
1.7698
1.76865
1.76529
1.76022
1.75161
1.74386
1.73666
1.7309
1.72887
1.72591
1.72804
1.2953
1.30826
1.32709
1.34506
1.36216
1.3771
1.39144
1.40384
1.41498
1.42016
1.4177
1.40607
1.38607
1.34689
1.28379
1.21072
1.16061
1.14331
1.14773
1.161
1.18704
1.22076
1.25176
1.27844
1.30139
1.32181
1.34092
1.35973
1.37858
1.39777
1.41694
1.43596
1.45392
1.47032
1.48353
1.49231
1.49538
1.49604
1.49101
1.47589
1.44915
1.41801
1.39267
1.3805
1.38173
1.38909
1.4032
1.42499
1.45174
1.48083
1.50961
1.53705
1.56292
1.58738
1.61014
1.63159
1.65125
1.66974
1.68579
1.70053
1.71285
1.72389
1.73134
1.73562
1.73694
1.73719
1.73576
1.7316
1.72601
1.72104
1.71882
1.71821
1.71917
1.72096
1.7244
1.72985
1.73649
1.74291
1.7491
1.75481
1.76035
1.76539
1.76998
1.7736
1.7762
1.77849
1.77952
1.77921
1.77788
1.77514
1.77
1.76202
1.75377
1.74614
1.7394
1.73641
1.73429
1.73527
1.73607
1.73887
1.31888
1.32309
1.33648
1.35432
1.37095
1.38575
1.39739
1.40498
1.40454
1.39461
1.37817
1.34629
1.29142
1.21648
1.14988
1.11447