/*--------------------------------*- C++ -*----------------------------------*\
  =========                 |
  \\      /  F ield         | OpenFOAM: The Open Source CFD Toolbox
   \\    /   O peration     | Website:  https://openfoam.org
    \\  /    A nd           | Version:  6
     \\/     M anipulation  |
\*---------------------------------------------------------------------------*/
FoamFile
{
    version     2.0;
    format      ascii;
    class       volScalarField;
    location    "4";
    object      p;
}
// * * * * * * * * * * * * * * * * * * * * * * * * * * * * * * * * * * * * * //

dimensions      [1 -1 -2 0 0 0 0];

internalField   nonuniform List<scalar> 
5250
(
1.00005
1.00026
1.00068
1.00179
1.00387
1.00993
1.02051
1.05554
1.10946
1.32472
1.6978
3.03802
6.59707
14.7325
13.7001
12.0603
11.4661
11.533
11.7694
12.0497
12.2005
12.2898
12.3636
12.4233
12.4615
1.00005
1.00026
1.00068
1.00178
1.00386
1.00989
1.02043
1.05531
1.10903
1.32335
1.69487
3.02917
6.572
14.6781
13.6491
12.0215
11.4468
11.5208
11.7646
12.0399
12.187
12.2772
12.3533
12.414
12.4541
1.00005
1.00026
1.00067
1.00177
1.00382
1.0098
1.02025
1.05482
1.10811
1.32032
1.68833
3.00894
6.51337
14.5543
13.5461
11.9427
11.399
11.4815
11.7337
11.9981
12.1379
12.2283
12.3072
12.369
12.4116
1.00005
1.00026
1.00066
1.00174
1.00377
1.00966
1.01997
1.05403
1.10666
1.31545
1.67778
2.97602
6.41799
14.3604
13.4009
11.8361
11.325
11.4132
11.6683
11.9166
12.0472
12.1357
12.2144
12.2755
12.3187
1.00005
1.00025
1.00065
1.00171
1.0037
1.00947
1.01958
1.05293
1.10467
1.30864
1.66308
2.93012
6.28417
14.0955
13.2129
11.704
11.2295
11.3203
11.5717
11.8023
11.9217
12.0058
12.0822
12.1403
12.1831
1.00004
1.00025
1.00063
1.00167
1.0036
1.00923
1.01909
1.05154
1.102
1.30042
1.64253
2.87805
6.10492
13.7562
12.9803
11.5502
11.1138
11.2026
11.441
11.6507
11.7566
11.8325
11.9023
11.9554
11.9987
1.00004
1.00024
1.00061
1.00161
1.00349
1.00894
1.01848
1.04987
1.09845
1.29128
1.61437
2.82561
5.874
13.3361
12.6899
11.3982
10.9829
11.0616
11.2741
11.4576
11.5446
11.6053
11.6613
11.703
11.7447
1.00004
1.00023
1.00059
1.00155
1.00335
1.00858
1.01776
1.04787
1.09425
1.28018
1.58168
2.76073
5.60591
12.8315
12.3373
11.2507
10.8372
10.8972
11.0694
11.2213
11.2816
11.3133
11.3368
11.3468
11.3738
1.00004
1.00022
1.00056
1.00148
1.00319
1.00817
1.01691
1.04553
1.08945
1.2668
1.54663
2.67784
5.31241
12.2395
11.926
11.1068
10.6795
10.7116
10.8275
10.9381
10.9586
10.9451
10.903
10.8295
10.7912
1.00004
1.0002
1.00053
1.00139
1.003
1.00768
1.01591
1.04281
1.08415
1.25064
1.51063
2.57257
4.99751
11.5585
11.4694
10.9714
10.5151
10.5055
10.5575
10.6101
10.5844
10.4946
10.3132
10.0445
9.70668
1.00003
1.00019
1.00049
1.00129
1.00278
1.00712
1.01475
1.03963
1.07788
1.23194
1.46841
2.45114
4.63526
10.751
11.1124
10.7978
10.3466
10.2654
10.2765
10.2587
10.1681
9.94853
9.54699
8.83481
7.18473
1.00003
1.00017
1.00044
1.00117
1.00253
1.00646
1.01339
1.03591
1.07056
1.21001
1.41865
2.31092
4.2151
9.78888
10.8592
10.6349
10.1915
10.0356
9.99347
9.90474
9.71319
9.34735
8.76598
7.85511
6.21687
1.00003
1.00015
1.00039
1.00103
1.00223
1.00569
1.01182
1.03154
1.06199
1.18518
1.35473
2.16488
3.724
8.65472
10.6905
10.5069
10.0731
9.81335
9.69976
9.54619
9.27004
8.83275
8.19508
7.31889
6.12034
1.00002
1.00013
1.00034
1.00089
1.00192
1.00488
1.01013
1.02687
1.05306
1.157
1.29623
1.97856
3.23214
7.34158
10.6438
10.453
9.95861
9.58512
9.40243
9.20528
8.89354
8.44201
7.836
7.07008
6.1413
1.00002
1.00011
1.00028
1.00074
1.00161
1.00407
1.00848
1.02216
1.04472
1.12619
1.24656
1.76516
2.73195
5.82618
10.5527
10.3669
9.85235
9.37015
9.12343
8.90092
8.58568
8.15292
7.60311
6.94452
6.18932
1.00002
1.00009
1.00023
1.00061
1.00133
1.00336
1.00702
1.01824
1.03698
1.10247
1.20395
1.60978
2.37947
4.88626
10.0968
10.0842
9.72896
9.16919
8.86607
8.62972
8.32795
7.92502
7.43214
6.86236
6.23002
1.00001
1.00007
1.00019
1.0005
1.00109
1.00275
1.00574
1.01494
1.03015
1.08475
1.1613
1.50808
2.10476
4.24807
9.00905
9.64028
9.44783
9.00471
8.65004
8.39422
8.10773
7.7367
7.2935
6.7937
6.24889
1.00001
1.00006
1.00016
1.00041
1.00088
1.00222
1.00463
1.01203
1.02425
1.06835
1.1266
1.41352
1.84162
3.5947
7.44099
9.28841
9.18976
8.88604
8.49185
8.20566
7.92199
7.58129
7.1816
6.73559
6.25652
1.00001
1.00005
1.00012
1.00032
1.00069
1.00174
1.00363
1.00937
1.01897
1.05262
1.09832
1.3131
1.6277
2.91299
5.72554
9.06463
9.04995
8.84138
8.41496
8.06759
7.77166
7.45149
7.08799
6.68762
6.26061
1.00001
1.00004
1.00009
1.00024
1.00053
1.00132
1.00277
1.00708
1.01441
1.03875
1.07599
1.22268
1.44503
2.35133
4.1504
8.49568
8.92761
8.76156
8.37734
7.96558
7.64777
7.34182
7.00857
6.64669
6.263
1
1.00003
1.00007
1.00018
1.0004
1.00099
1.00208
1.00529
1.01078
1.02886
1.05566
1.16906
1.3082
2.04017
3.31072
7.12553
8.663
8.58158
8.31586
7.87819
7.5389
7.243
6.93726
6.60928
6.26337
1
1.00002
1.00005
1.00013
1.00029
1.00073
1.00153
1.00389
1.00795
1.02107
1.04148
1.12056
1.22485
1.72748
2.58493
5.26441
8.30076
8.36929
8.21762
7.86274
7.47229
7.16474
6.87756
6.57764
6.26358
1
1.00001
1.00004
1.0001
1.00021
1.00052
1.0011
1.00278
1.0057
1.01495
1.0298
1.08258
1.1646
1.47833
2.04756
3.84103
7.44701
8.19067
8.09552
7.83281
7.44975
7.12221
6.83788
6.55858
6.26711
1
1.00001
1.00003
1.00007
1.00015
1.00037
1.00077
1.00193
1.00394
1.01029
1.02028
1.05761
1.10396
1.34203
1.65935
3.02783
5.77387
7.88143
7.89408
7.77139
7.47105
7.12424
6.82563
6.55047
6.27455
1
1.00001
1.00002
1.00005
1.0001
1.00025
1.00052
1.0013
1.00267
1.00688
1.01374
1.03729
1.07221
1.21109
1.42119
2.23705
3.74718
7.2672
7.79969
7.72032
7.50635
7.14745
6.83159
6.55298
6.28656
1
1
1.00001
1.00003
1.00007
1.00015
1.00038
1.00078
1.00197
1.00398
1.01045
1.01988
1.0597
1.10081
1.35465
1.66172
3.03503
5.70984
7.5212
7.59686
7.48884
7.2177
6.85495
6.56261
6.30102
1
1
1.00001
1.00002
1.00005
1.0001
1.00025
1.00051
1.00128
1.0026
1.00676
1.01335
1.03655
1.07041
1.20488
1.4153
2.182
3.64389
6.90339
7.48344
7.42992
7.25209
6.90313
6.58715
6.32104
1
1
1.00001
1.00001
1.00003
1.00006
1.00015
1.00032
1.0008
1.00162
1.00418
1.00803
1.02314
1.03894
1.1398
1.2178
1.83294
2.66679
5.37665
7.1568
7.29219
7.20663
6.98043
6.63651
6.34605
1
1
1
1.00001
1.00002
1.00004
1.0001
1.00021
1.00051
1.00105
1.0027
1.00537
1.01445
1.02773
1.08039
1.15342
1.4612
1.96629
3.50893
6.34992
7.10141
7.08296
6.96195
6.70152
6.38709
1
1
1
1
1.00001
1.00003
1.00005
1.00013
1.00027
1.00068
1.00135
1.00355
1.00655
1.02007
1.03155
1.12321
1.18283
1.73256
2.40346
4.73786
6.64767
6.93731
6.88575
6.72417
6.42887
1
1
1
1
1.00001
1.00001
1.00004
1.00007
1.00018
1.00037
1.00093
1.00185
1.00492
1.00913
1.02776
1.04554
1.16767
1.27084
1.95223
2.94071
5.63369
6.68757
6.75654
6.69284
6.5222
1
1
1
1
1
1.00001
1.00002
1.00004
1.00011
1.00023
1.00057
1.00113
1.00295
1.00571
1.01583
1.02864
1.0903
1.15203
1.51477
2.00057
3.50727
6.06027
6.61849
6.61047
6.52896
1
1
1
1
1
1.00001
1.00001
1.00003
1.00007
1.00013
1.00033
1.00067
1.00173
1.00339
1.00913
1.01709
1.0502
1.08965
1.28423
1.5509
2.56784
4.53396
6.1706
6.49817
6.4816
1
1
1
1
1
1
1.00001
1.00002
1.00004
1.00007
1.00019
1.00037
1.00095
1.00186
1.00496
1.00919
1.02693
1.04581
1.15566
1.25428
1.86979
2.7316
5.12371
6.19694
6.38029
1
1
1
1
1
1
1
1.00001
1.00002
1.00004
1.0001
1.0002
1.00051
1.001
1.00263
1.00496
1.01405
1.02473
1.07867
1.13318
1.44049
1.83222
3.13293
5.36828
6.13991
1
1
1
1
1
1
1
1
1.00001
1.00002
1.00004
1.00011
1.00021
1.00052
1.00095
1.00275
1.00412
1.01596
1.02007
1.09997
1.12869
1.58387
1.98087
3.65862
5.50283
1
1
1
1
1
1
1
1
1
1.00001
1.00002
1.00004
1.00009
1.00016
1.00045
1.00063
1.00236
1.00263
1.01572
1.01599
1.11686
1.13365
1.69789
2.16268
4.02761
1
1
1
1
1
1
1
1
1
1
1.00001
1.00002
1.00006
1.00012
1.00032
1.0006
1.00169
1.00308
1.00943
1.01601
1.05467
1.08803
1.31127
1.54743
2.5345
1
1
1
1
1
1
1
1
1
1
1.00001
1.00001
1.00003
1.00007
1.00013
1.00036
1.00066
1.00189
1.00328
1.0105
1.01668
1.06044
1.09366
1.33613
1.59163
1
1
1
1
1
1
1
1
1
1
1
1.00001
1.00002
1.00003
1.00007
1.00014
1.00038
1.00069
1.00205
1.00336
1.01143
1.01683
1.06616
1.09637
1.3632
1
1
1
1
1
1
1
1
1
1
1
1
1.00001
1.00001
1.00002
1.00006
1.00008
1.00033
1.00044
1.00176
1.0023
1.01222
1.01267
1.07339
1.08932
1
1
1
1
1
1
1
1
1
1
1
1
1
1
1.00001
1.00002
1.00006
1.00008
1.00038
1.00056
1.00229
1.00347
1.01314
1.01578
1.09343
1
1
1
1
1
1
1
1
1
1
1
1
1
1
1
1.00001
1.00002
1.00007
1.00007
1.00058
1.00078
1.00393
1.00867
1.01863
1.01925
1
1
1
1
1
1
1
1
1
1
1
1
1
1
1
1.00001
1.00002
1.00004
1.00015
1.00021
1.00154
1.00194
1.01111
1.02766
1.04512
1
1
1
1
1
1
1
1
1
1
1
1
1
1
1
1
1.00002
1.00002
1.00013
1.00016
1.00125
1.00164
1.00736
1.01264
1.04995
1
1
1
1
1
1
1
1
1
1
1
1
1
1
1
1
1.00002
1.00002
1.00016
1.00018
1.00109
1.00132
1.00704
1.01162
1.04716
1
1
1
1
1
1
1
1
1
1
1
1
1
1
1
1
1.00001
1.00002
1.00015
1.0002
1.00099
1.00178
1.00555
1.00489
1.04455
1
1
1
1
1
1
1
1
1
1
1
1
1
1
1
1
1.00002
1.00003
1.0002
1.00027
1.00139
1.00326
1.00654
1.02103
1.0308
1
1
1
1
1
1
1
1
1
1
1
1
1
1
1
1.00001
1.00001
1.00004
1.00006
1.00027
1.00028
1.00226
1.00292
1.01315
1.02258
1
1
1
1
1
1
1
1
1
1
1
1
1
1
1
1
1.00002
1.00002
1.00021
1.00029
1.00145
1.00336
1.00673
1.02112
1.03011
3.5623
1.9402
1.2448
0.913355
0.74558
0.685618
0.692354
0.721155
0.796068
0.958177
1.13045
1.23783
1.28553
1.32184
1.39862
1.56942
1.95036
2.7547
3.2876
3.3657
3.37613
3.37457
3.35836
3.31986
3.27556
3.23481
3.19998
3.16993
3.14249
3.11444
3.0926
3.08314
3.08081
3.0889
3.11999
3.18097
3.27482
3.39825
3.54033
3.68546
3.82395
3.951
4.06465
4.16807
4.26018
4.33829
4.40213
4.45382
4.49767
4.53964
4.56832
4.5862
4.59449
4.59613
4.5932
4.58439
4.56638
4.54324
4.51566
4.48455
4.44915
4.41047
4.36835
4.32357
4.27616
4.22663
4.175
4.12179
4.06714
4.01156
3.9553
3.89877
3.84209
3.78548
3.72887
3.67228
3.61561
3.55882
3.50185
3.44475
3.38755
3.33033
3.27318
3.21618
3.15941
3.1029
3.04677
2.991
2.93573
2.88092
2.8268
2.77328
2.72066
2.66889
2.61844
2.56946
2.5228
2.47945
2.44188
2.41618
3.99702
2.52407
1.74796
1.35389
1.17462
1.12314
1.12429
1.12418
1.11874
1.10335
1.10878
1.12718
1.16737
1.23889
1.33582
1.503
1.85518
2.59522
3.26541
3.38653
3.38002
3.36775
3.35145
3.31994
3.28583
3.24992
3.21308
3.17905
3.14535
3.11126
3.08289
3.06946
3.06627
3.07712
3.10987
3.16964
3.25953
3.37884
3.51982
3.66334
3.80054
3.92632
4.03893
4.14413
4.23979
4.31992
4.3859
4.44037
4.48597
4.52632
4.55584
4.57461
4.58387
4.58539
4.58324
4.57565
4.55872
4.53417
4.5067
4.47621
4.44176
4.40376
4.36236
4.31811
4.27126
4.22219
4.1711
4.11835
4.06419
4.009
3.95305
3.89672
3.84014
3.78352
3.72686
3.67019
3.61342
3.55654
3.49954
3.4424
3.38523
3.32803
3.27096
3.21401
3.15736
3.10093
3.04493
2.98923
2.93411
2.87936
2.82538
2.77191
2.71943
2.66774
2.61735
2.56832
2.52158
2.47798
2.43996
2.41348
4.72448
3.57995
2.76748
2.22507
1.84723
1.57628
1.38066
1.24185
1.14714
1.07769
1.05633
1.06079
1.07933
1.11701
1.19487
1.32985
1.59293
2.14215
3.0596
3.33838
3.3613
3.35143
3.33078
3.30344
3.27064
3.23564
3.20187
3.17045
3.13899
3.10887
3.08589
3.07239
3.06642
3.07223
3.09673
3.15049
3.23614
3.35282
3.4935
3.63794
3.77739
3.90597
4.0206
4.12454
4.21779
4.29758
4.36479
4.42092
4.46822
4.50802
4.53845
4.55842
4.56877
4.57032
4.56868
4.5625
4.54781
4.52236
4.4945
4.46456
4.43122
4.3943
4.3539
4.31053
4.2645
4.21622
4.16593
4.11396
4.06055
4.00601
3.95059
3.89458
3.83821
3.78159
3.72487
3.668
3.61109
3.55402
3.49691
3.43966
3.38248
3.32526
3.26827
3.21138
3.15485
3.09852
3.04268
2.9871
2.93216
2.87762
2.82384
2.77056
2.71817
2.66657
2.61618
2.56713
2.52021
2.47631
2.43758
2.41004
5.12787
4.1905
3.41389
2.80532
2.33568
1.97814
1.71084
1.51327
1.3693
1.2745
1.21403
1.17526
1.17058
1.17642
1.19293
1.26597
1.38324
1.73348
2.43616
3.13233
3.3209
3.34318
3.33362
3.30875
3.27462
3.23798
3.20291
3.17026
3.13951
3.11228
3.09336
3.08276
3.08108
3.0899
3.11807
3.17386
3.25108
3.353
3.47887
3.60651
3.73806
3.86453
3.98018
4.08503
4.17889
4.26063
4.3305
4.3895
4.43892
4.47978
4.51115
4.53261
4.54417
4.54655
4.54532
4.54064
4.52911
4.50559
4.4773
4.44745
4.41505
4.37948
4.34042
4.29828
4.2534
4.20619
4.15698
4.10602
4.05358
3.99984
3.94511
3.88954
3.83344
3.77689
3.72011
3.6631
3.60601
3.54878
3.49153
3.43423
3.37702
3.31989
3.26297
3.20626
3.14988
3.09382
3.03825
2.98305
2.92839
2.87412
2.82051
2.76745
2.71517
2.66375
2.6134
2.5644
2.51734
2.47317
2.43375
2.40492
5.3799
4.5892
3.88239
3.28515
2.79638
2.40544
2.09618
1.85431
1.66436
1.51648
1.40205
1.31435
1.25372
1.21417
1.21601
1.23618
1.28252
1.44556
1.77061
2.55574
3.14027
3.30745
3.32807
3.31927
3.2943
3.25384
3.21736
3.18436
3.1573
3.13988
3.13169
3.13453
3.1493
3.18565
3.23619
3.28141
3.3314
3.39656
3.47816
3.56959
3.67465
3.79252
3.91228
4.02682
4.12832
4.21527
4.28857
4.35027
4.40145
4.44367
4.47612
4.49923
4.51256
4.51657
4.51574
4.51238
4.50375
4.48533
4.45767
4.42767
4.3958
4.36142
4.32386
4.28324
4.2398
4.19398
4.14607
4.09636
4.04504
3.99231
3.93836
3.88337
3.8276
3.7712
3.71442
3.65732
3.60008
3.54272
3.48535
3.42802
3.37082
3.3138
3.25703
3.20062
3.14463
3.08898
3.03375
2.97883
2.92443
2.87039
2.817
2.76416
2.71209
2.66086
2.61063
2.5617
2.51455
2.4701
2.43008
2.40002
5.55359
4.87812
4.24793
3.6892
3.20869
2.80589
2.47139
2.1965
1.97122
1.78687
1.63722
1.51591
1.41925
1.34738
1.29334
1.29187
1.30563
1.35254
1.50755
1.83662
2.59721
3.13066
3.29202
3.31546
3.30909
3.2898
3.25215
3.21996
3.20053
3.20168
3.21005
3.23561
3.29475
3.38522
3.44475
3.47077
3.48714
3.50183
3.51818
3.55417
3.61333
3.68907
3.80328
3.93266
4.05188
4.15276
4.2348
4.30164
4.35575
4.39966
4.43365
4.4585
4.47428
4.48078
4.48041
4.47833
4.47247
4.45935
4.43478
4.40544
4.37385
4.34023
4.30398
4.26486
4.22299
4.17868
4.13221
4.08383
4.03372
3.98201
3.92889
3.87452
3.81916
3.76296
3.70622
3.64906
3.59169
3.53421
3.47675
3.41941
3.36226
3.30548
3.24911
3.19309
3.13745
3.08208
3.02714
2.97248
2.91837
2.86464
2.81155
2.75904
2.70725
2.65628
2.60627
2.55748
2.51035
2.46574
2.42529
2.39431
5.67175
5.08996
4.53116
4.01801
3.55977
3.15951
2.81577
2.52208
2.27415
2.06454
1.88857
1.7411
1.6178
1.51605
1.43392
1.37139
1.35468
1.36519
1.41951
1.53965
1.89092
2.58742
3.10466
3.27281
3.30435
3.30145
3.29093
3.26984
3.26769
3.27663
3.30783
3.38319
3.53881
3.68852
3.74587
3.74327
3.72649
3.68147
3.60501
3.57944
3.59062
3.62435
3.69265
3.80555
3.93748
4.05923
4.15998
4.23936
4.30078
4.3482
4.38465
4.41154
4.42956
4.43934
4.44021
4.4391
4.43536
4.42651
4.40812
4.38071
4.34968
4.31656
4.28131
4.24362
4.20338
4.16073
4.11585
4.06895
4.02015
3.96958
3.91739
3.86373
3.80888
3.753
3.69642
3.63929
3.5819
3.52439
3.46693
3.40974
3.35295
3.29659
3.24058
3.18488
3.12954
3.07447
3.01987
2.96556
2.91183
2.8585
2.80579
2.75366
2.70222
2.65158
2.60184
2.55327
2.50625
2.46162
2.42091
2.38927
5.75546
5.24774
4.75192
4.28345
3.85385
3.46648
3.12379
2.82331
2.56192
2.33608
2.14112
1.97376
1.83002
1.70716
1.60301
1.51674
1.44824
1.4216
1.43041
1.48016
1.58817
1.91618
2.55187
3.06961
3.25313
3.29636
3.31272
3.31779
3.33126
3.36658
3.44945
3.62704
3.91074
4.09032
4.11158
4.09098
4.02621
3.88578
3.72917
3.62926
3.60229
3.61158
3.64245
3.70515
3.8037
3.92959
4.04955
4.14977
4.22737
4.28532
4.32785
4.35848
4.37948
4.39228
4.39652
4.39596
4.39375
4.3881
4.37591
4.35252
4.32331
4.29094
4.25649
4.21998
4.18125
4.14021
4.09694
4.05152
4.00407
3.95466
3.90345
3.85056
3.79628
3.74078
3.68444
3.62742
3.57008
3.51262
3.45539
3.39858
3.34216
3.28608
3.23034
3.17489
3.11986
3.06511
3.0109
2.957
2.90369
2.8508
2.79851
2.74681
2.69579
2.64555
2.5962
2.54795
2.50121
2.45675
2.41603
2.38415
5.81797
5.36867
4.92536
4.49904
4.09881
3.73024
3.39546
3.09544
2.8286
2.59263
2.38535
2.20326
2.04405
1.90509
1.78377
1.67929
1.59015
1.51917
1.48184
1.48876
1.53823
1.63269
1.93142
2.50835
3.03373
3.23829
3.30724
3.35441
3.39848
3.48763
3.67024
4.03637
4.407
4.54418
4.53102
4.47158
4.32653
4.0849
3.87786
3.73362
3.65316
3.6326
3.63961
3.66523
3.71853
3.7972
3.91111
4.0253
4.12379
4.20084
4.25741
4.2972
4.32379
4.34058
4.34889
4.34913
4.34809
4.34466
4.33665
4.31996
4.29383
4.26293
4.22937
4.19389
4.15646
4.11692
4.07519
4.03126
3.98519
3.937
3.88685
3.83483
3.78125
3.72626
3.67028
3.6135
3.55642
3.49934
3.44262
3.3862
3.3301
3.2743
3.21885
3.16373
3.10905
3.05474
3.00094
2.94755
2.8947
2.84233
2.79055
2.73935
2.68886
2.63909
2.59026
2.54248
2.49621
2.45221
2.41174
2.38014
5.86572
5.46304
5.06323
4.6742
4.30313
3.95503
3.63317
3.3386
3.07192
2.83161
2.61652
2.42476
2.25386
2.10255
1.96807
1.84956
1.74537
1.65549
1.58253
1.53965
1.54538
1.58871
1.67279
1.93919
2.45291
3.00357
3.24636
3.3603
3.48174
3.66766
4.04646
4.62184
4.9766
5.00899
4.96706
4.83854
4.56913
4.28027
4.04792
3.87751
3.76178
3.69369
3.668
3.67139
3.68849
3.72639
3.78801
3.8829
3.98896
4.0853
4.1624
4.21898
4.25732
4.28177
4.29531
4.29929
4.2987
4.29656
4.29137
4.28037
4.25913
4.2313
4.19947
4.16523
4.12905
4.09084
4.05052
4.00801
3.96332
3.91642
3.86742
3.81639
3.76362
3.70927
3.65378
3.59747
3.54097
3.48453
3.42831
3.37226
3.3165
3.26101
3.2059
3.15114
3.09687
3.04299
2.98968
2.93678
2.88447
2.83264
2.78144
2.73082
2.68094
2.63177
2.58359
2.5365
2.49091
2.44774
2.4079
2.3773
5.90506
5.53926
5.17507
4.81791
4.47346
4.14582
3.83833
3.55265
3.28966
3.04921
2.83064
2.63271
2.45426
2.29347
2.14928
2.01981
1.90429
1.80163
1.71205
1.63824
1.59282
1.59749
1.63622
1.71031
1.95194
2.41429
3.00823
3.32272
3.5829
3.95376
4.68216
5.3337
5.5157
5.48376
5.36831
5.10985
4.76664
4.47016
4.23418
4.05039
3.90958
3.8066
3.73837
3.70017
3.69812
3.70562
3.72746
3.77337
3.8496
3.94588
4.03732
4.11336
4.17032
4.20902
4.2325
4.24365
4.24479
4.24371
4.24044
4.23317
4.21828
4.19481
4.16578
4.13332
4.09849
4.06155
4.02254
3.98139
3.93806
3.8925
3.84475
3.79484
3.74303
3.68948
3.63473
3.57928
3.52365
3.4679
3.41222
3.35662
3.30127
3.24615
3.19146
3.13711
3.08332
3.02994
2.97716
2.92485
2.87313
2.82196
2.77142
2.7215
2.67236
2.62399
2.57668
2.53054
2.48605
2.44421
2.40557
2.37695
5.9352
5.60244
5.26823
4.93885
4.61775
4.30955
4.01627
3.74077
3.48348
3.24545
3.0261
2.82522
2.64168
2.47473
2.32299
2.18559
2.06123
1.94929
1.84896
1.76135
1.68795
1.64467
1.64976
1.68779
1.76107
1.98998
2.42918
3.14015
3.6131
4.50665
5.55583
5.99172
5.97711
5.88271
5.64848
5.2745
4.93767
4.65882
4.42903
4.23809
4.07921
3.94942
3.8478
3.77351
3.72703
3.70799
3.71105
3.72334
3.75329
3.81321
3.89452
3.97883
4.05343
4.11148
4.1514
4.17469
4.1851
4.18489
4.1833
4.17913
4.17007
4.15202
4.12692
4.09703
4.06398
4.02853
3.99095
3.95123
3.90935
3.8652
3.81881
3.77016
3.71944
3.66693
3.61332
3.55902
3.50433
3.44933
3.39427
3.33921
3.28436
3.22972
3.17551
3.12167
3.06841
3.0156
2.96342
2.91177
2.86073
2.81031
2.76054
2.71146
2.66324
2.61585
2.56973
2.52494
2.48204
2.44232
2.40563
2.37927
5.96632
5.65751
5.34812
5.04177
4.74162
4.45048
4.1714
3.90606
3.65601
3.42198
3.20408
3.00247
2.8163
2.64544
2.48848
2.34536
2.21424
2.09553
1.98737
1.89057
1.80682
1.73544
1.70871
1.71732
1.76852
1.86038
2.1335
2.65697
3.55948
5.30284
6.39681
6.47392
6.39485
6.17838
5.78137
5.41408
5.1066
4.84704
4.62391
4.42918
4.25799
4.10924
3.9829
3.87946
3.79914
3.74336
3.70974
3.70855
3.71218
3.72848
3.76659
3.83396
3.90993
3.98265
4.04173
4.08361
4.10899
4.12
4.11976
4.11792
4.11311
4.10262
4.08237
4.05579
4.02505
3.99141
3.9555
3.91743
3.87716
3.83457
3.78965
3.74235
3.69291
3.64181
3.58963
3.53655
3.48289
3.42875
3.37444
3.32001
3.26577
3.21168
3.15806
3.10478
3.05214
2.99997
2.94848
2.89759
2.84735
2.79779
2.74897
2.70092
2.65389
2.60783
2.56333
2.52049
2.47998
2.44326
2.40812
2.38615
5.99364
5.70755
5.41963
5.13185
4.84842
4.57238
4.30592
4.0509
3.80842
3.57952
3.36476
3.16393
2.97746
2.80431
2.64457
2.4973
2.36175
2.23795
2.12448
2.02207
1.93223
1.85459
1.80953
1.81431
1.84909
1.91505
2.13768
2.55274
3.51532
5.46743
6.7943
6.78893
6.67477
6.39385
5.96006
5.58975
5.28748
5.03372
4.81412
4.61844
4.44046
4.2792
4.1353
4.00974
3.9031
3.81709
3.75209
3.71066
3.69427
3.69319
3.69896
3.72007
3.76649
3.83396
3.90201
3.96221
4.00772
4.03639
4.04943
4.04956
4.0479
4.04281
4.03145
4.00952
3.98168
3.95012
3.91601
3.87975
3.84131
3.80049
3.7572
3.71139
3.66357
3.61415
3.56351
3.51176
3.45926
3.4061
3.35267
3.299
3.24549
3.19205
3.13911
3.0865
3.03458
2.98316
2.93249
2.88246
2.83317
2.78463
2.73699
2.69021
2.64474
2.60049
2.55826
2.51833
2.48097
2.44712
2.41524
2.40088
6.02058
5.75053
5.4789
5.2085
4.94062
4.67816
4.42349
4.17809
3.94374
3.72047
3.51007
3.31145
3.12603
2.95253
2.79139
2.64197
2.50364
2.37673
2.26043
2.15572
2.06603
1.99206
1.9676
1.97658
2.02632
2.11337
2.36504
2.84303
3.60151
4.75392
6.23638
6.69686
6.65956
6.50946
6.19107
5.83642
5.51405
5.24489
5.01697
4.81412
4.62763
4.45542
4.29807
4.15528
4.02878
3.9189
3.82796
3.7562
3.70515
3.6788
3.66439
3.66531
3.67449
3.69989
3.7523
3.81535
3.87661
3.92492
3.95673
3.97282
3.97524
3.9737
3.96859
3.95696
3.93387
3.90514
3.87293
3.83842
3.80185
3.76294
3.72143
3.67747
3.63161
3.58399
3.53499
3.48466
3.43345
3.3814
3.32898
3.2762
3.22353
3.17088
3.11873
3.06691
3.01581
2.96528
2.91554
2.86654
2.81839
2.77112
2.72497
2.6799
2.63655
2.59486
2.55599
2.51962
2.48534
2.4563
2.43106
2.42688
6.04644
5.79076
5.53263
5.27484
5.0208
4.771
4.52717
4.29089
4.06447
3.84758
3.64211
3.44709
3.26378
3.09139
2.93036
2.78023
2.64122
2.51337
2.39776
2.29728
2.21596
2.17853
2.18611
2.22338
2.31333
2.53037
2.95356
3.39519
3.76312
4.2187
4.97094
5.89029
6.36422
6.38643
6.31887
6.13197
5.81086
5.5169
5.25996
5.02976
4.8219
4.63372
4.46259
4.30633
4.16438
4.03737
3.92603
3.83113
3.75331
3.69442
3.65558
3.63438
3.62178
3.62489
3.63887
3.67134
3.72833
3.78504
3.83496
3.8712
3.89182
3.89685
3.89552
3.89067
3.87932
3.85634
3.82718
3.7943
3.75913
3.72178
3.68219
3.64047
3.59679
3.55117
3.50396
3.45522
3.40542
3.35463
3.30335
3.25159
3.19991
3.14819
3.09698
3.04609
2.99598
2.94649
2.89788
2.85012
2.8034
2.75773
2.71354
2.67081
2.63041
2.59257
2.55753
2.52477
2.49606
2.47467
2.46281
2.46417
6.07202
5.82577
5.57856
5.33292
5.08942
4.85119
4.61924
4.39292
4.17423
3.96416
3.76374
3.57321
3.39272
3.22274
3.06301
2.91431
2.77689
2.65258
2.54511
2.45983
2.42499
2.43462
2.47587
2.58497
2.82562
3.2656
3.60859
3.7941
3.88311
4.05087
4.31486
4.78155
5.49024
6.05735
6.2412
6.20819
6.0884
5.83516
5.55709
5.28247
5.03652
4.822
4.63198
4.46056
4.30486
4.16427
4.03749
3.92494
3.82635
3.7433
3.67674
3.62869
3.59867
3.57479
3.57269
3.57871
3.59733
3.63691
3.69078
3.74263
3.78209
3.80596
3.81455
3.81364
3.80953
3.79925
3.77794
3.74845
3.71437
3.6779
3.63989
3.60029
3.5589
3.51546
3.47023
3.42326
3.37504
3.32565
3.27568
3.22513
3.17461
3.124
3.0739
3.02414
2.97521
2.92698
2.87976
2.83355
2.78866
2.74515
2.70365
2.66424
2.62829
2.59455
2.56357
2.53711
2.51793
2.5084
2.50942
2.51451
6.09269
5.8536
5.61862
5.38524
5.15219
4.9232
4.70091
4.48527
4.27594
4.07312
3.87854
3.69252
3.51592
3.34904
3.19274
3.0482
2.91758
2.80681
2.72106
2.70101
2.716
2.76882
2.91202
3.20897
3.65739
3.94385
4.04047
4.0352
4.01471
4.02466
4.08336
4.24062
4.57909
5.20057
5.8233
6.11754
6.10514
6.02858
5.84829
5.57653
5.29337
5.04327
4.82281
4.62786
4.45425
4.29873
4.15786
4.03046
3.91573
3.81391
3.72586
3.65275
3.59599
3.55784
3.52727
3.51096
3.51353
3.5247
3.55083
3.59901
3.64665
3.68764
3.71588
3.72925
3.72887
3.7258
3.71719
3.69859
3.6683
3.63286
3.59577
3.55754
3.51803
3.47671
3.4336
3.38859
3.34216
3.2944
3.24595
3.19681
3.14766
3.09839
3.04963
3.00123
2.95375
2.90707
2.86163
2.81743
2.77501
2.73454
2.6968
2.66253
2.63084
2.60188
2.57779
2.56223
2.55707
2.55892
2.56582
2.58391
6.11948
5.88141
5.65475
5.43222
5.21374
4.99729
4.78205
4.57247
4.37073
4.17584
3.9878
3.80736
3.63583
3.47425
3.32528
3.19092
3.08212
2.99958
3.00137
3.0274
3.10176
3.29023
3.67012
4.09744
4.33479
4.33661
4.30671
4.2242
4.08205
4.01501
4.02851
4.08283
4.21205
4.49243
5.01162
5.60859
5.95025
5.98218
5.94043
5.81642
5.56516
5.30089
5.04785
4.8206
4.62147
4.4454
4.28789
4.1453
4.01594
3.89856
3.79343
3.70079
3.62205
3.55786
3.5123
3.47442
3.44814
3.44828
3.45337
3.46892
3.50203
3.54773
3.59119
3.62288
3.64036
3.64182
3.63979
3.63292
3.61726
3.58656
3.55132
3.51366
3.47504
3.43524
3.39406
3.35109
3.30667
3.2608
3.21416
3.16671
3.11922
3.07153
3.02441
2.97766
2.93201
2.88729
2.84418
2.80276
2.76377
2.72768
2.69575
2.66589
2.63978
2.61886
2.60627
2.60651
2.60943
2.61864
2.63965
2.68443
6.1541
5.91386
5.694
5.48204
5.27318
5.06624
4.86282
4.66278
4.46686
4.27638
4.09358
3.92001
3.75634
3.60532
3.47283
3.36639
3.3093
3.31726
3.35839
3.473
3.71997
4.20221
4.57864
4.71518
4.69988
4.63129
4.48188
4.30914
4.16348
4.06192
4.04233
4.05665
4.10745
4.2199
4.45183
4.85049
5.37168
5.73454
5.84451
5.82109
5.73314
5.5406
5.30546
5.05036
4.82176
4.61706
4.4354
4.27334
4.12731
3.99457
3.8742
3.76551
3.66888
3.58518
3.51541
3.46258
3.41803
3.38693
3.37531
3.37764
3.3871
3.40917
3.45084
3.49193
3.52568
3.54718
3.55322
3.55184
3.54634
3.53285
3.50526
3.46985
3.43155
3.3922
3.35218
3.31097
3.26864
3.22493
3.18042
3.135
3.08951
3.04374
2.99863
2.95395
2.91061
2.86853
2.82859
2.79117
2.75713
2.72784
2.70029
2.67675
2.66032
2.65273
2.65412
2.65982
2.67388
2.70344
2.7388
2.80795
6.22613
5.9666
5.74307
5.53721
5.337
5.13853
4.94221
4.74869
4.55958
4.3769
4.20207
4.03785
3.88753
3.76111
3.66224
3.64223
3.6613
3.72874
3.90142
4.26007
4.74541
5.06808
5.10826
5.07402
4.96956
4.76096
4.56888
4.40913
4.28329
4.18701
4.12141
4.10332
4.11158
4.14683
4.23104
4.40268
4.69167
5.12453
5.49381
5.68516
5.67721
5.62705
5.50195
5.28308
5.05103
4.81933
4.60972
4.42245
4.25492
4.10394
3.96693
3.84306
3.73088
3.63071
3.54282
3.46832
3.40888
3.35974
3.32207
3.30027
3.30083
3.30587
3.32014
3.35039
3.38994
3.42637
3.45187
3.46247
3.46175
3.4576
3.44649
3.42288
3.38805
3.34902
3.30927
3.26912
3.2286
3.18712
3.14502
3.102
3.05888
3.01551
2.97286
2.9309
2.89059
2.85219
2.81684
2.78547
2.75855
2.73399
2.71405
2.70096
2.70077
2.70347
2.71245
2.73253
2.77013
2.81682
2.85418
2.91634
6.33871
6.06603
5.82322
5.60701
5.40495
5.21026
5.02069
4.83418
4.65336
4.47996
4.31748
4.17259
4.05554
3.98205
3.98804
4.02657
4.13902
4.3856
4.87786
5.32288
5.53825
5.52638
5.45644
5.2921
5.06503
4.85758
4.68822
4.55278
4.44146
4.34586
4.26342
4.19885
4.15617
4.15831
4.17668
4.22787
4.33949
4.55642
4.88737
5.24449
5.47818
5.5263
5.50262
5.42206
5.24852
5.03879
4.81095
4.59988
4.40563
4.23136
4.07526
3.93404
3.80632
3.69091
3.58739
3.49587
3.41702
3.35228
3.29852
3.25454
3.22622
3.22012
3.2225
3.23144
3.25204
3.28924
3.32556
3.35307
3.36935
3.36918
3.36652
3.35818
3.33953
3.30504
3.26661
3.22701
3.18764
3.1481
3.10843
3.06814
3.02782
2.98748
2.94799
2.90966
2.87363
2.84058
2.81249
2.7884
2.76661
2.75165
2.74456
2.74622
2.75273
2.76821
2.79978
2.84211
2.88663
2.93046
2.95669
2.99396
6.38312
6.17326
5.9143
5.68487
5.47969
5.28685
5.09865
4.91942
4.74852
4.59023
4.4574
4.35375
4.33046
4.35032
4.42356
4.60896
4.99526
5.52089
5.89649
5.991
5.95871
5.84708
5.6149
5.37187
5.16057
4.98846
4.84763
4.72784
4.62027
4.51923
4.42313
4.33409
4.25688
4.19867
4.17541
4.18213
4.20982
4.28179
4.42748
4.66578
4.98546
5.23648
5.35957
5.35085
5.30587
5.19516
4.99726
4.79495
4.57961
4.38276
4.2037
4.04227
3.8967
3.7652
3.64645
3.53958
3.44469
3.36197
3.29261
3.23451
3.18549
3.15194
3.13716
3.13808
3.14351
3.15773
3.18726
3.22206
3.25263
3.27239
3.27619
3.27453
3.26827
3.25317
3.22237
3.18537
3.14709
3.10905
3.07153
3.03415
2.99716
2.96064
2.92543
2.89213
2.8625
2.83817
2.8168
2.80033
2.78808
2.7891
2.79355
2.80507
2.82919
2.87052
2.91539
2.96027
2.99578
3.02026
3.02873
3.0417
6.34763
6.2382
6.00756
5.76519
5.55132
5.35848
5.18115
5.01502
4.86564
4.74673
4.67613
4.68394
4.72977
4.86065
5.14687
5.69596
6.19905
6.46685
6.45879
6.39351
6.22796
5.94902
5.69117
5.47646
5.3036
5.16052
5.03507
4.91872
4.80639
4.69593
4.58722
4.48183
4.38272
4.29391
4.22352
4.17377
4.17435
4.18331
4.2193
4.30544
4.47669
4.72218
4.97585
5.14696
5.1774
5.15762
5.09101
4.94421
4.7542
4.55312
4.35502
4.17159
4.00497
3.85508
3.7197
3.5975
3.48751
3.38951
3.30339
3.23002
3.16822
3.11519
3.07656
3.05449
3.05296
3.05568
3.06486
3.08566
3.1196
3.15166
3.17373
3.18255
3.18174
3.1774
3.16582
3.14137
3.10765
3.07142
3.03581
3.00136
2.96835
2.93661
2.90752
2.88156
2.86261
2.84495
2.83229
2.829
2.83156
2.84054
2.86068
2.89938
2.94369
2.99111
3.03145
3.05978
3.07523
3.07544
3.0736
3.06959
6.25808
6.21561
6.09559
5.85917
5.63608
5.44398
5.27709
5.13993
5.0368
5.02396
5.04838
5.1391
5.36022
5.82157
6.42706
6.86832
6.99971
6.96524
6.843
6.58235
6.28886
6.02545
5.80943
5.6346
5.48782
5.35666
5.23243
5.11056
4.98913
4.86818
4.74853
4.6314
4.51869
4.4122
4.31566
4.23235
4.17108
4.14291
4.14322
4.15574
4.20156
4.30489
4.48579
4.7126
4.8973
4.99564
4.98904
4.95434
4.86761
4.69254
4.51224
4.31621
4.13169
3.96273
3.8094
3.67052
3.545
3.43194
3.33101
3.24195
3.16505
3.10021
3.04376
3.00035
2.97447
2.96572
2.96718
2.97344
2.98859
3.01928
3.05072
3.07447
3.0903
3.09027
3.08827
3.08126
3.06514
3.03504
3.00331
2.97234
2.94399
2.91838
2.89845
2.88391
2.87199
2.86569
2.8677
2.87513
2.89225
2.92692
2.97096
3.01978
3.06445
3.09945
3.12001
3.12221
3.12008
3.11312
3.09812
3.0849
6.06627
6.13812
6.08882
5.96282
5.74462
5.55154
5.41235
5.34775
5.36066
5.42345
5.59437
5.96046
6.61167
7.21019
7.53839
7.53232
7.46126
7.27541
6.94331
6.63453
6.37301
6.1608
5.98563
5.83421
5.69553
5.56236
5.4304
5.29835
5.1663
5.03512
4.90595
4.77947
4.65671
4.53862
4.42665
4.3231
4.23183
4.15652
4.11333
4.08615
4.08794
4.1051
4.15845
4.27182
4.45261
4.63717
4.77105
4.80429
4.79058
4.74016
4.62608
4.45064
4.27134
4.08722
3.9162
3.75977
3.61794
3.48948
3.37374
3.27015
3.17841
3.09837
3.03099
2.97151
2.92482
2.89455
2.87968
2.88028
2.88451
2.89606
2.92071
2.95173
2.98002
2.99792
3.00709
3.00658
3.00337
2.99411
2.97441
2.95039
2.92824
2.91232
2.90308
2.8972
2.89883
2.90548
2.92093
2.95248
2.99643
3.04563
3.09471
3.1358
3.16101
3.17099
3.16943
3.16336
3.14918
3.12742
3.10556
3.09724
5.55405
5.9817
6.03477
5.99603
5.89341
5.72776
5.68744
5.71943
5.83708
6.12362
6.70833
7.46524
8.00724
8.16625
8.12332
7.97284
7.65497
7.31082
6.99736
6.73685
6.52657
6.35138
6.19597
6.04973
5.90655
5.76385
5.62094
5.47822
5.33652
5.19663
5.05935
4.92513
4.79431
4.66751
4.54507
4.42843
4.31904
4.21958
4.13476
4.07064
4.03276
4.0064
4.01045
4.03304
4.09216