/*--------------------------------*- C++ -*----------------------------------*\
  =========                 |
  \\      /  F ield         | OpenFOAM: The Open Source CFD Toolbox
   \\    /   O peration     | Website:  https://openfoam.org
    \\  /    A nd           | Version:  6
     \\/     M anipulation  |
\*---------------------------------------------------------------------------*/
FoamFile
{
    version     2.0;
    format      ascii;
    class       surfaceScalarField;
    location    "4";
    object      phi;
}
// * * * * * * * * * * * * * * * * * * * * * * * * * * * * * * * * * * * * * //

dimensions      [1 0 -1 0 0 0 0];

internalField   nonuniform List<scalar> 
10325
(
0.00840002
3.6679e-10
0.00840002
2.29123e-09
0.00840001
6.96048e-09
0.00839999
1.84566e-08
0.00839995
4.17208e-08
0.00839984
9.8109e-08
0.00839965
2.07186e-07
0.00839907
5.00359e-07
0.00839805
1.02875e-06
0.00839512
2.86165e-06
0.00838827
6.84988e-06
0.00836514
2.27044e-05
0.00827406
8.94538e-05
0.00779614
0.000473969
0.00715233
0.000642644
0.00646665
0.000685393
0.00579396
0.000672899
0.0051203
0.000673947
0.00446148
0.00065906
0.00377744
0.000684303
0.00305521
0.000722518
0.00230788
0.000747605
0.00154885
0.00075906
0.000776704
0.000772233
0.000776711
0.00840002
7.66275e-10
0.00840002
4.79221e-09
0.00840001
1.45044e-08
0.00839999
3.85736e-08
0.00839994
8.70303e-08
0.00839982
2.05994e-07
0.00839961
4.3402e-07
0.00839898
1.06285e-06
0.00839784
2.1629e-06
0.00839448
6.16541e-06
0.00838648
1.48391e-05
0.00835869
5.00759e-05
0.00824775
0.00019877
0.00771383
0.00100394
0.00709869
0.00125661
0.00647276
0.00131105
0.00583628
0.00130958
0.00518096
0.00132955
0.00450327
0.00133701
0.00379714
0.00139063
0.00306612
0.00145388
0.00231254
0.00150141
0.00154904
0.00152264
0.000780332
0.00154106
0.00155699
0.00840002
1.19768e-09
0.00840002
7.48874e-09
0.00840001
2.26415e-08
0.00839999
6.02919e-08
0.00839994
1.36059e-07
0.00839981
3.23057e-07
0.00839958
6.81061e-07
0.00839889
1.67766e-06
0.00839764
3.40847e-06
0.00839395
9.79579e-06
0.0083851
2.36752e-05
0.00835431
8.04378e-05
0.00823578
0.000315696
0.00769397
0.00154181
0.0070721
0.00187728
0.0064657
0.00191715
0.00585442
0.00192106
0.00522067
0.00196354
0.00454449
0.00201346
0.0038324
0.00210291
0.00309348
0.00219312
0.00233338
0.00226178
0.00155307
0.00230297
0.000770036
0.0023242
0.00232694
0.00840002
1.6463e-09
0.00840002
1.02935e-08
0.00840001
3.11053e-08
0.00839999
8.28792e-08
0.00839993
1.87022e-07
0.0083998
4.44733e-07
0.00839956
9.37459e-07
0.00839885
2.32009e-06
0.00839758
4.67657e-06
0.00839369
1.36216e-05
0.00838467
3.26814e-05
0.00835244
0.000112209
0.00823524
0.000431304
0.00769301
0.00208009
0.00706955
0.00249955
0.00647797
0.00250846
0.00589023
0.00250904
0.00527585
0.00257823
0.00461527
0.00267426
0.00390763
0.00281075
0.00316153
0.00293947
0.00239138
0.00303226
0.00159885
0.00309555
0.000789599
0.00313352
0.00311627
0.00840002
2.0987e-09
0.00840002
1.31326e-08
0.00840001
3.96762e-08
0.00839998
1.05801e-07
0.00839993
2.38569e-07
0.0083998
5.68417e-07
0.00839955
1.19719e-06
0.00839885
2.94868e-06
0.00839741
6.11504e-06
0.00839408
1.68932e-05
0.00838325
4.34949e-05
0.00836041
0.000134553
0.00824386
0.000546339
0.00771604
0.00260378
0.00708901
0.00312486
0.00650783
0.00308954
0.00594371
0.00307355
0.00535458
0.00316783
0.00470867
0.00332043
0.00401438
0.00350525
0.00328012
0.00367395
0.00249732
0.00381529
0.00167912
0.0039138
0.000842141
0.00397056
0.0039586
0.00840002
2.56762e-09
0.00840002
1.60817e-08
0.00840001
4.85786e-08
0.00839998
1.2965e-07
0.00839993
2.92146e-07
0.00839979
6.9739e-07
0.00839953
1.46841e-06
0.00839884
3.57409e-06
0.00839715
7.80204e-06
0.00839435
1.96199e-05
0.00838151
5.62981e-05
0.00836744
0.000148248
0.00825225
0.00065981
0.00774418
0.00310801
0.00709726
0.00376979
0.00656928
0.00361708
0.00603645
0.00360672
0.00547567
0.00372916
0.00484971
0.0039466
0.00416568
0.00418947
0.00343829
0.00440155
0.00266168
0.00459211
0.00181937
0.0047563
0.000920938
0.00486886
0.0048794
0.00840002
3.0787e-09
0.00840002
1.92779e-08
0.00840001
5.82357e-08
0.00839998
1.55377e-07
0.00839992
3.50169e-07
0.00839977
8.3519e-07
0.0083995
1.75834e-06
0.00839873
4.27917e-06
0.00839727
9.26376e-06
0.00839324
2.35625e-05
0.008384
6.56191e-05
0.00835338
0.000178275
0.00826927
0.000742899
0.00780113
0.00357201
0.00717955
0.00438903
0.00665986
0.00413647
0.00615342
0.00411339
0.00562199
0.00426098
0.00503393
0.00453494
0.0043845
0.00483922
0.00367092
0.00511551
0.0028849
0.00537834
0.00201959
0.00562177
0.00105436
0.00583413
0.00593383
0.00840002
3.63414e-09
0.00840002
2.27376e-08
0.00840001
6.87347e-08
0.00839998
1.83134e-07
0.00839992
4.13162e-07
0.00839976
9.8155e-07
0.00839946
2.06961e-06
0.00839866
5.01331e-06
0.00839727
1.06796e-05
0.00839288
2.78524e-05
0.0083862
7.24999e-05
0.00834937
0.000214273
0.00828629
0.000805526
0.00787692
0.00397714
0.00730511
0.00495862
0.00679351
0.00464767
0.00631052
0.00459645
0.0058126
0.004759
0.0052603
0.00508739
0.00465447
0.00544535
0.00398188
0.00578858
0.00323217
0.00612846
0.00234831
0.00650583
0.0012807
0.00690185
0.00721455
0.00840002
4.25253e-09
0.00840002
2.65849e-08
0.00840001
8.04319e-08
0.00839997
2.1396e-07
0.00839991
4.8316e-07
0.00839973
1.14301e-06
0.00839941
2.41227e-06
0.00839853
5.8275e-06
0.00839721
1.20895e-05
0.00839214
3.28008e-05
0.00838697
7.81916e-05
0.00834468
0.000255197
0.00828829
0.000862592
0.0079164
0.00434467
0.00739247
0.00548007
0.00694496
0.00509465
0.00650615
0.00503542
0.006052
0.00521331
0.00556508
0.00557443
0.00501885
0.00599189
0.004427
0.00638093
0.00374651
0.00680944
0.00289472
0.00735789
0.00175998
0.00803674
0.00897455
0.00840002
4.97099e-09
0.00840002
3.10746e-08
0.0084
9.39896e-08
0.00839997
2.50094e-07
0.00839989
5.64843e-07
0.00839968
1.33668e-06
0.00839929
2.82173e-06
0.00839826
6.7984e-06
0.00839628
1.41748e-05
0.00839111
3.78359e-05
0.00837918
9.07434e-05
0.00834364
0.000289129
0.00825204
0.000955232
0.00781231
0.00477998
0.00760208
0.00568786
0.00711333
0.00558297
0.00672075
0.00542798
0.00629665
0.00563749
0.00591666
0.00595443
0.00551246
0.00639616
0.00504539
0.00684847
0.00447745
0.00737787
0.00378423
0.00805144
0.00281893
0.00900203
0.0117934
0.00840002
5.77208e-09
0.00840002
3.60791e-08
0.0084
1.09053e-07
0.00839996
2.90443e-07
0.00839987
6.56266e-07
0.00839964
1.55599e-06
0.00839919
3.2874e-06
0.00839799
7.93871e-06
0.00839579
1.65048e-05
0.00838944
4.40206e-05
0.00837576
0.000105186
0.00833297
0.000329965
0.00824423
0.00104506
0.00780616
0.00521317
0.00757168
0.00591943
0.00724686
0.00590804
0.00693685
0.00573836
0.00666099
0.00591364
0.00637256
0.006243
0.00609783
0.00667094
0.00577458
0.00717178
0.00544212
0.00771066
0.00526108
0.00823309
0.00562536
0.00863834
0.00816656
0.0092523
0.00840002
6.56217e-09
0.00840002
4.10276e-08
0.0084
1.23708e-07
0.00839996
3.30444e-07
0.00839987
7.46342e-07
0.00839964
1.78137e-06
0.00839918
3.76113e-06
0.0083979
9.16308e-06
0.00839551
1.90586e-05
0.00838996
4.9354e-05
0.00836905
0.000127099
0.00834825
0.00034815
0.00826915
0.0011256
0.00797007
0.00550693
0.00762912
0.00625852
0.00738734
0.00614965
0.00719778
0.00592863
0.00700517
0.00610693
0.00679259
0.00645607
0.0066073
0.00685645
0.00649187
0.00728712
0.00652355
0.00767883
0.00677182
0.00798493
0.00742672
0.00798353
0.0072654
0.0083281
0.00840002
7.02464e-09
0.00840002
4.3857e-08
0.00840001
1.32225e-07
0.00839999
3.52918e-07
0.00839994
7.98862e-07
0.00839981
1.90085e-06
0.00839954
4.03066e-06
0.0083989
9.75707e-06
0.00839791
1.99843e-05
0.00839307
5.39833e-05
0.00839731
0.000122613
0.00834479
0.000400436
0.0083707
0.00109809
0.00832416
0.00554836
0.00797729
0.00660543
0.00775515
0.0063721
0.00753128
0.00615304
0.00737124
0.00626762
0.00724726
0.00658043
0.007176
0.00692793
0.00722216
0.00724122
0.0074336
0.00746759
0.00781781
0.00760103
0.00836112
0.00744095
0.00680858
0.0088183
0.00840003
6.95409e-09
0.00840003
4.33789e-08
0.00840003
1.306e-07
0.00840003
3.48745e-07
0.00840004
7.87237e-07
0.00840005
1.88009e-06
0.00840015
3.93837e-06
0.00840014
9.70456e-06
0.00840105
1.90171e-05
0.00839906
5.57173e-05
0.0084118
0.000109655
0.00840127
0.000410792
0.00845507
0.00104329
0.00906106
0.00493609
0.00866285
0.0070056
0.00822956
0.00680672
0.00794379
0.00643948
0.00779967
0.00641218
0.00774082
0.00663973
0.00775868
0.00691038
0.0078611
0.00713884
0.00809565
0.00723307
0.00846175
0.00723486
0.00890222
0.00700024
0.00646948
0.00924162
0.00840003
6.19884e-09
0.00840003
3.87097e-08
0.00840004
1.17034e-07
0.00840008
3.11334e-07
0.00840016
7.04389e-07
0.00840037
1.66233e-06
0.00840079
3.5144e-06
0.0084021
8.33027e-06
0.00840389
1.7216e-05
0.00841436
4.49182e-05
0.0084309
9.28375e-05
0.00853592
0.000305093
0.00881983
0.000758545
0.0106401
0.00310708
0.00981075
0.00783766
0.00893763
0.00768183
0.00852923
0.00684902
0.00830632
0.00663551
0.00823605
0.00671035
0.00828468
0.00686207
0.00842116
0.00700279
0.00864359
0.00701087
0.0089453
0.00693325
0.00928228
0.00666367
0.0061923
0.00955905
0.00840003
5.38677e-09
0.00840003
3.36604e-08
0.00840005
1.01947e-07
0.00840009
2.70705e-07
0.00840018
6.13105e-07
0.0084004
1.43752e-06
0.00840085
3.05695e-06
0.00840204
7.09611e-06
0.00840429
1.49611e-05
0.0084136
3.54183e-05
0.00842238
8.38565e-05
0.00851201
0.00021501
0.00868065
0.000590159
0.00967444
0.00210969
0.00987713
0.00763383
0.00983557
0.00772377
0.00911085
0.00757446
0.00881158
0.006935
0.00870261
0.00681955
0.00872473
0.00684015
0.00885367
0.00687387
0.00906075
0.00680412
0.00932878
0.00666546
0.00959659
0.00639556
0.0059681
0.00982204
0.00840003
4.7361e-09
0.00840003
2.95903e-08
0.00840004
8.96119e-08
0.00840008
2.37953e-07
0.00840015
5.38391e-07
0.00840032
1.26356e-06
0.0084007
2.67533e-06
0.00840152
6.24421e-06
0.0084035
1.29869e-05
0.00840694
3.18074e-05
0.00842099
6.94998e-05
0.00844765
0.000188269
0.00851476
0.000522168
0.00883408
0.00178997
0.00968265
0.00678029
0.00963809
0.007767
0.00949251
0.00771913
0.00921704
0.00721028
0.00910429
0.00693225
0.00911069
0.00683417
0.0092084
0.00677607
0.00936335
0.0066493
0.00958354
0.0064453
0.00981226
0.00616702
0.00577935
0.0100002
0.00840003
4.23511e-09
0.00840003
2.64327e-08
0.00840004
7.98896e-08
0.00840007
2.12386e-07
0.00840013
4.80459e-07
0.00840026
1.13124e-06
0.00840054
2.39138e-06
0.00840115
5.61872e-06
0.00840257
1.15682e-05
0.00840487
2.93124e-05
0.00841553
5.88999e-05
0.0084253
0.000178328
0.00851685
0.000430899
0.00875078
0.00155381
0.00966874
0.00585808
0.00970072
0.00773458
0.00962737
0.0077917
0.00946802
0.00736894
0.00941189
0.00698844
0.00943543
0.0068105
0.00952572
0.00668666
0.00964827
0.00652751
0.0097995
0.00629409
0.00997578
0.00599095
0.00562756
0.010127
0.00840003
3.65539e-09
0.00840003
2.28073e-08
0.00840004
6.89002e-08
0.00840007
1.83211e-07
0.00840014
4.14614e-07
0.00840029
9.76183e-07
0.00840062
2.06481e-06
0.00840139
4.84151e-06
0.008403
9.95845e-06
0.00840677
2.53918e-05
0.00841774
4.80329e-05
0.00844441
0.000151458
0.00852617
0.000349552
0.00883852
0.00123834
0.0107426
0.00394967
0.01029
0.00818835
0.0101499
0.00793224
0.00989145
0.00762692
0.009759
0.00712095
0.00974793
0.006821
0.00980484
0.00662959
0.00990413
0.00642853
0.0100138
0.00618481
0.0101318
0.00587321
0.0055164
0.0102431
0.00840003
2.95218e-09
0.00840003
1.84352e-08
0.00840005
5.585e-08
0.00840008
1.48161e-07
0.00840016
3.35449e-07
0.00840035
7.84791e-07
0.00840075
1.66343e-06
0.00840173
3.84259e-06
0.00840373
7.97584e-06
0.00841012
1.89567e-05
0.00841747
4.0367e-05
0.00847044
9.85868e-05
0.00856606
0.000252787
0.00908477
0.000720812
0.0108648
0.00216655
0.0111872
0.00786439
0.0108932
0.00822629
0.0105139
0.00800615
0.0102392
0.00739547
0.0101242
0.00693692
0.0101172
0.00663633
0.010164
0.00638255
0.0102352
0.00611307
0.010307
0.00580219
0.0054493
0.0103743
0.00840003
2.34495e-09
0.00840003
1.46377e-08
0.00840005
4.4385e-08
0.00840008
1.17553e-07
0.00840014
2.66145e-07
0.00840031
6.20139e-07
0.00840066
1.31377e-06
0.00840148
3.01194e-06
0.00840322
6.23525e-06
0.00840727
1.48628e-05
0.00841808
2.9429e-05
0.00843443
8.20172e-05
0.00852049
0.000166231
0.0086551
0.000586454
0.00927645
0.0015443
0.0110137
0.00612291
0.011106
0.00813301
0.0109491
0.00816227
0.0106329
0.00771136
0.0104725
0.00709738
0.0104135
0.00669552
0.0104157
0.00638135
0.0104496
0.00607951
0.0104926
0.00575863
0.00541207
0.0105309
0.00840003
1.85275e-09
0.00840003
1.15635e-08
0.00840004
3.50438e-08
0.00840007
9.28476e-08
0.00840012
2.10191e-07
0.00840025
4.90122e-07
0.00840053
1.03822e-06
0.00840115
2.38181e-06
0.00840246
4.92332e-06
0.00840563
1.16394e-05
0.00841153
2.35301e-05
0.00843032
6.29571e-05
0.00847487
0.000121417
0.00863755
0.000423493
0.00914859
0.00103293
0.0113773
0.00388966
0.0114174
0.00809166
0.0113849
0.00819474
0.0111552
0.00794107
0.0108717
0.00738135
0.0107297
0.00683752
0.0106761
0.00643536
0.0106638
0.00609301
0.0106671
0.00575475
0.00539835
0.0106815
0.00840003
1.42823e-09
0.00840003
8.91998e-09
0.00840004
2.70391e-08
0.00840006
7.16595e-08
0.00840011
1.62224e-07
0.00840022
3.78349e-07
0.00840046
8.02111e-07
0.00840099
1.83772e-06
0.0084021
3.81853e-06
0.00840482
8.88226e-06
0.0084098
1.85517e-05
0.00842894
4.36737e-05
0.00844675
0.00010337
0.00862136
0.000248521
0.00894144
0.000713242
0.0105593
0.00226975
0.011704
0.00694335
0.0116718
0.0082265
0.0114793
0.00813304
0.011217
0.0076444
0.0110861
0.00696803
0.0109935
0.00652788
0.0109462
0.0061407
0.0109158
0.00578616
0.00543023
0.0108829
0.00840003
1.06993e-09
0.00840003
6.65789e-09
0.00840004
2.03143e-08
0.00840006
5.3383e-08
0.0084001
1.21606e-07
0.0084002
2.80578e-07
0.0084004
5.98511e-07
0.00840088
1.35253e-06
0.00840188
2.81917e-06
0.00840424
6.49584e-06
0.00840955
1.32298e-05
0.00841958
3.34802e-05
0.00846013
6.28547e-05
0.00850861
0.000199662
0.00878514
0.000436889
0.00936906
0.00168459
0.0116177
0.00469252
0.011829
0.00801759
0.0118417
0.0081196
0.0116726
0.00781259
0.0113874
0.00725242
0.0112708
0.00664445
0.0111959
0.00621602
0.0111493
0.00583374
0.00547597
0.0111035
0.00840003
6.59713e-10
0.00840003
5.20809e-09
0.00840004
1.34024e-08
0.00840005
4.10092e-08
0.00840009
7.99974e-08
0.00840016
2.15704e-07
0.00840037
3.86577e-07
0.00840067
1.04721e-06
0.00840171
1.7705e-06
0.00840315
5.08012e-06
0.0084084
7.99805e-06
0.00841622
2.58166e-05
0.00844356
3.56824e-05
0.00849871
0.000143708
0.00872769
0.000211378
0.00949776
0.000908466
0.0118612
0.00233851
0.0126159
0.00724692
0.0123948
0.00833393
0.0121482
0.00805787
0.0118283
0.00757347
0.0116406
0.00683383
0.0115061
0.0063503
0.011409
0.00593061
0.00555342
0.0113319
0.00840003
5.53808e-10
0.00840003
3.07541e-09
0.00840004
1.02942e-08
0.00840005
2.50286e-08
0.00840007
6.1687e-08
0.00840015
1.3075e-07
0.00840023
3.04812e-07
0.00840067
6.20745e-07
0.00840106
1.44793e-06
0.00840334
2.87794e-06
0.00840506
6.93747e-06
0.00841743
1.30988e-05
0.00841582
3.64363e-05
0.00850923
6.07659e-05
0.00850785
0.000217849
0.00901069
0.0004387
0.00950262
0.00179148
0.0120464
0.0047009
0.0124824
0.00790952
0.012598
0.00794853
0.0124094
0.00775972
0.0120744
0.00716613
0.0118581
0.00656605
0.0117183
0.00607067
0.00566418
0.0116085
0.00840003
3.86585e-10
0.00840003
2.15909e-09
0.00840003
7.06664e-09
0.00840004
1.74952e-08
0.00840006
4.22454e-08
0.0084001
9.13852e-08
0.0084002
2.08119e-07
0.00840038
4.34493e-07
0.00840084
9.86045e-07
0.0084017
2.02985e-06
0.00840395
4.65648e-06
0.00840746
9.70806e-06
0.00842165
2.18904e-05
0.00843284
5.0016e-05
0.00854339
0.000105892
0.00868806
0.000294474
0.00971697
0.00075349
0.0122912
0.00213949
0.0130846
0.00712617
0.0129552
0.00807412
0.0128749
0.00783375
0.0125084
0.00752869
0.0122696
0.0068059
0.0120692
0.00627181
0.00581917
0.0119152
0.00840003
2.50437e-10
0.00840003
1.41279e-09
0.00840003
4.59613e-09
0.00840004
1.14601e-08
0.00840005
2.72777e-08
0.00840009
5.92397e-08
0.00840016
1.31998e-07
0.00840032
2.76295e-07
0.0084007
6.08917e-07
0.00840147
1.25502e-06
0.00840331
2.82013e-06
0.00840748
5.54759e-06
0.0084153
1.40278e-05
0.0084414
2.41812e-05
0.00846602
8.0192e-05
0.0086289
0.000132444
0.00882812
0.000549547
0.00970868
0.00125948
0.0123958
0.00443105
0.0129513
0.00751211
0.0130979
0.00768093
0.0130102
0.0076148
0.0126832
0.00713394
0.012453
0.00650346
0.00600728
0.0122652
0.00840003
1.87611e-10
0.00840003
8.8641e-10
0.00840003
3.29888e-09
0.00840004
7.2956e-09
0.00840004
1.9644e-08
0.00840007
3.7899e-08
0.0084001
9.69795e-08
0.0084002
1.77825e-07
0.00840035
4.62827e-07
0.00840079
8.15547e-07
0.00840139
2.22348e-06
0.00840325
3.70348e-06
0.00840619
1.11045e-05
0.00841428
1.61681e-05
0.00843579
5.86039e-05
0.00849207
7.64293e-05
0.00871621
0.000324602
0.00936469
0.000610987
0.0118115
0.00197842
0.0130642
0.0062523
0.0130972
0.007645
0.0132133
0.0074978
0.0130115
0.00733632
0.0127711
0.00674602
0.00621323
0.0125655
0.00840003
8.7632e-11
0.00840003
6.55531e-10
0.00840003
1.74485e-09
0.00840003
5.20046e-09
0.00840004
1.03947e-08
0.00840005
2.69877e-08
0.0084001
4.97083e-08
0.00840016
1.27666e-07
0.0084004
2.2379e-07
0.00840064
5.95021e-07
0.00840188
9.84683e-07
0.00840279
2.84336e-06
0.00840986
4.09037e-06
0.00841099
1.50059e-05
0.00845465
1.58306e-05
0.00844234
8.81495e-05
0.0086827
8.62483e-05
0.00875351
0.000540916
0.00966614
0.0010676
0.0125402
0.00337323
0.0131914
0.00699229
0.0132538
0.00743598
0.0132567
0.00733343
0.0129638
0.00703887
0.00640009
0.0127771
0.00840003
6.35847e-11
0.00840003
3.55248e-10
0.00840003
1.1841e-09
0.00840003
2.88664e-09
0.00840004
7.02044e-09
0.00840005
1.48492e-08
0.00840007
3.38556e-08
0.00840012
6.8663e-08
0.0084002
1.5554e-07
0.00840049
3.08562e-07
0.00840078
7.10462e-07
0.00840226
1.37882e-06
0.00840303
3.33541e-06
0.00841207
6.05992e-06
0.00841068
1.7105e-05
0.00847106
2.78479e-05
0.00845902
9.83899e-05
0.00882373
0.000175599
0.00922746
0.000665407
0.0110003
0.00160029
0.0131815
0.00480672
0.0134278
0.00718744
0.01351
0.00725104
0.0134127
0.00713614
0.00669926
0.0131138
0.00840003
3.96982e-11
0.00840003
2.23458e-10
0.00840003
7.3068e-10
0.00840003
1.81162e-09
0.00840003
4.32879e-09
0.00840004
9.32867e-09
0.00840005
2.08657e-08
0.00840008
4.32982e-08
0.00840014
9.58598e-08
0.00840025
1.9626e-07
0.00840053
4.37391e-07
0.00840102
8.88735e-07
0.00840234
2.01616e-06
0.0084044
4.03201e-06
0.00841186
9.60752e-06
0.00842101
1.87558e-05
0.0084692
4.98919e-05
0.00854671
9.78515e-05
0.008907
0.000304647
0.009754
0.000753041
0.0123029
0.00225075
0.0135412
0.00594716
0.0135796
0.00721308
0.0137431
0.00697338
0.00689637
0.0135471
0.00840003
2.47173e-11
0.00840003
1.39009e-10
0.00840003
4.54512e-10
0.00840003
1.12671e-09
0.00840003
2.69481e-09
0.00840004
5.80823e-09
0.00840004
1.30205e-08
0.00840006
2.70284e-08
0.0084001
6.0074e-08
0.00840017
1.23081e-07
0.00840033
2.75829e-07
0.00840066
5.60994e-07
0.0084014
1.2758e-06
0.00840285
2.57936e-06
0.00840643
5.99938e-06
0.00841318
1.20336e-05
0.00843345
2.93957e-05
0.00847083
6.04409e-05
0.00861665
0.000157959
0.00897707
0.000392235
0.0100029
0.00122372
0.012789
0.00315511
0.0136588
0.00634245
0.0137216
0.0069108
0.00674896
0.0138695
0.00840003
1.49532e-11
0.00840003
8.43775e-11
0.00840003
2.75118e-10
0.00840003
6.84078e-10
0.00840003
1.62809e-09
0.00840003
3.51687e-09
0.00840004
7.82843e-09
0.00840005
1.62876e-08
0.00840007
3.58465e-08
0.00840012
7.36695e-08
0.00840024
1.62866e-07
0.00840047
3.32679e-07
0.008401
7.43418e-07
0.00840207
1.50516e-06
0.0084046
3.44726e-06
0.00840984
6.81684e-06
0.00842248
1.66121e-05
0.00845105
3.18474e-05
0.00852038
8.81861e-05
0.00873727
0.000174218
0.00937449
0.00058575
0.0111586
0.00136838
0.0133754
0.00412024
0.013826
0.00645909
0.00665488
0.0139198
0.00840003
9.48447e-12
0.00840003
4.80892e-11
0.00840003
1.7013e-10
0.00840003
3.94104e-10
0.00840003
1.00442e-09
0.00840003
2.02639e-09
0.00840004
4.84583e-09
0.00840004
9.35557e-09
0.00840006
2.23564e-08
0.00840009
4.21771e-08
0.00840015
1.02763e-07
0.00840029
1.90267e-07
0.00840056
4.76571e-07
0.00840121
8.60186e-07
0.00840239
2.27006e-06
0.00840545
3.77951e-06
0.00841076
1.12844e-05
0.00842664
1.60774e-05
0.00845712
5.75706e-05
0.00855649
7.44098e-05
0.00884218
0.000300463
0.00962678
0.000584466
0.0121288
0.00161648
0.013694
0.00488911
0.00639012
0.0139579
0.00840003
4.39325e-12
0.00840003
2.99919e-11
0.00840003
8.5191e-11
0.00840003
2.3868e-10
0.00840003
5.0525e-10
0.00840003
1.22176e-09
0.00840003
2.40594e-09
0.00840004
5.65813e-09
0.00840005
1.08485e-08
0.00840007
2.56904e-08
0.00840012
4.83028e-08
0.0084002
1.17476e-07
0.00840047
2.12671e-07
0.00840082
5.4915e-07
0.00840223
9.0469e-07
0.00840345
2.68793e-06
0.00841172
3.6215e-06
0.0084141
1.39352e-05
0.00846059
1.38132e-05
0.00845992
7.44886e-05
0.00869526
6.82299e-05
0.00887721
0.000402124
0.00981202
0.000685278
0.0126762
0.00201493
0.00522017
0.0138411
0.00840003
2.2631e-12
0.00840003
1.30823e-11
0.00840003
4.3173e-11
0.00840003
1.06301e-10
0.00840003
2.4975e-10
0.00840003
5.25995e-10
0.00840003
1.13244e-09
0.00840004
2.2732e-09
0.00840004
4.74155e-09
0.00840006
9.30497e-09
0.00840009
1.91946e-08
0.00840017
3.60636e-08
0.00840031
7.73256e-08
0.00840073
1.29267e-07
0.00840135
3.13166e-07
0.00840368
4.16502e-07
0.008406
1.34429e-06
0.00841912
1.35734e-06
0.00842451
8.00514e-06
0.00849224
8.1045e-06
0.00849963
5.88771e-05
0.00882285
8.03606e-05
0.00909293
0.000412861
0.0102715
0.000834896
0.00261417
0.012869
0.00840003
1.28586e-12
0.00840003
6.63301e-12
0.00840003
2.32884e-11
0.00840003
5.41714e-11
0.00840003
1.3503e-10
0.00840003
2.6999e-10
0.00840003
6.25821e-10
0.00840003
1.18255e-09
0.00840003
2.73908e-09
0.00840004
4.99105e-09
0.00840005
1.18998e-08
0.00840006
2.09856e-08
0.00840009
5.2109e-08
0.00840013
8.93878e-08
0.00840021
2.32978e-07
0.00840025
3.83985e-07
0.00840051
1.08961e-06
0.00840024
1.66092e-06
0.00840277
5.46801e-06
0.00840324
7.73054e-06
0.00843188
3.0035e-05
0.00846907
4.33522e-05
0.0087075
0.000173503
0.00919497
0.000348195
0.00104233
0.0107645
0.00840003
5.68808e-13
0.00840003
3.9206e-12
0.00840003
1.11266e-11
0.00840003
3.1157e-11
0.00840003
6.52109e-11
0.00840003
1.56601e-10
0.00840003
3.01615e-10
0.00840003
7.05601e-10
0.00840003
1.30773e-09
0.00840003
3.11294e-09
0.00840004
5.60988e-09
0.00840005
1.38292e-08
0.00840008
2.43444e-08
0.0084001
6.25039e-08
0.00840023
1.07053e-07
0.00840032
2.91158e-07
0.00840095
4.69206e-07
0.00840119
1.41435e-06
0.00840464
2.04668e-06
0.0084051
7.19921e-06
0.00842618
9.09914e-06
0.00843109
3.79812e-05
0.00855733
4.75433e-05
0.00870318
0.000201243
0.000377939
0.00936715
0.00840003
3.53405e-13
0.00840003
1.84336e-12
0.00840003
6.46649e-12
0.00840003
1.5058e-11
0.00840003
3.76968e-11
0.00840003
7.60105e-11
0.00840003
1.77017e-10
0.00840003
3.41032e-10
0.00840003
7.90771e-10
0.00840003
1.4914e-09
0.00840004
3.52908e-09
0.00840004
6.54856e-09
0.00840005
1.6084e-08
0.00840008
2.89442e-08
0.00840012
7.54641e-08
0.00840028
1.27441e-07
0.00840039
3.61269e-07
0.00840127
5.46546e-07
0.0084016
1.71259e-06
0.00840664
2.26487e-06
0.00840738
8.26738e-06
0.00843667
9.09802e-06
0.00844135
4.2012e-05
0.00859687
4.62921e-05
0.00021398
0.0087588
0.00840003
1.46189e-13
0.00840003
9.88268e-13
0.00840003
2.86858e-12
0.00840003
7.89287e-12
0.00840003
1.68175e-11
0.00840003
3.93476e-11
0.00840003
7.7519e-11
0.00840003
1.74204e-10
0.00840003
3.33384e-10
0.00840003
7.48323e-10
0.00840003
1.40423e-09
0.00840004
3.22537e-09
0.00840005
5.71901e-09
0.00840007
1.43713e-08
0.00840012
2.18292e-08
0.00840019
6.60744e-08
0.0084005
7.92948e-08
0.00840076
3.08247e-07
0.00840153
3.06918e-07
0.00840401
1.45353e-06
0.00840902
1.29597e-06
0.00840616
7.45407e-06
0.00845232
5.85798e-06
0.00846228
4.09948e-05
3.14613e-05
0.008622
0.00840003
7.90521e-14
0.00840003
4.24563e-13
0.00840003
1.46851e-12
0.00840003
3.46988e-12
0.00840003
8.48363e-12
0.00840003
1.72496e-11
0.00840003
3.86007e-11
0.00840003
7.47592e-11
0.00840003
1.63361e-10
0.00840003
3.06771e-10
0.00840003
6.77913e-10
0.00840003
1.19836e-09
0.00840004
2.84195e-09
0.00840005
4.31791e-09
0.00840006
1.2232e-08
0.00840011
1.41536e-08
0.00840011
5.44469e-08
0.00840038
4.97024e-08
0.00840028
2.83376e-07
0.00840107
1.46883e-07
0.00840033
1.34187e-06
0.0084093
5.88447e-07
0.00840957
4.51287e-06
0.00846279
2.72226e-06
4.16786e-05
0.00842841
0.00840003
3.04944e-14
0.00840003
2.04203e-13
0.00840003
6.0023e-13
0.00840003
1.63174e-12
0.00840003
3.48113e-12
0.00840003
7.97378e-12
0.00840003
1.55557e-11
0.00840003
3.39581e-11
0.00840003
6.28902e-11
0.00840003
1.39125e-10
0.00840003
2.33921e-10
0.00840003
5.80165e-10
0.00840003
7.88201e-10
0.00840004
2.43865e-09
0.00840005
2.2165e-09
0.00840006
9.65569e-09
0.00840012
4.00244e-09
0.00840012
3.35098e-08
0.00840058
-1.20572e-08
0.00840016
2.7987e-07
0.00840122
-3.1048e-07
0.00839952
1.24027e-06
0.00840657
-8.05661e-07
0.00838677
-3.71148e-06
-1.02525e-05
0.00856398
0.00840003
1.42199e-14
0.00840003
8.22109e-14
0.00840003
2.71057e-13
0.00840003
6.66218e-13
0.00840003
1.55419e-12
0.00840003
3.2464e-12
0.00840003
6.89843e-12
0.00840003
1.36487e-11
0.00840003
2.81596e-11
0.00840003
5.39222e-11
0.00840003
1.13467e-10
0.00840003
2.02746e-10
0.00840003
4.67537e-10
0.00840003
7.57384e-10
0.00840003
2.05363e-09
0.00840004
3.01605e-09
0.00840003
9.6061e-09
0.00840007
1.81565e-08
0.00839986
3.43495e-08
0.00840072
4.5782e-08
0.00839942
2.38785e-07
0.00840014
2.82896e-07
0.00840063
2.28367e-06
0.00837226
8.27087e-06
1.73637e-06
0.00835609
0.00840003
5.69862e-15
0.00840003
3.30546e-14
0.00840003
1.086e-13
0.00840003
2.6977e-13
0.00840003
6.24179e-13
0.00840003
1.30696e-12
0.00840003
2.78165e-12
0.00840003
5.44915e-12
0.00840003
1.17245e-11
0.00840003
2.15185e-11
0.00840003
4.97741e-11
0.00840003
8.60606e-11
0.00840003
2.09001e-10
0.00840003
3.39919e-10
0.00840003
9.58014e-10
0.00840003
1.85059e-09
0.00840005
3.34886e-09
0.00840007
9.41072e-09
0.00839987
-2.21749e-08
0.00840053
-3.49869e-08
0.00839983
5.34182e-08
0.00839835
-1.24182e-07
0.00839924
6.7401e-07
0.00842344
2.62082e-06
4.53469e-06
0.00839614
0.00840003
2.14087e-15
0.00840003
1.27717e-14
0.00840003
4.2149e-14
0.00840003
1.05747e-13
0.00840003
2.40916e-13
0.00840003
5.06053e-13
0.00840003
1.02229e-12
0.00840003
2.00447e-12
0.00840003
3.74336e-12
0.00840003
6.77432e-12
0.00840003
1.27699e-11
0.00840003
1.87839e-11
0.00840003
5.27684e-11
0.00840003
5.53372e-11
0.00840003
3.44513e-10
0.00840004
5.64892e-10
0.00840003
-4.17875e-10
0.00840004
-1.39639e-10
0.00840008
7.25677e-09
0.0084002
-1.08766e-08
0.00839994
5.35251e-08
0.00840334
-1.20828e-07
0.00839685
4.55704e-07
0.00838548
1.46123e-06
1.60581e-06
0.00841227
0.00840003
1.3668e-15
0.00840003
7.92991e-15
0.00840003
2.45977e-14
0.00840003
6.23452e-14
0.00840003
1.36132e-13
0.00840003
3.08539e-13
0.00840003
5.42268e-13
0.00840003
1.44917e-12
0.00840003
1.78352e-12
0.00840003
5.84508e-12
0.00840003
1.806e-12
0.00840003
1.51276e-11
0.00840003
-6.60223e-11
0.00840003
-3.88373e-11
0.00840003
-8.67839e-10
0.00840003
-1.83607e-09
0.00840003
-3.28064e-09
0.00840003
-7.57935e-09
0.00840005
-3.61664e-08
0.00840025
-3.70115e-08
0.00839993
-2.71431e-07
0.00840501
-7.09224e-07
0.00839277
-1.0263e-06
0.00843278
-6.91512e-06
2.64408e-06
0.00840258
0.00840003
1.13456e-15
0.00840003
3.51428e-15
0.00840003
1.8085e-14
0.00840003
2.75664e-14
0.00840003
1.05535e-13
0.00840003
1.01028e-13
0.00840003
5.97579e-13
0.00840003
4.08368e-14
0.00840003
3.42613e-12
0.00840003
-1.74912e-12
0.00840003
2.16241e-11
0.00840003
-1.93807e-11
0.00840003
1.62238e-10
0.00840003
-1.67421e-10
0.00840003
1.16778e-09
0.00840003
-1.2501e-09
0.0084
6.60402e-09
0.00840004
-1.02535e-08
0.00839987
8.16899e-08
0.00839966
2.24169e-09
0.0083992
6.30657e-07
0.00839793
6.2279e-07
0.008393
1.88903e-06
0.00837008
3.33793e-06
4.21546e-06
0.00836894
0.00840003
-1.29074e-16
0.00840003
2.29011e-15
0.00840003
4.01209e-16
0.00840003
1.85387e-14
0.00840003
-3.49899e-15
0.00840003
1.20517e-13
0.00840003
-1.7034e-13
0.00840003
7.88699e-13
0.00840003
-1.95408e-12
0.00840003
4.14267e-12
0.00840003
-1.79717e-11
0.00840003
2.35878e-11
0.00840003
-1.51408e-10
0.00840003
1.69219e-10
0.00840003
-1.14878e-09
0.00840003
1.59744e-09
0.00840004
-7.99305e-09
0.0084
1.06476e-08
0.0084003
-9.6211e-08
0.00840018
-3.20739e-08
0.00840191
-7.12345e-07
0.00840326
-8.27602e-07
0.00840729
-2.37038e-06
0.00841577
-4.25065e-06
-6.40186e-06
0.00840543
0.00840003
0.00840003
0.00840003
0.00840003
0.00840003
0.00840003
0.00840003
0.00840003
0.00840003
0.00840003
0.00840003
0.00840003
0.00840003
0.00840003
0.00840003
0.00840004
0.00840002
0.0084001
0.00839996
0.00839974
0.00839947
0.00839891
0.0083945
0.00837938
0.00837318
0.00557175
0.00368067
0.00392988
0.00164197
0.0030302
0.000899791
0.00249203
0.000538285
0.00217363
0.000318514
0.00199106
0.000182691
0.00190076
9.03924e-05
0.0018877
1.31627e-05
0.0019956
-0.000107766
0.00222537
-0.000229794
0.00236844
-0.000143417
0.00244454
-7.75239e-05
0.00245444
-1.28773e-05
0.00241501
3.05009e-05
0.00232138
7.23958e-05
0.00214093
0.000132212
0.00178085
0.000246749
0.000972096
0.000599201
0.000323539
0.000617431
-0.000159615
0.000495644
-0.000602918
0.000447358
-0.00103563
0.000415061
-0.0014339
0.000388434
-0.00177014
0.0003403
-0.00204149
0.000275829
-0.00225497
0.000211537
-0.00241716
0.000164553
-0.00254252
0.000130458
-0.00264404
0.000106356
-0.00272227
8.74226e-05
-0.00279505
7.85708e-05
-0.00286249
6.99289e-05
-0.00290948
5.09451e-05
-0.00292991
2.1019e-05
-0.00292045
-1.25283e-05
-0.00287688
-5.16024e-05
-0.00278931
-9.7452e-05
-0.0026485
-0.00015262
-0.00245062
-0.000208579
-0.00221382
-0.000244593
-0.00195357
-0.000263567
-0.00168033
-0.000273147
-0.0014099
-0.000268053
-0.00113379
-0.000271845
-0.000843889
-0.000285435
-0.000556908
-0.00028315
-0.000273137
-0.000281187
1.92401e-05
-0.00029113
0.000326639
-0.000307223
0.000608601
-0.000281422
0.000874299
-0.00026387
0.00112393
-0.000246544
0.00136337
-0.000235458
0.0015885
-0.000220549
0.001805
-0.000212006
0.00201497
-0.00020611
0.00222235
-0.000204578
0.0024174
-0.000194343
0.00260388
-0.000187436
0.00277929
-0.000178361
0.00294687
-0.000171558
0.0031043
-0.000163034
0.00325432
-0.000155973
0.00339538
-0.000148059
0.00352838
-0.000140862
0.00365314
-0.000133208
0.00377035
-0.000126063
0.00387946
-0.000118544
0.00398181
-0.000111306
0.00407757
-0.000103825
0.00416701