/*--------------------------------*- C++ -*----------------------------------*\
  =========                 |
  \\      /  F ield         | OpenFOAM: The Open Source CFD Toolbox
   \\    /   O peration     | Website:  https://openfoam.org
    \\  /    A nd           | Version:  6
     \\/     M anipulation  |
\*---------------------------------------------------------------------------*/
FoamFile
{
    version     2.0;
    format      ascii;
    class       volScalarField;
    location    "4";
    object      T;
}
// * * * * * * * * * * * * * * * * * * * * * * * * * * * * * * * * * * * * * //

dimensions      [0 0 0 1 0 0 0];

internalField   nonuniform List<scalar> 
5250
(
1.00006
1.00013
1.00041
1.0008
1.00229
1.00441
1.01207
1.02531
1.06166
1.15383
1.36755
1.93852
2.80035
2.75999
2.79456
2.74792
2.72999
2.74834
2.76058
2.7748
2.78264
2.78703
2.79174
2.79435
2.79674
1.00006
1.00013
1.00041
1.0008
1.00228
1.00439
1.01202
1.02521
1.06143
1.15317
1.36615
1.93404
2.79881
2.76054
2.79218
2.74632
2.72927
2.74741
2.75972
2.77306
2.7807
2.78438
2.78924
2.79157
2.79355
1.00006
1.00013
1.0004
1.00079
1.00226
1.00435
1.01192
1.02498
1.06094
1.15169
1.36303
1.92235
2.79553
2.7618
2.78635
2.74261
2.72734
2.74528
2.7579
2.77068
2.77806
2.78216
2.78522
2.78808
2.79013
1.00005
1.00013
1.0004
1.00078
1.00223
1.00429
1.01176
1.02461
1.06016
1.14929
1.35797
1.90269
2.79025
2.76378
2.77786
2.73813
2.72405
2.74114
2.75324
2.76542
2.77055
2.77672
2.78068
2.78072
2.78244
1.00005
1.00013
1.00039
1.00077
1.00218
1.00421
1.01154
1.0241
1.05909
1.14592
1.35096
1.87433
2.78212
2.76557
2.76527
2.73069
2.71939
2.73618
2.74789
2.75987
2.76446
2.76588
2.77063
2.77325
2.77395
1.00005
1.00012
1.00038
1.00075
1.00213
1.0041
1.01127
1.02344
1.05773
1.14188
1.34138
1.84562
2.77119
2.76894
2.75688
2.71875
2.70923
2.72552
2.73634
2.74714
2.75537
2.75797
2.75723
2.75688
2.75869
1.00005
1.00012
1.00037
1.00072
1.00206
1.00396
1.01094
1.02264
1.05604
1.13752
1.32843
1.82446
2.75621
2.76552
2.74917
2.71119
2.70181
2.71514
2.72687
2.73297
2.73657
2.73922
2.74347
2.7423
2.73956
1.00005
1.00012
1.00035
1.00069
1.00199
1.0038
1.01055
1.02169
1.054
1.13222
1.31311
1.79806
2.72912
2.76066
2.73743
2.70106
2.69043
2.70098
2.71087
2.72016
2.72231
2.72127
2.71536
2.71285
2.70853
1.00005
1.00011
1.00034
1.00066
1.00189
1.00361
1.01008
1.02059
1.05154
1.12586
1.29588
1.76587
2.6895
2.75115
2.72132
2.69943
2.68109
2.68815
2.68969
2.69447
2.69654
2.69524
2.69027
2.67454
2.65579
1.00004
1.0001
1.00032
1.00062
1.00178
1.0034
1.00951
1.01933
1.04866
1.11816
1.27717
1.7277
2.62863
2.73877
2.68912
2.68814
2.67579
2.67877
2.67734
2.67422
2.66722
2.65781
2.63863
2.61241
2.54705
1.00004
1.0001
1.00029
1.00057
1.00165
1.00315
1.00884
1.01787
1.04526
1.10927
1.25526
1.68055
2.56037
2.70899
2.69167
2.66634
2.65612
2.65917
2.65984
2.65462
2.63665
2.62099
2.58688
2.51626
2.37738
1.00004
1.00009
1.00027
1.00052
1.0015
1.00285
1.00805
1.01615
1.04129
1.09877
1.22965
1.62172
2.46785
2.66722
2.68333
2.66375
2.64277
2.63714
2.63449
2.62623
2.60776
2.56796
2.52625
2.45406
2.30531
1.00003
1.00008
1.00024
1.00046
1.00133
1.00251
1.00715
1.01411
1.03666
1.08685
1.19771
1.55093
2.34998
2.61357
2.67081
2.65694
2.63231
2.62028
2.60981
2.59898
2.57725
2.54089
2.4695
2.40544
2.29026
1.00003
1.00007
1.0002
1.0004
1.00114
1.00215
1.00614
1.01199
1.03147
1.07336
1.16596
1.46359
2.19149
2.54216
2.65548
2.64206
2.62429
2.59824
2.58483
2.5644
2.54136
2.51267
2.45076
2.38447
2.29072
1.00002
1.00006
1.00017
1.00033
1.00095
1.00179
1.00511
1.00984
1.02656
1.05797
1.13913
1.35701
1.96703
2.46153
2.6205
2.60767
2.60118
2.5838
2.56267
2.54323
2.50486
2.47762
2.42366
2.37157
2.29467
1.00002
1.00005
1.00014
1.00027
1.00079
1.00148
1.00423
1.00807
1.02213
1.04667
1.1163
1.28191
1.78821
2.40011
2.60039
2.56834
2.56494
2.55446
2.54049
2.52517
2.49008
2.45703
2.40316
2.35047
2.29048
1.00002
1.00004
1.00011
1.00022
1.00065
1.00121
1.00348
1.0066
1.01812
1.03877
1.09228
1.24176
1.59018
2.32005
2.56602
2.56044
2.5351
2.52271
2.50738
2.49699
2.47063
2.44411
2.39883
2.34441
2.28904
1.00001
1.00003
1.00009
1.00018
1.00052
1.00097
1.00282
1.0053
1.01472
1.03108
1.07415
1.19862
1.45444
2.12555
2.49306
2.54848
2.52132
2.50962
2.48583
2.46872
2.44878
2.41796
2.38774
2.34237
2.2905
1.00001
1.00002
1.00007
1.00014
1.00041
1.00076
1.00221
1.00411
1.01162
1.02375
1.05807
1.14967
1.33917
1.92604
2.35329
2.51303
2.50791
2.49413
2.47294
2.45012
2.42854
2.40235
2.36849
2.33593
2.29028
1.00001
1.00002
1.00006
1.00011
1.00031
1.00058
1.00168
1.00309
1.00889
1.01724
1.04544
1.10312
1.25024
1.60895
2.27487
2.44576
2.46663
2.46102
2.44883
2.4281
2.40629
2.38367
2.35363
2.32175
2.28679
1.00001
1.00001
1.00004
1.00008
1.00023
1.00043
1.00126
1.0023
1.00672
1.01275
1.03391
1.07871
1.17685
1.49308
2.14929
2.38839
2.44123
2.43265
2.42343
2.40492
2.38573
2.36508
2.33954
2.30954
2.27716
1
1.00001
1.00003
1.00006
1.00017
1.00032
1.00093
1.00169
1.00497
1.00926
1.02551
1.05523
1.1307
1.34362
1.89252
2.28075
2.41129
2.40825
2.39437
2.38157
2.36226
2.34511
2.32496
2.30099
2.27262
1
1.00001
1.00002
1.00004
1.00012
1.00023
1.00067
1.00121
1.00355
1.00654
1.01851
1.03712
1.09701
1.21844
1.6328
2.11034
2.36015
2.38309
2.37494
2.36001
2.34007
2.32094
2.3019
2.28012
2.25801
1
1.00001
1.00002
1.00003
1.00009
1.00016
1.00046
1.00084
1.00247
1.00448
1.01273
1.02566
1.06404
1.16234
1.37229
1.91193
2.24276
2.3488
2.35277
2.34604
2.3315
2.3113
2.29206
2.27047
2.24634
1
1
1.00001
1.00002
1.00006
1.00011
1.00031
1.00056
1.00166
1.00299
1.00867
1.01651
1.04397
1.09718
1.2427
1.55612
2.13412
2.28086
2.29788
2.30828
2.30271
2.28977
2.27373
2.25771
2.23727
1
1
1.00001
1.00002
1.00003
1.00009
1.00016
1.00047
1.00085
1.00249
1.0046
1.0123
1.02723
1.06342
1.16778
1.38686
1.89297
2.22536
2.28591
2.28509
2.27884
2.26903
2.2514
2.23676
2.22097
1
1
1
1.00001
1.00002
1.00006
1.00011
1.00031
1.00055
1.00165
1.00292
1.0086
1.01607
1.0435
1.09365
1.2392
1.52833
2.06644
2.23821
2.2534
2.25381
2.24496
2.23053
2.21495
2.20248
1
1
1
1.00001
1.00001
1.00004
1.00007
1.00019
1.00034
1.00102
1.0018
1.00507
1.01005
1.02507
1.0643
1.13959
1.40565
1.91021
2.16271
2.23634
2.23536
2.22285
2.21107
2.19242
2.17606
1
1
1
1
1.00001
1.00002
1.00004
1.00012
1.00022
1.00067
1.00116
1.00354
1.00623
1.01824
1.03597
1.09461
1.21124
1.62024
1.96431
2.18536
2.2156
2.21337
2.19995
2.18386
2.16256
1
1
1
1
1.00001
1.00001
1.00003
1.00006
1.00016
1.00029
1.00084
1.00155
1.00408
1.00883
1.02108
1.05666
1.12602
1.3558
1.83735
2.0665
2.16795
2.18908
2.18445
2.17499
2.15675
1
1
1
1
1
1.00001
1.00002
1.00004
1.00008
1.00023
1.0004
1.00119
1.00213
1.00591
1.01214
1.03078
1.07779
1.17606
1.46366
1.95169
2.10001
2.13835
2.14797
2.14624
2.14111
1
1
1
1
1
1.00001
1.00001
1.00003
1.00005
1.00014
1.00024
1.00075
1.00125
1.00388
1.00673
1.01934
1.04007
1.09845
1.24409
1.62346
1.97139
2.12003
2.1251
2.12398
2.11364
1
1
1
1
1
1
1.00001
1.00002
1.00003
1.00008
1.00014
1.00044
1.00073
1.00233
1.00384
1.01191
1.02169
1.06005
1.12983
1.34416
1.69272
2.02784
2.11165
2.1123
2.10826
1
1
1
1
1
1
1
1.00001
1.00002
1.00005
1.00008
1.00024
1.0004
1.00126
1.00207
1.00639
1.01136
1.0319
1.06988
1.16747
1.41405
1.85001
2.04009
2.08839
2.09307
1
1
1
1
1
1
1
1
1.00001
1.00002
1.00004
1.00013
1.00022
1.00068
1.0011
1.00348
1.00588
1.01762
1.03438
1.09056
1.20415
1.56038
1.83497
2.03022
2.06457
1
1
1
1
1
1
1
1
1.00001
1.00001
1.00003
1.00005
1.00013
1.00022
1.00061
1.00118
1.00284
1.00696
1.01623
1.04479
1.10646
1.28046
1.66849
1.88902
2.02203
1
1
1
1
1
1
1
1
1
1
1.00001
1.00002
1.00004
1.00009
1.0002
1.00034
1.00107
1.00169
1.00735
1.01557
1.05372
1.12146
1.34864
1.73473
1.92423
1
1
1
1
1
1
1
1
1
1
1.00001
1.00002
1.00003
1.00008
1.00013
1.00045
1.00069
1.00241
1.00385
1.01281
1.02296
1.06803
1.1401
1.40134
1.67262
1
1
1
1
1
1
1
1
1
1
1
1.00001
1.00002
1.00003
1.00009
1.00015
1.00047
1.00078
1.00246
1.00435
1.01314
1.02589
1.07296
1.15252
1.43735
1
1
1
1
1
1
1
1
1
1
1
1
1.00001
1.00002
1.00003
1.0001
1.00016
1.0005
1.00084
1.00257
1.0047
1.01377
1.02822
1.078
1.1658
1
1
1
1
1
1
1
1
1
1
1
1
1
1.00001
1.00001
1.00003
1.00004
1.00016
1.00025
1.00094
1.00116
1.00546
1.01304
1.03153
1.08419
1
1
1
1
1
1
1
1
1
1
1
1
1
1
1.00001
1.00001
1.00003
1.00006
1.00015
1.00048
1.00095
1.00299
1.0059
1.01432
1.04469
1
1
1
1
1
1
1
1
1
1
1
1
1
1
1
1.00001
1.00001
1.00004
1.00004
1.00031
1.00051
1.00269
1.00269
1.0202
1.00464
1
1
1
1
1
1
1
1
1
1
1
1
1
1
1
1
1.00001
1.00002
1.00011
1.0001
1.0009
1.00142
1.0083
1.0026
1.03071
1
1
1
1
1
1
1
1
1
1
1
1
1
1
1
1
1.00001
1.00001
1.00008
1.00014
1.00048
1.00179
1.0032
1.0103
1.02984
1
1
1
1
1
1
1
1
1
1
1
1
1
1
1
1
1.00001
1.00001
1.00009
1.00012
1.0007
1.00075
1.00315
1.00923
1.02537
1
1
1
1
1
1
1
1
1
1
1
1
1
1
1
1
1.00001
1.00002
1.00008
1.00013
1.00066
1.00075
1.00394
1.00228
1.02518
1
1
1
1
1
1
1
1
1
1
1
1
1
1
1
1
1.00001
1.00001
1.00011
1.00019
1.00094
1.00118
1.0067
1.00289
1.02103
1
1
1
1
1
1
1
1
1
1
1
1
1
1
1
1
1
1.00003
1.00003
1.00017
1.00018
1.00118
1.00166
1.01034
1.00757
1
1
1
1
1
1
1
1
1
1
1
1
1
1
1
1
1.00001
1.00001
1.00012
1.0002
1.00097
1.00123
1.00676
1.00281
1.02068
2.24802
2.09312
1.99143
1.93172
1.92765
1.96221
2.03404
2.09936
2.20428
2.29306
2.3554
2.38371
2.40203
2.42696
2.48163
2.59214
2.80875
3.00887
3.10402
3.11808
3.10818
3.05947
2.99654
2.97957
2.9759
2.96211
2.9432
2.93519
2.92485
2.91369
2.90898
2.90068
2.8966
2.89519
2.90149
2.90724
2.92195
2.93859
2.95586
2.97168
2.98421
2.99564
3.00087
3.00507
3.00689
3.00705
3.00399
3.00099
2.98892
2.98467
2.97314
2.96738
2.95586
2.95009
2.93835
2.93219
2.91875
2.91163
2.89695
2.88928
2.87491
2.86574
2.85195
2.84092
2.82708
2.81578
2.80167
2.79007
2.77657
2.76474
2.75134
2.74034
2.72704
2.71627
2.70393
2.69286
2.68128
2.67013
2.65851
2.64771
2.63609
2.62525
2.61418
2.60287
2.59236
2.58086
2.57037
2.55925
2.54809
2.53798
2.52585
2.51653
2.50424
2.49454
2.48283
2.47307
2.46166
2.45447
2.44503
2.44463
2.1775
2.06147
1.98865
1.94706
1.93316
1.93819
1.946
1.93585
1.91358
1.89766
1.89247
1.90287
1.92676
1.96144
2.02988
2.13542
2.35355
2.65163
2.81884
2.91189
2.98804
3.03582
3.05789
3.07159
3.08054
3.08565
3.08263
3.07355
3.07064
3.07509
3.07625
3.07076
3.06482
3.068
3.0728
3.07565
3.08057
3.08222
3.08293
3.07303
3.05479
3.04527
3.02243
3.00555
2.98227
2.96096
2.93839
2.92021
2.89938
2.88209
2.86372
2.84606
2.82977
2.81196
2.79669
2.77904
2.76402
2.74619
2.73046
2.7139
2.69827
2.6819
2.66629
2.65118
2.63589
2.62142
2.6066
2.59225
2.57783
2.56356
2.54982
2.53542
2.52265
2.50838
2.49608
2.48248
2.46991
2.45723
2.44407
2.43219
2.41857
2.40722
2.39331
2.3825
2.3683
2.35807
2.34362
2.33391
2.31924
2.30999
2.29521
2.28621
2.27177
2.26317
2.2497
2.24179
2.22976
2.22399
2.21464
2.21495
2.19071
2.09734
2.02103
1.95997
1.90885
1.85616
1.8068
1.76363
1.73165
1.70925
1.70566
1.70905
1.72019
1.74127
1.78627
1.85507
2.0507
2.24368
2.48211
2.63009
2.66684
2.71509
2.79469
2.85961
2.92032
2.97191
3.01064
3.04248
3.06943
3.09068
3.10786
3.12121
3.12961
3.13447
3.13752
3.13852
3.12556
3.09678
3.06774
3.02688
2.99105
2.95407
2.92147
2.88922
2.86514
2.83698
2.81795
2.79362
2.77789
2.75685
2.74358
2.72395
2.71173
2.69389
2.6822
2.66692
2.65429
2.64117
2.62722
2.61467
2.60115
2.58844
2.57637
2.56335
2.55182
2.53854
2.52652
2.51336
2.50067
2.48787
2.47472
2.46252
2.44874
2.4376
2.42317
2.41298
2.39806
2.3883
2.37332
2.36352
2.34875
2.33898
2.32414
2.31446
2.29951
2.28974
2.27501
2.26503
2.2505
2.2405
2.22614
2.21582
2.20218
2.19117
2.17836
2.16781
2.1556
2.1475
2.13784
2.13569
2.20171
2.11811
2.04398
1.97522
1.9136
1.85619
1.80603
1.76066
1.72548
1.69779
1.67987
1.66857
1.66772
1.67112
1.68434
1.72142
1.81415
1.96624
2.26786
2.39557
2.46578
2.52173
2.562
2.60869
2.65853
2.69967
2.75631
2.81534
2.8725
2.91983
2.96077
3.00757
3.04052
3.05734
3.05374
3.03613
3.0025
2.95118
2.90153
2.85016
2.81365
2.7809
2.75303
2.72962
2.70934
2.69148
2.67507
2.661
2.64595
2.63558
2.62055
2.61242
2.59696
2.58927
2.57496
2.56798
2.55346
2.54585
2.53122
2.52417
2.50992
2.50255
2.48836
2.48052
2.46658
2.45864
2.44501
2.43671
2.42309
2.41418
2.40062
2.39112
2.37775
2.36762
2.35465
2.3442
2.33171
2.32092
2.30862
2.29715
2.28509
2.27327
2.26172
2.25008
2.23876
2.22733
2.21567
2.20445
2.19254
2.18143
2.16978
2.15843
2.14737
2.13584
2.12518
2.11425
2.10381
2.09453
2.08592
2.08159
2.21735
2.14077
2.06911
2.00331
1.94217
1.88574
1.83595
1.78911
1.74997
1.7131
1.68251
1.658
1.63783
1.63139
1.63346
1.64677
1.68358
1.7674
1.97362
2.24661
2.32092
2.36394
2.41203
2.44728
2.47423
2.51046
2.53984
2.57854
2.62205
2.67376
2.72452
2.76887
2.80711
2.82892
2.82751
2.80741
2.77057
2.72488
2.67858
2.64453
2.61754
2.606
2.59518
2.59008
2.58072
2.57554
2.56793
2.56421
2.55743
2.55382
2.54653
2.54103
2.53037
2.52367
2.51402
2.50906
2.49927
2.49231
2.4802
2.47134
2.45995
2.4517
2.44155
2.43192
2.42116
2.41038
2.39968
2.38895
2.37799
2.36666
2.35511
2.34397
2.33269
2.32253
2.31145
2.30116
2.28951
2.27816
2.2661
2.2545
2.24279
2.23144
2.21997
2.20856
2.19721
2.18609
2.1745
2.16365
2.15135
2.14068
2.12849
2.11795
2.10687
2.09614
2.08574
2.07502
2.06464
2.05553
2.04675
2.04319
2.22298
2.15679
2.09204
2.02956
1.97428
1.91872
1.87097
1.82447
1.78262
1.74564
1.71013
1.68205
1.65396
1.63535
1.62308
1.62435
1.6366
1.66711
1.75344
1.94352
2.19914
2.26705
2.29602
2.33226
2.35673
2.37709
2.40947
2.43644
2.47091
2.49964
2.53478
2.58186
2.62205
2.66023
2.66052
2.64083
2.60633
2.56056
2.52715
2.50178
2.48781
2.48305
2.4846
2.48938
2.49153
2.49094
2.48903
2.48632
2.48215
2.47937
2.47408
2.46971
2.46056
2.45392
2.44399
2.43875
2.43012
2.4232
2.41208
2.40196
2.39003
2.38014
2.37049
2.36198
2.35256
2.34239
2.33136
2.32049
2.31005
2.30031
2.2899
2.2794
2.26772
2.25681
2.24537
2.23498
2.22385
2.21282
2.20118
2.18923
2.17767
2.16602
2.15507
2.14421
2.1328
2.12213
2.11002
2.09976
2.08798
2.07782
2.06657
2.05577
2.04493
2.03406
2.02372
2.01392
2.00392
1.99583
1.98731
1.98384
2.22905
2.16581
2.10966
2.05076
1.99801
1.94869
1.89916
1.85777
1.81397
1.77762
1.74184
1.70906
1.68181
1.65383
1.63474
1.61815
1.61916
1.62722
1.66149
1.73239
1.91118
2.15303
2.21825
2.23534
2.26792
2.29391
2.31036
2.33734
2.36674
2.39954
2.43177
2.47795
2.5273
2.55528
2.55719
2.53878
2.50283
2.46836
2.43237
2.41012
2.39638
2.38963
2.38617
2.39263
2.40005
2.4063
2.41036
2.41179
2.4108
2.40877
2.40541
2.40257
2.39696
2.39108
2.38333
2.37796
2.37305
2.36698
2.35971
2.35056
2.34132
2.33205
2.32399
2.31609
2.30848
2.29944
2.29033
2.2799
2.2701
2.26039
2.25093
2.2423
2.2325
2.22328
2.21262
2.20235
2.1917
2.18107
2.17062
2.15944
2.14842
2.13689
2.1258
2.11489
2.10405
2.09371
2.08233
2.07181
2.05996
2.04938
2.03821
2.02765
2.01707
2.00618
1.99557
1.98481
1.97472
1.96566
1.95758
1.95376
2.23733
2.17989
2.12349
2.07237
2.01859
1.97277
1.9267
1.88352
1.84512
1.80568
1.77253
1.73866
1.70893
1.68198
1.65519
1.63659
1.61821
1.61833
1.62452
1.65561
1.71921
1.87644
2.10276
2.1738
2.19123
2.21349
2.23866
2.25687
2.29302
2.32969
2.38255
2.44098
2.49678
2.51815
2.5132
2.48996
2.45294
2.40744
2.36944
2.34166
2.32927
2.31942
2.31388
2.31607
2.32403
2.33266
2.3427
2.34872
2.3519
2.35297
2.35249
2.35083
2.3477
2.34273
2.3367
2.33118
2.32712
2.323
2.31778
2.31036
2.30162
2.29305
2.2845
2.27687
2.26871
2.26053
2.25114
2.24171
2.23168
2.22253
2.21308
2.20456
2.19502
2.18602
2.17577
2.16583
2.15523
2.14459
2.13388
2.12279
2.11173
2.10055
2.08886
2.0782
2.06647
2.05678
2.04539
2.03592
2.02461
2.01435
2.00323
1.99235
1.98193
1.97125
1.96111
1.95113
1.94045
1.93175
1.92222
1.91802
2.24403
2.19401
2.14192
2.09136
2.04316
1.99455
1.95183
1.90888
1.86912
1.83318
1.79628
1.76539
1.73336
1.70491
1.67955
1.65277
1.63516
1.61517
1.61513
1.61965
1.64389
1.71859
1.83232
2.03573
2.11744
2.14827
2.17892
2.21175
2.24332
2.28425
2.35548
2.43833
2.49466
2.50184
2.49039
2.4598
2.42056
2.37183
2.33012
2.30095
2.2786
2.26622
2.25844
2.25177
2.25446
2.26193
2.27229
2.28462
2.29215
2.29809
2.30021
2.29994
2.29796
2.29364
2.28814
2.28285
2.27929
2.27653
2.27293
2.26774
2.2602
2.25236
2.24409
2.23683
2.22915
2.22181
2.21346
2.20511
2.1959
2.1871
2.17795
2.1696
2.1606
2.15232
2.14269
2.13386
2.12352
2.114
2.10343
2.09351
2.08298
2.07262
2.0619
2.05123
2.0404
2.0299
2.01946
2.00929
1.99932
1.98911
1.979
1.9686
1.95794
1.94784
1.93708
1.92773
1.91773
1.90917
1.90112
1.89609
2.24532
2.20291
2.1574
2.11175
2.06626
2.02232
1.97849
1.93865
1.89847
1.86173
1.82707
1.79239
1.76315
1.73146
1.70552
1.67901
1.65479
1.63553
1.61661
1.61503
1.61888
1.64014
1.70393
1.80476
1.98549
2.07673
2.11688
2.16281
2.20919
2.26388
2.36293
2.45216
2.49061
2.48785
2.46978
2.43567
2.38851
2.34058
2.30316
2.27
2.24458
2.22876
2.21839
2.21644
2.21109
2.21292
2.21872
2.22678
2.23753
2.24535
2.25323
2.25616
2.25592
2.2537
2.24903
2.24386
2.2399
2.23698
2.23356
2.22965
2.22351
2.21686
2.20929
2.20208
2.19425
2.1867
2.17833
2.17051
2.16212
2.15425
2.14559
2.13733
2.12814
2.11943
2.10971
2.10046
2.09038
2.08082
2.07094
2.06146
2.05187
2.0425
2.03277
2.02323
2.01282
2.00299
1.99203
1.98217
1.97119
1.96153
1.95081
1.94122
1.93073
1.92097
1.9107
1.90093
1.89126
1.88253
1.87465
1.87029
2.24174
2.20504
2.16411
2.1243
2.08233
2.04241
2.00201
1.96343
1.92609
1.8903
1.85552
1.82372
1.79111
1.76328
1.73347
1.70847
1.6828
1.65979
1.64035
1.62188
1.6196
1.6227
1.64237
1.69587
1.78952
1.95662
2.05359
2.11238
2.19472
2.28901
2.41038
2.48112
2.4885
2.4795
2.45217
2.4129
2.36577
2.32301
2.28635
2.25333
2.22703
2.20834
2.19648
2.18846
2.17944
2.17501
2.17252
2.17722
2.18403
2.1948
2.2027
2.20997
2.21156
2.21118
2.20841
2.20386
2.1984
2.19409
2.18954
2.18547
2.18032
2.17479
2.16784
2.161
2.15358
2.14669
2.1392
2.13191
2.12421
2.11666
2.10851
2.10026
2.09122
2.08241
2.073
2.06407
2.0547
2.0459
2.03665
2.02799
2.01876
2.01017
2.00076
1.99212
1.98236
1.97332
1.96327
1.9536
1.94357
1.9336
1.92386
1.9142
1.90469
1.89567
1.88613
1.87773
1.86838
1.86098
1.85331
1.84976
2.23978
2.20491
2.17122
2.13212
2.09682
2.05691
2.02155
1.98309
1.94859
1.91307
1.88031
1.8477
1.81758
1.78761
1.76019
1.73324
1.70789
1.68485
1.66141
1.64363
1.62612
1.62421
1.62769
1.64642
1.69523
1.78482
1.94394
2.0679
2.17376
2.36402
2.47262
2.49549
2.49175
2.47372
2.44307
2.39547
2.35155
2.31402
2.28051
2.2486
2.22103
2.20154
2.18392
2.17018
2.15374
2.1437
2.13651
2.13369
2.13495
2.13953
2.14737
2.15391
2.15935
2.16253
2.16276
2.1616
2.15829
2.15443
2.14984
2.14576
2.14103
2.13595
2.12973
2.12358
2.117
2.11113
2.10494
2.09875
2.09175
2.08456
2.07675
2.06902
2.0606
2.0523
2.04329
2.03464
2.02555
2.01685
2.00791
1.9994
1.99067
1.98238
1.97356
1.96522
1.95613
1.94747
1.93826
1.92915
1.91989
1.91045
1.90108
1.89184
1.88234
1.87382
1.86433
1.85668
1.84758
1.84123
1.83406
1.83137
2.23259
2.20262
2.17125
2.13917
2.10436
2.07161
2.03574
2.00278
1.96816
1.93536
1.90341
1.87147
1.8424
1.81221
1.78589
1.75763
1.7344
1.70783
1.68797
1.6643
1.64831
1.63317
1.63421
1.63973
1.66228
1.72015
1.81214
2.0034
2.18191
2.42963
2.52763
2.52089
2.50334
2.46625
2.42319
2.3848
2.35102
2.3197
2.28384
2.24848
2.21833
2.19385
2.17348
2.14966
2.12781
2.11105
2.10099
2.09435
2.09194
2.08818
2.0911
2.09587
2.10346
2.10938
2.11352
2.11547
2.11564
2.11382
2.11066
2.10792
2.1044
2.10094
2.09598
2.09069
2.08467
2.0788
2.07266
2.0666
2.06011
2.05349
2.04625
2.03914
2.03147
2.02419
2.0163
2.00876
2.00043
1.99232
1.98355
1.97514
1.96617
1.95788
1.94878
1.94065
1.93158
1.92341
1.91457
1.90607
1.89739
1.88856
1.87979
1.87121
1.86222
1.85445
1.84536
1.83855
1.82987
1.82427
1.81743
1.81511
2.22226
2.19478
2.16737
2.1388
2.1083
2.07692
2.04618
2.01371
1.98334
1.95172
1.92134
1.89217
1.86207
1.83536
1.80692
1.78174
1.75661
1.73177
1.7112
1.68718
1.67175
1.65358
1.65232
1.65611
1.67111
1.71394
1.78457
1.98121
2.14997
2.44466
2.53109
2.52109
2.48864
2.45776
2.41987
2.38496
2.34987
2.3081
2.26632
2.22857
2.20203
2.17957
2.15521
2.12963
2.10628
2.08833
2.07335
2.06271
2.05397
2.05085
2.04758
2.04905
2.05347
2.06098
2.06592
2.07144
2.07334
2.07502
2.07415
2.07256
2.07072
2.06855
2.06547
2.06099
2.05552
2.04955
2.04333
2.03705
2.0308
2.02471
2.01826
2.01193
2.00477
1.99801
1.99043
1.98338
1.97539
1.96784
1.95929
1.95135
1.94241
1.93461
1.92558
1.91797
1.9091
1.90139
1.89294
1.88493
1.87672
1.86847
1.85992
1.85192
1.84286
1.83574
1.82668
1.82078
1.8125
1.80774
1.80179
1.80014
2.2153
2.19119
2.16358
2.13686
2.1091
2.08086
2.0515
2.02295
1.99244
1.96525
1.93443
1.90828
1.87916
1.85313
1.82696
1.80083
1.77822
1.75248
1.7335
1.71027
1.69553
1.68287
1.68414
1.68997
1.71028
1.75263
1.83232
1.9622
2.10482
2.28532
2.41869
2.44024
2.4329
2.41471
2.37766
2.33707
2.30417
2.27379
2.24214
2.21253
2.18569
2.16068
2.13465
2.1112
2.08914
2.07159
2.05405
2.04081
2.02956
2.02397
2.01885
2.01749
2.01597
2.01889
2.02518
2.03191
2.03824
2.04105
2.04305
2.04284
2.04124
2.03924
2.03682
2.03353
2.02908
2.02391
2.01879
2.01366
2.00844
2.00308
1.9969
1.9906
1.98334
1.97655
1.96878
1.96169
1.95362
1.94634
1.938
1.93067
1.92203
1.91475
1.90597
1.89859
1.88991
1.88217
1.87386
1.86594
1.85802
1.85039
1.84237
1.83536
1.82695
1.82091
1.81256
1.80772
1.80013
1.79647
1.79229
1.7913
2.20158
2.18143
2.15807
2.13263
2.10621
2.08082
2.05353
2.02801
1.99906
1.97407
1.94529
1.92043
1.893
1.86856
1.84265
1.81973
1.79492
1.77476
1.75236
1.73704
1.72322
1.72311
1.72953
1.74566
1.77953
1.8562
1.9352
2.00725
2.05792
2.14398
2.25473
2.33992
2.37638
2.3732
2.35765
2.33194
2.3016
2.27073
2.23874
2.20909
2.18174
2.15584
2.1297
2.10571
2.08486
2.06497
2.04685
2.02962
2.0163
2.00537
1.99813
1.99261
1.98954
1.98679
1.98807
1.99176
1.99891
2.00372
2.00929
2.01127
2.01275
2.01139
2.00978
2.00756
2.00497
2.00061
1.99552
1.99022
1.98498
1.97987
1.97404
1.96825
1.96151
1.95526
1.94801
1.94144
1.93375
1.92685
1.91872
1.91166
1.90324
1.8962
1.88777
1.88067
1.87245
1.86502
1.85708
1.84943
1.8417
1.83445
1.82662
1.82047
1.81239
1.8077
1.79981
1.79629
1.79001
1.78813
1.78711
1.78617
2.18704
2.17023
2.15133
2.12848
2.10511
2.07879
2.05434
2.02942
2.00411
1.97858
1.95387
1.92803
1.90474
1.87919
1.85716
1.83306
1.81312
1.79183
1.77664
1.76492
1.76531
1.77304
1.79009
1.82791
1.89954
1.97153
2.0116
2.02738
2.03918
2.06374
2.11696
2.18754
2.27329
2.32233
2.32984
2.3199
2.30557
2.27971
2.24631
2.21467
2.18555
2.15679
2.13022
2.10604
2.08532
2.06355
2.04448
2.025
2.00944
1.99488
1.98387
1.97462
1.96818
1.96268
1.96125
1.96017
1.96242
1.9679
1.97251
1.97899
1.98082
1.98265
1.98181
1.98045
1.97888
1.9768
1.9728
1.96797
1.96254
1.95743
1.95146
1.94579
1.93912
1.93317
1.92624
1.92011
1.9128
1.90632
1.89848
1.89177
1.88351
1.87676
1.86845
1.8617
1.85376
1.84687
1.83937
1.8324
1.82502
1.81859
1.81105
1.80593
1.79871
1.79474
1.78857
1.78562
1.78264
1.78295
1.78413
1.783
2.16329
2.14744
2.13447
2.11742
2.09988
2.07811
2.05386
2.03131
2.00711
1.98435
1.95966
1.93689
1.91258
1.89061
1.86786
1.84761
1.82836
1.8131
1.80586
1.80712
1.81667
1.84032
1.87784
1.94871
2.01584
2.04245
2.04382
2.03414
2.02961
2.03152
2.04542
2.08348
2.13973
2.22513
2.27726
2.29695
2.29238
2.28155
2.25721
2.22767
2.19608
2.16429
2.13606
2.11125
2.0877
2.06508
2.044
2.02377
2.00562
1.98901
1.97387
1.96149
1.95098
1.94337
1.93711
1.93352
1.93138
1.93228
1.93566
1.94019
1.946
1.94884
1.95196
1.95182
1.95054
1.94936
1.94694
1.94353
1.93815
1.93309
1.9272
1.92206
1.91589
1.9105
1.90402
1.89829
1.89127
1.88516
1.87761
1.87126
1.86336
1.85681
1.8489
1.84226
1.83475
1.82819
1.82112
1.81497
1.80804
1.80266
1.7961
1.79171
1.78616
1.7823
1.7789
1.77738
1.77828
1.77969
1.78438
1.78285
2.14582
2.12839
2.11319
2.09784
2.08201
2.0686
2.05046
2.03025
2.00878
1.98752
1.96578
1.94409
1.92243
1.90148
1.88132
1.8639
1.85056
1.84547
1.85013
1.86169
1.89217
1.9353
2.00451
2.05705
2.07493
2.06755
2.05639
2.04142
2.02192
2.01894
2.02148
2.03281
2.05889
2.10945
2.18133
2.23532
2.26229
2.26115
2.25075
2.23418
2.20675
2.17517
2.14515
2.11713
2.09041
2.06631
2.04358
2.0228
2.00207
1.98403
1.96607
1.95086
1.93695
1.92569
1.91639
1.90896
1.90363
1.90224
1.90079
1.90273
1.90716
1.91146
1.91734
1.91884
1.92091
1.91968
1.91883
1.91728
1.91398
1.9095
1.90392
1.89902
1.89318
1.88805
1.88175
1.87627
1.86939
1.86365
1.85639
1.85058
1.84307
1.83721
1.82958
1.8238
1.81624
1.81063
1.80348
1.79815
1.79196
1.78724
1.78247
1.77843
1.77483
1.77249
1.77202
1.77313
1.77576
1.77834
1.78707
1.78793
2.13968
2.1214
2.10423
2.08668
2.07
2.05236
2.03732
2.0212
2.00477
1.9864
1.96736
1.9485
1.93015
1.91274
1.8982
1.88805
1.88704
1.89501
1.9105
1.9459
1.99691
2.06403
2.10322
2.10976
2.09811
2.08354
2.06335
2.03988
2.02323
2.00999
2.00963
2.0109
2.01972
2.03975
2.08179
2.13332
2.18893
2.22011
2.22511
2.21632
2.20488
2.18149
2.15348
2.12279
2.09361
2.06808
2.04351
2.02045
1.99844
1.97851
1.95938
1.94173
1.92565
1.91146
1.89932
1.88963
1.88091
1.8756
1.87221
1.87091
1.87171
1.8751
1.87952
1.88555
1.88755
1.89121
1.89081
1.89028
1.88885
1.88647
1.88153
1.87689
1.8711
1.86636
1.86034
1.85525
1.84879
1.84344
1.8366
1.83134
1.82405
1.81902
1.81136
1.80645
1.79914
1.79404
1.78783
1.78279
1.77804
1.77418
1.77056
1.7678
1.76643
1.76717
1.76879
1.77064
1.77595
1.78217
1.79228
1.79785
2.12955
2.11501
2.10015
2.08349
2.06686
2.04897
2.03103
2.01392
1.99634
1.98023
1.96412
1.94897
1.93508
1.92404
1.91991
1.92392
1.93555
1.96158
1.99832
2.06153
2.11698
2.14364
2.14189
2.12824
2.11154
2.0838
2.06156
2.04012
2.02485
2.01144
2.00212
1.99964
2.00022
2.0049
2.01861
2.0488
2.08764
2.14028
2.17142
2.18497
2.18076
2.17091
2.15314
2.1266
2.09909
2.07205
2.04491
2.01902
1.99606
1.97455
1.95462
1.93486
1.91829
1.9014
1.8876
1.87446
1.86427
1.85505
1.8484
1.84419
1.84311
1.84298
1.84505
1.84917
1.85416
1.85817
1.86156
1.86183
1.8615
1.86069
1.85853
1.85519
1.84974
1.84494
1.83922
1.83452
1.8285
1.82385
1.81719
1.81258
1.80549
1.80095
1.79409
1.78938
1.78328
1.77851
1.77368
1.76965
1.76631
1.76337
1.76127
1.76092
1.76223
1.76474
1.76735
1.77403
1.7802
1.79167
1.8003
1.80407
2.10621
2.09518
2.0861
2.07517
2.06162
2.04645
2.02906
2.01287
1.99518
1.97945
1.965
1.95278
1.94628
1.94649
1.95673
1.97217
2.00539
2.05362
2.11773
2.16115
2.17558
2.16881
2.15479
2.13199
2.10568
2.0809
2.06023
2.04357
2.02675
2.01437
2.00076
1.99262
1.9855
1.98564
1.98694
1.99516
2.01422
2.04758
2.08781
2.1228
2.14214
2.14323
2.13502
2.12274
2.10249
2.07727
2.04866
2.02179
1.99755
1.97387
1.95184
1.93175
1.91251
1.89507
1.87823
1.86371
1.85027
1.83927
1.82946
1.82147
1.81683
1.81421
1.81369
1.81454
1.81804
1.82209
1.8277
1.8296
1.83289
1.83247
1.83196
1.83055
1.82717
1.82297
1.81736
1.81297
1.80721
1.80295
1.79712
1.79283
1.78694
1.78241
1.77689
1.77233
1.76773
1.76389
1.76069
1.75819
1.75598
1.75499
1.75582
1.75765
1.75961
1.76541
1.77122
1.78197
1.78977
1.79702
1.80409
1.80509
2.09535
2.08013
2.0661
2.05479
2.04485
2.03623
2.02418
2.01018
1.9974
1.98281
1.97273
1.96834
1.97335
1.98559
2.01118
2.05003
2.10928
2.16526
2.19488
2.19824
2.18956
2.17176
2.14626
2.12108
2.09836
2.0789
2.06174
2.04623
2.0311
2.01736
2.00271
1.99061
1.97924
1.97129
1.96847
1.96943
1.97304
1.98473
2.00953
2.0389
2.07765
2.09743
2.10553
2.10109
2.09293
2.07813
2.05222
2.02801
2.00166
1.97623
1.95179
1.9299
1.90892
1.8894
1.87062
1.85417
1.83821
1.82484
1.81223
1.80199
1.79299
1.78732
1.78377
1.78336
1.78351
1.78621
1.7898
1.79528
1.79889
1.8027
1.80262
1.80244
1.80154
1.79952
1.79511
1.79102
1.78589
1.78175
1.77663
1.77241
1.76747
1.76337
1.75916
1.75544
1.75251
1.75014
1.7484
1.74746
1.74784
1.74943
1.75181
1.75646
1.76141
1.77147
1.77958
1.78756
1.79454
1.79668
1.80145
1.80018
2.089
2.07635
2.05812
2.04325
2.02809
2.01753
2.0074
2.00076
1.99267
1.99014
1.99266
2.00393
2.01995
2.05411
2.10284
2.16582
2.20903
2.22559
2.22172
2.21105
2.19127
2.1636
2.13835
2.11661
2.09788
2.08168
2.06706
2.05262
2.03822
2.02317
2.00826
1.9932
1.97942
1.96656
1.95723
1.95024
1.95035
1.95144
1.95672
1.97088
1.99637
2.0251
2.04921
2.06441
2.06377
2.05729
2.04538
2.02733
2.00437
1.97804
1.95266
1.92849
1.90565
1.88381
1.86387
1.84487
1.82782
1.81121
1.79754
1.78424
1.77408
1.76419
1.75816
1.75419
1.75336
1.75361
1.75504
1.75889
1.76418
1.76957
1.77234
1.77447
1.77461
1.77413
1.77258
1.76945
1.76501
1.76088
1.75667
1.75287
1.74889
1.7454
1.74216
1.73978
1.73869
1.73768
1.73797
1.73963
1.74205
1.74568
1.75126
1.76022
1.76895
1.77698
1.78511
1.78819
1.79222
1.79149
1.79149
1.79008
2.0735
2.06961
2.05737
2.04098
2.02568
2.01182
2.00228
1.9965
1.99774
2.0097
2.02379
2.05282
2.0971
2.16142
2.21693
2.24904
2.25562
2.24858
2.23258
2.20811
2.18045
2.15617
2.13563
2.11847
2.10358
2.08897
2.07472
2.05914
2.04376
2.02748
2.01143
1.99523
1.9795
1.96493
1.95048
1.93925
1.93064
1.92538
1.92596
1.92723
1.93436
1.95116
1.97299
2.00065
2.01545
2.02218
2.01842
2.01187
1.99875
1.97474
1.95286
1.92838
1.90396
1.88048
1.85923
1.8392
1.82004
1.80246
1.78632
1.77202
1.75899
1.74821
1.73821
1.7317
1.72731
1.72607
1.72662
1.72756
1.73158
1.73631
1.74211
1.74535
1.74904
1.74927
1.74921
1.74841
1.74633
1.74256
1.739
1.73566
1.73256
1.72999
1.72839
1.72761
1.72777
1.72883
1.73093
1.73444
1.74007
1.74783
1.75743
1.76549
1.77468
1.77937
1.78325
1.78329
1.78272
1.78159
1.77947
1.77698
2.04091
2.04978
2.04629
2.03884
2.02618
2.01508
2.00711
2.01126
2.02263
2.04389
2.08328
2.14188
2.21007
2.25659
2.27592
2.2736
2.26402
2.24423
2.216
2.19074
2.16902
2.15062
2.13463
2.11912
2.10445
2.0888
2.07378
2.05799
2.042
2.02608
2.00919
1.99326
1.97679
1.96056
1.94558
1.93064
1.91839
1.90756
1.90244
1.89768
1.89841
1.90073
1.91012
1.92701
1.94873
1.96857
1.98038
1.98089
1.97577
1.96634
1.95224
1.93023
1.90538
1.88182
1.85929
1.83759
1.81675
1.79797
1.78034
1.76402
1.74919
1.73634
1.7248
1.71518
1.70785
1.70303
1.70153
1.70199
1.70296
1.70573
1.71079
1.71689
1.72208
1.72491
1.7275
1.72788
1.72765
1.72667
1.72462
1.7221
1.72053
1.7195
1.71955
1.72029
1.72216
1.72475
1.73035
1.73692
1.74699
1.75498
1.76448
1.77112
1.77513
1.77704
1.77636
1.77531
1.7726
1.76994
1.76687
1.76441
2.01477
2.02787
2.03033
2.02727
2.02486
2.02239
2.03023
2.04571
2.07552
2.12157
2.19229
2.25463
2.28713
2.29441
2.28806
2.27293
2.24925
2.22175
2.19707
2.17602
2.15818
2.14246
2.12823
2.11456
2.10092
2.08635
2.07095
2.05479
2.03818
2.02201
2.00566
1.98987
1.97423
1.95806
1.9432
1.92734
1.91351
1.90034
1.88952
1.88083
1.8763
1.8731
1.87383
1.87698
1.88845
1.90407
1.92358
1.93743
1.9457
1.94311
1.93741