/*--------------------------------*- C++ -*----------------------------------*\
  =========                 |
  \\      /  F ield         | OpenFOAM: The Open Source CFD Toolbox
   \\    /   O peration     | Website:  https://openfoam.org
    \\  /    A nd           | Version:  6
     \\/     M anipulation  |
\*---------------------------------------------------------------------------*/
FoamFile
{
    version     2.0;
    format      ascii;
    class       volVectorField;
    location    "4";
    object      U;
}
// * * * * * * * * * * * * * * * * * * * * * * * * * * * * * * * * * * * * * //

dimensions      [0 1 -1 0 0 0 0];

internalField   nonuniform List<vector> 
5250
(
(2.99996 3.94378e-08 0)
(2.99989 2.52651e-07 0)
(2.9997 7.86671e-07 0)
(2.99932 2.14359e-06 0)
(2.99834 4.97342e-06 0)
(2.99636 1.19989e-05 0)
(2.99087 2.59141e-05 0)
(2.98029 6.33539e-05 0)
(2.94796 0.000130227 0)
(2.8764 0.000347135 0)
(2.67788 0.000760594 0)
(2.06171 0.00210422 0)
(0.696127 0.00551924 0)
(-0.154652 0.0131067 0)
(0.190125 0.0203637 0)
(0.500365 0.0262049 0)
(0.580298 0.0293203 0)
(0.527386 0.031467 0)
(0.426221 0.0323884 0)
(0.329947 0.0345012 0)
(0.26662 0.0378338 0)
(0.213296 0.041563 0)
(0.15549 0.0454709 0)
(0.0924647 0.050574 0)
(0.0442029 0.0582903 0)
(2.99996 1.21829e-07 0)
(2.99989 7.82082e-07 0)
(2.9997 2.43297e-06 0)
(2.99933 6.6447e-06 0)
(2.99835 1.54107e-05 0)
(2.99638 3.73387e-05 0)
(2.99091 8.06108e-05 0)
(2.98037 0.000198892 0)
(2.94817 0.000407071 0)
(2.87692 0.00110275 0)
(2.67923 0.00243622 0)
(2.06578 0.00683755 0)
(0.704327 0.0181169 0)
(-0.146499 0.0414023 0)
(0.199145 0.0602308 0)
(0.506629 0.0735162 0)
(0.582208 0.0791839 0)
(0.527214 0.0822873 0)
(0.426732 0.082676 0)
(0.332835 0.0858782 0)
(0.269909 0.091098 0)
(0.215227 0.0959585 0)
(0.155955 0.0996209 0)
(0.0914781 0.103241 0)
(0.0425272 0.107327 0)
(2.99996 2.11167e-07 0)
(2.99989 1.35765e-06 0)
(2.99971 4.22179e-06 0)
(2.99933 1.15546e-05 0)
(2.99837 2.68056e-05 0)
(2.99641 6.52092e-05 0)
(2.99099 0.000140862 0)
(2.98054 0.000350338 0)
(2.94865 0.000715365 0)
(2.87809 0.00196339 0)
(2.68232 0.00437024 0)
(2.07545 0.0124019 0)
(0.724911 0.0330643 0)
(-0.124122 0.0735881 0)
(0.214756 0.102478 0)
(0.514691 0.121783 0)
(0.584094 0.13101 0)
(0.5265 0.137217 0)
(0.42726 0.140587 0)
(0.337286 0.147692 0)
(0.275295 0.156754 0)
(0.218839 0.164735 0)
(0.157541 0.170671 0)
(0.090935 0.175291 0)
(0.0405449 0.178076 0)
(2.99996 3.05789e-07 0)
(2.99989 1.96718e-06 0)
(2.99971 6.1171e-06 0)
(2.99934 1.67604e-05 0)
(2.99839 3.88969e-05 0)
(2.99646 9.48304e-05 0)
(2.99112 0.000204943 0)
(2.98081 0.000512317 0)
(2.9494 0.00104222 0)
(2.87998 0.00288742 0)
(2.68735 0.0064443 0)
(2.0913 0.0183424 0)
(0.758387 0.0490305 0)
(-0.0887697 0.10698 0)
(0.236144 0.144734 0)
(0.52486 0.168466 0)
(0.587617 0.181021 0)
(0.528197 0.190926 0)
(0.431173 0.198972 0)
(0.345588 0.210862 0)
(0.284464 0.224424 0)
(0.226259 0.236648 0)
(0.162795 0.246402 0)
(0.0936761 0.254048 0)
(0.0403614 0.258144 0)
(2.99996 4.02668e-07 0)
(2.99989 2.59174e-06 0)
(2.99972 8.05708e-06 0)
(2.99935 2.20919e-05 0)
(2.99842 5.12495e-05 0)
(2.99653 0.000125167 0)
(2.9913 0.000270389 0)
(2.98118 0.000675558 0)
(2.95046 0.00139322 0)
(2.88261 0.00376545 0)
(2.69437 0.00874906 0)
(2.11347 0.0234873 0)
(0.806072 0.0654606 0)
(-0.0396952 0.1412 0)
(0.263452 0.187773 0)
(0.536879 0.214832 0)
(0.592538 0.229931 0)
(0.532554 0.243241 0)
(0.438727 0.256445 0)
(0.357542 0.273321 0)
(0.297429 0.291588 0)
(0.237811 0.308665 0)
(0.172267 0.323254 0)
(0.10015 0.334984 0)
(0.0424459 0.341533 0)
(2.99997 5.01729e-07 0)
(2.99989 3.23123e-06 0)
(2.99972 1.00408e-05 0)
(2.99937 2.7551e-05 0)
(2.99846 6.38659e-05 0)
(2.99662 0.000156282 0)
(2.99152 0.000337499 0)
(2.98166 0.000836341 0)
(2.95176 0.0017958 0)
(2.88614 0.00452464 0)
(2.70279 0.0114552 0)
(2.14089 0.0270917 0)
(0.869875 0.0821978 0)
(0.0222376 0.176818 0)
(0.296051 0.233436 0)
(0.55088 0.260131 0)
(0.599321 0.277265 0)
(0.540481 0.294107 0)
(0.451129 0.313289 0)
(0.374259 0.336092 0)
(0.315105 0.360056 0)
(0.254353 0.383 0)
(0.186825 0.403715 0)
(0.110733 0.421082 0)
(0.0465773 0.431091 0)
(2.99997 6.071e-07 0)
(2.9999 3.91052e-06 0)
(2.99973 1.21503e-05 0)
(2.99939 3.33457e-05 0)
(2.99851 7.72854e-05 0)
(2.99672 0.000189209 0)
(2.99179 0.00040866 0)
(2.98229 0.00100765 0)
(2.95327 0.00220535 0)
(2.89069 0.00537617 0)
(2.71208 0.0140566 0)
(2.17293 0.0316271 0)
(0.951335 0.0983367 0)
(0.0984833 0.213606 0)
(0.331784 0.281816 0)
(0.562153 0.304455 0)
(0.607183 0.323092 0)
(0.552269 0.343549 0)
(0.469186 0.369414 0)
(0.396886 0.398936 0)
(0.339142 0.429829 0)
(0.277899 0.460675 0)
(0.208436 0.490298 0)
(0.127261 0.516847 0)
(0.0540038 0.533728 0)
(2.99997 7.21774e-07 0)
(2.9999 4.64651e-06 0)
(2.99974 1.44423e-05 0)
(2.99941 3.96019e-05 0)
(2.99857 9.18451e-05 0)
(2.99685 0.000224323 0)
(2.99212 0.000484929 0)
(2.98303 0.0011933 0)
(2.95509 0.00258331 0)
(2.89604 0.00642156 0)
(2.72336 0.0160667 0)
(2.21116 0.0384197 0)
(1.04921 0.112687 0)
(0.191309 0.250475 0)
(0.371823 0.330878 0)
(0.57091 0.348817 0)
(0.616251 0.368224 0)
(0.568272 0.391923 0)
(0.493531 0.424667 0)
(0.426333 0.461675 0)
(0.371297 0.500884 0)
(0.311746 0.541626 0)
(0.242389 0.584346 0)
(0.155739 0.627424 0)
(0.0683734 0.660062 0)
(2.99997 8.47986e-07 0)
(2.99991 5.4536e-06 0)
(2.99976 1.69595e-05 0)
(2.99944 4.64341e-05 0)
(2.99864 0.000107775 0)
(2.99701 0.000262201 0)
(2.99251 0.000567336 0)
(2.98388 0.00139206 0)
(2.95726 0.0029519 0)
(2.90193 0.00758955 0)
(2.73702 0.0176802 0)
(2.25582 0.0464231 0)
(1.15826 0.126024 0)
(0.298668 0.287602 0)
(0.416033 0.379144 0)
(0.57886 0.392466 0)
(0.627275 0.412015 0)
(0.589025 0.43886 0)
(0.525069 0.477742 0)
(0.464446 0.523026 0)
(0.413952 0.571269 0)
(0.359915 0.624265 0)
(0.296652 0.686739 0)
(0.208743 0.758542 0)
(0.100119 0.833599 0)
(2.99997 9.91725e-07 0)
(2.99991 6.37568e-06 0)
(2.99977 1.98319e-05 0)
(2.99948 5.4269e-05 0)
(2.99872 0.000126023 0)
(2.99718 0.000306089 0)
(2.99295 0.000662712 0)
(2.98484 0.00162287 0)
(2.95982 0.00341171 0)
(2.90827 0.00888187 0)
(2.75341 0.0199946 0)
(2.30711 0.0547223 0)
(1.27589 0.142665 0)
(0.416967 0.331041 0)
(0.461708 0.418802 0)
(0.583733 0.434473 0)
(0.639451 0.453823 0)
(0.613717 0.485282 0)
(0.563249 0.527551 0)
(0.511363 0.579978 0)
(0.468893 0.637221 0)
(0.429291 0.705874 0)
(0.384976 0.794752 0)
(0.316557 0.91434 0)
(0.180088 1.10681 0)
(2.99997 1.15511e-06 0)
(2.99992 7.42939e-06 0)
(2.99979 2.31103e-05 0)
(2.99951 6.32904e-05 0)
(2.99881 0.000147042 0)
(2.99739 0.000357595 0)
(2.99347 0.00077484 0)
(2.98597 0.00189885 0)
(2.96281 0.00399956 0)
(2.91567 0.0103689 0)
(2.77242 0.0234546 0)
(2.36635 0.0635468 0)
(1.41232 0.16444 0)
(0.539344 0.385005 0)
(0.50427 0.449385 0)
(0.596176 0.470585 0)
(0.656139 0.490081 0)
(0.642508 0.525879 0)
(0.605631 0.570776 0)
(0.566981 0.628349 0)
(0.539208 0.695743 0)
(0.524988 0.780393 0)
(0.524319 0.889812 0)
(0.559765 1.03647 0)
(0.603903 1.25045 0)
(2.99998 1.32619e-06 0)
(2.99993 8.54205e-06 0)
(2.99981 2.65692e-05 0)
(2.99956 7.29391e-05 0)
(2.99892 0.000169598 0)
(2.99763 0.000414313 0)
(2.99408 0.000898937 0)
(2.98729 0.00221719 0)
(2.96631 0.00468051 0)
(2.92436 0.0119928 0)
(2.79455 0.028272 0)
(2.43481 0.0719426 0)
(1.57623 0.188748 0)
(0.668484 0.44739 0)
(0.539206 0.481981 0)
(0.613413 0.500064 0)
(0.677292 0.517424 0)
(0.676513 0.55622 0)
(0.653021 0.606026 0)
(0.631336 0.667825 0)
(0.624042 0.743082 0)
(0.637187 0.834454 0)
(0.675667 0.945911 0)
(0.7768 1.08073 0)
(0.932068 1.22628 0)
(2.99998 1.46087e-06 0)
(2.99993 9.41695e-06 0)
(2.99983 2.92998e-05 0)
(2.99961 8.05542e-05 0)
(2.99905 0.000187616 0)
(2.99791 0.000459177 0)
(2.9948 0.000998956 0)
(2.98884 0.00246944 0)
(2.97031 0.00518429 0)
(2.93519 0.0134646 0)
(2.81902 0.0310199 0)
(2.51245 0.0821214 0)
(1.77479 0.205874 0)
(0.810086 0.511626 0)
(0.569318 0.515338 0)
(0.632217 0.522443 0)
(0.702146 0.537979 0)
(0.717854 0.579649 0)
(0.70695 0.634126 0)
(0.700807 0.698051 0)
(0.711642 0.773525 0)
(0.745621 0.859908 0)
(0.807808 0.957481 0)
(0.923742 1.06219 0)
(1.09248 1.14247 0)
(2.99998 1.50301e-06 0)
(2.99994 9.68697e-06 0)
(2.99985 3.01479e-05 0)
(2.99967 8.29031e-05 0)
(2.99919 0.000193134 0)
(2.99821 0.000472927 0)
(2.99556 0.00102576 0)
(2.99046 0.00255172 0)
(2.97477 0.00522611 0)
(2.94568 0.0144446 0)
(2.84781 0.0298621 0)
(2.59786 0.0916375 0)
(1.98131 0.2166 0)
(0.959614 0.57521 0)
(0.599942 0.559786 0)
(0.659288 0.553958 0)
(0.737821 0.563123 0)
(0.767975 0.602054 0)
(0.766514 0.656258 0)
(0.770321 0.718155 0)
(0.793041 0.78737 0)
(0.839097 0.862834 0)
(0.911509 0.941815 0)
(1.02396 1.01823 0)
(1.17639 1.06841 0)
(2.99998 1.41422e-06 0)
(2.99995 9.10447e-06 0)
(2.99988 2.83343e-05 0)
(2.99972 7.77679e-05 0)
(2.99932 0.000181013 0)
(2.9985 0.000441694 0)
(2.99632 0.000956113 0)
(2.99202 0.0023602 0)
(2.97949 0.00485192 0)
(2.95536 0.0133361 0)
(2.87909 0.0265197 0)
(2.68968 0.0832741 0)
(2.21551 0.193921 0)
(1.16675 0.544282 0)
(0.688832 0.584806 0)
(0.719159 0.595953 0)
(0.791874 0.597803 0)
(0.830282 0.627887 0)
(0.833415 0.675897 0)
(0.840289 0.731599 0)
(0.867075 0.791558 0)
(0.917053 0.854366 0)
(0.99075 0.916561 0)
(1.0941 0.972305 0)
(1.22651 1.00707 0)
(2.99999 1.2457e-06 0)
(2.99996 8.00595e-06 0)
(2.9999 2.49208e-05 0)
(2.99977 6.81554e-05 0)
(2.99944 0.000158684 0)
(2.99876 0.000383851 0)
(2.99697 0.000835824 0)
(2.99341 0.00200805 0)
(2.98326 0.00427137 0)
(2.96332 0.0106809 0)
(2.90267 0.0230411 0)
(2.75532 0.0623278 0)
(2.37644 0.147153 0)
(1.36951 0.41209 0)
(0.778906 0.585292 0)
(0.773787 0.634351 0)
(0.836261 0.644716 0)
(0.88838 0.661233 0)
(0.899408 0.697697 0)
(0.908053 0.743866 0)
(0.934765 0.793413 0)
(0.983527 0.844093 0)
(1.0532 0.892523 0)
(1.14548 0.933812 0)
(1.25956 0.959394 0)
(2.99999 1.08842e-06 0)
(2.99997 6.99133e-06 0)
(2.99992 2.1764e-05 0)
(2.99981 5.94513e-05 0)
(2.99954 0.000138404 0)
(2.99899 0.000333855 0)
(2.99752 0.000727944 0)
(2.99462 0.00173556 0)
(2.9862 0.00371592 0)
(2.9706 0.00898264 0)
(2.91974 0.0202501 0)
(2.80233 0.0499267 0)
(2.48498 0.122246 0)
(1.57171 0.326654 0)
(0.890784 0.62136 0)
(0.814053 0.676252 0)
(0.860984 0.69518 0)
(0.921035 0.698417 0)
(0.949842 0.721179 0)
(0.966 0.756436 0)
(0.993827 0.79601 0)
(1.0404 0.835876 0)
(1.10463 0.873179 0)
(1.18641 0.904223 0)
(1.28467 0.923694 0)
(2.99999 9.64593e-07 0)
(2.99997 6.19809e-06 0)
(2.99993 1.92952e-05 0)
(2.99985 5.27532e-05 0)
(2.99963 0.00012281 0)
(2.99918 0.000296869 0)
(2.998 0.000645971 0)
(2.99567 0.00154992 0)
(2.98887 0.00328903 0)
(2.97672 0.00824843 0)
(2.93509 0.0173884 0)
(2.84659 0.0468205 0)
(2.59032 0.11035 0)
(1.822 0.30794 0)
(1.07036 0.669884 0)
(0.857172 0.708172 0)
(0.882203 0.726321 0)
(0.940316 0.72425 0)
(0.985713 0.737112 0)
(1.0125 0.764533 0)
(1.04328 0.797009 0)
(1.08794 0.828949 0)
(1.14724 0.857894 0)
(1.22036 0.881469 0)
(1.30571 0.896341 0)
(2.99999 8.48394e-07 0)
(2.99998 5.45483e-06 0)
(2.99995 1.69851e-05 0)
(2.99988 4.64936e-05 0)
(2.99971 0.000108337 0)
(2.99936 0.000262405 0)
(2.99844 0.000571252 0)
(2.99662 0.00137533 0)
(2.9914 0.00290807 0)
(2.98198 0.00747355 0)
(2.95051 0.0148149 0)
(2.88551 0.0435017 0)
(2.69531 0.096496 0)
(2.12096 0.281167 0)
(1.30616 0.672833 0)
(0.940882 0.73323 0)
(0.928248 0.745586 0)
(0.969729 0.743841 0)
(1.0221 0.747748 0)
(1.05693 0.76854 0)
(1.08889 0.795667 0)
(1.13042 0.822241 0)
(1.18415 0.845492 0)
(1.24943 0.863707 0)
(1.32432 0.875022 0)
(2.99999 7.10451e-07 0)
(2.99998 4.56502e-06 0)
(2.99996 1.42153e-05 0)
(2.99991 3.88655e-05 0)
(2.99978 9.05528e-05 0)
(2.99951 0.000218732 0)
(2.99882 0.000476522 0)
(2.99743 0.00113966 0)
(2.99362 0.00241748 0)
(2.9863 0.00607536 0)
(2.9641 0.0122899 0)
(2.91919 0.0337782 0)
(2.78403 0.077209 0)
(2.40449 0.211802 0)
(1.63687 0.539644 0)
(1.0779 0.735993 0)
(1.00273 0.761388 0)
(1.01883 0.768434 0)
(1.06528 0.765628 0)
(1.1046 0.777435 0)
(1.1356 0.797587 0)
(1.17224 0.818569 0)
(1.21929 0.836862 0)
(1.27659 0.850807 0)
(1.34222 0.859108 0)
(3 5.69551e-07 0)
(2.99999 3.65446e-06 0)
(2.99997 1.13804e-05 0)
(2.99993 3.10345e-05 0)
(2.99983 7.22536e-05 0)
(2.99963 0.000173616 0)
(2.99912 0.000378191 0)
(2.99808 0.000894807 0)
(2.99524 0.00190335 0)
(2.98991 0.00462173 0)
(2.97296 0.00967084 0)
(2.94265 0.0248018 0)
(2.8381 0.055094 0)
(2.57028 0.151219 0)
(1.94873 0.37468 0)
(1.21828 0.754451 0)
(1.05204 0.791601 0)
(1.05624 0.802776 0)
(1.09833 0.796388 0)
(1.14492 0.794498 0)
(1.17838 0.805235 0)
(1.21186 0.819831 0)
(1.25297 0.833092 0)
(1.30288 0.843048 0)
(1.36017 0.848508 0)
(3 4.5134e-07 0)
(2.99999 2.89476e-06 0)
(2.99998 9.01608e-06 0)
(2.99995 2.45687e-05 0)
(2.99988 5.72053e-05 0)
(2.99973 0.000137219 0)
(2.99935 0.000298925 0)
(2.99859 0.00070481 0)
(2.99652 0.00149761 0)
(2.99253 0.00363579 0)
(2.98052 0.0074231 0)
(2.95858 0.0201625 0)
(2.88547 0.0396993 0)
(2.70683 0.122945 0)
(2.26445 0.288162 0)
(1.44722 0.720007 0)
(1.12582 0.815297 0)
(1.10107 0.830238 0)
(1.12663 0.827939 0)
(1.1746 0.817298 0)
(1.2157 0.817405 0)
(1.24901 0.824674 0)
(1.2855 0.832925 0)
(1.32899 0.839103 0)
(1.37913 0.842075 0)
(3 3.52774e-07 0)
(2.99999 2.26331e-06 0)
(2.99998 7.04925e-06 0)
(2.99996 1.9217e-05 0)
(2.99991 4.47539e-05 0)
(2.99981 0.000107422 0)
(2.99953 0.000234219 0)
(2.99899 0.000552454 0)
(2.99752 0.00117701 0)
(2.99466 0.0028313 0)
(2.98649 0.005942 0)
(2.97037 0.0151533 0)
(2.92269 0.0317235 0)
(2.80996 0.0876374 0)
(2.51643 0.209578 0)
(1.74704 0.562448 0)
(1.25383 0.81086 0)
(1.15873 0.843484 0)
(1.1642 0.853451 0)
(1.2026 0.843956 0)
(1.24687 0.833961 0)
(1.28254 0.83262 0)
(1.31659 0.835378 0)
(1.35506 0.838035 0)
(1.39906 0.838814 0)
(3 2.68604e-07 0)
(3 1.72317e-06 0)
(2.99999 5.36527e-06 0)
(2.99997 1.46172e-05 0)
(2.99994 3.40275e-05 0)
(2.99986 8.15634e-05 0)
(2.99968 0.000177781 0)
(2.9993 0.000418176 0)
(2.99829 0.000891252 0)
(2.99635 0.00212839 0)
(2.99063 0.00448787 0)
(2.9807 0.0110942 0)
(2.94617 0.02384 0)
(2.87706 0.062131 0)
(2.6711 0.145135 0)
(2.07013 0.404022 0)
(1.44724 0.800811 0)
(1.22214 0.865122 0)
(1.20438 0.875292 0)
(1.22556 0.868588 0)
(1.26825 0.85281 0)
(1.30943 0.844165 0)
(1.3449 0.84136 0)
(1.38084 0.840495 0)
(1.42016 0.838973 0)
(3 1.85972e-07 0)
(3 1.30696e-06 0)
(2.99999 3.83289e-06 0)
(2.99998 1.09788e-05 0)
(2.99996 2.42337e-05 0)
(2.99991 6.10745e-05 0)
(2.99978 0.000125373 0)
(2.99953 0.000312411 0)
(2.99885 0.000618122 0)
(2.99754 0.00159019 0)
(2.99387 0.00301375 0)
(2.9869 0.00850005 0)
(2.96587 0.0144919 0)
(2.92298 0.0485828 0)
(2.79717 0.0883799 0)
(2.44084 0.293067 0)
(1.78143 0.644963 0)
(1.34374 0.851505 0)
(1.2682 0.878401 0)
(1.26598 0.882905 0)
(1.29638 0.87082 0)
(1.33754 0.856639 0)
(1.37337 0.849849 0)
(1.40735 0.846086 0)
(1.44283 0.842476 0)
(3 1.30479e-07 0)
(3 9.10599e-07 0)
(3 2.68149e-06 0)
(2.99999 7.64421e-06 0)
(2.99997 1.69264e-05 0)
(2.99994 4.23984e-05 0)
(2.99986 8.73946e-05 0)
(2.99967 0.000215939 0)
(2.99929 0.000430448 0)
(2.99826 0.00108896 0)
(2.99634 0.00210657 0)
(2.9904 0.00559766 0)
(2.98071 0.0105118 0)
(2.9448 0.0299766 0)
(2.87537 0.0594521 0)
(2.66061 0.172236 0)
(2.08144 0.431302 0)
(1.51648 0.820651 0)
(1.32232 0.887355 0)
(1.30189 0.897091 0)
(1.31865 0.890851 0)
(1.35832 0.873778 0)
(1.39905 0.862083 0)
(1.43299 0.85508 0)
(1.46587 0.849364 0)
(3 1.01112e-07 0)
(3 5.79522e-07 0)
(3 1.94496e-06 0)
(2.99999 4.95153e-06 0)
(2.99998 1.22952e-05 0)
(2.99996 2.73801e-05 0)
(2.99991 6.41966e-05 0)
(2.99979 0.000137974 0)
(2.99954 0.000322304 0)
(2.99888 0.000681431 0)
(2.9976 0.00162065 0)
(2.994 0.0033552 0)
(2.98721 0.00850266 0)
(2.96684 0.0169618 0)
(2.92429 0.0463348 0)
(2.80378 0.103587 0)
(2.45705 0.286823 0)
(1.84146 0.661811 0)
(1.44192 0.858574 0)
(1.36455 0.893712 0)
(1.35834 0.901533 0)
(1.38469 0.892122 0)
(1.42446 0.875998 0)
(1.45904 0.865634 0)
(1.49012 0.858341 0)
(3 6.8493e-08 0)
(3 3.92562e-07 0)
(3 1.31606e-06 0)
(2.99999 3.34617e-06 0)
(2.99999 8.27994e-06 0)
(2.99997 1.83976e-05 0)
(2.99994 4.28602e-05 0)
(2.99987 9.1828e-05 0)
(2.99971 0.000212691 0)
(2.9993 0.000448518 0)
(2.99854 0.00105344 0)
(2.99625 0.00219456 0)
(2.99261 0.00531544 0)
(2.97835 0.0110643 0)
(2.95703 0.028025 0)
(2.8722 0.0617473 0)
(2.67076 0.16848 0)
(2.20418 0.40847 0)
(1.59026 0.814955 0)
(1.40916 0.899411 0)
(1.38743 0.914776 0)
(1.40158 0.913925 0)
(1.43828 0.898338 0)
(1.47862 0.882389 0)
(1.51187 0.871758 0)
(3 4.70992e-08 0)
(3 2.53337e-07 0)
(3 8.85976e-07 0)
(3 2.16926e-06 0)
(2.99999 5.55336e-06 0)
(2.99998 1.18695e-05 0)
(2.99996 2.86502e-05 0)
(2.99991 5.86891e-05 0)
(2.99981 0.000141766 0)
(2.99955 0.000282936 0)
(2.99904 0.000704568 0)
(2.99762 0.00133527 0)
(2.99497 0.00368706 0)
(2.98697 0.00614113 0)
(2.97192 0.020915 0)
(2.92561 0.0322863 0)
(2.81758 0.120831 0)
(2.54127 0.244056 0)
(1.89653 0.65726 0)
(1.52603 0.867778 0)
(1.43969 0.914437 0)
(1.43263 0.926056 0)
(1.45345 0.920499 0)
(1.49136 0.904027 0)
(1.52873 0.890083 0)
(3 2.95943e-08 0)
(3 1.69611e-07 0)
(3 5.68521e-07 0)
(3 1.44558e-06 0)
(3 3.5758e-06 0)
(2.99999 7.94494e-06 0)
(2.99998 1.8507e-05 0)
(2.99995 3.96822e-05 0)
(2.99989 9.19616e-05 0)
(2.99976 0.00019462 0)
(2.99941 0.000456549 0)
(2.99879 0.000958861 0)
(2.99677 0.00229749 0)
(2.99383 0.00480393 0)
(2.98115 0.0118204 0)
(2.96324 0.0257595 0)
(2.8876 0.0634708 0)
(2.72194 0.159352 0)
(2.30694 0.382376 0)
(1.70387 0.800159 0)
(1.49676 0.910861 0)
(1.46193 0.934035 0)
(1.46938 0.938062 0)
(1.49977 0.927027 0)
(1.53869 0.909245 0)
(3 1.62589e-08 0)
(3 1.09971e-07 0)
(3 3.29679e-07 0)
(3 9.1958e-07 0)
(3 2.0603e-06 0)
(2.99999 5.01321e-06 0)
(2.99999 1.04421e-05 0)
(2.99997 2.48145e-05 0)
(2.99993 5.01023e-05 0)
(2.99984 0.000120305 0)
(2.99967 0.000236458 0)
(2.99918 0.000591123 0)
(2.99832 0.00109268 0)
(2.99554 0.00308904 0)
(2.99126 0.00510705 0)
(2.97409 0.0176043 0)
(2.94701 0.0288851 0)
(2.84666 0.102416 0)
(2.59986 0.228983 0)
(2.08627 0.579555 0)
(1.63321 0.880831 0)
(1.51822 0.939066 0)
(1.50051 0.950141 0)
(1.51175 0.946996 0)
(1.54391 0.930628 0)
(3 1.11051e-08 0)
(3 6.37322e-08 0)
(3 2.12854e-07 0)
(3 5.40855e-07 0)
(3 1.32806e-06 0)
(3 2.93981e-06 0)
(2.99999 6.76705e-06 0)
(2.99998 1.44177e-05 0)
(2.99996 3.28763e-05 0)
(2.9999 6.89325e-05 0)
(2.9998 0.000158699 0)
(2.99951 0.000328638 0)
(2.99897 0.000780455 0)
(2.99741 0.00155801 0)
(2.9947 0.00406075 0)
(2.98563 0.00764808 0)
(2.97087 0.02281 0)
(2.91859 0.0446985 0)
(2.79951 0.13537 0)
(2.50674 0.322945 0)
(1.91481 0.720264 0)
(1.61057 0.901734 0)
(1.54592 0.943131 0)
(1.53854 0.952435 0)
(1.55358 0.946932 0)
(3 6.926e-09 0)
(3 3.9738e-08 0)
(3 1.3282e-07 0)
(3 3.37313e-07 0)
(3 8.29155e-07 0)
(3 1.83559e-06 0)
(3 4.23306e-06 0)
(2.99999 9.0304e-06 0)
(2.99998 2.06427e-05 0)
(2.99994 4.34564e-05 0)
(2.99988 0.000100123 0)
(2.99971 0.000209118 0)
(2.99939 0.000490028 0)
(2.9985 0.00100878 0)
(2.99687 0.00245862 0)
(2.99189 0.00492227 0)
(2.98328 0.0129958 0)
(2.95469 0.0256729 0)
(2.89592 0.07164 0)
(2.7299 0.164933 0)
(2.27823 0.425039 0)
(1.81864 0.780713 0)
(1.62284 0.903687 0)
(1.5799 0.937574 0)
(1.5768 0.946719 0)
(3 4.26539e-09 0)
(3 2.447e-08 0)
(3 8.17671e-08 0)
(3 2.076e-07 0)
(3 5.10164e-07 0)
(3 1.12903e-06 0)
(3 2.60302e-06 0)
(2.99999 5.55137e-06 0)
(2.99999 1.2687e-05 0)
(2.99997 2.67081e-05 0)
(2.99993 6.14962e-05 0)
(2.99984 0.000128509 0)
(2.99966 0.000299958 0)
(2.99918 0.000621714 0)
(2.99831 0.00148566 0)
(2.99564 0.00302475 0)
(2.99133 0.00759542 0)
(2.97556 0.0153462 0)
(2.9501 0.0406771 0)
(2.85984 0.0895022 0)
(2.62661 0.247099 0)
(2.17474 0.565768 0)
(1.76161 0.851754 0)
(1.63906 0.929347 0)
(1.61108 0.94874 0)
(3 2.62755e-09 0)
(3 1.45303e-08 0)
(3 4.97441e-08 0)
(3 1.23658e-07 0)
(3 3.09621e-07 0)
(3 6.71116e-07 0)
(3 1.57618e-06 0)
(3 3.28456e-06 0)
(2.99999 7.66074e-06 0)
(2.99998 1.57049e-05 0)
(2.99996 3.70047e-05 0)
(2.99991 7.50185e-05 0)
(2.99982 0.000179808 0)
(2.99956 0.000358858 0)
(2.99909 0.000890438 0)
(2.99771 0.00169767 0)
(2.99537 0.00456906 0)
(2.98748 0.00804849 0)
(2.97451 0.0245639 0)
(2.92965 0.0418084 0)
(2.83119 0.136224 0)
(2.58088 0.288331 0)
(2.05349 0.68 0)
(1.75039 0.880589 0)
(1.66131 0.93918 0)
(3 1.49214e-09 0)
(3 8.55184e-09 0)
(3 2.85612e-08 0)
(3 7.24793e-08 0)
(3 1.77836e-07 0)
(3 3.931e-07 0)
(3 9.04432e-07 0)
(3 1.92593e-06 0)
(3 4.39349e-06 0)
(2.99999 9.24174e-06 0)
(2.99998 2.12311e-05 0)
(2.99996 4.45312e-05 0)
(2.99991 0.000103019 0)
(2.99982 0.000216779 0)
(2.99955 0.000505196 0)
(2.99916 0.00105637 0)
(2.99752 0.00252178 0)
(2.99566 0.00517467 0)
(2.98519 0.0126804 0)
(2.97247 0.0261829 0)
(2.91124 0.0638557 0)
(2.79135 0.153251 0)
(2.48883 0.345997 0)
(1.96716 0.738768 0)
(1.7406 0.897297 0)
(3 7.15695e-10 0)
(3 4.66224e-09 0)
(3 1.42591e-08 0)
(3 3.87087e-08 0)
(3 8.77314e-08 0)
(3 2.061e-07 0)
(3 4.33136e-07 0)
(3 9.84839e-07 0)
(3 2.01239e-06 0)
(3 4.57113e-06 0)
(2.99999 9.17913e-06 0)
(2.99998 2.10565e-05 0)
(2.99997 4.14572e-05 0)
(2.99993 9.747e-05 0)
(2.99987 0.000182396 0)
(2.99963 0.0004659 0)
(2.9994 0.000779376 0)
(2.99773 0.00240015 0)
(2.99627 0.00361608 0)
(2.98361 0.0136448 0)
(2.97001 0.0216141 0)
(2.89527 0.0786106 0)
(2.74482 0.166278 0)
(2.40389 0.426329 0)
(1.92834 0.766642 0)
(3 3.81587e-10 0)
(3 2.14131e-09 0)
(3 7.20021e-09 0)
(3 1.78709e-08 0)
(3 4.33712e-08 0)
(3 9.26584e-08 0)
(3 2.07374e-07 0)
(3 4.20805e-07 0)
(3 9.20268e-07 0)
(3 1.81277e-06 0)
(3 3.96541e-06 0)
(2.99999 7.46825e-06 0)
(2.99998 1.69671e-05 0)
(2.99995 2.91828e-05 0)
(2.99989 7.28587e-05 0)
(2.99972 0.000107199 0)
(2.99943 0.000329258 0)
(2.99849 0.000407312 0)
(2.99698 0.00194268 0)
(2.99145 0.00242646 0)
(2.98296 0.0141846 0)
(2.9513 0.0214013 0)
(2.88926 0.0930219 0)
(2.71927 0.19026 0)
(2.29375 0.511917 0)
(3 1.99416e-10 0)
(3 1.14758e-09 0)
(3 3.80192e-09 0)
(3 9.61909e-09 0)
(3 2.3205e-08 0)
(3 5.07683e-08 0)
(3 1.13901e-07 0)
(3 2.38916e-07 0)
(3 5.29634e-07 0)
(3 1.09625e-06 0)
(3 2.45501e-06 0)
(3 5.062e-06 0)
(2.99999 1.15654e-05 0)
(2.99998 2.3836e-05 0)
(2.99994 5.58735e-05 0)
(2.99988 0.000114696 0)
(2.99969 0.000278677 0)
(2.99938 0.000564488 0)
(2.99833 0.00144329 0)
(2.99677 0.00286362 0)
(2.99063 0.00774423 0)
(2.98156 0.0153221 0)
(2.94699 0.042015 0)
(2.88034 0.0927515 0)
(2.69206 0.233205 0)
(3 9.9157e-11 0)
(3 6.24765e-10 0)
(3 1.95053e-09 0)
(3 5.19439e-09 0)
(3 1.19511e-08 0)
(3 2.75454e-08 0)
(3 5.87724e-08 0)
(3 1.31174e-07 0)
(3 2.73434e-07 0)
(3 6.11604e-07 0)
(3 1.26552e-06 0)
(3 2.8696e-06 0)
(2.99999 5.95109e-06 0)
(2.99999 1.36525e-05 0)
(2.99997 2.8527e-05 0)
(2.99994 6.61896e-05 0)
(2.99987 0.000137661 0)
(2.99967 0.00032707 0)
(2.99936 0.000660022 0)
(2.9982 0.00165427 0)
(2.99665 0.00320839 0)
(2.98988 0.00853447 0)
(2.98056 0.0169501 0)
(2.94307 0.044831 0)
(2.87148 0.101667 0)
(3 5.37167e-11 0)
(3 3.09112e-10 0)
(3 1.02482e-09 0)
(3 2.59382e-09 0)
(3 6.27075e-09 0)
(3 1.37356e-08 0)
(3 3.09266e-08 0)
(3 6.49685e-08 0)
(3 1.44597e-07 0)
(3 2.99728e-07 0)
(3 6.72328e-07 0)
(3 1.38956e-06 0)
(3 3.14988e-06 0)
(3 6.5423e-06 0)
(2.99999 1.49069e-05 0)
(2.99998 3.10384e-05 0)
(2.99995 7.14702e-05 0)
(2.99991 0.00014564 0)
(2.99971 0.000344825 0)
(2.99948 0.000669676 0)
(2.99823 0.00170472 0)
(2.99704 0.00313183 0)
(2.98934 0.00884589 0)
(2.98099 0.0168888 0)
(2.93705 0.0451639 0)
(3 2.42181e-11 0)
(3 1.52171e-10 0)
(3 4.74889e-10 0)
(3 1.25783e-09 0)
(3 2.88535e-09 0)
(3 6.56907e-09 0)
(3 1.3926e-08 0)
(3 3.0398e-08 0)
(3 6.27238e-08 0)
(3 1.35351e-07 0)
(3 2.76282e-07 0)
(3 5.94403e-07 0)
(3 1.18768e-06 0)
(3 2.61625e-06 0)
(3 4.9026e-06 0)
(2.99999 1.16193e-05 0)
(2.99998 1.98991e-05 0)
(2.99994 5.36639e-05 0)
(2.9999 9.28452e-05 0)
(2.99966 0.000252128 0)
(2.99934 0.00044127 0)
(2.998 0.00136802 0)
(2.9965 0.00181784 0)
(2.98674 0.0078529 0)
(2.97776 0.0140741 0)
(3 1.17785e-11 0)
(3 6.8168e-11 0)
(3 2.24386e-10 0)
(3 5.67664e-10 0)
(3 1.35305e-09 0)
(3 2.94601e-09 0)
(3 6.44898e-09 0)
(3 1.3395e-08 0)
(3 2.8411e-08 0)
(3 5.79727e-08 0)
(3 1.20552e-07 0)
(3 2.43359e-07 0)
(3 5.0328e-07 0)
(3 9.70233e-07 0)
(3 2.07643e-06 0)
(3 3.57269e-06 0)
(2.99999 8.56473e-06 0)
(2.99998 1.29662e-05 0)
(2.99992 4.11297e-05 0)
(2.99985 7.30072e-05 0)
(2.99946 0.000159274 0)
(2.99857 0.000317711 0)
(2.99699 0.000517999 0)
(2.99558 -0.000535144 0)
(2.97661 0.00450635 0)
(3 4.80771e-12 0)
(3 3.06585e-11 0)
(3 9.43362e-11 0)
(3 2.50781e-10 0)
(3 5.64939e-10 0)
(3 1.27966e-09 0)
(3 2.64102e-09 0)
(3 5.69872e-09 0)
(3 1.12382e-08 0)
(3 2.4228e-08 0)
(3 4.48632e-08 0)
(3 1.02772e-07 0)
(3 1.69159e-07 0)
(3 4.37065e-07 0)
(3 6.01779e-07 0)
(3 1.78671e-06 0)
(2.99999 1.98776e-06 0)
(2.99998 7.58168e-06 0)
(2.99996 2.62762e-06 0)
(2.99979 5.27845e-05 0)
(2.99961 -1.19487e-05 0)
(2.99841 0.000254665 0)
(2.99547 0.000321069 0)
(2.99164 0.000778153 0)
(2.99065 -0.00201081 0)
(3 2.14162e-12 0)
(3 1.23966e-11 0)
(3 4.05837e-11 0)
(3 1.02254e-10 0)
(3 2.41485e-10 0)
(3 5.20564e-10 0)
(3 1.12857e-09 0)
(3 2.30344e-09 0)
(3 4.91358e-09 0)
(3 9.65807e-09 0)
(3 2.13302e-08 0)
(3 3.98014e-08 0)
(3 9.41289e-08 0)
(3 1.6574e-07 0)
(3 4.5144e-07 0)
(3 8.24929e-07 0)
(3 2.13033e-06 0)
(2.99998 5.21326e-06 0)
(2.99997 2.67235e-06 0)
(2.99984 2.97125e-06 0)
(2.99969 4.96933e-05 0)
(2.99894 4.50224e-05 0)
(2.99761 0.00057532 0)
(2.99271 0.00236853 0)
(2.98979 0.00216616 0)
(3 8.42885e-13 0)
(3 4.86486e-12 0)
(3 1.59626e-11 0)
(3 4.00824e-11 0)
(3 9.4326e-11 0)
(3 2.01307e-10 0)
(3 4.33329e-10 0)
(3 8.67008e-10 0)
(3 1.84794e-09 0)
(3 3.45307e-09 0)
(3 7.89981e-09 0)
(3 1.35155e-08 0)
(3 3.57488e-08 0)
(3 5.6189e-08 0)
(3 1.99331e-07 0)
(3 4.04716e-07 0)
(3 5.50733e-07 0)
(2.99998 1.59918e-06 0)
(2.99996 -2.78333e-06 0)
(2.99984 -9.14189e-06 0)
(2.99965 1.89804e-05 0)
(2.99902 -4.07011e-05 0)
(2.9982 0.000240193 0)
(2.99347 0.000908878 0)
(2.98954 0.00147898 0)
(3 3.77139e-13 0)
(3 2.21121e-12 0)
(3 7.20877e-12 0)
(3 1.82613e-11 0)
(3 4.21699e-11 0)
(3 9.22292e-11 0)
(3 1.83242e-10 0)
(3 4.06721e-10 0)
(3 6.79795e-10 0)
(3 1.49611e-09 0)
(3 1.78306e-09 0)
(3 3.30556e-09 0)
(3 -4.11821e-09 0)
(3 -1.09333e-08 0)
(3 -1.02593e-07 0)
(3 -3.17418e-07 0)
(3 -7.90838e-07 0)
(2.99998 -1.9955e-06 0)
(2.99996 -6.06289e-06 0)
(2.99986 -1.28644e-05 0)
(2.99966 -4.77661e-05 0)
(2.9992 -0.000205143 0)
(2.99872 -0.00019958 0)
(2.99418 -0.00136303 0)
(2.99101 0.000108467 0)
(3 2.68945e-13 0)
(3 1.2807e-12 0)
(3 4.8137e-12 0)
(3 1.06786e-11 0)
(3 2.89121e-11 0)
(3 5.22295e-11 0)
(3 1.44611e-10 0)
(3 2.10204e-10 0)
(3 6.98418e-10 0)
(3 6.87487e-10 0)
(3 3.32592e-09 0)
(3 3.11805e-10 0)
(3 1.43736e-08 0)
(3 -2.53442e-08 0)
(3 4.43441e-08 0)
(3 -4.71875e-07 0)
(3 4.5474e-07 0)
(2.99997 -2.81042e-06 0)
(2.99995 7.80722e-06 0)
(2.9998 -1.57998e-06 0)
(2.99944 7.52597e-05 0)
(2.99885 2.79826e-05 0)
(2.99683 0.000248003 0)
(2.99391 -0.000546546 0)
(2.99341 0.00164182 0)
(3 1.08121e-13 0)
(3 6.29876e-13 0)
(3 2.03269e-12 0)
(3 5.17051e-12 0)
(3 1.17154e-11 0)
(3 2.61333e-11 0)
(3 5.15012e-11 0)
(3 1.03434e-10 0)
(3 1.81414e-10 0)
(3 3.14628e-10 0)
(3 4.41037e-10 0)
(3 6.18635e-10 0)
(3 1.56622e-09 0)
(3 2.54401e-09 0)
(3 8.39865e-09 0)
(3 9.10975e-08 0)
(2.99999 -1.34039e-07 0)
(2.99999 2.43113e-07 0)
(2.99996 -2.19923e-06 0)
(2.99993 -4.29226e-06 0)
(2.99968 -1.26251e-05 0)
(2.9994 -2.68319e-05 0)
(2.99803 -5.4298e-05 0)
(2.99593 -9.06276e-05 0)
(2.98589 -5.78044e-05 0)
(3 -1.38496e-14 0)
(3 2.1667e-13 0)
(3 2.29651e-14 0)
(3 1.67253e-12 0)
(3 -7.32504e-13 0)
(3 1.14838e-11 0)
(3 -2.21134e-11 0)
(3 7.74251e-11 0)
(3 -2.51743e-10 0)
(3 3.88504e-10 0)
(3 -2.48917e-09 0)
(3 1.94474e-09 0)
(3 -2.27632e-08 0)
(3 1.22102e-08 0)
(3 -1.86971e-07 0)
(3 1.47213e-07 0)
(3 -1.35824e-06 0)
(2.99997 1.11365e-06 0)
(2.99994 -1.74559e-05 0)
(2.99979 -1.65256e-05 0)
(2.99942 -0.000153619 0)
(2.9988 -0.000262987 0)
(2.99675 -0.000682404 0)
(2.99391 -0.00135971 0)
(2.9935 -0.00237075 0)
(1.17037 1.21137 0)
(1.58689 1.12361 0)
(1.84851 1.01564 0)
(2.01344 0.892177 0)
(2.10497 0.744941 0)
(2.12955 0.571593 0)
(2.11174 0.38346 0)
(2.05727 0.198292 0)
(1.9405 0.0323912 0)
(1.8073 -0.0555112 0)
(1.70794 -0.0580465 0)
(1.65847 -0.0215455 0)
(1.63058 0.0205721 0)
(1.59409 0.0496362 0)
(1.51405 0.0697229 0)
(1.33294 0.0892204 0)
(0.928165 0.117251 0)
(0.380805 0.172657 0)
(-0.0293316 0.187922 0)
(-0.139219 0.173497 0)
(-0.202318 0.138167 0)
(-0.296524 0.0899653 0)
(-0.410656 0.0436415 0)
(-0.520439 0.0150196 0)
(-0.62131 0.00658177 0)
(-0.705198 0.01082 0)
(-0.76996 0.0196059 0)
(-0.820386 0.0269074 0)
(-0.862389 0.0311001 0)
(-0.900674 0.0319762 0)
(-0.935028 0.0301029 0)
(-0.959838 0.0253915 0)
(-0.97458 0.0188973 0)
(-0.981352 0.0120868 0)
(-0.974418 0.0066331 0)
(-0.947399 0.00207319 0)
(-0.900193 -0.00276132 0)
(-0.832512 -0.00891139 0)
(-0.749284 -0.0158423 0)
(-0.658855 -0.0215938 0)
(-0.567628 -0.0265137 0)
(-0.47905 -0.0310127 0)
(-0.394986 -0.0356708 0)
(-0.313316 -0.0414775 0)
(-0.233687 -0.0469242 0)
(-0.157271 -0.0492785 0)
(-0.0836947 -0.0514979 0)
(-0.0130455 -0.0550134 0)
(0.0778541 -0.0578651 0)
(0.125634 -0.0513365 0)
(0.179406 -0.0463447 0)
(0.233785 -0.0421495 0)
(0.28789 -0.0391026 0)
(0.337572 -0.0361348 0)
(0.384967 -0.0338801 0)
(0.433897 -0.0325966 0)
(0.483608 -0.0320157 0)
(0.530591 -0.0305244 0)
(0.575487 -0.0289849 0)
(0.618628 -0.0274757 0)
(0.660581 -0.0261344 0)
(0.701245 -0.0248143 0)
(0.740875 -0.0235889 0)
(0.779373 -0.0223845 0)
(0.81687 -0.0212333 0)
(0.853374 -0.0200967 0)
(0.88897 -0.0190021 0)
(0.923684 -0.0179196 0)
(0.957619 -0.016865 0)
(0.990821 -0.0158234 0)
(1.02338 -0.0148054 0)
(1.05538 -0.0138117 0)
(1.08687 -0.0128556 0)
(1.11789 -0.0119412 0)
(1.14847 -0.0110759 0)
(1.1786 -0.0102623 0)
(1.20829 -0.00949657 0)
(1.23752 -0.00877569 0)
(1.26629 -0.00809442 0)
(1.29459 -0.00744322 0)
(1.32241 -0.00682365 0)
(1.34975 -0.00622303 0)
(1.37662 -0.00564992 0)
(1.403 -0.0050887 0)
(1.42891 -0.00455453 0)
(1.45434 -0.00402538 0)
(1.47933 -0.00352199 0)
(1.50386 -0.00301621 0)
(1.52795 -0.00253613 0)
(1.55161 -0.00205029 0)
(1.57484 -0.00158523 0)
(1.59765 -0.00112032 0)
(1.62006 -0.000686363 0)
(1.64205 -0.000259579 0)
(1.6635 0.000155825 0)
(1.68425 0.000594808 0)
(1.70394 0.00106477 0)
(1.7219 0.00161788 0)
(1.73638 0.00232038 0)
(1.74623 0.00326758 0)
(1.3123 1.14122 0)
(1.62869 0.977078 0)
(1.84891 0.776159 0)