/*--------------------------------*- C++ -*----------------------------------*\
  =========                 |
  \\      /  F ield         | OpenFOAM: The Open Source CFD Toolbox
   \\    /   O peration     | Website:  https://openfoam.org
    \\  /    A nd           | Version:  6
     \\/     M anipulation  |
\*---------------------------------------------------------------------------*/
FoamFile
{
    version     2.0;
    format      ascii;
    class       volScalarField;
    location    "64";
    object      p;
}
// * * * * * * * * * * * * * * * * * * * * * * * * * * * * * * * * * * * * * //

dimensions      [0 2 -2 0 0 0 0];

internalField   nonuniform List<scalar> 
918
(
0.533535
1.24064
0.00575136
0.533449
-0.011315
1.2084
-0.501523
0.640819
0.514683
-0.129116
-0.0708378
0.516798
1.06528
0.832045
-1.16986
-0.0201895
0.629343
-0.417883
0.512715
-0.0730368
0.664021
0.52136
0.523826
0.514612
0.576058
0.787777
0.942122
-0.00376546
0.00987703
0.00463861
-0.0125714
-0.0329339
-0.0292129
1.09155
1.14346
1.16663
0.481201
0.314143
-0.396769
-0.450237
-0.429786
-0.519567
0.637851
0.636778
-0.223702
0.643238
0.646038
0.500385
0.514077
0.514913
0.516039
0.514942
0.516223
0.391542
-0.135431
-0.160122
-0.113536
-0.111467
0.0327008
-0.0748835
-0.0769185
-0.066754
-0.0659064
0.430225
0.511985
0.508113
0.520341
0.529602
1.1808
1.15462
1.18069
1.09095
1.10868
1.04238
1.0154
0.854054
0.877355
0.81526
0.803578
-1.62717
-2.57491
-0.592165
-0.315138
-0.0105396
-0.0207902
-0.0187274
0.624507
0.62728
0.627585
0.63051
1.03776
-0.390044
-0.461542
0.513243
0.511764
0.520887
0.521791
0.516751
0.516754
-0.0686975
-0.0670406
-0.0623181
-0.0728599
-0.0733363
0.656158
0.655535
0.514049
0.511493
0.538989
0.562556
0.55195
0.248006
0.586971
0.605433
0.648511
0.797703
0.784178
0.796922
0.917192
0.885197
0.97405
0.995753
0.0133562
-0.00137432
-0.02236
-0.0212935
-0.0215955
0.476937
0.470496
0.498396
0.484826
0.487872
0.219262
0.0688129
0.396384
0.420073
-0.319974
-0.368839
-0.458371
-0.456496
-0.563275
0.598096
0.635798
0.634244
-0.235921
-0.163118
-0.290369
-0.105831
-0.162768
0.491333
0.497588
0.493661
0.509044
0.503213
0.505637
0.518153
0.515331
0.516928
0.449829
0.579857
0.309124
0.280966
-0.280102
-0.176666
-0.260748
-0.102388
-0.0982759
0.0438791
0.0731759
0.0196099
0.00696323
-0.0891818
-0.0796032
-0.0847097
-0.0660348
-0.0682034
0.421648
0.408602
0.441474
0.449002
0.497736
0.499221
0.504055
0.501758
0.966348
0.989131
0.995275
0.971417
-3.55342
-6.18781
0.0294786
0.18894
-0.00941137
-0.0107138
-1.45492e-05
-0.00944594
-0.000501049
-0.00260938
-0.0264776
-0.0268764
-0.0214241
-0.0221889
0.623478
0.625325
1.00395
1.03073
0.978256
0.952657
0.502573
0.504466
0.509094
0.505974
-0.0674496
-0.066524
-0.0669077
0.64784
0.653111
0.650681
0.20682
0.118075
0.299405
0.330589
0.619365
0.608458
0.618174
0.707748
0.747257
1.01286
1.03673
1.02106
1.03394
1.08476
1.10771
1.07252
0.455481
0.46642
0.460683
0.50143
0.499158
0.500142
0.496555
0.497489
0.496113
-0.0426851
-0.414911
0.469971
0.471258
0.462651
0.466094
0.684666
0.768081
0.628825
0.631786
0.63178
-0.0548239
-0.102025
0.239737
0.210809
0.360709
0.395348
0.377155
0.941783
0.902293
0.950082
0.925404
0.890269
0.913303
-0.351357
-2.1153
-1.11013
0.590068
0.392782
0.484597
-0.00951508
-0.0258726
-0.0224884
1.02096
1.06054
0.649798
0.842246
0.794478
0.774393
0.802065
0.859293
0.7914
0.82535
0.857761
0.835354
0.548457
0.479882
0.497258
0.843633
0.899362
0.0807755
0.00256537
-0.0207811
0.097623
0.168444
0.136546
1.03668
0.952912
1.01579
0.511733
0.512682
-0.0174152
-0.0396365
0.5168
0.516513
-0.0209314
-0.0112561
0.500994
-0.938168
0.0833361
0.506308
0.495971
0.512797
-0.111304
0.324388
-0.0757392
0.0154972
-0.0194673
0.507937
0.442567
0.400151
-0.00556952
-0.0287884
-0.0661794
-0.215222
0.509472
0.507831
0.512182
0.512999
0.513775
-0.0256233
-0.0256866
-0.0177127
-0.060767
-0.056747
-0.0659509
0.476067
0.496449
-0.195177
0.512475
0.514577
0.514276
0.508467
0.513415
0.512039
-0.0211826
-0.0254358
-0.027017
0.186898
0.327087
0.685804
0.761999
0.633675
0.466336
0.172446
0.621551
0.674327
0.598688
0.730842
0.631402
0.639594
0.150458
0.00729806
0.154516
0.0874344
0.503153
0.502579
0.493503
0.490365
0.507619
0.505294
0.510494
0.507717
0.51089
0.512045
-0.0667202
-0.093631
-0.108864
-0.14958
0.295153
0.54908
0.218581
0.245749
0.14965
-0.0674081
-0.0638424
-0.072169
-0.076639
-0.0349447
-0.0374001
0.00920783
0.0169094
-3.33135e-05
-0.0262818
-0.0408478
-0.0367568
-0.0437662
0.500921
0.501508
0.505824
0.514273
0.452187
0.455908
0.422125
0.440972
0.427074
0.366857
0.396856
0.373964
-0.016397
-0.00630586
-0.00889819
-0.0287474
-0.027681
-0.0493227
-0.0419982
-0.040445
-0.0369469
-0.0416476
-0.0602732
-0.0638758
-0.179488
-0.299159
0.950551
0.893565
0.13283
0.499374
0.505037
0.502207
0.506928
0.510129
0.510762
0.508332
0.504821
0.496489
0.497851
0.494799
0.49598
-0.134327
-0.242871
-0.0742342
-0.149524
0.141886
0.608201
0.334544
0.279705
0.264982
0.491045
0.693454
0.606884
0.666935
0.65004
-0.396378
0.00654199
-0.328851
0.217795
0.211555
0.710475
0.753807
0.772397
0.728539
0.684074
-0.0312996
0.543005
-0.0761587
-0.0255354
0.165032
0.0489052
0.638836
0.615694
0.622475
0.634736
0.643614
0.627484
0.613372
0.607305
0.630446
0.633309
0.489016
0.215412
0.17291
0.126907
0.615228
0.511887
0.562351
0.480186
0.498809
0.501204
0.50015
0.480866
0.488245
0.483894
0.491154
0.494857
0.502116
0.502319
0.498172
0.500074
-0.0831279
-0.0901812
-0.0656651
-0.128896
-0.133614
-0.178252
-0.0838592
0.083551
0.0321348
0.226019
0.332703
0.0640558
-0.0561597
-0.0365925
0.0108543
0.174735
0.171913
0.0506737
0.157111
0.115408
0.108889
0.195476
0.217865
-0.0472932
-0.0541581
-0.0559162
-0.0589678
-0.00903355
0.100608
0.0797836
-0.0243086
-0.0315018
-0.061733
-0.0635558
-0.0137832
-0.042723
-0.0350492
-0.0106187
-0.0572085
-0.0310148
-0.020367
-0.0250897
-0.0273993
-0.0263356
0.495995
0.497936
0.498058
0.50637
0.520034
0.536098
0.498066
0.473455
0.464455
0.467568
0.440515
0.449837
0.444993
0.460879
0.482749
0.491129
0.489139
0.491891
0.473856
0.475497
0.460887
0.465563
0.434501
0.415836
0.405504
-0.0542543
-0.0209378
-0.0342445
-0.0477206
-0.0219228
-0.0316395
-0.0281086
-0.00940796
-0.0284971
-0.0245558
-0.0340523
-0.0399062
-0.0404465
-0.0822817
-0.000701882
-0.182687
-0.231696
-0.284643
0.873163
1.0126
0.79854
0.557133
0.573912
0.819297
0.927397
0.533234
0.747749
0.757372
0.566521
0.855584
0.503294
0.502898
0.500774
0.499953
0.500928
-0.0236437
0.0801253
0.0925646
0.151207
0.266275
0.372003
0.30253
0.189676
0.322566
0.346931
0.605956
0.613997
0.571874
0.594038
0.595895
0.40175
0.482236
0.519484
0.477383
0.550727
0.583368
0.530749
0.573558
0.493995
0.444386
0.435711
0.391011
0.425522
0.406635
0.38109
0.494971
0.471515
0.482724
0.47206
0.494503
0.518263
0.51869
0.540749
0.558643
0.472517
0.419012
0.436064
0.464541
0.420838
0.438445
0.460157
0.176556
0.0794469
0.242515
-0.0851429
0.000974347
0.0401721
-0.00241156
-0.0448044
0.261893
-0.376352
-0.322701
-1.00048
0.486535
0.839133
0.587975
0.599413
0.643715
0.630719
0.640912
0.648874
0.651105
0.602166
0.611442
0.616708
0.588177
0.61093
0.610231
0.617235
0.493242
0.394586
0.395679
0.328608
0.188861
0.229848
0.422362
0.353802
0.278672
0.270977
0.444106
0.309592
0.38845
0.439798
0.364099
0.299209
0.525999
0.571036
0.564118
0.535983
0.420515
0.453139
0.455955
0.505747
0.548572
0.574059
0.489694
0.49603
0.49694
0.494194
0.492543
0.495677
0.495962
0.49824
0.498443
0.501019
0.500475
-0.0715035
-0.0587335
-0.0758574
-0.0813059
-0.0334698
-0.0405
-0.00373739
-0.0285065
-0.0351138
-0.0319425
-0.0522624
-0.0640437
-0.0596719
-0.0486236
0.0683937
0.080051
0.0961686
0.0493552
0.25611
0.39342
0.480593
0.363664
0.199718
0.2285
0.295549
0.00688336
0.00798508
-0.00759804
0.0577802
0.0447565
-0.0561942
-0.0599088
-0.058179
-0.0463847
-0.0390779
-0.0611271
-0.0599175
-0.0494587
-0.0579283
-0.0622165
-0.0652855
0.47511
0.467999
0.471647
0.464004
0.462155
0.479268
0.483923
0.484898
0.490506
0.493352
0.482553
0.488435
0.492787
-0.0286539
-0.0459652
-0.0465319
-0.0436495
-0.0433464
-0.0419953
-0.0450387
0.118201
0.0253303
0.0612558
-0.00889171
-0.135006
-0.0753918
0.491492
0.486075
0.475006
0.710626
0.54689
0.465795
0.564936
0.685111
0.265532
0.464957
0.299799
0.877926
0.784068
0.929685
0.544848
0.245437
0.412307
0.421523
0.263996
0.387377
0.332223
0.208294
0.243686
0.277117
0.359916
0.246101
0.225366
-0.0168629
0.163807
0.273974
0.255987
0.38329
0.440186
0.254161
0.170076
0.117065
0.59028
0.606087
0.613035
0.585591
0.605837
0.56062
0.550186
0.568223
0.576576
0.569876
-0.635412
-0.223856
-1.42369
-0.835934
-0.384626
0.514246
0.513048
0.740688
0.645482
0.664472
0.647013
0.589155
0.55949
0.603149
0.617794
0.318172
0.40325
0.390646
0.366137
0.311814
0.254363
0.526195
0.534835
0.558173
0.58364
0.5588
0.586144
0.48846
0.488321
0.486955
0.483197
0.481697
0.485052
0.0250204
-0.00325767
0.0338862
0.019894
-0.00645114
-0.0119327
-0.0341007
-0.0455414
-0.0444243
-0.0418151
-0.0322765
-0.0310556
0.163188
0.101662
0.0142827
0.0551004
-0.0114935
-0.0929375
-0.0953335
-0.0045662
0.095274
0.0766171
0.380596
0.649124
0.474533
0.64003
0.438987
0.535817
0.457415
0.4309
0.458767
0.362389
0.452483
0.0396325
-0.161659
-0.217004
0.810672
0.770611
0.552339
0.307823
0.190648
0.484064
0.508957
0.469377
0.495
0.546415
0.527661
0.0123964
0.101589
0.18479
0.490969
0.270383
0.288476
0.278889
0.444039
0.41413
)
;

boundaryField
{
    wall-4
    {
        type            zeroGradient;
    }
    velocity-inlet-5
    {
        type            zeroGradient;
    }
    velocity-inlet-6
    {
        type            zeroGradient;
    }
    pressure-outlet-7
    {
        type            fixedValue;
        value           uniform 0;
    }
    wall-8
    {
        type            zeroGradient;
    }
    frontAndBackPlanes
    {
        type            empty;
    }
}


// ************************************************************************* //
