/*--------------------------------*- C++ -*----------------------------------*\
  =========                 |
  \\      /  F ield         | OpenFOAM: The Open Source CFD Toolbox
   \\    /   O peration     | Website:  https://openfoam.org
    \\  /    A nd           | Version:  6
     \\/     M anipulation  |
\*---------------------------------------------------------------------------*/
FoamFile
{
    version     2.0;
    format      ascii;
    class       volVectorField;
    location    "64";
    object      U;
}
// * * * * * * * * * * * * * * * * * * * * * * * * * * * * * * * * * * * * * //

dimensions      [0 1 -1 0 0 0 0];

internalField   nonuniform List<vector> 
918
(
(0.985049 -0.000714594 0)
(0.00535393 2.96623 0)
(-0.00187469 0.882619 0)
(0.979574 0.00196145 0)
(-0.0136562 2.06283 3.24724e-20)
(-0.00710162 2.94856 -2.59012e-18)
(0.815694 1.1183 4.42851e-19)
(0.143704 0.0756677 -1.42644e-20)
(0.999922 -0.000243606 0)
(0.086859 0.659986 0)
(0.0139605 0.411712 0)
(0.732533 -0.0067013 0)
(0.0102038 2.9316 0)
(0.0033277 2.79474 0)
(-0.00205692 3.18196 8.26884e-19)
(-0.0139526 1.92397 1.92531e-20)
(0.291864 0.0319387 9.81757e-19)
(0.231677 1.10489 3.53084e-19)
(0.964369 0.00674116 0)
(0.000590194 0.4141 0)
(0.0138541 0.0922669 -6.69473e-19)
(1.00183 -0.00456001 0)
(0.999851 -0.00892719 0)
(0.975167 -0.00605226 0)
(0.593694 0.0132397 0)
(0.0214012 2.64401 0)
(-0.0123656 2.91194 9.48879e-19)
(-0.00541819 0.935415 0)
(-0.0300497 1.16846 0)
(-0.00340148 0.905929 0)
(-0.0227074 2.5955 0)
(-0.00472317 2.11366 -2.59357e-20)
(-0.00975747 1.89554 0)
(-0.0221158 2.98762 -9.34111e-23)
(-0.0164844 3.00548 2.0123e-18)
(0.00230243 3.00057 0)
(0.871886 -0.00973909 0)
(0.375979 0.915918 1.63698e-19)
(0.814577 1.13638 -5.53664e-19)
(0.947352 1.00172 5.6361e-19)
(0.677688 1.21915 -1.0159e-19)
(0.690986 1.18053 5.79707e-19)
(0.173564 0.138274 1.39158e-20)
(0.162487 0.070198 0)
(1.16046 0.529613 0)
(0.147259 0.123648 6.32944e-20)
(0.122565 0.0679801 -6.56804e-20)
(0.920539 -0.00704805 0)
(1.00026 6.15215e-05 0)
(0.999908 0.00032029 0)
(1.0037 -0.00728131 0)
(1.00089 -0.000946898 0)
(1.00011 -6.84919e-06 0)
(0.0921399 1.84361 -7.41872e-19)
(0.0328034 0.855743 0)
(0.121286 0.746304 0)
(0.013956 0.804045 0)
(0.0488847 0.583817 0)
(0.00388189 2.02802 0)
(-0.00640006 0.735396 0)
(0.00756523 0.445138 0)
(-0.00883486 0.731634 0)
(0.00588981 0.411851 0)
(0.843315 -0.0156587 0)
(0.838221 0.0333263 0)
(0.763426 -0.008124 0)
(0.802913 0.0320021 0)
(0.704627 0.00630052 0)
(0.0139194 3.00023 9.61427e-19)
(0.0111293 3.00605 0)
(0.00619362 3.00384 0)
(0.0119055 2.99717 1.09177e-23)
(0.00823399 2.95876 -1.42892e-18)
(0.0122476 2.98293 0)
(0.00906361 2.90468 0)
(0.0207683 2.93177 2.22298e-24)
(0.0041484 2.82414 0)
(0.0253059 2.91899 0)
(-0.000782322 2.74437 0)
(0.306478 3.57779 0)
(-0.122362 3.66072 0)
(0.149841 3.27276 -7.69568e-19)
(0.00387174 3.00934 0)
(-0.030612 1.99103 0)
(-0.00733963 2.17684 -1.89889e-20)
(-0.00974069 1.93592 1.83316e-20)
(0.35762 0.142225 -3.40799e-19)
(0.315089 0.00530674 -3.31575e-19)
(0.311811 0.163862 -1.01965e-18)
(0.256625 0.0481506 -6.63151e-19)
(0.263398 1.01993 0)
(0.330014 1.23611 -3.64584e-19)
(0.412031 1.14793 6.01607e-19)
(0.98775 0.00814747 0)
(0.943273 0.0057872 0)
(1.00028 0.000671965 0)
(1.00254 0.00906676 0)
(1.00311 0.00898645 -2.62519e-18)
(0.992136 0.00942676 1.98373e-18)
(-0.0185691 0.745972 0)
(-0.000214131 0.422379 0)
(-0.050707 1.01922 0)
(-0.0259239 0.799107 0)
(-0.00858766 0.412315 0)
(-0.0110316 0.123505 2.07283e-19)
(0.0684607 0.0815713 0)
(0.993624 -0.00769347 0)
(0.954045 -0.00648269 0)
(0.741741 0.0349648 0)
(0.674874 0.043346 0)
(0.66317 -0.00328266 0)
(0.978889 -0.00302958 0)
(0.5896 0.0491782 0)
(0.444965 -0.0196491 1.49695e-18)
(-0.041047 2.86007 7.46056e-19)
(0.0337567 2.91392 0)
(0.0425597 2.89256 0)
(0.00319349 2.70184 0)
(-0.00868652 2.98669 9.07266e-19)
(-0.0141002 2.89469 0)
(-0.0109166 2.9918 -2.79488e-18)
(-0.0116761 2.9297 9.51181e-19)
(-0.042645 1.3424 0)
(-0.0143294 1.3704 0)
(-0.00788887 2.13859 7.37261e-22)
(-0.00764358 2.09761 0)
(-0.0173798 1.90751 0)
(0.938845 -0.00522354 0)
(0.857209 -0.0111253 0)
(0.863493 0.00491387 0)
(0.94964 -0.00615821 0)
(0.883642 -0.00807855 0)
(0.49966 1.11609 -2.07925e-19)
(0.546951 1.18605 0)
(0.337849 0.850429 3.18279e-20)
(0.282171 0.714881 0)
(0.914857 1.0325 -1.5906e-19)
(1.03658 0.842739 3.19232e-19)
(0.389805 1.31488 0)
(0.54079 1.27053 0)
(0.594021 1.19806 0)
(0.10283 0.181399 -2.97074e-19)
(0.19342 0.149001 0)
(0.176627 0.0807016 1.84705e-19)
(0.999919 0.896786 0)
(1.07548 0.745009 0)
(1.10488 0.68024 -2.55087e-19)
(1.14192 0.59155 0)
(1.19772 0.390528 4.67452e-20)
(0.95748 -0.00710514 0)
(0.962713 -0.0081121 0)
(0.900894 -0.00736856 0)
(0.983926 -0.00812432 0)
(0.97442 -0.00803354 0)
(0.936538 -0.00656772 0)
(1.0002 0.00250451 0)
(1.00077 0.00124026 0)
(1 0.000762965 0)
(0.0440374 2.08776 4.13597e-19)
(0.144239 1.7878 0)
(0.0191353 2.20403 6.24209e-19)
(0.0524242 1.89283 -5.20598e-19)
(0.165638 1.08093 -2.89833e-19)
(0.0492414 0.936724 0)
(0.120029 0.934531 0)
(0.00153475 0.775711 0)
(0.0253082 0.526244 0)
(-0.00339403 2.2575 -4.63407e-22)
(0.0183218 2.03354 0)
(-0.00494241 2.25844 -1.15777e-20)
(0.00245985 2.03946 1.04371e-20)
(-0.005744 0.749976 0)
(-0.0061358 0.736364 0)
(0.00974996 0.479529 0)
(-0.00927388 0.733155 0)
(0.00367028 0.41899 0)
(0.939268 0.0137566 0)
(0.856003 -0.011704 0)
(0.928504 0.00480825 0)
(0.846046 -0.0127977 0)
(0.812306 -0.00348526 0)
(0.89671 0.0243516 0)
(0.870486 0.0300638 0)
(0.788418 -0.00713274 0)
(0.0104036 3.06758 -8.94829e-21)
(0.014821 3.0592 0)
(0.0124387 2.97027 0)
(0.00764077 2.87663 0)
(0.896462 3.97243 0)
(1.19083 3.36821 9.39002e-19)
(0.0814331 3.09158 0)
(-0.0169636 2.91863 0)
(-0.0151126 1.39628 0)
(-0.035416 1.69575 0)
(-0.0240266 1.53007 0)
(-0.0333245 2.55554 -1.37588e-20)
(-0.0185547 2.24951 0)
(-0.0230691 2.3945 0)
(-0.000914765 1.96429 4.39217e-22)
(-0.00513101 2.25219 -2.32393e-20)
(-0.00611756 2.21453 -1.88288e-20)
(-0.00598498 1.94979 0)
(0.39686 0.117886 5.23925e-19)
(0.348272 -0.00159092 -5.13932e-19)
(0.231468 1.59031 0)
(0.287318 0.764237 -3.22837e-19)
(0.178773 1.68794 -1.06289e-18)
(0.244085 1.22536 1.06389e-18)
(0.901717 0.00594146 0)
(0.967076 0.0106411 0)
(0.974926 0.00984338 0)
(0.92302 0.00588903 0)
(-0.0183299 0.73733 0)
(-0.0192932 0.740524 0)
(0.00684964 0.415488 0)
(0.12271 0.115769 5.83657e-19)
(0.101685 0.101956 -6.90994e-19)
(0.0864246 0.0686317 0)
(1.1057 0.0899125 2.38524e-20)
(1.08943 0.042245 0)
(1.01802 0.0435353 0)
(0.913185 -0.00169677 0)
(0.444451 0.0970497 0)
(0.505201 0.0746397 -2.39364e-18)
(0.393235 -0.00736346 8.96298e-19)
(0.0107946 2.97713 7.89781e-19)
(-0.032775 2.86145 4.58393e-20)
(0.00850817 3.05297 -1.88932e-20)
(0.0158697 3.04343 7.08224e-19)
(-0.0118299 2.99995 3.13001e-20)
(-0.012312 2.9523 -1.26364e-22)
(-0.0150658 3.01324 -5.84921e-19)
(0.0144355 3.02652 4.11381e-19)
(0.00762351 3.03484 -6.67701e-19)
(0.934643 0.00209241 0)
(0.939463 -0.00114846 0)
(0.848039 -0.0111656 0)
(0.956369 0.011744 0)
(0.942444 0.0132537 0)
(0.881723 0.00547763 0)
(0.915364 0.018921 0)
(0.925193 0.015339 0)
(0.838174 0.000785452 0)
(0.672496 1.41478 1.88102e-20)
(0.69052 1.52533 0)
(0.118807 0.293747 6.74598e-20)
(0.212597 0.653615 5.33201e-19)
(0.24021 0.693497 -3.12973e-19)
(0.215494 0.498224 6.20987e-19)
(0.33915 0.830654 1.57254e-18)
(0.134073 0.236396 3.77826e-19)
(0.269225 0.171548 7.03599e-19)
(0.226201 0.164908 1.81281e-19)
(0.219572 0.0686067 3.45743e-19)
(1.18964 0.444773 9.31947e-20)
(1.2155 0.245043 9.11862e-20)
(0.00892899 2.24652 2.42031e-19)
(0.0394534 1.95595 0)
(0.972436 0.0329164 0)
(0.946461 0.0191363 0)
(0.870666 -0.0153053 0)
(0.0123332 3.07405 0)
(0.0167035 2.94395 1.2514e-18)
(0.0139287 2.95666 0)
(0.00587068 2.85005 -1.24177e-18)
(0.00969921 3.08989 3.0557e-19)
(0.0113929 3.08397 0)
(0.710541 1.82166 -1.71904e-19)
(1.23525 2.62676 5.81083e-19)
(0.695247 1.99977 -1.39965e-18)
(0.0222583 2.97585 -6.88059e-19)
(0.0406459 2.9984 0)
(-0.0383058 2.87858 0)
(-0.00619142 2.23707 -1.2727e-20)
(-0.00476319 2.2575 4.40604e-20)
(-0.000563166 2.00022 -7.0514e-21)
(0.2678 1.40248 1.02576e-18)
(0.28592 0.567182 -7.04273e-19)
(0.073126 2.00384 7.49828e-19)
(0.120302 1.87555 -9.06131e-19)
(0.206781 1.53567 1.04876e-19)
(0.00490255 3.11979 -1.9069e-18)
(0.0184655 3.11931 2.05325e-18)
(-0.004958 2.98062 8.47885e-19)
(-0.000398391 2.97509 -8.13908e-19)
(-0.0177546 2.87816 -8.63592e-19)
(0.0125801 3.09975 -2.27125e-18)
(0.00523704 3.10706 2.22726e-18)
(0.265736 0.697713 0)
(0.217501 0.659148 -1.13678e-18)
(0.0734977 0.213015 5.00204e-19)
(0.346166 0.950331 1.11823e-18)
(0.198311 0.280426 -1.72211e-18)
(1.19557 0.175247 4.75951e-20)
(1.21224 0.304028 0)
(1.19103 0.120677 9.21627e-21)
(-0.00117568 2.26561 -1.24131e-21)
(0.00363841 2.25121 0)
(0.0304642 1.99158 0)
(0.313378 1.3184 -3.67881e-19)
(0.354291 1.17672 -7.97755e-19)
(0.231374 0.391333 1.42639e-18)
(1.00644 -0.00968657 0)
(1.00774 -0.00778668 4.82519e-19)
(-0.0372487 1.32475 0)
(-0.044829 1.32839 0)
(1.00244 0.00327674 1.34634e-21)
(1.0032 0.00781424 9.90586e-19)
(-0.0244112 2.54188 1.74312e-20)
(-0.0275818 2.58462 0)
(0.041264 3.17298 4.89099e-19)
(0.374776 3.54278 0)
(1.15574 0.691218 -5.08421e-20)
(1.01183 0.0106697 -2.83199e-21)
(1.02085 -0.00902694 0)
(1.00158 0.000276791 1.56797e-22)
(0.112863 1.37433 0)
(0.142226 2.58799 0)
(0.024051 1.32084 0)
(-0.00140848 2.63657 1.35843e-21)
(-0.0219148 2.58553 -6.65271e-21)
(0.996858 0.0316317 2.58538e-21)
(1.06293 0.00579654 0)
(1.09989 0.0284453 0)
(-0.0337119 1.7423 0)
(-0.0193998 2.58598 0)
(-0.0116255 1.31523 0)
(0.310272 1.48616 -1.72917e-19)
(1.01151 -0.00906125 0)
(1.00971 -0.0129898 0)
(1.00228 0.000943133 6.18161e-19)
(1.00548 -0.00491417 -7.28454e-19)
(1.00113 -0.000863969 0)
(-0.0209798 1.46144 0)
(-0.0096045 1.38323 0)
(-0.0161596 1.42347 0)
(-0.0136604 1.30256 0)
(-0.0269325 1.29203 0)
(-0.0208625 1.27096 0)
(1.03563 -0.00432211 0)
(1.01884 0.0150051 -8.73346e-22)
(0.810269 1.30927 2.7989e-19)
(1.00242 0.000382061 -6.17415e-19)
(1.00338 0.0044546 7.37153e-19)
(1.00127 0.00209953 0)
(1.01113 0.00963818 6.15075e-19)
(1.00686 0.00746749 -7.48694e-19)
(1.00716 0.0111357 0)
(-0.0245877 2.61368 0)
(-0.027788 2.59279 -2.97204e-20)
(-0.0246823 2.60689 2.09434e-20)
(1.24118 0.272354 5.19479e-19)
(1.16332 0.0889082 0)
(0.0450273 3.09123 -9.73475e-19)
(0.0518077 2.87361 -6.89902e-20)
(0.104146 3.20211 1.30006e-18)
(0.122598 3.21403 -2.78539e-19)
(0.142571 3.25824 0)
(0.0229793 3.13775 2.67618e-19)
(0.0616644 3.16227 9.69754e-19)
(0.0622138 3.17904 -5.00556e-19)
(0.0270479 3.12959 0)
(0.583256 0.289422 0)
(0.525703 0.307646 0)
(1.13689 0.722131 1.14385e-19)
(1.10284 0.858631 -9.78409e-20)
(1.19537 0.607827 0)
(1.22257 0.542779 0)
(1.01573 0.0120265 -1.14258e-18)
(1.0147 0.0127723 1.43656e-18)
(1.02571 -0.00874015 0)
(1.02405 -0.010306 0)
(1.00675 0.00315808 0)
(1.0109 0.00420809 0)
(1.00426 0.00220697 0)
(1.0094 0.00636932 0)
(1.00688 0.00504992 0)
(1.00442 0.00527669 0)
(0.103197 1.37353 0)
(0.0906838 1.33221 0)
(0.13625 1.41639 0)
(0.146448 1.3991 0)
(0.150509 2.61011 0)
(0.188039 2.67684 -4.11396e-19)
(0.110341 2.67139 0)
(0.0818253 2.6718 1.67019e-19)
(0.0283005 2.67906 -1.60113e-19)
(0.0115239 1.32229 0)
(0.0192987 1.25258 0)
(0.0152375 1.33485 0)
(0.0330579 1.27333 0)
(-0.000879071 1.99486 3.08241e-20)
(-0.0216618 2.61368 -3.38039e-20)
(-0.00774334 2.67908 -2.26445e-20)
(-0.0195203 2.69192 0)
(-0.023874 2.62015 2.30724e-20)
(-0.0225647 2.6156 3.41399e-20)
(0.00635245 1.9919 -2.35525e-20)
(-0.0097206 2.40505 4.53546e-20)
(-0.0146831 2.42842 2.56696e-20)
(1.01211 0.0391025 1.16146e-18)
(1.003 0.0191783 -1.44464e-18)
(1.00286 0.0466359 -1.18315e-18)
(0.975181 0.0351282 1.49038e-18)
(1.06458 0.00910937 0)
(1.04983 -0.00648258 0)
(1.09253 0.0374396 0)
(1.07567 0.0148605 0)
(1.07442 0.00060143 0)
(1.14118 0.0790883 0)
(1.11538 0.0459264 0)
(1.11843 0.0374424 0)
(-0.0301234 2.43658 3.23893e-21)
(-0.0203338 2.0227 0)
(-0.0212019 2.22258 0)
(-0.0215205 2.60684 -1.76668e-20)
(-0.0182812 2.61763 5.47605e-22)
(-0.000983906 1.58166 -5.23888e-20)
(-0.0100379 1.50479 5.3504e-20)
(-0.0194576 1.39584 0)
(-0.0235493 1.40166 0)
(-0.0304635 1.39304 0)
(-0.00794848 1.31675 0)
(0.00178064 1.24531 0)
(0.385805 1.51125 2.8845e-19)
(0.433372 1.51546 1.53142e-19)
(0.593381 2.46778 -2.4772e-19)
(0.385943 2.55621 7.19337e-19)
(0.351155 2.05431 6.83947e-20)
(1.02069 -0.00801618 0)
(1.01579 -0.00936813 0)
(1.01484 -0.0132237 0)
(1.00771 -0.000574462 0)
(1.00487 -0.000670437 0)
(1.00799 -0.00448793 0)
(1.00954 -0.00345122 0)
(1.01464 -0.00430178 0)
(1.01958 0.0161735 1.12154e-18)
(1.01724 0.0147079 -1.41824e-18)
(1.01988 0.0184879 -1.13125e-18)
(1.01745 0.0170666 1.41183e-18)
(0.766793 1.35626 0)
(0.706197 1.39078 2.45333e-19)
(0.873138 1.23719 1.00995e-19)
(0.910992 1.19635 -1.34039e-19)
(1.16514 2.61424 2.67986e-19)
(0.760961 0.130829 5.81797e-19)
(1.17147 0.107187 0)
(1.21354 0.200824 -4.21487e-19)
(1.19461 0.154079 -1.75347e-20)
(1.01342 0.166166 0)
(0.0787761 3.01909 3.45293e-19)
(0.0839971 2.90287 -1.14755e-18)
(0.0271106 2.35793 7.26851e-19)
(0.141703 -0.229674 -3.36764e-19)
(0.342905 3.44653 -2.50991e-19)
(0.193742 3.34095 0)
(0.224139 3.39791 3.26946e-19)
(0.223343 3.07726 -1.20397e-18)
(0.256002 3.19597 0)
(0.00606858 3.12281 5.03866e-20)
(0.0162941 3.13151 -5.82106e-19)
(0.0153153 3.12723 8.56746e-19)
(0.0331187 3.14038 0)
(0.0314016 3.1497 0)
(1.25886 2.57864 0)
(0.531664 0.792625 -5.23013e-19)
(1.0234 1.03173 -1.22516e-20)
(0.988172 1.08506 0)
(0.857002 0.968774 -1.05558e-19)
(1.08045 0.907149 2.66425e-20)
(0.345385 0.317645 -8.29168e-19)
(0.663018 0.320074 -2.16892e-20)
(0.560013 0.221886 3.90403e-19)
(0.557238 0.323674 2.86889e-20)
(0.44595 0.280904 -1.15008e-18)
(0.619809 0.32082 0)
(0.696924 0.423017 6.56916e-19)
(0.699919 0.4292 0)
(0.592192 0.327973 0)
(0.512681 0.254543 0)
(0.794605 0.651332 3.92575e-19)
(1.25191 0.305475 -4.22847e-19)
(1.24425 0.436927 0)
(1.24472 0.393099 0)
(0.695723 0.185179 5.94501e-19)
(0.843452 0.552476 -3.70229e-19)
(0.764854 0.514787 6.61096e-19)
(0.964629 0.448531 -6.66703e-19)
(1.01843 0.0146357 7.60105e-19)
(1.0171 0.0136246 -7.6754e-19)
(1.016 0.0141637 0)
(1.03702 -0.00454131 0)
(1.03042 -0.00770708 -7.19817e-19)
(1.02863 -0.0105826 7.12336e-19)
(1.02474 0.0109182 0)
(1.02268 0.0150243 0)
(1.01271 0.00468087 0)
(1.01456 0.00910848 0)
(1.01635 0.00420752 0)
(1.01554 0.00290643 0)
(0.0703286 1.35862 0)
(0.070048 1.30348 0)
(0.154551 1.41393 5.03568e-20)
(0.27692 1.48238 8.4242e-20)
(0.17406 1.45381 1.89737e-19)
(0.214796 1.45061 -3.0661e-19)
(0.168643 1.42764 0)
(0.147506 1.58908 -8.18531e-20)
(0.146169 1.58333 0)
(0.349776 2.00883 -9.95607e-20)
(0.318824 2.34638 5.54855e-19)
(0.205019 1.46593 7.1327e-20)
(0.276369 1.39783 2.45276e-20)
(0.209396 1.39541 -1.99746e-20)
(0.290485 1.33687 -8.34524e-20)
(0.257659 1.57931 0)
(0.269854 1.62735 9.32459e-20)
(0.025894 2.25796 -1.64538e-20)
(0.0380184 2.6723 0)
(0.0642879 2.40808 9.74463e-20)
(0.0592425 2.43215 0)
(0.068196 2.69037 -1.85438e-19)
(0.0424592 2.70631 0)
(0.0234988 1.4436 5.39297e-20)
(0.0317804 1.50148 0)
(0.026646 1.40933 0)
(0.0191792 1.4153 -6.11963e-20)
(0.0014636 2.66374 -1.34813e-21)
(0.0260015 2.69599 1.82858e-19)
(0.00910224 2.73499 9.89543e-22)
(0.00148158 1.84245 -1.84982e-20)
(-0.00475049 1.694 -1.39287e-20)
(0.0113096 1.30472 0)
(0.0185543 1.2318 0)
(0.039729 1.59082 -1.84215e-20)
(0.0361697 1.46772 -5.34661e-20)
(0.027249 1.54255 5.87395e-20)
(0.0477836 1.61577 0)
(-0.0305511 2.27365 1.14596e-19)
(-0.0337034 2.55448 -4.86129e-20)
(-0.0197132 2.45344 7.80195e-21)
(-0.00533866 1.85952 2.24257e-20)
(-0.0277124 2.50837 1.03814e-20)
(-0.022914 2.44921 -2.21903e-20)
(1.01765 0.0220042 -7.6532e-19)
(1.01448 0.0282113 7.72975e-19)
(1.01182 0.0161406 0)
(1.01183 0.0707763 1.05538e-18)
(0.98996 0.0613404 -1.21551e-18)
(0.947721 0.0555071 1.3617e-18)
(1.01406 0.11596 -1.43313e-19)
(1.04394 -0.00469424 0)
(1.05214 -0.000464742 6.89543e-19)
(1.04025 -0.00819135 -6.89173e-19)
(1.07219 0.0434411 -4.08648e-20)
(1.06489 0.0287489 3.52992e-19)
(1.06432 0.0653251 0)
(1.05432 0.0543976 -1.27169e-19)
(1.03182 0.0445462 0)
(1.02508 0.040025 0)
(1.02757 0.0136506 0)
(1.02399 0.01612 0)
(1.0409 0.0337842 2.61471e-19)
(1.03935 0.0290543 -5.78775e-19)
(1.05301 0.0385539 -2.76506e-19)
(1.04824 0.0385924 -3.05309e-19)
(1.07778 0.070029 5.83368e-19)
(1.10168 0.0560386 0)
(1.10855 0.0945333 0)
(-0.0284567 2.2804 6.92899e-20)
(-0.0301023 2.02802 3.35835e-21)
(-0.0253105 2.03798 0)
(-0.0301503 2.4497 -6.89888e-20)
(-0.0277237 2.40773 -6.46253e-21)
(-0.0347839 2.47723 8.74684e-21)
(-0.0216643 2.62801 -2.90053e-20)
(-0.0263653 2.57031 1.4818e-21)
(-0.0247911 2.52346 -9.89798e-21)
(-0.0172828 2.62131 1.96856e-20)
(-0.021438 2.62342 -2.25761e-20)
(-0.00963549 1.49894 -3.29186e-22)
(-0.00446609 1.62988 -5.1276e-20)
(0.377775 1.44793 -1.23921e-19)
(0.372011 1.38042 1.40558e-20)
(0.648178 1.43897 -2.37405e-19)
(0.525079 1.50873 -1.49161e-19)
(0.578663 1.46721 0)
(0.607661 2.42545 2.1612e-19)
(0.667407 2.43417 3.37545e-19)
(0.414936 2.5196 9.52991e-20)
(0.400404 2.54503 -5.83984e-19)
(0.502959 2.48404 5.58293e-19)
(0.553235 2.47878 0)
(0.484962 2.5294 -5.52384e-19)
(0.25179 2.60089 1.1235e-18)
(0.366467 2.56801 -7.04887e-20)
(0.282378 2.66148 -1.58567e-18)
(0.970645 2.39218 7.10999e-19)
(0.849063 2.39305 0)
(1.01145 0.00138347 2.50606e-20)
(1.01537 -0.00519342 -2.04672e-20)
(1.01774 -0.00395144 -3.74155e-19)
(1.0156 -0.00105609 3.72808e-19)
(1.01312 0.00183064 0)
(0.636601 1.30223 0)
(0.677319 1.18737 0)
(0.791861 1.1176 0)
(0.664926 1.14532 0)
(1.19605 2.62972 5.13768e-20)
(1.08881 2.38143 0)
(0.819398 2.1729 3.49449e-21)
(0.822318 2.43532 0)
(0.916995 2.52543 -4.29217e-19)
(0.9485 2.47489 2.86577e-19)
(0.786916 0.165647 0)
(0.730332 0.148016 1.5792e-19)
(0.903809 0.158619 9.2158e-19)
(0.818155 0.140696 -3.43573e-19)
(0.757927 0.0893854 -1.06285e-18)
(1.08842 0.244779 -8.37548e-19)
(0.98757 0.313764 -9.7866e-21)
(0.932737 0.349346 8.09179e-19)
(1.01515 0.259135 6.89887e-19)
(0.931863 0.20528 -1.21346e-18)
(0.891806 0.219314 1.51582e-19)
(0.933788 0.315104 -3.17032e-19)
(0.907197 0.221713 0)
(1.00141 0.208717 5.93693e-19)
(1.05607 0.218079 0)
(1.05277 0.22742 0)
(1.1255 0.124167 2.66491e-19)
(1.06504 0.193745 -1.05704e-20)
(1.08015 0.246687 -1.52654e-19)
(1.11379 0.21026 0)
(1.02303 0.0489974 5.90782e-19)
(1.03772 0.0634156 7.36717e-19)
(1.03265 0.0467949 -5.87134e-19)
(1.04226 0.0695265 -4.93942e-19)
(1.01447 0.0745859 -7.47511e-19)
(0.987518 0.170888 0)
(0.990399 0.108015 0)
(0.96069 0.0707336 -4.83465e-19)
(0.90133 0.100293 1.90343e-19)
(1.03946 0.116328 6.82292e-19)
(1.07623 0.136316 -7.8037e-19)
(1.06999 0.179868 7.01599e-19)
(1.03579 0.156017 0)
(1.08645 0.12262 0)
(1.05724 0.111774 -3.20291e-19)
(1.04345 0.108506 -5.5495e-19)
(0.58739 1.08725 1.15202e-19)
(0.614395 1.40662 -1.85279e-20)
(1.14544 2.72082 -2.425e-19)
(1.19817 3.10482 1.92443e-21)
(1.25405 2.73044 -1.18436e-19)
(1.29405 2.70144 1.64769e-20)
(1.26968 2.32487 -3.79796e-20)
(1.18587 3.01037 -7.05682e-20)
(1.20526 2.96732 2.184e-19)
(1.18007 3.25844 -1.23698e-19)
(1.39802 2.97329 1.54301e-19)
(1.40959 2.9097 0)
(0.570543 0.819306 -4.74007e-20)
(0.213393 1.21389 4.73426e-19)
(0.513539 0.362558 5.33736e-19)
(0.398196 0.125033 6.06668e-19)
(0.490143 0.308891 6.50643e-19)
(0.546683 0.422216 -1.05681e-18)
(0.552792 0.410052 8.70079e-19)
(0.47653 0.315775 -3.27979e-19)
(0.359308 0.255839 7.42286e-19)
(0.727372 0.253072 -3.42926e-19)
(0.682157 0.284476 0)
(0.619892 0.198151 7.90759e-21)
(0.738065 0.505416 3.58362e-19)
(0.707288 0.477649 -1.29987e-18)
(0.635698 0.435236 1.65385e-20)
(0.627647 0.414535 0)
(0.715068 0.715299 3.72037e-19)
(0.831204 0.79717 4.10164e-19)
(0.768552 0.846737 -4.77995e-19)
(0.900237 0.819608 -1.52064e-19)
(0.935237 0.862715 -3.53646e-20)
(0.942853 0.870156 3.62724e-20)
(0.879636 0.675366 -6.68008e-19)
(0.951853 0.72253 1.41375e-19)
(1.00575 0.72662 0)
(1.00462 0.702581 -1.81014e-19)
(1.03142 0.338323 2.10142e-19)
(1.15872 0.338053 2.54242e-19)
(1.07454 0.282354 3.42531e-19)
(0.999067 0.384322 -4.19387e-19)
(1.05502 0.484931 0)
(1.13738 0.426428 0)
(0.902994 0.420596 1.39313e-21)
(0.849428 0.319125 0)
(0.894652 0.308141 3.87715e-19)
(0.919691 0.347711 4.49996e-21)
(0.984711 0.493462 1.86295e-18)
(0.917681 0.552643 4.80732e-19)
(0.939655 0.508692 -5.08615e-19)
(0.857678 0.485898 5.41934e-19)
(0.8257 0.460089 3.4501e-19)
(0.80432 0.434876 -3.3812e-19)
(1.02815 -0.000377527 6.18256e-19)
(1.0204 0.000544187 0)
(1.01905 0.00136719 4.03461e-19)
(1.02262 -0.000748401 -9.1335e-19)
(1.02253 0.00455176 4.44949e-19)
(1.02002 0.0115943 -9.31267e-19)
(1.02075 0.0113821 0)
(1.01969 0.0121191 -1.93938e-19)
(1.01654 0.00777783 4.86053e-19)
(1.01668 0.0108871 -2.43922e-19)
(1.01727 0.0105804 1.78479e-19)
(0.0261244 1.32934 0)
(0.0345224 1.38579 0)
(0.0443173 1.33513 0)
(0.0472647 1.2766 0)
(0.0808445 1.40579 -8.6284e-20)
(0.0858642 1.37606 2.62868e-20)
(0.0929843 1.5702 3.12565e-21)
(0.102248 1.40757 -3.361e-20)
(0.0396358 1.47952 4.79236e-20)
(0.0442267 1.47531 -3.75581e-20)
(0.0694108 1.39609 -1.8091e-20)
(0.0578363 1.39789 7.69629e-20)
(0.0515007 1.37446 1.2017e-20)
(0.038843 1.39292 7.8011e-21)
(0.101504 2.37349 -1.0694e-19)
(0.0933872 2.42265 0)
(0.138677 2.01872 1.04036e-19)
(0.132312 1.70201 3.64789e-20)
(0.222153 2.01332 -8.47198e-20)
(0.190739 2.44065 0)
(0.244783 2.38109 -6.65091e-19)
(0.323828 2.35657 4.41385e-19)
(0.246336 1.98748 -2.17293e-19)
(0.134416 2.15116 1.51075e-19)
(0.111924 2.26558 0)
(0.0164169 1.86109 -1.70533e-20)
(-0.00364158 2.38319 -1.23942e-20)
(0.00388642 2.14034 0)
(0.00702361 2.44511 -1.67959e-20)
(0.0261373 2.283 2.01786e-20)
(0.00870837 1.42069 -1.05322e-20)
(0.00862049 1.4031 1.77299e-19)
(0.00769286 1.41083 -5.6751e-20)
(0.0175631 1.41624 -5.11642e-20)
(0.0214151 1.44684 0)
(0.00614081 1.39379 0)
(-0.000720369 1.30361 -6.79478e-20)
(0.00137723 1.37936 1.92293e-20)
(0.00659438 1.3813 0)
(0.0077542 1.29766 -5.27795e-20)
(0.0140636 1.22338 1.05175e-19)
(1.04243 0.0150223 0)
(1.04894 0.0104776 -6.44723e-20)
(1.03914 0.0242096 -4.66535e-19)
(1.04951 0.0232131 0)
(1.05467 0.022552 0)
(1.0363 0.0130281 -6.78091e-21)
(1.03001 0.0134613 7.52747e-19)
(1.03191 0.0174667 9.10826e-19)
(1.02557 0.0211511 0)
(1.02203 0.0215766 0)
(1.03558 0.0257771 4.65375e-19)
(1.02631 0.0282531 0)
(1.02303 0.0288468 0)
(-0.0202835 2.0293 0)
(-0.00843393 1.65788 -2.19781e-21)
(-0.00910935 1.76403 -3.20528e-20)
(-0.00389579 1.38839 0)
(-0.00864529 1.55904 -2.79669e-20)
(-0.0139247 1.46661 1.77609e-20)
(-0.00828893 1.40038 0)
(0.404569 1.63002 0)
(0.365931 1.31828 -2.21407e-20)
(0.276429 1.34698 0)
(0.435311 1.31584 -4.44831e-20)
(0.472984 1.47475 0)
(0.457503 1.416 4.32989e-20)
(1.04081 2.67366 -1.51088e-20)
(0.985213 2.4114 -8.93265e-19)
(0.947613 2.21121 1.0029e-18)
(0.865586 2.38521 2.40936e-19)
(0.853409 2.49059 0)
(0.922164 2.48568 0)
(0.954423 2.38529 0)
(0.930473 2.37579 -9.32582e-19)
(0.692338 2.45528 -3.73353e-19)
(0.801158 2.43916 -9.6625e-20)
(0.808442 2.41726 7.28244e-20)
(0.704707 2.40559 0)
(0.809908 2.39929 0)
(0.77067 2.41566 -3.6562e-19)
(0.766382 2.46931 0)
(0.626923 1.06657 0)
(0.515127 0.863577 -5.48568e-19)
(0.520991 0.934827 -3.17666e-20)
(0.501392 1.07358 0)
(0.488162 0.982509 8.40176e-19)
(0.797616 0.885257 -1.31528e-19)
(0.802926 1.02049 0)
(0.783629 1.00312 1.80505e-19)
(0.67164 1.02081 0)
(0.663501 0.92551 0)
(1.16389 2.75705 -2.15867e-19)
(1.13896 2.81531 -8.68038e-20)
(0.923836 2.33854 7.00423e-20)
(0.900516 2.31925 -7.43829e-20)
(1.13355 2.73493 0)
(1.08557 2.70277 8.93514e-20)
(1.10163 2.49802 -2.94156e-19)
(1.00327 2.25721 -2.84062e-20)
(0.498109 1.33309 0)
(0.517424 1.07925 -1.01486e-19)
(0.593546 1.18157 0)
(0.844568 0.228389 0)
(0.756716 0.17764 0)
(0.67327 0.140397 0)
(0.851439 0.228843 -6.10915e-19)
(0.748598 0.221133 3.58326e-19)
(0.91356 0.0861048 -3.90239e-19)
(0.933705 0.136826 0)
(0.904254 0.145182 1.71827e-19)
(0.844921 0.103817 6.87953e-19)
(0.804854 0.073339 -4.31139e-19)
(1.09769 3.35027 -6.76494e-19)
(1.16509 3.27349 0)
(1.116 3.43513 -1.57519e-18)
(0.657217 3.58095 1.31192e-18)
(1.02644 3.07834 1.23177e-19)
(0.531272 0.787275 5.63329e-19)
(0.511965 0.755668 0)
(0.354262 0.380702 -1.44017e-19)
(0.481797 0.63347 8.51212e-19)
(0.542694 0.363382 -1.90559e-19)
(0.514895 0.45992 2.24968e-19)
(0.688469 0.526365 4.63089e-19)
(0.733967 0.56017 0)
(0.660203 0.568576 0)
(0.641676 0.533093 0)
(1.0146 0.610236 8.91807e-20)
(0.968363 0.591644 -4.65428e-19)
(0.9786 0.604288 3.55876e-19)
(1.04327 0.547025 -3.43647e-19)
(1.08832 0.516159 0)
(1.0903 0.599082 -9.03749e-20)
(0.885685 0.415281 -7.66497e-19)
(0.874766 0.403407 -9.85545e-19)
(0.80338 0.400212 6.05686e-19)
(0.816156 0.367767 -6.26525e-19)
(0.856464 0.32832 -4.92623e-19)
(0.803632 0.331749 6.03328e-19)
(1.02655 0.00666335 -4.65605e-19)
(1.02618 0.00678436 9.37979e-19)
(1.02993 0.000930399 5.99073e-19)
(1.03416 0.00156857 -7.19269e-19)
(1.03393 0.0119332 0)
(1.02967 0.0120314 -1.17889e-18)
(0.0797704 1.64419 1.1811e-20)
(0.0648034 1.5991 0)
(0.10528 1.69831 5.87926e-20)
(0.113198 1.67608 -5.11333e-20)
(0.0860414 1.56842 -5.67683e-21)
(0.0784999 1.57094 0)
(0.00641818 1.69535 0)
(-0.00747105 1.50754 1.48753e-20)
(-0.00617246 1.44746 -1.33629e-20)
(-0.0112442 1.556 3.16415e-21)
(-0.00231199 1.89138 2.16774e-20)
(-0.0142588 1.94644 -8.39902e-21)
(0.494144 1.36364 -2.5281e-19)
(0.496564 1.35914 2.76509e-19)
(0.448749 1.30838 -6.96408e-21)
(0.428855 1.29351 7.25346e-21)
(0.627191 1.31114 0)
(0.555814 1.404 1.19627e-19)
(0.556748 1.40688 -1.16494e-19)
(0.484423 1.29469 6.71263e-21)
(0.524648 1.24963 0)
(0.589252 1.21544 0)
(0.666017 2.41876 5.49713e-19)
(0.661578 2.44837 1.26636e-18)
(0.716928 2.46327 -8.70868e-19)
(0.615198 2.43544 -1.99085e-19)
(0.558186 2.52893 2.70941e-19)
(0.498971 2.49542 -6.97645e-19)
(0.993203 2.3901 -5.64925e-19)
(1.02543 2.4078 0)
(0.951936 2.19506 -6.18352e-19)
(1.05638 2.68384 0)
(1.0553 2.66508 0)
(0.604159 2.29279 1.53854e-20)
(1.11979 3.07112 8.3548e-20)
(0.998139 2.96924 -1.33185e-19)
(0.324209 0.806276 0)
(0.325118 0.689886 -3.00983e-19)
(0.529417 0.623388 -3.03827e-19)
(0.367389 2.13587 0)
(0.404565 2.74505 -8.66973e-20)
(0.414498 2.48016 0)
(0.723113 0.68058 -7.93187e-19)
(0.788639 0.685892 1.10567e-18)
(0.795634 0.655197 -1.04812e-18)
(0.696852 0.640206 -1.00682e-19)
(0.757119 0.598766 -4.14476e-19)
(0.972342 2.75504 -6.32793e-20)
(1.01454 2.761 -2.02521e-19)
(0.555318 2.21175 4.23883e-19)
(0.606572 1.73729 -3.37661e-19)
(0.70549 1.85601 -4.86639e-19)
(0.978343 2.39542 -1.36872e-19)
(0.978008 2.34905 3.57405e-19)
(0.649075 1.76837 3.27994e-20)
(0.455316 1.29957 1.71179e-19)
)
;

boundaryField
{
    wall-4
    {
        type            noSlip;
    }
    velocity-inlet-5
    {
        type            fixedValue;
        value           uniform (1 0 0);
    }
    velocity-inlet-6
    {
        type            fixedValue;
        value           uniform (0 3 0);
    }
    pressure-outlet-7
    {
        type            zeroGradient;
    }
    wall-8
    {
        type            noSlip;
    }
    frontAndBackPlanes
    {
        type            empty;
    }
}


// ************************************************************************* //
