/*--------------------------------*- C++ -*----------------------------------*\
  =========                 |
  \\      /  F ield         | OpenFOAM: The Open Source CFD Toolbox
   \\    /   O peration     | Website:  https://openfoam.org
    \\  /    A nd           | Version:  6
     \\/     M anipulation  |
\*---------------------------------------------------------------------------*/
FoamFile
{
    version     2.0;
    format      ascii;
    class       volScalarField;
    location    "76";
    object      p;
}
// * * * * * * * * * * * * * * * * * * * * * * * * * * * * * * * * * * * * * //

dimensions      [0 2 -2 0 0 0 0];

internalField   nonuniform List<scalar> 
918
(
0.524973
1.22101
0.00630571
0.524883
-0.0114634
1.18875
-0.513086
0.621044
0.506124
-0.127085
-0.086042
0.508564
1.04562
0.814204
-1.17741
-0.0223513
0.620169
-0.424729
0.504175
-0.0789105
0.641639
0.512798
0.515264
0.506049
0.569457
0.767
0.923014
-0.00334431
0.0108379
0.00564287
-0.0128588
-0.0331659
-0.0296846
1.07188
1.12381
1.147
0.472622
0.305959
-0.408453
-0.463173
-0.440502
-0.529763
0.62101
0.622037
-0.23844
0.621327
0.62181
0.491811
0.505518
0.506355
0.507477
0.506385
0.507664
0.386807
-0.134074
-0.161189
-0.111366
-0.109833
0.0272791
-0.0886966
-0.0892473
-0.082441
-0.0802203
0.421626
0.503565
0.499759
0.512328
0.522204
1.16118
1.13496
1.16106
1.07137
1.0891
1.02265
0.995678
0.834571
0.857839
0.798732
0.784843
-1.63229
-2.57632
-0.601855
-0.326792
-0.0104997
-0.0237863
-0.0224446
0.616055
0.619503
0.618656
0.621969
1.02463
-0.396994
-0.469628
0.504712
0.503235
0.512321
0.513225
0.508189
0.508189
-0.0749813
-0.0735898
-0.0664021
-0.0768568
-0.0762178
0.626747
0.626486
0.505485
0.502927
0.530377
0.553655
0.541388
0.238718
0.580508
0.596014
0.631451
0.777557
0.76414
0.777093
0.898355
0.866974
0.954344
0.976016
0.0140695
-0.00136244
-0.0238028
-0.0219346
-0.022242
0.468359
0.461918
0.490061
0.476245
0.47929
0.21149
0.0616367
0.387949
0.41142
-0.33269
-0.383187
-0.466814
-0.46562
-0.57297
0.590495
0.623207
0.622938
-0.249819
-0.177443
-0.305224
-0.119468
-0.176952
0.482753
0.489011
0.485082
0.500478
0.494642
0.497068
0.509589
0.506771
0.508366
0.446738
0.574159
0.303704
0.27737
-0.284912
-0.179598
-0.26467
-0.101757
-0.100359
0.0375014
0.0672285
0.0141091
0.00157609
-0.0947946
-0.0906645
-0.0936049
-0.0787122
-0.0785983
0.41306
0.399987
0.43288
0.440409
0.489371
0.49077
0.49567
0.493435
0.94649
0.969579
0.975532
0.951609
-3.55092
-6.17745
0.0156176
0.173883
-0.00931034
-0.0106731
3.69904e-05
-0.0100015
-0.000684621
-0.00274425
-0.0317721
-0.0315246
-0.0252306
-0.0261821
0.615528
0.616143
0.989955
1.01622
0.963533
0.940516
0.494072
0.495944
0.500565
0.497447
-0.0766594
-0.0745984
-0.076512
0.621829
0.624511
0.622784
0.19729
0.108114
0.290504
0.321795
0.610564
0.599103
0.609048
0.690876
0.731395
0.993226
1.0171
1.00132
1.01425
1.06508
1.08802
1.05298
0.446896
0.457843
0.452099
0.492944
0.490759
0.491702
0.488239
0.489189
0.487816
-0.0494536
-0.42031
0.460717
0.461962
0.453982
0.456921
0.677016
0.760253
0.620308
0.621936
0.622789
-0.0678196
-0.114837
0.23626
0.207173
0.351994
0.386703
0.368463
0.922135
0.882566
0.93038
0.905724
0.87017
0.893631
-0.356327
-2.11567
-1.11268
0.572709
0.376339
0.46789
-0.0152064
-0.0315347
-0.0282834
1.00566
1.04612
0.641347
0.831507
0.785018
0.754351
0.780562
0.841981
0.776978
0.809602
0.838622
0.813585
0.540431
0.470905
0.488719
0.835086
0.890094
0.0702862
-0.0091517
-0.0321511
0.0920329
0.165548
0.131856
1.02362
0.942581
1.00416
0.503168
0.50412
-0.0181528
-0.0418024
0.508238
0.507948
-0.0221189
-0.0123827
0.483361
-0.94474
0.0713799
0.497781
0.48739
0.504238
-0.107359
0.316212
-0.0882293
0.0067065
-0.0252284
0.498659
0.433981
0.391595
-0.0072199
-0.0315037
-0.0714152
-0.22176
0.500907
0.499266
0.503626
0.504442
0.505221
-0.0274869
-0.0271239
-0.0187153
-0.0653292
-0.0601175
-0.0699866
0.467489
0.487708
-0.205027
0.50392
0.506024
0.505719
0.499943
0.504869
0.503506
-0.0231089
-0.0268167
-0.0285411
0.176969
0.318718
0.666408
0.741081
0.615746
0.449297
0.1579
0.603305
0.6551
0.580489
0.711253
0.61985
0.618495
0.138221
-0.00583202
0.142273
0.0753928
0.494612
0.494066
0.484911
0.481782
0.499073
0.49675
0.501946
0.499191
0.502363
0.503507
-0.0618856
-0.0913408
-0.11042
-0.153313
0.286703
0.539469
0.215456
0.24059
0.149544
-0.0791243
-0.0800343
-0.0832559
-0.0879194
-0.0437338
-0.0443407
8.00407e-05
0.0105485
-0.00598453
-0.0317568
-0.0526279
-0.0456043
-0.0544722
0.491854
0.492683
0.496977
0.505477
0.443632
0.447335
0.413627
0.432368
0.418535
0.358544
0.388252
0.365405
-0.0182838
-0.00841879
-0.0103053
-0.0321497
-0.0313565
-0.0521942
-0.0449372
-0.0432557
-0.039508
-0.0444389
-0.0664209
-0.0717957
-0.186027
-0.306497
0.935527
0.864431
0.125862
0.4908
0.496471
0.493636
0.498382
0.501577
0.502204
0.499768
0.496256
0.487803
0.489353
0.485996
0.487157
-0.142921
-0.252747
-0.0843367
-0.160989
0.134278
0.601242
0.326026
0.27066
0.255864
0.483574
0.681718
0.58991
0.644628
0.619354
-0.405298
-0.00566977
-0.339192
0.206937
0.201899
0.692156
0.733513
0.751504
0.70886
0.665231
-0.0370053
0.534879
-0.0891708
-0.0372482
0.154531
0.0359087
0.608524
0.606402
0.613609
0.613284
0.619104
0.613193
0.597968
0.592593
0.6121
0.616908
0.477226
0.205293
0.16184
0.116062
0.606314
0.500209
0.549525
0.468879
0.490281
0.492687
0.491652
0.472294
0.479665
0.475317
0.482566
0.486228
0.493561
0.493754
0.48956
0.491498
-0.0824548
-0.0911214
-0.0758639
-0.135321
-0.139113
-0.183449
-0.0934668
0.0918352
0.0389208
0.22278
0.336196
0.0624218
-0.0622996
-0.0440091
0.0064528
0.163852
0.1666
0.0447203
0.155791
0.111823
0.104499
0.192418
0.215556
-0.0567978
-0.0621501
-0.0626866
-0.0682333
-0.0171552
0.10215
0.0748784
-0.0325598
-0.0399994
-0.076827
-0.0756565
-0.00858006
-0.0460269
-0.0379911
-0.0124074
-0.0595128
-0.0343633
-0.0249205
-0.0319818
-0.0332673
-0.0326228
0.487133
0.489114
0.489215
0.497591
0.509793
0.524937
0.491208
0.464881
0.455898
0.459
0.431947
0.441217
0.436426
0.452294
0.474058
0.48234
0.480541
0.483261
0.465221
0.466848
0.452293
0.456962
0.426007
0.40725
0.396989
-0.0558932
-0.0234871
-0.0368689
-0.0491233
-0.024112
-0.0333324
-0.0331676
-0.0142698
-0.033774
-0.0288736
-0.0385888
-0.0430386
-0.0438047
-0.0884043
-0.00603283
-0.191795
-0.239461
-0.293042
0.860499
1.00041
0.775786
0.546947
0.561252
0.803092
0.913275
0.531331
0.716421
0.747105
0.558431
0.846854
0.494748
0.494334
0.492197
0.491365
0.492363
-0.0307791
0.0727251
0.0831986
0.143142
0.258547
0.363851
0.296493
0.182727
0.315021
0.339702
0.597957
0.605722
0.564732
0.58621
0.585644
0.39354
0.473904
0.511177
0.469313
0.544751
0.576131
0.521896
0.565356
0.486658
0.436777
0.42801
0.382645
0.417504
0.398443
0.372696
0.486332
0.46305
0.474088
0.463896
0.486027
0.513291
0.51202
0.530578
0.550258
0.464919
0.410743
0.428002
0.456549
0.412408
0.430037
0.452069
0.171595
0.0739833
0.236202
-0.0909698
-0.00619654
0.033846
-0.00924271
-0.0506712
0.255944
-0.380749
-0.327608
-1.00329
0.481188
0.822145
0.553569
0.564976
0.619056
0.60837
0.618274
0.622644
0.623875
0.594696
0.603395
0.608799
0.574309
0.594804
0.591329
0.598472
0.482258
0.381773
0.385074
0.316054
0.176456
0.21833
0.408258
0.340756
0.266236
0.258327
0.435009
0.299874
0.379531
0.429463
0.352593
0.288515
0.515256
0.563528
0.556314
0.527262
0.407253
0.44047
0.442147
0.49256
0.536082
0.561218
0.481107
0.487422
0.48833
0.485591
0.483959
0.487087
0.487366
0.489674
0.489832
0.492428
0.491915
-0.0803736
-0.0660039
-0.0801779
-0.088245
-0.0260903
-0.0375215
-0.00520454
-0.0388381
-0.0379457
-0.0339569
-0.0504384
-0.0647906
-0.0637475
-0.0539314
0.067139
0.0862892
0.0925327
0.0511107
0.238384
0.403779
0.460416
0.35414
0.204953
0.232751
0.3152
0.0148513
0.00810882
-0.00662962
0.0625966
0.049173
-0.0666049
-0.0711822
-0.065132
-0.0541633
-0.04839
-0.0651701
-0.0676655
-0.0577833
-0.0644886
-0.0701977
-0.0727598
0.466555
0.459462
0.463024
0.455451
0.453627
0.470597
0.475207
0.47624
0.481855
0.48458
0.473904
0.479762
0.484056
-0.0342806
-0.0505431
-0.0508526
-0.0522676
-0.0494058
-0.0469692
-0.0506072
0.11037
0.0190049
0.0542008
-0.0160363
-0.142593
-0.0828716
0.48427
0.478114
0.466357
0.702174
0.538176
0.457798
0.557169
0.67733
0.257324
0.456137
0.291767
0.866672
0.774731
0.919446
0.535351
0.238838
0.40849
0.417211
0.259007
0.382721
0.323431
0.199319
0.234552
0.269847
0.353406
0.238705
0.21811
-0.0244285
0.157115
0.266414
0.248443
0.375081
0.431621
0.248439
0.164352
0.110801
0.580512
0.597562
0.604385
0.576838
0.596753
0.559142
0.546552
0.561278
0.569662
0.567875
-0.63752
-0.225859
-1.42566
-0.84062
-0.388908
0.508687
0.510949
0.732657
0.635123
0.644985
0.62687
0.574008
0.547664
0.58875
0.600878
0.304828
0.38998
0.37686
0.352951
0.299002
0.241271
0.514209
0.523999
0.546538
0.573804
0.549704
0.577455
0.479878
0.479729
0.478382
0.474637
0.473141
0.476427
0.0163403
-0.00982339
0.0299575
0.0186052
-0.00637934
-0.00859849
-0.0403772
-0.0514465
-0.0528096
-0.0495443
-0.0391398
-0.0374435
0.157109
0.0947882
0.00730308
0.0478445
-0.0183129
-0.0989339
-0.102357
-0.0112736
0.0883421
0.0697505
0.371713
0.638081
0.464588
0.628783
0.429855
0.525538
0.44878
0.42223
0.449744
0.354648
0.444932
0.04071
-0.161745
-0.216595
0.804409
0.765638
0.545234
0.303302
0.183883
0.474814
0.495554
0.455309
0.483599
0.532781
0.516638
0.0105782
0.0966817
0.185711
0.490782
0.265016
0.28371
0.273457
0.440728
0.409113
)
;

boundaryField
{
    wall-4
    {
        type            zeroGradient;
    }
    velocity-inlet-5
    {
        type            zeroGradient;
    }
    velocity-inlet-6
    {
        type            zeroGradient;
    }
    pressure-outlet-7
    {
        type            fixedValue;
        value           uniform 0;
    }
    wall-8
    {
        type            zeroGradient;
    }
    frontAndBackPlanes
    {
        type            empty;
    }
}


// ************************************************************************* //
