/*--------------------------------*- C++ -*----------------------------------*\
  =========                 |
  \\      /  F ield         | OpenFOAM: The Open Source CFD Toolbox
   \\    /   O peration     | Website:  https://openfoam.org
    \\  /    A nd           | Version:  6
     \\/     M anipulation  |
\*---------------------------------------------------------------------------*/
FoamFile
{
    version     2.0;
    format      ascii;
    class       surfaceScalarField;
    location    "76";
    object      phi;
}
// * * * * * * * * * * * * * * * * * * * * * * * * * * * * * * * * * * * * * //

dimensions      [0 3 -1 0 0 0 0];

internalField   nonuniform List<scalar> 
1300
(
3.75095
5.62643
-3.33146
3.75095
-7.7636
5.62643
-4.27688
4.27688
-0.374672
0.374672
1.87649
1.87446
-2.42868
2.42868
-1.74744
1.74744
-2.52181
2.52181
-5.24811
5.24811
-5.06967
5.06967
4.69847
-4.69847
-6.33764
6.33764
-0.956971
0.956971
-3.57787
3.57787
3.17243
-3.17243
-1.87159
1.87159
0.077053
-0.077053
-0.554082
4.30503
3.19687
3.19687
-1.99117
1.99117
-4.87501
4.87501
6.22252
-6.22252
5.24577
-5.24577
-1.91432
-2.50267
1.79899
-11.4811
-5.96461
-5.96461
-8.44099
8.44099
-2.81456
2.81187
2.9473
-2.9473
-1.72397
1.72397
-4.29427
0.0173853
-4.29427
4.2469
0.0299805
4.2469
-0.489432
0.11476
-0.489432
3.95421
-3.95421
0.279148
0.0955248
0.279148
3.06731
-3.06731
-1.87685
3.75335
1.8741
-1.8721
6.17713
-1.87886
3.75332
-6.07867
6.07867
-2.67742
0.248738
-2.67742
2.19687
0.231813
2.19687
-6.89174
6.89174
-1.78686
0.0394152
-1.78686
1.74961
-0.00216537
1.74961
2.88854
-2.88854
-2.62555
0.103733
-2.62555
2.39015
0.131668
2.39015
0.353358
5.27307
-5.97979
8.79166
-5.27307
0.0249644
5.21032
0.0377846
5.21032
-5.10525
0.0355847
-5.10525
5.01295
0.0567168
5.01295
4.78713
-0.0886576
4.78713
-4.81816
0.119691
-4.81816
-3.36109
-4.0745
-6.49702
0.159379
-6.49702
-1.02951
0.0725417
-1.02951
0.857426
0.0995444
0.857426
-3.73016
3.73016
-3.93447
0.356601
-3.93447
3.12741
0.0450275
3.12741
1.86812
1.88283
5.61907
-5.61907
2.44664
-1.80401
-0.0675812
-1.80401
-1.95189
-3.29389
1.95189
-0.0802971
-0.141277
0.21833
-0.141277
3.15713
0.0397463
3.15713
2.22859
0.161559
-2.22859
0.237416
3.30213
-3.30213
1.32265
0.66852
1.32265
-5.5583
5.5583
4.96174
0.0512105
-4.96174
0.0867271
6.15704
0.0654799
6.15704
-6.20778
-0.014743
-6.20778
2.48627
-4.98894
-2.65955
6.15148
0.186161
-6.15148
0.186869
2.91891
0.0283966
2.91891
-2.91864
2.91864
-2.98427
0.0369654
-2.98427
-2.14617
0.4222
-2.14617
1.41007
0.313905
1.41007
-4.2105
-0.0837711
-4.2105
-4.09243
0.157961
4.09243
0.154475
1.11936
-1.11936
-0.603891
0.11446
-0.603891
-4.05933
-0.151167
4.05933
-0.105119
-3.89358
-0.0606347
-3.89358
-3.02194
0.037671
3.02194
0.0453746
3.11212
0.0450044
-3.11212
0.0448072
-1.87099
3.75382
-1.87996
3.75406
-5.69773
-0.380945
-5.69773
6.35941
-0.280739
6.35941
3.10208
0.475792
-3.10208
0.424654
2.01219
0.184681
2.01219
-6.86466
-0.0270892
-6.86466
6.89791
-0.00616345
6.89791
1.87673
0.135455
-1.87673
0.0898748
1.75501
-0.00539863
1.75501
2.91632
-0.0277821
2.91632
-2.88211
-0.00642436
-2.88211
2.79077
-2.79077
2.71668
0.0740863
-2.71668
0.0911357
-11.124
11.1092
-0.0363509
-11.0876
5.17397
5.17397
4.24062
0.546509
4.24062
-5.01419
0.196027
-5.01419
2.66724
-5.32679
3.10696
-6.46805
4.67187
-16.153
4.2917
-8.3662
6.74673
-6.74673
6.62859
0.118131
-6.62859
0.131578
-1.13912
0.109604
-1.13912
-3.12821
-0.601945
-3.12821
4.36683
-0.636666
4.36683
-3.02759
3.02759
-3.07635
0.0487616
3.07635
0.0510531
1.76798
-0.0129696
-1.76798
-0.0360287
0.188406
0.090742
-0.188406
0.047129
3.52512
-0.22299
3.52512
-3.09753
-0.204601
-3.09753
-1.23065
0.0915304
1.23065
0.0920036
-5.80772
0.249426
-5.80772
-11.1817
0.0940544
-11.1439
-6.11373
-6.11373
2.32726
11.1189
-2.89733
0.0152219
2.89733
0.0215734
2.97495
0.0526419
-2.97495
0.0563114
-2.85723
0.0664654
2.85723
0.0614035
-2.51375
0.367572
-2.51375
-1.026
1.026
-1.17325
0.147248
1.17325
0.236819
1.41997
-0.300609
1.41997
0.739935
0.117491
-0.739935
0.136044
-3.83904
-0.0545408
-3.83904
6.59838
-0.238974
6.59838
-2.96815
-0.129382
2.96815
-0.0518312
-0.0349829
11.1442
-5.13899
0.033736
5.13899
-11.2097
11.2434
-3.21884
0.705093
3.21884
1.02178
5.28346
0.274838
-5.28346
0.269272
6.83786
0.0600485
-6.83786
0.0911341
-2.63781
-0.490405
-2.63781
-5.09804
-0.599689
5.09804
-0.73121
-11.482
-0.203032
11.685
-11.4253
6.01075
0.146291
-6.01075
11.3897
-0.996285
-0.123077
0.996285
0.0297154
1.75933
-0.33936
1.75933
3.74308
-0.217958
-3.74308
-0.0959574
-6.75554
-0.109119
6.75554
-0.157152
-2.18793
-0.449881
2.18793
-0.428596
-4.26739
4.30714
1.90974
-2.33028
-2.65866
-5.62417
1.85527
1.89856
4.30191
-10.151
-6.00196
-9.96416
7.21427
-6.945
-9.32416
9.2355
7.93712
-7.99775
-5.77737
5.82843
6.48472
-6.43934
1.87946
1.87389
8.06911
-7.82037
-15.6678
15.2869
7.60425
-7.56483
15.8246
-15.8517
-17.8632
17.9232
-5.70368
5.80741
-6.74313
6.7367
-6.97995
6.92812
-2.79997
-3.66808
13.1184
-12.9591
8.59805
-8.66564
-8.67743
9.03403
3.38462
0.922518
3.42962
-1.88179
3.76124
-1.87153
3.78127
2.75949
-5.55945
2.5673
-5.22596
4.38005
4.21801
-4.29975
-1.32441
-5.92881
5.9572
-5.80911
5.87051
9.1804
-9.16302
-1.88499
3.75888
-1.86908
3.76763
-3.42297
-2.3544
3.37795
0.923961
8.06773
5.05071
-8.25389
-1.71028
-8.02963
7.81167
-8.21717
8.01257
-0.43633
5.83858
-5.40225
4.43868
-1.65288
7.49146
5.56139
5.75741
5.86065
-5.58581
1.08435
-6.4866
-6.39987
-2.2594
2.37386
2.14713
-2.0516
6.14915
1.78797
6.04403
-5.81016
-2.18759
-5.8647
3.81976
2.00866
3.86853
4.08217
2.40255
4.11984
3.02957
-3.03677
0.0071926
-3.05931
6.08888
0.722111
-5.41371
-4.48975
4.99258
3.07653
5.22439
-5.59547
-2.2249
-5.17082
-9.56223
-6.1056
-10.1619
10.0853
5.20162
9.80453
-11.9527
11.7956
4.8627
2.74154
4.86054
-4.9778
-2.58703
-4.88793
11.6843
-2.6549
-9.02938
-10.3294
-7.53372
10.3356
5.48906
10.9705
6.9527
11.0616
4.42645
7.25783
-9.9155
2.38178
-3.86599
-1.83768
-3.77486
3.66303
2.14438
3.7947
-4.21889
-2.52424
-4.20367
-4.29541
-2.68454
4.32319
2.41351
-4.41733
-3.79984
4.54672
2.3814
4.05342
-10.0554
4.31278
-7.98086
-9.2008
-3.75826
-9.06923
3.55923
2.60134
-6.16057
-2.00022
8.5506
-4.33259
7.22619
-5.19386
-3.47178
-5.22989
-6.96621
-1.71122
-6.80824
-8.92597
8.43557
-9.22187
8.5852
12.5116
-5.63438
-6.87722
-3.96702
-2.47232
3.92221
-0.492593
-3.71003
3.71722
0.051216
3.83249
4.75501
4.26241
-3.88225
-1.92685
-3.82594
3.82157
2.04894
3.88804
6.85048
2.32992
6.88047
-6.61594
-2.54708
-6.69971
9.09828
-8.67608
2.79415
-2.70262
5.37811
2.63446
-5.15512
-2.87451
6.24025
-3.21224
-3.02801
-12.3475
10.7934
1.55411
-4.85608
-0.417395
-0.494448
-5.56856
-3.75561
5.44887
0.308547
11.102
7.34637
-5.51447
5.76389
6.17058
6.22179
-0.178085
5.88779
-5.18269
5.26935
-2.72788
-2.54148
5.48035
-5.63151
-1.21937
-5.5532
4.33383
0.412515
1.49063
-1.2723
-1.76987
-0.489536
-1.63382
1.17819
0.968935
1.26894
0.957462
1.4164
-2.91986
0.520445
2.39941
-1.9624
-1.53116
-3.81786
-1.15435
4.97222
5.73468
2.07698
-5.63873
-0.225977
2.55521
-2.45567
-0.836898
-2.98096
2.23084
-3.06774
-3.46863
-1.94227
5.4109
-3.36864
-0.457305
3.316
0.552529
-3.8282
-2.10061
3.79123
0.328606
-3.12896
6.19023
-3.06127
-5.05582
2.52895
3.55992
4.53762
-4.78995
2.44923
2.34071
-1.23002
4.2575
0.966892
4.44218
-7.05951
4.83461
5.73903
3.29499
-6.21482
1.04401
-6.0155
8.55983
-7.4026
-1.15723
4.09678
4.46305
7.01511
5.4965
-5.67814
12.6932
-1.17122
-6.23138
7.18672
-3.89172
4.86795
-8.75968
-10.3644
4.13306
-9.20619
11.0796
-1.87344
-3.60346
-8.34927
12.8097
-1.21629
-11.5934
8.58824
-4.35141
-4.40957
8.76098
-7.00631
6.9966
-1.98705
-5.00955
-10.1483
-5.70349
10.2574
1.53821
-9.95586
12.3376
-2.69802
4.16019
0.700342
4.1548
3.36464
-5.47967
2.11504
3.64167
-5.62872
2.0481
-7.52777
-6.7528
12.0945
-5.34166
-10.5111
-9.54313
-0.967926
2.54787
9.78977
-9.50057
7.43259
2.06798
3.29758
0.590459
-3.37166
-0.403192
0.234758
4.51199
-4.74675
4.02945
4.19101
3.21969
1.2923
3.84947
2.10773
-3.87104
-0.332624
-4.16853
1.48399
-1.75502
-3.69417
5.17816
-4.06197
0.367798
-2.74342
-3.49276
6.23618
-4.5811
3.03581
3.15442
5.08475
-4.91503
1.42227
-2.39084
-2.52418
2.63969
-4.39472
2.00115
3.17701
4.38255
0.582716
5.90828
6.18619
-8.50962
0.528751
11.2369
-9.52663
2.47877
8.58287
-9.91136
0.368229
-8.701
0.97893
-5.31152
-5.18164
5.22286
-6.93408
-3.53682
6.25123
0.629233
-6.40571
-0.402537
-6.06439
-2.86159
-6.51427
-3.06084
-6.16103
-8.73898
-1.67259
-7.06638
6.76298
-6.68688
-3.47504
7.41809
1.16712
-7.47808
7.355
-7.53655
7.19719
0.0949944
3.62223
4.35741
1.88509
-2.3922
4.27729
-5.07459
7.40451
-8.74904
3.67444
4.24194
-6.78901
-4.5071
5.05713
4.04115
5.37104
8.917
-10.3672
1.45017
-10.6413
11.9818
-1.3405
-16.4184
5.77717
-7.50143
2.4145
0.379651
2.52411
0.552159
2.49377
-3.04593
-2.15046
-2.05846
-2.4467
-3.49477
5.94147
1.06482
-3.4773
2.41248
-3.5692
4.63402
-0.0793774
-3.39793
5.18021
-2.68644
5.55986
-3.64858
1.91129
3.55382
5.84462
-2.29081
4.42141
-1.78694
1.94787
-4.23868
-1.5469
-2.95247
5.09685
-3.28371
3.65151
-0.350099
4.00161
-4.04115
0.828903
-0.821461
3.36955
3.60697
4.3317
-3.0394
2.93499
-4.72194
-1.30369
-4.13922
-0.962208
-0.182407
-3.78166
3.96406
5.99994
-6.18235
-5.27968
9.52075
-4.24107
7.70041
-5.43729
-2.26311
-4.28933
-4.38676
3.92175
1.96603
9.66644
0.179401
-5.6167
-5.00329
-3.98151
3.08568
2.18367
-1.73001
3.28412
2.22446
-0.733826
0.391067
0.877869
1.75988
-1.36882
0.347304
1.41258
-0.924997
1.69316
0.862055
-1.81065
0.176826
-1.31609
3.54693
1.08333
-2.05226
0.683446
0.887841
-3.61572
5.09516
-2.73483
-2.36033
5.983
1.14494
-3.87977
4.40826
-3.99574
2.4488
-3.60315
-1.43097
-5.42672
-3.63875
-2.48527
4.89775
-3.4562
5.53318
1.42912
-5.30721
6.73633
-3.62731
1.68504
-3.05898
3.92103
-1.00671
-2.05227
2.87583
2.53507
-3.13905
0.158089
-0.263223
2.41751
-2.68073
-0.650237
-2.61263
-4.57612
4.90473
-2.10371
4.55295
2.17357
-1.91774
6.47069
1.80758
-3.72531
-3.24824
-3.70554
-1.3846
3.15301
-0.578515
-4.30941
-5.58806
4.17396
0.268224
-7.07364
7.93357
-0.859928
-3.99712
-0.837498
4.93428
-6.09352
0.464801
-4.04542
3.88814
4.85504
5.12326
-11.3625
-0.230826
-6.16092
1.09464
-7.25556
5.55768
-3.52309
7.65616
-10.3373
6.86223
-9.17016
6.49893
-0.756628
6.24861
-4.13358
2.78077
-8.48426
-6.94605
5.58229
-2.84074
6.28263
-3.22221
9.50484
-5.92024
5.37598
4.12887
-1.0654
-4.16448
-5.35332
4.28791
0.0226573
4.17745
4.98728
-2.87954
4.65465
2.2643
-4.65515
-2.13041
-6.48842
1.83327
-3.334
-1.92271
3.75598
3.16204
3.7525
1.23179
-3.34931
7.24823
-8.21616
-1.90657
-3.27507
5.32782
-1.03991
3.45548
-6.73055
-1.85604
4.74406
-0.725898
-4.01816
0.890323
-4.42714
1.67348
-6.10063
5.26059
-5.66313
2.25459
-9.75602
-5.22348
-5.19377
-2.27898
-5.25756
-7.574
5.29502
-1.79683
5.55817
-8.51042
7.78452
-3.47133
8.76635
-5.46091
-1.05336
5.88951
1.30768
10.074
0.164453
-4.67156
-1.94196
3.72973
-1.78777
1.14373
-3.61721
0.112521
2.49044
3.49256
-6.82428
0.035264
-4.63629
-3.90902
7.95017
5.61173
11.6117
1.24451
9.13575
-1.18558
10.3803
4.18546
4.42228
-3.00552
4.45569
0.958543
4.63299
-0.904212
2.8155
1.6199
1.69244
0.76323
2.30398
1.30299
3.13288
0.0869521
-1.97151
4.63245
-8.61396
-0.98425
-8.06745
1.16805
5.4294
-4.26134
2.86722
-0.683551
1.07945
-0.188732
-1.17509
1.36382
-2.73021
-1.90891
-0.496332
-1.66205
2.34549
1.88488
-1.84916
-0.881048
0.330079
-3.96883
3.27307
-3.11498
-0.579912
6.15642
-2.88959
0.208855
-1.20454
-2.40378
-2.89331
2.71649
6.17435
0.296338
3.11308
5.20107
3.10046
0.220916
3.80425
-5.67769
-3.72352
-5.90852
-0.350832
4.58345
1.76487
8.0249
5.89373
4.85383
-1.87672
-10.0929
6.50473
-2.04904
5.16423
-1.14607
-4.95456
5.07496
2.32956
-5.70419
0.0410562
-4.9135
-6.96255
-0.479481
8.264
-9.59455
8.54119
5.6796
1.38678
-4.43597
-0.757803
4.28872
0.133563
10.5138
-0.912127
-7.04942
7.96154
-4.51727
3.53302
0.674393
2.60973
2.03821
1.35466
-5.69476
-9.9561
-2.07014
-1.54558
-4.43048
0.54174
-2.42662
6.06937
-2.53635
3.80626
5.42519
6.50464
-2.04739
-4.13496
6.28846
-2.4822
4.02244
)
;

boundaryField
{
    wall-4
    {
        type            calculated;
        value           uniform 0;
    }
    velocity-inlet-5
    {
        type            calculated;
        value           uniform -3.75095;
    }
    velocity-inlet-6
    {
        type            calculated;
        value           uniform -5.62643;
    }
    pressure-outlet-7
    {
        type            calculated;
        value           nonuniform List<scalar> 8(3.33146 7.7636 4.41699 9.68213 7.43559 5.14582 5.7742 8.96357);
    }
    wall-8
    {
        type            calculated;
        value           uniform 0;
    }
    frontAndBackPlanes
    {
        type            empty;
        value           nonuniform 0();
    }
}


// ************************************************************************* //
