/*--------------------------------*- C++ -*----------------------------------*\
  =========                 |
  \\      /  F ield         | OpenFOAM: The Open Source CFD Toolbox
   \\    /   O peration     | Website:  https://openfoam.org
    \\  /    A nd           | Version:  6
     \\/     M anipulation  |
\*---------------------------------------------------------------------------*/
FoamFile
{
    version     2.0;
    format      ascii;
    class       volVectorField;
    location    "76";
    object      U;
}
// * * * * * * * * * * * * * * * * * * * * * * * * * * * * * * * * * * * * * //

dimensions      [0 1 -1 0 0 0 0];

internalField   nonuniform List<vector> 
918
(
(0.985049 -0.000715512 0)
(0.00536574 2.96623 0)
(-0.00276497 0.879923 0)
(0.979575 0.00196171 0)
(-0.0139387 2.06583 3.27601e-20)
(-0.00710646 2.94857 -2.54697e-18)
(0.81938 1.12141 4.53393e-19)
(0.111933 0.0740477 -1.38547e-20)
(0.999922 -0.000244805 0)
(0.0905967 0.665619 0)
(0.0100682 0.375421 0)
(0.732323 0.00251391 0)
(0.0101701 2.93168 0)
(0.00350889 2.79443 0)
(-0.00227819 3.17895 8.34943e-19)
(-0.0135348 1.928 2.16739e-20)
(0.29406 0.0413239 9.67956e-19)
(0.233162 1.10915 3.58926e-19)
(0.964336 0.00674427 0)
(-0.000337769 0.385931 0)
(0.0335107 -0.00505375 -6.41907e-19)
(1.00183 -0.00455971 0)
(0.99985 -0.00892625 0)
(0.975168 -0.00605165 0)
(0.593463 0.0262556 0)
(0.0207621 2.64474 0)
(-0.0122796 2.91188 9.29866e-19)
(-0.00594845 0.93267 0)
(-0.0321026 1.17022 0)
(-0.00379947 0.9022 0)
(-0.0227197 2.5894 0)
(-0.00481168 2.11617 -2.6167e-20)
(-0.0098442 1.90142 0)
(-0.0221113 2.98761 -9.17274e-23)
(-0.0164806 3.00549 1.97877e-18)
(0.00230053 3.00057 0)
(0.871974 -0.00975922 0)
(0.37505 0.913914 1.58571e-19)
(0.818212 1.13999 -5.72399e-19)
(0.950538 1.00644 5.80206e-19)
(0.680904 1.22281 -1.03853e-19)
(0.694394 1.18315 5.91515e-19)
(0.140771 0.129645 1.35146e-20)
(0.146297 0.0805825 0)
(1.16675 0.532516 0)
(0.111355 0.106355 6.10173e-20)
(0.0870027 0.0581677 -6.33219e-20)
(0.920564 -0.00704825 0)
(1.00027 5.5759e-05 0)
(0.999907 0.00032057 0)
(1.0037 -0.00728019 0)
(1.00088 -0.000948361 0)
(1.00011 -5.6513e-06 0)
(0.0921962 1.84621 -7.33319e-19)
(0.0334978 0.852035 0)
(0.127946 0.754953 0)
(0.0172652 0.794168 0)
(0.0519991 0.58194 0)
(0.00444075 2.03202 0)
(-0.00824465 0.704126 0)
(0.00561524 0.395198 0)
(-0.0154577 0.702029 0)
(0.0162152 0.369948 0)
(0.843731 -0.0156056 0)
(0.840098 0.0302168 0)
(0.759932 -0.00328527 0)
(0.800799 0.0270933 0)
(0.701895 0.0171777 0)
(0.013909 3.00023 9.4486e-19)
(0.0111137 3.00602 0)
(0.00619477 3.00384 0)
(0.0118831 2.99716 1.07195e-23)
(0.00821416 2.95879 -1.40429e-18)
(0.0122292 2.983 0)
(0.00908481 2.90479 0)
(0.0209875 2.93183 2.17021e-24)
(0.00410465 2.82396 0)
(0.0253071 2.91887 0)
(-0.00119736 2.74482 0)
(0.305476 3.57358 0)
(-0.122198 3.65637 0)
(0.149147 3.26958 -7.77062e-19)
(0.00330217 3.00713 0)
(-0.0303724 1.98984 0)
(-0.00708457 2.1791 -2.13765e-20)
(-0.0094751 1.93991 2.17678e-20)
(0.34696 0.139803 -3.36091e-19)
(0.318757 0.0125121 -3.27465e-19)
(0.302246 0.153453 -1.00492e-18)
(0.26093 0.0620725 -6.53921e-19)
(0.264362 1.02397 0)
(0.332107 1.24 -3.71021e-19)
(0.413911 1.15109 6.12177e-19)
(0.987716 0.00815939 0)
(0.943232 0.00578008 0)
(1.00028 0.000671901 0)
(1.00254 0.00906629 0)
(1.00311 0.00899269 -2.5817e-18)
(0.992135 0.0094184 1.95085e-18)
(-0.0217953 0.729319 0)
(0.000680566 0.390306 0)
(-0.0524828 1.01804 0)
(-0.0321545 0.78619 0)
(-0.0115357 0.387508 0)
(-0.0598413 0.0964304 1.99432e-19)
(0.041755 0.05163 0)
(0.993626 -0.00769233 0)
(0.954053 -0.00648442 0)
(0.740334 0.030511 0)
(0.673436 0.0243249 0)
(0.660168 0.019232 0)
(0.980339 -0.00265778 0)
(0.587117 0.0650405 0)
(0.449249 -0.0157896 1.47382e-18)
(-0.0410533 2.85991 7.25239e-19)
(0.0338111 2.91414 0)
(0.0426747 2.89261 0)
(0.0031424 2.70197 0)
(-0.00882508 2.9866 8.88686e-19)
(-0.0141887 2.89471 0)
(-0.0109358 2.99192 -2.73869e-18)
(-0.0116265 2.9297 9.32216e-19)
(-0.0464517 1.3468 0)
(-0.016331 1.37544 0)
(-0.00759326 2.14086 7.81597e-22)
(-0.0076236 2.10023 0)
(-0.0170088 1.91205 0)
(0.938917 -0.0051903 0)
(0.857341 -0.011158 0)
(0.863112 0.00478875 0)
(0.949696 -0.00613105 0)
(0.883704 -0.00809531 0)
(0.498457 1.11377 -2.01698e-19)
(0.545742 1.18357 0)
(0.337088 0.848621 3.10855e-20)
(0.281633 0.713196 0)
(0.919371 1.036 -1.6431e-19)
(1.04242 0.846616 3.31596e-19)
(0.392398 1.31857 0)
(0.54341 1.27391 0)
(0.597465 1.20069 0)
(0.104143 0.18186 -2.9353e-19)
(0.168979 0.143739 0)
(0.170562 0.0958778 1.81616e-19)
(1.00555 0.900628 0)
(1.08147 0.749035 0)
(1.11107 0.684355 -2.68088e-19)
(1.1476 0.595088 0)
(1.20367 0.391561 4.72619e-20)
(0.957522 -0.00709122 0)
(0.962741 -0.00810728 0)
(0.900934 -0.00737549 0)
(0.983933 -0.00812144 0)
(0.974435 -0.00802955 0)
(0.936553 -0.00656876 0)
(1.0002 0.00250569 0)
(1.00077 0.001239 0)
(1 0.000760923 0)
(0.0438702 2.08822 4.09813e-19)
(0.143671 1.7906 0)
(0.0191789 2.20434 6.1502e-19)
(0.051753 1.89392 -5.13151e-19)
(0.167255 1.08488 -2.94641e-19)
(0.0495218 0.938123 0)
(0.122036 0.939295 0)
(0.00763487 0.758182 0)
(0.0293992 0.505587 0)
(-0.00304266 2.25898 -3.65032e-22)
(0.020248 2.03747 0)
(-0.0049515 2.25948 -6.83592e-21)
(0.0025164 2.04372 8.92959e-22)
(-0.00126902 0.730491 0)
(-0.00630355 0.712203 0)
(0.0112505 0.441649 0)
(-0.0137438 0.703236 0)
(0.00647226 0.371995 0)
(0.939597 0.0138878 0)
(0.856561 -0.011556 0)
(0.928731 0.00489536 0)
(0.846325 -0.0127787 0)
(0.810561 -0.000772971 0)
(0.898111 0.0222316 0)
(0.872392 0.0279067 0)
(0.785511 -0.00325582 0)
(0.0102465 3.06791 -8.76619e-21)
(0.0150226 3.05888 0)
(0.01245 2.97023 0)
(0.0076782 2.87669 0)
(0.894875 3.96701 0)
(1.18874 3.36332 9.38259e-19)
(0.0809192 3.08962 0)
(-0.0175248 2.91735 0)
(-0.016647 1.4021 0)
(-0.0358894 1.69821 0)
(-0.0248078 1.53391 0)
(-0.0330229 2.54999 -1.4546e-20)
(-0.01806 2.2459 0)
(-0.0226531 2.39028 0)
(-0.000879855 1.96932 -5.05455e-24)
(-0.00514796 2.25299 -2.75766e-20)
(-0.00618533 2.21663 -2.23347e-20)
(-0.0058707 1.95312 0)
(0.389979 0.115356 5.16633e-19)
(0.359965 0.00396587 -5.07051e-19)
(0.233907 1.59214 0)
(0.2882 0.767908 -3.18304e-19)
(0.176493 1.69158 -1.04854e-18)
(0.244037 1.22736 1.04902e-18)
(0.901652 0.00579865 0)
(0.967018 0.0107182 0)
(0.97488 0.00986814 0)
(0.922972 0.00584359 0)
(-0.0202595 0.710962 0)
(-0.0247264 0.720441 0)
(0.00109548 0.379435 0)
(0.0841439 0.0934114 5.60715e-19)
(0.0695928 0.0726805 -6.61337e-19)
(0.0481851 0.0466315 0)
(1.10786 0.0907316 2.2885e-20)
(1.09153 0.0427269 0)
(1.01923 0.043838 0)
(0.91422 -0.00137329 0)
(0.439025 0.0982449 0)
(0.497795 0.0765602 -2.35684e-18)
(0.39778 -0.000535069 8.8284e-19)
(0.0107029 2.97732 7.72055e-19)
(-0.0323829 2.86152 4.71713e-20)
(0.00864475 3.05314 -1.85273e-20)
(0.0157887 3.04342 6.95519e-19)
(-0.0118094 2.99995 3.06964e-20)
(-0.0123468 2.95224 -1.23984e-22)
(-0.0150404 3.01327 -5.74464e-19)
(0.0143581 3.02664 4.03696e-19)
(0.00763563 3.03476 -6.54921e-19)
(0.934787 0.00216009 0)
(0.939556 -0.00109708 0)
(0.848234 -0.0111817 0)
(0.956257 0.01194 0)
(0.942255 0.0135402 0)
(0.881595 0.00522452 0)
(0.915616 0.018002 0)
(0.925052 0.0154184 0)
(0.837243 0.0016673 0)
(0.671071 1.41189 2.46827e-20)
(0.689021 1.52228 0)
(0.118434 0.291175 6.61647e-20)
(0.21376 0.654471 5.22699e-19)
(0.240318 0.692813 -3.06969e-19)
(0.214448 0.494614 6.09052e-19)
(0.340781 0.833429 1.55496e-18)
(0.135767 0.237522 3.74289e-19)
(0.257504 0.167759 6.93457e-19)
(0.210528 0.16415 1.7889e-19)
(0.219328 0.085327 3.40704e-19)
(1.19503 0.447305 1.04661e-19)
(1.21994 0.246509 1.02624e-19)
(0.00928557 2.24583 2.38743e-19)
(0.0392683 1.95823 0)
(0.973191 0.0331439 0)
(0.946972 0.0192981 0)
(0.871448 -0.0151119 0)
(0.0126342 3.07395 0)
(0.0167172 2.944 1.2246e-18)
(0.0139273 2.95665 0)
(0.00588457 2.84988 -1.21506e-18)
(0.0094848 3.0905 2.98708e-19)
(0.011286 3.08379 0)
(0.708608 1.81807 -1.72808e-19)
(1.23305 2.62258 5.83914e-19)
(0.693276 1.99604 -1.40044e-18)
(0.0220117 2.9757 -6.69253e-19)
(0.0402444 2.99753 0)
(-0.0385599 2.87788 0)
(-0.00633761 2.23836 -1.29207e-20)
(-0.00490554 2.25855 5.38589e-20)
(-0.000587244 2.00527 -7.03803e-21)
(0.268709 1.40406 1.0108e-18)
(0.287678 0.571942 -6.94186e-19)
(0.0718945 2.00571 7.3989e-19)
(0.123129 1.87411 -8.94709e-19)
(0.208978 1.54133 1.03587e-19)
(0.00682655 3.11926 -1.69656e-18)
(0.017077 3.11948 1.83516e-18)
(-0.00510557 2.98022 8.31354e-19)
(-0.000546331 2.975 -7.97831e-19)
(-0.0178138 2.87792 -8.46756e-19)
(0.0126206 3.09901 -2.21654e-18)
(0.0051274 3.10762 2.1997e-18)
(0.268032 0.699832 0)
(0.219146 0.660262 -1.11602e-18)
(0.0746113 0.212521 4.91176e-19)
(0.347054 0.953539 1.10681e-18)
(0.200225 0.282082 -1.70445e-18)
(1.19876 0.176388 4.33155e-20)
(1.21658 0.305845 0)
(1.19426 0.121476 1.42574e-20)
(-0.000640299 2.26668 -1.16806e-21)
(0.00388153 2.25072 0)
(0.0320573 1.99457 0)
(0.31365 1.31923 -3.63372e-19)
(0.354264 1.17967 -7.88618e-19)
(0.233664 0.393344 1.41066e-18)
(1.00644 -0.00967965 0)
(1.00774 -0.00778282 4.74439e-19)
(-0.040841 1.32923 0)
(-0.0495625 1.33394 0)
(1.00244 0.00327119 1.33833e-21)
(1.0032 0.00781297 9.74127e-19)
(-0.0242373 2.53644 1.84318e-20)
(-0.0272518 2.5789 0)
(0.0404909 3.17238 4.71557e-19)
(0.37349 3.5397 0)
(1.15889 0.693829 -4.55756e-20)
(1.01179 0.0106403 -2.84067e-21)
(1.02088 -0.00899415 0)
(1.00158 0.000286348 1.57019e-22)
(0.117353 1.37558 0)
(0.140728 2.58578 0)
(0.0305059 1.32922 0)
(-2.27452e-05 2.63404 -6.1148e-21)
(-0.0221424 2.5812 -1.11405e-20)
(0.997608 0.0321311 2.69953e-21)
(1.06307 0.00593457 0)
(1.1002 0.0285519 0)
(-0.034197 1.74567 0)
(-0.0194375 2.58017 0)
(-0.015306 1.3209 0)
(0.308825 1.49034 -1.78725e-19)
(1.01152 -0.00905288 0)
(1.00971 -0.0129833 0)
(1.00227 0.000938267 6.07619e-19)
(1.00548 -0.00491018 -7.16296e-19)
(1.00113 -0.000861447 0)
(-0.0228674 1.4687 0)
(-0.0117606 1.38988 0)
(-0.0178333 1.43005 0)
(-0.0179987 1.30747 0)
(-0.0301942 1.29772 0)
(-0.0242617 1.27672 0)
(1.03569 -0.00428673 0)
(1.01889 0.0153894 -9.34207e-22)
(0.812403 1.31181 2.89276e-19)
(1.00244 0.000388913 -6.07235e-19)
(1.00338 0.00444742 7.24919e-19)
(1.00126 0.002094 0)
(1.01108 0.00963501 6.04743e-19)
(1.00684 0.00745327 -7.36258e-19)
(1.00713 0.0111122 0)
(-0.0242008 2.60746 0)
(-0.027358 2.58683 -3.13609e-20)
(-0.024252 2.60084 2.21078e-20)
(1.2427 0.273829 4.98237e-19)
(1.16367 0.089141 0)
(0.0438484 3.09156 -9.4525e-19)
(0.0517861 2.87406 -6.70617e-20)
(0.103415 3.2018 1.26463e-18)
(0.121811 3.2136 -2.66964e-19)
(0.141348 3.25668 0)
(0.0224548 3.13767 2.59591e-19)
(0.0609473 3.16217 9.41556e-19)
(0.0614959 3.17874 -4.85705e-19)
(0.0266394 3.12971 0)
(0.556791 0.290645 0)
(0.501432 0.308096 0)
(1.14128 0.725222 9.7541e-20)
(1.10629 0.861228 -7.5132e-20)
(1.19897 0.611425 0)
(1.2261 0.545222 0)
(1.01569 0.0120278 -1.12323e-18)
(1.01467 0.0127512 1.4122e-18)
(1.02576 -0.00872178 0)
(1.02409 -0.0102895 0)
(1.00679 0.00324049 0)
(1.01088 0.00421507 0)
(1.00421 0.00221669 0)
(1.00935 0.00634991 0)
(1.00684 0.00504316 0)
(1.00438 0.00526318 0)
(0.108367 1.3758 0)
(0.0962596 1.33383 0)
(0.14016 1.42071 0)
(0.14779 1.40482 0)
(0.152026 2.60924 0)
(0.191537 2.67524 -4.07294e-19)
(0.105524 2.6687 0)
(0.0799918 2.6697 1.63925e-19)
(0.0266475 2.67437 -1.61022e-19)
(0.0148459 1.33087 0)
(0.0242289 1.25351 0)
(0.0271014 1.34236 0)
(0.0431622 1.27748 0)
(-0.00218683 1.99627 3.93068e-20)
(-0.0218737 2.60946 -4.11162e-20)
(-0.00627092 2.67633 -3.39684e-20)
(-0.0190192 2.68814 0)
(-0.0241227 2.6154 3.44799e-20)
(-0.0227335 2.61082 4.07208e-20)
(0.00484513 1.99306 -2.98628e-20)
(-0.0104634 2.40136 5.51591e-20)
(-0.0149917 2.42609 3.85062e-20)
(1.01213 0.0396361 1.13994e-18)
(1.00332 0.0204585 -1.41941e-18)
(1.00312 0.0476302 -1.16313e-18)
(0.975305 0.0374423 1.46508e-18)
(1.06473 0.00926112 0)
(1.04993 -0.00642856 0)
(1.09273 0.0376812 0)
(1.07593 0.0150713 0)
(1.07469 0.000574741 0)
(1.14144 0.0796805 0)
(1.11584 0.046339 0)
(1.11911 0.0375495 0)
(-0.0296581 2.43193 3.58444e-21)
(-0.0204412 2.02283 0)
(-0.0208351 2.22015 0)
(-0.0215491 2.60101 -1.9665e-20)
(-0.0183396 2.61203 6.31832e-22)
(-0.00232957 1.59014 -5.57197e-20)
(-0.0118063 1.51246 5.692e-20)
(-0.0226459 1.40353 0)
(-0.0267328 1.40919 0)
(-0.0336435 1.40018 0)
(-0.0118028 1.32294 0)
(-0.00172419 1.24378 0)
(0.385638 1.51486 3.00458e-19)
(0.434415 1.51893 1.5787e-19)
(0.591763 2.46649 -2.43117e-19)
(0.38568 2.56089 6.91595e-19)
(0.349666 2.05027 6.66578e-20)
(1.02071 -0.00799843 0)
(1.0158 -0.00935392 0)
(1.01485 -0.013211 0)
(1.00773 -0.000551891 0)
(1.00485 -0.000679439 0)
(1.008 -0.00446914 0)
(1.00955 -0.00343244 0)
(1.01465 -0.00427583 0)
(1.01963 0.0163243 1.10203e-18)
(1.01713 0.0148606 -1.3971e-18)
(1.01997 0.0187369 -1.11082e-18)
(1.0175 0.0169473 1.38981e-18)
(0.768796 1.35864 0)
(0.707468 1.39441 2.56388e-19)
(0.876464 1.23973 1.1037e-19)
(0.913479 1.19919 -1.46483e-19)
(1.1642 2.61108 2.49631e-19)
(0.751675 0.127701 5.74609e-19)
(1.17213 0.10816 0)
(1.21484 0.202568 -4.04573e-19)
(1.19602 0.154621 -1.68246e-20)
(1.01322 0.166469 0)
(0.0762387 3.01815 3.31717e-19)
(0.0822072 2.90298 -1.11155e-18)
(0.0237381 2.36008 7.04019e-19)
(0.15274 -0.25957 -3.15289e-19)
(0.341739 3.44374 -2.57807e-19)
(0.192861 3.33897 0)
(0.223381 3.39509 3.35824e-19)
(0.221353 3.07606 -1.16948e-18)
(0.253892 3.19457 0)
(0.00580625 3.12279 4.91349e-20)
(0.0165676 3.13133 -5.66393e-19)
(0.0154345 3.12714 8.33618e-19)
(0.0327467 3.1403 0)
(0.0308786 3.14964 0)
(1.25696 2.5747 0)
(0.537697 0.787933 -5.14807e-19)
(1.0266 1.03502 -2.09449e-20)
(0.992475 1.08777 0)
(0.861432 0.970223 -1.00475e-19)
(1.08531 0.910595 2.6603e-20)
(0.320481 0.303885 -7.8328e-19)
(0.644161 0.32337 -2.22479e-20)
(0.527003 0.217766 3.84716e-19)
(0.534359 0.322761 2.76454e-20)
(0.413904 0.271303 -1.1054e-18)
(0.599764 0.323667 0)
(0.691813 0.433056 6.40025e-19)
(0.69461 0.438545 0)
(0.568256 0.330497 0)
(0.473575 0.252722 0)
(0.800631 0.657306 3.84785e-19)
(1.25403 0.307769 -4.04703e-19)
(1.24701 0.439462 0)
(1.24722 0.394972 0)
(0.684743 0.185761 5.86582e-19)
(0.84812 0.561113 -3.61978e-19)
(0.769406 0.525167 6.46172e-19)
(0.966013 0.454931 -6.4741e-19)
(1.01841 0.0147065 7.48964e-19)
(1.01703 0.0136531 -7.54382e-19)
(1.01592 0.0141671 0)
(1.03708 -0.00450511 0)
(1.03048 -0.00768748 -7.07161e-19)
(1.02868 -0.010574 6.99808e-19)
(1.02473 0.0110275 0)
(1.0227 0.0151333 0)
(1.0127 0.00473447 0)
(1.01456 0.00910614 0)
(1.0164 0.00425408 0)
(1.01556 0.00293778 0)
(0.0782633 1.3624 0)
(0.0802536 1.3046 0)
(0.15464 1.42196 6.13509e-20)
(0.276531 1.48665 8.7374e-20)
(0.174914 1.45821 1.96019e-19)
(0.213052 1.45677 -3.17328e-19)
(0.163771 1.43284 0)
(0.143535 1.586 -8.58719e-20)
(0.140863 1.58366 0)
(0.344853 2.00388 -9.70449e-20)
(0.324461 2.33452 5.49506e-19)
(0.198503 1.46503 7.48364e-20)
(0.27502 1.40047 2.79942e-20)
(0.20721 1.39963 -2.28308e-20)
(0.289168 1.33913 -7.72429e-20)
(0.260063 1.57745 0)
(0.26795 1.62488 8.84946e-20)
(0.0239818 2.25317 -1.32761e-20)
(0.0377485 2.66746 0)
(0.0636683 2.40495 9.48986e-20)
(0.0580674 2.42862 0)
(0.067073 2.68701 -1.82004e-19)
(0.0421743 2.70206 0)
(0.0242975 1.46111 6.33571e-20)
(0.0331348 1.51811 0)
(0.0332386 1.41996 0)
(0.0211435 1.42975 -7.26199e-20)
(0.00323203 2.66103 3.90898e-21)
(0.0261418 2.68999 1.84856e-19)
(0.0106407 2.73242 9.31214e-22)
(0.00139445 1.8484 -2.40585e-20)
(-0.00523918 1.70151 -1.78672e-20)
(0.011683 1.31404 0)
(0.019522 1.22556 0)
(0.039449 1.59487 -1.27341e-20)
(0.0426519 1.47493 -5.7739e-20)
(0.0275189 1.55503 6.14674e-20)
(0.0515782 1.61889 0)
(-0.0308263 2.27076 1.22004e-19)
(-0.0342411 2.54864 -5.16437e-20)
(-0.0205314 2.4489 8.96961e-21)
(-0.00664446 1.86393 2.91514e-20)
(-0.0282536 2.50399 1.25626e-20)
(-0.0233245 2.44605 -3.0934e-20)
(1.01772 0.0222272 -7.53474e-19)
(1.01455 0.028795 7.59558e-19)
(1.01191 0.017102 0)
(1.01112 0.0706072 1.03716e-18)
(0.990621 0.060892 -1.19173e-18)
(0.949891 0.0580818 1.33384e-18)
(1.01319 0.116275 -1.41158e-19)
(1.04402 -0.00464705 0)
(1.05223 -0.00039708 6.76823e-19)
(1.04031 -0.00816687 -6.76548e-19)
(1.07238 0.0437667 -4.00757e-20)
(1.06503 0.0291406 3.46343e-19)
(1.06432 0.0657845 0)
(1.05443 0.0549484 -1.24838e-19)
(1.03206 0.0443626 0)
(1.02526 0.0395829 0)
(1.02762 0.0137921 0)
(1.02398 0.0163206 0)
(1.0409 0.0339959 2.56671e-19)
(1.03963 0.0290669 -5.68328e-19)
(1.053 0.0388521 -2.71261e-19)
(1.04826 0.0388378 -2.99679e-19)
(1.07787 0.0706092 5.72067e-19)
(1.10194 0.0566094 0)
(1.10869 0.095099 0)
(-0.0285729 2.2771 7.13679e-20)
(-0.030617 2.02863 3.7303e-21)
(-0.0258116 2.03851 0)
(-0.0299452 2.44477 -7.10557e-20)
(-0.0276044 2.40349 -7.16566e-21)
(-0.0341795 2.47193 9.21845e-21)
(-0.021781 2.62285 -3.47052e-20)
(-0.0268143 2.56511 1.86814e-21)
(-0.0254268 2.51883 -1.16998e-20)
(-0.0174254 2.61581 2.2481e-20)
(-0.0215055 2.61812 -2.59824e-20)
(-0.0113223 1.51241 -6.69492e-22)
(-0.00601143 1.63756 -5.57538e-20)
(0.377009 1.45058 -1.29833e-19)
(0.371941 1.38138 6.86066e-21)
(0.648919 1.44221 -2.48058e-19)
(0.524739 1.51187 -1.53438e-19)
(0.578484 1.47066 0)
(0.607991 2.42257 2.13518e-19)
(0.667014 2.43251 3.33621e-19)
(0.421347 2.51755 9.46064e-20)
(0.40365 2.53894 -5.83193e-19)
(0.500622 2.47835 5.46454e-19)
(0.55373 2.47664 0)
(0.486223 2.52743 -5.39123e-19)
(0.258952 2.5896 1.11266e-18)
(0.361374 2.56894 -5.94167e-20)
(0.278552 2.65322 -1.55599e-18)
(0.970929 2.38988 7.00144e-19)
(0.848761 2.39082 0)
(1.01143 0.00139613 2.46289e-20)
(1.01538 -0.00516559 -2.01189e-20)
(1.01777 -0.00390497 -3.6773e-19)
(1.01563 -0.00102948 3.66451e-19)
(1.01313 0.00185142 0)
(0.637346 1.30394 0)
(0.680948 1.18934 0)
(0.795823 1.11986 0)
(0.668609 1.1465 0)
(1.19511 2.62648 5.14886e-20)
(1.08796 2.37862 0)
(0.817446 2.16632 3.39368e-21)
(0.821418 2.43037 0)
(0.916216 2.52084 -4.19675e-19)
(0.947651 2.47023 2.80181e-19)
(0.786131 0.164393 0)
(0.723776 0.150745 1.55848e-19)
(0.90205 0.159681 9.10301e-19)
(0.812675 0.141617 -3.41192e-19)
(0.757683 0.0935709 -1.04732e-18)
(1.0884 0.247312 -8.2027e-19)
(0.987134 0.317496 -1.01137e-20)
(0.929572 0.352432 7.96177e-19)
(1.01448 0.261016 6.78122e-19)
(0.930699 0.207752 -1.19858e-18)
(0.888452 0.221176 1.50841e-19)
(0.926784 0.318612 -3.11559e-19)
(0.905024 0.226192 0)
(1.00136 0.211396 5.86613e-19)
(1.05525 0.21977 0)
(1.05236 0.230766 0)
(1.12611 0.125475 2.61045e-19)
(1.06442 0.195139 -1.06222e-20)
(1.07978 0.248745 -1.49803e-19)
(1.11346 0.211998 0)
(1.02292 0.0495731 5.79879e-19)
(1.0374 0.0632124 7.23191e-19)
(1.03248 0.0465891 -5.7594e-19)
(1.04162 0.0692816 -4.85025e-19)
(1.01429 0.0747945 -7.34726e-19)
(0.985014 0.168554 0)
(0.987919 0.107805 0)
(0.961416 0.0754129 -4.74446e-19)
(0.902562 0.0974475 1.87471e-19)
(1.03928 0.117325 6.71225e-19)
(1.07618 0.137751 -7.65012e-19)
(1.06997 0.18105 6.88276e-19)
(1.03478 0.157667 0)
(1.08646 0.123476 0)
(1.05699 0.112599 -3.13972e-19)
(1.04258 0.109228 -5.4527e-19)
(0.587907 1.08314 1.11687e-19)
(0.611026 1.39939 -1.40655e-20)
(1.14467 2.71713 -2.36837e-19)
(1.19725 3.10164 8.25878e-22)
(1.25294 2.72699 -1.03527e-19)
(1.29242 2.69763 1.04812e-20)
(1.26779 2.32106 -3.81869e-20)
(1.18489 3.00705 -6.57211e-20)
(1.20448 2.96404 2.10708e-19)
(1.17891 3.25498 -1.25385e-19)
(1.39632 2.96917 1.56836e-19)
(1.40769 2.90469 0)
(0.575451 0.814044 -4.68447e-20)
(0.205192 1.21029 4.64759e-19)
(0.524035 0.335144 5.06563e-19)
(0.410161 0.100352 5.74454e-19)
(0.469476 0.297868 6.2615e-19)
(0.547878 0.413394 -1.02065e-18)
(0.556616 0.397354 8.40133e-19)
(0.467101 0.295681 -3.13343e-19)
(0.324875 0.238122 7.11121e-19)
(0.7179 0.255073 -3.38066e-19)
(0.667361 0.287067 0)
(0.597072 0.195905 7.59628e-21)
(0.738497 0.510459 3.49263e-19)
(0.709422 0.483184 -1.26566e-18)
(0.632693 0.434457 1.3675e-20)
(0.619972 0.414992 0)
(0.722161 0.717074 3.63068e-19)
(0.838741 0.800192 3.98074e-19)
(0.776329 0.849883 -4.64007e-19)
(0.906196 0.82183 -1.46336e-19)
(0.940955 0.865191 -3.33328e-20)
(0.948499 0.872547 3.41896e-20)
(0.884427 0.680689 -6.48136e-19)
(0.956807 0.726907 1.36048e-19)
(1.01116 0.729768 0)
(1.01 0.705425 -1.73079e-19)
(1.03161 0.341711 2.04712e-19)
(1.15954 0.342305 2.44728e-19)
(1.07532 0.284734 3.35351e-19)
(1.00034 0.388705 -4.10117e-19)
(1.0579 0.489532 0)
(1.13948 0.430207 0)
(0.901774 0.426771 2.43982e-22)
(0.846144 0.321777 0)
(0.894214 0.313463 3.8181e-19)
(0.915861 0.351075 3.17906e-21)
(0.988154 0.499806 1.80752e-18)
(0.920217 0.558838 4.65966e-19)
(0.943363 0.517938 -4.93998e-19)
(0.861222 0.494715 5.26778e-19)
(0.825939 0.470355 3.37072e-19)
(0.802079 0.449101 -3.30405e-19)
(1.02819 -0.000356206 6.07446e-19)
(1.02045 0.000597934 0)
(1.01909 0.00141335 3.96496e-19)
(1.02268 -0.000688684 -8.97493e-19)
(1.02256 0.00461437 4.37212e-19)
(1.02003 0.0116704 -9.15188e-19)
(1.02075 0.0114949 0)
(1.01967 0.012264 -1.90588e-19)
(1.01657 0.00782496 4.77677e-19)
(1.01667 0.0109426 -2.39857e-19)
(1.01727 0.0106482 1.75536e-19)
(0.0399186 1.33708 0)
(0.0407653 1.39751 0)
(0.0570385 1.34111 0)
(0.060525 1.27738 0)
(0.0861452 1.40585 -7.59107e-20)
(0.0916487 1.37722 1.75402e-20)
(0.0829527 1.57295 3.46198e-21)
(0.0994479 1.40973 -4.35855e-20)
(0.0451578 1.48716 5.12917e-20)
(0.0504733 1.48155 -4.03801e-20)
(0.0761008 1.39938 -2.28635e-20)
(0.065098 1.40208 7.57723e-20)
(0.0588123 1.38251 1.24572e-20)
(0.048128 1.40099 8.55663e-21)
(0.101139 2.37161 -1.04704e-19)
(0.0929543 2.41748 0)
(0.148775 2.01643 1.02457e-19)
(0.132948 1.70222 3.60647e-20)
(0.218294 2.01607 -8.27938e-20)
(0.200825 2.43271 0)
(0.213601 2.40064 -6.46886e-19)
(0.327572 2.36103 4.27443e-19)
(0.247119 1.98039 -2.28106e-19)
(0.138077 2.14424 1.55716e-19)
(0.112891 2.24791 0)
(0.0152128 1.85438 -2.71358e-20)
(-0.00543867 2.37445 -7.88247e-21)
(0.00306134 2.1301 0)
(0.00504624 2.43695 -1.71305e-20)
(0.0229898 2.27404 2.47752e-20)
(0.0108057 1.43784 -1.24958e-20)
(0.00701457 1.41754 2.06312e-19)
(0.00492454 1.42659 -6.73142e-20)
(0.0188073 1.43563 -5.84103e-20)
(0.0212302 1.46437 0)
(0.00216529 1.40856 0)
(-0.0048252 1.30784 -7.66949e-20)
(-0.00427942 1.39775 2.22255e-20)
(0.00245259 1.39718 0)
(0.0046667 1.30017 -5.92235e-20)
(0.0104567 1.21261 1.1802e-19)
(1.04252 0.0151043 0)
(1.04897 0.0105826 -6.32869e-20)
(1.03913 0.024407 -4.57913e-19)
(1.04942 0.0233941 0)
(1.05477 0.0227308 0)
(1.03634 0.0131333 -6.76452e-21)
(1.03013 0.0135322 7.38385e-19)
(1.03204 0.0175147 8.94799e-19)
(1.02557 0.0212359 0)
(1.02198 0.0217811 0)
(1.03565 0.0259486 4.57e-19)
(1.02621 0.0282971 0)
(1.02319 0.0286725 0)
(-0.0210796 2.03156 0)
(-0.0109894 1.6652 -2.569e-21)
(-0.00875812 1.77005 -3.32026e-20)
(-0.00778461 1.40352 0)
(-0.0105664 1.56919 -3.24442e-20)
(-0.0165852 1.4801 1.9456e-20)
(-0.0125023 1.41777 0)
(0.403485 1.62391 0)
(0.365774 1.31936 -8.45868e-21)
(0.27527 1.34531 0)
(0.435824 1.31779 -6.28138e-20)
(0.472859 1.47715 0)
(0.457778 1.4186 5.15523e-20)
(1.04048 2.67004 -1.48579e-20)
(0.985371 2.40879 -8.79567e-19)
(0.948119 2.20981 9.84501e-19)
(0.865423 2.38285 2.38221e-19)
(0.852752 2.4868 0)
(0.921763 2.48129 0)
(0.954701 2.38295 0)
(0.930662 2.37393 -9.22023e-19)
(0.691254 2.45056 -3.63772e-19)
(0.800296 2.43452 -9.45645e-20)
(0.807621 2.4124 7.1257e-20)
(0.704273 2.40373 0)
(0.80964 2.39727 0)
(0.770187 2.41391 -3.61749e-19)
(0.765657 2.46525 0)
(0.63223 1.06755 0)
(0.515575 0.856375 -5.42892e-19)
(0.522075 0.928805 -3.14951e-20)
(0.501855 1.06957 0)
(0.489014 0.977385 8.31393e-19)
(0.804293 0.886795 -1.27585e-19)
(0.807172 1.02188 0)
(0.788287 1.00485 1.73135e-19)
(0.677356 1.021 0)
(0.669356 0.924454 0)
(1.16315 2.75382 -2.09564e-19)
(1.13829 2.81204 -8.21215e-20)
(0.922559 2.33416 6.25174e-20)
(0.899344 2.31531 -7.19521e-20)
(1.13287 2.73168 0)
(1.08493 2.69943 8.64094e-20)
(1.10088 2.49498 -2.88203e-19)
(1.00278 2.25502 -2.82456e-20)
(0.496966 1.32846 0)
(0.516997 1.07688 -9.83767e-20)
(0.594972 1.18311 0)
(0.848373 0.234537 0)
(0.751972 0.182421 0)
(0.658159 0.143019 0)
(0.854623 0.231137 -5.98648e-19)
(0.7437 0.224417 3.53014e-19)
(0.908607 0.0901588 -3.79951e-19)
(0.928234 0.145666 0)
(0.90865 0.151671 1.69725e-19)
(0.838566 0.110176 6.80588e-19)
(0.788788 0.0786586 -4.28533e-19)
(1.09549 3.34609 -6.78073e-19)
(1.16367 3.26965 0)
(1.11352 3.43087 -1.57961e-18)
(0.655492 3.57698 1.31551e-18)
(1.02393 3.07559 1.27666e-19)
(0.533828 0.777899 5.56855e-19)
(0.512399 0.745591 0)
(0.347512 0.34597 -1.41045e-19)
(0.491491 0.626158 8.37821e-19)
(0.557337 0.335567 -1.83039e-19)
(0.521699 0.451379 2.1914e-19)
(0.690014 0.52465 4.49675e-19)
(0.738142 0.561523 0)
(0.668815 0.561831 0)
(0.654299 0.530822 0)
(1.0191 0.614969 8.32086e-20)
(0.972404 0.597002 -4.51299e-19)
(0.983296 0.609758 3.42196e-19)
(1.04688 0.551747 -3.32095e-19)
(1.09203 0.520708 0)
(1.09452 0.60328 -8.6312e-20)
(0.887001 0.42404 -7.51699e-19)
(0.874211 0.410005 -9.67789e-19)
(0.79834 0.410973 5.92408e-19)
(0.81398 0.379241 -6.16085e-19)
(0.855064 0.335325 -4.84938e-19)
(0.799736 0.338132 5.93521e-19)
(1.02658 0.00673591 -4.57393e-19)
(1.02621 0.00685804 9.21676e-19)
(1.02998 0.000969343 5.88487e-19)
(1.03418 0.0016107 -7.06602e-19)
(1.03398 0.0119625 0)
(1.02975 0.0120812 -1.15608e-18)
(0.0832511 1.64761 9.19066e-21)
(0.0691336 1.60585 0)
(0.106041 1.70077 5.20543e-20)
(0.112689 1.67478 -4.62652e-20)
(0.0732356 1.57058 -6.22381e-21)
(0.06993 1.57357 0)
(0.00659026 1.70339 0)
(-0.00925888 1.51931 1.72004e-20)
(-0.00814432 1.46137 -1.54675e-20)
(-0.0134573 1.56719 2.89982e-21)
(-0.00224134 1.89619 2.59442e-20)
(-0.0148253 1.95008 -1.01631e-20)
(0.493715 1.35996 -2.40245e-19)
(0.496354 1.35473 2.63056e-19)
(0.450206 1.31003 2.58665e-21)
(0.42842 1.291 6.55865e-21)
(0.629778 1.31152 0)
(0.556222 1.40551 1.28568e-19)
(0.557289 1.40864 -1.25186e-19)
(0.485958 1.29796 -2.49554e-21)
(0.526878 1.25102 0)
(0.59131 1.21684 0)
(0.665029 2.41403 5.35638e-19)
(0.660565 2.44461 1.24208e-18)
(0.716013 2.45958 -8.54577e-19)
(0.615066 2.4315 -1.95973e-19)
(0.556645 2.5243 2.65576e-19)
(0.497254 2.4908 -6.83489e-19)
(0.993115 2.38759 -5.54551e-19)
(1.02498 2.40516 0)
(0.952032 2.19345 -6.06219e-19)
(1.05584 2.68053 0)
(1.05473 2.66158 0)
(0.599938 2.2872 1.46684e-20)
(1.11807 3.0681 8.43457e-20)
(0.995182 2.96489 -1.32451e-19)
(0.319304 0.78886 0)
(0.316792 0.666059 -2.98264e-19)
(0.524834 0.602782 -2.99492e-19)
(0.36207 2.12903 0)
(0.402281 2.74384 -8.98768e-20)
(0.411672 2.47784 0)
(0.731152 0.685347 -7.72709e-19)
(0.798232 0.695371 1.07589e-18)
(0.801407 0.660626 -1.04191e-18)
(0.704379 0.641335 -9.80799e-20)
(0.761581 0.600474 -4.05577e-19)
(0.969716 2.75109 -6.38805e-20)
(1.01363 2.75821 -1.96203e-19)
(0.550273 2.20292 4.25184e-19)
(0.603209 1.73246 -3.38097e-19)
(0.702419 1.85127 -4.79121e-19)
(0.976554 2.39162 -1.36266e-19)
(0.97678 2.3446 3.50928e-19)
(0.644882 1.76025 3.24099e-20)
(0.451322 1.29438 1.67596e-19)
)
;

boundaryField
{
    wall-4
    {
        type            noSlip;
    }
    velocity-inlet-5
    {
        type            fixedValue;
        value           uniform (1 0 0);
    }
    velocity-inlet-6
    {
        type            fixedValue;
        value           uniform (0 3 0);
    }
    pressure-outlet-7
    {
        type            zeroGradient;
    }
    wall-8
    {
        type            noSlip;
    }
    frontAndBackPlanes
    {
        type            empty;
    }
}


// ************************************************************************* //
