/*--------------------------------*- C++ -*----------------------------------*\
  =========                 |
  \\      /  F ield         | OpenFOAM: The Open Source CFD Toolbox
   \\    /   O peration     | Website:  https://openfoam.org
    \\  /    A nd           | Version:  6
     \\/     M anipulation  |
\*---------------------------------------------------------------------------*/
FoamFile
{
    version     2.0;
    format      ascii;
    class       surfaceScalarField;
    location    "27";
    object      phi;
}
// * * * * * * * * * * * * * * * * * * * * * * * * * * * * * * * * * * * * * //

dimensions      [0 3 -1 0 0 0 0];

internalField   nonuniform List<scalar> 
1300
(
3.75095
5.62643
-5.53714
3.75095
-5.51449
5.62643
-4.37816
4.37816
-1.12707
1.12707
1.87652
1.87443
-2.71523
2.71523
-2.17607
2.17607
-2.58159
2.58159
-5.24797
5.24797
-5.0688
5.0688
4.72496
-4.72496
-4.06696
4.06696
-1.50383
1.50383
-3.77156
3.77156
3.17357
-3.17357
-3.29921
3.29921
-0.340209
0.340209
-0.553888
4.30484
3.19707
3.19707
-2.16114
2.16114
-4.87033
4.87033
6.22233
-6.22233
8.16111
-8.16111
-2.62397
-3.414
1.55032
-9.15646
-3.96418
-3.96418
-8.44105
8.44105
-2.81462
2.81181
2.94252
-2.94252
-1.73322
1.73322
-4.36873
-0.0094303
-4.36873
4.35107
0.027093
4.35107
-1.26175
0.134677
-1.26175
3.92872
-3.92872
0.961745
0.165327
0.961745
3.06623
-3.06623
-1.87687
3.75339
1.87408
-1.87191
6.17675
-1.87905
3.75348
-5.9283
5.9283
-3.00628
0.291055
-3.00628
2.48116
0.234071
2.48116
-6.67793
6.67793
-2.25078
0.0747047
-2.25078
2.22688
-0.0508082
2.22688
2.86791
-2.86791
-2.66786
0.0862686
-2.66786
2.47342
0.108172
2.47342
0.353544
5.27289
-5.97997
8.79178
-5.27289
0.0249175
5.21041
0.037562
5.21041
-5.10527
0.0364673
-5.10527
5.01286
0.055938
5.01286
4.82237
-0.0974178
4.82237
-4.83715
0.112192
-4.83715
-2.95593
-4.26353
-4.29283
0.22587
-4.29283
-1.51052
0.00668872
-1.51052
1.46761
0.0362217
1.46761
-3.55462
3.55462
-4.14723
0.375679
-4.14723
3.12834
0.0452293
3.12834
1.86815
1.8828
5.61911
-5.61911
2.44553
-2.88178
-0.417432
-2.88178
-3.74192
-4.41919
3.74192
-0.442707
-0.599983
0.259774
-0.599983
3.1569
0.0401633
3.1569
2.35533
0.118088
-2.35533
0.194189
3.26338
-3.26338
1.5159
0.645246
1.5159
-5.5616
5.5616
4.95986
0.053005
-4.95986
0.089525
6.15729
0.0650404
6.15729
-6.20784
-0.0144925
-6.20784
2.6181
-6.0321
-3.84227
3.94019
0.126764
-3.94019
-0.0239867
2.91217
0.0303496
2.91217
-2.92535
2.92535
-2.98183
0.0393153
-2.98183
-2.16492
0.431704
-2.16492
1.40685
0.326369
1.40685
-4.2455
-0.123229
-4.2455
-4.27357
0.126338
4.27357
0.0774964
0.980234
-0.980234
-1.37163
0.109878
-1.37163
-4.05222
-0.193278
4.05222
-0.123506
-3.86128
-0.0674405
-3.86128
-3.02048
0.0386501
3.02048
0.0457497
3.1117
0.0452053
-3.1117
0.0454662
-1.87085
3.75366
-1.8801
3.75418
-5.56618
-0.36212
-5.56618
6.23384
-0.30554
6.23384
3.36191
0.40965
-3.36191
0.355621
2.32435
0.156813
2.32435
-6.705
0.0270725
-6.705
6.51068
0.167249
6.51068
2.2603
0.0640478
-2.2603
0.00952164
2.35644
-0.129561
2.35644
2.87887
-0.010952
2.87887
-2.86982
0.00190166
-2.86982
2.80725
-2.80725
2.74207
0.0651799
-2.74207
0.0742051
-11.1237
11.1093
-0.0362674
-11.0875
5.17414
5.17414
4.27953
0.542844
4.27953
-5.02475
0.187604
-5.02475
2.62976
-6.47203
4.14326
-7.09919
4.07852
-13.235
3.28623
-7.54976
5.567
-5.567
4.85795
0.709048
-4.85795
0.565125
-1.51678
0.00626948
-1.51678
-2.94748
-0.607138
-2.94748
4.22042
-0.665805
4.22042
-3.03011
3.03011
-3.07793
0.0478119
3.07793
0.0504156
2.58484
-0.228396
-2.58484
-0.296941
0.775627
0.186119
-0.775627
0.175644
3.49552
-0.232146
3.49552
-3.0564
-0.206975
-3.0564
-1.51798
0.00119682
1.51798
-0.00208634
-5.80827
0.246668
-5.80827
-11.1813
0.0937752
-11.1437
-6.11406
-6.11406
2.32699
11.1188
-2.88872
0.0189004
2.88872
0.0234494
2.97883
0.0512793
-2.97883
0.0534813
-2.86788
0.0606349
2.86788
0.057473
-2.5401
0.375178
-2.5401
-0.995106
0.995106
-1.17413
0.179027
1.17413
0.232718
1.24082
-0.26059
1.24082
1.41792
0.049682
-1.41792
0.046296
-3.80413
-0.0571459
-3.80413
6.44754
-0.213694
6.44754
-2.93172
-0.124686
2.93172
-0.0528484
-0.0349873
11.1442
-5.13915
0.0338848
5.13915
-11.2093
11.2432
-3.25301
0.712911
3.25301
1.02652
5.28939
0.272216
-5.28939
0.264632
6.17471
0.335969
-6.17471
0.607713
-2.4446
-0.502879
-2.4446
-4.96242
-0.603762
4.96242
-0.742001
-11.4819
-0.202727
11.6846
-11.4259
6.011
0.146292
-6.011
11.3895
-0.916879
-0.0633551
0.916879
0.0782272
1.57123
-0.330407
1.57123
3.71119
-0.215664
-3.71119
-0.0929471
-6.58644
-0.118566
6.58644
-0.1389
-2.0003
-0.444298
2.0003
-0.429069
-4.26687
4.30703
1.90988
-2.13172
-3.90038
-6.55091
1.854
1.89966
4.29953
-8.41622
-4.81876
-8.44021
7.21531
-6.95067
-9.37983
9.28241
7.59961
-7.66705
-5.77814
5.82855
6.48361
-6.43786
1.87925
1.87415
7.98011
-7.68906
-15.7277
15.3656
6.59291
-6.5182
15.7688
-15.7417
-17.9321
18.2681
-5.73712
5.82339
-6.68992
6.69182
-6.87122
6.81837
-1.97096
-5.12823
12.3555
-12.1296
7.8624
-8.27983
-8.56746
8.94314
3.3851
0.921932
3.4303
-1.88188
3.76113
-1.87159
3.78148
4.20909
-6.18005
2.26294
-6.16331
4.60945
3.25294
-4.16675
-2.38417
-5.92178
5.95213
-5.81543
5.87291
8.94349
-8.95292
-1.88551
3.75966
-1.86867
3.76833
-3.423
-2.35513
3.37778
0.921755
7.106
5.24949
-7.23277
-1.20744
-7.77764
7.56197
-8.05172
7.84475
-0.441555
5.83688
-5.39533
4.42878
-1.6514
7.48828
5.56391
5.75151
5.86065
-5.58844
1.09002
-6.48535
-6.39583
-2.5908
2.70068
2.56185
-2.39653
5.93286
1.66675
5.80935
-5.60116
-2.06589
-5.6583
3.82093
2.00762
3.86874
4.07907
2.40454
4.11772
3.03085
-3.03566
0.00481134
-3.05895
6.0898
0.723995
-5.41408
-4.49233
4.97033
3.00978
5.2044
-5.55955
-2.12951
-5.20393
-9.57577
-6.15191
-10.1795
10.1457
5.21989
9.84012
-11.9813
11.8424
3.78012
2.81279
3.72931
-4.56742
-1.95078
-4.5579
12.3004
-3.16184
-9.1386
-10.3606
-7.57152
10.1933
5.57545
10.7982
7.46991
11.4059
4.64623
7.65421
-10.2217
2.65016
-3.86825
-1.86886
-3.79405
3.71008
2.11331
3.81825
-4.2053
-2.48462
-4.1864
-4.25423
-2.61699
4.26518
2.42664
-4.33112
-3.72061
4.4558
2.36257
4.23904
-9.0578
3.31072
-8.43895
-9.14278
-2.98684
-8.57766
5.45719
1.13729
-6.59448
-0.722862
9.27034
-6.0174
6.88617
-4.22763
-4.0522
-4.52457
-6.85786
-1.7096
-6.73152
-8.93228
8.4294
-9.22677
8.56096
12.7414
-5.69623
-7.04514
-3.96682
-2.47104
3.92135
-0.491051
-3.71195
3.71677
0.049173
3.83065
4.75258
4.26153
-3.88339
-1.93205
-3.82991
3.82761
2.04529
3.88825
6.72968
2.21381
6.75677
-6.41919
-2.53373
-6.54242
9.16096
-8.72925
2.93177
-2.93057
5.23242
2.61233
-5.00027
-2.77736
6.16939
-3.08479
-3.0846
-12.3658
10.8775
1.48835
-4.87756
-0.448784
-0.108576
-5.59456
-3.78527
5.48237
0.269146
11.1466
7.36138
-5.51608
5.76275
6.16851
6.22151
-0.174316
5.93502
-5.22211
5.37195
-2.52648
-2.84548
5.29198
-5.48526
-1.25044
-5.32743
4.07699
0.324095
1.7831
-1.52333
-2.0263
-0.564499
-1.98001
1.50274
1.05911
1.68886
0.9811
1.71958
-2.92411
0.542269
2.38184
-1.94301
-1.85426
-3.6442
-1.02554
4.66973
5.5106
2.05137
-5.41766
-0.240645
2.78375
-2.74752
-0.842482
-2.80171
2.065
-2.90748
-3.45121
-1.88058
5.33179
-3.36947
-0.460432
3.31819
0.550548
-3.82641
-2.09538
3.78709
0.330628
-3.12651
6.19009
-3.06358
-5.05856
2.53044
3.55935
4.53807
-4.79146
2.44714
2.34432
-1.23211
4.273
0.931403
4.42981
-6.82021
4.6907
5.74354
3.1996
-6.15319
0.949262
-5.87095
8.39129
-7.21516
-1.17613
3.97416
4.41713
7.18536
5.55601
-5.74142
12.9268
-1.16658
-6.04858
7.03753
-3.83793
4.69655
-8.53448
-10.2526
4.20398
-9.26569
10.9777
-1.71201
-3.60169
-8.37961
12.8674
-1.24682
-11.6206
8.5933
-4.11899
-4.87823
8.99722
-7.28083
6.82901
-1.67349
-5.15551
-10.0969
-5.6448
10.2155
1.62693
-11.2301
13.8803
-3.57588
3.14954
0.579766
3.01998
3.3427
-5.52147
2.17877
3.93813
-5.61163
2.05298
-7.57445
-7.51161
12.3174
-4.80581
-10.4984
-10.4852
-0.0132417
2.38596
11.4943
-9.85586
6.94795
2.90791
3.30496
0.58329
-3.37014
-0.423911
0.29156
4.53795
-4.82951
4.10981
4.2279
3.3555
1.18245
3.84256
2.10957
-3.86601
-0.32039
-4.12992
1.51293
-1.70328
-3.64553
5.15847
-4.07788
0.432346
-2.72483
-3.53692
6.26175
-4.59369
3.04104
3.14905
5.08634
-4.91426
1.37734
-2.41634
-2.49792
2.70054
-4.40382
1.94725
3.21121
4.30982
0.589216
6.95435
5.36307
-8.09164
-0.347315
10.6126
-9.40512
3.16965
8.23622
-10.1176
-0.367608
-8.94527
-0.237729
-5.77967
-6.8322
5.07704
-6.78664
-3.45743
6.20797
0.548806
-6.28547
-0.446059
-6.04296
-2.88932
-6.48726
-3.0764
-6.15037
-8.81782
-1.67189
-7.14593
6.75751
-6.67546
-3.50407
7.41746
1.1435
-7.44937
7.38601
-7.52343
7.19302
0.0943676
3.6224
4.3559
1.88486
-2.39029
4.27515
-5.01463
7.22844
-8.49624
3.48161
4.00713
-6.54086
-4.48911
5.07829
4.08267
5.40466
9.02527
-10.5694
1.54412
-10.877
12.1927
-1.31574
-16.6942
5.81723
-7.66895
2.66978
0.261982
2.67605
0.677786
2.40539
-3.08317
-2.25278
-2.25487
-2.31169
-3.40231
5.714
1.12874
-3.32033
2.19159
-3.47683
4.60557
0.0349293
-3.35526
5.21666
-2.81128
5.47865
-3.4419
2.03674
3.35811
5.66694
-2.30883
4.34014
-1.72781
1.83953
-4.14836
-1.56278
-2.99845
5.11175
-3.2633
3.69565
-0.282244
3.9779
-4.0523
0.967508
-0.696802
3.5311
3.72529
4.28773
-3.10528
2.94523
-4.67304
-1.20313
-4.08383
-0.872614
-0.228126
-3.86274
4.09086
6.10925
-6.33738
-5.32804
9.60116
-4.27312
7.74709
-5.47528
-2.27182
-4.3242
-4.40505
3.94902
1.986
9.73309
0.176811
-5.65209
-5.0453
-4.01878
3.22341
2.14854
-1.95875
3.44709
2.06732
-0.284221
0.567118
1.12175
1.86455
-1.29743
0.225937
1.63862
-1.29739
2.00706
0.776689
-2.05674
0.076732
-1.36265
3.42764
1.01919
-2.0783
0.780869
0.978783
-3.50526
4.76671
-2.50255
-2.26416
5.74549
1.16204
-3.66459
4.16538
-3.84129
2.36056
-3.3861
-1.30403
-5.14532
-3.47857
-2.46768
4.65927
-3.24631
5.29768
1.20806
-5.05704
6.2651
-3.54127
1.66069
-3.03626
3.81295
-1.0643
-1.97196
2.82615
2.50565
-2.96152
0.159809
-0.135378
2.31376
-2.44914
-0.593716
-2.53673
-4.57404
4.90467
-2.10565
4.55279
2.1695
-1.91395
6.46674
1.81102
-3.72497
-3.24753
-3.70796
-1.38065
3.15742
-0.366609
-4.19129
-5.52212
4.12725
0.302563
-6.89648
7.8468
-0.950319
-3.8867
-0.803999
4.77816
-6.0229
0.41127
-3.96991
3.87689
4.80829
5.11085
-11.4902
-0.130369
-6.2703
1.17186
-7.44216
5.58899
-3.6518
7.85578
-10.4185
6.91442
-9.27499
6.67965
-0.762513
6.29928
-4.12051
2.83932
-8.48413
-6.85719
5.28895
-2.47616
5.86872
-2.94518
8.8139
-6.52106
4.85456
3.95934
-1.37295
-3.15163
-4.49452
3.12158
0.36004
3.38002
4.97627
-2.8667
4.65588
2.23256
-4.64891
-2.17126
-6.4948
1.8459
-3.34575
-1.91204
3.75793
3.1743
3.75759
1.26001
-3.33368
9.10602
-9.11926
-4.30021
-2.532
4.81157
-1.68999
5.0203
-7.55229
-0.759371
4.86661
-0.808265
-4.05835
0.82962
-4.28705
1.66522
-5.95227
5.12142
-5.56748
2.2206
-9.88955
-5.22876
-5.15054
-2.25865
-5.26478
-7.67788
5.41923
-1.86065
5.52537
-8.69866
7.8904
-3.49407
8.91329
-5.4386
-1.04866
5.86767
1.32536
10.2387
0.0863203
-4.57543
-1.9296
3.88598
-1.95638
1.29382
-3.77642
0.109559
2.41809
3.3274
-6.49508
-0.0457816
-4.62121
-3.92121
8.00388
5.67995
11.7892
1.21981
9.21754
-1.21366
10.4373
4.191
4.42372
-3.04734
4.59146
1.04352
4.52514
-0.827647
2.86439
1.84841
1.85509
0.89243
2.29651
1.42878
3.26402
0.180845
-2.07402
4.66428
-8.68306
-0.987808
-8.14022
1.14219
5.41798
-4.27579
3.07369
-0.925153
1.11732
0.0539445
-1.67169
1.61775
-2.79153
-1.95591
-0.317297
-1.58171
2.36258
1.84594
-2.04528
-0.746251
0.269714
-3.74828
3.11639
-2.95658
-0.450927
5.81417
-2.72268
0.273533
-1.06199
-2.26319
-2.82769
2.75096
6.1725
0.294245
3.10892
5.19891
3.10353
0.236838
4.05316
-5.76517
-3.5213
-5.89554
-0.306547
4.47161
2.16748
9.32682
6.12681
4.43682
-3.11548
-12.2347
6.55343
-1.96197
5.23769
-1.17934
-4.77293
5.01318
2.21526
-5.56198
-0.00549929
-4.77843
-6.7404
-0.520604
8.411
-9.71805
8.66938
5.78007
1.36586
-4.43782
-0.712714
4.2588
0.164919
10.6023
-0.894228
-7.22527
8.1195
-4.52375
3.53594
0.76731
2.67978
2.38506
1.4599
-5.76537
-10.0412
-1.89417
-1.61109
-4.15833
0.511406
-2.35734
6.12222
-2.58627
3.8504
5.53323
6.65054
-2.08458
-4.2528
6.3577
-2.5073
4.14324
)
;

boundaryField
{
    wall-4
    {
        type            calculated;
        value           uniform 0;
    }
    velocity-inlet-5
    {
        type            calculated;
        value           uniform -3.75095;
    }
    velocity-inlet-6
    {
        type            calculated;
        value           uniform -5.62643;
    }
    pressure-outlet-7
    {
        type            calculated;
        value           nonuniform List<scalar> 8(5.53714 5.51449 6.03797 7.60614 7.21946 6.46037 6.77302 7.36475);
    }
    wall-8
    {
        type            calculated;
        value           uniform 0;
    }
    frontAndBackPlanes
    {
        type            empty;
        value           nonuniform 0();
    }
}


// ************************************************************************* //
