/*--------------------------------*- C++ -*----------------------------------*\
  =========                 |
  \\      /  F ield         | OpenFOAM: The Open Source CFD Toolbox
   \\    /   O peration     | Website:  https://openfoam.org
    \\  /    A nd           | Version:  6
     \\/     M anipulation  |
\*---------------------------------------------------------------------------*/
FoamFile
{
    version     2.0;
    format      ascii;
    class       volScalarField;
    location    "54";
    object      p;
}
// * * * * * * * * * * * * * * * * * * * * * * * * * * * * * * * * * * * * * //

dimensions      [0 2 -2 0 0 0 0];

internalField   nonuniform List<scalar> 
918
(
0.530806
1.24672
0.0060637
0.530717
-0.0107928
1.21441
-0.49792
0.656436
0.511943
-0.121198
-0.0607976
0.511744
1.07156
0.837212
-1.17322
-0.0164231
0.629301
-0.420458
0.509945
-0.0690261
0.679484
0.51863
0.521097
0.511886
0.571934
0.792945
0.948341
-0.00226269
0.00970809
0.00528699
-0.0122584
-0.0324864
-0.0284621
1.09757
1.14946
1.17264
0.47857
0.31263
-0.395225
-0.445953
-0.428957
-0.519429
0.652397
0.650737
-0.216786
0.659123
0.663368
0.497685
0.511337
0.512173
0.513308
0.5122
0.513486
0.391434
-0.128565
-0.156574
-0.104712
-0.102527
0.0394108
-0.0650155
-0.0683204
-0.0572585
-0.0581562
0.427864
0.507202
0.504009
0.516632
0.526651
1.18688
1.16067
1.18673
1.09713
1.11475
1.04861
1.02157
0.859913
0.883302
0.819714
0.80776
-1.63321
-2.58439
-0.593509
-0.314654
-0.0101075
-0.0167646
-0.0141789
0.62396
0.626136
0.629443
0.633373
1.03142
-0.392662
-0.461745
0.51046
0.508977
0.518156
0.519059
0.514014
0.514021
-0.0625935
-0.0598674
-0.0599788
-0.0681062
-0.0688296
0.671558
0.670755
0.511324
0.508773
0.536
0.558377
0.548413
0.24732
0.583325
0.603009
0.654055
0.802047
0.789021
0.801226
0.923512
0.891071
0.9806
1.00229
0.0139325
-0.00076696
-0.0182554
-0.0196464
-0.0182876
0.474319
0.467903
0.495543
0.482186
0.485221
0.217172
0.0659251
0.395354
0.419324
-0.316117
-0.362991
-0.459251
-0.456467
-0.560912
0.590828
0.647746
0.644255
-0.230949
-0.157277
-0.283641
-0.0997421
-0.156311
0.48867
0.494896
0.490986
0.506327
0.500505
0.502925
0.515419
0.512591
0.514191
0.450752
0.579693
0.308785
0.281912
-0.282039
-0.174985
-0.262861
-0.0909147
-0.0861045
0.0503798
0.0782859
0.0270228
0.0145146
-0.0771887
-0.0705799
-0.0734872
-0.0572501
-0.0568921
0.419339
0.406366
0.439043
0.446533
0.494547
0.495996
0.500438
0.498447
0.972845
0.995442
1.00158
0.977768
-3.56664
-6.20803
0.0324499
0.192831
-0.0078814
-0.00895624
0.000887756
-0.0085123
0.000328958
-0.00227282
-0.0198936
-0.020446
-0.0159473
-0.0158817
0.621669
0.623779
0.986672
1.01861
0.977772
0.950281
0.499779
0.501679
0.506309
0.50319
-0.0558901
-0.0567387
-0.0554267
0.664789
0.669194
0.66821
0.206605
0.118538
0.298091
0.329034
0.618779
0.604532
0.617279
0.713538
0.752158
1.01902
1.04302
1.02727
1.03999
1.09079
1.1137
1.07869
0.452963
0.463844
0.458142
0.498625
0.496319
0.497327
0.49353
0.494606
0.493156
-0.0460975
-0.41986
0.47102
0.472864
0.461782
0.466879
0.676234
0.758825
0.632594
0.639502
0.638293
-0.0505501
-0.0977435
0.241026
0.212736
0.35889
0.393218
0.375202
0.947941
0.908139
0.956206
0.9314
0.896433
0.920125
-0.356916
-2.12542
-1.11824
0.595691
0.398049
0.489878
-0.0018896
-0.0189969
-0.0151357
1.01827
1.05725
0.64817
0.841179
0.793738
0.779069
0.806516
0.864858
0.796059
0.831059
0.863869
0.842045
0.543594
0.479581
0.494868
0.834651
0.890189
0.0820421
0.00519296
-0.0183905
0.1021
0.17131
0.140076
1.03015
0.944567
1.00776
0.509012
0.509954
-0.0148193
-0.0378373
0.514065
0.513778
-0.0183673
-0.00861065
0.507674
-0.942737
0.0871497
0.503529
0.493271
0.510058
-0.0965833
0.323098
-0.0644134
0.0238836
-0.0114651
0.506327
0.44007
0.397916
-0.00133315
-0.0244429
-0.0621673
-0.221469
0.506751
0.505113
0.509439
0.510262
0.511032
-0.0217538
-0.0221942
-0.0149447
-0.0558984
-0.0527442
-0.0612737
0.473443
0.493472
-0.196207
0.509728
0.511827
0.511532
0.505685
0.510649
0.509261
-0.016905
-0.0224248
-0.023232
0.187653
0.325164
0.691814
0.767423
0.640628
0.473008
0.17668
0.62758
0.680321
0.605139
0.736042
0.642475
0.653285
0.153898
0.011453
0.157198
0.0899006
0.500396
0.499794
0.490814
0.487699
0.50486
0.502536
0.507737
0.504937
0.508107
0.509273
-0.0519783
-0.0819666
-0.10119
-0.146067
0.294559
0.548276
0.215606
0.244007
0.152114
-0.055819
-0.054284
-0.0630045
-0.0689391
-0.0209222
-0.0278545
0.0182932
0.0249948
0.00803819
-0.0192392
-0.028594
-0.0270321
-0.033628
0.499511
0.49895
0.504542
0.513206
0.449629
0.453347
0.419751
0.438463
0.42469
0.364649
0.394668
0.371881
-0.0122512
-0.00109857
-0.00535699
-0.0233227
-0.0221031
-0.043788
-0.03752
-0.0337345
-0.031074
-0.0362819
-0.0566826
-0.0564868
-0.185155
-0.303252
0.93567
0.891155
0.128567
0.496667
0.50232
0.499497
0.504174
0.50738
0.508026
0.505608
0.502102
0.493574
0.494969
0.491847
0.492902
-0.135985
-0.243421
-0.0747796
-0.147398
0.139551
0.60778
0.332932
0.279241
0.264239
0.488312
0.698541
0.614197
0.675137
0.664675
-0.398779
0.00868792
-0.329383
0.21885
0.208825
0.716718
0.759765
0.777664
0.733977
0.689908
-0.0360735
0.540425
-0.0730551
-0.02361
0.165093
0.0518183
0.652075
0.624618
0.629612
0.646726
0.658383
0.637906
0.621479
0.616147
0.642074
0.64589
0.488881
0.21642
0.174837
0.128461
0.617493
0.51437
0.566479
0.484843
0.49598
0.49842
0.497341
0.478228
0.485584
0.48126
0.488379
0.492022
0.499382
0.499587
0.495482
0.497368
-0.0742292
-0.0799595
-0.0675648
-0.13336
-0.133392
-0.179703
-0.0884658
0.0841096
0.0305064
0.225835
0.337442
0.0630985
-0.0567256
-0.0396262
0.0109196
0.171889
0.170666
0.0487332
0.159012
0.11422
0.108504
0.194455
0.218797
-0.0419556
-0.0443624
-0.0463907
-0.0515807
0.00047833
0.102663
0.0851696
-0.015648
-0.0236487
-0.0528669
-0.0541699
-0.0158482
-0.0339142
-0.027574
-0.00656671
-0.0504065
-0.0248447
-0.0138271
-0.0156114
-0.01882
-0.0174369
0.492918
0.495126
0.495018
0.502399
0.517404
0.532064
0.494365
0.470844
0.461855
0.464964
0.437992
0.447254
0.442342
0.458171
0.479866
0.489028
0.486379
0.48912
0.471133
0.472903
0.45822
0.462819
0.431866
0.413498
0.403304
-0.0475645
-0.0145783
-0.0275488
-0.0425479
-0.0171007
-0.0274337
-0.0208697
-0.00257352
-0.020806
-0.0180713
-0.0276756
-0.0334612
-0.0343728
-0.0861808
-0.00253935
-0.183741
-0.235709
-0.287003
0.867206
1.00355
0.79511
0.563035
0.579948
0.806146
0.906187
0.53371
0.73536
0.754556
0.561775
0.847249
0.500555
0.500179
0.49807
0.497258
0.498215
-0.0263487
0.0762497
0.0905409
0.147857
0.264203
0.37059
0.297442
0.184012
0.317126
0.341564
0.604706
0.61141
0.56753
0.590196
0.589619
0.400751
0.481488
0.521963
0.475146
0.548388
0.582229
0.528358
0.571485
0.491804
0.442321
0.433884
0.389334
0.423423
0.40499
0.379537
0.492107
0.46875
0.479706
0.469029
0.490634
0.51436
0.514078
0.535769
0.552659
0.469746
0.417313
0.434158
0.462129
0.418823
0.43575
0.457213
0.171581
0.0752379
0.239599
-0.0890346
-0.00190141
0.0363154
-0.00570329
-0.0486492
0.258349
-0.382127
-0.328216
-1.00826
0.482912
0.848665
0.607736
0.620622
0.656936
0.641849
0.650998
0.659657
0.664595
0.606588
0.616519
0.62033
0.591957
0.617604
0.619327
0.626369
0.493284
0.396152
0.395129
0.330309
0.190989
0.230894
0.423006
0.355118
0.280717
0.273563
0.444095
0.310468
0.38819
0.442582
0.367478
0.301471
0.530596
0.576689
0.567748
0.541831
0.427433
0.460129
0.465993
0.514317
0.555211
0.581729
0.487007
0.493322
0.494256
0.491509
0.489779
0.492904
0.493158
0.49544
0.495725
0.498289
0.497706
-0.062794
-0.0502594
-0.0674454
-0.0717251
-0.0172919
-0.0272979
-0.00443137
-0.0271508
-0.0278052
-0.0250363
-0.0424877
-0.0573087
-0.053679
-0.0420075
0.0648567
0.076557
0.0925681
0.0500141
0.248996
0.395044
0.473586
0.362524
0.200433
0.2312
0.302288
0.00211205
0.0150312
-0.000411612
0.0562913
0.037986
-0.0466394
-0.0505951
-0.0491645
-0.0394205
-0.0325962
-0.0519802
-0.0496961
-0.0401997
-0.0470567
-0.0497393
-0.051447
0.472513
0.465401
0.469047
0.461412
0.459579
0.476542
0.481001
0.482271
0.487809
0.490494
0.479993
0.486041
0.490152
-0.0211758
-0.0385481
-0.0393246
-0.0348787
-0.0350241
-0.0349559
-0.0391037
0.11429
0.0211518
0.0571513
-0.0139406
-0.140245
-0.0809952
0.485562
0.482138
0.474104
0.703348
0.541631
0.46049
0.558835
0.67705
0.261162
0.459952
0.294601
0.870292
0.776493
0.921634
0.539525
0.241088
0.406446
0.416937
0.258338
0.381538
0.330368
0.206505
0.242387
0.273861
0.356754
0.243526
0.222777
-0.0194351
0.160141
0.271483
0.253517
0.381907
0.439467
0.248599
0.165574
0.113059
0.585203
0.602647
0.611409
0.583413
0.605031
0.555457
0.546225
0.563278
0.571022
0.564347
-0.644094
-0.232286
-1.43282
-0.842151
-0.390895
0.512031
0.506953
0.737258
0.64388
0.671626
0.655459
0.595027
0.561505
0.607185
0.624871
0.32096
0.408733
0.393552
0.371517
0.316453
0.257891
0.532204
0.539878
0.563783
0.589637
0.564546
0.591877
0.485688
0.48553
0.48426
0.480548
0.47908
0.482262
0.026039
-0.000340062
0.0358827
0.0249316
-0.000752871
-0.0042574
-0.0237333
-0.0349423
-0.0337178
-0.0317748
-0.023437
-0.0218932
0.157137
0.097166
0.00949292
0.0510588
-0.013832
-0.0976938
-0.0972525
-0.0100875
0.0895663
0.0723433
0.377938
0.643327
0.470487
0.644639
0.437964
0.53876
0.456903
0.430749
0.459762
0.359601
0.448192
0.0285871
-0.172207
-0.22818
0.808139
0.76636
0.551227
0.302936
0.187129
0.482571
0.511029
0.471812
0.49669
0.549489
0.528898
0.00405051
0.0967981
0.174226
0.482711
0.266371
0.284045
0.275212
0.438576
0.409647
)
;

boundaryField
{
    wall-4
    {
        type            zeroGradient;
    }
    velocity-inlet-5
    {
        type            zeroGradient;
    }
    velocity-inlet-6
    {
        type            zeroGradient;
    }
    pressure-outlet-7
    {
        type            fixedValue;
        value           uniform 0;
    }
    wall-8
    {
        type            zeroGradient;
    }
    frontAndBackPlanes
    {
        type            empty;
    }
}


// ************************************************************************* //
