/*--------------------------------*- C++ -*----------------------------------*\
  =========                 |
  \\      /  F ield         | OpenFOAM: The Open Source CFD Toolbox
   \\    /   O peration     | Website:  https://openfoam.org
    \\  /    A nd           | Version:  6
     \\/     M anipulation  |
\*---------------------------------------------------------------------------*/
FoamFile
{
    version     2.0;
    format      ascii;
    class       surfaceScalarField;
    location    "54";
    object      phi;
}
// * * * * * * * * * * * * * * * * * * * * * * * * * * * * * * * * * * * * * //

dimensions      [0 3 -1 0 0 0 0];

internalField   nonuniform List<scalar> 
1300
(
3.75095
5.62643
-3.33763
3.75095
-7.77218
5.62643
-4.23412
4.23412
-0.596092
0.596092
1.87647
1.87449
-2.53433
2.53433
-1.95982
1.95982
-2.53823
2.53823
-5.24794
5.24794
-5.0696
5.0696
4.70682
-4.70682
-6.31559
6.31559
-1.00154
1.00154
-3.57777
3.57777
3.1727
-3.1727
-1.97568
1.97568
-0.0698387
0.0698387
-0.554092
4.30505
3.19686
3.19686
-1.95817
1.95817
-4.87476
4.87476
6.2223
-6.2223
5.27216
-5.27216
-1.93453
-2.4705
1.81698
-11.5382
-5.9552
-5.9552
-8.441
8.441
-2.81457
2.81186
2.94659
-2.94659
-1.73287
1.73287
-4.24562
0.0115017
-4.24562
4.19973
0.0343816
4.19973
-0.669714
0.0736225
-0.669714
3.90127
-3.90127
0.494846
0.101245
0.494846
3.06712
-3.06712
-1.87687
3.75333
1.87409
-1.87208
6.17713
-1.87887
3.75336
-6.06838
6.06838
-2.75295
0.218616
-2.75295
2.33316
0.201167
2.33316
-6.86574
6.86574
-2.00893
0.0491086
-2.00893
1.96148
-0.00166291
1.96148
2.88526
-2.88526
-2.63743
0.0991966
-2.63743
2.40193
0.136303
2.40193
0.353437
5.27299
-5.97987
8.79172
-5.27299
0.0250507
5.21018
0.037757
5.21018
-5.10537
0.0357644
-5.10537
5.01299
0.0566123
5.01299
4.79831
-0.0914944
4.79831
-4.82421
0.117397
-4.82421
-3.3711
-4.05768
-6.47158
0.155988
-6.47158
-1.05549
0.0539556
-1.05549
0.914099
0.0874363
0.914099
-3.70621
3.70621
-3.90702
0.329256
-3.90702
3.12767
0.0450294
3.12767
1.86812
1.88283
5.61908
-5.61908
2.44638
-1.9409
-0.0347736
-1.9409
-2.03444
-3.23772
2.03444
-0.0587584
-0.290112
0.220273
-0.290112
3.15707
0.0397915
3.15707
2.23636
0.165567
-2.23636
0.278191
3.28889
-3.28889
1.29954
0.658631
1.29954
-5.55863
5.55863
4.96186
0.0511248
-4.96186
0.0871045
6.15742
0.0648765
6.15742
-6.2075
-0.0147948
-6.2075
2.49937
-4.96988
-2.62064
6.1344
0.181189
-6.1344
0.179202
2.91783
0.0287564
2.91783
-2.92008
2.92008
-2.98378
0.0371932
-2.98378
-2.15609
0.423227
-2.15609
1.41763
0.315232
1.41763
-4.15716
-0.0884544
-4.15716
-4.0538
0.146781
4.0538
0.14593
1.10328
-1.10328
-0.742108
0.072394
-0.742108
-4.00432
-0.15284
4.00432
-0.103049
-3.84778
-0.0534925
-3.84778
-3.0216
0.037812
3.0216
0.0455271
3.11202
0.0450524
-3.11202
0.0448948
-1.87098
3.75381
-1.87997
3.75406
-5.68522
-0.383165
-5.68522
6.35366
-0.285273
6.35366
3.14076
0.437005
-3.14076
0.387814
2.18523
0.147934
2.18523
-6.84233
-0.0234138
-6.84233
6.86718
-0.00144522
6.86718
2.07784
0.10739
-2.07784
0.068911
1.95945
0.002036
1.95945
2.91188
-0.0266214
2.91188
-2.8799
-0.00536431
-2.8799
2.79429
-2.79429
2.72157
0.0727171
-2.72157
0.0841463
-11.1242
11.1094
-0.0361691
-11.088
5.17402
5.17402
4.25386
0.544449
4.25386
-5.01752
0.193305
-5.01752
2.671
-5.29164
3.07524
-6.44635
4.6716
-16.2098
4.31062
-8.36831
6.71631
-6.71631
6.60004
0.11627
-6.60004
0.128458
-1.14576
0.0902655
-1.14576
-3.09679
-0.609418
-3.09679
4.34998
-0.643775
4.34998
-3.02796
3.02796
-3.07663
0.048672
3.07663
0.0510416
1.94893
0.0105146
-1.94893
0.00802941
0.384913
0.109933
-0.384913
0.0948013
3.50543
-0.216533
3.50543
-3.08874
-0.200151
-3.08874
-1.22996
0.0842012
1.22996
0.0695786
-5.80719
0.248568
-5.80719
-11.1817
0.0936287
-11.1439
-6.11387
-6.11387
2.32713
11.1189
-2.8958
0.0158996
2.8958
0.0220376
2.97558
0.0523815
-2.97558
0.0554997
-2.8601
0.0658083
2.8601
0.059978
-2.52484
0.368746
-2.52484
-1.02888
1.02888
-1.18071
0.151828
1.18071
0.236929
1.39638
-0.293099
1.39638
0.826664
0.0874354
-0.826664
0.0845554
-3.80307
-0.0447125
-3.80307
6.58852
-0.234866
6.58852
-2.96164
-0.127095
2.96164
-0.0497626
-0.034716
11.1441
-5.1393
0.0339345
5.1393
-11.209
11.2429
-3.23165
0.706807
3.23165
1.02222
5.285
0.273627
-5.285
0.267482
6.80679
0.0603973
-6.80679
0.0904801
-2.61305
-0.483739
-2.61305
-5.08024
-0.604981
5.08024
-0.730256
-11.482
-0.203564
11.6855
-11.4254
6.01076
0.146662
-6.01076
11.3896
-0.990402
-0.112882
0.990402
0.0384761
1.73362
-0.337236
1.73362
3.71584
-0.210415
-3.71584
-0.0872288
-6.74077
-0.101557
6.74077
-0.152246
-2.16276
-0.450292
2.16276
-0.429138
-4.26733
4.30712
1.9098
-2.35582
-2.61406
-5.59354
1.85514
1.89867
4.30152
-10.1774
-6.03246
-9.99816
7.21312
-6.94563
-9.3417
9.25021
7.86822
-7.92171
-5.77781
5.82885
6.48434
-6.43881
1.87932
1.87402
7.99891
-7.78029
-15.7151
15.3319
7.57723
-7.52812
15.8531
-15.8765
-17.8949
17.9553
-5.69574
5.79493
-6.73967
6.7343
-6.97415
6.92439
-2.81442
-3.63193
13.1495
-12.9935
8.577
-8.61177
-8.65071
8.97997
3.38456
0.922562
3.42961
-1.88188
3.7612
-1.87147
3.78127
2.72311
-5.53753
2.56853
-5.18259
4.36012
4.21688
-4.30136
-1.29218
-5.92758
5.95634
-5.81058
5.87056
9.11118
-9.09968
-1.88498
3.759
-1.86908
3.76775
-3.42331
-2.35449
3.37828
0.923238
8.09387
5.05564
-8.27505
-1.7231
-7.99344
7.78302
-8.20497
8.00482
-0.436845
5.83717
-5.40033
4.43791
-1.65402
7.4912
5.55909
5.7524
5.86007
-5.58644
1.08556
-6.48589
-6.39879
-2.40616
2.47856
2.30496
-2.20372
6.09208
1.77614
5.98903
-5.77438
-2.14733
-5.81909
3.82013
2.00872
3.8688
4.08162
2.40272
4.11943
3.0299
-3.03643
0.00652755
-3.05906
6.08896
0.722566
-5.41355
-4.49031
4.99059
3.00832
5.19175
-5.55458
-2.22571
-5.16677
-9.58214
-6.13292
-10.1871
10.1122
5.21974
9.82688
-11.9883
11.836
4.86687
2.71036
4.86521
-4.96649
-2.56163
-4.89758
11.6737
-2.62339
-9.05035
-10.3459
-7.54899
10.3474
5.5057
10.9917
6.9636
11.0822
4.42976
7.24399
-9.93546
2.38646
-3.86251
-1.83323
-3.77836
3.65271
2.14223
3.78901
-4.2179
-2.52177
-4.202
-4.2935
-2.68065
4.32012
2.41418
-4.41258
-3.79239
4.53968
2.38471
4.04353
-10.076
4.32477
-7.9567
-9.21943
-3.77408
-9.09097
3.51887
2.60498
-6.12385
-2.01866
8.49343
-4.27655
7.20125
-5.20232
-3.40945
-5.19429
-6.91871
-1.732
-6.77193
-8.94877
8.46503
-9.23736
8.59359
12.5886
-5.67182
-6.91677
-3.96691
-2.4719
3.92201
-0.4924
-3.71014
3.71667
0.0510598
3.83233
4.75489
4.26249
-3.88252
-1.92806
-3.82702
3.82265
2.0479
3.88846
6.79943
2.31174
6.83382
-6.56467
-2.53501
-6.65312
9.12042
-8.69719
2.82768
-2.74348
5.35788
2.64694
-5.14135
-2.85209
6.24069
-3.19838
-3.04231
-12.3506
10.8211
1.5295
-4.85937
-0.421456
-0.351617
-5.57728
-3.76442
5.45988
0.292513
11.1136
7.34916
-5.51487
5.76344
6.17067
6.22179
-0.176992
5.90411
-5.1973
5.29146
-2.6513
-2.64016
5.43754
-5.59038
-1.21558
-5.50492
4.28934
0.398652
1.61021
-1.38994
-1.8556
-0.550564
-1.77104
1.32316
0.981801
1.43309
0.917957
1.5606
-2.91347
0.569495
2.34397
-1.99551
-1.63422
-3.75539
-1.13256
4.88795
5.69394
2.08909
-5.60671
-0.212385
2.62038
-2.53295
-0.804407
-2.95099
2.19013
-2.99454
-3.49408
-1.88794
5.38203
-3.36896
-0.458056
3.31658
0.552219
-3.82773
-2.09985
3.79054
0.328892
-3.12812
6.19011
-3.06199
-5.05619
2.5289
3.56006
4.53762
-4.79035
2.4489
2.34144
-1.23028
4.27286
0.918889
4.4208
-6.96786
4.74215
5.71741
3.26256
-6.15441
0.987643
-5.98022
8.5291
-7.36689
-1.16221
4.09496
4.43414
7.06002
5.52858
-5.71775
12.7778
-1.14672
-6.22017
7.12694
-3.86438
4.84132
-8.7057
-10.3699
4.14973
-9.24024
11.0632
-1.82294
-3.61178
-8.37649
12.852
-1.21553
-11.6365
8.61135
-4.27305
-4.31069
8.58375
-6.89645
6.87233
-1.98321
-4.88911
-10.1622
-5.71426
10.2638
1.57225
-9.89249
12.279
-2.6485
4.15408
0.711129
4.15611
3.31414
-5.44332
2.12918
3.58231
-5.56552
2.06991
-7.51323
-6.75762
12.0952
-5.33755
-10.5317
-9.5566
-0.97511
2.55169
9.72726
-9.51529
7.44911
2.06618
3.29961
0.588848
-3.37233
-0.406033
0.235573
4.5172
-4.75278
4.02458
4.19015
3.23596
1.28125
3.84845
2.10789
-3.87049
-0.331511
-4.16647
1.48582
-1.75229
-3.69174
5.17756
-4.06196
0.370216
-2.74618
-3.49448
6.24066
-4.5794
3.03658
3.15353
5.08449
-4.91368
1.4192
-2.39141
-2.52228
2.64275
-4.39504
1.99569
3.18187
4.3804
0.588014
5.89491
6.20026
-8.4999
0.543193
11.2559
-9.5328
2.48104
8.60115
-9.93015
0.373548
-8.71742
0.981387
-5.25794
-5.14246
5.17514
-6.90714
-3.53056
6.21456
0.619251
-6.36049
-0.411436
-6.07755
-2.87122
-6.52784
-3.06964
-6.16772
-8.78739
-1.6879
-7.09949
6.77714
-6.71722
-3.4699
7.44748
1.14611
-7.48766
7.37478
-7.55278
7.21554
0.0945952
3.62207
4.35709
1.88519
-2.39179
4.27698
-5.05911
7.37085
-8.72298
3.66387
4.20731
-6.74232
-4.51567
5.06899
4.05143
5.38422
8.95331
-10.4175
1.46417
-10.6966
12.04
-1.34346
-16.4902
5.79365
-7.53692
2.46957
0.358109
2.55984
0.576158
2.49065
-3.06681
-2.16732
-2.09774
-2.42476
-3.49651
5.92128
1.08672
-3.44736
2.36064
-3.57061
4.65733
-0.0355243
-3.41183
5.20221
-2.71156
5.56032
-3.60613
1.95419
3.52912
5.8366
-2.30747
4.42277
-1.77584
1.92583
-4.2333
-1.57068
-2.95561
5.09784
-3.28505
3.65526
-0.34506
4.00032
-4.07953
0.881148
-0.843569
3.34658
3.62477
4.33026
-3.04901
2.94536
-4.7212
-1.28795
-4.13318
-0.951314
-0.193094
-3.81951
4.0126
6.03539
-6.22848
-5.29177
9.5438
-4.25202
7.71611
-5.4485
-2.26761
-4.30181
-4.39538
3.93307
1.97104
9.68715
0.180059
-5.62856
-5.01724
-3.99503
3.12761
2.16385
-1.80663
3.33613
2.15825
-0.548039
0.441906
0.991188
1.78633
-1.34443
0.303946
1.48239
-1.08599
1.79797
0.822409
-1.88541
0.114368
-1.26435
3.45448
1.07962
-2.06142
0.716992
0.914295
-3.56559
5.02023
-2.68614
-2.33409
5.93452
1.14753
-3.83367
4.3574
-3.95874
2.42362
-3.55618
-1.41005
-5.3688
-3.59265
-2.50706
4.8677
-3.41422
5.5033
1.37362
-5.29092
6.66454
-3.61733
1.72938
-3.07504
3.89745
-1.04
-2.03504
2.90286
2.47916
-3.10345
0.152465
-0.200588
2.40621
-2.6068
-0.588326
-2.58384
-4.57543
4.90432
-2.10427
4.55317
2.17271
-1.91704
6.47021
1.80829
-3.72533
-3.24789
-3.70595
-1.38389
3.15373
-0.595879
-4.3017
-5.48499
4.19431
0.226486
-6.97008
7.83523
-0.865146
-3.96176
-0.780397
4.87536
-6.04578
0.480261
-3.97587
3.85935
4.77824
5.00473
-11.4101
-0.226416
-6.19034
1.11824
-7.30858
5.55238
-3.53709
7.68681
-10.3868
6.91689
-9.24068
6.5246
-0.783972
6.24393
-4.11475
2.80642
-8.52067
-6.94843
5.49378
-2.78342
6.20491
-3.15183
9.35674
-5.80033
5.28085
4.07589
-1.01695
-4.17734
-5.27014
4.25319
0.0107127
4.16683
4.98581
-2.87793
4.6543
2.26251
-4.65391
-2.13253
-6.48829
1.83438
-3.33476
-1.92118
3.75556
3.1633
3.75215
1.23328
-3.34612
7.22285
-8.19796
-1.88529
-3.25717
5.25786
-1.00467
3.40953
-6.6667
-1.84841
4.79035
-0.73367
-4.05668
0.881471
-4.41203
1.68051
-6.09255
5.22663
-5.63806
2.25191
-9.78883
-5.23575
-5.19728
-2.28146
-5.27132
-7.60401
5.32255
-1.81036
5.56442
-8.55652
7.82285
-3.48352
8.80607
-5.47216
-1.05568
5.9013
1.31424
10.1203
0.15317
-4.66884
-1.94031
3.78033
-1.84002
1.1873
-3.66634
0.113998
2.47643
3.45809
-6.76577
0.023449
-4.64539
-3.91643
7.96787
5.62736
11.6628
1.24527
9.15823
-1.19036
10.4035
4.19386
4.43078
-3.04325
4.50743
0.969348
4.63322
-0.881389
2.83558
1.67845
1.7324
0.800544
2.29033
1.33445
3.17147
0.104665
-1.99308
4.64138
-8.6364
-0.987187
-8.09195
1.15825
5.42551
-4.26726
2.92918
-0.76533
1.08916
-0.091573
-1.36237
1.45394
-2.73173
-1.9104
-0.428017
-1.60438
2.32138
1.8501
-1.89336
-0.83837
0.32493
-3.91758
3.23125
-3.07878
-0.599619
6.06492
-2.86988
0.263078
-1.14049
-2.32076
-2.87132
2.75695
6.17467
0.295541
3.11268
5.19986
3.10001
0.222081
3.85194
-5.67488
-3.66129
-5.9013
-0.348922
4.52644
1.73449
7.99277
5.81038
4.80571
-1.86099
-10.0589
6.55681
-2.04939
5.21336
-1.15667
-4.93587
5.05273
2.31813
-5.67198
0.0339141
-4.90196
-6.95135
-0.483959
8.30681
-9.63636
8.58068
5.70946
1.39004
-4.44496
-0.752314
4.29313
0.13765
10.5411
-0.90542
-7.10664
8.01206
-4.52009
3.5329
0.699427
2.6367
2.15337
1.38804
-5.7186
-9.98586
-2.0225
-1.5431
-4.35658
0.531369
-2.38147
6.0863
-2.55339
3.81869
5.45867
6.54782
-2.05427
-4.17421
6.3063
-2.48761
4.06021
)
;

boundaryField
{
    wall-4
    {
        type            calculated;
        value           uniform 0;
    }
    velocity-inlet-5
    {
        type            calculated;
        value           uniform -3.75095;
    }
    velocity-inlet-6
    {
        type            calculated;
        value           uniform -5.62643;
    }
    pressure-outlet-7
    {
        type            calculated;
        value           nonuniform List<scalar> 8(3.33763 7.77218 4.40503 9.72124 7.42879 5.12002 5.74624 8.98223);
    }
    wall-8
    {
        type            calculated;
        value           uniform 0;
    }
    frontAndBackPlanes
    {
        type            empty;
        value           nonuniform 0();
    }
}


// ************************************************************************* //
