/*--------------------------------*- C++ -*----------------------------------*\
  =========                 |
  \\      /  F ield         | OpenFOAM: The Open Source CFD Toolbox
   \\    /   O peration     | Website:  https://openfoam.org
    \\  /    A nd           | Version:  6
     \\/     M anipulation  |
\*---------------------------------------------------------------------------*/
FoamFile
{
    version     2.0;
    format      ascii;
    class       volVectorField;
    location    "54";
    object      U;
}
// * * * * * * * * * * * * * * * * * * * * * * * * * * * * * * * * * * * * * //

dimensions      [0 1 -1 0 0 0 0];

internalField   nonuniform List<vector> 
918
(
(0.985049 -0.000712978 0)
(0.00534351 2.96624 0)
(-0.000845818 0.882034 0)
(0.979574 0.00196036 0)
(-0.0123632 2.06782 3.16998e-20)
(-0.00709815 2.94856 -2.60332e-18)
(0.809453 1.11043 4.40241e-19)
(0.200414 0.087928 -1.46027e-20)
(0.999921 -0.000243391 0)
(0.0845242 0.696516 0)
(0.0100825 0.462493 0)
(0.73405 -0.0180796 0)
(0.010228 2.93154 0)
(0.00341669 2.79462 0)
(-0.00152368 3.18412 8.29005e-19)
(-0.0128369 1.92004 1.55927e-20)
(0.293126 0.0254471 9.82562e-19)
(0.22815 1.10985 3.55312e-19)
(0.964412 0.00673885 0)
(0.000772628 0.428987 0)
(0.0310815 0.117466 -6.83928e-19)
(1.00183 -0.00456184 0)
(0.999851 -0.0089291 0)
(0.975163 -0.00605321 0)
(0.597373 -0.00237345 0)
(0.0219114 2.64452 0)
(-0.0123963 2.91196 9.54985e-19)
(-0.00451258 0.937536 0)
(-0.0256957 1.16842 0)
(-0.00246817 0.908333 0)
(-0.0192281 2.59984 0)
(-0.00309663 2.11724 -2.53198e-20)
(-0.00837001 1.89708 0)
(-0.0221284 2.98761 -9.39258e-23)
(-0.016487 3.00549 2.0226e-18)
(0.00230708 3.00057 0)
(0.871718 -0.00971296 0)
(0.3773 0.918568 1.62449e-19)
(0.808394 1.12901 -5.53372e-19)
(0.941231 0.993577 5.58459e-19)
(0.672518 1.21046 -1.01425e-19)
(0.685867 1.17278 5.79217e-19)
(0.223079 0.162152 1.42459e-20)
(0.209318 0.0728793 0)
(1.15129 0.525772 0)
(0.196617 0.150431 6.49336e-20)
(0.176131 0.0864887 -6.73826e-20)
(0.920495 -0.00703656 0)
(1.00026 6.80952e-05 0)
(0.999908 0.000319091 0)
(1.0037 -0.00728418 0)
(1.00089 -0.000944475 0)
(1.00011 -9.14835e-06 0)
(0.0928835 1.84029 -7.4213e-19)
(0.0338287 0.881919 0)
(0.124938 0.774231 0)
(0.0200015 0.834545 0)
(0.0445365 0.630973 0)
(0.00370082 2.02127 0)
(-0.00572212 0.747644 0)
(0.010777 0.489759 0)
(-0.00531401 0.740551 0)
(0.0065316 0.460274 0)
(0.842562 -0.015729 0)
(0.838001 0.0344671 0)
(0.766166 -0.00843674 0)
(0.807174 0.0451296 0)
(0.702496 -0.0161226 0)
(0.0139383 3.00022 9.66565e-19)
(0.0111559 3.00606 0)
(0.00621361 3.00385 0)
(0.0119043 2.99715 1.09822e-23)
(0.00826016 2.95873 -1.43655e-18)
(0.0122246 2.98286 0)
(0.00903324 2.9047 0)
(0.0208373 2.93158 2.23797e-24)
(0.0041284 2.8243 0)
(0.025704 2.91891 0)
(-0.000323681 2.74463 0)
(0.307686 3.58149 0)
(-0.12244 3.66446 0)
(0.15079 3.27514 -7.71548e-19)
(0.00447662 3.01069 0)
(-0.024856 1.98829 0)
(-0.00602795 2.17507 -1.53789e-20)
(-0.00882068 1.93008 1.37551e-20)
(0.376379 0.143909 -3.4063e-19)
(0.312575 0.00114687 -3.3097e-19)
(0.337325 0.159466 -1.0218e-18)
(0.265892 0.033707 -6.66659e-19)
(0.262233 1.01272 0)
(0.325604 1.23463 -3.65782e-19)
(0.40463 1.14197 6.03016e-19)
(0.987798 0.00813082 0)
(0.943328 0.00579518 0)
(1.00028 0.000672097 0)
(1.00254 0.00906769 0)
(1.00312 0.00897873 -2.61127e-18)
(0.992136 0.0094396 1.97323e-18)
(-0.0166172 0.759599 0)
(0.000676157 0.445364 0)
(-0.050127 1.02303 0)
(-0.0328488 0.807723 0)
(-0.0193534 0.425052 0)
(0.0240775 0.138625 2.11547e-19)
(0.0891582 0.107318 0)
(0.99362 -0.0076958 0)
(0.954031 -0.00647834 0)
(0.74691 0.0492287 0)
(0.680442 0.0478168 0)
(0.660437 -0.0184379 0)
(0.976395 -0.00360089 0)
(0.598351 0.0470341 0)
(0.4449 -0.031886 1.48906e-18)
(-0.0411279 2.86024 7.52844e-19)
(0.0335272 2.91422 0)
(0.0422356 2.8926 0)
(0.00340056 2.70219 0)
(-0.00861315 2.98658 9.13442e-19)
(-0.0140082 2.8946 0)
(-0.0109763 2.99164 -2.81306e-18)
(-0.0116755 2.92961 9.57611e-19)
(-0.0368565 1.34099 0)
(-0.00884029 1.36823 0)
(-0.00607398 2.13736 6.19279e-22)
(-0.00606215 2.09921 0)
(-0.0161924 1.90537 0)
(0.938699 -0.0052707 0)
(0.856948 -0.0110881 0)
(0.863541 0.00515766 0)
(0.949528 -0.00619529 0)
(0.88353 -0.00806673 0)
(0.501266 1.11896 -2.0647e-19)
(0.548512 1.18891 0)
(0.339071 0.853036 3.17089e-20)
(0.283005 0.71774 0)
(0.907329 1.02548 -1.57424e-19)
(1.02828 0.835895 3.14254e-19)
(0.385876 1.30965 0)
(0.534027 1.26371 0)
(0.588172 1.18746 0)
(0.100523 0.180112 -2.93472e-19)
(0.24236 0.165244 0)
(0.213426 0.076581 1.873e-19)
(0.991838 0.890158 0)
(1.06681 0.739209 0)
(1.09603 0.674626 -2.49243e-19)
(1.13338 0.58627 0)
(1.18887 0.389291 4.57879e-20)
(0.957404 -0.00713392 0)
(0.962671 -0.00813086 0)
(0.900818 -0.00736015 0)
(0.983915 -0.00813187 0)
(0.974398 -0.00804716 0)
(0.936512 -0.0065603 0)
(1.0002 0.00250339 0)
(1.00077 0.00124378 0)
(1 0.000765826 0)
(0.0430919 2.08686 4.1404e-19)
(0.144327 1.78431 0)
(0.0183623 2.20421 6.24371e-19)
(0.0517986 1.88963 -5.22023e-19)
(0.163654 1.08955 -2.91685e-19)
(0.0450831 0.957222 0)
(0.118348 0.951336 0)
(0.00647434 0.800456 0)
(0.0245701 0.569783 0)
(-0.00348617 2.2536 -5.61083e-22)
(0.0172323 2.02748 0)
(-0.00465837 2.25327 -1.80948e-20)
(0.0028577 2.03142 2.3533e-20)
(-0.000789532 0.770594 0)
(-0.00394495 0.756861 0)
(0.0115294 0.516993 0)
(-0.00986589 0.750124 0)
(0.00658263 0.452703 0)
(0.938666 0.0135725 0)
(0.855043 -0.0118636 0)
(0.928078 0.00465332 0)
(0.845516 -0.0128205 0)
(0.812166 -0.00239055 0)
(0.898165 0.0231253 0)
(0.871932 0.0288348 0)
(0.788318 -0.005683 0)
(0.0104256 3.06722 -9.00849e-21)
(0.0149075 3.05934 0)
(0.0123798 2.97033 0)
(0.0075893 2.87658 0)
(0.898264 3.97749 0)
(1.19303 3.37291 9.42015e-19)
(0.081867 3.09259 0)
(-0.0166202 2.91936 0)
(-0.0107976 1.39309 0)
(-0.0304294 1.69211 0)
(-0.018703 1.52653 0)
(-0.0298382 2.55839 -1.21552e-20)
(-0.0133846 2.24691 0)
(-0.0187447 2.39532 0)
(-0.000192883 1.9565 6.34102e-22)
(-0.00422876 2.24792 -1.75561e-20)
(-0.00518204 2.21148 -1.41441e-20)
(-0.00523043 1.94199 0)
(0.411775 0.120493 5.22661e-19)
(0.344511 -0.00609894 -5.12512e-19)
(0.235936 1.58763 0)
(0.287148 0.750895 -3.19063e-19)
(0.176985 1.68778 -1.06099e-18)
(0.243006 1.21757 1.06202e-18)
(0.901778 0.00600186 0)
(0.967131 0.0105789 0)
(0.974983 0.00981082 0)
(0.923074 0.00592103 0)
(-0.0101032 0.757919 0)
(-0.00662762 0.755216 0)
(-0.00615903 0.443909 0)
(0.164796 0.146093 5.98083e-19)
(0.12946 0.134351 -7.06697e-19)
(0.130903 0.0945514 0)
(1.10216 0.088806 2.38096e-20)
(1.08591 0.0414052 0)
(1.01588 0.043096 0)
(0.911325 -0.00214007 0)
(0.450947 0.0979975 0)
(0.517148 0.0717931 -2.38174e-18)
(0.384451 -0.00991926 8.93157e-19)
(0.0106912 2.97694 7.95591e-19)
(-0.0333053 2.86138 4.52229e-20)
(0.00825744 3.05303 -1.90081e-20)
(0.0158949 3.04331 7.11578e-19)
(-0.011867 2.99997 3.14942e-20)
(-0.012276 2.95233 -1.27071e-22)
(-0.0150738 3.01323 -5.88049e-19)
(0.0145178 3.02641 4.14551e-19)
(0.00761657 3.03497 -6.73394e-19)
(0.934352 0.00196999 0)
(0.939264 -0.0012343 0)
(0.847664 -0.011144 0)
(0.956449 0.0116553 0)
(0.942589 0.01314 0)
(0.881789 0.00557803 0)
(0.915952 0.018361 0)
(0.925457 0.0151216 0)
(0.838163 0.00141188 0)
(0.674233 1.41797 2.16966e-20)
(0.692257 1.52862 0)
(0.120586 0.301646 6.75142e-20)
(0.207539 0.648525 5.34682e-19)
(0.239046 0.693483 -3.13338e-19)
(0.219312 0.509736 6.20985e-19)
(0.334937 0.822448 1.5537e-18)
(0.130684 0.233038 3.73587e-19)
(0.307343 0.172374 7.08134e-19)
(0.270602 0.175493 1.83028e-19)
(0.235197 0.0565725 3.50062e-19)
(1.18218 0.440719 8.86618e-20)
(1.20948 0.243646 8.73749e-20)
(0.00797451 2.24537 2.43073e-19)
(0.0383979 1.95213 0)
(0.97107 0.0326122 0)
(0.945581 0.018929 0)
(0.869273 -0.0155175 0)
(0.0121577 3.07442 0)
(0.0167427 2.94393 1.25938e-18)
(0.0139242 2.95679 0)
(0.00587355 2.85015 -1.24975e-18)
(0.00966015 3.08961 3.07712e-19)
(0.0116301 3.08376 0)
(0.712754 1.82549 -1.73463e-19)
(1.23758 2.63098 5.86251e-19)
(0.697493 2.00369 -1.40651e-18)
(0.0223322 2.97585 -6.94089e-19)
(0.0408434 2.99859 0)
(-0.0383126 2.87907 0)
(-0.00571548 2.23178 -1.27891e-20)
(-0.00413761 2.25272 3.19533e-20)
(8.45927e-05 1.99207 -7.37643e-21)
(0.265564 1.39684 1.0212e-18)
(0.27893 0.553182 -7.02307e-19)
(0.0725744 2.00267 7.4825e-19)
(0.120963 1.87209 -9.05408e-19)
(0.207928 1.53115 1.05189e-19)
(0.00485166 3.1203 -1.90956e-18)
(0.0158412 3.12024 2.09119e-18)
(-0.00509839 2.98083 8.53899e-19)
(-0.000942382 2.97503 -8.19125e-19)
(-0.0177168 2.87762 -8.69726e-19)
(0.0119725 3.10072 -2.28834e-18)
(0.00549532 3.10569 2.28415e-18)
(0.259876 0.691954 0)
(0.212595 0.655692 -1.13472e-18)
(0.0715928 0.21383 4.99005e-19)
(0.343423 0.94028 1.10684e-18)
(0.195265 0.275889 -1.7044e-18)
(1.19073 0.173924 4.80577e-20)
(1.20619 0.301745 0)
(1.18628 0.119918 8.15709e-21)
(-0.00162603 2.26275 -1.30927e-21)
(0.00275683 2.24954 0)
(0.0290109 1.98724 0)
(0.314555 1.31611 -3.65012e-19)
(0.352931 1.16687 -7.916e-19)
(0.227513 0.385531 1.41414e-18)
(1.00644 -0.00969678 0)
(1.00774 -0.00779328 4.79988e-19)
(-0.0324313 1.32333 0)
(-0.0386852 1.32922 0)
(1.00245 0.00328559 1.35596e-21)
(1.00321 0.00782322 9.8533e-19)
(-0.0209944 2.54381 1.53984e-20)
(-0.0249062 2.58696 0)
(0.0413803 3.17266 4.95874e-19)
(0.375905 3.5455 0)
(1.15052 0.687434 -5.24228e-20)
(1.01187 0.0107153 -2.81893e-21)
(1.02082 -0.00906709 0)
(1.00158 0.000265429 1.54557e-22)
(0.106619 1.36641 0)
(0.143783 2.59349 0)
(0.0221215 1.31677 0)
(-0.00341142 2.63736 9.39274e-21)
(-0.0230002 2.58587 -5.02889e-22)
(0.997413 0.0277108 2.64511e-21)
(1.06266 0.00565039 0)
(1.09934 0.0281255 0)
(-0.0293829 1.73888 0)
(-0.0178871 2.5864 0)
(-0.00731146 1.31552 0)
(0.29947 1.48445 -1.78114e-19)
(1.0115 -0.0090731 0)
(1.0097 -0.0129967 0)
(1.00228 0.000949572 6.1506e-19)
(1.00548 -0.00492258 -7.24581e-19)
(1.00113 -0.00086989 0)
(-0.0165606 1.46069 0)
(-0.0081397 1.37748 0)
(-0.0119283 1.42016 0)
(-0.0109693 1.30297 0)
(-0.0219052 1.29445 0)
(-0.013183 1.27469 0)
(1.03553 -0.00441595 0)
(1.01904 0.0150323 -8.92349e-22)
(0.808814 1.3027 2.79301e-19)
(1.0024 0.000376522 -6.13984e-19)
(1.00338 0.00446637 7.33231e-19)
(1.00128 0.00210761 0)
(1.01119 0.00965414 6.11705e-19)
(1.00691 0.00749015 -7.44673e-19)
(1.0072 0.0111746 0)
(-0.0224556 2.61463 0)
(-0.0253568 2.59458 -2.58995e-20)
(-0.0225591 2.60837 1.82352e-20)
(1.2385 0.27043 5.2015e-19)
(1.16238 0.0881645 0)
(0.0447494 3.09078 -9.82628e-19)
(0.0513506 2.87282 -6.956e-20)
(0.103689 3.20143 1.31467e-18)
(0.122355 3.21369 -2.82952e-19)
(0.143234 3.2587 0)
(0.0231512 3.1377 2.70403e-19)
(0.061621 3.16193 9.7882e-19)
(0.0620678 3.17873 -5.05602e-19)
(0.0272325 3.12938 0)
(0.602551 0.285438 0)
(0.543205 0.314654 0)
(1.1311 0.718736 1.19454e-19)
(1.09773 0.853755 -1.04462e-19)
(1.19028 0.605359 0)
(1.21883 0.539287 0)
(1.01577 0.0120368 -1.13629e-18)
(1.01473 0.0127911 1.42861e-18)
(1.02565 -0.00876741 0)
(1.02398 -0.0103322 0)
(1.00669 0.00306053 0)
(1.01092 0.00420349 0)
(1.0043 0.00219847 0)
(1.00944 0.00639056 0)
(1.00692 0.00506291 0)
(1.00446 0.00530228 0)
(0.0960149 1.36416 0)
(0.0805419 1.33468 0)
(0.129914 1.41049 0)
(0.133929 1.40446 0)
(0.152943 2.61529 0)
(0.191722 2.68011 -4.11275e-19)
(0.109462 2.67718 0)
(0.0806376 2.67731 1.65963e-19)
(0.0279565 2.68129 -1.63002e-19)
(0.0140007 1.32313 0)
(0.0185202 1.25242 0)
(0.0188581 1.33729 0)
(0.0341819 1.28142 0)
(-0.00195163 1.99333 2.04547e-20)
(-0.0226751 2.61393 -2.50011e-20)
(-0.0102614 2.67965 -1.16941e-20)
(-0.0211162 2.69157 0)
(-0.0242996 2.62034 7.31824e-21)
(-0.02299 2.61571 2.51883e-20)
(0.00566747 1.99129 -1.44708e-20)
(-0.0104602 2.40728 3.35427e-20)
(-0.0156691 2.42958 1.32571e-20)
(1.00939 0.0391934 1.15361e-18)
(1.00482 0.0176384 -1.43665e-18)
(1.00234 0.0451953 -1.18012e-18)
(0.974507 0.0321872 1.48613e-18)
(1.06429 0.00890182 0)
(1.04962 -0.00657736 0)
(1.09205 0.0366962 0)
(1.0753 0.0145281 0)
(1.07397 0.000515706 0)
(1.14047 0.0777199 0)
(1.11463 0.0450223 0)
(1.11732 0.0370675 0)
(-0.025657 2.43636 2.4794e-21)
(-0.0164376 2.01676 0)
(-0.0163214 2.21969 0)
(-0.0200577 2.60724 -1.42363e-20)
(-0.0173854 2.61784 4.23569e-22)
(0.00153825 1.57827 -4.66421e-20)
(-0.00669885 1.50342 4.76115e-20)
(-0.0175987 1.39305 0)
(-0.0218615 1.39941 0)
(-0.0290885 1.39322 0)
(-0.00560421 1.31787 0)
(0.00484355 1.24324 0)
(0.380833 1.5066 2.98047e-19)
(0.429608 1.51055 1.55618e-19)
(0.594154 2.47217 -2.49155e-19)
(0.390208 2.56172 7.03103e-19)
(0.352379 2.06202 6.77113e-20)
(1.02065 -0.00804161 0)
(1.01576 -0.00938511 0)
(1.01483 -0.0132405 0)
(1.00768 -0.000604546 0)
(1.00489 -0.000653724 0)
(1.00799 -0.00451622 0)
(1.00953 -0.00349048 0)
(1.01462 -0.00434664 0)
(1.0198 0.0160807 1.11494e-18)
(1.01738 0.0147399 -1.41004e-18)
(1.02017 0.0183206 -1.12445e-18)
(1.01781 0.0167981 1.40397e-18)
(0.763497 1.34963 0)
(0.70392 1.38255 2.45999e-19)
(0.869917 1.23118 1.00154e-19)
(0.90755 1.19005 -1.32923e-19)
(1.16676 2.61736 2.61868e-19)
(0.764894 0.122896 5.79576e-19)
(1.17012 0.105308 0)
(1.21114 0.198238 -4.21695e-19)
(1.19209 0.153423 -1.75016e-20)
(1.01501 0.163586 0)
(0.0799182 3.02033 3.46366e-19)
(0.0842684 2.90383 -1.16095e-18)
(0.0293612 2.3622 7.35977e-19)
(0.136613 -0.182698 -3.46875e-19)
(0.343909 3.44898 -2.51931e-19)
(0.194099 3.34213 0)
(0.22493 3.3998 3.2817e-19)
(0.224548 3.07862 -1.21382e-18)
(0.257741 3.19812 0)
(0.00649447 3.12258 5.08146e-20)
(0.0165685 3.1314 -5.86331e-19)
(0.0156233 3.12712 8.62969e-19)
(0.0332728 3.1402 0)
(0.0314244 3.1496 0)
(1.26091 2.58247 0)
(0.529642 0.799424 -5.21251e-19)
(1.01913 1.02692 -1.0235e-20)
(0.984219 1.07974 0)
(0.852772 0.96539 -1.05244e-19)
(1.07567 0.903136 2.69445e-20)
(0.371284 0.338776 -8.52269e-19)
(0.674474 0.310124 -2.22242e-20)
(0.597913 0.220452 3.96069e-19)
(0.569783 0.336853 2.92726e-20)
(0.467689 0.301847 -1.17545e-18)
(0.633945 0.316841 0)
(0.69541 0.415732 6.64594e-19)
(0.698624 0.422157 0)
(0.606016 0.335556 0)
(0.542873 0.260497 0)
(0.787556 0.649494 3.92867e-19)
(1.24837 0.302455 -4.24666e-19)
(1.2399 0.434327 0)
(1.24176 0.390579 0)
(0.709757 0.185248 5.99096e-19)
(0.837005 0.548713 -3.73549e-19)
(0.758522 0.511488 6.64764e-19)
(0.958791 0.440181 -6.76311e-19)
(1.01855 0.0145994 7.55748e-19)
(1.01718 0.0136107 -7.63651e-19)
(1.01605 0.0141834 0)
(1.0369 -0.00462887 0)
(1.03034 -0.00774761 -7.16079e-19)
(1.02852 -0.0106348 7.08659e-19)
(1.02475 0.0107674 0)
(1.02277 0.0148363 0)
(1.01266 0.00461555 0)
(1.01455 0.0091042 0)
(1.01626 0.00413457 0)
(1.01549 0.00286666 0)
(0.0640108 1.35432 0)
(0.0647774 1.31281 0)
(0.144332 1.40564 5.05646e-20)
(0.273083 1.47782 8.58818e-20)
(0.163482 1.44835 1.89128e-19)
(0.194547 1.45267 -3.06608e-19)
(0.153802 1.41592 0)
(0.136125 1.5875 -8.16999e-20)
(0.13772 1.57999 0)
(0.350899 2.01889 -9.85526e-20)
(0.322388 2.35136 5.61125e-19)
(0.19875 1.459 7.12076e-20)
(0.268413 1.3873 2.54656e-20)
(0.203169 1.38441 -2.07643e-20)
(0.282016 1.328 -8.25879e-20)
(0.254515 1.57958 0)
(0.266403 1.62791 9.26556e-20)
(0.0257433 2.26795 -1.62271e-20)
(0.035768 2.67606 0)
(0.0645541 2.41428 9.48885e-20)
(0.0594174 2.43583 0)
(0.0673375 2.69557 -1.84273e-19)
(0.041401 2.70985 0)
(0.022693 1.43215 4.74689e-20)
(0.0326292 1.49044 0)
(0.0282728 1.39543 0)
(0.0186733 1.39855 -5.49494e-20)
(-0.00116093 2.66463 -2.29599e-21)
(0.0231261 2.69915 1.85711e-19)
(0.00645128 2.73473 1.04369e-21)
(-0.00117398 1.8396 -1.17048e-20)
(-0.00552987 1.69126 -9.96848e-21)
(0.0113543 1.30558 0)
(0.0157441 1.2328 0)
(0.0368444 1.58396 -1.92722e-20)
(0.0355288 1.46048 -4.22962e-20)
(0.030011 1.53206 4.79867e-20)
(0.0430079 1.61 0)
(-0.0293859 2.27195 9.84156e-20)
(-0.031795 2.55434 -4.14082e-20)
(-0.0193531 2.45287 5.90763e-21)
(-0.00631985 1.85771 1.41953e-20)
(-0.0275025 2.50839 7.22071e-21)
(-0.0234474 2.4492 -1.00193e-20)
(1.01799 0.0215053 -7.61706e-19)
(1.01397 0.0278115 7.66567e-19)
(1.01279 0.0167473 0)
(1.01228 0.0703448 1.04834e-18)
(0.990607 0.0570132 -1.21016e-18)
(0.950617 0.0552872 1.35247e-18)
(1.01331 0.115833 -1.42378e-19)
(1.04376 -0.00478724 0)
(1.05193 -0.000599357 6.85586e-19)
(1.04011 -0.00823198 -6.85172e-19)
(1.07186 0.0429445 -4.06305e-20)
(1.06473 0.0284367 3.50965e-19)
(1.06424 0.0646301 0)
(1.05413 0.0539094 -1.26416e-19)
(1.03234 0.0442643 0)
(1.02533 0.0395663 0)
(1.02763 0.0135464 0)
(1.02398 0.0160253 0)
(1.04053 0.0333418 2.59948e-19)
(1.0393 0.0285794 -5.75664e-19)
(1.05286 0.0380818 -2.74942e-19)
(1.04821 0.0380179 -3.03509e-19)
(1.07771 0.0692734 5.79837e-19)
(1.10125 0.0550278 0)
(1.1082 0.0934026 0)
(-0.0267597 2.27877 6.12314e-20)
(-0.0269126 2.02488 2.47977e-21)
(-0.0226763 2.03387 0)
(-0.0280078 2.44888 -6.09727e-20)
(-0.0243193 2.40683 -4.85411e-21)
(-0.0316524 2.47761 7.65028e-21)
(-0.021548 2.62801 -2.14142e-20)
(-0.0250986 2.57045 9.19172e-22)
(-0.0242004 2.52343 -7.28855e-21)
(-0.0166355 2.62135 1.56374e-20)
(-0.0211123 2.62341 -1.76441e-20)
(-0.00830816 1.49601 -1.25662e-22)
(-0.00179986 1.6267 -4.33052e-20)
(0.367758 1.44505 -1.28299e-19)
(0.365934 1.37568 1.0963e-20)
(0.644616 1.43132 -2.38375e-19)
(0.520222 1.50289 -1.51419e-19)
(0.575627 1.46077 0)
(0.610632 2.42797 2.21103e-19)
(0.66827 2.43687 3.35053e-19)
(0.423407 2.52184 8.67838e-20)
(0.404808 2.55058 -5.92217e-19)
(0.503245 2.49209 5.61845e-19)
(0.546921 2.48603 0)
(0.489357 2.53238 -5.46757e-19)
(0.255069 2.60113 1.12215e-18)
(0.362778 2.5761 -7.01458e-20)
(0.280891 2.66351 -1.5759e-18)
(0.968791 2.39576 7.05051e-19)
(0.849059 2.39713 0)
(1.01147 0.00135332 2.49329e-20)
(1.01534 -0.00523964 -2.03571e-20)
(1.01771 -0.00402011 -3.72155e-19)
(1.01556 -0.00109584 3.7079e-19)
(1.0131 0.00179729 0)
(0.63378 1.29993 0)
(0.676848 1.18671 0)
(0.789626 1.11103 0)
(0.664401 1.14187 0)
(1.19737 2.63307 5.12508e-20)
(1.09044 2.38445 0)
(0.822454 2.1806 3.42737e-21)
(0.824294 2.44336 0)
(0.918438 2.5322 -4.22126e-19)
(0.950182 2.48156 2.81891e-19)
(0.790632 0.162323 0)
(0.744618 0.139575 1.57374e-19)
(0.912531 0.155727 9.15493e-19)
(0.821939 0.13677 -3.44503e-19)
(0.771922 0.0864873 -1.05469e-18)
(1.08695 0.241092 -8.35189e-19)
(0.98755 0.309787 -9.02066e-21)
(0.928667 0.342949 8.1499e-19)
(1.01684 0.253324 6.87342e-19)
(0.936142 0.200657 -1.20767e-18)
(0.893484 0.213209 1.51916e-19)
(0.933097 0.30579 -3.15686e-19)
(0.909159 0.218313 0)
(1.00082 0.204135 5.90751e-19)
(1.05688 0.213681 0)
(1.05159 0.224582 0)
(1.12449 0.122349 2.65268e-19)
(1.06498 0.190372 -1.04594e-20)
(1.07941 0.242768 -1.51774e-19)
(1.11393 0.207746 0)
(1.02336 0.0486588 5.88985e-19)
(1.03823 0.0626673 7.32036e-19)
(1.03278 0.0464362 -5.84312e-19)
(1.04217 0.0685843 -4.90767e-19)
(1.01494 0.0745813 -7.42285e-19)
(0.989042 0.167623 0)
(0.991989 0.10733 0)
(0.960616 0.0679867 -4.79509e-19)
(0.906453 0.0989887 1.88553e-19)
(1.03968 0.115498 6.78028e-19)
(1.07588 0.134511 -7.77037e-19)
(1.06992 0.1769 6.98524e-19)
(1.03608 0.153949 0)
(1.08584 0.120089 0)
(1.05766 0.110512 -3.18368e-19)
(1.04418 0.107163 -5.51423e-19)
(0.590964 1.09733 1.12001e-19)
(0.619134 1.41581 -1.62771e-20)
(1.147 2.7243 -2.39373e-19)
(1.19933 3.10776 1.03339e-21)
(1.25557 2.73378 -1.13049e-19)
(1.29589 2.70507 1.32324e-20)
(1.27186 2.32872 -3.77727e-20)
(1.18717 3.01344 -6.74852e-20)
(1.2065 2.97036 2.1385e-19)
(1.18133 3.26159 -1.2566e-19)
(1.39975 2.97709 1.5623e-19)
(1.4115 2.91455 0)
(0.566781 0.82412 -4.70013e-20)
(0.220334 1.216 4.77662e-19)
(0.507747 0.392608 5.46597e-19)
(0.389555 0.153175 6.24544e-19)
(0.504243 0.333263 6.63856e-19)
(0.54394 0.437304 -1.07392e-18)
(0.549038 0.429054 8.82416e-19)
(0.486533 0.347503 -3.33976e-19)
(0.387106 0.28599 7.57786e-19)
(0.735151 0.248577 -3.44668e-19)
(0.696799 0.276216 0)
(0.647326 0.196561 7.7155e-21)
(0.737325 0.503788 3.61694e-19)
(0.701403 0.475496 -1.31464e-18)
(0.630398 0.441808 1.8619e-20)
(0.629581 0.420319 0)
(0.708199 0.715001 3.72766e-19)
(0.826358 0.795703 4.10481e-19)
(0.762702 0.844282 -4.78423e-19)
(0.894229 0.816843 -1.5273e-19)
(0.929798 0.859522 -3.56386e-20)
(0.937537 0.867397 3.65545e-20)
(0.874986 0.673287 -6.68707e-19)
(0.946429 0.720345 1.42004e-19)
(0.999418 0.724067 0)
(0.998062 0.70005 -1.82686e-19)
(1.03113 0.333073 2.11737e-19)
(1.15542 0.333152 2.5512e-19)
(1.07245 0.278925 3.41728e-19)
(0.995154 0.377414 -4.20776e-19)
(1.0497 0.480282 0)
(1.13286 0.42212 0)
(0.896176 0.416257 1.06535e-21)
(0.848663 0.306079 0)
(0.889806 0.295363 3.87225e-19)
(0.908369 0.339561 5.83658e-21)
(0.976347 0.485372 1.89152e-18)
(0.907236 0.545031 4.87932e-19)
(0.929501 0.499309 -5.19314e-19)
(0.85023 0.477208 5.52802e-19)
(0.819845 0.451521 3.49298e-19)
(0.797122 0.422665 -3.42482e-19)
(1.02809 -0.00038405 6.14879e-19)
(1.02037 0.000456696 0)
(1.01901 0.0012937 4.01218e-19)
(1.02254 -0.000863884 -9.08231e-19)
(1.02251 0.00446215 4.42485e-19)
(1.02006 0.0114941 -9.26039e-19)
(1.02082 0.0112674 0)
(1.01976 0.0120097 -1.9288e-19)
(1.01651 0.00771856 4.83394e-19)
(1.01669 0.0108304 -2.42605e-19)
(1.0173 0.0105 1.77524e-19)
(0.0292687 1.32896 0)
(0.0310231 1.36828 0)
(0.0439353 1.33337 0)
(0.0492064 1.28896 0)
(0.0813943 1.38571 -5.64369e-20)
(0.0839133 1.36153 1.18791e-20)
(0.078564 1.55472 1.15688e-21)
(0.0893602 1.38615 -3.83086e-20)
(0.039558 1.47028 3.75057e-20)
(0.0440181 1.46599 -2.96487e-20)
(0.0685002 1.37815 -2.36399e-20)
(0.0566583 1.38224 6.59673e-20)
(0.0488573 1.35766 1.07568e-20)
(0.0395232 1.38137 6.4953e-21)
(0.102607 2.38158 -1.04248e-19)
(0.0934538 2.42893 0)
(0.142681 2.02889 1.031e-19)
(0.122038 1.70312 3.58453e-20)
(0.221263 2.02163 -8.31197e-20)
(0.193382 2.44902 0)
(0.235393 2.39607 -6.58944e-19)
(0.328972 2.36473 4.36878e-19)
(0.246468 1.99323 -2.19742e-19)
(0.132778 2.15533 1.53266e-19)
(0.112391 2.26971 0)
(0.017825 1.86661 -9.87892e-21)
(-0.00592736 2.3916 -2.5432e-20)
(0.00208012 2.14404 0)
(0.00523053 2.45332 -1.58213e-20)
(0.0268767 2.29516 1.57955e-20)
(0.0115898 1.41209 -8.83012e-21)
(0.0107094 1.39718 1.49854e-19)
(0.00948955 1.403 -4.77806e-20)
(0.0163406 1.40418 -4.33725e-20)
(0.0213893 1.43534 0)
(0.00746838 1.38592 0)
(-0.00193002 1.29879 -5.50702e-20)
(0.00785125 1.37253 1.55591e-20)
(0.00905372 1.37379 0)
(0.00485334 1.2939 -4.19025e-20)
(0.0123366 1.22086 8.4191e-20)
(1.04225 0.0147332 0)
(1.04876 0.0102239 -6.41166e-20)
(1.03898 0.0239141 -4.63811e-19)
(1.04942 0.0228939 0)
(1.05443 0.0221841 0)
(1.03623 0.0127211 -6.77691e-21)
(1.03021 0.0130568 7.45935e-19)
(1.03188 0.0171413 9.05782e-19)
(1.02558 0.0208855 0)
(1.02195 0.0214051 0)
(1.03547 0.0256803 4.62668e-19)
(1.0255 0.0278311 0)
(1.02329 0.0280288 0)
(-0.0207001 2.02783 0)
(-0.0069996 1.65382 -1.76705e-21)
(-0.0096973 1.76087 -2.83658e-20)
(0.00051207 1.38467 0)
(-0.00704105 1.55405 -2.19853e-20)
(-0.0132151 1.4634 1.484e-20)
(-0.00447614 1.39741 0)
(0.407739 1.64559 0)
(0.362427 1.31477 -1.37221e-20)
(0.277956 1.34933 0)
(0.433502 1.31771 -5.75051e-20)
(0.466341 1.46945 0)
(0.452918 1.41434 4.93243e-20)
(1.04094 2.67928 -1.50253e-20)
(0.983776 2.41529 -8.85967e-19)
(0.945272 2.21202 1.00103e-18)
(0.865282 2.38942 2.37803e-19)
(0.85449 2.4967 0)
(0.922528 2.4924 0)
(0.952584 2.38921 0)
(0.929029 2.37909 -9.21576e-19)
(0.694237 2.4636 -3.69563e-19)
(0.80285 2.44738 -9.53087e-20)
(0.810347 2.4254 7.18482e-20)
(0.705504 2.40895 0)
(0.810012 2.40295 0)
(0.771227 2.41899 -3.62258e-19)
(0.767732 2.47602 0)
(0.627544 1.0704 0)
(0.517727 0.872328 -5.40165e-19)
(0.522548 0.941135 -3.12175e-20)
(0.505537 1.0823 0)
(0.491283 0.991607 8.27923e-19)
(0.793406 0.884236 -1.30829e-19)
(0.799969 1.01678 0)
(0.780065 0.998557 1.79902e-19)
(0.669341 1.02023 0)
(0.661447 0.928889 0)
(1.16517 2.76023 -2.13762e-19)
(1.14038 2.81847 -8.51465e-20)
(0.926132 2.34362 6.6644e-20)
(0.902669 2.32431 -7.33264e-20)
(1.13472 2.73844 0)
(1.08668 2.70664 8.81129e-20)
(1.10271 2.50156 -2.93331e-19)
(1.00421 2.2595 -2.85844e-20)
(0.503332 1.34494 0)
(0.522843 1.08784 -9.87082e-20)
(0.594358 1.18446 0)
(0.859601 0.226069 0)
(0.768946 0.175474 0)
(0.689045 0.140493 0)
(0.866943 0.225244 -6.10774e-19)
(0.76039 0.221038 3.58919e-19)
(0.917668 0.0847453 -3.86739e-19)
(0.938333 0.136013 0)
(0.912063 0.143178 1.70246e-19)
(0.848706 0.103099 6.82268e-19)
(0.807436 0.0725063 -4.27109e-19)
(1.09988 3.35407 -6.82958e-19)
(1.16656 3.27707 0)
(1.11853 3.43913 -1.58446e-18)
(0.658985 3.58458 1.32055e-18)
(1.02943 3.08225 1.27569e-19)
(0.529775 0.797344 5.61295e-19)
(0.512985 0.767586 0)
(0.362251 0.415216 -1.44519e-19)
(0.470994 0.643343 8.48453e-19)
(0.534779 0.392958 -1.94326e-19)
(0.512428 0.471482 2.26608e-19)
(0.683936 0.531121 4.69333e-19)
(0.729891 0.561774 0)
(0.650695 0.577059 0)
(0.626129 0.535097 0)
(1.00811 0.6076 9.05652e-20)
(0.959605 0.58654 -4.72075e-19)
(0.971338 0.601327 3.58846e-19)
(1.03606 0.540124 -3.48904e-19)
(1.08156 0.510568 0)
(1.08434 0.596067 -9.1343e-20)
(0.878997 0.408366 -7.76541e-19)
(0.869195 0.398117 -9.95892e-19)
(0.805845 0.391917 6.12059e-19)
(0.812107 0.354673 -6.35498e-19)
(0.854948 0.316284 -4.97703e-19)
(0.805822 0.316556 6.10494e-19)
(1.02657 0.00652634 -4.63016e-19)
(1.0262 0.00665061 9.32974e-19)
(1.02987 0.000792387 5.95778e-19)
(1.03406 0.00147087 -7.15426e-19)
(1.0338 0.0115504 0)
(1.02979 0.0117385 -1.16721e-18)
(0.0830322 1.64768 1.12268e-20)
(0.0556576 1.59225 0)
(0.096488 1.69862 6.54679e-20)
(0.10936 1.67507 -5.82017e-20)
(0.0731119 1.55314 -2.13384e-21)
(0.0597672 1.54924 0)
(0.00369758 1.69046 0)
(-0.00558721 1.49887 1.13555e-20)
(-0.00718524 1.44052 -1.01954e-20)
(-0.0104596 1.55058 3.34688e-21)
(-0.0038483 1.88943 1.61568e-20)
(-0.0152765 1.94424 -5.84365e-21)
(0.496773 1.37371 -2.42716e-19)
(0.498958 1.3705 2.65508e-19)
(0.44822 1.30853 2.21599e-22)
(0.430316 1.30122 6.83964e-21)
(0.622769 1.30506 0)
(0.551028 1.40023 1.23896e-19)
(0.551424 1.40155 -1.20685e-19)
(0.483693 1.29317 -2.13365e-22)
(0.524321 1.2508 0)
(0.589379 1.21689 0)
(0.668275 2.42692 5.44163e-19)
(0.663429 2.45346 1.25281e-18)
(0.718785 2.47028 -8.61734e-19)
(0.619563 2.44322 -2.0474e-19)
(0.558627 2.5374 2.71527e-19)
(0.498875 2.50332 -7.01523e-19)
(0.992523 2.39317 -5.63771e-19)
(1.02598 2.41085 0)
(0.951142 2.1961 -6.19924e-19)
(1.05721 2.6876 0)
(1.05642 2.66977 0)
(0.608585 2.2995 2.52329e-20)
(1.12212 3.07517 9.27748e-20)
(1.00164 2.97397 -1.44509e-19)
(0.32864 0.82482 0)
(0.333559 0.716264 -2.99597e-19)
(0.533276 0.646651 -3.02778e-19)
(0.372439 2.14377 0)
(0.406772 2.74689 -8.97865e-20)
(0.417162 2.48324 0)
(0.715831 0.679096 -7.95586e-19)
(0.778451 0.681826 1.11045e-18)
(0.789632 0.653142 -1.05219e-18)
(0.689714 0.640939 -1.01204e-19)
(0.752374 0.599572 -4.15524e-19)
(0.975561 2.75938 -7.02717e-20)
(1.01596 2.76423 -1.96684e-19)
(0.56021 2.22051 4.0846e-19)
(0.61095 1.74379 -3.27666e-19)
(0.709614 1.86188 -4.8043e-19)
(0.981026 2.39949 -1.36655e-19)
(0.980252 2.35339 3.52159e-19)
(0.654223 1.776 3.23487e-20)
(0.461001 1.3075 1.69008e-19)
)
;

boundaryField
{
    wall-4
    {
        type            noSlip;
    }
    velocity-inlet-5
    {
        type            fixedValue;
        value           uniform (1 0 0);
    }
    velocity-inlet-6
    {
        type            fixedValue;
        value           uniform (0 3 0);
    }
    pressure-outlet-7
    {
        type            zeroGradient;
    }
    wall-8
    {
        type            noSlip;
    }
    frontAndBackPlanes
    {
        type            empty;
    }
}


// ************************************************************************* //
