/*--------------------------------*- C++ -*----------------------------------*\
  =========                 |
  \\      /  F ield         | OpenFOAM: The Open Source CFD Toolbox
   \\    /   O peration     | Website:  https://openfoam.org
    \\  /    A nd           | Version:  6
     \\/     M anipulation  |
\*---------------------------------------------------------------------------*/
FoamFile
{
    version     2.0;
    format      ascii;
    class       volScalarField;
    location    "91";
    object      p;
}
// * * * * * * * * * * * * * * * * * * * * * * * * * * * * * * * * * * * * * //

dimensions      [0 2 -2 0 0 0 0];

internalField   nonuniform List<scalar> 
918
(
0.530752
1.21717
0.00698332
0.530663
-0.0117035
1.184
-0.510456
0.625577
0.511906
-0.124909
-0.0864727
0.514034
1.04178
0.808888
-1.17246
-0.0255501
0.626472
-0.423926
0.509975
-0.0930375
0.638629
0.518578
0.521042
0.511827
0.573979
0.761375
0.919547
-0.00347977
0.0118997
0.0066512
-0.0130939
-0.0336892
-0.0311263
1.06711
1.11901
1.14239
0.478377
0.311156
-0.405379
-0.46077
-0.437133
-0.526756
0.626023
0.627301
-0.235125
0.625133
0.624139
0.497578
0.5113
0.512137
0.513257
0.512168
0.513446
0.405124
-0.132797
-0.160325
-0.109028
-0.107745
0.0228124
-0.0878023
-0.0888378
-0.0849062
-0.0866035
0.427321
0.50872
0.505429
0.518301
0.527281
1.15734
1.13125
1.15751
1.06688
1.08481
1.01888
0.992042
0.830024
0.853468
0.79216
0.778485
-1.62436
-2.56436
-0.599139
-0.326002
-0.010896
-0.0272648
-0.0261567
0.622088
0.624104
0.624215
0.626898
1.02978
-0.395496
-0.468223
0.510518
0.509045
0.5181
0.519005
0.513972
0.51397
-0.0900825
-0.0896843
-0.0761256
-0.0897533
-0.0873738
0.617923
0.620368
0.511262
0.508703
0.535189
0.557799
0.54611
0.243929
0.584621
0.600066
0.626047
0.771764
0.758364
0.770931
0.894794
0.862764
0.951551
0.973466
0.0143063
-0.0018383
-0.0269078
-0.0241628
-0.0249746
0.474112
0.467666
0.495951
0.482003
0.48505
0.217348
0.0684378
0.392603
0.415701
-0.329692
-0.380574
-0.464477
-0.462406
-0.570478
0.597552
0.628932
0.628612
-0.246395
-0.173697
-0.302129
-0.115885
-0.173513
0.488513
0.494775
0.490845
0.506251
0.500411
0.502839
0.515369
0.512553
0.514147
0.455286
0.579116
0.329367
0.28862
-0.283314
-0.178692
-0.263331
-0.0995968
-0.0985337
0.0347721
0.0655853
0.00790554
-0.00425441
-0.0934022
-0.0901497
-0.0922553
-0.0862929
-0.0871704
0.418747
0.405644
0.438591
0.446131
0.495344
0.496711
0.501313
0.499203
0.943921
0.966906
0.97223
0.948149
-3.53438
-6.15162
0.0141292
0.171353
-0.0103516
-0.0119402
-0.000611214
-0.010473
-0.00143116
-0.00300424
-0.0371604
-0.0369437
-0.0295512
-0.0311143
0.619226
0.620782
0.997538
1.02472
0.966746
0.942949
0.499894
0.501758
0.506374
0.50326
-0.0876914
-0.0883302
-0.0881774
0.622923
0.621217
0.62201
0.202359
0.113068
0.295886
0.327245
0.61649
0.60478
0.614994
0.685984
0.725244
0.990268
1.01311
0.998098
1.00994
1.06027
1.08315
1.04841
0.452631
0.463588
0.457841
0.498772
0.496611
0.497545
0.494225
0.495085
0.493784
-0.0421629
-0.411251
0.464127
0.465313
0.458018
0.460468
0.684765
0.768639
0.625211
0.62803
0.628271
-0.063632
-0.110831
0.235419
0.197908
0.357509
0.392339
0.374028
0.918824
0.878216
0.926612
0.901716
0.866346
0.890789
-0.346639
-2.10139
-1.1003
0.567711
0.372416
0.463354
-0.0194854
-0.0362807
-0.0316318
1.01468
1.05463
0.640846
0.831117
0.784597
0.747793
0.774111
0.837301
0.769982
0.804636
0.83487
0.810538
0.546338
0.474757
0.493492
0.843737
0.89894
0.0750345
-0.00484216
-0.0276643
0.0880758
0.155035
0.123351
1.03204
0.951325
1.01293
0.508945
0.509899
-0.0216342
-0.0484807
0.514019
0.51373
-0.023955
-0.0151696
0.478504
-0.938494
0.0753926
0.503577
0.493151
0.510018
-0.105358
0.305672
-0.0890611
0.000907833
-0.0300921
0.50439
0.439697
0.397276
-0.0108723
-0.0354642
-0.0855931
-0.219023
0.506683
0.50504
0.509408
0.510224
0.511005
-0.0315508
-0.0315942
-0.0215327
-0.0761184
-0.0689331
-0.0819046
0.473246
0.493315
-0.200898
0.509704
0.51181
0.511502
0.505747
0.510662
0.509309
-0.0271457
-0.0299137
-0.0320984
0.181857
0.324139
0.660937
0.735195
0.610248
0.444604
0.155546
0.59858
0.650024
0.575648
0.706009
0.626608
0.623719
0.142304
-0.00160138
0.14705
0.0800444
0.500389
0.499852
0.490666
0.487539
0.504862
0.502541
0.507734
0.504996
0.508165
0.509301
-0.0595271
-0.0889902
-0.109435
-0.152351
0.271852
0.531743
0.220622
0.280128
0.140512
-0.0823177
-0.08194
-0.0844589
-0.0885071
-0.0497277
-0.0497489
-0.00579101
0.00442305
-0.0110469
-0.0370363
-0.0583865
-0.0502135
-0.0596336
0.497566
0.497647
0.503094
0.51219
0.449364
0.453072
0.419335
0.438106
0.424247
0.364121
0.393893
0.370968
-0.0214536
-0.0127087
-0.0131636
-0.0366947
-0.0360041
-0.0579732
-0.0505507
-0.0492372
-0.0463709
-0.0511158
-0.0784047
-0.0852115
-0.182835
-0.303191
0.944406
0.86513
0.133827
0.496564
0.502244
0.499405
0.504168
0.50736
0.507984
0.505547
0.502034
0.493436
0.495069
0.491635
0.492767
-0.138031
-0.248287
-0.0799957
-0.157195
0.140127
0.607714
0.331286
0.275815
0.261077
0.488655
0.678476
0.584787
0.638152
0.608684
-0.401654
-0.00596428
-0.337283
0.207195
0.204249
0.688256
0.729781
0.747144
0.704165
0.660689
-0.0281782
0.538171
-0.0850366
-0.0329227
0.159721
0.0402926
0.593017
0.612761
0.620128
0.615762
0.620369
0.62019
0.610022
0.59728
0.62072
0.623722
0.483032
0.210066
0.166298
0.120428
0.61172
0.505554
0.55587
0.473419
0.496005
0.498457
0.497432
0.478049
0.485419
0.481072
0.48832
0.491942
0.49934
0.499512
0.495297
0.497264
-0.0802045
-0.0885872
-0.0768192
-0.133095
-0.138421
-0.181778
-0.0940874
0.0900888
0.0402875
0.229957
0.358758
0.0602117
-0.0615228
-0.0451798
0.00803677
0.158176
0.167182
0.0454277
0.146858
0.119686
0.101514
0.216425
0.217347
-0.0569398
-0.064249
-0.0628614
-0.0690758
-0.0247148
0.0984803
0.0709706
-0.037357
-0.0429783
-0.0801767
-0.0830572
-0.000352518
-0.0451382
-0.0374906
-0.00594217
-0.0647139
-0.0391746
-0.0301605
-0.0398342
-0.0393164
-0.0385282
0.492611
0.494232
0.494579
0.504376
0.516254
0.53115
0.497095
0.470639
0.461648
0.464746
0.437727
0.447018
0.442243
0.458147
0.479814
0.488125
0.486317
0.489032
0.47102
0.472693
0.45811
0.46274
0.431797
0.412972
0.402734
-0.0609937
-0.0284281
-0.042093
-0.0536282
-0.0282813
-0.037363
-0.0387873
-0.0196273
-0.0393675
-0.0339921
-0.0439931
-0.0501544
-0.0507168
-0.0853175
-0.00332909
-0.186777
-0.235483
-0.288907
0.869801
1.00895
0.784711
0.570784
0.578902
0.81477
0.922176
0.528326
0.710893
0.745866
0.564172
0.855467
0.500536
0.50011
0.497959
0.497122
0.498139
-0.0251981
0.0786258
0.0884555
0.149053
0.264242
0.368926
0.304739
0.190818
0.323084
0.347937
0.604037
0.609601
0.569606
0.592056
0.592825
0.398577
0.47913
0.516604
0.474835
0.548481
0.581564
0.528117
0.571081
0.491471
0.44191
0.433225
0.387833
0.4227
0.403601
0.377976
0.492465
0.469153
0.480047
0.470125
0.492302
0.516653
0.517835
0.539796
0.556757
0.470666
0.416061
0.433197
0.46199
0.418063
0.435831
0.458
0.179393
0.0810512
0.243931
-0.0835177
3.63594e-05
0.0415944
-0.00227047
-0.0432269
0.263338
-0.37214
-0.318452
-0.992172
0.487148
0.816352
0.536671
0.548351
0.61843
0.606963
0.615097
0.613948
0.619984
0.598378
0.609329
0.613317
0.582727
0.604012
0.591659
0.601245
0.48622
0.385861
0.389648
0.320156
0.180733
0.222964
0.412624
0.344954
0.270265
0.262508
0.44033
0.304943
0.384961
0.434243
0.357156
0.293104
0.520348
0.567584
0.560281
0.532613
0.410931
0.444062
0.445023
0.49565
0.539364
0.562866
0.486863
0.493161
0.494069
0.491339
0.489715
0.492835
0.493114
0.495417
0.495561
0.498153
0.49765
-0.079569
-0.0652602
-0.0780512
-0.0871065
-0.0227847
-0.0352057
-0.00472698
-0.0396352
-0.0359899
-0.0321313
-0.0490113
-0.0633712
-0.061625
-0.0518096
0.0740505
0.0936634
0.0949081
0.0506693
0.220341
0.40625
0.462575
0.325325
0.196198
0.225801
0.309539
0.0232992
0.00346604
-0.00890883
0.0635739
0.0556923
-0.0698515
-0.0748644
-0.0709975
-0.0569351
-0.0502688
-0.0747929
-0.0808059
-0.0699483
-0.0760563
-0.0813828
-0.0855413
0.472309
0.465234
0.468783
0.461254
0.459429
0.476309
0.480937
0.482001
0.487609
0.490186
0.479686
0.485432
0.489608
-0.0406297
-0.0580241
-0.0572106
-0.0625466
-0.0581722
-0.0560478
-0.0600847
0.117727
0.0242269
0.0611001
-0.0109138
-0.138264
-0.0788941
0.49153
0.48354
0.470504
0.710257
0.546123
0.465044
0.563773
0.684904
0.265684
0.464437
0.300131
0.875342
0.78328
0.928052
0.543947
0.24551
0.418179
0.42496
0.266395
0.391758
0.328824
0.205153
0.240232
0.276289
0.359871
0.244801
0.224245
-0.0189794
0.163505
0.27228
0.254227
0.380107
0.43599
0.256695
0.171836
0.117593
0.585571
0.601475
0.609827
0.581192
0.602404
0.559532
0.550331
0.56828
0.577261
0.571537
-0.626564
-0.215434
-1.41458
-0.833109
-0.381344
0.515067
0.519898
0.737698
0.637339
0.642071
0.624095
0.576205
0.555174
0.5894
0.599687
0.309581
0.394036
0.381528
0.357107
0.30366
0.24623
0.518109
0.52892
0.548977
0.578078
0.554849
0.583206
0.48564
0.485485
0.484141
0.480392
0.478892
0.482168
0.0185573
-0.00615165
0.0325561
0.017682
-0.00638325
-0.00629884
-0.0495021
-0.0609947
-0.0617929
-0.0575731
-0.0463797
-0.0448814
0.164817
0.102051
0.0132094
0.0547492
-0.0124011
-0.0946777
-0.0972786
-0.00555126
0.0949695
0.0761812
0.380757
0.647319
0.473496
0.638992
0.439504
0.5376
0.453108
0.42659
0.453504
0.360349
0.451336
0.0530519
-0.149694
-0.204384
0.808932
0.77281
0.550392
0.310694
0.188837
0.476924
0.500239
0.460107
0.49093
0.53692
0.524122
0.0212507
0.105142
0.197941
0.501576
0.27311
0.292805
0.282431
0.450365
0.418098
)
;

boundaryField
{
    wall-4
    {
        type            zeroGradient;
    }
    velocity-inlet-5
    {
        type            zeroGradient;
    }
    velocity-inlet-6
    {
        type            zeroGradient;
    }
    pressure-outlet-7
    {
        type            fixedValue;
        value           uniform 0;
    }
    wall-8
    {
        type            zeroGradient;
    }
    frontAndBackPlanes
    {
        type            empty;
    }
}


// ************************************************************************* //
