/*--------------------------------*- C++ -*----------------------------------*\
  =========                 |
  \\      /  F ield         | OpenFOAM: The Open Source CFD Toolbox
   \\    /   O peration     | Website:  https://openfoam.org
    \\  /    A nd           | Version:  6
     \\/     M anipulation  |
\*---------------------------------------------------------------------------*/
FoamFile
{
    version     2.0;
    format      ascii;
    class       surfaceScalarField;
    location    "91";
    object      phi;
}
// * * * * * * * * * * * * * * * * * * * * * * * * * * * * * * * * * * * * * //

dimensions      [0 3 -1 0 0 0 0];

internalField   nonuniform List<scalar> 
1300
(
3.75095
5.62643
-3.31389
3.75095
-7.75281
5.62643
-4.29052
4.29052
-0.387819
0.387819
1.8765
1.87445
-2.43109
2.43109
-1.68724
1.68724
-2.52551
2.52551
-5.2482
5.2482
-5.06896
5.06896
4.69371
-4.69371
-6.34372
6.34372
-0.965355
0.965355
-3.58431
3.58431
3.17236
-3.17236
-1.76101
1.76101
0.117406
-0.117406
-0.554079
4.30503
3.19687
3.19687
-1.98792
1.98792
-4.87532
4.87532
6.22191
-6.22191
5.20956
-5.20956
-1.89567
-2.52825
1.78965
-11.4517
-5.96315
-5.96315
-8.44087
8.44087
-2.81444
2.81199
2.94736
-2.94736
-1.71557
1.71557
-4.30913
0.0186122
-4.30913
4.25954
0.03098
4.25954
-0.501439
0.11362
-0.501439
3.96434
-3.96434
0.287057
0.100762
0.287057
3.06734
-3.06734
-1.87685
3.75335
1.8741
-1.8721
6.17713
-1.87885
3.75331
-6.04516
6.04516
-2.67963
0.248546
-2.67963
2.19659
0.234495
2.19659
-6.90293
6.90293
-1.76979
0.0825503
-1.76979
1.68488
0.00236017
1.68488
2.88873
-2.88873
-2.62409
0.0985778
-2.62409
2.39185
0.133666
2.39185
0.353046
5.27338
-5.97948
8.79147
-5.27338
0.0251835
5.21027
0.0379319
5.21027
-5.1055
0.0365404
-5.1055
5.01385
0.0551026
5.01385
4.78064
-0.086928
4.78064
-4.81513
0.12142
-4.81513
-3.35659
-4.08561
-6.50643
0.162715
-6.50643
-1.03311
0.0677577
-1.03311
0.858044
0.107311
0.858044
-3.73276
3.73276
-3.94363
0.359322
-3.94363
3.12731
0.0450482
3.12731
1.86812
1.88284
5.61907
-5.61907
2.44671
-1.68065
-0.0803573
-1.68065
-1.85766
-3.3519
1.85766
-0.0966528
-0.111571
0.228978
-0.111571
3.15713
0.0397409
3.15713
2.23744
0.154405
-2.23744
0.249519
3.30386
-3.30386
1.32607
0.661849
1.32607
-5.55855
5.55855
4.96231
0.0515443
-4.96231
0.0869857
6.15669
0.0652177
6.15669
-6.20706
-0.0148491
-6.20706
2.48027
-5.00852
-2.68791
6.15373
0.189983
-6.15373
0.19058
2.91897
0.0283862
2.91897
-2.91759
2.91759
-2.98431
0.0369579
-2.98431
-2.13815
0.422587
-2.13815
1.40166
0.313902
1.40166
-4.22486
-0.0842653
-4.22486
-4.10327
0.159638
4.10327
0.156263
1.11735
-1.11735
-0.610809
0.10937
-0.610809
-4.07143
-0.153432
4.07143
-0.107089
-3.90209
-0.0622517
-3.90209
-3.02198
0.0376629
3.02198
0.0453634
3.11213
0.0449986
-3.11213
0.0447952
-1.87099
3.75383
-1.87996
3.75406
-5.68182
-0.363341
-5.68182
6.36681
-0.321654
6.36681
3.10468
0.479637
-3.10468
0.425042
2.0113
0.185297
2.0113
-6.87668
-0.0262472
-6.87668
6.9123
-0.00936708
6.9123
1.87173
0.139564
-1.87173
0.101941
1.67647
0.00840701
1.67647
2.9166
-0.0278699
2.9166
-2.88225
-0.00648605
-2.88225
2.78908
-2.78908
2.7132
0.0758719
-2.7132
0.0891141
-11.1246
11.1098
-0.0362357
-11.0884
5.17403
5.17403
4.23285
0.547786
4.23285
-5.01316
0.198027
-5.01316
2.66862
-5.35652
3.12863
-6.48523
4.67351
-16.1252
4.27956
-8.36516
6.76095
-6.76095
6.64078
0.120166
-6.64078
0.134352
-1.14434
0.111226
-1.14434
-3.13129
-0.601474
-3.13129
4.36795
-0.635189
4.36795
-3.02737
3.02737
-3.07622
0.0488507
3.07622
0.0510908
1.66083
0.0156433
-1.66083
-0.0198209
0.188281
0.0987756
-0.188281
0.0767101
3.52777
-0.22391
3.52777
-3.09833
-0.205528
-3.09833
-1.23666
0.0923209
1.23666
0.0894132
-5.80737
0.248826
-5.80737
-11.1823
0.0938734
-11.1443
-6.11319
-6.11319
2.32768
11.1191
-2.89742
0.0151755
2.89742
0.0215476
2.9744
0.0529644
-2.9744
0.0568141
-2.85588
0.0668028
2.85588
0.0617102
-2.506
0.367845
-2.506
-1.01883
1.01883
-1.16504
0.146214
1.16504
0.236624
1.42044
-0.303088
1.42044
0.746067
0.111977
-0.746067
0.135258
-3.84486
-0.0572294
-3.84486
6.60184
-0.235028
6.60184
-2.96886
-0.12947
2.96886
-0.0522583
-0.0347178
11.1445
-5.13932
0.0338188
5.13932
-11.2097
11.2435
-3.21084
0.70484
3.21084
1.02201
5.28358
0.274973
-5.28358
0.27042
6.85313
0.0591693
-6.85313
0.0921774
-2.64047
-0.490817
-2.64047
-5.09525
-0.586567
5.09525
-0.727297
-11.4823
-0.202196
11.6845
-11.4272
6.00957
0.147123
-6.00957
11.3907
-0.991348
-0.126006
0.991348
0.0274784
1.7611
-0.340654
1.7611
3.74734
-0.219576
-3.74734
-0.097517
-6.76596
-0.110722
6.76596
-0.164118
-2.19019
-0.450281
2.19019
-0.429096
-4.2674
4.30714
1.90974
-2.3156
-2.69292
-5.66751
1.85529
1.89854
4.30201
-10.1387
-5.98647
-9.94815
7.21485
-6.94443
-9.31538
9.22845
7.94857
-8.01082
-5.77725
5.82835
6.48482
-6.43946
1.87949
1.87386
8.07541
-7.82687
-15.6822
15.3188
7.65131
-7.56876
15.8186
-15.8448
-17.8521
17.9113
-5.7072
5.80578
-6.74324
6.73676
-6.98023
6.92797
-2.79463
-3.6906
13.1079
-12.9452
8.65335
-8.73371
-8.69277
9.05209
3.38462
0.922514
3.42962
-1.88177
3.76126
-1.87154
3.78127
2.78549
-5.58012
2.57103
-5.26395
4.41707
4.23628
-4.32042
-1.34709
-5.9289
5.95729
-5.80974
5.87145
9.19965
-9.18104
-1.88499
3.75885
-1.86908
3.76761
-3.42283
-2.35443
3.37778
0.924228
8.05608
5.05187
-8.24606
-1.70209
-8.03369
7.81411
-8.21848
8.01295
-0.436103
5.8385
-5.4024
4.43922
-1.6535
7.492
5.56134
5.75937
5.86071
-5.58574
1.08372
-6.48611
-6.39913
-2.20829
2.31766
2.06316
-1.9624
6.16007
1.7885
6.05298
-5.81441
-2.1964
-5.87164
3.81965
2.0087
3.8685
4.08225
2.40257
4.11992
3.02943
-3.03686
0.00742263
-3.05941
6.08884
0.721995
-5.41384
-4.48961
4.9942
3.08122
5.22869
-5.60461
-2.22226
-5.17957
-9.56766
-6.11452
-10.1542
10.1653
5.15358
9.8436
-11.9467
11.7826
4.89051
2.7608
4.89287
-4.98068
-2.58808
-4.87873
11.6631
-2.65253
-9.01056
-10.3248
-7.52726
10.3342
5.48439
10.9644
6.94684
11.0566
4.41936
7.24373
-9.90374
2.37648
-3.86684
-1.84036
-3.77773
3.66414
2.14164
3.79781
-4.21894
-2.52431
-4.20376
-4.2953
-2.68494
4.32317
2.41359
-4.4179
-3.80058
4.54737
2.3806
4.06157
-10.048
4.30359
-7.99419
-9.19489
-3.75034
-9.06054
3.58663
2.59794
-6.18457
-1.99349
8.60453
-4.36825
7.25744
-5.22505
-3.50866
-5.24487
-6.98223
-1.71054
-6.82259
-8.91002
8.41921
-9.20917
8.57398
12.4948
-5.62938
-6.86541
-3.96705
-2.47241
3.92225
-0.49263
-3.71005
3.71747
0.0512097
3.83248
4.755
4.26237
-3.88281
-1.92693
-3.826
3.82203
2.04942
3.88883
6.86611
2.33354
6.89709
-6.63044
-2.5506
-6.71471
9.08372
-8.66114
2.79308
-2.70076
5.3808
2.63216
-5.15689
-2.8768
6.23423
-3.20919
-3.02504
-12.3504
10.7827
1.56773
-4.85839
-0.41917
-0.536576
-5.56431
-3.75107
5.44289
0.31648
11.0991
7.34807
-5.51468
5.76351
6.16981
6.22135
-0.177775
5.87773
-5.17289
5.27538
-2.73344
-2.54193
5.48847
-5.64191
-1.22623
-5.56791
4.34168
0.411071
1.44648
-1.2175
-1.74467
-0.463614
-1.60942
1.1036
0.959555
1.20238
0.965004
1.35265
-2.94805
0.496123
2.45192
-1.98304
-1.46627
-3.8195
-1.1442
4.9637
5.73955
2.07456
-5.64203
-0.229611
2.54988
-2.44257
-0.837937
-2.98156
2.22333
-3.06127
-3.46177
-1.9558
5.41758
-3.3688
-0.457194
3.31584
0.552662
-3.82826
-2.10064
3.7913
0.328617
-3.12902
6.19031
-3.06129
-5.05594
2.52902
3.55982
4.53771
-4.78989
2.4493
2.34059
-1.23006
4.25838
0.970316
4.44367
-7.08421
4.86195
5.74797
3.30412
-6.2276
1.04804
-6.03618
8.55364
-7.40393
-1.14971
4.0772
4.47643
7.00766
5.48713
-5.66041
12.6681
-1.17056
-6.23337
7.20674
-3.90262
4.87719
-8.7798
-10.3643
4.13095
-9.19145
11.0794
-1.88799
-3.5902
-8.3565
12.7816
-1.25207
-11.5296
8.59153
-4.36075
-4.42945
8.79019
-7.01327
7.01753
-1.98569
-5.03184
-10.1509
-5.69397
10.2616
1.52099
-9.96697
12.3435
-2.72325
4.16678
0.726082
4.17519
3.37199
-5.47609
2.1041
3.64128
-5.62697
2.03942
-7.51551
-6.75426
12.0945
-5.34025
-10.5046
-9.54163
-0.962964
2.5486
9.79486
-9.49543
7.4254
2.07003
3.29759
0.59124
-3.37346
-0.404265
0.230718
4.50833
-4.73905
4.02853
4.18293
3.2171
1.29122
3.84955
2.10774
-3.87109
-0.332668
-4.16867
1.48373
-1.75508
-3.69363
5.17737
-4.06195
0.368316
-2.74144
-3.49238
6.23382
-4.5818
3.03568
3.15463
5.0851
-4.91434
1.42196
-2.39091
-2.52343
2.63999
-4.39507
2.00147
3.17589
4.38208
0.581495
5.91559
6.17891
-8.51353
0.519345
11.2308
-9.5287
2.48026
8.57634
-9.90567
0.364036
-8.69651
0.979806
-5.34806
-5.20476
5.23656
-6.9471
-3.54324
6.26265
0.634436
-6.41891
-0.403676
-6.05276
-2.85727
-6.50304
-3.05919
-6.14998
-8.7196
-1.66775
-7.05185
6.75146
-6.6771
-3.47712
7.4044
1.16958
-7.46659
7.34058
-7.52348
7.18282
0.0951128
3.62236
4.35748
1.88507
-2.39229
4.27736
-5.08487
7.41841
-8.76949
3.68463
4.2548
-6.8054
-4.5147
5.04694
4.03679
5.36084
8.90556
-10.3548
1.44924
-10.6233
11.9632
-1.33992
-16.3936
5.77026
-7.488
2.4056
0.387483
2.51683
0.547773
2.49087
-3.03864
-2.15299
-2.06357
-2.44586
-3.49377
5.93963
1.05952
-3.47839
2.41887
-3.56704
4.62656
-0.0856388
-3.39275
5.17636
-2.68549
5.56384
-3.65268
1.91116
3.54874
5.83862
-2.28988
4.41894
-1.78678
1.95164
-4.24151
-1.54214
-2.95347
5.09511
-3.28035
3.64866
-0.356063
4.00473
-4.04396
0.834772
-0.826858
3.35607
3.60559
4.33166
-3.04044
2.93489
-4.72168
-1.30662
-4.14018
-0.96429
-0.181645
-3.7713
3.95294
5.9897
-6.17135
-5.27533
9.51175
-4.23642
7.69089
-5.43229
-2.2586
-4.28114
-4.38
3.91329
1.96444
9.65532
0.177621
-5.60991
-4.99527
-3.97326
3.0864
2.18898
-1.70544
3.27317
2.24201
-0.795535
0.39921
0.80317
1.75924
-1.36003
0.337619
1.42162
-0.87988
1.68531
0.864568
-1.79729
0.187872
-1.36518
3.58852
1.08674
-2.0463
0.686266
0.893354
-3.6268
5.10788
-2.7372
-2.37068
6.00123
1.15002
-3.88722
4.41789
-4.00682
2.45808
-3.60229
-1.42914
-5.43596
-3.64746
-2.47976
4.89863
-3.45987
5.53444
1.43686
-5.30483
6.74169
-3.62954
1.67374
-3.05019
3.91476
-0.99702
-2.05317
2.87543
2.54214
-3.14388
0.162314
-0.268442
2.41727
-2.68571
-0.644002
-2.62705
-4.57621
4.90483
-2.10372
4.55302
2.17364
-1.91782
6.47084
1.80753
-3.72535
-3.24842
-3.70561
-1.38476
3.15295
-0.568922
-4.30981
-5.60076
4.17025
0.273424
-7.07945
7.94457
-0.865123
-3.99823
-0.863723
4.94093
-6.09215
0.465178
-4.05273
3.89184
4.86216
5.13558
-11.3009
-0.228697
-6.1473
1.07996
-7.22726
5.55639
-3.5217
7.65265
-10.316
6.83884
-9.14637
6.50294
-0.724314
6.23945
-4.13535
2.77111
-8.46508
-6.94409
5.60025
-2.83945
6.32634
-3.2275
9.55383
-5.95074
5.38496
4.16888
-1.0525
-4.19238
-5.38342
4.33092
0.00154197
4.17673
4.98721
-2.87947
4.65454
2.26483
-4.65574
-2.13024
-6.48889
1.83315
-3.33427
-1.92262
3.75576
3.16249
3.75373
1.23234
-3.34946
7.25565
-8.21862
-1.91541
-3.28936
5.37629
-1.04537
3.48042
-6.76977
-1.86764
4.7355
-0.723662
-4.01184
0.893882
-4.43712
1.67624
-6.11337
5.27086
-5.67453
2.25404
-9.74205
-5.21255
-5.18507
-2.27715
-5.24633
-7.56143
5.28428
-1.79117
5.54942
-8.49569
7.77203
-3.46753
8.75181
-5.45025
-1.05279
5.87934
1.30348
10.0553
0.167585
-4.68228
-1.94163
3.71529
-1.77366
1.14477
-3.60371
0.111581
2.49953
3.5017
-6.84121
0.0358141
-4.64647
-3.90424
7.94103
5.60751
11.5972
1.24241
9.12514
-1.18411
10.3675
4.17673
4.41335
-2.99702
4.44626
0.955921
4.64055
-0.892698
2.80386
1.62413
1.69188
0.750685
2.28862
1.31697
3.1234
0.0847578
-1.97882
4.62869
-8.60195
-0.981225
-8.05416
1.17429
5.43408
-4.25979
2.84695
-0.657974
1.07329
-0.202312
-1.12285
1.32516
-2.74424
-1.91838
-0.496763
-1.68054
2.3668
1.90798
-1.87004
-0.874207
0.325577
-3.97303
3.27671
-3.11439
-0.572252
6.16944
-2.88686
0.201145
-1.21312
-2.4259
-2.88952
2.70164
6.17446
0.29638
3.11317
5.20121
3.10057
0.221095
3.79178
-5.67977
-3.72373
-5.90846
-0.35207
4.58886
1.76722
8.02764
5.9361
4.89072
-1.87905
-10.0977
6.4973
-2.05103
5.15737
-1.14554
-4.96783
5.08283
2.33558
-5.71727
0.0427351
-4.92509
-6.97613
-0.477182
8.24921
-9.57811
8.52532
5.66805
1.3838
-4.42667
-0.758399
4.28046
0.132898
10.5004
-0.918106
-7.02864
7.94674
-4.51598
3.53475
0.674167
2.599
1.99933
1.34135
-5.68728
-9.94707
-2.06858
-1.55822
-4.43926
0.524443
-2.43243
6.06258
-2.52783
3.80399
5.41891
6.4922
-2.04931
-4.12203
6.28574
-2.48175
4.01045
)
;

boundaryField
{
    wall-4
    {
        type            calculated;
        value           uniform 0;
    }
    velocity-inlet-5
    {
        type            calculated;
        value           uniform -3.75095;
    }
    velocity-inlet-6
    {
        type            calculated;
        value           uniform -5.62643;
    }
    pressure-outlet-7
    {
        type            calculated;
        value           nonuniform List<scalar> 8(3.31389 7.75281 4.42393 9.66203 7.4422 5.16818 5.79725 8.95307);
    }
    wall-8
    {
        type            calculated;
        value           uniform 0;
    }
    frontAndBackPlanes
    {
        type            empty;
        value           nonuniform 0();
    }
}


// ************************************************************************* //
