/*--------------------------------*- C++ -*----------------------------------*\
  =========                 |
  \\      /  F ield         | OpenFOAM: The Open Source CFD Toolbox
   \\    /   O peration     | Website:  https://openfoam.org
    \\  /    A nd           | Version:  6
     \\/     M anipulation  |
\*---------------------------------------------------------------------------*/
FoamFile
{
    version     2.0;
    format      ascii;
    class       volVectorField;
    location    "91";
    object      U;
}
// * * * * * * * * * * * * * * * * * * * * * * * * * * * * * * * * * * * * * //

dimensions      [0 1 -1 0 0 0 0];

internalField   nonuniform List<vector> 
918
(
(0.985049 -0.000715871 0)
(0.00544098 2.96617 0)
(-0.00510687 0.874646 0)
(0.979575 0.00196183 0)
(-0.0143834 2.06292 3.33319e-20)
(-0.00719222 2.9486 -2.53648e-18)
(0.822477 1.12465 4.51046e-19)
(0.1149 0.0844535 -1.39612e-20)
(0.999922 -0.000245564 0)
(0.0931162 0.670725 0)
(0.0168008 0.355311 0)
(0.732464 0.00963119 0)
(0.0101943 2.93182 0)
(0.00328606 2.79441 0)
(-0.00281131 3.17599 8.31477e-19)
(-0.0136213 1.93056 2.48105e-20)
(0.295369 0.0470022 9.77346e-19)
(0.234773 1.11122 3.5778e-19)
(0.964314 0.00674299 0)
(-0.00524967 0.339956 0)
(0.0575925 -0.0754453 -6.34006e-19)
(1.00183 -0.00455912 0)
(0.999851 -0.00892561 0)
(0.975169 -0.00605163 0)
(0.592248 0.0281736 0)
(0.0207912 2.64501 0)
(-0.0121192 2.91157 9.27134e-19)
(-0.00778811 0.925335 0)
(-0.0367653 1.17123 0)
(-0.00570575 0.893475 0)
(-0.0245583 2.58411 0)
(-0.00520449 2.11388 -2.6623e-20)
(-0.0103146 1.90157 0)
(-0.0219344 2.98768 -9.13195e-23)
(-0.0163807 3.00545 1.96851e-18)
(0.00231043 3.00043 0)
(0.871992 -0.00976914 0)
(0.372514 0.909843 1.62263e-19)
(0.821274 1.14356 -5.66599e-19)
(0.953578 1.01024 5.76802e-19)
(0.683637 1.22643 -1.03185e-19)
(0.697184 1.18606 5.88099e-19)
(0.143812 0.126766 1.36184e-20)
(0.149711 0.090288 0)
(1.16995 0.533176 0)
(0.109964 0.108314 6.13131e-20)
(0.0889342 0.0686726 -6.36335e-20)
(0.920572 -0.00704543 0)
(1.00027 5.26733e-05 0)
(0.999907 0.000320975 0)
(1.0037 -0.0072795 0)
(1.00088 -0.000949247 0)
(1.00011 -5.20386e-06 0)
(0.0780928 1.83477 -7.68096e-19)
(0.033552 0.849214 0)
(0.128743 0.761053 0)
(0.0184377 0.788775 0)
(0.0538733 0.587451 0)
(0.00590659 2.03636 0)
(-0.00705579 0.686525 0)
(0.012771 0.399871 0)
(-0.012234 0.680513 0)
(0.0120623 0.351764 0)
(0.843819 -0.0156314 0)
(0.84238 0.0250127 0)
(0.756789 0.00538387 0)
(0.800254 0.0268777 0)
(0.701535 0.0191884 0)
(0.0137968 3.00031 9.41381e-19)
(0.0109351 3.00668 0)
(0.00585445 3.00351 0)
(0.0118353 2.99746 1.06819e-23)
(0.00802461 2.95885 -1.39912e-18)
(0.0122059 2.98282 0)
(0.00921983 2.90495 0)
(0.0210089 2.93151 2.1582e-24)
(0.00380145 2.82441 0)
(0.0260288 2.9188 0)
(-0.000664439 2.74513 0)
(0.304138 3.56905 0)
(-0.122121 3.65162 0)
(0.148082 3.26652 -7.73828e-19)
(0.00246758 3.00543 0)
(-0.0337014 1.99149 0)
(-0.00771095 2.18007 -2.44699e-20)
(-0.00945129 1.94351 2.5435e-20)
(0.347108 0.138923 -3.39437e-19)
(0.322769 0.015659 -3.29896e-19)
(0.300845 0.156941 -1.01429e-18)
(0.261887 0.0664882 -6.59345e-19)
(0.265871 1.02666 0)
(0.334387 1.24278 -3.6978e-19)
(0.416564 1.15369 6.10209e-19)
(0.98769 0.00816938 0)
(0.943198 0.00577738 0)
(1.00028 0.000672131 0)
(1.00254 0.00906629 0)
(1.0031 0.00899768 -2.61108e-18)
(0.992135 0.00941177 1.97305e-18)
(-0.0273235 0.703931 0)
(2.3321e-05 0.343956 0)
(-0.057206 1.01437 0)
(-0.0394985 0.766077 0)
(-0.0181363 0.346849 0)
(-0.0823972 0.0676387 1.97234e-19)
(0.0326656 0.0508833 0)
(0.993627 -0.00769139 0)
(0.954056 -0.00648471 0)
(0.742684 0.027349 0)
(0.673123 0.0247908 0)
(0.660739 0.0269266 0)
(0.98081 -0.00245133 0)
(0.582859 0.0674952 0)
(0.453579 -0.0113135 1.48588e-18)
(-0.0411271 2.86004 7.19e-19)
(0.033875 2.91431 0)
(0.0428076 2.89273 0)
(0.00319408 2.70251 0)
(-0.00874027 2.98647 8.8537e-19)
(-0.0138725 2.8943 0)
(-0.0109624 2.99157 -2.72979e-18)
(-0.0115971 2.92906 9.30216e-19)
(-0.053701 1.35245 0)
(-0.0211123 1.38176 0)
(-0.0082243 2.14108 8.81104e-22)
(-0.00812215 2.09958 0)
(-0.0172859 1.9136 0)
(0.938933 -0.00518687 0)
(0.857364 -0.0111686 0)
(0.862662 0.00551847 0)
(0.949712 -0.00613436 0)
(0.883716 -0.00810042 0)
(0.495601 1.10947 -2.06092e-19)
(0.543121 1.17949 0)
(0.334565 0.844252 3.15351e-20)
(0.279609 0.709127 0)
(0.92273 1.03939 -1.63185e-19)
(1.04581 0.849684 3.29297e-19)
(0.394922 1.32147 0)
(0.545751 1.27724 0)
(0.600002 1.20339 0)
(0.104449 0.180424 -2.9694e-19)
(0.170503 0.140092 0)
(0.172026 0.107083 1.83334e-19)
(1.00875 0.90357 0)
(1.08443 0.751205 0)
(1.11416 0.686406 -2.65343e-19)
(1.15043 0.596841 0)
(1.20654 0.391612 4.75944e-20)
(0.957537 -0.0070937 0)
(0.962751 -0.00810673 0)
(0.900945 -0.00737445 0)
(0.983935 -0.00812053 0)
(0.974441 -0.00802879 0)
(0.936558 -0.0065675 0)
(1.0002 0.00250672 0)
(1.00078 0.0012391 0)
(1 0.000759916 0)
(0.0387851 2.08519 4.23309e-19)
(0.141293 1.78275 0)
(0.0174138 2.19194 6.54348e-19)
(0.052573 1.89098 -5.35252e-19)
(0.168475 1.08614 -2.93645e-19)
(0.0509221 0.935767 0)
(0.123229 0.94081 0)
(0.00662754 0.750607 0)
(0.0311736 0.513599 0)
(-0.00254816 2.26076 -3.13246e-22)
(0.022088 2.04055 0)
(-0.0043632 2.26376 -1.595e-21)
(0.00378796 2.0497 -8.72777e-21)
(-0.00185786 0.72059 0)
(-0.0056755 0.701086 0)
(0.016005 0.449385 0)
(-0.0198097 0.683488 0)
(0.0044928 0.345829 0)
(0.939625 0.0139329 0)
(0.856698 -0.0115193 0)
(0.928759 0.00491335 0)
(0.846378 -0.0127927 0)
(0.809395 0.00140031 0)
(0.898893 0.0208745 0)
(0.875037 0.0238053 0)
(0.783007 0.00123176 0)
(0.0100024 3.06791 -8.74119e-21)
(0.0156567 3.0579 0)
(0.0122796 2.97002 0)
(0.00757191 2.87681 0)
(0.892858 3.96098 0)
(1.18611 3.35776 9.34209e-19)
(0.0802223 3.08828 0)
(-0.018151 2.91679 0)
(-0.0204262 1.40953 0)
(-0.0391177 1.70308 0)
(-0.0283354 1.54013 0)
(-0.0349408 2.54568 -1.56225e-20)
(-0.0211229 2.24527 0)
(-0.0252286 2.38746 0)
(-0.000531792 1.97551 2.8876e-22)
(-0.0055988 2.25577 -3.22902e-20)
(-0.00669522 2.21861 -2.609e-20)
(-0.00567047 1.95812 0)
(0.390213 0.117189 5.20223e-19)
(0.364872 0.00867846 -5.10351e-19)
(0.233419 1.59092 0)
(0.28996 0.770919 -3.20967e-19)
(0.175689 1.69029 -1.05175e-18)
(0.246639 1.22996 1.0522e-18)
(0.901586 0.00587345 0)
(0.966979 0.0107324 0)
(0.974849 0.00988369 0)
(0.92293 0.00585604 0)
(-0.0208384 0.686687 0)
(-0.0228177 0.693298 0)
(0.00583867 0.336008 0)
(0.0786481 0.0937808 5.6172e-19)
(0.0558641 0.0683326 -6.57415e-19)
(0.0504007 0.0537688 0)
(1.10868 0.091116 2.34138e-20)
(1.09225 0.0429861 0)
(1.01961 0.0439811 0)
(0.914491 -0.00124292 0)
(0.437193 0.0976987 0)
(0.495445 0.0766029 -2.37738e-18)
(0.40063 0.00554773 8.91353e-19)
(0.0102781 2.97707 7.6603e-19)
(-0.0331277 2.86107 4.60328e-20)
(0.00827705 3.05359 -1.84684e-20)
(0.016423 3.04263 6.87429e-19)
(-0.0117373 2.9999 3.06171e-20)
(-0.0124608 2.95203 -1.23304e-22)
(-0.015091 3.01306 -5.715e-19)
(0.01534 3.02551 4.07022e-19)
(0.00806388 3.03582 -6.61563e-19)
(0.934809 0.00216562 0)
(0.939577 -0.0010899 0)
(0.848262 -0.0111972 0)
(0.956208 0.0119026 0)
(0.942258 0.0133415 0)
(0.881399 0.00548856 0)
(0.915808 0.0172654 0)
(0.925128 0.0149658 0)
(0.836516 0.00319044 0)
(0.668343 1.40763 1.85379e-20)
(0.686444 1.51808 0)
(0.117242 0.286291 6.66806e-20)
(0.213683 0.651922 5.26807e-19)
(0.239042 0.689082 -3.09258e-19)
(0.211955 0.488815 6.1411e-19)
(0.34153 0.832988 1.57247e-18)
(0.136331 0.237139 3.78169e-19)
(0.258188 0.165719 6.99465e-19)
(0.211243 0.161085 1.80859e-19)
(0.221084 0.0929372 3.43857e-19)
(1.19731 0.448635 1.01445e-19)
(1.22158 0.246941 9.90392e-20)
(0.00704017 2.24631 2.43608e-19)
(0.0404415 1.96524 0)
(0.973422 0.0332443 0)
(0.947056 0.0193682 0)
(0.871678 -0.0150091 0)
(0.0130415 3.07344 0)
(0.0166875 2.94397 1.21851e-18)
(0.0137891 2.95662 0)
(0.00562813 2.85022 -1.2091e-18)
(0.00995533 3.08957 2.97384e-19)
(0.0110781 3.08405 0)
(0.705518 1.8134 -1.70277e-19)
(1.23029 2.61769 5.75783e-19)
(0.690252 1.99138 -1.39059e-18)
(0.0217797 2.97595 -6.6345e-19)
(0.03984 2.99737 0)
(-0.03872 2.87798 0)
(-0.00559597 2.24146 -1.1867e-20)
(-0.00523813 2.26132 6.18294e-20)
(0.000347002 2.01062 -7.24098e-21)
(0.26868 1.4035 1.01965e-18)
(0.288973 0.575481 -7.00093e-19)
(0.0681117 2.00541 7.39077e-19)
(0.121228 1.87197 -8.93894e-19)
(0.211117 1.5412 1.03602e-19)
(0.00614104 3.1203 -1.64995e-18)
(0.0133556 3.12068 1.81746e-18)
(-0.00524911 2.98049 8.27004e-19)
(-0.00146506 2.97495 -7.91191e-19)
(-0.0175869 2.87701 -8.42339e-19)
(0.011757 3.10075 -2.20738e-18)
(0.00557995 3.10545 2.24076e-18)
(0.268902 0.698132 0)
(0.219423 0.657596 -1.12573e-18)
(0.0748685 0.210382 4.95509e-19)
(0.347589 0.953993 1.11784e-18)
(0.201131 0.282374 -1.72158e-18)
(1.19995 0.176903 4.53013e-20)
(1.21834 0.306507 0)
(1.1954 0.121874 1.22673e-20)
(0.000189713 2.2693 -1.11344e-21)
(0.00407706 2.25593 0)
(0.033216 2.00173 0)
(0.313461 1.31808 -3.66436e-19)
(0.354534 1.1806 -7.954e-19)
(0.234637 0.394327 1.42349e-18)
(1.00644 -0.00967865 0)
(1.00774 -0.00778075 4.79877e-19)
(-0.0474646 1.33512 0)
(-0.0569083 1.34176 0)
(1.00244 0.00326841 1.33525e-21)
(1.0032 0.0078139 9.8522e-19)
(-0.0261648 2.53276 1.97978e-20)
(-0.0288417 2.57515 0)
(0.0399277 3.1721 4.66726e-19)
(0.372149 3.53673 0)
(1.16029 0.69589 -4.73344e-20)
(1.01176 0.0106258 -2.85534e-21)
(1.02089 -0.00898387 0)
(1.00157 0.000291268 1.57898e-22)
(0.117631 1.37645 0)
(0.149272 2.58768 0)
(0.033965 1.32483 0)
(1.53228e-05 2.6332 -1.21664e-20)
(-0.0217387 2.57954 -1.4946e-20)
(0.998702 0.0313332 2.91079e-21)
(1.06309 0.00594588 0)
(1.1002 0.0285241 0)
(-0.0373819 1.75043 0)
(-0.0206402 2.57788 0)
(-0.0146094 1.33022 0)
(0.30917 1.4932 -1.76134e-19)
(1.01152 -0.00904942 0)
(1.00971 -0.0129831 0)
(1.00227 0.000932566 6.14454e-19)
(1.00547 -0.00490892 -7.245e-19)
(1.00113 -0.000861802 0)
(-0.026491 1.47581 0)
(-0.0148911 1.39963 0)
(-0.0218895 1.43816 0)
(-0.0179698 1.31567 0)
(-0.0342995 1.30543 0)
(-0.0265259 1.28677 0)
(1.03571 -0.00428437 0)
(1.01904 0.0156709 -9.31239e-22)
(0.814089 1.31496 2.86377e-19)
(1.00245 0.000391965 -6.14278e-19)
(1.00339 0.00444319 7.33188e-19)
(1.00126 0.00208981 0)
(1.01104 0.00962976 6.11773e-19)
(1.00682 0.00744115 -7.44668e-19)
(1.0071 0.0111075 0)
(-0.0255787 2.60471 0)
(-0.028929 2.58351 -3.51181e-20)
(-0.0256867 2.59774 2.47698e-20)
(1.24304 0.274443 5.09256e-19)
(1.16389 0.0894184 0)
(0.0434889 3.09144 -9.37842e-19)
(0.0519994 2.87407 -6.65185e-20)
(0.102791 3.20173 1.25376e-18)
(0.121098 3.21362 -2.63971e-19)
(0.140008 3.25557 0)
(0.0225049 3.13767 2.57513e-19)
(0.0607447 3.16195 9.34196e-19)
(0.0611491 3.17868 -4.81797e-19)
(0.0268187 3.12947 0)
(0.53865 0.291016 0)
(0.480737 0.302349 0)
(1.14294 0.72775 1.03074e-19)
(1.10721 0.86335 -8.25743e-20)
(1.2002 0.612978 0)
(1.22668 0.54675 0)
(1.01568 0.0120359 -1.13635e-18)
(1.01463 0.0127689 1.42873e-18)
(1.02578 -0.00871423 0)
(1.02411 -0.0102814 0)
(1.00681 0.00328374 0)
(1.01088 0.00422322 0)
(1.00419 0.00221988 0)
(1.00932 0.00633793 0)
(1.00682 0.00503742 0)
(1.00436 0.00525342 0)
(0.10795 1.37701 0)
(0.0967491 1.33465 0)
(0.142615 1.42326 0)
(0.147024 1.40612 0)
(0.151306 2.60944 0)
(0.189036 2.67566 -4.0338e-19)
(0.093362 2.65795 0)
(0.0842584 2.65398 1.73882e-19)
(0.0248128 2.67677 -1.52875e-19)
(0.0204804 1.33486 0)
(0.0315142 1.25217 0)
(0.0233161 1.34935 0)
(0.0487186 1.27179 0)
(-0.00202037 1.99331 4.39967e-20)
(-0.0215596 2.60794 -4.5649e-20)
(-0.00614352 2.67592 -4.01747e-20)
(-0.0186592 2.68755 0)
(-0.0243387 2.61388 4.44783e-20)
(-0.0231286 2.60945 4.75645e-20)
(0.00458411 1.98937 -3.40075e-20)
(-0.0105996 2.39814 6.12407e-20)
(-0.0148473 2.42371 4.55396e-20)
(1.01155 0.0402412 1.15155e-18)
(1.00444 0.0215489 -1.43445e-18)
(1.00346 0.0476799 -1.17715e-18)
(0.975622 0.0375084 1.4834e-18)
(1.06475 0.00929987 0)
(1.04995 -0.00641133 0)
(1.09274 0.037924 0)
(1.07592 0.0151372 0)
(1.0747 0.000534662 0)
(1.14142 0.0799038 0)
(1.11588 0.0465386 0)
(1.11934 0.0374834 0)
(-0.0318694 2.42992 4.205e-21)
(-0.0233357 2.02563 0)
(-0.0237548 2.22044 0)
(-0.0227051 2.59871 -2.24333e-20)
(-0.0192836 2.60989 7.32409e-22)
(-0.0042024 1.59779 -6.22516e-20)
(-0.0151295 1.51991 6.36215e-20)
(-0.0250703 1.41164 0)
(-0.0298143 1.41786 0)
(-0.0360784 1.40768 0)
(-0.00852126 1.33233 0)
(0.0079766 1.24675 0)
(0.386786 1.51796 2.95241e-19)
(0.435606 1.52211 1.55906e-19)
(0.591123 2.46178 -2.46119e-19)
(0.384509 2.55845 6.89284e-19)
(0.349122 2.04739 6.93856e-20)
(1.02072 -0.00798746 0)
(1.0158 -0.00934631 0)
(1.01486 -0.0132041 0)
(1.00775 -0.000546564 0)
(1.00484 -0.000690003 0)
(1.008 -0.00446487 0)
(1.00954 -0.0034288 0)
(1.01465 -0.00426618 0)
(1.01977 0.0164592 1.11478e-18)
(1.01715 0.0150845 -1.41647e-18)
(1.02011 0.0189499 -1.12338e-18)
(1.01751 0.0172792 1.4083e-18)
(0.770343 1.3616 0)
(0.70896 1.39758 2.5094e-19)
(0.878394 1.24283 1.06897e-19)
(0.914776 1.20228 -1.41872e-19)
(1.16171 2.60704 2.64261e-19)
(0.748338 0.131133 5.8055e-19)
(1.17222 0.108423 0)
(1.215 0.202903 -4.13559e-19)
(1.19658 0.154464 -1.72138e-20)
(1.0124 0.1666 0)
(0.0751887 3.01828 3.31773e-19)
(0.0813539 2.90318 -1.10054e-18)
(0.0227891 2.36137 6.97368e-19)
(0.160069 -0.273182 -3.0438e-19)
(0.340299 3.44103 -2.55942e-19)
(0.19165 3.33741 0)
(0.222194 3.39267 3.33395e-19)
(0.219798 3.07552 -1.16578e-18)
(0.252416 3.19355 0)
(0.00646169 3.1224 4.88236e-20)
(0.0169049 3.13114 -5.63274e-19)
(0.015919 3.12691 8.29037e-19)
(0.0329423 3.14006 0)
(0.0309522 3.14956 0)
(1.25363 2.56981 0)
(0.542296 0.789228 -5.16718e-19)
(1.02765 1.03754 -1.81011e-20)
(0.994404 1.09044 0)
(0.863262 0.972674 -1.03265e-19)
(1.08686 0.913096 2.66327e-20)
(0.288932 0.309518 -7.58688e-19)
(0.630507 0.327612 -2.35e-20)
(0.51491 0.217312 3.89047e-19)
(0.517794 0.31455 2.77204e-20)
(0.382047 0.264697 -1.10639e-18)
(0.584161 0.325325 0)
(0.680165 0.439535 6.70868e-19)
(0.69339 0.453309 0)
(0.545652 0.319743 0)
(0.443389 0.245906 0)
(0.799308 0.659229 3.92749e-19)
(1.25469 0.308546 -4.13579e-19)
(1.248 0.441057 0)
(1.2481 0.396048 0)
(0.682575 0.187551 5.90983e-19)
(0.847242 0.561261 -3.66042e-19)
(0.76877 0.521505 6.53464e-19)
(0.965319 0.456602 -6.53439e-19)
(1.01852 0.0147801 7.59487e-19)
(1.01707 0.0136882 -7.64449e-19)
(1.01583 0.0142793 0)
(1.0371 -0.00450356 0)
(1.03049 -0.00768438 -7.15636e-19)
(1.0287 -0.0105679 7.08196e-19)
(1.02475 0.011027 0)
(1.02273 0.0151239 0)
(1.01271 0.0047642 0)
(1.01459 0.00909942 0)
(1.01645 0.00427566 0)
(1.01558 0.00295259 0)
(0.0781918 1.36349 0)
(0.0816737 1.30377 0)
(0.15843 1.42565 6.22029e-20)
(0.276976 1.48961 8.62977e-20)
(0.176024 1.46179 1.94625e-19)
(0.213286 1.45859 -3.14441e-19)
(0.16609 1.43775 0)
(0.146486 1.58501 -8.37455e-20)
(0.143825 1.58263 0)
(0.342972 2.00006 -1.01029e-19)
(0.328341 2.32757 6.14952e-19)
(0.198373 1.46769 7.29797e-20)
(0.276243 1.40438 2.80095e-20)
(0.207212 1.40399 -2.28396e-20)
(0.290904 1.34293 -7.90281e-20)
(0.261839 1.5774 0)
(0.268576 1.62437 8.95063e-20)
(0.0193432 2.24277 -1.40599e-20)
(0.0379753 2.66906 0)
(0.0566581 2.3947 1.02784e-19)
(0.0478618 2.41945 0)
(0.0638018 2.67657 -2.08614e-19)
(0.0427294 2.70318 0)
(0.026905 1.46518 6.38651e-20)
(0.0306479 1.5215 0)
(0.0348129 1.42416 0)
(0.0266604 1.43358 -7.31764e-20)
(0.00411656 2.66065 4.82839e-21)
(0.0283544 2.68977 1.76473e-19)
(0.0119818 2.73359 8.87661e-22)
(0.00424154 1.84763 -2.89376e-20)
(-0.00384804 1.6997 -1.96313e-20)
(0.0179448 1.31558 0)
(0.0268193 1.22801 0)
(0.0413359 1.59381 -3.63393e-21)
(0.0430918 1.47334 -5.66606e-20)
(0.0251963 1.55727 5.79209e-20)
(0.055694 1.61641 0)
(-0.0325227 2.27025 1.34903e-19)
(-0.0359108 2.54693 -5.71114e-20)
(-0.0217618 2.4478 1.04664e-20)
(-0.00412871 1.86359 3.50762e-20)
(-0.0292356 2.50266 1.49476e-20)
(-0.0230508 2.44472 -3.88382e-20)
(1.01813 0.0225912 -7.63961e-19)
(1.01509 0.0289186 7.67423e-19)
(1.01189 0.0182334 0)
(1.0099 0.0712886 1.06607e-18)
(0.99036 0.0615128 -1.20556e-18)
(0.948954 0.0561289 1.34998e-18)
(1.01275 0.115794 -1.42941e-19)
(1.04403 -0.0046419 0)
(1.05225 -0.000378905 6.85291e-19)
(1.04033 -0.00815218 -6.84988e-19)
(1.07236 0.0439401 -4.06074e-20)
(1.06502 0.0291384 3.50893e-19)
(1.06417 0.0659327 0)
(1.05444 0.0551434 -1.2644e-19)
(1.03208 0.0439042 0)
(1.02618 0.0388016 0)
(1.02764 0.0136854 0)
(1.02402 0.0163906 0)
(1.04072 0.0339788 2.59896e-19)
(1.03936 0.0285399 -5.75349e-19)
(1.05304 0.0388232 -2.7479e-19)
(1.0482 0.0387501 -3.03358e-19)
(1.07786 0.0707325 5.79754e-19)
(1.10183 0.0567893 0)
(1.1086 0.0956468 0)
(-0.0302159 2.27639 7.79059e-20)
(-0.0331425 2.03064 4.44549e-21)
(-0.0281974 2.04082 0)
(-0.0315471 2.44338 -7.7554e-20)
(-0.0296436 2.40219 -8.47697e-21)
(-0.0359493 2.46969 1.03071e-20)
(-0.0224296 2.62137 -4.0542e-20)
(-0.0281316 2.56344 2.31063e-21)
(-0.0265708 2.51749 -1.366e-20)
(-0.0182533 2.6139 2.58181e-20)
(-0.022222 2.61645 -3.00262e-20)
(-0.0131429 1.52485 -1.12386e-21)
(-0.00771857 1.64454 -6.44341e-20)
(0.378146 1.45392 -1.26911e-19)
(0.373545 1.38446 1.13379e-20)
(0.650216 1.44531 -2.42812e-19)
(0.525442 1.51498 -1.51406e-19)
(0.579497 1.47397 0)
(0.607257 2.41805 2.16377e-19)
(0.666311 2.42802 3.36501e-19)
(0.42186 2.51354 9.1003e-20)
(0.40309 2.53373 -6.2044e-19)
(0.499831 2.47309 5.61619e-19)
(0.553315 2.47193 0)
(0.485834 2.52301 -5.44656e-19)
(0.260636 2.58558 1.10601e-18)
(0.360119 2.56445 -6.01836e-20)
(0.277157 2.64929 -1.55015e-18)
(0.970589 2.38536 7.07855e-19)
(0.848078 2.38606 0)
(1.01142 0.00139977 2.4913e-20)
(1.01537 -0.00515371 -2.03551e-20)
(1.01779 -0.00388575 -3.72056e-19)
(1.01564 -0.00101441 3.70772e-19)
(1.01313 0.00185405 0)
(0.638385 1.30662 0)
(0.68316 1.19189 0)
(0.798503 1.12236 0)
(0.670667 1.14874 0)
(1.19285 2.62252 5.16241e-20)
(1.08516 2.37372 0)
(0.815562 2.16356 3.50647e-21)
(0.820508 2.42629 0)
(0.915364 2.51697 -4.30169e-19)
(0.946638 2.46637 2.87207e-19)
(0.782427 0.167994 0)
(0.725702 0.147166 1.56811e-19)
(0.902337 0.160588 9.17994e-19)
(0.815385 0.142309 -3.4381e-19)
(0.756854 0.0914122 -1.05933e-18)
(1.08818 0.247703 -8.31322e-19)
(0.986315 0.318267 -1.01928e-20)
(0.928476 0.353367 8.04492e-19)
(1.01285 0.262039 6.85984e-19)
(0.930511 0.208223 -1.20831e-18)
(0.888885 0.22213 1.51279e-19)
(0.929089 0.317921 -3.15298e-19)
(0.904564 0.225298 0)
(1.00016 0.209735 5.9108e-19)
(1.05424 0.219396 0)
(1.05223 0.229752 0)
(1.12596 0.125567 2.64559e-19)
(1.06494 0.195924 -1.06379e-20)
(1.0796 0.249759 -1.51694e-19)
(1.11297 0.212884 0)
(1.02219 0.0484737 5.87557e-19)
(1.03683 0.0627331 7.32974e-19)
(1.03257 0.0461317 -5.83592e-19)
(1.04138 0.0694216 -4.91487e-19)
(1.01504 0.0763722 -7.52775e-19)
(0.985421 0.16978 0)
(0.988178 0.108179 0)
(0.962419 0.0746226 -4.8062e-19)
(0.897555 0.0998992 1.92393e-19)
(1.03888 0.116927 6.79675e-19)
(1.07625 0.137777 -7.74808e-19)
(1.07041 0.182064 6.96868e-19)
(1.03552 0.157917 0)
(1.08641 0.123796 0)
(1.05681 0.113288 -3.18227e-19)
(1.04256 0.109545 -5.52205e-19)
(0.587614 1.07943 1.16781e-19)
(0.608169 1.39704 -1.82553e-20)
(1.14319 2.71453 -2.44264e-19)
(1.19532 3.09884 2.45848e-21)
(1.25054 2.72307 -1.15848e-19)
(1.28951 2.69318 1.71694e-20)
(1.26413 2.31574 -3.84015e-20)
(1.18278 3.00396 -7.18652e-20)
(1.20261 2.96088 2.20415e-19)
(1.17667 3.25167 -1.22278e-19)
(1.39375 2.96474 1.53429e-19)
(1.40492 2.89917 0)
(0.579163 0.814387 -4.75254e-20)
(0.197371 1.21137 4.62047e-19)
(0.529754 0.322733 4.92801e-19)
(0.412903 0.0888809 5.60687e-19)
(0.447532 0.292138 6.26368e-19)
(0.545921 0.416052 -1.01819e-18)
(0.557415 0.397246 8.35261e-19)
(0.450591 0.293941 -3.0686e-19)
(0.273675 0.230337 7.06994e-19)
(0.715211 0.25962 -3.40653e-19)
(0.660452 0.290563 0)
(0.593701 0.195653 7.95529e-21)
(0.729723 0.516778 3.54573e-19)
(0.702185 0.492243 -1.28537e-18)
(0.634117 0.439185 1.22418e-20)
(0.613613 0.418906 0)
(0.723046 0.720647 3.66371e-19)
(0.839231 0.802901 4.02609e-19)
(0.77799 0.853624 -4.69299e-19)
(0.907967 0.82471 -1.48231e-19)
(0.943194 0.867839 -3.40821e-20)
(0.950664 0.875393 3.49518e-20)
(0.883308 0.682511 -6.55437e-19)
(0.957002 0.728657 1.37811e-19)
(1.01317 0.732366 0)
(1.01174 0.707728 -1.75789e-19)
(1.03036 0.343291 2.07155e-19)
(1.15948 0.343152 2.49449e-19)
(1.07457 0.285601 3.39832e-19)
(1.0003 0.390405 -4.14971e-19)
(1.0582 0.49141 0)
(1.13994 0.431926 0)
(0.899573 0.427996 -2.48362e-23)
(0.845903 0.323039 0)
(0.892943 0.313366 3.84528e-19)
(0.91469 0.351769 2.99623e-21)
(0.988144 0.502812 1.8241e-18)
(0.921266 0.561621 4.70351e-19)
(0.944176 0.519826 -4.97068e-19)
(0.860944 0.495487 5.2949e-19)
(0.826203 0.470646 3.38695e-19)
(0.803949 0.450845 -3.31754e-19)
(1.0282 -0.000371917 6.14683e-19)
(1.0205 0.000612876 0)
(1.01912 0.00142544 4.01189e-19)
(1.02271 -0.000686287 -9.08124e-19)
(1.02259 0.00462515 4.42387e-19)
(1.02004 0.011683 -9.26021e-19)
(1.02079 0.0115189 0)
(1.01969 0.0123044 -1.92857e-19)
(1.0166 0.00784656 4.83263e-19)
(1.01669 0.0109709 -2.4305e-19)
(1.01731 0.0106772 1.78025e-19)
(0.037277 1.33777 0)
(0.0446292 1.40075 0)
(0.0562591 1.34101 0)
(0.0626393 1.27692 0)
(0.0862143 1.40685 -7.04248e-20)
(0.0928958 1.37836 1.45333e-20)
(0.0872793 1.57478 3.36446e-21)
(0.102557 1.41351 -4.50371e-20)
(0.0455651 1.4874 4.86645e-20)
(0.0505382 1.4822 -3.83116e-20)
(0.0769276 1.40225 -2.39288e-20)
(0.0660259 1.40409 7.3747e-20)
(0.0622426 1.38457 1.20756e-20)
(0.0478511 1.40344 8.176e-21)
(0.100976 2.35576 -1.13466e-19)
(0.0882148 2.40608 0)
(0.158141 2.01122 1.01189e-19)
(0.135688 1.70257 3.65102e-20)
(0.219462 2.01163 -7.73582e-20)
(0.202854 2.42605 0)
(0.211043 2.39651 -6.35317e-19)
(0.320842 2.36395 4.43719e-19)
(0.247776 1.98116 -2.2068e-19)
(0.141608 2.14125 1.47744e-19)
(0.119338 2.24394 0)
(0.0135574 1.84668 -3.95303e-20)
(-0.00574046 2.36578 1.56769e-21)
(0.00354774 2.12291 0)
(0.00436687 2.4292 -1.73722e-20)
(0.0197601 2.26099 3.04557e-20)
(0.0131722 1.44223 -1.31037e-20)
(0.0104972 1.42253 2.19307e-19)
(0.00847836 1.43329 -7.09551e-20)
(0.0222485 1.44272 -6.24436e-20)
(0.0240335 1.4687 0)
(0.00534451 1.41805 0)
(0.00193488 1.31644 -9.1078e-20)
(-0.000845111 1.4101 2.67821e-20)
(0.00682028 1.40808 0)
(0.011768 1.30757 -6.90697e-20)
(0.0217089 1.21618 1.38599e-19)
(1.0425 0.0150785 0)
(1.04899 0.0105703 -6.40864e-20)
(1.03919 0.0245767 -4.63471e-19)
(1.04956 0.023468 0)
(1.0547 0.0227295 0)
(1.03638 0.0131033 -6.76975e-21)
(1.03016 0.013516 7.47296e-19)
(1.03197 0.0175295 9.05649e-19)
(1.02562 0.0211869 0)
(1.02226 0.0218107 0)
(1.0357 0.025948 4.62546e-19)
(1.02605 0.0283256 0)
(1.02359 0.028305 0)
(-0.0209948 2.03134 0)
(-0.011786 1.67158 -2.4414e-21)
(-0.00964199 1.77381 -3.57164e-20)
(-0.00825043 1.41526 0)
(-0.00895922 1.5778 -3.796e-20)
(-0.0181109 1.4915 2.29143e-20)
(-0.0169131 1.43225 0)
(0.402533 1.61897 0)
(0.367553 1.32254 -1.84864e-20)
(0.275245 1.34602 0)
(0.437487 1.3205 -5.01311e-20)
(0.473395 1.47974 0)
(0.459006 1.42159 4.63157e-20)
(1.03989 2.66591 -1.50258e-20)
(0.984882 2.40424 -8.89078e-19)
(0.947146 2.20534 9.93472e-19)
(0.864739 2.37807 2.40852e-19)
(0.852096 2.48238 0)
(0.921116 2.47721 0)
(0.954371 2.37813 0)
(0.930211 2.36912 -9.32608e-19)
(0.690208 2.44629 -3.73591e-19)
(0.799612 2.43007 -9.66347e-20)
(0.806788 2.40827 7.28242e-20)
(0.703497 2.39921 0)
(0.808909 2.39259 0)
(0.769379 2.40932 -3.65173e-19)
(0.764948 2.46082 0)
(0.63385 1.06972 0)
(0.514101 0.852542 -5.56729e-19)
(0.522948 0.929812 -3.24561e-20)
(0.501031 1.06624 0)
(0.488424 0.972893 8.5037e-19)
(0.805619 0.889164 -1.3e-19)
(0.809122 1.02377 0)
(0.790606 1.00729 1.77144e-19)
(0.679039 1.02264 0)
(0.670414 0.927173 0)
(1.1617 2.75098 -2.14678e-19)
(1.13691 2.80954 -8.58659e-20)
(0.921066 2.33221 6.9216e-20)
(0.897965 2.31292 -7.40468e-20)
(1.13137 2.72846 0)
(1.08355 2.69623 8.89086e-20)
(1.09867 2.49042 -2.91617e-19)
(1.00022 2.24998 -2.78989e-20)
(0.495493 1.32498 0)
(0.515855 1.07462 -1.02844e-19)
(0.596505 1.18507 0)
(0.845063 0.232024 0)
(0.753463 0.178211 0)
(0.658817 0.141122 0)
(0.853752 0.231969 -6.0646e-19)
(0.738909 0.227632 3.56347e-19)
(0.914098 0.0869805 -3.97947e-19)
(0.926611 0.13844 0)
(0.900318 0.146677 1.71944e-19)
(0.838854 0.111079 6.87832e-19)
(0.797857 0.0771992 -4.31593e-19)
(1.09274 3.34198 -6.70034e-19)
(1.1614 3.266 0)
(1.1107 3.42651 -1.56847e-18)
(0.653509 3.5731 1.30501e-18)
(1.02069 3.07352 1.2212e-19)
(0.534109 0.772259 5.64175e-19)
(0.511401 0.738679 0)
(0.341883 0.320912 -1.41173e-19)
(0.496315 0.629672 8.41127e-19)
(0.569285 0.321738 -1.81225e-19)
(0.524608 0.454327 2.18104e-19)
(0.688392 0.530266 4.50349e-19)
(0.731837 0.567831 0)
(0.671737 0.565307 0)
(0.660773 0.539219 0)
(1.01944 0.616339 8.53837e-20)
(0.972578 0.599108 -4.55486e-19)
(0.982999 0.610794 3.46887e-19)
(1.04697 0.554581 -3.35559e-19)
(1.09258 0.522833 0)
(1.09507 0.604605 -8.77885e-20)
(0.885911 0.425248 -7.55428e-19)
(0.872569 0.408917 -9.76984e-19)
(0.800041 0.419882 5.96146e-19)
(0.811664 0.378985 -6.22355e-19)
(0.853118 0.334436 -4.89616e-19)
(0.796141 0.339619 5.99436e-19)
(1.0266 0.0067462 -4.6288e-19)
(1.02623 0.00686908 9.32796e-19)
(1.02999 0.000968752 5.95598e-19)
(1.0342 0.00160728 -7.15159e-19)
(1.03401 0.0119558 0)
(1.02978 0.0120723 -1.17003e-18)
(0.0839129 1.64446 9.39289e-21)
(0.0726757 1.60587 0)
(0.104381 1.69869 5.44644e-20)
(0.115201 1.6766 -4.7632e-20)
(0.0719997 1.57196 -6.05217e-21)
(0.0689648 1.5742 0)
(0.00866535 1.70674 0)
(-0.00655059 1.52788 2.02781e-20)
(-0.00552131 1.47156 -1.82206e-20)
(-0.0126595 1.57543 3.34666e-21)
(-0.00201142 1.89668 3.04084e-20)
(-0.0138901 1.951 -1.20876e-20)
(0.493233 1.35785 -2.54628e-19)
(0.496077 1.35215 2.78634e-19)
(0.451807 1.31247 -5.52747e-21)
(0.428331 1.29018 7.24853e-21)
(0.631454 1.31359 0)
(0.557302 1.40826 1.21981e-19)
(0.558274 1.41104 -1.18794e-19)
(0.488004 1.30145 5.3348e-21)
(0.528448 1.25317 0)
(0.592822 1.21878 0)
(0.66411 2.4097 5.50125e-19)
(0.659848 2.44004 1.26203e-18)
(0.715216 2.4551 -8.68296e-19)
(0.61437 2.42686 -1.98511e-19)
(0.555441 2.51978 2.71631e-19)
(0.495976 2.48593 -7.01107e-19)
(0.991982 2.38306 -5.59812e-19)
(1.02315 2.40056 0)
(0.950079 2.18861 -6.11077e-19)
(1.05458 2.67724 0)
(1.05341 2.65802 0)
(0.596155 2.28341 3.61657e-21)
(1.1155 3.06586 7.33348e-20)
(0.991592 2.96155 -1.20008e-19)
(0.313918 0.777581 0)
(0.309744 0.648563 -3.01297e-19)
(0.521126 0.587581 -3.03575e-19)
(0.35787 2.1245 0)
(0.40012 2.74374 -8.59853e-20)
(0.409158 2.4775 0)
(0.730805 0.688764 -7.79902e-19)
(0.798268 0.698165 1.08903e-18)
(0.800096 0.662309 -1.07139e-18)
(0.702913 0.646727 -9.88557e-20)
(0.758093 0.607417 -4.11771e-19)
(0.966303 2.74839 -5.55378e-20)
(1.0119 2.7568 -2.07231e-19)
(0.546171 2.19734 4.43437e-19)
(0.600073 1.72999 -3.50254e-19)
(0.699141 1.84858 -4.91404e-19)
(0.973962 2.38943 -1.38022e-19)
(0.974537 2.34264 3.62963e-19)
(0.64051 1.75557 3.3277e-20)
(0.447363 1.29058 1.72691e-19)
)
;

boundaryField
{
    wall-4
    {
        type            noSlip;
    }
    velocity-inlet-5
    {
        type            fixedValue;
        value           uniform (1 0 0);
    }
    velocity-inlet-6
    {
        type            fixedValue;
        value           uniform (0 3 0);
    }
    pressure-outlet-7
    {
        type            zeroGradient;
    }
    wall-8
    {
        type            noSlip;
    }
    frontAndBackPlanes
    {
        type            empty;
    }
}


// ************************************************************************* //
