/*--------------------------------*- C++ -*----------------------------------*\
  =========                 |
  \\      /  F ield         | OpenFOAM: The Open Source CFD Toolbox
   \\    /   O peration     | Website:  https://openfoam.org
    \\  /    A nd           | Version:  6
     \\/     M anipulation  |
\*---------------------------------------------------------------------------*/
FoamFile
{
    version     2.0;
    format      ascii;
    class       surfaceScalarField;
    location    "66";
    object      phi;
}
// * * * * * * * * * * * * * * * * * * * * * * * * * * * * * * * * * * * * * //

dimensions      [0 3 -1 0 0 0 0];

internalField   nonuniform List<scalar> 
1300
(
3.75095
5.62643
-3.33792
3.75095
-7.75711
5.62643
-4.26567
4.26567
-0.434912
0.434912
1.87649
1.87447
-2.42219
2.42219
-1.83414
1.83414
-2.52684
2.52684
-5.24803
5.24803
-5.07006
5.07006
4.70267
-4.70267
-6.3299
6.3299
-0.968282
0.968282
-3.56974
3.56974
3.17253
-3.17253
-1.92837
1.92837
0.00983114
-0.00983114
-0.554085
4.30504
3.19687
3.19687
-1.98012
1.98012
-4.87408
4.87408
6.22255
-6.22255
5.25699
-5.25699
-1.91907
-2.4889
1.80117
-11.5051
-5.95594
-5.95594
-8.44099
8.44099
-2.81456
2.81187
2.94711
-2.94711
-1.72722
1.72722
-4.2808
0.0151268
-4.2808
4.23725
0.0284213
4.23725
-0.523294
0.0883821
-0.523294
3.93691
-3.93691
0.346263
0.0886486
0.346263
3.06725
-3.06725
-1.87686
3.75334
1.8741
-1.87209
6.17713
-1.87886
3.75333
-6.07431
6.07431
-2.67023
0.248041
-2.67023
2.20395
0.218242
2.20395
-6.88622
6.88622
-1.89022
0.0560858
-1.89022
1.85131
-0.0171703
1.85131
2.88763
-2.88763
-2.62666
0.0998279
-2.62666
2.39741
0.12943
2.39741
0.353381
5.27305
-5.97981
8.79168
-5.27305
0.0250196
5.2102
0.0378246
5.2102
-5.1053
0.0352374
-5.1053
5.01239
0.0576703
5.01239
4.79241
-0.0897357
4.79241
-4.82153
0.118864
-4.82153
-3.36016
-4.0785
-6.48993
0.160038
-6.48993
-1.03372
0.0654392
-1.03372
0.859965
0.108317
0.859965
-3.72498
3.72498
-3.92615
0.356402
-3.92615
3.1275
0.0450257
3.1275
1.86812
1.88283
5.61908
-5.61908
2.44655
-1.8711
-0.0572636
-1.8711
-1.99601
-3.26098
1.99601
-0.0676399
-0.2093
0.219131
-0.2093
3.15711
0.039761
3.15711
2.22481
0.1726
-2.22481
0.244689
3.29833
-3.29833
1.31316
0.66696
1.31316
-5.55847
5.55847
4.96135
0.0510417
-4.96135
0.087266
6.15734
0.0652159
6.15734
-6.20771
-0.0148435
-6.20771
2.48594
-4.97484
-2.6435
6.14298
0.186918
-6.14298
0.187037
2.91862
0.0284857
2.91862
-2.91976
2.91976
-2.98413
0.0370196
-2.98413
-2.15009
0.422865
-2.15009
1.41251
0.31471
1.41251
-4.19399
-0.0868051
-4.19399
-4.08455
0.158405
4.08455
0.152701
1.11569
-1.11569
-0.618374
0.0950807
-0.618374
-4.04112
-0.152877
4.04112
-0.104207
-3.87916
-0.0577497
-3.87916
-3.02184
0.0377124
3.02184
0.0454108
3.11209
0.0450206
-3.11209
0.0448336
-1.87099
3.75382
-1.87996
3.75406
-5.69369
-0.380616
-5.69369
6.35614
-0.281834
6.35614
3.09537
0.474373
-3.09537
0.425141
2.05071
0.153233
2.05071
-6.86032
-0.0259017
-6.86032
6.89082
-0.00460342
6.89082
1.95315
0.0975624
-1.95315
0.0629299
1.85482
-0.00351779
1.85482
2.9151
-0.0274673
2.9151
-2.88152
-0.00610643
-2.88152
2.79288
-2.79288
2.71795
0.0749289
-2.71795
0.0912859
-11.1241
11.1092
-0.0362502
-11.0878
5.17395
5.17395
4.24639
0.546012
4.24639
-5.01622
0.19469
-5.01622
2.66246
-5.30596
3.09743
-6.45759
4.68078
-16.1858
4.29769
-8.37619
6.73973
-6.73973
6.62153
0.118201
-6.62153
0.131595
-1.13727
0.10355
-1.13727
-3.12322
-0.601752
-3.12322
4.36246
-0.637485
4.36246
-3.02774
3.02774
-3.07645
0.048713
3.07645
0.0510489
1.85554
-0.000719337
-1.85554
-0.0155584
0.2613
0.0849633
-0.2613
0.0519998
3.51917
-0.220837
3.51917
-3.09502
-0.203308
-3.09502
-1.22834
0.0910734
1.22834
0.0848116
-5.80753
0.249066
-5.80753
-11.1817
0.0939223
-11.1439
-6.11379
-6.11379
2.3272
11.1189
-2.89693
0.0154066
2.89693
0.0216943
2.97533
0.0524086
-2.97533
0.0555709
-2.85951
0.066637
2.85951
0.0602441
-2.51832
0.368232
-2.51832
-1.0265
1.0265
-1.17508
0.148578
1.17508
0.237433
1.41479
-0.299102
1.41479
0.743678
0.116287
-0.743678
0.125304
-3.82694
-0.0522254
-3.82694
6.59661
-0.240466
6.59661
-2.96624
-0.128781
2.96624
-0.0511445
-0.0348534
11.1441
-5.1391
0.0338018
5.1391
-11.2093
11.2431
-3.22425
0.705928
3.22425
1.02215
5.2844
0.274067
-5.2844
0.268179
6.8307
0.0601278
-6.8307
0.0909661
-2.63288
-0.490344
-2.63288
-5.0936
-0.600085
5.0936
-0.731144
-11.482
-0.203834
11.6858
-11.4243
6.01137
0.145968
-6.01137
11.3891
-0.994805
-0.120886
0.994805
0.0316965
1.75404
-0.339244
1.75404
3.7342
-0.215029
-3.7342
-0.0927378
-6.75298
-0.107338
6.75298
-0.156375
-2.183
-0.449874
2.183
-0.428967
-4.26737
4.30713
1.90976
-2.33694
-2.6379
-5.59792
1.85523
1.89859
4.30178
-10.1716
-6.01419
-9.98461
7.21471
-6.94653
-9.33216
9.24243
7.91463
-7.97238
-5.77756
5.8286
6.48457
-6.43916
1.87941
1.87394
8.05535
-7.80731
-15.6775
15.2969
7.59568
-7.5396
15.8406
-15.8665
-17.887
17.9471
-5.70447
5.8043
-6.74216
6.73606
-6.97823
6.92708
-2.79674
-3.66085
13.145
-12.985
8.57351
-8.63077
-8.66117
9.01757
3.3846
0.922536
3.42962
-1.88182
3.76123
-1.87151
3.78127
2.74256
-5.5393
2.5634
-5.2013
4.35771
4.2158
-4.29007
-1.30785
-5.92847
5.95696
-5.80905
5.86929
9.16436
-9.14923
-1.88498
3.75891
-1.86908
3.76767
-3.42312
-2.35444
3.3781
0.923686
8.08451
5.06049
-8.27143
-1.71318
-8.01919
7.80416
-8.21362
8.01031
-0.437927
5.83863
-5.40071
4.43616
-1.65212
7.49075
5.56259
5.75728
5.86057
-5.5865
1.08596
-6.48667
-6.3994
-2.33133
2.42641
2.21699
-2.12834
6.12905
1.78558
6.02484
-5.7981
-2.17428
-5.85032
3.81993
2.00867
3.86864
4.08201
2.40256
4.11972
3.02971
-3.03663
0.00691589
-3.05921
6.08892
0.722286
-5.41364
-4.48996
4.98964
3.06571
5.20788
-5.58362
-2.22369
-5.15848
-9.56595
-6.11159
-10.166
10.0933
5.20364
9.81145
-11.9695
11.8131
4.88676
2.70892
4.86959
-4.94684
-2.59276
-4.88391
11.6796
-2.64186
-9.0377
-10.3416
-7.54543
10.3462
5.49447
10.9875
6.9596
11.0785
4.43108
7.24848
-9.92555
2.38012
-3.86674
-1.83774
-3.77545
3.65908
2.14522
3.78851
-4.21868
-2.52348
-4.20327
-4.2948
-2.68343
4.32227
2.41379
-4.41595
-3.79767
4.54473
2.38235
4.05958
-10.0738
4.31661
-7.97747
-9.21769
-3.76727
-9.0861
3.5365
2.60048
-6.13698
-2.0028
8.51196
-4.29616
7.20411
-5.20188
-3.4289
-5.21743
-6.95456
-1.70661
-6.79615
-8.93198
8.44163
-9.22533
8.58785
12.5316
-5.64295
-6.88862
-3.96698
-2.47218
3.92215
-0.49253
-3.71006
3.71697
0.0511704
3.83244
4.75498
4.26245
-3.88194
-1.92711
-3.82637
3.82079
2.04851
3.88742
6.83891
2.32545
6.86733
-6.59961
-2.54962
-6.68641
9.10771
-8.68484
2.8066
-2.71553
5.37208
2.63823
-5.15124
-2.86794
6.24264
-3.2088
-3.03384
-12.3447
10.8029
1.54176
-4.8539
-0.417742
-0.427574
-5.57248
-3.75969
5.45361
0.303663
11.1066
7.34687
-5.5147
5.76377
6.17109
6.22213
-0.177271
5.89507
-5.18914
5.27473
-2.69538
-2.57935
5.46568
-5.61855
-1.22074
-5.53365
4.31291
0.406292
1.53709
-1.31796
-1.8111
-0.520228
-1.6858
1.24408
0.972908
1.32904
0.940113
1.4863
-2.92651
0.553658
2.37285
-1.98639
-1.57468
-3.78627
-1.15036
4.93664
5.72188
2.08228
-5.62914
-0.221183
2.58189
-2.47357
-0.811801
-2.97447
2.22646
-3.03826
-3.47976
-1.92441
5.40416
-3.36869
-0.457685
3.31628
0.552365
-3.82806
-2.10041
3.79104
0.328684
-3.12869
6.19017
-3.06148
-5.0558
2.52894
3.55998
4.53761
-4.79005
2.4491
2.34095
-1.23007
4.26304
0.944848
4.41627
-7.03738
4.81369
5.72534
3.29224
-6.19971
1.04122
-5.99616
8.57894
-7.41632
-1.16262
4.13385
4.44508
7.02278
5.50879
-5.68977
12.7126
-1.17889
-6.23743
7.17504
-3.88281
4.87157
-8.75438
-10.3804
4.14294
-9.20547
11.069
-1.86356
-3.61184
-8.35761
12.8173
-1.21337
-11.6039
8.59808
-4.31176
-4.36534
8.6771
-6.95363
6.9581
-2.00054
-4.95756
-10.156
-5.71056
10.2633
1.54976
-9.92223
12.3024
-2.67375
4.16303
0.706563
4.15951
3.34548
-5.47496
2.12948
3.60814
-5.60868
2.06441
-7.53936
-6.76208
12.1034
-5.34136
-10.5294
-9.55645
-0.972904
2.55289
9.74946
-9.51249
7.44585
2.06664
3.2969
0.590526
-3.37183
-0.403627
0.232433
4.51493
-4.74736
4.02095
4.19355
3.22594
1.28899
3.84922
2.10774
-3.87091
-0.33236
-4.168
1.48457
-1.75421
-3.69377
5.17834
-4.06205
0.368273
-2.74461
-3.49194
6.23655
-4.58235
3.03642
3.15376
5.08493
-4.91333
1.4214
-2.39078
-2.52255
2.64065
-4.39486
1.99985
3.17849
4.3822
0.584532
5.90786
6.19558
-8.50835
0.530879
11.2561
-9.54289
2.48097
8.59753
-9.92682
0.370372
-8.71573
0.977221
-5.27338
-5.15976
5.21973
-6.92634
-3.53465
6.24339
0.623933
-6.3961
-0.400057
-6.06791
-2.86406
-6.51779
-3.05972
-6.16561
-8.74949
-1.67427
-7.07522
6.76737
-6.69421
-3.47183
7.42535
1.16249
-7.48228
7.36139
-7.54164
7.20239
0.0948461
3.62213
4.35729
1.88511
-2.39205
4.27717
-5.06967
7.39511
-8.73172
3.66205
4.2239
-6.77352
-4.50782
5.06181
4.0459
5.37652
8.92906
-10.3858
1.45676
-10.6594
11.9987
-1.33924
-16.4422
5.7828
-7.51317
2.43256
0.37404
2.53611
0.561472
2.49161
-3.05308
-2.15406
-2.06925
-2.44066
-3.49628
5.93694
1.07303
-3.46888
2.39585
-3.5812
4.65423
-0.064373
-3.4045
5.18395
-2.69234
5.55799
-3.64557
1.91242
3.5503
5.84516
-2.29487
4.42217
-1.78394
1.94205
-4.23692
-1.55423
-2.95187
5.09709
-3.28468
3.65295
-0.349733
4.00268
-4.05385
0.845043
-0.827907
3.36564
3.61033
4.33224
-3.04325
2.93852
-4.72246
-1.2984
-4.13793
-0.959434
-0.187771
-3.78775
3.97553
6.01109
-6.19886
-5.28562
9.53005
-4.24443
7.70716
-5.44252
-2.26464
-4.29479
-4.39005
3.92656
1.96851
9.67567
0.179548
-5.62207
-5.0096
-3.98745
3.10002
2.17471
-1.76182
3.30358
2.1894
-0.652305
0.398678
0.930363
1.76898
-1.3703
0.335599
1.43338
-0.982363
1.72774
0.854147
-1.84403
0.158227
-1.28457
3.51103
1.08828
-2.06119
0.690881
0.896595
-3.59198
5.06301
-2.71511
-2.3479
5.95961
1.14676
-3.86187
4.38689
-3.9806
2.43664
-3.58701
-1.42523
-5.40583
-3.62025
-2.49301
4.88885
-3.44393
5.52621
1.40909
-5.30503
6.71413
-3.62994
1.70553
-3.0647
3.91884
-1.02429
-2.04041
2.88459
2.51957
-3.12231
0.147839
-0.23772
2.41908
-2.6568
-0.619179
-2.60557
-4.57588
4.90457
-2.10385
4.55295
2.17332
-1.91745
6.47039
1.80782
-3.72527
-3.24797
-3.70566
-1.38432
3.15329
-0.606069
-4.27784
-5.56363
4.18028
0.235992
-7.06949
7.92706
-0.857572
-4.00378
-0.809914
4.94377
-6.0909
0.482217
-4.02649
3.90058
4.84542
5.08142
-11.3683
-0.235607
-6.16469
1.10726
-7.27195
5.55234
-3.52228
7.66522
-10.3528
6.88094
-9.19027
6.5026
-0.769349
6.25604
-4.12656
2.78166
-8.49222
-6.94246
5.52572
-2.8168
6.23229
-3.18655
9.41884
-5.8603
5.31697
4.10187
-1.03925
-4.17818
-5.29758
4.25833
0.0193884
4.1789
4.98702
-2.87929
4.65466
2.26368
-4.65446
-2.13118
-6.48753
1.83307
-3.33378
-1.92226
3.75533
3.16266
3.75319
1.23278
-3.34956
7.23364
-8.20654
-1.89228
-3.26748
5.27626
-1.01794
3.42601
-6.69349
-1.84736
4.75463
-0.729847
-4.02478
0.88832
-4.42297
1.67014
-6.09311
5.25621
-5.65626
2.25442
-9.76759
-5.22786
-5.19616
-2.2801
-5.26154
-7.58355
5.30345
-1.80075
5.56065
-8.52431
7.79446
-3.47435
8.77781
-5.46398
-1.05381
5.89295
1.30945
10.0873
0.155221
-4.66304
-1.93599
3.74366
-1.80768
1.16404
-3.63253
0.111129
2.4865
3.47311
-6.79941
0.0258948
-4.63715
-3.91133
7.95723
5.61872
11.6298
1.24399
9.14501
-1.18778
10.389
4.18874
4.42618
-3.01062
4.46739
0.964901
4.62695
-0.895688
2.80811
1.64043
1.70586
0.767704
2.30252
1.30781
3.14756
0.0944817
-1.97477
4.63666
-8.62411
-0.985406
-8.0781
1.16433
5.42902
-4.26469
2.88987
-0.715167
1.0822
-0.150142
-1.25026
1.4004
-2.72949
-1.90256
-0.469179
-1.64192
2.3328
1.86911
-1.86363
-0.865868
0.332564
-3.95281
3.25444
-3.10661
-0.587032
6.12709
-2.8916
0.234802
-1.18607
-2.37077
-2.891
2.73277
6.17422
0.296174
3.11274
5.20074
3.10033
0.221042
3.81738
-5.68094
-3.72198
-5.91655
-0.364213
4.57956
1.74462
8.00484
5.84649
4.82855
-1.86494
-10.0715
6.51284
-2.04545
5.1736
-1.14882
-4.94429
5.07202
2.3231
-5.69595
0.0396869
-4.9046
-6.95005
-0.481463
8.27593
-9.60579
8.55198
5.68792
1.3873
-4.43967
-0.756497
4.29109
0.135088
10.5241
-0.910223
-7.07099
7.98122
-4.5188
3.53339
0.682875
2.62071
2.08327
1.36811
-5.70289
-9.96758
-2.05199
-1.53999
-4.39989
0.536749
-2.40586
6.07607
-2.54269
3.81143
5.43853
6.52073
-2.05057
-4.14829
6.295
-2.48357
4.03716
)
;

boundaryField
{
    wall-4
    {
        type            calculated;
        value           uniform 0;
    }
    velocity-inlet-5
    {
        type            calculated;
        value           uniform -3.75095;
    }
    velocity-inlet-6
    {
        type            calculated;
        value           uniform -5.62643;
    }
    pressure-outlet-7
    {
        type            calculated;
        value           nonuniform List<scalar> 8(3.33792 7.75711 4.40798 9.70389 7.43866 5.12944 5.75989 8.97847);
    }
    wall-8
    {
        type            calculated;
        value           uniform 0;
    }
    frontAndBackPlanes
    {
        type            empty;
        value           nonuniform 0();
    }
}


// ************************************************************************* //
