/*--------------------------------*- C++ -*----------------------------------*\
  =========                 |
  \\      /  F ield         | OpenFOAM: The Open Source CFD Toolbox
   \\    /   O peration     | Website:  https://openfoam.org
    \\  /    A nd           | Version:  6
     \\/     M anipulation  |
\*---------------------------------------------------------------------------*/
FoamFile
{
    version     2.0;
    format      ascii;
    class       volVectorField;
    location    "66";
    object      U;
}
// * * * * * * * * * * * * * * * * * * * * * * * * * * * * * * * * * * * * * //

dimensions      [0 1 -1 0 0 0 0];

internalField   nonuniform List<vector> 
918
(
(0.985049 -0.000714734 0)
(0.00535551 2.96623 0)
(-0.00207443 0.881833 0)
(0.979575 0.00196155 0)
(-0.0137859 2.06402 3.23375e-20)
(-0.0071017 2.94856 -2.57322e-18)
(0.816365 1.11908 4.48727e-19)
(0.13534 0.0739789 -1.40649e-20)
(0.999922 -0.000244312 0)
(0.0894674 0.658369 0)
(0.0134851 0.402844 0)
(0.732546 -0.00223688 0)
(0.0101972 2.93161 0)
(0.00334214 2.79471 0)
(-0.0021213 3.18167 8.3279e-19)
(-0.0138206 1.92492 1.9064e-20)
(0.292595 0.0325493 9.71647e-19)
(0.231742 1.10649 3.56351e-19)
(0.964363 0.00674216 0)
(9.68163e-06 0.408687 0)
(0.0121442 0.0840572 -6.59704e-19)
(1.00183 -0.00456027 0)
(0.999851 -0.00892726 0)
(0.975166 -0.00605216 0)
(0.593987 0.0242031 0)
(0.0213009 2.64396 0)
(-0.0123566 2.91193 9.41418e-19)
(-0.00565426 0.934599 0)
(-0.0303278 1.16842 0)
(-0.00369889 0.905002 0)
(-0.0227085 2.59517 0)
(-0.00474931 2.11483 -2.58285e-20)
(-0.00978806 1.89742 0)
(-0.0221159 2.98761 -9.2752e-23)
(-0.0164847 3.00548 1.99918e-18)
(0.00230173 3.00057 0)
(0.871904 -0.0097451 0)
(0.375839 0.915633 1.59433e-19)
(0.815286 1.13719 -5.6512e-19)
(0.94805 1.00264 5.72842e-19)
(0.678372 1.21995 -1.02937e-19)
(0.691696 1.1813 5.86762e-19)
(0.16578 0.135127 1.3721e-20)
(0.156842 0.0710989 0)
(1.16171 0.530298 0)
(0.139145 0.119154 6.23436e-20)
(0.113801 0.0649435 -6.46939e-20)
(0.920543 -0.00704796 0)
(1.00026 5.99917e-05 0)
(0.999908 0.000320121 0)
(1.0037 -0.00728145 0)
(1.00088 -0.000947234 0)
(1.00011 -6.83666e-06 0)
(0.0925439 1.84387 -7.39883e-19)
(0.0331895 0.855461 0)
(0.122119 0.748163 0)
(0.0152543 0.801124 0)
(0.0499738 0.578726 0)
(0.00396343 2.02925 0)
(-0.00739996 0.730899 0)
(0.00704056 0.43424 0)
(-0.00793377 0.726808 0)
(0.00649043 0.406337 0)
(0.843414 -0.015647 0)
(0.840135 0.0308143 0)
(0.761157 -0.00575368 0)
(0.80066 0.0320544 0)
(0.705445 0.00221193 0)
(0.0139178 3.00023 9.54917e-19)
(0.0111273 3.00604 0)
(0.00619599 3.00384 0)
(0.0119033 2.99716 1.08398e-23)
(0.00823119 2.95877 -1.41924e-18)
(0.0122475 2.98295 0)
(0.00906627 2.90469 0)
(0.020792 2.93181 2.20273e-24)
(0.00414229 2.8241 0)
(0.0252554 2.91896 0)
(-0.000904752 2.74438 0)
(0.306332 3.57732 0)
(-0.12235 3.66024 0)
(0.149724 3.27243 -7.75064e-19)
(0.00380485 3.00911 0)
(-0.0303129 1.99073 0)
(-0.00722551 2.17762 -1.88024e-20)
(-0.00959309 1.93716 1.84524e-20)
(0.355432 0.141383 -3.37387e-19)
(0.316544 0.00615303 -3.28301e-19)
(0.308985 0.162736 -1.00888e-18)
(0.257309 0.0511801 -6.56254e-19)
(0.263935 1.02144 0)
(0.330111 1.23733 -3.6842e-19)
(0.412511 1.14883 6.07897e-19)
(0.987744 0.00814986 0)
(0.943267 0.00578557 0)
(1.00028 0.000671656 0)
(1.00254 0.00906635 0)
(1.00311 0.0089875 -2.58943e-18)
(0.992136 0.00942476 1.95671e-18)
(-0.0201948 0.743066 0)
(-1.5681e-05 0.417428 0)
(-0.0509639 1.01862 0)
(-0.0272637 0.796592 0)
(-0.00815758 0.408855 0)
(-0.0183649 0.120003 2.04346e-19)
(0.0641577 0.0755553 0)
(0.993624 -0.00769354 0)
(0.954046 -0.00648335 0)
(0.74073 0.0415966 0)
(0.675085 0.0291006 0)
(0.66022 0.000936057 0)
(0.979219 -0.00290099 0)
(0.589182 0.0573995 0)
(0.443621 -0.0225196 1.47765e-18)
(-0.0410187 2.86006 7.36941e-19)
(0.0337854 2.91389 0)
(0.0426232 2.89254 0)
(0.00316827 2.70176 0)
(-0.0087057 2.98669 8.99765e-19)
(-0.014131 2.89472 0)
(-0.0109138 2.99183 -2.77257e-18)
(-0.0116715 2.92971 9.43674e-19)
(-0.0428536 1.34287 0)
(-0.0144459 1.37085 0)
(-0.00781015 2.13972 7.317e-22)
(-0.00769053 2.09885 0)
(-0.0173036 1.90871 0)
(0.938857 -0.00521645 0)
(0.857239 -0.0111334 0)
(0.863478 0.00482997 0)
(0.949651 -0.00615352 0)
(0.883654 -0.00808018 0)
(0.499487 1.11576 -2.0276e-19)
(0.54678 1.18571 0)
(0.337715 0.850161 3.1229e-20)
(0.282066 0.714613 0)
(0.915717 1.03325 -1.61965e-19)
(1.0377 0.843452 3.25685e-19)
(0.390258 1.31584 0)
(0.541336 1.27144 0)
(0.594516 1.19903 0)
(0.103116 0.181387 -2.93702e-19)
(0.186528 0.1473 0)
(0.173071 0.0827053 1.82564e-19)
(1.00099 0.897522 0)
(1.07668 0.745739 0)
(1.10612 0.680979 -2.61839e-19)
(1.14314 0.592225 0)
(1.19898 0.390848 4.6854e-20)
(0.957489 -0.00710329 0)
(0.962717 -0.00811145 0)
(0.900902 -0.00736857 0)
(0.983927 -0.00812396 0)
(0.974422 -0.00803248 0)
(0.93654 -0.00656852 0)
(1.0002 0.00250407 0)
(1.00077 0.00123931 0)
(1 0.000762183 0)
(0.043942 2.08773 4.13016e-19)
(0.143328 1.78843 0)
(0.0193248 2.20404 6.22016e-19)
(0.0523122 1.89171 -5.19885e-19)
(0.165786 1.08277 -2.92532e-19)
(0.0501721 0.937762 0)
(0.120441 0.936316 0)
(0.00177766 0.769368 0)
(0.0251154 0.518635 0)
(-0.0034209 2.25799 -4.61539e-22)
(0.0186584 2.03471 0)
(-0.00499531 2.25897 -1.14801e-20)
(0.00248154 2.04063 1.02362e-20)
(-0.00654144 0.744226 0)
(-0.00834904 0.732037 0)
(0.00896469 0.469226 0)
(-0.0116427 0.728251 0)
(0.00617462 0.413239 0)
(0.939338 0.0137946 0)
(0.85612 -0.0116606 0)
(0.928552 0.00482833 0)
(0.84611 -0.0127915 0)
(0.81245 -0.00378343 0)
(0.896759 0.0244663 0)
(0.871491 0.0293213 0)
(0.787641 -0.00687942 0)
(0.0103842 3.06765 -8.87662e-21)
(0.0148342 3.05915 0)
(0.0124466 2.97026 0)
(0.00764789 2.87664 0)
(0.896236 3.97179 0)
(1.19055 3.36762 9.40106e-19)
(0.0813777 3.09141 0)
(-0.0170268 2.91849 0)
(-0.0151192 1.39681 0)
(-0.0350338 1.69542 0)
(-0.0238176 1.53012 0)
(-0.0330659 2.55519 -1.37202e-20)
(-0.0181276 2.24909 0)
(-0.0229233 2.39425 0)
(-0.000916987 1.9656 3.69767e-22)
(-0.00519887 2.25263 -2.33402e-20)
(-0.00621752 2.21529 -1.89482e-20)
(-0.00594667 1.95072 0)
(0.395064 0.117603 5.18814e-19)
(0.350643 0.000215275 -5.08923e-19)
(0.233594 1.5914 0)
(0.287706 0.765064 -3.19549e-19)
(0.176094 1.69067 -1.05287e-18)
(0.243412 1.22504 1.05348e-18)
(0.901708 0.00593417 0)
(0.967069 0.0106471 0)
(0.97492 0.00984627 0)
(0.923011 0.00588818 0)
(-0.0200882 0.734782 0)
(-0.0175214 0.737366 0)
(0.00534129 0.409696 0)
(0.114866 0.110916 5.74703e-19)
(0.0956704 0.0960614 -6.80508e-19)
(0.0780085 0.0637483 0)
(1.10615 0.0900968 2.31344e-20)
(1.08986 0.0423514 0)
(1.01825 0.0436049 0)
(0.9134 -0.0016314 0)
(0.443597 0.0967295 0)
(0.504116 0.0780382 -2.36225e-18)
(0.394339 -0.00642137 8.84415e-19)
(0.0108186 2.97717 7.81619e-19)
(-0.0326514 2.86149 4.5907e-20)
(0.00854936 3.05299 -1.87497e-20)
(0.0158491 3.04345 7.03203e-19)
(-0.0118236 2.99995 3.10623e-20)
(-0.0123192 2.95229 -1.25429e-22)
(-0.0150613 3.01325 -5.80822e-19)
(0.0144097 3.02656 4.08336e-19)
(0.00762242 3.03481 -6.62549e-19)
(0.934672 0.00211133 0)
(0.939483 -0.00113566 0)
(0.848083 -0.0111711 0)
(0.956357 0.0117606 0)
(0.942412 0.0133033 0)
(0.881714 0.00544474 0)
(0.91519 0.0190944 0)
(0.925116 0.0154407 0)
(0.838143 0.00066957 0)
(0.672299 1.41439 2.42779e-20)
(0.690319 1.52493 0)
(0.118814 0.293255 6.64303e-20)
(0.212699 0.653648 5.25088e-19)
(0.240213 0.693408 -3.08404e-19)
(0.215241 0.497483 6.11742e-19)
(0.339489 0.831038 1.55588e-18)
(0.134442 0.236501 3.74562e-19)
(0.264948 0.171763 6.96213e-19)
(0.220877 0.164335 1.79275e-19)
(0.218822 0.0721814 3.41952e-19)
(1.19077 0.445323 9.96057e-20)
(1.21644 0.245325 9.78689e-20)
(0.00919348 2.24618 2.42008e-19)
(0.0396926 1.95667 0)
(0.972584 0.0329585 0)
(0.946587 0.0191572 0)
(0.870807 -0.0152856 0)
(0.012385 3.07402 0)
(0.0167017 2.94397 1.24092e-18)
(0.0139323 2.95665 0)
(0.00587288 2.85001 -1.23134e-18)
(0.00965164 3.09003 3.029e-19)
(0.0113763 3.08394 0)
(0.710278 1.82119 -1.7327e-19)
(1.23494 2.62623 5.85431e-19)
(0.694979 1.99929 -1.40362e-18)
(0.0222377 2.97586 -6.79727e-19)
(0.0406111 2.99835 0)
(-0.0383153 2.87849 0)
(-0.00625392 2.23754 -1.2747e-20)
(-0.00487425 2.25794 4.4379e-20)
(-0.000586843 2.00151 -7.07633e-21)
(0.268434 1.4029 1.01483e-18)
(0.286388 0.56827 -6.96857e-19)
(0.0719036 2.00482 7.44487e-19)
(0.12287 1.87408 -8.99782e-19)
(0.208192 1.53839 1.03769e-19)
(0.00508664 3.11964 -1.88881e-18)
(0.0187262 3.11923 2.0322e-18)
(-0.00494546 2.98056 8.40279e-19)
(-0.000328647 2.97509 -8.05983e-19)
(-0.0177698 2.87823 -8.55843e-19)
(0.0126695 3.09951 -2.25061e-18)
(0.00521273 3.1073 2.20517e-18)
(0.266213 0.698 0)
(0.217815 0.65919 -1.11972e-18)
(0.0737849 0.212789 4.92759e-19)
(0.346421 0.950913 1.10832e-18)
(0.198712 0.280774 -1.70671e-18)
(1.19624 0.175484 4.46688e-20)
(1.21316 0.304404 0)
(1.19171 0.120833 1.24286e-20)
(-0.000976729 2.26617 -1.24196e-21)
(0.00375648 2.25115 0)
(0.0308703 1.99259 0)
(0.313577 1.31854 -3.6459e-19)
(0.354121 1.17717 -7.90635e-19)
(0.232174 0.391768 1.41378e-18)
(1.00644 -0.00968505 0)
(1.00774 -0.00778627 4.75895e-19)
(-0.0374769 1.32517 0)
(-0.0454056 1.32886 0)
(1.00244 0.0032752 1.34415e-21)
(1.0032 0.00781326 9.77057e-19)
(-0.0242402 2.54147 1.73823e-20)
(-0.0273691 2.58419 0)
(0.0412196 3.17301 4.81363e-19)
(0.374634 3.5424 0)
(1.15653 0.691753 -4.76471e-20)
(1.01182 0.0106662 -2.83521e-21)
(1.02085 -0.00901873 0)
(1.00158 0.00027779 1.56142e-22)
(0.116147 1.37443 0)
(0.139974 2.58747 0)
(0.022912 1.32056 0)
(-0.00118357 2.63584 9.57845e-22)
(-0.0219056 2.58468 -6.83346e-21)
(0.998242 0.0305064 3.20401e-21)
(1.06295 0.00582778 0)
(1.09998 0.0284738 0)
(-0.0334102 1.74243 0)
(-0.0191878 2.58524 0)
(-0.0117735 1.31643 0)
(0.309934 1.48731 -1.76855e-19)
(1.01151 -0.00905992 0)
(1.00971 -0.0129882 0)
(1.00228 0.000941997 6.09632e-19)
(1.00548 -0.00491359 -7.18465e-19)
(1.00113 -0.000864717 0)
(-0.0210208 1.46216 0)
(-0.00960787 1.38394 0)
(-0.0161862 1.4241 0)
(-0.0140348 1.30357 0)
(-0.0274396 1.29273 0)
(-0.0209821 1.27199 0)
(1.03564 -0.0043123 0)
(1.01883 0.0150199 -8.89137e-22)
(0.810669 1.30981 2.85584e-19)
(1.00242 0.000383584 -6.08964e-19)
(1.00338 0.00445326 7.27094e-19)
(1.00127 0.00209787 0)
(1.01112 0.00963643 6.0655e-19)
(1.00686 0.00746106 -7.38452e-19)
(1.00715 0.0111313 0)
(-0.0243155 2.61298 0)
(-0.0275471 2.59225 -2.9608e-20)
(-0.0244166 2.6063 2.08392e-20)
(1.2415 0.272673 5.04215e-19)
(1.16328 0.0888796 0)
(0.0449638 3.09129 -9.62254e-19)
(0.0518726 2.87374 -6.82444e-20)
(0.104201 3.20215 1.28481e-18)
(0.1226 3.21403 -2.73373e-19)
(0.142493 3.25815 0)
(0.0229184 3.13776 2.64246e-19)
(0.0616408 3.16231 9.58516e-19)
(0.0621954 3.17906 -4.94334e-19)
(0.0269978 3.12963 0)
(0.579428 0.289504 0)
(0.52165 0.307723 0)
(1.13784 0.722778 1.04496e-19)
(1.10344 0.858951 -8.48618e-20)
(1.19617 0.608333 0)
(1.22331 0.543292 0)
(1.01572 0.0120251 -1.12661e-18)
(1.0147 0.0127681 1.41644e-18)
(1.02572 -0.008736 0)
(1.02406 -0.0103019 0)
(1.00676 0.0031743 0)
(1.01089 0.004208 0)
(1.00424 0.00220841 0)
(1.00939 0.00636419 0)
(1.00687 0.00504759 0)
(1.00441 0.00527142 0)
(0.105421 1.37409 0)
(0.0939457 1.33282 0)
(0.139981 1.41786 0)
(0.146537 1.40085 0)
(0.151947 2.61033 0)
(0.191136 2.6759 -4.09195e-19)
(0.107539 2.66962 0)
(0.0806686 2.67196 1.66507e-19)
(0.0286625 2.67795 -1.6121e-19)
(0.0118564 1.32144 0)
(0.0186891 1.25202 0)
(0.013359 1.33537 0)
(0.0343649 1.27312 0)
(-0.000775809 1.99505 3.15444e-20)
(-0.0216733 2.61285 -3.42336e-20)
(-0.0076192 2.67831 -2.32929e-20)
(-0.0194871 2.69112 0)
(-0.0238143 2.61925 2.35551e-20)
(-0.0224557 2.61469 3.42804e-20)
(0.00637732 1.99204 -2.41566e-20)
(-0.00983558 2.40425 4.59301e-20)
(-0.0147688 2.42781 2.64047e-20)
(1.01184 0.0392065 1.14188e-18)
(1.00333 0.0200774 -1.42352e-18)
(1.0023 0.0475755 -1.16856e-18)
(0.974467 0.0350956 1.47289e-18)
(1.06461 0.00914268 0)
(1.04985 -0.00647672 0)
(1.09256 0.0374581 0)
(1.07573 0.0149037 0)
(1.07447 0.000582094 0)
(1.14111 0.0790565 0)
(1.11549 0.045996 0)
(1.11859 0.0374693 0)
(-0.0296739 2.43608 3.25428e-21)
(-0.0197803 2.0224 0)
(-0.0208048 2.22218 0)
(-0.0213354 2.60607 -1.75639e-20)
(-0.0181822 2.61684 5.47579e-22)
(-0.000899993 1.58291 -5.23948e-20)
(-0.0100063 1.50579 5.35174e-20)
(-0.0198045 1.39683 0)
(-0.0238365 1.40262 0)
(-0.030746 1.3939 0)
(-0.00797188 1.31801 0)
(0.00250358 1.24579 0)
(0.385602 1.51229 2.96676e-19)
(0.433856 1.51628 1.56303e-19)
(0.592078 2.46818 -2.43933e-19)
(0.386398 2.56124 6.98252e-19)
(0.350216 2.05348 6.70311e-20)
(1.02069 -0.008013 0)
(1.01579 -0.00936574 0)
(1.01484 -0.0132224 0)
(1.00771 -0.000570634 0)
(1.00486 -0.000671891 0)
(1.00799 -0.00448518 0)
(1.00954 -0.00344846 0)
(1.01464 -0.00429641 0)
(1.01956 0.0161892 1.10566e-18)
(1.01723 0.0147055 -1.3982e-18)
(1.01986 0.0185233 -1.11474e-18)
(1.01737 0.0167033 1.39623e-18)
(0.767128 1.35681 0)
(0.706287 1.39164 2.52513e-19)
(0.873745 1.23772 1.0679e-19)
(0.911446 1.19694 -1.4173e-19)
(1.16499 2.61386 2.5207e-19)
(0.757047 0.126888 5.76084e-19)
(1.17157 0.107315 0)
(1.21378 0.201233 -4.09225e-19)
(1.19493 0.154183 -1.70072e-20)
(1.01369 0.165213 0)
(0.078486 3.01875 3.36688e-19)
(0.0838366 2.90268 -1.13323e-18)
(0.0265147 2.3574 7.17739e-19)
(0.143057 -0.237733 -3.3106e-19)
(0.342788 3.44622 -2.55583e-19)
(0.193715 3.34075 0)
(0.224112 3.39767 3.32927e-19)
(0.223151 3.07698 -1.18323e-18)
(0.255779 3.1957 0)
(0.00599446 3.12284 4.98458e-20)
(0.0163039 3.13151 -5.76216e-19)
(0.0152916 3.12723 8.48076e-19)
(0.0330824 3.1404 0)
(0.0313611 3.14971 0)
(1.25861 2.57816 0)
(0.532666 0.791382 -5.17227e-19)
(1.02395 1.03239 -1.71123e-20)
(0.988984 1.08551 0)
(0.857638 0.969113 -1.02118e-19)
(1.08142 0.907789 2.66096e-20)
(0.341954 0.313957 -8.15621e-19)
(0.659618 0.320951 -2.16464e-20)
(0.553112 0.221948 3.85703e-19)
(0.553846 0.323026 2.82644e-20)
(0.441525 0.277953 -1.13266e-18)
(0.616898 0.32139 0)
(0.696606 0.424201 6.48182e-19)
(0.69949 0.430375 0)
(0.588681 0.328474 0)
(0.506293 0.254982 0)
(0.796183 0.652007 3.86295e-19)
(1.25241 0.306055 -4.10108e-19)
(1.24485 0.437463 0)
(1.24523 0.393482 0)
(0.693092 0.184862 5.87963e-19)
(0.845053 0.554134 -3.6514e-19)
(0.766329 0.516582 6.51737e-19)
(0.96566 0.449262 -6.55265e-19)
(1.01841 0.014641 7.49381e-19)
(1.01709 0.0136267 -7.56679e-19)
(1.01599 0.014157 0)
(1.03703 -0.00453574 0)
(1.03043 -0.0077052 -7.0942e-19)
(1.02864 -0.0105807 7.02041e-19)
(1.02474 0.0109402 0)
(1.02268 0.0150505 0)
(1.0127 0.00469025 0)
(1.01456 0.00910521 0)
(1.01636 0.00421335 0)
(1.01554 0.0029094 0)
(0.0737129 1.36023 0)
(0.0740072 1.30335 0)
(0.157348 1.41691 5.71777e-20)
(0.276552 1.48362 8.61739e-20)
(0.175352 1.45516 1.93339e-19)
(0.214309 1.45181 -3.128e-19)
(0.166678 1.43051 0)
(0.146671 1.58584 -8.54682e-20)
(0.144465 1.58258 0)
(0.344939 2.00795 -9.75821e-20)
(0.323281 2.3388 5.5228e-19)
(0.200153 1.46537 7.44813e-20)
(0.275648 1.39856 2.70968e-20)
(0.206748 1.39753 -2.20756e-20)
(0.289712 1.33772 -7.76577e-20)
(0.260267 1.57902 0)
(0.268945 1.62738 8.87068e-20)
(0.0250488 2.25535 -1.70275e-20)
(0.0388667 2.671 0)
(0.0635326 2.4072 1.02192e-19)
(0.0588764 2.43096 0)
(0.0685992 2.68938 -1.84862e-19)
(0.0433261 2.70511 0)
(0.023438 1.44684 5.37891e-20)
(0.0320596 1.5046 0)
(0.026603 1.41265 0)
(0.0196094 1.41912 -6.09528e-20)
(0.00182296 2.66296 -8.47839e-22)
(0.0263909 2.69473 1.84333e-19)
(0.00950027 2.73438 9.90081e-22)
(0.00143675 1.84342 -1.87276e-20)
(-0.00494785 1.6953 -1.42207e-20)
(0.0101106 1.30422 0)
(0.017411 1.23047 0)
(0.0402594 1.59292 -1.49542e-20)
(0.0374933 1.46976 -5.20856e-20)
(0.0272405 1.54513 5.63154e-20)
(0.0490409 1.61802 0)
(-0.0303493 2.27282 1.13597e-19)
(-0.0336118 2.55349 -4.80854e-20)
(-0.0197856 2.45248 7.74819e-21)
(-0.00550264 1.86021 2.2702e-20)
(-0.0275817 2.50756 1.04944e-20)
(-0.0228493 2.44857 -2.2577e-20)
(1.01767 0.0221583 -7.56641e-19)
(1.01485 0.0282143 7.61767e-19)
(1.01159 0.0166319 0)
(1.01151 0.0708323 1.03961e-18)
(0.990517 0.0601178 -1.19733e-18)
(0.9496 0.0582974 1.33794e-18)
(1.01351 0.11618 -1.41311e-19)
(1.04396 -0.00468481 0)
(1.05216 -0.000445512 6.79208e-19)
(1.04026 -0.00818707 -6.78815e-19)
(1.07222 0.0435143 -4.02252e-20)
(1.06494 0.0288593 3.4761e-19)
(1.06431 0.0653345 0)
(1.05443 0.0546325 -1.25271e-19)
(1.03181 0.0443832 0)
(1.02556 0.0395768 0)
(1.02757 0.0136416 0)
(1.024 0.0161322 0)
(1.04077 0.034005 2.57572e-19)
(1.03903 0.0287631 -5.70327e-19)
(1.05301 0.0385652 -2.72253e-19)
(1.04826 0.0386478 -3.00759e-19)
(1.07794 0.0702157 5.74057e-19)
(1.10176 0.0561971 0)
(1.1086 0.0946532 0)
(-0.028173 2.27957 6.89577e-20)
(-0.0298495 2.0279 3.37171e-21)
(-0.025013 2.03782 0)
(-0.0297677 2.44899 -6.86569e-20)
(-0.0273596 2.40722 -6.49051e-21)
(-0.0343572 2.47662 8.73444e-21)
(-0.021577 2.62711 -2.91201e-20)
(-0.0263046 2.56946 1.48574e-21)
(-0.024792 2.52261 -9.94269e-21)
(-0.0172221 2.62048 1.96867e-20)
(-0.0213633 2.62255 -2.2582e-20)
(-0.00971913 1.50057 -3.73651e-22)
(-0.00452106 1.63109 -5.11916e-20)
(0.377651 1.44846 -1.28157e-19)
(0.371698 1.38072 7.90709e-21)
(0.648246 1.43971 -2.44343e-19)
(0.524884 1.50947 -1.52101e-19)
(0.578394 1.46801 0)
(0.608197 2.42444 2.14135e-19)
(0.667401 2.43368 3.34536e-19)
(0.420305 2.51922 9.47485e-20)
(0.403217 2.54178 -5.85896e-19)
(0.501091 2.48156 5.49406e-19)
(0.553778 2.47844 0)
(0.486375 2.52893 -5.4225e-19)
(0.25768 2.5925 1.1171e-18)
(0.362988 2.57032 -6.18955e-20)
(0.279368 2.65564 -1.565e-18)
(0.970672 2.39184 7.01246e-19)
(0.849023 2.39263 0)
(1.01145 0.00138559 2.47093e-20)
(1.01537 -0.00518721 -2.01809e-20)
(1.01775 -0.00394126 -3.68888e-19)
(1.01561 -0.00105243 3.67577e-19)
(1.01312 0.0018344 0)
(0.636405 1.30234 0)
(0.677801 1.18759 0)
(0.792415 1.11791 0)
(0.665337 1.14528 0)
(1.19592 2.62931 5.13543e-20)
(1.08868 2.3811 0)
(0.818977 2.17174 3.39395e-21)
(0.822073 2.4344 0)
(0.916843 2.52462 -4.20515e-19)
(0.94829 2.4741 2.80759e-19)
(0.79038 0.164138 0)
(0.729964 0.149696 1.56323e-19)
(0.905049 0.158024 9.11841e-19)
(0.813054 0.138217 -3.42345e-19)
(0.762342 0.0907324 -1.04865e-18)
(1.0883 0.245433 -8.23636e-19)
(0.987309 0.314915 -9.73516e-21)
(0.931398 0.349994 7.99307e-19)
(1.01501 0.259835 6.80023e-19)
(0.931011 0.205693 -1.20082e-18)
(0.890825 0.21934 1.50701e-19)
(0.932371 0.316911 -3.12456e-19)
(0.906347 0.223025 0)
(1.0017 0.209729 5.8782e-19)
(1.05558 0.218673 0)
(1.05287 0.228875 0)
(1.12574 0.124588 2.6202e-19)
(1.06457 0.193811 -1.05668e-20)
(1.07982 0.246993 -1.50319e-19)
(1.11371 0.210631 0)
(1.02275 0.049752 5.82514e-19)
(1.03758 0.0633845 7.25333e-19)
(1.03216 0.0466243 -5.78305e-19)
(1.04202 0.0693157 -4.86541e-19)
(1.01445 0.074854 -7.36258e-19)
(0.986533 0.167856 0)
(0.989092 0.107281 0)
(0.960786 0.0729375 -4.75339e-19)
(0.903537 0.0969932 1.87246e-19)
(1.03978 0.116903 6.72464e-19)
(1.07634 0.136938 -7.67812e-19)
(1.07015 0.179744 6.90691e-19)
(1.03551 0.156215 0)
(1.08648 0.12242 0)
(1.0572 0.111794 -3.15124e-19)
(1.04361 0.108985 -5.46624e-19)
(0.587425 1.08657 1.1118e-19)
(0.613674 1.40513 -1.42207e-20)
(1.14528 2.7203 -2.36553e-19)
(1.19806 3.10445 6.61922e-22)
(1.25389 2.73002 -1.05362e-19)
(1.29384 2.70098 1.07488e-20)
(1.26943 2.32439 -3.8021e-20)
(1.18573 3.00997 -6.5448e-20)
(1.20513 2.96693 2.10344e-19)
(1.17995 3.25803 -1.25811e-19)
(1.39779 2.9728 1.56994e-19)
(1.40935 2.90907 0)
(0.57149 0.818091 -4.67731e-20)
(0.212467 1.21323 4.69018e-19)
(0.515152 0.357487 5.25339e-19)
(0.40044 0.120176 5.96942e-19)
(0.487453 0.305502 6.4106e-19)
(0.547852 0.420117 -1.04165e-18)
(0.554175 0.40727 8.57856e-19)
(0.475471 0.311308 -3.23124e-19)
(0.354246 0.251408 7.31235e-19)
(0.725848 0.252562 -3.39239e-19)
(0.678935 0.284951 0)
(0.614194 0.197506 7.92325e-21)
(0.738552 0.506023 3.53619e-19)
(0.708128 0.478337 -1.28243e-18)
(0.636709 0.434998 1.59779e-20)
(0.626547 0.414328 0)
(0.716389 0.715043 3.66806e-19)
(0.832808 0.79768 4.02629e-19)
(0.770037 0.847329 -4.69353e-19)
(0.901498 0.820013 -1.48842e-19)
(0.936236 0.863158 -3.41636e-20)
(0.943871 0.870549 3.50406e-20)
(0.880667 0.676116 -6.57305e-19)
(0.952832 0.723079 1.38378e-19)
(1.00681 0.727041 0)
(1.00594 0.703077 -1.76564e-19)
(1.0317 0.339156 2.06464e-19)
(1.159 0.339161 2.4749e-19)
(1.07471 0.283031 3.36814e-19)
(0.999281 0.385417 -4.1273e-19)
(1.05588 0.485936 0)
(1.1381 0.427373 0)
(0.904806 0.421975 8.75392e-22)
(0.848865 0.321195 0)
(0.893715 0.310502 3.83949e-19)
(0.918409 0.348753 3.98072e-21)
(0.985961 0.494378 1.83021e-18)
(0.91884 0.553707 4.72265e-19)
(0.940822 0.509887 -5.00805e-19)
(0.85913 0.487417 5.33583e-19)
(0.826614 0.461755 3.40299e-19)
(0.80423 0.436981 -3.33584e-19)
(1.02816 -0.000381925 6.09408e-19)
(1.0204 0.000555975 0)
(1.01905 0.00137733 3.97744e-19)
(1.02263 -0.000729822 -9.00353e-19)
(1.02254 0.00456347 4.38599e-19)
(1.02002 0.011603 -9.18046e-19)
(1.02075 0.0113965 0)
(1.01968 0.0121389 -1.91198e-19)
(1.01655 0.0077838 4.79192e-19)
(1.01668 0.0108932 -2.40492e-19)
(1.01727 0.0105889 1.75969e-19)
(0.0266085 1.33063 0)
(0.0355939 1.38976 0)
(0.0475355 1.33697 0)
(0.0498297 1.27615 0)
(0.0824355 1.40492 -7.97616e-20)
(0.0896707 1.37495 2.04783e-20)
(0.0928517 1.57497 2.32957e-21)
(0.103639 1.40917 -3.97423e-20)
(0.0409094 1.48219 4.80739e-20)
(0.0451102 1.47868 -3.77911e-20)
(0.0701972 1.39802 -2.14884e-20)
(0.0593755 1.40003 7.71741e-20)
(0.0532024 1.37763 1.21094e-20)
(0.04011 1.39571 7.78031e-21)
(0.0986071 2.37182 -1.13056e-19)
(0.0920823 2.42039 0)
(0.142653 2.02069 1.04388e-19)
(0.13504 1.70123 3.75016e-20)
(0.21965 2.01769 -8.33355e-20)
(0.197166 2.43863 0)
(0.217428 2.40008 -6.53117e-19)
(0.32898 2.36049 4.31959e-19)
(0.246585 1.98408 -2.27122e-19)
(0.136418 2.14824 1.54015e-19)
(0.112699 2.25335 0)
(0.016706 1.85962 -2.16613e-20)
(-0.00338957 2.38092 -1.2731e-20)
(0.00416865 2.13858 0)
(0.0075078 2.44286 -1.68934e-20)
(0.026092 2.27992 2.24673e-20)
(0.00828972 1.42327 -1.06582e-20)
(0.00773017 1.40515 1.80077e-19)
(0.00695283 1.41336 -5.78692e-20)
(0.0175421 1.41979 -5.17138e-20)
(0.021189 1.45009 0)
(0.00537871 1.39605 0)
(-0.000596918 1.30443 -6.82927e-20)
(0.000863997 1.38152 1.93664e-20)
(0.00602405 1.38317 0)
(0.00689613 1.29752 -5.28476e-20)
(0.0141951 1.2224 1.05452e-19)
(1.04243 0.0150523 0)
(1.04894 0.0105117 -6.3507e-20)
(1.03921 0.0243824 -4.59554e-19)
(1.04962 0.0233099 0)
(1.05467 0.0225985 0)
(1.03628 0.0130475 -6.77555e-21)
(1.02996 0.0135242 7.42112e-19)
(1.03181 0.0175283 8.97452e-19)
(1.02558 0.0211469 0)
(1.02219 0.0215508 0)
(1.03557 0.0257245 4.58544e-19)
(1.02648 0.0283689 0)
(1.02305 0.0288999 0)
(-0.0202708 2.02942 0)
(-0.00874536 1.65909 -2.14082e-21)
(-0.00874009 1.76479 -3.16824e-20)
(-0.00415617 1.39029 0)
(-0.00865273 1.56054 -2.82116e-20)
(-0.0142002 1.46836 1.7769e-20)
(-0.00886243 1.40242 0)
(0.404096 1.6287 0)
(0.365277 1.31837 -1.08964e-20)
(0.275629 1.34639 0)
(0.434977 1.31607 -5.8603e-20)
(0.473078 1.47544 0)
(0.457376 1.41647 4.94188e-20)
(1.04073 2.6731 -1.48896e-20)
(0.985235 2.41106 -8.81016e-19)
(0.9477 2.21106 9.87664e-19)
(0.865646 2.38476 2.38537e-19)
(0.853313 2.48992 0)
(0.922076 2.48491 0)
(0.954446 2.38492 0)
(0.930509 2.37547 -9.22699e-19)
(0.691853 2.45445 -3.65376e-19)
(0.800904 2.43826 -9.48935e-20)
(0.808219 2.41634 7.15099e-20)
(0.704521 2.40519 0)
(0.809883 2.39886 0)
(0.770595 2.41526 -3.62416e-19)
(0.766238 2.46844 0)
(0.627706 1.06649 0)
(0.515255 0.862321 -5.40456e-19)
(0.521329 0.933857 -3.12747e-20)
(0.501451 1.07292 0)
(0.488296 0.981634 8.27816e-19)
(0.798808 0.885411 -1.28622e-19)
(0.80358 1.0207 0)
(0.784364 1.00339 1.75406e-19)
(0.672674 1.02081 0)
(0.664462 0.925041 0)
(1.16374 2.75663 -2.10367e-19)
(1.1388 2.81487 -8.26464e-20)
(0.923532 2.33779 6.2984e-20)
(0.900214 2.31857 -7.21401e-20)
(1.1334 2.73449 0)
(1.08541 2.7023 8.66489e-20)
(1.10153 2.49763 -2.89319e-19)
(1.00319 2.25696 -2.83669e-20)
(0.497675 1.33223 0)
(0.517165 1.07882 -9.79418e-20)
(0.593446 1.18168 0)
(0.845721 0.230902 0)
(0.755265 0.180765 0)
(0.669999 0.142096 0)
(0.849593 0.230714 -6.05029e-19)
(0.747162 0.221523 3.5463e-19)
(0.909278 0.0898289 -3.79477e-19)
(0.930842 0.143775 0)
(0.911085 0.148687 1.6974e-19)
(0.84207 0.107131 6.80901e-19)
(0.792034 0.0782318 -4.28758e-19)
(1.0974 3.34975 -6.80539e-19)
(1.16495 3.27301 0)
(1.11567 3.4346 -1.58217e-18)
(0.656987 3.58044 1.31813e-18)
(1.02602 3.07795 1.28262e-19)
(0.531745 0.785433 5.56795e-19)
(0.512052 0.753797 0)
(0.353058 0.374956 -1.42485e-19)
(0.483526 0.631768 8.41762e-19)
(0.54514 0.358526 -1.87833e-19)
(0.516364 0.457712 2.22386e-19)
(0.689316 0.525043 4.56668e-19)
(0.734493 0.560019 0)
(0.661895 0.566946 0)
(0.644088 0.532038 0)
(1.01563 0.610749 8.56215e-20)
(0.969587 0.592659 -4.57188e-19)
(0.979615 0.604882 3.48499e-19)
(1.04442 0.547786 -3.3697e-19)
(1.08936 0.517173 0)
(1.09087 0.599474 -8.81223e-20)
(0.886684 0.417151 -7.56704e-19)
(0.875859 0.405011 -9.72296e-19)
(0.802022 0.402055 5.9782e-19)
(0.81544 0.369975 -6.19057e-19)
(0.856606 0.330564 -4.86461e-19)
(0.802677 0.334096 5.95743e-19)
(1.02655 0.00668004 -4.58879e-19)
(1.02617 0.00679972 9.24418e-19)
(1.02993 0.000945941 5.90392e-19)
(1.03417 0.001579 -7.08832e-19)
(1.03395 0.0119871 0)
(1.02964 0.0120596 -1.16239e-18)
(0.079072 1.64391 1.22513e-20)
(0.0667663 1.60239 0)
(0.105954 1.7001 6.02215e-20)
(0.115353 1.67845 -5.21747e-20)
(0.0780906 1.57157 -4.20205e-21)
(0.0748396 1.57324 0)
(0.00652701 1.69659 0)
(-0.00806349 1.50936 1.50174e-20)
(-0.0065229 1.44937 -1.34911e-20)
(-0.0113709 1.55758 3.10699e-21)
(-0.00214737 1.89203 2.19548e-20)
(-0.014166 1.94698 -8.49032e-21)
(0.493833 1.36269 -2.40844e-19)
(0.496323 1.35798 2.63634e-19)
(0.448681 1.30867 1.10675e-21)
(0.428527 1.29272 6.63156e-21)
(0.627642 1.31118 0)
(0.555845 1.40423 1.26885e-19)
(0.556886 1.40727 -1.23555e-19)
(0.484233 1.29529 -1.06714e-21)
(0.524975 1.24975 0)
(0.589509 1.21569 0)
(0.66566 2.41785 5.38033e-19)
(0.661149 2.44766 1.24827e-18)
(0.716706 2.46255 -8.58624e-19)
(0.615583 2.43454 -1.96783e-19)
(0.557042 2.52787 2.66607e-19)
(0.497738 2.49402 -6.86512e-19)
(0.993168 2.38977 -5.56302e-19)
(1.02536 2.40746 0)
(0.951945 2.19489 -6.08955e-19)
(1.05623 2.68338 0)
(1.05514 2.66456 0)
(0.603392 2.29172 1.97804e-20)
(1.11951 3.07074 8.85754e-20)
(0.997614 2.96852 -1.38104e-19)
(0.323735 0.803295 0)
(0.323722 0.685691 -2.9803e-19)
(0.528442 0.619658 -2.99517e-19)
(0.366434 2.13447 0)
(0.40432 2.74483 -9.02825e-20)
(0.414098 2.47962 0)
(0.724696 0.680615 -7.81764e-19)
(0.790548 0.687001 1.08897e-18)
(0.797126 0.655699 -1.03225e-18)
(0.69818 0.639888 -9.92811e-20)
(0.757868 0.59862 -4.08808e-19)
(0.971877 2.75437 -6.70864e-20)
(1.01437 2.7606 -1.94733e-19)
(0.554341 2.20996 4.16283e-19)
(0.605934 1.73648 -3.32348e-19)
(0.704884 1.85511 -4.7781e-19)
(0.978001 2.39475 -1.36057e-19)
(0.977767 2.34823 3.4947e-19)
(0.648214 1.76672 3.22468e-20)
(0.454513 1.29859 1.6721e-19)
)
;

boundaryField
{
    wall-4
    {
        type            noSlip;
    }
    velocity-inlet-5
    {
        type            fixedValue;
        value           uniform (1 0 0);
    }
    velocity-inlet-6
    {
        type            fixedValue;
        value           uniform (0 3 0);
    }
    pressure-outlet-7
    {
        type            zeroGradient;
    }
    wall-8
    {
        type            noSlip;
    }
    frontAndBackPlanes
    {
        type            empty;
    }
}


// ************************************************************************* //
