/*--------------------------------*- C++ -*----------------------------------*\
  =========                 |
  \\      /  F ield         | OpenFOAM: The Open Source CFD Toolbox
   \\    /   O peration     | Website:  https://openfoam.org
    \\  /    A nd           | Version:  6
     \\/     M anipulation  |
\*---------------------------------------------------------------------------*/
FoamFile
{
    version     2.0;
    format      ascii;
    class       volScalarField;
    location    "100";
    object      p;
}
// * * * * * * * * * * * * * * * * * * * * * * * * * * * * * * * * * * * * * //

dimensions      [0 2 -2 0 0 0 0];

internalField   nonuniform List<scalar> 
918
(
0.541801
1.22577
0.00711797
0.541712
-0.0116292
1.19262
-0.50105
0.63857
0.522955
-0.120212
-0.0839365
0.524963
1.0504
0.817455
-1.161
-0.0254018
0.637964
-0.416028
0.521028
-0.096755
0.649185
0.529628
0.532092
0.522876
0.584874
0.769951
0.928446
-0.00373698
0.0128528
0.00747075
-0.0131266
-0.0334981
-0.0307526
1.07573
1.12763
1.151
0.489422
0.323293
-0.395474
-0.450796
-0.427864
-0.517964
0.639083
0.63967
-0.224534
0.638207
0.637119
0.508626
0.522348
0.523185
0.524307
0.523218
0.524495
0.40458
-0.127687
-0.155032
-0.104585
-0.103786
0.0240066
-0.0862088
-0.087231
-0.0816445
-0.083616
0.438361
0.519739
0.516352
0.529221
0.538255
1.16594
1.13986
1.1661
1.07549
1.09342
1.02751
1.00073
0.838704
0.862232
0.800681
0.787045
-1.61212
-2.55106
-0.588344
-0.315774
-0.0111513
-0.0273202
-0.0260233
0.633374
0.635122
0.635814
0.638547
1.04503
-0.386936
-0.459413
0.521573
0.520103
0.529148
0.530054
0.525021
0.525018
-0.0926569
-0.0908074
-0.0808307
-0.0935718
-0.0922167
0.628899
0.631749
0.522311
0.519752
0.546391
0.568784
0.557392
0.255053
0.595652
0.611317
0.634667
0.780365
0.766944
0.77953
0.903723
0.87159
0.960388
0.982215
0.0148032
-0.00193366
-0.0262677
-0.0236005
-0.0240297
0.485157
0.478714
0.507023
0.49305
0.496098
0.229638
0.0809162
0.404602
0.427582
-0.319253
-0.370301
-0.455443
-0.45347
-0.561729
0.60987
0.640864
0.640041
-0.236005
-0.163262
-0.291645
-0.104989
-0.162707
0.499562
0.505824
0.501893
0.5173
0.51146
0.513888
0.526416
0.523602
0.525194
0.452961
0.584813
0.332159
0.291398
-0.275691
-0.173091
-0.256598
-0.0963078
-0.0956111
0.0332212
0.0619631
0.0111785
-0.00114649
-0.091099
-0.0882819
-0.0903027
-0.084453
-0.0869192
0.429792
0.416706
0.449637
0.457178
0.506315
0.507684
0.512257
0.510234
0.952704
0.975537
0.980972
0.956981
-3.51988
-6.13461
0.0236366
0.180584
-0.0104972
-0.0123708
-0.00075569
-0.0106351
-0.00199075
-0.00328189
-0.0368992
-0.0361499
-0.0290508
-0.0302996
0.630261
0.63174
1.01864
1.04489
0.983681
0.960149
0.510942
0.512812
0.517433
0.514318
-0.0871978
-0.0893763
-0.0881622
0.635583
0.633316
0.634469
0.21349
0.124189
0.307008
0.338355
0.62746
0.61591
0.625913
0.694553
0.733758
0.998771
1.02165
1.00673
1.01857
1.06889
1.09177
1.05701
0.463681
0.474635
0.468889
0.509822
0.507662
0.508598
0.505254
0.506149
0.504833
-0.0296492
-0.398322
0.476006
0.477334
0.469709
0.472388
0.697568
0.782044
0.636351
0.639238
0.639255
-0.0527752
-0.0999042
0.238325
0.201964
0.368621
0.403412
0.385126
0.92774
0.887104
0.93551
0.910603
0.875348
0.899798
-0.33361
-2.08734
-1.08661
0.57635
0.381227
0.472113
-0.0189888
-0.0365612
-0.0328197
1.03334
1.07254
0.651846
0.840348
0.791734
0.756234
0.782562
0.846059
0.778468
0.81321
0.843791
0.819272
0.558181
0.486541
0.505213
0.857742
0.9137
0.0861352
0.00614939
-0.0166159
0.0863987
0.157748
0.124303
1.04952
0.966807
1.02941
0.519995
0.520949
-0.0232018
-0.0521984
0.525067
0.524778
-0.0240914
-0.0148759
0.486977
-0.926765
0.0865722
0.514624
0.504199
0.521066
-0.100022
0.308804
-0.0890155
0.00216089
-0.0298957
0.515731
0.450759
0.40832
-0.0119348
-0.0353794
-0.0886572
-0.209816
0.517733
0.516089
0.520457
0.521274
0.522054
-0.0325727
-0.033185
-0.0222837
-0.0782966
-0.0720879
-0.0846954
0.484286
0.50431
-0.190503
0.520752
0.52286
0.522552
0.516799
0.521714
0.520362
-0.0269164
-0.0297531
-0.0316407
0.193057
0.335278
0.669359
0.743778
0.618477
0.453091
0.164749
0.607136
0.658522
0.584153
0.714556
0.63878
0.636941
0.15333
0.00888471
0.157992
0.0909466
0.511426
0.510884
0.501714
0.498589
0.515914
0.513594
0.518785
0.51605
0.519217
0.520352
-0.0597195
-0.0846011
-0.103078
-0.14571
0.264909
0.539558
0.22371
0.284081
0.142814
-0.0804832
-0.0778937
-0.0842147
-0.0870446
-0.049448
-0.0496823
-0.00400628
0.00697064
-0.0108821
-0.0367162
-0.0583697
-0.0501821
-0.0590614
0.508887
0.508878
0.51417
0.522982
0.460419
0.464124
0.430422
0.449164
0.435314
0.37523
0.40495
0.382075
-0.0219366
-0.0135913
-0.0138032
-0.03661
-0.0354642
-0.0585789
-0.0517489
-0.050081
-0.0484619
-0.053202
-0.0820899
-0.0877509
-0.173232
-0.29374
0.965841
0.91711
0.141029
0.507611
0.513294
0.510453
0.515219
0.51841
0.519034
0.516597
0.513085
0.504457
0.506109
0.502604
0.503678
-0.127768
-0.23896
-0.0692777
-0.146583
0.152364
0.618624
0.342413
0.286966
0.27222
0.499711
0.686715
0.592928
0.646961
0.618462
-0.390463
0.00384631
-0.326675
0.217111
0.215364
0.696827
0.73835
0.755746
0.712742
0.669259
-0.0154456
0.548607
-0.0747286
-0.0222563
0.171081
0.0507327
0.603411
0.624223
0.630994
0.629509
0.633512
0.632502
0.62309
0.609673
0.633769
0.636662
0.494695
0.221285
0.177267
0.131502
0.623419
0.518816
0.569757
0.48541
0.507046
0.509488
0.508467
0.489093
0.496469
0.492119
0.499367
0.502987
0.510387
0.510551
0.506336
0.50831
-0.0763491
-0.0852388
-0.0679665
-0.123524
-0.130384
-0.173504
-0.0838591
0.0909766
0.040266
0.229809
0.353169
0.0690995
-0.0509434
-0.0338483
0.0189556
0.183834
0.182123
0.0456964
0.148655
0.119735
0.102852
0.220304
0.220209
-0.0553689
-0.0633219
-0.0620305
-0.0683809
-0.0233074
0.100418
0.0707462
-0.036058
-0.0414826
-0.076533
-0.0805425
0.00189686
-0.0440618
-0.0363085
-0.00541801
-0.0643351
-0.0390574
-0.0300645
-0.0388731
-0.0391879
-0.0380924
0.503535
0.505393
0.505537
0.515484
0.52733
0.542427
0.508277
0.48168
0.472682
0.475787
0.448818
0.458057
0.453321
0.469178
0.490835
0.499281
0.497367
0.500085
0.482083
0.483763
0.469116
0.473767
0.442875
0.424035
0.413816
-0.0608039
-0.0287626
-0.0422172
-0.0535496
-0.0288457
-0.0376699
-0.0383322
-0.0193799
-0.0391726
-0.0335245
-0.043169
-0.0502814
-0.0510458
-0.0751386
0.00718249
-0.178411
-0.225708
-0.279871
0.887931
1.02618
0.818156
0.587189
0.595991
0.837529
0.948419
0.54221
0.725501
0.76663
0.575825
0.869404
0.51159
0.51116
0.509005
0.508168
0.509189
-0.0142708
0.0900603
0.0995846
0.160497
0.276343
0.380963
0.317029
0.203308
0.335954
0.360676
0.615249
0.62103
0.580777
0.603083
0.603801
0.409558
0.490362
0.527327
0.485698
0.559589
0.592728
0.538976
0.582195
0.502533
0.453051
0.444281
0.398929
0.433737
0.414633
0.389056
0.503466
0.480136
0.491003
0.481159
0.503339
0.527621
0.52897
0.550908
0.567702
0.481818
0.427161
0.444265
0.473101
0.42915
0.446915
0.469119
0.19132
0.0929043
0.256124
-0.0712551
0.0122345
0.0540426
0.0100804
-0.0310313
0.275491
-0.359701
-0.305784
-0.97903
0.498809
0.824482
0.545529
0.556657
0.631331
0.619445
0.626462
0.625458
0.632332
0.610077
0.619605
0.624164
0.597224
0.617926
0.60566
0.615816
0.495848
0.396177
0.400871
0.330968
0.191697
0.234234
0.421496
0.354933
0.28124
0.273489
0.452029
0.316102
0.396072
0.446098
0.367954
0.304053
0.531706
0.578941
0.571742
0.543596
0.421993
0.45639
0.456942
0.50803
0.552429
0.575407
0.497916
0.504202
0.505113
0.502388
0.500757
0.503878
0.504163
0.506463
0.506597
0.50919
0.508689
-0.0776142
-0.0637533
-0.0756968
-0.0849646
-0.0232841
-0.0346401
-0.00146381
-0.0334149
-0.0350342
-0.0304836
-0.0464536
-0.0598631
-0.0589997
-0.0502123
0.0666826
0.0845415
0.0869972
0.0448186
0.260496
0.383874
0.448286
0.346324
0.195481
0.199444
0.264785
0.026296
0.00570186
-0.0066101
0.0664737
0.0581854
-0.0674093
-0.0732597
-0.0722658
-0.055569
-0.0482646
-0.0775145
-0.0807033
-0.0674918
-0.075119
-0.0793503
-0.0842197
0.483358
0.476257
0.479871
0.472284
0.470439
0.487375
0.491952
0.493087
0.498706
0.501246
0.490764
0.496591
0.500739
-0.040349
-0.0578658
-0.0569246
-0.0608594
-0.0576195
-0.0561079
-0.0613046
0.129676
0.03447
0.0707763
8.72149e-05
-0.127482
-0.0680963
0.503541
0.495123
0.482225
0.723771
0.55959
0.477894
0.576013
0.697617
0.278394
0.477863
0.313026
0.891626
0.797802
0.943477
0.557907
0.256924
0.430459
0.437497
0.277986
0.403927
0.341172
0.2168
0.252323
0.288013
0.372248
0.256769
0.236107
-0.00728281
0.175337
0.284273
0.266216
0.392089
0.447864
0.2689
0.183719
0.129201
0.596653
0.61285
0.621193
0.592422
0.613868
0.570656
0.561448
0.579372
0.588201
0.582582
-0.613593
-0.202733
-1.4016
-0.82121
-0.369461
0.52657
0.53158
0.749114
0.64739
0.652656
0.634617
0.590247
0.570812
0.598517
0.610152
0.319926
0.405024
0.391439
0.367416
0.313981
0.256739
0.530034
0.539882
0.561227
0.589379
0.565154
0.59328
0.496684
0.496524
0.495196
0.491449
0.489955
0.493206
0.0182128
-0.00611844
0.0300825
0.0166931
-0.00424204
-0.00652621
-0.0489024
-0.0613239
-0.0601106
-0.0563751
-0.0458483
-0.0445852
0.176949
0.114207
0.024951
0.0668098
-0.00131305
-0.0788861
-0.0848722
0.00701582
0.107038
0.0877425
0.393647
0.66276
0.487525
0.654251
0.451271
0.551517
0.465033
0.438631
0.465567
0.372262
0.463252
0.0655835
-0.136886
-0.191688
0.819441
0.784446
0.561839
0.322666
0.200395
0.487731
0.508959
0.469284
0.504487
0.54718
0.538714
0.0338171
0.117554
0.210368
0.513565
0.285322
0.305311
0.294918
0.462611
0.43037
)
;

boundaryField
{
    wall-4
    {
        type            zeroGradient;
    }
    velocity-inlet-5
    {
        type            zeroGradient;
    }
    velocity-inlet-6
    {
        type            zeroGradient;
    }
    pressure-outlet-7
    {
        type            fixedValue;
        value           uniform 0;
    }
    wall-8
    {
        type            zeroGradient;
    }
    frontAndBackPlanes
    {
        type            empty;
    }
}


// ************************************************************************* //
