/*--------------------------------*- C++ -*----------------------------------*\
  =========                 |
  \\      /  F ield         | OpenFOAM: The Open Source CFD Toolbox
   \\    /   O peration     | Website:  https://openfoam.org
    \\  /    A nd           | Version:  6
     \\/     M anipulation  |
\*---------------------------------------------------------------------------*/
FoamFile
{
    version     2.0;
    format      ascii;
    class       surfaceScalarField;
    location    "100";
    object      phi;
}
// * * * * * * * * * * * * * * * * * * * * * * * * * * * * * * * * * * * * * //

dimensions      [0 3 -1 0 0 0 0];

internalField   nonuniform List<scalar> 
1300
(
3.75095
5.62643
-3.30104
3.75095
-7.7615
5.62643
-4.29361
4.29361
-0.402436
0.402436
1.8765
1.87445
-2.43529
2.43529
-1.66973
1.66973
-2.52538
2.52538
-5.24819
5.24819
-5.06895
5.06895
4.69247
-4.69247
-6.35225
6.35225
-0.969136
0.969136
-3.58909
3.58909
3.17234
-3.17234
-1.73349
1.73349
0.111606
-0.111606
-0.554079
4.30503
3.19687
3.19687
-1.98794
1.98794
-4.87535
4.87535
6.2217
-6.2217
5.19547
-5.19547
-1.89444
-2.53632
1.78876
-11.4462
-5.97273
-5.97273
-8.44087
8.44087
-2.81444
2.81199
2.94736
-2.94736
-1.71271
1.71271
-4.31142
0.0178093
-4.31142
4.26303
0.0305768
4.26303
-0.512379
0.109943
-0.512379
3.9656
-3.9656
0.307904
0.0945326
0.307904
3.06734
-3.06734
-1.87685
3.75335
1.8741
-1.8721
6.17713
-1.87885
3.7533
-6.03979
6.03979
-2.68545
0.250162
-2.68545
2.20154
0.233742
2.20154
-6.90236
6.90236
-1.76842
0.0986944
-1.76842
1.683
-0.0132655
1.683
2.88873
-2.88873
-2.62558
0.100205
-2.62558
2.39213
0.133247
2.39213
0.353051
5.27338
-5.97948
8.79147
-5.27338
0.0251908
5.21021
0.0379809
5.21021
-5.10538
0.0364367
-5.10538
5.01384
0.0551048
5.01384
4.77897
-0.0865011
4.77897
-4.81434
0.121871
-4.81434
-3.35421
-4.08148
-6.51293
0.160689
-6.51293
-1.03376
0.0646209
-1.03376
0.862089
0.107046
0.862089
-3.72388
3.72388
-3.94832
0.359236
-3.94832
3.12727
0.0450684
3.12727
1.86812
1.88284
5.61907
-5.61907
2.44673
-1.66297
-0.0705155
-1.66297
-1.82467
-3.37081
1.82467
-0.091181
-0.127576
0.239182
-0.127576
3.15713
0.03974
3.15713
2.23934
0.152792
-2.23934
0.251402
3.30378
-3.30378
1.32577
0.66217
1.32577
-5.55854
5.55854
4.96232
0.0515219
-4.96232
0.0869732
6.15655
0.0651522
6.15655
-6.20694
-0.0147599
-6.20694
2.48133
-5.01765
-2.69688
6.16325
0.188996
-6.16325
0.190515
2.91896
0.0283995
2.91896
-2.91744
2.91744
-2.98432
0.0369574
-2.98432
-2.13564
0.422929
-2.13564
1.39847
0.314244
1.39847
-4.22655
-0.0848701
-4.22655
-4.10751
0.159193
4.10751
0.155519
1.11262
-1.11262
-0.614099
0.10172
-0.614099
-4.0733
-0.153248
4.0733
-0.107702
-3.90239
-0.0632119
-3.90239
-3.02197
0.0376598
3.02197
0.0453669
3.11214
0.0449972
-3.11214
0.0447953
-1.87099
3.75383
-1.87996
3.75406
-5.67472
-0.36507
-5.67472
6.36222
-0.322436
6.36222
3.109
0.480088
-3.109
0.423549
2.01523
0.186312
2.01523
-6.87332
-0.0290456
-6.87332
6.91102
-0.00865478
6.91102
1.87418
0.141054
-1.87418
0.105754
1.67115
0.0118409
1.67115
2.91647
-0.0277417
2.91647
-2.88225
-0.0064764
-2.88225
2.78856
-2.78856
2.71353
0.0750298
-2.71353
0.0879473
-11.1249
11.1101
-0.036324
-11.0886
5.17388
5.17388
4.23076
0.548203
4.23076
-5.01284
0.1985
-5.01284
2.67186
-5.36873
3.12882
-6.48303
4.67216
-16.1183
4.27591
-8.35738
6.76297
-6.76297
6.64532
0.117645
-6.64532
0.132391
-1.14391
0.110157
-1.14391
-3.12715
-0.596725
-3.12715
4.36583
-0.641957
4.36583
-3.02727
3.02727
-3.07615
0.0488714
3.07615
0.0511224
1.65097
0.020186
-1.65097
-0.0120032
0.210672
0.0972315
-0.210672
0.0830965
3.52782
-0.22404
3.52782
-3.09819
-0.205581
-3.09819
-1.23521
0.0912964
1.23521
0.0905553
-5.80739
0.248857
-5.80739
-11.1823
0.0937551
-11.1443
-6.11319
-6.11319
2.32769
11.1192
-2.89741
0.0151604
2.89741
0.021545
2.97429
0.0529816
-2.97429
0.056852
-2.8555
0.0669395
2.8555
0.0619428
-2.50371
0.368063
-2.50371
-1.01504
1.01504
-1.16183
0.146787
1.16183
0.236639
1.41589
-0.303277
1.41589
0.746801
0.115288
-0.746801
0.132703
-3.84531
-0.0570741
-3.84531
6.5955
-0.233271
6.5955
-2.96872
-0.129475
2.96872
-0.0522488
-0.0347568
11.1449
-5.13913
0.0337422
5.13913
-11.21
11.2438
-3.20855
0.704849
3.20855
1.02221
5.28349
0.275046
-5.28349
0.270653
6.85246
0.0585616
-6.85246
0.0894876
-2.63578
-0.491375
-2.63578
-5.09568
-0.579036
5.09568
-0.72985
-11.4823
-0.202188
11.6845
-11.4272
6.00958
0.146969
-6.00958
11.3908
-0.986732
-0.125884
0.986732
0.0283121
1.75708
-0.341186
1.75708
3.74758
-0.219764
-3.74758
-0.097734
-6.75971
-0.11361
6.75971
-0.164213
-2.18653
-0.449249
2.18653
-0.429447
-4.2674
4.30714
1.90974
-2.31423
-2.70342
-5.68503
1.8553
1.89853
4.30203
-10.1351
-5.98322
-9.9446
7.21505
-6.9444
-9.31302
9.22652
7.94804
-8.01125
-5.77724
5.82836
6.48485
-6.43948
1.8795
1.87386
8.08619
-7.83603
-15.6742
15.3091
7.6797
-7.58101
15.8011
-15.8301
-17.8388
17.8974
-5.70573
5.80594
-6.74301
6.73654
-6.98019
6.92794
-2.79655
-3.68648
13.1011
-12.9404
8.67589
-8.7464
-8.69784
9.05707
3.38462
0.922513
3.42962
-1.88177
3.76127
-1.87154
3.78127
2.79168
-5.58823
2.57705
-5.28048
4.42618
4.24971
-4.335
-1.35003
-5.92892
5.95732
-5.80996
5.87191
9.20174
-9.18393
-1.88499
3.75884
-1.86908
3.76761
-3.42278
-2.35446
3.37771
0.924326
8.05366
5.04744
-8.24266
-1.70195
-8.03304
7.81327
-8.21807
8.01249
-0.436191
5.83867
-5.40248
4.43916
-1.65345
7.49212
5.56161
5.76011
5.86075
-5.5857
1.08365
-6.48613
-6.39916
-2.20978
2.3115
2.04223
-1.9477
6.16281
1.78523
6.0551
-5.81386
-2.19739
-5.87093
3.81965
2.00871
3.86852
4.08225
2.4026
4.11991
3.02938
-3.03687
0.00748969
-3.05944
6.08882
0.721968
-5.4139
-4.48958
4.99917
3.08702
5.23291
-5.60479
-2.23124
-5.18124
-9.58846
-6.08575
-10.1675
10.1541
5.15505
9.83165
-11.9327
11.7685
4.91937
2.76033
4.90611
-4.98702
-2.59399
-4.88127
11.6606
-2.65297
-9.00759
-10.3163
-7.52248
10.325
5.47612
10.9585
6.93889
11.048
4.41683
7.24373
-9.89295
2.37047
-3.86608
-1.83966
-3.77813
3.665
2.14093
3.79825
-4.21893
-2.52409
-4.20377
-4.2953
-2.68488
4.32304
2.41349
-4.41783
-3.80025
4.5473
2.38064
4.0578
-10.041
4.29959
-7.98607
-9.18986
-3.75055
-9.05746
3.59095
2.59975
-6.19069
-1.99728
8.6278
-4.37809
7.27776
-5.23264
-3.51377
-5.24464
-6.98593
-1.71191
-6.82674
-8.90254
8.41116
-9.18502
8.54306
12.4919
-5.62954
-6.86237
-3.96705
-2.47243
3.92226
-0.492637
-3.71006
3.71755
0.0512038
3.83248
4.75499
4.26235
-3.88293
-1.92703
-3.82608
3.8225
2.04941
3.88944
6.8691
2.33264
6.89968
-6.63175
-2.55218
-6.71662
9.07976
-8.65683
2.79412
-2.70282
5.38052
2.63198
-5.15648
-2.87656
6.23388
-3.20829
-3.02559
-12.3508
10.7794
1.5714
-4.85867
-0.41951
-0.531117
-5.56304
-3.74998
5.44117
0.31894
11.0983
7.34834
-5.51466
5.76352
6.16982
6.22135
-0.177815
5.87505
-5.1702
5.28102
-2.73452
-2.5465
5.48982
-5.64307
-1.2268
-5.56677
4.33997
0.412036
1.43389
-1.19471
-1.74651
-0.463265
-1.61381
1.0867
0.955527
1.18394
0.957036
1.35446
-2.93877
0.483294
2.45548
-1.98174
-1.4644
-3.81326
-1.14992
4.96318
5.74023
2.07305
-5.64249
-0.228442
2.54887
-2.44182
-0.83848
-2.97478
2.21705
-3.05553
-3.45442
-1.95942
5.41384
-3.36884
-0.457243
3.31586
0.552661
-3.82826
-2.10065
3.79131
0.328601
-3.12896
6.19029
-3.06133
-5.05599
2.52906
3.55977
4.53777
-4.78988
2.44928
2.34059
-1.23011
4.2595
0.973406
4.44582
-7.08529
4.85405
5.75089
3.30619
-6.23098
1.04974
-6.03556
8.56492
-7.42112
-1.1438
4.10103
4.46389
7.02352
5.46839
-5.6862
12.7097
-1.17297
-6.24815
7.20853
-3.90234
4.87784
-8.78019
-10.3462
4.09809
-9.18941
11.0889
-1.89946
-3.58282
-8.34992
12.7722
-1.24847
-11.5238
8.58319
-4.3667
-4.4332
8.7999
-7.01967
7.02719
-1.98899
-5.0382
-10.1408
-5.68938
10.2544
1.51416
-9.96832
12.3388
-2.72459
4.16643
0.739677
4.17827
3.37993
-5.47387
2.09394
3.63974
-5.62873
2.03779
-7.51166
-6.74537
12.0818
-5.33648
-10.4959
-9.5311
-0.964825
2.55004
9.78874
-9.48893
7.42295
2.06598
3.29852
0.590914
-3.37355
-0.404579
0.23108
4.50732
-4.7384
4.02933
4.18212
3.21551
1.29182
3.84958
2.10774
-3.87113
-0.332642
-4.16873
1.48384
-1.75523
-3.69327
5.17712
-4.06201
0.368735
-2.74142
-3.49239
6.23381
-4.58107
3.03552
3.15477
5.08493
-4.91428
1.42189
-2.39075
-2.52353
2.64012
-4.39535
2.00116
3.17596
4.38179
0.581547
5.90636
6.17549
-8.50611
0.520042
11.2229
-9.52098
2.47507
8.57289
-9.89803
0.36693
-8.69053
0.984484
-5.36257
-5.20621
5.23783
-6.94974
-3.54235
6.26631
0.633364
-6.42183
-0.404905
-6.04935
-2.85319
-6.4986
-3.0395
-6.14552
-8.7257
-1.66892
-7.05678
6.74224
-6.68841
-3.47909
7.41826
1.1248
-7.46208
7.3362
-7.51874
7.17756
0.0951435
3.62241
4.3575
1.88507
-2.3923
4.27737
-5.08843
7.42107
-8.77253
3.68409
4.2539
-6.80608
-4.51863
5.04366
4.0361
5.35791
8.90396
-10.3551
1.45117
-10.6227
11.9623
-1.33965
-16.3915
5.76879
-7.48749
2.40743
0.386684
2.51759
0.547967
2.49064
-3.03861
-2.15485
-2.0643
-2.44566
-3.49424
5.93989
1.06304
-3.4779
2.41485
-3.56328
4.62632
-0.0846311
-3.39326
5.17559
-2.68494
5.56227
-3.64791
1.91435
3.54894
5.83892
-2.28998
4.41894
-1.78696
1.95186
-4.24185
-1.54237
-2.95352
5.09446
-3.28028
3.64902
-0.356052
4.00507
-4.04493
0.83664
-0.829426
3.3527
3.6041
4.3327
-3.04088
2.93474
-4.7217
-1.30711
-4.14015
-0.964192
-0.182615
-3.77143
3.95404
5.98902
-6.17163
-5.27469
9.50994
-4.23525
7.68841
-5.43112
-2.25729
-4.27892
-4.37792
3.91085
1.9642
9.65261
0.177002
-5.60812
-4.9932
-3.97099
3.09233
2.18869
-1.70117
3.27257
2.23228
-0.798389
0.404366
0.779569
1.75633
-1.35197
0.332047
1.42429
-0.862665
1.68631
0.862556
-1.8016
0.18779
-1.37836
3.59541
1.07712
-2.03265
0.680679
0.897627
-3.63215
5.10444
-2.73864
-2.3658
6.00207
1.14863
-3.88726
4.41814
-4.00611
2.45953
-3.60945
-1.42773
-5.43384
-3.64861
-2.47935
4.8942
-3.46054
5.53359
1.43978
-5.30515
6.74493
-3.6292
1.66978
-3.05187
3.91443
-0.997127
-2.05475
2.8725
2.54134
-3.14396
0.169182
-0.271462
2.41517
-2.68663
-0.640369
-2.62211
-4.57618
4.90478
-2.10379
4.55307
2.17358
-1.91779
6.47086
1.80757
-3.72536
-3.24842
-3.70566
-1.38477
3.153
-0.568438
-4.31283
-5.60663
4.17178
0.274039
-7.09747
7.95013
-0.85266
-4.01045
-0.843602
4.94463
-6.09534
0.466608
-4.05755
3.89258
4.86599
5.14003
-11.2906
-0.233115
-6.1356
1.08837
-7.22397
5.55226
-3.55073
7.64881
-10.2838
6.8047
-9.15899
6.50501
-0.718958
6.23686
-4.14291
2.77073
-8.46012
-6.94596
5.60177
-2.84144
6.34144
-3.23387
9.57532
-5.95846
5.3979
4.17742
-1.04723
-4.1974
-5.39895
4.35172
-0.00105374
4.17722
4.98727
-2.87954
4.65463
2.26481
-4.65556
-2.13055
-6.48889
1.83334
-3.33412
-1.92247
3.75581
3.16245
3.75337
1.23228
-3.34879
7.2493
-8.21413
-1.91282
-3.29339
5.39165
-1.03993
3.48469
-6.77808
-1.87788
4.73416
-0.722451
-4.01171
0.895383
-4.43774
1.67705
-6.11479
5.27269
-5.6776
2.25302
-9.74052
-5.20906
-5.18074
-2.27633
-5.24241
-7.5593
5.28297
-1.79051
5.54569
-8.49496
7.77251
-3.46735
8.75032
-5.44567
-1.05293
5.87512
1.30244
10.0528
0.165785
-4.68441
-1.94388
3.71762
-1.77374
1.14845
-3.60564
0.11198
2.50027
3.5018
-6.84024
0.0341605
-4.65025
-3.90263
7.93873
5.60731
11.5963
1.2412
9.12312
-1.1844
10.3643
4.17351
4.41015
-2.99627
4.44744
0.957773
4.64187
-0.893641
2.808
1.62395
1.68857
0.753251
2.2872
1.3169
3.12384
0.0852328
-1.97907
4.62786
-8.59885
-0.980258
-8.05065
1.17587
5.43538
-4.25951
2.84557
-0.656884
1.07183
-0.200174
-1.12055
1.32072
-2.74667
-1.91894
-0.494653
-1.68571
2.36639
1.9097
-1.87174
-0.874932
0.325728
-3.97434
3.28373
-3.11454
-0.573206
6.17173
-2.88514
0.198515
-1.21536
-2.42359
-2.88685
2.69906
6.17456
0.296306
3.11323
5.20109
3.10043
0.220895
3.7751
-5.67456
-3.73656
-5.90767
-0.355409
4.58922
1.76274
8.026
5.94016
4.90023
-1.87785
-10.092
6.49748
-2.05004
5.15783
-1.14612
-4.96866
5.08605
2.33502
-5.71941
0.0418173
-4.92685
-6.97689
-0.477277
8.24978
-9.57548
8.52256
5.66936
1.38742
-4.42337
-0.757369
4.27659
0.133564
10.4979
-0.920028
-7.02524
7.94527
-4.51535
3.53509
0.676349
2.59622
1.99707
1.34019
-5.68505
-9.94456
-2.06361
-1.56854
-4.42941
0.533775
-2.44348
6.06096
-2.52587
3.80367
5.4194
6.49123
-2.05046
-4.12117
6.28571
-2.48204
4.00919
)
;

boundaryField
{
    wall-4
    {
        type            calculated;
        value           uniform 0;
    }
    velocity-inlet-5
    {
        type            calculated;
        value           uniform -3.75095;
    }
    velocity-inlet-6
    {
        type            calculated;
        value           uniform -5.62643;
    }
    pressure-outlet-7
    {
        type            calculated;
        value           nonuniform List<scalar> 8(3.30104 7.7615 4.43076 9.65741 7.43569 5.17821 5.80067 8.94807);
    }
    wall-8
    {
        type            calculated;
        value           uniform 0;
    }
    frontAndBackPlanes
    {
        type            empty;
        value           nonuniform 0();
    }
}


// ************************************************************************* //
