/*--------------------------------*- C++ -*----------------------------------*\
  =========                 |
  \\      /  F ield         | OpenFOAM: The Open Source CFD Toolbox
   \\    /   O peration     | Website:  https://openfoam.org
    \\  /    A nd           | Version:  6
     \\/     M anipulation  |
\*---------------------------------------------------------------------------*/
FoamFile
{
    version     2.0;
    format      ascii;
    class       volVectorField;
    location    "100";
    object      U;
}
// * * * * * * * * * * * * * * * * * * * * * * * * * * * * * * * * * * * * * //

dimensions      [0 1 -1 0 0 0 0];

internalField   nonuniform List<vector> 
918
(
(0.985049 -0.000715877 0)
(0.00543953 2.96618 0)
(-0.00419551 0.871679 0)
(0.979576 0.00196179 0)
(-0.0145225 2.06528 3.31339e-20)
(-0.00719034 2.9486 -2.55542e-18)
(0.822795 1.12567 4.42658e-19)
(0.119298 0.0865863 -1.4252e-20)
(0.999922 -0.000245915 0)
(0.0943036 0.675231 0)
(0.0216337 0.34798 0)
(0.732916 0.00910453 0)
(0.0101792 2.93181 0)
(0.00326024 2.79441 0)
(-0.00293947 3.17522 8.21196e-19)
(-0.0129753 1.93382 2.47662e-20)
(0.296955 0.0450378 9.95285e-19)
(0.235313 1.11276 3.50106e-19)
(0.964307 0.00674194 0)
(-0.00285952 0.327761 0)
(0.0575223 -0.0721915 -6.44734e-19)
(1.00183 -0.0045591 0)
(0.999851 -0.00892561 0)
(0.97517 -0.00605161 0)
(0.592556 0.0285219 0)
(0.0208324 2.64502 0)
(-0.0121919 2.91147 9.35661e-19)
(-0.00636964 0.923174 0)
(-0.0372481 1.17225 0)
(-0.00382177 0.890255 0)
(-0.0248881 2.58279 0)
(-0.00531317 2.11619 -2.64664e-20)
(-0.0101404 1.90553 0)
(-0.0219322 2.98768 -9.20571e-23)
(-0.0163829 3.00545 1.98324e-18)
(0.00231062 3.00044 0)
(0.871991 -0.00976474 0)
(0.37156 0.908545 1.70224e-19)
(0.821699 1.14432 -5.497e-19)
(0.954323 1.01052 5.6365e-19)
(0.684022 1.22732 -1.01242e-19)
(0.697534 1.18734 5.78e-19)
(0.149533 0.126189 1.39023e-20)
(0.151665 0.0941885 0)
(1.17039 0.533062 0)
(0.118714 0.108672 6.25958e-20)
(0.0958387 0.0722649 -6.49619e-20)
(0.920572 -0.00704563 0)
(1.00027 5.15961e-05 0)
(0.999907 0.000321122 0)
(1.0037 -0.00727943 0)
(1.00088 -0.000949811 0)
(1.00011 -5.20728e-06 0)
(0.0776055 1.83344 -7.67479e-19)
(0.0339954 0.847426 0)
(0.129734 0.766723 0)
(0.018061 0.787548 0)
(0.0559536 0.591093 0)
(0.00582681 2.03667 0)
(-0.00730332 0.683581 0)
(0.0134407 0.403917 0)
(-0.0127166 0.676892 0)
(0.0117344 0.351047 0)
(0.843825 -0.0156269 0)
(0.842207 0.0258122 0)
(0.757168 0.00546872 0)
(0.800107 0.0269737 0)
(0.701837 0.0203528 0)
(0.0137989 3.00031 9.48655e-19)
(0.0109395 3.00667 0)
(0.00586071 3.00352 0)
(0.0118441 2.99746 1.07686e-23)
(0.00802027 2.95884 -1.40993e-18)
(0.0122298 2.98281 0)
(0.00923129 2.90491 0)
(0.0210088 2.93146 2.18093e-24)
(0.0038103 2.82435 0)
(0.0260258 2.91882 0)
(-0.000646984 2.74514 0)
(0.303805 3.56787 0)
(-0.122098 3.6504 0)
(0.147828 3.26572 -7.64258e-19)
(0.00227477 3.00499 0)
(-0.03373 1.98975 0)
(-0.00742454 2.18231 -2.44262e-20)
(-0.00869258 1.94601 2.51465e-20)
(0.347883 0.138941 -3.45627e-19)
(0.322892 0.0160165 -3.35721e-19)
(0.302021 0.157741 -1.03311e-18)
(0.262641 0.0674708 -6.71339e-19)
(0.264948 1.02535 0)
(0.334903 1.24448 -3.62361e-19)
(0.416806 1.15502 5.9821e-19)
(0.987683 0.00817466 0)
(0.943185 0.00577631 0)
(1.00028 0.000672282 0)
(1.00254 0.00906642 0)
(1.0031 0.00899949 -2.66722e-18)
(0.992134 0.00941033 2.01546e-18)
(-0.0243055 0.699433 0)
(0.00209852 0.335527 0)
(-0.0575013 1.01484 0)
(-0.0381588 0.761277 0)
(-0.0213829 0.331043 0)
(-0.0780562 0.0720545 2.00509e-19)
(0.037013 0.0588806 0)
(0.993627 -0.00769132 0)
(0.954056 -0.00648443 0)
(0.742377 0.0267459 0)
(0.673481 0.0251629 0)
(0.660525 0.026945 0)
(0.980789 -0.00241789 0)
(0.582695 0.0671049 0)
(0.453608 -0.00987878 1.51347e-18)
(-0.0410847 2.86001 7.2941e-19)
(0.0338635 2.91431 0)
(0.0427837 2.89274 0)
(0.00320607 2.70251 0)
(-0.00875617 2.98636 8.94068e-19)
(-0.0139036 2.89423 0)
(-0.0109908 2.9915 -2.75547e-18)
(-0.0116416 2.929 9.38758e-19)
(-0.0562815 1.35514 0)
(-0.022176 1.3847 0)
(-0.00790475 2.14332 8.64664e-22)
(-0.00807751 2.10209 0)
(-0.0168208 1.91688 0)
(0.938936 -0.00519056 0)
(0.857358 -0.0111678 0)
(0.862568 0.00575222 0)
(0.949712 -0.00613546 0)
(0.883716 -0.00810197 0)
(0.494594 1.10811 -2.15698e-19)
(0.542222 1.17826 0)
(0.333525 0.842725 3.26212e-20)
(0.278713 0.707795 0)
(0.923159 1.03989 -1.58994e-19)
(1.04638 0.849823 3.20404e-19)
(0.395217 1.3228 0)
(0.546067 1.27847 0)
(0.600338 1.20477 0)
(0.104092 0.179019 -3.02751e-19)
(0.174272 0.140303 0)
(0.170745 0.109561 1.86636e-19)
(1.00932 0.903895 0)
(1.08484 0.751658 0)
(1.11453 0.686786 -2.56131e-19)
(1.15057 0.597191 0)
(1.20674 0.391328 4.76174e-20)
(0.957536 -0.00709302 0)
(0.962753 -0.00810651 0)
(0.900945 -0.00737787 0)
(0.983935 -0.00812034 0)
(0.974442 -0.00802886 0)
(0.936559 -0.00656683 0)
(1.0002 0.00250708 0)
(1.00078 0.00123869 0)
(1 0.00075939 0)
(0.0392098 2.08397 4.21728e-19)
(0.14263 1.78018 0)
(0.0171934 2.18901 6.58434e-19)
(0.0519919 1.89029 -5.40742e-19)
(0.168718 1.08749 -2.87225e-19)
(0.0505724 0.935301 0)
(0.123813 0.942675 0)
(0.00633782 0.74902 0)
(0.0313509 0.517477 0)
(-0.00234099 2.26099 -3.05415e-22)
(0.0214487 2.04265 0)
(-0.00454564 2.26099 -4.37389e-21)
(0.00351179 2.0486 -4.38995e-21)
(-0.000718899 0.717568 0)
(-0.00401002 0.696557 0)
(0.0149731 0.455267 0)
(-0.0171265 0.680495 0)
(0.00630102 0.347273 0)
(0.93961 0.0139381 0)
(0.856651 -0.011515 0)
(0.928746 0.00491724 0)
(0.846386 -0.0127997 0)
(0.808995 0.00254703 0)
(0.899304 0.0199923 0)
(0.875162 0.0234889 0)
(0.782638 0.00268103 0)
(0.0100701 3.06786 -8.82242e-21)
(0.0156035 3.05789 0)
(0.0123132 2.96998 0)
(0.00763767 2.87673 0)
(0.892292 3.95942 0)
(1.18538 3.35629 9.30848e-19)
(0.080074 3.08792 0)
(-0.0182469 2.91661 0)
(-0.0207643 1.41259 0)
(-0.0391276 1.70228 0)
(-0.0284316 1.54105 0)
(-0.0349138 2.54478 -1.57473e-20)
(-0.0210043 2.24298 0)
(-0.025486 2.3862 0)
(-6.55975e-06 1.97658 -1.81534e-22)
(-0.00518047 2.25587 -3.18309e-20)
(-0.00638602 2.21994 -2.57898e-20)
(-0.00493315 1.95944 0)
(0.39127 0.116955 5.29361e-19)
(0.363811 0.0102792 -5.19417e-19)
(0.231453 1.58826 0)
(0.29027 0.770055 -3.27288e-19)
(0.179979 1.68557 -1.06996e-18)
(0.24848 1.22878 1.07159e-18)
(0.901562 0.00601199 0)
(0.966975 0.0106969 0)
(0.974838 0.0098876 0)
(0.922914 0.00588513 0)
(-0.0225505 0.684221 0)
(-0.0230336 0.689887 0)
(0.0012602 0.332286 0)
(0.0875006 0.0984212 5.73401e-19)
(0.0613838 0.0743524 -6.70377e-19)
(0.0594479 0.0621662 0)
(1.10867 0.0911599 2.45634e-20)
(1.09226 0.0430149 0)
(1.01957 0.0439873 0)
(0.914468 -0.00122796 0)
(0.436279 0.0983042 0)
(0.49469 0.0782148 -2.42116e-18)
(0.400242 0.00673129 9.07417e-19)
(0.0102811 2.97709 7.75292e-19)
(-0.0330985 2.86109 4.59877e-20)
(0.00830923 3.05364 -1.86276e-20)
(0.0163854 3.04265 6.93413e-19)
(-0.0117635 2.99991 3.08824e-20)
(-0.0124355 2.95201 -1.24358e-22)
(-0.015099 3.01307 -5.76106e-19)
(0.0153242 3.02553 4.10263e-19)
(0.00804428 3.03582 -6.67204e-19)
(0.934804 0.00216757 0)
(0.939578 -0.00109641 0)
(0.848258 -0.0112085 0)
(0.956219 0.0117831 0)
(0.942281 0.013206 0)
(0.881339 0.0057216 0)
(0.915978 0.0169862 0)
(0.925156 0.0149152 0)
(0.836333 0.00360189 0)
(0.66747 1.40637 7.80929e-21)
(0.685648 1.51686 0)
(0.11716 0.285595 6.83618e-20)
(0.212107 0.648851 5.40643e-19)
(0.237992 0.687049 -3.17021e-19)
(0.211512 0.488764 6.299e-19)
(0.34098 0.83031 1.60163e-18)
(0.135899 0.235747 3.84223e-19)
(0.258869 0.169417 7.1215e-19)
(0.211832 0.161711 1.83997e-19)
(0.219601 0.0977891 3.4981e-19)
(1.19748 0.448732 9.23075e-20)
(1.2217 0.246989 8.9275e-20)
(0.00730982 2.24429 2.4625e-19)
(0.0391061 1.96212 0)
(0.973376 0.0332337 0)
(0.947037 0.0193573 0)
(0.871607 -0.0150439 0)
(0.0129808 3.07333 0)
(0.0166992 2.94385 1.23067e-18)
(0.0138165 2.95652 0)
(0.00569455 2.85011 -1.22119e-18)
(0.00990562 3.08941 3.00514e-19)
(0.0111539 3.08392 0)
(0.704583 1.81207 -1.67176e-19)
(1.2295 2.61637 5.65863e-19)
(0.689341 1.99006 -1.38051e-18)
(0.0217643 2.97595 -6.73062e-19)
(0.0397775 2.99729 0)
(-0.0386941 2.87792 0)
(-0.00631624 2.24048 -1.37133e-20)
(-0.0049603 2.26132 6.2475e-20)
(0.000174433 2.0118 -7.57336e-21)
(0.26838 1.40133 1.03851e-18)
(0.28875 0.573765 -7.12492e-19)
(0.0675194 2.00323 7.49885e-19)
(0.120269 1.87507 -9.02065e-19)
(0.208463 1.53989 1.02655e-19)
(0.00611288 3.12034 -1.66824e-18)
(0.0133357 3.12071 1.83788e-18)
(-0.00525167 2.98042 8.35702e-19)
(-0.00146213 2.97498 -8.00184e-19)
(-0.0175325 2.87702 -8.51198e-19)
(0.0117956 3.10063 -2.23102e-18)
(0.00553597 3.10538 2.26519e-18)
(0.268086 0.695589 0)
(0.218065 0.654653 -1.15344e-18)
(0.074746 0.209029 5.07543e-19)
(0.347358 0.951631 1.13608e-18)
(0.200958 0.28119 -1.74989e-18)
(1.19999 0.176974 4.9918e-20)
(1.21845 0.306605 0)
(1.19545 0.121925 7.36808e-21)
(-0.000348028 2.26886 -1.09939e-21)
(0.00357126 2.25328 0)
(0.0319981 1.99975 0)
(0.312727 1.31628 -3.72671e-19)
(0.354259 1.17855 -8.08231e-19)
(0.234533 0.39334 1.4466e-18)
(1.00644 -0.00967835 0)
(1.00774 -0.00778066 4.90271e-19)
(-0.0495947 1.33817 0)
(-0.0587332 1.34629 0)
(1.00244 0.00326799 1.33426e-21)
(1.0032 0.00781376 1.00644e-18)
(-0.0263396 2.53168 1.99583e-20)
(-0.028863 2.57428 0)
(0.0397942 3.17208 4.75323e-19)
(0.371849 3.53594 0)
(1.15983 0.695895 -5.21354e-20)
(1.01176 0.0106285 -2.86298e-21)
(1.0209 -0.00898628 0)
(1.00157 0.000292412 1.58001e-22)
(0.116876 1.37858 0)
(0.148204 2.5852 0)
(0.0339685 1.32659 0)
(0.000849645 2.63071 -1.09848e-20)
(-0.0210788 2.57765 -1.48102e-20)
(0.998464 0.0312871 2.78214e-21)
(1.06304 0.00591509 0)
(1.10025 0.0285253 0)
(-0.0374615 1.75032 0)
(-0.0199323 2.57671 0)
(-0.0132148 1.33323 0)
(0.309212 1.49413 -1.67873e-19)
(1.01152 -0.00904875 0)
(1.00971 -0.012983 0)
(1.00227 0.000930587 6.27742e-19)
(1.00547 -0.00490932 -7.40194e-19)
(1.00113 -0.000862183 0)
(-0.0268167 1.47817 0)
(-0.0147878 1.40413 0)
(-0.0224879 1.44137 0)
(-0.0163617 1.31845 0)
(-0.0338545 1.30926 0)
(-0.026811 1.29027 0)
(1.03572 -0.00428336 0)
(1.01908 0.0157385 -9.57869e-22)
(0.813849 1.31556 2.77848e-19)
(1.00246 0.000392957 -6.27608e-19)
(1.00339 0.00444246 7.48984e-19)
(1.00125 0.00208823 0)
(1.01104 0.00962327 6.25165e-19)
(1.00681 0.00743683 -7.60736e-19)
(1.0071 0.0111107 0)
(-0.0250778 2.60364 0)
(-0.028794 2.58253 -3.49e-20)
(-0.0253603 2.59678 2.45242e-20)
(1.24287 0.27433 5.34041e-19)
(1.16378 0.0893945 0)
(0.0435574 3.0915 -9.49988e-19)
(0.0519591 2.87409 -6.73286e-20)
(0.102708 3.20181 1.27005e-18)
(0.121049 3.21368 -2.69786e-19)
(0.139649 3.25532 0)
(0.0224673 3.13766 2.61234e-19)
(0.0607003 3.16198 9.46406e-19)
(0.0611081 3.1787 -4.88687e-19)
(0.0268213 3.12947 0)
(0.540057 0.290497 0)
(0.477391 0.304604 0)
(1.14295 0.727414 1.1764e-19)
(1.10728 0.863913 -1.0136e-19)
(1.20003 0.613036 0)
(1.22694 0.546675 0)
(1.01569 0.0120387 -1.16139e-18)
(1.01462 0.0127902 1.46028e-18)
(1.02578 -0.00871037 0)
(1.02411 -0.0102805 0)
(1.00682 0.00329247 0)
(1.01087 0.00422475 0)
(1.00418 0.00222071 0)
(1.00931 0.00633459 0)
(1.00681 0.0050376 0)
(1.00435 0.00524845 0)
(0.107782 1.37949 0)
(0.0970427 1.33485 0)
(0.139605 1.42329 0)
(0.147752 1.40672 0)
(0.143725 2.60888 0)
(0.182615 2.67955 -4.11838e-19)
(0.0933401 2.65616 0)
(0.0849899 2.65104 1.76686e-19)
(0.0241605 2.67397 -1.55586e-19)
(0.0217724 1.33431 0)
(0.0308193 1.25076 0)
(0.0243754 1.35163 0)
(0.0484068 1.27195 0)
(-0.00266815 1.99307 4.39018e-20)
(-0.0208506 2.60598 -4.56103e-20)
(-0.00468834 2.67278 -3.89172e-20)
(-0.0179001 2.68527 0)
(-0.0234732 2.6121 4.40008e-20)
(-0.0220245 2.60774 4.70727e-20)
(0.00405497 1.98919 -3.41992e-20)
(-0.00962452 2.39524 6.11875e-20)
(-0.0144173 2.42131 4.41194e-20)
(1.0114 0.0402888 1.1777e-18)
(1.00465 0.021183 -1.46644e-18)
(1.00343 0.0474434 -1.20272e-18)
(0.976024 0.037407 1.51484e-18)
(1.06472 0.00926765 0)
(1.04996 -0.0064087 0)
(1.0927 0.0379322 0)
(1.07591 0.0151134 0)
(1.07468 0.000429161 0)
(1.14135 0.0799083 0)
(1.11587 0.0465473 0)
(1.11934 0.0375002 0)
(-0.0315467 2.42831 4.2938e-21)
(-0.0229321 2.02317 0)
(-0.0237074 2.2185 0)
(-0.0220895 2.59753 -2.23745e-20)
(-0.0185931 2.60875 7.20788e-22)
(-0.00354952 1.59951 -6.32852e-20)
(-0.015565 1.5223 6.46955e-20)
(-0.024632 1.41507 0)
(-0.0296784 1.4217 0)
(-0.0355292 1.41099 0)
(-0.00724849 1.33676 0)
(0.00916345 1.24734 0)
(0.386814 1.51884 2.78071e-19)
(0.43556 1.52308 1.50365e-19)
(0.590919 2.45948 -2.50387e-19)
(0.378193 2.55264 6.68645e-19)
(0.349599 2.0477 7.04316e-20)
(1.02072 -0.00798455 0)
(1.0158 -0.00934427 0)
(1.01486 -0.0132037 0)
(1.00775 -0.000547545 0)
(1.00484 -0.000693338 0)
(1.008 -0.00446388 0)
(1.00954 -0.00342921 0)
(1.01465 -0.00426606 0)
(1.01982 0.0164785 1.13965e-18)
(1.01717 0.0151361 -1.44893e-18)
(1.02021 0.018968 -1.14853e-18)
(1.01765 0.0174553 1.43954e-18)
(0.770227 1.36229 0)
(0.708757 1.39838 2.40746e-19)
(0.878363 1.24326 9.7712e-20)
(0.914657 1.20301 -1.29682e-19)
(1.16087 2.60593 2.94203e-19)
(0.749604 0.129748 5.91181e-19)
(1.17215 0.108438 0)
(1.21497 0.202873 -4.33528e-19)
(1.19643 0.154413 -1.80589e-20)
(1.01249 0.166743 0)
(0.0753469 3.0184 3.4443e-19)
(0.0814823 2.90326 -1.11572e-18)
(0.02318 2.36135 7.07031e-19)
(0.158951 -0.271989 -3.08995e-19)
(0.339982 3.44026 -2.48333e-19)
(0.191431 3.33701 0)
(0.221802 3.39202 3.23482e-19)
(0.219657 3.07537 -1.19379e-18)
(0.252234 3.19311 0)
(0.00643707 3.12239 4.94326e-20)
(0.0168841 3.13114 -5.69811e-19)
(0.0159033 3.1269 8.38658e-19)
(0.0329201 3.14007 0)
(0.030931 3.14956 0)
(1.25266 2.56851 0)
(0.543041 0.79169 -5.25265e-19)
(1.02791 1.03841 -1.11703e-20)
(0.994367 1.09106 0)
(0.863226 0.972024 -1.09312e-19)
(1.08724 0.913343 2.669e-20)
(0.277753 0.309993 -7.71519e-19)
(0.630456 0.326258 -2.32241e-20)
(0.519497 0.216685 3.96264e-19)
(0.511205 0.315971 2.83203e-20)
(0.374726 0.26344 -1.12949e-18)
(0.584216 0.323348 0)
(0.675545 0.438465 6.85738e-19)
(0.690416 0.452761 0)
(0.539383 0.31972 0)
(0.445721 0.249534 0)
(0.79627 0.66207 4.05492e-19)
(1.25461 0.308559 -4.33885e-19)
(1.24802 0.440888 0)
(1.24818 0.396027 0)
(0.681178 0.187327 6.02507e-19)
(0.846254 0.562492 -3.755e-19)
(0.767257 0.520576 6.70171e-19)
(0.964687 0.455619 -6.70724e-19)
(1.01855 0.0148 7.76911e-19)
(1.01709 0.0136968 -7.81665e-19)
(1.01581 0.0143211 0)
(1.0371 -0.00449833 0)
(1.03049 -0.00768041 -7.3198e-19)
(1.0287 -0.0105658 7.2438e-19)
(1.02475 0.0110107 0)
(1.02273 0.0150985 0)
(1.01271 0.00476856 0)
(1.0146 0.00909542 0)
(1.01646 0.00427173 0)
(1.01558 0.00295207 0)
(0.0788881 1.36409 0)
(0.0822059 1.30404 0)
(0.157102 1.42496 5.4299e-20)
(0.277079 1.49044 8.15171e-20)
(0.175503 1.46259 1.84832e-19)
(0.213202 1.4595 -2.97999e-19)
(0.168762 1.43843 0)
(0.146325 1.58717 -8.89245e-20)
(0.143594 1.5839 0)
(0.351055 1.99814 -1.0255e-19)
(0.322175 2.33573 6.24555e-19)
(0.199596 1.47097 7.7481e-20)
(0.276502 1.40459 2.23723e-20)
(0.207546 1.40455 -1.82025e-20)
(0.291241 1.34292 -9.46262e-20)
(0.254152 1.57692 0)
(0.269339 1.62155 1.02164e-19)
(0.0200739 2.24131 -1.40682e-20)
(0.0364686 2.66685 0)
(0.0561104 2.39178 9.8817e-20)
(0.046599 2.4172 0)
(0.0647558 2.67329 -2.11927e-19)
(0.0424654 2.70043 0)
(0.0267748 1.46677 6.27461e-20)
(0.0302988 1.52362 0)
(0.0350222 1.42597 0)
(0.0258083 1.43588 -7.20458e-20)
(0.00471629 2.65804 5.39832e-21)
(0.0272048 2.68753 1.79935e-19)
(0.0124572 2.73139 8.76517e-22)
(0.00413071 1.84738 -2.81223e-20)
(-0.00456313 1.70039 -1.94222e-20)
(0.0197213 1.31523 0)
(0.0285834 1.22715 0)
(0.0397555 1.59387 -5.66166e-22)
(0.042172 1.4739 -5.51289e-20)
(0.0239339 1.55883 5.559e-20)
(0.0552502 1.6163 0)
(-0.0318822 2.26772 1.3422e-19)
(-0.0351237 2.54495 -5.68204e-20)
(-0.0210043 2.44539 1.04353e-20)
(-0.00336984 1.86285 3.40912e-20)
(-0.0279929 2.50053 1.4875e-20)
(-0.0221727 2.44284 -3.83741e-20)
(1.0182 0.0225462 -7.80716e-19)
(1.01488 0.0289752 7.8449e-19)
(1.01227 0.0182471 0)
(1.00978 0.0711871 1.08898e-18)
(0.990462 0.0611091 -1.23138e-18)
(0.949137 0.0559351 1.37872e-18)
(1.01253 0.115988 -1.46233e-19)
(1.04403 -0.00463409 0)
(1.05225 -0.000379642 7.01651e-19)
(1.04034 -0.0081416 -7.01295e-19)
(1.07233 0.0439628 -4.16235e-20)
(1.06503 0.0292148 3.59524e-19)
(1.06417 0.0659049 0)
(1.05444 0.0550884 -1.29448e-19)
(1.03207 0.043924 0)
(1.02608 0.0388116 0)
(1.02765 0.0136637 0)
(1.02401 0.0163985 0)
(1.04063 0.0338775 2.66048e-19)
(1.03935 0.02862 -5.88725e-19)
(1.05318 0.0388746 -2.81531e-19)
(1.04826 0.0387957 -3.10566e-19)
(1.07779 0.0706385 5.94568e-19)
(1.10182 0.0567585 0)
(1.1085 0.0956336 0)
(-0.0295448 2.2736 7.77385e-20)
(-0.0328896 2.0289 4.51586e-21)
(-0.0278813 2.03865 0)
(-0.0309341 2.4417 -7.73768e-20)
(-0.0294523 2.4007 -8.6318e-21)
(-0.0355524 2.46797 1.03192e-20)
(-0.0214372 2.61978 -4.0098e-20)
(-0.0272348 2.56165 2.27976e-21)
(-0.025553 2.51538 -1.35441e-20)
(-0.0174707 2.61257 2.53826e-20)
(-0.0213169 2.61501 -2.95275e-20)
(-0.0125361 1.52902 -1.06661e-21)
(-0.00713781 1.64569 -6.46211e-20)
(0.378221 1.4546 -1.17609e-19)
(0.373685 1.38448 2.49428e-20)
(0.65019 1.44612 -2.32944e-19)
(0.525512 1.51584 -1.46018e-19)
(0.579441 1.47485 0)
(0.605383 2.41718 2.20957e-19)
(0.665961 2.42613 3.42122e-19)
(0.415608 2.51027 9.35959e-20)
(0.398988 2.5359 -6.22387e-19)
(0.501862 2.47405 5.76494e-19)
(0.552919 2.46973 0)
(0.484374 2.51999 -5.63705e-19)
(0.256839 2.59452 1.13292e-18)
(0.358143 2.55478 -6.98271e-20)
(0.283531 2.65211 -1.58968e-18)
(0.969937 2.38401 7.23719e-19)
(0.847688 2.3844 0)
(1.01141 0.0013993 2.54618e-20)
(1.01537 -0.00515332 -2.08055e-20)
(1.0178 -0.00388447 -3.80333e-19)
(1.01564 -0.00101286 3.79008e-19)
(1.01312 0.00184823 0)
(0.638268 1.30727 0)
(0.682854 1.19243 0)
(0.798402 1.12277 0)
(0.670312 1.14948 0)
(1.19202 2.62155 5.14906e-20)
(1.08411 2.37225 0)
(0.815328 2.16412 3.69553e-21)
(0.820453 2.42614 0)
(0.915191 2.5167 -4.46706e-19)
(0.946501 2.46607 2.98271e-19)
(0.7827 0.167752 0)
(0.725529 0.146205 1.59675e-19)
(0.90249 0.160104 9.35977e-19)
(0.81514 0.142887 -3.50194e-19)
(0.757536 0.0913826 -1.07909e-18)
(1.08825 0.247702 -8.54303e-19)
(0.98621 0.317156 -9.91674e-21)
(0.929218 0.353763 8.21145e-19)
(1.01419 0.262935 7.01379e-19)
(0.930472 0.207859 -1.23321e-18)
(0.888518 0.22174 1.54326e-19)
(0.927952 0.318747 -3.22071e-19)
(0.903855 0.225173 0)
(1.00006 0.209593 6.03581e-19)
(1.05457 0.21958 0)
(1.05217 0.229612 0)
(1.12601 0.125608 2.71864e-19)
(1.06517 0.196041 -1.06501e-20)
(1.07975 0.24969 -1.55631e-19)
(1.11296 0.212858 0)
(1.02218 0.0483466 6.00974e-19)
(1.0371 0.0627377 7.50261e-19)
(1.03267 0.0461294 -5.96955e-19)
(1.04136 0.0693591 -5.0301e-19)
(1.01491 0.0763184 -7.6906e-19)
(0.985393 0.169911 0)
(0.987891 0.108305 0)
(0.962371 0.0742195 -4.90642e-19)
(0.897819 0.0996228 1.96173e-19)
(1.03887 0.11693 6.95844e-19)
(1.07624 0.137822 -7.95432e-19)
(1.07045 0.182177 7.15024e-19)
(1.03568 0.158107 0)
(1.08639 0.123869 0)
(1.05686 0.113293 -3.26437e-19)
(1.04273 0.109428 -5.65535e-19)
(0.587564 1.07959 1.24687e-19)
(0.607926 1.39762 -2.62171e-20)
(1.14275 2.71413 -2.55831e-19)
(1.19474 3.09816 4.98821e-21)
(1.24976 2.7221 -1.40617e-19)
(1.28865 2.69203 2.84558e-20)
(1.26302 2.31425 -3.83722e-20)
(1.18216 3.00324 -8.19173e-20)
(1.20201 2.96016 2.36132e-19)
(1.17598 3.25085 -1.17839e-19)
(1.39303 2.96362 1.48006e-19)
(1.40414 2.8977 0)
(0.579172 0.816379 -4.87638e-20)
(0.195753 1.21242 4.67025e-19)
(0.528221 0.321588 5.01445e-19)
(0.410276 0.0876028 5.69487e-19)
(0.441858 0.29094 6.39555e-19)
(0.544214 0.416411 -1.03932e-18)
(0.556993 0.397856 8.51275e-19)
(0.44412 0.292183 -3.12491e-19)
(0.258306 0.224969 7.20982e-19)
(0.714272 0.258431 -3.47566e-19)
(0.661498 0.290253 0)
(0.59578 0.194951 7.7891e-21)
(0.725308 0.51473 3.62965e-19)
(0.697674 0.490516 -1.31476e-18)
(0.628263 0.439789 1.16056e-20)
(0.607188 0.416846 0)
(0.723705 0.724631 3.73176e-19)
(0.83923 0.805038 4.14131e-19)
(0.777802 0.854625 -4.82374e-19)
(0.90854 0.824331 -1.52872e-19)
(0.943249 0.867201 -3.59492e-20)
(0.950795 0.874702 3.68732e-20)
(0.88428 0.685376 -6.70207e-19)
(0.957276 0.730602 1.42127e-19)
(1.01298 0.732122 0)
(1.01144 0.706879 -1.82177e-19)
(1.03032 0.341779 2.1327e-19)
(1.15897 0.343724 2.60245e-19)
(1.07426 0.285726 3.49314e-19)
(0.999129 0.389738 -4.2619e-19)
(1.05811 0.492081 0)
(1.14014 0.431876 0)
(0.89963 0.429408 -1.25784e-22)
(0.845206 0.323798 0)
(0.892468 0.314247 3.92157e-19)
(0.913911 0.352211 3.35007e-21)
(0.988068 0.503052 1.87325e-18)
(0.918772 0.56279 4.83163e-19)
(0.943776 0.520909 -5.09801e-19)
(0.861144 0.49546 5.43087e-19)
(0.824266 0.469694 3.4656e-19)
(0.800115 0.449737 -3.39635e-19)
(1.0282 -0.000367611 6.28586e-19)
(1.02052 0.000608132 0)
(1.01913 0.00141842 4.1017e-19)
(1.02271 -0.000713676 -9.28512e-19)
(1.02259 0.0046222 4.52321e-19)
(1.02005 0.0116725 -9.46783e-19)
(1.02081 0.0115047 0)
(1.01971 0.0122825 -1.97157e-19)
(1.01662 0.00783823 4.94026e-19)
(1.0167 0.0109679 -2.48467e-19)
(1.01732 0.0106764 1.82018e-19)
(0.0379833 1.3391 0)
(0.0441108 1.40278 0)
(0.0567767 1.3422 0)
(0.0628386 1.27677 0)
(0.0868842 1.40996 -6.92412e-20)
(0.0925207 1.38134 1.65499e-20)
(0.0867351 1.57436 1.89647e-21)
(0.102266 1.41456 -3.83552e-20)
(0.0451592 1.48811 4.69075e-20)
(0.0509713 1.48225 -3.68799e-20)
(0.0784027 1.40364 -2.15924e-20)
(0.066734 1.40547 6.99016e-20)
(0.0617999 1.3858 1.15195e-20)
(0.0476962 1.40463 7.93803e-21)
(0.102661 2.35675 -1.08068e-19)
(0.0881175 2.40373 0)
(0.154332 2.0037 9.11997e-20)
(0.130733 1.70286 3.30385e-20)
(0.219583 2.00342 -8.49591e-20)
(0.211294 2.41529 0)
(0.261222 2.36679 -5.77833e-19)
(0.292206 2.36512 4.21955e-19)
(0.252838 1.98041 -1.96933e-19)
(0.1452 2.1461 1.43394e-19)
(0.114413 2.25455 0)
(0.012153 1.84529 -4.37406e-20)
(-0.00611495 2.36333 -2.08987e-21)
(0.00228728 2.12005 0)
(0.00409492 2.427 -1.73308e-20)
(0.0189264 2.25898 3.25369e-20)
(0.0120932 1.44207 -1.27154e-20)
(0.01258 1.42347 2.17182e-19)
(0.0100834 1.43581 -6.9861e-20)
(0.0212435 1.44505 -6.23093e-20)
(0.0243891 1.47021 0)
(0.00788179 1.42101 0)
(0.00218392 1.31658 -9.0028e-20)
(0.00266184 1.41011 2.61224e-20)
(0.00933857 1.40906 0)
(0.0127302 1.30732 -6.76866e-20)
(0.0238147 1.21609 1.36597e-19)
(1.04248 0.0150767 0)
(1.04903 0.0105621 -6.56116e-20)
(1.03918 0.0245409 -4.74327e-19)
(1.04958 0.0234376 0)
(1.05469 0.0226988 0)
(1.03638 0.0130545 -6.77004e-21)
(1.03022 0.0134582 7.63818e-19)
(1.03198 0.0174688 9.26542e-19)
(1.0256 0.0211543 0)
(1.02219 0.0218161 0)
(1.03568 0.0259768 4.7325e-19)
(1.02586 0.0282278 0)
(1.02362 0.0280942 0)
(-0.0202607 2.02958 0)
(-0.0113429 1.67164 -2.22404e-21)
(-0.00917108 1.7729 -3.54671e-20)
(-0.00479989 1.41809 0)
(-0.00838919 1.57976 -3.73989e-20)
(-0.0174453 1.49513 2.29305e-20)
(-0.0139974 1.43723 0)
(0.402635 1.61836 0)
(0.367973 1.32256 -4.12094e-20)
(0.275442 1.34617 0)
(0.437384 1.32067 -2.20639e-20)
(0.473503 1.48055 0)
(0.459109 1.42195 3.40029e-20)
(1.03957 2.66537 -1.53979e-20)
(0.984164 2.40305 -9.08927e-19)
(0.945878 2.20331 1.01851e-18)
(0.864252 2.37648 2.45382e-19)
(0.851912 2.48153 0)
(0.920819 2.47679 0)
(0.953759 2.37663 0)
(0.929635 2.36737 -9.50085e-19)
(0.690374 2.44603 -3.87892e-19)
(0.799658 2.42968 -9.98772e-20)
(0.806717 2.40809 7.52862e-20)
(0.703242 2.39731 0)
(0.808439 2.39082 0)
(0.769039 2.40741 -3.71208e-19)
(0.764831 2.46029 0)
(0.633327 1.07074 0)
(0.514521 0.853052 -5.73556e-19)
(0.523737 0.930923 -3.35299e-20)
(0.501034 1.06664 0)
(0.488731 0.973281 8.75932e-19)
(0.805128 0.889022 -1.35386e-19)
(0.808913 1.024 0)
(0.790036 1.00718 1.86317e-19)
(0.678547 1.0237 0)
(0.669732 0.927324 0)
(1.16114 2.75043 -2.24833e-19)
(1.13643 2.8091 -9.33749e-20)
(0.920795 2.33234 8.21646e-20)
(0.897701 2.31279 -7.81269e-20)
(1.13075 2.72785 0)
(1.08299 2.69572 9.38175e-20)
(1.09772 2.48926 -3.00131e-19)
(0.999006 2.24816 -2.77953e-20)
(0.495266 1.32522 0)
(0.515614 1.07471 -1.09804e-19)
(0.596345 1.18532 0)
(0.846477 0.231938 0)
(0.753613 0.177459 0)
(0.658081 0.139653 0)
(0.854076 0.231675 -6.18435e-19)
(0.739696 0.226773 3.63263e-19)
(0.914145 0.086619 -4.05726e-19)
(0.926669 0.137979 0)
(0.90066 0.146573 1.75244e-19)
(0.839121 0.110553 7.0082e-19)
(0.7977 0.0776293 -4.39867e-19)
(1.09198 3.34097 -6.60498e-19)
(1.16071 3.26512 0)
(1.10993 3.42536 -1.55317e-18)
(0.652994 3.57213 1.29115e-18)
(1.01991 3.07282 1.12119e-19)
(0.533427 0.772413 5.76926e-19)
(0.510775 0.738607 0)
(0.341336 0.319031 -1.43436e-19)
(0.498122 0.631084 8.55382e-19)
(0.570288 0.32132 -1.84324e-19)
(0.524891 0.455627 2.21512e-19)
(0.68623 0.526532 4.61572e-19)
(0.728769 0.565208 0)
(0.674001 0.56751 0)
(0.660853 0.539565 0)
(1.02004 0.617164 9.08971e-20)
(0.971728 0.600749 -4.68038e-19)
(0.983012 0.612601 3.57004e-19)
(1.04732 0.554564 -3.44827e-19)
(1.09309 0.523629 0)
(1.09471 0.604678 -9.10018e-20)
(0.885673 0.425272 -7.72475e-19)
(0.873562 0.409008 -9.97534e-19)
(0.795717 0.419803 6.09728e-19)
(0.810496 0.379448 -6.3455e-19)
(0.853687 0.336386 -4.98268e-19)
(0.796284 0.341058 6.10387e-19)
(1.02661 0.00673521 -4.73425e-19)
(1.02624 0.00685797 9.5405e-19)
(1.02999 0.000954755 6.09258e-19)
(1.03419 0.00159875 -7.31596e-19)
(1.034 0.0119032 0)
(1.02982 0.0120592 -1.19561e-18)
(0.0849321 1.64459 9.80246e-21)
(0.0753416 1.60596 0)
(0.107295 1.69751 5.07849e-20)
(0.112188 1.67388 -4.43829e-20)
(0.0767512 1.57343 -3.41117e-21)
(0.0741753 1.57646 0)
(0.00839626 1.70734 0)
(-0.00604254 1.53066 2.00868e-20)
(-0.00605369 1.47405 -1.80344e-20)
(-0.0121689 1.57709 3.35455e-21)
(-0.0016506 1.89539 2.99013e-20)
(-0.0136552 1.9504 -1.20272e-20)
(0.493085 1.35808 -2.78023e-19)
(0.495992 1.35227 3.03888e-19)
(0.451735 1.31272 -2.24772e-20)
(0.428257 1.29038 8.43225e-21)
(0.63143 1.31456 0)
(0.557377 1.40891 1.06365e-19)
(0.558322 1.41185 -1.03527e-19)
(0.487931 1.30191 2.16941e-20)
(0.528336 1.25356 0)
(0.592676 1.21925 0)
(0.664173 2.40958 5.71132e-19)
(0.660026 2.43907 1.29578e-18)
(0.715057 2.45435 -8.91006e-19)
(0.613028 2.42638 -2.02886e-19)
(0.556291 2.51987 2.78753e-19)
(0.496704 2.48614 -7.20175e-19)
(0.991116 2.38164 -5.74127e-19)
(1.02225 2.39917 0)
(0.948665 2.18647 -6.27118e-19)
(1.05403 2.67667 0)
(1.0529 2.65758 0)
(0.595642 2.28279 -7.70753e-21)
(1.1148 3.06519 6.11278e-20)
(0.990782 2.96085 -1.07249e-19)
(0.31262 0.776753 0)
(0.309041 0.646988 -3.0679e-19)
(0.52126 0.586348 -3.11684e-19)
(0.357376 2.12382 0)
(0.399478 2.7435 -7.89417e-20)
(0.408696 2.47755 0)
(0.732313 0.695038 -7.94198e-19)
(0.796284 0.70498 1.11396e-18)
(0.797111 0.66533 -1.11764e-18)
(0.706165 0.648616 -1.00744e-19)
(0.756743 0.608813 -4.23566e-19)
(0.965493 2.74789 -4.62926e-20)
(1.01141 2.75642 -2.23143e-19)
(0.545708 2.19671 4.62234e-19)
(0.599881 1.73015 -3.63094e-19)
(0.698616 1.84853 -5.09134e-19)
(0.97329 2.38911 -1.39728e-19)
(0.973896 2.34248 3.79204e-19)
(0.639739 1.7553 3.44317e-20)
(0.447088 1.29067 1.80525e-19)
)
;

boundaryField
{
    wall-4
    {
        type            noSlip;
    }
    velocity-inlet-5
    {
        type            fixedValue;
        value           uniform (1 0 0);
    }
    velocity-inlet-6
    {
        type            fixedValue;
        value           uniform (0 3 0);
    }
    pressure-outlet-7
    {
        type            zeroGradient;
    }
    wall-8
    {
        type            noSlip;
    }
    frontAndBackPlanes
    {
        type            empty;
    }
}


// ************************************************************************* //
