/*--------------------------------*- C++ -*----------------------------------*\
  =========                 |
  \\      /  F ield         | OpenFOAM: The Open Source CFD Toolbox
   \\    /   O peration     | Website:  https://openfoam.org
    \\  /    A nd           | Version:  6
     \\/     M anipulation  |
\*---------------------------------------------------------------------------*/
FoamFile
{
    version     2.0;
    format      ascii;
    class       volScalarField;
    location    "4.5";
    object      Ma;
}
// * * * * * * * * * * * * * * * * * * * * * * * * * * * * * * * * * * * * * //

dimensions      [0 0 0 0 0 0 0];

internalField   nonuniform List<scalar> 
5250
(
2.99989
2.99969
2.99909
2.99812
2.99491
2.98974
2.97286
2.94305
2.86047
2.67666
2.2873
1.47509
0.410435
0.0987259
0.112054
0.301903
0.35205
0.319186
0.2577
0.199339
0.161529
0.130244
0.0970191
0.0630684
0.0437053
2.99989
2.99969
2.9991
2.99813
2.99493
2.98978
2.97297
2.94328
2.86099
2.67791
2.28961
1.47972
0.415558
0.0967825
0.122264
0.308599
0.35609
0.322461
0.262109
0.206648
0.170976
0.141354
0.110909
0.0826193
0.0691005
2.99989
2.9997
2.99911
2.99814
2.99497
2.98987
2.9732
2.94377
2.86211
2.68072
2.29487
1.49118
0.42839
0.091495
0.140386
0.319082
0.362941
0.328951
0.27131
0.221449
0.190246
0.164382
0.139323
0.118365
0.109416
2.99989
2.9997
2.99912
2.99817
2.99504
2.99001
2.97356
2.94457
2.86389
2.68526
2.30345
1.51037
0.449281
0.08711
0.164039
0.332853
0.373054
0.339812
0.28664
0.24368
0.21789
0.196668
0.17728
0.162508
0.156765
2.99989
2.99971
2.99914
2.99821
2.99513
2.99021
2.97406
2.94567
2.86638
2.69165
2.3155
1.53779
0.47865
0.089821
0.192276
0.349598
0.385914
0.354456
0.30691
0.271066
0.250686
0.234488
0.220252
0.210126
0.206801
2.99989
2.99971
2.99916
2.99825
2.99526
2.99046
2.9747
2.94709
2.8695
2.69986
2.331
1.57209
0.518482
0.106308
0.224853
0.369335
0.40176
0.373179
0.332242
0.303595
0.288392
0.277026
0.2681
0.262449
0.261309
2.9999
2.99972
2.99918
2.99831
2.9954
2.99077
2.97544
2.94885
2.87325
2.70929
2.35037
1.60473
0.569066
0.138751
0.260472
0.388828
0.419234
0.395219
0.361784
0.340417
0.331074
0.325243
0.321851
0.321662
0.324375
2.9999
2.99973
2.99922
2.99837
2.99558
2.99113
2.97634
2.95096
2.87778
2.72065
2.37381
1.64494
0.631596
0.185705
0.298828
0.407764
0.438548
0.420558
0.39565
0.381153
0.378005
0.378977
0.384083
0.392751
0.403503
2.99991
2.99975
2.99925
2.99845
2.99579
2.99156
2.97742
2.95339
2.88322
2.73391
2.40144
1.69353
0.703137
0.245196
0.339398
0.426538
0.459274
0.448447
0.433018
0.426244
0.42976
0.439072
0.456242
0.481244
0.515446
2.99991
2.99976
2.9993
2.99854
2.99603
2.99206
2.9787
2.95614
2.88966
2.74926
2.43338
1.75117
0.784248
0.316313
0.378971
0.445002
0.480501
0.478611
0.472029
0.473113
0.484548
0.506819
0.543768
0.598862
0.703002
2.99992
2.99978
2.99935
2.99865
2.99631
2.99264
2.9802
2.95936
2.89724
2.76714
2.47117
1.82069
0.879719
0.397108
0.411702
0.465549
0.503531
0.509819
0.510776
0.519776
0.542235
0.581023
0.642226
0.742732
0.900656
2.99993
2.9998
2.99941
2.99877
2.99665
2.99331
2.98195
2.96314
2.90612
2.78847
2.5164
1.9063
1.00083
0.486581
0.441856
0.48611
0.525592
0.539914
0.549165
0.567166
0.600995
0.655436
0.731523
0.849746
1.01449
2.99994
2.99982
2.99948
2.99892
2.99703
2.9941
2.98398
2.96763
2.91639
2.81396
2.57146
2.01202
1.15595
0.587332
0.470989
0.504918
0.546544
0.570547
0.587922
0.61355
0.654827
0.714412
0.797521
0.908001
1.04412
2.99995
2.99985
2.99955
2.99907
2.99745
2.99494
2.98625
2.97238
2.92821
2.84141
2.63373
2.13897
1.33401
0.695736
0.503942
0.530581
0.573364
0.605494
0.627597
0.657539
0.700987
0.759437
0.837597
0.935959
1.04988
2.99996
2.99988
2.99963
2.99922
2.99787
2.99577
2.98854
2.97709
2.93985
2.87135
2.69348
2.29908
1.56812
0.814397
0.556855
0.57696
0.613908
0.646595
0.669663
0.698316
0.741561
0.796153
0.86677
0.951199
1.04765
2.99997
2.9999
2.99969
2.99936
2.99825
2.99651
2.99054
2.98118
2.9502
2.8954
2.74446
2.4293
1.76997
0.921317
0.605728
0.62434
0.658595
0.691727
0.713132
0.73797
0.776657
0.82672
0.889957
0.96415
1.04585
2.99997
2.99992
2.99975
2.99947
2.99856
2.99715
2.99223
2.98462
2.95909
2.91377
2.79172
2.51171
1.96491
1.04825
0.67666
0.662305
0.695427
0.727583
0.75269
0.775886
0.809492
0.853681
0.908901
0.974315
1.04572
2.99998
2.99994
2.9998
2.99958
2.99884
2.9977
2.99371
2.98764
2.96669
2.93084
2.83029
2.59708
2.14244
1.25762
0.796033
0.697117
0.720516
0.749853
0.780866
0.807559
0.838551
0.879073
0.926747
0.983622
1.04621
2.99999
2.99995
2.99984
2.99967
2.99909
2.9982
2.99507
2.99037
2.97382
2.94657
2.86683
2.68826
2.32284
1.52914
0.951465
0.751081
0.751551
0.774376
0.805779
0.83529
0.865624
0.901822
0.945111
0.993736
1.0485
2.99999
2.99996
2.99988
2.99975
2.99931
2.99864
2.99627
2.99274
2.98021
2.96046
2.89829
2.77695
2.48788
1.89506
1.13637
0.833405
0.801277
0.81343
0.838262
0.86678
0.894713
0.926134
0.963973
1.00682
1.0536
2.99999
2.99997
2.99991
2.99981
2.99948
2.99898
2.9972
2.99458
2.98506
2.97069
2.92288
2.8318
2.61272
2.10011
1.34406
0.923596
0.842349
0.851015
0.871958
0.89871
0.924143
0.95135
0.983691
1.02115
1.06234
3
2.99998
2.99994
2.99986
2.99962
2.99925
2.99793
2.99601
2.98896
2.9785
2.94248
2.87858
2.71024
2.32886
1.64549
1.06467
0.894246
0.888695
0.903856
0.927521
0.953176
0.97735
1.0043
1.036
1.07165
3
2.99999
2.99996
2.9999
2.99973
2.99946
2.99853
2.99715
2.99213
2.98473
2.95877
2.91581
2.78822
2.54255
1.96496
1.25817
0.970984
0.928603
0.936842
0.95657
0.980707
1.00358
1.0274
1.05472
1.08508
3
3
2.99997
2.99994
2.99981
2.99963
2.99897
2.99803
2.99452
2.98954
2.9714
2.94245
2.85471
2.66571
2.27674
1.5155
1.10054
0.976447
0.97057
0.980724
1.00081
1.0244
1.04727
1.07216
1.0998
3
3
2.99998
2.99996
2.99988
2.99975
2.99931
2.99867
2.99634
2.993
2.98079
2.96211
2.90181
2.78895
2.50532
1.96451
1.29205
1.05163
1.01716
1.01549
1.02871
1.0492
1.07034
1.09224
1.11609
3.00001
3
2.99999
2.99997
2.99993
2.99981
2.99962
2.99896
2.99799
2.99448
2.98936
2.97183
2.94028
2.85375
2.65797
2.25535
1.53547
1.15119
1.0518
1.04493
1.05332
1.07136
1.09423
1.11476
1.13579
3.00001
3
3
2.99998
2.99996
2.99988
2.99975
2.99932
2.9987
2.99637
2.99316
2.98103
2.96302
2.90368
2.79394
2.51697
1.99273
1.35431
1.11863
1.08517
1.08467
1.09821
1.11859
1.13869
1.15773
3.00001
3
3
2.99999
2.99998
2.99992
2.99985
2.99957
2.99919
2.99774
2.99579
2.98844
2.97737
2.94063
2.8646
2.68718
2.24909
1.61032
1.2094
1.11578
1.10991
1.12086
1.13931
1.16183
1.18217
3.00001
3.00001
3
3
2.99999
2.99995
2.9999
2.99973
2.99948
2.99854
2.99727
2.99222
2.98548
2.95954
2.9188
2.79411
2.55588
1.99595
1.42287
1.18296
1.14334
1.14488
1.15876
1.1796
1.20192
3.00001
3.00001
3.00001
3
2.99999
2.99998
2.99994
2.99987
2.99964
2.99931
2.99811
2.99642
2.9904
2.98047
2.94904
2.88119
2.71756
2.33036
1.70971
1.3
1.18581
1.17013
1.17783
1.19455
1.21577
3.00001
3.00001
3.00001
3
3
2.99999
2.99997
2.99991
2.99982
2.99949
2.99904
2.9973
2.99498
2.98605
2.97257
2.92671
2.83686
2.62001
2.14808
1.53831
1.27402
1.21759
1.20977
1.2161
1.23067
3.00001
3.00001
3.00001
3.00001
3
3
2.99998
2.99995
2.99989
2.99969
2.99943
2.99835
2.99703
2.99139
2.98426
2.95604
2.91067
2.77922
2.49786
1.96026
1.44393
1.26261
1.23912
1.23904
1.24957
3.00001
3.00001
3.00001
3.00001
3
3
2.99999
2.99997
2.99994
2.99982
2.99966
2.99903
2.99825
2.99485
2.99086
2.97341
2.94997
2.866
2.71777
2.34078
1.76134
1.38178
1.27507
1.26143
1.26428
3.00001
3.00001
3.00001
3.00001
3.00001
3
3
2.99999
2.99997
2.9999
2.99982
2.99947
2.99904
2.99719
2.99505
2.98555
2.97366
2.92654
2.84873
2.63906
2.20679
1.63946
1.36591
1.30197
1.29006
3.00001
3.00001
3.00001
3.00001
3.00001
3.00001
3
3
2.99999
2.99995
2.99991
2.99972
2.99949
2.99852
2.9974
2.99235
2.98632
2.9607
2.92296
2.80181
2.57226
2.065
1.58506
1.3687
1.32468
3.00001
3.00001
3.00001
3.00001
3.00001
3.00001
3.00001
3
3
2.99999
2.99995
2.9999
2.99974
2.99951
2.99869
2.99747
2.99334
2.98529
2.96046
2.90572
2.76136
2.45069
1.9194
1.51083
1.3675
3.00001
3.00001
3.00001
3.00001
3.00001
3.00001
3.00001
3.00001
3
3
2.99999
2.99996
2.99992
2.99981
2.99959
2.99913
2.99779
2.99501
2.98486
2.95884
2.88918
2.72617
2.34703
1.82716
1.47944
3.00001
3.00001
3.00001
3.00001
3.00001
3.00001
3.00001
3.00001
3.00001
3
3
2.99997
2.99995
2.99982
2.99969
2.99902
2.99834
2.99464
2.99083
2.97104
2.94673
2.84823
2.69272
2.26663
1.78196
3.00001
3.00001
3.00001
3.00001
3.00001
3.00001
3.00001
3.00001
3.00001
3
3
2.99999
2.99997
2.99994
2.9998
2.99964
2.99892
2.9981
2.99426
2.98953
2.96886
2.93855
2.83142
2.65306
2.19098
3.00001
3.00001
3.00001
3.00001
3.00001
3.00001
3.00001
3.00001
3.00001
3.00001
3
3
2.99999
2.99997
2.99993
2.9998
2.99963
2.99901
2.99805
2.99491
2.98791
2.96643
2.92012
2.7843
2.52622
3.00001
3.00001
3.00001
3.00001
3.00001
3.00001
3.00001
3.00001
3.00001
3.00001
3.00001
3
3
2.99999
2.99998
2.99993
2.99987
2.99949
2.99897
2.99625
2.99391
2.97429
2.97583
2.85686
2.64368
3.00001
3.00001
3.00001
3.00001
3.00001
3.00001
3.00001
3.00001
3.00001
3.00001
3.00001
3.00001
3
3
2.99999
2.99998
2.99984
2.99963
2.99835
2.99643
2.98574
2.98404
2.95774
2.88505
2.66247
3.00001
3.00001
3.00001
3.00001
3.00001
3.00001
3.00001
3.00001
3.00001
3.00001
3.00001
3.00001
3.00001
3
2.99999
2.99995
2.99992
2.99956
2.99921
2.99631
2.99212
2.96891
2.96207
2.89048
2.71513
3.00001
3.00001
3.00001
3.00001
3.00001
3.00001
3.00001
3.00001
3.00001
3.00001
3.00001
3.00001
3.00001
3
2.99999
2.99997
2.99985
2.9996
2.99877
2.99765
2.9908
2.99074
2.95683
2.88977
2.69969
3.00001
3.00001
3.00001
3.00001
3.00001
3.00001
3.00001
3.00001
3.00001
3.00001
3.00001
3.00001
3
3
2.99998
2.99993
2.99978
2.99952
2.99836
2.99738
2.99124
2.98929
2.96154
2.89522
2.72123
3.00001
3.00001
3.00001
3.00001
3.00001
3.00001
3.00001
3.00001
3.00001
3.00001
3.00001
3.00001
3
3
2.99998
2.99993
2.99978
2.99952
2.99827
2.99724
2.98882
2.98648
2.96526
2.91116
2.72951
3.00001
3.00001
3.00001
3.00001
3.00001
3.00001
3.00001
3.00001
3.00001
3.00001
3.00001
3.00001
3
3
2.99998
2.99994
2.99979
2.99954
2.99835
2.99737
2.98926
2.98731
2.96652
2.91457
2.73567
3.00001
3.00001
3.00001
3.00001
3.00001
3.00001
3.00001
3.00001
3.00001
3.00001
3.00001
3.00001
3
3
2.99998
2.99994
2.99981
2.99959
2.99852
2.99766
2.99042
2.9897
2.96927
2.92817
2.74219
3.00001
3.00001
3.00001
3.00001
3.00001
3.00001
3.00001
3.00001
3.00001
3.00001
3.00001
3.00001
3
3
2.99999
2.99997
2.99993
2.99967
2.99919
2.99694
2.99357
2.97491
2.97007
2.9105
2.77249
3.00001
3.00001
3.00001
3.00001
3.00001
3.00001
3.00001
3.00001
3.00001
3.00001
3.00001
3.00001
3
2.99999
2.99996
2.99993
2.99973
2.99956
2.9984
2.9975
2.99056
2.98959
2.96905
2.92778
2.74564
1.12428
1.34239
1.49503
1.56757
1.55516
1.45174
1.27695
0.918945
0.382818
0.136691
0.185663
0.170686
0.192931
0.225807
0.265794
0.310277
0.354235
0.395553
0.432175
0.461595
0.4858
0.50841
0.530809
0.554327
0.577298
0.599128
0.619691
0.634363
0.64289
0.64779
0.647763
0.638636
0.618179
0.587185
0.547913
0.502777
0.454042
0.404051
0.355334
0.308364
0.264
0.222315
0.182208
0.142578
0.104989
0.0688239
0.0378926
0.0316559
0.0607314
0.0816726
0.1098
0.139122
0.168155
0.194864
0.220775
0.247569
0.275354
0.30213
0.328067
0.353249
0.377993
0.402251
0.42614
0.449572
0.472692
0.49533
0.517677
0.539608
0.561369
0.582602
0.603889
0.624499
0.645271
0.665384
0.685713
0.705352
0.725389
0.74451
0.764289
0.782964
0.802333
0.820632
0.839557
0.857392
0.875923
0.893254
0.911353
0.928182
0.945783
0.962082
0.979068
0.994691
1.01091
1.02548
1.04057
1.05343
1.06625
1.07601
1.08324
1.08999
1.17924
1.32208
1.42103
1.46837
1.46086
1.41777
1.35455
1.21604
0.962321
0.611895
0.453447
0.377621
0.309153
0.24275
0.182863
0.12734
0.086037
0.0671792
0.0833363
0.124958
0.175113
0.224672
0.269375
0.307835
0.340335
0.367199
0.389829
0.405852
0.413148
0.415857
0.413961
0.402119
0.3793
0.345492
0.304567
0.260238
0.213453
0.169918
0.127899
0.0902804
0.062471
0.0565725
0.0779212
0.0986976
0.126061
0.155148
0.183839
0.211851
0.237988
0.263414
0.289345
0.315548
0.341341
0.365801
0.389225
0.412901
0.437495
0.461533
0.484969
0.507494
0.530001
0.551724
0.5736
0.594642
0.615917
0.636304
0.656996
0.676793
0.696956
0.716264
0.735942
0.754786
0.774047
0.792436
0.811349
0.82929
0.847904
0.865441
0.883749
0.900925
0.918891
0.935704
0.953287
0.969734
0.986875
1.003
1.01965
1.03542
1.05166
1.06687
1.08275
1.09725
1.11256
1.12624
1.14033
1.15273
1.16458
1.17416
1.18089
1.18777
1.16901
1.27662
1.36612
1.43988
1.49799
1.55055
1.56013
1.52916
1.4205
1.13042
0.868727
0.760405
0.670305
0.588244
0.516983
0.449821
0.39042
0.338981
0.290217
0.242582
0.196883
0.154552
0.116085
0.0848708
0.0661281
0.0717824
0.0954104
0.127004
0.153238
0.166189
0.171541
0.158868
0.13385
0.106984
0.0912972
0.0938043
0.117216
0.136106
0.163523
0.191303
0.219884
0.24756
0.273888
0.298579
0.323937
0.34853
0.373065
0.396411
0.418984
0.440735
0.462695
0.484391
0.506245
0.526931
0.546945
0.566538
0.58747
0.608216
0.628623
0.648071
0.667517
0.686351
0.705409
0.723902
0.742592
0.760765
0.779036
0.796853
0.814715
0.832151
0.849688
0.866776
0.884107
0.900864
0.917986
0.934473
0.951263
0.967548
0.983989
1.00004
1.01622
1.03197
1.04789
1.06335
1.07893
1.09411
1.1093
1.12415
1.13913
1.15356
1.16838
1.18214
1.1964
1.20934
1.22234
1.23398
1.24489
1.25376
1.25961
1.26626
1.15986
1.25802
1.34735
1.42758
1.50184
1.56473
1.60862
1.61088
1.57437
1.46473
1.2474
1.04809
0.942633
0.861282
0.789779
0.728838
0.671588
0.619023
0.570726
0.523387
0.479299
0.437408
0.395417
0.354626
0.315044
0.276129
0.237625
0.200426
0.167263
0.143658
0.131846
0.134289
0.169178
0.21296
0.256455
0.297391
0.331115
0.358835
0.383875
0.407716
0.430211
0.45193
0.472082
0.491696
0.510654
0.529476
0.548119
0.56613
0.583842
0.60116
0.618453
0.635957
0.653311
0.670368
0.686217
0.702216
0.718768
0.736385
0.753472
0.770289
0.786687
0.803001
0.819127
0.835182
0.851104
0.867006
0.882783
0.898604
0.914342
0.930036
0.945739
0.961199
0.976804
0.992081
1.00763
1.02283
1.03835
1.05345
1.06887
1.08377
1.09901
1.11369
1.12868
1.14318
1.15789
1.17226
1.18688
1.20106
1.2155
1.22907
1.24314
1.25597
1.26932
1.28133
1.29338
1.30398
1.31393
1.32162
1.3266
1.33294
1.14665
1.23885
1.3244
1.40401
1.47617
1.54255
1.59757
1.63177
1.63177
1.5986
1.49979
1.33758
1.16404
1.06784
1.00692
0.950416
0.896731
0.851068
0.809172
0.767214
0.726476
0.686465
0.647818
0.609565
0.5716
0.533674
0.49507
0.458082
0.42558
0.400315
0.382396
0.385913
0.411912
0.449079
0.488446
0.526589
0.557262
0.579424
0.596175
0.610687
0.624463
0.637906
0.651116
0.664128
0.676874
0.689659
0.702154
0.714575
0.726845
0.739111
0.751694
0.764632
0.778186
0.791575
0.804514
0.816877
0.829912
0.84366
0.857941
0.871785
0.885803
0.899647
0.913741
0.927686
0.941729
0.955635
0.969557
0.983375
0.9973
1.01111
1.02523
1.03908
1.05329
1.0671
1.08127
1.09509
1.1093
1.12316
1.13741
1.15114
1.16527
1.17886
1.19282
1.2065
1.22051
1.23418
1.24805
1.26124
1.27494
1.28749
1.30078
1.31266
1.32513
1.33616
1.34735
1.357
1.36601
1.37255
1.37671
1.38293
1.13355
1.21882
1.29906
1.37394
1.44493
1.50835
1.56721
1.61519
1.64419
1.64334
1.61425
1.5287
1.39956
1.2512
1.16904
1.12118
1.07714
1.03224
0.994308
0.961519
0.928052
0.893093
0.859854
0.824169
0.788046
0.750922
0.712611
0.675628
0.639805
0.605305
0.581996
0.583647
0.608883
0.64603
0.687249
0.724633
0.755012
0.774792
0.785192
0.789999
0.794145
0.798521
0.804218
0.810523
0.817805
0.825152
0.833059
0.841003
0.849209
0.857552
0.86612
0.875176
0.884821
0.894897
0.904999
0.914851
0.925185
0.93628
0.948145
0.959729
0.971353
0.982981
0.994854
1.00691
1.01914
1.03147
1.04403
1.05646
1.06916
1.0815
1.09429
1.10676
1.1199
1.13268
1.146
1.15877
1.17202
1.18478
1.19814
1.21107
1.22445
1.23743
1.25074
1.26363
1.27684
1.28967
1.3029
1.31543
1.32841
1.34026
1.35274
1.36388
1.37546
1.3857
1.39563
1.40426
1.41171
1.41683
1.42019
1.42653
1.12255
1.19999
1.27499
1.34529
1.4122
1.47528
1.53207
1.58525
1.6272
1.6522
1.65125
1.62543
1.55566
1.44699
1.32136
1.25144
1.21196
1.17688
1.14039
1.11019
1.08486
1.05705
1.02713
0.997255
0.963918
0.928467
0.890155
0.851748
0.807308
0.760068
0.730612
0.732106
0.757117
0.795934
0.840156
0.880272
0.91131
0.93327
0.944125
0.944804
0.940819
0.936375
0.933884
0.93389
0.935781
0.939073
0.943127
0.947568
0.952412
0.957569
0.963218
0.969359
0.97629
0.983667
0.991338
0.9988
1.00678
1.01546
1.02515
1.03499
1.04492
1.0549
1.0651
1.07551
1.0861
1.0968
1.10772
1.11871
1.13007
1.14128
1.15286
1.1641
1.17589
1.18741
1.19953
1.21136
1.22357
1.23542
1.24759
1.25955
1.27205
1.28426
1.2968
1.30896
1.32134
1.33322
1.34553
1.35702
1.36921
1.38011
1.39167
1.40177
1.41212
1.42117
1.42988
1.43715
1.44352
1.44706
1.45007
1.45613
1.11375
1.18304
1.25196
1.31874
1.38148
1.44216
1.49856
1.55034
1.59828
1.63528
1.65746
1.6567
1.63419
1.57831
1.48334
1.37914
1.31785
1.28444
1.25536
1.2262
1.20136
1.18224
1.15952
1.13311
1.10053
1.06617
1.02853
0.982503
0.923754
0.863472
0.834367
0.839619
0.86615
0.905858
0.954033
0.998841
1.03164
1.05357
1.06789
1.07264
1.06849
1.05879
1.04916
1.04228
1.03842
1.03685
1.03672
1.03772
1.03945
1.04173
1.04473
1.04835
1.05292
1.05808
1.06363
1.06891
1.07474
1.08125
1.08888
1.09702
1.10543
1.11402
1.12287
1.13192
1.14134
1.15082
1.16076
1.17062
1.18105
1.19128
1.20197
1.21238
1.2232
1.23394
1.24521
1.25641
1.26806
1.27935
1.29106
1.30233
1.31399
1.3254
1.33721
1.34868
1.36049
1.37163
1.38319
1.39385
1.40496
1.41512
1.4254
1.43468
1.44367
1.45145
1.45886
1.46461
1.46957
1.47243
1.4751
1.4812
1.10762
1.16902
1.23142
1.29322
1.35329
1.41023
1.46575
1.51696
1.56485
1.60839
1.64178
1.66204
1.66168
1.64234
1.59792
1.5141
1.42625
1.37268
1.34428
1.32066
1.29562
1.27444
1.25707
1.23381
1.20469
1.16914
1.12832
1.06807
0.989507
0.924279
0.903775
0.915335
0.943273
0.987457
1.0394
1.08695
1.12238
1.14431
1.15909
1.1673
1.16968
1.16392
1.15287
1.14048
1.12993
1.12209
1.11712
1.11408
1.11281
1.11267
1.11339
1.11494
1.11736
1.12065
1.12447
1.12844
1.13267
1.13767
1.14381
1.15078
1.15818
1.16579
1.17384
1.18201
1.1906
1.19919
1.20823
1.21731
1.22691
1.23655
1.24669
1.25662
1.267
1.27701
1.28765
1.29801
1.30917
1.31997
1.33125
1.34196
1.35311
1.36377
1.37502
1.38575
1.39704
1.40762
1.41849
1.42853
1.43867
1.44795
1.4571
1.46511
1.4728
1.47908
1.48481
1.48923
1.49258
1.49502
1.49753
1.50351
1.10527
1.1597
1.21509
1.27126
1.32682
1.38088
1.43298
1.4835
1.53062
1.57489
1.61473
1.64572
1.66453
1.66455
1.64922
1.61194
1.54146
1.4662
1.41616
1.39129
1.37012
1.34929
1.32922
1.30731
1.27997
1.24293
1.18844
1.10443
1.01128
0.958732
0.952316
0.968806
1.00288
1.05156
1.10525
1.15129
1.18677
1.21232
1.22678
1.23679
1.24113
1.24191
1.23602
1.22519
1.21129
1.19825
1.18762
1.17996
1.17513
1.17225
1.17097
1.17068
1.17163
1.17336
1.176
1.17891
1.1823
1.1862
1.19135
1.19754
1.20442
1.21146
1.21876
1.22618
1.23392
1.24184
1.25021
1.25873
1.26776
1.27681
1.28644
1.29598
1.30606
1.31586
1.32613
1.33618
1.34679
1.35706
1.3679
1.37824
1.38904
1.39917
1.40975
1.4197
1.4301
1.4399
1.44998
1.45933
1.46866
1.47701
1.48487
1.49179
1.49771
1.50289
1.50703
1.51042
1.51309
1.51543
1.51782
1.52365
1.1072
1.15505
1.20503
1.2552
1.30614
1.35634
1.40533
1.4531
1.49904
1.54262
1.5832
1.61989
1.64862
1.66625
1.66649
1.65405
1.62293
1.56386
1.49655
1.4506
1.4263
1.40466
1.38363
1.35891
1.32725
1.27753
1.19771
1.09117
1.01002
0.984014
0.989875
1.01099
1.04984
1.10153
1.15092
1.19268
1.22711
1.25262
1.27188
1.28308
1.29055
1.29406
1.29438
1.28966
1.28046
1.26722
1.25254
1.24015
1.23077
1.2247
1.22139
1.22023
1.22025
1.22145
1.22337
1.22581
1.22824
1.23096
1.23457
1.23943
1.24558
1.25231
1.2597
1.26721
1.27516
1.28302
1.2913
1.29944
1.30807
1.3165
1.32557
1.33446
1.3442
1.35371
1.36408
1.37392
1.38437
1.39426
1.40473
1.4147
1.42508
1.43493
1.44493
1.45436
1.46383
1.47271
1.48165
1.49005
1.49812
1.50551
1.51206
1.51769
1.52245
1.52624
1.52952
1.53216
1.53466
1.53703
1.53961
1.54525
1.11151
1.15367
1.19824
1.24375
1.29011
1.33635
1.38264
1.4274
1.47175
1.51401
1.55465
1.59215
1.6263
1.65291
1.66923
1.66947
1.65914
1.63268
1.58143
1.52029
1.47504
1.44652
1.41943
1.38672
1.34088
1.26432
1.15045
1.0511
1.00499
1.00106
1.01375
1.04444
1.08933
1.13659
1.17898
1.21577
1.24705
1.2734
1.29467
1.31125
1.32199
1.32939
1.33237
1.33386
1.33144
1.32479
1.31383
1.30057
1.28838
1.27836
1.27152
1.26724
1.26556
1.26552
1.26699
1.26932
1.27208
1.27472
1.27791
1.2818
1.28709
1.29289
1.29958
1.30631
1.31373
1.32101
1.32901
1.33684
1.34545
1.35381
1.36298
1.37177
1.38141
1.3906
1.40049
1.40976
1.41965
1.429
1.43883
1.44836
1.45815
1.4678
1.47736
1.48664
1.49549
1.5039
1.51174
1.519
1.52539
1.53114
1.5359
1.54009
1.54343
1.54636
1.54907
1.55153
1.55425
1.55709
1.56029
1.56521
1.11915
1.15629
1.19562
1.23669
1.27853
1.32124
1.36355
1.40632
1.44751
1.48867
1.52789
1.56574
1.60073
1.63235
1.65735
1.67186
1.67176
1.66213
1.63841
1.59112
1.53254
1.48086
1.43889
1.38904
1.31242
1.19421
1.07908
1.01603
1.00349
1.0105
1.03362
1.07165
1.11491
1.15508
1.19091
1.22298
1.25182
1.2779
1.30085
1.32069
1.33656
1.34924
1.35754
1.36327
1.36574
1.36664
1.36348
1.35598
1.34503
1.33364
1.32348
1.31615
1.31149
1.30933
1.30915
1.3106
1.313
1.31536
1.31815
1.32134
1.32586
1.33097
1.33714
1.34335
1.35044
1.35733
1.36505
1.3725
1.38085
1.3888
1.39769
1.40607
1.41546
1.42419
1.43377
1.44274
1.45229
1.46142
1.47078
1.47993
1.48904
1.498
1.50676
1.5152
1.5233
1.53092
1.53796
1.54404
1.54926
1.55342
1.55675
1.55936
1.5616
1.56379
1.56605
1.56861
1.57183
1.57557
1.57988
1.58477
1.13008
1.16302
1.19785
1.23447
1.27256
1.31155
1.35075
1.39017
1.42941
1.46792
1.5057
1.54266
1.57714
1.61031
1.63869
1.66215
1.67245
1.67038
1.6592
1.63353
1.58444
1.51568
1.4432
1.35842
1.22937
1.09546
1.01882
0.999743
1.00344
1.02053
1.05125
1.08953
1.12617
1.15983
1.19045
1.21933
1.24655
1.27297
1.29754
1.32023
1.34027
1.35824
1.37313
1.38529
1.39297
1.39845
1.40129
1.40216
1.398
1.38966
1.37951
1.36944
1.3614
1.35579
1.35256
1.35185
1.35298
1.35493
1.35728
1.35963
1.36323
1.36738
1.37279
1.37818
1.38467
1.39092
1.39817
1.40502
1.41292
1.42039
1.42894
1.43702
1.44594
1.45433
1.46336
1.47206
1.48107
1.48993
1.49877
1.50754
1.51608
1.52434
1.53225
1.53961
1.54667
1.55301
1.55861
1.5633
1.56718
1.5701
1.57249
1.57439
1.57618
1.57817
1.58053
1.58355
1.58776
1.59288
1.59871
1.60433
1.14291
1.17192
1.20361
1.23649
1.27093
1.30603
1.34272
1.37846
1.41579
1.4513
1.48785
1.52225
1.55691
1.58833
1.61884
1.64377
1.66221
1.66529
1.65865
1.63952
1.60091
1.53173
1.42969
1.29078
1.12581
1.02181
0.993897
0.995543
1.00727
1.03248
1.06526
1.0973
1.12711
1.15565
1.18303
1.21058
1.23785
1.26544
1.29203
1.31758
1.34152
1.36395
1.38401
1.4012
1.41539
1.42567
1.43272
1.43701
1.43969
1.43858
1.43274
1.42352
1.4137
1.40445
1.39762
1.39303
1.39134
1.39166
1.39323
1.39477
1.39725
1.40032
1.40499
1.40974
1.4156
1.42129
1.42802
1.4345
1.44185
1.44896
1.4569
1.46462
1.47284
1.48092
1.48935
1.49773
1.50631
1.5148
1.52327
1.53153
1.53951
1.54705
1.55409
1.5606
1.56644
1.57128
1.57515
1.57813
1.58026
1.58189
1.58333
1.58485
1.58669
1.58897
1.59206
1.59632
1.60264
1.60959
1.61705
1.6229
1.15922
1.1849
1.21284
1.2427
1.27392
1.30586
1.33866
1.37251
1.40591
1.44018
1.47331
1.5063
1.53896
1.56852
1.59851
1.6214
1.64082
1.64346
1.6363
1.61977
1.57901
1.50735
1.37868
1.20096
1.05982
1.00116
0.99503
1.0017
1.01935
1.04589
1.07322
1.10029
1.12735
1.15441
1.18186
1.20947
1.23794
1.2659
1.2937
1.32055
1.34658
1.37061
1.39313
1.41303
1.43119
1.44561
1.45784
1.46515
1.47095
1.4738
1.47483
1.47171
1.4641
1.4544
1.44462
1.43664
1.43094
1.42794
1.4274
1.42825
1.42963
1.43147
1.43488
1.43902
1.4443
1.44953
1.45561
1.4618
1.4686
1.4756
1.48299
1.49046
1.4982
1.50599
1.51391
1.52185
1.52976
1.53756
1.54517
1.55249
1.55941
1.56583
1.57182
1.57713
1.58149
1.58483
1.58721
1.58884
1.59002
1.59121
1.59251
1.59417
1.59628
1.5992
1.60369
1.60981
1.6182
1.62667
1.63488
1.64074
1.17826
1.20076
1.22515
1.2518
1.27972
1.30959
1.33911
1.37005
1.4007
1.43212
1.46315
1.49329
1.5233
1.5507
1.57588
1.59583
1.60391
1.60032
1.58882
1.56212
1.51139
1.42036
1.296
1.18064
1.09993
1.05856
1.04902
1.05177
1.06016
1.07704
1.09936
1.12254
1.14647
1.17083
1.19602
1.22148
1.2475
1.27348
1.29968
1.32524
1.35035
1.37421
1.39721
1.41843
1.43842
1.456
1.47158
1.48368
1.49305
1.49917
1.50384
1.50552
1.5051
1.50014
1.49208
1.4822
1.47355
1.4669
1.46286
1.46184
1.46226
1.4634
1.46548
1.46846
1.47305
1.47799
1.48349
1.48934
1.49557
1.50214
1.50895
1.51595
1.52312
1.53042
1.53772
1.54505
1.55224
1.55929
1.56602
1.57232
1.57806
1.58337
1.58794
1.59151
1.59412
1.59569
1.59663
1.59738
1.59798
1.59879
1.60032
1.60236
1.60534
1.60988
1.61691
1.62505
1.63461
1.64366
1.65212
1.65787
1.20111
1.22128
1.2421
1.26482
1.28888
1.3152
1.34212
1.37032
1.39799
1.42668
1.45464
1.48217
1.50817
1.53086
1.54902
1.55589
1.55114
1.53875
1.51131
1.45912
1.38455
1.31085
1.26148
1.22445
1.18537
1.14723
1.1185
1.10448
1.10242
1.10547
1.11501
1.13091
1.15151
1.17426
1.19825
1.22246
1.24718
1.27226
1.29754
1.3228
1.34754
1.37177
1.39504
1.41762
1.43896
1.45902
1.47706
1.49341
1.50684
1.51813
1.52568
1.53252
1.53579
1.53712
1.53539
1.52937
1.52096
1.51203
1.50472
1.49977
1.49754
1.49737
1.49836
1.49989
1.50273
1.50693
1.51202
1.5175
1.52341
1.52942
1.53569
1.54198
1.54853
1.55507
1.56169
1.56823
1.57456
1.5806
1.58611
1.59106
1.59548
1.59917
1.60182
1.60343
1.60426
1.60479
1.60483
1.60467
1.60539
1.60688
1.60891
1.61197
1.61692
1.62406
1.63301
1.64212
1.65198
1.66115
1.66928
1.67468
1.22224
1.24132
1.2612
1.28146
1.30253
1.32462
1.34764
1.37269
1.39739
1.42232
1.44658
1.46907
1.48873
1.50197
1.50459
1.49689
1.48091
1.44706
1.39079
1.32614
1.27894
1.26049
1.25651
1.25524
1.24588
1.22345
1.19075
1.15858
1.13761
1.12976
1.13072
1.13613
1.14975
1.17122
1.19486
1.21946
1.24406
1.26909
1.29389
1.31879
1.34314
1.36725
1.3908
1.41429
1.43695
1.45879
1.47907
1.49819
1.5155
1.53099
1.54318
1.55368
1.56124
1.5675
1.56951
1.5703
1.56699
1.56067
1.55165
1.54392
1.53785
1.53427
1.53346
1.53398
1.535
1.53734
1.54109
1.54607
1.55146
1.55705
1.56276
1.5685
1.57431
1.58003
1.58578
1.59129
1.59652
1.60119
1.60524
1.60876
1.61146
1.61309
1.61382
1.61403
1.61375
1.61288
1.61229
1.61296
1.6144
1.61645
1.61975
1.62506
1.63277
1.64135
1.65121
1.66059
1.67046
1.67912
1.68653
1.69144
1.23663
1.25609
1.27528
1.29508
1.31485
1.33584
1.35646
1.37737
1.39858
1.4189
1.43728
1.45146
1.4576
1.45422
1.44228
1.41751
1.3741
1.31505
1.26353
1.23826
1.23612
1.24638
1.261
1.27597
1.27812
1.2731
1.25655
1.22585
1.18803
1.16112
1.15097
1.15142
1.15647
1.16956
1.19012
1.21464
1.23981
1.26524
1.29053
1.31567
1.34014
1.36442
1.38847
1.41259
1.43625
1.45914
1.48112
1.50222
1.52219
1.54067
1.55719
1.57121
1.58314
1.59255
1.60054
1.60432
1.60583
1.60482
1.5998
1.59227
1.58371
1.5768
1.57196
1.56983
1.56958
1.57012
1.57161
1.57484
1.57926
1.58424
1.58937
1.59457
1.59959
1.60446
1.60908
1.61332
1.61705
1.62009
1.62261
1.62427
1.62488
1.62509
1.62431
1.62307
1.62134
1.62056
1.62129
1.62267
1.62476
1.62831
1.63407
1.64185
1.65084
1.6601
1.67032
1.67946
1.68874
1.69649
1.70303
1.70715
1.25032
1.26874
1.28651
1.30469
1.3234
1.3426
1.36186
1.38049
1.39706
1.41096
1.41836
1.41763
1.40697
1.38839
1.35206
1.29828
1.24146
1.20715
1.1981
1.20587
1.22285
1.24764
1.27428
1.29356
1.29998
1.29971
1.29408
1.27838
1.24872
1.2131
1.1874
1.17698
1.17728
1.18223
1.19446
1.21413
1.23853
1.26416
1.29017
1.3157
1.34064
1.36483
1.38936
1.41365
1.43796
1.46127
1.48422
1.50638
1.52803
1.54836
1.56748
1.58472
1.60022
1.6129
1.62418
1.63276
1.63899
1.64064
1.64118
1.6384
1.63239
1.62338
1.61596
1.60951
1.60583
1.60439
1.60443
1.60505
1.60707
1.61052
1.61478
1.61916
1.62332
1.62712
1.63038
1.63305
1.63494
1.63633
1.63682
1.63688
1.63587
1.63402
1.63154
1.62962
1.62867
1.62964
1.63106
1.63336
1.63729
1.64351
1.65152
1.66043
1.6701
1.67939
1.6893
1.69774
1.7063
1.71286
1.71786
1.72114
1.26505
1.28304
1.2994
1.31519
1.3314
1.34795
1.36329
1.37729
1.38618
1.38689
1.37844
1.36289
1.3316
1.28354
1.2239
1.17942
1.16085
1.16401
1.17527
1.19945
1.23138
1.26105
1.28611
1.30446
1.31516
1.31762
1.31726
1.31192
1.29761
1.27293
1.24328
1.2201
1.20951
1.2093
1.21375
1.2243
1.24234
1.26571
1.29148
1.3173
1.34246
1.36691
1.39152
1.41609
1.44043
1.46389
1.4872
1.50992
1.53254
1.55391
1.57482
1.59401
1.61235
1.62841
1.64232
1.65456
1.66449
1.67214
1.67536
1.67629
1.67509
1.67008
1.66296
1.65392
1.647
1.64127
1.63853
1.6373
1.63715
1.63793
1.63993
1.64285
1.6457
1.64823
1.64982
1.6507
1.65087
1.65057
1.64925
1.64665
1.6434
1.64043
1.63824
1.63739
1.63853
1.64007
1.64262
1.64699
1.65389
1.66194
1.67091
1.68012
1.68988
1.69863
1.70768
1.71492
1.72211
1.72728
1.73085
1.73346
1.27716
1.29475
1.31264
1.32851
1.341
1.35259
1.36006
1.36146
1.35477
1.34018
1.31357
1.26887
1.20859
1.15525
1.12682
1.12241
1.13138
1.15156
1.18205
1.21517
1.24517
1.27028
1.29132
1.30778
1.32065
1.32856
1.33155
1.33219
1.32934
1.31966
1.30094
1.27659
1.25541
1.2442
1.24295
1.24664
1.25523
1.27088
1.29336
1.31856
1.34357
1.36846
1.39336
1.41857
1.44284
1.46684
1.49004
1.51366
1.53635
1.55907
1.58042
1.60166
1.62141
1.64033
1.65721
1.67227
1.68536
1.69673
1.70557
1.71036
1.71177
1.71156
1.70843
1.7015
1.69316
1.68388
1.6774
1.67199
1.66924
1.66744
1.6669
1.66701
1.66725
1.66743
1.66719
1.66668
1.66513
1.66182
1.65809
1.65405
1.6504
1.64809
1.64743
1.64857
1.65023
1.65312
1.65819
1.66491
1.67337
1.6822
1.69148
1.70038
1.70946
1.71734
1.72534
1.73116
1.73679
1.7402
1.74212
1.7442
1.29249
1.30469
1.32163
1.33635
1.34639
1.34775
1.34126
1.32607
1.30231
1.25882
1.19837
1.13592
1.09638
1.08338
1.08883
1.10352
1.13045
1.16503
1.19765
1.22668
1.25159
1.27229
1.29041
1.30594
1.32
1.33222
1.3412
1.3473
1.34899
1.34871
1.34357
1.33069
1.31105
1.2922
1.28055
1.27781
1.28073
1.28724
1.30059
1.32167
1.34508
1.36985
1.39535
1.42098
1.44583
1.4699
1.49385
1.5176
1.54122
1.56401
1.58661
1.60847
1.62998
1.65023
1.66956
1.68726
1.70316
1.7172
1.72926
1.73922
1.74527
1.74755
1.74779
1.74542
1.7394
1.73033
1.7204
1.71142
1.70383
1.69843
1.69436
1.69125
1.68861
1.68577
1.68298
1.67951
1.67547
1.67079
1.66596
1.66203
1.65983
1.65946
1.66053
1.66234
1.66555
1.67085
1.67822
1.68606
1.69504
1.70378
1.71272
1.72121
1.72925
1.73607
1.74227
1.74677
1.75019
1.75205
1.75223
1.75453
1.31437
1.31682
1.32596
1.33645
1.3345
1.32206
1.30073
1.26039