/*--------------------------------*- C++ -*----------------------------------*\
  =========                 |
  \\      /  F ield         | OpenFOAM: The Open Source CFD Toolbox
   \\    /   O peration     | Website:  https://openfoam.org
    \\  /    A nd           | Version:  6
     \\/     M anipulation  |
\*---------------------------------------------------------------------------*/
FoamFile
{
    version     2.0;
    format      ascii;
    class       surfaceScalarField;
    location    "4.5";
    object      phi;
}
// * * * * * * * * * * * * * * * * * * * * * * * * * * * * * * * * * * * * * //

dimensions      [1 0 -1 0 0 0 0];

internalField   nonuniform List<scalar> 
10325
(
0.00840002
3.66723e-10
0.00840002
2.2907e-09
0.00840001
6.95969e-09
0.00839999
1.84525e-08
0.00839995
4.17182e-08
0.00839985
9.80736e-08
0.00839964
2.07167e-07
0.00839911
4.99861e-07
0.00839813
1.02919e-06
0.00839511
2.85863e-06
0.00838829
6.85053e-06
0.00836556
2.26712e-05
0.00827498
8.98245e-05
0.00779848
0.000474946
0.00715574
0.000642276
0.00647083
0.000684781
0.0057981
0.000672732
0.00512412
0.000674041
0.00446448
0.000659669
0.00378018
0.000684295
0.00305702
0.000723187
0.00230926
0.00074769
0.00154963
0.000759548
0.000776586
0.00077307
0.000776566
0.00840002
7.66538e-10
0.00840002
4.79365e-09
0.00840001
1.45104e-08
0.00839999
3.85854e-08
0.00839994
8.7071e-08
0.00839983
2.06025e-07
0.00839961
4.34209e-07
0.00839902
1.06233e-06
0.00839791
2.1646e-06
0.00839446
6.1627e-06
0.00838649
1.48453e-05
0.00835907
5.0038e-05
0.0082484
0.000199739
0.00771594
0.00100584
0.00710234
0.00125542
0.00647737
0.00130962
0.00584114
0.00130897
0.00518553
0.00132971
0.0045076
0.00133764
0.00380055
0.00139133
0.00306915
0.00145462
0.00231414
0.00150264
0.00155042
0.00152318
0.000781666
0.00154185
0.00155821
0.00840002
1.19905e-09
0.00840002
7.49706e-09
0.00840001
2.26698e-08
0.00839999
6.036e-08
0.00839994
1.36237e-07
0.00839982
3.2337e-07
0.00839957
6.81912e-07
0.00839893
1.67827e-06
0.00839771
3.41284e-06
0.00839393
9.80187e-06
0.0083851
2.36954e-05
0.00835465
8.04317e-05
0.00823624
0.000317407
0.00769613
0.0015444
0.00707609
0.001875
0.00647082
0.00191476
0.00585983
0.00191998
0.00522557
0.00196404
0.00454904
0.00201422
0.00383623
0.00210413
0.00309671
0.00219417
0.00233604
0.00226326
0.00155436
0.00230477
0.0007706
0.00232564
0.00232878
0.00840002
1.65065e-09
0.00840002
1.032e-08
0.00840001
3.11875e-08
0.00839999
8.30924e-08
0.00839993
1.87559e-07
0.00839981
4.45858e-07
0.00839955
9.40447e-07
0.00839888
2.32188e-06
0.00839762
4.7067e-06
0.00839367
1.36031e-05
0.00838457
3.28248e-05
0.00835279
0.00011215
0.00823569
0.000433774
0.00769603
0.0020825
0.00707404
0.00249649
0.0064836
0.00250506
0.00589555
0.00250804
0.00528067
0.00257896
0.00461955
0.00267536
0.00391183
0.00281186
0.00316456
0.00294144
0.00239404
0.00303372
0.00160089
0.00309782
0.000791479
0.00313506
0.00312025
0.00840002
2.10527e-09
0.00840002
1.31669e-08
0.00840001
3.97846e-08
0.00839999
1.06041e-07
0.00839993
2.39231e-07
0.00839981
5.69404e-07
0.00839955
1.19991e-06
0.00839888
2.9659e-06
0.00839758
6.03391e-06
0.00839378
1.72629e-05
0.00838409
4.25332e-05
0.00835633
0.000139879
0.0082435
0.00054588
0.00771573
0.00260873
0.00709294
0.00311881
0.00651198
0.00308595
0.00594682
0.00307326
0.00535707
0.00316878
0.00471115
0.0033213
0.00401692
0.00350608
0.00328259
0.00367584
0.00249905
0.00381727
0.00168014
0.00391663
0.000841894
0.00397331
0.00396214
0.00840002
2.56637e-09
0.00840002
1.6073e-08
0.00840001
4.85548e-08
0.00839998
1.29575e-07
0.00839993
2.91976e-07
0.0083998
6.96937e-07
0.00839953
1.46737e-06
0.0083989
3.56961e-06
0.00839715
7.81293e-06
0.00839473
1.95488e-05
0.00838062
5.6633e-05
0.00837309
0.000147243
0.00825309
0.000665022
0.00774791
0.00311242
0.00710857
0.00375754
0.00657229
0.00362219
0.00603733
0.00360835
0.00547567
0.00373059
0.00485107
0.00394607
0.00416703
0.00419006
0.0034392
0.00440352
0.00266235
0.00459407
0.00182027
0.00475864
0.000921569
0.00487203
0.0048837
0.00840002
3.07256e-09
0.00840002
1.92378e-08
0.00840001
5.81172e-08
0.00839998
1.55045e-07
0.00839992
3.49425e-07
0.00839978
8.33358e-07
0.0083995
1.7544e-06
0.00839877
4.27132e-06
0.00839737
9.24125e-06
0.00839324
2.35353e-05
0.00838415
6.57385e-05
0.00835345
0.000177745
0.00826992
0.00074785
0.0078002
0.00358058
0.00717085
0.00438607
0.00666038
0.00413263
0.00615489
0.0041139
0.00562263
0.00426294
0.0050328
0.0045359
0.00438402
0.00483907
0.00367114
0.00511664
0.00288473
0.00538059
0.0020192
0.00562411
0.00105423
0.00583701
0.00593796
0.00840002
3.62404e-09
0.00840002
2.26736e-08
0.00840001
6.85363e-08
0.00839998
1.82612e-07
0.00839992
4.11956e-07
0.00839977
9.78946e-07
0.00839946
2.06352e-06
0.0083987
5.00408e-06
0.00839732
1.06446e-05
0.00839288
2.78356e-05
0.00838618
7.24801e-05
0.00834956
0.000214107
0.00828687
0.000809967
0.00787761
0.00398828
0.00730533
0.00495762
0.00679421
0.00464382
0.00631251
0.00459572
0.00581506
0.00476047
0.00526179
0.00508913
0.00465378
0.00544684
0.0039806
0.00578976
0.00323113
0.00613005
0.00234805
0.00650718
0.00128029
0.00690477
0.00721819
0.00840002
4.234e-09
0.00840002
2.64678e-08
0.00840001
8.00783e-08
0.00839998
2.13018e-07
0.00839991
4.81101e-07
0.00839974
1.1381e-06
0.00839941
2.40251e-06
0.00839858
5.8036e-06
0.00839721
1.20416e-05
0.0083922
3.27059e-05
0.00838678
7.7954e-05
0.0083457
0.000254886
0.00829023
0.000864932
0.00792467
0.00435232
0.0073999
0.00548148
0.00694644
0.00509726
0.0065054
0.0050369
0.00605433
0.00521172
0.00556505
0.00557859
0.00501752
0.00599465
0.00442486
0.00638258
0.00374435
0.00681061
0.00289247
0.00735904
0.00175942
0.00803771
0.00897766
0.00840002
4.93985e-09
0.00840002
3.08788e-08
0.0084
9.34088e-08
0.00839997
2.48517e-07
0.00839989
5.61365e-07
0.00839969
1.32803e-06
0.00839929
2.80404e-06
0.00839832
6.75273e-06
0.00839631
1.40771e-05
0.00839125
3.76192e-05
0.00837918
9.00803e-05
0.00834598
0.000287762
0.00825729
0.000953165
0.00783974
0.00476831
0.0075919
0.00572889
0.00711914
0.00557016
0.00672869
0.00542733
0.00629904
0.00564122
0.00591782
0.00595959
0.00550989
0.00640247
0.00504167
0.00685084
0.00447496
0.00737743
0.00378239
0.00805174
0.00281806
0.00900236
0.0117948
0.00840002
5.73621e-09
0.00840002
3.58531e-08
0.0084
1.08377e-07
0.00839996
2.88606e-07
0.00839987
6.52162e-07
0.00839965
1.54582e-06
0.00839919
3.26623e-06
0.00839803
7.88347e-06
0.00839573
1.63959e-05
0.00838945
4.37556e-05
0.00837508
0.000104485
0.00833417
0.000328335
0.00824137
0.0010455
0.0078025
0.00520541
0.00759782
0.00593288
0.0072545
0.00591439
0.00693765
0.00574471
0.00665996
0.00591917
0.00637095
0.00624871
0.00609878
0.00667458
0.00577543
0.00717411
0.00543861
0.00771423
0.0052566
0.00823371
0.00562032
0.00863832
0.00816408
0.00925141
0.00840002
6.5257e-09
0.00840002
4.07966e-08
0.0084
1.23055e-07
0.00839996
3.28568e-07
0.00839987
7.42185e-07
0.00839964
1.77014e-06
0.00839917
3.73829e-06
0.00839794
9.09339e-06
0.00839535
1.89909e-05
0.00838983
4.91362e-05
0.00836778
0.000126573
0.00834883
0.000346928
0.00826266
0.00113094
0.0079671
0.00549963
0.00763663
0.00626266
0.00738672
0.00616416
0.00719521
0.00593644
0.00700404
0.00611061
0.00679654
0.00645645
0.00661207
0.00685917
0.00649271
0.0072934
0.00652113
0.00768559
0.00676667
0.00798807
0.00741956
0.00798555
0.00725908
0.00832548
0.00840002
7.03556e-09
0.00840002
4.39282e-08
0.00840001
1.32413e-07
0.00839999
3.53527e-07
0.00839993
8.00251e-07
0.00839979
1.90535e-06
0.00839948
4.04117e-06
0.00839878
9.76735e-06
0.00839758
2.01991e-05
0.00839303
5.353e-05
0.0083946
0.000124924
0.00834601
0.00039544
0.00837297
0.00110277
0.00831396
0.00555704
0.00797446
0.00660231
0.00775372
0.0063851
0.00753056
0.00615954
0.00736788
0.0062734
0.00724098
0.00658347
0.00717046
0.00692983
0.00722051
0.00724354
0.00743358
0.00747265
0.00781554
0.00760596
0.00835168
0.00744895
0.00680195
0.00880836
0.00840003
6.98599e-09
0.00840003
4.35811e-08
0.00840003
1.31278e-07
0.00840003
3.50436e-07
0.00840004
7.91318e-07
0.00840005
1.8881e-06
0.00840013
3.9566e-06
0.00840014
9.73423e-06
0.00840126
1.90928e-05
0.00839876
5.58731e-05
0.00841373
0.000110019
0.00839604
0.00041269
0.00844963
0.00104853
0.00900318
0.00500133
0.00861952
0.00698673
0.00821277
0.00679238
0.00793656
0.00643587
0.00779415
0.00641549
0.00773348
0.00664406
0.00775034
0.00691299
0.00785447
0.00713972
0.0080928
0.00723443
0.00846372
0.00723555
0.00890027
0.00701125
0.00646744
0.00923427
0.00840003
6.30987e-09
0.00840003
3.93936e-08
0.00840004
1.19027e-07
0.00840008
3.16798e-07
0.00840015
7.16612e-07
0.00840034
1.69363e-06
0.00840072
3.57774e-06
0.00840192
8.51075e-06
0.00840348
1.75313e-05
0.00841301
4.62143e-05
0.00842836
9.46732e-05
0.00852372
0.000316865
0.00878458
0.000787271
0.0105129
0.00326997
0.00971525
0.00778533
0.00889278
0.00761561
0.00849832
0.00683082
0.00828783
0.0066259
0.00822416
0.00670764
0.00827455
0.00686223
0.00841058
0.00700339
0.00863323
0.00701209
0.00894198
0.00692825
0.00928165
0.00667057
0.00619037
0.00955889
0.00840003
5.4805e-09
0.00840003
3.42369e-08
0.00840005
1.03697e-07
0.00840009
2.75302e-07
0.00840018
6.23668e-07
0.00840041
1.46172e-06
0.00840088
3.11118e-06
0.00840216
7.21203e-06
0.00840443
1.52517e-05
0.00841451
3.6056e-05
0.00842395
8.52368e-05
0.00852009
0.000220367
0.00870914
0.000598326
0.009824
0.00215372
0.00990994
0.00769883
0.00980615
0.00771938
0.00908978
0.00754754
0.00879445
0.00692132
0.00868919
0.00681301
0.00871492
0.00683638
0.00884726
0.006872
0.00904988
0.00680767
0.0093192
0.006662
0.00958914
0.0063985
0.00596581
0.00981292
0.00840003
4.80111e-09
0.00840003
2.99903e-08
0.00840005
9.08334e-08
0.00840008
2.41106e-07
0.00840016
5.45418e-07
0.00840034
1.27936e-06
0.00840074
2.70689e-06
0.00840162
6.31886e-06
0.00840375
1.31174e-05
0.00840759
3.21445e-05
0.00842231
7.05402e-05
0.00845284
0.000189531
0.00852042
0.000530624
0.00886804
0.00180545
0.00973219
0.00683277
0.00967144
0.00777978
0.00949552
0.00772318
0.00921382
0.00720335
0.00909898
0.00692792
0.00910204
0.00683294
0.00920336
0.00677109
0.00936059
0.00664867
0.00958017
0.0064446
0.00980851
0.0061694
0.0057786
0.00999525
0.00840003
4.28056e-09
0.00840003
2.67185e-08
0.00840004
8.07812e-08
0.00840007
2.14718e-07
0.00840013
4.85838e-07
0.00840026
1.14318e-06
0.00840055
2.41784e-06
0.00840119
5.67183e-06
0.00840261
1.16927e-05
0.00840516
2.95348e-05
0.00841633
5.9426e-05
0.00842569
0.00017985
0.00852206
0.000434247
0.00875815
0.00156884
0.00967422
0.00591487
0.00970963
0.00774432
0.00964033
0.00779231
0.00947411
0.00736964
0.00941228
0.00698986
0.0094308
0.00681534
0.0095144
0.00668702
0.00963749
0.0065249
0.00979295
0.00629045
0.0099702
0.00599168
0.00562537
0.0101228
0.00840003
3.70512e-09
0.00840003
2.31168e-08
0.00840004
6.98216e-08
0.00840007
1.85717e-07
0.00840014
4.20375e-07
0.00840029
9.90227e-07
0.00840061
2.09648e-06
0.00840136
4.91468e-06
0.00840291
1.01356e-05
0.00840668
2.57212e-05
0.00841696
4.91716e-05
0.00844311
0.000153432
0.00852091
0.000356441
0.00881902
0.00127007
0.0106722
0.00405983
0.0102698
0.00814681
0.0101307
0.00793139
0.00987863
0.00762176
0.00975658
0.00711153
0.00975134
0.00682097
0.00980525
0.00663294
0.0098985
0.00642979
0.0100074
0.00618351
0.0101254
0.00587337
0.00551381
0.0102379
0.00840003
2.982e-09
0.00840003
1.86195e-08
0.00840005
5.64226e-08
0.00840008
1.49632e-07
0.00840016
3.38783e-07
0.00840036
7.92115e-07
0.00840078
1.6786e-06
0.00840181
3.87541e-06
0.00840391
8.03827e-06
0.00841046
1.91424e-05
0.00841914
4.05002e-05
0.00847253
9.98691e-05
0.00857286
0.000256029
0.00911918
0.00072348
0.0109729
0.00220468
0.0111851
0.00793382
0.0108923
0.00822436
0.0105047
0.00800971
0.0102299
0.00738544
0.0101218
0.00693116
0.0101179
0.00663681
0.0101636
0.00638266
0.0102341
0.0061133
0.0103041
0.00580307
0.00544896
0.0103691
0.00840003
2.36856e-09
0.00840003
1.47851e-08
0.00840005
4.48387e-08
0.00840008
1.18743e-07
0.00840015
2.68853e-07
0.00840031
6.26298e-07
0.00840066
1.32696e-06
0.00840149
3.04085e-06
0.00840323
6.29756e-06
0.00840737
1.49776e-05
0.00841803
2.98533e-05
0.00843544
8.22856e-05
0.00852302
0.000168562
0.0086562
0.000589794
0.00930011
0.00156024
0.0110377
0.00619407
0.0111182
0.00814361
0.0109583
0.0081695
0.0106322
0.00771105
0.0104691
0.00709516
0.0104106
0.00669528
0.0104121
0.0063812
0.0104476
0.00607828
0.0104917
0.00575874
0.00541171
0.0105282
0.00840003
1.87703e-09
0.00840003
1.17143e-08
0.00840004
3.54969e-08
0.00840007
9.40604e-08
0.00840012
2.12947e-07
0.00840025
4.96685e-07
0.00840053
1.05215e-06
0.00840115
2.41498e-06
0.00840246
4.98936e-06
0.0084056
1.18123e-05
0.00841162
2.3833e-05
0.00842972
6.40606e-05
0.00847541
0.000122937
0.00863141
0.000433346
0.00913968
0.00105171
0.011339
0.00399294
0.0113982
0.00808414
0.0113738
0.00819388
0.0111478
0.00793678
0.0108651
0.00737815
0.0107239
0.00683626
0.0106698
0.00643526
0.0106582
0.00609105
0.0106638
0.00575326
0.00539578
0.0106794
0.00840003
1.44685e-09
0.00840003
9.03422e-09
0.00840004
2.7388e-08
0.00840006
7.25581e-08
0.00840011
1.64258e-07
0.00840022
3.82873e-07
0.00840046
8.11743e-07
0.00840102
1.85847e-06
0.00840214
3.86451e-06
0.00840495
8.98097e-06
0.00841
1.87908e-05
0.00842982
4.41698e-05
0.00844762
0.000105033
0.00862911
0.000251638
0.00895411
0.000726888
0.0106516
0.00229541
0.0117165
0.00701754
0.0116707
0.00823898
0.0114735
0.0081336
0.0112129
0.00763917
0.011081
0.00696797
0.0109893
0.00652589
0.0109418
0.00613925
0.0109121
0.00578394
0.00542766
0.0108802
0.00840003
1.08447e-09
0.00840003
6.74874e-09
0.00840004
2.05904e-08
0.00840006
5.41215e-08
0.0084001
1.23296e-07
0.0084002
2.84595e-07
0.0084004
6.07212e-07
0.00840089
1.37266e-06
0.00840189
2.86185e-06
0.00840431
6.59019e-06
0.00840962
1.34479e-05
0.00841971
3.39299e-05
0.00846219
6.37681e-05
0.00851041
0.000202843
0.00879852
0.000442478
0.00936702
0.00172021
0.0116092
0.00477673
0.0118099
0.00804218
0.0118228
0.00811998
0.011656
0.0078045
0.0113801
0.00724295
0.0112664
0.00663926
0.0111934
0.00621181
0.0111474
0.00583108
0.00547273
0.0111029
0.00840003
6.67962e-10
0.00840003
5.27206e-09
0.00840004
1.35679e-08
0.00840005
4.15058e-08
0.00840009
8.09648e-08
0.00840016
2.18232e-07
0.00840037
3.91202e-07
0.00840068
1.05921e-06
0.00840175
1.79174e-06
0.00840324
5.13845e-06
0.00840861
8.09072e-06
0.00841664
2.6083e-05
0.00844445
3.62583e-05
0.00850165
0.000144657
0.00873219
0.000216078
0.0095313
0.000914138
0.0119513
0.00236926
0.0126325
0.00734652
0.0124041
0.00834015
0.012136
0.00807027
0.0118284
0.00755125
0.0116395
0.00682988
0.011507
0.00634419
0.0114099
0.00592728
0.0055492
0.0113343
0.00840003
5.60773e-10
0.00840003
3.11405e-09
0.00840004
1.04255e-08
0.00840005
2.53512e-08
0.00840007
6.24897e-08
0.00840015
1.32472e-07
0.00840024
3.08742e-07
0.00840067
6.28758e-07
0.00840108
1.46587e-06
0.00840338
2.91319e-06
0.00840508
7.02322e-06
0.00841753
1.32673e-05
0.00841603
3.6901e-05
0.0085081
6.1714e-05
0.00851234
0.00022048
0.00900703
0.000447419
0.00950349
0.00182183
0.0120568
0.00478992
0.0124777
0.00793031
0.0126069
0.00794703
0.0123985
0.00775758
0.0120727
0.00715266
0.0118585
0.0065583
0.0117209
0.00606471
0.00565889
0.0116121
0.00840003
3.90692e-10
0.00840003
2.18279e-09
0.00840003
7.14433e-09
0.00840004
1.76905e-08
0.00840006
4.2705e-08
0.0084001
9.2386e-08
0.0084002
2.10252e-07
0.00840039
4.38904e-07
0.00840086
9.94851e-07
0.00840174
2.04688e-06
0.00840407
4.69282e-06
0.0084077
9.75173e-06
0.00842211
2.20933e-05
0.0084347
5.02742e-05
0.0085454
0.000107005
0.00870463
0.000296962
0.00973501
0.000763661
0.0123793
0.00216962
0.0131009
0.00722541
0.0129652
0.00808107
0.0128675
0.00784984
0.0125056
0.00751035
0.0122707
0.00679378
0.0120744
0.00626225
0.00581329
0.0119211
0.00840003
2.53999e-10
0.00840003
1.43264e-09
0.00840003
4.66088e-09
0.00840004
1.16207e-08
0.00840005
2.76729e-08
0.00840009
6.01034e-08
0.00840016
1.34054e-07
0.00840032
2.80696e-07
0.00840069
6.19431e-07
0.00840146
1.2775e-06
0.00840329
2.87014e-06
0.0084074
5.67395e-06
0.00841531
1.42176e-05
0.00844098
2.47816e-05
0.00846609
8.12465e-05
0.00862822
0.000135448
0.0088308
0.000556706
0.00971595
0.0012861
0.0124205
0.00451962
0.0129533
0.00754388
0.013114
0.00768323
0.0130115
0.0076114
0.0126867
0.00711836
0.0124558
0.00649492
0.00599954
0.0122699
0.00840003
1.90357e-10
0.00840003
9.00116e-10
0.00840003
3.34725e-09
0.00840004
7.40679e-09
0.00840004
1.9937e-08
0.00840007
3.84855e-08
0.0084001
9.8452e-08
0.0084002
1.80527e-07
0.00840035
4.69599e-07
0.0084008
8.26702e-07
0.00840142
2.25065e-06
0.00840335
3.74791e-06
0.00840638
1.11947e-05
0.00841481
1.63835e-05
0.00843692
5.90317e-05
0.0084954
7.72486e-05
0.0087222
0.000328827
0.00938765
0.000620012
0.0119012
0.00200181
0.0130861
0.00635283
0.0131128
0.00765291
0.0132202
0.00750279
0.0130001
0.00733933
0.0127639
0.00673323
0.00619989
0.0125643
0.00840003
8.80852e-11
0.00840003
6.60142e-10
0.00840003
1.75606e-09
0.00840003
5.23801e-09
0.00840004
1.04506e-08
0.00840006
2.71566e-08
0.0084001
4.98615e-08
0.00840016
1.28349e-07
0.0084004
2.23985e-07
0.00840063
5.97793e-07
0.00840189
9.85777e-07
0.00840279
2.84872e-06
0.00840986
4.1276e-06
0.00841129
1.49104e-05
0.00845415
1.62701e-05
0.00844357
8.76153e-05
0.00868358
8.91489e-05
0.00875482
0.000548075
0.00965571
0.00109997
0.0125398
0.00346651
0.0131756
0.00701692
0.013246
0.00743274
0.0132578
0.00732774
0.0129594
0.0070313
0.00638773
0.0127714
0.00840003
6.4504e-11
0.00840003
3.60201e-10
0.00840003
1.20023e-09
0.00840003
2.92523e-09
0.00840004
7.11686e-09
0.00840005
1.50521e-08
0.00840006
3.43663e-08
0.00840012
6.973e-08
0.00840019
1.58435e-07
0.00840047
3.15055e-07
0.00840073
7.27848e-07
0.00840215
1.42271e-06
0.00840284
3.42382e-06
0.0084114
6.37262e-06
0.00841026
1.73359e-05
0.0084682
2.97761e-05
0.00845879
9.81859e-05
0.0088249
0.000182304
0.00925526
0.00066869
0.0110982
0.00162326
0.0132027
0.00491147
0.0134157
0.00721876
0.0134998
0.0072436
0.0134063
0.00712462
0.006687
0.0131065
0.00840003
4.03883e-11
0.00840003
2.27338e-10
0.00840003
7.43296e-10
0.00840003
1.84298e-09
0.00840003
4.40414e-09
0.00840004
9.49297e-09
0.00840005
2.12411e-08
0.00840008
4.40968e-08
0.00840014
9.77017e-08
0.00840025
2.00199e-07
0.00840053
4.46672e-07
0.00840105
9.08657e-07
0.0084024
2.0644e-06
0.00840465
4.12791e-06
0.00841208
9.87342e-06
0.0084227
1.91663e-05
0.00846911
5.15524e-05
0.00855193
9.97571e-05
0.00890297
0.000316919
0.00974789
0.000778452
0.0123075
0.00234958
0.0135174
0.00600777
0.0135581
0.0072031
0.0137094
0.00697364
0.00687954
0.0135183
0.00840003
2.53035e-11
0.00840003
1.42274e-10
0.00840003
4.65186e-10
0.00840003
1.15318e-09
0.00840003
2.759e-09
0.00840004
5.94809e-09
0.00840004
1.33405e-08
0.00840006
2.7704e-08
0.0084001
6.16043e-08
0.00840017
1.2628e-07
0.00840033
2.83077e-07
0.00840067
5.76003e-07
0.00840142
1.31013e-06
0.0084029
2.64845e-06
0.00840659
6.16574e-06
0.00841341
1.23469e-05
0.00843457
3.02823e-05
0.00847233
6.20362e-05
0.00862464
0.000164062
0.00899831
0.000405046
0.0100697
0.00127711
0.0128053
0.00327051
0.0136315
0.00637712
0.0137016
0.0069038
0.00675066
0.0138308
0.00840003
1.54444e-11
0.00840003
8.70941e-11
0.00840003
2.84012e-10
0.00840003
7.06082e-10
0.00840003
1.68205e-09
0.00840003
3.63453e-09
0.00840004
8.10372e-09
0.00840005
1.68697e-08
0.00840007
3.72123e-08
0.00840012
7.65268e-08
0.00840024
1.6965e-07
0.00840047
3.46762e-07
0.008401
7.76655e-07
0.00840207
1.57693e-06
0.00840462
3.6019e-06
0.00840979
7.18223e-06
0.00842275
1.72665e-05
0.00845111
3.3729e-05
0.00852428
9.05161e-05
0.00874533
0.000184181
0.00941929
0.00060211
0.0112747
0.00141458
0.0134305
0.00421882
0.0138219
0.00651162
0.00666506
0.0139068
0.00840003
9.82367e-12
0.00840003
4.99959e-11
0.00840003
1.76219e-10
0.00840003
4.09538e-10
0.00840003
1.04133e-09
0.00840003
2.11089e-09
0.00840004
5.03543e-09
0.00840004
9.78691e-09
0.00840006
2.33091e-08
0.00840009
4.43555e-08
0.00840015
1.07558e-07
0.0084003
2.00921e-07
0.00840057
5.0163e-07
0.00840124
9.08332e-07
0.00840244
2.39589e-06
0.00840565
3.9762e-06
0.00841104
1.18622e-05
0.00842803
1.67701e-05
0.00845852
5.98485e-05
0.0085666
7.63177e-05
0.00885754
0.00031056
0.00967305
0.000599019
0.0122464
0.00164451
0.0137389
0.00501736
0.00643729
0.0139647
0.00840003
4.47122e-12
0.00840003
3.04309e-11
0.00840003
8.67641e-11
0.00840003
2.42231e-10
0.00840003
5.13723e-10
0.00840003
1.23546e-09
0.00840003
2.43616e-09
0.00840004
5.68719e-09
0.00840005
1.09117e-08
0.00840007
2.56309e-08
0.00840013
4.81408e-08
0.00840021
1.16588e-07
0.00840051
2.08565e-07
0.00840087
5.45651e-07
0.0084024
8.76389e-07
0.0084037
2.68706e-06
0.00841217
3.47472e-06
0.00841486
1.40569e-05
0.00846172
1.34559e-05
0.00846145
7.60668e-05
0.00870469
6.85607e-05
0.00888388
0.000418073
0.00981426
0.000714802
0.012712
0.00211525
0.00530577
0.0138414
0.00840003
2.25918e-12
0.00840003
1.30902e-11
0.00840003
4.3153e-11
0.00840003
1.06334e-10
0.00840003
2.48938e-10
0.00840003
5.23649e-10
0.00840003
1.12045e-09
0.00840004
2.24211e-09
0.00840004
4.63758e-09
0.00840006
9.04602e-09
0.00840009
1.85107e-08
0.00840017
3.43103e-08
0.00840031
7.35943e-08
0.00840073
1.19182e-07
0.00840132
2.92691e-07
0.00840364
3.6921e-07
0.00840585
1.27328e-06
0.00841876
1.17729e-06
0.00842418
7.95259e-06
0.00849268
7.77783e-06
0.00850041
6.00883e-05
0.00883704
8.22616e-05
0.00912587
0.000424244
0.010372
0.000867736
0.00272191
0.0129518
0.00840003
1.28501e-12
0.00840003
6.61371e-12
0.00840003
2.32675e-11
0.00840003
5.40063e-11
0.00840003
1.34782e-10
0.00840003
2.68568e-10
0.00840003
6.23404e-10
0.00840003
1.1718e-09
0.00840003
2.72231e-09
0.00840004
4.92349e-09
0.00840005
1.18133e-08
0.00840006
2.06307e-08
0.00840008
5.18055e-08
0.00840011
8.78679e-08
0.00840017
2.32895e-07
0.00840016
3.78919e-07
0.00840034
1.10094e-06
0.00839986
1.65556e-06
0.00840219
5.60618e-06
0.0084022
7.80564e-06
0.00843096
3.11393e-05
0.00846951
4.39572e-05
0.00871186
0.00018073
0.00922254
0.000358099
0.00106102
0.010879
0.00840003
5.7191e-13
0.00840003
3.95725e-12
0.00840003
1.12027e-11
0.00840003
3.1451e-11
0.00840003
6.57191e-11
0.00840003
1.58376e-10
0.00840003
3.04604e-10
0.00840003
7.16136e-10
0.00840003
1.32586e-09
0.00840003
3.1781e-09
0.00840004
5.72538e-09
0.00840005
1.42503e-08
0.00840007
2.5124e-08
0.0084001
6.52482e-08
0.00840022
1.12223e-07
0.00840029
3.10114e-07
0.0084009
4.98109e-07
0.00840102
1.55308e-06
0.00840452
2.14738e-06
0.00840421
8.15749e-06
0.00842672
8.88016e-06
0.00842782
4.24387e-05
0.00856781
4.17549e-05
0.00870819
0.000214478
0.000346533
0.00942206
0.00840003
3.64229e-13
0.00840003
1.8996e-12
0.00840003
6.651e-12
0.00840003
1.55267e-11
0.00840003
3.89538e-11
0.00840003
7.89328e-11
0.00840003
1.84775e-10
0.00840003
3.57587e-10
0.00840003
8.38097e-10
0.00840003
1.56916e-09
0.00840004
3.81759e-09
0.00840004
6.87206e-09
0.00840005
1.75449e-08
0.00840009
2.99371e-08
0.00840013
8.07428e-08
0.00840032
1.22519e-07
0.00840051
3.70523e-07
0.00840177
4.04565e-07
0.0084026
1.64422e-06
0.00841083
9.49412e-07
0.00841389
7.02648e-06
0.00845784
3.84076e-06
0.00845094
4.6141e-05
0.00865219
1.89293e-05
0.000266052
0.00871985
0.00840003
1.44179e-13
0.00840003
9.74595e-13
0.00840003
2.82789e-12
0.00840003
7.77625e-12
0.00840003
1.64864e-11
0.00840003
3.85312e-11
0.00840003
7.48315e-11
0.00840003
1.6927e-10
0.00840003
3.10149e-10
0.00840003
7.33414e-10
0.00840003
1.19782e-09
0.00840004
3.19515e-09
0.00840005
4.46315e-09
0.00840007
1.40609e-08
0.00840013
1.58437e-08
0.00840019
7.00276e-08
0.00840054
2.45912e-08
0.00840061
3.54706e-07
0.00840265
-3.54251e-07
0.00840259
1.03476e-06
0.00841106
-2.0931e-06
0.0084223
-3.56232e-06
0.00847871
-8.59765e-06
0.00841947
5.73972e-05
-9.94302e-05
0.00893645
0.00840003
7.09669e-14
0.00840003
3.68606e-13
0.00840003
1.31834e-12
0.00840003
3.02049e-12
0.00840003
7.52804e-12
0.00840003
1.4538e-11
0.00840003
3.34868e-11
0.00840003
5.83293e-11
0.00840003
1.40463e-10
0.00840003
2.0019e-10
0.00840003
5.90242e-10
0.00840003
5.32515e-10
0.00840004
2.31194e-09
0.00840005
3.44849e-10
0.00840006
8.23644e-09
0.00840014
-1.25877e-08
0.00840011
5.51248e-08
0.00840053
-1.02243e-07
0.00839933
7.67466e-07
0.00840143
-6.89021e-07
0.0083951
3.3919e-06
0.0083684
2.019e-06
0.00837319
-8.1109e-06
0.00862768
-2.85571e-05
0.000166861
0.00819231
0.00840003
1.96318e-14
0.00840003
1.59754e-13
0.00840003
4.1549e-13
0.00840003
1.25523e-12
0.00840003
2.31657e-12
0.00840003
5.94451e-12
0.00840003
9.09327e-12
0.00840003
2.509e-11
0.00840003
2.53681e-11
0.00840003
1.14545e-10
0.00840003
1.53179e-11
0.00840003
5.52577e-10
0.00840003
-3.16322e-10
0.00840003
2.93241e-09
0.00840005
-3.56548e-09
0.00840002
1.6522e-08
0.00840003
-5.85588e-08
0.00839981
5.78419e-08
0.00840157
-5.47366e-07
0.00839939
7.761e-07
0.00840171
-1.03239e-06
0.00839931
7.19077e-06
0.00841226
1.07187e-05
0.00831968
2.83859e-05
-0.000128088
0.00834184
0.00840003
3.48631e-15
0.00840003
2.25688e-14
0.00840003
8.20551e-14
0.00840003
1.99721e-13
0.00840003
4.24834e-13
0.00840003
8.41023e-13
0.00840003
8.33274e-13
0.00840003
3.02367e-12
0.00840003
-4.81976e-12
0.00840003
-3.41766e-14
0.00840003
-7.33615e-11
0.00840003
-1.15073e-10
0.00840003
-1.02925e-09
0.00840004
-1.51523e-09
0.00840004
-1.11534e-08
0.00840008
-1.93353e-08
0.00840001
-5.91778e-08
0.00840019
-1.33573e-07
0.0084003
-1.71269e-07
0.00840141
-6.9906e-07
0.00840316
-1.74051e-07
0.00841677
-1.28892e-06
0.00841976
1.7995e-06
0.0084674
6.03206e-06
1.68714e-05
0.00827756
0.00840003
-8.10501e-15
0.00840003
-4.10848e-14
0.00840003
-1.32496e-13
0.00840003
-3.26575e-13
0.00840003
-8.56376e-13
0.00840003
-2.04341e-12
0.00840003
-4.76611e-12
0.00840003
-1.26617e-11
0.00840003
-2.5541e-11
0.00840003
-6.1376e-11
0.00840003
-1.4624e-10
0.00840003
-2.79485e-10
0.00840003
-6.65006e-10
0.00840003
-1.32449e-09
0.00840002
-2.17471e-09
0.0084
-5.22977e-09
0.00839998
-4.34121e-09
0.00839999
-1.6735e-08
0.00840032
-2.16871e-08
0.00840321
-2.377e-07
0.00840619
-2.18511e-07
0.00839346
-4.06717e-06
0.00842306
2.28967e-06
0.00827977
5.07043e-06
1.11162e-05
0.00843527
0.00840003
-1.0302e-14
0.00840003
-5.33154e-14
0.00840003
-1.62622e-13
0.00840003
-3.90323e-13
0.00840003
-9.18573e-13
0.00840003
-2.02048e-12
0.00840003
-4.38213e-12
0.00840003
-9.41287e-12
0.00840003
-1.83019e-11
0.00840003
-4.0582e-11
0.00840003
-6.81703e-11
0.00840003
-1.33596e-10
0.00840003
-1.71571e-10
0.00840003
-2.7877e-10
0.00840002
3.27032e-10
0.00840002
9.423e-10
0.00839998
8.23092e-09
0.00840009
1.87283e-08
0.00839958
6.22154e-08
0.00840004
1.56141e-07
0.00839889
3.10025e-07
0.00838306
7.41277e-07
0.00839072
1.17954e-06
0.00847876
3.01238e-06
8.02188e-06
0.00839631
0.00840003
-2.39869e-15
0.00840003
-1.59202e-14
0.00840003
-6.61685e-14
0.00840003
-1.58891e-13
0.00840003
-4.12385e-13
0.00840003
-7.93292e-13
0.00840003
-1.83263e-12
0.00840003
-3.1104e-12
0.00840003
-6.81163e-12
0.00840003
-8.19552e-12
0.00840003
-9.05253e-12
0.00840003
1.13271e-11
0.00840003
1.81054e-10
0.00840003
5.51254e-10
0.00840002
2.51961e-09
0.00840002
6.46973e-09
0.00839999
2.21522e-08
0.0084001
5.58698e-08
0.00839949
1.3773e-07
0.00840001
3.91271e-07
0.00839835
6.36489e-07
0.00838646
1.671e-06
0.0083896
3.07943e-06
0.00847273
2.13342e-06
3.51137e-06
0.00839483
0.00840003
-3.51824e-15
0.00840003
-7.86515e-14
0.00840003
-1.34234e-13
0.00840003
-6.40678e-13
0.00840003
-8.91286e-13
0.00840003
-3.63448e-12
0.00840003
-4.71049e-12
0.00840003
-1.96556e-11
0.00840003
-2.02856e-11
0.00840003
-1.10651e-10
0.00840003
-3.55331e-11
0.00840003
-5.7487e-10
0.00840003
4.64107e-10
0.00840003
-2.35845e-09
0.00840003
8.31932e-09
0.00840004
-3.08274e-09
0.00839995
9.16041e-08
0.00840017
-6.24761e-09
0.00839929
5.02913e-07
0.0084006
-7.0306e-08
0.00839846
9.1837e-07
0.00839342
-9.25493e-07
0.00841083
-1.09904e-05
0.00851137
-2.64602e-05
0.00013569
0.00830668
0.00840003
-2.39402e-14
0.00840003
-1.48893e-13
0.00840003
-4.24709e-13
0.00840003
-1.19368e-12
0.00840003
-2.77401e-12
0.00840003
-7.33097e-12
0.00840003
-1.64247e-11
0.00840003
-4.35517e-11
0.00840003
-9.61072e-11
0.00840003
-2.55852e-10
0.00840003
-5.58403e-10
0.00840003
-1.46489e-09
0.00840004
-3.24093e-09
0.00840004
-8.12048e-09
0.00840007
-1.80443e-08
0.00840011
-4.4154e-08
0.00840033
-1.06436e-07
0.00840045
-1.54868e-07
0.00840161
-4.74008e-07
0.00840125
-2.84352e-08
0.00840507
-8.1943e-07
0.00839931
1.2223e-06
0.00835027
1.15985e-05
0.00831295
2.71644e-05
-0.000131274
0.00880169
0.00840003
0.00840003
0.00840003
0.00840003
0.00840003
0.00840003
0.00840003
0.00840003
0.00840003
0.00840003
0.00840003
0.00840003
0.00840002
0.00840002
0.0084
0.00839995
0.00839985
0.00839965
0.00839933
0.00839872
0.00839907
0.00840686
0.00841198
0.00836682
0.008295
0.00556412
0.00368596
0.00392784
0.00163707
0.00301986
0.000905863
0.00248062
0.000539308
0.00213013
0.000332797
0.00190045
0.000214377
0.00173898
0.000125533
0.00161319
7.22534e-05
0.00127068
0.000112245
0.000430626
0.000685105
-0.000185086
0.00058128
-0.000578093
0.000375122
-0.000898196
0.000314783
-0.00120591
0.000297941
-0.00147767
0.000283917
-0.00172287
0.000278412
-0.00194085
0.000246707
-0.0021286
0.000202284
-0.00228461
0.000161445
-0.00240362
0.000124562
-0.00249949
0.000100707
-0.00258655
9.47774e-05
-0.00267296
9.37702e-05
-0.00275949
8.97699e-05
-0.00283629
8.1368e-05
-0.00290061
6.79361e-05
-0.00295394
5.61583e-05
-0.00300222
5.09317e-05
-0.00304309
4.15371e-05
-0.00306941
2.66635e-05
-0.00307973
8.50769e-06
-0.00306947
-1.53495e-05
-0.00302897
-4.81915e-05
-0.0029528
-8.59049e-05
-0.00283919
-0.000123999
-0.00269182
-0.000157669
-0.0025099
-0.000191256
-0.00229935
-0.000219566
-0.0020759
-0.000232093
-0.00184078
-0.000241978
-0.00160294
-0.000244994
-0.00136785
-0.000242986
-0.00113315
-0.000242357
-0.000879624
-0.000261242
-0.000630676
-0.000256236
-0.000380904
-0.000256285
-0.000126491
-0.00025984
0.000138263
-0.000269193
0.000410513
-0.000275521
0.000657173
-0.000248683
0.000891944
-0.000235935
0.00111615
-0.00022475
0.00133339
-0.000217519
0.00153922
-0.000205989
0.00173828
-0.00019852
0.00193363
-0.000193848
0.0021277
-0.000191619
0.00231408
-0.00018304
0.00249274
-0.00017411
0.00266417
-0.000165861
0.00282805
-0.000157609
0.0029849
-0.000150145
0.00313423
-0.00014248
0.00327696
-0.000135638
0.00341222
-0.000128571
0.00354032
-0.000122067