/*--------------------------------*- C++ -*----------------------------------*\
  =========                 |
  \\      /  F ield         | OpenFOAM: The Open Source CFD Toolbox
   \\    /   O peration     | Website:  https://openfoam.org
    \\  /    A nd           | Version:  6
     \\/     M anipulation  |
\*---------------------------------------------------------------------------*/
FoamFile
{
    version     2.0;
    format      ascii;
    class       volScalarField;
    location    "4.5";
    object      T;
}
// * * * * * * * * * * * * * * * * * * * * * * * * * * * * * * * * * * * * * //

dimensions      [0 0 0 1 0 0 0];

internalField   nonuniform List<scalar> 
5250
(
1.00006
1.00013
1.00041
1.00081
1.0023
1.00443
1.01213
1.02541
1.06196
1.15433
1.36914
1.94508
2.80079
2.75812
2.79536
2.74755
2.72929
2.74788
2.75979
2.77436
2.782
2.78685
2.79153
2.79423
2.79613
1.00006
1.00013
1.00041
1.0008
1.00229
1.00441
1.01208
1.0253
1.06173
1.15368
1.36775
1.94061
2.79929
2.75869
2.793
2.74594
2.72857
2.74688
2.75903
2.7725
2.78016
2.78408
2.78905
2.7916
2.7928
1.00006
1.00013
1.00041
1.0008
1.00227
1.00437
1.01198
1.02507
1.06124
1.1522
1.36463
1.92889
2.7961
2.76004
2.78716
2.74221
2.72663
2.74461
2.75721
2.77009
2.77751
2.78196
2.78485
2.78811
2.7894
1.00005
1.00013
1.0004
1.00078
1.00224
1.00431
1.01182
1.0247
1.06046
1.14981
1.35958
1.90919
2.79099
2.7621
2.77868
2.73778
2.72335
2.74059
2.75249
2.76493
2.76977
2.77657
2.78034
2.7806
2.78113
1.00005
1.00013
1.00039
1.00077
1.0022
1.00423
1.0116
1.02419
1.05938
1.14646
1.35252
1.88111
2.78333
2.76407
2.76587
2.73049
2.7188
2.7358
2.7472
2.75945
2.76387
2.76556
2.77037
2.77314
2.77334
1.00005
1.00013
1.00038
1.00075
1.00214
1.00412
1.01132
1.02353
1.05803
1.14222
1.34329
1.8481
2.77151
2.76811
2.75693
2.71839
2.70876
2.72542
2.73617
2.74646
2.75457
2.75758
2.75707
2.7566
2.75771
1.00005
1.00012
1.00037
1.00073
1.00208
1.00398
1.011
1.02274
1.05634
1.13789
1.33031
1.82718
2.75863
2.76461
2.74869
2.70989
2.7008
2.7146
2.72668
2.7336
2.73645
2.73866
2.74322
2.74205
2.73887
1.00005
1.00012
1.00036
1.0007
1.002
1.00382
1.01061
1.02178
1.05432
1.1326
1.31501
1.80087
2.73296
2.76017
2.73786
2.69991
2.68908
2.69984
2.70967
2.71943
2.72212
2.7211
2.71526
2.71221
2.70768
1.00005
1.00011
1.00034
1.00066
1.0019
1.00363
1.01014
1.02068
1.05189
1.12621
1.29785
1.76872
2.69397
2.75135
2.7215
2.69766
2.68008
2.68748
2.68918
2.69445
2.69636
2.69492
2.69007
2.67475
2.65511
1.00004
1.0001
1.00032
1.00062
1.0018
1.00342
1.00957
1.01944
1.04901
1.11853
1.2792
1.73064
2.63406
2.73927
2.69116
2.68711
2.67329
2.67703
2.67559
2.67294
2.66733
2.65812
2.63859
2.612
2.5454
1.00004
1.0001
1.0003
1.00058
1.00167
1.00317
1.0089
1.01798
1.04563
1.10969
1.25749
1.68408
2.5667
2.71053
2.68768
2.6707
2.65644
2.65874
2.65854
2.65305
2.63522
2.62069
2.58721
2.51658
2.37788
1.00004
1.00009
1.00027
1.00053
1.00152
1.00288
1.00812
1.01628
1.04169
1.09926
1.23208
1.62625
2.47199
2.67316
2.67883
2.66217
2.64153
2.63752
2.63438
2.62545
2.60639
2.5664
2.5262
2.45448
2.30618
1.00003
1.00008
1.00024
1.00047
1.00135
1.00254
1.00723
1.01426
1.03714
1.0874
1.20053
1.55466
2.35505
2.61884
2.66884
2.65483
2.63016
2.61937
2.61038
2.59907
2.57675
2.53867
2.46816
2.40443
2.29311
1.00003
1.00007
1.00021
1.0004
1.00116
1.00217
1.00621
1.01213
1.03185
1.07428
1.16765
1.47033
2.20112
2.54779
2.6549
2.64058
2.6226
2.59668
2.58418
2.56499
2.5419
2.51225
2.44921
2.38093
2.29164
1.00002
1.00006
1.00017
1.00034
1.00096
1.00181
1.00519
1.00998
1.02694
1.0589
1.14102
1.36381
1.98298
2.46534
2.62258
2.60934
2.60197
2.58316
2.56152
2.5423
2.50524
2.47811
2.42489
2.36805
2.29475
1.00002
1.00005
1.00014
1.00028
1.0008
1.0015
1.00429
1.00817
1.02241
1.04714
1.11784
1.28444
1.79975
2.39663
2.59821
2.56916
2.56571
2.55526
2.54042
2.5248
2.48893
2.45597
2.40537
2.34926
2.29184
1.00002
1.00004
1.00012
1.00023
1.00065
1.00122
1.00352
1.00668
1.01832
1.03913
1.09335
1.24315
1.59733
2.32493
2.56489
2.55905
2.53415
2.52308
2.50725
2.49695
2.47115
2.44154
2.39837
2.34309
2.28878
1.00001
1.00003
1.00009
1.00018
1.00053
1.00099
1.00286
1.00535
1.01494
1.03136
1.07501
1.2002
1.45948
2.13615
2.49499
2.54736
2.51962
2.50831
2.4858
2.46778
2.45002
2.41953
2.38818
2.3413
2.29071
1.00001
1.00002
1.00007
1.00014
1.00041
1.00077
1.00224
1.00416
1.0118
1.02401
1.05885
1.15108
1.34407
1.9366
2.3593
2.51391
2.508
2.49241
2.47186
2.44753
2.42642
2.40154
2.36914
2.33526
2.29072
1.00001
1.00002
1.00006
1.00011
1.00031
1.00059
1.0017
1.00313
1.00898
1.01744
1.04569
1.10443
1.25169
1.61318
2.27344
2.44617
2.46816
2.46186
2.45021
2.42846
2.40507
2.3826
2.35269
2.32075
2.28674
1.00001
1.00001
1.00004
1.00008
1.00024
1.00044
1.00128
1.00233
1.0068
1.0129
1.03439
1.07935
1.17896
1.49728
2.15581
2.38887
2.44033
2.43098
2.4226
2.40572
2.38564
2.3654
2.33941
2.30892
2.27644
1
1.00001
1.00003
1.00006
1.00017
1.00032
1.00094
1.00172
1.00503
1.00939
1.02585
1.05599
1.13237
1.34897
1.9048
2.28564
2.41123
2.40772
2.3932
2.38066
2.36223
2.34494
2.32577
2.30091
2.27263
1
1.00001
1.00002
1.00004
1.00013
1.00023
1.00067
1.00123
1.00359
1.00662
1.01873
1.03751
1.09826
1.2203
1.64419
2.11435
2.36047
2.38254
2.37441
2.35918
2.33927
2.3206
2.30207
2.28049
2.25851
1
1.00001
1.00002
1.00003
1.00009
1.00016
1.00047
1.00085
1.00251
1.00453
1.01292
1.026
1.06472
1.16412
1.37633
1.92109
2.24696
2.34867
2.35248
2.34561
2.33089
2.31093
2.29212
2.27081
2.24707
1
1
1.00001
1.00002
1.00006
1.00011
1.00031
1.00057
1.00168
1.00302
1.00876
1.0167
1.04444
1.09791
1.24596
1.5587
2.13625
2.28225
2.29848
2.30858
2.30291
2.28937
2.27394
2.25724
2.23797
1
1
1.00001
1.00002
1.00003
1.00009
1.00017
1.00048
1.00086
1.00252
1.00465
1.01247
1.02752
1.06446
1.16931
1.39309
1.89912
2.2288
2.28681
2.28601
2.27965
2.26956
2.25204
2.23714
2.2213
1
1
1
1.00001
1.00002
1.00006
1.00011
1.00032
1.00056
1.00167
1.00295
1.00868
1.0163
1.04373
1.09507
1.24064
1.5326
2.07015
2.24051
2.25409
2.25457
2.24574
2.23124
2.21593
2.20283
1
1
1
1.00001
1.00001
1.00004
1.00007
1.0002
1.00035
1.00104
1.00183
1.0052
1.01017
1.02562
1.06515
1.14163
1.41006
1.91768
2.16727
2.23731
2.23628
2.22371
2.21148
2.19339
2.17663
1
1
1
1
1.00001
1.00002
1.00004
1.00013
1.00023
1.00068
1.00117
1.00359
1.00632
1.0185
1.03652
1.09565
1.21491
1.62704
1.97282
2.18841
2.21701
2.21423
2.20089
2.1835
2.16369
1
1
1
1
1.00001
1.00001
1.00003
1.00006
1.00017
1.0003
1.00086
1.00157
1.00424
1.0089
1.02171
1.05736
1.12794
1.36295
1.84971
2.07523
2.17157
2.19058
2.1854
2.17486
2.15808
1
1
1
1
1
1.00001
1.00002
1.00004
1.00008
1.00024
1.00041
1.00124
1.00219
1.00629
1.01234
1.03238
1.07814
1.1796
1.46785
1.95918
2.10591
2.14109
2.14956
2.14714
2.14202
1
1
1
1
1
1.00001
1.00001
1.00003
1.00005
1.00014
1.00025
1.00077
1.00128
1.00398
1.00692
1.01984
1.04129
1.10107
1.25289
1.64136
1.98125
2.12384
2.12727
2.12611
2.1152
1
1
1
1
1
1
1.00001
1.00002
1.00003
1.00009
1.00015
1.00045
1.00075
1.00241
1.00396
1.01231
1.02235
1.06195
1.13341
1.35689
1.70797
2.03451
2.11378
2.11435
2.11013
1
1
1
1
1
1
1
1.00001
1.00002
1.00005
1.00008
1.00025
1.00042
1.00131
1.00214
1.00669
1.01168
1.0334
1.07127
1.17267
1.41896
1.85696
2.0423
2.08942
2.09534
1
1
1
1
1
1
1
1
1.00001
1.00003
1.00004
1.00013
1.00022
1.00069
1.00113
1.00356
1.00601
1.01798
1.03527
1.09222
1.21033
1.56984
1.84447
2.03468
2.06528
1
1
1
1
1
1
1
1
1.00001
1.00001
1.00003
1.00004
1.00012
1.00022
1.00058
1.00115
1.00281
1.00699
1.01661
1.04615
1.10956
1.29333
1.68952
1.90416
2.02948
1
1
1
1
1
1
1
1
1
1
1.00001
1.00002
1.00004
1.00009
1.00019
1.00034
1.00108
1.00178
1.00759
1.01642
1.05585
1.12593
1.35989
1.75165
1.93791
1
1
1
1
1
1
1
1
1
1
1.00001
1.00002
1.00003
1.00009
1.00013
1.00047
1.00072
1.00253
1.00403
1.0135
1.02414
1.07183
1.14737
1.42982
1.69588
1
1
1
1
1
1
1
1
1
1
1
1.00001
1.00002
1.00003
1.0001
1.00016
1.0005
1.00083
1.00264
1.00469
1.01418
1.02839
1.07953
1.16943
1.48474
1
1
1
1
1
1
1
1
1
1
1
1
1.00001
1.00002
1.00003
1.00009
1.00017
1.00044
1.00091
1.00207
1.0059
1.01409
1.03923
1.10101
1.24717
1
1
1
1
1
1
1
1
1
1
1
1
1
1.00001
1.00001
1.00004
1.00005
1.00026
1.00039
1.00181
1.00233
1.01443
1.00352
1.0796
1.15982
1
1
1
1
1
1
1
1
1
1
1
1
1
1
1.00001
1.00001
1.00009
1.00012
1.00083
1.0014
1.00682
1.00598
1.02334
1.04639
1.17841
1
1
1
1
1
1
1
1
1
1
1
1
1
1
1.00001
1.00003
1.00003
1.00025
1.00023
1.00186
1.00311
1.01493
1.01466
1.06331
1.11597
1
1
1
1
1
1
1
1
1
1
1
1
1
1
1.00001
1.00001
1.00008
1.00016
1.00058
1.00092
1.00487
1.00204
1.02288
1.0453
1.15625
1
1
1
1
1
1
1
1
1
1
1
1
1
1
1.00001
1.00003
1.00011
1.00019
1.00078
1.00105
1.00447
1.0032
1.02029
1.04294
1.14485
1
1
1
1
1
1
1
1
1
1
1
1
1
1
1.00001
1.00003
1.00011
1.0002
1.00082
1.00113
1.00555
1.00539
1.01923
1.03321
1.14342
1
1
1
1
1
1
1
1
1
1
1
1
1
1
1.00001
1.00003
1.0001
1.00019
1.00078
1.00108
1.00533
1.00502
1.01863
1.03154
1.14023
1
1
1
1
1
1
1
1
1
1
1
1
1
1
1.00001
1.00002
1.00009
1.00017
1.0007
1.00096
1.00475
1.0039
1.01751
1.02348
1.13866
1
1
1
1
1
1
1
1
1
1
1
1
1
1
1.00001
1.00002
1.00002
1.00018
1.00028
1.00152
1.00253
1.01197
1.01142
1.05186
1.08743
1
1
1
1
1
1
1
1
1
1
1
1
1
1.00001
1.00002
1.00003
1.00013
1.00019
1.00078
1.00107
1.0047
1.004
1.01759
1.02394
1.13602
2.24497
2.09745
1.98609
1.95199
1.96911
2.0823
2.24588
2.61321
2.91768
3.23204
3.18262
3.10958
3.04891
2.99401
2.9154
2.90186
2.91305
2.91446
2.8994
2.89019
2.88189
2.86888
2.86275
2.84981
2.83719
2.82754
2.81404
2.80789
2.80228
2.79838
2.79918
2.80457
2.81576
2.83267
2.85168
2.87304
2.89247
2.91099
2.92507
2.93836
2.94984
2.95564
2.96024
2.96401
2.96486
2.96409
2.96307
2.95842
2.94798
2.94449
2.93686
2.93225
2.92253
2.91703
2.90669
2.8989
2.88734
2.87778
2.86643
2.85613
2.84465
2.83411
2.82263
2.81172
2.79944
2.78827
2.77615
2.76476
2.75163
2.74068
2.72645
2.71581
2.70153
2.69059
2.67599
2.66495
2.64926
2.63867
2.62198
2.61142
2.59492
2.58398
2.56785
2.55713
2.54108
2.53082
2.51511
2.50528
2.49018
2.48077
2.4666
2.45791
2.44468
2.43751
2.4254
2.42035
2.4107
2.40847
2.40458
2.40626
2.17554
2.06318
1.98783
1.95536
1.96335
2.00977
2.06701
2.20604
2.38657
2.78353
2.92268
2.95986
2.98874
3.01096
3.01839
3.02236
3.02496
3.02602
3.02496
3.0133
3.00779
3.01402
3.01976
3.01617
3.00378
2.99777
2.99151
2.98426
2.98089
2.97937
2.98087
2.98342
2.98936
2.99396
2.99955
3.00198
3.00388
3.0051
2.99674
2.99277
2.98631
2.97442
2.95797
2.95002
2.93399
2.92035
2.90654
2.8912
2.87693
2.86218
2.84812
2.83331
2.81849
2.80464
2.78993
2.7763
2.76075
2.74764
2.73177
2.71917
2.70257
2.69059
2.67421
2.66256
2.64609
2.63452
2.6181
2.60651
2.59013
2.57824
2.56206
2.55013
2.53403
2.52229
2.50605
2.49466
2.4782
2.46702
2.45053
2.43937
2.42305
2.41192
2.39598
2.3849
2.36959
2.35837
2.3439
2.33271
2.31862
2.30821
2.29408
2.2848
2.27112
2.2627
2.25078
2.24311
2.23404
2.22905
2.22455
2.22298
2.18977
2.09826
2.02274
1.96162
1.92226
1.87342
1.87381
1.90565
2
2.24962
2.56567
2.60465
2.686
2.7646
2.81164
2.86596
2.90105
2.93571
2.96956
2.99243
3.00771
3.02242
3.03518
3.04366
3.04762
3.04847
3.04855
3.04832
3.05471
3.06569
3.07279
3.07872
3.07943
3.07172
3.05702
3.03209
3.00606
2.98341
2.94994
2.92765
2.90131
2.88264
2.86093
2.84591
2.82359
2.80994
2.79066
2.77639
2.76015
2.74707
2.73148
2.71951
2.70464
2.69319
2.67894
2.66884
2.65418
2.64254
2.62796
2.61684
2.60321
2.59259
2.57886
2.56774
2.55381
2.542
2.52824
2.51617
2.50268
2.49075
2.47727
2.4655
2.45156
2.44004
2.42585
2.41436
2.4007
2.38898
2.37592
2.36415
2.35116
2.33959
2.32664
2.31518
2.30267
2.29126
2.2793
2.26822
2.25627
2.24608
2.23378
2.22471
2.21278
2.20439
2.19412
2.18655
2.17865
2.17359
2.17041
2.16826
2.20094
2.12055
2.04379
1.97823
1.91633
1.86943
1.83274
1.83556
1.87116
1.96837
2.14348
2.36567
2.44996
2.51118
2.57956
2.61689
2.65575
2.70791
2.76151
2.81928
2.858
2.88679
2.92739
2.9583
2.97741
2.99127
3.00663
3.02282
3.03697
3.04786
3.05074
3.04516
3.0283
2.99903
2.9656
2.92258
2.88603
2.85226
2.82591
2.79822
2.77624
2.75308
2.73674
2.71847
2.70474
2.69122
2.67714
2.6653
2.65234
2.64036
2.6286
2.61605
2.60565
2.5941
2.58596
2.57566
2.56705
2.55515
2.5444
2.53267
2.52204
2.51116
2.50098
2.49078
2.48082
2.47037
2.45999
2.44873
2.43735
2.42564
2.41342
2.40198
2.38942
2.37807
2.3651
2.35335
2.33987
2.32794
2.31427
2.30254
2.28901
2.27746
2.26428
2.25273
2.24004
2.22854
2.21609
2.20508
2.19268
2.18289
2.17073
2.16219
2.15103
2.14335
2.1341
2.12764
2.12078
2.11692
2.11488
2.11344
2.21403
2.14071
2.07003
2.00289
1.94473
1.88984
1.84697
1.81973
1.82292
1.85486
1.95131
2.05995
2.25758
2.35195
2.37865
2.41916
2.47109
2.51007
2.54577
2.58768
2.62747
2.66864
2.70628
2.74356
2.77792
2.80834
2.84338
2.87111
2.89772
2.90582
2.90468
2.89845
2.87473
2.84044
2.80482
2.75651
2.72021
2.69312
2.67552
2.66063
2.64634
2.63281
2.61989
2.60769
2.59782
2.58845
2.58156
2.57492
2.5688
2.56254
2.55494
2.54654
2.53608
2.52615
2.51595
2.50838
2.50032
2.49319
2.48381
2.47525
2.46455
2.45449
2.4432
2.43297
2.42242
2.41266
2.40281
2.39338
2.3833
2.37361
2.36236
2.35221
2.3403
2.33012
2.31829
2.30786
2.29568
2.28482
2.27221
2.26151
2.24907
2.23849
2.22632
2.21522
2.20299
2.19178
2.17953
2.16933
2.15705
2.14814
2.1363
2.12843
2.11783
2.11079
2.10185
2.09584
2.08939
2.08598
2.08446
2.08303
2.22225
2.15505
2.09154
2.03178
1.97215
1.92306
1.87487
1.83849
1.81556
1.81884
1.84685
1.93374
2.01431
2.18075
2.26284
2.28348
2.31222
2.35911
2.39538
2.41917
2.44572
2.47979
2.50409
2.54119
2.57634
2.60942
2.64157
2.6703
2.70046
2.72496
2.73486
2.73109
2.70376
2.66956
2.62755
2.59015
2.56111
2.5415
2.52995
2.52813
2.52483
2.52273
2.51761
2.51355
2.50697
2.50247
2.49637
2.49134
2.48589
2.48086
2.47616
2.47076
2.4645
2.4569
2.44773
2.4391
2.4302
2.42239
2.41354
2.40585
2.39749
2.3891
2.37988
2.37032
2.36053
2.35076
2.34034
2.33079
2.32027
2.31154
2.301
2.29192
2.28023
2.27011
2.25796
2.24806
2.23634
2.22653
2.21441
2.20378
2.19143
2.18069
2.16888
2.15839
2.14661
2.13595
2.12374
2.11356
2.10158
2.09278
2.08152
2.07374
2.06378
2.05677
2.04927
2.04373
2.03927
2.03713
2.03629
2.03459
2.22843
2.16678
2.10666
2.05233
1.99878
1.94762
1.90469
1.86117
1.83062
1.81133
1.81444
1.83974
1.90796
1.98191
2.11971
2.18881
2.20965
2.23237
2.26947
2.29624
2.31175
2.33682
2.36726
2.3909
2.41903
2.44448
2.47874
2.50501
2.54176
2.57949
2.60227
2.60102
2.57971
2.54416
2.50461
2.46942
2.4418
2.42289
2.41322
2.4135
2.41796
2.42393
2.42743
2.42768
2.42594
2.4221
2.41764
2.41343
2.40901
2.40478
2.4001
2.39529
2.38927
2.38327
2.3757
2.36846
2.36019
2.35296
2.34489
2.33721
2.32943
2.32174
2.31367
2.30534
2.29705
2.28901
2.2807
2.2726
2.26341
2.25524
2.24591
2.23825
2.22878
2.22057
2.21032
2.20135
2.19115
2.18232
2.17238
2.16327
2.15251
2.14259
2.13145
2.1215
2.11069
2.10131
2.09034
2.0816
2.07036
2.06256
2.0522
2.04539
2.03688
2.03087
2.02433
2.02003
2.01565
2.01554
2.01448
2.01318
2.23586
2.18007
2.1238
2.06942
2.02095
1.97167
1.92755
1.8882
1.84955
1.8236
1.80698
1.81026
1.83188
1.88389
1.95998
2.06699
2.12759
2.14797
2.16965
2.1984
2.22225
2.23202
2.25222
2.27476
2.30515
2.33178
2.36022
2.39863
2.44083
2.49031
2.51686
2.51365
2.49211
2.45862
2.41726
2.37927
2.34885
2.32962
2.31794
2.31496
2.31861
2.32725
2.33485
2.33934
2.34101
2.3408
2.34026
2.33888
2.33706
2.33518
2.33218
2.32886
2.32389
2.31926
2.31393
2.30921
2.30305
2.29726
2.29084
2.28462
2.2782
2.27167
2.26479
2.25784
2.25027
2.24325
2.23521
2.22816
2.21952
2.21217
2.20356
2.19639
2.18815
2.18054
2.17133
2.16261
2.15251
2.14383
2.13404
2.12568
2.11603
2.10711
2.09685
2.08757
2.07712
2.06853
2.05837
2.05052
2.0409
2.03349
2.02501
2.01844
2.01152
2.00656
2.001
1.99823
1.99482
1.99476
1.99411
1.99222
2.24275
2.19355
2.14227
2.09108
2.04157
1.99668
1.95076
1.91112
1.87373
1.83898
1.81571
1.80066
1.80415
1.82187
1.86115
1.93786
2.02204
2.0737
2.09197
2.11
2.13796
2.15988
2.17189
2.19165
2.21586
2.25131
2.27999
2.33219
2.39288
2.44471
2.4656
2.45536
2.43209
2.39592
2.35283
2.31098
2.27795
2.25931
2.2445
2.23789
2.23267
2.23686
2.24429
2.25264
2.26005
2.26574
2.26873
2.27131
2.27204
2.27199
2.27127
2.26974
2.26733
2.26424
2.26095
2.25719
2.25294
2.24779
2.24202
2.23612
2.23008
2.22434
2.21776
2.21154
2.20455
2.19834
2.19131
2.18489
2.17721
2.17002
2.16157
2.15436
2.1461
2.13945
2.13102
2.12377
2.11427
2.10609
2.0964
2.08848
2.07919
2.0714
2.06174
2.05347
2.04339
2.03511
2.02563
2.01806
2.0097
2.00303
1.99581
1.99061
1.98492
1.98155
1.97805
1.97635
1.97528
1.97539
1.97487
1.97316
2.24539
2.20149
2.1578
2.11173
2.06592
2.02182
1.97985
1.93835
1.90142
1.86633
1.83461
1.81247
1.79818
1.80104
1.81472
1.84855
1.91354
1.98246
2.03287
2.04905
2.06842
2.09031
2.10916
2.12756
2.15036
2.18284
2.2303
2.29919
2.37731
2.42224
2.42651
2.41164
2.38088
2.34037
2.29258
2.25155
2.22052
2.19562
2.18496
2.17426
2.17183
2.16866
2.17346
2.18054
2.19094
2.20028
2.20813
2.21403
2.2175
2.21994
2.22102
2.22193
2.22117
2.2202
2.21825
2.21623
2.21254
2.20828
2.20249
2.19636
2.18979
2.1841
2.1785
2.17336
2.16788
2.16251
2.15634
2.15041
2.14339
2.13692
2.12905
2.12205
2.11373
2.10675
2.09858
2.09159
2.08299
2.07545
2.06618
2.05846
2.04932
2.04212
2.03349
2.02648
2.01786
2.01054
2.00195
1.9948
1.987
1.98093
1.97506
1.9704
1.96695
1.96399
1.96235
1.96128
1.96083
1.96096
1.96044
1.95859
2.2418
2.20405
2.16333
2.12414
2.08241
2.04172
2.00242
1.96386
1.92709
1.89273
1.86108
1.83203
1.81157
1.79789
1.80064
1.81172
1.84039
1.89471
1.95638
1.99993
2.01864
2.04035
2.05894
2.08203
2.10733
2.15064
2.21574
2.30809
2.37857
2.3995
2.39385
2.37279
2.342
2.2957
2.25101
2.21434
2.18241
2.16158
2.14353
2.13472
2.12674
2.12456
2.12237
2.12573
2.1323
2.14201
2.15485
2.16525
2.17317
2.17758
2.17911
2.17851
2.17809
2.17663
2.1754
2.17397
2.1727
2.17106
2.16832
2.16445
2.1587
2.15249
2.14525
2.13859
2.1313
2.12507
2.11816
2.11244
2.10582
2.10048
2.09369
2.08799
2.08015
2.07345
2.06458
2.05742
2.04852
2.04134
2.03247
2.02504
2.01637
2.00911
2.00125
1.99466
1.98757
1.9815
1.97471
1.96861
1.9624
1.95682
1.95211
1.94838
1.94551
1.94387
1.94268
1.94227
1.94181
1.94186
1.94114
1.93922
2.23937
2.20586
2.16926
2.13286
2.09521
2.05803
2.01982
1.98446
1.94815
1.91485
1.88251
1.85365
1.82659
1.80801
1.79543
1.79823
1.80748
1.83238
1.88068
1.93456
1.97625
2.0011
2.02675
2.05821
2.09631
2.15684
2.25752
2.34091
2.38462
2.38375
2.37144
2.34416
2.30437
2.26236
2.22503
2.19216
2.16426
2.14036
2.12138
2.10607
2.09779
2.09011
2.08898
2.08607
2.08773
2.09269
2.101
2.11208
2.12187
2.13027
2.13538
2.13905
2.13998
2.13991
2.13831
2.13632
2.1336
2.13145
2.12859
2.12598
2.12136
2.11672
2.11056
2.10541
2.09898
2.09377
2.08698
2.08137
2.07398
2.06803
2.06024
2.05416
2.04613
2.03994
2.03189
2.02575
2.01791
2.01164
2.00399
1.99711
1.98934
1.98176
1.9741
1.96674
1.95998
1.95376
1.94835
1.94342
1.93954
1.93592
1.93343
1.93103
1.92965
1.9285
1.9276
1.9272
1.92638
1.92589
1.92402
1.92281
2.23268
2.20339
2.1719
2.13849
2.10519
2.07032
2.03687
2.00141
1.96925
1.9355
1.90471
1.87458
1.84755
1.82273
1.80499
1.7942
1.79687
1.80582
1.82798
1.87313
1.92243
1.96979
2.00681
2.05145
2.11805
2.21856
2.31254
2.37452
2.38254
2.37625
2.35478
2.32088
2.28233
2.24637
2.21431
2.18545
2.15948
2.13561
2.11509
2.09735
2.08431
2.07331
2.06664
2.06054
2.05956
2.0576
2.06016
2.06606
2.07512
2.08436
2.09302
2.09869
2.10238
2.10394
2.10401
2.10264
2.10033
2.09837
2.09553
2.09317
2.08905
2.08492
2.0789
2.07401
2.06753
2.06251
2.05571
2.05043
2.04312
2.03763
2.03005
2.0246
2.01678
2.01113
2.00328
1.99729
1.98978
1.98345
1.97643
1.96986
1.96315
1.95649
1.94989
1.94349
1.93731
1.93163
1.92641
1.92234
1.91908
1.91709
1.91583
1.91535
1.91513
1.91486
1.91458
1.91406
1.91272
1.91142
1.90833
1.90602
2.22252
2.19569
2.16837
2.13947
2.10876
2.07714
2.04589
2.01417
1.98252
1.95198
1.92198
1.89226
1.86608
1.83942
1.81848
1.80058
1.79467
1.79806
1.80897
1.83192
1.87595
1.93737
2.00087
2.07537
2.19055
2.30395
2.36944
2.38321
2.38016
2.36549
2.34197
2.30742
2.2733
2.24142
2.21384
2.18767
2.16369
2.13907
2.11715
2.09728
2.081
2.06557
2.05317
2.04208
2.03606
2.03044
2.02884
2.02675
2.03013
2.03708
2.04503
2.0535
2.05986
2.0643
2.06717
2.06738
2.06614
2.06436
2.06148
2.05952
2.05596
2.05302
2.04771
2.04377
2.03775
2.03344
2.02705
2.02257
2.01581
2.01097
2.0037
1.99844
1.99117
1.98569
1.97866
1.97269
1.966
1.95967
1.95332
1.94692
1.94081
1.93492
1.92925
1.92426
1.91928
1.91499
1.91123
1.90831
1.90596
1.9047
1.90381
1.90362
1.90365
1.90357
1.90317
1.90223
1.89995
1.89727
1.89275
1.88828
2.21513
2.1915
2.16421
2.13778
2.10982
2.08223
2.05133
2.02418
1.99259
1.96576
1.93533
1.90926
1.88073
1.85759
1.83253
1.81508
1.80019
1.80079
1.80804
1.82578
1.85863
1.91566
2.01177
2.1261
2.27785
2.374
2.3918
2.38893
2.37774
2.3551
2.32642
2.29756
2.2707
2.24444
2.22071
2.19577
2.17165
2.14599
2.1225
2.10025
2.07995
2.06034
2.04302
2.02859
2.01646
2.00785
2.00133
1.99808
1.99511
1.99573
2.00031
2.00791
2.01572
2.02367
2.02906
2.03335
2.03443
2.03411
2.03231
2.03096
2.0281
2.02593
2.02138
2.01794
2.01244
2.00844
2.00244
1.998
1.99193
1.98727
1.98109
1.97596
1.96982
1.96439
1.95825
1.95242
1.94611
1.93998
1.93371
1.92768
1.92186
1.91647
1.91154
1.90719
1.90338
1.90063
1.89877
1.89766
1.8974
1.8975
1.89774
1.89788
1.89769
1.89711
1.89573
1.89349
1.88852
1.88372
1.87742
1.87243
2.20228
2.18139
2.15815
2.13282
2.10672
2.08132
2.05531
2.02732
2.00132
1.97291
1.9473
1.92113
1.89444
1.87323
1.84745
1.83288
1.81558
1.81683
1.82322
1.83911
1.87812
1.93377
2.04549
2.20578
2.33245
2.38938
2.38805
2.38124
2.36606
2.34195
2.31876
2.29406
2.26832
2.2434
2.21875
2.1951
2.1693
2.14534
2.12092
2.09772
2.07449
2.05419
2.03464
2.01835
2.00206
1.99071
1.97872
1.97364
1.96775
1.96621
1.965
1.96753
1.97407
1.98187
1.99038
1.99693
2.0019
2.0045
2.00512
2.00438
2.00285
2.00142
1.99822
1.99532
1.99042
1.98657
1.98132
1.97667
1.97121
1.96609
1.9605
1.95512
1.94945
1.94396
1.93835
1.93285
1.92741
1.92212
1.917
1.91215
1.90755
1.90336
1.89944
1.89604
1.89351
1.89192
1.89126
1.89124
1.89167
1.89194
1.89214
1.892
1.89148
1.89026
1.88749
1.88358
1.87636
1.8697
1.86271
1.85767
2.18776
2.17052
2.15131
2.12851
2.10518
2.07842
2.0551
2.02922
2.00517
1.97924
1.95431
1.93096
1.9064
1.88582
1.86571
1.85101
1.8454
1.84892
1.8615
1.88611
1.92642
2.0043
2.11227
2.21811
2.29396
2.33522
2.34382
2.34164
2.33445
2.31854
2.29698
2.27555
2.25376
2.23215
2.20912
2.18663
2.16324
2.14044
2.11672
2.09424
2.07179
2.05133
2.03118
2.01343
1.99592
1.98135
1.96775
1.95831
1.9499
1.94579
1.94202
1.94141
1.9417
1.94634
1.95272
1.96161
1.96863
1.97419
1.97769
1.97787
1.97731
1.97603
1.97361
1.97148
1.96737
1.96339
1.95882
1.9542
1.94938
1.94449
1.93948
1.93442
1.92931
1.92419
1.91923
1.91429
1.90959
1.90499
1.90072
1.89674
1.89331
1.89011
1.88751
1.88582
1.88495
1.8851
1.88589
1.88672
1.88762
1.8885
1.88844
1.88792
1.8865
1.88379
1.87817
1.87204
1.8635
1.85617
1.84882
1.84386
2.16366
2.14838
2.13435
2.11773
2.09989
2.07719
2.05474
2.03019
2.00849
1.98435
1.96195
1.93945
1.91841
1.90077
1.88638
1.8814
1.88636
1.89872
1.92342
1.96687
2.03091
2.09668
2.14371
2.17891
2.2179
2.25384
2.2821
2.29681
2.29604
2.29255
2.28352
2.27019
2.2508
2.2291
2.20628
2.18487
2.16304
2.14081
2.11814
2.09532
2.0736
2.05247
2.03291
2.01367
1.9958
1.97891
1.9644
1.95078
1.94053
1.93039
1.92565
1.91941
1.91783
1.9165
1.91776
1.9228
1.9293
1.93695
1.94277
1.94666
1.94817
1.94805
1.94677
1.94523
1.94282
1.93937
1.93501
1.93061
1.92594
1.92151
1.91684
1.91254
1.90799
1.90369
1.89932
1.89515
1.89124
1.88761
1.8845
1.88188
1.87971
1.87809
1.87745
1.87768
1.87869
1.87977
1.8812
1.88307
1.88389
1.88378
1.88317
1.88163
1.87835
1.87288
1.86511
1.85785
1.8491
1.84152
1.83451
1.82993
2.14523
2.12971
2.11315
2.09802
2.08297
2.06748
2.05119
2.02983
2.01015
1.9898
1.97023
1.95235
1.93619
1.92544
1.92393
1.9312
1.94493
1.97581
2.02118
2.07796
2.12514
2.14189
2.14883
2.15128
2.16136
2.18335
2.21455
2.24643
2.26431
2.27262
2.272
2.26718
2.25421
2.23235
2.21095
2.18915
2.16787
2.1451
2.12295
2.10034
2.07928
2.05861
2.03899
2.01864
1.99938
1.98068
1.96415
1.94822
1.93404
1.92091
1.9115
1.90225
1.89745
1.89101
1.89026
1.88911
1.89205
1.89616
1.90391
1.90963
1.91455
1.91734
1.91749
1.91682
1.91575
1.91347
1.91049
1.9065
1.90235
1.89806
1.89379
1.88979
1.88585
1.88229
1.87868
1.8755
1.87256
1.87023
1.86853
1.86722
1.86668
1.86706
1.86833
1.86999
1.87177
1.87416
1.87654
1.87737
1.87727
1.87658
1.8747
1.87107
1.86466
1.85784
1.84897
1.84145
1.83251
1.82549
1.81908
1.81497
2.13944
2.12203
2.10462
2.0865
2.07058
2.05293
2.03792
2.02301
2.00695
1.99151
1.97716
1.96683
1.96233
1.9661
1.97751
2.00056
2.03572
2.0877
2.13528
2.1596
2.16462
2.15427
2.14714
2.13238
2.13382
2.13972
2.15633
2.18286
2.22003
2.24658
2.2575
2.25606
2.2501
2.23681
2.21872
2.19659
2.17434
2.15113
2.12787
2.10457
2.08319
2.06223
2.04167
2.02045
1.99984
1.98032
1.96192
1.94418
1.92734
1.91183
1.89823
1.88687
1.87683
1.86984
1.86262
1.86042
1.85903
1.85968
1.86373
1.8694
1.87694
1.88219
1.88597
1.88746
1.88736
1.8868
1.88548
1.88293
1.87971
1.8758
1.87199
1.86824
1.86495
1.86196
1.85936
1.85728
1.85569
1.85489
1.85454
1.85489
1.85639
1.85795
1.86056
1.86308
1.86661
1.86921
1.8698
1.86979
1.86913
1.86712
1.86295
1.85663
1.84892
1.84138
1.8319
1.82455
1.81614
1.80999
1.80399
1.80079
2.12958
2.11569
2.10061
2.08411
2.06734
2.05038
2.03383
2.01859
2.00629
1.99589
1.99156
1.9928
2.00471
2.02097
2.05431
2.09956
2.15179
2.1837
2.19459
2.18831
2.17498
2.15621
2.1333
2.11637
2.11388
2.11516
2.12121
2.13647
2.16352
2.19831
2.22339
2.23428
2.23275
2.22721
2.21534
2.19835
2.17648
2.15328
2.12846
2.10441
2.0818
2.06128
2.03947
2.0181
1.99629
1.97669
1.95721
1.93878
1.92038
1.9037
1.88802
1.87435
1.86166
1.85204
1.84281
1.83709
1.8313
1.83108
1.83048
1.83277
1.83701
1.8451
1.8503
1.85601
1.8587
1.85978
1.85973
1.85928
1.85776
1.85536
1.85236
1.84938
1.84682
1.84471
1.84332
1.84248
1.84269
1.8432
1.84477
1.84645
1.84924
1.85255
1.85681
1.8603
1.86318
1.86323
1.8631
1.86222
1.8599
1.85519
1.84855
1.84105
1.83254
1.825
1.81582
1.80914
1.80107
1.79602
1.7915
1.78906
2.10722
2.09646
2.08694
2.07669
2.06407
2.04966
2.03702
2.02352
2.01589
2.0149
2.02356
2.03748
2.06803
2.10422
2.15975
2.20011
2.22208
2.21938
2.21012
2.19198
2.16631
2.14054
2.1187
2.10435
2.09492
2.09549
2.09676
2.10244
2.11649
2.13887
2.16766
2.19036
2.20149
2.20054
2.19588
2.1861
2.17033
2.15007
2.12554
2.10085
2.07823
2.05763
2.03622
2.01458
1.99318
1.9738
1.95428
1.93561
1.91644
1.89933
1.88208
1.86725
1.85231
1.84002
1.82927
1.81973
1.81276
1.80623
1.8044
1.80373
1.80455
1.80872
1.81353
1.82162
1.82629
1.83129
1.83302
1.83413
1.83457
1.83414
1.83308
1.8314
1.82997
1.82879
1.82894
1.82974
1.8314
1.83348
1.83649
1.84075
1.8457
1.85033
1.85406
1.85688
1.85673
1.85634
1.85513
1.85246
1.84682
1.84022
1.83255
1.82486
1.81604
1.80901
1.80062
1.79508
1.78822
1.78428
1.78075
1.77883
2.09633
2.08195
2.06884
2.05699
2.05133
2.04306
2.03902
2.03787
2.04458
2.05769
2.08086
2.11595
2.16972
2.21759
2.24527
2.24973
2.24216
2.22649
2.20196
2.17434
2.14991
2.12987
2.11189
2.0992
2.08863
2.0826
2.08248
2.08332
2.08672
2.09639
2.11433
2.13762
2.15839
2.17005
2.17058
2.1671
2.15918
2.14658
2.12581
2.10083
2.07872
2.05775
2.03638
2.01349
1.99276
1.97232
1.95356
1.93321
1.91473
1.89555
1.87887
1.86137
1.84598
1.83069
1.81773
1.80586
1.79581
1.78706
1.78021
1.77647
1.77541
1.77543
1.77775
1.78325
1.78878
1.79682
1.80124
1.80634
1.80823
1.81043
1.81159
1.81218
1.81313
1.81429
1.81603
1.81789
1.82082
1.82613
1.83136
1.837
1.84237
1.84627
1.84882
1.84886
1.84842
1.84681
1.84306
1.83812
1.83065
1.82311
1.81496
1.80761
1.79947
1.79311
1.78546
1.78107
1.77554
1.77303
1.77088
1.76938
2.0916
2.07922
2.06322
2.05107
2.04241
2.04348
2.05127
2.06843
2.08867
2.12771
2.17819
2.23509
2.26906
2.28272
2.27852
2.26761
2.24792
2.21935
2.19218
2.16759
2.14631
2.12976
2.11468
2.10318
2.09248
2.08273
2.07711
2.07162
2.07224
2.07334
2.07869
2.09041
2.10944
2.12815
2.1394
2.14205
2.13942
2.13387
2.12268
2.10147
2.08052
2.05964
2.03699
2.01351
1.99173
1.9716
1.95129
1.93108
1.9108
1.89218
1.87345
1.85583
1.83811
1.8221
1.8066
1.79274
1.78022
1.76924
1.76019
1.75237
1.74761
1.74593
1.74545
1.74719
1.7516
1.75849
1.76645
1.77361
1.77997
1.78454
1.78859
1.79203
1.79527
1.79931
1.80315
1.80804
1.81346
1.81958
1.82603
1.83163
1.83544
1.83756
1.83785
1.8374
1.8357
1.83184
1.82545
1.81936
1.81137
1.80403
1.79614
1.78879
1.78159
1.77584
1.77009
1.76641
1.76322
1.76129
1.7612
1.75936
2.07686
2.07461
2.06748
2.05492
2.05499
2.06525
2.08271
2.12132
2.1675
2.23113
2.27696
2.30433
2.30813
2.30022
2.2845
2.25647
2.22783
2.20203
2.18002
2.16277
2.14727
2.13417
2.12077
2.1079
2.09489
2.08213
2.07173
2.06169
2.05589
2.0528
2.05306
2.0551
2.06211
2.07648
2.09067
2.10242
2.10735
2.10549
2.10054
2.08975
2.07432
2.05589
2.03301
2.00901
1.98692
1.96627
1.94507
1.92352
1.90332
1.88377
1.86522
1.84619
1.8285
1.81134
1.79532
1.78016
1.76622
1.75405
1.74324
1.73413
1.7263
1.7213
1.71967
1.71973
1.7215
1.72577
1.73317
1.74242
1.75157
1.76047
1.76812
1.7751
1.78176
1.78806
1.79504
1.8021
1.809
1.81568
1.82117
1.82486
1.82591
1.82619
1.82555
1.82367
1.819
1.81384
1.80684
1.79978
1.79194
1.785
1.77768
1.77157
1.76541
1.76085
1.75664
1.7541
1.75254
1.75209
1.75283
1.75093
2.04689
2.05962
2.06317
2.07149
2.08891
2.11659
2.16001
2.22115
2.28263
2.31894
2.32587
2.3194
2.3043
2.27991
2.25378
2.22909
2.2068
2.18803
2.17048
2.15584
2.14171
2.12833
2.11575
2.10268
2.08996
2.07701
2.06409
2.05151
2.04092
2.03211
2.02653
2.02555
2.02583
2.02907
2.03742
2.05029
2.06314
2.06822
2.06746
2.06379
2.05639
2.04547
2.02558
2.00327
1.98216
1.96148
1.93981
1.91816
1.89822
1.87919
1.86026
1.84145
1.82366
1.80644
1.79007
1.7742
1.75977
1.74628
1.73446
1.72369
1.71491
1.70752
1.70257
1.70103
1.70123
1.70303
1.70763
1.71536
1.72659
1.73926
1.75104
1.76284
1.77354
1.78336
1.79257
1.8011
1.80836
1.81373
1.81749
1.81737
1.8172
1.81623
1.81392
1.80911
1.80338
1.79646
1.78985
1.78234
1.77571
1.76869
1.76294
1.75703
1.75289
1.7489
1.74703
1.74524
1.74558
1.74602
1.74736
1.74619
2.02916
2.04612
2.07338
2.10479
2.1616
2.22415
2.29862
2.34188
2.36004
2.35589
2.34261
2.32021
2.29084
2.2637
2.23889
2.2165
2.19743
2.18248
2.16809
2.15576
2.143
2.12981
2.11689
2.10274
2.08864
2.07436
2.06018
2.04629
2.03437
2.0224
2.01343
2.00733
2.00273
2.00305
2.00393
2.00847
2.01722
2.02829
2.0341
2.03672
2.03399
2.02922
2.01932