/*--------------------------------*- C++ -*----------------------------------*\
  =========                 |
  \\      /  F ield         | OpenFOAM: The Open Source CFD Toolbox
   \\    /   O peration     | Website:  https://openfoam.org
    \\  /    A nd           | Version:  6
     \\/     M anipulation  |
\*---------------------------------------------------------------------------*/
FoamFile
{
    version     2.0;
    format      ascii;
    class       volVectorField;
    location    "4.5";
    object      U;
}
// * * * * * * * * * * * * * * * * * * * * * * * * * * * * * * * * * * * * * //

dimensions      [0 1 -1 0 0 0 0];

internalField   nonuniform List<vector> 
5250
(
(2.99996 3.94305e-08 0)
(2.99989 2.52581e-07 0)
(2.9997 7.86512e-07 0)
(2.99932 2.14289e-06 0)
(2.99834 4.97249e-06 0)
(2.99635 1.19929e-05 0)
(2.99083 2.59077e-05 0)
(2.98019 6.32747e-05 0)
(2.94775 0.00013024 0)
(2.8758 0.000346549 0)
(2.67636 0.000759902 0)
(2.05724 0.00210162 0)
(0.686862 0.00551905 0)
(-0.163437 0.013084 0)
(0.18624 0.0203295 0)
(0.499739 0.0261741 0)
(0.580866 0.0293122 0)
(0.528167 0.0314772 0)
(0.426877 0.0324109 0)
(0.330227 0.0345165 0)
(0.266747 0.0378544 0)
(0.213413 0.0415871 0)
(0.155583 0.0454943 0)
(0.0924776 0.0506185 0)
(0.0439472 0.0583922 0)
(2.99996 1.2185e-07 0)
(2.99989 7.82151e-07 0)
(2.9997 2.43337e-06 0)
(2.99932 6.64496e-06 0)
(2.99834 1.54136e-05 0)
(2.99636 3.73334e-05 0)
(2.99087 8.06211e-05 0)
(2.98027 0.000198717 0)
(2.94796 0.000407215 0)
(2.87632 0.00110138 0)
(2.67771 0.00243464 0)
(2.06131 0.00683245 0)
(0.695036 0.0181255 0)
(-0.155345 0.0413274 0)
(0.195288 0.0601133 0)
(0.506076 0.0734175 0)
(0.582851 0.0791593 0)
(0.528058 0.0823211 0)
(0.427437 0.0827329 0)
(0.333183 0.0859253 0)
(0.270118 0.0911483 0)
(0.215423 0.0960286 0)
(0.156109 0.0996861 0)
(0.091556 0.103309 0)
(0.0423596 0.107428 0)
(2.99996 2.11343e-07 0)
(2.99989 1.35866e-06 0)
(2.99971 4.22523e-06 0)
(2.99933 1.15624e-05 0)
(2.99836 2.68274e-05 0)
(2.99639 6.52389e-05 0)
(2.99095 0.000140962 0)
(2.98044 0.000350233 0)
(2.94844 0.000715896 0)
(2.87749 0.00196211 0)
(2.6808 0.00436911 0)
(2.07098 0.0123997 0)
(0.715567 0.0330979 0)
(-0.133071 0.0734652 0)
(0.21088 0.10227 0)
(0.5142 0.12161 0)
(0.58482 0.130966 0)
(0.527394 0.137276 0)
(0.427977 0.140678 0)
(0.337645 0.147782 0)
(0.275544 0.156853 0)
(0.219078 0.164854 0)
(0.157739 0.170805 0)
(0.0910236 0.175433 0)
(0.0403681 0.178227 0)
(2.99996 3.06404e-07 0)
(2.99989 1.97099e-06 0)
(2.99971 6.12954e-06 0)
(2.99934 1.67928e-05 0)
(2.99838 3.89819e-05 0)
(2.99644 9.50026e-05 0)
(2.99108 0.000205425 0)
(2.98071 0.000512573 0)
(2.94919 0.00104606 0)
(2.87938 0.00288681 0)
(2.68583 0.0064497 0)
(2.08684 0.0183597 0)
(0.748978 0.0490087 0)
(-0.0978413 0.106706 0)
(0.232226 0.144364 0)
(0.524438 0.168184 0)
(0.588443 0.180941 0)
(0.529131 0.190999 0)
(0.431876 0.199082 0)
(0.345931 0.21098 0)
(0.284724 0.224565 0)
(0.226513 0.236822 0)
(0.163009 0.246595 0)
(0.093799 0.254232 0)
(0.0402238 0.25832 0)
(2.99996 4.03843e-07 0)
(2.99989 2.59875e-06 0)
(2.99972 8.08055e-06 0)
(2.99935 2.21509e-05 0)
(2.99841 5.1409e-05 0)
(2.99651 0.000125465 0)
(2.99126 0.000271185 0)
(2.98108 0.000678118 0)
(2.95024 0.00138711 0)
(2.88201 0.00380608 0)
(2.69286 0.00865992 0)
(2.10899 0.0239775 0)
(0.795858 0.0654448 0)
(-0.0494931 0.140891 0)
(0.259209 0.187256 0)
(0.536357 0.214563 0)
(0.593341 0.229902 0)
(0.533381 0.243363 0)
(0.439255 0.25656 0)
(0.357745 0.273445 0)
(0.297603 0.291759 0)
(0.23802 0.308883 0)
(0.172423 0.323517 0)
(0.100214 0.335259 0)
(0.0422823 0.341787 0)
(2.99996 5.02302e-07 0)
(2.99989 3.23425e-06 0)
(2.99972 1.00516e-05 0)
(2.99937 2.75741e-05 0)
(2.99845 6.39343e-05 0)
(2.9966 0.000156369 0)
(2.99148 0.000337745 0)
(2.98156 0.000837974 0)
(2.95158 0.0017869 0)
(2.88546 0.00455782 0)
(2.70161 0.0113833 0)
(2.13699 0.0274709 0)
(0.85923 0.0822603 0)
(0.0128583 0.176403 0)
(0.292157 0.232446 0)
(0.550618 0.260057 0)
(0.600203 0.277448 0)
(0.541198 0.294367 0)
(0.451453 0.313402 0)
(0.374322 0.33619 0)
(0.31517 0.360227 0)
(0.254474 0.383234 0)
(0.186922 0.404018 0)
(0.110782 0.421425 0)
(0.0464492 0.431445 0)
(2.99997 6.06305e-07 0)
(2.9999 3.90502e-06 0)
(2.99973 1.21334e-05 0)
(2.99939 3.32959e-05 0)
(2.9985 7.71688e-05 0)
(2.99671 0.000188905 0)
(2.99176 0.000407976 0)
(2.98218 0.00100586 0)
(2.95308 0.00220273 0)
(2.89004 0.00536279 0)
(2.71085 0.0140872 0)
(2.16893 0.0314658 0)
(0.940016 0.0985254 0)
(0.0882288 0.213165 0)
(0.328159 0.28071 0)
(0.563053 0.304418 0)
(0.608372 0.323367 0)
(0.552938 0.343907 0)
(0.469358 0.369579 0)
(0.396888 0.39907 0)
(0.339154 0.430017 0)
(0.277949 0.460918 0)
(0.208464 0.490618 0)
(0.127252 0.517219 0)
(0.0538777 0.534113 0)
(2.99997 7.20027e-07 0)
(2.9999 4.63508e-06 0)
(2.99974 1.44068e-05 0)
(2.99941 3.95038e-05 0)
(2.99856 9.16152e-05 0)
(2.99684 0.00022378 0)
(2.99208 0.000483674 0)
(2.98292 0.00119101 0)
(2.9549 0.00257558 0)
(2.89539 0.00641242 0)
(2.72209 0.0160671 0)
(2.20712 0.0383077 0)
(1.038 0.112946 0)
(0.180621 0.250127 0)
(0.368223 0.329995 0)
(0.572201 0.34857 0)
(0.617656 0.368342 0)
(0.568942 0.392202 0)
(0.493628 0.42485 0)
(0.426335 0.461854 0)
(0.371279 0.501106 0)
(0.311724 0.541887 0)
(0.242353 0.584651 0)
(0.155691 0.627794 0)
(0.0682464 0.660447 0)
(2.99997 8.44906e-07 0)
(2.99991 5.43379e-06 0)
(2.99975 1.68983e-05 0)
(2.99944 4.62677e-05 0)
(2.99863 0.000107397 0)
(2.99699 0.000261304 0)
(2.99247 0.000565416 0)
(2.98377 0.00138788 0)
(2.95707 0.0029412 0)
(2.90129 0.00757288 0)
(2.73574 0.0176396 0)
(2.2518 0.0463323 0)
(1.14716 0.126141 0)
(0.287971 0.287202 0)
(0.412593 0.378493 0)
(0.580416 0.392319 0)
(0.628802 0.412214 0)
(0.589681 0.439022 0)
(0.525112 0.478007 0)
(0.464433 0.523296 0)
(0.413916 0.571551 0)
(0.359821 0.624552 0)
(0.29654 0.687036 0)
(0.20864 0.7589 0)
(0.099978 0.83392 0)
(2.99997 9.86383e-07 0)
(2.99991 6.34094e-06 0)
(2.99977 1.97248e-05 0)
(2.99947 5.39716e-05 0)
(2.99871 0.000125348 0)
(2.99716 0.000304391 0)
(2.99291 0.000659163 0)
(2.98473 0.00161362 0)
(2.95962 0.00339166 0)
(2.90761 0.00883597 0)
(2.75212 0.0198685 0)
(2.30307 0.0544749 0)
(1.26485 0.142196 0)
(0.406793 0.329534 0)
(0.458954 0.419356 0)
(0.585982 0.434447 0)
(0.641135 0.454042 0)
(0.614463 0.485445 0)
(0.563445 0.527902 0)
(0.511321 0.580386 0)
(0.468776 0.637573 0)
(0.429097 0.706154 0)
(0.384801 0.795056 0)
(0.316398 0.914682 0)
(0.179881 1.10707 0)
(2.99997 1.1479e-06 0)
(2.99992 7.38235e-06 0)
(2.99979 2.2965e-05 0)
(2.99951 6.28839e-05 0)
(2.9988 0.000146113 0)
(2.99737 0.00035523 0)
(2.99343 0.000769828 0)
(2.98584 0.0018855 0)
(2.96259 0.00397143 0)
(2.91494 0.0102999 0)
(2.77102 0.0232627 0)
(2.36189 0.0631513 0)
(1.39986 0.163565 0)
(0.530252 0.38245 0)
(0.502515 0.450593 0)
(0.597401 0.471111 0)
(0.657815 0.490714 0)
(0.643314 0.526491 0)
(0.605925 0.571354 0)
(0.566886 0.628812 0)
(0.538911 0.695971 0)
(0.524707 0.780635 0)
(0.524112 0.890172 0)
(0.559577 1.03689 0)
(0.603562 1.25084 0)
(2.99998 1.31841e-06 0)
(2.99993 8.49002e-06 0)
(2.9998 2.6408e-05 0)
(2.99955 7.24729e-05 0)
(2.99891 0.00016851 0)
(2.99761 0.000411429 0)
(2.99403 0.00089269 0)
(2.98715 0.00219924 0)
(2.96607 0.00465239 0)
(2.92356 0.0119101 0)
(2.79304 0.0280845 0)
(2.42994 0.071464 0)
(1.56225 0.18835 0)
(0.659757 0.444544 0)
(0.538874 0.482305 0)
(0.614677 0.501246 0)
(0.678834 0.518553 0)
(0.677106 0.557117 0)
(0.653042 0.606644 0)
(0.630904 0.668209 0)
(0.62361 0.743318 0)
(0.636954 0.834745 0)
(0.675478 0.946341 0)
(0.77662 1.08128 0)
(0.931777 1.22689 0)
(2.99998 1.45812e-06 0)
(2.99993 9.39868e-06 0)
(2.99983 2.92436e-05 0)
(2.99961 8.03949e-05 0)
(2.99904 0.000187256 0)
(2.99789 0.000458274 0)
(2.99474 0.000997259 0)
(2.9887 0.00246122 0)
(2.97004 0.00520169 0)
(2.93432 0.0133707 0)
(2.81734 0.0311876 0)
(2.50737 0.0813188 0)
(1.76201 0.205438 0)
(0.803155 0.508264 0)
(0.571269 0.515442 0)
(0.634081 0.524183 0)
(0.703403 0.53933 0)
(0.718084 0.580534 0)
(0.706747 0.634653 0)
(0.700377 0.698477 0)
(0.711207 0.774006 0)
(0.745321 0.860342 0)
(0.807564 0.957954 0)
(0.923541 1.06275 0)
(1.0923 1.14313 0)
(2.99998 1.50761e-06 0)
(2.99994 9.71629e-06 0)
(2.99985 3.02404e-05 0)
(2.99966 8.3153e-05 0)
(2.99918 0.000193736 0)
(2.99819 0.000474331 0)
(2.99551 0.00102901 0)
(2.99034 0.00255573 0)
(2.97446 0.00526001 0)
(2.94501 0.0143915 0)
(2.84579 0.0301061 0)
(2.59205 0.0910851 0)
(1.96732 0.216143 0)
(0.952185 0.571479 0)
(0.602047 0.558363 0)
(0.660448 0.554229 0)
(0.737829 0.563715 0)
(0.767353 0.602632 0)
(0.765863 0.656735 0)
(0.76978 0.718627 0)
(0.792598 0.787925 0)
(0.838751 0.863376 0)
(0.911193 0.942343 0)
(1.02363 1.01877 0)
(1.17613 1.06895 0)
(2.99998 1.42958e-06 0)
(2.99995 9.20354e-06 0)
(2.99988 2.86449e-05 0)
(2.99972 7.8626e-05 0)
(2.99931 0.000183032 0)
(2.99848 0.000446676 0)
(2.99627 0.000966752 0)
(2.9919 0.00238768 0)
(2.97917 0.00490475 0)
(2.95467 0.0135156 0)
(2.877 0.0267991 0)
(2.68358 0.0846291 0)
(2.19939 0.197033 0)
(1.15408 0.550654 0)
(0.685286 0.586182 0)
(0.71697 0.595445 0)
(0.789769 0.59741 0)
(0.828162 0.627791 0)
(0.831703 0.675998 0)
(0.839118 0.731857 0)
(0.866292 0.791955 0)
(0.916518 0.854845 0)
(0.990338 0.917071 0)
(1.09367 0.972853 0)
(1.22612 1.00761 0)
(2.99999 1.26771e-06 0)
(2.99996 8.14847e-06 0)
(2.9999 2.53674e-05 0)
(2.99976 6.9398e-05 0)
(2.99943 0.000161616 0)
(2.99875 0.000391174 0)
(2.99693 0.000851989 0)
(2.99332 0.00204926 0)
(2.98307 0.00435894 0)
(2.96284 0.0109498 0)
(2.90156 0.0234974 0)
(2.75244 0.0643344 0)
(2.36966 0.151456 0)
(1.36114 0.426143 0)
(0.77981 0.58753 0)
(0.774441 0.633795 0)
(0.836056 0.643332 0)
(0.886995 0.660221 0)
(0.897779 0.697092 0)
(0.906678 0.743596 0)
(0.933714 0.793401 0)
(0.982753 0.844252 0)
(1.05265 0.89277 0)
(1.14504 0.934188 0)
(1.25919 0.959815 0)
(2.99999 1.10549e-06 0)
(2.99997 7.09948e-06 0)
(2.99992 2.21027e-05 0)
(2.99981 6.03597e-05 0)
(2.99953 0.000140518 0)
(2.99897 0.00033879 0)
(2.99749 0.00073873 0)
(2.99455 0.00176001 0)
(2.98606 0.00377012 0)
(2.97022 0.00910772 0)
(2.91903 0.0205419 0)
(2.80001 0.050666 0)
(2.48027 0.123784 0)
(1.56361 0.331399 0)
(0.888086 0.621033 0)
(0.816038 0.67572 0)
(0.862526 0.693975 0)
(0.921584 0.697377 0)
(0.949417 0.72046 0)
(0.965241 0.755953 0)
(0.993011 0.795745 0)
(1.0396 0.835799 0)
(1.10396 0.873239 0)
(1.18588 0.904402 0)
(1.28422 0.923912 0)
(2.99999 9.76469e-07 0)
(2.99997 6.27305e-06 0)
(2.99993 1.95297e-05 0)
(2.99984 5.33762e-05 0)
(2.99962 0.000124247 0)
(2.99917 0.000300158 0)
(2.99798 0.000652962 0)
(2.99562 0.00156548 0)
(2.98876 0.00332036 0)
(2.97643 0.00831357 0)
(2.93446 0.0175705 0)
(2.8448 0.0470664 0)
(2.58585 0.111302 0)
(1.81185 0.309431 0)
(1.06442 0.669324 0)
(0.858374 0.707909 0)
(0.883771 0.725939 0)
(0.941494 0.723847 0)
(0.986116 0.73708 0)
(1.01237 0.76451 0)
(1.04291 0.796932 0)
(1.08749 0.828918 0)
(1.14674 0.857959 0)
(1.21984 0.881597 0)
(1.30522 0.8965 0)
(2.99999 8.58627e-07 0)
(2.99998 5.52072e-06 0)
(2.99995 1.71918e-05 0)
(2.99988 4.70614e-05 0)
(2.99971 0.000109686 0)
(2.99935 0.000265648 0)
(2.99842 0.000578747 0)
(2.99657 0.00139209 0)
(2.9913 0.00294913 0)
(2.98172 0.00754937 0)
(2.94994 0.0150388 0)
(2.88385 0.0439156 0)
(2.69119 0.0975395 0)
(2.10885 0.284651 0)
(1.29515 0.677063 0)
(0.937448 0.734397 0)
(0.927425 0.745966 0)
(0.970207 0.743829 0)
(1.02249 0.747953 0)
(1.05672 0.76877 0)
(1.0885 0.795787 0)
(1.13003 0.822283 0)
(1.18377 0.845501 0)
(1.24903 0.863721 0)
(1.32387 0.875032 0)
(2.99999 7.19004e-07 0)
(2.99998 4.61996e-06 0)
(2.99996 1.43875e-05 0)
(2.99991 3.93379e-05 0)
(2.99978 9.16699e-05 0)
(2.99951 0.000221434 0)
(2.99881 0.000482647 0)
(2.99741 0.00115388 0)
(2.99355 0.00245066 0)
(2.98616 0.00614723 0)
(2.96374 0.0124689 0)
(2.91813 0.0342063 0)
(2.7823 0.0783887 0)
(2.3973 0.214963 0)
(1.6233 0.548337 0)
(1.07547 0.736464 0)
(1.00239 0.761499 0)
(1.01925 0.768155 0)
(1.06582 0.765335 0)
(1.10464 0.777361 0)
(1.13538 0.797618 0)
(1.17196 0.818603 0)
(1.21897 0.836856 0)
(1.27622 0.85076 0)
(1.34183 0.859018 0)
(3 5.75296e-07 0)
(2.99999 3.69061e-06 0)
(2.99997 1.14934e-05 0)
(2.99993 3.1334e-05 0)
(2.99983 7.29449e-05 0)
(2.99963 0.000175192 0)
(2.99911 0.00038154 0)
(2.99806 0.000902194 0)
(2.99518 0.00191823 0)
(2.98977 0.00465753 0)
(2.97268 0.00973593 0)
(2.94189 0.0249634 0)
(2.83633 0.0556932 0)
(2.56529 0.151454 0)
(1.9368 0.378495 0)
(1.21282 0.752878 0)
(1.05214 0.790276 0)
(1.05692 0.802172 0)
(1.09921 0.796025 0)
(1.14538 0.794448 0)
(1.17849 0.805349 0)
(1.21181 0.819964 0)
(1.25281 0.833172 0)
(1.30264 0.843064 0)
(1.35987 0.848451 0)
(3 4.56489e-07 0)
(2.99999 2.92775e-06 0)
(2.99998 9.11939e-06 0)
(2.99995 2.48506e-05 0)
(2.99988 5.78667e-05 0)
(2.99973 0.000138806 0)
(2.99934 0.000302425 0)
(2.99857 0.000713059 0)
(2.99647 0.00151526 0)
(2.99243 0.00367602 0)
(2.98025 0.00752553 0)
(2.95799 0.0203527 0)
(2.88376 0.0401812 0)
(2.702 0.124211 0)
(2.25226 0.29126 0)
(1.43731 0.724549 0)
(1.12339 0.816197 0)
(1.10068 0.830692 0)
(1.1267 0.828052 0)
(1.17465 0.817476 0)
(1.21556 0.817681 0)
(1.24878 0.824891 0)
(1.28525 0.833032 0)
(1.32871 0.839084 0)
(1.37879 0.841944 0)
(3 3.57386e-07 0)
(2.99999 2.29276e-06 0)
(2.99998 7.14141e-06 0)
(2.99996 1.94671e-05 0)
(2.99991 4.53393e-05 0)
(2.9998 0.000108817 0)
(2.99953 0.000237273 0)
(2.99897 0.000559625 0)
(2.99749 0.00119235 0)
(2.99459 0.00286905 0)
(2.98634 0.00602006 0)
(2.96995 0.0153726 0)
(2.92181 0.0321725 0)
(2.80726 0.0891197 0)
(2.51055 0.213228 0)
(1.73803 0.571145 0)
(1.251 0.81269 0)
(1.1586 0.843868 0)
(1.16433 0.853392 0)
(1.20273 0.843889 0)
(1.24666 0.834084 0)
(1.28212 0.83271 0)
(1.31613 0.835299 0)
(1.35463 0.837769 0)
(1.39866 0.8384 0)
(3 2.72169e-07 0)
(3 1.74587e-06 0)
(2.99999 5.43622e-06 0)
(2.99997 1.48089e-05 0)
(2.99994 3.44748e-05 0)
(2.99986 8.26212e-05 0)
(2.99967 0.000180106 0)
(2.99929 0.000423521 0)
(2.99827 0.000903085 0)
(2.9963 0.00215494 0)
(2.99052 0.00455135 0)
(2.98043 0.0112276 0)
(2.94553 0.0241889 0)
(2.87546 0.0629269 0)
(2.66695 0.147216 0)
(2.06028 0.409168 0)
(1.43995 0.804993 0)
(1.22033 0.866087 0)
(1.204 0.875452 0)
(1.2256 0.868293 0)
(1.26805 0.852463 0)
(1.30879 0.843871 0)
(1.34412 0.840998 0)
(1.38012 0.840005 0)
(1.41957 0.838313 0)
(3 1.88422e-07 0)
(3 1.32403e-06 0)
(2.99999 3.88321e-06 0)
(2.99998 1.11229e-05 0)
(2.99996 2.45543e-05 0)
(2.99991 6.18831e-05 0)
(2.99978 0.00012708 0)
(2.99952 0.000316623 0)
(2.99884 0.000626831 0)
(2.99751 0.00161138 0)
(2.9938 0.00305835 0)
(2.98673 0.0086031 0)
(2.96554 0.0147051 0)
(2.92188 0.0491155 0)
(2.79507 0.0895947 0)
(2.43468 0.296335 0)
(1.7727 0.650978 0)
(1.34119 0.851594 0)
(1.26797 0.877654 0)
(1.26611 0.881829 0)
(1.29648 0.869582 0)
(1.33722 0.855589 0)
(1.37273 0.848944 0)
(1.40658 0.845216 0)
(1.44207 0.841523 0)
(3 1.32114e-07 0)
(3 9.21863e-07 0)
(2.99999 2.71493e-06 0)
(2.99999 7.73864e-06 0)
(2.99997 1.71363e-05 0)
(2.99994 4.29151e-05 0)
(2.99986 8.84635e-05 0)
(2.99967 0.000218499 0)
(2.99928 0.000435583 0)
(2.99824 0.00110152 0)
(2.99629 0.00213108 0)
(2.99028 0.00565776 0)
(2.98044 0.0106595 0)
(2.94413 0.0302379 0)
(2.87354 0.060388 0)
(2.65628 0.17386 0)
(2.0706 0.436018 0)
(1.50845 0.823552 0)
(1.32017 0.887121 0)
(1.30118 0.896086 0)
(1.31843 0.88934 0)
(1.3581 0.872114 0)
(1.39852 0.860558 0)
(1.43227 0.853616 0)
(1.46509 0.847946 0)
(3 1.02302e-07 0)
(3 5.86388e-07 0)
(3 1.9682e-06 0)
(2.99999 5.01127e-06 0)
(2.99998 1.24434e-05 0)
(2.99996 2.77131e-05 0)
(2.99991 6.49513e-05 0)
(2.99978 0.000139586 0)
(2.99953 0.000325822 0)
(2.99886 0.000688587 0)
(2.99757 0.00163739 0)
(2.99393 0.00338545 0)
(2.98705 0.0085962 0)
(2.96644 0.0171322 0)
(2.92335 0.0468288 0)
(2.80153 0.104882 0)
(2.44982 0.290335 0)
(1.83045 0.668141 0)
(1.43752 0.858554 0)
(1.36304 0.892478 0)
(1.35753 0.899785 0)
(1.38432 0.890031 0)
(1.42407 0.873973 0)
(1.45845 0.86377 0)
(1.48951 0.856652 0)
(3 6.93176e-08 0)
(3 3.97334e-07 0)
(3 1.33204e-06 0)
(2.99999 3.38694e-06 0)
(2.99999 8.38058e-06 0)
(2.99997 1.86217e-05 0)
(2.99994 4.33781e-05 0)
(2.99986 9.29397e-05 0)
(2.99971 0.000215198 0)
(2.99929 0.000453745 0)
(2.99852 0.00106519 0)
(2.99619 0.00221804 0)
(2.99246 0.0053706 0)
(2.97803 0.0111843 0)
(2.95629 0.0283182 0)
(2.87049 0.0624425 0)
(2.66527 0.170119 0)
(2.19134 0.413239 0)
(1.58145 0.81787 0)
(1.40631 0.898676 0)
(1.38596 0.913217 0)
(1.40081 0.911829 0)
(1.43788 0.896127 0)
(1.47821 0.880676 0)
(1.51143 0.870336 0)
(3 4.77775e-08 0)
(3 2.57097e-07 0)
(3 8.99057e-07 0)
(3 2.20202e-06 0)
(2.99999 5.63855e-06 0)
(2.99998 1.20569e-05 0)
(2.99996 2.91181e-05 0)
(2.99991 5.96771e-05 0)
(2.99981 0.000144229 0)
(2.99954 0.000288006 0)
(2.99902 0.000716472 0)
(2.99758 0.00136276 0)
(2.99489 0.00373501 0)
(2.98678 0.00627647 0)
(2.97154 0.021165 0)
(2.92449 0.0328892 0)
(2.81451 0.122278 0)
(2.53384 0.247927 0)
(1.88491 0.664192 0)
(1.51945 0.868166 0)
(1.43678 0.913112 0)
(1.43099 0.924427 0)
(1.45305 0.918599 0)
(1.49136 0.902261 0)
(1.5284 0.888627 0)
(3 2.99383e-08 0)
(3 1.71602e-07 0)
(3 5.751e-07 0)
(3 1.4623e-06 0)
(3 3.61603e-06 0)
(2.99999 8.03368e-06 0)
(2.99998 1.87026e-05 0)
(2.99995 4.00941e-05 0)
(2.99988 9.28235e-05 0)
(2.99975 0.000196326 0)
(2.9994 0.000460004 0)
(2.99876 0.000964558 0)
(2.99672 0.002312 0)
(2.99369 0.0048126 0)
(2.98085 0.0119234 0)
(2.96256 0.0257353 0)
(2.88544 0.0642795 0)
(2.71582 0.160933 0)
(2.29279 0.38726 0)
(1.69106 0.804634 0)
(1.49112 0.911095 0)
(1.45882 0.933363 0)
(1.46752 0.93709 0)
(1.49889 0.925578 0)
(1.5381 0.907785 0)
(3 1.64065e-08 0)
(3 1.10973e-07 0)
(3 3.32538e-07 0)
(3 9.27466e-07 0)
(3 2.07621e-06 0)
(2.99999 5.05205e-06 0)
(2.99999 1.0511e-05 0)
(2.99997 2.49997e-05 0)
(2.99993 5.04278e-05 0)
(2.99984 0.00012134 0)
(2.99966 0.00023864 0)
(2.99916 0.000597146 0)
(2.99825 0.0011097 0)
(2.99543 0.00311809 0)
(2.99085 0.00520362 0)
(2.97365 0.0177994 0)
(2.94547 0.0292452 0)
(2.84366 0.103997 0)
(2.59209 0.23246 0)
(2.07141 0.587742 0)
(1.62591 0.880093 0)
(1.51529 0.937074 0)
(1.49874 0.948556 0)
(1.51047 0.945438 0)
(1.54302 0.929118 0)
(3 1.12781e-08 0)
(3 6.47244e-08 0)
(3 2.16176e-07 0)
(3 5.4933e-07 0)
(3 1.34942e-06 0)
(3 2.98787e-06 0)
(2.99999 6.88602e-06 0)
(2.99998 1.4683e-05 0)
(2.99996 3.35629e-05 0)
(2.9999 7.05369e-05 0)
(2.99979 0.000162859 0)
(2.9995 0.000339089 0)
(2.99894 0.000803588 0)
(2.99734 0.0016274 0)
(2.99455 0.00415689 0)
(2.98521 0.00805124 0)
(2.97005 0.0231147 0)
(2.91592 0.0460807 0)
(2.79253 0.137389 0)
(2.48983 0.32838 0)
(1.89801 0.726858 0)
(1.60356 0.902414 0)
(1.54218 0.942288 0)
(1.53594 0.951261 0)
(1.55199 0.945546 0)
(3 7.06323e-09 0)
(3 4.05249e-08 0)
(3 1.35452e-07 0)
(3 3.44017e-07 0)
(3 8.45785e-07 0)
(3 1.87275e-06 0)
(3 4.3204e-06 0)
(2.99999 9.21963e-06 0)
(2.99998 2.10868e-05 0)
(2.99994 4.44108e-05 0)
(2.99988 0.000102379 0)
(2.9997 0.000213922 0)
(2.99937 0.000501501 0)
(2.99845 0.00103213 0)
(2.99677 0.00251859 0)
(2.99164 0.00503192 0)
(2.98272 0.0133547 0)
(2.95331 0.0262471 0)
(2.89242 0.0741648 0)
(2.72135 0.170298 0)
(2.25925 0.440957 0)
(1.8056 0.790149 0)
(1.61695 0.90666 0)
(1.576 0.938396 0)
(1.57389 0.946408 0)
(3 4.38124e-09 0)
(3 2.51334e-08 0)
(3 8.40036e-08 0)
(3 2.13312e-07 0)
(3 5.24491e-07 0)
(3 1.16123e-06 0)
(3 2.67952e-06 0)
(2.99999 5.71806e-06 0)
(2.99999 1.30812e-05 0)
(2.99997 2.75583e-05 0)
(2.99993 6.35168e-05 0)
(2.99984 0.000132827 0)
(2.99965 0.000310238 0)
(2.99915 0.000643723 0)
(2.99825 0.00153727 0)
(2.99551 0.0031355 0)
(2.99097 0.00785331 0)
(2.97496 0.0159198 0)
(2.94818 0.0420307 0)
(2.85632 0.0927825 0)
(2.61628 0.255494 0)
(2.15756 0.579753 0)
(1.75302 0.858638 0)
(1.63525 0.931544 0)
(1.60822 0.949107 0)
(3 2.71684e-09 0)
(3 1.50466e-08 0)
(3 5.14792e-08 0)
(3 1.28142e-07 0)
(3 3.20856e-07 0)
(3 6.96922e-07 0)
(3 1.63746e-06 0)
(3 3.4225e-06 0)
(2.99999 7.98703e-06 0)
(2.99998 1.64372e-05 0)
(2.99996 3.87468e-05 0)
(2.99991 7.8873e-05 0)
(2.99982 0.000189178 0)
(2.99955 0.000378967 0)
(2.99907 0.000938578 0)
(2.99766 0.00179854 0)
(2.99527 0.00479331 0)
(2.98717 0.00853055 0)
(2.97395 0.025419 0)
(2.92782 0.0438464 0)
(2.8264 0.140169 0)
(2.57026 0.296491 0)
(2.03901 0.690305 0)
(1.74118 0.883114 0)
(1.65612 0.938788 0)
(3 1.537e-09 0)
(3 8.80956e-09 0)
(3 2.94232e-08 0)
(3 7.46689e-08 0)
(3 1.83218e-07 0)
(3 4.0505e-07 0)
(3 9.31963e-07 0)
(3 1.98506e-06 0)
(3 4.52784e-06 0)
(2.99999 9.52858e-06 0)
(2.99998 2.18774e-05 0)
(2.99996 4.59203e-05 0)
(2.99991 0.000106094 0)
(2.99983 0.000223429 0)
(2.99956 0.000520141 0)
(2.99919 0.0010871 0)
(2.99754 0.00259006 0)
(2.99569 0.00530814 0)
(2.98492 0.0129871 0)
(2.97188 0.026753 0)
(2.90796 0.065339 0)
(2.78259 0.157145 0)
(2.46977 0.35292 0)
(1.94672 0.746117 0)
(1.72877 0.898078 0)
(3 7.23657e-10 0)
(3 4.70456e-09 0)
(3 1.43937e-08 0)
(3 3.89853e-08 0)
(3 8.82647e-08 0)
(3 2.06497e-07 0)
(3 4.32902e-07 0)
(3 9.78251e-07 0)
(3 1.99075e-06 0)
(3 4.48752e-06 0)
(2.99999 8.95726e-06 0)
(2.99998 2.04235e-05 0)
(2.99997 3.96651e-05 0)
(2.99993 9.3811e-05 0)
(2.99987 0.000171237 0)
(2.99963 0.000448938 0)
(2.9994 0.000726099 0)
(2.99767 0.00234437 0)
(2.99615 0.00347203 0)
(2.98299 0.0137123 0)
(2.96868 0.0216204 0)
(2.8916 0.0808542 0)
(2.73157 0.171803 0)
(2.37772 0.4408 0)
(1.90927 0.77218 0)
(3 3.81073e-10 0)
(3 2.13778e-09 0)
(3 7.18264e-09 0)
(3 1.78122e-08 0)
(3 4.3139e-08 0)
(3 9.19347e-08 0)
(3 2.05033e-07 0)
(3 4.14146e-07 0)
(3 9.0204e-07 0)
(3 1.76317e-06 0)
(3 3.85034e-06 0)
(2.99999 7.15173e-06 0)
(2.99998 1.6356e-05 0)
(2.99995 2.74795e-05 0)
(2.99989 6.96523e-05 0)
(2.99971 9.95394e-05 0)
(2.99941 0.000319348 0)
(2.99842 0.000382155 0)
(2.99683 0.00195566 0)
(2.99102 0.00240497 0)
(2.98204 0.0145446 0)
(2.94867 0.0218541 0)
(2.88274 0.0953253 0)
(2.70315 0.196885 0)
(2.26042 0.524899 0)
(3 1.99657e-10 0)
(3 1.14944e-09 0)
(3 3.80773e-09 0)
(3 9.63404e-09 0)
(3 2.32365e-08 0)
(3 5.08277e-08 0)
(3 1.14029e-07 0)
(3 2.39135e-07 0)
(3 5.3056e-07 0)
(3 1.09825e-06 0)
(3 2.46629e-06 0)
(2.99999 5.08911e-06 0)
(2.99999 1.16933e-05 0)
(2.99997 2.41461e-05 0)
(2.99994 5.70661e-05 0)
(2.99987 0.000117905 0)
(2.99967 0.000288028 0)
(2.99934 0.000593362 0)
(2.99821 0.0015029 0)
(2.99653 0.0030832 0)
(2.98981 0.0080064 0)
(2.97991 0.0164162 0)
(2.94154 0.0423617 0)
(2.8674 0.096118 0)
(2.65979 0.229699 0)
(3 1.00654e-10 0)
(3 6.35427e-10 0)
(3 1.98321e-09 0)
(3 5.2927e-09 0)
(3 1.2193e-08 0)
(3 2.82008e-08 0)
(3 6.03586e-08 0)
(3 1.35263e-07 0)
(3 2.83731e-07 0)
(3 6.35207e-07 0)
(3 1.33197e-06 0)
(3 3.00411e-06 0)
(2.99999 6.33994e-06 0)
(2.99999 1.43776e-05 0)
(2.99997 3.04684e-05 0)
(2.99993 6.9173e-05 0)
(2.99987 0.00014506 0)
(2.99965 0.000329297 0)
(2.99941 0.000666761 0)
(2.99799 0.00160595 0)
(2.99671 0.00295298 0)
(2.98724 0.00845657 0)
(2.97678 0.0169363 0)
(2.92123 0.0423737 0)
(2.81934 0.10231 0)
(3 5.46644e-11 0)
(3 3.14123e-10 0)
(3 1.04275e-09 0)
(3 2.64087e-09 0)
(3 6.39738e-09 0)
(3 1.404e-08 0)
(3 3.16778e-08 0)
(3 6.67671e-08 0)
(3 1.48533e-07 0)
(3 3.09947e-07 0)
(3 6.88404e-07 0)
(3 1.43936e-06 0)
(3 3.20503e-06 0)
(3 6.6787e-06 0)
(2.99999 1.48999e-05 0)
(2.99998 3.10022e-05 0)
(2.99993 6.41777e-05 0)
(2.99987 0.000127168 0)
(2.99954 0.000207567 0)
(2.99896 0.0002942 0)
(2.99739 0.000703447 0)
(2.99566 -0.000405696 0)
(2.98105 0.00561077 0)
(2.96835 0.0127327 0)
(2.84693 0.0316482 0)
(3 2.31327e-11 0)
(3 1.44254e-10 0)
(3 4.51243e-10 0)
(3 1.18604e-09 0)
(3 2.71109e-09 0)
(3 6.08441e-09 0)
(3 1.27816e-08 0)
(3 2.72327e-08 0)
(3 5.5391e-08 0)
(3 1.15902e-07 0)
(3 2.26768e-07 0)
(3 4.73958e-07 0)
(3 8.69035e-07 0)
(3 1.83028e-06 0)
(3 2.9956e-06 0)
(2.99998 7.16783e-06 0)
(2.99997 9.10875e-06 0)
(2.9998 3.34337e-05 0)
(2.99958 5.97407e-05 0)
(2.99853 3.46466e-05 0)
(2.99591 0.000174349 0)
(2.99293 -0.000513658 0)
(2.99205 -0.00390168 0)
(2.95121 0.00162889 0)
(2.89022 0.00655133 0)
(3 9.74127e-12 0)
(3 5.68942e-11 0)
(3 1.85402e-10 0)
(3 4.67743e-10 0)
(3 1.08957e-09 0)
(3 2.33645e-09 0)
(3 4.92164e-09 0)
(3 9.96317e-09 0)
(3 1.99422e-08 0)
(3 3.94007e-08 0)
(3 7.4953e-08 0)
(3 1.42552e-07 0)
(3 2.4814e-07 0)
(3 4.60347e-07 0)
(2.99999 5.20769e-07 0)
(2.99999 6.85416e-07 0)
(2.99995 -1.484e-06 0)
(2.99992 -6.47877e-06 0)
(2.99954 3.6798e-05 0)
(2.99909 4.12136e-05 0)
(2.99677 0.000484841 0)
(2.99098 0.00200427 0)
(2.9837 0.00129313 0)
(2.98057 0.00059771 0)
(2.86824 0.00394169 0)
(3 2.48567e-12 0)
(3 1.91384e-11 0)
(3 5.23722e-11 0)
(3 1.52877e-10 0)
(3 2.94168e-10 0)
(3 7.38624e-10 0)
(3 1.09186e-09 0)
(3 3.1984e-09 0)
(3 2.15591e-09 0)
(3 1.34861e-08 0)
(3 -9.86389e-09 0)
(3 5.19227e-08 0)
(3 -2.04819e-07 0)
(3 1.46926e-07 0)
(3 -2.34355e-06 0)
(2.99998 -1.01403e-06 0)
(2.99996 -2.00504e-05 0)
(2.99984 -1.87028e-05 0)
(2.99963 -0.000135172 0)
(2.99901 -4.1822e-05 0)
(2.99807 -0.000261807 0)
(2.99378 0.000978253 0)
(2.99045 0.00245679 0)
(2.95449 0.00753921 0)
(2.90289 -0.0180425 0)
(3 -4.966e-13 0)
(3 -2.41229e-12 0)
(3 -8.7824e-12 0)
(3 -2.28769e-11 0)
(3 -7.64705e-11 0)
(3 -1.98788e-10 0)
(3 -6.32867e-10 0)
(3 -1.51178e-09 0)
(3 -4.77724e-09 0)
(3 -9.73742e-09 0)
(3 -3.52227e-08 0)
(3 -6.4944e-08 0)
(3 -2.83024e-07 0)
(3 -5.01013e-07 0)
(2.99999 -2.35037e-06 0)
(2.99997 -4.63698e-06 0)
(2.99994 -1.26478e-05 0)
(2.9998 -2.87017e-05 0)
(2.99952 -4.382e-05 0)
(2.99894 -0.000166742 0)
(2.99791 -0.000125331 0)
(2.99406 -0.00104835 0)
(2.99143 0.000460098 0)
(2.95673 0.00172206 0)
(2.91163 0.00463288 0)
(3 -1.97913e-12 0)
(3 -1.09578e-11 0)
(3 -3.64431e-11 0)
(3 -9.37742e-11 0)
(3 -2.39671e-10 0)
(3 -5.70656e-10 0)
(3 -1.32947e-09 0)
(3 -3.27408e-09 0)
(3 -6.8667e-09 0)
(3 -1.60109e-08 0)
(3 -3.5335e-08 0)
(3 -6.8999e-08 0)
(3 -1.43853e-07 0)
(3 -2.64842e-07 0)
(2.99999 -3.17879e-07 0)
(2.99997 -4.57095e-07 0)
(2.99994 1.33917e-06 0)
(2.99981 2.97837e-06 0)
(2.99949 1.39563e-05 0)
(2.99893 -4.99193e-06 0)
(2.99709 4.77263e-05 0)
(2.9945 -0.000632774 0)
(2.99363 0.000646263 0)
(2.95911 0.0016372 0)
(2.91867 0.00366843 0)
(3 -1.36561e-12 0)
(3 -7.64043e-12 0)
(3 -2.46028e-11 0)
(3 -6.22644e-11 0)
(3 -1.48599e-10 0)
(3 -3.33085e-10 0)
(3 -7.17482e-10 0)
(3 -1.53619e-09 0)
(3 -2.88602e-09 0)
(3 -6.07402e-09 0)
(3 -7.86445e-09 0)
(3 -1.41934e-08 0)
(3 2.08915e-08 0)
(3 5.12815e-08 0)
(2.99999 5.4305e-07 0)
(2.99997 1.08136e-06 0)
(2.99994 5.15923e-06 0)
(2.99981 1.01587e-05 0)
(2.99951 3.37478e-05 0)
(2.99898 8.43799e-05 0)
(2.99721 0.000180235 0)
(2.99479 0.000469208 0)
(2.99402 0.00107072 0)
(2.96017 0.00178316 0)
(2.92119 0.00377582 0)
(3 -6.36193e-13 0)
(3 -9.69563e-12 0)
(3 -1.92159e-11 0)
(3 -7.93763e-11 0)
(3 -1.2158e-10 0)
(3 -4.43221e-10 0)
(3 -5.81596e-10 0)
(3 -2.28807e-09 0)
(3 -1.98567e-09 0)
(3 -1.20437e-08 0)
(3 4.25726e-09 0)
(3 -5.36594e-08 0)
(3 1.6304e-07 0)
(3 -8.20265e-08 0)
(2.99999 2.17221e-06 0)
(2.99997 1.9637e-06 0)
(2.99995 2.24539e-05 0)
(2.99983 1.90959e-05 0)
(2.99956 0.000132826 0)
(2.99909 0.000111606 0)
(2.99751 0.000347873 0)
(2.99551 0.000246879 0)
(2.99514 -0.00149252 0)
(2.96233 -0.00578217 0)
(2.92607 0.0195042 0)
(3 -2.95241e-12 0)
(3 -2.59657e-11 0)
(3 -7.0104e-11 0)
(3 -2.32931e-10 0)
(3 -4.99213e-10 0)
(3 -1.48745e-09 0)
(3 -3.063e-09 0)
(3 -9.09278e-09 0)
(3 -1.79807e-08 0)
(3 -5.57614e-08 0)
(3 -9.88822e-08 0)
(3 -3.28136e-07 0)
(3 -5.03101e-07 0)
(3 -1.7869e-06 0)
(2.99999 -2.01246e-06 0)
(2.99999 -8.52027e-06 0)
(2.99996 -4.69345e-06 0)
(2.99993 -3.08128e-05 0)
(2.9996 -3.02626e-06 0)
(2.99922 -2.64798e-05 0)
(2.99735 -2.99791e-07 0)
(2.99265 2.64188e-05 0)
(2.98697 3.7515e-05 0)
(2.98501 -6.2024e-05 0)
(2.89115 0.00038446 0)
(3 -2.57403e-12 0)
(3 -1.76932e-11 0)
(3 -5.5288e-11 0)
(3 -1.64223e-10 0)
(3 -4.00489e-10 0)
(3 -1.08861e-09 0)
(3 -2.55087e-09 0)
(3 -6.89751e-09 0)
(3 -1.59684e-08 0)
(3 -4.32465e-08 0)
(3 -9.90475e-08 0)
(3 -2.66122e-07 0)
(3 -6.13078e-07 0)
(3 -1.60165e-06 0)
(2.99999 -3.68326e-06 0)
(2.99997 -9.52855e-06 0)
(2.99992 -2.33325e-05 0)
(2.99984 -4.26748e-05 0)
(2.99957 -0.000112623 0)
(2.99909 -8.00447e-05 0)
(2.99757 -0.000224365 0)
(2.99555 0.000110114 0)
(2.99503 0.00229261 0)
(2.9626 0.00703817 0)
(2.92636 -0.0166321 0)
(1.17013 1.2118 0)
(1.58635 1.12387 0)
(1.84569 1.01616 0)
(2.00018 0.892087 0)
(2.05159 0.743849 0)
(2.01534 0.571767 0)
(1.87397 0.387762 0)
(1.46865 0.223151 0)
(0.635572 0.153722 0)
(-0.0101813 0.24553 0)
(-0.224991 0.243075 0)
(-0.242983 0.177631 0)
(-0.312125 0.126751 0)
(-0.381197 0.0857267 0)
(-0.451757 0.0433297 0)
(-0.528375 0.0136616 0)
(-0.604592 0.00187018 0)
(-0.675274 0.00205254 0)
(-0.735861 0.00660967 0)
(-0.784651 0.0114893 0)
(-0.824556 0.0152533 0)
(-0.860952 0.0175445 0)
(-0.897931 0.017886 0)
(-0.935637 0.0162801 0)
(-0.972305 0.0132055 0)
(-1.0074 0.00952387 0)
(-1.03951 0.00669742 0)
(-1.06297 0.00518404 0)
(-1.07619 0.00403531 0)
(-1.08364 0.00308205 0)
(-1.08375 0.00228773 0)
(-1.06951 0.000912309 0)
(-1.03731 -0.00175165 0)
(-0.988247 -0.00521388 0)
(-0.925212 -0.00885471 0)
(-0.852119 -0.0122769 0)
(-0.772038 -0.0157618 0)
(-0.689108 -0.0192002 0)
(-0.607329 -0.02179 0)
(-0.528017 -0.0244986 0)
(-0.452599 -0.0273123 0)
(-0.380965 -0.0307247 0)
(-0.311532 -0.0350239 0)
(-0.242261 -0.0395389 0)
(-0.176017 -0.0412103 0)
(-0.110281 -0.0433387 0)
(-0.0463389 -0.0459043 0)
(0.0238109 -0.0489658 0)
(0.0920607 -0.0489675 0)
(0.133459 -0.0427719 0)
(0.184116 -0.0388327 0)
(0.235471 -0.0361469 0)
(0.285434 -0.0341211 0)
(0.33128 -0.0319176 0)
(0.375192 -0.0301266 0)
(0.420512 -0.0290497 0)
(0.467014 -0.0285441 0)
(0.511805 -0.0273017 0)
(0.554833 -0.0258156 0)
(0.596493 -0.0244093 0)
(0.637106 -0.0231165 0)
(0.676825 -0.0219335 0)
(0.715639 -0.0208104 0)
(0.75359 -0.0197557 0)
(0.790661 -0.0187425 0)
(0.826915 -0.0177779 0)
(0.862376 -0.0168495 0)
(0.897093 -0.0159605 0)
(0.931077 -0.0151052 0)
(0.964388 -0.0142779 0)
(0.997045 -0.0134895 0)
(1.02908 -0.0127219 0)
(1.06052 -0.0119933 0)
(1.09137 -0.0112814 0)
(1.12167 -0.0106011 0)
(1.15142 -0.00992877 0)
(1.18064 -0.00928343 0)
(1.20935 -0.00864079 0)
(1.23755 -0.00802504 0)
(1.26524 -0.00741323 0)
(1.29244 -0.00682959 0)
(1.31913 -0.00625589 0)
(1.34533 -0.00571306 0)
(1.37104 -0.00518733 0)
(1.39628 -0.00469411 0)
(1.42103 -0.00422534 0)
(1.44531 -0.00379052 0)
(1.46913 -0.00338762 0)
(1.49247 -0.00302363 0)
(1.51532 -0.00270197 0)
(1.53766 -0.00243756 0)
(1.55944 -0.00222779 0)
(1.58061 -0.00209377 0)