/*--------------------------------*- C++ -*----------------------------------*\
  =========                 |
  \\      /  F ield         | OpenFOAM: The Open Source CFD Toolbox
   \\    /   O peration     | Website:  https://openfoam.org
    \\  /    A nd           | Version:  6
     \\/     M anipulation  |
\*---------------------------------------------------------------------------*/
FoamFile
{
    version     2.0;
    format      ascii;
    class       volScalarField;
    location    "60";
    object      p;
}
// * * * * * * * * * * * * * * * * * * * * * * * * * * * * * * * * * * * * * //

dimensions      [0 2 -2 0 0 0 0];

internalField   nonuniform List<scalar> 
918
(
0.534903
1.24443
0.00575485
0.534809
-0.0113888
1.21216
-0.499162
0.649138
0.516046
-0.128599
-0.0700168
0.517165
1.06912
0.835551
-1.16883
-0.0208064
0.631035
-0.419853
0.514065
-0.0729521
0.671997
0.522728
0.525194
0.515982
0.57816
0.791264
0.945902
-0.00419042
0.00998684
0.00473362
-0.0128408
-0.0333516
-0.0295673
1.09532
1.14721
1.17039
0.482625
0.316162
-0.39403
-0.446816
-0.428116
-0.517545
0.645522
0.643719
-0.218855
0.651841
0.655044
0.501769
0.515439
0.516274
0.517406
0.516304
0.517587
0.387063
-0.136845
-0.162444
-0.111933
-0.109604
0.0331531
-0.073184
-0.0753775
-0.065809
-0.0651504
0.431846
0.512241
0.508748
0.521379
0.529815
1.18459
1.1584
1.18447
1.09475
1.11245
1.04622
1.01923
0.857847
0.881151
0.818599
0.806964
-1.627
-2.57574
-0.590546
-0.312931
-0.0104458
-0.0209669
-0.0186721
0.626285
0.628436
0.629548
0.632844
1.02991
-0.391577
-0.462461
0.514585
0.513104
0.522248
0.523151
0.51811
0.518113
-0.0675742
-0.0642601
-0.0632573
-0.0719705
-0.0733995
0.66443
0.663998
0.515419
0.512865
0.538078
0.561099
0.548812
0.250313
0.58367
0.596552
0.652136
0.801077
0.787558
0.800132
0.920974
0.888831
0.978009
0.999708
0.0132908
-0.00134809
-0.0227263
-0.0214363
-0.0216422
0.47837
0.471944
0.499684
0.486242
0.489282
0.221057
0.0703499
0.398583
0.422467
-0.316592
-0.364719
-0.4588
-0.455715
-0.56248
0.600709
0.641526
0.63918
-0.232066
-0.158491
-0.285744
-0.101396
-0.158116
0.492736
0.498977
0.495058
0.510419
0.504593
0.507015
0.519513
0.516691
0.518288
0.445403
0.579248
0.306792
0.280056
-0.283223
-0.179183
-0.263725
-0.0989
-0.0941245
0.0444905
0.0733686
0.0202536
0.00773569
-0.0855124
-0.0768835
-0.0811202
-0.0657795
-0.0659695
0.423318
0.41032
0.443041
0.450538
0.498904
0.500378
0.504779
0.502751
0.970306
0.992981
0.999142
0.975303
-3.55534
-6.19167
0.0324923
0.192213
-0.00936398
-0.0103863
0.000235379
-0.00959057
-0.000335055
-0.00262091
-0.0259644
-0.0264034
-0.0209767
-0.0215381
0.624128
0.625762
0.997898
1.02924
0.977387
0.956432
0.503906
0.505802
0.510435
0.507315
-0.065709
-0.064739
-0.0665579
0.656742
0.662032
0.659967
0.209274
0.120821
0.301563
0.332636
0.619211
0.60464
0.616749
0.711396
0.750614
1.01668
1.04057
1.02491
1.03773
1.08853
1.11147
1.07631
0.456984
0.467881
0.462168
0.502758
0.500465
0.501463
0.497731
0.498754
0.497323
-0.0413352
-0.414035
0.473774
0.474712
0.465125
0.469078
0.687064
0.770255
0.631678
0.635973
0.635525
-0.0508134
-0.0979761
0.238314
0.210108
0.362619
0.397105
0.378983
0.945588
0.906023
0.953882
0.929167
0.894085
0.917307
-0.350701
-2.11608
-1.11025
0.59379
0.396484
0.488246
-0.00857912
-0.0251698
-0.0215439
1.02386
1.06236
0.649942
0.834572
0.787048
0.777548
0.805462
0.862767
0.794612
0.82887
0.861388
0.839497
0.551646
0.483655
0.500857
0.845855
0.901318
0.0838102
0.00608411
-0.0173531
0.0974944
0.168037
0.136113
1.03846
0.954994
1.01736
0.513104
0.51405
-0.0178646
-0.0409197
0.51816
0.517872
-0.0209183
-0.0113208
0.505206
-0.937679
0.0868001
0.507655
0.497358
0.514159
-0.110469
0.320607
-0.0739919
0.016959
-0.0185352
0.510396
0.444093
0.40189
-0.00507932
-0.0288454
-0.0646453
-0.217376
0.510844
0.509205
0.513543
0.514364
0.515137
-0.0256208
-0.0259491
-0.0179156
-0.0597953
-0.0566225
-0.0647557
0.477495
0.497697
-0.193319
0.513833
0.515932
0.515634
0.509809
0.514765
0.513382
-0.0209902
-0.0253704
-0.0272562
0.189672
0.329138
0.689636
0.765529
0.637945
0.470581
0.175925
0.625435
0.678171
0.602745
0.734383
0.637243
0.647279
0.153813
0.0113393
0.15797
0.0908348
0.504506
0.503918
0.494895
0.491767
0.508974
0.506645
0.51185
0.509058
0.512236
0.513395
-0.0648999
-0.0908405
-0.109515
-0.15171
0.281344
0.545223
0.222006
0.243862
0.148877
-0.0648691
-0.0629207
-0.0714834
-0.0747266
-0.0319981
-0.0359337
0.0107227
0.0178759
0.000825434
-0.0256724
-0.0382998
-0.0351545
-0.0419984
0.503615
0.503028
0.507513
0.515363
0.453668
0.457387
0.423778
0.442501
0.428701
0.368738
0.398617
0.375787
-0.0159435
-0.00562965
-0.00850659
-0.0285384
-0.0275187
-0.0490311
-0.041775
-0.0401516
-0.0364944
-0.0412404
-0.0593817
-0.0629955
-0.181203
-0.300109
0.949268
0.903324
0.130762
0.500756
0.506412
0.503586
0.508287
0.511489
0.512126
0.509701
0.506193
0.497765
0.499137
0.496078
0.497151
-0.133365
-0.241935
-0.0720574
-0.146695
0.143685
0.610086
0.336658
0.281979
0.26723
0.493359
0.6974
0.611318
0.671515
0.657318
-0.39514
0.00937373
-0.326954
0.220308
0.212759
0.714291
0.757533
0.776065
0.732177
0.68785
-0.0304672
0.544681
-0.0727311
-0.022756
0.167309
0.0527323
0.646166
0.620354
0.626454
0.641832
0.65176
0.633844
0.618874
0.612783
0.637085
0.640423
0.491738
0.218292
0.176144
0.130003
0.616859
0.515697
0.566778
0.483987
0.500122
0.502542
0.501477
0.482284
0.489651
0.485312
0.492505
0.496176
0.503474
0.503679
0.499551
0.501444
-0.0807717
-0.0868274
-0.068427
-0.13146
-0.137085
-0.181766
-0.087486
0.0737661
0.0230335
0.223129
0.350181
0.0565029
-0.0572498
-0.0395036
0.00984015
0.170831
0.173122
0.0494898
0.156528
0.113936
0.108566
0.194807
0.217402
-0.0466927
-0.0527061
-0.0542223
-0.0582856
-0.00726486
0.0995085
0.0800133
-0.0232678
-0.0304992
-0.0610117
-0.0627558
-0.017076
-0.0417358
-0.0351676
-0.0103896
-0.0571104
-0.030983
-0.0207268
-0.0242354
-0.0263618
-0.0252692
0.497152
0.499298
0.499316
0.506862
0.518828
0.533543
0.501361
0.474891
0.465905
0.469015
0.442099
0.451343
0.446613
0.462376
0.483615
0.492915
0.4905
0.493259
0.475066
0.47684
0.46231
0.466908
0.436204
0.417602
0.407467
-0.053706
-0.0202281
-0.0336241
-0.0470583
-0.0210662
-0.0308783
-0.027569
-0.00947195
-0.0279124
-0.0242268
-0.03382
-0.0396037
-0.0401026
-0.0838704
-0.00213567
-0.181712
-0.231894
-0.284247
0.87977
1.01542
0.807883
0.58523
0.595484
0.822604
0.928568
0.547414
0.704367
0.760585
0.569832
0.85787
0.504657
0.504268
0.502151
0.501332
0.502297
-0.0224582
0.0815211
0.0944276
0.152642
0.268294
0.374169
0.304284
0.19219
0.325071
0.349239
0.608894
0.61465
0.569206
0.590768
0.592431
0.403813
0.484438
0.522456
0.479341
0.55212
0.586374
0.532839
0.575816
0.49552
0.445812
0.437586
0.393216
0.42719
0.40837
0.38286
0.495582
0.472957
0.483472
0.473519
0.494794
0.519878
0.52215
0.544551
0.562011
0.475395
0.42178
0.438699
0.467488
0.423129
0.440192
0.462134
0.177644
0.0808231
0.243822
-0.0843657
0.00250451
0.0412498
-0.00106768
-0.0439294
0.262874
-0.376011
-0.322169
-1.00062
0.487419
0.84475
0.597259
0.609008
0.651596
0.637441
0.647279
0.655665
0.659273
0.60482
0.615085
0.619634
0.592464
0.616418
0.616027
0.623382
0.495856
0.398096
0.398153
0.332113
0.192392
0.232906
0.425374
0.356921
0.281761
0.274253
0.446282
0.312475
0.390863
0.443028
0.367862
0.302638
0.529992
0.574694
0.566336
0.539628
0.424813
0.457674
0.46068
0.509699
0.552625
0.578398
0.491091
0.497408
0.498329
0.495588
0.493894
0.497025
0.497295
0.499571
0.49981
0.502378
0.501818
-0.0693376
-0.0572129
-0.0737394
-0.0784977
-0.0325687
-0.039793
-0.00966854
-0.030118
-0.0336723
-0.0306675
-0.051567
-0.0634152
-0.0589763
-0.047649
0.0666177
0.0839538
0.081846
0.0396506
0.240884
0.393726
0.45149
0.334445
0.183384
0.194123
0.273174
0.00259719
0.0083294
-0.00745298
0.0553309
0.0404954
-0.0542649
-0.0583762
-0.0569243
-0.0456981
-0.0380767
-0.0602575
-0.058537
-0.0481979
-0.0566665
-0.0606988
-0.0633317
0.476552
0.469443
0.473084
0.46544
0.463603
0.480635
0.485196
0.486308
0.491914
0.494667
0.483946
0.490076
0.494297
-0.0285059
-0.0453737
-0.0463607
-0.0424692
-0.0422464
-0.0413501
-0.0443372
0.120781
0.024795
0.0615682
-0.00937342
-0.135421
-0.0762924
0.494017
0.48937
0.478699
0.713131
0.549536
0.46834
0.567617
0.687591
0.269092
0.467831
0.302734
0.881182
0.786735
0.932228
0.547743
0.246528
0.412571
0.422216
0.264688
0.388024
0.33408
0.21011
0.245612
0.27864
0.361313
0.248202
0.227264
-0.0146309
0.165847
0.276257
0.25848
0.385595
0.442695
0.25548
0.171509
0.118643
0.590487
0.606409
0.614411
0.586054
0.606775
0.564183
0.554953
0.570804
0.581168
0.575663
-0.635777
-0.224083
-1.42441
-0.836051
-0.384781
0.514983
0.512436
0.742203
0.647767
0.669527
0.652785
0.593589
0.562629
0.607435
0.623061
0.321908
0.407404
0.394263
0.370247
0.315746
0.258201
0.529461
0.538621
0.561405
0.587123
0.562975
0.589962
0.489809
0.489663
0.488349
0.484612
0.483125
0.486394
0.0249469
-0.00313773
0.0316942
0.0156294
-0.0101643
-0.0139079
-0.0329682
-0.0442221
-0.0427272
-0.0400993
-0.0311057
-0.0296585
0.164435
0.103784
0.014859
0.0571317
-0.0100601
-0.0929529
-0.0943091
-0.00407916
0.0967618
0.0783737
0.385689
0.652495
0.478031
0.653512
0.445417
0.548679
0.460818
0.433733
0.46206
0.365024
0.455161
0.0375193
-0.16274
-0.218537
0.812407
0.771721
0.553643
0.3079
0.191479
0.485847
0.512337
0.472841
0.498166
0.550165
0.530631
0.0117425
0.102038
0.182877
0.489453
0.271266
0.288908
0.279732
0.443855
0.414846
)
;

boundaryField
{
    wall-4
    {
        type            zeroGradient;
    }
    velocity-inlet-5
    {
        type            zeroGradient;
    }
    velocity-inlet-6
    {
        type            zeroGradient;
    }
    pressure-outlet-7
    {
        type            fixedValue;
        value           uniform 0;
    }
    wall-8
    {
        type            zeroGradient;
    }
    frontAndBackPlanes
    {
        type            empty;
    }
}


// ************************************************************************* //
