/*--------------------------------*- C++ -*----------------------------------*\
  =========                 |
  \\      /  F ield         | OpenFOAM: The Open Source CFD Toolbox
   \\    /   O peration     | Website:  https://openfoam.org
    \\  /    A nd           | Version:  6
     \\/     M anipulation  |
\*---------------------------------------------------------------------------*/
FoamFile
{
    version     2.0;
    format      ascii;
    class       surfaceScalarField;
    location    "60";
    object      phi;
}
// * * * * * * * * * * * * * * * * * * * * * * * * * * * * * * * * * * * * * //

dimensions      [0 3 -1 0 0 0 0];

internalField   nonuniform List<scalar> 
1300
(
3.75095
5.62643
-3.3465
3.75095
-7.75224
5.62643
-4.25476
4.25476
-0.507516
0.507516
1.87648
1.87447
-2.46069
2.46069
-1.89324
1.89324
-2.53099
2.53099
-5.24798
5.24798
-5.07
5.07
4.70427
-4.70427
-6.31647
6.31647
-0.979449
0.979449
-3.55578
3.55578
3.17259
-3.17259
-1.9617
1.9617
-0.029447
0.029447
-0.554087
4.30504
3.19687
3.19687
-1.98055
1.98055
-4.8745
4.8745
6.22245
-6.22245
5.27122
-5.27122
-1.92472
-2.48584
1.80722
-11.512
-5.94503
-5.94503
-8.44099
8.44099
-2.81456
2.81187
2.9469
-2.9469
-1.72876
1.72876
-4.26867
0.0139142
-4.26867
4.22633
0.0284343
4.22633
-0.582982
0.0754657
-0.582982
3.92201
-3.92201
0.414807
0.0927089
0.414807
3.0672
-3.0672
-1.87686
3.75334
1.87409
-1.87209
6.17713
-1.87887
3.75334
-6.07063
6.07063
-2.67906
0.218372
-2.67906
2.26559
0.195106
2.26559
-6.87835
6.87835
-1.95312
0.0598756
-1.95312
1.90361
-0.0103715
1.90361
2.88659
-2.88659
-2.63437
0.103382
-2.63437
2.38676
0.144237
2.38676
0.353399
5.27303
-5.97983
8.7917
-5.27303
0.0250474
5.21017
0.0378161
5.21017
-5.10532
0.0353255
-5.10532
5.01261
0.0573869
5.01261
4.79466
-0.0903903
4.79466
-4.82261
0.118333
-4.82261
-3.35985
-4.07544
-6.47721
0.160743
-6.47721
-1.04057
0.0611244
-1.04057
0.875118
0.104331
0.875118
-3.71931
3.71931
-3.91388
0.358098
-3.91388
3.12758
0.0450133
3.12758
1.86812
1.88283
5.61908
-5.61908
2.44648
-1.91746
-0.0442449
-1.91746
-2.01791
-3.25331
2.01791
-0.0562098
-0.252061
0.222614
-0.252061
3.15709
0.0397743
3.15709
2.23568
0.151074
-2.23568
0.255134
3.29435
-3.29435
1.30654
0.674004
1.30654
-5.55844
5.55844
4.96163
0.0509838
-4.96163
0.0871294
6.15741
0.065046
6.15741
-6.2076
-0.0148531
-6.2076
2.48692
-4.97275
-2.64069
6.13011
0.186353
-6.13011
0.185085
2.9183
0.0285974
2.9183
-2.91989
2.91989
-2.98398
0.0370803
-2.98398
-2.15192
0.423166
-2.15192
1.41382
0.314937
1.41382
-4.1808
-0.0878711
-4.1808
-4.07208
0.158205
4.07208
0.154244
1.11274
-1.11274
-0.663592
0.0806098
-0.663592
-4.02692
-0.153888
4.02692
-0.104908
-3.8663
-0.0557112
-3.8663
-3.02173
0.0377548
3.02173
0.0454627
3.11206
0.0450354
-3.11206
0.0448596
-1.87099
3.75382
-1.87996
3.75406
-5.69064
-0.379987
-5.69064
6.35678
-0.286153
6.35678
3.08746
0.468317
-3.08746
0.408399
2.12467
0.140917
2.12467
-6.85306
-0.0252872
-6.85306
6.88212
-0.00376755
6.88212
2.02599
0.0986763
-2.02599
0.0728784
1.90314
0.000467219
1.90314
2.9137
-0.0271068
2.9137
-2.88084
-0.00574803
-2.88084
2.79335
-2.79335
2.72064
0.0727134
-2.72064
0.0862612
-11.1241
11.1093
-0.0361942
-11.088
5.17397
5.17397
4.24915
0.545513
4.24915
-5.01674
0.194131
-5.01674
2.66127
-5.30196
3.09874
-6.45859
4.67745
-16.1895
4.29887
-8.37431
6.72957
-6.72957
6.61018
0.119383
-6.61018
0.132974
-1.13725
0.0966732
-1.13725
-3.10743
-0.61188
-3.10743
4.35855
-0.639244
4.35855
-3.02784
3.02784
-3.07655
0.0487055
3.07655
0.0510332
1.89619
0.00695865
-1.89619
-0.0212705
0.321624
0.0931838
-0.321624
0.0695623
3.51318
-0.218828
3.51318
-3.09235
-0.202005
-3.09235
-1.22164
0.0843896
1.22164
0.0849075
-5.80728
0.248842
-5.80728
-11.1817
0.0937775
-11.1439
-6.11382
-6.11382
2.32717
11.1189
-2.89647
0.0156219
2.89647
0.0218365
2.97542
0.0524245
-2.97542
0.055521
-2.85993
0.0665786
2.85993
0.0599669
-2.52051
0.368589
-2.52051
-1.02759
1.02759
-1.17659
0.149
1.17659
0.23723
1.40959
-0.296853
1.40959
0.771744
0.103374
-0.771744
0.108152
-3.81638
-0.0499212
-3.81638
6.59401
-0.237225
6.59401
-2.96425
-0.128094
2.96425
-0.0505566
-0.034754
11.144
-5.13922
0.0338977
5.13922
-11.2091
11.243
-3.22689
0.706383
3.22689
1.02226
5.28459
0.273842
-5.28459
0.267858
6.82152
0.0605974
-6.82152
0.0919508
-2.62528
-0.482147
-2.62528
-5.09802
-0.592618
5.09802
-0.73947
-11.4819
-0.203888
11.6858
-11.4246
6.01117
0.14624
-6.01117
11.3892
-0.99443
-0.118312
0.99443
0.0331611
1.74713
-0.337534
1.74713
3.72588
-0.212703
-3.72588
-0.0904912
-6.74775
-0.105309
6.74775
-0.153747
-2.17524
-0.450043
2.17524
-0.428108
-4.26735
4.30713
1.90977
-2.34
-2.63276
-5.5933
1.85519
1.89863
4.30167
-10.1724
-6.01706
-9.98734
7.21394
-6.94608
-9.33599
9.2456
7.89554
-7.95125
-5.77766
5.82869
6.48447
-6.439
1.87935
1.87398
8.02414
-7.80577
-15.7056
15.3256
7.59151
-7.53164
15.8542
-15.8795
-17.9013
17.9619
-5.69363
5.79701
-6.74109
6.73534
-6.97646
6.9259
-2.79554
-3.66305
13.151
-12.9903
8.56176
-8.60601
-8.64292
9.00102
3.38458
0.922545
3.42962
-1.88184
3.7612
-1.8715
3.78128
2.74077
-5.53632
2.56119
-5.19394
4.34907
4.21269
-4.29286
-1.30044
-5.9281
5.9567
-5.80975
5.86971
9.15128
-9.13737
-1.88498
3.75896
-1.86908
3.76771
-3.42322
-2.35444
3.3782
0.923472
8.08703
5.06399
-8.27338
-1.71396
-8.00886
7.79616
-8.21008
8.00808
-0.437425
5.83797
-5.40054
4.43707
-1.65303
7.491
5.56091
5.75505
5.86031
-5.58647
1.08577
-6.48631
-6.39918
-2.37131
2.45192
2.26035
-2.16764
6.11384
1.7817
6.00893
-5.78639
-2.16486
-5.83631
3.82
2.00869
3.8687
4.08183
2.40264
4.11958
3.02982
-3.03654
0.00672268
-3.05916
6.08898
0.722418
-5.4136
-4.49013
4.99397
3.03017
5.18908
-5.56404
-2.24172
-5.15564
-9.6135
-6.09209
-10.2061
10.1061
5.21952
9.81994
-11.9835
11.8297
4.88284
2.70868
4.87247
-4.95576
-2.57588
-4.88288
11.6762
-2.63278
-9.04339
-10.3493
-7.55193
10.3531
5.50112
10.9956
6.96623
11.0876
4.43293
7.24323
-9.93405
2.38212
-3.86239
-1.83124
-3.77613
3.65356
2.14345
3.79779
-4.21837
-2.52272
-4.20275
-4.29406
-2.6824
4.32116
2.41418
-4.41446
-3.79563
4.54255
2.38335
4.05935
-10.0764
4.31496
-7.97801
-9.22329
-3.76698
-9.09032
3.53199
2.5959
-6.12789
-2.00433
8.49872
-4.28602
7.19828
-5.19182
-3.41418
-5.21309
-6.94071
-1.70221
-6.78251
-8.93209
8.44995
-9.22045
8.58121
12.5653
-5.66602
-6.89931
-3.96695
-2.47205
3.92209
-0.492476
-3.71007
3.71679
0.0511286
3.8324
4.75495
4.26247
-3.88221
-1.92754
-3.82668
3.82154
2.04817
3.88812
6.83107
2.32022
6.8595
-6.58724
-2.55013
-6.67511
9.11184
-8.68868
2.80723
-2.72284
5.36596
2.64212
-5.14713
-2.86173
6.23925
-3.20628
-3.03297
-12.3475
10.8104
1.5371
-4.8565
-0.41943
-0.389983
-5.57443
-3.76156
5.45609
0.298951
11.1093
7.34779
-5.51478
5.76362
6.17106
6.22204
-0.177145
5.8984
-5.19202
5.27779
-2.67226
-2.60552
5.45295
-5.60683
-1.22217
-5.52198
4.29981
0.402098
1.56817
-1.34556
-1.83426
-0.537046
-1.72611
1.28093
0.979416
1.37412
0.926752
1.52516
-2.92291
0.567011
2.3559
-1.99616
-1.60063
-3.76738
-1.14394
4.91132
5.70907
2.08709
-5.61858
-0.217733
2.60636
-2.50203
-0.802715
-2.96466
2.21176
-3.01448
-3.4852
-1.90938
5.39457
-3.36882
-0.457861
3.3164
0.552303
-3.82792
-2.10018
3.79084
0.328745
-3.1284
6.19011
-3.0617
-5.05594
2.52892
3.56006
4.53761
-4.79019
2.44903
2.34117
-1.23013
4.26746
0.921623
4.40837
-7.00318
4.76145
5.71275
3.28827
-6.18107
1.02543
-5.97775
8.59063
-7.43167
-1.15896
4.15367
4.43696
7.07522
5.49011
-5.70598
12.7812
-1.1834
-6.24827
7.16114
-3.87288
4.87261
-8.74548
-10.3627
4.11444
-9.22061
11.0701
-1.84945
-3.61272
-8.37076
12.8333
-1.21195
-11.6214
8.60798
-4.28459
-4.33525
8.61985
-6.91737
6.91113
-1.99031
-4.92082
-10.1637
-5.71587
10.269
1.56078
-9.90474
12.2869
-2.66151
4.16021
0.712253
4.16068
3.32771
-5.45612
2.12842
3.58967
-5.57997
2.06777
-7.52389
-6.76961
12.1085
-5.33887
-10.5366
-9.56642
-0.970167
2.55315
9.73372
-9.51938
7.44976
2.06961
3.29868
0.58944
-3.37139
-0.404739
0.244446
4.51145
-4.75589
4.04224
4.19331
3.22351
1.28794
3.8489
2.1078
-3.87074
-0.332012
-4.16734
1.48493
-1.75316
-3.69237
5.17731
-4.06172
0.369349
-2.74822
-3.49459
6.24281
-4.57946
3.03632
3.15378
5.08449
-4.91453
1.41995
-2.39102
-2.52351
2.64178
-4.39494
1.99764
3.17967
4.38099
0.585363
5.91241
6.19607
-8.50831
0.530308
11.2601
-9.54611
2.48482
8.60278
-9.93458
0.368162
-8.72216
0.975779
-5.2618
-5.15211
5.21539
-6.9176
-3.53009
6.23359
0.625907
-6.38784
-0.394673
-6.07058
-2.86152
-6.52062
-3.0602
-6.16025
-8.76618
-1.67781
-7.08836
6.77213
-6.70749
-3.49863
7.44696
1.13425
-7.48276
7.36444
-7.54399
7.20645
0.0947254
3.62206
4.3572
1.88515
-2.39193
4.27708
-5.06816
7.38837
-8.7273
3.65914
4.21484
-6.76497
-4.51245
5.06373
4.04811
5.37867
8.93613
-10.3978
1.46168
-10.6702
12.0105
-1.34031
-16.4557
5.78553
-7.51956
2.44283
0.364404
2.5395
0.558558
2.50175
-3.06031
-2.16428
-2.07938
-2.43272
-3.49665
5.92937
1.07945
-3.45781
2.37836
-3.58338
4.66283
-0.0484159
-3.40939
5.20234
-2.70059
5.56675
-3.63179
1.93495
3.53866
5.84211
-2.30345
4.4228
-1.78068
1.93559
-4.23904
-1.56107
-2.9577
5.10115
-3.28511
3.65446
-0.345259
3.99972
-4.05404
0.847762
-0.83053
3.36278
3.61792
4.33236
-3.04443
2.93965
-4.72032
-1.29939
-4.13496
-0.95529
-0.192627
-3.79282
3.98545
6.01906
-6.21169
-5.2885
9.53489
-4.24639
7.71019
-5.44493
-2.26526
-4.29727
-4.39141
3.92868
1.96972
9.67991
0.179517
-5.62445
-5.0125
-3.99024
3.11078
2.167
-1.78107
3.31817
2.17105
-0.60288
0.417084
0.957033
1.77191
-1.35483
0.31896
1.45295
-1.0266
1.76328
0.843073
-1.86666
0.140551
-1.27432
3.48608
1.08158
-2.06099
0.706167
0.907562
-3.57983
5.04056
-2.69776
-2.3428
5.94812
1.14898
-3.84674
4.373
-3.9709
2.42818
-3.57212
-1.41857
-5.38947
-3.60777
-2.50087
4.87923
-3.4285
5.51559
1.39403
-5.29786
6.69189
-3.6256
1.71622
-3.07078
3.91385
-1.03723
-2.03355
2.88939
2.50518
-3.11234
0.147676
-0.222951
2.41128
-2.63423
-0.603198
-2.59935
-4.57566
4.90441
-2.10405
4.55308
2.17303
-1.91727
6.47035
1.80802
-3.7253
-3.24792
-3.70578
-1.38413
3.15348
-0.600723
-4.28216
-5.52154
4.18348
0.224889
-7.03694
7.88724
-0.850297
-4.00678
-0.754677
4.90834
-6.06383
0.48386
-3.99607
3.89117
4.8128
5.03768
-11.3881
-0.233236
-6.16863
1.11157
-7.2802
5.54853
-3.58723
7.70167
-10.3282
6.82958
-9.19396
6.54271
-0.73749
6.25064
-4.12223
2.79274
-8.50861
-6.94783
5.5032
-2.79452
6.21545
-3.16381
9.37927
-5.82532
5.29213
4.08714
-1.03108
-4.18202
-5.27775
4.24667
0.0143754
4.17506
4.98655
-2.87876
4.65454
2.26311
-4.65413
-2.13182
-6.48791
1.83377
-3.33412
-1.9219
3.75567
3.1626
3.75204
1.23216
-3.3473
7.23237
-8.20253
-1.89349
-3.25862
5.25959
-1.01291
3.4164
-6.67502
-1.8454
4.76758
-0.728144
-4.03944
0.89844
-4.42853
1.66541
-6.09394
5.25219
-5.64686
2.25348
-9.77304
-5.22928
-5.19611
-2.27974
-5.26424
-7.58887
5.30913
-1.80335
5.5611
-8.53382
7.80568
-3.47665
8.78578
-5.46661
-1.05401
5.89472
1.31173
10.0975
0.150228
-4.66268
-1.93107
3.75228
-1.82121
1.17971
-3.6426
0.109679
2.48601
3.46212
-6.78582
0.0208513
-4.64183
-3.91235
7.96046
5.62254
11.6416
1.2438
9.14907
-1.18861
10.3929
4.19006
4.42729
-3.01904
4.48072
0.966408
4.62555
-0.880683
2.81564
1.65882
1.71994
0.782084
2.30264
1.31527
3.15041
0.0900976
-1.98928
4.63857
-8.62881
-0.985882
-8.0833
1.1623
5.42883
-4.26654
2.90491
-0.737902
1.0837
-0.126873
-1.29862
1.42549
-2.7324
-1.9015
-0.448549
-1.62255
2.32872
1.86353
-1.88017
-0.852227
0.329024
-3.9368
3.24309
-3.09542
-0.590232
6.10166
-2.88252
0.248292
-1.1663
-2.35106
-2.88811
2.74756
6.17448
0.295875
3.11278
5.20028
3.1001
0.221345
3.82901
-5.67846
-3.69488
-5.9117
-0.363165
4.54518
1.73731
7.99641
5.82445
4.81153
-1.86349
-10.066
6.52943
-2.04871
5.18912
-1.14969
-4.94425
5.06682
2.32155
-5.69273
0.0458641
-4.89839
-6.9471
-0.481961
8.28764
-9.61556
8.56155
5.70003
1.38833
-4.44056
-0.755551
4.29156
0.135727
10.5286
-0.909652
-7.08701
7.99666
-4.51918
3.5333
0.690176
2.62799
2.11567
1.37776
-5.70924
-9.97578
-2.03657
-1.54325
-4.37937
0.531948
-2.39548
6.07998
-2.54668
3.81472
5.44998
6.53368
-2.05333
-4.15836
6.29972
-2.485
4.04868
)
;

boundaryField
{
    wall-4
    {
        type            calculated;
        value           uniform 0;
    }
    velocity-inlet-5
    {
        type            calculated;
        value           uniform -3.75095;
    }
    velocity-inlet-6
    {
        type            calculated;
        value           uniform -5.62643;
    }
    pressure-outlet-7
    {
        type            calculated;
        value           nonuniform List<scalar> 8(3.3465 7.75224 4.41055 9.70482 7.43529 5.12761 5.76001 8.97632);
    }
    wall-8
    {
        type            calculated;
        value           uniform 0;
    }
    frontAndBackPlanes
    {
        type            empty;
        value           nonuniform 0();
    }
}


// ************************************************************************* //
