/*--------------------------------*- C++ -*----------------------------------*\
  =========                 |
  \\      /  F ield         | OpenFOAM: The Open Source CFD Toolbox
   \\    /   O peration     | Website:  https://openfoam.org
    \\  /    A nd           | Version:  6
     \\/     M anipulation  |
\*---------------------------------------------------------------------------*/
FoamFile
{
    version     2.0;
    format      ascii;
    class       volVectorField;
    location    "60";
    object      U;
}
// * * * * * * * * * * * * * * * * * * * * * * * * * * * * * * * * * * * * * //

dimensions      [0 1 -1 0 0 0 0];

internalField   nonuniform List<vector> 
918
(
(0.985049 -0.000714068 0)
(0.00535063 2.96624 0)
(-0.00179287 0.884177 0)
(0.979574 0.00196141 0)
(-0.0128948 2.06261 3.28224e-20)
(-0.00710134 2.94856 -2.59838e-18)
(0.813838 1.11662 4.40625e-19)
(0.164092 0.0803982 -1.44435e-20)
(0.999922 -0.000243589 0)
(0.0837818 0.671638 0)
(0.0127316 0.430889 0)
(0.734717 -0.0163274 0)
(0.0102153 2.93157 0)
(0.00333467 2.79477 0)
(-0.00187707 3.18262 8.25642e-19)
(-0.0139713 1.921 1.96274e-20)
(0.290337 0.0300762 9.84625e-19)
(0.23016 1.10224 3.55537e-19)
(0.96438 0.00673876 0)
(0.00172495 0.423038 0)
(0.0193127 0.102858 -6.76568e-19)
(1.00183 -0.00456025 0)
(0.999851 -0.00892806 0)
(0.975165 -0.0060526 0)
(0.59105 -0.0220429 0)
(0.0215913 2.64426 0)
(-0.0123813 2.91194 9.52631e-19)
(-0.00492427 0.937359 0)
(-0.029318 1.169 0)
(-0.00300468 0.907795 0)
(-0.0213911 2.5957 0)
(-0.00386409 2.11259 -2.6215e-20)
(-0.00918322 1.89321 0)
(-0.0221172 2.98762 -9.37332e-23)
(-0.0164841 3.00549 2.01869e-18)
(0.00230419 3.00057 0)
(0.871828 -0.00972825 0)
(0.376234 0.916426 1.6491e-19)
(0.812723 1.13442 -5.49441e-19)
(0.945612 0.999426 5.59247e-19)
(0.676029 1.21725 -1.01223e-19)
(0.689383 1.17834 5.7759e-19)
(0.191471 0.146645 1.40905e-20)
(0.177937 0.0700134 0)
(1.15748 0.528086 0)
(0.16555 0.133738 6.41621e-20)
(0.142461 0.0748161 -6.6581e-20)
(0.920523 -0.0070463 0)
(1.00026 6.30122e-05 0)
(0.999908 0.000319699 0)
(1.0037 -0.00728301 0)
(1.00089 -0.000947497 0)
(1.00011 -7.85742e-06 0)
(0.0927753 1.84214 -7.34261e-19)
(0.0298052 0.863421 0)
(0.118499 0.749228 0)
(0.0158231 0.814396 0)
(0.0475758 0.603579 0)
(0.00374011 2.02582 0)
(-0.00498394 0.73964 0)
(0.00784734 0.464556 0)
(-0.0106572 0.736716 0)
(0.00702126 0.424413 0)
(0.843031 -0.0156979 0)
(0.835911 0.0354715 0)
(0.765946 -0.00914173 0)
(0.802856 0.0424732 0)
(0.703042 -0.00428767 0)
(0.0139243 3.00023 9.64622e-19)
(0.0111359 3.00607 0)
(0.00619366 3.00384 0)
(0.0119071 2.99717 1.09569e-23)
(0.00824129 2.95875 -1.43366e-18)
(0.0122424 2.9829 0)
(0.00905414 2.90467 0)
(0.0207441 2.93169 2.23276e-24)
(0.00415056 2.82422 0)
(0.0254292 2.91902 0)
(-0.000556684 2.74441 0)
(0.306844 3.57892 0)
(-0.122382 3.66185 0)
(0.150147 3.27349 -7.68414e-19)
(0.00407844 3.00976 0)
(-0.0297457 1.98989 0)
(-0.00710961 2.17412 -1.9358e-20)
(-0.0100035 1.93283 1.8103e-20)
(0.363629 0.144027 -3.41763e-19)
(0.313791 0.00396111 -3.32186e-19)
(0.319855 0.163627 -1.02264e-18)
(0.257046 0.0414984 -6.6589e-19)
(0.262051 1.01924 0)
(0.329093 1.23178 -3.65623e-19)
(0.411563 1.14544 6.03176e-19)
(0.987766 0.00814316 0)
(0.943297 0.00579284 0)
(1.00028 0.000671692 0)
(1.00254 0.00906665 0)
(1.00311 0.0089815 -2.63209e-18)
(0.992136 0.00943114 1.98894e-18)
(-0.0155916 0.752821 0)
(0.00318623 0.43288 0)
(-0.05026 1.02192 0)
(-0.0244141 0.803365 0)
(-0.0121928 0.417758 0)
(0.00241995 0.129811 2.09495e-19)
(0.0763216 0.0934939 0)
(0.993622 -0.00769433 0)
(0.95404 -0.00648085 0)
(0.745229 0.0327447 0)
(0.671761 0.0341007 0)
(0.661225 0.0118283 0)
(0.978072 -0.00312588 0)
(0.604063 0.0810707 0)
(0.448389 -0.026095 1.48146e-18)
(-0.0410989 2.86008 7.50534e-19)
(0.0336543 2.91402 0)
(0.0423909 2.89261 0)
(0.0032745 2.70201 0)
(-0.00865096 2.98667 9.10985e-19)
(-0.0140449 2.89464 0)
(-0.0109327 2.99173 -2.80599e-18)
(-0.0116808 2.92967 9.55027e-19)
(-0.042152 1.3422 0)
(-0.0137585 1.3703 0)
(-0.00730082 2.13618 7.46333e-22)
(-0.00701218 2.09543 0)
(-0.0170889 1.9042 0)
(0.938793 -0.00524176 0)
(0.85712 -0.011108 0)
(0.8635 0.00503729 0)
(0.949599 -0.00617027 0)
(0.8836 -0.00807746 0)
(0.499982 1.1167 -2.0941e-19)
(0.54726 1.18672 0)
(0.338113 0.85089 3.20161e-20)
(0.282355 0.715385 0)
(0.912745 1.03064 -1.57674e-19)
(1.03407 0.841003 3.15691e-19)
(0.38906 1.31197 0)
(0.539582 1.26807 0)
(0.59271 1.19551 0)
(0.102041 0.181384 -2.98246e-19)
(0.210221 0.154051 0)
(0.187158 0.0776518 1.86038e-19)
(0.997452 0.895068 0)
(1.0726 0.743216 0)
(1.10196 0.678622 -2.51045e-19)
(1.13921 0.589796 0)
(1.19486 0.390098 4.6466e-20)
(0.957451 -0.0071134 0)
(0.962697 -0.00811813 0)
(0.900866 -0.00736888 0)
(0.983922 -0.00812655 0)
(0.974412 -0.00803848 0)
(0.936528 -0.00656544 0)
(1.0002 0.00250308 0)
(1.00077 0.00123961 0)
(1 0.000763594 0)
(0.0446327 2.08804 4.09224e-19)
(0.14587 1.78563 0)
(0.0191545 2.20367 6.1966e-19)
(0.0523956 1.89161 -5.18254e-19)
(0.164534 1.0787 -2.91942e-19)
(0.0476164 0.937824 0)
(0.118645 0.933992 0)
(0.00299772 0.788412 0)
(0.0257386 0.543896 0)
(-0.00342334 2.25656 -4.75801e-22)
(0.0176941 2.03144 0)
(-0.00482125 2.25737 -1.21944e-20)
(0.00254222 2.03694 1.17947e-20)
(-0.00372756 0.762004 0)
(-0.00367168 0.743845 0)
(0.0125662 0.496244 0)
(-0.00964285 0.743689 0)
(0.000548323 0.428735 0)
(0.93905 0.0136755 0)
(0.855627 -0.0117344 0)
(0.928349 0.00474801 0)
(0.845861 -0.0128114 0)
(0.812149 -0.00298466 0)
(0.897357 0.0237569 0)
(0.870791 0.0296115 0)
(0.788637 -0.00663531 0)
(0.0104294 3.06743 -8.98477e-21)
(0.0148275 3.05928 0)
(0.0124171 2.97029 0)
(0.00762215 2.87661 0)
(0.896972 3.97395 0)
(1.19144 3.3696 9.39411e-19)
(0.0815764 3.09187 0)
(-0.0168465 2.91885 0)
(-0.0149651 1.39593 0)
(-0.0357833 1.69603 0)
(-0.0238286 1.52993 0)
(-0.0325548 2.55558 -1.38047e-20)
(-0.0177773 2.24828 0)
(-0.0217933 2.39372 0)
(-0.00102929 1.96127 5.39675e-22)
(-0.00503367 2.25068 -2.28091e-20)
(-0.00604988 2.21186 -1.85937e-20)
(-0.00625777 1.94669 0)
(0.402175 0.119425 5.2435e-19)
(0.345355 -0.00357674 -5.14409e-19)
(0.236035 1.58937 0)
(0.286933 0.757012 -3.22487e-19)
(0.181867 1.68946 -1.06529e-18)
(0.246809 1.21954 1.06659e-18)
(0.901743 0.00595155 0)
(0.967098 0.0106266 0)
(0.974946 0.00983053 0)
(0.923044 0.00589427 0)
(-0.0101876 0.744733 0)
(-0.0214795 0.746738 0)
(0.00331952 0.429499 0)
(0.139244 0.1266 5.91397e-19)
(0.113308 0.114655 -7.00073e-19)
(0.10421 0.0789233 0)
(1.10445 0.0895286 2.40976e-20)
(1.08816 0.0419307 0)
(1.01718 0.0433564 0)
(0.912527 -0.00188401 0)
(0.444511 0.093992 0)
(0.507276 0.0710466 -2.37371e-18)
(0.388637 -0.00767452 8.92772e-19)
(0.0107415 2.97702 7.93612e-19)
(-0.0330056 2.86137 4.56039e-20)
(0.00841309 3.05297 -1.89645e-20)
(0.0158996 3.04339 7.10442e-19)
(-0.0118438 2.99996 3.14191e-20)
(-0.0122971 2.95231 -1.26812e-22)
(-0.0150723 3.01323 -5.86895e-19)
(0.0144839 3.02646 4.13163e-19)
(0.00762492 3.0349 -6.70815e-19)
(0.934543 0.00204258 0)
(0.939395 -0.00118171 0)
(0.847909 -0.0111558 0)
(0.956398 0.0117247 0)
(0.942502 0.0132042 0)
(0.881743 0.00550611 0)
(0.915624 0.018655 0)
(0.925313 0.0152086 0)
(0.838161 0.00108475 0)
(0.672848 1.41559 1.76473e-20)
(0.690912 1.52621 0)
(0.118794 0.295458 6.7998e-20)
(0.211788 0.652752 5.3708e-19)
(0.23993 0.693318 -3.14891e-19)
(0.216467 0.500895 6.24661e-19)
(0.337744 0.828919 1.57805e-18)
(0.132987 0.235802 3.78658e-19)
(0.282171 0.170578 7.06754e-19)
(0.240414 0.168095 1.82335e-19)
(0.223347 0.0625921 3.48036e-19)
(1.18712 0.443531 8.95382e-20)
(1.21329 0.244558 8.7573e-20)
(0.0087532 2.24702 2.4095e-19)
(0.0387775 1.95421 0)
(0.971937 0.0328153 0)
(0.946143 0.0190601 0)
(0.87018 -0.0154015 0)
(0.012242 3.07416 0)
(0.016713 2.94394 1.25646e-18)
(0.0139213 2.9567 0)
(0.00586731 2.85012 -1.24682e-18)
(0.00975038 3.08969 3.06871e-19)
(0.0114633 3.08395 0)
(0.711082 1.82273 -1.71833e-19)
(1.23589 2.62798 5.80915e-19)
(0.695826 2.00088 -1.40007e-18)
(0.0222799 2.97581 -6.9208e-19)
(0.0407093 2.99842 0)
(-0.0383214 2.87871 0)
(-0.00608595 2.23579 -1.26507e-20)
(-0.00475378 2.25626 4.28105e-20)
(-0.000553902 1.99735 -7.15263e-21)
(0.267219 1.39944 1.02811e-18)
(0.282183 0.562497 -7.05877e-19)
(0.0710194 2.0064 7.4664e-19)
(0.124555 1.87868 -8.96195e-19)
(0.206353 1.53765 1.0058e-19)
(0.00465379 3.12004 -1.91483e-18)
(0.0177255 3.1196 2.06939e-18)
(-0.0049973 2.98074 8.51495e-19)
(-0.000581025 2.97507 -8.17461e-19)
(-0.0177292 2.87799 -8.67271e-19)
(0.0123601 3.1002 -2.28164e-18)
(0.00529046 3.10651 2.24594e-18)
(0.264106 0.696667 0)
(0.216318 0.658864 -1.14554e-18)
(0.072738 0.213461 5.04013e-19)
(0.345056 0.947628 1.12082e-18)
(0.197505 0.279302 -1.72615e-18)
(1.1938 0.174745 4.8821e-20)
(1.21006 0.303265 0)
(1.18925 0.120345 7.69635e-21)
(-0.00125384 2.26493 -1.24182e-21)
(0.00317971 2.25081 0)
(0.029705 1.99004 0)
(0.314081 1.31792 -3.68683e-19)
(0.35338 1.17362 -7.98905e-19)
(0.229669 0.389552 1.42895e-18)
(1.00644 -0.00969021 0)
(1.00774 -0.00778946 4.83816e-19)
(-0.0368248 1.3247 0)
(-0.0434511 1.32911 0)
(1.00244 0.00327899 1.34934e-21)
(1.00321 0.00782182 9.93203e-19)
(-0.0234895 2.54186 1.74899e-20)
(-0.0269251 2.5847 0)
(0.0413016 3.17282 4.9339e-19)
(0.375139 3.54367 0)
(1.15412 0.690157 -5.23304e-20)
(1.01183 0.0106841 -2.82599e-21)
(1.02083 -0.00904448 0)
(1.00158 0.000270986 1.54654e-22)
(0.107201 1.37199 0)
(0.134714 2.59011 0)
(0.0245236 1.31948 0)
(-0.00204384 2.63777 2.81316e-21)
(-0.0222695 2.58675 -5.97083e-21)
(0.99595 0.0297819 2.05394e-21)
(1.06283 0.00573554 0)
(1.09967 0.0282857 0)
(-0.0337629 1.74207 0)
(-0.0200257 2.58642 0)
(-0.0110712 1.31389 0)
(0.30937 1.48368 -1.7457e-19)
(1.01151 -0.00906539 0)
(1.00971 -0.0129929 0)
(1.00228 0.000939986 6.19854e-19)
(1.00548 -0.00491767 -7.30401e-19)
(1.00113 -0.00086447 0)
(-0.0205949 1.46177 0)
(-0.0097085 1.38227 0)
(-0.0159031 1.42317 0)
(-0.0132183 1.30158 0)
(-0.0250556 1.2923 0)
(-0.0193062 1.27081 0)
(1.0356 -0.00435374 0)
(1.01892 0.0150272 -8.72527e-22)
(0.809844 1.30783 2.77815e-19)
(1.00241 0.00037637 -6.19084e-19)
(1.00339 0.00446083 7.39092e-19)
(1.00127 0.00210017 0)
(1.01115 0.00964302 6.16704e-19)
(1.00688 0.00747249 -7.5067e-19)
(1.00718 0.0111382 0)
(-0.0246513 2.61394 0)
(-0.0273055 2.59285 -2.96569e-20)
(-0.0245004 2.60706 2.10138e-20)
(1.24029 0.271624 5.25205e-19)
(1.16278 0.0885673 0)
(0.044897 3.09106 -9.79179e-19)
(0.0516114 2.87334 -6.93499e-20)
(0.103926 3.20182 1.30886e-18)
(0.122459 3.21386 -2.81377e-19)
(0.142753 3.25834 0)
(0.0230453 3.13773 2.69377e-19)
(0.0616208 3.16214 9.75432e-19)
(0.0621327 3.1789 -5.03763e-19)
(0.0270915 3.12953 0)
(0.591224 0.28688 0)
(0.532891 0.309754 0)
(1.13501 0.72128 1.19263e-19)
(1.10093 0.857373 -1.0457e-19)
(1.19356 0.606834 0)
(1.22089 0.541873 0)
(1.01574 0.0120302 -1.14564e-18)
(1.01471 0.0127777 1.4404e-18)
(1.02569 -0.00875091 0)
(1.02402 -0.0103165 0)
(1.00673 0.00312264 0)
(1.01091 0.00420782 0)
(1.00428 0.00220405 0)
(1.00942 0.00638037 0)
(1.00689 0.00505232 0)
(1.00443 0.00528145 0)
(0.0970448 1.37052 0)
(0.0831213 1.33186 0)
(0.132004 1.41489 0)
(0.140991 1.3995 0)
(0.143173 2.61672 0)
(0.185728 2.68779 -4.15846e-19)
(0.106747 2.67518 0)
(0.0823903 2.67546 1.66078e-19)
(0.0280113 2.68105 -1.5892e-19)
(0.0139887 1.32064 0)
(0.0207423 1.25429 0)
(0.0173848 1.33694 0)
(0.0348227 1.27482 0)
(-0.000886389 1.99407 2.86584e-20)
(-0.0219896 2.61486 -3.23947e-20)
(-0.00854987 2.68037 -2.07697e-20)
(-0.0200018 2.69294 0)
(-0.0242594 2.62135 2.12948e-20)
(-0.0230267 2.61675 3.34231e-20)
(0.00654072 1.9914 -2.15119e-20)
(-0.00984616 2.40675 4.34647e-20)
(-0.0148504 2.42956 2.3544e-20)
(1.01032 0.0398035 1.1659e-18)
(1.00388 0.0179472 -1.44795e-18)
(1.00396 0.0445695 -1.18804e-18)
(0.974583 0.0377191 1.49392e-18)
(1.06447 0.00902983 0)
(1.04976 -0.00651254 0)
(1.09228 0.0371832 0)
(1.07552 0.0147459 0)
(1.07426 0.000558589 0)
(1.14088 0.0786853 0)
(1.11511 0.0456361 0)
(1.11807 0.0373174 0)
(-0.0296556 2.43641 3.12876e-21)
(-0.0208214 2.02173 0)
(-0.0205396 2.22194 0)
(-0.0220098 2.60736 -1.75969e-20)
(-0.0188672 2.6182 5.40583e-22)
(-0.0010191 1.58059 -5.20935e-20)
(-0.00976008 1.50435 5.31776e-20)
(-0.0189235 1.39462 0)
(-0.0231943 1.40066 0)
(-0.0304318 1.39284 0)
(-0.00770338 1.31523 0)
(0.00105589 1.24444 0)
(0.386067 1.50883 2.91388e-19)
(0.43359 1.51293 1.53334e-19)
(0.588262 2.47094 -2.49101e-19)
(0.375471 2.56747 6.48283e-19)
(0.352663 2.05914 6.7452e-20)
(1.02067 -0.00802788 0)
(1.01578 -0.00937455 0)
(1.01484 -0.0132304 0)
(1.00769 -0.000584222 0)
(1.00487 -0.000668166 0)
(1.00799 -0.00449573 0)
(1.00954 -0.00346317 0)
(1.01464 -0.00431819 0)
(1.01967 0.0161399 1.12441e-18)
(1.0173 0.0147251 -1.42192e-18)
(1.01999 0.0184137 -1.13422e-18)
(1.01761 0.0170545 1.41289e-18)
(0.766357 1.35514 0)
(0.706558 1.3893 2.44201e-19)
(0.871504 1.23603 9.87986e-20)
(0.910264 1.19479 -1.31125e-19)
(1.16527 2.61506 2.72266e-19)
(0.755434 0.128695 5.80909e-19)
(1.17088 0.106549 0)
(1.21281 0.199877 -4.25976e-19)
(1.19376 0.153777 -1.77144e-20)
(1.01341 0.164809 0)
(0.0791638 3.01947 3.48418e-19)
(0.0840335 2.90325 -1.15542e-18)
(0.027965 2.35972 7.32048e-19)
(0.139374 -0.211396 -3.4137e-19)
(0.343181 3.44731 -2.49862e-19)
(0.193797 3.34126 0)
(0.224357 3.39849 3.25475e-19)
(0.223728 3.07765 -1.21405e-18)
(0.256606 3.19664 0)
(0.00623028 3.12274 5.0652e-20)
(0.0163236 3.1315 -5.84916e-19)
(0.0153873 3.12721 8.60883e-19)
(0.0331496 3.14033 0)
(0.0314051 3.14965 0)
(1.25934 2.57974 0)
(0.529284 0.79486 -5.24758e-19)
(1.0222 1.03033 -9.83726e-21)
(0.98602 1.084 0)
(0.855586 0.968279 -1.06645e-19)
(1.07814 0.905292 2.68329e-20)
(0.353206 0.32633 -8.40589e-19)
(0.667894 0.318256 -2.19226e-20)
(0.573937 0.221982 3.93404e-19)
(0.562008 0.328526 2.90235e-20)
(0.45419 0.288552 -1.16431e-18)
(0.626212 0.316976 0)
(0.696401 0.419757 6.62845e-19)
(0.699868 0.426583 0)
(0.599045 0.329139 0)
(0.525257 0.2545 0)
(0.791582 0.650596 3.95068e-19)
(1.25057 0.304198 -4.28094e-19)
(1.24248 0.435801 0)
(1.24345 0.392322 0)
(0.703371 0.185976 5.96843e-19)
(0.840386 0.549907 -3.73351e-19)
(0.762249 0.511704 6.66073e-19)
(0.962414 0.446762 -6.73007e-19)
(1.01848 0.0146214 7.62087e-19)
(1.01713 0.0136186 -7.69807e-19)
(1.01601 0.014173 0)
(1.03698 -0.00456746 0)
(1.03039 -0.00772003 -7.21974e-19)
(1.02859 -0.0105971 7.14481e-19)
(1.02474 0.0108618 0)
(1.02271 0.014952 0)
(1.0127 0.00465765 0)
(1.01456 0.00910856 0)
(1.01632 0.00418246 0)
(1.01553 0.00289776 0)
(0.0650177 1.35565 0)
(0.0650817 1.30575 0)
(0.149187 1.41223 5.27016e-20)
(0.276599 1.47988 8.5993e-20)
(0.170971 1.45209 1.9399e-19)
(0.212011 1.4501 -3.13447e-19)
(0.161083 1.42437 0)
(0.145802 1.59189 -7.23276e-20)
(0.146186 1.58333 0)
(0.353896 2.01111 -9.81956e-20)
(0.328679 2.34666 6.20952e-19)
(0.203895 1.46614 6.30199e-20)
(0.274722 1.39579 2.55469e-20)
(0.208099 1.39151 -2.08172e-20)
(0.288781 1.33528 -8.30577e-20)
(0.253101 1.57918 0)
(0.273346 1.62446 9.33845e-20)
(0.0261134 2.26164 -1.61422e-20)
(0.0371325 2.67468 0)
(0.0641918 2.41002 9.57108e-20)
(0.0592688 2.43272 0)
(0.0685215 2.69286 -1.84388e-19)
(0.042218 2.70863 0)
(0.0237672 1.43755 5.32898e-20)
(0.0326027 1.49599 0)
(0.0281476 1.40341 0)
(0.0196481 1.40801 -6.08912e-20)
(0.000676302 2.66503 -2.05715e-21)
(0.0251936 2.69832 1.81079e-19)
(0.00838069 2.73602 9.89916e-22)
(0.000815537 1.84079 -1.78164e-20)
(-0.00448437 1.69201 -1.31913e-20)
(0.0124707 1.30499 0)
(0.0176985 1.23346 0)
(0.0389728 1.58696 -2.23707e-20)
(0.0350758 1.46366 -5.27368e-20)
(0.0284338 1.53761 5.93019e-20)
(0.0459294 1.61225 0)
(-0.0311726 2.27434 1.14371e-19)
(-0.0342337 2.55531 -4.86593e-20)
(-0.0203339 2.45474 7.84532e-21)
(-0.00547652 1.85867 2.16051e-20)
(-0.0281301 2.50954 9.95281e-21)
(-0.0235368 2.45016 -2.0796e-20)
(1.01777 0.0216934 -7.66318e-19)
(1.01387 0.0281538 7.74183e-19)
(1.01234 0.0162692 0)
(1.01227 0.0696033 1.05649e-18)
(0.991274 0.056886 -1.21295e-18)
(0.951116 0.0544334 1.35881e-18)
(1.01273 0.116635 -1.44325e-19)
(1.04388 -0.0047198 0)
(1.05206 -0.000506232 6.91654e-19)
(1.0402 -0.00820209 -6.91264e-19)
(1.07213 0.0433403 -4.10068e-20)
(1.06479 0.0285264 3.54114e-19)
(1.0642 0.0650742 0)
(1.05429 0.0541241 -1.27552e-19)
(1.03263 0.0447168 0)
(1.02509 0.0402729 0)
(1.0276 0.0136362 0)
(1.02395 0.0160947 0)
(1.0406 0.033434 2.62124e-19)
(1.03963 0.0290325 -5.80428e-19)
(1.05306 0.0384085 -2.77443e-19)
(1.04819 0.0383616 -3.06092e-19)
(1.07762 0.0696582 5.85675e-19)
(1.1015 0.0556431 0)
(1.10834 0.0943148 0)
(-0.0291008 2.28106 6.84625e-20)
(-0.030173 2.02832 3.23582e-21)
(-0.0256603 2.03787 0)
(-0.030545 2.44987 -6.81711e-20)
(-0.0274801 2.40754 -6.2343e-21)
(-0.0346399 2.47719 8.63399e-21)
(-0.0221883 2.62905 -2.83845e-20)
(-0.026825 2.57139 1.4694e-21)
(-0.0251563 2.52467 -9.70274e-21)
(-0.0178825 2.62207 1.94961e-20)
(-0.0220016 2.6243 -2.23599e-20)
(-0.00946157 1.49722 -2.65393e-22)
(-0.00449764 1.62866 -5.07785e-20)
(0.376992 1.44698 -1.25468e-19)
(0.372173 1.38017 1.27162e-20)
(0.648185 1.43716 -2.36331e-19)
(0.525146 1.50655 -1.49459e-19)
(0.579369 1.46521 0)
(0.608245 2.42425 2.26397e-19)
(0.667747 2.43453 3.38504e-19)
(0.421525 2.51731 8.80082e-20)
(0.401104 2.54652 -6.18162e-19)
(0.503863 2.48638 5.74368e-19)
(0.550223 2.48098 0)
(0.490567 2.52765 -5.55395e-19)
(0.257539 2.60202 1.1369e-18)
(0.35784 2.56993 -6.52565e-20)
(0.282741 2.65891 -1.57347e-18)
(0.970165 2.39259 7.15484e-19)
(0.848651 2.39389 0)
(1.01146 0.00137451 2.51308e-20)
(1.01536 -0.00521053 -2.05243e-20)
(1.01773 -0.0039795 -3.75217e-19)
(1.01558 -0.00107123 3.73835e-19)
(1.01311 0.00182017 0)
(0.636188 1.30205 0)
(0.676585 1.18696 0)
(0.79056 1.11672 0)
(0.664184 1.14496 0)
(1.19624 2.63051 5.15286e-20)
(1.08902 2.38206 0)
(0.81951 2.17497 3.52465e-21)
(0.822579 2.43706 0)
(0.916997 2.52677 -4.32345e-19)
(0.948492 2.47634 2.88669e-19)
(0.785322 0.159991 0)
(0.735144 0.143034 1.58089e-19)
(0.914168 0.161946 9.18689e-19)
(0.823414 0.14299 -3.44684e-19)
(0.769611 0.0905565 -1.06171e-18)
(1.08769 0.243448 -8.42065e-19)
(0.987261 0.312094 -9.70569e-21)
(0.931873 0.348463 8.1415e-19)
(1.01585 0.256664 6.92803e-19)
(0.935047 0.203663 -1.21523e-18)
(0.893122 0.216971 1.52198e-19)
(0.934385 0.313144 -3.18375e-19)
(0.909613 0.21994 0)
(1.00171 0.206462 5.94281e-19)
(1.05668 0.215044 0)
(1.05229 0.22649 0)
(1.12501 0.123702 2.68068e-19)
(1.06561 0.192537 -1.08562e-20)
(1.07981 0.245235 -1.53183e-19)
(1.11411 0.209633 0)
(1.0242 0.0485007 5.93653e-19)
(1.03786 0.0629047 7.3892e-19)
(1.0331 0.0468891 -5.88867e-19)
(1.04239 0.0689363 -4.95145e-19)
(1.01557 0.0747025 -7.48914e-19)
(0.98552 0.168595 0)
(0.98905 0.108848 0)
(0.962126 0.072843 -4.83912e-19)
(0.900493 0.0986501 1.94235e-19)
(1.03946 0.116278 6.862e-19)
(1.07567 0.135617 -7.85102e-19)
(1.07016 0.179442 7.0568e-19)
(1.03537 0.156814 0)
(1.08589 0.121362 0)
(1.05748 0.111704 -3.21536e-19)
(1.04291 0.106873 -5.57451e-19)
(0.587411 1.08932 1.16023e-19)
(0.615476 1.40999 -1.97704e-20)
(1.14555 2.722 -2.43533e-19)
(1.19834 3.10576 2.04951e-21)
(1.25427 2.73139 -1.21771e-19)
(1.29444 2.70251 1.75831e-20)
(1.27015 2.32591 -3.78538e-20)
(1.18605 3.01134 -7.13212e-20)
(1.20539 2.96824 2.19704e-19)
(1.18032 3.25942 -1.23532e-19)
(1.39843 2.97445 1.53935e-19)
(1.41007 2.91117 0)
(0.568039 0.821327 -4.74934e-20)
(0.21553 1.21479 4.76264e-19)
(0.510704 0.3735 5.40482e-19)
(0.394498 0.135497 6.15022e-19)
(0.495077 0.315961 6.58518e-19)
(0.544238 0.427573 -1.06753e-18)
(0.549772 0.416254 8.78712e-19)
(0.478467 0.326663 -3.31559e-19)
(0.36818 0.265008 7.51675e-19)
(0.731464 0.253057 -3.4383e-19)
(0.687262 0.282809 0)
(0.629808 0.198113 7.96759e-21)
(0.737257 0.505846 3.61362e-19)
(0.704955 0.476386 -1.31183e-18)
(0.633221 0.437845 1.74447e-20)
(0.627215 0.41663 0)
(0.71242 0.715517 3.74253e-19)
(0.828201 0.796192 4.13252e-19)
(0.766039 0.846288 -4.81565e-19)
(0.897272 0.818641 -1.53538e-19)
(0.933217 0.861624 -3.59243e-20)
(0.940799 0.869264 3.68451e-20)
(0.877211 0.67343 -6.7238e-19)
(0.949871 0.721462 1.42748e-19)
(1.00379 0.725877 0)
(1.00272 0.701935 -1.83153e-19)
(1.0314 0.336949 2.1175e-19)
(1.15799 0.335736 2.56996e-19)
(1.07381 0.280974 3.44394e-19)
(0.998536 0.382127 -4.21933e-19)
(1.05309 0.483264 0)
(1.1354 0.424824 0)
(0.897622 0.418702 1.42177e-21)
(0.849801 0.31422 0)
(0.894342 0.303675 3.88316e-19)
(0.916768 0.345444 5.08378e-21)
(0.981942 0.490966 1.8812e-18)
(0.914442 0.549455 4.85511e-19)
(0.936621 0.506108 -5.13198e-19)
(0.855186 0.483275 5.46981e-19)
(0.823713 0.456495 3.47685e-19)
(0.803921 0.430252 -3.40702e-19)
(1.02812 -0.000376496 6.20013e-19)
(1.0204 0.000509555 0)
(1.01904 0.0013362 4.04567e-19)
(1.02259 -0.000797048 -9.15859e-19)
(1.02253 0.00451445 4.46199e-19)
(1.02004 0.0115575 -9.33783e-19)
(1.02078 0.0113405 0)
(1.01971 0.0120784 -1.94469e-19)
(1.01653 0.00775488 4.87374e-19)
(1.01668 0.0108667 -2.44614e-19)
(1.01729 0.0105515 1.78995e-19)
(0.0269325 1.32854 0)
(0.0338199 1.37893 0)
(0.0429926 1.33341 0)
(0.0472346 1.28038 0)
(0.0787823 1.39918 -8.4357e-20)
(0.082766 1.37206 2.47995e-20)
(0.0895641 1.56403 5.60892e-21)
(0.0973251 1.40046 -3.59037e-20)
(0.0385407 1.47417 4.59607e-20)
(0.0430151 1.4697 -3.60328e-20)
(0.0670333 1.38917 -1.82422e-20)
(0.0567133 1.39118 7.59996e-20)
(0.0504215 1.36733 1.18763e-20)
(0.0394132 1.38731 7.57449e-21)
(0.101037 2.37871 -1.04854e-19)
(0.0908702 2.42231 0)
(0.141792 2.01759 8.84501e-20)
(0.128951 1.70229 3.04545e-20)
(0.217617 2.01955 -7.91394e-20)
(0.222217 2.42519 0)
(0.252047 2.38612 -5.90115e-19)
(0.292509 2.38206 4.30231e-19)
(0.252778 1.99293 -1.89913e-19)
(0.14343 2.16022 1.36204e-19)
(0.110391 2.26377 0)
(0.0169434 1.8627 -1.07471e-20)
(-0.00405723 2.38691 -1.34793e-20)
(0.00333431 2.14206 0)
(0.00678068 2.44884 -1.65102e-20)
(0.0266945 2.28791 1.69324e-20)
(0.0105018 1.41586 -1.02281e-20)
(0.00977572 1.39969 1.73134e-19)
(0.00851131 1.40668 -5.50604e-20)
(0.0175133 1.41013 -5.02271e-20)
(0.0219508 1.44085 0)
(0.00685462 1.38995 0)
(-0.00148265 1.30149 -6.61935e-20)
(0.00230022 1.37538 1.87728e-20)
(0.0070603 1.37755 0)
(0.0062307 1.29679 -5.13326e-20)
(0.0128034 1.22323 1.02314e-19)
(1.04236 0.0149083 0)
(1.04887 0.0103837 -6.46726e-20)
(1.03907 0.0240994 -4.67806e-19)
(1.04942 0.0230968 0)
(1.05458 0.0224092 0)
(1.03627 0.0129155 -6.77161e-21)
(1.03011 0.0133033 7.53607e-19)
(1.03193 0.017333 9.13497e-19)
(1.02556 0.0210641 0)
(1.02189 0.0215469 0)
(1.03552 0.0258591 4.66658e-19)
(1.02564 0.0280664 0)
(1.02315 0.0283793 0)
(-0.0215261 2.02934 0)
(-0.00870976 1.65606 -2.23283e-21)
(-0.0102865 1.76324 -3.21252e-20)
(-0.00302804 1.38573 0)
(-0.00888662 1.55633 -2.70591e-20)
(-0.0137226 1.46435 1.75604e-20)
(-0.00649541 1.39802 0)
(0.405987 1.63464 0)
(0.366998 1.3187 -2.05811e-20)
(0.278635 1.34887 0)
(0.437522 1.31733 -4.60476e-20)
(0.4725 1.47241 0)
(0.458297 1.41549 4.40434e-20)
(1.04069 2.67464 -1.52075e-20)
(0.984792 2.41177 -8.98932e-19)
(0.947193 2.21101 1.0106e-18)
(0.865294 2.38601 2.42073e-19)
(0.853312 2.49177 0)
(0.922015 2.48699 0)
(0.953961 2.38585 0)
(0.930001 2.37635 -9.35891e-19)
(0.692927 2.45721 -3.78324e-19)
(0.801383 2.44091 -9.73333e-20)
(0.808694 2.41902 7.33568e-20)
(0.704562 2.40627 0)
(0.809508 2.4001 0)
(0.770429 2.41642 -3.66597e-19)
(0.766418 2.47075 0)
(0.625806 1.06759 0)
(0.514781 0.865995 -5.4908e-19)
(0.520064 0.936788 -3.17784e-20)
(0.501468 1.07526 0)
(0.488076 0.984285 8.41025e-19)
(0.795509 0.885414 -1.32366e-19)
(0.801555 1.02022 0)
(0.782105 1.0027 1.82099e-19)
(0.670053 1.02069 0)
(0.661873 0.92668 0)
(1.164 2.75796 -2.17632e-19)
(1.139 2.81626 -8.80883e-20)
(0.924075 2.34007 7.21261e-20)
(0.900875 2.32083 -7.51586e-20)
(1.13364 2.73572 0)
(1.08563 2.70358 9.02952e-20)
(1.10182 2.4987 -2.95863e-19)
(1.0034 2.2576 -2.84666e-20)
(0.499165 1.33604 0)
(0.518211 1.08097 -1.02217e-19)
(0.593808 1.18199 0)
(0.847557 0.225829 0)
(0.761166 0.17477 0)
(0.678531 0.140351 0)
(0.859533 0.227879 -6.12123e-19)
(0.753253 0.222111 3.59018e-19)
(0.917797 0.0857819 -4.01025e-19)
(0.927066 0.135832 0)
(0.90708 0.151376 1.7293e-19)
(0.838459 0.111209 6.92854e-19)
(0.794417 0.0727322 -4.34706e-19)
(1.09823 3.35143 -6.76848e-19)
(1.1654 3.27455 0)
(1.11666 3.43642 -1.57572e-18)
(0.657683 3.58214 1.31239e-18)
(1.02738 3.07898 1.2298e-19)
(0.529885 0.790866 5.64337e-19)
(0.511535 0.759325 0)
(0.35752 0.393396 -1.44709e-19)
(0.477946 0.636447 8.54103e-19)
(0.53893 0.373068 -1.92738e-19)
(0.512901 0.463812 2.26506e-19)
(0.687314 0.529436 4.67095e-19)
(0.732571 0.561682 0)
(0.656736 0.571471 0)
(0.636399 0.534318 0)
(1.01158 0.608953 9.08977e-20)
(0.965465 0.589676 -4.70103e-19)
(0.975929 0.602945 3.59584e-19)
(1.04086 0.544964 -3.47285e-19)
(1.08629 0.514472 0)
(1.08818 0.597804 -9.15461e-20)
(0.88355 0.412426 -7.72022e-19)
(0.872107 0.401129 -9.93439e-19)
(0.805577 0.397048 6.09236e-19)
(0.817425 0.36282 -6.31101e-19)
(0.856002 0.323965 -4.95891e-19)
(0.80604 0.326697 6.07675e-19)
(1.02657 0.00661109 -4.66939e-19)
(1.02619 0.00673478 9.40751e-19)
(1.02991 0.000881144 6.00811e-19)
(1.03412 0.00153283 -7.21427e-19)
(1.0339 0.0117768 0)
(1.02973 0.0119159 -1.17974e-18)
(0.0804421 1.64486 1.1882e-20)
(0.060462 1.59492 0)
(0.10115 1.69952 5.26515e-20)
(0.11051 1.6778 -4.4729e-20)
(0.0836052 1.56232 -1.02455e-20)
(0.073918 1.56186 0)
(0.00500526 1.69292 0)
(-0.00672817 1.50344 1.43818e-20)
(-0.00635883 1.44369 -1.29145e-20)
(-0.011474 1.55307 3.19709e-21)
(-0.00384839 1.8907 2.08323e-20)
(-0.0153162 1.94515 -8.05307e-21)
(0.495019 1.36679 -2.56154e-19)
(0.497467 1.36276 2.80011e-19)
(0.449764 1.30874 -7.70678e-21)
(0.430152 1.29638 7.45617e-21)
(0.625827 1.30999 0)
(0.555877 1.40322 1.18991e-19)
(0.556439 1.40535 -1.15886e-19)
(0.486319 1.29394 7.4172e-21)
(0.524512 1.25034 0)
(0.588703 1.21531 0)
(0.666928 2.42078 5.5696e-19)
(0.662239 2.44893 1.27314e-18)
(0.717278 2.46501 -8.75393e-19)
(0.615423 2.43735 -2.07652e-19)
(0.55803 2.53214 2.76335e-19)
(0.497581 2.49833 -7.16263e-19)
(0.993068 2.39047 -5.69207e-19)
(1.02556 2.40828 0)
(0.951831 2.19508 -6.22832e-19)
(1.05641 2.6846 0)
(1.05537 2.66588 0)
(0.605732 2.29519 1.70629e-20)
(1.12031 3.07168 8.44107e-20)
(0.999231 2.97057 -1.34981e-19)
(0.325645 0.812732 0)
(0.328471 0.699147 -3.01448e-19)
(0.530868 0.63168 -3.04296e-19)
(0.369505 2.13888 0)
(0.40541 2.74547 -8.65447e-20)
(0.415525 2.48123 0)
(0.720237 0.680689 -7.98227e-19)
(0.784807 0.684668 1.11336e-18)
(0.792948 0.654577 -1.05529e-18)
(0.69434 0.640995 -1.0137e-19)
(0.755385 0.599887 -4.16893e-19)
(0.973142 2.75639 -6.39336e-20)
(1.01474 2.7619 -2.03126e-19)
(0.557305 2.21556 4.20921e-19)
(0.607704 1.73953 -3.35844e-19)
(0.706572 1.85808 -4.87801e-19)
(0.978902 2.39692 -1.37025e-19)
(0.978322 2.35085 3.58261e-19)
(0.650654 1.7721 3.28166e-20)
(0.456611 1.30199 1.71791e-19)
)
;

boundaryField
{
    wall-4
    {
        type            noSlip;
    }
    velocity-inlet-5
    {
        type            fixedValue;
        value           uniform (1 0 0);
    }
    velocity-inlet-6
    {
        type            fixedValue;
        value           uniform (0 3 0);
    }
    pressure-outlet-7
    {
        type            zeroGradient;
    }
    wall-8
    {
        type            noSlip;
    }
    frontAndBackPlanes
    {
        type            empty;
    }
}


// ************************************************************************* //
