/*--------------------------------*- C++ -*----------------------------------*\
  =========                 |
  \\      /  F ield         | OpenFOAM: The Open Source CFD Toolbox
   \\    /   O peration     | Website:  https://openfoam.org
    \\  /    A nd           | Version:  6
     \\/     M anipulation  |
\*---------------------------------------------------------------------------*/
FoamFile
{
    version     2.0;
    format      ascii;
    class       volScalarField;
    location    "90";
    object      p;
}
// * * * * * * * * * * * * * * * * * * * * * * * * * * * * * * * * * * * * * //

dimensions      [0 2 -2 0 0 0 0];

internalField   nonuniform List<scalar> 
918
(
0.541502
1.22774
0.00695953
0.541413
-0.011705
1.19455
-0.500137
0.635353
0.522656
-0.122168
-0.0865274
0.52481
1.05235
0.819498
-1.16204
-0.025612
0.63647
-0.416385
0.520725
-0.0923537
0.648756
0.529329
0.531793
0.522578
0.58451
0.771952
0.930068
-0.0033866
0.0117591
0.00653596
-0.0130995
-0.0337108
-0.0311256
1.07767
1.12957
1.15294
0.489135
0.32229
-0.394935
-0.450155
-0.427038
-0.516746
0.635821
0.637033
-0.224021
0.634869
0.633849
0.508331
0.52205
0.522887
0.524008
0.522918
0.524196
0.402647
-0.129134
-0.156014
-0.107119
-0.106181
0.0214238
-0.0876418
-0.0886652
-0.0852091
-0.0868356
0.438091
0.519517
0.516189
0.529085
0.538145
1.1679
1.14182
1.16807
1.07746
1.09537
1.02945
1.00259
0.84063
0.864061
0.802763
0.789076
-1.61403
-2.55416
-0.588672
-0.315497
-0.0108726
-0.0273365
-0.0263011
0.632285
0.634333
0.634117
0.636975
1.04261
-0.3873
-0.459561
0.521267
0.519794
0.528851
0.529755
0.524722
0.52472
-0.0895454
-0.0892537
-0.0752921
-0.0891556
-0.0866791
0.628002
0.630339
0.522013
0.519454
0.545977
0.568773
0.557003
0.254731
0.594926
0.610574
0.636646
0.782358
0.768954
0.781521
0.905317
0.873331
0.962085
0.984017
0.0142263
-0.00182548
-0.0269583
-0.0241601
-0.0250145
0.484872
0.478428
0.506714
0.492761
0.495806
0.228357
0.0793226
0.403871
0.42709
-0.318977
-0.36972
-0.45551
-0.452763
-0.56117
0.61025
0.638571
0.63828
-0.235479
-0.162611
-0.29111
-0.104742
-0.162417
0.499268
0.505529
0.501599
0.517003
0.511163
0.513591
0.526119
0.523303
0.524896
0.451659
0.583793
0.330425
0.289442
-0.276567
-0.17383
-0.257582
-0.0986444
-0.0979346
0.0336322
0.0659719
0.00746966
-0.00358328
-0.0929373
-0.0900354
-0.0919724
-0.0862211
-0.0868758
0.429517
0.416416
0.449361
0.4569
0.506097
0.507456
0.512111
0.509994
0.954462
0.977458
0.982769
0.958689
-3.52431
-6.14189
0.0246866
0.18193
-0.0103162
-0.0119002
-0.000586865
-0.0104525
-0.00136137
-0.00300151
-0.0374077
-0.0369745
-0.0297225
-0.0311863
0.629442
0.630887
1.01657
1.04303
0.982444
0.959674
0.510644
0.512508
0.517124
0.51401
-0.0875919
-0.0879938
-0.0881121
0.632634
0.631035
0.631768
0.213167
0.123921
0.306688
0.338038
0.626506
0.61529
0.625265
0.696586
0.735838
1.00085
1.02371
1.00866
1.02049
1.07083
1.09371
1.05898
0.463399
0.474351
0.468606
0.509523
0.507371
0.508301
0.504977
0.505852
0.504536
-0.0313721
-0.400591
0.476084
0.477091
0.469541
0.472112
0.697704
0.781912
0.635472
0.637772
0.638333
-0.0526153
-0.0998279
0.235067
0.197315
0.368291
0.403111
0.384805
0.929337
0.888769
0.937138
0.912252
0.876868
0.901279
-0.336047
-2.09108
-1.08986
0.578316
0.383026
0.473963
-0.0193225
-0.036764
-0.0322056
1.03154
1.07081
0.650324
0.838753
0.789977
0.758404
0.784731
0.847896
0.780592
0.815253
0.845448
0.821151
0.558805
0.486881
0.505805
0.857314
0.913025
0.0859207
0.00612248
-0.0167402
0.0891269
0.154771
0.123818
1.04801
0.96588
1.02821
0.519696
0.52065
-0.0213935
-0.047882
0.524769
0.52448
-0.0239201
-0.0151214
0.48914
-0.928091
0.0865924
0.514326
0.503905
0.520768
-0.102809
0.307654
-0.0889327
-0.000295618
-0.0302481
0.515068
0.450469
0.40805
-0.010736
-0.0355076
-0.0851431
-0.210671
0.517434
0.515791
0.520158
0.520974
0.521755
-0.0313878
-0.031336
-0.0214034
-0.0756915
-0.0684214
-0.0814127
0.484005
0.504072
-0.190494
0.520454
0.52256
0.522252
0.516496
0.521413
0.520058
-0.0271474
-0.0299041
-0.0321014
0.19271
0.334931
0.671538
0.745744
0.620884
0.455236
0.16612
0.609196
0.660627
0.586271
0.716603
0.636246
0.633291
0.153647
0.00959136
0.158114
0.091037
0.511141
0.510604
0.501421
0.498294
0.515613
0.513292
0.518485
0.515745
0.518914
0.520051
-0.0590035
-0.0871631
-0.10496
-0.146951
0.263296
0.537825
0.223279
0.282682
0.139831
-0.0826876
-0.0823446
-0.0842793
-0.0882655
-0.0494264
-0.0497537
-0.00599603
0.00420441
-0.0113638
-0.0373646
-0.058289
-0.0500955
-0.0593721
0.508279
0.508493
0.513807
0.522895
0.460134
0.46384
0.430122
0.448872
0.435023
0.374902
0.404666
0.381744
-0.0213968
-0.0125716
-0.0130485
-0.0367763
-0.0361357
-0.0579051
-0.0503725
-0.0489909
-0.0460656
-0.05079
-0.0779972
-0.0846981
-0.174086
-0.294159
0.96493
0.91387
0.138978
0.507317
0.512996
0.510157
0.514919
0.518111
0.518735
0.516298
0.512786
0.504198
0.505843
0.502372
0.5035
-0.127724
-0.238227
-0.0694918
-0.146519
0.151137
0.617824
0.342064
0.286636
0.271882
0.499794
0.689093
0.595408
0.648617
0.619033
-0.391223
0.00454997
-0.32681
0.217665
0.214619
0.69886
0.740379
0.757739
0.714761
0.671296
-0.0175542
0.54843
-0.0740953
-0.0220799
0.170636
0.0514107
0.603242
0.622355
0.629899
0.625174
0.630007
0.629994
0.619559
0.607023
0.630306
0.633477
0.493284
0.220931
0.177282
0.131375
0.621464
0.514918
0.565287
0.484007
0.506772
0.509214
0.50819
0.488808
0.496174
0.491829
0.499074
0.502697
0.510092
0.510267
0.506053
0.508017
-0.0787041
-0.087802
-0.0692287
-0.124622
-0.131589
-0.174558
-0.0852532
0.0898483
0.0392567
0.227832
0.350774
0.0680804
-0.0518537
-0.0348262
0.01796
0.182815
0.18113
0.0448307
0.146159
0.118917
0.101663
0.218808
0.218167
-0.0569018
-0.0641275
-0.0631891
-0.0692167
-0.0256394
0.0975878
0.0710002
-0.0374857
-0.0431293
-0.0803478
-0.0831185
-0.00220982
-0.0457549
-0.0377498
-0.0090208
-0.064884
-0.0393043
-0.0300993
-0.0399321
-0.0392006
-0.0386166
0.503378
0.505063
0.505366
0.515133
0.526954
0.54182
0.507795
0.481399
0.472412
0.475509
0.448507
0.457779
0.453039
0.468924
0.490568
0.498863
0.497068
0.499776
0.481786
0.483442
0.468877
0.473515
0.442611
0.423756
0.41352
-0.0610476
-0.0283385
-0.0420838
-0.0535714
-0.0282561
-0.0373416
-0.0388247
-0.0194968
-0.0392862
-0.0340521
-0.0440656
-0.049966
-0.0506004
-0.0762751
0.005952
-0.176878
-0.226103
-0.279258
0.88681
1.02496
0.815541
0.584955
0.593839
0.835714
0.946627
0.541776
0.721454
0.765149
0.576587
0.868847
0.511287
0.510862
0.508712
0.507875
0.508891
-0.0148177
0.0891549
0.0990092
0.159605
0.275339
0.380163
0.315744
0.202035
0.334613
0.359243
0.613955
0.619485
0.578965
0.60218
0.603523
0.409345
0.489878
0.527383
0.485528
0.558313
0.592134
0.538885
0.581506
0.502119
0.452657
0.44391
0.398595
0.433422
0.414344
0.388741
0.503196
0.479913
0.490796
0.48089
0.503057
0.527967
0.528658
0.550392
0.567541
0.481404
0.426881
0.443921
0.472757
0.428888
0.446651
0.468774
0.190106
0.091924
0.254797
-0.0728105
0.0109492
0.0523107
0.00853513
-0.0324576
0.274193
-0.361539
-0.307869
-0.981711
0.497581
0.826872
0.547042
0.558892
0.628166
0.616649
0.624944
0.62394
0.629806
0.608582
0.619635
0.623759
0.591742
0.613299
0.601001
0.610596
0.496561
0.396939
0.40031
0.331465
0.191988
0.234073
0.426252
0.357197
0.281917
0.274041
0.451045
0.315805
0.395748
0.444968
0.368149
0.304056
0.530817
0.578003
0.570604
0.543306
0.42155
0.454492
0.455258
0.505522
0.549034
0.572599
0.497618
0.503916
0.504824
0.502095
0.500471
0.50359
0.503868
0.506176
0.506318
0.508913
0.508411
-0.0790644
-0.065278
-0.077945
-0.0868435
-0.0249986
-0.0353079
-0.00205173
-0.0340156
-0.0371676
-0.0320908
-0.047725
-0.0616381
-0.0611466
-0.0523953
0.0666033
0.0849017
0.0853096
0.0442315
0.258899
0.384241
0.446763
0.344105
0.194432
0.197583
0.264452
0.0211125
0.0028366
-0.00884289
0.0622694
0.0534863
-0.0698585
-0.074898
-0.0707481
-0.0570613
-0.0502963
-0.0742191
-0.0804309
-0.069823
-0.0757904
-0.0813669
-0.0854084
0.48307
0.475998
0.479539
0.472017
0.470192
0.487067
0.491702
0.49275
0.498364
0.500961
0.490435
0.496192
0.500388
-0.0405533
-0.0579547
-0.0572116
-0.0624597
-0.0580739
-0.0558568
-0.0598879
0.127965
0.0328748
0.0690063
-0.00181648
-0.128892
-0.0697573
0.503177
0.495699
0.482562
0.723173
0.558459
0.477246
0.57627
0.697734
0.276734
0.476397
0.311518
0.890451
0.796926
0.942537
0.556382
0.256111
0.428697
0.43553
0.277022
0.402314
0.339548
0.215834
0.251045
0.286946
0.370559
0.255908
0.235273
-0.00793952
0.174641
0.283517
0.265549
0.391426
0.44747
0.267495
0.182546
0.128193
0.595327
0.611549
0.620089
0.591216
0.612311
0.56988
0.5611
0.578854
0.588389
0.582059
-0.616146
-0.204967
-1.40424
-0.822698
-0.370919
0.525539
0.530437
0.747711
0.64743
0.652059
0.634003
0.58524
0.563534
0.599262
0.609473
0.321298
0.40537
0.393764
0.368184
0.314872
0.257521
0.528004
0.539124
0.558704
0.58781
0.565267
0.593399
0.496396
0.496242
0.494896
0.491148
0.489646
0.492927
0.0177329
-0.00762269
0.0289827
0.0162187
-0.00472415
-0.00779468
-0.0494563
-0.0607617
-0.0617498
-0.0574854
-0.0462187
-0.0447427
0.175476
0.112768
0.0228779
0.0650566
-0.00215551
-0.0850132
-0.0873471
0.00427535
0.105323
0.086607
0.391973
0.661121
0.485739
0.652598
0.449606
0.549803
0.464938
0.438157
0.465233
0.371825
0.462901
0.0633992
-0.139306
-0.194055
0.819161
0.782946
0.560829
0.321131
0.199304
0.487342
0.510466
0.471397
0.498291
0.546152
0.531695
0.0317442
0.11579
0.208374
0.51212
0.283885
0.303474
0.293167
0.460989
0.42873
)
;

boundaryField
{
    wall-4
    {
        type            zeroGradient;
    }
    velocity-inlet-5
    {
        type            zeroGradient;
    }
    velocity-inlet-6
    {
        type            zeroGradient;
    }
    pressure-outlet-7
    {
        type            fixedValue;
        value           uniform 0;
    }
    wall-8
    {
        type            zeroGradient;
    }
    frontAndBackPlanes
    {
        type            empty;
    }
}


// ************************************************************************* //
