/*--------------------------------*- C++ -*----------------------------------*\
  =========                 |
  \\      /  F ield         | OpenFOAM: The Open Source CFD Toolbox
   \\    /   O peration     | Website:  https://openfoam.org
    \\  /    A nd           | Version:  6
     \\/     M anipulation  |
\*---------------------------------------------------------------------------*/
FoamFile
{
    version     2.0;
    format      ascii;
    class       surfaceScalarField;
    location    "90";
    object      phi;
}
// * * * * * * * * * * * * * * * * * * * * * * * * * * * * * * * * * * * * * //

dimensions      [0 3 -1 0 0 0 0];

internalField   nonuniform List<scalar> 
1300
(
3.75095
5.62643
-3.31604
3.75095
-7.75275
5.62643
-4.28961
4.28961
-0.386732
0.386732
1.8765
1.87445
-2.43079
2.43079
-1.68895
1.68895
-2.52515
2.52515
-5.2482
5.2482
-5.06895
5.06895
4.69394
-4.69394
-6.34262
6.34262
-0.964303
0.964303
-3.5827
3.5827
3.17236
-3.17236
-1.76609
1.76609
0.117455
-0.117455
-0.55408
4.30503
3.19687
3.19687
-1.98833
1.98833
-4.87529
4.87529
6.22195
-6.22195
5.21231
-5.21231
-1.89627
-2.5272
1.79005
-11.4528
-5.9627
-5.9627
-8.44087
8.44087
-2.81444
2.81199
2.94735
-2.94735
-1.71609
1.71609
-4.30841
0.0188011
-4.30841
4.25843
0.0311791
4.25843
-0.499872
0.113141
-0.499872
3.96401
-3.96401
0.285112
0.10162
0.285112
3.06734
-3.06734
-1.87685
3.75335
1.8741
-1.8721
6.17713
-1.87886
3.75331
-6.04436
6.04436
-2.67945
0.248661
-2.67945
2.19734
0.233447
2.19734
-6.90365
6.90365
-1.76991
0.080966
-1.76991
1.68615
0.00279997
1.68615
2.88871
-2.88871
-2.62403
0.0988809
-2.62403
2.39181
0.133345
2.39181
0.35305
5.27338
-5.97948
8.79147
-5.27338
0.0251796
5.2103
0.0379019
5.2103
-5.1055
0.0365534
-5.1055
5.01382
0.0551277
5.01382
4.78093
-0.0869968
4.78093
-4.81528
0.121341
-4.81528
-3.35667
-4.08515
-6.50485
0.162223
-6.50485
-1.03399
0.0696879
-1.03399
0.858186
0.106116
0.858186
-3.72742
3.72742
-3.94239
0.359697
-3.94239
3.12731
0.0450498
3.12731
1.86812
1.88284
5.61907
-5.61907
2.44671
-1.6849
-0.0811836
-1.6849
-1.86321
-3.3491
1.86321
-0.0971212
-0.110707
0.228162
-0.110707
3.15713
0.0397415
3.15713
2.23633
0.155475
-2.23633
0.248005
3.30378
-3.30378
1.32692
0.6614
1.32692
-5.55858
5.55858
4.96226
0.0515576
-4.96226
0.0869694
6.15672
0.0652372
6.15672
-6.20709
-0.0148644
-6.20709
2.48016
-5.00735
-2.68679
6.15303
0.189598
-6.15303
0.190326
2.91896
0.028393
2.91896
-2.91765
2.91765
-2.98431
0.0369602
-2.98431
-2.13857
0.422482
-2.13857
1.40228
0.313806
1.40228
-4.22438
-0.0840346
-4.22438
-4.10201
0.159614
4.10201
0.156424
1.11799
-1.11799
-0.608818
0.108945
-0.608818
-4.07109
-0.153291
4.07109
-0.107077
-3.90185
-0.0621639
-3.90185
-3.02197
0.0376639
3.02197
0.0453644
3.11213
0.0449992
-3.11213
0.0447951
-1.87099
3.75383
-1.87996
3.75406
-5.67949
-0.364876
-5.67949
6.36785
-0.323492
6.36785
3.10409
0.478604
-3.10409
0.424644
2.01039
0.186946
2.01039
-6.87564
-0.0280082
-6.87564
6.91239
-0.00874234
6.91239
1.87186
0.138533
-1.87186
0.101947
1.67863
0.00751801
1.67863
2.91656
-0.0278525
2.91656
-2.88223
-0.00648446
-2.88223
2.78912
-2.78912
2.71352
0.0755937
-2.71352
0.0894922
-11.1245
11.1097
-0.036214
-11.0883
5.17408
5.17408
4.23319
0.547742
4.23319
-5.01322
0.197945
-5.01322
2.6683
-5.35509
3.12804
-6.48471
4.6735
-16.1263
4.27975
-8.3649
6.75885
-6.75885
6.63872
0.12013
-6.63872
0.133875
-1.14196
0.107966
-1.14196
-3.13018
-0.59725
-3.13018
4.36882
-0.6414
4.36882
-3.02739
3.02739
-3.07622
0.0488347
3.07622
0.0510907
1.66349
0.0151363
-1.66349
-0.0214103
0.186331
0.098781
-0.186331
0.0756235
3.52765
-0.223873
3.52765
-3.09823
-0.205546
-3.09823
-1.23766
0.0957013
1.23766
0.0892668
-5.8074
0.248821
-5.8074
-11.1822
0.0938889
-11.1443
-6.1132
-6.1132
2.32767
11.1191
-2.8974
0.0151751
2.8974
0.0215553
2.97446
0.0529217
-2.97446
0.0568127
-2.85587
0.0667528
2.85587
0.0617819
-2.50634
0.367772
-2.50634
-1.01952
1.01952
-1.16569
0.146172
1.16569
0.236595
1.42098
-0.302995
1.42098
0.746491
0.111695
-0.746491
0.137674
-3.84481
-0.0570397
-3.84481
6.60341
-0.235555
6.60341
-2.96878
-0.129452
2.96878
-0.0522162
-0.0347357
11.1444
-5.13935
0.0338482
5.13935
-11.2097
11.2435
-3.21118
0.704836
3.21118
1.02201
5.28361
0.274973
-5.28361
0.270383
6.85172
0.0606734
-6.85172
0.0928631
-2.63938
-0.490794
-2.63938
-5.10044
-0.579048
5.10044
-0.731614
-11.4823
-0.202183
11.6845
-11.4272
6.00958
0.147134
-6.00958
11.3906
-0.992057
-0.125932
0.992057
0.0274591
1.76137
-0.340381
1.76137
3.74723
-0.219575
-3.74723
-0.09758
-6.76568
-0.109957
6.76568
-0.162273
-2.19018
-0.449201
2.19018
-0.428816
-4.26739
4.30714
1.90974
-2.3156
-2.69175
-5.6647
1.85529
1.89854
4.302
-10.1393
-5.98698
-9.94897
7.21482
-6.94444
-9.31571
9.22871
7.94823
-8.0104
-5.77727
5.82836
6.48481
-6.43945
1.87948
1.87387
8.0799
-7.83124
-15.6879
15.323
7.64964
-7.56867
15.8182
-15.8462
-17.8519
17.9126
-5.70733
5.80622
-6.74318
6.7367
-6.98016
6.92794
-2.79427
-3.69045
13.1085
-12.9462
8.65004
-8.73122
-8.69077
9.05046
3.38462
0.922515
3.42962
-1.88177
3.76126
-1.87153
3.78127
2.78475
-5.57901
2.57034
-5.26209
4.415
4.23504
-4.31788
-1.34683
-5.92888
5.95728
-5.80967
5.87145
9.19883
-9.18003
-1.88498
3.75885
-1.86908
3.76762
-3.42284
-2.35443
3.37779
0.924214
8.05686
5.05161
-8.24645
-1.70252
-8.03374
7.81417
-8.21832
8.01277
-0.436096
5.83848
-5.40238
4.4392
-1.65348
7.49196
5.56134
5.75929
5.86071
-5.58573
1.08373
-6.48611
-6.39914
-2.20992
2.31887
2.06843
-1.96681
6.15972
1.78851
6.05265
-5.81454
-2.19586
-5.87157
3.81966
2.00869
3.8685
4.08225
2.40256
4.11992
3.02944
-3.03685
0.00741107
-3.0594
6.08884
0.722003
-5.41383
-4.48962
4.99403
3.08587
5.22747
-5.60031
-2.23093
-5.17567
-9.59789
-6.08997
-10.1769
10.1647
5.15831
9.84118
-11.9477
11.7855
4.88848
2.76115
4.89128
-4.98021
-2.58846
-4.87826
11.6637
-2.6544
-9.00933
-10.325
-7.52687
10.3338
5.48444
10.9639
6.94866
11.0568
4.4197
7.24402
-9.90415
2.37728
-3.86692
-1.84042
-3.77743
3.66448
2.14174
3.79782
-4.21892
-2.52426
-4.20374
-4.29526
-2.6849
4.32311
2.41358
-4.41783
-3.80049
4.54729
2.38066
4.06152
-10.0485
4.30339
-7.99383
-9.19494
-3.7513
-9.06107
3.58595
2.5974
-6.18335
-1.99306
8.60198
-4.36694
7.25515
-5.22333
-3.50789
-5.24474
-6.98066
-1.71011
-6.82105
-8.9086
8.41781
-9.1913
8.5499
12.4964
-5.63184
-6.86461
-3.96704
-2.47241
3.92225
-0.492628
-3.71005
3.71746
0.0512086
3.83248
4.755
4.26237
-3.88276
-1.9269
-3.82595
3.82204
2.04941
3.8888
6.86517
2.33366
6.89635
-6.63009
-2.54994
-6.71413
9.0844
-8.66191
2.79148
-2.69578
5.38052
2.63226
-5.15664
-2.8771
6.23217
-3.2089
-3.02327
-12.3503
10.7831
1.56717
-4.8583
-0.419101
-0.536556
-5.56448
-3.75123
5.44314
0.316152
11.0992
7.34801
-5.51469
5.76352
6.16981
6.22136
-0.177781
5.87814
-5.1733
5.27486
-2.73406
-2.5408
5.48832
-5.64161
-1.22581
-5.56757
4.34177
0.411034
1.44825
-1.22009
-1.74512
-0.464808
-1.60744
1.10743
0.961002
1.20621
0.963285
1.35558
-2.94714
0.498085
2.44905
-1.98385
-1.46872
-3.8208
-1.14318
4.96398
5.73944
2.07472
-5.64186
-0.229711
2.55008
-2.44397
-0.838615
-2.98219
2.22303
-3.06164
-3.46219
-1.95503
5.41722
-3.36877
-0.457182
3.31585
0.552652
-3.82825
-2.10063
3.79129
0.328625
-3.12904
6.19034
-3.0613
-5.05595
2.52901
3.55983
4.5377
-4.78989
2.4493
2.34059
-1.23006
4.25715
0.970323
4.4441
-7.07823
4.84731
5.74584
3.30463
-6.22444
1.04877
-6.02946
8.56265
-7.41999
-1.14266
4.10189
4.46076
7.02903
5.46742
-5.68939
12.7184
-1.17396
-6.24603
7.20342
-3.89879
4.87684
-8.77563
-10.3443
4.09823
-9.19
11.0835
-1.89353
-3.59041
-8.35731
12.7804
-1.24831
-11.5321
8.59287
-4.35913
-4.43004
8.78917
-7.01353
7.0185
-1.98881
-5.02969
-10.1518
-5.6944
10.2618
1.52367
-9.96792
12.3452
-2.7239
4.16759
0.723693
4.17511
3.37482
-5.47134
2.09652
3.63871
-5.62752
2.04176
-7.5131
-6.75417
12.0958
-5.34167
-10.5055
-9.54137
-0.964096
2.54775
9.79745
-9.49641
7.42553
2.07088
3.29765
0.591147
-3.37324
-0.404185
0.231153
4.50835
-4.73951
4.02897
4.18445
3.21805
1.29031
3.84953
2.10774
-3.87109
-0.332657
-4.16864
1.48374
-1.75505
-3.69357
5.17731
-4.06191
0.368341
-2.74142
-3.49247
6.23389
-4.58184
3.03574
3.1546
5.08515
-4.91442
1.42195
-2.39095
-2.52347
2.63996
-4.39502
2.00145
3.17585
4.38211
0.581626
5.91585
6.17999
-8.51325
0.519417
11.2316
-9.52908
2.48049
8.57629
-9.90602
0.364647
-8.69642
0.979357
-5.3463
-5.20399
5.23534
-6.94545
-3.54029
6.26147
0.634883
-6.41789
-0.40315
-6.05464
-2.85396
-6.50384
-3.04128
-6.15002
-8.73067
-1.67054
-7.06012
6.74727
-6.69296
-3.48398
7.42458
1.12532
-7.46746
7.34152
-7.52429
7.18391
0.0951081
3.62235
4.35747
1.88507
-2.39229
4.27736
-5.08427
7.41793
-8.76903
3.68476
4.25479
-6.80472
-4.51424
5.04758
4.03681
5.36139
8.90623
-10.3548
1.4486
-10.6239
11.9645
-1.34058
-16.3946
5.77068
-7.48836
2.40801
0.383476
2.51597
0.544778
2.49649
-3.04127
-2.151
-2.06174
-2.44619
-3.49344
5.93963
1.05933
-3.47797
2.41864
-3.56559
4.62492
-0.0849021
-3.39307
5.1801
-2.68361
5.56358
-3.6505
1.91308
3.54856
5.83926
-2.2907
4.41897
-1.78671
1.95156
-4.24227
-1.54187
-2.95362
5.09536
-3.28027
3.64861
-0.355851
4.00446
-4.04215
0.833253
-0.824105
3.36034
3.60835
4.33094
-3.04063
2.9346
-4.72131
-1.30767
-4.13969
-0.963832
-0.181265
-3.77191
3.95317
5.99019
-6.17145
-5.27532
9.51203
-4.23671
7.69132
-5.43246
-2.25886
-4.28149
-4.38042
3.91372
1.96442
9.65574
0.177725
-5.61018
-4.99558
-3.97357
3.08583
2.18903
-1.70602
3.27319
2.24258
-0.794328
0.399554
0.806655
1.75891
-1.35936
0.337811
1.4211
-0.882278
1.68502
0.865064
-1.79671
0.189272
-1.36321
3.58624
1.08584
-2.04684
0.687488
0.892622
-3.62669
5.10855
-2.73775
-2.3708
6.00117
1.14985
-3.8876
4.41772
-4.00669
2.45831
-3.60149
-1.42929
-5.43598
-3.64747
-2.47998
4.89862
-3.45965
5.53437
1.43643
-5.30466
6.74109
-3.62951
1.67448
-3.05018
3.91524
-0.995404
-2.05477
2.87524
2.54198
-3.14394
0.161749
-0.268691
2.41757
-2.68626
-0.644077
-2.62793
-4.5762
4.90483
-2.10372
4.55302
2.17364
-1.91782
6.47084
1.80753
-3.72535
-3.24841
-3.70559
-1.38476
3.15294
-0.568708
-4.30955
-5.5984
4.17102
0.273076
-7.09107
7.94076
-0.849689
-4.0052
-0.842106
4.944
-6.09443
0.466911
-4.05267
3.88809
4.85842
5.13149
-11.297
-0.235065
-6.13873
1.08663
-7.22536
5.54739
-3.55466
7.65289
-10.2891
6.8051
-9.16375
6.51023
-0.71513
6.23667
-4.14015
2.77266
-8.46706
-6.94339
5.59991
-2.83876
6.32361
-3.22651
9.55012
-5.95041
5.38297
4.16715
-1.05317
-4.19157
-5.38164
4.32847
0.00133117
4.17644
4.9872
-2.87945
4.65454
2.26474
-4.65568
-2.13028
-6.48888
1.8332
-3.33428
-1.92264
3.75584
3.16251
3.75365
1.23237
-3.34947
7.25649
-8.22058
-1.91481
-3.28918
5.37413
-1.04566
3.48006
-6.76924
-1.86624
4.73469
-0.721972
-4.01272
0.897155
-4.43745
1.67504
-6.11248
5.27041
-5.67356
2.25419
-9.74255
-5.21327
-5.18581
-2.2771
-5.24719
-7.56202
5.28492
-1.79134
5.55018
-8.49642
7.77445
-3.46807
8.75299
-5.45094
-1.0529
5.87976
1.30415
10.0571
0.167846
-4.68209
-1.94196
3.71584
-1.77388
1.14387
-3.60406
0.111776
2.49922
3.50195
-6.84099
0.0362647
-4.64582
-3.90462
7.94143
5.60741
11.5976
1.24277
9.12549
-1.18406
10.3683
4.17733
4.41392
-2.99758
4.44618
0.955592
4.64035
-0.892876
2.80596
1.6231
1.69278
0.751182
2.29192
1.31643
3.12517
0.0839021
-1.97783
4.62883
-8.60239
-0.981356
-8.05465
1.17406
5.43375
-4.25969
2.84751
-0.658485
1.07364
-0.202376
-1.12382
1.3262
-2.74317
-1.91815
-0.497049
-1.67877
2.36626
1.90747
-1.86921
-0.873968
0.325533
-3.973
3.27596
-3.11421
-0.572228
6.16887
-2.88736
0.201105
-1.21288
-2.42683
-2.89163
2.70236
6.17445
0.296386
3.11316
5.20121
3.10058
0.221127
3.77898
-5.67252
-3.73411
-5.90758
-0.360196
4.5838
1.76819
8.02926
5.93534
4.88968
-1.87956
-10.1001
6.49807
-2.05189
5.15749
-1.14477
-4.96771
5.08212
2.33581
-5.717
0.0434435
-4.92427
-6.97616
-0.477712
8.25216
-9.57943
8.52653
5.67257
1.38755
-4.42728
-0.758529
4.28111
0.132814
10.5011
-0.917743
-7.02922
7.94697
-4.51601
3.53465
0.673942
2.59925
2.00014
1.34165
-5.68757
-9.94726
-2.06954
-1.55714
-4.44034
0.523639
-2.43111
6.06285
-2.5282
3.80398
5.41877
6.4924
-2.04901
-4.12244
6.28573
-2.48174
4.01066
)
;

boundaryField
{
    wall-4
    {
        type            calculated;
        value           uniform 0;
    }
    velocity-inlet-5
    {
        type            calculated;
        value           uniform -3.75095;
    }
    velocity-inlet-6
    {
        type            calculated;
        value           uniform -5.62643;
    }
    pressure-outlet-7
    {
        type            calculated;
        value           nonuniform List<scalar> 8(3.31604 7.75275 4.42347 9.66274 7.44182 5.16694 5.79634 8.95325);
    }
    wall-8
    {
        type            calculated;
        value           uniform 0;
    }
    frontAndBackPlanes
    {
        type            empty;
        value           nonuniform 0();
    }
}


// ************************************************************************* //
