/*--------------------------------*- C++ -*----------------------------------*\
  =========                 |
  \\      /  F ield         | OpenFOAM: The Open Source CFD Toolbox
   \\    /   O peration     | Website:  https://openfoam.org
    \\  /    A nd           | Version:  6
     \\/     M anipulation  |
\*---------------------------------------------------------------------------*/
FoamFile
{
    version     2.0;
    format      ascii;
    class       volVectorField;
    location    "90";
    object      U;
}
// * * * * * * * * * * * * * * * * * * * * * * * * * * * * * * * * * * * * * //

dimensions      [0 1 -1 0 0 0 0];

internalField   nonuniform List<vector> 
918
(
(0.985049 -0.000715796 0)
(0.00544063 2.96618 0)
(-0.0050968 0.875198 0)
(0.979575 0.00196185 0)
(-0.0143521 2.0629 3.33479e-20)
(-0.0071922 2.9486 -2.55967e-18)
(0.822406 1.12432 4.41932e-19)
(0.114573 0.0842401 -1.41796e-20)
(0.999922 -0.000245576 0)
(0.0928772 0.670066 0)
(0.0164381 0.355601 0)
(0.732457 0.00963436 0)
(0.0101973 2.93182 0)
(0.00329555 2.7944 0)
(-0.00278863 3.17614 8.21807e-19)
(-0.0135862 1.93019 2.48732e-20)
(0.295076 0.0471326 9.92983e-19)
(0.234736 1.11072 3.50695e-19)
(0.964315 0.00674247 0)
(-0.00543321 0.342135 0)
(0.0575953 -0.0750256 -6.44329e-19)
(1.00183 -0.00455922 0)
(0.999851 -0.00892573 0)
(0.975169 -0.00605171 0)
(0.592293 0.0280458 0)
(0.0207941 2.64499 0)
(-0.0121014 2.9116 9.37253e-19)
(-0.00798031 0.925761 0)
(-0.0366423 1.17122 0)
(-0.00592395 0.894106 0)
(-0.024483 2.5843 0)
(-0.00515963 2.11383 -2.66358e-20)
(-0.0102758 1.90137 0)
(-0.0219373 2.98768 -9.22229e-23)
(-0.0163808 3.00545 1.98651e-18)
(0.00231122 3.00043 0)
(0.87199 -0.00976744 0)
(0.372689 0.910081 1.69437e-19)
(0.82117 1.14332 -5.49111e-19)
(0.953388 1.01012 5.62849e-19)
(0.683556 1.22614 -1.01053e-19)
(0.697097 1.18567 5.76816e-19)
(0.143172 0.127018 1.38313e-20)
(0.149373 0.0897496 0)
(1.16985 0.533158 0)
(0.109227 0.108423 6.22671e-20)
(0.088336 0.0681036 -6.46239e-20)
(0.920571 -0.00704538 0)
(1.00027 5.27378e-05 0)
(0.999907 0.000320963 0)
(1.0037 -0.00727954 0)
(1.00088 -0.000949253 0)
(1.00011 -5.24589e-06 0)
(0.0779396 1.83505 -7.64099e-19)
(0.033712 0.849527 0)
(0.128646 0.760678 0)
(0.0180495 0.78953 0)
(0.053887 0.587071 0)
(0.00586372 2.03745 0)
(-0.00727973 0.687177 0)
(0.0129483 0.399179 0)
(-0.0119678 0.681113 0)
(0.0113814 0.352375 0)
(0.843813 -0.015627 0)
(0.842341 0.0252368 0)
(0.756954 0.00476225 0)
(0.80026 0.0264713 0)
(0.701409 0.0193935 0)
(0.0137981 3.00031 9.50311e-19)
(0.0109373 3.00668 0)
(0.00585741 3.00351 0)
(0.0118326 2.99746 1.07886e-23)
(0.0080284 2.95884 -1.41239e-18)
(0.0121956 2.98282 0)
(0.00920372 2.90498 0)
(0.0210123 2.93151 2.186e-24)
(0.00380771 2.82441 0)
(0.0260415 2.91879 0)
(-0.00064978 2.74511 0)
(0.304195 3.56926 0)
(-0.122122 3.65184 0)
(0.148126 3.26667 -7.64829e-19)
(0.002505 3.00552 0)
(-0.0335934 1.99139 0)
(-0.00761695 2.1797 -2.45317e-20)
(-0.00940434 1.94296 2.55791e-20)
(0.34704 0.139184 -3.44929e-19)
(0.323107 0.0154621 -3.35303e-19)
(0.300838 0.156351 -1.03043e-18)
(0.262065 0.0662676 -6.70058e-19)
(0.264881 1.02621 0)
(0.334366 1.24232 -3.62577e-19)
(0.416382 1.15327 5.98539e-19)
(0.987691 0.0081698 0)
(0.9432 0.00577743 0)
(1.00028 0.000672085 0)
(1.00254 0.00906624 0)
(1.0031 0.00899772 -2.6657e-18)
(0.992135 0.00941169 2.01431e-18)
(-0.0275527 0.704829 0)
(-0.000352633 0.345691 0)
(-0.0572224 1.01429 0)
(-0.0392583 0.766958 0)
(-0.0174742 0.349559 0)
(-0.0826716 0.0681319 2.00421e-19)
(0.0324153 0.0499444 0)
(0.993627 -0.00769154 0)
(0.954055 -0.00648487 0)
(0.742668 0.0276742 0)
(0.672959 0.0250978 0)
(0.660377 0.0268039 0)
(0.980795 -0.00243606 0)
(0.583133 0.0670144 0)
(0.453869 -0.0120453 1.5118e-18)
(-0.0411296 2.86007 7.31785e-19)
(0.0338859 2.9143 0)
(0.0428056 2.89271 0)
(0.00319759 2.70248 0)
(-0.00873621 2.9865 8.95645e-19)
(-0.0138778 2.89431 0)
(-0.0109583 2.99158 -2.7602e-18)
(-0.0115919 2.92908 9.40406e-19)
(-0.05337 1.35209 0)
(-0.0209501 1.3814 0)
(-0.0081596 2.14087 8.81911e-22)
(-0.00806663 2.09943 0)
(-0.0172665 1.91335 0)
(0.938931 -0.0051886 0)
(0.85736 -0.0111681 0)
(0.862699 0.0053973 0)
(0.94971 -0.00613538 0)
(0.883715 -0.00810019 0)
(0.495785 1.1097 -2.1478e-19)
(0.543281 1.17969 0)
(0.334758 0.844542 3.25404e-20)
(0.279777 0.709399 0)
(0.922623 1.0392 -1.58808e-19)
(1.0457 0.849598 3.19907e-19)
(0.394815 1.32113 0)
(0.545629 1.2769 0)
(0.599947 1.20296 0)
(0.104472 0.180595 -3.02879e-19)
(0.169916 0.139822 0)
(0.171559 0.106405 1.86165e-19)
(1.00864 0.903471 0)
(1.08432 0.751151 0)
(1.11406 0.686386 -2.55666e-19)
(1.15034 0.596757 0)
(1.20645 0.391633 4.7559e-20)
(0.957536 -0.00709435 0)
(0.962751 -0.00810659 0)
(0.900944 -0.00737445 0)
(0.983935 -0.00812053 0)
(0.97444 -0.00802857 0)
(0.936557 -0.00656763 0)
(1.0002 0.00250647 0)
(1.00078 0.00123897 0)
(1 0.000759934 0)
(0.039061 2.08552 4.20109e-19)
(0.142536 1.78145 0)
(0.0174194 2.19107 6.54865e-19)
(0.0522286 1.89167 -5.36565e-19)
(0.16825 1.08574 -2.87741e-19)
(0.0504434 0.935795 0)
(0.123116 0.940611 0)
(0.00721848 0.751027 0)
(0.0308334 0.513016 0)
(-0.00231792 2.26091 -2.97398e-22)
(0.0227168 2.04029 0)
(-0.00421635 2.26404 -1.69701e-21)
(0.00349155 2.04905 -8.26379e-21)
(-0.00198641 0.720736 0)
(-0.00586201 0.701723 0)
(0.0158872 0.449128 0)
(-0.0204625 0.684104 0)
(0.00502923 0.346103 0)
(0.939617 0.0139345 0)
(0.856684 -0.0115179 0)
(0.928752 0.00491248 0)
(0.846372 -0.0127901 0)
(0.809399 0.00147975 0)
(0.89891 0.0208015 0)
(0.874852 0.0241722 0)
(0.783106 0.00103734 0)
(0.00999933 3.06792 -8.83826e-21)
(0.0156658 3.05792 0)
(0.0122686 2.97004 0)
(0.00755653 2.87684 0)
(0.892946 3.96125 0)
(1.18623 3.35801 9.31945e-19)
(0.0802481 3.08835 0)
(-0.0181207 2.91683 0)
(-0.0203649 1.40918 0)
(-0.039056 1.70297 0)
(-0.0282353 1.53988 0)
(-0.0349009 2.54585 -1.55978e-20)
(-0.0210702 2.24516 0)
(-0.0251429 2.38752 0)
(-0.000615415 1.97463 9.06782e-23)
(-0.00557945 2.2552 -3.24137e-20)
(-0.00663157 2.21813 -2.62369e-20)
(-0.00567278 1.95737 0)
(0.38989 0.116874 5.28754e-19)
(0.363908 0.00852948 -5.18734e-19)
(0.231593 1.58971 0)
(0.290345 0.770784 -3.26708e-19)
(0.180805 1.68739 -1.0693e-18)
(0.248329 1.22923 1.07085e-18)
(0.90159 0.00587911 0)
(0.966983 0.0107234 0)
(0.974851 0.00988215 0)
(0.922932 0.00586142 0)
(-0.0202208 0.687437 0)
(-0.0231746 0.6942 0)
(0.00602341 0.3371 0)
(0.0780928 0.0931791 5.70461e-19)
(0.0557926 0.0678023 -6.67822e-19)
(0.0495501 0.0528022 0)
(1.10865 0.0911143 2.45293e-20)
(1.09221 0.0429824 0)
(1.01958 0.0439771 0)
(0.914457 -0.00125309 0)
(0.437065 0.097889 0)
(0.495903 0.0770391 -2.41858e-18)
(0.400995 0.00576818 9.06487e-19)
(0.0102822 2.97708 7.77519e-19)
(-0.0331297 2.86109 4.60386e-20)
(0.00825437 3.0536 -1.86645e-20)
(0.0164189 3.04262 6.94401e-19)
(-0.0117296 2.99991 3.09423e-20)
(-0.0124576 2.95204 -1.24589e-22)
(-0.0150895 3.01307 -5.77132e-19)
(0.0153461 3.02551 4.11119e-19)
(0.00806569 3.03583 -6.68495e-19)
(0.934802 0.00216535 0)
(0.939573 -0.00109107 0)
(0.848254 -0.0111994 0)
(0.956211 0.0119048 0)
(0.942244 0.0133942 0)
(0.881417 0.00545297 0)
(0.915839 0.0172164 0)
(0.925114 0.015042 0)
(0.83655 0.00307788 0)
(0.668493 1.40782 9.21636e-21)
(0.686574 1.51826 0)
(0.117313 0.286561 6.8391e-20)
(0.21387 0.652322 5.40303e-19)
(0.239213 0.689418 -3.16895e-19)
(0.2121 0.489052 6.296e-19)
(0.341586 0.83337 1.6019e-18)
(0.136359 0.237266 3.84001e-19)
(0.258378 0.165215 7.10652e-19)
(0.210823 0.161528 1.83722e-19)
(0.221262 0.0926442 3.49295e-19)
(1.19728 0.448574 9.21165e-20)
(1.22156 0.246968 8.92072e-20)
(0.0069427 2.24735 2.4383e-19)
(0.0406309 1.9657 0)
(0.973393 0.0332362 0)
(0.947043 0.0193662 0)
(0.871652 -0.0150211 0)
(0.0130575 3.07347 0)
(0.0166901 2.94398 1.23296e-18)
(0.0137889 2.95665 0)
(0.00562286 2.85024 -1.22342e-18)
(0.00996029 3.08959 3.01066e-19)
(0.011078 3.08409 0)
(0.705649 1.8136 -1.67827e-19)
(1.2304 2.6179 5.67923e-19)
(0.690381 1.99157 -1.38307e-18)
(0.0217824 2.97596 -6.75208e-19)
(0.0398523 2.99739 0)
(-0.0387112 2.878 0)
(-0.00603201 2.24112 -1.24028e-20)
(-0.00531062 2.2611 6.26107e-20)
(1.06256e-05 2.01026 -7.51914e-21)
(0.268438 1.40281 1.03688e-18)
(0.288825 0.575128 -7.11286e-19)
(0.0673624 2.00518 7.48181e-19)
(0.120747 1.87645 -9.00149e-19)
(0.208916 1.5415 1.02605e-19)
(0.0061573 3.12029 -1.67294e-18)
(0.0133679 3.12067 1.84269e-18)
(-0.00525039 2.9805 8.377e-19)
(-0.00146791 2.97495 -8.02413e-19)
(-0.017593 2.87701 -8.53233e-19)
(0.0117542 3.10075 -2.23572e-18)
(0.00559361 3.10544 2.26951e-18)
(0.268987 0.69855 0)
(0.219584 0.658007 -1.15435e-18)
(0.074888 0.210572 5.08022e-19)
(0.3476 0.954283 1.13533e-18)
(0.201119 0.282397 -1.74876e-18)
(1.19992 0.176891 4.98114e-20)
(1.2183 0.306502 0)
(1.19537 0.121856 7.4232e-21)
(0.000584445 2.26782 -1.12154e-21)
(0.00404723 2.25606 0)
(0.0334079 2.00158 0)
(0.312939 1.31801 -3.72181e-19)
(0.354437 1.18075 -8.07282e-19)
(0.234583 0.394312 1.44509e-18)
(1.00644 -0.00967894 0)
(1.00774 -0.00778111 4.89992e-19)
(-0.0471811 1.33472 0)
(-0.0567065 1.34105 0)
(1.00244 0.00326851 1.33566e-21)
(1.0032 0.00781302 1.00587e-18)
(-0.0260992 2.53291 1.97665e-20)
(-0.0287636 2.57533 0)
(0.0399456 3.17211 4.77506e-19)
(0.372193 3.53684 0)
(1.16025 0.695839 -5.2219e-20)
(1.01177 0.0106276 -2.85395e-21)
(1.02089 -0.00898531 0)
(1.00157 0.000290676 1.57699e-22)
(0.116767 1.37744 0)
(0.147949 2.58739 0)
(0.0344146 1.3247 0)
(-0.000382617 2.63349 -1.30947e-20)
(-0.0221938 2.57964 -1.51339e-20)
(0.99867 0.031431 2.91114e-21)
(1.06308 0.00594095 0)
(1.1002 0.0285109 0)
(-0.0373418 1.75024 0)
(-0.0204633 2.57801 0)
(-0.0147353 1.32978 0)
(0.309152 1.49285 -1.68624e-19)
(1.01152 -0.00904974 0)
(1.00971 -0.0129835 0)
(1.00227 0.000932475 6.2742e-19)
(1.00547 -0.00490943 -7.39768e-19)
(1.00113 -0.000862064 0)
(-0.0264689 1.47552 0)
(-0.0149475 1.3991 0)
(-0.0218027 1.43778 0)
(-0.0180312 1.31523 0)
(-0.0344866 1.30477 0)
(-0.026667 1.28602 0)
(1.0357 -0.00428672 0)
(1.01903 0.0156577 -9.4379e-22)
(0.814075 1.31478 2.77539e-19)
(1.00245 0.000391512 -6.27229e-19)
(1.00339 0.00444332 7.48556e-19)
(1.00126 0.00208965 0)
(1.01105 0.00962838 6.24801e-19)
(1.00682 0.00744067 -7.60304e-19)
(1.0071 0.0111089 0)
(-0.0254248 2.60487 0)
(-0.0288316 2.58369 -3.51103e-20)
(-0.025553 2.59792 2.47665e-20)
(1.24305 0.274471 5.33264e-19)
(1.16385 0.0894258 0)
(0.043477 3.09142 -9.53122e-19)
(0.0520084 2.87406 -6.75236e-20)
(0.102815 3.20173 1.27505e-18)
(0.121135 3.21363 -2.71155e-19)
(0.140071 3.25561 0)
(0.0225016 3.13767 2.62158e-19)
(0.0607451 3.16195 9.49503e-19)
(0.0611602 3.17869 -4.90381e-19)
(0.0268073 3.12947 0)
(0.539075 0.290645 0)
(0.481699 0.302417 0)
(1.14286 0.727685 1.18191e-19)
(1.10719 0.863213 -1.02399e-19)
(1.20023 0.612985 0)
(1.2267 0.546709 0)
(1.01568 0.0120354 -1.16074e-18)
(1.01463 0.0127678 1.45948e-18)
(1.02578 -0.00871428 0)
(1.02411 -0.010281 0)
(1.00681 0.00328169 0)
(1.01088 0.00422279 0)
(1.00419 0.00221949 0)
(1.00932 0.00633897 0)
(1.00682 0.00503726 0)
(1.00436 0.00525316 0)
(0.108701 1.37793 0)
(0.0967642 1.33405 0)
(0.139442 1.42236 0)
(0.147778 1.40544 0)
(0.143698 2.61138 0)
(0.182963 2.68225 -4.11028e-19)
(0.0935362 2.65864 0)
(0.0856179 2.65367 1.75649e-19)
(0.0242661 2.67715 -1.51872e-19)
(0.0208149 1.33531 0)
(0.0310501 1.25249 0)
(0.0226725 1.34906 0)
(0.0488211 1.27215 0)
(-0.00172661 1.99323 4.3854e-20)
(-0.0218133 2.60795 -4.55909e-20)
(-0.00620428 2.67592 -4.01175e-20)
(-0.0188548 2.68741 0)
(-0.0246887 2.61395 4.48828e-20)
(-0.0234686 2.60948 4.77799e-20)
(0.00498054 1.98944 -3.37992e-20)
(-0.0107512 2.39829 6.11625e-20)
(-0.0148789 2.42364 4.54755e-20)
(1.01167 0.0401739 1.17642e-18)
(1.00434 0.0215047 -1.46574e-18)
(1.00349 0.0476614 -1.20217e-18)
(0.975675 0.0376649 1.51465e-18)
(1.06474 0.00929048 0)
(1.04995 -0.00641077 0)
(1.09272 0.0378824 0)
(1.07592 0.0151205 0)
(1.07469 0.000520678 0)
(1.14141 0.0798916 0)
(1.11587 0.046518 0)
(1.11933 0.0374816 0)
(-0.0318515 2.43002 4.19799e-21)
(-0.0234039 2.02548 0)
(-0.0237038 2.22039 0)
(-0.0225234 2.59883 -2.2496e-20)
(-0.0191003 2.60999 7.35831e-22)
(-0.00429586 1.59746 -6.21105e-20)
(-0.0151043 1.51957 6.34754e-20)
(-0.025075 1.41125 0)
(-0.0297841 1.41744 0)
(-0.0361375 1.40734 0)
(-0.00870893 1.33189 0)
(0.00757254 1.24646 0)
(0.386743 1.51759 2.79701e-19)
(0.435449 1.52178 1.5058e-19)
(0.590856 2.4615 -2.49555e-19)
(0.376935 2.55583 6.6426e-19)
(0.349919 2.04846 6.97005e-20)
(1.02072 -0.00798791 0)
(1.0158 -0.00934636 0)
(1.01486 -0.0132044 0)
(1.00775 -0.000546776 0)
(1.00484 -0.000689589 0)
(1.008 -0.00446561 0)
(1.00954 -0.00342891 0)
(1.01465 -0.00426653 0)
(1.01976 0.0164508 1.13908e-18)
(1.01714 0.0150647 -1.44728e-18)
(1.02011 0.0189415 -1.14799e-18)
(1.01751 0.017298 1.43902e-18)
(0.770305 1.3614 0)
(0.708966 1.39737 2.39461e-19)
(0.878426 1.24269 9.77597e-20)
(0.914753 1.20216 -1.29746e-19)
(1.16191 2.60721 2.91232e-19)
(0.747077 0.133069 5.90354e-19)
(1.17216 0.108357 0)
(1.21497 0.202936 -4.32924e-19)
(1.19654 0.154455 -1.80338e-20)
(1.0119 0.166964 0)
(0.0751989 3.01824 3.45501e-19)
(0.0813656 2.90316 -1.11974e-18)
(0.022765 2.36132 7.0923e-19)
(0.160053 -0.273195 -3.10287e-19)
(0.340351 3.44114 -2.48617e-19)
(0.191712 3.33748 0)
(0.222257 3.39278 3.23853e-19)
(0.219851 3.07553 -1.1981e-18)
(0.252467 3.1936 0)
(0.00646271 3.1224 4.9577e-20)
(0.0169123 3.13115 -5.71339e-19)
(0.0159219 3.12691 8.40907e-19)
(0.0329388 3.14007 0)
(0.0309506 3.14957 0)
(1.25379 2.57001 0)
(0.542252 0.789029 -5.25494e-19)
(1.02766 1.03742 -1.07318e-20)
(0.994364 1.09032 0)
(0.863215 0.972542 -1.08868e-19)
(1.08684 0.913016 2.67092e-20)
(0.290399 0.309255 -7.72679e-19)
(0.63113 0.327545 -2.35311e-20)
(0.514628 0.218004 3.95195e-19)
(0.519207 0.315625 2.81483e-20)
(0.383357 0.26544 -1.12367e-18)
(0.584854 0.3243 0)
(0.680355 0.439051 6.81273e-19)
(0.693755 0.452928 0)
(0.54704 0.320096 0)
(0.444736 0.245261 0)
(0.799814 0.659192 3.96148e-19)
(1.25468 0.308554 -4.33296e-19)
(1.24793 0.441022 0)
(1.24808 0.396067 0)
(0.683499 0.187553 6.00501e-19)
(0.847096 0.561169 -3.71994e-19)
(0.768683 0.521656 6.65034e-19)
(0.965284 0.45673 -6.69556e-19)
(1.0185 0.014776 7.75989e-19)
(1.01706 0.0136871 -7.80723e-19)
(1.01584 0.014263 0)
(1.03709 -0.00450525 0)
(1.03049 -0.00768534 -7.31551e-19)
(1.0287 -0.0105685 7.23956e-19)
(1.02475 0.0110305 0)
(1.02273 0.0151288 0)
(1.01271 0.004763 0)
(1.01458 0.0091007 0)
(1.01645 0.00427446 0)
(1.01558 0.00295228 0)
(0.0784346 1.36272 0)
(0.081861 1.30429 0)
(0.155699 1.42431 5.52964e-20)
(0.277179 1.4891 8.21058e-20)
(0.175468 1.46095 1.86171e-19)
(0.212923 1.45826 -3.00206e-19)
(0.1672 1.43695 0)
(0.146016 1.58718 -8.77456e-20)
(0.143567 1.5837 0)
(0.351649 1.9987 -1.01484e-19)
(0.323063 2.33701 6.21528e-19)
(0.199712 1.47007 7.64527e-20)
(0.276555 1.40368 2.2865e-20)
(0.207968 1.40313 -1.86156e-20)
(0.291167 1.34205 -9.33135e-20)
(0.254518 1.57667 0)
(0.269667 1.62115 1.01199e-19)
(0.0200502 2.24376 -1.37092e-20)
(0.038153 2.66958 0)
(0.0563323 2.3936 9.83427e-20)
(0.0473134 2.41861 0)
(0.0650375 2.67604 -2.10706e-19)
(0.043242 2.7035 0)
(0.0272972 1.46499 6.39225e-20)
(0.0310415 1.52145 0)
(0.0343657 1.4244 0)
(0.0267904 1.43351 -7.31792e-20)
(0.00379733 2.66094 5.13654e-21)
(0.0288601 2.68989 1.75123e-19)
(0.0115765 2.73363 8.94107e-22)
(0.00410593 1.84782 -2.90275e-20)
(-0.00369716 1.69992 -1.96289e-20)
(0.0174426 1.3156 0)
(0.0268462 1.22828 0)
(0.0393202 1.59336 -5.83584e-21)
(0.0422169 1.47391 -5.73414e-20)
(0.024948 1.55722 5.90884e-20)
(0.0533435 1.61632 0)
(-0.0322719 2.27059 1.35192e-19)
(-0.0356635 2.5471 -5.72586e-20)
(-0.021502 2.44796 1.0479e-20)
(-0.00449337 1.86407 3.51873e-20)
(-0.0294431 2.50284 1.49025e-20)
(-0.0234364 2.44501 -3.90964e-20)
(1.01808 0.0225856 -7.8059e-19)
(1.01504 0.0289325 7.84235e-19)
(1.01191 0.0181497 0)
(1.0099 0.071208 1.08917e-18)
(0.990369 0.0614769 -1.23046e-18)
(0.949117 0.0561275 1.37724e-18)
(1.01279 0.115619 -1.46044e-19)
(1.04403 -0.00464322 0)
(1.05224 -0.000381512 7.01209e-19)
(1.04033 -0.00815532 -7.00912e-19)
(1.07235 0.0439555 -4.15964e-20)
(1.06502 0.0291474 3.59275e-19)
(1.06415 0.0658965 0)
(1.05443 0.0551537 -1.29375e-19)
(1.03208 0.0439059 0)
(1.02612 0.0388278 0)
(1.02764 0.0136947 0)
(1.02404 0.0163794 0)
(1.04071 0.0339611 2.65895e-19)
(1.03942 0.0285901 -5.88332e-19)
(1.05304 0.0388283 -2.81326e-19)
(1.0482 0.038751 -3.10365e-19)
(1.07784 0.0707327 5.94234e-19)
(1.10183 0.0567862 0)
(1.10861 0.0956744 0)
(-0.0300345 2.27669 7.79026e-20)
(-0.0331679 2.03058 4.4364e-21)
(-0.0281919 2.04079 0)
(-0.0314152 2.44354 -7.75513e-20)
(-0.0296149 2.40234 -8.46109e-21)
(-0.0358867 2.46987 1.03025e-20)
(-0.0225027 2.62133 -4.07986e-20)
(-0.0279712 2.56351 2.308e-21)
(-0.0265233 2.51762 -1.36516e-20)
(-0.0181189 2.61394 2.58687e-20)
(-0.022199 2.61644 -3.0077e-20)
(-0.0131965 1.52422 -1.10842e-21)
(-0.00773401 1.64424 -6.42942e-20)
(0.378136 1.45355 -1.18523e-19)
(0.373701 1.38384 2.32199e-20)
(0.650171 1.44507 -2.31697e-19)
(0.525465 1.51467 -1.46243e-19)
(0.57948 1.47368 0)
(0.605642 2.41885 2.20647e-19)
(0.666247 2.42836 3.41766e-19)
(0.415829 2.51168 9.35257e-20)
(0.399024 2.53747 -6.18785e-19)
(0.501976 2.4754 5.74452e-19)
(0.553105 2.47165 0)
(0.484709 2.52191 -5.62334e-19)
(0.257401 2.59613 1.13097e-18)
(0.358161 2.5576 -6.8837e-20)
(0.283405 2.65365 -1.58544e-18)
(0.970705 2.38566 7.24564e-19)
(0.848061 2.3864 0)
(1.01142 0.00139991 2.54485e-20)
(1.01537 -0.00515413 -2.07925e-20)
(1.01779 -0.00388661 -3.80098e-19)
(1.01564 -0.00101509 3.78784e-19)
(1.01313 0.001854 0)
(0.638402 1.30646 0)
(0.68316 1.1918 0)
(0.798535 1.12219 0)
(0.670692 1.14864 0)
(1.19302 2.62268 5.16713e-20)
(1.08541 2.37399 0)
(0.815695 2.16348 3.68067e-21)
(0.820648 2.42647 0)
(0.915429 2.51712 -4.44965e-19)
(0.946798 2.46648 2.97082e-19)
(0.782518 0.166716 0)
(0.726204 0.145461 1.59377e-19)
(0.904411 0.1621 9.33501e-19)
(0.81493 0.14363 -3.49091e-19)
(0.75577 0.0902976 -1.07863e-18)
(1.08809 0.247739 -8.53966e-19)
(0.986477 0.317957 -1.01828e-20)
(0.92791 0.353584 8.2103e-19)
(1.01304 0.261965 7.01046e-19)
(0.931024 0.208554 -1.23074e-18)
(0.889021 0.221761 1.53812e-19)
(0.929093 0.318003 -3.21984e-19)
(0.904428 0.224936 0)
(0.999843 0.210038 6.02963e-19)
(1.05447 0.21895 0)
(1.05241 0.230051 0)
(1.12589 0.125554 2.71676e-19)
(1.06506 0.196028 -1.06307e-20)
(1.07955 0.249696 -1.55506e-19)
(1.11301 0.213022 0)
(1.02225 0.0484778 6.00509e-19)
(1.03679 0.0627136 7.49814e-19)
(1.03257 0.0461366 -5.96453e-19)
(1.04139 0.069424 -5.0275e-19)
(1.0151 0.076355 -7.69105e-19)
(0.984817 0.170017 0)
(0.988078 0.107869 0)
(0.96259 0.0746301 -4.90197e-19)
(0.897059 0.0991713 1.96017e-19)
(1.03879 0.116677 6.95148e-19)
(1.07619 0.137708 -7.94849e-19)
(1.07043 0.182311 7.14507e-19)
(1.03545 0.158002 0)
(1.08635 0.123629 0)
(1.0568 0.113243 -3.26259e-19)
(1.04246 0.109471 -5.65084e-19)
(0.587707 1.07954 1.23894e-19)
(0.608305 1.39697 -2.56726e-20)
(1.1433 2.71457 -2.54508e-19)
(1.19543 3.09893 4.64744e-21)
(1.25071 2.72322 -1.38048e-19)
(1.28967 2.69335 2.69672e-20)
(1.26435 2.31598 -3.83672e-20)
(1.18291 3.00406 -8.07782e-20)
(1.20275 2.96098 2.34385e-19)
(1.17677 3.25179 -1.18523e-19)
(1.39387 2.96489 1.48694e-19)
(1.40504 2.89938 0)
(0.579095 0.814236 -4.86155e-20)
(0.197623 1.2112 4.68475e-19)
(0.529844 0.322943 5.01484e-19)
(0.413092 0.0890586 5.70925e-19)
(0.44829 0.292712 6.36173e-19)
(0.545629 0.416186 -1.03441e-18)
(0.557106 0.397257 8.488e-19)
(0.451377 0.294073 -3.11994e-19)
(0.27609 0.23126 7.18186e-19)
(0.715684 0.259506 -3.46127e-19)
(0.65958 0.291289 0)
(0.592596 0.195624 7.97328e-21)
(0.729871 0.517128 3.60036e-19)
(0.701962 0.492243 -1.30533e-18)
(0.634109 0.43916 1.25011e-20)
(0.614052 0.41893 0)
(0.723362 0.720577 3.73968e-19)
(0.839252 0.802926 4.14021e-19)
(0.778172 0.853669 -4.8246e-19)
(0.908144 0.82475 -1.53487e-19)
(0.943132 0.867819 -3.59676e-20)
(0.950639 0.875352 3.68846e-20)
(0.883389 0.682359 -6.73913e-19)
(0.957063 0.728629 1.42697e-19)
(1.01313 0.732387 0)
(1.01179 0.707805 -1.82819e-19)
(1.0304 0.343355 2.12551e-19)
(1.15954 0.343082 2.5991e-19)
(1.07451 0.285607 3.49117e-19)
(1.00036 0.390404 -4.2514e-19)
(1.05823 0.491326 0)
(1.13989 0.431917 0)
(0.899351 0.42781 -3.45318e-22)
(0.845951 0.322599 0)
(0.893028 0.313209 3.91288e-19)
(0.914389 0.351986 2.82621e-21)
(0.988189 0.50286 1.87023e-18)
(0.921304 0.561353 4.82429e-19)
(0.944159 0.520033 -5.07632e-19)
(0.861135 0.495754 5.40812e-19)
(0.826429 0.470633 3.44666e-19)
(0.804449 0.450633 -3.37597e-19)
(1.0282 -0.000374417 6.28214e-19)
(1.02049 0.0006121 0)
(1.01912 0.00142405 4.09949e-19)
(1.02271 -0.00068608 -9.28028e-19)
(1.02259 0.00462561 4.52062e-19)
(1.02004 0.0116822 -9.46267e-19)
(1.02079 0.0115186 0)
(1.01969 0.0123068 -1.97027e-19)
(1.0166 0.00784579 4.93751e-19)
(1.01669 0.0109696 -2.4825e-19)
(1.0173 0.0106762 1.81812e-19)
(0.0374621 1.33733 0)
(0.0444802 1.40005 0)
(0.0563086 1.34127 0)
(0.0624864 1.27685 0)
(0.0875325 1.40853 -7.20741e-20)
(0.0927917 1.38019 1.76028e-20)
(0.0864328 1.57343 2.19693e-21)
(0.102274 1.41314 -3.90513e-20)
(0.0449153 1.48762 4.96084e-20)
(0.0507923 1.48157 -3.8992e-20)
(0.0784201 1.40142 -2.16726e-20)
(0.0660191 1.40318 7.18626e-20)
(0.0615538 1.38363 1.18983e-20)
(0.0474161 1.40327 8.34118e-21)
(0.102614 2.35802 -1.07614e-19)
(0.0883671 2.4053 0)
(0.155331 2.00406 8.99857e-20)
(0.130137 1.70074 3.24674e-20)
(0.219322 2.00471 -8.45804e-20)
(0.213367 2.41604 0)
(0.260425 2.36928 -5.74846e-19)
(0.292029 2.36735 4.20036e-19)
(0.253816 1.9805 -1.95693e-19)
(0.146196 2.14731 1.42778e-19)
(0.114541 2.25545 0)
(0.0122509 1.84704 -3.62286e-20)
(-0.00566425 2.36628 3.04912e-21)
(0.00336673 2.12239 0)
(0.003097 2.43008 -1.73135e-20)
(0.0187603 2.26276 2.87844e-20)
(0.0131564 1.4423 -1.31148e-20)
(0.0100111 1.42231 2.19223e-19)
(0.0081985 1.43285 -7.09407e-20)
(0.0224349 1.44226 -6.2403e-20)
(0.0243752 1.46854 0)
(0.00509194 1.41743 0)
(0.00170443 1.31614 -9.08059e-20)
(-0.00113499 1.40967 2.67074e-20)
(0.00656534 1.40764 0)
(0.0119042 1.3076 -6.90054e-20)
(0.0212754 1.21618 1.38326e-19)
(1.0425 0.0150758 0)
(1.04898 0.0105694 -6.55745e-20)
(1.03918 0.0245531 -4.74018e-19)
(1.04953 0.02345 0)
(1.0547 0.0227279 0)
(1.03638 0.0131088 -6.76532e-21)
(1.03015 0.0135245 7.64108e-19)
(1.03199 0.0175224 9.25965e-19)
(1.02563 0.0211792 0)
(1.02226 0.0217992 0)
(1.03569 0.025931 4.73055e-19)
(1.02609 0.0283008 0)
(1.02358 0.0283128 0)
(-0.0208171 2.03181 0)
(-0.0117341 1.67144 -2.47979e-21)
(-0.00949072 1.77398 -3.58353e-20)
(-0.00849979 1.41477 0)
(-0.0090451 1.57769 -3.78989e-20)
(-0.0182167 1.49108 2.28346e-20)
(-0.0171374 1.43158 0)
(0.402855 1.61886 0)
(0.368123 1.32221 -3.77515e-20)
(0.275864 1.34603 0)
(0.437642 1.32027 -2.6685e-20)
(0.473414 1.47951 0)
(0.459122 1.42128 3.60323e-20)
(1.03999 2.66611 -1.53963e-20)
(0.984951 2.4045 -9.10045e-19)
(0.947308 2.2057 1.01904e-18)
(0.864727 2.37841 2.45409e-19)
(0.852028 2.48262 0)
(0.9212 2.47738 0)
(0.954493 2.37845 0)
(0.930311 2.36951 -9.50032e-19)
(0.690622 2.44652 -3.86017e-19)
(0.799745 2.43031 -9.95168e-20)
(0.806903 2.40848 7.5005e-20)
(0.703566 2.39943 0)
(0.808825 2.39295 0)
(0.769314 2.40964 -3.70907e-19)
(0.764937 2.46132 0)
(0.633919 1.06968 0)
(0.514233 0.852544 -5.71292e-19)
(0.522938 0.929538 -3.33508e-20)
(0.501169 1.06636 0)
(0.488546 0.973042 8.72546e-19)
(0.805724 0.889121 -1.34723e-19)
(0.809152 1.02361 0)
(0.790626 1.00712 1.85413e-19)
(0.679085 1.02252 0)
(0.670525 0.92697 0)
(1.16183 2.75104 -2.24e-19)
(1.13704 2.80958 -9.28878e-20)
(0.921188 2.33218 8.12941e-20)
(0.89808 2.31295 -7.78889e-20)
(1.13151 2.72856 0)
(1.08368 2.69633 9.35339e-20)
(1.09884 2.49066 -2.99754e-19)
(1.00043 2.25032 -2.79715e-20)
(0.495627 1.32499 0)
(0.515984 1.0747 -1.09108e-19)
(0.596561 1.18502 0)
(0.846084 0.232238 0)
(0.75341 0.178213 0)
(0.658258 0.1419 0)
(0.854605 0.232163 -6.17187e-19)
(0.738944 0.228013 3.62011e-19)
(0.915178 0.0884831 -4.05708e-19)
(0.925193 0.137127 0)
(0.900277 0.146995 1.7521e-19)
(0.838191 0.111243 7.00891e-19)
(0.797343 0.0773427 -4.39566e-19)
(1.09284 3.34213 -6.62386e-19)
(1.1615 3.26614 0)
(1.1108 3.42667 -1.55562e-18)
(0.653578 3.57325 1.29351e-18)
(1.02082 3.0736 1.13232e-19)
(0.534169 0.772374 5.75116e-19)
(0.511485 0.738853 0)
(0.342026 0.321493 -1.43247e-19)
(0.496091 0.629334 8.55369e-19)
(0.568996 0.322018 -1.84285e-19)
(0.524435 0.454153 2.21511e-19)
(0.688544 0.530782 4.57373e-19)
(0.732068 0.568117 0)
(0.671349 0.56485 0)
(0.660429 0.538748 0)
(1.01947 0.616357 9.06829e-20)
(0.972508 0.598783 -4.67331e-19)
(0.982904 0.610684 3.5891e-19)
(1.04686 0.554482 -3.4505e-19)
(1.09251 0.522661 0)
(1.09516 0.604554 -9.13464e-20)
(0.886117 0.425323 -7.69636e-19)
(0.872475 0.409109 -9.96365e-19)
(0.800978 0.419863 6.07105e-19)
(0.812617 0.379331 -6.32432e-19)
(0.853017 0.334395 -4.98423e-19)
(0.796468 0.339896 6.10215e-19)
(1.0266 0.0067472 -4.73128e-19)
(1.02623 0.00686911 9.53479e-19)
(1.02999 0.000972141 6.08886e-19)
(1.0342 0.00160646 -7.3111e-19)
(1.03401 0.0119602 0)
(1.02978 0.0120706 -1.19638e-18)
(0.0860114 1.64519 9.6781e-21)
(0.0739718 1.60504 0)
(0.108155 1.6978 4.91315e-20)
(0.113865 1.67262 -4.29021e-20)
(0.0781848 1.57222 -3.95259e-21)
(0.0741052 1.57548 0)
(0.0083836 1.70697 0)
(-0.00668087 1.52764 2.02287e-20)
(-0.00558352 1.47128 -1.81791e-20)
(-0.012747 1.57537 3.36436e-21)
(-0.002077 1.89714 3.03359e-20)
(-0.0141698 1.95135 -1.20519e-20)
(0.493405 1.35786 -2.75228e-19)
(0.49624 1.35216 3.00873e-19)
(0.451932 1.31233 -1.9126e-20)
(0.428578 1.29019 8.27349e-21)
(0.6315 1.31341 0)
(0.557327 1.40805 1.0949e-19)
(0.558254 1.41086 -1.0663e-19)
(0.488178 1.30128 1.84577e-20)
(0.528526 1.25307 0)
(0.592916 1.21871 0)
(0.664356 2.41014 5.6833e-19)
(0.660132 2.44024 1.29192e-18)
(0.715097 2.45553 -8.88403e-19)
(0.612964 2.42752 -2.02528e-19)
(0.556543 2.52082 2.77805e-19)
(0.496849 2.48738 -7.17719e-19)
(0.992116 2.38333 -5.74306e-19)
(1.02331 2.40083 0)
(0.950271 2.18898 -6.26715e-19)
(1.05472 2.67734 0)
(1.05357 2.65815 0)
(0.596271 2.2835 -5.71933e-21)
(1.11561 3.06596 6.33104e-20)
(0.991728 2.96167 -1.09579e-19)
(0.314109 0.777786 0)
(0.309899 0.648961 -3.06155e-19)
(0.521229 0.58793 -3.11015e-19)
(0.357951 2.1246 0)
(0.400149 2.74372 -7.97278e-20)
(0.409217 2.47749 0)
(0.73085 0.688323 -7.96631e-19)
(0.798136 0.697617 1.11131e-18)
(0.800464 0.661952 -1.05429e-18)
(0.702558 0.646352 -1.00687e-19)
(0.758081 0.60714 -4.17766e-19)
(0.966448 2.74849 -4.79462e-20)
(1.01201 2.75684 -2.20873e-19)
(0.546297 2.19743 4.59486e-19)
(0.600192 1.72999 -3.61261e-19)
(0.699303 1.8486 -5.06952e-19)
(0.974105 2.38947 -1.39428e-19)
(0.974675 2.34265 3.76806e-19)
(0.640673 1.7556 3.42688e-20)
(0.447535 1.29066 1.79616e-19)
)
;

boundaryField
{
    wall-4
    {
        type            noSlip;
    }
    velocity-inlet-5
    {
        type            fixedValue;
        value           uniform (1 0 0);
    }
    velocity-inlet-6
    {
        type            fixedValue;
        value           uniform (0 3 0);
    }
    pressure-outlet-7
    {
        type            zeroGradient;
    }
    wall-8
    {
        type            noSlip;
    }
    frontAndBackPlanes
    {
        type            empty;
    }
}


// ************************************************************************* //
