/*--------------------------------*- C++ -*----------------------------------*\
  =========                 |
  \\      /  F ield         | OpenFOAM: The Open Source CFD Toolbox
   \\    /   O peration     | Website:  https://openfoam.org
    \\  /    A nd           | Version:  6
     \\/     M anipulation  |
\*---------------------------------------------------------------------------*/
FoamFile
{
    version     2.0;
    format      ascii;
    class       volScalarField;
    location    "69";
    object      p;
}
// * * * * * * * * * * * * * * * * * * * * * * * * * * * * * * * * * * * * * //

dimensions      [0 2 -2 0 0 0 0];

internalField   nonuniform List<scalar> 
918
(
0.534999
1.24009
0.00600169
0.534906
-0.0113525
1.20774
-0.501258
0.636764
0.516147
-0.123852
-0.0741059
0.517933
1.06515
0.832016
-1.16662
-0.0202464
0.631318
-0.416686
0.514184
-0.0747707
0.659671
0.522824
0.52529
0.516077
0.580431
0.786018
0.942639
-0.00358241
0.0101692
0.00498953
-0.0126858
-0.0330184
-0.0293205
1.09085
1.14279
1.16599
0.482677
0.317189
-0.396452
-0.450432
-0.429214
-0.519081
0.634955
0.634649
-0.224671
0.63848
0.640358
0.501849
0.515541
0.516377
0.517503
0.516407
0.517688
0.391978
-0.130545
-0.156485
-0.1097
-0.109287
0.0318352
-0.0771672
-0.0796123
-0.0725607
-0.0717549
0.431741
0.512226
0.509269
0.522655
0.530953
1.18026
1.15397
1.18004
1.09073
1.10822
1.04203
1.01492
0.853294
0.876548
0.814945
0.800973
-1.62291
-2.56942
-0.589554
-0.313366
-0.0104841
-0.0212831
-0.0195046
0.627011
0.629325
0.629321
0.632571
1.04124
-0.388694
-0.460448
0.514715
0.513236
0.522345
0.523248
0.51821
0.518211
-0.070919
-0.0697185
-0.0637087
-0.0740333
-0.0739712
0.649723
0.649022
0.515513
0.512957
0.538659
0.561672
0.549362
0.249236
0.589678
0.601636
0.648693
0.795168
0.782343
0.794938
0.918353
0.885704
0.974331
0.996014
0.0137006
-0.00126986
-0.0221605
-0.0212115
-0.0212421
0.478417
0.471978
0.49994
0.486296
0.489339
0.222426
0.0722214
0.399367
0.422979
-0.31997
-0.369569
-0.457159
-0.45552
-0.562479
0.601634
0.634634
0.634142
-0.236399
-0.163795
-0.291378
-0.106523
-0.163592
0.492798
0.499052
0.495125
0.510509
0.504677
0.507101
0.519612
0.516794
0.518389
0.450726
0.581502
0.30945
0.281214
-0.277906
-0.173802
-0.258436
-0.101331
-0.0998334
0.0427642
0.0721964
0.0185475
0.00595232
-0.092632
-0.0834204
-0.0886416
-0.06905
-0.0697247
0.423188
0.410132
0.44298
0.450505
0.499242
0.500767
0.505226
0.50314
0.966238
0.9892
0.995121
0.971338
-3.54645
-6.17803
0.0305725
0.189804
-0.00915131
-0.0105204
8.96169e-05
-0.00958432
-0.000456058
-0.00259598
-0.0275823
-0.027802
-0.0221827
-0.0230294
0.625251
0.626193
1.00745
1.03388
0.981552
0.955832
0.504044
0.505935
0.510565
0.507443
-0.069067
-0.0685409
-0.0686108
0.641533
0.646469
0.643835
0.207902
0.119075
0.300897
0.332107
0.619548
0.606198
0.616815
0.708902
0.747471
1.01233
1.03661
1.02054
1.03319
1.08406
1.10698
1.07237
0.456981
0.467907
0.462174
0.502905
0.500661
0.50163
0.498273
0.499075
0.497815
-0.0391211
-0.410764
0.472427
0.473801
0.46555
0.468769
0.688371
0.771943
0.630791
0.632766
0.633299
-0.0550158
-0.102233
0.239972
0.210736
0.362239
0.396861
0.378672
0.941462
0.901508
0.949808
0.925122
0.8896
0.914453
-0.346906
-2.10909
-1.10482
0.589819
0.393064
0.484692
-0.0106788
-0.0270052
-0.0236005
1.02373
1.06334
0.651549
0.844559
0.796346
0.770684
0.797409
0.859995
0.792179
0.827211
0.858303
0.834472
0.551605
0.482461
0.500092
0.847371
0.903102
0.0815657
0.00283649
-0.0203645
0.0968701
0.167982
0.135752
1.03954
0.956409
1.01899
0.513196
0.514146
-0.017363
-0.0399899
0.51826
0.517971
-0.0211633
-0.0113144
0.500616
-0.934346
0.083371
0.507779
0.497432
0.514261
-0.105197
0.324809
-0.0789149
0.013645
-0.0209127
0.509359
0.444065
0.401681
-0.00572119
-0.0292612
-0.0683602
-0.214018
0.510935
0.509295
0.513648
0.514466
0.515242
-0.0257937
-0.0258259
-0.0177107
-0.0622509
-0.0575803
-0.067504
0.477549
0.497926
-0.193929
0.51394
0.516042
0.51574
0.509941
0.514881
0.51351
-0.0213717
-0.0255678
-0.0269799
0.187975
0.328907
0.684556
0.759942
0.633089
0.466188
0.17334
0.621078
0.673393
0.598269
0.729172
0.630442
0.63533
0.150442
0.0071489
0.154882
0.0878393
0.504617
0.504053
0.494959
0.491827
0.509089
0.506764
0.511963
0.509191
0.512365
0.513516
-0.059623
-0.0900039
-0.106303
-0.147524
0.295954
0.550192
0.218192
0.246296
0.149546
-0.0710436
-0.0719676
-0.0753963
-0.0814334
-0.0372538
-0.0393086
0.00743201
0.0155618
-0.00171507
-0.0274727
-0.0440174
-0.0391132
-0.0459419
0.502606
0.502212
0.508322
0.517654
0.453688
0.457413
0.423734
0.442486
0.428648
0.368648
0.398341
0.375556
-0.0168247
-0.00660309
-0.00910928
-0.0293912
-0.0283689
-0.0497776
-0.0425397
-0.040541
-0.0371862
-0.0421547
-0.0625748
-0.0665599
-0.177671
-0.297482
0.952917
0.896479
0.135469
0.500838
0.506501
0.503671
0.508399
0.511597
0.512228
0.509796
0.506285
0.497969
0.499364
0.496201
0.497438
-0.132495
-0.241834
-0.0729499
-0.148868
0.14503
0.611139
0.336156
0.281125
0.266278
0.493751
0.695755
0.606717
0.663799
0.6433
-0.393522
0.00842812
-0.3266
0.220316
0.213554
0.711303
0.753011
0.770416
0.727222
0.683465
-0.0271296
0.54552
-0.0761697
-0.0249689
0.166162
0.0489202
0.632939
0.616178
0.623828
0.630802
0.638108
0.625405
0.611742
0.605494
0.627141
0.630521
0.489567
0.216334
0.173446
0.127521
0.616805
0.511914
0.561882
0.480451
0.500302
0.50268
0.501635
0.482342
0.489708
0.485363
0.492586
0.496312
0.503583
0.503778
0.499612
0.501532
-0.0821449
-0.0902037
-0.0724002
-0.128077
-0.132654
-0.176433
-0.0880234
0.0957374
0.0437339
0.228809
0.33884
0.0709435
-0.0553189
-0.0373035
0.0140144
0.179399
0.174545
0.0509744
0.15724
0.116934
0.109929
0.19695
0.218489
-0.0493
-0.0554318
-0.0568037
-0.0598722
-0.011588
0.101144
0.0790711
-0.0263531
-0.033636
-0.0662697
-0.0659716
-0.00750876
-0.0414715
-0.0330021
-0.0109767
-0.0570572
-0.0313906
-0.0212656
-0.0268557
-0.0290754
-0.0281339
0.497131
0.498688
0.499065
0.50675
0.519102
0.532373
0.501457
0.474943
0.46596
0.469061
0.442139
0.45138
0.446619
0.462436
0.484041
0.492694
0.490545
0.493272
0.475307
0.47705
0.462371
0.466966
0.436128
0.41736
0.407194
-0.0540256
-0.0213292
-0.0346419
-0.0476128
-0.022401
-0.0318865
-0.02933
-0.0105324
-0.0298534
-0.0254939
-0.0349262
-0.0402049
-0.0409813
-0.0794442
0.00264081
-0.181524
-0.229965
-0.283289
0.875785
1.01532
0.802132
0.561528
0.577725
0.822587
0.931206
0.534629
0.751469
0.759803
0.569571
0.859188
0.504766
0.504362
0.502235
0.501406
0.502392
-0.0209095
0.0827713
0.0942893
0.153601
0.269352
0.375029
0.306085
0.193165
0.325915
0.350263
0.607915
0.614596
0.571383
0.593694
0.593322
0.403312
0.484145
0.522185
0.478814
0.553803
0.586979
0.531646
0.575618
0.496164
0.445714
0.43715
0.392672
0.426961
0.408051
0.382473
0.49653
0.47326
0.484165
0.473812
0.495373
0.522096
0.52206
0.541429
0.560453
0.475297
0.421275
0.438327
0.467157
0.422853
0.44009
0.462033
0.180305
0.0830588
0.245744
-0.0816735
0.0042758
0.0438083
0.00102154
-0.0412179
0.265544
-0.37194
-0.318066
-0.995126
0.490186
0.838993
0.580798
0.592336
0.638451
0.626351
0.637159
0.643976
0.645243
0.604066
0.613193
0.618635
0.587557
0.609447
0.607267
0.614699
0.494467
0.39472
0.396606
0.32881
0.189073
0.230495
0.422542
0.354025
0.278808
0.270985
0.445532
0.310645
0.389964
0.440503
0.364013
0.299596
0.526213
0.57287
0.566951
0.538893
0.420097
0.452983
0.45555
0.50568
0.54854
0.573508
0.491152
0.497474
0.498382
0.495641
0.494001
0.497133
0.497419
0.49971
0.499884
0.502471
0.501943
-0.0754654
-0.0605157
-0.0776133
-0.0856794
-0.0210017
-0.0334129
-0.00277403
-0.036376
-0.0351797
-0.0332988
-0.0492033
-0.0642411
-0.0605517
-0.0495098
0.065653
0.0776595
0.0932096
0.0483968
0.26222
0.396962
0.486947
0.370599
0.205929
0.231293
0.298234
0.0141965
0.00814207
-0.00594465
0.0603855
0.0496984
-0.0602518
-0.0633667
-0.0602252
-0.0482937
-0.0415253
-0.0626296
-0.0620447
-0.0511928
-0.0593568
-0.0632847
-0.0658703
0.476594
0.469512
0.473069
0.465488
0.463685
0.480655
0.485329
0.486303
0.491826
0.4945
0.484002
0.489803
0.494008
-0.0299506
-0.0467792
-0.0471577
-0.0454345
-0.0447322
-0.0429737
-0.0463805
0.121195
0.0283568
0.0639732
-0.00598641
-0.13278
-0.0728484
0.494816
0.489099
0.477701
0.714141
0.550116
0.469149
0.568352
0.688733
0.268671
0.468157
0.303066
0.880943
0.787614
0.933228
0.548002
0.248397
0.416359
0.425255
0.267736
0.391174
0.33396
0.210113
0.245417
0.279578
0.362608
0.249112
0.228301
-0.0140783
0.167089
0.276987
0.259038
0.386254
0.443077
0.257786
0.173529
0.120199
0.59132
0.607575
0.615807
0.588513
0.6087
0.568368
0.557685
0.571771
0.581849
0.581752
-0.629997
-0.218375
-1.41821
-0.831537
-0.379952
0.517995
0.517962
0.743199
0.646964
0.662727
0.644746
0.588316
0.560286
0.602741
0.616457
0.318183
0.402789
0.390485
0.365579
0.311237
0.254304
0.526543
0.534774
0.558799
0.584635
0.559251
0.586954
0.48992
0.489774
0.488424
0.484672
0.483171
0.4865
0.0197918
-0.00692385
0.0266731
0.0149874
-0.00499513
-0.00457017
-0.0360139
-0.0475833
-0.0464368
-0.0438782
-0.034244
-0.0329562
0.166779
0.105035
0.0173972
0.0582885
-0.00867181
-0.0891948
-0.0925587
-0.00146723
0.0981334
0.079385
0.383617
0.651906
0.477454
0.642815
0.441847
0.539029
0.460149
0.433678
0.461386
0.365454
0.45565
0.0463331
-0.155368
-0.21039
0.814355
0.774462
0.555468
0.312245
0.194463
0.486632
0.509428
0.469609
0.495642
0.546547
0.528778
0.0176685
0.105422
0.191192
0.496721
0.274029
0.292288
0.282373
0.448485
0.417806
)
;

boundaryField
{
    wall-4
    {
        type            zeroGradient;
    }
    velocity-inlet-5
    {
        type            zeroGradient;
    }
    velocity-inlet-6
    {
        type            zeroGradient;
    }
    pressure-outlet-7
    {
        type            fixedValue;
        value           uniform 0;
    }
    wall-8
    {
        type            zeroGradient;
    }
    frontAndBackPlanes
    {
        type            empty;
    }
}


// ************************************************************************* //
