/*--------------------------------*- C++ -*----------------------------------*\
  =========                 |
  \\      /  F ield         | OpenFOAM: The Open Source CFD Toolbox
   \\    /   O peration     | Website:  https://openfoam.org
    \\  /    A nd           | Version:  6
     \\/     M anipulation  |
\*---------------------------------------------------------------------------*/
FoamFile
{
    version     2.0;
    format      ascii;
    class       surfaceScalarField;
    location    "69";
    object      phi;
}
// * * * * * * * * * * * * * * * * * * * * * * * * * * * * * * * * * * * * * //

dimensions      [0 3 -1 0 0 0 0];

internalField   nonuniform List<scalar> 
1300
(
3.75095
5.62643
-3.33485
3.75095
-7.76221
5.62643
-4.26938
4.26938
-0.408433
0.408433
1.87649
1.87447
-2.42498
2.42498
-1.81331
1.81331
-2.53051
2.53051
-5.24798
5.24798
-5.06915
5.06915
4.70104
-4.70104
-6.33383
6.33383
-0.964444
0.964444
-3.57243
3.57243
3.1725
-3.1725
-1.91061
1.91061
0.03048
-0.03048
-0.554085
4.30504
3.19687
3.19687
-1.99169
1.99169
-4.87371
4.87371
6.22199
-6.22199
5.2521
-5.2521
-1.91725
-2.49199
1.80199
-11.5012
-5.96022
-5.96022
-8.44103
8.44103
-2.8146
2.81183
2.94716
-2.94716
-1.72665
1.72665
-4.28506
0.015682
-4.28506
4.24048
0.0288977
4.24048
-0.504374
0.0959416
-0.504374
3.94277
-3.94277
0.319552
0.088881
0.319552
3.06727
-3.06727
-1.87686
3.75334
1.8741
-1.87209
6.17713
-1.87886
3.75333
-6.0772
6.0772
-2.67346
0.248481
-2.67346
2.19603
0.228951
2.19603
-6.88851
6.88851
-1.84888
0.0355658
-1.84888
1.82051
-0.00719769
1.82051
2.88793
-2.88793
-2.62772
0.0972098
-2.62772
2.3885
0.142011
2.3885
0.35349
5.27294
-5.97992
8.79175
-5.27294
0.0249642
5.21037
0.0376065
5.21037
-5.10535
0.0361996
-5.10535
5.01376
0.0553888
5.01376
4.7908
-0.08976
4.7908
-4.82016
0.119127
-4.82016
-3.36127
-4.0751
-6.49387
0.160038
-6.49387
-1.03298
0.068534
-1.03298
0.856839
0.107605
0.856839
-3.72166
3.72166
-3.92909
0.356665
-3.92909
3.12747
0.0450245
3.12747
1.86812
1.88283
5.61908
-5.61908
2.44658
-1.85132
-0.0592901
-1.85132
-1.98225
-3.26985
1.98225
-0.0716439
-0.187223
0.217703
-0.187223
3.15711
0.0397581
3.15711
2.22055
0.167953
-2.22055
0.228862
3.2997
-3.2997
1.32196
0.669729
1.32196
-5.55939
5.55939
4.96162
0.0521432
-4.96162
0.0879057
6.15705
0.0649468
6.15705
-6.20748
-0.0145126
-6.20748
2.48674
-4.97872
-2.6471
6.14705
0.186788
-6.14705
0.186826
2.91871
0.0284521
2.91871
-2.91959
2.91959
-2.98417
0.0370024
-2.98417
-2.14931
0.422663
-2.14931
1.41218
0.314473
1.41218
-4.19917
-0.0858939
-4.19917
-4.08757
0.158477
4.08757
0.152909
1.11689
-1.11689
-0.608022
0.103648
-0.608022
-4.04697
-0.152196
4.04697
-0.104199
-3.88441
-0.0583568
-3.88441
-3.02187
0.0377019
3.02187
0.0453992
3.11209
0.0450169
-3.11209
0.0448252
-1.87099
3.75382
-1.87996
3.75406
-5.69445
-0.382748
-5.69445
6.35884
-0.281647
6.35884
3.09998
0.472448
-3.09998
0.426523
2.02649
0.169538
2.02649
-6.86138
-0.0271305
-6.86138
6.89488
-0.00637304
6.89488
1.91415
0.112336
-1.91415
0.0652749
1.83119
-0.0106834
1.83119
2.91553
-0.0276008
2.91553
-2.88172
-0.0062019
-2.88172
2.79207
-2.79207
2.71632
0.0757453
-2.71632
0.0886038
-11.1241
11.1096
-0.0362716
-11.0879
5.1741
5.1741
4.24527
0.545522
4.24527
-5.01603
0.195865
-5.01603
2.66449
-5.31158
3.09824
-6.45951
4.67753
-16.1787
4.29739
-8.37249
6.7442
-6.7442
6.62569
0.11851
-6.62569
0.131822
-1.13443
0.101455
-1.13443
-3.12483
-0.596833
-3.12483
4.36506
-0.643394
4.36506
-3.02771
3.02771
-3.07643
0.0487132
3.07643
0.0510458
1.83475
-0.00355684
-1.83475
-0.0165674
0.234003
0.0855488
-0.234003
0.0467798
3.52106
-0.221362
3.52106
-3.09577
-0.203932
-3.09577
-1.22353
0.0890953
1.22353
0.098427
-5.80719
0.247798
-5.80719
-11.1814
0.0935629
-11.1438
-6.11392
-6.11392
2.32711
11.1189
-2.89706
0.0153388
2.89706
0.0216491
2.97529
0.0524215
-2.97529
0.0557056
-2.85889
0.0668162
2.85889
0.0606992
-2.5175
0.368184
-2.5175
-1.0264
1.0264
-1.17478
0.14838
1.17478
0.237398
1.41661
-0.299718
1.41661
0.740127
0.116712
-0.740127
0.132105
-3.8309
-0.0535175
-3.8309
6.5969
-0.23806
6.5969
-2.9669
-0.128862
2.9669
-0.0513766
-0.0349514
11.1446
-5.13915
0.0337969
5.13915
-11.2095
11.2433
-3.22338
0.70588
3.22338
1.0219
5.28533
0.274055
-5.28533
0.269307
6.83525
0.0596365
-6.83525
0.0910435
-2.63379
-0.491037
-2.63379
-5.0941
-0.600343
5.0941
-0.729046
-11.4815
-0.203279
11.6848
-11.4261
6.01047
0.146581
-6.01047
11.3899
-0.99525
-0.121638
0.99525
0.0311494
1.75597
-0.339368
1.75597
3.73706
-0.216001
-3.73706
-0.0938372
-6.75292
-0.108465
6.75292
-0.156013
-2.18476
-0.449028
2.18476
-0.428792
-4.26738
4.30713
1.90975
-2.33583
-2.6429
-5.60567
1.85525
1.89858
4.30182
-10.1667
-6.01201
-9.97989
7.2151
-6.9458
-9.33001
9.24025
7.92298
-7.98134
-5.77752
5.82856
6.4846
-6.4392
1.87941
1.87393
8.06101
-7.81253
-15.6759
15.2931
7.58387
-7.5483
15.8299
-15.857
-17.878
17.9376
-5.70225
5.79946
-6.74246
6.73626
-6.97897
6.92759
-2.79847
-3.66104
13.1376
-12.9776
8.58266
-8.64195
-8.66741
9.02408
3.3846
0.922535
3.42962
-1.88181
3.76123
-1.87151
3.78127
2.7466
-5.54508
2.56498
-5.20788
4.36549
4.21716
-4.29385
-1.31182
-5.92853
5.95699
-5.80887
5.86957
9.16906
-9.15338
-1.88498
3.75891
-1.86908
3.76766
-3.42308
-2.35444
3.37805
0.923773
8.08018
5.05746
-8.26696
-1.71292
-8.0225
7.8065
-8.21481
8.01088
-0.437118
5.83799
-5.40088
4.43659
-1.6534
7.4914
5.5617
5.75757
5.86081
-5.58675
1.08499
-6.48587
-6.39796
-2.30626
2.40991
2.19671
-2.10783
6.13522
1.78777
6.03102
-5.80188
-2.17946
-5.8554
3.8199
2.00866
3.86861
4.08206
2.40254
4.11976
3.02967
-3.03667
0.00699893
-3.05923
6.0889
0.722236
-5.41367
-4.4899
4.98899
3.07203
5.21794
-5.58823
-2.2243
-5.16171
-9.56732
-6.10854
-10.1677
10.0902
5.20294
9.80852
-11.9646
11.8086
4.87113
2.71274
4.86393
-4.95522
-2.59308
-4.88995
11.6828
-2.64878
-9.03402
-10.3352
-7.54279
10.3416
5.48828
10.9817
6.95597
11.0727
4.43151
7.25129
-9.9198
2.37701
-3.86583
-1.83641
-3.77723
3.65361
2.14585
3.79562
-4.21878
-2.52369
-4.20344
-4.29489
-2.68408
4.32249
2.41377
-4.41655
-3.79826
4.54541
2.38218
4.05636
-10.0684
4.31613
-7.97716
-9.21277
-3.76483
-9.08095
3.54268
2.60064
-6.14332
-2.0024
8.5221
-4.30494
7.21027
-5.20137
-3.44057
-5.21794
-6.95887
-1.70854
-6.80039
-8.93062
8.43958
-9.21056
8.56716
12.5234
-5.64009
-6.88326
-3.96699
-2.47222
3.92216
-0.492544
-3.71005
3.71705
0.0511777
3.83245
4.75498
4.26244
-3.88192
-1.92695
-3.82621
3.82082
2.04875
3.88763
6.84258
2.32648
6.87148
-6.60446
-2.54892
-6.69036
9.10587
-8.68321
2.79144
-2.70235
5.37338
2.6375
-5.15202
-2.87049
6.23782
-3.2079
-3.02992
-12.345
10.7997
1.54529
-4.85362
-0.417031
-0.447511
-5.57121
-3.7588
5.45209
0.305478
11.1052
7.34641
-5.51545
5.76325
6.16932
6.22146
-0.176501
5.89351
-5.18763
5.27228
-2.70672
-2.56556
5.47011
-5.62231
-1.22024
-5.53973
4.31948
0.408709
1.52167
-1.30396
-1.79673
-0.509538
-1.66462
1.22488
0.971827
1.31043
0.943838
1.46607
-2.92377
0.545812
2.37796
-1.97993
-1.56202
-3.79658
-1.15267
4.94925
5.72645
2.08005
-5.63262
-0.222781
2.57329
-2.46568
-0.817592
-2.97899
2.23265
-3.05024
-3.47512
-1.93305
5.40817
-3.36863
-0.457579
3.31621
0.552399
-3.82809
-2.10044
3.79109
0.328672
-3.12883
6.19026
-3.06143
-5.05579
2.52895
3.55995
4.53762
-4.79
2.44913
2.34087
-1.23005
4.26014
0.957797
4.42968
-7.06076
4.83646
5.73077
3.29331
-6.20322
1.04151
-6.01925
8.54939
-7.39696
-1.15243
4.09865
4.45074
7.01939
5.50397
-5.70935
12.7287
-1.16009
-6.23687
7.17934
-3.88604
4.86588
-8.75191
-10.3698
4.13297
-9.20413
11.0682
-1.86404
-3.60901
-8.35556
12.8131
-1.21489
-11.5982
8.59362
-4.33044
-4.38454
8.71498
-6.97922
6.97762
-2.00126
-4.97636
-10.1515
-5.70551
10.26
1.5486
-9.93662
12.3136
-2.68533
4.1605
0.703429
4.14982
3.35762
-5.48038
2.12276
3.6216
-5.62286
2.06271
-7.5431
-6.75905
12.1004
-5.34131
-10.5239
-9.55226
-0.971611
2.55263
9.761
-9.5086
7.44199
2.06661
3.29699
0.590645
-3.37273
-0.404498
0.239891
4.51004
-4.74993
4.03551
4.20346
3.21713
1.29292
3.84928
2.1077
-3.87093
-0.33251
-4.16836
1.48427
-1.75458
-3.69384
5.17811
-4.06172
0.367881
-2.74548
-3.49168
6.23716
-4.5819
3.03641
3.15385
5.08516
-4.9127
1.42102
-2.39046
-2.52224
2.6407
-4.39528
2.00032
3.17779
4.3825
0.584243
5.90728
6.19308
-8.50792
0.530755
11.2505
-9.53762
2.48006
8.59265
-9.92205
0.36979
-8.71116
0.977423
-5.28236
-5.16589
5.21892
-6.92747
-3.53299
6.24644
0.625038
-6.39935
-0.401043
-6.06832
-2.8623
-6.51734
-3.04488
-6.16567
-8.75423
-1.67708
-7.07716
6.7625
-6.71139
-3.45627
7.44044
1.12672
-7.48175
7.36012
-7.54053
7.20116
0.094889
3.62216
4.35733
1.88511
-2.39211
4.27721
-5.06996
7.39644
-8.73558
3.66561
4.22911
-6.77802
-4.50647
5.06113
4.04474
5.3756
8.92535
-10.3803
1.45492
-10.6546
11.9941
-1.33944
-16.436
5.78131
-7.51061
2.42989
0.361551
2.53135
0.547311
2.50736
-3.05467
-2.15504
-2.05661
-2.44135
-3.49546
5.93681
1.0655
-3.46973
2.40422
-3.57333
4.63883
-0.0669179
-3.40281
5.19857
-2.69122
5.56012
-3.64024
1.91988
3.5466
5.84416
-2.29756
4.42217
-1.78467
1.94377
-4.24133
-1.55168
-2.95345
5.09931
-3.28371
3.65159
-0.349373
4.00096
-4.04183
0.833926
-0.824701
3.37876
3.60762
4.33449
-3.04158
2.93675
-4.72142
-1.30458
-4.13717
-0.959383
-0.185503
-3.78595
3.97145
6.00761
-6.19311
-5.28412
9.52775
-4.24363
7.70564
-5.44127
-2.26436
-4.29374
-4.38947
3.92555
1.96796
9.67359
0.179518
-5.62079
-5.00811
-3.98622
3.09451
2.17777
-1.75112
3.29641
2.19863
-0.676968
0.394624
0.915807
1.76709
-1.37246
0.341377
1.42571
-0.962587
1.71462
0.858662
-1.83134
0.166715
-1.29083
3.52349
1.08712
-2.05895
0.686488
0.893028
-3.59974
5.07467
-2.7225
-2.35217
5.9677
1.14577
-3.86826
4.39396
-3.98525
2.43999
-3.59266
-1.42827
-5.41353
-3.62576
-2.48878
4.89301
-3.44802
5.52807
1.41788
-5.30529
6.72317
-3.63063
1.69759
-3.06228
3.92094
-1.00819
-2.05408
2.8822
2.52597
-3.12773
0.14874
-0.245527
2.42194
-2.66747
-0.628306
-2.60824
-4.57596
4.90463
-2.1038
4.55293
2.17342
-1.91752
6.47045
1.80775
-3.72527
-3.24803
-3.70561
-1.3844
3.15322
-0.598866
-4.29108
-5.57522
4.17875
0.250932
-7.06103
7.92664
-0.865615
-3.989
-0.847462
4.94611
-6.0998
0.476944
-4.03709
3.88955
4.84735
5.09828
-11.3626
-0.235691
-6.15961
1.11159
-7.2712
5.56233
-3.51034
7.64332
-10.3451
6.88885
-9.2184
6.49089
-0.780312
6.25558
-4.13282
2.77844
-8.48395
-6.93535
5.54272
-2.82998
6.24615
-3.19967
9.44582
-5.885
5.33589
4.10992
-1.04672
-4.17123
-5.31093
4.26421
0.0249645
4.17478
4.98703
-2.87932
4.65452
2.26445
-4.65491
-2.13083
-6.48774
1.83283
-3.33389
-1.9221
3.75494
3.16306
3.7537
1.23269
-3.3492
7.2375
-8.20911
-1.89619
-3.26971
5.28882
-1.02461
3.43411
-6.70382
-1.84825
4.74981
-0.727569
-4.02224
0.890285
-4.42327
1.67078
-6.09405
5.25669
-5.65774
2.25459
-9.7652
-5.22716
-5.19601
-2.27984
-5.26069
-7.58102
5.30118
-1.7997
5.56041
-8.52043
7.79286
-3.47365
8.77483
-5.46339
-1.05396
5.89218
1.30899
10.0838
0.158626
-4.6651
-1.93857
3.73934
-1.80077
1.15594
-3.62732
0.112015
2.48782
3.47987
-6.80731
0.0292832
-4.63581
-3.91102
7.95576
5.61673
11.6243
1.24407
9.14307
-1.18731
10.3871
4.18829
4.42568
-3.00888
4.4638
0.96257
4.62818
-0.898213
2.81809
1.63313
1.70167
0.764013
2.30368
1.30394
3.13761
0.0829376
-1.97367
4.63533
-8.62154
-0.985463
-8.07602
1.16424
5.42912
-4.26488
2.88256
-0.704786
1.08179
-0.162855
-1.22764
1.39049
-2.72842
-1.90461
-0.478897
-1.64971
2.33619
1.87378
-1.8573
-0.871118
0.332687
-3.95845
3.25998
-3.11124
-0.585267
6.13791
-2.89259
0.225125
-1.195
-2.38311
-2.89265
2.72593
6.17421
0.296238
3.11279
5.20087
3.10043
0.221103
3.81777
-5.68181
-3.72533
-5.9175
-0.35517
4.59094
1.75002
8.01098
5.85994
4.83533
-1.86848
-10.0776
6.5094
-2.0456
5.16996
-1.14772
-4.94633
5.07223
2.32421
-5.69727
0.039531
-4.9068
-6.9524
-0.48085
8.27371
-9.60297
8.54901
5.68671
1.39045
-4.4392
-0.756808
4.29082
0.134861
10.522
-0.910552
-7.06365
7.9742
-4.51857
3.5331
0.678694
2.61772
2.06919
1.3644
-5.69925
-9.96413
-2.05918
-1.54057
-4.41135
0.537906
-2.41169
6.074
-2.54089
3.80963
5.4333
6.51509
-2.04915
-4.14396
6.29277
-2.48314
4.03195
)
;

boundaryField
{
    wall-4
    {
        type            calculated;
        value           uniform 0;
    }
    velocity-inlet-5
    {
        type            calculated;
        value           uniform -3.75095;
    }
    velocity-inlet-6
    {
        type            calculated;
        value           uniform -5.62643;
    }
    pressure-outlet-7
    {
        type            calculated;
        value           nonuniform List<scalar> 8(3.33485 7.76221 4.40924 9.6992 7.43637 5.13384 5.76272 8.97492);
    }
    wall-8
    {
        type            calculated;
        value           uniform 0;
    }
    frontAndBackPlanes
    {
        type            empty;
        value           nonuniform 0();
    }
}


// ************************************************************************* //
