/*--------------------------------*- C++ -*----------------------------------*\
  =========                 |
  \\      /  F ield         | OpenFOAM: The Open Source CFD Toolbox
   \\    /   O peration     | Website:  https://openfoam.org
    \\  /    A nd           | Version:  6
     \\/     M anipulation  |
\*---------------------------------------------------------------------------*/
FoamFile
{
    version     2.0;
    format      ascii;
    class       volVectorField;
    location    "69";
    object      U;
}
// * * * * * * * * * * * * * * * * * * * * * * * * * * * * * * * * * * * * * //

dimensions      [0 1 -1 0 0 0 0];

internalField   nonuniform List<vector> 
918
(
(0.985049 -0.0007148 0)
(0.00534152 2.96624 0)
(-0.00241312 0.880896 0)
(0.979575 0.00196176 0)
(-0.0137507 2.06539 3.25614e-20)
(-0.00709446 2.94855 -2.58866e-18)
(0.817315 1.11987 4.42725e-19)
(0.125118 0.0724715 -1.41862e-20)
(0.999922 -0.000244663 0)
(0.0911325 0.659659 0)
(0.0110053 0.394799 0)
(0.734505 -0.00290629 0)
(0.0102017 2.93158 0)
(0.00338398 2.79439 0)
(-0.00221735 3.18053 8.24223e-19)
(-0.0137932 1.92629 1.951e-20)
(0.294113 0.0360239 9.84599e-19)
(0.23218 1.10741 3.5146e-19)
(0.964354 0.00674286 0)
(-0.000629928 0.400998 0)
(0.0143125 0.0624498 -6.636e-19)
(1.00183 -0.00456021 0)
(0.999851 -0.00892714 0)
(0.975167 -0.0060521 0)
(0.592402 0.0153639 0)
(0.0214451 2.64371 0)
(-0.0123406 2.91192 9.48592e-19)
(-0.00579593 0.933765 0)
(-0.0307659 1.16867 0)
(-0.003917 0.903839 0)
(-0.0224181 2.59396 0)
(-0.00467281 2.11601 -2.60079e-20)
(-0.00979867 1.89919 0)
(-0.0221529 2.9876 -9.3351e-23)
(-0.0164921 3.0055 2.01142e-18)
(0.00231053 3.00059 0)
(0.871926 -0.00975313 0)
(0.375713 0.915326 1.65729e-19)
(0.816212 1.13811 -5.5268e-19)
(0.948878 1.00381 5.63694e-19)
(0.679164 1.22089 -1.01479e-19)
(0.692555 1.18203 5.79169e-19)
(0.155546 0.131746 1.3839e-20)
(0.15045 0.0731457 0)
(1.16338 0.531166 0)
(0.12858 0.113534 6.27771e-20)
(0.10288 0.0614159 -6.51445e-20)
(0.920549 -0.00704743 0)
(1.00026 5.87758e-05 0)
(0.999908 0.00032029 0)
(1.0037 -0.00728123 0)
(1.00088 -0.000947208 0)
(1.00011 -6.45505e-06 0)
(0.0918695 1.84523 -7.42829e-19)
(0.0319242 0.855541 0)
(0.124412 0.750344 0)
(0.0175987 0.798795 0)
(0.0521889 0.577692 0)
(0.0044119 2.03032 0)
(-0.00848138 0.723711 0)
(0.00606847 0.417044 0)
(-0.00537395 0.720504 0)
(0.0103041 0.397088 0)
(0.843516 -0.0156423 0)
(0.840243 0.0297035 0)
(0.759764 -0.00213857 0)
(0.797699 0.0376402 0)
(0.704071 -0.00103167 0)
(0.0139563 3.0002 9.61017e-19)
(0.0111823 3.00599 0)
(0.00626984 3.00388 0)
(0.011874 2.99711 1.09189e-23)
(0.00827768 2.95872 -1.42831e-18)
(0.0121862 2.98288 0)
(0.00901399 2.9049 0)
(0.0210772 2.93133 2.21991e-24)
(0.00413828 2.8243 0)
(0.0262289 2.91889 0)
(-0.00072361 2.74522 0)
(0.306258 3.57613 0)
(-0.122324 3.65897 0)
(0.149544 3.27133 -7.67088e-19)
(0.00345572 3.0083 0)
(-0.0297956 1.99012 0)
(-0.00727281 2.1788 -1.92423e-20)
(-0.00962727 1.93834 1.90332e-20)
(0.352834 0.140016 -3.42105e-19)
(0.317912 0.00777024 -3.32656e-19)
(0.305594 0.158448 -1.02199e-18)
(0.258187 0.0556853 -6.6504e-19)
(0.263966 1.02164 0)
(0.331181 1.23821 -3.63546e-19)
(0.412978 1.14972 5.9998e-19)
(0.987735 0.00815275 0)
(0.943257 0.00578553 0)
(1.00028 0.000671601 0)
(1.00254 0.00906617 0)
(1.00311 0.0089887 -2.63261e-18)
(0.992136 0.00942236 1.98932e-18)
(-0.0210079 0.739317 0)
(0.00161391 0.410186 0)
(-0.0512419 1.01842 0)
(-0.0293571 0.792889 0)
(-0.00866706 0.402474 0)
(-0.0304238 0.11375 2.05768e-19)
(0.0572397 0.0670435 0)
(0.993624 -0.00769354 0)
(0.954047 -0.00648411 0)
(0.743492 0.0363787 0)
(0.671501 0.0201314 0)
(0.658232 0.0190828 0)
(0.97966 -0.00271574 0)
(0.591514 0.0717131 0)
(0.449493 -0.0234241 1.48955e-18)
(-0.0405855 2.86065 7.46119e-19)
(0.0336041 2.91445 0)
(0.0427855 2.89239 0)
(0.00312361 2.70197 0)
(-0.00869925 2.98625 9.07977e-19)
(-0.0141893 2.89465 0)
(-0.0111023 2.99162 -2.7952e-18)
(-0.0116124 2.92949 9.51859e-19)
(-0.0435412 1.34394 0)
(-0.014729 1.37206 0)
(-0.00778307 2.1404 7.33699e-22)
(-0.00764064 2.0998 0)
(-0.017266 1.91021 0)
(0.938872 -0.0052059 0)
(0.857273 -0.0111435 0)
(0.863434 0.00468415 0)
(0.949663 -0.00614562 0)
(0.883668 -0.00808546 0)
(0.499311 1.11538 -2.10372e-19)
(0.546592 1.18528 0)
(0.33762 0.849915 3.20995e-20)
(0.282017 0.714403 0)
(0.916853 1.03412 -1.59092e-19)
(1.03921 0.844404 3.19841e-19)
(0.39097 1.31675 0)
(0.541972 1.27236 0)
(0.595385 1.19968 0)
(0.103508 0.181479 -2.98745e-19)
(0.178305 0.145743 0)
(0.170288 0.0864847 1.84831e-19)
(1.00245 0.898484 0)
(1.0783 0.746721 0)
(1.1078 0.681995 -2.55952e-19)
(1.14475 0.593178 0)
(1.20063 0.391238 4.70205e-20)
(0.957498 -0.00710085 0)
(0.962723 -0.00811045 0)
(0.900911 -0.00736948 0)
(0.983928 -0.00812389 0)
(0.974425 -0.00803198 0)
(0.936543 -0.00656951 0)
(1.0002 0.00250413 0)
(1.00077 0.00123899 0)
(1 0.000761497 0)
(0.0438725 2.0882 4.14223e-19)
(0.144125 1.78921 0)
(0.0189721 2.204 6.2489e-19)
(0.0522283 1.89395 -5.21115e-19)
(0.166108 1.08375 -2.8843e-19)
(0.0502185 0.938793 0)
(0.12071 0.938021 0)
(0.00353904 0.762531 0)
(0.0256526 0.510601 0)
(-0.00308923 2.25813 -4.44683e-22)
(0.0191355 2.03568 0)
(-0.00482675 2.25946 -1.06747e-20)
(0.00271486 2.04243 8.59139e-21)
(-0.00620185 0.737092 0)
(-0.00955202 0.724131 0)
(0.00877347 0.454301 0)
(-0.0158163 0.72099 0)
(0.00781495 0.401917 0)
(0.939423 0.0138308 0)
(0.856266 -0.0115979 0)
(0.928615 0.00484862 0)
(0.846182 -0.0127814 0)
(0.812047 -0.00360064 0)
(0.897572 0.0236572 0)
(0.87359 0.0267484 0)
(0.78597 -0.0049212 0)
(0.0102708 3.06728 -8.94959e-21)
(0.0152538 3.05903 0)
(0.0123299 2.97034 0)
(0.00757605 2.87659 0)
(0.896118 3.97057 0)
(1.19026 3.36665 9.37321e-19)
(0.0810119 3.09084 0)
(-0.0175016 2.91841 0)
(-0.015324 1.39824 0)
(-0.0348948 1.69584 0)
(-0.0237135 1.53087 0)
(-0.0328841 2.55407 -1.39232e-20)
(-0.0175924 2.24791 0)
(-0.02242 2.3933 0)
(-0.000973583 1.96764 3.48384e-22)
(-0.00536519 2.25329 -2.41227e-20)
(-0.00627667 2.21647 -1.95434e-20)
(-0.00597696 1.95211 0)
(0.392132 0.118436 5.25063e-19)
(0.352168 0.00117379 -5.15147e-19)
(0.231941 1.59074 0)
(0.287967 0.766181 -3.2382e-19)
(0.178732 1.68812 -1.06654e-18)
(0.243966 1.22682 1.06754e-18)
(0.901695 0.00590873 0)
(0.967059 0.0106591 0)
(0.97491 0.0098493 0)
(0.923001 0.00588237 0)
(-0.0195196 0.729927 0)
(-0.0176517 0.732529 0)
(0.00213008 0.402288 0)
(0.10386 0.104496 5.78272e-19)
(0.0868902 0.0877567 -6.84337e-19)
(0.0664373 0.0569896 0)
(1.10674 0.0903474 2.39726e-20)
(1.09039 0.0425066 0)
(1.01852 0.0436762 0)
(0.913649 -0.00156946 0)
(0.440551 0.0947646 0)
(0.50169 0.0794851 -2.38334e-18)
(0.394097 -0.00232762 8.93771e-19)
(0.0107126 2.97703 7.90624e-19)
(-0.0331451 2.86131 4.56311e-20)
(0.0081779 3.05344 -1.88829e-20)
(0.0157236 3.04317 7.07472e-19)
(-0.0118791 3.00004 3.12964e-20)
(-0.012274 2.9523 -1.26238e-22)
(-0.0150367 3.01331 -5.84451e-19)
(0.0144486 3.0265 4.12409e-19)
(0.00759015 3.03498 -6.70576e-19)
(0.934711 0.00212881 0)
(0.939505 -0.0011191 0)
(0.848132 -0.0111751 0)
(0.956334 0.0118027 0)
(0.942356 0.0134039 0)
(0.881699 0.00536714 0)
(0.915016 0.0193343 0)
(0.924996 0.0156134 0)
(0.838006 0.000542529 0)
(0.67205 1.41393 1.57944e-20)
(0.690082 1.52446 0)
(0.118794 0.292679 6.78174e-20)
(0.212956 0.653828 5.36165e-19)
(0.240279 0.693383 -3.14742e-19)
(0.215052 0.496796 6.24704e-19)
(0.340016 0.831858 1.5809e-18)
(0.134933 0.236789 3.79505e-19)
(0.260646 0.170875 7.05405e-19)
(0.215483 0.164325 1.81824e-19)
(0.218725 0.0771948 3.4645e-19)
(1.1922 0.446093 9.36233e-20)
(1.21758 0.245672 9.13667e-20)
(0.00887663 2.2458 2.42254e-19)
(0.0397895 1.95696 0)
(0.972778 0.0330121 0)
(0.94674 0.0192086 0)
(0.871023 -0.0152476 0)
(0.0124347 3.07486 0)
(0.0168757 2.94402 1.25058e-18)
(0.0139829 2.95693 0)
(0.00583421 2.84986 -1.24117e-18)
(0.00898984 3.09042 3.05531e-19)
(0.0118147 3.08286 0)
(0.709923 1.82071 -1.70776e-19)
(1.23469 2.62557 5.77366e-19)
(0.694703 1.99876 -1.39533e-18)
(0.0222674 2.97648 -6.87863e-19)
(0.0403575 2.99853 0)
(-0.0383171 2.87912 0)
(-0.00628925 2.2383 -1.27737e-20)
(-0.00501463 2.25864 4.60173e-20)
(-0.000560171 2.0036 -7.03738e-21)
(0.267935 1.40309 1.02848e-18)
(0.286931 0.569278 -7.06154e-19)
(0.0731709 2.00434 7.51728e-19)
(0.120737 1.87587 -9.08347e-19)
(0.207239 1.53783 1.05176e-19)
(0.00589671 3.12038 -1.70001e-18)
(0.0129672 3.12081 1.87079e-18)
(-0.00517851 2.98055 8.49859e-19)
(-0.00159755 2.97518 -8.14643e-19)
(-0.017637 2.87725 -8.65616e-19)
(0.0122881 3.10045 -2.27068e-18)
(0.00544655 3.10524 2.30281e-18)
(0.266881 0.69861 0)
(0.218288 0.659507 -1.14305e-18)
(0.0741579 0.212652 5.02948e-19)
(0.346716 0.951878 1.12289e-18)
(0.199361 0.28119 -1.72939e-18)
(1.19704 0.175799 4.79593e-20)
(1.21429 0.304867 0)
(1.19252 0.12105 9.03109e-21)
(-0.00103371 2.2658 -1.2311e-21)
(0.00359633 2.251 0)
(0.0310537 1.99315 0)
(0.313248 1.31873 -3.68898e-19)
(0.354065 1.1781 -8.00188e-19)
(0.232803 0.392269 1.43133e-18)
(1.00644 -0.00968383 0)
(1.00774 -0.00778542 4.83887e-19)
(-0.0382096 1.32625 0)
(-0.0464527 1.33032 0)
(1.00244 0.00327305 1.34204e-21)
(1.0032 0.00781323 9.93375e-19)
(-0.0240739 2.54031 1.76406e-20)
(-0.0272485 2.58298 0)
(0.0403895 3.1729 4.88846e-19)
(0.374641 3.54162 0)
(1.15755 0.692374 -5.08386e-20)
(1.01181 0.0106575 -2.83729e-21)
(1.02086 -0.00901129 0)
(1.00158 0.000279685 1.56121e-22)
(0.118331 1.3744 0)
(0.142555 2.58686 0)
(0.0178123 1.32421 0)
(-0.000683167 2.63438 -6.47084e-22)
(-0.0214539 2.58333 -7.85908e-21)
(0.998214 0.0294965 3.00718e-21)
(1.063 0.00586455 0)
(1.10011 0.028497 0)
(-0.0333398 1.74312 0)
(-0.0192545 2.5838 0)
(-0.0121849 1.31796 0)
(0.309267 1.48867 -1.7164e-19)
(1.01151 -0.0090586 0)
(1.00971 -0.0129866 0)
(1.00227 0.000938963 6.19813e-19)
(1.00548 -0.00491321 -7.30532e-19)
(1.00113 -0.000864217 0)
(-0.0214024 1.46399 0)
(-0.0100378 1.38549 0)
(-0.0164424 1.4257 0)
(-0.0147336 1.30496 0)
(-0.0279521 1.29429 0)
(-0.0210568 1.27388 0)
(1.03565 -0.00430643 0)
(1.01881 0.0150797 -9.13855e-22)
(0.811149 1.31041 2.79361e-19)
(1.00243 0.000383915 -6.19258e-19)
(1.00339 0.00445113 7.39244e-19)
(1.00126 0.00209519 0)
(1.01111 0.00963111 6.1686e-19)
(1.00685 0.00745563 -7.50817e-19)
(1.00714 0.0111249 0)
(-0.0242169 2.61148 0)
(-0.0274223 2.59093 -2.98213e-20)
(-0.0243304 2.60489 2.09836e-20)
(1.24178 0.272988 5.22129e-19)
(1.16333 0.0890087 0)
(0.0442676 3.091 -9.72342e-19)
(0.0519024 2.87346 -6.88221e-20)
(0.103452 3.20188 1.2991e-18)
(0.121704 3.21388 -2.78448e-19)
(0.141562 3.25763 0)
(0.022927 3.13792 2.67409e-19)
(0.0614497 3.16188 9.68604e-19)
(0.0616138 3.17901 -5.0014e-19)
(0.0274777 3.12923 0)
(0.572176 0.290601 0)
(0.5159 0.307721 0)
(1.13917 0.723624 1.14297e-19)
(1.10433 0.85968 -9.76923e-20)
(1.19717 0.609092 0)
(1.22408 0.543923 0)
(1.01572 0.0120246 -1.14591e-18)
(1.01469 0.0127618 1.44077e-18)
(1.02573 -0.00873211 0)
(1.02407 -0.0102976 0)
(1.00677 0.0031959 0)
(1.01089 0.00420784 0)
(1.00423 0.00221017 0)
(1.00938 0.00635603 0)
(1.00686 0.0050428 0)
(1.0044 0.00526594 0)
(0.107581 1.37434 0)
(0.0957203 1.33372 0)
(0.141094 1.41893 0)
(0.147469 1.4019 0)
(0.150497 2.6089 0)
(0.188051 2.67568 -4.12375e-19)
(0.109527 2.67029 0)
(0.080837 2.66991 1.67822e-19)
(0.0281971 2.67714 -1.60386e-19)
(0.0112513 1.32443 0)
(0.0196926 1.25433 0)
(0.0199751 1.33668 0)
(0.0358632 1.27449 0)
(-0.000489866 1.99552 3.30886e-20)
(-0.0211713 2.61142 -3.57772e-20)
(-0.00667778 2.6767 -2.49071e-20)
(-0.0187907 2.68973 0)
(-0.0236386 2.61785 2.62305e-20)
(-0.0223794 2.61331 3.56537e-20)
(0.00681923 1.99239 -2.52567e-20)
(-0.00921353 2.40267 4.79999e-20)
(-0.0141441 2.42651 2.8235e-20)
(1.01043 0.04005 1.16145e-18)
(1.00434 0.0202977 -1.44715e-18)
(1.00347 0.046794 -1.19043e-18)
(0.973631 0.0374457 1.49914e-18)
(1.06465 0.00918629 0)
(1.04988 -0.0064587 0)
(1.0926 0.0375796 0)
(1.07577 0.0149674 0)
(1.07453 0.000582551 0)
(1.14118 0.0792613 0)
(1.11563 0.0461127 0)
(1.11882 0.0374393 0)
(-0.0293583 2.43499 3.31582e-21)
(-0.0198018 2.02209 0)
(-0.0203803 2.22141 0)
(-0.0213755 2.60463 -1.79674e-20)
(-0.0182437 2.61541 5.63941e-22)
(-0.00135564 1.58492 -5.29597e-20)
(-0.0104148 1.50762 5.40949e-20)
(-0.0205294 1.39846 0)
(-0.0245612 1.40434 0)
(-0.0314516 1.3956 0)
(-0.00863948 1.3196 0)
(0.00220382 1.2453 0)
(0.385624 1.51322 2.85432e-19)
(0.434223 1.51713 1.52439e-19)
(0.593213 2.46694 -2.48551e-19)
(0.385047 2.5553 7.22989e-19)
(0.350321 2.05239 6.93896e-20)
(1.0207 -0.00800977 0)
(1.01579 -0.00936278 0)
(1.01484 -0.0132188 0)
(1.00772 -0.000565853 0)
(1.00486 -0.000675552 0)
(1.00799 -0.00448092 0)
(1.00954 -0.00344551 0)
(1.01465 -0.00429101 0)
(1.01954 0.0162212 1.12491e-18)
(1.01719 0.0147117 -1.42252e-18)
(1.01988 0.018582 -1.13394e-18)
(1.01732 0.0164381 1.42149e-18)
(0.767611 1.3574 0)
(0.706581 1.39255 2.44121e-19)
(0.874542 1.23831 1.00196e-19)
(0.91204 1.19759 -1.3298e-19)
(1.16491 2.61331 2.7581e-19)
(0.747688 0.128409 5.82928e-19)
(1.1716 0.107383 0)
(1.21404 0.20159 -4.23733e-19)
(1.19523 0.154104 -1.76236e-20)
(1.01288 0.165093 0)
(0.0773974 3.01852 3.48952e-19)
(0.0829219 2.90258 -1.14484e-18)
(0.0254782 2.3581 7.24528e-19)
(0.145586 -0.245178 -3.32034e-19)
(0.342569 3.44543 -2.49231e-19)
(0.193118 3.34012 0)
(0.223976 3.39693 3.24653e-19)
(0.222511 3.07653 -1.21212e-18)
(0.255469 3.19553 0)
(0.00714088 3.12236 5.04558e-20)
(0.017279 3.13115 -5.80971e-19)
(0.0165461 3.12702 8.55096e-19)
(0.0336196 3.14003 0)
(0.0315448 3.14979 0)
(1.25824 2.5774 0)
(0.534335 0.789758 -5.24667e-19)
(1.02474 1.03317 -1.22496e-20)
(0.990054 1.08615 0)
(0.858808 0.969444 -1.06288e-19)
(1.08258 0.90854 2.65997e-20)
(0.336138 0.309167 -8.19836e-19)
(0.654066 0.322404 -2.19357e-20)
(0.542424 0.220829 3.90876e-19)
(0.548149 0.323015 2.84713e-20)
(0.434175 0.275523 -1.13995e-18)
(0.612059 0.321734 0)
(0.695427 0.425778 6.55257e-19)
(0.698414 0.432208 0)
(0.583231 0.328975 0)
(0.496707 0.254651 0)
(0.798398 0.653228 3.9336e-19)
(1.25299 0.306672 -4.24619e-19)
(1.2456 0.438196 0)
(1.24595 0.394027 0)
(0.689631 0.186694 5.95942e-19)
(0.847219 0.556301 -3.69863e-19)
(0.768286 0.519196 6.60866e-19)
(0.966367 0.451115 -6.66385e-19)
(1.01838 0.0146537 7.62399e-19)
(1.01707 0.013632 -7.69478e-19)
(1.01598 0.0141464 0)
(1.03704 -0.00452903 0)
(1.03045 -0.0077008 -7.21997e-19)
(1.02865 -0.0105793 7.14497e-19)
(1.02474 0.0109777 0)
(1.02268 0.0150906 0)
(1.0127 0.0047023 0)
(1.01456 0.00910259 0)
(1.01637 0.00422457 0)
(1.01555 0.00291757 0)
(0.0773044 1.36166 0)
(0.0795899 1.3046 0)
(0.15515 1.42108 5.81381e-20)
(0.276881 1.48474 8.35026e-20)
(0.176255 1.45605 1.87999e-19)
(0.212792 1.45368 -3.03803e-19)
(0.162975 1.43324 0)
(0.142934 1.58271 -9.26223e-20)
(0.139057 1.58105 0)
(0.349641 2.00624 -1.01012e-19)
(0.31775 2.34343 5.60928e-19)
(0.195878 1.46557 8.07131e-20)
(0.275661 1.39911 2.44253e-20)
(0.204729 1.39875 -1.99058e-20)
(0.289634 1.33772 -8.72779e-20)
(0.259064 1.57828 0)
(0.26523 1.62647 9.60525e-20)
(0.0230636 2.25351 -1.53111e-20)
(0.0386672 2.67002 0)
(0.0626427 2.40485 9.67623e-20)
(0.0579282 2.42971 0)
(0.0676416 2.6881 -1.86308e-19)
(0.0425952 2.70423 0)
(0.0236637 1.45336 5.53503e-20)
(0.0321667 1.51074 0)
(0.0277547 1.41609 0)
(0.0183966 1.42492 -6.31261e-20)
(0.00247885 2.66162 -5.37088e-23)
(0.0271838 2.69337 1.83672e-19)
(0.01022 2.73341 9.8145e-22)
(0.00197187 1.84501 -1.98881e-20)
(-0.00433508 1.69769 -1.49683e-20)
(0.00955233 1.30355 0)
(0.0167621 1.22678 0)
(0.0397347 1.59539 -1.06332e-20)
(0.0390817 1.47318 -5.13765e-20)
(0.0268924 1.55016 5.43033e-20)
(0.0499549 1.6202 0)
(-0.0304027 2.27212 1.15028e-19)
(-0.033751 2.55207 -4.86649e-20)
(-0.0199937 2.45136 7.98644e-21)
(-0.00522336 1.86135 2.41036e-20)
(-0.0276204 2.50643 1.10166e-20)
(-0.0227403 2.44765 -2.46783e-20)
(1.0179 0.0221166 -7.707e-19)
(1.01477 0.028375 7.73995e-19)
(1.01165 0.0173682 0)
(1.0113 0.0704786 1.05692e-18)
(0.991007 0.0585909 -1.213e-18)
(0.95192 0.0574336 1.3544e-18)
(1.01296 0.116855 -1.44307e-19)
(1.04398 -0.00467236 0)
(1.05218 -0.000414241 6.91787e-19)
(1.04027 -0.00818351 -6.9139e-19)
(1.07231 0.0436626 -4.10103e-20)
(1.06499 0.0289052 3.54281e-19)
(1.06417 0.0654568 0)
(1.05442 0.0549207 -1.27592e-19)
(1.03244 0.0442796 0)
(1.02616 0.0394526 0)
(1.02759 0.0136673 0)
(1.024 0.0161891 0)
(1.04023 0.0339092 2.62266e-19)
(1.0391 0.028457 -5.80586e-19)
(1.05317 0.0386837 -2.77476e-19)
(1.04816 0.0386689 -3.06152e-19)
(1.07802 0.0703453 5.85532e-19)
(1.10182 0.0563143 0)
(1.10864 0.0951417 0)
(-0.0281817 2.27873 6.90676e-20)
(-0.0300011 2.02794 3.42641e-21)
(-0.0251687 2.03778 0)
(-0.0297743 2.44772 -6.87654e-20)
(-0.0273386 2.4062 -6.60395e-21)
(-0.0341059 2.47535 8.80327e-21)
(-0.0216161 2.62569 -3.02794e-20)
(-0.0264147 2.56813 1.56842e-21)
(-0.0249675 2.52142 -1.0347e-20)
(-0.0172974 2.61904 2.02496e-20)
(-0.0214232 2.62112 -2.32729e-20)
(-0.0102439 1.50334 -4.23235e-22)
(-0.00493092 1.63286 -5.19761e-20)
(0.377124 1.44892 -1.21712e-19)
(0.371705 1.38027 1.82043e-20)
(0.648462 1.44057 -2.36215e-19)
(0.524729 1.5103 -1.48251e-19)
(0.578403 1.46897 0)
(0.607412 2.42462 2.1704e-19)
(0.667145 2.43365 3.38597e-19)
(0.415191 2.51815 9.52646e-20)
(0.400347 2.54326 -5.92052e-19)
(0.502257 2.48199 5.61887e-19)
(0.553326 2.47788 0)
(0.484967 2.52828 -5.5458e-19)
(0.25234 2.59979 1.12657e-18)
(0.367201 2.56611 -7.08163e-20)
(0.282911 2.66015 -1.59135e-18)
(0.970853 2.39148 7.15154e-19)
(0.849023 2.3922 0)
(1.01145 0.00138694 2.51313e-20)
(1.01538 -0.00518074 -2.05263e-20)
(1.01775 -0.00392887 -3.75229e-19)
(1.01562 -0.00104703 3.73919e-19)
(1.01312 0.00184039 0)
(0.636528 1.30265 0)
(0.678696 1.18787 0)
(0.793393 1.1184 0)
(0.666275 1.14536 0)
(1.19586 2.62873 5.13105e-20)
(1.08867 2.38068 0)
(0.818498 2.17011 3.54792e-21)
(0.821929 2.4333 0)
(0.916637 2.52364 -4.33555e-19)
(0.948116 2.4731 2.89464e-19)
(0.786753 0.160446 0)
(0.730649 0.144856 1.58229e-19)
(0.911178 0.163351 9.22204e-19)
(0.815522 0.143889 -3.46438e-19)
(0.7613 0.0944332 -1.06263e-18)
(1.08806 0.245794 -8.40956e-19)
(0.986514 0.316231 -9.75837e-21)
(0.929479 0.352027 8.13482e-19)
(1.01487 0.259931 6.9185e-19)
(0.933098 0.206579 -1.21841e-18)
(0.890277 0.218705 1.53311e-19)
(0.931123 0.31908 -3.17668e-19)
(0.90608 0.223527 0)
(1.00152 0.20785 5.96269e-19)
(1.056 0.217621 0)
(1.05279 0.229233 0)
(1.12577 0.124849 2.67765e-19)
(1.06553 0.194244 -1.08442e-20)
(1.0798 0.2474 -1.53135e-19)
(1.11388 0.211373 0)
(1.02322 0.0495488 5.93781e-19)
(1.03712 0.0630411 7.38716e-19)
(1.03223 0.0465436 -5.88602e-19)
(1.04177 0.0691141 -4.95478e-19)
(1.0149 0.0752697 -7.49144e-19)
(0.984703 0.167195 0)
(0.98756 0.108585 0)
(0.962382 0.0756903 -4.82343e-19)
(0.901506 0.0978892 1.94239e-19)
(1.03959 0.117181 6.86045e-19)
(1.07612 0.13698 -7.84194e-19)
(1.07083 0.180733 7.05042e-19)
(1.0357 0.15819 0)
(1.08616 0.121955 0)
(1.05727 0.112427 -3.21464e-19)
(1.04291 0.108609 -5.57334e-19)
(0.58763 1.08543 1.17605e-19)
(0.612868 1.40297 -2.06702e-20)
(1.14523 2.71944 -2.45752e-19)
(1.19788 3.10381 2.67325e-21)
(1.25374 2.72939 -1.24992e-19)
(1.29352 2.70029 1.96906e-20)
(1.26909 2.32382 -3.80127e-20)
(1.18555 3.00931 -7.35545e-20)
(1.20503 2.96629 2.22979e-19)
(1.17973 3.25731 -1.22107e-19)
(1.39742 2.97188 1.52336e-19)
(1.40896 2.90817 0)
(0.572933 0.816312 -4.77715e-20)
(0.210532 1.21184 4.74112e-19)
(0.517472 0.350112 5.28202e-19)
(0.403391 0.113242 5.99896e-19)
(0.483092 0.302331 6.45456e-19)
(0.548729 0.417791 -1.05035e-18)
(0.555586 0.403845 8.65042e-19)
(0.473367 0.305271 -3.25169e-19)
(0.346198 0.245614 7.35558e-19)
(0.724327 0.252571 -3.438e-19)
(0.67452 0.285266 0)
(0.607424 0.196061 7.9258e-21)
(0.73951 0.506985 3.57671e-19)
(0.70921 0.47883 -1.29657e-18)
(0.636379 0.434936 1.51413e-20)
(0.623832 0.413665 0)
(0.71845 0.715232 3.727e-19)
(0.834956 0.79845 4.10764e-19)
(0.772312 0.848283 -4.7871e-19)
(0.903102 0.82056 -1.52161e-19)
(0.937806 0.863715 -3.54315e-20)
(0.945393 0.871092 3.63403e-20)
(0.881975 0.677066 -6.68421e-19)
(0.954268 0.72398 1.41462e-19)
(1.00842 0.727809 0)
(1.0075 0.703739 -1.80983e-19)
(1.03169 0.340424 2.10357e-19)
(1.15883 0.340306 2.55179e-19)
(1.07446 0.28359 3.43878e-19)
(0.999472 0.387119 -4.20403e-19)
(1.0568 0.487484 0)
(1.13873 0.428437 0)
(0.904543 0.424545 -2.5389e-22)
(0.848248 0.322968 0)
(0.892318 0.313415 3.89438e-19)
(0.914466 0.350841 3.19143e-21)
(0.987304 0.495851 1.86155e-18)
(0.920023 0.554831 4.80184e-19)
(0.94225 0.512191 -5.08052e-19)
(0.86081 0.490059 5.41612e-19)
(0.827396 0.464692 3.4465e-19)
(0.803784 0.440887 -3.3793e-19)
(1.02817 -0.000384015 6.20085e-19)
(1.02042 0.000570412 0)
(1.01907 0.00138949 4.04669e-19)
(1.02264 -0.000708931 -9.16076e-19)
(1.02254 0.00457891 4.46253e-19)
(1.02002 0.0116217 -9.34049e-19)
(1.02074 0.0114226 0)
(1.01967 0.0121746 -1.94487e-19)
(1.01656 0.00779502 4.87473e-19)
(1.01668 0.0109052 -2.44613e-19)
(1.01727 0.0106043 1.78971e-19)
(0.030608 1.33357 0)
(0.0370538 1.39324 0)
(0.0523245 1.33893 0)
(0.0563363 1.27746 0)
(0.0869326 1.40271 -6.75391e-20)
(0.0926278 1.37496 1.37144e-20)
(0.0870966 1.57677 2.44339e-21)
(0.103216 1.40936 -4.20956e-20)
(0.0425617 1.48602 4.86249e-20)
(0.0473608 1.48223 -3.83429e-20)
(0.0740997 1.39783 -2.54741e-20)
(0.0619985 1.40058 7.48973e-20)
(0.0558288 1.3795 1.20997e-20)
(0.0426109 1.39761 7.889e-21)
(0.100532 2.37204 -1.06059e-19)
(0.0941941 2.42177 0)
(0.141568 2.01577 1.03995e-19)
(0.131228 1.70234 3.54899e-20)
(0.22282 2.00591 -8.64784e-20)
(0.189672 2.43904 0)
(0.243374 2.37898 -6.77496e-19)
(0.324297 2.35301 4.49198e-19)
(0.247737 1.98168 -2.20521e-19)
(0.136248 2.14784 1.56599e-19)
(0.111192 2.26363 0)
(0.0149897 1.85801 -2.71968e-20)
(-0.00401394 2.37755 -1.12859e-20)
(0.00418516 2.13596 0)
(0.00591805 2.4401 -1.68911e-20)
(0.0232582 2.27648 2.48212e-20)
(0.00863184 1.42941 -1.1215e-20)
(0.00693923 1.40857 1.86204e-19)
(0.00599958 1.41747 -6.02002e-20)
(0.0178949 1.42592 -5.31131e-20)
(0.0211365 1.45653 0)
(0.00439951 1.39988 0)
(-0.00241561 1.30459 -6.9636e-20)
(-0.000377094 1.38516 1.98497e-20)
(0.00491852 1.3866 0)
(0.00486795 1.29651 -5.34978e-20)
(0.0127394 1.21899 1.07029e-19)
(1.04244 0.0150782 0)
(1.04896 0.0105513 -6.46852e-20)
(1.0392 0.0246728 -4.67724e-19)
(1.04971 0.0234729 0)
(1.05463 0.0226221 0)
(1.03625 0.0130582 -6.77186e-21)
(1.02999 0.0135611 7.5475e-19)
(1.03173 0.0175358 9.13363e-19)
(1.02562 0.0211249 0)
(1.0223 0.0215703 0)
(1.03548 0.0258549 4.66792e-19)
(1.026 0.0283822 0)
(1.02333 0.0285289 0)
(-0.0204103 2.02997 0)
(-0.0093971 1.6608 -2.24403e-21)
(-0.00867399 1.76622 -3.1895e-20)
(-0.00510319 1.39345 0)
(-0.00911099 1.56297 -2.90802e-20)
(-0.0150803 1.47133 1.80209e-20)
(-0.0102462 1.40608 0)
(0.404013 1.62679 0)
(0.365536 1.31818 -2.87679e-20)
(0.275703 1.34575 0)
(0.434941 1.31626 -3.70743e-20)
(0.473043 1.47587 0)
(0.457391 1.41674 4.02128e-20)
(1.04067 2.67245 -1.52014e-20)
(0.985344 2.41064 -8.98443e-19)
(0.947889 2.21096 1.00865e-18)
(0.865592 2.38433 2.42251e-19)
(0.853162 2.4891 0)
(0.922001 2.48396 0)
(0.954639 2.38454 0)
(0.930649 2.37519 -9.37518e-19)
(0.691931 2.45333 -3.76782e-19)
(0.800801 2.43726 -9.74387e-20)
(0.80807 2.41525 7.34311e-20)
(0.70458 2.4049 0)
(0.809839 2.3985 0)
(0.770532 2.41498 -3.67022e-19)
(0.76605 2.46764 0)
(0.629263 1.06662 0)
(0.515493 0.860402 -5.54106e-19)
(0.521773 0.932257 -3.21152e-20)
(0.501656 1.07178 0)
(0.488607 0.980227 8.48525e-19)
(0.800743 0.88595 -1.32273e-19)
(0.804722 1.02105 0)
(0.785615 1.0038 1.81631e-19)
(0.674304 1.02081 0)
(0.666118 0.924451 0)
(1.16366 2.75598 -2.18418e-19)
(1.13878 2.81417 -8.86402e-20)
(0.92328 2.33668 7.34221e-20)
(0.899944 2.31759 -7.5469e-20)
(1.13331 2.73391 0)
(1.0853 2.7017 9.06507e-20)
(1.10146 2.49717 -2.96248e-19)
(1.00313 2.25674 -2.83834e-20)
(0.497403 1.33112 0)
(0.517118 1.0781 -1.036e-19)
(0.593839 1.18187 0)
(0.850576 0.231789 0)
(0.755901 0.180083 0)
(0.663656 0.14401 0)
(0.852129 0.232312 -6.13937e-19)
(0.74524 0.223936 3.59725e-19)
(0.91151 0.0880127 -4.00391e-19)
(0.923758 0.14205 0)
(0.908261 0.154443 1.73152e-19)
(0.836671 0.112231 6.94249e-19)
(0.785088 0.0768846 -4.37969e-19)
(1.09708 3.34873 -6.72517e-19)
(1.16474 3.27209 0)
(1.11543 3.43365 -1.56918e-18)
(0.656922 3.57954 1.30639e-18)
(1.02575 3.077 1.19492e-19)
(0.532519 0.782811 5.67033e-19)
(0.512304 0.751059 0)
(0.35161 0.366534 -1.44056e-19)
(0.486147 0.629608 8.53816e-19)
(0.548671 0.351324 -1.89403e-19)
(0.518233 0.455162 2.24803e-19)
(0.690238 0.524292 4.61543e-19)
(0.735577 0.560379 0)
(0.664192 0.565004 0)
(0.647627 0.531032 0)
(1.01645 0.611709 8.9245e-20)
(0.971242 0.594079 -4.65092e-19)
(0.981047 0.606029 3.55754e-19)
(1.04576 0.548881 -3.43228e-19)
(1.09061 0.518656 0)
(1.0921 0.600505 -9.03794e-20)
(0.887417 0.419907 -7.67952e-19)
(0.876318 0.407213 -9.86676e-19)
(0.800116 0.405512 6.06329e-19)
(0.814783 0.373574 -6.27422e-19)
(0.856639 0.333667 -4.93101e-19)
(0.801375 0.337487 6.03954e-19)
(1.02655 0.00669585 -4.66984e-19)
(1.02618 0.0068153 9.40771e-19)
(1.02994 0.000955715 6.00891e-19)
(1.03417 0.00158316 -7.21452e-19)
(1.03397 0.012012 0)
(1.02965 0.012071 -1.18199e-18)
(0.080544 1.64597 1.19865e-20)
(0.0683791 1.60677 0)
(0.109122 1.70261 4.5949e-20)
(0.114191 1.67873 -3.95455e-20)
(0.0724995 1.57312 -4.38897e-21)
(0.0695423 1.57532 0)
(0.00692169 1.69897 0)
(-0.0087846 1.51302 1.55451e-20)
(-0.00755013 1.45286 -1.39666e-20)
(-0.0120632 1.56028 2.98474e-21)
(-0.00205182 1.89318 2.28555e-20)
(-0.0142706 1.94793 -8.91241e-21)
(0.493661 1.36177 -2.59483e-19)
(0.496172 1.3568 2.83759e-19)
(0.44896 1.30875 -1.12988e-20)
(0.428407 1.29197 7.57266e-21)
(0.628027 1.31097 0)
(0.555869 1.40439 1.16153e-19)
(0.556936 1.40754 -1.13094e-19)
(0.484473 1.29593 1.08968e-20)
(0.525472 1.24993 0)
(0.58994 1.21585 0)
(0.665641 2.41684 5.54762e-19)
(0.661084 2.44677 1.27211e-18)
(0.716546 2.46177 -8.74982e-19)
(0.614963 2.43399 -1.9979e-19)
(0.557696 2.52713 2.72628e-19)
(0.498437 2.49363 -7.02082e-19)
(0.993208 2.38942 -5.68258e-19)
(1.02528 2.40713 0)
(0.951981 2.19479 -6.21787e-19)
(1.05613 2.6828 0)
(1.05502 2.66396 0)
(0.602536 2.29003 9.44631e-21)
(1.11925 3.06969 7.79237e-20)
(0.997192 2.96714 -1.26449e-19)
(0.322685 0.798632 0)
(0.321851 0.679681 -3.02672e-19)
(0.52732 0.614375 -3.06316e-19)
(0.365393 2.13234 0)
(0.40403 2.74429 -8.41092e-20)
(0.413544 2.47889 0)
(0.726929 0.681482 -7.94248e-19)
(0.793263 0.688908 1.10661e-18)
(0.79918 0.656646 -1.05114e-18)
(0.699834 0.64013 -1.00733e-19)
(0.759065 0.598898 -4.1531e-19)
(0.971276 2.75332 -5.90184e-20)
(1.0142 2.75979 -2.0737e-19)
(0.553281 2.20745 4.33579e-19)
(0.605203 1.73506 -3.44073e-19)
(0.70418 1.85378 -4.91974e-19)
(0.977616 2.39377 -1.37268e-19)
(0.977559 2.347 3.62085e-19)
(0.647271 1.76449 3.3178e-20)
(0.453584 1.29711 1.73464e-19)
)
;

boundaryField
{
    wall-4
    {
        type            noSlip;
    }
    velocity-inlet-5
    {
        type            fixedValue;
        value           uniform (1 0 0);
    }
    velocity-inlet-6
    {
        type            fixedValue;
        value           uniform (0 3 0);
    }
    pressure-outlet-7
    {
        type            zeroGradient;
    }
    wall-8
    {
        type            noSlip;
    }
    frontAndBackPlanes
    {
        type            empty;
    }
}


// ************************************************************************* //
