/*--------------------------------*- C++ -*----------------------------------*\
  =========                 |
  \\      /  F ield         | OpenFOAM: The Open Source CFD Toolbox
   \\    /   O peration     | Website:  https://openfoam.org
    \\  /    A nd           | Version:  6
     \\/     M anipulation  |
\*---------------------------------------------------------------------------*/
FoamFile
{
    version     2.0;
    format      ascii;
    class       volVectorField;
    location    "32";
    object      U;
}
// * * * * * * * * * * * * * * * * * * * * * * * * * * * * * * * * * * * * * //

dimensions      [0 1 -1 0 0 0 0];

internalField   nonuniform List<vector> 
918
(
(0.985042 -0.000704828 0)
(0.00534033 2.96624 0)
(-0.0606856 1.01746 0)
(0.979572 0.00195575 0)
(-0.0127072 1.2939 8.55679e-20)
(-0.0070844 2.94856 -2.54188e-18)
(0.824842 1.14541 4.7746e-19)
(0.362371 0.141158 -1.45147e-20)
(0.999917 -0.000260177 0)
(0.0705764 0.789449 0)
(-0.00449201 0.599065 0)
(0.737129 -0.0118303 0)
(0.0101992 2.93159 0)
(0.00375703 2.79408 0)
(-0.000856955 3.19222 8.79167e-19)
(-0.103268 1.7211 -4.98511e-20)
(0.422374 0.0367708 9.47772e-19)
(0.237673 1.16482 3.98596e-19)
(0.964499 0.00665062 0)
(-0.0239305 0.660293 0)
(0.104711 0.19984 -6.85329e-19)
(1.00185 -0.0045613 0)
(0.999854 -0.00894521 0)
(0.975139 -0.00607181 0)
(0.605051 -0.0420672 0)
(0.0230619 2.64315 0)
(-0.0123258 2.91199 9.27264e-19)
(-0.0897703 0.896212 0)
(-0.198161 1.19925 0)
(-0.0711574 0.952257 0)
(-0.194949 2.46409 0)
(-0.0155186 1.47882 -6.73896e-20)
(-0.0632217 1.10684 0)
(-0.022158 2.9876 -9.15291e-23)
(-0.0165052 3.0055 1.9753e-18)
(0.00230065 3.0006 0)
(0.870785 -0.00928057 0)
(0.375809 0.919037 1.30351e-19)
(0.82764 1.1566 -6.10712e-19)
(0.964605 1.01101 6.10147e-19)
(0.69234 1.24044 -1.10206e-19)
(0.703205 1.21282 6.30563e-19)
(0.391767 0.231963 1.41606e-20)
(0.378422 0.118197 0)
(1.14827 0.519287 0)
(0.35592 0.242507 6.47493e-20)
(0.327914 0.154429 -6.71949e-20)
(0.920281 -0.00690659 0)
(1.00026 7.39059e-05 0)
(0.999911 0.000316653 0)
(1.00372 -0.00728494 0)
(1.0009 -0.000932166 0)
(1.0001 -1.53482e-05 0)
(0.0956949 1.80616 -6.79566e-19)
(0.0331554 0.933175 0)
(0.119622 0.850133 0)
(0.0330761 0.87738 0)
(0.0461167 0.709266 0)
(0.0141343 2.01175 0)
(-0.0155425 0.754966 0)
(-0.00340932 0.57989 0)
(-0.0157963 0.762695 0)
(-0.0200175 0.607693 0)
(0.838356 -0.0131308 0)
(0.849786 0.0282064 0)
(0.768822 -0.00252567 0)
(0.824942 0.0384627 0)
(0.702578 -0.0174115 0)
(0.0139488 3.0002 9.42823e-19)
(0.0111759 3.00591 0)
(0.00628516 3.0039 0)
(0.0118984 2.99709 1.06972e-23)
(0.00827249 2.95875 -1.40127e-18)
(0.0122237 2.98297 0)
(0.00902332 2.9048 0)
(0.0214006 2.93163 2.16121e-24)
(0.00401786 2.8237 0)
(0.0260391 2.91846 0)
(-0.0013249 2.7445 0)
(0.310184 3.59247 0)
(-0.122783 3.67591 0)
(0.152537 3.28331 -8.18253e-19)
(0.00628722 3.01572 0)
(-0.312941 2.28161 0)
(-0.107163 1.88618 4.91313e-20)
(-0.0776526 1.87077 -2.06581e-20)
(0.495218 0.136442 -3.27089e-19)
(0.425497 0.00719974 -3.15653e-19)
(0.475769 0.16213 -9.87237e-19)
(0.406438 0.054604 -6.52566e-19)
(0.253678 0.964615 0)
(0.342057 1.29695 -4.10484e-19)
(0.418112 1.19175 6.73677e-19)
(0.987977 0.0080408 0)
(0.943509 0.00590324 0)
(1.00029 0.000675786 0)
(1.00254 0.00907595 0)
(1.00316 0.00888627 -2.36849e-18)
(0.992119 0.00953483 1.7898e-18)
(-0.00358695 0.778407 0)
(-0.00456823 0.62222 0)
(-0.077869 0.911858 0)
(-0.0146171 0.789336 0)
(0.00952288 0.663934 0)
(0.140938 0.211783 2.12265e-19)
(0.190509 0.187596 0)
(0.993603 -0.0076969 0)
(0.95398 -0.00647328 0)
(0.778739 0.0481592 0)
(0.71762 0.0554447 0)
(0.659707 -0.0269024 0)
(0.959453 -0.00437318 0)
(0.653366 0.0513179 0)
(0.482409 -0.0412115 1.35116e-18)
(-0.0406647 2.86203 7.16335e-19)
(0.0339695 2.91395 0)
(0.04283 2.89142 0)
(0.00379662 2.70079 0)
(-0.00884621 2.98644 8.86404e-19)
(-0.0143505 2.89486 0)
(-0.0109852 2.99193 -2.73133e-18)
(-0.0116216 2.92976 9.29824e-19)
(-0.28801 1.23152 0)
(-0.299685 1.42787 0)
(-0.130467 1.72274 -1.11636e-21)
(-0.120626 1.55177 0)
(-0.100149 1.44438 0)
(0.937887 -0.00549719 0)
(0.85541 -0.0102236 0)
(0.864353 0.00666251 0)
(0.948871 -0.00636183 0)
(0.882828 -0.00773108 0)
(0.500446 1.1201 -1.67745e-19)
(0.548163 1.19113 0)
(0.33688 0.852013 2.73611e-20)
(0.280282 0.717544 0)
(0.924726 1.04674 -1.72059e-19)
(1.04011 0.846327 3.39608e-19)
(0.401314 1.34425 0)
(0.552665 1.302 0)
(0.593853 1.24085 0)
(0.0889594 0.16981 -2.6427e-19)
(0.412747 0.216814 0)
(0.379885 0.108898 1.85404e-19)
(1.00222 0.901027 0)
(1.06972 0.742864 0)
(1.09965 0.675968 -2.66437e-19)
(1.12716 0.587033 0)
(1.18192 0.374627 4.53674e-20)
(0.957033 -0.00725815 0)
(0.962477 -0.00812723 0)
(0.900404 -0.00713726 0)
(0.983881 -0.00812147 0)
(0.974311 -0.00806265 0)
(0.936401 -0.00653428 0)
(1.0002 0.00249955 0)
(1.00077 0.00126653 0)
(0.999991 0.000784468 0)
(0.0406796 2.06439 3.81541e-19)
(0.14712 1.74921 0)
(0.0108178 2.18009 5.62808e-19)
(0.0585421 1.86518 -4.62074e-19)
(0.170361 1.14543 -3.27228e-19)
(0.0572264 1.00955 0)
(0.121622 1.00768 0)
(0.0174924 0.837653 0)
(0.0414769 0.644307 0)
(-0.0178855 2.19922 -2.98707e-22)
(0.0308939 2.00413 0)
(-0.0162721 2.16295 -1.74458e-20)
(0.0120901 2.00552 2.37583e-20)
(0.0205842 0.793081 0)
(-0.00943791 0.759484 0)
(0.0200357 0.595601 0)
(-0.0155594 0.763168 0)
(-0.0346946 0.622352 0)
(0.934754 0.0126025 0)
(0.849055 -0.0118919 0)
(0.92557 0.00427936 0)
(0.841966 -0.0107668 0)
(0.814372 0.00232326 0)
(0.902647 0.0196105 0)
(0.879264 0.0244412 0)
(0.790462 -0.000111587 0)
(0.0102271 3.06778 -8.7425e-21)
(0.014952 3.05904 0)
(0.0124214 2.9703 0)
(0.00761049 2.8767 0)
(0.901034 3.99111 0)
(1.19661 3.38442 9.59772e-19)
(0.0832618 3.09717 0)
(-0.0155219 2.92162 0)
(-0.311589 1.54064 0)
(-0.352446 2.18877 0)
(-0.356776 1.89015 0)
(-0.233516 2.48238 -6.51892e-20)
(-0.269116 2.4331 0)
(-0.247186 2.40454 0)
(-0.0033487 1.97958 -3.01487e-21)
(-0.0334249 2.06152 1.87978e-21)
(-0.0588215 2.00072 2.06236e-20)
(-0.022662 1.93767 0)
(0.509886 0.108573 4.93152e-19)
(0.424683 -0.00824225 -4.84335e-19)
(0.232458 1.56928 0)
(0.281657 0.706223 -3.01776e-19)
(0.177542 1.66244 -1.01498e-18)
(0.24178 1.17435 1.01558e-18)
(0.902208 0.00640624 0)
(0.967318 0.0103085 0)
(0.975171 0.00969231 0)
(0.923308 0.00616422 0)
(-0.00942232 0.769245 0)
(-0.010121 0.773295 0)
(-0.0126926 0.616342 0)
(0.308759 0.231289 5.92587e-19)
(0.253259 0.220181 -7.01899e-19)
(0.270221 0.16502 0)
(1.08361 0.0874908 2.01725e-20)
(1.06642 0.0408964 0)
(1.00039 0.0416282 0)
(0.899584 -0.0028212 0)
(0.532224 0.0859587 0)
(0.579423 0.0601164 -2.17017e-18)
(0.440587 -0.0183082 8.2186e-19)
(0.0111777 2.97776 7.66333e-19)
(-0.032319 2.86248 4.69268e-20)
(0.00856694 3.05312 -1.84815e-20)
(0.0156282 3.04346 6.94449e-19)
(-0.0118013 2.99997 3.0621e-20)
(-0.0123562 2.9523 -1.23689e-22)
(-0.0150362 3.01332 -5.73232e-19)
(0.014212 3.02675 4.0246e-19)
(0.00756182 3.03465 -6.52887e-19)
(0.932783 0.00119123 0)
(0.938094 -0.00159911 0)
(0.845001 -0.00939729 0)
(0.956846 0.0111768 0)
(0.943398 0.0125238 0)
(0.882396 0.00642006 0)
(0.918452 0.0162165 0)
(0.926824 0.0139802 0)
(0.839436 0.00438467 0)
(0.674667 1.42135 6.74914e-20)
(0.693221 1.53291 0)
(0.124009 0.328134 6.21843e-20)
(0.193226 0.626346 4.88068e-19)
(0.228959 0.684248 -2.83811e-19)
(0.228028 0.530752 5.5946e-19)
(0.312394 0.778279 1.40442e-18)
(0.118448 0.214722 3.41173e-19)
(0.458627 0.187717 6.95318e-19)
(0.43448 0.211103 1.78602e-19)
(0.398152 0.0856134 3.45729e-19)
(1.17166 0.438363 1.03056e-19)
(1.1924 0.240903 1.03267e-19)
(-0.000709063 2.21518 2.12841e-19)
(0.0479801 1.93326 0)
(0.961132 0.0301974 0)
(0.938814 0.0166171 0)
(0.861385 -0.0158235 0)
(0.0125327 3.07446 0)
(0.0169323 2.9442 1.221e-18)
(0.013939 2.95683 0)
(0.00578928 2.84979 -1.21143e-18)
(0.00934129 3.09132 2.97966e-19)
(0.0114018 3.08319 0)
(0.714349 1.83138 -1.87306e-19)
(1.24099 2.64004 6.30884e-19)
(0.699259 2.01048 -1.45526e-18)
(0.0226288 2.97702 -6.60689e-19)
(0.0415239 3.00058 0)
(-0.0381388 2.88027 0)
(-0.017257 2.14165 -8.88887e-21)
(-0.0195735 2.10665 6.43684e-21)
(0.0105504 2.00452 -2.62899e-21)
(0.261028 1.36071 9.72597e-19)
(0.252111 0.484305 -6.67437e-19)
(0.0695513 1.98317 7.09775e-19)
(0.119211 1.85189 -8.58111e-19)
(0.208134 1.49793 1.00195e-19)
(0.0084047 3.11929 -1.65435e-18)
(0.0147951 3.12058 1.82837e-18)
(-0.00505575 2.98007 8.29047e-19)
(-0.000763827 2.97501 -7.92748e-19)
(-0.0181607 2.87784 -8.44414e-19)
(0.0125278 3.09883 -2.21158e-18)
(0.0044772 3.10676 2.25364e-18)
(0.234678 0.656765 0)
(0.187784 0.62968 -1.03865e-18)
(0.0689048 0.210105 4.56089e-19)
(0.331809 0.891721 1.02155e-18)
(0.180582 0.254052 -1.57127e-18)
(1.17188 0.172957 3.61175e-20)
(1.19031 0.299526 0)
(1.16662 0.119139 1.81031e-20)
(-0.0125341 2.21158 -9.59428e-22)
(-0.00407894 2.21815 0)
(0.0427559 1.97135 0)
(0.309769 1.29187 -3.47184e-19)
(0.343119 1.11332 -7.47492e-19)
(0.207454 0.356165 1.32508e-18)
(1.00643 -0.00974131 0)
(1.00774 -0.00782317 4.35134e-19)
(-0.22006 1.24863 0)
(-0.148448 1.05572 0)
(1.00244 0.00333825 1.40899e-21)
(1.00332 0.00807591 8.93313e-19)
(-0.236404 2.49825 8.57065e-20)
(-0.240343 2.48866 0)
(0.0428892 3.17439 4.62331e-19)
(0.379773 3.55453 0)
(1.10922 0.686131 -4.31305e-20)
(1.01206 0.0109175 -2.71775e-21)
(1.02072 -0.00920234 0)
(1.00162 0.000223157 1.60797e-22)
(0.101617 1.3655 0)
(0.142079 2.59729 0)
(0.0137068 1.3145 0)
(-0.00914206 2.6358 -7.92419e-21)
(-0.0312976 2.5756 4.74001e-21)
(1.00197 0.0243201 2.57195e-21)
(1.06166 0.00459743 0)
(1.0931 0.0207139 0)
(-0.282019 2.14546 0)
(-0.0979046 2.53511 0)
(0.000828211 1.1229 0)
(0.276105 1.47777 -2.12061e-19)
(1.01144 -0.00910509 0)
(1.0097 -0.0131034 0)
(1.00232 0.000932018 5.58546e-19)
(1.00549 -0.00499958 -6.56834e-19)
(1.00112 -0.000918511 0)
(-0.220128 1.82999 0)
(-0.203436 1.29086 0)
(-0.264276 1.59857 0)
(-0.0119581 1.08355 0)
(-0.0184118 1.01182 0)
(-0.00971869 0.953746 0)
(1.03472 -0.00515674 0)
(1.01999 0.0148451 -9.89178e-22)
(0.777685 1.30139 3.09649e-19)
(1.00225 0.000353823 -5.55819e-19)
(1.0034 0.00465714 6.64846e-19)
(1.00131 0.00211331 0)
(1.01155 0.00960559 5.53561e-19)
(1.00714 0.0075626 -6.74951e-19)
(1.00747 0.01143 0)
(-0.167399 2.57069 0)
(-0.232386 2.53418 -3.70765e-20)
(-0.199219 2.50631 1.33342e-20)
(1.21433 0.268158 4.45403e-19)
(1.14769 0.0810512 0)
(0.0472203 3.09066 -9.43068e-19)
(0.0512825 2.87026 -6.73107e-20)
(0.106463 3.20207 1.25464e-18)
(0.124851 3.2148 -2.59891e-19)
(0.147406 3.26284 0)
(0.0228469 3.13794 2.57064e-19)
(0.0628464 3.16214 9.38956e-19)
(0.0633985 3.17964 -4.81179e-19)
(0.0273585 3.12893 0)
(0.655548 0.317373 0)
(0.598179 0.362012 0)
(1.0958 0.715037 8.9353e-20)
(1.06174 0.856071 -6.31248e-20)
(1.15255 0.607442 0)
(1.185 0.537716 0)
(1.01583 0.0120661 -1.02768e-18)
(1.01476 0.0128319 1.29154e-18)
(1.0254 -0.00888819 0)
(1.02372 -0.0104522 0)
(1.00637 0.00261607 0)
(1.01077 0.00417265 0)
(1.00458 0.00210666 0)
(1.00951 0.00647483 0)
(1.00708 0.00515898 0)
(1.00464 0.00539628 0)
(0.0923178 1.36069 0)
(0.0775469 1.33574 0)
(0.122097 1.40198 0)
(0.123122 1.41237 0)
(0.149355 2.6209 0)
(0.192161 2.68447 -3.8715e-19)
(0.107083 2.67956 0)
(0.085236 2.67973 1.45177e-19)
(0.0290528 2.68022 -1.19368e-19)
(0.0119759 1.30601 0)
(0.0214908 1.24755 0)
(0.0116007 1.33469 0)
(0.0339721 1.28786 0)
(-0.0165293 1.99739 3.53004e-20)
(-0.0379636 2.60486 -3.14809e-20)
(-0.0166279 2.67707 -3.1766e-20)
(-0.0289187 2.67899 0)
(-0.0422498 2.6085 7.46257e-21)
(-0.0365349 2.60146 8.47393e-21)
(-0.0122033 1.99796 -2.72759e-20)
(-0.034498 2.42249 4.22005e-20)
(-0.0287311 2.43987 3.60252e-20)
(1.01117 0.0354591 1.03724e-18)
(1.00744 0.0172796 -1.29323e-18)
(1.0054 0.0400998 -1.0629e-18)
(0.981601 0.0273935 1.34032e-18)
(1.06263 0.00709082 0)
(1.04866 -0.00724508 0)
(1.08922 0.0309268 0)
(1.07195 0.0109057 0)
(1.06919 0.000347229 0)
(1.12876 0.0677027 0)
(1.1047 0.0370327 0)
(1.10569 0.0299114 0)
(-0.229219 2.51766 1.55096e-20)
(-0.25147 2.3843 0)
(-0.26752 2.44377 0)
(-0.102405 2.56767 -9.58189e-21)
(-0.0408207 2.56726 -1.48551e-22)
(-0.0326108 1.92297 -2.69089e-19)
(-0.0986404 1.79159 2.71743e-19)
(0.0535712 1.35724 0)
(-0.00748587 1.36335 0)
(-0.102322 1.33513 0)
(0.0277658 1.13652 0)
(-0.0245315 1.01132 0)
(0.372652 1.49713 3.70835e-19)
(0.40984 1.50631 1.79471e-19)
(0.604542 2.46967 -2.28077e-19)
(0.395421 2.56689 6.62021e-19)
(0.356069 2.08177 4.59768e-20)
(1.02037 -0.00811095 0)
(1.01562 -0.00942176 0)
(1.01478 -0.0134519 0)
(1.00746 -0.00087657 0)
(1.00502 -0.000703196 0)
(1.008 -0.00456406 0)
(1.00951 -0.00374839 0)
(1.01446 -0.00457459 0)
(1.02069 0.015445 1.00531e-18)
(1.0179 0.0145702 -1.27457e-18)
(1.02133 0.0175292 -1.01234e-18)
(1.01888 0.0157946 1.26865e-18)
(0.741652 1.34155 0)
(0.670579 1.38578 2.97604e-19)
(0.849013 1.21831 1.28914e-19)
(0.876989 1.19561 -1.7105e-19)
(1.16633 2.62247 1.36723e-19)
(0.803844 0.108345 5.36779e-19)
(1.15206 0.0958208 0)
(1.18823 0.190371 -3.59971e-19)
(1.16897 0.151321 -1.48216e-20)
(1.01534 0.143316 0)
(0.0899788 3.02716 2.74566e-19)
(0.0905853 2.90601 -1.11875e-18)
(0.0395672 2.36412 7.1515e-19)
(0.136199 -0.0436215 -3.44734e-19)
(0.347403 3.45697 -2.89425e-19)
(0.197649 3.34766 0)
(0.227873 3.40736 3.77007e-19)
(0.231337 3.0851 -1.05196e-18)
(0.265397 3.20517 0)
(0.00665051 3.12247 4.88527e-20)
(0.0180667 3.13111 -5.63698e-19)
(0.0164271 3.12697 8.29674e-19)
(0.0337683 3.13986 0)
(0.0316867 3.15002 0)
(1.26206 2.59001 0)
(0.512885 0.835321 -4.70524e-19)
(0.985224 1.03381 -2.75051e-20)
(0.960835 1.06662 0)
(0.820528 0.951649 -8.60423e-20)
(1.04459 0.89595 2.78885e-20)
(0.405228 0.400677 -8.54529e-19)
(0.71347 0.33211 -2.59685e-20)
(0.687008 0.260838 3.8529e-19)
(0.612144 0.394208 2.85916e-20)
(0.525923 0.377826 -1.15598e-18)
(0.675403 0.335913 0)
(0.696396 0.424306 6.61669e-19)
(0.70065 0.428129 0)
(0.650862 0.367519 0)
(0.613151 0.306614 0)
(0.752173 0.642907 3.54243e-19)
(1.21796 0.294654 -3.69903e-19)
(1.2019 0.433774 0)
(1.21347 0.389695 0)
(0.764907 0.19253 5.79814e-19)
(0.815102 0.544516 -3.5562e-19)
(0.741408 0.505972 6.21114e-19)
(0.929943 0.419624 -6.60077e-19)
(1.01909 0.0142113 6.83437e-19)
(1.01742 0.0134981 -6.91827e-19)
(1.01617 0.0141948 0)
(1.03608 -0.00521529 0)
(1.02987 -0.00809413 -6.46082e-19)
(1.02795 -0.0109937 6.39372e-19)
(1.02491 0.0099232 0)
(1.02315 0.0137722 0)
(1.01248 0.0044048 0)
(1.01451 0.00902526 0)
(1.01597 0.00379118 0)
(1.01508 0.00246052 0)
(0.0686915 1.34869 0)
(0.067725 1.3094 0)
(0.142128 1.38131 1.00085e-19)
(0.255744 1.4706 1.04165e-19)
(0.149666 1.44334 2.24626e-19)
(0.174535 1.45042 -3.67362e-19)
(0.147529 1.39213 0)
(0.123105 1.58289 -3.68567e-20)
(0.104224 1.56424 0)
(0.349474 2.04342 -6.69133e-20)
(0.342948 2.35797 5.59839e-19)
(0.172381 1.44222 3.21477e-20)
(0.259579 1.36399 5.24733e-20)
(0.188271 1.36571 -4.26904e-20)
(0.278914 1.29865 -1.7942e-20)
(0.253276 1.57436 0)
(0.254563 1.62455 4.37121e-20)
(0.0269026 2.28552 2.23288e-21)
(0.0312493 2.68108 0)
(0.0642034 2.41946 6.26323e-20)
(0.0579101 2.44006 0)
(0.0703239 2.69479 -1.61352e-19)
(0.0442126 2.71228 0)
(0.0153267 1.42832 7.9501e-20)
(0.0206704 1.47785 0)
(0.017133 1.39263 0)
(0.0124311 1.39562 -9.32048e-20)
(-0.00863363 2.66521 -8.86174e-21)
(0.0187786 2.70101 1.38554e-19)
(0.00239274 2.73252 7.64763e-22)
(-0.0115243 1.86197 -2.8992e-20)
(-0.0345295 1.66654 -1.57933e-20)
(0.035285 1.25883 0)
(0.028909 1.14883 0)
(0.0301496 1.58073 -7.92793e-20)
(0.0323571 1.45466 -8.63379e-20)
(0.0257229 1.52037 1.07363e-19)
(0.0360675 1.60836 0)
(-0.104718 2.40484 2.32884e-19)
(-0.126303 2.56329 -1.12814e-19)
(-0.0552803 2.50423 1.18483e-20)
(-0.0296745 1.86999 3.48973e-20)
(-0.0614241 2.50151 1.31081e-20)
(-0.0244266 2.44683 -1.99317e-20)
(1.01949 0.0203959 -6.87583e-19)
(1.01569 0.0258348 6.90756e-19)
(1.01388 0.0158415 0)
(1.01387 0.0611848 9.47061e-19)
(0.994979 0.0496998 -1.09486e-18)
(0.961076 0.0469287 1.22726e-18)
(1.01519 0.102392 -1.29075e-19)
(1.04262 -0.00549121 0)
(1.05064 -0.00140282 6.16614e-19)
(1.03901 -0.00888782 -6.16627e-19)
(1.06952 0.0364617 -3.63622e-20)
(1.06392 0.0224665 3.14376e-19)
(1.0624 0.0538681 0)
(1.05462 0.0446679 -1.13403e-19)
(1.03193 0.0393876 0)
(1.02673 0.0358895 0)
(1.02768 0.0125205 0)
(1.02417 0.0152655 0)
(1.03935 0.0296802 2.33681e-19)
(1.0391 0.0256971 -5.1797e-19)
(1.05145 0.0339407 -2.47069e-19)
(1.04745 0.0337543 -2.7252e-19)
(1.07353 0.0565717 5.21712e-19)
(1.09292 0.0444127 0)
(1.09771 0.0842286 0)
(-0.0978296 2.42098 1.85e-19)
(-0.195645 2.34053 2.05922e-20)
(-0.148146 2.34139 0)
(-0.177006 2.51872 -1.85194e-19)
(-0.229953 2.5178 -3.413e-20)
(-0.204408 2.52192 2.08495e-20)
(-0.0428959 2.60909 -5.85502e-21)
(-0.0813173 2.5487 6.84896e-22)
(-0.053553 2.52802 -3.84525e-21)
(-0.0559038 2.59116 5.36625e-21)
(-0.0483095 2.59849 -6.42082e-21)
(0.100598 1.598 9.30228e-21)
(0.041535 1.88912 -2.07097e-19)
(0.368083 1.41805 -1.65623e-19)
(0.362777 1.34792 -5.83794e-20)
(0.625825 1.42744 -2.87451e-19)
(0.50444 1.49544 -1.72977e-19)
(0.545786 1.46393 0)
(0.603817 2.44445 1.90305e-19)
(0.665887 2.43401 3.16444e-19)
(0.422384 2.53179 8.39577e-20)
(0.399474 2.56013 -5.55869e-19)
(0.503433 2.50436 5.18495e-19)
(0.558647 2.48403 0)
(0.495841 2.538 -5.13004e-19)
(0.260262 2.60354 1.06137e-18)
(0.367155 2.57365 -6.23761e-20)
(0.288906 2.66335 -1.49225e-18)
(0.957113 2.39685 6.30609e-19)
(0.843101 2.39879 0)
(1.01125 0.000916238 2.2584e-20)
(1.01529 -0.00547042 -1.83852e-20)
(1.01755 -0.00408353 -3.35813e-19)
(1.01529 -0.00150741 3.35462e-19)
(1.01271 0.00117652 0)
(0.620604 1.28498 0)
(0.656107 1.1727 0)
(0.758604 1.09304 0)
(0.642202 1.13214 0)
(1.19638 2.63938 5.06934e-20)
(1.08913 2.38638 0)
(0.828485 2.20148 2.54667e-21)
(0.827972 2.46334 0)
(0.918907 2.54914 -3.48715e-19)
(0.951859 2.49846 2.33181e-19)
(0.821164 0.134372 0)
(0.786727 0.129051 1.48693e-19)
(0.921533 0.132297 8.42411e-19)
(0.848754 0.110624 -3.22179e-19)
(0.821587 0.0714483 -9.68905e-19)
(1.0715 0.224308 -7.59802e-19)
(0.975413 0.275871 -8.25415e-21)
(0.912453 0.316206 7.65949e-19)
(1.01428 0.227079 6.35176e-19)
(0.938762 0.177039 -1.11191e-18)
(0.896277 0.184085 1.40684e-19)
(0.927684 0.286735 -2.91301e-19)
(0.906298 0.191908 0)
(1.0018 0.179861 5.43053e-19)
(1.05059 0.192101 0)
(1.04483 0.200139 0)
(1.10917 0.11014 2.39101e-19)
(1.06333 0.17022 -1.04201e-20)
(1.06444 0.231232 -1.36976e-19)
(1.10063 0.198453 0)
(1.02366 0.0428044 5.31631e-19)
(1.03967 0.0542703 6.58208e-19)
(1.0328 0.0408144 -5.27563e-19)
(1.04366 0.058778 -4.41517e-19)
(1.0162 0.0652298 -6.70766e-19)
(0.991683 0.147318 0)
(0.995454 0.0942673 0)
(0.969625 0.0589038 -4.35558e-19)
(0.921319 0.0851391 1.74107e-19)
(1.04212 0.100845 6.13176e-19)
(1.07238 0.118398 -7.02632e-19)
(1.06863 0.157673 6.33242e-19)
(1.04018 0.136336 0)
(1.08162 0.101381 0)
(1.06084 0.0930464 -2.86262e-19)
(1.04661 0.0926207 -4.9799e-19)
(0.591681 1.11734 7.29417e-20)
(0.6248 1.43967 2.05903e-20)
(1.14726 2.73515 -1.88487e-19)
(1.19926 3.11703 -1.11688e-20)
(1.25553 2.74094 -8.76121e-21)
(1.29692 2.71293 -3.5786e-20)
(1.27284 2.33413 -3.70424e-20)
(1.18696 3.02213 -2.16462e-20)
(1.20601 2.97855 1.4326e-19)
(1.18177 3.2711 -1.47145e-19)
(1.40153 2.98662 1.8197e-19)
(1.41364 2.92544 0)
(0.544537 0.855195 -4.0908e-20)
(0.238097 1.23361 4.49139e-19)
(0.489596 0.476905 5.46256e-19)
(0.359893 0.239197 6.26247e-19)
(0.544576 0.402563 6.49961e-19)
(0.5482 0.490042 -1.04082e-18)
(0.550185 0.489197 8.51707e-19)
(0.508595 0.425352 -3.30398e-19)
(0.447351 0.364806 7.49813e-19)
(0.778292 0.245311 -3.29894e-19)
(0.745494 0.28567 0)
(0.726771 0.219347 1.03739e-20)
(0.720548 0.518067 3.46575e-19)
(0.684336 0.488618 -1.26375e-18)
(0.636774 0.485523 2.3391e-20)
(0.648692 0.455125 0)
(0.676507 0.742833 3.34365e-19)
(0.786747 0.784814 3.63854e-19)
(0.723488 0.840076 -4.23991e-19)
(0.854153 0.799531 -1.33146e-19)
(0.897837 0.845289 -3.00239e-20)
(0.90429 0.85211 3.0794e-20)
(0.839928 0.661839 -5.89586e-19)
(0.912818 0.714336 1.23862e-19)
(0.967367 0.718959 0)
(0.961167 0.69467 -1.60283e-19)
(1.01794 0.311895 1.94549e-19)
(1.13 0.315143 2.2593e-19)
(1.05193 0.267923 3.11189e-19)
(0.972414 0.354004 -3.87397e-19)
(1.01163 0.464028 0)
(1.09734 0.412571 0)
(0.874716 0.383687 1.00621e-20)
(0.846951 0.287212 0)
(0.869425 0.269366 3.64146e-19)
(0.889244 0.312566 6.91443e-21)
(0.924677 0.439679 1.85517e-18)
(0.857554 0.516719 4.67972e-19)
(0.87734 0.460707 -5.22341e-19)
(0.807479 0.451106 5.53907e-19)
(0.799581 0.43566 3.3593e-19)
(0.787168 0.409591 -3.30012e-19)
(1.0276 -0.000867786 5.55076e-19)
(1.02019 3.29775e-05 0)
(1.01882 0.000839113 3.62395e-19)
(1.02238 -0.00146983 -8.20057e-19)
(1.02254 0.00417793 3.99603e-19)
(1.02035 0.0108562 -8.35955e-19)
(1.0212 0.0105324 0)
(1.02015 0.0112309 -1.74351e-19)
(1.01652 0.00731636 4.3697e-19)
(1.01684 0.0104122 -2.19225e-19)
(1.01746 0.00997171 1.60499e-19)
(0.0336173 1.32894 0)
(0.0350423 1.35993 0)
(0.0584308 1.32819 0)
(0.049227 1.28952 0)
(0.0853153 1.36262 -1.18652e-19)
(0.0876629 1.34067 2.51562e-20)
(0.0555324 1.51721 2.00473e-20)
(0.0930127 1.34898 -6.79599e-20)
(0.0456698 1.46213 8.66358e-20)
(0.051265 1.45678 -6.76617e-20)
(0.0763746 1.35862 -2.85883e-20)
(0.0654667 1.36423 1.08147e-19)
(0.0588646 1.34405 1.70348e-20)
(0.0463472 1.36215 1.25917e-20)
(0.101579 2.38486 -6.8289e-20)
(0.090246 2.43333 0)
(0.143378 2.04413 7.21381e-20)
(0.11802 1.71063 1.36839e-20)
(0.217771 2.0391 -6.47967e-20)
(0.210598 2.45058 0)
(0.25503 2.40188 -5.24801e-19)
(0.297011 2.40071 3.76333e-19)
(0.247703 2.01405 -1.58127e-19)
(0.138067 2.1811 1.21292e-19)
(0.11315 2.29211 0)
(0.0173376 1.87985 6.67601e-20)
(-0.0218806 2.41139 2.4795e-20)
(-0.0018809 2.16304 0)
(0.000261758 2.46958 -1.55691e-20)
(0.021036 2.318 -2.33529e-20)
(0.0157794 1.41554 -1.44582e-20)
(0.0428893 1.38956 2.47804e-19)
(0.055953 1.41968 -8.19901e-20)
(0.0106653 1.4172 -7.03689e-20)
(0.0159777 1.43192 0)
(0.0584231 1.39808 0)
(0.0450398 1.1563 -1.22988e-19)
(0.096365 1.37579 3.7744e-20)
(0.0919052 1.374 0)
(0.0384207 1.2069 -8.27162e-20)
(0.0323122 1.00045 1.74911e-19)
(1.04184 0.0128273 0)
(1.04667 0.00891922 -5.76364e-20)
(1.03887 0.0215868 -4.17316e-19)
(1.04808 0.0208644 0)
(1.0533 0.0200499 0)
(1.03572 0.011156 -6.34437e-21)
(1.03067 0.0116196 6.70637e-19)
(1.03177 0.0156217 8.15782e-19)
(1.02603 0.0195614 0)
(1.02279 0.0204307 0)
(1.03521 0.0232915 4.16341e-19)
(1.02515 0.0259824 0)
(1.02477 0.0255303 0)
(-0.0153337 2.08881 0)
(0.0164146 1.87876 2.72494e-20)
(0.0344556 1.95346 -6.03142e-20)
(0.0765159 1.38304 0)
(0.107145 1.66943 -6.92693e-20)
(0.110184 1.51654 6.97118e-20)
(0.0698737 1.40645 0)
(0.410043 1.67923 0)
(0.352272 1.28615 1.0557e-19)
(0.286002 1.33839 0)
(0.417852 1.29728 -1.95404e-19)
(0.462792 1.45025 0)
(0.443037 1.39205 1.05865e-19)
(1.03712 2.69184 -1.34737e-20)
(0.97421 2.41751 -7.92847e-19)
(0.930123 2.19874 9.14492e-19)
(0.857462 2.3917 2.14777e-19)
(0.852302 2.5107 0)
(0.919483 2.50705 0)
(0.940858 2.39121 0)
(0.917204 2.37853 -8.34134e-19)
(0.698581 2.48573 -3.03474e-19)
(0.804487 2.47 -8.1257e-20)
(0.813352 2.44602 6.1539e-20)
(0.701932 2.40885 0)
(0.805109 2.40249 0)
(0.767415 2.41713 -3.37528e-19)
(0.769985 2.49163 0)
(0.606228 1.0711 0)
(0.517507 0.89499 -4.55909e-19)
(0.51928 0.959247 -2.62724e-20)
(0.505513 1.10066 0)
(0.490761 1.01207 7.01069e-19)
(0.75756 0.878964 -1.12078e-19)
(0.772822 1.00901 0)
(0.746317 0.982262 1.50955e-19)
(0.638924 1.02225 0)
(0.634186 0.93743 0)
(1.16482 2.76864 -1.71298e-19)
(1.14013 2.82789 -5.18061e-20)
(0.928078 2.35841 7.52085e-21)
(0.903125 2.33816 -5.50202e-20)
(1.13377 2.74669 0)
(1.08549 2.71578 6.61653e-20)
(1.10066 2.50636 -2.5924e-19)
(1.00047 2.25676 -2.86053e-20)
(0.506216 1.3666 0)
(0.523495 1.09848 -6.43331e-20)
(0.575491 1.17118 0)
(0.875034 0.197057 0)
(0.808595 0.158446 0)
(0.746992 0.148327 0)
(0.878621 0.20856 -5.71947e-19)
(0.803574 0.211062 3.40868e-19)
(0.933548 0.0716871 -3.60104e-19)
(0.946241 0.117524 0)
(0.920975 0.124511 1.56032e-19)
(0.872449 0.0865745 6.25572e-19)
(0.846249 0.0589463 -3.90816e-19)
(1.10288 3.36477 -7.33617e-19)
(1.16783 3.28768 0)
(1.12285 3.44988 -1.67005e-18)
(0.661939 3.59526 1.39689e-18)
(1.03252 3.09484 1.85682e-19)
(0.518436 0.833054 4.95722e-19)
(0.507781 0.801618 0)
(0.38023 0.50603 -1.35934e-19)
(0.453292 0.685613 7.65272e-19)
(0.515936 0.483778 -1.8902e-19)
(0.5063 0.525436 2.14037e-19)
(0.674225 0.554893 4.50334e-19)
(0.703776 0.580067 0)
(0.632399 0.625409 0)
(0.599523 0.572998 0)
(0.968598 0.610317 7.60882e-20)
(0.905669 0.556559 -4.5278e-19)
(0.932643 0.594278 3.18333e-19)
(0.982137 0.506325 -3.4568e-19)
(1.03456 0.490112 0)
(1.04851 0.600177 -8.0499e-20)
(0.834687 0.39558 -7.6261e-19)
(0.8304 0.389331 -9.58626e-19)
(0.80111 0.388561 5.95086e-19)
(0.801521 0.351099 -6.18577e-19)
(0.839806 0.30117 -4.78738e-19)
(0.807089 0.301819 5.8752e-19)
(1.0265 0.00591761 -4.17447e-19)
(1.02621 0.00604507 8.42422e-19)
(1.02943 0.000311903 5.37336e-19)
(1.03338 0.000871163 -6.45671e-19)
(1.03362 0.0103403 0)
(1.0297 0.0101393 -1.04906e-18)
(0.0797443 1.65913 -5.10534e-22)
(0.046425 1.58376 0)
(0.0944494 1.70753 -2.06423e-20)
(0.104246 1.69086 2.10493e-20)
(0.0419502 1.51368 -3.76082e-20)
(0.0452065 1.50595 0)
(0.021772 1.73785 0)
(0.0328996 1.58033 2.1287e-20)
(0.063214 1.48806 -1.91344e-20)
(0.0460038 1.65002 1.97051e-20)
(0.0165083 1.95689 4.06159e-20)
(0.000569737 1.9696 -1.06028e-20)
(0.494714 1.38427 -1.38969e-19)
(0.497862 1.38247 1.53474e-19)
(0.431205 1.29101 7.64999e-20)
(0.429296 1.30268 1.75745e-21)
(0.611483 1.29352 0)
(0.541683 1.3826 1.89537e-19)
(0.543386 1.38832 -1.84335e-19)
(0.465527 1.26555 -7.31988e-20)
(0.507783 1.23102 0)
(0.576255 1.20381 0)
(0.673665 2.44903 4.47335e-19)
(0.664936 2.47225 1.15516e-18)
(0.722923 2.48642 -7.92843e-19)
(0.625357 2.46081 -1.8545e-19)
(0.556327 2.56043 2.39723e-19)
(0.496061 2.52009 -6.32741e-19)
(0.986298 2.39253 -5.13572e-19)
(1.02279 2.4126 0)
(0.942047 2.18655 -5.65348e-19)
(1.05516 2.69598 0)
(1.05495 2.67957 0)
(0.616901 2.31862 9.33933e-20)
(1.12351 3.08865 1.61128e-19)
(1.0055 2.98763 -2.21254e-19)
(0.33828 0.879899 0)
(0.355777 0.788782 -2.69266e-19)
(0.541806 0.711296 -2.59787e-19)
(0.383652 2.16516 0)
(0.413218 2.7556 -1.30768e-19)
(0.423479 2.49471 0)
(0.68046 0.707056 -7.12376e-19)
(0.735658 0.695457 1.00185e-18)
(0.746757 0.657846 -1.00017e-18)
(0.670496 0.667135 -9.25848e-20)
(0.724736 0.620627 -3.87154e-19)
(0.97891 2.77297 -1.22051e-19)
(1.01606 2.77663 -1.20414e-19)
(0.569904 2.24403 2.92412e-19)
(0.617279 1.76577 -2.4881e-19)
(0.715092 1.87855 -3.99227e-19)
(0.983309 2.41329 -1.31727e-19)
(0.981243 2.36844 2.80074e-19)
(0.661674 1.79936 2.67412e-20)
(0.46901 1.3268 1.34536e-19)
)
;

boundaryField
{
    wall-4
    {
        type            noSlip;
    }
    velocity-inlet-5
    {
        type            fixedValue;
        value           uniform (1 0 0);
    }
    velocity-inlet-6
    {
        type            fixedValue;
        value           uniform (0 3 0);
    }
    pressure-outlet-7
    {
        type            zeroGradient;
    }
    wall-8
    {
        type            noSlip;
    }
    frontAndBackPlanes
    {
        type            empty;
    }
}


// ************************************************************************* //
