/*--------------------------------*- C++ -*----------------------------------*\
  =========                 |
  \\      /  F ield         | OpenFOAM: The Open Source CFD Toolbox
   \\    /   O peration     | Website:  https://openfoam.org
    \\  /    A nd           | Version:  6
     \\/     M anipulation  |
\*---------------------------------------------------------------------------*/
FoamFile
{
    version     2.0;
    format      ascii;
    class       surfaceScalarField;
    location    "47";
    object      phi;
}
// * * * * * * * * * * * * * * * * * * * * * * * * * * * * * * * * * * * * * //

dimensions      [0 3 -1 0 0 0 0];

internalField   nonuniform List<scalar> 
1300
(
3.75095
5.62643
-3.27955
3.75095
-7.73474
5.62643
-4.23699
4.23699
-0.718642
0.718642
1.87646
1.87449
-2.59451
2.59451
-2.03782
2.03782
-2.54321
2.54321
-5.24803
5.24803
-5.06912
5.06912
4.71262
-4.71262
-6.30055
6.30055
-1.06354
1.06354
-3.65404
3.65404
3.17284
-3.17284
-2.01586
2.01586
-0.148314
0.148314
-0.554105
4.30506
3.19685
3.19685
-1.97414
1.97414
-4.87449
4.87449
6.22245
-6.22245
5.23732
-5.23732
-1.95776
-2.42302
1.81159
-11.5637
-5.92315
-5.92315
-8.44101
8.44101
-2.81458
2.81185
2.94594
-2.94594
-1.73489
1.73489
-4.22515
-0.01184
-4.22515
4.21906
0.0179296
4.21906
-0.800648
0.0820067
-0.800648
3.86139
-3.86139
0.593142
0.125499
0.593142
3.06702
-3.06702
-1.87688
3.75334
1.87408
-1.87207
6.17713
-1.87888
3.75337
-6.05673
6.05673
-2.81544
0.220924
-2.81544
2.39803
0.196481
2.39803
-6.85693
6.85693
-2.08736
0.0495392
-2.08736
2.02425
0.013576
2.02425
2.88256
-2.88256
-2.64061
0.097399
-2.64061
2.41063
0.132582
2.41063
0.353429
5.273
-5.97986
8.79171
-5.273
0.0249708
5.21031
0.037721
5.21031
-5.1051
0.0359726
-5.1051
5.01289
0.0562316
5.01289
4.80629
-0.0936722
4.80629
-4.82757
0.114953
-4.82757
-3.38999
-4.07557
-6.46421
0.163659
-6.46421
-1.09419
0.0306479
-1.09419
1.00171
0.0618283
1.00171
-3.68203
3.68203
-3.97085
0.316807
-3.97085
3.12783
0.0450073
3.12783
1.86813
1.88283
5.61908
-5.61908
2.44624
-1.96789
-0.0479726
-1.96789
-2.09213
-3.14518
2.09213
-0.076273
-0.363998
0.215683
-0.363998
3.15703
0.0398201
3.15703
2.24952
0.161111
-2.24952
0.275373
3.27882
-3.27882
1.3043
0.669843
1.3043
-5.5595
5.5595
4.96121
0.0516814
-4.96121
0.0867239
6.15687
0.0655806
6.15687
-6.20781
-0.0146429
-6.20781
2.53885
-4.96187
-2.5938
6.11077
0.18978
-6.11077
0.187619
2.91684
0.0290983
2.91684
-2.92038
2.92038
-2.98337
0.0374337
-2.98337
-2.15982
0.424927
-2.15982
1.41737
0.317514
1.41737
-4.11433
-0.11082
-4.11433
-4.10343
0.132588
4.10343
0.115628
1.08514
-1.08514
-0.862822
0.0621741
-0.862822
-3.95601
-0.158326
3.95601
-0.0946161
-3.81643
-0.0449577
-3.81643
-3.02135
0.0379807
3.02135
0.0456648
3.11195
0.0450762
-3.11195
0.0449342
-1.87098
3.75381
-1.87997
3.75405
-5.67369
-0.383035
-5.67369
6.34599
-0.289261
6.34599
3.20828
0.44576
-3.20828
0.392843
2.25599
0.142038
2.25599
-6.83277
-0.0241661
-6.83277
6.86153
-0.00459917
6.86153
2.15925
0.0967437
-2.15925
0.0718862
1.9942
0.0300464
1.9942
2.90766
-0.0251033
2.90766
-2.87805
-0.00451422
-2.87805
2.79537
-2.79537
2.72346
0.0719101
-2.72346
0.0828539
-11.1239
11.1093
-0.036314
-11.0876
5.174
5.174
4.26195
0.544346
4.26195
-5.01829
0.190723
-5.01829
2.67789
-5.27169
3.079
-6.46899
4.68952
-16.2532
4.32151
-8.39708
6.71348
-6.71348
6.59633
0.117153
-6.59633
0.132114
-1.16624
0.0720521
-1.16624
-3.08934
-0.592691
-3.08934
4.33387
-0.651844
4.33387
-3.02814
3.02814
-3.07679
0.0486473
3.07679
0.0510431
1.96294
0.0312643
-1.96294
-0.00494949
0.467483
0.12566
-0.467483
0.103485
3.49176
-0.212939
3.49176
-3.08167
-0.197149
-3.08167
-1.23819
0.0719477
1.23819
0.0661138
-5.80834
0.248832
-5.80834
-11.1816
0.0940272
-11.1439
-6.11378
-6.11378
2.32723
11.1189
-2.89442
0.0163719
2.89442
0.0224227
2.97579
0.0523494
-2.97579
0.0554127
-2.86058
0.0652083
2.86058
0.059795
-2.52993
0.37011
-2.52993
-1.0237
1.0237
-1.17895
0.155246
1.17895
0.238424
1.37404
-0.288905
1.37404
0.936596
0.0651147
-0.936596
0.0737739
-3.77831
-0.0381193
-3.77831
6.5813
-0.235306
6.5813
-2.95629
-0.125386
2.95629
-0.0486224
-0.0349713
11.1442
-5.13902
0.0339274
5.13902
-11.2098
11.2438
-3.23836
0.708437
3.23836
1.02358
5.28507
0.274431
-5.28507
0.26678
6.80297
0.0585598
-6.80297
0.0894939
-2.58463
-0.504708
-2.58463
-5.07212
-0.601569
5.07212
-0.738252
-11.4825
-0.201984
11.6845
-11.4263
6.01032
0.146552
-6.01032
11.3903
-0.977946
-0.107192
0.977946
0.0457579
1.71133
-0.337284
1.71133
3.6983
-0.20654
-3.6983
-0.080014
-6.7306
-0.102168
6.7306
-0.149303
-2.14024
-0.444388
2.14024
-0.428915
-4.26727
4.30709
1.90986
-2.37274
-2.58913
-5.51793
1.855
1.89881
4.30124
-10.2057
-6.04759
-10.018
7.21239
-6.94561
-9.35446
9.26079
7.81825
-7.8632
-5.77801
5.82905
6.48409
-6.43842
1.87927
1.87407
7.99807
-7.77715
-15.7082
15.3252
7.56107
-7.51153
15.8439
-15.8681
-17.9041
17.9626
-5.70054
5.79793
-6.73629
6.73178
-6.9683
6.91968
-2.83154
-3.63745
13.1824
-13.0187
8.54331
-8.59128
-8.63714
8.95395
3.38453
0.922563
3.4296
-1.88194
3.76121
-1.87143
3.78129
2.70766
-5.5392
2.56403
-5.15316
4.3273
4.21601
-4.25103
-1.2669
-5.92662
5.95572
-5.81214
5.87193
9.04529
-9.05713
-1.88499
3.75905
-1.86906
3.76787
-3.4234
-2.3546
3.3784
0.922846
8.10876
5.07359
-8.29854
-1.7195
-7.97018
7.76364
-8.19432
7.99717
-0.436515
5.83706
-5.40055
4.43797
-1.6535
7.49056
5.55889
5.74962
5.86031
-5.58588
1.0853
-6.48585
-6.39913
-2.4532
2.51537
2.39431
-2.26881
6.03552
1.78273
5.9409
-5.75045
-2.11276
-5.78856
3.82029
2.00876
3.86894
4.08117
2.40292
4.11915
3.02998
-3.03619
0.0062095
-3.05898
6.08896
0.722869
-5.41359
-4.49074
5.0094
2.98867
5.20588
-5.57191
-2.20524
-5.17907
-9.58381
-6.12441
-10.1854
10.1075
5.21772
9.8182
-11.9831
11.8338
4.84066
2.72041
4.85424
-4.96441
-2.54712
-4.89252
11.6683
-2.63047
-9.03784
-10.3444
-7.55966
10.349
5.49493
11.0024
6.9602
11.0919
4.43771
7.2306
-9.93264
2.37298
-3.86405
-1.83648
-3.7812
3.65881
2.13912
3.7914
-4.21681
-2.51948
-4.20044
-4.29159
-2.67671
4.31669
2.41509
-4.40821
-3.78611
4.5336
2.38608
4.06381
-10.1114
4.33327
-7.97071
-9.23765
-3.78104
-9.10554
3.50262
2.60537
-6.10799
-2.03658
8.45664
-4.24063
7.18974
-5.20318
-3.3881
-5.20813
-6.90023
-1.73692
-6.76764
-8.96026
8.45555
-9.23834
8.58649
12.6275
-5.67601
-6.95151
-3.96682
-2.4716
3.92188
-0.492279
-3.71026
3.71647
0.0509527
3.83224
4.75481
4.26253
-3.88314
-1.929
-3.82772
3.82427
2.04766
3.88948
6.77843
2.26686
6.79636
-6.50008
-2.55706
-6.6109
9.13244
-8.70751
2.84959
-2.77765
5.34522
2.65196
-5.13228
-2.8379
6.23383
-3.18508
-3.04875
-12.3555
10.8415
1.51406
-4.86498
-0.42701
-0.278696
-5.58295
-3.77151
5.468
0.281616
11.1231
7.35159
-5.51487
5.7637
6.16962
6.2213
-0.177828
5.91375
-5.20532
5.32878
-2.62496
-2.70382
5.38425
-5.54257
-1.22665
-5.46039
4.23375
0.398328
1.67587
-1.46018
-1.89028
-0.562924
-1.8165
1.39716
0.997149
1.52282
0.909307
1.60607
-2.9219
0.58074
2.34116
-2.01259
-1.68807
-3.71289
-1.14236
4.85525
5.66277
2.10087
-5.58275
-0.20581
2.63872
-2.57689
-0.767849
-2.94504
2.17989
-2.94774
-3.51639
-1.8799
5.39628
-3.36925
-0.458474
3.3169
0.552038
-3.82742
-2.0992
3.78998
0.329168
-3.12766
6.1901
-3.06244
-5.05666
2.52897
3.55999
4.53772
-4.79064
2.44866
2.34198
-1.23065
4.28518
0.920703
4.42721
-6.99179
4.78655
5.71422
3.23972
-6.15998
0.980915
-6.01087
8.43059
-7.27876
-1.15183
3.98044
4.45015
7.06791
5.55962
-5.71738
12.7853
-1.0741
-6.20467
7.08497
-3.84525
4.79484
-8.64009
-10.3545
4.1498
-9.24127
11.0418
-1.80052
-3.61102
-8.37204
12.8523
-1.21085
-11.6414
8.60735
-4.25121
-4.29407
8.54528
-6.88168
6.84119
-1.9771
-4.86409
-10.1527
-5.71541
10.2549
1.57891
-9.8906
12.2636
-2.65999
4.13831
0.715924
4.16836
3.30439
-5.43695
2.13256
3.57729
-5.55438
2.0736
-7.51055
-6.7734
12.1227
-5.34925
-10.5544
-9.56994
-0.984504
2.56003
9.70355
-9.52022
7.4664
2.05382
3.30132
0.588153
-3.37323
-0.407968
0.242054
4.51661
-4.75866
4.03345
4.19456
3.24572
1.27089
3.84757
2.10815
-3.86999
-0.330446
-4.16349
1.48678
-1.74841
-3.68777
5.17455
-4.06311
0.375337
-2.74351
-3.49712
6.24063
-4.57999
3.03718
3.15292
5.08485
-4.91394
1.41682
-2.39339
-2.52055
2.64629
-4.39469
1.98937
3.18518
4.37545
0.589341
5.90718
6.21547
-8.51255
0.541836
11.2891
-9.56957
2.47887
8.61305
-9.94527
0.375336
-8.7302
0.980405
-5.22104
-5.12758
5.13824
-6.87515
-3.50185
6.21769
0.578677
-6.33332
-0.434321
-6.08182
-2.87844
-6.52621
-3.05941
-6.17892
-8.77679
-1.68394
-7.09285
6.77162
-6.71161
-3.47377
7.44986
1.13663
-7.48702
7.37983
-7.5526
7.21532
0.0944005
3.62207
4.35693
1.88532
-2.39142
4.27675
-5.07249
7.33935
-8.69528
3.62279
4.15552
-6.71257
-4.53976
5.07282
4.05962
5.39033
8.97175
-10.4554
1.48366
-10.7327
12.0701
-1.33734
-16.5333
5.80063
-7.5616
2.5182
0.331391
2.59026
0.593538
2.48889
-3.08243
-2.18411
-2.11799
-2.40592
-3.49487
5.90079
1.10498
-3.43025
2.32527
-3.5773
4.68228
-0.00534282
-3.42491
5.20415
-2.71526
5.53554
-3.58265
1.9529
3.51857
5.83083
-2.31226
4.42014
-1.76818
1.91264
-4.2249
-1.58223
-2.958
5.09712
-3.28263
3.65797
-0.338451
3.99642
-4.08092
0.895844
-0.835196
3.35937
3.63474
4.32549
-3.05461
2.94816
-4.71634
-1.27674
-4.127
-0.941814
-0.210895
-3.84291
4.05381
6.05542
-6.26632
-5.30209
9.55923
-4.25714
7.72573
-5.45661
-2.26912
-4.30867
-4.39883
3.93856
1.97519
9.70092
0.179438
-5.63605
-5.02588
-4.0023
3.17247
2.15631
-1.85822
3.37229
2.13692
-0.461052
0.462809
1.06002
1.82325
-1.36044
0.296682
1.52657
-1.1635
1.84264
0.79608
-1.90776
0.091253
-1.25978
3.43967
1.08138
-2.07852
0.718081
0.932543
-3.5575
4.97901
-2.6849
-2.29411
5.91155
1.13401
-3.81891
4.32639
-3.92806
2.40435
-3.54671
-1.41455
-5.34261
-3.55988
-2.51883
4.8441
-3.38196
5.48283
1.32771
-5.27702
6.60474
-3.61673
1.73684
-3.06246
3.85854
-1.06555
-1.99691
2.92902
2.46726
-3.09239
0.147348
-0.163373
2.39277
-2.55615
-0.554965
-2.56756
-4.57503
4.90419
-2.10464
4.55329
2.17211
-1.91661
6.46991
1.80884
-3.72545
-3.24782
-3.70629
-1.38347
3.15426
-0.591457
-4.30107
-5.45555
4.20432
0.222892
-6.86941
7.79274
-0.923329
-3.88074
-0.905816
4.88625
-6.03065
0.476263
-3.95705
3.83569
4.75639
4.97928
-11.4183
-0.223147
-6.20057
1.12114
-7.32171
5.57129
-3.54863
7.69843
-10.3733
6.89952
-9.23665
6.5466
-0.77511
6.23109
-4.09853
2.80675
-8.52216
-6.94325
5.4809
-2.7605
6.19683
-3.12478
9.32161
-5.78478
5.24579
4.07582
-1.0127
-4.19543
-5.24998
4.23728
-0.00419183
4.16417
4.98448
-2.87633
4.65403
2.26015
-4.65354
-2.13455
-6.48905
1.83551
-3.33613
-1.92019
3.7557
3.16465
3.7528
1.23515
-3.34484
7.21566
-8.20016
-1.86641
-3.26117
5.22874
-0.991458
3.3804
-6.64157
-1.84064
4.8071
-0.746402
-4.0607
0.868913
-4.37076
1.68189
-6.05265
5.19327
-5.62759
2.24837
-9.80997
-5.23865
-5.1929
-2.28
-5.2726
-7.61895
5.33895
-1.81832
5.56151
-8.58405
7.83764
-3.48602
8.82497
-5.47153
-1.05468
5.90044
1.31487
10.1398
0.127454
-4.66722
-1.93798
3.82894
-1.89095
1.23449
-3.71546
0.113479
2.47149
3.44006
-6.70523
-0.00733718
-4.67455
-3.91821
7.97783
5.64102
11.6964
1.24104
9.17336
-1.19553
10.4144
4.1948
4.43322
-3.04914
4.5328
1.00466
4.62745
-0.866143
2.81904
1.72411
1.75476
0.822132
2.29749
1.33725
3.19333
0.110899
-2.0071
4.64829
-8.65059
-0.987758
-8.10624
1.15455
5.42822
-4.27367
2.98573
-0.829426
1.09478
-0.0535707
-1.46952
1.52309
-2.75739
-1.93057
-0.403999
-1.61526
2.33334
1.82441
-1.92934
-0.828051
0.32754
-3.88742
3.21917
-3.07182
-0.604559
6.00018
-2.83689
0.280741
-1.10005
-2.28682
-2.84974
2.75849
6.17482
0.29509
3.11238
5.19928
3.10008
0.223754
3.89603
-5.69655
-3.61452
-5.9197
-0.348406
4.53785
1.71838
7.98517
5.7942
4.80274
-1.83883
-10.039
6.55511
-2.02231
5.21777
-1.15707
-4.89558
5.05597
2.28338
-5.63464
0.00705468
-4.88853
-6.91083
-0.488986
8.32663
-9.65085
8.59617
5.71774
1.37512
-4.44608
-0.746815
4.29084
0.142389
10.5568
-0.905158
-7.14386
8.04902
-4.52306
3.5353
0.718564
2.65372
2.24165
1.41223
-5.73164
-10.0053
-2.01032
-1.54718
-4.30443
0.550822
-2.37524
6.09712
-2.56182
3.828
5.4872
6.58198
-2.06274
-4.20358
6.31988
-2.49188
4.0901
)
;

boundaryField
{
    wall-4
    {
        type            calculated;
        value           uniform 0;
    }
    velocity-inlet-5
    {
        type            calculated;
        value           uniform -3.75095;
    }
    velocity-inlet-6
    {
        type            calculated;
        value           uniform -5.62643;
    }
    pressure-outlet-7
    {
        type            calculated;
        value           nonuniform List<scalar> 8(3.27955 7.73474 4.38078 9.75214 7.46555 5.13265 5.75689 9.01103);
    }
    wall-8
    {
        type            calculated;
        value           uniform 0;
    }
    frontAndBackPlanes
    {
        type            empty;
        value           nonuniform 0();
    }
}


// ************************************************************************* //
