/*--------------------------------*- C++ -*----------------------------------*\
  =========                 |
  \\      /  F ield         | OpenFOAM: The Open Source CFD Toolbox
   \\    /   O peration     | Website:  https://openfoam.org
    \\  /    A nd           | Version:  6
     \\/     M anipulation  |
\*---------------------------------------------------------------------------*/
FoamFile
{
    version     2.0;
    format      ascii;
    class       volVectorField;
    location    "47";
    object      U;
}
// * * * * * * * * * * * * * * * * * * * * * * * * * * * * * * * * * * * * * //

dimensions      [0 1 -1 0 0 0 0];

internalField   nonuniform List<vector> 
918
(
(0.985048 -0.000710636 0)
(0.00534917 2.96624 0)
(-0.000965093 0.865919 0)
(0.979573 0.00195965 0)
(-0.0126958 2.05769 3.09443e-20)
(-0.00709253 2.94856 -2.62999e-18)
(0.801236 1.11892 4.33514e-19)
(0.248251 0.0980092 -1.49205e-20)
(0.999921 -0.000243103 0)
(0.0830672 0.723206 0)
(0.0150766 0.49951 0)
(0.734221 -0.0170873 0)
(0.0101899 2.93162 0)
(0.0038428 2.79411 0)
(-0.000819921 3.18779 8.2758e-19)
(-0.0128672 1.91128 9.80273e-21)
(0.310738 0.0220787 9.88112e-19)
(0.232791 1.13253 3.48443e-19)
(0.964437 0.00672872 0)
(-0.0294894 0.467425 0)
(0.0554944 0.146041 -7.06561e-19)
(1.00184 -0.0045636 0)
(0.999851 -0.00893272 0)
(0.975157 -0.0060559 0)
(0.594686 -0.0357829 0)
(0.0221656 2.64465 0)
(-0.0123043 2.9119 9.66084e-19)
(-0.00228865 0.931798 0)
(-0.014058 1.16519 0)
(-0.00161768 0.903703 0)
(-0.0209958 2.60837 0)
(-0.00360139 2.10929 -2.47113e-20)
(-0.00908231 1.88334 0)
(-0.0221368 2.9876 -9.49623e-23)
(-0.0164963 3.00549 2.04359e-18)
(0.00230045 3.00059 0)
(0.871473 -0.00964494 0)
(0.377351 0.919998 1.63211e-19)
(0.800711 1.13064 -5.37337e-19)
(0.936119 0.985325 5.49842e-19)
(0.667786 1.21428 -9.99217e-20)
(0.679531 1.18812 5.74168e-19)
(0.270506 0.183617 1.45563e-20)
(0.255553 0.08129 0)
(1.1395 0.52152 0)
(0.236694 0.174931 6.63528e-20)
(0.215629 0.100226 -6.88556e-20)
(0.920454 -0.00701648 0)
(1.00026 7.41738e-05 0)
(0.999909 0.000319184 0)
(1.0037 -0.00728523 0)
(1.00089 -0.00094787 0)
(1.00011 -1.16816e-05 0)
(0.0944769 1.83654 -7.58359e-19)
(0.036394 0.895443 0)
(0.134457 0.794253 0)
(0.0158665 0.848119 0)
(0.0437732 0.655872 0)
(0.00752633 2.01728 0)
(-0.00288221 0.757852 0)
(0.00646452 0.527362 0)
(-0.00256846 0.751624 0)
(0.0125435 0.4934 0)
(0.84164 -0.0157501 0)
(0.840162 0.0335883 0)
(0.766222 -0.00729271 0)
(0.810638 0.0443682 0)
(0.701601 -0.0173663 0)
(0.0139353 3.00021 9.76775e-19)
(0.011154 3.00595 0)
(0.00625148 3.00387 0)
(0.0118961 2.99711 1.11007e-23)
(0.00824926 2.95876 -1.45173e-18)
(0.0122301 2.98297 0)
(0.00905446 2.90478 0)
(0.0212568 2.93178 2.26715e-24)
(0.00409825 2.82372 0)
(0.0256004 2.91861 0)
(-0.00114555 2.74481 0)
(0.309309 3.58701 0)
(-0.122504 3.67027 0)
(0.152088 3.27879 -7.70231e-19)
(0.00554614 3.01245 0)
(-0.0247607 1.99808 0)
(-0.00664819 2.1756 -9.66817e-21)
(-0.00723402 1.92533 6.28281e-21)
(0.399622 0.139667 -3.42193e-19)
(0.322091 -0.00176609 -3.31312e-19)
(0.368173 0.15655 -1.02774e-18)
(0.294579 0.0339786 -6.74166e-19)
(0.260329 1.00207 0)
(0.330045 1.25986 -3.61884e-19)
(0.405161 1.16334 5.96069e-19)
(0.987846 0.00811101 0)
(0.943394 0.00578214 0)
(1.00028 0.000672244 0)
(1.00254 0.00906856 0)
(1.00313 0.00896123 -2.61442e-18)
(0.992134 0.00945903 1.97561e-18)
(-0.0150096 0.760203 0)
(-0.0133966 0.454272 0)
(-0.03744 1.00146 0)
(-0.0335446 0.800721 0)
(-0.0111158 0.466393 0)
(0.064318 0.157145 2.18563e-19)
(0.118783 0.128567 0)
(0.993613 -0.00769902 0)
(0.954017 -0.00647257 0)
(0.752621 0.0502215 0)
(0.687952 0.0545931 0)
(0.660441 -0.0223554 0)
(0.973356 -0.00421465 0)
(0.616463 0.0593647 0)
(0.449542 -0.0294265 1.47077e-18)
(-0.0411013 2.86094 7.68489e-19)
(0.0336598 2.91423 0)
(0.0423602 2.89217 0)
(0.00380303 2.70154 0)
(-0.00887658 2.98646 9.25742e-19)
(-0.0142792 2.89476 0)
(-0.0109796 2.99191 -2.8479e-18)
(-0.0116263 2.92972 9.68717e-19)
(-0.0209274 1.33939 0)
(0.00396897 1.37004 0)
(-0.00820828 2.13669 5.47696e-22)
(-0.00750577 2.09321 0)
(-0.0175288 1.89686 0)
(0.938501 -0.00535455 0)
(0.856577 -0.0109977 0)
(0.863586 0.00555841 0)
(0.949388 -0.00626681 0)
(0.883371 -0.00802845 0)
(0.501743 1.12077 -2.07409e-19)
(0.549137 1.19117 0)
(0.3386 0.853753 3.18432e-20)
(0.282306 0.71848 0)
(0.898168 1.02292 -1.54416e-19)
(1.0149 0.826805 3.0493e-19)
(0.387415 1.32331 0)
(0.530532 1.27505 0)
(0.582513 1.20618 0)
(0.0976647 0.176371 -2.92294e-19)
(0.29064 0.179705 0)
(0.254297 0.0773176 1.90545e-19)
(0.979621 0.882544 0)
(1.05607 0.729881 0)
(1.08477 0.663473 -2.39227e-19)
(1.12356 0.5789 0)
(1.17834 0.38849 4.47218e-20)
(0.957317 -0.0071946 0)
(0.962629 -0.00816925 0)
(0.90073 -0.0073336 0)
(0.983903 -0.00813637 0)
(0.974376 -0.00806481 0)
(0.936484 -0.00654625 0)
(1.0002 0.00249978 0)
(1.00076 0.00124491 0)
(1 0.000768329 0)
(0.0428434 2.08291 4.22403e-19)
(0.145583 1.78063 0)
(0.016951 2.20098 6.40571e-19)
(0.0526087 1.88627 -5.38027e-19)
(0.170037 1.11333 -2.85729e-19)
(0.0520655 0.977277 0)
(0.123175 0.971865 0)
(0.00611492 0.81515 0)
(0.0209282 0.595011 0)
(-0.0047453 2.25065 -7.35456e-22)
(0.0205362 2.0241 0)
(-0.00546667 2.25169 -2.84151e-20)
(0.00508443 2.02934 4.36199e-20)
(0.00472249 0.781247 0)
(0.0014871 0.769061 0)
(0.00887588 0.557459 0)
(-0.000150316 0.745761 0)
(-0.00261258 0.488297 0)
(0.937793 0.0134826 0)
(0.85369 -0.0118024 0)
(0.927472 0.00454437 0)
(0.844902 -0.0128614 0)
(0.812208 -0.00163435 0)
(0.898826 0.0227869 0)
(0.87342 0.0280008 0)
(0.788596 -0.00498773 0)
(0.0102291 3.06783 -9.11374e-21)
(0.0149893 3.05895 0)
(0.0124356 2.97026 0)
(0.00766146 2.87667 0)
(0.900079 3.98464 0)
(1.19532 3.37914 9.45018e-19)
(0.0826667 3.09399 0)
(-0.0161783 2.91972 0)
(-0.0103376 1.38995 0)
(-0.028425 1.70097 0)
(-0.0155832 1.52969 0)
(-0.0320338 2.5655 -1.05743e-20)
(-0.0142019 2.25507 0)
(-0.0197602 2.4029 0)
(0.00243107 1.95476 1.81404e-21)
(-0.00540775 2.24858 -1.00898e-20)
(-0.00529389 2.21033 -6.5422e-21)
(-0.0031763 1.94171 0)
(0.426906 0.117011 5.22042e-19)
(0.347558 -0.00966437 -5.12162e-19)
(0.230688 1.58571 0)
(0.285903 0.748511 -3.22722e-19)
(0.179649 1.68111 -1.06927e-18)
(0.243282 1.21038 1.07012e-18)
(0.901842 0.00607711 0)
(0.967179 0.0105303 0)
(0.975045 0.00977227 0)
(0.923123 0.00594534 0)
(-0.0108398 0.743034 0)
(-0.0160751 0.752672 0)
(0.000813129 0.462657 0)
(0.199231 0.171407 6.10028e-19)
(0.16084 0.157578 -7.24803e-19)
(0.164518 0.112357 0)
(1.09811 0.0875136 2.41237e-20)
(1.08196 0.0404975 0)
(1.01328 0.0426048 0)
(0.909121 -0.00265384 0)
(0.461174 0.0943429 0)
(0.521225 0.0715405 -2.35704e-18)
(0.385147 -0.013924 8.8725e-19)
(0.0109313 2.9775 8.11915e-19)
(-0.0323807 2.86204 4.69557e-20)
(0.00859165 3.05312 -1.9228e-20)
(0.0156971 3.04344 7.21158e-19)
(-0.0118087 2.99995 3.18579e-20)
(-0.0123541 2.95227 -1.28602e-22)
(-0.0150434 3.0133 -5.94676e-19)
(0.0142678 3.0267 4.17697e-19)
(0.00758962 3.0347 -6.78507e-19)
(0.933944 0.00185487 0)
(0.938991 -0.00134431 0)
(0.847187 -0.0111074 0)
(0.956539 0.0115497 0)
(0.942769 0.0129428 0)
(0.881852 0.00575707 0)
(0.916379 0.0180014 0)
(0.925745 0.0148477 0)
(0.838163 0.00207712 0)
(0.675282 1.42078 2.21626e-20)
(0.69352 1.53173 0)
(0.121938 0.306823 6.77541e-20)
(0.202491 0.641336 5.37367e-19)
(0.236961 0.691391 -3.14716e-19)
(0.219808 0.515363 6.23249e-19)
(0.33031 0.810684 1.54851e-18)
(0.127523 0.227439 3.73045e-19)
(0.343884 0.17634 7.1672e-19)
(0.317027 0.186935 1.8548e-19)
(0.268297 0.05883 3.55994e-19)
(1.17311 0.435911 8.0407e-20)
(1.20233 0.242262 8.00412e-20)
(0.0069478 2.24274 2.51131e-19)
(0.0393002 1.94959 0)
(0.96925 0.0323346 0)
(0.944312 0.0188483 0)
(0.867371 -0.0155465 0)
(0.0125824 3.07422 0)
(0.0168173 2.94413 1.27619e-18)
(0.0139229 2.95673 0)
(0.00587632 2.84979 -1.26615e-18)
(0.00939671 3.09107 3.11998e-19)
(0.0113705 3.08339 0)
(0.714416 1.82934 -1.74341e-19)
(1.23985 2.63609 5.89066e-19)
(0.699226 2.00785 -1.41189e-18)
(0.0223098 2.97605 -7.08853e-19)
(0.0410373 2.99874 0)
(-0.0385873 2.87898 0)
(-0.00569056 2.23107 -1.319e-20)
(-0.00422903 2.25262 1.41647e-20)
(0.00179442 1.99024 -7.64487e-21)
(0.266764 1.38837 1.03026e-18)
(0.274184 0.538894 -7.06844e-19)
(0.0709692 1.99895 7.57727e-19)
(0.121176 1.86949 -9.13747e-19)
(0.207407 1.52806 1.03998e-19)
(0.00829154 3.11914 -1.7426e-18)
(0.0154356 3.12019 1.92464e-18)
(-0.00516126 2.98001 8.7003e-19)
(-0.000700549 2.97492 -8.36973e-19)
(-0.0180601 2.87773 -8.86155e-19)
(0.0124887 3.09872 -2.31824e-18)
(0.00468663 3.10727 2.36089e-18)
(0.254266 0.682817 0)
(0.205944 0.647055 -1.13635e-18)
(0.0701928 0.211535 4.99448e-19)
(0.341531 0.9284 1.10757e-18)
(0.192456 0.270131 -1.70522e-18)
(1.18527 0.172343 4.99446e-20)
(1.19939 0.298613 0)
(1.18106 0.119608 5.47816e-21)
(-0.00314021 2.25986 -1.46672e-21)
(0.00181603 2.24679 0)
(0.0313733 1.98403 0)
(0.311532 1.30911 -3.68273e-19)
(0.351122 1.15525 -7.96508e-19)
(0.223336 0.379014 1.42009e-18)
(1.00643 -0.00970632 0)
(1.00774 -0.00780271 4.80596e-19)
(-0.0197475 1.31792 0)
(-0.0353938 1.31225 0)
(1.00245 0.00329672 1.36794e-21)
(1.00323 0.00786174 9.86562e-19)
(-0.0230123 2.55051 1.33912e-20)
(-0.0275961 2.59308 0)
(0.041702 3.17287 5.08526e-19)
(0.377961 3.5498 0)
(1.14474 0.681752 -5.50615e-20)
(1.01192 0.0107643 -2.79877e-21)
(1.02079 -0.00909299 0)
(1.0016 0.000244165 1.52625e-22)
(0.10929 1.36382 0)
(0.143212 2.59186 0)
(0.0236545 1.31378 0)
(-0.00176621 2.63604 2.14799e-20)
(-0.0205925 2.58691 7.04014e-21)
(0.998398 0.0271094 2.69769e-21)
(1.06221 0.00522565 0)
(1.0984 0.0274169 0)
(-0.0272615 1.74169 0)
(-0.0191333 2.59177 0)
(-0.00591469 1.31028 0)
(0.293164 1.48289 -1.72624e-19)
(1.01148 -0.00908818 0)
(1.00969 -0.0130031 0)
(1.0023 0.000942774 6.16202e-19)
(1.00548 -0.00494204 -7.25475e-19)
(1.00114 -0.000874676 0)
(-0.0123824 1.45916 0)
(-0.0138852 1.36651 0)
(-0.00883249 1.41469 0)
(-0.00873996 1.29773 0)
(-0.0201625 1.2783 0)
(-0.011854 1.26199 0)
(1.03541 -0.00453822 0)
(1.01928 0.0150301 -9.0078e-22)
(0.795459 1.30199 2.73276e-19)
(1.00234 0.000369183 -6.14476e-19)
(1.00341 0.00450566 7.34101e-19)
(1.00129 0.00210871 0)
(1.01126 0.00967156 6.12404e-19)
(1.00692 0.00749712 -7.45621e-19)
(1.00726 0.0112031 0)
(-0.0247709 2.62078 0)
(-0.0279827 2.60094 -2.31029e-20)
(-0.0251843 2.61441 1.6337e-20)
(1.23561 0.268552 5.27529e-19)
(1.1608 0.0875011 0)
(0.044777 3.09101 -1.00088e-18)
(0.0509053 2.87215 -7.08711e-20)
(0.104298 3.2012 1.34205e-18)
(0.123127 3.21343 -2.91063e-19)
(0.145117 3.25997 0)
(0.0224852 3.13767 2.75847e-19)
(0.0614524 3.16189 9.97031e-19)
(0.0620682 3.17867 -5.15713e-19)
(0.0267459 3.12936 0)
(0.617461 0.288059 0)
(0.561053 0.33279 0)
(1.12416 0.713071 1.28488e-19)
(1.09015 0.846226 -1.17856e-19)
(1.1836 0.600465 0)
(1.21415 0.536382 0)
(1.01581 0.0120403 -1.13764e-18)
(1.01475 0.0128073 1.43029e-18)
(1.02558 -0.00881364 0)
(1.0239 -0.0103753 0)
(1.00661 0.00292797 0)
(1.01089 0.0041753 0)
(1.00439 0.00217234 0)
(1.0095 0.00644557 0)
(1.00701 0.00510051 0)
(1.00448 0.00529797 0)
(0.0967315 1.36117 0)
(0.0786546 1.34213 0)
(0.135796 1.4096 0)
(0.134776 1.41111 0)
(0.151472 2.61473 0)
(0.190926 2.68018 -4.16813e-19)
(0.108523 2.67612 0)
(0.0815835 2.67659 1.72327e-19)
(0.028575 2.67949 -1.76808e-19)
(0.015323 1.32011 0)
(0.0195374 1.25051 0)
(0.0153782 1.33481 0)
(0.0331676 1.28209 0)
(0.000237457 1.99095 8.72656e-21)
(-0.0203202 2.61468 -1.51971e-20)
(-0.00821086 2.67824 2.70681e-21)
(-0.0189719 2.69193 0)
(-0.0224427 2.62209 -1.09678e-20)
(-0.0213064 2.61765 1.39934e-20)
(0.00871009 1.98977 -4.5624e-21)
(-0.00761351 2.40682 2.03906e-20)
(-0.0128844 2.42876 -3.06909e-21)
(1.00976 0.0385314 1.15361e-18)
(1.00561 0.0176282 -1.43669e-18)
(1.00281 0.0443203 -1.1805e-18)
(0.97613 0.0310169 1.4867e-18)
(1.06387 0.00854921 0)
(1.04933 -0.00667194 0)
(1.0911 0.035998 0)
(1.07464 0.0140596 0)
(1.07334 -0.000155897 0)
(1.13948 0.076884 0)
(1.11348 0.0442189 0)
(1.11595 0.0365276 0)
(-0.0268755 2.44301 1.72309e-21)
(-0.0165334 2.02154 0)
(-0.0172275 2.22583 0)
(-0.0210591 2.61256 -1.14196e-20)
(-0.0180814 2.62234 2.58373e-22)
(0.000784099 1.57363 -3.85091e-20)
(-0.00371843 1.499 3.92441e-20)
(-0.0144449 1.38743 0)
(-0.017962 1.39283 0)
(-0.0204456 1.38649 0)
(-0.000943403 1.31312 0)
(0.0104153 1.24994 0)
(0.375206 1.5043 2.88189e-19)
(0.423093 1.50951 1.52995e-19)
(0.604977 2.46492 -2.44982e-19)
(0.389836 2.56234 7.1915e-19)
(0.351109 2.06771 6.77655e-20)
(1.0206 -0.0080897 0)
(1.01574 -0.00940894 0)
(1.01481 -0.0132389 0)
(1.00762 -0.000647526 0)
(1.00492 -0.000658244 0)
(1.00798 -0.00453333 0)
(1.00953 -0.00353031 0)
(1.01459 -0.00439571 0)
(1.02004 0.0159901 1.11595e-18)
(1.01754 0.0147734 -1.41175e-18)
(1.02048 0.0181985 -1.12523e-18)
(1.01818 0.016713 1.40524e-18)
(0.752013 1.3469 0)
(0.688564 1.38393 2.43055e-19)
(0.859964 1.22732 9.66048e-20)
(0.896769 1.18798 -1.28198e-19)
(1.16709 2.62086 2.62982e-19)
(0.775264 0.12055 5.77646e-19)
(1.1685 0.104131 0)
(1.20892 0.195975 -4.27298e-19)
(1.18943 0.15319 -1.77307e-20)
(1.01365 0.159734 0)
(0.0828906 3.02225 3.52095e-19)
(0.0859972 2.90486 -1.18859e-18)
(0.0323277 2.36492 7.54407e-19)
(0.133702 -0.130295 -3.60997e-19)
(0.345881 3.45258 -2.50361e-19)
(0.19593 3.34404 0)
(0.226698 3.40287 3.26125e-19)
(0.227228 3.08077 -1.23264e-18)
(0.260649 3.20074 0)
(0.00610025 3.12264 5.17945e-20)
(0.0173926 3.13118 -5.94265e-19)
(0.0159012 3.12704 8.7465e-19)
(0.0329995 3.14001 0)
(0.0309276 3.1497 0)
(1.26267 2.58703 0)
(0.527298 0.813766 -5.21642e-19)
(1.00894 1.01834 -3.98317e-21)
(0.973739 1.07143 0)
(0.842654 0.96003 -1.09527e-19)
(1.06536 0.893752 2.64896e-20)
(0.396599 0.355627 -8.86667e-19)
(0.684386 0.308151 -2.31586e-20)
(0.620617 0.225945 4.0143e-19)
(0.586437 0.354056 2.9722e-20)
(0.498385 0.322685 -1.19606e-18)
(0.644194 0.318737 0)
(0.701339 0.413459 6.7216e-19)
(0.700479 0.417142 0)
(0.618702 0.346574 0)
(0.56248 0.275664 0)
(0.783634 0.645329 3.94812e-19)
(1.24445 0.299024 -4.32255e-19)
(1.23507 0.432285 0)
(1.23801 0.387654 0)
(0.726076 0.180724 6.03313e-19)
(0.8366 0.54224 -3.76378e-19)
(0.75367 0.50181 6.69327e-19)
(0.954346 0.431267 -6.92572e-19)
(1.01872 0.0145536 7.56701e-19)
(1.01726 0.0135877 -7.64992e-19)
(1.0161 0.014205 0)
(1.03675 -0.00473754 0)
(1.03023 -0.00780756 -7.17388e-19)
(1.0284 -0.0106999 7.09985e-19)
(1.02477 0.0106093 0)
(1.02287 0.0146224 0)
(1.01266 0.00455666 0)
(1.01456 0.00909584 0)
(1.01618 0.00404575 0)
(1.01542 0.0028022 0)
(0.0641708 1.35748 0)
(0.0618505 1.31837 0)
(0.140532 1.40873 5.70666e-20)
(0.267301 1.47709 8.17253e-20)
(0.162246 1.45034 1.79849e-19)
(0.191866 1.45521 -2.92541e-19)
(0.146413 1.41444 0)
(0.128322 1.57984 -9.93512e-20)
(0.127826 1.5742 0)
(0.346973 2.02628 -9.86376e-20)
(0.326098 2.34612 6.15821e-19)
(0.184056 1.45373 8.66143e-20)
(0.265059 1.37919 2.35622e-20)
(0.192628 1.38068 -1.9211e-20)
(0.279718 1.31665 -8.95511e-20)
(0.2531 1.57803 0)
(0.254142 1.62781 9.83551e-20)
(0.0264211 2.27334 -1.70688e-20)
(0.0355073 2.67458 0)
(0.0664424 2.4149 1.02431e-19)
(0.0606716 2.43465 0)
(0.068021 2.69386 -1.91283e-19)
(0.0420372 2.70838 0)
(0.0250743 1.42606 3.38558e-20)
(0.0350416 1.48604 0)
(0.0302375 1.39171 0)
(0.0202944 1.38993 -3.96871e-20)
(0.000267521 2.66294 -7.81375e-22)
(0.0229394 2.697 2.02858e-19)
(0.00771056 2.73228 1.16927e-21)
(0.0022478 1.83607 -4.25387e-21)
(-0.00303211 1.68686 -5.26171e-21)
(0.0112082 1.29989 0)
(0.0183344 1.23255 0)
(0.0360838 1.58212 -2.64526e-21)
(0.0355908 1.45672 -2.07858e-20)
(0.0323648 1.52776 2.20708e-20)
(0.0412553 1.60989 0)
(-0.0291479 2.27744 8.91653e-20)
(-0.0316348 2.56043 -3.80462e-20)
(-0.0179243 2.45852 4.58387e-21)
(-0.00292206 1.85464 5.15799e-21)
(-0.0255917 2.51116 3.82681e-21)
(-0.0216299 2.45035 3.35611e-21)
(1.01834 0.0213037 -7.62165e-19)
(1.01442 0.0274239 7.66945e-19)
(1.01325 0.0165289 0)
(1.01201 0.0688842 1.05035e-18)
(0.99119 0.0555964 -1.21146e-18)
(0.952393 0.0527615 1.356e-18)
(1.01336 0.113873 -1.4296e-19)
(1.04354 -0.00492188 0)
(1.05164 -0.000813567 6.86579e-19)
(1.03994 -0.00829337 -6.86355e-19)
(1.07118 0.0424354 -4.07211e-20)
(1.06428 0.0274854 3.51732e-19)
(1.06431 0.063521 0)
(1.05422 0.0524301 -1.26624e-19)
(1.03227 0.0434542 0)
(1.02568 0.0387084 0)
(1.02768 0.0133584 0)
(1.02405 0.0158986 0)
(1.04046 0.0327131 2.60389e-19)
(1.03958 0.0278358 -5.76461e-19)
(1.05257 0.0371493 -2.75495e-19)
(1.04822 0.0371021 -3.0404e-19)
(1.07668 0.0676013 5.8181e-19)
(1.10038 0.0537323 0)
(1.10695 0.0923624 0)
(-0.0258119 2.28481 5.79775e-20)
(-0.0265114 2.02763 1.75024e-21)
(-0.0218932 2.03732 0)
(-0.0294224 2.45522 -5.77258e-20)
(-0.0257262 2.41295 -3.40108e-21)
(-0.0334047 2.48489 6.77567e-21)
(-0.0207393 2.63108 -1.14021e-20)
(-0.0243195 2.57484 4.24033e-22)
(-0.022484 2.52687 -4.52685e-21)
(-0.0166704 2.62555 1.11637e-20)
(-0.0206442 2.62708 -1.23282e-20)
(-0.00541727 1.48274 -3.49021e-22)
(-0.000952576 1.6225 -3.66872e-20)
(0.363733 1.43776 -1.22841e-19)
(0.36303 1.36518 1.41986e-20)
(0.634098 1.43104 -2.35287e-19)
(0.511297 1.50142 -1.48439e-19)
(0.562535 1.46291 0)
(0.604336 2.43867 2.07591e-19)
(0.667759 2.43564 3.36963e-19)
(0.417272 2.52692 9.03421e-20)
(0.398908 2.55078 -6.19506e-19)
(0.500333 2.49039 5.67924e-19)
(0.560544 2.48015 0)
(0.488352 2.5357 -5.5108e-19)
(0.257316 2.6011 1.13695e-18)
(0.369704 2.57161 -6.69732e-20)
(0.286194 2.66301 -1.59881e-18)
(0.966331 2.39739 7.01783e-19)
(0.84829 2.39746 0)
(1.01144 0.00129349 2.49723e-20)
(1.01531 -0.00529522 -2.03834e-20)
(1.01766 -0.00408422 -3.7265e-19)
(1.01551 -0.00117518 3.71279e-19)
(1.01304 0.00172429 0)
(0.624498 1.29721 0)
(0.665813 1.18772 0)
(0.780017 1.11161 0)
(0.653104 1.14488 0)
(1.19762 2.63701 5.05394e-20)
(1.09018 2.38697 0)
(0.824761 2.19154 3.39228e-21)
(0.825289 2.45101 0)
(0.919099 2.53927 -4.20931e-19)
(0.951125 2.48874 2.81175e-19)
(0.799786 0.156038 0)
(0.758709 0.138011 1.5733e-19)
(0.919136 0.15353 9.14422e-19)
(0.828041 0.132917 -3.4412e-19)
(0.782593 0.0855082 -1.05112e-18)
(1.08495 0.236832 -8.39125e-19)
(0.982278 0.302765 -8.00247e-21)
(0.931152 0.336875 8.20402e-19)
(1.01847 0.248169 6.89245e-19)
(0.934025 0.196497 -1.20957e-18)
(0.895711 0.208267 1.51498e-19)
(0.937539 0.298734 -3.16314e-19)
(0.909229 0.211277 0)
(1.00025 0.19934 5.91983e-19)
(1.05573 0.212016 0)
(1.05095 0.219177 0)
(1.1221 0.120568 2.66567e-19)
(1.06441 0.187212 -1.06422e-20)
(1.07821 0.239486 -1.52214e-19)
(1.11415 0.205432 0)
(1.02337 0.047686 5.90308e-19)
(1.03895 0.0617958 7.33306e-19)
(1.03282 0.0454927 -5.85559e-19)
(1.04237 0.067495 -4.91751e-19)
(1.01496 0.0731994 -7.43713e-19)
(0.989827 0.164189 0)
(0.992023 0.10603 0)
(0.961115 0.0668063 -4.81588e-19)
(0.909469 0.0959504 1.90372e-19)
(1.03948 0.113503 6.80238e-19)
(1.07426 0.132211 -7.80837e-19)
(1.06887 0.174061 7.01688e-19)
(1.03549 0.1513 0)
(1.08437 0.118521 0)
(1.05739 0.108848 -3.19425e-19)
(1.04421 0.105105 -5.53273e-19)
(0.590672 1.10818 1.09098e-19)
(0.623211 1.42922 -1.49227e-20)
(1.14771 2.72985 -2.36899e-19)
(1.20021 3.11209 4.37949e-22)
(1.25629 2.73806 -1.13664e-19)
(1.29737 2.70969 1.22808e-20)
(1.27343 2.33265 -3.72914e-20)
(1.1881 3.01793 -6.53739e-20)
(1.20704 2.97482 2.10573e-19)
(1.18229 3.26618 -1.26886e-19)
(1.40141 2.98215 1.57301e-19)
(1.41332 2.92038 0)
(0.559491 0.83734 -4.70594e-20)
(0.229593 1.21991 4.83522e-19)
(0.503295 0.423186 5.65928e-19)
(0.38225 0.185023 6.49605e-19)
(0.528468 0.351754 6.75447e-19)
(0.55362 0.44953 -1.09132e-18)
(0.556301 0.445465 8.94677e-19)
(0.503636 0.373348 -3.43418e-19)
(0.422459 0.306237 7.76245e-19)
(0.744029 0.24095 -3.46238e-19)
(0.707815 0.270963 0)
(0.666384 0.192651 8.36303e-21)
(0.737608 0.500141 3.65757e-19)
(0.695524 0.474516 -1.32875e-18)
(0.637497 0.449363 2.00485e-20)
(0.634606 0.428176 0)
(0.707912 0.722092 3.73376e-19)
(0.823173 0.795691 4.1116e-19)
(0.756811 0.849148 -4.79374e-19)
(0.892768 0.813372 -1.53406e-19)
(0.923163 0.852304 -3.66429e-20)
(0.930951 0.859676 3.75762e-20)
(0.8764 0.669969 -6.71264e-19)
(0.945706 0.717475 1.4262e-19)
(0.995426 0.719889 0)
(0.99322 0.69532 -1.85372e-19)
(1.02808 0.32539 2.14337e-19)
(1.1538 0.325756 2.58993e-19)
(1.06881 0.275356 3.43553e-19)
(0.990165 0.369249 -4.24376e-19)
(1.04364 0.473645 0)
(1.12855 0.417743 0)
(0.894907 0.413756 3.55632e-21)
(0.84217 0.297768 0)
(0.882839 0.285858 3.91461e-19)
(0.908428 0.333008 7.98285e-21)
(0.967941 0.475399 1.94086e-18)
(0.900356 0.538141 4.98138e-19)
(0.919268 0.485694 -5.36259e-19)
(0.837072 0.465046 5.69959e-19)
(0.813456 0.442394 3.55082e-19)
(0.790161 0.409006 -3.48161e-19)
(1.02802 -0.000424607 6.15739e-19)
(1.02031 0.000360799 0)
(1.01895 0.00120855 4.01758e-19)
(1.02253 -0.000959144 -9.09499e-19)
(1.0225 0.00437891 4.43068e-19)
(1.02012 0.0113657 -9.27169e-19)
(1.02091 0.0111246 0)
(1.01984 0.0118746 -1.93128e-19)
(1.01648 0.00764151 4.84028e-19)
(1.01672 0.0107588 -2.4293e-19)
(1.01736 0.0104002 1.77771e-19)
(0.0287156 1.3257 0)
(0.0299052 1.35743 0)
(0.0438931 1.33494 0)
(0.044401 1.29189 0)
(0.0758697 1.37043 -4.96243e-21)
(0.089569 1.34332 -1.77212e-20)
(0.0529466 1.54915 -6.9724e-21)
(0.0994144 1.38012 -5.04143e-20)
(0.0407823 1.46696 1.934e-20)
(0.0439705 1.46411 -1.56756e-20)
(0.0673176 1.37173 -3.61906e-20)
(0.0570485 1.37651 5.50386e-20)
(0.0466283 1.35288 8.57069e-21)
(0.0395643 1.3757 3.75442e-21)
(0.105065 2.38426 -1.12555e-19)
(0.0945863 2.42862 0)
(0.146117 2.03297 1.04608e-19)
(0.113956 1.7038 4.14286e-20)
(0.223732 2.02323 -8.88319e-20)
(0.193681 2.44255 0)
(0.237587 2.39181 -6.1343e-19)
(0.314429 2.38095 4.32934e-19)
(0.250605 1.99582 -2.37922e-19)
(0.134143 2.15913 1.61342e-19)
(0.112567 2.26884 0)
(0.0204508 1.86469 -2.43617e-20)
(-0.00677235 2.39208 -5.23163e-20)
(0.00250817 2.14008 0)
(0.00431153 2.45474 -1.4965e-20)
(0.0269982 2.29993 2.17524e-20)
(0.0157562 1.40646 -6.64761e-21)
(0.0160016 1.39329 1.16721e-19)
(0.0156123 1.39812 -3.73903e-20)
(0.0195197 1.39809 -3.29182e-20)
(0.024917 1.42946 0)
(0.0126983 1.38146 0)
(0.00661261 1.30188 -5.03683e-20)
(0.00606644 1.3721 1.42139e-20)
(0.0122963 1.37326 0)
(0.011501 1.29547 -3.82556e-20)
(0.0189455 1.22725 7.71366e-20)
(1.04214 0.0143633 0)
(1.04843 0.00990908 -6.42373e-20)
(1.03892 0.0234104 -4.64328e-19)
(1.04912 0.0223771 0)
(1.0543 0.0216479 0)
(1.03618 0.0123385 -6.7398e-21)
(1.03027 0.0126683 7.45526e-19)
(1.03183 0.0168325 9.06797e-19)
(1.02566 0.0206189 0)
(1.02221 0.0211664 0)
(1.03538 0.0252853 4.63491e-19)
(1.02539 0.0274336 0)
(1.02369 0.0274338 0)
(-0.0185416 2.02792 0)
(-0.00330525 1.65103 -1.95529e-21)
(-0.00604926 1.75938 -2.68029e-20)
(-0.00261682 1.3791 0)
(-0.00268726 1.54663 -1.85158e-20)
(-0.00889494 1.4543 1.2809e-20)
(-0.00834716 1.38762 0)
(0.405992 1.65531 0)
(0.357884 1.30471 -1.56664e-20)
(0.278056 1.34525 0)
(0.424331 1.31086 -5.3443e-20)
(0.462369 1.46515 0)
(0.446488 1.40795 4.64305e-20)
(1.04043 2.68475 -1.50021e-20)
(0.981577 2.41784 -8.81945e-19)
(0.94142 2.21028 1.00252e-18)
(0.863839 2.39017 2.36987e-19)
(0.85476 2.50176 0)
(0.922161 2.49843 0)
(0.950126 2.39068 0)
(0.926832 2.3792 -9.19147e-19)
(0.694634 2.47121 -3.67977e-19)
(0.80308 2.45478 -9.56228e-20)
(0.81104 2.4329 7.21207e-20)
(0.704858 2.40912 0)
(0.809418 2.40265 0)
(0.771033 2.41837 -3.62849e-19)
(0.768765 2.48041 0)
(0.615564 1.0743 0)
(0.520089 0.887988 -5.34716e-19)
(0.523675 0.95415 -3.09975e-20)
(0.506952 1.09369 0)
(0.493072 1.00497 8.20128e-19)
(0.785937 0.881651 -1.33526e-19)
(0.790628 1.01491 0)
(0.768589 0.993576 1.86396e-19)
(0.65609 1.0243 0)
(0.653163 0.93611 0)
(1.16529 2.7649 -2.13793e-19)
(1.14061 2.82332 -8.44525e-20)
(0.927241 2.35113 6.47692e-20)
(0.903436 2.33099 -7.28608e-20)
(1.13454 2.74302 0)
(1.08646 2.71156 8.75795e-20)
(1.10229 2.50502 -2.93988e-19)
(1.00292 2.2604 -2.86819e-20)
(0.503013 1.35373 0)
(0.522255 1.09482 -9.61669e-20)
(0.586658 1.18377 0)
(0.857326 0.220043 0)
(0.778621 0.1719 0)
(0.711431 0.139478 0)
(0.858554 0.218896 -6.01292e-19)
(0.767291 0.213631 3.60493e-19)
(0.920597 0.0812558 -3.92968e-19)
(0.943205 0.133585 0)
(0.917145 0.144265 1.69954e-19)
(0.853311 0.100609 6.81912e-19)
(0.809941 0.0704827 -4.27512e-19)
(1.10189 3.35935 -6.87906e-19)
(1.16775 3.28205 0)
(1.12103 3.44457 -1.59267e-18)
(0.660818 3.58986 1.32786e-18)
(1.03224 3.0858 1.31199e-19)
(0.527063 0.817132 5.59222e-19)
(0.512556 0.788278 0)
(0.374207 0.450549 -1.46221e-19)
(0.474246 0.655233 8.49135e-19)
(0.529438 0.426552 -1.98564e-19)
(0.51473 0.484781 2.29563e-19)
(0.685666 0.529511 4.76425e-19)
(0.724483 0.561508 0)
(0.651227 0.589837 0)
(0.625158 0.544669 0)
(0.999712 0.602383 9.29437e-20)
(0.954513 0.580697 -4.81932e-19)
(0.966786 0.596316 3.63719e-19)
(1.02934 0.531831 -3.58767e-19)
(1.07364 0.503738 0)
(1.07696 0.59041 -9.31852e-20)
(0.867037 0.402719 -7.91465e-19)
(0.860855 0.394138 -1.00962e-18)
(0.801883 0.38462 6.23723e-19)
(0.808329 0.345099 -6.45337e-19)
(0.847612 0.308328 -5.03768e-19)
(0.803567 0.308963 6.19367e-19)
(1.02656 0.00639512 -4.63604e-19)
(1.02619 0.00652452 9.34538e-19)
(1.02978 0.000667948 5.9668e-19)
(1.03395 0.00136457 -7.16628e-19)
(1.03369 0.0112064 0)
(1.02982 0.0114017 -1.16603e-18)
(0.087874 1.65961 1.11601e-20)
(0.049463 1.59641 0)
(0.0953729 1.70528 8.24934e-20)
(0.107352 1.67939 -7.59965e-20)
(0.0443954 1.54442 1.30751e-20)
(0.0311493 1.53514 0)
(0.00787178 1.68479 0)
(-0.00219016 1.48991 8.53424e-21)
(-0.000100222 1.43305 -7.66739e-21)
(-0.00543838 1.54364 4.43295e-21)
(-0.00145813 1.88729 1.19495e-20)
(-0.0113361 1.9406 -3.09737e-21)
(0.494291 1.37747 -2.41213e-19)
(0.496453 1.37487 2.63924e-19)
(0.441484 1.30185 -1.48661e-21)
(0.428235 1.30086 6.80566e-21)
(0.615524 1.30548 0)
(0.544024 1.39633 1.21657e-19)
(0.54509 1.39947 -1.18435e-19)
(0.472156 1.28565 1.43395e-21)
(0.517149 1.24549 0)
(0.582948 1.21581 0)
(0.669154 2.43416 5.42206e-19)
(0.662171 2.45961 1.26976e-18)
(0.720019 2.4749 -8.73019e-19)
(0.620907 2.44693 -1.99695e-19)
(0.555324 2.544 2.70078e-19)
(0.495386 2.50614 -7.01817e-19)
(0.990804 2.39495 -5.6458e-19)
(1.02505 2.4132 0)
(0.948296 2.19498 -6.2291e-19)
(1.05675 2.69231 0)
(1.0561 2.67494 0)
(0.614023 2.30821 3.48826e-20)
(1.12366 3.07898 1.00605e-19)
(1.00497 2.97976 -1.55375e-19)
(0.333688 0.848738 0)
(0.347308 0.750309 -2.98782e-19)
(0.540753 0.67948 -3.01319e-19)
(0.379523 2.15394 0)
(0.409555 2.7489 -9.23196e-20)
(0.42077 2.48717 0)
(0.714483 0.677259 -7.99138e-19)
(0.770625 0.678056 1.12236e-18)
(0.78629 0.64764 -1.06425e-18)
(0.686833 0.642218 -1.01743e-19)
(0.75066 0.602235 -4.1842e-19)
(0.97827 2.76511 -7.6206e-20)
(1.01683 2.76818 -1.92362e-19)
(0.566485 2.23248 3.92015e-19)
(0.616051 1.75386 -3.17086e-19)
(0.713658 1.8709 -4.75671e-19)
(0.982912 2.40565 -1.35969e-19)
(0.98152 2.36029 3.47584e-19)
(0.659327 1.78901 3.19445e-20)
(0.467048 1.31938 1.67073e-19)
)
;

boundaryField
{
    wall-4
    {
        type            noSlip;
    }
    velocity-inlet-5
    {
        type            fixedValue;
        value           uniform (1 0 0);
    }
    velocity-inlet-6
    {
        type            fixedValue;
        value           uniform (0 3 0);
    }
    pressure-outlet-7
    {
        type            zeroGradient;
    }
    wall-8
    {
        type            noSlip;
    }
    frontAndBackPlanes
    {
        type            empty;
    }
}


// ************************************************************************* //
