/*--------------------------------*- C++ -*----------------------------------*\
  =========                 |
  \\      /  F ield         | OpenFOAM: The Open Source CFD Toolbox
   \\    /   O peration     | Website:  https://openfoam.org
    \\  /    A nd           | Version:  6
     \\/     M anipulation  |
\*---------------------------------------------------------------------------*/
FoamFile
{
    version     2.0;
    format      ascii;
    class       volScalarField;
    location    "1";
    object      Ma;
}
// * * * * * * * * * * * * * * * * * * * * * * * * * * * * * * * * * * * * * //

dimensions      [0 0 0 0 0 0 0];

internalField   nonuniform List<scalar> 
26250
(
3.04713
3.0764
3.10471
3.12609
3.1483
3.1641
3.18171
3.19307
3.20634
3.20969
3.208
3.1848
3.12557
2.95486
2.59964
1.79286
0.723748
0.310005
0.404712
0.523106
0.567455
0.553285
0.494547
0.362355
0.248568
3.04712
3.0764
3.1047
3.1261
3.14829
3.1641
3.1817
3.19307
3.20634
3.20974
3.20808
3.18503
3.12604
2.95622
2.60202
1.79772
0.731669
0.31337
0.408071
0.525276
0.568442
0.553746
0.494108
0.362191
0.249068
3.0471
3.07643
3.10468
3.12612
3.14826
3.16413
3.18167
3.1931
3.20634
3.20989
3.20829
3.18556
3.12715
2.95885
2.60679
1.8051
0.741479
0.318882
0.413248
0.528331
0.569836
0.554104
0.492864
0.361476
0.249055
3.047
3.07653
3.10457
3.12623
3.14815
3.16424
3.18156
3.19323
3.20629
3.21033
3.20878
3.18679
3.13215
2.96335
2.61598
1.8243
0.762013
0.335355
0.427521
0.537805
0.577251
0.559821
0.496667
0.365716
0.253741
3.04552
3.07807
3.10294
3.12794
3.14638
3.16609
3.17973
3.19512
3.20459
3.21272
3.20749
3.19192
3.12799
2.9887
2.59945
1.82482
0.811756
0.362803
0.449847
0.554008
0.590211
0.571275
0.506534
0.376198
0.265152
3.04685
3.07668
3.1044
3.12639
3.14798
3.1644
3.1814
3.19341
3.20626
3.21111
3.20978
3.18942
3.14012
2.9768
2.64312
1.87414
0.826907
0.38505
0.469545
0.567092
0.604004
0.58547
0.521328
0.392947
0.284884
3.0456
3.07806
3.10299
3.12786
3.1465
3.16593
3.17985
3.19503
3.20481
3.21323
3.20847
3.19384
3.13355
3.00097
2.63339
1.89537
0.896545
0.425562
0.500444
0.589062
0.624066
0.606381
0.544727
0.420111
0.318634
3.0468
3.07674
3.10435
3.12645
3.14793
3.16446
3.18136
3.19347
3.2063
3.21151
3.21042
3.19182
3.14371
2.99656
2.6855
1.93869
0.925196
0.455933
0.525637
0.607158
0.645156
0.630726
0.575202
0.459642
0.374586
3.04677
3.07677
3.10433
3.12648
3.14791
3.16449
3.18133
3.1935
3.20633
3.21174
3.21082
3.19328
3.14559
3.00771
2.70975
1.98114
0.993615
0.505215
0.560572
0.632216
0.671692
0.661261
0.616576
0.519479
0.467275
3.04662
3.07692
3.10417
3.12664
3.14774
3.16466
3.18117
3.1937
3.20625
3.21235
3.21156
3.19571
3.15407
3.02143
2.74455
2.0316
1.05379
0.565635
0.601133
0.663139
0.704204
0.701325
0.674623
0.617149
0.638768
2.96822
2.95142
2.94172
2.93462
2.93029
2.9267
2.92451
2.92251
2.92043
2.91533
2.89714
2.86685
2.77675
2.57322
2.14191
1.20463
0.124212
0.428008
0.0450884
0.22601
0.267122
0.23771
0.14435
0.0555261
0.106969
2.96822
2.95142
2.94173
2.93462
2.9303
2.92668
2.92452
2.9225
2.92044
2.91534
2.89722
2.86699
2.77716
2.57401
2.14335
1.20696
0.127697
0.424709
0.0556392
0.233886
0.265543
0.235736
0.145053
0.08022
0.116771
2.96822
2.95141
2.94173
2.93461
2.93031
2.92666
2.92455
2.92247
2.92048
2.91541
2.89743
2.86746
2.77828
2.57672
2.14859
1.21639
0.139404
0.413428
0.0764419
0.248046
0.275052
0.245664
0.166533
0.124961
0.137118
2.96822
2.95141
2.94174
2.93459
2.93032
2.92665
2.92456
2.92245
2.92056
2.91555
2.89782
2.86832
2.78006
2.58137
2.15713
1.23172
0.158119
0.394782
0.101286
0.268615
0.295658
0.267909
0.20371
0.174395
0.16757
2.96819
2.95138
2.94174
2.93454
2.93035
2.92657
2.92463
2.92237
2.92068
2.91579
2.89992
2.86843
2.78898
2.58002
2.1768
1.25517
0.17266
0.384689
0.129304
0.292802
0.321891
0.297825
0.248218
0.225478
0.207129
2.96821
2.95141
2.94173
2.93459
2.93032
2.92663
2.92459
2.92245
2.92069
2.91598
2.89897
2.87094
2.78608
2.59735
2.18925
1.29763
0.228087
0.350643
0.15915
0.320524
0.351484
0.332864
0.298227
0.280724
0.257888
2.96817
2.95142
2.94172
2.93456
2.93034
2.92659
2.92462
2.92239
2.92078
2.91623
2.90105
2.87179
2.79619
2.60006
2.21836
1.34201
0.263157
0.325686
0.191959
0.350414
0.384376
0.373666
0.35376
0.342832
0.323185
2.9682
2.95142
2.94173
2.9346
2.93032
2.92664
2.92459
2.92246
2.92078
2.91639
2.90056
2.87446
2.79501
2.62103
2.23744
1.40426
0.336725
0.290261
0.226433
0.382783
0.42141
0.420363
0.415372
0.413349
0.407878
2.9682
2.95142
2.94173
2.9346
2.93032
2.92663
2.92459
2.92246
2.92082
2.91662
2.90152
2.87657
2.80023
2.63585
2.2657
1.47503
0.408264
0.253831
0.263883
0.417784
0.461919
0.472477
0.485027
0.498581
0.523616
2.96802
2.95158
2.94157
2.93474
2.93018
2.92675
2.92448
2.92257
2.92073
2.91696
2.90276
2.87924
2.80777
2.64756
2.29763
1.54598
0.477844
0.230441
0.306513
0.455515
0.504498
0.528021
0.56117
0.603554
0.710671
2.98616
2.96979
2.95147
2.93507
2.91964
2.90698
2.89503
2.8855
2.87582
2.86556
2.84321
2.80575
2.70497
2.48051
2.02533
1.03298
0.104914
0.838654
0.138498
0.13681
0.179959
0.0529751
0.085628
0.0678812
0.0667414
2.98612
2.96983
2.95143
2.93511
2.9196
2.90702
2.89499
2.88553
2.87578
2.86558
2.84313
2.80603
2.70484
2.48203
2.02609
1.02978
0.105954
0.842396
0.137101
0.160098
0.186448
0.0981779
0.121624
0.113666
0.0986567
2.98616
2.96979
2.95148
2.93506
2.91965
2.90697
2.89503
2.8855
2.87583
2.86563
2.84345
2.80626
2.7063
2.48322
2.03068
1.04096
0.0936093
0.823905
0.141992
0.190824
0.208196
0.148169
0.165691
0.168893
0.149466
2.98612
2.96983
2.95144
2.9351
2.9196
2.90701
2.89499
2.88554
2.8758
2.86572
2.84364
2.80711
2.70762
2.48827
2.03871
1.05327
0.0822944
0.797353
0.152778
0.224958
0.245172
0.199386
0.213721
0.225116
0.204073
2.98608
2.96988
2.95139
2.93515
2.91956
2.90705
2.89495
2.88558
2.87578
2.86585
2.844
2.80834
2.70988
2.49582
2.05169
1.07599
0.075176
0.76101
0.169353
0.261376
0.287119
0.248821
0.263481
0.281498
0.26106
2.98609
2.96987
2.9514
2.93513
2.91957
2.90704
2.89497
2.88558
2.87583
2.86602
2.84474
2.8097
2.714
2.50449
2.07159
1.12219
0.0764606
0.708265
0.191312
0.299856
0.331645
0.301126
0.317441
0.341577
0.324315
2.98605
2.96991
2.95136
2.93517
2.91954
2.90708
2.89493
2.88562
2.87582
2.86622
2.84548
2.81159
2.71852
2.51667
2.09611
1.17618
0.0954513
0.654171
0.219068
0.339728
0.376985
0.358147
0.377231
0.407761
0.398686
2.98605
2.96991
2.95137
2.93518
2.91954
2.90708
2.89494
2.88563
2.87586
2.86646
2.84649
2.81361
2.72421
2.52921
2.12338
1.23472
0.135989
0.598742
0.251426
0.380847
0.42393
0.419638
0.442194
0.482669
0.488474
2.986
2.96995
2.95132
2.93522
2.9195
2.90713
2.89489
2.88569
2.87586
2.86673
2.84749
2.81604
2.73006
2.5442
2.15279
1.29608
0.195412
0.534275
0.286947
0.422526
0.471588
0.483074
0.514268
0.567046
0.606386
2.98603
2.96992
2.95136
2.93518
2.91954
2.90708
2.89494
2.88566
2.87594
2.86709
2.84892
2.81862
2.73727
2.55807
2.18456
1.36626
0.269788
0.458428
0.324787
0.464431
0.519729
0.548077
0.593226
0.669674
0.791053
2.96822
2.95142
2.94173
2.93461
2.93031
2.92667
2.92454
2.92248
2.92046
2.91539
2.8973
2.86712
2.77709
2.5731
2.14008
1.19423
0.118586
0.434334
0.0464074
0.221866
0.261007
0.233904
0.140093
0.0539026
0.111125
2.9682
2.95139
2.94174
2.93456
2.93032
2.92663
2.92455
2.92244
2.9205
2.91548
2.89911
2.86606
2.78387
2.56561
2.14739
1.1911
0.104742
0.451698
0.0573587
0.23053
0.261297
0.234626
0.144766
0.0795849
0.113939
2.96822
2.95141
2.94173
2.9346
2.93031
2.92665
2.92455
2.92246
2.92052
2.91549
2.89757
2.86775
2.77838
2.57628
2.14557
1.19966
0.130165
0.425511
0.0776233
0.244898
0.271443
0.243719
0.164456
0.124415
0.136721
2.96818
2.9514
2.94173
2.93455
2.93033
2.9266
2.92457
2.92242
2.92054
2.91561
2.89938
2.86733
2.78621
2.57242
2.16094
1.2165
0.138833
0.413403
0.101557
0.266042
0.293216
0.266253
0.20182
0.174277
0.169049
2.96817
2.95141
2.94171
2.93457
2.93031
2.92662
2.92457
2.92243
2.92057
2.91574
2.89955
2.86869
2.78838
2.57956
2.17508
1.24487
0.170888
0.387413
0.128004
0.290441
0.319711
0.296106
0.246526
0.225379
0.208355
2.96817
2.95141
2.94172
2.93456
2.93033
2.92659
2.92461
2.92239
2.92072
2.91599
2.90027
2.87008
2.79197
2.58913
2.19566
1.29241
0.213934
0.359662
0.158432
0.318373
0.349593
0.331609
0.297094
0.280522
0.258656
2.96821
2.95142
2.94174
2.9346
2.93033
2.92664
2.92459
2.92245
2.92073
2.91614
2.89965
2.87244
2.79019
2.6081
2.21233
1.34835
0.28217
0.323133
0.191994
0.349319
0.383311
0.372853
0.352921
0.342586
0.32352
2.96821
2.95142
2.94173
2.9346
2.93033
2.92664
2.9246
2.92245
2.92078
2.91636
2.90051
2.87434
2.79499
2.62101
2.23811
1.41037
0.34255
0.284181
0.227002
0.38292
0.421269
0.420165
0.414786
0.413192
0.40779
2.9682
2.95142
2.94173
2.9346
2.93032
2.92664
2.92459
2.92246
2.92082
2.91661
2.9015
2.87654
2.80016
2.63589
2.26584
1.47658
0.40999
0.250734
0.264643
0.418591
0.462293
0.472712
0.484488
0.498266
0.523259
2.96802
2.95159
2.94157
2.93474
2.93018
2.92676
2.92448
2.92257
2.92073
2.91695
2.90276
2.87922
2.80774
2.6474
2.29767
1.54618
0.478758
0.229301
0.307645
0.456754
0.505264
0.528578
0.560848
0.603487
0.709934
3.04702
3.07651
3.1046
3.1262
3.14818
3.16421
3.18158
3.1932
3.20628
3.21015
3.2085
3.18585
3.13057
2.95538
2.60146
1.79081
0.706367
0.304815
0.3996
0.518755
0.561918
0.548311
0.490537
0.360219
0.251192
3.04547
3.07813
3.10291
3.12797
3.14634
3.16616
3.1796
3.19525
3.20432
3.21235
3.20678
3.19051
3.12318
2.97823
2.56768
1.77128
0.752475
0.330462
0.421976
0.537134
0.577282
0.562401
0.502145
0.369013
0.249557
3.04694
3.07659
3.1045
3.12628
3.14808
3.1643
3.18148
3.19329
3.2062
3.21039
3.20878
3.18665
3.13504
2.95933
2.61211
1.80473
0.715157
0.316233
0.41089
0.526766
0.567766
0.552957
0.492135
0.361396
0.248924
3.04545
3.07816
3.10289
3.12797
3.14637
3.16611
3.17963
3.19521
3.2042
3.21186
3.20649
3.18858
3.12358
2.97553
2.58084
1.80106
0.778953
0.347598
0.435845
0.544048
0.580125
0.562282
0.498677
0.36871
0.257504
3.04546
3.07818
3.10282
3.12805
3.14627
3.16619
3.17958
3.19526
3.20382
3.21104
3.20614
3.18683
3.1263
2.97742
2.59944
1.82715
0.792361
0.355838
0.444591
0.55009
0.586112
0.568333
0.504337
0.375877
0.267239
3.04552
3.07809
3.10294
3.12792
3.14642
3.16606
3.1797
3.19517
3.20432
3.21211
3.20714
3.18987
3.12874
2.98743
2.61369
1.85916
0.842978
0.386103
0.469007
0.566755
0.601784
0.583437
0.519386
0.391992
0.285809
3.04688
3.07665
3.10444
3.12635
3.14802
3.16436
3.18144
3.19336
3.20628
3.21091
3.20964
3.18974
3.13866
2.98564
2.66091
1.90328
0.877028
0.417306
0.494177
0.583617
0.620779
0.603524
0.542203
0.418551
0.318751
3.04687
3.07667
3.10443
3.12638
3.14801
3.16438
3.18144
3.19338
3.20634
3.21121
3.21011
3.1912
3.14032
2.99574
2.68245
1.93883
0.934328
0.458553
0.526172
0.606591
0.644657
0.62946
0.573674
0.458344
0.374547
3.04678
3.07676
3.10434
3.12648
3.14792
3.16448
3.18134
3.19349
3.20633
3.21168
3.21074
3.19314
3.14528
3.0076
2.70968
1.98239
0.995461
0.50766
0.562247
0.633593
0.672721
0.661693
0.616083
0.519075
0.467001
3.04662
3.07693
3.10417
3.12665
3.14774
3.16466
3.18117
3.1937
3.20625
3.21235
3.21156
3.19572
3.15423
3.02155
2.74457
2.03158
1.05432
0.566752
0.602315
0.664709
0.706075
0.703167
0.675628
0.616633
0.637829
3.04552
3.07808
3.10296
3.12791
3.14644
3.16604
3.17978
3.19516
3.20487
3.21418
3.20897
3.203
3.15476
3.05348
2.73839
2.13132
1.15221
0.644455
0.652537
0.703219
0.746015
0.753042
0.752105
0.758531
0.83209
3.04635
3.0772
3.10386
3.12695
3.1474
3.16499
3.18086
3.19405
3.20613
3.21345
3.21311
3.20068
3.16738
3.0507
2.80252
2.14898
1.19941
0.709758
0.703079
0.746845
0.789182
0.807304
0.826007
0.865542
0.959304
3.04578
3.07781
3.10322
3.12765
3.14671
3.16577
3.18008
3.19492
3.20523
3.21456
3.21164
3.20622
3.16848
3.08259
2.80978
2.28971
1.34461
0.796232
0.759787
0.793098
0.829322
0.853484
0.883135
0.935758
1.03247
3.04702
3.07677
3.10427
3.12671
3.14759
3.16499
3.1808
3.19431
3.20602
3.21425
3.2142
3.20596
3.17737
3.08468
2.87073
2.325
1.42977
0.884636
0.824251
0.843898
0.872244
0.900074
0.934367
0.988048
1.07578
3.04768
3.07586
3.10529
3.12552
3.1489
3.1635
3.18234
3.19254
3.20783
3.2127
3.21747
3.20992
3.18704
3.10585
2.93645
2.44329
1.61385
0.989753
0.88463
0.888717
0.910496
0.941184
0.978666
1.03202
1.10959
3.04557
3.07805
3.10298
3.12793
3.14641
3.1661
3.17972
3.19538
3.20508
3.21669
3.21849
3.2166
3.19355
3.13829
2.97039
2.63165
1.85322
1.14814
0.964012
0.950205
0.959604
0.986411
1.02498
1.074
1.14034
3.04591
3.0777
3.10332
3.12757
3.14676
3.16575
3.18005
3.19507
3.20546
3.21682
3.2207
3.21964
3.20331
3.15853
3.03873
2.77385
2.14262
1.33175
1.05568
1.02433
1.0262
1.04737
1.08135
1.12321
1.17919
3.04618
3.07742
3.10362
3.12724
3.14708
3.16541
3.18042
3.19474
3.20586
3.2167
3.22227
3.22167
3.21081
3.17568
3.09035
2.87222
2.36997
1.5636
1.1281
1.0697
1.07452
1.09597
1.12849
1.16502
1.21308
3.04656
3.07705
3.10399
3.12679
3.14746
3.16489
3.18077
3.19424
3.20628
3.21654
3.22373
3.22344
3.21664
3.19056
3.12488
2.94569
2.54861
1.75664
1.21673
1.11305
1.11176
1.1304
1.16124
1.20288
1.24516
3.0469
3.07662
3.10449
3.1263
3.14809
3.16431
3.18154
3.19349
3.2072
3.21568
3.22578
3.22715
3.2256
3.2063
3.15891
3.02512
2.73934
2.09882
1.40845
1.19445
1.16879
1.17419
1.19961
1.23855
1.28127
3.04584
3.07771
3.10334
3.12748
3.14692
3.16552
3.18033
3.19481
3.20584
3.21725
3.22473
3.2309
3.22807
3.21755
3.18154
3.09333
2.87816
2.36
1.65383
1.30145
1.23299
1.22454
1.23835
1.26798
1.30876
3.04653
3.07733
3.10374
3.12716
3.14719
3.16516
3.18064
3.19435
3.20636
3.21667
3.22575
3.23155
3.23132
3.2247
3.20162
3.14034
2.98378
2.62449
1.90895
1.40816
1.28755
1.27037
1.27788
1.30065
1.33609
3.04587
3.07769
3.1034
3.12745
3.14697
3.16552
3.18036
3.19481
3.206
3.21722
3.22549
3.23308
3.23429
3.23132
3.21747
3.17204
3.07625
2.80863
2.2923
1.61006
1.36222
1.32503
1.32305
1.33923
1.36915
3.04626
3.07737
3.10368
3.12721
3.14714
3.16532
3.18046
3.19463
3.20604
3.21715
3.22554
3.23388
3.2376
3.23707
3.22799
3.2014
3.13181
2.97316
2.55412
1.87949
1.45899
1.36644
1.35809
1.36735
1.39285
3.04609
3.07754
3.10346
3.12737
3.14702
3.16538
3.18055
3.19451
3.20634
3.21682
3.226
3.23373
3.23927
3.23913
3.23502
3.21817
3.17493
3.06659
2.79789
2.21942
1.62838
1.42927
1.39995
1.40132
1.41851
3.04616
3.07745
3.10349
3.12734
3.1469
3.1655
3.18028
3.19478
3.20596
3.21732
3.22551
3.23442
3.23956
3.2426
3.24044
3.22987
3.20614
3.1295
2.97201
2.56139
1.9235
1.54397
1.45069
1.44009
1.4477
3.04585
3.07772
3.10335
3.1275
3.14691
3.16555
3.18037
3.19476
3.2061
3.2172
3.22577
3.23427
3.24046
3.24546
3.24407
3.24028
3.22481
3.18068
3.07428
2.83525
2.28899
1.73941
1.53306
1.49328
1.48943
3.04618
3.07746
3.10361
3.12732
3.14704
3.16545
3.18037
3.1947
3.20606
3.21713
3.22579
3.23426
3.24064
3.24648
3.24801
3.24625
3.23799
3.21007
3.14871
2.99421
2.61045
2.0013
1.64212
1.5416
1.52583
3.04625
3.0773
3.1038
3.12704
3.14736
3.16508
3.18073
3.19434
3.20635
3.21685
3.22597
3.23409
3.24083
3.24693
3.25037
3.25007
3.24573
3.22983
3.1962
3.09908
2.89033
2.38255
1.83163
1.61396
1.57183
3.04609
3.07739
3.10369
3.12713
3.14724
3.16527
3.18056
3.19461
3.20615
3.21712
3.2258
3.23431
3.24075
3.24723
3.25123
3.25309
3.25124
3.2433
3.22408
3.16504
3.04167
2.7247
2.17247
1.74797
1.62508
3.04612
3.07748
3.10358
3.12732
3.14703
3.16549
3.18035
3.19479
3.20604
3.21721
3.22576
3.23433
3.24077
3.24723
3.25193
3.25566
3.25473
3.25176
3.24163
3.20817
3.13748
2.96233
2.55377
1.98373
1.72252
3.04629
3.07732
3.10375
3.12712
3.14722
3.16522
3.18057
3.19452
3.20618
3.21705
3.22582
3.23424
3.24082
3.24726
3.25204
3.2567
3.25816
3.25729
3.25177
3.2341
3.19355
3.09472
2.84841
2.35424
1.87438
3.0462
3.07731
3.10377
3.12704
3.14732
3.16513
3.18068
3.19444
3.20633
3.21695
3.22598
3.23417
3.24095
3.24719
3.2523
3.2568
3.25983
3.25973
3.25761
3.24822
3.2294
3.16716
3.04388
2.71723
2.20522
3.04616
3.07745
3.10363
3.12725
3.14713
3.16538
3.18045
3.1947
3.20606
3.21719
3.22575
3.23427
3.24085
3.24716
3.25229
3.25687
3.26047
3.26264
3.26177
3.25795
3.24779
3.21542
3.14597
2.97876
2.60351
3.04637
3.07721
3.10383
3.12702
3.14729
3.16516
3.1806
3.1945
3.2062
3.21705
3.22584
3.23425
3.24086
3.24725
3.25226
3.25702
3.26071
3.26385
3.26442
3.26324
3.25832
3.24214
3.20764
3.11806
2.9111
3.04622
3.07731
3.10376
3.12706
3.14732
3.16513
3.18073
3.1944
3.20642
3.21686
3.22611
3.23401
3.24107
3.24705
3.25237
3.2569
3.26082
3.26419
3.26623
3.2661
3.2642
3.25562
3.24064
3.18578
3.09022
3.04628
3.07734
3.10371
3.12717
3.14717
3.16529
3.18051
3.19458
3.20616
3.21705
3.22586
3.2342
3.2409
3.24721
3.25227
3.25703
3.2608
3.26434
3.26691
3.26841
3.26776
3.2646
3.25671
3.23121
3.17602
3.04633
3.0772
3.10383
3.12699
3.14734
3.16511
3.18073
3.1944
3.20638
3.21692
3.22599
3.23416
3.24091
3.24722
3.25222
3.25705
3.26075
3.2644
3.2671
3.26944
3.26982
3.26869
3.26547
3.25172
3.22924
3.04624
3.07736
3.10372
3.12715
3.14724
3.16521
3.18064
3.19443
3.20634
3.21688
3.22603
3.23407
3.24099
3.24713
3.25235
3.25692
3.26093
3.26426
3.26726
3.26973
3.27129
3.27122
3.26999
3.2644
3.25432
3.04634
3.07721
3.10382
3.12702
3.1473
3.16518
3.18065
3.19449
3.20629
3.21699
3.22593
3.23418
3.24088
3.24724
3.25221
3.25706
3.26079
3.26435
3.26725
3.26979
3.2718
3.27303
3.27261
3.27079
3.2658
3.04625
3.07736
3.10373
3.12712
3.14727
3.16515
3.1807
3.19438
3.20639
3.21686
3.22604
3.23407
3.24099
3.24714
3.25231
3.25699
3.26081
3.26439
3.26717
3.2699
3.27189
3.27378
3.27435
3.27398
3.27195
3.04634
3.0772
3.10385
3.12701
3.14732
3.16516
3.18065
3.19448
3.20628
3.21698
3.22595
3.23414
3.24096
3.24713
3.25235
3.25691
3.26092
3.26427
3.26729
3.2698
3.272
3.27389
3.27519
3.27552
3.27496
3.0463
3.0773
3.10376
3.12709
3.14728
3.16514
3.18072
3.19436
3.20642
3.21683
3.22607
3.23404
3.24101
3.24712
3.25231
3.257
3.2608
3.26441
3.26716
3.26993
3.27191
3.274
3.27542
3.27665
3.27659
3.04631
3.07725
3.10383
3.12702
3.14734
3.16513
3.18068
3.19446
3.20629
3.21697
3.22595
3.23413
3.24097
3.24712
3.25236
3.2569
3.26092
3.26427
3.2673
3.26979
3.27204
3.27391
3.27552
3.27693
3.2777
3.04632
3.07726
3.10379
3.12706
3.14729
3.16516
3.18068
3.1944
3.20639
3.21685
3.22608
3.23403
3.24103
3.24711
3.25232
3.257
3.2608
3.2644
3.26716
3.26993
3.27192
3.27399
3.27551
3.27695
3.27808
3.04631
3.07726
3.10381
3.12704
3.14733
3.16512
3.18071
3.1944
3.20635
3.21692
3.22599
3.23411
3.24097
3.24713
3.25235
3.25691
3.26092
3.26427
3.2673
3.2698
3.27202
3.27393
3.27553
3.27699
3.27811
3.04632
3.07725
3.10381
3.12704
3.14732
3.16514
3.18069
3.19441
3.20636
3.21688
3.22605
3.23403
3.24105
3.24708
3.25235
3.25696
3.26083
3.26437
3.2672
3.26988
3.27196
3.27396
3.27553
3.27695
3.27819
3.04632
3.07725
3.10381
3.12704
3.14732
3.16513
3.1807
3.1944
3.20637
3.21688
3.22603
3.23408
3.24099
3.24714
3.25232
3.25696
3.26087
3.26429
3.26729
3.26979
3.27204
3.27391
3.27554
3.27699
3.27813
3.04632
3.07725
3.10382
3.12703
3.14733
3.16513
3.18071
3.1944
3.20637
3.21689
3.22603
3.23406
3.24102
3.24709
3.25237
3.25692
3.26089
3.26432
3.26722
3.26987
3.27196
3.27397
3.27552
3.27697
3.27818
3.04633
3.07725
3.10382
3.12703
3.14733
3.16513
3.18071
3.1944
3.20637
3.21688
3.22604
3.23406
3.24101
3.24711
3.25234
3.25694
3.26088
3.26429
3.26729
3.26979
3.27204
3.27392
3.27552
3.27702
3.27811
2.96805
2.95152
2.94162
2.93466
2.93025
2.92665
2.92458
2.92237
2.9207
2.91571
2.90695
2.87663
2.81887
2.66791
2.30381
1.60872
0.51513
0.234164
0.349571
0.493746
0.54797
0.585665
0.642267
0.727514
0.900282
2.96808
2.95152
2.94163
2.93466
2.93025
2.92667
2.92458
2.9224
2.92075
2.91609
2.90802
2.88146
2.82379
2.69015
2.33616
1.68206
0.616195
0.262865
0.395212
0.529819
0.588245
0.638513
0.713983
0.824358
0.995722
2.96806
2.95153
2.94162
2.93467
2.93025
2.92668
2.92458
2.92243
2.92087
2.91671
2.90927
2.88322
2.83392
2.70385
2.38406
1.76165
0.715563
0.3203
0.446274
0.558681
0.622348
0.6833
0.768807
0.88403
1.02909
2.9681
2.95156
2.94162
2.93472
2.93024
2.92673
2.92458
2.92251
2.92104
2.91743
2.91067
2.89029
2.84118
2.73301
2.42636
1.85447
0.870997
0.413727
0.496409
0.574683
0.647491
0.718031
0.807332
0.917097
1.04294
2.96781
2.95184
2.94135
2.93501
2.92995
2.92703
2.92425
2.92289
2.92082
2.91894
2.91066
2.89553
2.8515
2.74379
2.50916
1.91622
1.01173
0.525887
0.535591
0.593303
0.666962
0.741616
0.830729
0.935062
1.05032
2.96793
2.95163
2.94151
2.93476
2.93016
2.92674
2.92453
2.92256
2.9213
2.91889
2.91381
2.89589
2.86335
2.77247
2.54998
2.09947
1.17324
0.65147
0.566996
0.613808
0.683526
0.758934
0.845803
0.943278
1.04933
2.96774
2.95183
2.9413
2.93498
2.92993
2.92698
2.92428
2.92282
2.92116
2.9196
2.91532
2.90021
2.87452
2.79857
2.62242
2.24635
1.4343
0.801659
0.617789
0.647695
0.707444
0.78032
0.860272
0.950066
1.04758
2.96783
2.95177
2.94138
2.93492
2.92998
2.92694
2.92431
2.92285
2.92111
2.91982
2.91551
2.9075
2.88287
2.82809
2.69764
2.38374
1.73166
0.966273
0.704726
0.707884
0.745685
0.808985
0.878284
0.957812
1.04491
2.96787
2.95174
2.94141
2.93489
2.93001
2.92691
2.92432
2.92283
2.92116
2.92002
2.91678
2.91091
2.89096
2.85069
2.74975
2.49591
1.98429
1.14014
0.780389
0.761758
0.788923
0.838198
0.900588
0.970782
1.04798
2.96791
2.95171
2.94144
2.93487
2.93005
2.92691
2.92438
2.92284
2.92126
2.9203
2.91807
2.91353
2.89691
2.86861
2.78558
2.59139
2.18961
1.36915
0.901991
0.811026
0.829329
0.865557
0.920851
0.984327
1.05191
2.96806
2.95152
2.94163
2.93466
2.93026
2.92667
2.9246
2.92257
2.92153
2.92006
2.91886
2.9142
2.9058
2.87888
2.82255
2.68192
2.34965
1.6831
1.05779
0.878909
0.874742
0.898955
0.944488
1.00163
1.06373
2.96808
2.95155
2.94161
2.9347
2.93023
2.9267
2.92458
2.9226
2.92153
2.92016
2.91918
2.91602
2.91023
2.89035
2.8532
2.74777
2.52671
1.98735
1.28183
0.97251
0.925132
0.937072
0.970651
1.02055
1.0762
2.96776
2.95182
2.94133
2.93496
2.92997
2.92696
2.92432
2.92286
2.92129
2.92048
2.91924
2.91795
2.91234
2.90201
2.87211
2.80046
2.64173
2.24116
1.52534
1.08398
0.983419
0.981686
1.00291
1.04324
1.0917
2.96782
2.95179
2.94138
2.93494
2.92999
2.92695
2.92433
2.92284
2.92131
2.92048
2.91945
2.9185
2.9157
2.90614
2.88861
2.83964
2.72154
2.47264
1.89308
1.27781
1.06445
1.03476
1.04362
1.07154
1.1131
2.96798
2.95164
2.9415
2.93481
2.93011
2.92685
2.92443
2.92277
2.92138
2.92044
2.91951
2.91874
2.91708
2.91037
2.8995
2.86439
2.78932
2.61826
2.18573
1.51831
1.16043
1.08831
1.08738
1.10498
1.13806
2.9681
2.9515
2.94161
2.93467
2.93021
2.92671
2.92454
2.92263
2.9215
2.92032
2.91965
2.91873
2.91769
2.91344
2.90643
2.88164
2.83685
2.71357
2.43854
1.86227
1.31467
1.15299
1.13261
1.14082
1.16506
2.96801
2.95158
2.94156
2.93473
2.93018
2.92673
2.92453
2.92263
2.92151
2.9203
2.91968
2.91876
2.9181
2.91565
2.91121
2.89532
2.8678
2.78514
2.61788
2.20252
1.57847
1.25618
1.18349
1.17975
1.19244
2.96787
2.95173
2.94143
2.93488
2.93006
2.92688
2.9244
2.92277
2.92138
2.92044
2.91957
2.91897
2.91826
2.91728
2.91335
2.90631
2.88428
2.83895
2.72423
2.4633
1.90155
1.41244
1.25475
1.22572
1.2287
2.96791
2.95171
2.94145
2.93489
2.93004
2.92691
2.92437
2.92282
2.92133
2.92048
2.91952
2.91901
2.91834
2.91776
2.91612
2.91006
2.90007
2.86886
2.80109
2.64975
2.25893
1.66458
1.35268
1.28008
1.27028
2.96801
2.95157
2.94156
2.93474
2.93016
2.92678
2.92448
2.92271
2.92143
2.9204
2.9196
2.91896
2.91839
2.9179
2.91699
2.91352
2.9077
2.88773
2.8514
2.75152
2.53162
2.04576
1.52221
1.34658
1.31665
2.968
2.95158
2.94156
2.93474
2.93017
2.92676
2.9245
2.92267
2.92148
2.92034
2.91968
2.91888
2.9185
2.91786
2.91738
2.91556
2.91223
2.90021
2.87971
2.81745
2.69121
2.38228
1.82093
1.46473
1.36767
2.96791
2.95169
2.94147
2.93483
2.9301
2.92683
2.92446
2.92272
2.92144
2.92038
2.91964
2.91892
2.91847
2.91793
2.91764
2.91681
2.9149
2.90801
2.89675
2.86073
2.78979
2.61376
2.22517
1.68514
1.45138
2.96799
2.95162
2.94152
2.93479
2.93012
2.92683
2.92443
2.92276
2.92137
2.92045
2.91955
2.91901
2.91838
2.91804
2.91757
2.91724
2.91623
2.91236
2.90619
2.88503
2.84594
2.74307
2.50406
2.02186
1.59618
2.96799
2.9516
2.94155
2.93475
2.93017
2.92676
2.9245
2.92269
2.92146
2.92037
2.91964
2.91893
2.91846
2.91797
2.91765
2.91727
2.91679
2.91488
2.9115
2.89989
2.87935
2.81764
2.69623
2.37573
1.88834
2.96794
2.95166
2.94149
2.93481
2.93011
2.92682
2.92446
2.92272
2.92144
2.92039
2.91964
2.91892
2.91848
2.91795
2.91768
2.91726
2.91703
2.91619
2.91445
2.90805
2.8978
2.86417
2.80099
2.63695
2.2874
2.96796
2.95164
2.9415
2.9348
2.93011
2.92683
2.92443
2.92275
2.92139
2.92045
2.91956
2.919
2.91839
2.91804
2.91759
2.91738
2.917
2.91673
2.91563
2.91338
2.9063
2.89228
2.8544
2.77127
2.57011
2.96797
2.95162
2.94153
2.93477
2.93014
2.92679
2.92449
2.92269
2.92146
2.92037
2.91964
2.91893
2.91846
2.91798
2.91765
2.91732
2.91708
2.91682
2.91645
2.91497
2.91221
2.90319
2.88658
2.83711
2.74151
2.96795
2.95166
2.94149
2.93482
2.9301
2.92684
2.92443
2.92275
2.9214
2.92042
2.9196
2.91896
2.91843
2.91799
2.91765
2.91731
2.91711
2.91682
2.91666
2.91617
2.91433
2.91093
2.90042
2.88017
2.82212
2.96796
2.95164
2.94151
2.93479
2.93012
2.92682
2.92445
2.92274
2.92141
2.92042
2.91959
2.91898
2.91841
2.91803
2.9176
2.91737
2.91705
2.91689
2.91663
2.91643
2.91561
2.9141
2.90861
2.89957
2.87047
2.96797
2.95164
2.94151
2.93479
2.93013
2.92681
2.92447
2.92272
2.92144
2.92039
2.91963
2.91894
2.91846
2.91798
2.91766
2.91732
2.9171
2.91685
2.9167
2.91649
2.91625
2.91528
2.91353
2.90751
2.8971
2.96797
2.95163
2.94152
2.93478
2.93013
2.92681
2.92446
2.92273
2.92142
2.92041
2.9196
2.91897
2.91843
2.918
2.91764
2.91733
2.91709
2.91685
2.9167
2.91651
2.9164
2.91606
2.91521
2.91242
2.90755
2.96795
2.95165
2.9415
2.9348
2.93012
2.92682
2.92445
2.92273
2.92142
2.9204
2.91961
2.91896
2.91843
2.918
2.91763
2.91734
2.91707
2.91688
2.91667
2.91655
2.91637
2.91627
2.91587
2.91494
2.91199
2.96797
2.95163
2.94152
2.93479
2.93013
2.92681
2.92446
2.92273
2.92142
2.92041
2.91961
2.91896
2.91843
2.91799
2.91765
2.91732
2.9171
2.91685
2.91671
2.91651
2.91642
2.91627
2.91615
2.91567
2.91473
2.96797
2.95163
2.94152
2.93479
2.93013
2.92681
2.92447
2.92272
2.92143
2.9204
2.91962
2.91895
2.91844
2.91799
2.91764
2.91733
2.91709
2.91686
2.91669
2.91653
2.9164
2.91629
2.9162
2.91606
2.91565
2.96797
2.95163
2.94152
2.93479
2.93013
2.92681
2.92446
2.92273
2.92142
2.92041
2.91961
2.91896
2.91844
2.91799
2.91765
2.91733
2.91709
2.91685
2.9167
2.91652
2.91641
2.91628
2.9162
2.9161
2.91596
2.96797
2.95163
2.94152
2.93479
2.93013
2.92681
2.92446
2.92272
2.92143
2.9204
2.91962
2.91895
2.91844
2.91799
2.91764
2.91733
2.91709
2.91686
2.91669
2.91653
2.9164
2.91629
2.9162
2.9161
2.91605
2.96796
2.95164
2.94151
2.9348
2.93012
2.92682
2.92445
2.92273
2.92142
2.92041
2.9196
2.91897
2.91843
2.918
2.91763
2.91734
2.91708
2.91687
2.91669
2.91653
2.9164
2.9163
2.91619
2.91612
2.91604
2.96796
2.95164
2.94151
2.93479
2.93013
2.92681
2.92446
2.92273
2.92142
2.92041
2.91961
2.91896
2.91844
2.91799
2.91764
2.91733
2.91708
2.91687
2.91669
2.91653
2.9164
2.91629
2.9162
2.91611
2.91605
2.96796
2.95164
2.94151
2.9348
2.93012
2.92682
2.92446
2.92273
2.92142
2.92041
2.9196
2.91896
2.91843
2.918
2.91763
2.91734
2.91708
2.91687
2.91669
2.91653
2.9164
2.91629
2.91619
2.91612
2.91604
2.96796
2.95164
2.94151
2.9348
2.93012
2.92682
2.92446
2.92273
2.92142
2.92041
2.9196
2.91896
2.91843
2.918
2.91764
2.91734
2.91708
2.91687
2.91668
2.91654
2.9164
2.9163
2.91619
2.91612
2.91605
2.98665
2.9693
2.95196
2.93458
2.92014
2.90648
2.89556
2.88504
2.87675
2.86699
2.85352
2.81579
2.74905
2.57797
2.19486
1.44023
0.328906
0.393569
0.362853
0.504395
0.565824
0.611525
0.674003
0.780745
0.981254
2.98665
2.9693
2.95196
2.93458
2.92014
2.90648
2.89556
2.88506
2.87679
2.8673
2.85464
2.81912
2.75698
2.5959
2.2355
1.51798
0.424317
0.346384
0.402518
0.538396
0.60718
0.669044
0.749214
0.872572
1.06807
2.98598
2.96997
2.95132
2.93522
2.9195
2.90712
2.89491
2.88575
2.87605
2.86817
2.85324
2.82821
2.7616
2.61322
2.3033
1.59935
0.561046
0.321197
0.442476
0.565324
0.641202
0.714821
0.807514
0.928704
1.08904
2.98594
2.97001
2.95128
2.93527
2.91947
2.90717
2.89488
2.8858
2.87609
2.86863
2.85503
2.83216
2.77198
2.63797
2.3567
1.68968
0.680905
0.342747
0.483617
0.584081
0.665962
0.751966
0.848191
0.96081
1.08896
2.98578
2.97019
2.95111
2.93544
2.91932
2.90732
2.89476
2.88591
2.87622
2.86902
2.85813
2.83524
2.78482
2.67842
2.3814
1.84041
0.811367
0.409108
0.510781
0.589806
0.680601
0.776048
0.874879
0.97957
1.0894
2.98638
2.96957
2.9517
2.93483
2.9199
2.90672
2.89536
2.88532
2.87685
2.86858
2.85862
2.83545
2.79603
2.69004
2.44623
1.95619
0.961615
0.510379
0.510871
0.592961
0.690103
0.787739
0.887842
0.990945
1.08888
2.98657
2.96939
2.95188
2.93466
2.92006
2.90658
2.8955
2.88521
2.87703
2.86876
2.8599
2.8404
2.80775
2.71826
2.51732
2.09875
1.19662
0.639723
0.522915
0.597248
0.696955
0.79529
0.893552
0.992914
1.08754
2.98668
2.96928
2.95199
2.93456
2.92017
2.90649
2.89559
2.88514
2.87714
2.8689
2.86127
2.84596
2.81956
2.75029
2.59167
2.26419
1.49731
0.787855
0.568887
0.627422
0.709477
0.800278
0.896396
0.992866
1.08385
2.98676
2.9692
2.95206
2.93447
2.92024
2.90638
2.89569
2.88503
2.87733
2.86892
2.86244
2.84995
2.82986
2.77347
2.65606
2.39498
1.79316
0.938358
0.637909
0.674383
0.730992
0.809466
0.897127
0.990362
1.07922
2.98643
2.96953
2.95174
2.9348
2.91992
2.90672
2.89534
2.8854
2.87691
2.86955
2.86248
2.85377
2.8331
2.79662
2.70042
2.47632
2.01944
1.11559
0.738579
0.707804
0.756204
0.822086
0.899203
0.98496
1.07134
2.98638
2.96956
2.95172
2.93479
2.91993
2.90666
2.89541
2.88529
2.87708
2.86945
2.86305
2.85533
2.84047
2.81132
2.74192
2.56688
2.22083
1.44144
0.88057
0.747246
0.784903
0.837699
0.903941
0.980088
1.06092
2.98662
2.96935
2.9519
2.93464
2.92007
2.90654
2.89551
2.8852
2.87716
2.86943
2.86343
2.85654
2.84719
2.82123
2.77569
2.65371
2.39419
1.80629
1.055
0.818493
0.819657
0.858819
0.916442
0.980755
1.05306
2.98602
2.96995
2.95135
2.93522
2.91955
2.90712
2.895
2.88579
2.87665
2.87003
2.86311
2.85774
2.84987
2.83269
2.79756
2.71568
2.50904
2.08765
1.28528
0.914021
0.856138
0.885522
0.930635
0.986613
1.04922
2.98637
2.96956
2.9517
2.93484
2.9199
2.90676
2.89536
2.88543
2.87701
2.86973
2.86351
2.85794
2.85166
2.84102
2.81277
2.7568
2.62138
2.30308
1.62879
1.06213
0.910589
0.917564
0.950037
0.999233
1.05176
2.98637
2.96961
2.95167
2.93487
2.91984
2.90679
2.89525
2.88549
2.87688
2.86979
2.86345
2.85819
2.85268
2.84523
2.82511
2.78872
2.69308
2.48123
1.97899
1.27654
0.996426
0.958087
0.97976
1.01526
1.06042
2.9865
2.96946