/*--------------------------------*- C++ -*----------------------------------*\
  =========                 |
  \\      /  F ield         | OpenFOAM: The Open Source CFD Toolbox
   \\    /   O peration     | Website:  https://openfoam.org
    \\  /    A nd           | Version:  6
     \\/     M anipulation  |
\*---------------------------------------------------------------------------*/
FoamFile
{
    version     2.0;
    format      ascii;
    class       volScalarField;
    location    "1";
    object      p;
}
// * * * * * * * * * * * * * * * * * * * * * * * * * * * * * * * * * * * * * //

dimensions      [1 -1 -2 0 0 0 0];

internalField   nonuniform List<scalar> 
26250
(
0.957585
0.911193
0.874894
0.844485
0.819624
0.798224
0.780745
0.765137
0.753241
0.742815
0.743629
0.759841
0.772718
0.920824
1.08737
2.06284
4.20991
9.35779
8.85838
7.80267
7.33563
7.36876
7.53691
7.97234
8.7853
0.957585
0.91119
0.874895
0.844481
0.819629
0.798218
0.780755
0.765126
0.753257
0.742772
0.743575
0.759673
0.772461
0.919846
1.08512
2.05664
4.18639
9.32964
8.83618
7.79186
7.33677
7.37102
7.54273
7.98246
8.78897
0.957579
0.911188
0.874896
0.844475
0.819642
0.798204
0.780784
0.765094
0.753298
0.742658
0.743433
0.759245
0.771839
0.917798
1.08061
2.04553
4.14558
9.26376
8.78181
7.75975
7.32194
7.36047
7.54007
7.98782
8.78829
0.957541
0.911226
0.874888
0.844488
0.81966
0.798177
0.780841
0.765002
0.753398
0.742377
0.743088
0.757745
0.769909
0.913049
1.07228
2.02512
4.08154
9.1589
8.70086
7.71558
7.29025
7.3344
7.52409
7.9819
8.78444
0.957383
0.911434
0.87478
0.844603
0.819612
0.798193
0.780892
0.764857
0.753612
0.741701
0.743544
0.746482
0.796457
0.843402
1.19245
1.81354
4.08653
8.97651
8.58225
7.64578
7.23781
7.28676
7.48572
7.95415
8.76895
0.957497
0.911263
0.874885
0.844486
0.819705
0.798111
0.780956
0.764825
0.753593
0.74182
0.742404
0.755216
0.766486
0.902049
1.04895
1.96612
3.87084
8.8161
8.43763
7.57714
7.16323
7.2126
7.41448
7.88841
8.72777
0.957394
0.911415
0.874798
0.844565
0.81966
0.798121
0.780995
0.764692
0.753806
0.74114
0.742743
0.745474
0.792555
0.836841
1.16374
1.73873
3.84394
8.54592
8.24943
7.46816
7.06378
7.11034
7.3057
7.76862
8.63924
0.957524
0.911234
0.874901
0.844451
0.819728
0.798067
0.781007
0.764743
0.753686
0.741495
0.741987
0.754061
0.764471
0.889651
1.01799
1.87989
3.57496
8.29449
8.02967
7.36025
6.93523
6.9738
7.15106
7.58169
8.45613
0.957543
0.911206
0.874914
0.844426
0.819745
0.798044
0.781035
0.764705
0.753733
0.741308
0.741738
0.753434
0.76319
0.882461
1.00203
1.8265
3.39918
7.96513
7.76839
7.21628
6.77094
6.79643
6.93875
7.30051
8.08624
0.95751
0.911245
0.874908
0.844437
0.819763
0.798011
0.781097
0.764596
0.753851
0.740926
0.741245
0.751176
0.760034
0.871371
0.979632
1.76632
3.23355
7.5933
7.47068
7.05121
6.5802
6.5781
6.65116
6.85862
7.33751
1.03437
1.06968
1.09315
1.11013
1.1225
1.1326
1.13953
1.14657
1.15033
1.15917
1.17285
1.21898
1.28298
1.57267
2.06486
3.97704
9.31395
19.1297
16.9233
15.1966
14.7487
14.8381
15.1781
15.7748
16.2365
1.03437
1.06968
1.09315
1.11012
1.1225
1.1326
1.13953
1.14657
1.15033
1.15916
1.17279
1.21882
1.28257
1.57162
2.06224
3.96963
9.29149
19.067
16.8643
15.144
14.7407
14.8262
15.1588
15.7248
16.178
1.03437
1.06967
1.09315
1.11012
1.12251
1.13259
1.13955
1.14656
1.15033
1.15912
1.1726
1.21827
1.28151
1.5679
2.05429
3.94359
9.20609
18.9408
16.7412
15.0199
14.6689
14.7607
15.0808
15.5886
16.0429
1.03435
1.06968
1.09315
1.11012
1.12252
1.13257
1.13958
1.14652
1.15034
1.15896
1.17229
1.21723
1.27979
1.56135
2.04094
3.89832
9.06142
18.7521
16.5641
14.8318
14.5198
14.6229
14.9301
15.3725
15.8366
1.0343
1.06973
1.09312
1.11015
1.12251
1.13258
1.1396
1.14648
1.15035
1.15883
1.17044
1.21711
1.26824
1.56048
2.00248
3.82868
8.89225
18.503
16.3368
14.5932
14.3066
14.4259
14.7227
15.0952
15.5682
1.03434
1.06968
1.09316
1.1101
1.12256
1.13252
1.13966
1.1464
1.15044
1.15845
1.17144
1.21407
1.27431
1.54019
1.99326
3.73373
8.46579
18.2668
16.0893
14.3126
14.037
14.1679
14.447
14.7437
15.2175
1.03432
1.06971
1.09314
1.11011
1.12256
1.13252
1.13968
1.14635
1.15047
1.15828
1.16977
1.21315
1.2623
1.53478
1.94331
3.62617
8.15685
17.8685
15.7666
13.9865
13.7151
13.8453
14.0839
14.2939
14.7457
1.03437
1.06965
1.09319
1.11006
1.12259
1.13247
1.13971
1.14631
1.15051
1.15805
1.17031
1.20996
1.26678
1.51066
1.92686
3.50516
7.74182
17.3712
15.3881
13.6203
13.333
13.4479
13.6239
13.7266
14.0953
1.03439
1.06962
1.09321
1.11003
1.12262
1.13243
1.13975
1.14625
1.15056
1.15783
1.16965
1.20747
1.26264
1.49272
1.88908
3.37406
7.34301
16.7648
14.9547
13.2141
12.89
12.9687
13.0441
12.9946
13.1625
1.03441
1.0696
1.09324
1.10998
1.1227
1.13233
1.13989
1.14606
1.15077
1.15751
1.16879
1.20477
1.25393
1.47906
1.83371
3.255
6.94706
16.0301
14.4374
12.7731
12.3955
12.4064
12.3373
12.0371
11.7403
1.00879
1.03189
1.05923
1.08749
1.11334
1.13793
1.15872
1.17949
1.19521
1.21467
1.23524
1.29343
1.37551
1.72053
2.31011
4.55321
11.0516
22.2366
19.2824
17.4975
17.1424
17.1379
17.4737
17.9279
18.2655
1.00879
1.03189
1.05924
1.08749
1.11334
1.13793
1.15872
1.1795
1.1952
1.21469
1.2353
1.29302
1.37598
1.71811
2.31042
4.5485
11.0564
22.1495
19.2054
17.4189
17.109
17.1202
17.4128
17.8336
18.169
1.00879
1.03189
1.05923
1.08749
1.11334
1.13792
1.15872
1.17949
1.1952
1.21464
1.23505
1.29282
1.37408
1.71646
2.30063
4.52407
10.958
21.9881
19.0407
17.2451
17.03
17.03
17.2496
17.6072
17.9359
1.00879
1.03188
1.05924
1.08749
1.11335
1.13792
1.15873
1.17949
1.1952
1.2146
1.23491
1.29167
1.37311
1.70888
2.28881
4.47798
10.8117
21.7678
18.8201
16.9964
16.8851
16.8444
16.9952
17.2785
17.5945
1.00879
1.03188
1.05924
1.08748
1.11336
1.13791
1.15874
1.17947
1.19519
1.21453
1.23463
1.29004
1.37121
1.69784
2.26914
4.40469
10.5669
21.5016
18.5526
16.6864
16.6558
16.6018
16.6903
16.8804
17.17
1.0088
1.03187
1.05925
1.08746
1.11338
1.13789
1.15876
1.17945
1.19519
1.21442
1.23407
1.2884
1.36691
1.68565
2.23528
4.29124
10.1433
21.2253
18.25
16.3245
16.3142
16.2938
16.3255
16.3982
16.648
1.00882
1.03185
1.05927
1.08744
1.11339
1.13787
1.15877
1.17943
1.19517
1.21433
1.23354
1.28603
1.3627
1.66859
2.19642
4.15591
9.65189
20.8773
17.892
15.912
15.8772
15.9006
15.8714
15.812
15.984
1.00883
1.03183
1.05929
1.08742
1.1134
1.13785
1.15878
1.17941
1.19514
1.21421
1.23279
1.28362
1.35697
1.65146
2.15259
4.01554
9.19435
20.3401
17.4507
15.4489
15.3707
15.4076
15.3097
15.0923
15.1386
1.00885
1.03181
1.05931
1.08739
1.11343
1.13782
1.15881
1.17938
1.19512
1.21409
1.23206
1.28062
1.35159
1.63098
2.10854
3.86852
8.72482
19.6498
16.9346
14.9426
14.804
14.8136
14.6238
14.2047
13.9999
1.00887
1.03178
1.05935
1.08733
1.11352
1.13771
1.15895
1.17921
1.19526
1.2138
1.23088
1.27768
1.34348
1.61222
2.05602
3.71988
8.24448
18.8112
16.3429
14.398
14.1886
14.1265
13.8014
13.1001
12.4054
1.03434
1.06969
1.09313
1.11013
1.1225
1.13259
1.13955
1.14655
1.15033
1.15914
1.17266
1.21868
1.28238
1.57235
2.06658
3.98714
9.36939
19.0827
16.8754
15.1773
14.7619
14.8348
15.1543
15.7559
16.2145
1.03428
1.06975
1.09309
1.11018
1.12247
1.13263
1.13953
1.14657
1.15032
1.15918
1.17097
1.21992
1.27255
1.57923
2.04611
3.97751
9.43449
18.9993
16.808
15.1229
14.748
14.8198
15.1327
15.706
16.1671
1.03431
1.0697
1.09312
1.11014
1.1225
1.1326
1.13956
1.14655
1.15033
1.15906
1.17242
1.21794
1.28114
1.56776
2.05814
3.95848
9.29116
18.8681
16.6776
14.9942
14.6668
14.7502
15.055
15.5724
16.032
1.03426
1.06977
1.09307
1.11021
1.12245
1.13266
1.13952
1.14659
1.15032
1.15903
1.17089
1.21851
1.27093
1.57078
2.02746
3.91366
9.21361
18.6661
16.4984
14.8047
14.5098
14.6096
14.9066
15.356
15.8225
1.03425
1.06978
1.09307
1.11023
1.12244
1.13269
1.13949
1.14661
1.1503
1.15885
1.17098
1.21708
1.2697
1.56208
2.00775
3.84434
8.9738
18.4397
16.2871
14.5699
14.2954
14.4133
14.7006
15.0784
15.5535
1.03427
1.06975
1.09309
1.11018
1.12248
1.13262
1.13957
1.14649
1.15037
1.15855
1.17041
1.21529
1.26631
1.54925
1.9769
3.73888
8.56431
18.2179
16.0591
14.2985
14.029
14.1573
14.4261
14.7268
15.2028
1.03435
1.06967
1.09316
1.11009
1.12255
1.13252
1.13965
1.14638
1.15046
1.15828
1.171
1.21235
1.27096
1.52708
1.96164
3.62481
8.10111
17.8729
15.766
13.9847
13.7084
13.8349
14.0635
14.2767
14.7305
1.03438
1.06964
1.09318
1.11006
1.12258
1.13248
1.13969
1.14632
1.1505
1.15807
1.17038
1.21013
1.26696
1.51121
1.92632
3.50294
7.72497
17.3714
15.3959
13.6208
13.3256
13.4374
13.6031
13.7083
14.0795
1.03439
1.06963
1.09321
1.11003
1.12262
1.13243
1.13975
1.14625
1.15055
1.15783
1.16967
1.20751
1.26277
1.49279
1.88922
3.37342
7.33988
16.7615
14.9577
13.2139
12.884
12.9602
13.0261
12.9755
13.1469
1.0344
1.06959
1.09324
1.10998
1.1227
1.13233
1.1399
1.14605
1.15077
1.15752
1.16879
1.2048
1.25392
1.47932
1.83357
3.25569
6.94598
16.0254
14.4344
12.7692
12.3903
12.3991
12.3249
12.019
11.7268
0.957533
0.911224
0.874875
0.844494
0.819641
0.7982
0.78081
0.765052
0.753355
0.742527
0.743272
0.758315
0.770834
0.918505
1.08614
2.06772
4.24871
9.35566
8.84072
7.76955
7.32307
7.35551
7.51932
7.94931
8.75276
0.957369
0.911451
0.874752
0.844633
0.819559
0.798261
0.7808
0.764991
0.753502
0.742126
0.744092
0.747323
0.799849
0.849012
1.22031
1.88371
4.30108
9.27939
8.81296
7.75954
7.3258
7.35909
7.52532
7.96089
8.76813
0.957485
0.91127
0.874853
0.844529
0.819635
0.798215
0.780823
0.765033
0.753392
0.742412
0.743125
0.757202
0.769486
0.914537
1.0785
2.05031
4.20724
9.25391
8.76109
7.72961
7.3093
7.3474
7.52351
7.97017
8.76639
0.957322
0.911494
0.874719
0.844686
0.81952
0.798339
0.780713
0.765148
0.753323
0.742623
0.744674
0.747847
0.800507
0.850342
1.21263
1.8538
4.19975
9.09217
8.66262
7.67376
7.27372
7.31867
7.50651
7.96272
8.76219
0.957294
0.911536
0.874694
0.844733
0.819471
0.798417
0.780586
0.765367
0.753031
0.74355
0.745554
0.749374
0.799539
0.850697
1.19797
1.81724
4.10555
8.94211
8.54377
7.60712
7.21916
7.26898
7.46643
7.93321
8.74478
0.957337
0.911482
0.874735
0.844666
0.819542
0.798301
0.780753
0.765072
0.753403
0.742309
0.744273
0.747467
0.796972
0.844055
1.18372
1.78133
3.9809
8.7707
8.41353
7.53762
7.14437
7.19434
7.39379
7.86447
8.70052
0.95752
0.911236
0.87488
0.844482
0.819677
0.798144
0.780902
0.764904
0.753522
0.741963
0.74256
0.755754
0.766926
0.898139
1.03563
1.92887
3.72046
8.57501
8.24642
7.46819
7.04718
7.09188
7.28344
7.74249
8.6089
0.957554
0.911201
0.874905
0.844439
0.819709
0.79809
0.780959
0.764817
0.753609
0.741693
0.742221
0.755092
0.765611
0.891583
1.02049
1.88184
3.56141
8.29283
8.02875
7.35811
6.9203
6.95695
7.12991
7.55546
8.42466
0.957547
0.911207
0.874912
0.844427
0.819737
0.798048
0.781021
0.764717
0.753716
0.741354
0.741794
0.753584
0.76338
0.882724
1.00212
1.82649
3.39671
7.96144
7.76651
7.21528
6.76098
6.78432
6.92147
7.27585
8.05832
0.957509
0.911241
0.874911
0.84443
0.819773
0.798
0.781111
0.764579
0.753867
0.740913
0.741237
0.751157
0.760006
0.871192
0.979482
1.76552
3.2319
7.58761
7.46482
7.04469
6.57133
6.56646
6.63726
6.8392
7.31706
0.957393
0.9114
0.874836
0.844515
0.819743
0.798005
0.781148
0.764489
0.75397
0.740613
0.741027
0.743537
0.778056
0.808513
1.07646
1.49815
3.19482
7.13154
7.12469
6.83974
6.38369
6.289
6.26529
6.14978
5.52663
0.957469
0.911288
0.874913
0.844431
0.819818
0.797923
0.781235
0.764367
0.754095
0.740206
0.740316
0.747117
0.754209
0.84939
0.937842
1.62934
2.85893
6.66866
6.80648
6.60204
6.1881
6.02718
5.90812
5.6357
4.95538
0.957442
0.911345
0.87487
0.844465
0.819775
0.797959
0.781175
0.764456
0.753905
0.740518
0.739545
0.742256
0.768482
0.792183
1.02269
1.34113
2.78353
6.07076
6.47966
6.33399
6.01082
5.80377
5.62877
5.32622
4.73066
0.957587
0.911162
0.874944
0.84436
0.81983
0.797884
0.781271
0.764292
0.754188
0.739753
0.739784
0.743732
0.749506
0.826162
0.89759
1.44128
2.4008
5.47787
6.1535
6.07109
5.85705
5.61619
5.39856
5.08616
4.58821
0.957641
0.911082
0.874978
0.84435
0.819788
0.797999
0.781052
0.764667
0.753544
0.740613
0.737614
0.740708
0.745135
0.810168
0.869653
1.33145
2.1137
4.77529
5.88164
5.85106
5.72577
5.47152
5.22049
4.9096
4.48007
0.957374
0.911461
0.874737
0.844672
0.819493
0.798375
0.78058
0.765287
0.752572
0.741647
0.734233
0.735172
0.750918
0.76381
0.904775
1.06908
1.94862
3.8842
5.68908
5.70859
5.61881
5.39562
5.09299
4.77838
4.39485
0.957355
0.911484
0.874697
0.844753
0.819386
0.798548
0.780336
0.765633
0.752044
0.742196
0.732528
0.733076
0.744516
0.754318
0.8585
0.968019
1.62198
2.84954
5.44027
5.62922
5.54443
5.32479
4.99202
4.67842
4.32976
0.957389
0.911443
0.874691
0.844765
0.81933
0.79865
0.780174
0.76589
0.751658
0.742637
0.731367
0.731622
0.739081
0.747306
0.82193
0.902535
1.4053
2.2633
4.83245
5.45758
5.40339
5.23763
4.90935
4.59904
4.27562
0.957451
0.911365
0.87473
0.84471
0.819358
0.798626
0.780174
0.765922
0.75155
0.742776
0.730501
0.730484
0.734687
0.740901
0.796596
0.86241
1.23865
1.91581
4.05926
5.20142
5.19442
5.10581
4.88126
4.54881
4.23495
0.957498
0.911285
0.87481
0.844601
0.819496
0.798421
0.780468
0.765464
0.752238
0.741598
0.731952
0.726028
0.726874
0.740155
0.75126
0.864228
0.992958
1.65875
3.00892
4.89525
5.07252
5.01318
4.84511
4.52488
4.21491
0.9574
0.911415
0.87476
0.844635
0.819525
0.79833
0.780644
0.765165
0.752681
0.74089
0.732728
0.723958
0.725018
0.727135
0.756074
0.78555
0.969681
1.27046
2.27809
4.27392
4.89662
4.87685
4.77277
4.53198
4.21638
0.957447
0.911355
0.874785
0.844596
0.819563
0.798276
0.780717
0.765061
0.752829
0.740648
0.732962
0.722856
0.722941
0.726919
0.732487
0.783431
0.84073
1.16753
1.7302
3.45398
4.65042
4.73962
4.68431
4.52618
4.22372
0.957387
0.911426
0.87475
0.844649
0.819509
0.79836
0.780599
0.76524
0.752556
0.741046
0.732258
0.723492
0.719821
0.720979
0.731336
0.744786
0.82712
0.945548
1.43335
2.39169
4.27682
4.63099
4.60079
4.49224
4.25056
0.957408
0.911401
0.874745
0.844671
0.819463
0.798442
0.780471
0.76544
0.752247
0.741505
0.731493
0.724344
0.716841
0.717122
0.723373
0.729272
0.788857
0.84386
1.21952
1.79043
3.52548
4.42624
4.4674
4.41652
4.26846
0.957392
0.911425
0.874722
0.844698
0.819437
0.798479
0.780425
0.765512
0.752137
0.74167
0.731204
0.724662
0.71568
0.715668
0.718215
0.722218
0.758264
0.798277
1.02377
1.39691
2.51974
4.07524
4.36755
4.34214
4.24942
0.957394
0.911419
0.874731
0.844688
0.819454
0.798449
0.780479
0.765418
0.752292
0.74141
0.731613
0.723934
0.716562
0.71289
0.713902
0.716946
0.73679
0.765738
0.895718
1.12491
1.85373
3.34691
4.17384
4.24059
4.19986
0.957368
0.911446
0.87473
0.844682
0.819477
0.79841
0.780541
0.76532
0.752447
0.741168
0.731988
0.72329
0.717327
0.710252
0.710257
0.711475
0.723704
0.736047
0.826185
0.933267
1.43148
2.36838
3.7981
4.13367
4.12061
0.957403
0.911401
0.874748
0.84466
0.819483
0.798407
0.780533
0.765342
0.752406
0.741247
0.73185
0.723516
0.716838
0.710632
0.707274
0.70794
0.714274
0.721873
0.774958
0.83139
1.16272
1.65382
3.06581
3.91706
4.02901
0.957417
0.911378
0.874768
0.844641
0.819496
0.798403
0.780522
0.765373
0.752343
0.741353
0.73167
0.723796
0.716343
0.711191
0.705243
0.705354
0.708445
0.712802
0.741195
0.781103
0.950025
1.24832
2.06391
3.51713
3.90902
0.957402
0.911397
0.874763
0.844652
0.81949
0.798409
0.780517
0.765371
0.752348
0.741333
0.731703
0.723727
0.716443
0.71092
0.705273
0.703148
0.70401
0.706227
0.722401
0.743066
0.845848
1.00705
1.56456
2.69174
3.63234
0.957403
0.911402
0.874751
0.844661
0.819481
0.798412
0.780523
0.765353
0.752386
0.741267
0.731814
0.723541
0.716743
0.710372
0.705939
0.700711
0.70086
0.701734
0.710287
0.720236
0.780331
0.852722
1.19217
1.74644
3.09098
0.957422
0.911377
0.874764
0.844644
0.819493
0.798401
0.780531
0.76535
0.752384
0.74128
0.731786
0.723598
0.716629
0.71057
0.705485
0.701115
0.698082
0.698453
0.702559
0.70719
0.74127
0.778727
0.976018
1.28644
2.18648
0.957418
0.911381
0.87477
0.84464
0.819498
0.798397
0.78053
0.765354
0.752371
0.741301
0.731747
0.723662
0.716518
0.710749
0.70516
0.701495
0.696774
0.69679
0.698258
0.700961
0.717299
0.742025
0.84105
1.01338
1.53483
0.957413
0.911393
0.874757
0.844652
0.819486
0.798406
0.780523
0.765356
0.752375
0.741288
0.731775
0.723611
0.716607
0.710597
0.705405
0.701027
0.697271
0.694463
0.69478
0.695857
0.704476
0.714636
0.771952
0.844005
1.14648
0.957435
0.911363
0.874773
0.844635
0.819497
0.798396
0.780531
0.765349
0.752381
0.741282
0.731782
0.723598
0.716629
0.710553
0.705475
0.700899
0.697347
0.693835
0.692505
0.692955
0.696789
0.701545
0.730533
0.76686
0.928308
0.957424
0.911377
0.87477
0.844638
0.819498
0.798394
0.780533
0.765348
0.752379
0.741287
0.731768
0.723622
0.716588
0.710619
0.705368
0.701067
0.697033
0.694197
0.690971
0.691027
0.692487
0.694916
0.70848
0.729613
0.809733
0.957427
0.911377
0.874763
0.844645
0.819489
0.798402
0.780526
0.765354
0.752375
0.74129
0.731769
0.723618
0.7166
0.710597
0.705407
0.700997
0.697142
0.69394
0.691132
0.689222
0.689513
0.69043
0.697214
0.705186
0.751328
0.957435
0.911364
0.874774
0.844634
0.819499
0.798393
0.780533
0.765347
0.75238
0.741285
0.731773
0.723612
0.716609
0.710581
0.705432
0.700957
0.697204
0.693824
0.691227
0.688576
0.687791
0.688202
0.690943
0.695401
0.715238
0.957424
0.91138
0.874765
0.844643
0.819493
0.798397
0.780531
0.765349
0.752379
0.741286
0.731772
0.723616
0.716602
0.710596
0.705405
0.701003
0.697121
0.693962
0.690965
0.688886
0.6865
0.686533
0.687474
0.689157
0.698176
0.957435
0.911364
0.874773
0.844636
0.819497
0.798396
0.780531
0.765349
0.752378
0.741287
0.731772
0.723614
0.716605
0.710589
0.705418
0.700981
0.697158
0.6939
0.691061
0.688679
0.68665
0.685087
0.685231
0.68577
0.689967
0.957426
0.911378
0.874767
0.84464
0.819496
0.798395
0.780533
0.765347
0.75238
0.741285
0.731773
0.723613
0.716607
0.710586
0.705422
0.700973
0.697171
0.693878
0.691087
0.688637
0.686631
0.68482
0.683762
0.683933
0.685545
0.957436
0.911362
0.874776
0.844633
0.819498
0.798395
0.780531
0.765349
0.752378
0.741287
0.731771
0.723615
0.716604
0.71059
0.705416
0.700982
0.697157
0.693899
0.691054
0.688692
0.686525
0.684923
0.683191
0.682845
0.683172
0.957432
0.911371
0.874769
0.844637
0.819497
0.798393
0.780534
0.765346
0.752381
0.741284
0.731773
0.723613
0.716605
0.710589
0.705418
0.700979
0.697163
0.693887
0.691076
0.688649
0.6866
0.684762
0.683381
0.681899
0.681821
0.957434
0.911366
0.874775
0.844633
0.8195
0.798393
0.780532
0.765348
0.752378
0.741286
0.731772
0.723613
0.716605
0.710589
0.705418
0.700979
0.697162
0.69389
0.691068
0.688665
0.686567
0.684822
0.683237
0.682047
0.680846
0.957434
0.911367
0.874772
0.844635
0.819497
0.798394
0.780533
0.765347
0.75238
0.741284
0.731773
0.723612
0.716606
0.710588
0.705419
0.700978
0.697164
0.693886
0.691075
0.688654
0.686583
0.684796
0.683273
0.681956
0.680871
0.957434
0.911366
0.874774
0.844634
0.819499
0.798392
0.780534
0.765347
0.75238
0.741285
0.731772
0.723613
0.716605
0.710588
0.705419
0.700978
0.697164
0.693887
0.691074
0.688654
0.686584
0.684795
0.683274
0.681953
0.680835
0.957436
0.911365
0.874774
0.844633
0.819499
0.798393
0.780533
0.765347
0.75238
0.741285
0.731773
0.723613
0.716606
0.710588
0.705419
0.700978
0.697164
0.693887
0.691073
0.688656
0.68658
0.684801
0.683263
0.681966
0.68081
0.957435
0.911366
0.874774
0.844634
0.819499
0.798392
0.780533
0.765346
0.75238
0.741285
0.731773
0.723613
0.716605
0.710588
0.705418
0.700978
0.697164
0.693887
0.691073
0.688656
0.686582
0.684798
0.68327
0.681954
0.68083
0.957436
0.911365
0.874774
0.844633
0.819499
0.798392
0.780534
0.765346
0.75238
0.741285
0.731773
0.723613
0.716605
0.710588
0.705419
0.700978
0.697164
0.693887
0.691073
0.688656
0.686582
0.684798
0.683268
0.681958
0.680822
0.957436
0.911364
0.874774
0.844633
0.819499
0.798392
0.780534
0.765346
0.75238
0.741285
0.731773
0.723613
0.716605
0.710588
0.705419
0.700978
0.697164
0.693887
0.691074
0.688655
0.686583
0.684796
0.683273
0.68195
0.680836
1.03437
1.06962
1.09326
1.10995
1.1228
1.13216
1.14019
1.14559
1.15171
1.15677
1.171
1.19247
1.27611
1.38805
1.93312
2.96479
6.68381
15.1456
13.8364
12.2931
11.8893
11.7828
11.4968
10.7225
8.70564
1.0344
1.06958
1.0933
1.10989
1.12287
1.13207
1.1403
1.14543
1.15187
1.15638
1.1701
1.18779
1.27006
1.36312
1.88275
2.82112
6.19929
14.1951
13.2174
11.8172
11.3982
11.1775
10.698
9.67549
7.59149
1.03441
1.06958
1.09329
1.1099
1.12283
1.13211
1.14022
1.14552
1.15165
1.15617
1.16853
1.18712
1.25871
1.35293
1.81644
2.6714
5.75449
13.1451
12.5543
11.3834
10.9517
10.6391
10.0434
9.00554
7.3644
1.03448
1.06952
1.09332
1.10985
1.12285
1.13207
1.14026
1.14543
1.15171
1.15545
1.16721
1.1809
1.24938
1.32149
1.75812
2.49232
5.21833
11.9973
11.8197
11.1013
10.5814
10.1834
9.55615
8.61129
7.32203
1.03452
1.06947
1.09334
1.10983
1.12285
1.1321
1.14018
1.14557
1.15124
1.15567
1.16296
1.18632
1.21435
1.36519
1.53989
2.56031
4.50949
10.7077
11.2259
10.86
10.2817
9.82072
9.20674
8.36417
7.30009
1.03439
1.06962
1.09324
1.10998
1.12274
1.13223
1.14009
1.14559
1.1513
1.1548
1.16353
1.17675
1.22553
1.28587
1.6033
2.10197
4.13222
9.09132
10.8762
10.6274
10.0578
9.54208
8.94678
8.19154
7.28351
1.03436
1.06965
1.0932
1.11004
1.12268
1.13232
1.13999
1.14569
1.15118
1.15453
1.16191
1.1734
1.21257
1.26496
1.51243
1.90927
3.47796
7.30878
10.6929
10.4828
9.9073
9.31736
8.7372
8.05633
7.26325
1.03435
1.06967
1.09316
1.1101
1.12258
1.13247
1.13977
1.14605
1.15058
1.15551
1.15982
1.17287
1.18995
1.26655
1.36385
1.83034
2.71704
5.49647
10.3329
10.2463
9.79695
9.13457
8.5607
7.93852
7.23409
1.03436
1.06967
1.09316
1.1101
1.12256
1.13251
1.1397
1.14614
1.15043
1.15552
1.15911
1.16917
1.1835
1.24147
1.31308
1.67358
2.30408
4.45964
9.34324
9.82616
9.57006
8.99103
8.41762
7.83876
7.20783
1.03439
1.06963
1.09319
1.11005
1.12262
1.13242
1.1398
1.14601
1.15054
1.15524
1.15837
1.16624
1.17846
1.22169
1.27784
1.55563
1.98327
3.71054
7.61908
9.39972
9.27254
8.87393
8.29891
7.75149
7.17831
1.03435
1.06966
1.09319
1.11004
1.12265
1.13235
1.13992
1.14582
1.15081
1.15474
1.15881
1.16333
1.17675
1.19555
1.27535
1.38158
1.87856
2.8259
5.76986
8.98715
8.99357
8.76598
8.24677
7.69188
7.15525
1.03437
1.06964
1.09321
1.11001
1.12269
1.13229
1.13999
1.14571
1.15094
1.15454
1.15876
1.16226
1.17177
1.18672
1.23974
1.32211
1.64291
2.25632
4.15607
8.08703
8.76049
8.61034
8.20499
7.65466
7.14076
1.03438
1.06962
1.09321
1.11001
1.12268
1.13232
1.13995
1.14578
1.15083
1.15465
1.15835
1.16164
1.16676
1.18284
1.20267
1.30264
1.41798
2.03951
3.15248
6.51734
8.43593
8.39312
8.15504
7.65128
7.14209
1.03437
1.06964
1.09319
1.11004
1.12264
1.13238
1.13988
1.14587
1.15072
1.15472
1.15826
1.16094
1.16579
1.17338
1.19981
1.23253
1.39753
1.62671
2.57887
4.57243
7.81151
8.1874
8.04592
7.65971
7.1519
1.03435
1.06967
1.09317
1.11007
1.12262
1.13241
1.13985
1.14591
1.15067
1.15479
1.15812
1.16102
1.1644
1.17008
1.18751
1.21108
1.3198
1.44776
2.12414
3.27744
6.53639
7.89874
7.85296
7.63676
7.17891
1.03433
1.06968
1.09317
1.11007
1.12262
1.1324
1.13987
1.14588
1.15072
1.15473
1.15817
1.16094
1.16399
1.16804
1.17943
1.19729
1.26297
1.36096
1.76267
2.51438
4.72646
7.32017
7.65214
7.54761
7.23652
1.03433
1.06968
1.09317
1.11006
1.12264
1.13238
1.1399
1.14584
1.15077
1.15467
1.15822
1.16085
1.16381
1.16658
1.17395
1.18592
1.22641
1.29187
1.52941
1.97676
3.33138
6.13623
7.37523
7.36308
7.21342
1.03436
1.06964
1.09319
1.11004
1.12264
1.13237
1.13989
1.14586
1.15073
1.15474
1.15811
1.16098
1.16341
1.166
1.16973
1.18078
1.19689
1.26112
1.3518
1.73269
2.43809
4.46471
6.78549
7.20025
7.13183
1.03436
1.06965
1.09319
1.11004
1.12265
1.13237
1.13989
1.14587
1.15072
1.15475
1.1581
1.16095
1.16345
1.16543
1.16851
1.17357
1.18943
1.21094
1.3084
1.4262
2.0053
2.98261
5.58601
6.8947
6.96223
1.03434
1.06967
1.09318
1.11005
1.12264
1.13238
1.13988
1.14587
1.15072
1.15473
1.15812
1.16091
1.16345
1.16538
1.16772
1.17108
1.18044
1.19532
1.24837
1.33059
1.64315
2.22623
3.84584
6.22917
6.7878
1.03435
1.06966
1.09318
1.11005
1.12264
1.13238
1.13988
1.14586
1.15073
1.15472
1.15814
1.16089
1.16346
1.16535
1.16753
1.16963
1.17522
1.18435
1.21495
1.26397
1.44184
1.76218
2.76416
4.85766
6.3852
1.03437
1.06964
1.09319
1.11004
1.12265
1.13237
1.13989
1.14586
1.15073
1.15473
1.15812
1.16092
1.16341
1.16537
1.16737
1.16874
1.17217
1.17762
1.19512
1.22174
1.32356
1.47941
2.05398
3.11684
5.53918
1.03436
1.06965
1.09319
1.11004
1.12265
1.13237
1.13989
1.14587
1.15072
1.15474
1.1581
1.16095
1.16337
1.16542
1.16725
1.16869
1.17071
1.17415
1.18416
1.19974
1.25726
1.34158
1.68017
2.28265
3.94053
1.03436
1.06965
1.09319
1.11005
1.12264
1.13238
1.13988
1.14587
1.15072
1.15474
1.15811
1.16094
1.16339
1.1654
1.16725
1.16868
1.17026
1.17231
1.17779
1.18692
1.21689
1.26772
1.43882
1.76327
2.67389
1.03437
1.06964
1.09319
1.11004
1.12265
1.13237
1.13989
1.14586
1.15072
1.15474
1.15811
1.16094
1.16338
1.16541
1.16724
1.16867
1.17015
1.17138
1.17444
1.17951
1.19554
1.2209
1.31254
1.45904
1.9654
1.03436
1.06965
1.09319
1.11004
1.12265
1.13237
1.13989
1.14586
1.15072
1.15474
1.1581
1.16095
1.16336
1.16544
1.16719
1.16873
1.17001
1.17128
1.17266
1.17631
1.18225
1.2022
1.23333
1.3478
1.54595
1.03436
1.06965
1.09319
1.11004
1.12264
1.13237
1.13988
1.14587
1.15072
1.15474
1.1581
1.16095
1.16336
1.16543
1.16719
1.16871
1.17002
1.17114
1.17226
1.1739
1.17829
1.18565
1.20971
1.25112
1.38722
1.03437
1.06964
1.0932
1.11004
1.12265
1.13237
1.13989
1.14586
1.15072
1.15474
1.1581
1.16095
1.16337
1.16543
1.1672
1.16871
1.17001
1.17114
1.1721
1.17318
1.17504
1.18028
1.18901
1.21776
1.26777
1.03437
1.06965
1.09319
1.11004
1.12264
1.13237
1.13989
1.14586
1.15072
1.15474
1.1581
1.16095
1.16336
1.16544
1.16719
1.16872
1.16999
1.17116
1.17205
1.17304
1.17405
1.17667
1.18104
1.19512
1.21767
1.03437
1.06964
1.09319
1.11004
1.12265
1.13237
1.13988
1.14587
1.15072
1.15474
1.1581
1.16095
1.16336
1.16543
1.1672
1.16871
1.17001
1.17112
1.1721
1.17289
1.17376
1.17486
1.17776
1.18261
1.19829
1.03436
1.06965
1.09319
1.11004
1.12265
1.13237
1.13989
1.14586
1.15072
1.15474
1.1581
1.16095
1.16337
1.16543
1.1672
1.16871
1.17002
1.17112
1.1721
1.17288
1.17368
1.17424
1.17578
1.17815
1.18571
1.03437
1.06964
1.0932
1.11004
1.12265
1.13237
1.13989
1.14587
1.15072
1.15474
1.1581
1.16095
1.16336
1.16543
1.1672
1.16871
1.17001
1.17113
1.17208
1.17292
1.17361
1.17428
1.17487
1.17648
1.17892
1.03437
1.06965
1.09319
1.11004
1.12265
1.13237
1.13989
1.14586
1.15072
1.15474
1.1581
1.16095
1.16337
1.16543
1.1672
1.16871
1.17001
1.17113
1.17209
1.1729
1.17362
1.17421
1.17481
1.17543
1.17707
1.03437
1.06964
1.09319
1.11004
1.12265
1.13237
1.13989
1.14587
1.15072
1.15474
1.1581
1.16095
1.16337
1.16543
1.1672
1.16871
1.17001
1.17112
1.17209
1.1729
1.17362
1.17421
1.17476
1.17518
1.17596
1.03437
1.06964
1.09319
1.11004
1.12265
1.13237
1.13989
1.14586
1.15072
1.15474
1.1581
1.16095
1.16337
1.16543
1.1672
1.16871
1.17001
1.17113
1.17208
1.1729
1.17362
1.17421
1.17475
1.17517
1.17566
1.03437
1.06964
1.09319
1.11004
1.12265
1.13237
1.13989
1.14586
1.15072
1.15474
1.1581
1.16095
1.16336
1.16543
1.1672
1.16871
1.17001
1.17113
1.17208
1.1729
1.17362
1.17421
1.17475
1.17518
1.17561
1.03437
1.06964
1.0932
1.11004
1.12265
1.13237
1.13989
1.14586
1.15072
1.15474
1.1581
1.16095
1.16337
1.16543
1.1672
1.16871
1.17001
1.17113
1.17208
1.17291
1.17361
1.17422
1.17474
1.17519
1.17557
1.03437
1.06964
1.0932
1.11004
1.12265
1.13237
1.13989
1.14586
1.15072
1.15474
1.1581
1.16095
1.16337
1.16543
1.1672
1.16871
1.17001
1.17113
1.17208
1.17291
1.17361
1.17422
1.17474
1.17519
1.17557
1.03437
1.06964
1.0932
1.11004
1.12265
1.13237
1.13989
1.14586
1.15072
1.15474
1.1581
1.16095
1.16337
1.16543
1.1672
1.16871
1.17001
1.17113
1.17208
1.17291
1.17361
1.17422
1.17474
1.17519
1.17557
1.03437
1.06964
1.0932
1.11004
1.12265
1.13237
1.13989
1.14586
1.15072
1.15474
1.1581
1.16095
1.16337
1.16543
1.1672
1.16871
1.17001
1.17113
1.17208
1.17291
1.17361
1.17422
1.17474
1.17519
1.17557
1.00883
1.03182
1.05935
1.0873
1.11362
1.13752
1.1593
1.17862
1.19616
1.21185
1.2316
1.26502
1.36677
1.51749
2.15282
3.41024
7.87673
17.7991
15.6773
13.829
13.5559
13.3809
12.8496
11.6791
9.12183
1.00885
1.0318
1.05937
1.08728
1.11365
1.13749
1.15931
1.17862
1.19607
1.21183
1.23046
1.26202
1.35704
1.49777
2.08701
3.24538
7.34004
16.7139
14.9796
13.2834
12.9413
12.6432
11.9063
10.4555
7.85641
1.00891
1.03173
1.05941
1.08725
1.11361
1.13759
1.15907
1.17906
1.19522
1.21331
1.22759
1.26672
1.31812
1.54208
1.86416
3.24271
6.59721
15.5504
14.2686
12.7915
12.386
11.9843
11.1206
9.69492
7.67706
1.00894
1.03169
1.05943
1.08722
1.11362
1.13756
1.15908
1.17903
1.19519
1.21305
1.22629
1.26193
1.30868
1.51072
1.78622
3.06328
5.95413
14.2611
13.5084
12.4018
11.9218
11.4417
10.5542
9.28735
7.69647
1.00896
1.03166
1.05948
1.08715
1.11373
1.13737
1.15938
1.17848
1.19606
1.21096
1.22802
1.24806
1.32353
1.40521
1.86074
2.59475
5.50867
12.8003
12.7497
12.1672
11.5456
10.9976
10.1715
9.05948
7.74337
1.00889
1.03175
1.05942
1.0872
1.11374
1.13732
1.15953
1.17822
1.19643
1.21036
1.22811
1.24864
1.31085
1.39568
1.77251
2.41577
4.88261
11.0793
12.3598
11.94
11.235
10.6428
9.88803
8.91716
7.80158
1.00884
1.0318
1.05938
1.08724
1.11372
1.13734
1.15954
1.1782
1.19642
1.21019
1.22722
1.24528
1.29662
1.36906
1.67424
2.19385
4.14104
9.11946
12.2331
11.809
10.9892
10.3599
9.66412
8.80882
7.83359
1.00881
1.03185
1.05933
1.08731
1.11365
1.13743
1.15943
1.17833
1.19624
1.2102
1.22642
1.24112
1.28226
1.33797
1.5746
1.9547
3.37893
6.91531
12.0203
11.6239
10.8047
10.1318
9.47627
8.7107
7.84919
1.00879
1.03187
1.0593
1.08736
1.11358
1.13753
1.1593
1.17849
1.19604
1.21026
1.22575
1.23813
1.2699
1.31527
1.49601
1.74754
2.87836
5.26045
11.3258
11.2055
10.6844
9.95201
9.30503
8.61649
7.84971
1.00881
1.03184
1.05932
1.08735
1.11356
1.13759
1.15916
1.17875
1.19554
1.21103
1.22375
1.23882
1.25754
1.31503
1.39184
1.73806
2.31575
4.48811
9.56906
10.7158
10.4252
9.79187
9.15207
8.52359
7.8451
1.00882
1.03182
1.05933
1.08733
1.11357
1.13757
1.15917
1.17874
1.19551
1.21103
1.22341
1.23786
1.25163
1.29736
1.34931
1.6125
2.00952
3.56832
7.30669
10.4249
10.2132
9.67924
9.04645
8.44405
7.83268
1.00883
1.03182
1.05934
1.0873
1.11361
1.13752
1.15925
1.17861
1.19571
1.21065
1.22384
1.23582
1.24973
1.27395
1.34293
1.45494
1.86346
2.67824
5.11588
9.82769
9.91338
9.61397
8.99609
8.39328
7.81647
1.00888
1.03175
1.05939
1.08725
1.11365
1.13746
1.15931
1.17854
1.1958
1.21049
1.22394
1.23495
1.24811
1.26298
1.31813
1.37959
1.69597
2.20054
4.05639