/*--------------------------------*- C++ -*----------------------------------*\
  =========                 |
  \\      /  F ield         | OpenFOAM: The Open Source CFD Toolbox
   \\    /   O peration     | Website:  https://openfoam.org
    \\  /    A nd           | Version:  6
     \\/     M anipulation  |
\*---------------------------------------------------------------------------*/
FoamFile
{
    version     2.0;
    format      ascii;
    class       surfaceScalarField;
    location    "1";
    object      phi;
}
// * * * * * * * * * * * * * * * * * * * * * * * * * * * * * * * * * * * * * //

dimensions      [1 0 -1 0 0 0 0];

internalField   nonuniform List<scalar> 
72625
(
0.00162353
7.91091e-11
5.87731e-05
0.00157663
6.89257e-10
4.69015e-05
0.00153805
4.90496e-10
3.85723e-05
0.00150608
1.15392e-09
3.19816e-05
0.0014791
2.28316e-10
2.69695e-05
0.00145643
1.01277e-09
2.26687e-05
0.00143699
-8.10924e-10
1.94502e-05
0.00142058
9.22021e-10
1.64008e-05
0.0014062
-1.64547e-09
1.43919e-05
0.00139421
6.09516e-09
1.19546e-05
0.00138312
1.76617e-08
1.10199e-05
0.00137205
5.20172e-08
1.08528e-05
0.00136758
1.04856e-07
4.17585e-06
0.0013519
3.24746e-07
1.40791e-05
0.00137555
8.3186e-07
-2.68083e-05
0.00133725
2.81805e-06
2.91384e-05
0.00166181
1.1689e-05
-0.000355399
0.00178498
4.43931e-05
-0.000180467
0.00155717
5.61744e-05
0.000164456
0.00136751
5.68489e-05
0.000128991
0.00127081
5.30078e-05
4.18352e-05
0.00116097
5.26367e-05
5.60402e-05
0.00101662
4.90454e-05
9.92249e-05
0.000724912
4.43633e-05
0.000256352
4.69462e-05
0.000663813
0.00162353
1.0248e-09
5.87725e-05
0.00157663
2.75373e-09
4.69018e-05
0.00153805
4.58764e-10
3.85721e-05
0.00150607
2.17666e-09
3.19817e-05
0.0014791
-1.48993e-09
2.69699e-05
0.00145643
1.55701e-09
2.26682e-05
0.00143699
-3.72239e-09
1.94516e-05
0.00142058
2.05663e-09
1.63989e-05
0.00140621
-3.95598e-09
1.43949e-05
0.00139421
1.57984e-08
1.19486e-05
0.00138311
4.73653e-08
1.102e-05
0.00137204
1.37219e-07
1.08233e-05
0.00136745
2.91652e-07
4.20906e-06
0.00135184
7.87731e-07
1.39085e-05
0.00137533
1.87924e-06
-2.6841e-05
0.00133783
5.4985e-06
2.86491e-05
0.00165552
2.23775e-05
-0.00034708
0.00177686
9.53963e-05
-0.00018526
0.00155347
0.000120714
0.000151586
0.00136688
0.000123453
0.000116283
0.0012737
0.000121503
2.28728e-05
0.00116174
0.000123222
4.01677e-05
0.00101704
0.000119289
7.82611e-05
0.000719627
0.000115659
0.000233679
0.000124655
0.000628829
0.00162352
7.22624e-09
5.8771e-05
0.00157663
3.52483e-09
4.69024e-05
0.00153805
-6.81835e-10
3.85717e-05
0.00150608
7.56962e-10
3.19817e-05
0.00147911
-6.06805e-09
2.69711e-05
0.00145644
2.18776e-09
2.26668e-05
0.001437
-1.1016e-08
1.94552e-05
0.00142059
7.73895e-09
1.63939e-05
0.00140621
-1.08913e-08
1.44033e-05
0.00139422
3.78697e-08
1.19317e-05
0.00138309
1.16382e-07
1.10085e-05
0.00137186
3.97006e-07
1.08008e-05
0.00136674
1.04746e-06
4.18384e-06
0.00135151
9.47098e-07
1.39235e-05
0.00137273
5.40867e-06
-2.69302e-05
0.00133744
5.76787e-06
2.92881e-05
0.00164378
4.41879e-05
-0.000346095
0.0017619
0.000155883
-0.000191706
0.00154472
0.000194132
0.000136323
0.00136228
0.000194228
0.000108101
0.00126979
0.000197175
1.51493e-05
0.00115938
0.00020469
2.7804e-05
0.00101773
0.0002065
5.81461e-05
0.000707826
0.000209665
0.000222935
0.00022091
0.000598382
0.00162352
2.91708e-08
5.87609e-05
0.00157665
-2.80167e-08
4.6912e-05
0.00153806
1.76621e-08
3.85662e-05
0.00150609
-1.81729e-08
3.19873e-05
0.00147911
6.18582e-09
2.69694e-05
0.00145645
-6.06405e-09
2.26663e-05
0.00143699
-9.95094e-09
1.94601e-05
0.00142059
1.90096e-08
1.63829e-05
0.00140622
-3.59487e-08
1.44213e-05
0.00139419
1.20297e-07
1.18972e-05
0.00138328
-2.00635e-08
1.09814e-05
0.00137066
2.31857e-06
1.05563e-05
0.00137226
-4.75679e-06
4.04036e-06
0.00134195
1.69005e-05
1.33417e-05
0.00140304
-3.02906e-05
-2.73849e-05
0.00132157
5.34904e-05
2.86312e-05
0.00164715
2.95433e-05
-0.000327258
0.00175933
0.000231403
-0.000201032
0.00155694
0.000269162
0.00011985
0.00137062
0.000271931
0.000105112
0.00127296
0.000274054
1.91751e-05
0.0011647
0.000289163
2.26332e-05
0.00102656
0.000300841
4.76206e-05
0.000701358
0.000320752
0.000219842
0.000337897
0.000571441
0.00162369
-2.12739e-08
5.8686e-05
0.00157662
3.31256e-08
4.69942e-05
0.00153818
-1.88496e-08
3.84997e-05
0.00150606
2.15777e-08
3.20533e-05
0.0014792
-1.53726e-08
2.69135e-05
0.00145644
1.25501e-08
2.27156e-05
0.00143703
-7.41629e-09
1.94232e-05
0.00142061
-2.29644e-09
1.64007e-05
0.00140623
1.86864e-08
1.44277e-05
0.00139486
-4.02614e-08
1.1813e-05
0.0013827
2.5062e-07
1.13203e-05
0.00137877
-1.56978e-06
7.61675e-06
0.0013544
6.57754e-06
1.29034e-05
0.00139331
-1.29318e-05
-9.53036e-06
0.00129137
4.65817e-05
2.29933e-05
0.00145557
-3.44345e-05
-7.85481e-05
0.00153766
9.4377e-05
-0.000158912
0.00174427
0.000251372
-0.000239177
0.00156296
0.000332399
0.000110905
0.00139521
0.000329158
0.000107
0.00129103
0.000347079
2.93161e-05
0.00117964
0.00037443
2.45289e-05
0.00104044
0.00039958
4.42903e-05
0.000704169
0.000444066
0.000218522
0.000479075
0.000549496
0.00162352
1.86793e-08
5.87487e-05
0.00157666
-2.95293e-08
4.69236e-05
0.00153806
1.66994e-08
3.85595e-05
0.00150611
-1.54011e-08
3.19928e-05
0.00147911
1.06959e-08
2.69695e-05
0.00145646
-2.24758e-09
2.26625e-05
0.001437
-3.09321e-09
1.94709e-05
0.00142059
2.32434e-08
1.63636e-05
0.00140622
-3.52234e-08
1.44526e-05
0.00139415
1.36513e-07
1.18419e-05
0.00138342
-2.66561e-08
1.09481e-05
0.00136944
1.97545e-06
1.03045e-05
0.00137704
-5.17597e-06
4.03544e-06
0.00133433
1.62425e-05
1.28034e-05
0.00143481
-2.80524e-05
-2.72002e-05
0.00130355
6.23749e-05
3.20268e-05
0.00163549
4.23991e-05
-0.000290154
0.00176786
0.000334578
-0.000229816
0.00161021
0.00040156
8.04872e-05
0.00141483
0.000409272
0.000111636
0.00130495
0.000422877
3.20426e-05
0.00119128
0.000461496
2.46415e-05
0.00104964
0.000503581
4.06869e-05
0.000709569
0.000576524
0.000213339
0.000648702
0.000527154
0.00162372
-2.35437e-08
5.86904e-05
0.00157664
2.54648e-08
4.69903e-05
0.00153815
-1.59953e-08
3.85032e-05
0.00150608
1.81984e-08
3.20469e-05
0.00147917
-7.74424e-09
2.6922e-05
0.00145643
9.58782e-09
2.27036e-05
0.00143702
3.55838e-09
1.9439e-05
0.00142063
-9.39571e-09
1.63788e-05
0.00140621
3.04909e-08
1.44596e-05
0.00139466
-7.63378e-08
1.17493e-05
0.00138296
1.48584e-07
1.12425e-05
0.00137868
-1.59358e-06
7.80077e-06
0.00135499
5.7002e-06
1.27104e-05
0.00138853
-9.8707e-06
-7.91667e-06
0.00130343
3.30965e-05
2.26465e-05
0.00145686
-2.28816e-05
-6.93117e-05
0.00150939
0.000108286
-0.00012577
0.00174649
0.000352076
-0.000269665
0.00161565
0.000462975
6.07053e-05
0.00144254
0.000467652
0.000110278
0.00133107
0.000498866
3.29396e-05
0.00121336
0.000551665
2.5122e-05
0.00106607
0.000613155
3.98538e-05
0.000723605
0.00072343
0.000200896
0.000862434
0.000498325
0.00162354
-3.38647e-09
5.87507e-05
0.00157664
-7.0653e-10
4.69218e-05
0.00153806
6.22633e-10
3.85601e-05
0.00150609
1.85617e-09
3.19905e-05
0.00147911
1.18477e-09
2.69708e-05
0.00145646
2.83954e-09
2.266e-05
0.00143699
-4.64879e-10
1.94744e-05
0.00142061
5.89427e-09
1.63589e-05
0.0014062
-4.05283e-09
1.44617e-05
0.00139423
3.59048e-08
1.18248e-05
0.00138328
6.16189e-08
1.09857e-05
0.00137092
1.86559e-07
1.04413e-05
0.00137178
1.82675e-07
4.57599e-06
0.00134553
2.84661e-06
1.28277e-05
0.00139922
4.19966e-06
-2.5425e-05
0.00131136
2.70755e-05
3.54653e-05
0.00158725
8.37584e-05
-0.000258336
0.00176243
0.000412798
-0.000250789
0.00166261
0.000526511
2.67674e-05
0.00146775
0.000542842
0.000114764
0.00135452
0.000576551
3.28821e-05
0.00123642
0.000642666
2.45584e-05
0.00108596
0.000725769
3.92558e-05
0.000749206
0.000880702
0.000184437
0.00114295
0.000458729
0.00162354
6.1789e-09
5.8752e-05
0.00157663
6.6125e-11
4.69199e-05
0.00153806
-9.92542e-10
3.8561e-05
0.00150608
-8.30692e-10
3.19897e-05
0.00147912
-5.70153e-09
2.69713e-05
0.00145646
2.44818e-09
2.26603e-05
0.00143699
-1.08016e-08
1.94747e-05
0.00142062
1.16682e-08
1.63587e-05
0.00140618
-1.38043e-08
1.44642e-05
0.00139432
6.05186e-08
1.18141e-05
0.00138319
1.37624e-07
1.10043e-05
0.00137215
5.60298e-07
1.05341e-05
0.00136614
1.23549e-06
4.87108e-06
0.0013527
2.72991e-06
1.28997e-05
0.00137014
9.56333e-06
-2.34021e-05
0.00133676
2.2608e-05
3.5552e-05
0.00154767
9.6563e-05
-0.000229596
0.00175366
0.000453178
-0.000260584
0.00168643
0.00059381
-9.7948e-06
0.00149456
0.000616338
0.000112643
0.00138297
0.00065317
3.16853e-05
0.00126925
0.000730612
2.27359e-05
0.00111331
0.000842532
3.9289e-05
0.000779592
0.00105921
0.000160959
0.00152276
0.000390454
0.00162355
5.87363e-05
2.16232e-08
0.00157665
4.69362e-05
-2.02422e-08
0.00153808
3.85506e-05
1.10028e-08
0.0015061
3.20004e-05
-1.38412e-08
0.00147912
2.69634e-05
1.47207e-09
0.00145646
2.26667e-05
-4.86629e-09
0.00143699
1.94695e-05
-8.07597e-09
0.00142063
1.63592e-05
8.59768e-09
0.00140617
1.44631e-05
-1.22694e-08
0.0013944
1.17711e-05
4.1829e-08
0.00138342
1.09903e-05
9.12924e-08
0.00137193
1.03091e-05
1.61174e-06
0.0013708
5.1986e-06
-2.90311e-06
0.00134792
1.18517e-05
1.31172e-05
0.00139662
-2.16164e-05
-1.81249e-05
0.00131165
3.32876e-05
7.2038e-05
0.00154462
-0.000208999
6.66912e-05
0.00173953
-0.000256784
0.000501151
0.00171318
-4.33356e-05
0.000651602
0.00152486
0.000109092
0.000690725
0.00142767
3.10464e-05
0.000716836
0.00131801
2.10852e-05
0.000816767
0.00117775
3.56016e-05
0.000947331
0.000894115
0.000126184
0.00122232
0.000275859
0.00213074
0.00172984
-4.19499e-10
7.15238e-06
0.00176406
7.74992e-10
1.26773e-05
0.00178826
2.56635e-10
1.43776e-05
0.00180606
1.33841e-09
1.41649e-05
0.0018199
6.38124e-10
1.3149e-05
0.00183062
1.1546e-09
1.19249e-05
0.00183933
5.62542e-10
1.07609e-05
0.00184614
4.13509e-10
9.56353e-06
0.00185222
9.95366e-10
8.33566e-06
0.00185663
3.31538e-09
7.49499e-06
0.00186067
1.79404e-08
6.89467e-06
0.00186443
5.31603e-08
6.59374e-06
0.00186247
1.4876e-07
5.37439e-06
0.00186808
4.07412e-07
4.98636e-06
0.00183483
1.14961e-06
-2.28785e-07
0.00185752
3.89375e-06
-8.02624e-06
0.00165194
1.97879e-05
-0.000256416
0.00138692
0.00014005
-3.88552e-05
0.00122449
0.000185394
0.000151226
0.00110813
0.000223184
1.91495e-05
0.00107056
0.00022635
-0.000153132
0.000782516
0.00023544
9.29938e-05
0.000442865
0.000247692
0.00017631
2.24536e-05
0.000315555
0.000354406
0.000255601
0.000413876
0.00172984
5.47378e-10
7.15068e-06
0.00176405
1.59813e-09
1.26795e-05
0.00178826
8.93406e-10
1.43761e-05
0.00180606
2.30781e-09
1.41663e-05
0.0018199
2.68172e-10
1.31477e-05
0.00183062
2.04729e-09
1.19259e-05
0.00183934
-5.28052e-10
1.07603e-05
0.00184614
1.24563e-09
9.56345e-06
0.00185222
2.5575e-09
8.33549e-06
0.00185663
1.1911e-08
7.49324e-06
0.00186073
5.26726e-08
6.81641e-06
0.00186432
1.63165e-07
6.68324e-06
0.00186282
3.70524e-07
4.86804e-06
0.0018673
1.21477e-06
5.57643e-06
0.00183469
3.10912e-06
-1.64186e-06
0.00185413
1.16606e-05
-8.91085e-06
0.00163783
6.20607e-05
-0.000258591
0.00135681
0.000290494
-3.95018e-05
0.00120235
0.000367786
0.000132937
0.0010835
0.000441148
1.37231e-05
0.00105521
0.000490683
-0.00021962
0.000752441
0.000504508
5.81477e-05
0.000380376
0.000530257
0.000154005
1.34375e-06
0.000619611
0.000301718
0.000513037
0.000356287
0.00172983
3.09919e-09
7.15188e-06
0.00176405
2.81291e-09
1.2677e-05
0.00178825
1.41397e-09
1.43777e-05
0.00180606
2.83878e-09
1.41641e-05
0.00181989
-1.62389e-09
1.31498e-05
0.00183062
3.3552e-09
1.19241e-05
0.00183934
-4.5588e-09
1.07618e-05
0.00184614
5.36859e-09
9.56261e-06
0.00185224
-9.80426e-10
8.33482e-06
0.00185663
3.44979e-08
7.49134e-06
0.00186065
8.65298e-08
6.88468e-06
0.00186426
3.52507e-07
6.56701e-06
0.00186225
6.42659e-07
5.35363e-06
0.00186712
2.5434e-06
4.77486e-06
0.00183314
5.33134e-06
-4.94213e-07
0.00185255
2.10898e-05
-9.86519e-06
0.00164233
0.000104057
-0.000262944
0.00134726
0.000446811
-3.70245e-05
0.0011874
0.000549323
0.000123295
0.00106658
0.000650118
1.58958e-05
0.00103944
0.000738762
-0.00021272
0.000743508
0.000775672
3.66779e-05
0.000350428
0.000812297
0.000155497
7.57481e-06
0.000904292
0.000273916
0.000773471
0.000329642
0.00172982
9.92106e-09
7.14892e-06
0.00176406
-5.03283e-09
1.26799e-05
0.00178825
7.05248e-09
1.43759e-05
0.00180607
-3.98194e-09
1.41661e-05
0.00181989
3.07714e-09
1.31492e-05
0.00183063
-1.48816e-09
1.19249e-05
0.00183934
-1.81986e-09
1.0762e-05
0.00184613
3.70349e-09
9.56158e-06
0.00185226
2.03536e-09
8.33447e-06
0.00185661
2.68407e-08
7.47923e-06
0.00186045
3.87716e-07
6.81747e-06
0.00186409
2.0122e-07
6.65455e-06
0.00186064
2.70355e-06
4.92352e-06
0.001867
1.52381e-06
5.27159e-06
0.00182961
1.2117e-05
-1.82214e-06
0.00185024
3.04162e-05
-1.14069e-05
0.0016659
0.000128686
-0.000250452
0.0013535
0.000620671
-4.66026e-05
0.00118539
0.000733719
0.000110818
0.00107409
0.000846797
1.47963e-05
0.00103232
0.000974572
-0.000182341
0.000756151
0.00103504
2.33806e-05
0.000351514
0.00109525
0.000155746
2.98696e-05
0.00118726
0.000251248
0.00104506
0.000314836
0.00172978
-7.5504e-09
7.14565e-06
0.00176407
9.29212e-09
1.26821e-05
0.00178821
-6.68314e-09
1.43733e-05
0.00180608
9.28456e-09
1.41693e-05
0.00181986
-7.38382e-09
1.31475e-05
0.00183063
8.80188e-09
1.19265e-05
0.00183932
-7.7014e-09
1.07609e-05
0.00184612
1.07938e-08
9.56379e-06
0.00185228
-8.11745e-09
8.32729e-06
0.00185648
6.59571e-08
7.49115e-06
0.00186177
-1.46907e-07
6.56247e-06
0.0018612
7.04347e-07
7.28853e-06
0.00187504
-7.81853e-07
2.19163e-06
0.00184922
5.47155e-06
9.96854e-06
0.00188769
5.4992e-06
-1.31786e-05
0.00179335
3.81625e-05
4.07685e-07
0.0016631
0.000243822
-0.00021498
0.0013401
0.000765277
-5.95987e-05
0.00118986
0.000898589
9.71834e-05
0.00109404
0.00102723
1.58914e-05
0.00103312
0.00118901
-0.000132567
0.000781948
0.00128887
6.15005e-06
0.000382812
0.00137852
0.000146274
7.17911e-05
0.0014802
0.000229306
0.0013494
0.000302311
0.00172981
4.58143e-09
7.14739e-06
0.00176406
-7.39052e-09
1.26805e-05
0.00178824
3.6636e-09
1.43756e-05
0.00180608
-5.01197e-09
1.41656e-05
0.00181989
2.94949e-09
1.31518e-05
0.00183063
-6.70833e-10
1.19215e-05
0.00183934
1.63108e-10
1.07678e-05
0.00184614
6.42042e-09
9.55182e-06
0.00185225
1.90332e-09
8.34702e-06
0.00185667
3.23383e-08
7.4309e-06
0.00186024
3.60251e-07
6.82418e-06
0.001864
3.10917e-07
6.62578e-06
0.00185897
2.89518e-06
5.00587e-06
0.00186801
2.3803e-06
5.03732e-06
0.00182916
1.59988e-05
-1.73748e-06
0.00186088
4.49381e-05
-1.30067e-05
0.00175969
0.000213557
-0.000198724
0.00140359
0.000949883
-7.84984e-05
0.00120594
0.00107905
8.90976e-05
0.00111962
0.00120189
1.58211e-05
0.00103983
0.00139063
-9.75951e-05
0.000812812
0.00153262
-8.18321e-06
0.000423747
0.00166235
0.000131087
0.000120138
0.00177998
0.000209741
0.00169614
0.000286724
0.00172978
-9.76733e-09
7.14737e-06
0.00176407
5.29007e-09
1.26797e-05
0.00178821
-7.69268e-09
1.4375e-05
0.00180608
6.10996e-09
1.41658e-05
0.00181986
-4.8217e-09
1.31523e-05
0.00183063
6.18117e-09
1.19196e-05
0.00183931
-2.11557e-09
1.07708e-05
0.00184613
6.61729e-09
9.54815e-06
0.00185226
4.9445e-10
8.34905e-06
0.00185653
4.46757e-08
7.43969e-06
0.00186151
-6.30343e-08
6.65273e-06
0.00186151
7.29049e-07
7.12149e-06
0.00187441
-3.50434e-07
2.81715e-06
0.00185206
6.3597e-06
9.0969e-06
0.00189005
8.9454e-06
-1.04529e-05
0.0018089
5.14952e-05
1.69641e-06
0.00175881
0.000269809
-0.000158594
0.00141728
0.00109176
-0.000105362
0.00122426
0.00124226
7.8789e-05
0.00114848
0.00136366
1.81342e-05
0.00105912
0.00158029
-7.36166e-05
0.000851437
0.00176661
-1.58118e-05
0.000487718
0.00193696
0.000112556
0.000183107
0.00208794
0.000189449
0.0020966
0.000268367
0.00172981
-4.57692e-09
7.14965e-06
0.00176406
-2.47124e-11
1.26783e-05
0.00178824
-2.86391e-09
1.4377e-05
0.00180607
2.0445e-09
1.41625e-05
0.00181988
-1.94215e-09
1.31551e-05
0.00183062
3.27776e-09
1.19159e-05
0.00183933
-2.12709e-09
1.07756e-05
0.00184614
5.41113e-09
9.53966e-06
0.00185225
1.09819e-09
8.3653e-06
0.00185666
3.7423e-08
7.39725e-06
0.00186053
1.6524e-07
6.85745e-06
0.00186432
6.19415e-07
6.54045e-06
0.00186135
1.45652e-06
5.48832e-06
0.00186955
5.38935e-06
4.4375e-06
0.0018364
1.45361e-05
2.79983e-07
0.00187692
5.78632e-05
-1.24009e-05
0.00174842
0.000260271
-0.000143428
0.00146797
0.00122345
-0.00013393
0.0012505
0.00139947
7.49664e-05
0.00118824
0.00151628
1.83317e-05
0.00109599
0.001755
-5.50702e-05
0.000903464
0.00198559
-1.59257e-05
0.000566015
0.00220598
9.26448e-05
0.000259436
0.00240112
0.000169886
0.00256369
0.000239335
0.00172981
-2.51157e-09
7.15017e-06
0.00176404
4.81895e-09
1.26782e-05
0.00178823
-4.66411e-09
1.43767e-05
0.00180605
6.21443e-09
1.41618e-05
0.00181988
-9.88614e-09
1.31556e-05
0.00183061
1.03405e-08
1.19138e-05
0.00183933
-1.64812e-08
1.07789e-05
0.00184613
1.68491e-08
9.53329e-06
0.00185225
-1.77406e-08
8.37637e-06
0.00185669
1.87612e-08
7.37886e-06
0.00186079
1.92532e-07
6.84999e-06
0.00186462
5.9808e-07
6.52149e-06
0.00186239
2.74626e-06
5.57787e-06
0.00187117
4.25283e-06
4.216e-06
0.00183848
2.16706e-05
4.43188e-07
0.00189353
5.18253e-05
-1.38264e-05
0.00177229
0.000262018
-0.000129578
0.00153942
0.0013219
-0.000159626
0.00129096
0.00155541
7.24988e-05
0.00123829
0.00165486
1.92511e-05
0.00115582
0.0019035
-4.16531e-05
0.000986768
0.00217556
-1.2725e-05
0.000696698
0.00244944
7.05456e-05
0.000394408
0.00271464
0.000142708
0.00313706
0.000201413
0.00172978
7.15178e-06
7.03725e-09
0.00176406
1.26755e-05
-3.20478e-09
0.00178822
1.4378e-05
-5.39502e-10
0.00180607
1.4161e-05
3.12479e-09
0.00181987
1.31572e-05
-1.415e-08
0.00183062
1.19117e-05
1.99881e-08
0.00183933
1.0783e-05
-4.31455e-08
0.00184612
9.52658e-06
6.36592e-08
0.00185232
8.39418e-06
-1.44997e-07
0.00185664
7.37596e-06
7.39919e-08
0.00186131
6.87987e-06
-4.05918e-07
0.00186315
6.53487e-06
2.36408e-06
0.00186861
5.14609e-06
-3.12458e-06
0.00185879
5.13061e-06
1.9975e-05
0.00187049
-2.46435e-06
-1.17987e-05
0.00186862
-8.13917e-06
9.23885e-05
0.00180358
-0.000118778
0.00021745
0.00160689
-0.000185484
0.00141213
0.00134568
6.12125e-05
0.00170188
0.00129862
1.92923e-05
0.00178389
0.00124578
-3.38522e-05
0.00201392
0.00112249
-1.12745e-05
0.00231919
0.000900431
5.00249e-05
0.00263782
0.000636691
0.000109962
0.00298677
0.00014406
0.00389458
0.00169384
2.87644e-10
-7.15084e-06
0.00171919
4.971e-10
-1.26767e-05
0.00174795
3.89638e-10
-1.43764e-05
0.00177627
4.87195e-10
-1.41639e-05
0.00180257
2.23374e-10
-1.31491e-05
0.00182642
2.2033e-10
-1.19244e-05
0.00184794
1.96999e-10
-1.07609e-05
0.00186708
-9.86482e-10
-9.56485e-06
0.00188373
8.67529e-10
-8.33209e-06
0.00189874
-3.15458e-09
-7.50105e-06
0.00191248
-9.99859e-09
-6.8858e-06
0.00192505
9.26614e-08
-6.61661e-06
0.00193514
-3.5279e-08
-5.36781e-06
0.00194101
6.86217e-07
-5.0317e-06
0.00193469
4.12397e-07
-2.55421e-08
0.00190185
2.77162e-06
6.83839e-06
0.0013163
4.73161e-06
0.000223971
0.000976329
0.000232192
4.93262e-05
0.00097781
0.000297137
-0.000140813
0.000619137
0.00038648
-1.9995e-05
-0.000125567
0.000386184
0.000197003
-0.00034188
0.000395185
-9.47889e-05
-0.000487175
0.000475327
-0.000170139
-0.000321333
0.000528703
-0.000350345
0.000488149
-0.000406764
0.00169384
6.07231e-13
-7.14746e-06
0.00171919
3.78565e-10
-1.26793e-05
0.00174794
4.87383e-10
-1.43733e-05
0.00177628
1.13422e-09
-1.41682e-05
0.00180257
3.44922e-10
-1.31462e-05
0.00182643
8.13607e-10
-1.19271e-05
0.00184794
-5.29372e-10
-1.0759e-05
0.00186708
6.62932e-10
-9.5678e-06
0.00188373
3.22096e-10
-8.32584e-06
0.00189874
1.02708e-08
-7.52144e-06
0.00191202
5.57551e-08
-6.58094e-06
0.00192549
7.37672e-08
-7.32129e-06
0.00193161
5.11529e-07
-2.46788e-06
0.00194377
7.32731e-07
-1.00097e-05
0.00192258
3.58013e-06
1.09334e-05
0.00189524
1.15396e-05
-5.2037e-06
0.00128354
8.16371e-05
0.000177667
0.000941582
0.000456233
5.30048e-05
0.000941697
0.0005537
-0.000118549
0.00065273
0.000689878
-1.30983e-05
-0.00013249
0.000691281
0.000252014
-0.000395765
0.000764108
-5.63242e-05
-0.000489537
0.000851629
-0.000144982
-0.000302991
0.000929645
-0.000296003
0.000882945
-0.000352401
0.00169384
4.91281e-10
-7.14865e-06
0.00171919
6.7403e-10
-1.26782e-05
0.00174794
6.24228e-10
-1.4375e-05
0.00177627
6.3449e-10
-1.41658e-05
0.00180258
-2.22104e-10
-1.31489e-05
0.00182642
2.35341e-10
-1.1925e-05
0.00184795
-1.06621e-09
-1.07617e-05
0.00186708
-6.85222e-11
-9.56387e-06
0.00188374
6.78248e-10
-8.33234e-06
0.00189873
7.61352e-09
-7.49248e-06
0.00191245
3.67165e-08
-6.87523e-06
0.00192488
2.7425e-07
-6.60622e-06
0.00193503
4.29832e-07
-5.39439e-06
0.00193981
2.25287e-06
-4.88043e-06
0.00193265
4.92638e-06
-1.43751e-07
0.00189191
2.0332e-05
7.76233e-06
0.00128679
0.000117487
0.000210555
0.000932939
0.000689873
5.77044e-05
0.000924056
0.000797231
-0.000107723
0.000653366
0.000975938
-1.29946e-05
-0.000113235
0.0010057
0.000230892
-0.000387335
0.00110095
-3.46176e-05
-0.000445664
0.00119731
-0.000148349
-0.000286214
0.00130379
-0.000270082
0.00124347
-0.000327859
0.00169383
-6.35913e-11
-7.14467e-06
0.00171919
5.3484e-10
-1.26821e-05
0.00174794
-1.47815e-10
-1.43708e-05
0.00177628
4.506e-10
-1.41718e-05
0.00180257
-9.87609e-10
-1.31441e-05
0.00182643
4.30492e-10
-1.19292e-05
0.00184795
-1.58775e-09
-1.07591e-05
0.00186708
1.25855e-09
-9.56505e-06
0.00188374
1.27271e-09
-8.33214e-06
0.00189869
1.60674e-08
-7.48425e-06
0.00191202
6.79468e-08
-6.59034e-06
0.00192526
3.9628e-07
-7.21027e-06
0.00193181
7.25559e-07
-2.54119e-06
0.00194243
3.31593e-06
-9.53218e-06
0.00192145
7.89637e-06
1.11146e-05
0.0018884
3.20588e-05
-3.52081e-06
0.00129371
0.000190471
0.000179281
0.000934498
0.000911606
6.17907e-05
0.000916777
0.00102469
-9.78413e-05
0.000667543
0.00124007
-1.39408e-05
-5.57701e-05
0.00135297
0.000185149
-0.000339368
0.0014212
-2.11914e-05
-0.000381454
0.0015281
-0.000149634
-0.000257707
0.00166789
-0.000247267
0.00160302
-0.000312974
0.00169383
-2.06819e-09
-7.14167e-06
0.0017192
5.10216e-10
-1.26864e-05
0.00174794
-2.12778e-09
-1.4368e-05
0.00177628
1.3901e-09
-1.4176e-05
0.00180257
-2.08264e-09
-1.31412e-05
0.00182643
2.14978e-09
-1.19314e-05
0.00184795
-1.8741e-09
-1.07588e-05
0.00186707
3.65226e-09
-9.56022e-06
0.00188373
3.73551e-09
-8.34249e-06
0.00189864
2.50403e-08
-7.42119e-06
0.00191164
1.2818e-07
-6.54517e-06
0.00192559
4.26231e-07
-7.16106e-06
0.0019289
1.30851e-06
-2.25387e-06
0.00194523
3.88435e-06
-9.78569e-06
0.00191048
1.2171e-05
1.26787e-05
0.00188715
4.68614e-05
-2.24697e-06
0.00132138
0.000289558
0.00016968
0.000950706
0.00111428
7.21138e-05
0.000920698
0.00123929
-8.97926e-05
0.000696449
0.00148282
-1.55736e-05
8.05591e-05
0.00169073
0.000132235
-0.000241608
0.00174959
-4.75734e-06
-0.00030213
0.00185895
-0.000141117
-0.000220761
0.00203041
-0.000225872
0.00197532
-0.000300931
0.00169383
-2.98821e-09
-7.1444e-06
0.00171919
3.63e-10
-1.2683e-05
0.00174794
-3.13529e-09
-1.4371e-05
0.00177628
9.06723e-10
-1.41714e-05
0.00180258
-2.02882e-09
-1.31458e-05
0.00182642
1.83681e-09
-1.19257e-05
0.00184795
-9.04146e-11
-1.07647e-05
0.00186706
2.51696e-09
-9.55315e-06
0.00188375
7.62502e-09
-8.34694e-06
0.0018986
2.29725e-08
-7.42212e-06
0.00191202
1.26119e-07
-6.63168e-06
0.00192518
5.9963e-07
-7.0914e-06
0.00193236
1.37972e-06
-2.74517e-06
0.0019428
5.28461e-06
-9.0267e-06
0.00192428
1.42607e-05
1.10324e-05
0.00189551
5.69727e-05
-9.25422e-07
0.00141341
0.000330195
0.000180536
0.000994554
0.00133096
7.87559e-05
0.000942303
0.00145651
-8.5545e-05
0.000740656
0.00170504
-1.84044e-05
0.000228199
0.00199271
9.69545e-05
-0.000114782
0.00207141
8.91255e-06
-0.000207367
0.00219264
-0.00012664
-0.000166545
0.00239475
-0.000206997
0.00237153
-0.000286024
0.00169383
-3.02779e-09
-7.14747e-06
0.00171919
-4.22979e-10
-1.2681e-05
0.00174794
-2.79829e-09
-1.43741e-05
0.00177627
2.97417e-10
-1.41657e-05
0.00180258
-1.31849e-09
-1.31508e-05
0.00182642
1.2262e-09
-1.19196e-05
0.00184796
4.42595e-10
-1.07712e-05
0.00186705
2.89575e-09
-9.54395e-06
0.00188375
7.84717e-09
-8.35968e-06
0.00189859
3.27868e-08
-7.40358e-06
0.00191197
1.75188e-07
-6.80504e-06
0.00192535
6.40465e-07
-6.60512e-06
0.00193234
1.80983e-06
-4.96639e-06
0.00194453
5.64513e-06
-5.11633e-06
0.00192774
1.6609e-05
1.3858e-06
0.00190663
6.26608e-05
1.20917e-05
0.00153827
0.000338148
0.000162204
0.00105006
0.00155561
0.000108309
0.000977396
0.00167281
-7.95049e-05
0.000794753
0.00190988
-1.81545e-05
0.000376562
0.00224794
7.31223e-05
2.48024e-05
0.00238686
1.65012e-05
-9.70272e-05
0.0025203
-0.00010848
-9.72618e-05
0.00275964
-0.000187153
0.00280109
-0.000268134
0.00169384
-3.66831e-09
-7.15018e-06
0.00171919
1.70183e-09
-1.26782e-05
0.00174794
-3.50363e-09
-1.43766e-05
0.00177627
2.53629e-09
-1.41623e-05
0.00180258
-2.96754e-09
-1.31539e-05
0.00182641
2.30291e-09
-1.19158e-05
0.00184796
-9.41055e-10
-1.07752e-05
0.00186704
5.82727e-10
-9.53865e-06
0.00188377
1.07735e-08
-8.36747e-06
0.00189857
2.70646e-08
-7.39159e-06
0.00191225
1.77085e-07
-6.85643e-06
0.0019249
7.99496e-07
-6.51915e-06
0.0019355
1.85332e-06
-5.45622e-06
0.00194192
6.7266e-06
-4.41851e-06
0.00193933
1.74792e-05
-4.51155e-08
0.00190556
6.74691e-05
1.29056e-05
0.0015721
0.000346022
0.00015278
0.00108546
0.00173022
0.00012119
0.00101848
0.0018757
-7.71927e-05
0.000857378
0.0020958
-1.88983e-05
0.000509811
0.00247155
5.52332e-05
0.000178768
0.00267805
1.70011e-05
3.70147e-05
0.0028271
-8.88916e-05
6.503e-06
0.00311509
-0.000167723
0.00327656
-0.000239124
0.00169383
-2.72422e-09
-7.15022e-06
0.00171919
4.6654e-09
-1.26783e-05
0.00174794
-5.8956e-09
-1.43766e-05
0.00177626
7.42083e-09
-1.41619e-05
0.00180258
-1.10042e-08
-1.31552e-05
0.0018264
1.14759e-08
-1.19138e-05
0.00184797
-1.57106e-08
-1.07786e-05
0.00186702
1.40008e-08
-9.53301e-06
0.00188378
5.17442e-10
-8.37663e-06
0.00189854
2.68962e-08
-7.37758e-06
0.00191207
3.23937e-07
-6.85026e-06
0.00192486
8.26598e-07
-6.51999e-06
0.00193476
2.83778e-06
-5.58625e-06
0.0019429
5.81569e-06
-4.20867e-06
0.00193711
2.23703e-05
-4.55462e-07
0.00190929
6.44562e-05
1.39473e-05
0.00162015
0.000350045
0.000131238
0.00112094
0.00184569
0.000167003
0.00106734
0.0020597
-7.32359e-05
0.000927248
0.00226247
-1.91793e-05
0.000648699
0.00265213
4.22083e-05
0.000363207
0.002929
1.37744e-05
0.000207166
0.00310693
-6.74892e-05
0.000154871
0.00343935
-0.000140445
0.00382457
-0.00020095
0.00169383
-7.15168e-06
6.19858e-09
0.00171919
-1.26754e-05
-4.98337e-09
0.00174794
-1.43781e-05
-4.89836e-10
0.00177627
-1.41608e-05
3.87059e-09
0.00180258
-1.31575e-05
-1.64402e-08
0.00182639
-1.19115e-05
2.64543e-08
0.00184799
-1.07831e-05
-5.24796e-08
0.00186698
-9.5265e-06
8.65126e-08
0.0018839
-8.3939e-06
-1.37161e-07
0.00189836
-7.37699e-06
3.26983e-07
0.00191241
-6.88054e-06
9.91593e-09
0.00192337
-6.53958e-06
2.72005e-06
0.00193932
-5.14482e-06
-3.03468e-06
0.00193315
-5.16997e-06
2.11901e-05
0.00195908
2.47925e-06
-1.0142e-05
0.00190513
7.96914e-06
9.96893e-05
0.00169132
0.000118927
0.000304716
0.00117366
0.000191263
0.00193251
0.00111769
-6.08483e-05
0.0022207
0.00100407
-1.87553e-05
0.00240291
0.000790653
3.43536e-05
0.00278605
0.000566605
1.20316e-05
0.00312482
0.000431613
-4.83092e-05
0.00332511
0.000385744
-0.000107922
0.00368952
-0.000143198
0.00448862
0.00172982
1.12035e-08
-5.87617e-05
0.00176405
-7.41859e-09
-4.69107e-05
0.00178824
8.34884e-09
-3.85666e-05
0.00180606
-7.01979e-09
-3.19869e-05
0.00181989
5.65722e-09
-2.69691e-05
0.00183062
-5.48159e-09
-2.26679e-05
0.00183934
1.90812e-09
-1.9458e-05
0.00184613
-2.8337e-09
-1.63878e-05
0.00185225
1.04061e-09
-1.44128e-05
0.00185662
-8.06719e-09
-1.1906e-05
0.0018603
3.24729e-07
-1.09788e-05
0.00186386
-1.46474e-07
-1.05594e-05
0.00185958
2.0929e-06
-3.89155e-06
0.00186568
-9.18145e-07
-1.35195e-05
0.0018265
5.57522e-06
2.79926e-05
0.00184521
5.06112e-06
-2.65764e-05
0.00162617
-2.35975e-05
0.000384859
0.00136419
0.000152997
0.000170156
0.00120354
0.000197749
-0.000169242
0.00107267
0.000228246
-0.000119356
0.00105793
0.000234128
-2.90082e-05
0.000755201
0.000240081
-4.91963e-05
0.000422826
0.000247303
-0.000100066
1.63081e-05
0.000302345
-0.00025297
0.000249956
-0.000657201
0.00172978
-6.1368e-09
-5.86833e-05
0.00176407
1.0692e-08
-4.69975e-05
0.00178822
-4.78721e-09
-3.84959e-05
0.00180607
9.04991e-09
-3.20574e-05
0.00181987
-5.75848e-09
-2.69066e-05
0.00183062
5.70558e-09
-2.27256e-05
0.00183931
-6.06907e-09
-1.94085e-05
0.00184613
2.53144e-09
-1.64232e-05
0.00185224
-4.15657e-09
-1.43953e-05
0.00185648
2.43817e-08
-1.18656e-05
0.00186183
-2.63606e-07
-1.13845e-05
0.00186093
4.13713e-07
-7.51486e-06
0.00187469
-1.58476e-06
-1.30954e-05
0.00184723
2.92581e-06
1.05907e-05
0.00188454
-1.72561e-06
-2.413e-05
0.00178108
9.68895e-06
8.41736e-05
0.00156099
9.61786e-05
0.000198223
0.00129052
0.000278373
0.000202197
0.00117976
0.000366212
-0.000168969
0.00105682
0.000447227
-0.000112006
0.00105079
0.000502227
-1.72003e-05
0.000745929
0.000511355
-4.03418e-05
0.000390502
0.000528314
-8.43919e-05
1.47469e-05
0.00061625
-0.000241202
0.000523472
-0.000628412
0.00172981
1.12299e-08
-5.87515e-05
0.00176406
-7.2914e-09
-4.69203e-05
0.00178824
9.22431e-09
-3.85603e-05
0.00180607
-8.58948e-09
-3.19937e-05
0.00181989
7.27281e-09
-2.69652e-05
0.00183063
-9.54307e-09
-2.26714e-05
0.00183934
4.63724e-09
-1.94569e-05
0.00184614
-7.26774e-09
-1.63864e-05
0.00185227
8.11082e-10
-1.44187e-05
0.00185663
1.28214e-09
-1.18955e-05
0.00186008
3.03336e-07
-1.09748e-05
0.00186377
-2.9533e-08
-1.03772e-05
0.00185761
2.24834e-06
-3.75061e-06
0.00186538
1.02557e-07
-1.296e-05
0.00182027
8.84828e-06
2.92322e-05
0.00183311
2.01987e-05
-2.41401e-05
0.00160193
7.46612e-05
0.000386641
0.00130773
0.000463901
0.000172624
0.001164
0.00055569
-0.000147422
0.00104023
0.000657052
-0.000102543
0.00102563
0.000749202
-8.72124e-06
0.000729479
0.000780504
-2.54501e-05
0.000345931
0.00081059
-6.07811e-05
4.45131e-06
0.00090369
-0.00022366
0.000776001
-0.000591457
0.00172977
2.19431e-09
-5.8676e-05
0.00176408
-1.45629e-10
-4.70054e-05
0.00178821
8.67071e-10
-3.84907e-05
0.00180609
-2.36428e-09
-3.20648e-05
0.00181987
7.48845e-10
-2.69013e-05
0.00183064
-4.41888e-09
-2.2735e-05
0.00183931
2.66489e-09
-1.93952e-05
0.00184615
-4.84008e-09
-1.64488e-05
0.00185221
4.39632e-09
-1.43611e-05
0.00185663
3.24644e-08
-1.19725e-05
0.00186177
1.13859e-08
-1.15059e-05
0.00186142
3.88142e-07
-7.75327e-06
0.00187351
5.34284e-07
-1.34439e-05
0.00184928
2.93574e-06
8.97779e-06
0.00188208