/*--------------------------------*- C++ -*----------------------------------*\
  =========                 |
  \\      /  F ield         | OpenFOAM: The Open Source CFD Toolbox
   \\    /   O peration     | Website:  https://openfoam.org
    \\  /    A nd           | Version:  6
     \\/     M anipulation  |
\*---------------------------------------------------------------------------*/
FoamFile
{
    version     2.0;
    format      ascii;
    class       volScalarField;
    location    "1";
    object      T;
}
// * * * * * * * * * * * * * * * * * * * * * * * * * * * * * * * * * * * * * //

dimensions      [0 0 0 1 0 0 0];

internalField   nonuniform List<scalar> 
26250
(
0.979781
0.967752
0.955517
0.946975
0.937448
0.931324
0.923792
0.919537
0.91382
0.912745
0.912242
0.923211
0.943897
1.02447
1.1818
1.69593
2.6465
2.77339
2.74177
2.69168
2.66764
2.67391
2.71304
2.70188
2.66554
0.979786
0.967746
0.955523
0.946969
0.937454
0.931318
0.923797
0.919532
0.913822
0.912721
0.912215
0.923115
0.943724
1.02384
1.18058
1.69278
2.64173
2.77181
2.74064
2.69008
2.66812
2.67524
2.71657
2.70925
2.68238
0.9798
0.967731
0.955537
0.946955
0.937469
0.931305
0.923812
0.919517
0.913826
0.912658
0.912147
0.922897
0.943285
1.02265
1.17792
1.68791
2.63547
2.76981
2.73896
2.68838
2.66792
2.67595
2.72027
2.71461
2.69607
0.979865
0.967668
0.955605
0.946889
0.937539
0.931235
0.923881
0.919444
0.913869
0.912464
0.912028
0.92248
0.940854
1.02095
1.17233
1.6805
2.62086
2.76649
2.73403
2.68602
2.66578
2.67494
2.72103
2.7176
2.71102
0.98081
0.966689
0.956606
0.945845
0.938592
0.930141
0.924954
0.918344
0.914879
0.911133
0.913746
0.91804
0.947438
0.998736
1.19447
1.74568
2.49614
2.73954
2.70482
2.66263
2.64692
2.6587
2.7098
2.71064
2.71326
0.979961
0.967565
0.955711
0.946789
0.937642
0.931138
0.923979
0.919334
0.91392
0.912122
0.911735
0.921466
0.937335
1.01517
1.15703
1.65301
2.578
2.74454
2.7043
2.65903
2.64032
2.65148
2.70335
2.70473
2.7106
0.980762
0.966694
0.956581
0.945894
0.938524
0.93023
0.924887
0.918395
0.914787
0.910956
0.913333
0.917354
0.944996
0.993952
1.17618
1.68401
2.43736
2.71467
2.67599
2.64206
2.62596
2.63751
2.69056
2.69567
2.70439
0.979994
0.967529
0.955744
0.94675
0.937674
0.931101
0.924006
0.919301
0.913917
0.911956
0.911504
0.920348
0.936486
1.00601
1.13472
1.60798
2.51903
2.7123
2.66915
2.63349
2.61319
2.62241
2.67478
2.68005
2.687
0.980012
0.967514
0.955753
0.946733
0.937686
0.931082
0.924022
0.919285
0.913908
0.911863
0.91135
0.919662
0.936122
1.00072
1.12272
1.57643
2.47646
2.69234
2.65159
2.62226
2.59823
2.60495
2.64737
2.65694
2.65261
0.980109
0.967414
0.95585
0.946633
0.937785
0.93098
0.924123
0.919166
0.913978
0.911591
0.911165
0.918722
0.932344
0.99502
1.10347
1.54908
2.43597
2.66886
2.63646
2.61265
2.58458
2.58584
2.61514
2.60594
2.5647
1.01375
1.02146
1.02587
1.02937
1.03143
1.03334
1.03444
1.03558
1.0366
1.03898
1.04794
1.06225
1.10396
1.21329
1.46483
2.21911
2.87232
2.66213
2.84136
2.81715
2.82797
2.85931
2.92856
2.96992
2.8399
1.01375
1.02146
1.02587
1.02937
1.03143
1.03335
1.03443
1.03559
1.0366
1.03898
1.0479
1.06219
1.10375
1.21288
1.46385
2.21698
2.87172
2.66479
2.84176
2.81613
2.83001
2.8648
2.93327
2.97217
2.84605
1.01375
1.02147
1.02587
1.02938
1.03142
1.03336
1.03441
1.03561
1.03657
1.03895
1.0478
1.06196
1.10322
1.21133
1.46034
2.20927
2.86796
2.67012
2.84043
2.81312
2.82759
2.86451
2.93069
2.97031
2.8536
1.01375
1.02147
1.02586
1.02939
1.03141
1.03337
1.0344
1.03562
1.03653
1.03888
1.04762
1.06152
1.10243
1.20859
1.45474
2.19598
2.86246
2.67945
2.83849
2.80659
2.81942
2.85921
2.92336
2.9653
2.8573
1.01377
1.02148
1.02586
1.02942
1.03139
1.03342
1.03436
1.03569
1.03645
1.03886
1.04625
1.06226
1.09649
1.21279
1.43894
2.17677
2.85276
2.68577
2.83699
2.80035
2.81092
2.8475
2.91233
2.95274
2.85647
1.01376
1.02147
1.02587
1.02939
1.03141
1.03338
1.03439
1.03563
1.03647
1.03867
1.04708
1.0602
1.09968
1.19955
1.43368
2.13513
2.83977
2.70087
2.83358
2.79059
2.79815
2.83162
2.89544
2.93992
2.85107
1.01378
1.02146
1.02588
1.02941
1.0314
1.03341
1.03437
1.03567
1.03641
1.03863
1.04577
1.06051
1.09323
1.20149
1.41206
2.09407
2.82419
2.71499
2.82953
2.77915
2.78449
2.81214
2.87445
2.91281
2.83643
1.01376
1.02146
1.02587
1.02938
1.03141
1.03338
1.03439
1.03563
1.03643
1.03849
1.04632
1.05848
1.09558
1.18649
1.40343
2.02622
2.81345
2.72745
2.81512
2.759
2.76232
2.78474
2.84769
2.88853
2.81112
1.01377
1.02146
1.02587
1.02938
1.03142
1.03338
1.03439
1.03563
1.03641
1.0384
1.04587
1.05743
1.09327
1.17823
1.38668
1.94705
2.80617
2.72993
2.79746
2.74053
2.74034
2.75314
2.79902
2.83471
2.74805
1.01389
1.02135
1.02598
1.02928
1.03151
1.03329
1.03448
1.03554
1.03648
1.03824
1.04524
1.05636
1.08912
1.17406
1.36512
1.87167
2.79789
2.73853
2.75698
2.71973
2.71911
2.72438
2.75369
2.78154
2.65944
1.006
1.01302
1.02116
1.02834
1.03533
1.04092
1.04641
1.05065
1.05517
1.05982
1.07065
1.08881
1.13674
1.2624
1.53956
2.37141
2.87927
2.3787
2.80726
2.85093
2.89272
3.06284
3.03553
2.96599
2.91465
1.00603
1.01299
1.02119
1.02831
1.03536
1.04089
1.04644
1.05063
1.05519
1.0598
1.07074
1.08859
1.13699
1.26104
1.53922
2.37608
2.87931
2.37667
2.81244
2.84786
2.88958
3.06248
3.03123
2.96155
2.91674
1.006
1.01302
1.02116
1.02834
1.03532
1.04092
1.04641
1.05065
1.05516
1.05979
1.07053
1.08857
1.13606
1.26088
1.53567
2.36686
2.87686
2.39072
2.81402
2.84369
2.88311
3.06226
3.02826
2.9571
2.91489
1.00603
1.01299
1.02119
1.02832
1.03535
1.04089
1.04644
1.05063
1.05519
1.05973
1.07049
1.08806
1.13559
1.25748
1.53025
2.35689
2.87554
2.41081
2.81618
2.83687
2.86719
3.05867
3.02154
2.94812
2.90906
1.00606
1.01296
1.02122
1.02828
1.03538
1.04086
1.04647
1.05059
1.05521
1.05966
1.07035
1.08737
1.13467
1.25264
1.52148
2.33643
2.87299
2.43904
2.81942
2.82574
2.85316
3.04595
3.01438
2.93691
2.89407
1.00605
1.01297
1.02121
1.02829
1.03538
1.04087
1.04646
1.0506
1.05518
1.05958
1.06996
1.08676
1.13251
1.24804
1.50764
2.28995
2.86725
2.47795
2.81996
2.81227
2.82942
3.01727
3.00659
2.9194
2.87873
1.00608
1.01294
1.02124
1.02826
1.0354
1.04084
1.04649
1.05057
1.0552
1.05948
1.06962
1.08578
1.13039
1.24091
1.49115
2.23518
2.86544
2.51512
2.81747
2.79913
2.81233
2.97773
2.98914
2.89915
2.84389
1.00608
1.01294
1.02124
1.02826
1.0354
1.04084
1.04648
1.05056
1.05518
1.05937
1.0691
1.08484
1.1275
1.23415
1.47283
2.17653
2.86336
2.54928
2.80987
2.77946
2.78565
2.92511
2.96876
2.86606
2.81205
1.00611
1.01291
1.02127
1.02823
1.03543
1.04081
1.04651
1.05053
1.05519
1.05923
1.06863
1.0836
1.12474
1.2255
1.45379
2.11681
2.85686
2.58767
2.79693
2.75701
2.76125
2.87359
2.93596
2.83293
2.72997
1.00609
1.01293
1.02125
1.02826
1.0354
1.04084
1.04648
1.05055
1.05514
1.05908
1.06788
1.08248
1.12092
1.21878
1.43246
2.04763
2.83869
2.63032
2.77669
2.73054
2.73005
2.80852
2.88709
2.77431
2.63775
1.01375
1.02146
1.02587
1.02938
1.03142
1.03336
1.03442
1.0356
1.03659
1.03895
1.04787
1.06213
1.10379
1.21329
1.46611
2.23198
2.87123
2.65672
2.83704
2.81341
2.82659
2.8604
2.93578
2.97264
2.84592
1.01377
1.02148
1.02586
1.02941
1.03141
1.03339
1.03441
1.03564
1.03655
1.03901
1.04659
1.06351
1.0988
1.221
1.45831
2.23866
2.86931
2.65014
2.83983
2.81471
2.83065
2.86819
2.94059
2.96903
2.85092
1.01375
1.02147
1.02587
1.02938
1.03142
1.03337
1.03441
1.03562
1.03655
1.03891
1.04774
1.06181
1.10322
1.21136
1.46243
2.23019
2.86529
2.66218
2.83651
2.81079
2.82725
2.8697
2.93966
2.96752
2.85629
1.01377
1.02148
1.02587
1.02941
1.0314
1.03341
1.0344
1.03565
1.03654
1.03894
1.04651
1.06281
1.09778
1.21703
1.44944
2.21691
2.85992
2.66967
2.83568
2.80478
2.81888
2.86431
2.93309
2.96296
2.85668
1.01378
1.02147
1.02588
1.0294
1.03142
1.0334
1.0344
1.03564
1.03652
1.03886
1.0465
1.06202
1.09685
1.21286
1.44023
2.19038
2.85106
2.68367
2.8341
2.79734
2.80834
2.85242
2.92401
2.9518
2.85499
1.01378
1.02147
1.02587
1.02941
1.0314
1.03341
1.03437
1.03567
1.03644
1.03874
1.04614
1.06134
1.09518
1.20753
1.4267
2.1431
2.83973
2.69728
2.83282
2.79049
2.79837
2.83558
2.90523
2.9391
2.84862
1.01376
1.02146
1.02587
1.02939
1.03141
1.03338
1.03439
1.03563
1.03645
1.0386
1.04675
1.05948
1.09775
1.19373
1.41881
2.08661
2.82241
2.71424
2.82785
2.77834
2.78475
2.8178
2.88553
2.91226
2.83238
1.01376
1.02146
1.02587
1.02938
1.03141
1.03338
1.03439
1.03563
1.03643
1.03851
1.04634
1.05855
1.09556
1.18663
1.40306
2.01716
2.81535
2.72807
2.81266
2.7569
2.76072
2.78788
2.85807
2.88836
2.80665
1.01377
1.02146
1.02587
1.02938
1.03141
1.03338
1.03439
1.03563
1.03641
1.0384
1.04587
1.05744
1.09332
1.17819
1.38666
1.94471
2.80642
2.73073
2.79468
2.73884
2.73916
2.75492
2.80876
2.83786
2.74337
1.01389
1.02135
1.02598
1.02928
1.03151
1.03329
1.03448
1.03554
1.03648
1.03824
1.04524
1.05637
1.08912
1.17418
1.36504
1.87154
2.79754
2.73935
2.75408
2.71674
2.7163
2.72348
2.76039
2.78146
2.65722
0.97985
0.967681
0.955586
0.946906
0.937521
0.931251
0.923868
0.919461
0.91387
0.91254
0.912125
0.92291
0.941286
1.02472
1.17948
1.70414
2.66065
2.77988
2.74875
2.69812
2.67816
2.6847
2.72277
2.70904
2.66752
0.980846
0.966651
0.956625
0.945828
0.938618
0.930099
0.925023
0.918268
0.91501
0.91125
0.914033
0.918508
0.949608
1.00269
1.21232
1.79141
2.53912
2.74726
2.71255
2.6643
2.64834
2.65651
2.70118
2.6866
2.66833
0.979905
0.967625
0.955644
0.946854
0.937577
0.931199
0.923926
0.919403
0.913918
0.912425
0.912081
0.922662
0.939076
1.0233
1.17229
1.70067
2.65172
2.77613
2.74245
2.69151
2.67331
2.6807
2.72444
2.71107
2.69603
0.980859
0.966632
0.956636
0.945827
0.938599
0.930134
0.925
0.918293
0.915053
0.911445
0.914106
0.919522
0.949177
1.00522
1.20375
1.76948
2.51617
2.7429
2.70933
2.66753
2.65491
2.66558
2.7156
2.70681
2.70006
0.98085
0.96662
0.956677
0.945782
0.938653
0.93009
0.925025
0.918273
0.915209
0.911746
0.914094
0.920492
0.947534
1.00534
1.19186
1.75105
2.50301
2.73765
2.70108
2.65812
2.64517
2.65608
2.70873
2.70309
2.7015
0.980813
0.966675
0.956604
0.945858
0.938571
0.930161
0.924964
0.918318
0.915001
0.911352
0.913802
0.919107
0.94687
1.00047
1.18564
1.71989
2.47268
2.72476
2.68498
2.64141
2.62502
2.63602
2.69088
2.69024
2.69747
0.97994
0.967587
0.955682
0.946812
0.937613
0.931163
0.923952
0.919365
0.913902
0.912212
0.911755
0.921193
0.938539
1.01082
1.14828
1.62959
2.55068
2.72648
2.68432
2.64232
2.61999
2.62931
2.6809
2.67975
2.68892
0.979951
0.967574
0.955693
0.946796
0.937624
0.931148
0.923959
0.919353
0.913884
0.912093
0.911568
0.920518
0.93825
1.00604
1.13732
1.60299
2.51684
2.71461
2.674
2.64026
2.61562
2.62372
2.67292
2.67207
2.67053
0.980007
0.967519
0.955748
0.946737
0.93768
0.931087
0.924015
0.91929
0.913907
0.911888
0.911374
0.919714
0.936265
1.00078
1.12281
1.57599
2.4758
2.69029
2.64884
2.62205
2.60084
2.60849
2.65511
2.65545
2.63828
0.98011
0.967412
0.955853
0.94663
0.937788
0.930978
0.924122
0.919168
0.913978
0.911587
0.911165
0.918718
0.932266
0.994966
1.10353
1.54895
2.43548
2.66794
2.63507
2.61104
2.58172
2.58306
2.61841
2.61557
2.55798
0.980811
0.966683
0.956599
0.945862
0.938564
0.930165
0.924936
0.918321
0.914781
0.910591
0.913325
0.913493
0.936118
0.970959
1.12586
1.48149
2.23742
2.60839
2.60368
2.58283
2.55402
2.5547
2.5603
2.54223
2.41512
0.980282
0.967238
0.956042
0.946445
0.93799
0.930781
0.924307
0.918961
0.914084
0.9111
0.910713
0.9167
0.926962
0.98207
1.07626
1.47662
2.30006
2.56747
2.5697
2.54686
2.51895
2.50473
2.49144
2.46018
2.34016
0.980646
0.966848
0.956437
0.946021
0.938403
0.930326
0.924761
0.918472
0.914588
0.910507
0.912074
0.912635
0.930297
0.959135
1.0929
1.36893
2.06775
2.50452
2.53449
2.51658
2.49521
2.48194
2.45526
2.41456
2.30919
0.979855
0.967513
0.955797
0.946595
0.937883
0.930779
0.924344
0.918813
0.914179
0.910728
0.910432
0.914356
0.923574
0.9664
1.04905
1.35698
2.07726
2.42815
2.47931
2.46523
2.44722
2.43517
2.40954
2.37391
2.29607
0.979427
0.968094
0.955167
0.94732
0.937096
0.931668
0.923436
0.919856
0.913131
0.911711
0.909028
0.912766
0.919777
0.957322
1.01849
1.28416
1.95089
2.36859
2.44632
2.44162
2.42139
2.39808
2.36902
2.32711
2.26624
0.980778
0.966699
0.956583
0.945855
0.938573
0.930147
0.924951
0.918246
0.914692
0.909652
0.909212
0.908858
0.919709
0.938499
1.01739
1.16497
1.66223
2.23825
2.39725
2.40032
2.39242
2.37062
2.33658
2.29299
2.24117
0.980562
0.966925
0.95637
0.946077
0.938357
0.930359
0.924751
0.918439
0.914473
0.909678
0.908279
0.907865
0.915452
0.931443
0.986245
1.09589
1.46116
2.10949
2.32936
2.34287
2.34218
2.32593
2.29609
2.25475
2.20409
0.980385
0.967103
0.956183
0.94628
0.93816
0.930564
0.924527
0.918641
0.914239
0.909801
0.90761
0.907302
0.912184
0.925176
0.962774
1.05084
1.32915
1.94494
2.25636
2.30569
2.30251
2.28932
2.26321
2.23435
2.1898
0.980145
0.967342
0.955956
0.946554
0.937939
0.930872
0.924319
0.918934
0.913995
0.909955
0.90695
0.906765
0.909778
0.919295
0.947505
1.02023
1.22076
1.78872
2.18355
2.27339
2.27225
2.25303
2.23029
2.19361
2.1642
0.979923
0.967612
0.955651
0.946848
0.937567
0.931203
0.923884
0.919347
0.913513
0.910421
0.906052
0.905738
0.905409
0.914385
0.930958
0.992164
1.11508
1.47903
2.0135
2.21582
2.23437
2.22877
2.20389
2.1652
2.12404
0.980609
0.966917
0.956359
0.94613
0.938266
0.930482
0.924599
0.918578
0.914312
0.909525
0.906755
0.903971
0.905337
0.908597
0.924393
0.958177
1.05367
1.35073
1.78247
2.10748
2.1713
2.18703
2.17685
2.15264
2.1136
0.980161
0.96716
0.956117
0.946325
0.938108
0.930693
0.924422
0.918835
0.914022
0.909851
0.90625
0.903863
0.903666
0.906629
0.91483
0.941337
1.00357
1.18122
1.65859
2.01143
2.11055
2.13263
2.12932
2.11745
2.09318
0.980584
0.966927
0.956321
0.94615
0.938237
0.930488
0.924581
0.918582
0.914213
0.909568
0.906399
0.903216
0.902781
0.903483
0.909352
0.927083
0.96717
1.08456
1.36698
1.86017
2.06975
2.09021
2.09293
2.07917
2.05626
0.98034
0.967133
0.956151
0.946295
0.938134
0.930607
0.924518
0.918694
0.91418
0.909632
0.906364
0.902945
0.901505
0.901258
0.90538
0.914767
0.945742
1.00555
1.22342
1.68316
1.98407
2.06612
2.06897
2.06046
2.03874
0.980443
0.967029
0.956285
0.946197
0.938202
0.93057
0.924462
0.918765
0.914004
0.909829
0.9061
0.903096
0.900784
0.900661
0.902444
0.908486
0.926884
0.968594
1.09064
1.44654
1.84193
2.02076
2.03975
2.038
2.02177
0.980402
0.96708
0.956266
0.946214
0.938279
0.930501
0.924618
0.918607
0.91423
0.909532
0.906406
0.902698
0.900789
0.899366
0.900277
0.904244
0.913608
0.944383
1.00994
1.2208
1.59658
1.91665
2.00091
2.0074
2.00062
0.980601
0.96691
0.956356
0.946117
0.93827
0.930469
0.92457
0.918613
0.914161
0.909593
0.906283
0.902774
0.90044
0.898286
0.898977
0.899956
0.906624
0.922975
0.969501
1.06967
1.35894
1.74427
1.92629
1.96292
1.96716
0.980388
0.967078
0.956196
0.946227
0.938197
0.930526
0.924573
0.918648
0.914176
0.909636
0.906262
0.902798
0.900349
0.897939
0.897354
0.897759
0.901244
0.911788
0.938054
0.997374
1.19238
1.58387
1.8295
1.92159
1.93724
0.980344
0.967175
0.956076
0.946397
0.938004
0.930748
0.924362
0.918858
0.914011
0.909801
0.906151
0.902915
0.900241
0.897815
0.896426
0.896338
0.898151
0.904255
0.91755
0.956328
1.04548
1.33609
1.67943
1.86309
1.90095
0.980449
0.967122
0.956143
0.946341
0.938075
0.930637
0.924461
0.918701
0.914122
0.909643
0.906252
0.902786
0.900298
0.897666
0.896132
0.895248
0.896034
0.898907
0.906654
0.929731
0.981089
1.12961
1.42765
1.75235
1.859
0.980426
0.967066
0.956213
0.946228
0.938201
0.930508
0.924581
0.918599
0.914192
0.909588
0.90628
0.902769
0.900306
0.897653
0.89589
0.894292
0.894746
0.895617
0.899788
0.912601
0.942397
1.01253
1.21422
1.58652
1.77658
0.980321
0.967168
0.956108
0.946351
0.938084
0.930664
0.924454
0.918753
0.914106
0.909684
0.906244
0.902824
0.900273
0.897659
0.895832
0.893915
0.893371
0.893493
0.895853
0.902408
0.919364
0.957011
1.06792
1.3468
1.66055
0.980374
0.967169
0.956092
0.946396
0.938025
0.930718
0.92439
0.918801
0.914025
0.909742
0.90615
0.902867
0.900196
0.897709
0.895688
0.893935
0.892689
0.892646
0.893507
0.89713
0.90431
0.929196
0.979085
1.13566
1.41154
0.9804
0.967085
0.956178
0.946267
0.938142
0.930572
0.924521
0.91865
0.914178
0.909604
0.906284
0.902805
0.900258
0.897717
0.895711
0.893891
0.892491
0.891554
0.891954
0.893272
0.897428
0.909773
0.938702
1.00672
1.18543
0.980265
0.967234
0.956059
0.94641
0.938047
0.930701
0.924436
0.918763
0.914097
0.909683
0.906233
0.902817
0.900252
0.897669
0.89573
0.893815
0.892404
0.891113
0.890901
0.891213
0.893248
0.899394
0.913337
0.948066
1.03763
0.980362
0.96717
0.956099
0.946384
0.938028
0.930716
0.924362
0.918825
0.913972
0.909793
0.906082
0.902951
0.900133
0.89778
0.895667
0.893891
0.892339
0.891024
0.890194
0.89016
0.890917
0.894342
0.899877
0.922211
0.959542
0.980323
0.967156
0.956129
0.946321
0.938115
0.930624
0.924486
0.91872
0.914118
0.909681
0.906222
0.902844
0.900231
0.897692
0.895724
0.893819
0.892363
0.890944
0.889959
0.889309
0.889599
0.890722
0.893932
0.903554
0.926759
0.98029
0.967238
0.956055
0.946427
0.938014
0.930733
0.924361
0.918822
0.913993
0.909754
0.906149
0.902869
0.900224
0.897687
0.895751
0.893804
0.892391
0.890915
0.889895
0.88893
0.888784
0.88917
0.890389
0.895963
0.904224
0.980352
0.967137
0.956124
0.94633
0.938077
0.930669
0.924414
0.918805
0.914016
0.909782
0.906127
0.902916
0.900178
0.897734
0.895682
0.893882
0.89229
0.891001
0.889805
0.888846
0.888215
0.888196
0.888686
0.890884
0.894596
0.980285
0.967238
0.956062
0.946407
0.938039
0.930692
0.924408
0.918773
0.914046
0.90972
0.906182
0.902855
0.900239
0.897675
0.895758
0.893804
0.892368
0.89095
0.889817
0.888818
0.888041
0.887515
0.887705
0.888328
0.890339
0.980345
0.967142
0.956119
0.94635
0.938056
0.930705
0.92438
0.918832
0.913991
0.909789
0.906119
0.902918
0.900176
0.897732
0.895703
0.89384
0.892358
0.890926
0.889862
0.888763
0.888013
0.88724
0.887026
0.887098
0.887931
0.980285
0.96724
0.956047
0.946416
0.938024
0.930699
0.924407
0.918775
0.914051
0.909725
0.906172
0.90288
0.900197
0.897734
0.895682
0.893883
0.892297
0.890994
0.889795
0.888819
0.887954
0.887217
0.886701
0.886546
0.886767
0.980313
0.967178
0.956102
0.946367
0.93805
0.930711
0.924369
0.918843
0.913973
0.909806
0.906101
0.902933
0.900166
0.897739
0.895703
0.893836
0.892362
0.890917
0.88987
0.888749
0.888007
0.887155
0.886636
0.886115
0.886149
0.980304
0.967212
0.95606
0.94641
0.938016
0.930717
0.92439
0.918791
0.914043
0.90973
0.906168
0.902886
0.900188
0.897743
0.895674
0.893887
0.892298
0.890993
0.889793
0.888827
0.887935
0.887213
0.886578
0.886024
0.88572
0.980301
0.967203
0.95608
0.946384
0.938045
0.9307
0.924388
0.91882
0.913991
0.909798
0.9061
0.90294
0.900157
0.897744
0.8957
0.893837
0.892361
0.890919
0.88987
0.88875
0.888004
0.887165
0.886589
0.886017
0.885582
0.980303
0.967204
0.956071
0.9464
0.938021
0.930724
0.924371
0.918821
0.914011
0.909758
0.906151
0.902893
0.900189
0.897738
0.89568
0.893882
0.892299
0.890992
0.889794
0.888821
0.887946
0.887199
0.88658
0.885999
0.885571
0.980297
0.967211
0.956067
0.9464
0.938026
0.930714
0.924381
0.918815
0.914004
0.90978
0.906112
0.902939
0.900146
0.897765
0.895678
0.893859
0.892344
0.890938
0.889849
0.888776
0.887979
0.887185
0.886576
0.886022
0.885531
0.980299
0.967207
0.956071
0.946397
0.938027
0.930717
0.924375
0.918823
0.913998
0.909779
0.906125
0.902914
0.90018
0.897732
0.895699
0.893857
0.892322
0.890978
0.889797
0.888827
0.887937
0.887208
0.886574
0.886001
0.885564
0.980297
0.967211
0.956066
0.946402
0.938022
0.93072
0.924374
0.918821
0.914002
0.909775
0.906126
0.902922
0.900162
0.897759
0.895669
0.893881
0.892316
0.890963
0.889833
0.88878
0.887983
0.887176
0.886586
0.88601
0.885537
0.980295
0.967212
0.956066
0.946402
0.938022
0.930721
0.924373
0.918825
0.913998
0.909781
0.90612
0.902924
0.900165
0.897748
0.895684
0.893867
0.892319
0.890978
0.889799
0.888826
0.88794
0.887202
0.886585
0.885986
0.885579
1.01387
1.02139
1.02595
1.02934
1.03147
1.03335
1.03442
1.03565
1.03649
1.039
1.04301
1.05739
1.08622
1.15579
1.36827
1.8966
2.75962
2.75229
2.73792
2.69343
2.68457
2.68141
2.69134
2.67794
2.50169
1.01385
1.02139
1.02594
1.02933
1.03147
1.03334
1.03442
1.03563
1.03648
1.03883
1.04266
1.05469
1.08473
1.14352
1.35055
1.83862
2.70503
2.74767
2.72127
2.66528
2.65135
2.64154
2.63031
2.59633
2.44866
1.01386
1.02138
1.02595
1.02933
1.03147
1.03334
1.03442
1.03562
1.03642
1.03853
1.04193
1.05432
1.07879
1.138
1.3199
1.76127
2.63475
2.73774
2.70667
2.64576
2.61507
2.60001
2.57905
2.53799
2.43138
1.01384
1.02137
1.02595
1.0293
1.03148
1.0333
1.03443
1.03557
1.03635
1.03816
1.04151
1.05037
1.07641
1.12153
1.30029
1.68459
2.50575
2.7109
2.67385
2.64245
2.59536
2.56288
2.53007
2.49441
2.42099
1.01403
1.02117
1.02615
1.02909
1.03168
1.03309
1.03465
1.03532
1.03652
1.03741
1.04141
1.04886
1.06788
1.12692
1.23248
1.64315
2.48634
2.64999
2.64044
2.62222
2.5827
2.54381
2.50212
2.46088
2.39958
1.01395
1.02131
1.02602
1.02927
1.03153
1.03329
1.03446
1.03555
1.03624
1.03747
1.03983
1.04841
1.06449
1.10492
1.22909
1.49056
2.2764
2.6157
2.62989
2.59499
2.55752
2.52737
2.48204
2.44247
2.39172
1.01408
1.02117
1.02617
1.02911
1.03169
1.03313
1.03463
1.03537
1.03637
1.03711
1.03913
1.04653
1.0588
1.09336
1.18764
1.39719
1.99493
2.53035
2.61566
2.58516
2.53198
2.49551
2.45663
2.41881
2.37548
1.01402
1.02122
1.02612
1.02916
1.03165
1.03316
1.0346
1.03537
1.03637
1.03703
1.03917
1.04302
1.05418
1.08214
1.14233
1.31874
1.81668
2.39058
2.56209
2.55662
2.52219
2.47293
2.43456
2.39928
2.36529
1.01399
1.02124
1.02609
1.02918
1.03163
1.03319
1.03459
1.03538
1.03634
1.03694
1.03859
1.04134
1.05066
1.07093
1.11608
1.25632
1.59031
2.26792
2.51854
2.51876
2.50039
2.45788
2.41019
2.37105
2.33961
1.01397
1.02126
1.02607
1.02919
1.03161
1.03319
1.03456
1.03538
1.03629
1.03682
1.03797
1.04005
1.04816
1.0618
1.09939
1.20565
1.43282
2.05205
2.44091
2.48905
2.47333
2.44557
2.40185
2.35508
2.32626
1.01386
1.02139
1.02594
1.02934
1.03146
1.03335
1.0344
1.03557
1.03612
1.03699
1.03758
1.0399
1.04385
1.05628
1.08472
1.1501
1.33986
1.84022
2.32303
2.45455
2.4463
2.4192
2.38187
2.3373
2.29686
1.01384
1.02137
1.02595
1.02931
1.03148
1.03332
1.03442
1.03554
1.03612
1.03693
1.03745
1.03904
1.0417
1.05127
1.06879
1.11977
1.23376
1.62111
2.10215
2.37706
2.41452
2.40282
2.37183
2.32963
2.28528
1.01406
1.02118
1.02615
1.02913
1.03167
1.03314
1.0346
1.03536
1.03629
1.03673
1.03747
1.03809
1.04082
1.04588
1.05895
1.09703
1.16816
1.41384
1.98054
2.28732
2.35205
2.35848
2.34367
2.31355
2.27813
1.01403
1.02121
1.02612
1.02914
1.03165
1.03316
1.03459
1.03537
1.03628
1.03673
1.03737
1.03783
1.03919
1.0438
1.05237
1.07403
1.13677
1.26026
1.64536
2.14095
2.31193
2.32452
2.31785
2.29565
2.26432
1.01392
1.02131
1.02603
1.02923
1.03157
1.03323
1.03452
1.03542
1.03623
1.03677
1.03734
1.03776
1.03856
1.04191
1.04698
1.06299
1.10249
1.17968
1.45092
1.98013
2.23337
2.27999
2.27938
2.26438
2.23981
1.01383
1.0214
1.02595
1.02933
1.03149
1.03333
1.03444
1.03552
1.03614
1.03686
1.03724
1.0378
1.03831
1.04046
1.0436
1.05561
1.07698
1.13592
1.28485
1.703
2.11439
2.24561
2.24768
2.23992
2.21876
1.0139
1.02135
1.02599
1.02929
1.03151
1.03331
1.03445
1.03552
1.03614
1.03687
1.03722
1.03779
1.03814
1.03939
1.0414
1.04918
1.0618
1.10187
1.18525
1.44756
1.86437
2.15886
2.21641
2.21509
2.20371
1.01399
1.02125
1.02608
1.02918
1.0316
1.03321
1.03454
1.03543
1.03623
1.03677
1.0373
1.03767
1.03809
1.03858
1.04052
1.04382
1.05408
1.07645
1.13041
1.27226
1.66941
2.0204
2.1549
2.17788
2.17626
1.01396
1.02126
1.02607
1.02918
1.03161
1.03318
1.03457
1.03539
1.03626
1.03674
1.03734
1.03764
1.03807
1.03837
1.03916
1.04217
1.04687
1.06098
1.09649
1.16412
1.40125
1.85675
2.07952
2.12972
2.13885
1.01389
1.02136
1.02599
1.02928
1.03153
1.03327
1.03449
1.03546
1.0362
1.0368
1.03728
1.03768
1.03804
1.03833
1.03878
1.04054
1.04315
1.05282
1.06991
1.11771
1.23199
1.55851
1.94884
2.0916
2.10301
1.0139
1.02135
1.02599
1.02928
1.03152
1.03329
1.03447
1.03549
1.03616
1.03684
1.03723
1.03773
1.03796
1.03837
1.03862
1.03956
1.04106
1.04697
1.05632
1.08621
1.14853
1.32177
1.68506
1.9956
2.07068
1.01396
1.02127
1.02605
1.02922
1.03157
1.03324
1.0345
1.03546
1.03619
1.03681
1.03726
1.0377
1.03799
1.03833
1.03851
1.03895
1.03984
1.04327
1.04839
1.06547
1.10056
1.18751
1.40719
1.81723
2.00677
1.01391
1.02132
1.02602
1.02925
1.03156
1.03324
1.03452
1.03543
1.03623
1.03676
1.03732
1.03764
1.03805
1.03826
1.03857
1.03875
1.03924
1.0412
1.04396
1.05415
1.07295
1.12128
1.24908
1.5724
1.88667
1.01391
1.02134
1.026
1.02928
1.03152
1.03328
1.03447
1.03548
1.03617
1.03682
1.03725
1.0377
1.03799
1.03831
1.03851
1.03876
1.03901
1.03997
1.0415
1.04717
1.05649
1.08651
1.14501
1.33305
1.63772
1.01394
1.02129
1.02604
1.02923
1.03156
1.03325
1.0345
1.03546
1.03619
1.03681
1.03726
1.03771
1.03798
1.03833
1.03849
1.03877
1.03891
1.03934
1.04014
1.04334
1.04794
1.06414
1.09468
1.17656
1.36879
1.01393
1.02131
1.02603
1.02924
1.03156
1.03324
1.03452
1.03544
1.03622
1.03677
1.03731
1.03765
1.03804
1.03826
1.03856
1.0387
1.03895
1.03909
1.03964
1.0407
1.04407
1.05069
1.06832
1.10924
1.21226
1.01392
1.02132
1.02601
1.02926
1.03154
1.03327
1.03448
1.03548
1.03617
1.03682
1.03726
1.0377
1.038
1.0383
1.03852
1.03873
1.0389
1.03906
1.03925
1.03999
1.04126
1.04563
1.05323
1.0773
1.1226
1.01394
1.0213
1.02604
1.02923
1.03157
1.03323
1.03452
1.03544
1.03621
1.03678
1.03729
1.03768
1.03801
1.0383
1.03852
1.03874
1.03887
1.03907
1.03916
1.03941
1.04032
1.04188
1.04692
1.05624
1.08456
1.01393
1.02131
1.02602
1.02924
1.03155
1.03325
1.03451
1.03545
1.03621
1.03678
1.03729
1.03766
1.03803
1.03827
1.03855
1.0387
1.03892
1.03902
1.03919
1.0393
1.03973
1.04041
1.04314
1.04722
1.06125
1.01392
1.02131
1.02602
1.02924
1.03155
1.03325
1.03449
1.03546
1.03619
1.03681
1.03726
1.0377
1.03799
1.03831
1.03851
1.03874
1.03888
1.03905
1.03915
1.03929
1.03942
1.03991
1.0407
1.04366
1.0484
1.01392
1.02132
1.02602
1.02925
1.03155
1.03325
1.0345
1.03545
1.0362
1.03679
1.03728
1.03767
1.03802
1.03829
1.03852
1.03873
1.03889
1.03905
1.03915
1.03928
1.03935
1.03953
1.03993
1.04131
1.04353
1.01393
1.0213
1.02603
1.02924
1.03156
1.03324
1.0345
1.03545
1.0362
1.0368
1.03728
1.03768
1.03801
1.03829
1.03853
1.03872
1.0389
1.03903
1.03917
1.03925
1.03938
1.03944
1.03964
1.04009
1.04151
1.01392
1.02132
1.02602
1.02925
1.03155
1.03325
1.0345
1.03545
1.0362
1.03679
1.03728
1.03768
1.03801
1.03829
1.03852
1.03873
1.03888
1.03905
1.03915
1.03928
1.03935
1.03945
1.03951
1.03976
1.0402
1.01392
1.02131
1.02602
1.02925
1.03155
1.03326
1.03449
1.03546
1.03619
1.0368
1.03727
1.03768
1.03801
1.0383
1.03852
1.03873
1.03889
1.03904
1.03916
1.03927
1.03936
1.03944
1.03949
1.03957
1.03977
1.01392
1.02131
1.02602
1.02925
1.03155
1.03325
1.0345
1.03546
1.0362
1.0368
1.03728
1.03768
1.03801
1.0383
1.03852
1.03873
1.03889
1.03905
1.03915
1.03927
1.03935
1.03944
1.03949
1.03956
1.03964
1.01392
1.02131
1.02602
1.02925
1.03155
1.03325
1.0345
1.03546
1.03619
1.0368
1.03727
1.03768
1.03801
1.03829
1.03852
1.03873
1.03889
1.03904
1.03916
1.03927
1.03936
1.03944
1.03949
1.03956
1.0396
1.01393
1.02131
1.02603
1.02924
1.03156
1.03325
1.0345
1.03545
1.0362
1.03679
1.03728
1.03767
1.03802
1.03829
1.03853
1.03872
1.0389
1.03904
1.03916
1.03927
1.03936
1.03943
1.0395
1.03955
1.03961
1.01393
1.02131
1.02602
1.02924
1.03155
1.03325
1.0345
1.03546
1.0362
1.0368
1.03728
1.03768
1.03801
1.03829
1.03852
1.03873
1.03889
1.03904
1.03916
1.03927
1.03936
1.03944
1.0395
1.03956
1.0396
1.01393
1.02131
1.02602
1.02924
1.03156
1.03325
1.0345
1.03545
1.0362
1.03679
1.03728
1.03768
1.03801
1.03829
1.03853
1.03872
1.0389
1.03904
1.03916
1.03927
1.03936
1.03943
1.0395
1.03955
1.03961
1.01393
1.02131
1.02602
1.02924
1.03155
1.03325
1.0345
1.03545
1.0362
1.03679
1.03728
1.03768
1.03801
1.03829
1.03853
1.03872
1.0389
1.03904
1.03917
1.03926
1.03936
1.03943
1.0395
1.03955
1.0396
1.00567
1.01335
1.02083
1.02868
1.03499
1.04126
1.04606
1.05098
1.05462
1.05924
1.06537
1.08379
1.11715
1.20126
1.43009
2.07062
2.78519
2.66606
2.76579
2.70051
2.69779
2.7393
2.82991
2.72078
2.4635
1.00568
1.01335
1.02083
1.02868
1.03498
1.04126
1.04606
1.05097
1.05461
1.0591
1.06485
1.0822
1.11308
1.192
1.40433
1.99311
2.76046
2.68507
2.7328
2.68162
2.66723
2.67477
2.74715
2.66888
2.43204
1.00612
1.0129
1.02128
1.02823
1.03543
1.04081
1.04651
1.0505
1.0551
1.05857
1.06573
1.07793
1.1088
1.19082
1.35459
1.84428
2.769
2.7093
2.7034
2.67126
2.63916
2.63328
2.6724
2.63025
2.44928
1.00615
1.01287
1.02131
1.0282
1.03545
1.04078
1.04653
1.05047
1.05509
1.05834
1.06486
1.076
1.10374
1.17797
1.31948
1.78654
2.74437
2.72041
2.67271
2.64959
2.61593
2.57921
2.60123
2.58378
2.48884
1.00627
1.01274
1.02142
1.02807
1.03557
1.04066
1.04664
1.05036
1.05509
1.05809
1.06348
1.07354
1.10073
1.14576
1.32675
1.6682
2.58812
2.70911
2.63452
2.63444
2.60987
2.54752
2.53728
2.53153
2.48676
1.00586
1.01316
1.02101
1.0285
1.03516
1.04108
1.04621
1.05079
1.05465
1.05845
1.06307
1.07432
1.09368
1.14378
1.28234
1.58946
2.4509
2.66807
2.64639
2.60306
2.58804
2.53819
2.50426
2.47664
2.46339
1.00573
1.01329
1.02089
1.02861
1.03505
1.04119
1.04611
1.05087
1.05453
1.0584
1.06243
1.07193
1.08774
1.13022
1.24111
1.48972
2.23344
2.61515
2.64375
2.59783
2.56863
2.51684
2.47873
2.44698
2.42914
1.00565
1.01336
1.02081
1.02869
1.03497
1.04125
1.04604
1.05093
1.05446
1.05836
1.06178
1.06915
1.08206
1.11434
1.20081
1.38106
1.97646
2.50108
2.62002
2.58067
2.55437
2.50829
2.45614
2.41555
2.39521
1.0056
1.01342
1.02076
1.02875
1.03492
1.04133
1.04597
1.051
1.05433
1.05839
1.06119
1.06731
1.07685
1.10358
1.16743
1.29983
1.706
2.48702
2.56905
2.53103
2.52433
2.49855
2.45186
2.39522
2.3609
1.00582
1.0132
1.02098
1.02852
1.03514
1.04109
1.04621
1.05075
1.05462
1.05801
1.06125
1.06533
1.07527
1.09346
1.13853
1.26568
1.54264
2.33764
2.5446
2.52915
2.49104
2.47466
2.44448
2.3908
2.34107
1.00586
1.01318
1.021
1.02853
1.03513
1.04113
1.04616
1.05084
1.0545
1.05811
1.06093
1.06466
1.07147
1.08659
1.11755
1.21648
1.40796
1.9914
2.47027
2.51971
2.46985
2.44855
2.43093
2.38972
2.33793
1.00569
1.01332
1.02088
1.02864
1.03504
1.04122
1.04609
1.0509
1.05445
1.05812
1.06077
1.06406
1.06832
1.08114
1.10314
1.16384
1.30534
1.73968
2.30827
2.48458
2.46567
2.42432
2.3982
2.37827
2.3357
1.0061
1.01291
1.02126
1.02823
1.03541
1.0408
1.04647
1.05047
1.05483
1.05768
1.06106
1.06335
1.06724
1.07506
1.09357
1.13039
1.24815
1.5039
2.11069
2.41787
2.44868
2.41292
2.38585
2.3654
2.33356
1.00586