/*--------------------------------*- C++ -*----------------------------------*\
  =========                 |
  \\      /  F ield         | OpenFOAM: The Open Source CFD Toolbox
   \\    /   O peration     | Website:  https://openfoam.org
    \\  /    A nd           | Version:  6
     \\/     M anipulation  |
\*---------------------------------------------------------------------------*/
FoamFile
{
    version     2.0;
    format      ascii;
    class       volVectorField;
    location    "1";
    object      U;
}
// * * * * * * * * * * * * * * * * * * * * * * * * * * * * * * * * * * * * * //

dimensions      [0 1 -1 0 0 0 0];

internalField   nonuniform List<vector> 
26250
(
(3.0156 6.02233e-08 -0.0579471)
(3.02579 3.83525e-07 -0.0597938)
(3.03425 2.94169e-07 -0.0611064)
(3.04144 8.79844e-07 -0.062292)
(3.04758 1.56885e-07 -0.0631457)
(3.05284 1.02384e-06 -0.0640165)
(3.05738 -7.1648e-07 -0.0645843)
(3.06121 1.12432e-06 -0.0652771)
(3.06435 -1.63654e-06 -0.0656428)
(3.06574 5.77361e-06 -0.0663941)
(3.06327 1.51249e-05 -0.066944)
(3.0593 4.47514e-05 -0.0687267)
(3.03578 8.7737e-05 -0.0716518)
(2.98967 0.000264032 -0.0813351)
(2.82433 0.000627315 -0.0993488)
(2.3297 0.00176178 -0.154221)
(1.14839 0.00510245 -0.259698)
(0.433713 0.00966898 -0.279874)
(0.616026 0.0126568 -0.263495)
(0.816965 0.0143541 -0.262504)
(0.887386 0.0141774 -0.26709)
(0.863608 0.0137047 -0.269328)
(0.766705 0.0123425 -0.274872)
(0.529121 0.00994284 -0.273295)
(0.309195 0.00876214 -0.262706)
(3.0156 8.4036e-07 -0.0579474)
(3.02579 1.56638e-06 -0.0597935)
(3.03425 1.2085e-06 -0.0611067)
(3.04144 2.79052e-06 -0.0622916)
(3.04758 -1.24542e-07 -0.0631459)
(3.05284 3.10137e-06 -0.0640162)
(3.05738 -3.36815e-06 -0.0645844)
(3.06121 3.9825e-06 -0.0652771)
(3.06436 -5.70539e-06 -0.0656423)
(3.06575 2.12247e-05 -0.0663937)
(3.0633 5.51358e-05 -0.066942)
(3.05936 0.000160361 -0.0687209)
(3.03595 0.000308032 -0.0716366)
(2.99014 0.000850334 -0.0812941)
(2.82546 0.00193966 -0.0992697)
(2.33388 0.00503124 -0.153988)
(1.16044 0.0151321 -0.259532)
(0.439755 0.0299138 -0.279131)
(0.621163 0.0394014 -0.262637)
(0.819709 0.0449674 -0.26131)
(0.88831 0.0460387 -0.266309)
(0.863776 0.0459562 -0.268507)
(0.765622 0.0434281 -0.274157)
(0.52878 0.0382165 -0.272645)
(0.309684 0.035448 -0.263133)
(3.0156 6.28066e-06 -0.057948)
(3.02579 9.90422e-07 -0.0597927)
(3.03425 2.05035e-06 -0.0611074)
(3.04143 9.054e-07 -0.0622909)
(3.04758 -3.98983e-06 -0.0631465)
(3.05283 2.7608e-06 -0.0640157)
(3.05738 -1.14232e-05 -0.0645846)
(3.06121 9.50197e-06 -0.065277)
(3.06437 -1.45787e-05 -0.0656409)
(3.06579 5.32614e-05 -0.0663926)
(3.06338 0.000137299 -0.066936)
(3.05951 0.000478699 -0.0687032)
(3.03633 0.00090409 -0.0715982)
(2.99106 0.00211298 -0.0811728)
(2.82746 0.00420204 -0.0990231)
(2.34013 0.00974107 -0.153372)
(1.17534 0.0269489 -0.258469)
(0.448664 0.0534532 -0.278372)
(0.628037 0.069778 -0.261611)
(0.822656 0.0789457 -0.259654)
(0.888352 0.0834699 -0.264891)
(0.861904 0.0858518 -0.267111)
(0.761104 0.0845656 -0.272691)
(0.524571 0.0795667 -0.270549)
(0.3046 0.0753298 -0.262251)
(3.0156 2.77295e-05 -0.0579514)
(3.02578 -8.60204e-06 -0.0597888)
(3.03425 9.09978e-06 -0.061111)
(3.04143 -1.08168e-05 -0.0622868)
(3.04758 -5.8755e-06 -0.0631502)
(3.05283 -3.86765e-06 -0.064012)
(3.05739 -2.23308e-05 -0.0645875)
(3.0612 1.91429e-05 -0.0652746)
(3.06439 -3.86256e-05 -0.0656399)
(3.06587 0.000132428 -0.0663862)
(3.06365 0.000121691 -0.0669294)
(3.06 0.00246148 -0.0686912)
(3.03726 -0.00225674 -0.0714355)
(2.9931 0.0123031 -0.0809758)
(2.8307 -0.00874172 -0.0983288)
(2.35968 0.0399545 -0.152068)
(1.20583 0.0435599 -0.256723)
(0.475786 0.0886897 -0.277284)
(0.647985 0.110646 -0.25996)
(0.834103 0.122632 -0.257139)
(0.895825 0.129978 -0.262463)
(0.866026 0.13494 -0.264784)
(0.761475 0.135843 -0.270031)
(0.524021 0.13227 -0.267169)
(0.301691 0.125191 -0.260493)
(3.0156 6.02141e-06 -0.0579969)
(3.02577 6.99966e-07 -0.0597366)
(3.03425 1.21496e-06 -0.0611633)
(3.04142 1.51182e-06 -0.0622295)
(3.04758 -5.58371e-06 -0.0632076)
(3.05282 5.02343e-06 -0.0639513)
(3.0574 -1.41109e-05 -0.0646462)
(3.06119 1.54262e-05 -0.0652158)
(3.06446 -1.7383e-05 -0.0656899)
(3.06592 7.75274e-05 -0.066326)
(3.0653 0.000193779 -0.0669374)
(3.05754 0.000638699 -0.0687557)
(3.04385 0.0012183 -0.0706824)
(2.98569 0.00317115 -0.0814276)
(2.83935 0.00731129 -0.0958284)
(2.40574 0.0177184 -0.158727)
(1.25708 0.0545462 -0.24819)
(0.523123 0.108416 -0.274191)
(0.679728 0.14006 -0.25633)
(0.854016 0.155183 -0.252583)
(0.909482 0.168338 -0.257978)
(0.876102 0.179465 -0.2606)
(0.767811 0.187218 -0.265861)
(0.527829 0.190245 -0.262346)
(0.301722 0.183806 -0.256778)
(3.0156 -1.97928e-06 -0.0579564)
(3.02578 1.07376e-06 -0.0597826)
(3.03425 -1.35642e-06 -0.0611167)
(3.04143 4.71984e-06 -0.0622809)
(3.04758 -2.86314e-06 -0.0631557)
(3.05282 8.91315e-06 -0.0640069)
(3.05739 -7.73138e-06 -0.0645919)
(3.0612 1.85591e-05 -0.0652703)
(3.06444 -1.26812e-05 -0.0656393)
(3.06605 8.70197e-05 -0.066369)
(3.06411 0.000215231 -0.0669066)
(3.06084 0.000378995 -0.0686129)
(3.0393 0.00106084 -0.0711336)
(2.99822 0.00218331 -0.0802843)
(2.84142 0.00713149 -0.096477)
(2.40494 0.020357 -0.147722)
(1.30265 0.0646613 -0.248345)
(0.55961 0.133809 -0.275398)
(0.70791 0.172852 -0.255357)
(0.869665 0.191529 -0.249244)
(0.924375 0.209736 -0.254516)
(0.889512 0.226972 -0.257114)
(0.779116 0.242997 -0.262012)
(0.534291 0.256676 -0.257444)
(0.302412 0.255104 -0.251907)
(3.0156 -3.71078e-06 -0.0579946)
(3.02577 5.37553e-07 -0.0597366)
(3.03425 -1.90008e-06 -0.0611625)
(3.04142 3.67782e-06 -0.0622319)
(3.04759 -1.53652e-07 -0.0632041)
(3.05282 7.05468e-06 -0.0639565)
(3.05741 -1.19282e-06 -0.0646418)
(3.06119 1.22909e-05 -0.06522)
(3.06452 -3.20218e-06 -0.0656816)
(3.06611 5.15167e-05 -0.0663195)
(3.06554 0.000121396 -0.0669174)
(3.05824 0.000321208 -0.0686159)
(3.04533 0.0006634 -0.0704683)
(2.99079 0.0028352 -0.0805892)
(2.8544 0.00836021 -0.0938774)
(2.45481 0.0234349 -0.151783)
(1.37722 0.0778221 -0.237355)
(0.625552 0.16196 -0.272187)
(0.750309 0.208898 -0.252152)
(0.896401 0.230707 -0.244976)
(0.946215 0.254605 -0.2501)
(0.910164 0.278514 -0.252651)
(0.799908 0.303974 -0.257112)
(0.549578 0.332025 -0.251972)
(0.308543 0.344855 -0.245855)
(3.0156 -2.0518e-05 -0.0579582)
(3.02578 9.9727e-06 -0.0597809)
(3.03425 -7.9409e-06 -0.0611188)
(3.04143 1.33575e-05 -0.0622788)
(3.04759 -2.64681e-07 -0.0631578)
(3.05282 1.1711e-05 -0.0640046)
(3.0574 5.54433e-06 -0.0645936)
(3.0612 2.4533e-06 -0.0652681)
(3.06448 1.82329e-05 -0.0656383)
(3.06615 -2.3315e-05 -0.0663575)
(3.06434 0.000146389 -0.0668683)
(3.06129 -0.00133588 -0.0684452)
(3.0414 0.00414866 -0.0709404)
(3.00449 -0.0050926 -0.0792247)
(2.85901 0.0242524 -0.0945207)
(2.45426 0.0025556 -0.142113)
(1.44625 0.087058 -0.23882)
(0.675191 0.184011 -0.272163)
(0.785221 0.240989 -0.250637)
(0.91738 0.266776 -0.240939)
(0.968492 0.298876 -0.2457)
(0.93368 0.33172 -0.247858)
(0.827779 0.369385 -0.251602)
(0.576571 0.416503 -0.245572)
(0.326638 0.462313 -0.237906)
(3.0156 2.12559e-06 -0.0579594)
(3.02578 3.09449e-07 -0.05978)
(3.03425 -7.66341e-07 -0.0611197)
(3.04143 1.33788e-06 -0.0622775)
(3.04759 -4.08762e-06 -0.0631589)
(3.05282 4.70028e-06 -0.0640029)
(3.0574 -9.6058e-06 -0.064595)
(3.0612 1.45094e-05 -0.0652663)
(3.0645 -1.30113e-05 -0.0656379)
(3.06621 8.31661e-05 -0.0663509)
(3.06446 0.000207714 -0.066844)
(3.06156 0.00071361 -0.0683386)
(3.04263 0.00145246 -0.0708615)
(3.00776 0.00477848 -0.0785785)
(2.86967 0.0113113 -0.0934536)
(2.48337 0.0329447 -0.138218)
(1.54323 0.0936226 -0.233649)
(0.753476 0.215943 -0.269891)
(0.832128 0.281287 -0.248344)
(0.946221 0.31097 -0.236786)
(0.996432 0.348253 -0.240997)
(0.963712 0.389191 -0.242574)
(0.86706 0.441386 -0.244585)
(0.626956 0.516981 -0.238014)
(0.368261 0.625883 -0.227678)
(3.0156 2.11829e-05 -0.057965)
(3.02578 -7.42886e-06 -0.0597731)
(3.03425 4.58065e-06 -0.0611258)
(3.04142 -9.42028e-06 -0.0622703)
(3.04759 -8.50897e-06 -0.0631661)
(3.05282 -2.91233e-06 -0.0639949)
(3.05741 -2.06157e-05 -0.0646033)
(3.0612 1.50134e-05 -0.0652569)
(3.06453 -2.4969e-05 -0.0656452)
(3.06633 8.98008e-05 -0.0663381)
(3.06486 0.000206554 -0.0668179)
(3.06232 0.0019625 -0.0682625)
(3.04468 -0.000958769 -0.0704285)
(3.01284 0.013204 -0.0781335)
(2.8816 -0.00134682 -0.0911979)
(2.52409 0.0659705 -0.135089)
(1.62577 0.0988035 -0.228386)
(0.848986 0.248919 -0.266718)
(0.886532 0.32617 -0.245726)
(0.982057 0.361049 -0.232641)
(1.03276 0.399162 -0.236166)
(1.00603 0.451376 -0.236679)
(0.928602 0.521392 -0.236716)
(0.726928 0.642123 -0.227555)
(0.46278 0.887405 -0.211659)
(2.98855 -3.11354e-07 -0.00143012)
(2.98291 3.11286e-07 -0.00328645)
(2.97952 1.15361e-07 -0.00493586)
(2.97739 8.05693e-07 -0.00643189)
(2.97597 4.28331e-07 -0.00770706)
(2.97507 8.58096e-07 -0.008854)
(2.97442 3.60117e-07 -0.00980385)
(2.97403 4.65267e-07 -0.0106977)
(2.97337 4.8374e-07 -0.0113836)
(2.97157 2.10116e-06 -0.0120982)
(2.96574 1.05148e-05 -0.0125651)
(2.9547 3.13919e-05 -0.0133776)
(2.91747 8.44965e-05 -0.0149241)
(2.83432 0.000221253 -0.0182383)
(2.59223 0.000535489 -0.0257007)
(1.79397 0.00150663 -0.0433166)
(0.198927 0.00377984 -0.0687743)
(-0.695475 0.0129649 -0.0618239)
(-0.0408228 0.0221503 -0.06016)
(0.372971 0.031052 -0.0618822)
(0.443008 0.0365574 -0.0647597)
(0.394741 0.0387412 -0.0651569)
(0.234172 0.0414926 -0.0668106)
(0.0495346 0.0488968 -0.0656664)
(0.167659 0.0315823 -0.0582057)
(2.98855 5.41974e-08 -0.00143008)
(2.98291 1.18981e-06 -0.00328648)
(2.97953 8.17715e-07 -0.00493583)
(2.97739 2.46517e-06 -0.00643201)
(2.97597 9.73888e-07 -0.00770696)
(2.97507 2.64844e-06 -0.00885422)
(2.97442 4.13037e-07 -0.00980352)
(2.97403 1.9109e-06 -0.0106982)
(2.97337 2.29371e-06 -0.011383)
(2.97158 1.06573e-05 -0.0120998)
(2.96576 4.45269e-05 -0.0125681)
(2.95476 0.000136676 -0.0133722)
(2.91762 0.000316701 -0.0149436)
(2.83471 0.000924864 -0.0182094)
(2.59309 0.0021277 -0.0257635)
(1.79657 0.00634775 -0.0433636)
(0.204274 0.0178724 -0.06914)
(-0.689268 0.0421481 -0.0616414)
(-0.0296682 0.0658427 -0.059848)
(0.377728 0.087237 -0.0613265)
(0.431051 0.0981249 -0.0641701)
(0.380606 0.100685 -0.0648264)
(0.215222 0.10496 -0.066181)
(0.0255328 0.119472 -0.0648166)
(0.165805 0.0894166 -0.0576223)
(2.98855 2.52473e-06 -0.00143023)
(2.98291 2.00947e-06 -0.00328656)
(2.97953 1.773e-06 -0.00493576)
(2.97739 2.78998e-06 -0.00643217)
(2.97597 -5.13047e-07 -0.00770656)
(2.97506 3.10839e-06 -0.00885469)
(2.97442 -3.02439e-06 -0.00980266)
(2.97403 4.0406e-06 -0.0106992)
(2.97338 1.30064e-06 -0.0113816)
(2.97161 3.09734e-05 -0.0121016)
(2.96584 9.40109e-05 -0.0125659)
(2.95493 0.000297634 -0.0133804)
(2.9181 0.000628881 -0.0149163)
(2.83588 0.00193516 -0.0182335)
(2.59632 0.00430237 -0.0256832)
(1.80743 0.0131183 -0.043223)
(0.222721 0.0371303 -0.068925)
(-0.668505 0.0755047 -0.0615025)
(-0.0148909 0.113359 -0.0593763)
(0.383859 0.148561 -0.0605256)
(0.424705 0.17175 -0.0635897)
(0.369657 0.179207 -0.0641354)
(0.204893 0.187302 -0.0649138)
(0.0154173 0.205263 -0.0633316)
(0.157817 0.159866 -0.0564624)
(2.98855 9.85757e-06 -0.00143126)
(2.98291 2.05156e-06 -0.00328545)
(2.97953 6.00001e-06 -0.004936)
(2.97739 1.45992e-06 -0.00643184)
(2.97597 2.78132e-07 -0.00770613)
(2.97506 2.09939e-06 -0.00885551)
(2.97442 -5.17994e-06 -0.00980109)
(2.97403 5.81116e-06 -0.0107018)
(2.97339 4.05369e-07 -0.0113785)
(2.97166 4.09241e-05 -0.0121083)
(2.96598 0.000316215 -0.012572)
(2.95519 0.000444428 -0.0133941)
(2.91892 0.00216392 -0.0149477)
(2.83779 0.0029016 -0.0181966)
(2.60162 0.00917389 -0.0256608)
(1.82461 0.0229849 -0.0429548)
(0.252675 0.0545662 -0.0688741)
(-0.634063 0.108535 -0.061502)
(0.00542007 0.160072 -0.058884)
(0.394714 0.20777 -0.0594795)
(0.427072 0.24517 -0.0628922)
(0.365302 0.260376 -0.0630793)
(0.205297 0.274155 -0.0632764)
(0.0170694 0.293457 -0.0614554)
(0.147844 0.235318 -0.0547696)
(2.98855 1.61617e-06 -0.00143576)
(2.98291 2.05008e-06 -0.00327955)
(2.97952 5.4079e-07 -0.00493913)
(2.97738 3.03746e-06 -0.00642869)
(2.97597 -2.4732e-06 -0.00770759)
(2.97506 4.42867e-06 -0.00885519)
(2.97442 -6.11494e-06 -0.00979963)
(2.97403 9.25132e-06 -0.0107059)
(2.97341 -4.00806e-06 -0.0113722)
(2.97187 6.17416e-05 -0.0121245)
(2.96618 0.000160755 -0.012555)
(2.95634 0.000557125 -0.0136488)
(2.92039 0.00121167 -0.0142738)
(2.84122 0.00390052 -0.0196255)
(2.61108 0.00919397 -0.022824)
(1.85106 0.0288214 -0.0457165)
(0.270154 0.0867299 -0.0673777)
(-0.609925 0.147054 -0.0618027)
(0.0271293 0.208016 -0.058531)
(0.408251 0.264579 -0.0583946)
(0.434749 0.313674 -0.0620547)
(0.366256 0.338523 -0.061891)
(0.214405 0.360102 -0.0615704)
(0.0293878 0.381757 -0.0592846)
(0.137609 0.31755 -0.0526756)
(2.98855 -2.22458e-06 -0.00143283)
(2.98291 7.36904e-07 -0.00328397)
(2.97953 -2.18552e-06 -0.00493653)
(2.97738 2.57808e-06 -0.00643139)
(2.97597 -2.89815e-06 -0.00770539)
(2.97506 5.25555e-06 -0.00885686)
(2.97443 -4.70703e-06 -0.00979822)
(2.97403 1.12985e-05 -0.0107063)
(2.97344 -3.4274e-06 -0.0113721)
(2.97179 6.53598e-05 -0.0121193)
(2.96639 0.000143243 -0.0125703)
(2.95606 0.000645673 -0.0133891)
(2.9216 0.00134256 -0.0149027)
(2.84465 0.004598 -0.018)
(2.62118 0.0111992 -0.0252132)
(1.89531 0.0358603 -0.0411761)
(0.362332 0.109158 -0.0673375)
(-0.542135 0.185236 -0.0620322)
(0.0536043 0.25597 -0.0581045)
(0.425375 0.320147 -0.057043)
(0.444727 0.37975 -0.0607671)
(0.369947 0.416179 -0.0605938)
(0.229364 0.448698 -0.059827)
(0.0488596 0.475438 -0.0570318)
(0.129091 0.412827 -0.0502197)
(2.98855 -3.65525e-06 -0.00143622)
(2.98291 -1.61139e-07 -0.00327929)
(2.97953 -3.23456e-06 -0.00493942)
(2.97738 1.54023e-06 -0.00642877)
(2.97597 -2.12749e-06 -0.00770696)
(2.97506 4.46872e-06 -0.00885634)
(2.97443 -2.0667e-06 -0.00979721)
(2.97403 9.63135e-06 -0.01071)
(2.97345 1.18003e-06 -0.0113653)
(2.97199 5.19674e-05 -0.0121357)
(2.96666 0.000195192 -0.0125492)
(2.95736 0.000718777 -0.0135892)
(2.92359 0.00163265 -0.0141803)
(2.84992 0.00547214 -0.0192077)
(2.63595 0.0132095 -0.0220915)
(1.94106 0.0424433 -0.0431633)
(0.419191 0.125332 -0.0644183)
(-0.482306 0.2267 -0.0629973)
(0.0837194 0.306439 -0.0578708)
(0.443645 0.375926 -0.0557501)
(0.457744 0.445378 -0.0591847)
(0.380044 0.494694 -0.0590884)
(0.252693 0.540842 -0.0579688)
(0.0771517 0.577435 -0.0544735)
(0.125262 0.527575 -0.047258)
(2.98855 -1.0784e-05 -0.00143295)
(2.98291 8.1371e-07 -0.00328395)
(2.97953 -7.69806e-06 -0.0049369)
(2.97738 3.99636e-06 -0.00643145)
(2.97597 -4.45958e-06 -0.00770533)
(2.97506 6.77517e-06 -0.00885732)
(2.97443 -3.11415e-06 -0.00979705)
(2.97403 1.04539e-05 -0.0107082)
(2.97347 -6.10227e-07 -0.0113676)
(2.97196 5.82293e-05 -0.0121239)
(2.96694 6.83387e-05 -0.0125509)
(2.95728 0.000809983 -0.0133154)
(2.92549 0.00067665 -0.0147325)
(2.85492 0.00639485 -0.0176068)
(2.65047 0.0125121 -0.0243675)
(1.99799 0.0462569 -0.0380868)
(0.542967 0.141385 -0.0647805)
(-0.392049 0.268495 -0.0632303)
(0.115886 0.357242 -0.0573035)
(0.464366 0.430923 -0.054079)
(0.475898 0.510665 -0.057373)
(0.399088 0.574041 -0.0572741)
(0.286409 0.637309 -0.0559215)
(0.118613 0.690482 -0.0518498)
(0.131623 0.669635 -0.0439414)
(2.98855 -5.14182e-06 -0.00143292)
(2.98291 2.58597e-06 -0.00328407)
(2.97953 -5.14043e-06 -0.00493716)
(2.97739 5.78048e-06 -0.00643141)
(2.97597 -8.03044e-06 -0.00770557)
(2.97506 1.02663e-05 -0.00885727)
(2.97443 -1.37021e-05 -0.00979682)
(2.97403 1.83179e-05 -0.0107089)
(2.97349 -1.62821e-05 -0.0113653)
(2.97205 5.40858e-05 -0.0121265)
(2.96728 0.000246056 -0.0125398)
(2.95799 0.000914454 -0.0132658)
(2.92787 0.00256265 -0.0146423)
(2.86105 0.00660485 -0.0173635)
(2.66786 0.0181865 -0.0239108)
(2.05726 0.0506 -0.036319)
(0.664909 0.146635 -0.0642054)
(-0.279793 0.305957 -0.0632038)
(0.158379 0.408054 -0.0566225)
(0.489507 0.485762 -0.0525089)
(0.501076 0.57492 -0.0556101)
(0.429577 0.653454 -0.055264)
(0.335079 0.737115 -0.0534094)
(0.182983 0.817806 -0.048654)
(0.155509 0.85303 -0.0399505)
(2.98855 3.58724e-06 -0.00143438)
(2.98291 3.92434e-06 -0.00328203)
(2.97953 -2.9493e-06 -0.00493865)
(2.97738 7.46428e-06 -0.00642934)
(2.97598 -1.57917e-05 -0.00770743)
(2.97505 1.86167e-05 -0.00885531)
(2.97444 -3.80978e-05 -0.00979854)
(2.97403 4.73955e-05 -0.0107079)
(2.9735 -0.000101818 -0.0113645)
(2.97217 3.9953e-05 -0.0121301)
(2.96766 -0.000153637 -0.0125234)
(2.95923 0.00186131 -0.0132607)
(2.93017 -9.81889e-05 -0.0145529)
(2.86864 0.0143488 -0.0172648)
(2.6844 0.00719009 -0.0235293)
(2.11374 0.0650748 -0.0346583)
(0.783704 0.143716 -0.063314)
(-0.157204 0.341633 -0.0632264)
(0.212245 0.459222 -0.0555362)
(0.518698 0.541008 -0.0508697)
(0.534341 0.635323 -0.0538744)
(0.473872 0.729508 -0.0532147)
(0.404504 0.837226 -0.050928)
(0.286717 0.963824 -0.0456495)
(0.211942 1.13883 -0.0360866)
(2.9951 2.3593e-07 7.76403e-07)
(2.98905 4.7886e-07 -1.45118e-07)
(2.98253 5.09819e-07 3.83788e-07)
(2.97636 5.65009e-07 7.12083e-08)
(2.97076 2.91333e-07 -8.15003e-08)
(2.96585 2.55205e-07 2.37626e-07)
(2.96145 8.52911e-08 -4.50175e-07)
(2.95767 -5.32665e-07 3.27777e-07)
(2.95407 1.2677e-07 -1.48323e-07)
(2.95002 -2.09138e-06 9.06872e-07)
(2.94193 -9.11935e-06 4.60628e-06)
(2.92768 4.59845e-05 7.12925e-06)
(2.88398 -1.55116e-05 1.42715e-05)
(2.78701 0.00032168 6.89047e-06)
(2.513 0.000231345 -3.40163e-05)
(1.59072 0.000842818 -0.000164729)
(-0.178021 0.000282657 -0.000481204)
(-1.29337 0.0150959 0.000175934)
(-0.230042 0.0304674 0.000242651)
(0.225584 0.0497247 0.000109292)
(0.299452 0.0633246 -7.8317e-05)
(-0.0541881 0.0752265 2.0737e-05)
(-0.127026 0.0782388 0.000144563)
(-0.0889934 0.0758086 0.000109392)
(0.0959003 0.061531 0.000122883)
(2.9951 2.06331e-07 2.48872e-06)
(2.98905 5.97655e-07 -1.96946e-06)
(2.98253 6.05487e-07 1.55465e-06)
(2.97636 1.14288e-06 -1.45956e-06)
(2.97076 5.04592e-07 8.00499e-07)
(2.96585 8.43445e-07 -7.2153e-07)
(2.96145 -5.81465e-08 2.38174e-08)
(2.95767 -5.78601e-08 3.75619e-09)
(2.95407 8.39302e-07 2.45543e-07)
(2.95001 4.73012e-06 -6.03259e-07)
(2.94196 2.95388e-05 4.50903e-05)
(2.92768 0.000105895 -2.67241e-05)
(2.88415 0.000277511 0.000238451)
(2.78722 0.000784271 -0.000165631)
(2.51366 0.00184681 0.000319486)
(1.58735 0.00540402 -0.000128952)
(-0.179115 0.015493 -0.00124082)
(-1.2977 0.0503732 0.000253697)
(-0.21307 0.0863992 0.000285282)
(0.241159 0.121804 0.000119377)
(0.289032 0.130037 -4.23146e-05)
(-0.0928595 0.144554 4.04478e-05)
(-0.13963 0.159193 0.000157159)
(-0.107232 0.163597 0.000107503)
(0.0848146 0.145586 6.10346e-05)
(2.9951 3.5283e-07 1.46847e-06)
(2.98905 8.02578e-07 -8.48174e-07)
(2.98253 7.17051e-07 7.91487e-07)
(2.97636 1.28512e-06 -6.86251e-07)
(2.97076 1.38839e-07 2.12069e-07)
(2.96584 8.30898e-07 -3.25315e-07)
(2.96145 -9.59317e-07 -2.76009e-07)
(2.95767 4.01487e-07 1.46964e-07)
(2.95408 7.97123e-07 -1.0722e-07)
(2.95004 1.15618e-05 1.36282e-06)
(2.94201 6.05021e-05 4.49511e-06)
(2.92789 0.00022417 7.76824e-06)
(2.88453 0.000559479 8.76548e-06)
(2.78837 0.00168136 3.22711e-06)
(2.51645 0.00403603 -7.64682e-05)
(1.60142 0.0124004 -0.000243729)
(-0.154338 0.03726 -0.000741657)
(-1.27085 0.0883471 0.000274687)
(-0.18951 0.144296 0.000323709)
(0.253115 0.198701 0.000145364)
(0.284498 0.209833 1.25499e-05)
(-0.105779 0.236726 6.56985e-05)
(-0.13153 0.256585 0.000154869)
(-0.115025 0.266683 9.32311e-05)
(0.0779504 0.242986 6.0747e-05)
(2.9951 3.53479e-07 2.70525e-06)
(2.98905 1.34352e-06 -2.40638e-06)
(2.98253 6.40628e-07 2.12678e-06)
(2.97636 1.2791e-06 -2.41524e-06)
(2.97076 -8.15831e-07 1.89354e-06)
(2.96584 5.19613e-07 -2.31157e-06)
(2.96145 -2.11851e-06 1.59847e-06)
(2.95767 5.4677e-07 -1.72554e-06)
(2.95408 7.07128e-07 5.74805e-07)
(2.95006 1.46998e-05 -1.55689e-06)
(2.94214 6.53953e-05 3.47063e-05)
(2.9281 0.000410145 -3.11567e-05)
(2.88534 0.000718737 0.000211137)
(2.79028 0.00304716 -0.000205633)
(2.52193 0.00631329 0.000267698)
(1.61686 0.0204651 -0.000252215)
(-0.126295 0.0593456 -0.00134112)
(-1.2317 0.124987 0.000329465)
(-0.162356 0.198425 0.000337048)
(0.264772 0.27103 0.000154678)
(0.291829 0.295262 5.8454e-05)
(-0.0990087 0.334356 8.28418e-05)
(-0.113608 0.353705 0.000142323)
(-0.115239 0.368948 9.55178e-05)
(0.0726698 0.340395 7.94094e-05)
(2.9951 -1.58544e-06 1.54893e-06)
(2.98905 8.3573e-07 -1.49616e-06)
(2.98253 -1.64093e-06 1.50073e-06)
(2.97636 1.28579e-06 -2.0444e-06)
(2.97076 -2.14326e-06 2.02529e-06)
(2.96584 1.59987e-06 -2.8169e-06)
(2.96145 -2.34216e-06 2.79637e-06)
(2.95767 2.905e-06 -3.2304e-06)
(2.95409 3.50994e-06 1.39186e-06)
(2.95009 2.63391e-05 -5.19407e-07)
(2.94234 0.000127767 -1.32856e-05)
(2.92845 0.000523099 7.92275e-07)
(2.88659 0.0012384 -3.46868e-05)
(2.79335 0.00404997 -3.4823e-05)
(2.5307 0.00978604 -0.000104941)
(1.64439 0.0315104 -0.000258986)
(-0.0842996 0.0955482 -0.000731289)
(-1.17699 0.164998 0.000246916)
(-0.132405 0.251657 0.000257275)
(0.279327 0.33915 0.000133469)
(0.296879 0.383494 6.48753e-05)
(-0.0658024 0.429244 7.89719e-05)
(-0.0897708 0.448559 0.000135131)
(-0.108133 0.470139 9.89318e-05)
(0.0685069 0.438798 8.41804e-05)
(2.9951 -3.76834e-06 1.94777e-06)
(2.98905 2.89542e-07 -2.08979e-06)
(2.98253 -3.83732e-06 1.89374e-06)
(2.97636 1.2745e-06 -2.30997e-06)
(2.97076 -2.74916e-06 2.21643e-06)
(2.96584 2.61273e-06 -2.54537e-06)
(2.96145 -1.03058e-06 2.38237e-06)
(2.95767 4.25054e-06 -2.41076e-06)
(2.9541 7.76764e-06 1.69872e-06)
(2.95016 3.17192e-05 -2.58891e-06)
(2.94256 0.000163766 2.56618e-05)
(2.92904 0.00064659 -2.96476e-05)
(2.88822 0.00163753 0.000190971)
(2.79789 0.0051578 -0.00019834)
(2.54359 0.0130008 0.00032727)
(1.69765 0.0417769 -8.55516e-05)
(-0.0147498 0.128624 -0.000911156)
(-1.09557 0.206759 0.000195495)
(-0.0993532 0.305515 0.000158208)
(0.298715 0.404512 8.20314e-05)
(0.298858 0.471047 4.64952e-05)
(-0.0154099 0.522837 6.61802e-05)
(-0.0598871 0.547158 0.000129647)
(-0.0943242 0.575953 0.000100239)
(0.065949 0.546291 8.5486e-05)
(2.9951 -4.46836e-06 -1.05608e-06)
(2.98905 -8.39638e-08 1.10181e-06)
(2.98253 -4.55565e-06 -4.35215e-07)
(2.97636 7.44551e-07 6.15213e-07)
(2.97076 -2.7928e-06 1.20131e-07)
(2.96584 2.27346e-06 -1.50724e-07)
(2.96145 -1.35822e-07 6.22988e-07)
(2.95768 4.15944e-06 -8.0722e-07)
(2.95411 1.00473e-05 1.90312e-07)
(2.95022 3.67304e-05 4.36814e-08)
(2.94285 0.000194284 -3.0614e-05)
(2.92969 0.000781553 1.92642e-05)
(2.89032 0.00195434 -0.00020677)
(2.80346 0.00616341 0.000169237)
(2.55955 0.015319 -0.00036873)
(1.75777 0.0484959 2.26018e-05)
(0.0687585 0.146215 0.000537548)
(-1.00627 0.252474 -1.82215e-05)
(-0.0636114 0.362167 3.23784e-06)
(0.32154 0.468691 1.08916e-05)
(0.304809 0.55387 3.94836e-05)
(0.0408812 0.616666 6.51431e-05)
(-0.0216475 0.65184 0.000127738)
(-0.0723122 0.690512 0.000104318)
(0.0677307 0.668916 8.98768e-05)
(2.9951 -4.97388e-06 -3.55869e-07)
(2.98905 7.31796e-07 2.65293e-07)
(2.98254 -4.86133e-06 4.23631e-08)
(2.97636 2.15484e-06 1.2287e-07)
(2.97076 -3.63613e-06 3.48324e-07)
(2.96585 3.50147e-06 -1.78776e-07)
(2.96145 -1.62266e-06 4.878e-07)
(2.95768 4.61889e-06 -3.89998e-07)
(2.95413 1.01029e-05 1.6411e-07)
(2.95032 4.16038e-05 -4.67431e-07)
(2.94318 0.000225802 -1.85813e-06)
(2.93052 0.000901485 -4.21048e-06)
(2.89266 0.00223878 -4.13059e-06)
(2.80973 0.00697174 -1.21269e-05)
(2.57687 0.0170379 1.08497e-05)
(1.82081 0.053031 3.71744e-05)
(0.167765 0.157503 0.000169534)
(-0.907544 0.300428 -5.81091e-07)
(-0.023958 0.420774 -4.21906e-05)
(0.346587 0.531997 -2.90374e-06)
(0.317924 0.6321 4.41328e-05)
(0.0971211 0.711101 6.52729e-05)
(0.0297413 0.761322 0.000133314)
(-0.0378797 0.816253 0.000114545)
(0.0758998 0.815604 9.61751e-05)
(2.9951 -4.75338e-06 -4.19228e-08)
(2.98905 2.87e-06 -3.78927e-08)
(2.98254 -5.88824e-06 2.73496e-08)
(2.97636 6.39303e-06 -2.27075e-08)
(2.97076 -9.00897e-06 1.2889e-07)
(2.96585 1.01556e-05 -2.29725e-08)
(2.96145 -1.25722e-05 1.73512e-07)
(2.95769 1.39178e-05 -4.26165e-08)
(2.95415 -7.70973e-07 8.20663e-08)
(2.9504 5.08722e-05 -1.14444e-07)
(2.94357 0.000289137 -5.34286e-07)
(2.93139 0.00103438 -1.03354e-06)
(2.89532 0.00267696 -3.20015e-06)
(2.81647 0.00763785 -1.62744e-06)
(2.59562 0.0188948 -2.87453e-06)
(1.88486 0.056454 1.08846e-05)
(0.28478 0.167307 3.29815e-05)
(-0.786739 0.345958 1.47974e-05)
(0.0200272 0.479472 -1.62086e-05)
(0.373266 0.594032 1.31438e-06)
(0.339775 0.706143 3.65275e-05)
(0.156922 0.803713 5.32508e-05)
(0.0949548 0.876047 0.000117622)
(0.0231738 0.954129 0.000122799)
(0.0941493 0.997473 9.77765e-05)
(2.9951 2.59743e-06 1.66788e-08)
(2.98905 1.57536e-06 6.5716e-08)
(2.98254 -4.46407e-06 -4.66946e-08)
(2.97636 8.08144e-06 1.02649e-07)
(2.97076 -1.76422e-05 -1.34415e-07)
(2.96584 2.26784e-05 1.62694e-07)
(2.96145 -4.10695e-05 -1.64918e-07)
(2.95769 5.71435e-05 1.60738e-07)
(2.95416 -7.62313e-05 -8.67984e-08)
(2.95056 0.000206747 -1.2483e-07)
(2.94401 0.000256046 -9.21284e-08)
(2.93254 0.00226362 -8.20936e-07)
(2.89803 0.000160557 3.45528e-07)
(2.82403 0.0152694 -5.6388e-06)
(2.61458 0.00820908 2.84379e-06)
(1.95381 0.0695633 -1.16713e-05)
(0.422555 0.167519 1.1925e-05)
(-0.634988 0.386737 2.17812e-05)
(0.0679608 0.53692 1.64757e-05)
(0.401388 0.654104 2.44826e-05)
(0.370804 0.774557 3.29747e-05)
(0.224 0.890766 4.61029e-05)
(0.178431 0.992055 8.31279e-05)
(0.123125 1.10861 0.000121839)
(0.136023 1.27754 8.962e-05)
(2.98855 8.69815e-06 0.0014316)
(2.98291 -4.71052e-08 0.0032856)
(2.97953 5.62301e-06 0.00493639)
(2.97739 -1.55545e-06 0.00643169)
(2.97597 2.56051e-06 0.00770655)
(2.97506 -2.01832e-06 0.0088548)
(2.97442 -1.79835e-07 0.00980188)
(2.97403 -1.4075e-06 0.0107002)
(2.97337 -2.31471e-07 0.0113804)
(2.9716 -5.98693e-06 0.0121056)
(2.9658 0.000211951 0.0125752)
(2.95481 3.34612e-05 0.0134183)
(2.91761 0.00134989 0.014976)
(2.83419 0.00025278 0.0182998)
(2.59114 0.00297684 0.025732)
(1.78363 0.00373799 0.0433857)
(0.189033 -0.00370666 0.0680408)
(-0.705151 0.0105173 0.0618844)
(-0.0446164 0.0218015 0.0603658)
(0.365617 0.0308398 0.0621388)
(0.432426 0.0370572 0.0647648)
(0.388213 0.0389725 0.0653212)
(0.226607 0.0417778 0.0672429)
(0.0439653 0.0484589 0.0659978)
(0.174912 0.0333522 0.0586243)
(2.98855 3.55838e-06 0.00143625)
(2.98291 1.15796e-06 0.00327926)
(2.97952 2.81916e-06 0.00493985)
(2.97739 6.16676e-07 0.00642792)
(2.97597 6.6365e-07 0.00770889)
(2.97506 -6.01602e-07 0.00885319)
(2.97442 -1.94886e-06 0.00980225)
(2.97403 -1.12087e-06 0.010702)
(2.97337 -1.3776e-06 0.0113763)
(2.97177 1.08412e-05 0.0121167)
(2.96584 4.27807e-05 0.0125567)
(2.95564 0.000140682 0.0136919)
(2.91812 0.000296893 0.0142922)
(2.83489 0.000909997 0.0198887)
(2.59309 0.00189239 0.0229651)
(1.78151 0.00553648 0.0467127)
(0.163493 0.0141935 0.0674317)
(-0.731498 0.0423594 0.0618436)
(-0.0347713 0.067164 0.0601914)
(0.37142 0.0885164 0.0616192)
(0.42314 0.100469 0.0642135)
(0.378485 0.102051 0.0650099)
(0.214927 0.104886 0.066571)
(0.0290407 0.117226 0.0649595)
(0.159921 0.0899241 0.0578754)
(2.98855 3.54143e-06 0.00143292)
(2.98291 8.75669e-07 0.00328425)
(2.97953 3.43298e-06 0.00493702)
(2.97739 -2.56348e-07 0.00643063)
(2.97597 1.92586e-06 0.0077068)
(2.97506 -2.64808e-06 0.00885435)
(2.97442 -1.90124e-07 0.00980155)
(2.97403 -3.18621e-06 0.0107009)
(2.97338 -1.9588e-06 0.0113789)
(2.97164 1.71643e-05 0.012108)
(2.9659 2.58371e-05 0.0125749)
(2.95501 0.000208005 0.0134342)
(2.91821 0.000390452 0.0149801)
(2.83543 0.00148367 0.0183167)
(2.59453 0.00362884 0.025729)
(1.79098 0.0118325 0.0434114)
(0.206564 0.0358501 0.0677649)
(-0.687313 0.0762201 0.0616525)
(-0.019434 0.11468 0.0596813)
(0.377036 0.150741 0.060805)
(0.416559 0.175322 0.06368)
(0.365119 0.181653 0.0643975)
(0.199953 0.18776 0.0653479)
(0.0139749 0.204232 0.0634672)
(0.1553 0.161431 0.0566856)
(2.98855 1.01966e-05 0.00143752)
(2.98291 -8.59394e-07 0.00327794)
(2.97952 6.57288e-06 0.00494082)
(2.97738 -4.63768e-06 0.00642631)
(2.97596 3.27901e-06 0.00771015)
(2.97506 -7.55567e-06 0.00885095)
(2.97442 1.3581e-06 0.0098048)
(2.97403 -6.33978e-06 0.0106977)
(2.97338 -8.81885e-07 0.0113807)
(2.9718 2.15582e-05 0.0121022)
(2.96601 0.000199476 0.0125318)
(2.95597 0.000287286 0.0136492)
(2.9192 0.00172704 0.0142095)
(2.8378 0.00218329 0.019678)
(2.6015 0.00806599 0.0227208)
(1.81056 0.0215205 0.0462087)
(0.217996 0.0557594 0.067023)
(-0.663727 0.108983 0.0619499)
(0.00207224 0.160378 0.0593381)
(0.388755 0.209294 0.0598468)
(0.420561 0.248006 0.0630468)
(0.36074 0.262496 0.0633671)
(0.199833 0.274727 0.0637134)
(0.0162953 0.29314 0.0616065)
(0.150632 0.236491 0.0549431)
(2.98855 -2.22467e-06 0.00143832)
(2.98291 -2.05934e-07 0.00327661)
(2.97952 -2.89177e-06 0.00494172)
(2.97738 1.94072e-07 0.00642478)
(2.97596 -3.71183e-06 0.00771188)
(2.97506 2.26729e-06 0.00884846)
(2.97442 -4.7538e-06 0.00980862)
(2.97403 8.32036e-06 0.0106914)
(2.9734 -1.18968e-06 0.0113883)
(2.97182 6.4564e-05 0.0120769)
(2.96617 0.000115923 0.0125012)
(2.95627 0.000517282 0.0135721)
(2.92025 0.00102734 0.0141889)
(2.84079 0.00368743 0.0194426)
(2.61019 0.00917278 0.022676)
(1.84159 0.0297178 0.0457613)
(0.264567 0.0939325 0.0666258)
(-0.614554 0.145761 0.0621545)
(0.0252802 0.205734 0.0589125)
(0.403275 0.264375 0.0587058)
(0.428839 0.315091 0.0621941)
(0.361436 0.339989 0.0621895)
(0.208809 0.360909 0.0620483)
(0.0285048 0.381559 0.0594788)
(0.141076 0.318189 0.0528496)
(2.98855 -1.5473e-05 0.00143742)
(2.98291 6.36367e-07 0.00327783)
(2.97952 -1.18985e-05 0.00494085)
(2.97738 6.17649e-06 0.00642632)
(2.97597 -8.68908e-06 0.0077101)
(2.97506 1.2898e-05 0.00885149)
(2.97442 -8.20772e-06 0.00980402)
(2.97403 2.10643e-05 0.0106995)
(2.97343 -2.14424e-06 0.0113773)
(2.9719 7.51208e-05 0.0121069)
(2.96638 6.31928e-05 0.0125212)
(2.95675 0.000664555 0.0135879)
(2.92178 0.000404182 0.0141593)
(2.84506 0.0050204 0.0193699)
(2.62247 0.0097556 0.022371)
(1.89112 0.0363231 0.0445692)
(0.332236 0.123543 0.0657487)
(-0.556394 0.188289 0.0623078)
(0.0514746 0.255047 0.0583685)
(0.421626 0.319038 0.057381)
(0.440276 0.380059 0.0609503)
(0.366259 0.417088 0.0608574)
(0.225274 0.449498 0.0602596)
(0.0484492 0.475037 0.0572468)
(0.131821 0.413115 0.0503993)
(2.98855 -1.55224e-05 0.0014326)
(2.98291 -9.71903e-08 0.00328427)
(2.97953 -1.22669e-05 0.00493711)
(2.97739 4.71316e-06 0.00643099)
(2.97597 -8.14188e-06 0.00770656)