/*--------------------------------*- C++ -*----------------------------------*\
  =========                 |
  \\      /  F ield         | OpenFOAM: The Open Source CFD Toolbox
   \\    /   O peration     | Website:  https://openfoam.org
    \\  /    A nd           | Version:  6
     \\/     M anipulation  |
\*---------------------------------------------------------------------------*/
FoamFile
{
    version     2.0;
    format      ascii;
    class       volScalarField;
    location    "28";
    object      p;
}
// * * * * * * * * * * * * * * * * * * * * * * * * * * * * * * * * * * * * * //

dimensions      [0 2 -2 0 0 0 0];

internalField   nonuniform List<scalar> 
918
(
0.269626
1.0072
0.0215829
0.269484
-0.0239174
0.975152
-0.763377
0.44309
0.250661
-0.363023
-0.352625
0.244641
0.832055
0.601176
-1.44723
-0.27712
0.398651
-0.694875
0.248573
-0.19339
0.478309
0.257445
0.259914
0.250696
0.305704
0.559674
0.708963
-0.0267254
0.00806252
-0.0141002
-0.0355332
-0.105185
-0.150948
0.858307
0.910218
0.933348
0.218132
0.0496567
-0.647839
-0.705556
-0.683979
-0.783492
0.435691
0.4368
-0.445663
0.442282
0.450401
0.236692
0.250031
0.250862
0.252108
0.250946
0.252265
0.160473
-0.373586
-0.400208
-0.343167
-0.344324
-0.161921
-0.338221
-0.334541
-0.359407
-0.366123
0.170905
0.241185
0.238924
0.249678
0.257812
0.947367
0.921111
0.947136
0.857803
0.875377
0.809056
0.781929
0.621278
0.644403
0.586184
0.572729
-1.91538
-2.87865
-0.860463
-0.575414
-0.00854847
-0.250816
-0.229136
0.386986
0.38819
0.400592
0.409874
0.767683
-0.671627
-0.746014
0.248965
0.247499
0.25692
0.257826
0.252761
0.252784
-0.241252
-0.276806
-0.0699616
-0.162007
-0.127042
0.4674
0.465324
0.250149
0.247633
0.267344
0.29146
0.279447
0.00218583
0.314297
0.331787
0.414624
0.565638
0.554028
0.566088
0.684278
0.652967
0.740464
0.762209
-0.0107231
-0.00764908
-0.273079
-0.190999
-0.239077
0.214125
0.207993
0.233751
0.221812
0.22484
-0.0466773
-0.200147
0.132585
0.155558
-0.564457
-0.609226
-0.7103
-0.714585
-0.807612
0.293311
0.430147
0.428935
-0.465276
-0.3853
-0.517701
-0.326039
-0.385603
0.228064
0.233931
0.230205
0.245236
0.239488
0.241856
0.254162
0.251274
0.252899
0.213764
0.339792
0.082742
0.0453747
-0.524023
-0.419912
-0.508025
-0.340993
-0.34127
-0.162441
-0.148908
-0.174283
-0.170396
-0.329613
-0.334877
-0.332295
-0.372887
-0.365033
0.162812
0.151336
0.180817
0.187964
0.231356
0.232648
0.236205
0.234492
0.732539
0.755624
0.761753
0.737859
-3.87344
-6.54041
-0.221242
-0.0570012
-0.0255213
-0.00779535
-0.0036083
-0.0056943
-0.00115148
-0.00690418
-0.154499
-0.156565
-0.196892
-0.181977
0.378581
0.378032
0.72483
0.746966
0.717518
0.696281
0.238235
0.240195
0.244884
0.24175
-0.363208
-0.316184
-0.339042
0.448883
0.456706
0.457868
-0.0359412
-0.119663
0.0493323
0.0783216
0.367034
0.341951
0.360382
0.47532
0.51652
0.77947
0.803588
0.787597
0.800576
0.851524
0.874425
0.839392
0.194065
0.204313
0.198883
0.236938
0.23454
0.235491
0.230768
0.23247
0.230595
-0.314371
-0.693084
0.215015
0.221136
0.195642
0.209446
0.371116
0.450517
0.408089
0.41841
0.418611
-0.277959
-0.326753
0.00915027
-0.0145987
0.105535
0.139171
0.121237
0.708168
0.668806
0.716524
0.691851
0.656345
0.67962
-0.631858
-2.41849
-1.40207
0.354776
0.152896
0.246745
-0.174024
-0.173836
-0.15914
0.747756
0.789215
0.408628
0.587849
0.548044
0.54087
0.567512
0.627884
0.56278
0.59532
0.624744
0.600018
0.258753
0.217098
0.224589
0.530812
0.59148
-0.154528
-0.225938
-0.25124
-0.1378
-0.0672229
-0.0955479
0.762312
0.653323
0.724882
0.247867
0.248761
-0.0532235
-0.0955848
0.252804
0.252534
-0.0522914
-0.161202
0.265081
-1.22087
-0.143278
0.242168
0.232171
0.248728
-0.335166
0.0865032
-0.317257
-0.179967
-0.188682
0.240268
0.181144
0.142618
-0.0406734
-0.315586
-0.256292
-0.469026
0.2456
0.244004
0.248111
0.249019
0.249766
-0.0832583
-0.0850282
-0.0598962
-0.22281
-0.152896
-0.173749
0.213249
0.231066
-0.443804
0.248357
0.250488
0.250193
0.244169
0.249211
0.247718
-0.225311
-0.180821
-0.301694
-0.0526187
0.073589
0.45553
0.536547
0.400185
0.228833
-0.0755853
0.387205
0.442341
0.364363
0.498963
0.419152
0.425794
-0.0846946
-0.221635
-0.0789698
-0.14164
0.239236
0.238356
0.229779
0.226959
0.24354
0.241341
0.24635
0.243469
0.246575
0.247793
-0.295355
-0.322027
-0.344347
-0.391776
0.0536451
0.310367
-0.0194569
0.0174061
-0.107627
-0.345114
-0.352751
-0.306467
-0.324466
-0.232666
-0.213754
-0.193467
-0.168871
-0.213529
-0.214673
-0.255424
-0.263514
-0.268588
0.234717
0.234664
0.239654
0.247513
0.1904
0.19408
0.160291
0.179717
0.165077
0.110802
0.140906
0.117153
-0.0481565
-0.0676264
-0.0356042
-0.313102
-0.271214
-0.229582
-0.161499
-0.22759
-0.144875
-0.131703
-0.342743
-0.337374
-0.433557
-0.549171
0.700895
0.630856
-0.157136
0.235659
0.241231
0.238517
0.242923
0.246085
0.246833
0.244457
0.240969
0.231476
0.233129
0.22943
0.229896
-0.390862
-0.495452
-0.323779
-0.395775
-0.126411
0.355551
0.0835018
0.0318689
0.0179584
0.232523
0.431921
0.372828
0.455419
0.459202
-0.668954
-0.251589
-0.594645
-0.0477521
-0.0591434
0.477459
0.520016
0.53879
0.495709
0.45061
-0.309005
0.25859
-0.311372
-0.271671
-0.0889998
-0.186807
0.437628
0.398422
0.402527
0.415116
0.432445
0.410361
0.386005
0.385742
0.411978
0.421264
0.226017
-0.0212929
-0.0581115
-0.105815
0.382406
0.262911
0.317275
0.241179
0.234261
0.236978
0.235639
0.217903
0.224948
0.220934
0.22693
0.230224
0.238517
0.238696
0.234534
0.236698
-0.313222
-0.330626
-0.319796
-0.379354
-0.379189
-0.415985
-0.351086
-0.169064
-0.196793
-0.0333428
0.103162
-0.203442
-0.334653
-0.319691
-0.267158
-0.086181
-0.0842848
-0.176546
-0.0892883
-0.108824
-0.111877
-0.0264334
-0.0140861
-0.311514
-0.272579
-0.28923
-0.303712
-0.207552
-0.156922
-0.147689
-0.338157
-0.292079
-0.372007
-0.376036
-0.269981
-0.283517
-0.268596
-0.24308
-0.314265
-0.298657
-0.31279
-0.370614
-0.311737
-0.304011
0.229738
0.231398
0.231421
0.24172
0.252967
0.267167
0.235827
0.210872
0.201974
0.205208
0.179413
0.189102
0.183577
0.198052
0.219085
0.226508
0.225026
0.227206
0.210681
0.212504
0.19888
0.202372
0.175305
0.15873
0.149661
-0.231819
-0.137907
-0.214738
-0.174573
-0.0907499
-0.126218
-0.25499
-0.300606
-0.291938
-0.266285
-0.217717
-0.304427
-0.293797
-0.343291
-0.272482
-0.447963
-0.492889
-0.544745
0.608413
0.736084
0.53089
0.327113
0.324692
0.556698
0.651205
0.293551
0.477877
0.506404
0.273666
0.545689
0.239662
0.239214
0.237128
0.236252
0.237475
-0.294189
-0.196752
-0.167394
-0.122048
-0.00331939
0.105708
0.00872758
-0.102687
0.0349756
0.0585853
0.353824
0.365209
0.308128
0.332827
0.328804
0.155593
0.236173
0.275777
0.22897
0.290869
0.323874
0.275389
0.314257
0.239243
0.197541
0.191829
0.139443
0.174052
0.154282
0.127815
0.230098
0.208306
0.219063
0.209471
0.22993
0.256755
0.255555
0.276101
0.291613
0.212929
0.167139
0.182229
0.206443
0.166841
0.180985
0.200606
-0.11403
-0.204792
-0.0362703
-0.361685
-0.270535
-0.234941
-0.27497
-0.323233
-0.0170029
-0.662604
-0.605439
-1.29388
0.20302
0.596728
0.399761
0.413678
0.429507
0.410374
0.416455
0.435047
0.442024
0.372024
0.385205
0.389828
0.344967
0.376605
0.384526
0.390519
0.220829
0.135737
0.131248
0.073652
-0.0563248
-0.0210653
0.152833
0.0916831
0.0251209
0.0224276
0.198063
0.0724019
0.145268
0.196541
0.133556
0.0671972
0.288573
0.341902
0.327597
0.295796
0.214937
0.232419
0.257832
0.298023
0.321438
0.352538
0.226187
0.232185
0.233198
0.23054
0.228517
0.231401
0.231477
0.233842
0.234483
0.237145
0.236344
-0.310255
-0.289409
-0.322672
-0.325774
-0.263136
-0.281907
-0.247124
-0.281796
-0.273955
-0.267803
-0.292688
-0.299421
-0.300717
-0.288018
-0.171777
-0.148383
-0.143028
-0.18327
-0.0285096
0.144054
0.204618
0.0804354
-0.070209
-0.0362933
0.0446131
-0.247957
-0.214271
-0.226095
-0.18655
-0.197468
-0.36724
-0.394353
-0.402881
-0.315214
-0.33953
-0.429997
-0.372199
-0.405265
-0.404964
-0.386348
-0.376582
0.212654
0.205458
0.208772
0.201857
0.200184
0.215714
0.220007
0.220917
0.225776
0.227792
0.21881
0.224206
0.227501
-0.396632
-0.403176
-0.404477
-0.441887
-0.445248
-0.390924
-0.399267
-0.168076
-0.253626
-0.223625
-0.283896
-0.401309
-0.342193
0.19439
0.195826
0.204777
0.410066
0.25914
0.174412
0.266352
0.374295
-0.0262682
0.18312
0.0114694
0.594361
0.485875
0.630075
0.266171
-0.0372513
0.122413
0.136225
-0.030086
0.0937972
0.066351
-0.0552096
-0.0172855
0.00150496
0.0830992
-0.0287326
-0.0520021
-0.296995
-0.124624
-0.000229802
-0.0204534
0.116291
0.176589
-0.0394369
-0.119922
-0.169083
0.336721
0.356736
0.370148
0.342232
0.365744
0.294726
0.287649
0.30403
0.310792
0.303895
-0.935303
-0.52565
-1.72499
-1.12695
-0.675587
0.237626
0.221815
0.462246
0.36797
0.428802
0.412281
0.354104
0.317707
0.344814
0.374157
0.0694967
0.174765
0.137368
0.155776
0.089387
0.0178671
0.309598
0.308909
0.336932
0.360268
0.331955
0.360003
0.224556
0.224366
0.223442
0.219971
0.218818
0.221397
-0.225302
-0.246333
-0.221971
-0.22445
-0.242878
-0.243359
-0.414193
-0.431412
-0.479105
-0.490164
-0.450443
-0.409119
-0.12673
-0.183397
-0.266302
-0.227382
-0.288554
-0.360088
-0.366829
-0.281645
-0.188079
-0.205962
0.0991996
0.379438
0.20479
0.371363
0.158328
0.264159
0.193509
0.173208
0.208141
0.0837785
0.164683
-0.27529
-0.473637
-0.532357
0.527523
0.485475
0.281717
0.0218074
-0.0879314
0.212846
0.243402
0.204737
0.240677
0.291021
0.280972
-0.286406
-0.179114
-0.125974
0.18901
-0.013719
0.00607162
-0.00301441
0.152997
0.125961
)
;

boundaryField
{
    wall-4
    {
        type            zeroGradient;
    }
    velocity-inlet-5
    {
        type            zeroGradient;
    }
    velocity-inlet-6
    {
        type            zeroGradient;
    }
    pressure-outlet-7
    {
        type            fixedValue;
        value           uniform 0;
    }
    wall-8
    {
        type            zeroGradient;
    }
    frontAndBackPlanes
    {
        type            empty;
    }
}


// ************************************************************************* //
