/*--------------------------------*- C++ -*----------------------------------*\
  =========                 |
  \\      /  F ield         | OpenFOAM: The Open Source CFD Toolbox
   \\    /   O peration     | Website:  https://openfoam.org
    \\  /    A nd           | Version:  6
     \\/     M anipulation  |
\*---------------------------------------------------------------------------*/
FoamFile
{
    version     2.0;
    format      ascii;
    class       surfaceScalarField;
    location    "28";
    object      phi;
}
// * * * * * * * * * * * * * * * * * * * * * * * * * * * * * * * * * * * * * //

dimensions      [0 3 -1 0 0 0 0];

internalField   nonuniform List<scalar> 
1300
(
3.75095
5.62643
-5.325
3.75095
-5.37897
5.62643
-4.36977
4.36977
-1.11235
1.11235
1.87651
1.87445
-2.74065
2.74065
-2.19402
2.19402
-2.57877
2.57877
-5.24794
5.24794
-5.06918
5.06918
4.72318
-4.72318
-4.07464
4.07464
-1.47827
1.47827
-3.78129
3.78129
3.17346
-3.17346
-2.9673
2.9673
-0.328994
0.328994
-0.553943
4.3049
3.19701
3.19701
-2.13718
2.13718
-4.87152
4.87152
6.22274
-6.22274
7.73046
-7.73046
-2.40547
-3.40952
1.62909
-9.50982
-3.74988
-3.74988
-8.44103
8.44103
-2.8146
2.81183
2.94289
-2.94289
-1.73515
1.73515
-4.36203
-0.00774215
-4.36203
4.34172
0.0280538
4.34172
-1.2441
0.131741
-1.2441
3.92348
-3.92348
0.948423
0.163932
0.948423
3.06632
-3.06632
-1.87687
3.75337
1.87409
-1.87199
6.17689
-1.87896
3.7534
-5.93967
5.93967
-2.99732
0.256673
-2.99732
2.4919
0.24875
2.4919
-6.71022
6.71022
-2.26626
0.0722337
-2.26626
2.19811
-0.00408517
2.19811
2.86951
-2.86951
-2.66566
0.0868929
-2.66566
2.46699
0.111779
2.46699
0.353508
5.27292
-5.97994
8.79177
-5.27292
0.0249869
5.21028
0.0376567
5.21028
-5.10509
0.0359102
-5.10509
5.01183
0.0573573
5.01183
4.81958
-0.0963969
4.81958
-4.83601
0.11283
-4.83601
-2.86936
-4.54279
-4.54399
0.469357
-4.54399
-1.48191
0.0036352
-1.48191
1.4433
0.0349728
1.4433
-3.56509
3.56509
-4.12305
0.341762
-4.12305
3.12824
0.0452194
3.12824
1.86814
1.88281
5.6191
-5.6191
2.44564
-2.5998
-0.367507
-2.5998
-3.40365
-4.32681
3.40365
-0.436346
-0.588501
0.259507
-0.588501
3.15689
0.0401197
3.15689
2.33863
0.128362
-2.33863
0.201442
3.252
-3.252
1.49271
0.644473
1.49271
-5.56042
5.56042
4.95992
0.0519024
-4.95992
0.0884072
6.15748
0.0652631
6.15748
-6.20791
-0.0148342
-6.20791
2.3204
-5.72991
-3.96782
3.76924
0.305394
-3.76924
0.0193635
2.91236
0.0305219
2.91236
-2.92469
2.92469
-2.9819
0.0390114
-2.9819
-2.16503
0.429883
-2.16503
1.4113
0.323847
1.4113
-4.23985
-0.122176
-4.23985
-4.25722
0.13417
4.25722
0.0844992
0.993467
-0.993467
-1.33694
0.0928412
-1.33694
-4.04739
-0.192467
4.04739
-0.123912
-3.85308
-0.0703935
-3.85308
-3.02046
0.0385584
3.02046
0.0458609
3.11173
0.045164
-3.11173
0.0454106
-1.87087
3.75368
-1.88008
3.75417
-5.57671
-0.362959
-5.57671
6.24414
-0.304477
6.24414
3.35155
0.429734
-3.35155
0.354231
2.31776
0.174145
2.31776
-6.69918
-0.011048
-6.69918
6.62289
0.0873337
6.62289
2.25879
0.0589606
-2.25879
-0.00746364
2.2587
-0.0605912
2.2587
2.88067
-0.0111634
2.88067
-2.87034
0.000825959
-2.87034
2.8061
-2.8061
2.73979
0.06631
-2.73979
0.0741249
-11.1237
11.1089
-0.0361854
-11.0875
5.17409
5.17409
4.27627
0.543314
4.27627
-5.02344
0.187423
-5.02344
2.40242
-6.37024
4.38634
-7.25571
4.31277
-13.8226
3.31176
-7.85454
5.94892
-5.94892
5.276
0.67292
-5.276
0.732008
-1.48944
0.00752865
-1.48944
-2.95669
-0.608402
-2.95669
4.2239
-0.658813
4.2239
-3.02983
3.02983
-3.07771
0.0478747
3.07771
0.0505339
2.39751
-0.138804
-2.39751
-0.202292
0.764266
0.184157
-0.764266
0.175765
3.48256
-0.230567
3.48256
-3.04894
-0.203054
-3.04894
-1.49329
0.00385536
1.49329
-0.000583539
-5.80901
0.248583
-5.80901
-11.1815
0.0939756
-11.1439
-6.11393
-6.11393
2.3271
11.1189
-2.8885
0.0181602
2.8885
0.0238679
2.9785
0.0513352
-2.9785
0.053804
-2.86721
0.0611165
2.86721
0.0574796
-2.53893
0.373892
-2.53893
-1.00293
1.00293
-1.17824
0.175307
1.17824
0.233068
1.254
-0.260534
1.254
1.38813
0.0551692
-1.38813
0.0511955
-3.79488
-0.0582
-3.79488
6.46586
-0.221722
6.46586
-2.9295
-0.119438
2.9295
-0.0488304
-0.0349704
11.1439
-5.13912
0.0340297
5.13912
-11.2091
11.2431
-3.25059
0.711663
3.25059
1.02568
5.2876
0.27282
-5.2876
0.264168
6.39956
0.223328
-6.39956
0.450639
-2.45408
-0.502605
-2.45408
-4.97256
-0.604141
4.97256
-0.748663
-11.4825
-0.202421
11.6849
-11.4251
6.01143
0.146048
-6.01143
11.3892
-0.927056
-0.0664108
0.927056
0.0758727
1.58391
-0.329909
1.58391
3.69971
-0.217149
-3.69971
-0.0951692
-6.59736
-0.101818
6.59736
-0.131494
-2.01202
-0.442057
2.01202
-0.428114
-4.26698
4.3071
1.90991
-1.78175
-3.94816
-6.10856
1.85408
1.8996
4.29972
-8.83043
-4.99216
-8.81107
7.21447
-6.9503
-9.3751
9.2787
7.61192
-7.68231
-5.77806
5.82859
6.48364
-6.43778
1.87938
1.87399
7.95705
-7.70037
-15.7342
15.3713
6.9311
-6.85887
15.7727
-15.7837
-17.8308
18.0541
-5.73248
5.81937
-6.70241
6.70323
-6.88264
6.83381
-1.76858
-5.48713
12.8835
-12.4141
7.2371
-7.6046
-8.566
8.90776
3.38492
0.922173
3.43009
-1.88191
3.76129
-1.87149
3.78141
4.33821
-6.10679
2.03203
-5.9802
4.16302
3.07407
-3.72668
-2.38189
-5.92182
5.95235
-5.81623
5.87371
8.94846
-8.95621
-1.88552
3.75951
-1.86865
3.76825
-3.42321
-2.35485
3.37799
0.921727
7.3392
5.54425
-7.6446
-1.16647
-7.78903
7.57188
-8.05833
7.85528
-0.441411
5.83771
-5.3963
4.43011
-1.65054
7.48825
5.56393
5.75135
5.86036
-5.58754
1.08994
-6.48624
-6.39783
-2.59431
2.68715
2.56224
-2.39831
5.94384
1.66807
5.81993
-5.6059
-2.07641
-5.6641
3.82084
2.00775
3.86871
4.0794
2.40424
4.11796
3.03078
-3.03557
0.00479534
-3.05907
6.08985
0.723938
-5.41392
-4.49219
4.94088
3.01617
5.18963
-5.56121
-2.13916
-5.20698
-9.5714
-6.16285
-10.1755
10.1453
5.22599
9.84082
-11.9909
11.8594
3.98764
2.94347
3.98355
-4.74078
-2.11809
-4.74825
11.9451
-2.86882
-9.07631
-10.2897
-7.54107
10.2024
5.57035
10.8384
7.21565
11.2891
4.53501
7.41012
-10.1054
2.56428
-3.8672
-1.86528
-3.79307
3.70314
2.11623
3.81492
-4.20892
-2.49349
-4.19076
-4.26384
-2.6188
4.275
2.42823
-4.34008
-3.71826
4.45951
2.37429
4.52443
-9.5166
3.33011
-8.81724
-9.35488
-3.05922
-8.62287
5.55919
1.16577
-6.72496
-0.547593
8.90968
-5.8356
6.52779
-4.06168
-3.54292
-4.26397
-6.86788
-1.69812
-6.73371
-8.94732
8.44471
-9.22945
8.57063
12.7553
-5.70212
-7.05316
-3.96674
-2.47104
3.92133
-0.491238
-3.71178
3.71657
0.0495167
3.83092
4.75309
4.26186
-3.88402
-1.93221
-3.83022
3.82809
2.04562
3.88921
6.73013
2.21833
6.75819
-6.42245
-2.53376
-6.54462
9.15692
-8.72703
2.92521
-2.92135
5.23687
2.61841
-5.00631
-2.78273
6.18829
-3.0964
-3.09188
-12.3657
10.8719
1.49385
-4.87749
-0.447383
-0.118389
-5.59236
-3.78274
5.47953
0.271817
11.1437
7.36097
-5.51489
5.76347
6.17
6.2219
-0.175937
5.93149
-5.21982
5.37009
-2.51801
-2.85207
5.29753
-5.49
-1.24709
-5.33646
4.08937
0.329932
1.77543
-1.51592
-2.02831
-0.566001
-1.97711
1.50223
1.06
1.68639
0.967676
1.71947
-2.93062
0.547094
2.38352
-1.96294
-1.85121
-3.64257
-1.02479
4.66736
5.51869
2.05319
-5.42352
-0.240575
2.77971
-2.74474
-0.838365
-2.80421
2.06372
-2.90208
-3.46069
-1.87214
5.33283
-3.36948
-0.460736
3.31815
0.550564
-3.82616
-2.09566
3.78715
0.330808
-3.12599
6.18981
-3.06381
-5.0582
2.53047
3.55939
4.53822
-4.79169
2.44751
2.34419
-1.23231
4.27047
0.919157
4.44462
-6.861
4.72184
5.7332
3.17455
-6.16294
0.955956
-5.90504
8.3548
-7.22231
-1.1325
3.95086
4.40394
7.1555
5.59977
-5.7442
12.8997
-1.11677
-6.10554
7.02181
-3.84726
4.68302
-8.53028
-10.2828
4.17726
-9.30209
11.0046
-1.70249
-3.60599
-8.38492
12.9081
-1.23418
-11.6739
8.60664
-4.18625
-4.77391
8.96016
-7.05506
6.892
-1.85444
-5.03756
-10.102
-5.68175
10.2038
1.6556
-10.9256
13.4899
-3.51547
3.17714
0.806411
3.11655
3.33605
-5.43393
2.09788
3.71902
-5.57345
2.14629
-7.58022
-7.66812
12.7903
-5.12217
-10.7273
-10.5025
-0.224797
2.56036
10.9295
-9.77601
7.16341
2.6126
3.30475
0.584456
-3.37106
-0.42201
0.286952
4.54029
-4.82724
4.10187
4.23023
3.34969
1.19059
3.84389
2.10846
-3.86775
-0.323004
-4.13539
1.51659
-1.70716
-3.64196
5.15855
-4.07555
0.433588
-2.72457
-3.52947
6.25404
-4.58985
3.04018
3.14962
5.0858
-4.91096
1.38149
-2.40954
-2.50142
2.69405
-4.40121
1.94064
3.2179
4.31494
0.59668
7.19752
5.59277
-8.36329
-0.453947
11.137
-9.97055
3.00588
8.2832
-10.1693
-0.333256
-8.95612
-0.14873
-5.68687
-6.87369
5.0786
-6.77671
-3.45169
6.20253
0.555656
-6.28703
-0.44668
-6.056
-2.89132
-6.49806
-3.07334
-6.15611
-8.81754
-1.6802
-7.13734
6.76451
-6.67763
-3.49791
7.42629
1.14434
-7.45503
7.38861
-7.5328
7.20289
0.0941986
3.62237
4.35606
1.88502
-2.39006
4.27508
-5.01478
7.23311
-8.51228
3.4975
4.02393
-6.55768
-4.48836
5.07882
4.0781
5.40267
9.01811
-10.5489
1.53077
-10.8584
12.1862
-1.32785
-16.6742
5.81579
-7.65605
2.6631
0.262107
2.67063
0.674908
2.4075
-3.08241
-2.24644
-2.24703
-2.32189
-3.41204
5.73393
1.13009
-3.33248
2.20239
-3.47472
4.60482
0.0347446
-3.36723
5.22022
-2.81272
5.48233
-3.43998
2.04235
3.37556
5.68912
-2.31356
4.34819
-1.72979
1.84658
-4.16013
-1.56546
-2.99243
5.10867
-3.26161
3.69519
-0.281431
3.97663
-4.06026
0.963858
-0.710568
3.51966
3.7211
4.29908
-3.10849
2.95293
-4.68272
-1.2072
-4.08604
-0.868136
-0.224544
-3.87127
4.09582
6.10154
-6.32609
-5.32237
9.5934
-4.27103
7.74402
-5.47139
-2.27263
-4.3219
-4.40513
3.94801
1.98348
9.7275
0.177861
-5.64925
-5.04196
-4.01629
3.22317
2.14691
-1.94742
3.44127
2.06581
-0.290382
0.569027
1.11736
1.86178
-1.29275
0.222789
1.63899
-1.29313
2.00704
0.772667
-2.06221
0.0851027
-1.36063
3.42435
1.02289
-2.08289
0.790143
0.989731
-3.50775
4.78348
-2.50851
-2.27496
5.77321
1.16037
-3.66888
4.1761
-3.84617
2.36088
-3.38567
-1.308
-5.15416
-3.48609
-2.47905
4.68144
-3.25488
5.30807
1.22075
-5.0675
6.28825
-3.53202
1.65988
-3.04468
3.81734
-1.0728
-1.97188
2.83435
2.49847
-2.96566
0.161451
-0.131304
2.32108
-2.45238
-0.581003
-2.54394
-4.57359
4.90439
-2.10574
4.55324
2.16935
-1.91404
6.46728
1.81109
-3.72512
-3.24711
-3.70785
-1.38094
3.15728
-0.479687
-4.26856
-5.51725
4.2096
0.235017
-6.85762
7.79024
-0.932615
-3.84146
-0.880383
4.83125
-6.06938
0.495931
-3.92309
3.86715
4.7863
5.02132
-11.4917
-0.182215
-6.2657
1.16235
-7.42805
5.56629
-3.61865
7.79591
-10.4254
6.92749
-9.28106
6.66341
-0.76464
6.22999
-4.13211
2.84633
-8.52807
-6.87247
5.43495
-2.49148
6.24136
-2.95321
9.19457
-6.46868
4.80611
4.38846
-1.16075
-3.10322
-4.68064
3.51988
0.125474
3.24202
4.97725
-2.86879
4.65424
2.24046
-4.65
-2.16075
-6.49302
1.84303
-3.3434
-1.91341
3.75644
3.17239
3.75684
1.25502
-3.33483
9.02789
-9.25269
-3.90572
-2.96798
4.63071
-1.11083
4.59908
-7.56706
-1.08779
4.8631
-0.792192
-4.07091
0.839013
-4.2907
1.65349
-5.94419
5.12322
-5.5699
2.2231
-9.87915
-5.23192
-5.15605
-2.26166
-5.27114
-7.67273
5.41107
-1.85694
5.53167
-8.68884
7.89665
-3.49738
8.90845
-5.4486
-1.04946
5.87671
1.32618
10.2346
0.0998652
-4.58822
-1.93985
3.88614
-1.94629
1.28333
-3.77141
0.114728
2.42899
3.34422
-6.51836
-0.039326
-4.62755
-3.92158
7.99967
5.67183
11.7734
1.22448
9.21006
-1.21039
10.4345
4.19228
4.42534
-3.05466
4.58543
1.04116
4.53866
-0.826759
2.86911
1.84387
1.8475
0.897235
2.29583
1.42527
3.25969
0.177283
-2.06974
4.66125
-8.67753
-0.988005
-8.13422
1.14449
5.416
-4.27151
3.06078
-0.913862
1.11449
0.0626228
-1.6583
1.59568
-2.78945
-1.94868
-0.309694
-1.57523
2.36537
1.84912
-2.05567
-0.733777
0.269536
-3.75563
3.11613
-2.95468
-0.456211
5.83204
-2.72921
0.276829
-1.06933
-2.26711
-2.83312
2.74801
6.17329
0.293988
3.10947
5.19838
3.10272
0.233928
4.03186
-5.73436
-3.54835
-5.91657
-0.350279
4.48097
1.68001
9.2495
6.06847
4.95765
-2.60941
-11.8621
6.56162
-1.97619
5.23377
-1.16286
-4.78133
5.00921
2.2239
-5.56487
-0.00503444
-4.78637
-6.76256
-0.513335
8.40998
-9.7213
8.67184
5.78052
1.35682
-4.4398
-0.716252
4.26449
0.160853
10.5954
-0.893009
-7.21254
8.10555
-4.52299
3.53499
0.76695
2.67432
2.36263
1.44877
-5.76377
-10.0353
-1.88428
-1.62347
-4.15924
0.508122
-2.35725
6.11863
-2.58364
3.846
5.52191
6.63639
-2.07811
-4.24798
6.34914
-2.50314
4.13325
)
;

boundaryField
{
    wall-4
    {
        type            calculated;
        value           uniform 0;
    }
    velocity-inlet-5
    {
        type            calculated;
        value           uniform -3.75095;
    }
    velocity-inlet-6
    {
        type            calculated;
        value           uniform -5.62643;
    }
    pressure-outlet-7
    {
        type            calculated;
        value           nonuniform List<scalar> 8(5.325 5.37897 5.81498 7.88073 7.41215 6.28822 6.78876 7.62453);
    }
    wall-8
    {
        type            calculated;
        value           uniform 0;
    }
    frontAndBackPlanes
    {
        type            empty;
        value           nonuniform 0();
    }
}


// ************************************************************************* //
