/*--------------------------------*- C++ -*----------------------------------*\
  =========                 |
  \\      /  F ield         | OpenFOAM: The Open Source CFD Toolbox
   \\    /   O peration     | Website:  https://openfoam.org
    \\  /    A nd           | Version:  6
     \\/     M anipulation  |
\*---------------------------------------------------------------------------*/
FoamFile
{
    version     2.0;
    format      ascii;
    class       volVectorField;
    location    "28";
    object      U;
}
// * * * * * * * * * * * * * * * * * * * * * * * * * * * * * * * * * * * * * //

dimensions      [0 1 -1 0 0 0 0];

internalField   nonuniform List<vector> 
918
(
(0.985021 -0.000720244 0)
(0.00532835 2.96625 0)
(-0.0431699 1.40387 0)
(0.979571 0.00195215 0)
(0.0162812 1.41015 9.42114e-20)
(-0.00707705 2.94855 -2.07788e-18)
(0.828395 1.15226 6.65899e-19)
(0.385823 0.146992 -9.79447e-21)
(0.999917 -0.000255582 0)
(0.0935528 0.782034 0)
(-0.0106882 0.609872 0)
(0.738911 -0.00961894 0)
(0.0102181 2.93153 0)
(0.00347863 2.79407 0)
(-0.000474142 3.1946 1.07887e-18)
(-0.00602376 1.22266 2.48074e-19)
(0.460476 0.0435248 6.20431e-19)
(0.238827 1.18029 6.08857e-19)
(0.964545 0.00666469 0)
(-0.0483717 0.850011 0)
(0.116107 0.210283 -4.7502e-19)
(1.00194 -0.00448552 0)
(0.999876 -0.0089364 0)
(0.975187 -0.00607305 0)
(0.623594 -0.0477819 0)
(0.0231043 2.64314 0)
(-0.01239 2.91209 7.24123e-19)
(-0.104228 1.32533 0)
(-0.115257 1.53699 0)
(-0.0615005 1.36744 0)
(-0.0100679 2.1286 0)
(0.074288 1.46019 -7.43988e-20)
(0.0470139 1.14326 0)
(-0.0221734 2.9876 -7.34506e-23)
(-0.0165127 3.0055 1.61483e-18)
(0.00230108 3.00061 0)
(0.870541 -0.00886046 0)
(0.3753 0.921811 -8.61449e-21)
(0.831879 1.16227 -9.66305e-19)
(0.971101 1.01494 8.97617e-19)
(0.695946 1.24618 -1.56549e-19)
(0.702868 1.22507 8.78923e-19)
(0.420327 0.250544 9.55592e-21)
(0.414195 0.137143 0)
(1.16055 0.520956 0)
(0.379331 0.254509 4.38522e-20)
(0.347556 0.158214 -4.55098e-20)
(0.92026 -0.00672519 0)
(1.00027 6.95619e-05 0)
(0.999907 0.000313127 0)
(1.00369 -0.00733966 0)
(1.00089 -0.000968947 0)
(1.00011 -2.29243e-05 0)
(0.101724 1.79306 -2.97769e-19)
(0.0520425 0.94865 0)
(0.109958 0.865761 0)
(0.0352825 0.858029 0)
(0.0428797 0.700605 0)
(0.00219339 2.00225 0)
(0.0104471 0.757393 0)
(0.00592889 0.618345 0)
(-0.0118892 0.738637 0)
(-0.0231033 0.613022 0)
(0.837681 -0.0120878 0)
(0.854345 0.0266898 0)
(0.771056 -0.00192381 0)
(0.831709 0.0346767 0)
(0.705432 -0.0148798 0)
(0.0139641 3.00019 7.64143e-19)
(0.0111996 3.0059 0)
(0.00630694 3.00391 0)
(0.0119135 2.99707 8.57151e-24)
(0.0083001 2.95873 -1.1357e-18)
(0.012228 2.98293 0)
(0.0089749 2.90474 0)
(0.0212224 2.93172 1.61085e-24)
(0.00410123 2.82376 0)
(0.0254634 2.91854 0)
(-0.00121662 2.74408 0)
(0.31145 3.59649 0)
(-0.12299 3.67993 0)
(0.153437 3.28596 -1.00413e-18)
(0.00665333 3.01731 0)
(-0.213225 1.98117 0)
(-0.025504 1.45162 -2.4454e-19)
(-0.0756489 1.3549 1.94621e-19)
(0.532971 0.13774 -2.13183e-19)
(0.462695 0.0112422 -2.04998e-19)
(0.506761 0.163204 -6.45896e-19)
(0.44661 0.0643073 -4.30273e-19)
(0.254012 0.949052 0)
(0.336081 1.32569 -6.04358e-19)
(0.434312 1.21726 9.87428e-19)
(0.988051 0.00810579 0)
(0.943594 0.00599385 0)
(1.00029 0.000673705 0)
(1.00254 0.00907313 0)
(1.00317 0.00888713 -1.28401e-18)
(0.992133 0.00952713 9.70353e-19)
(-0.0587704 0.914629 0)
(-0.0281729 0.745723 0)
(-0.113595 1.27909 0)
(-0.0594199 1.04309 0)
(-0.0279815 0.98708 0)
(0.155886 0.221683 1.47221e-19)
(0.203042 0.198448 0)
(0.993627 -0.0076901 0)
(0.954 -0.00644783 0)
(0.788659 0.040574 0)
(0.737572 0.0474149 0)
(0.667067 -0.0286457 0)
(0.965409 -0.000588501 0)
(0.6823 0.0507583 0)
(0.513047 -0.0379597 8.31278e-19)
(-0.040837 2.86157 4.62825e-19)
(0.0341149 2.91366 0)
(0.042831 2.89151 0)
(0.00360377 2.70076 0)
(-0.00869205 2.98668 6.7979e-19)
(-0.0143223 2.89499 0)
(-0.0109024 2.99194 -2.12023e-18)
(-0.0116782 2.92984 7.25599e-19)
(-0.220984 1.55048 0)
(-0.214783 1.67546 0)
(0.0504503 1.37341 8.5834e-21)
(0.0774279 1.34156 0)
(0.018742 1.14052 0)
(0.937657 -0.00525188 0)
(0.85477 -0.00938952 0)
(0.864986 0.00709742 0)
(0.948684 -0.00642232 0)
(0.882603 -0.00770712 0)
(0.500866 1.12334 2.43411e-22)
(0.549157 1.19493 0)
(0.334608 0.853404 8.11364e-21)
(0.278093 0.719341 0)
(0.931069 1.05146 -2.61499e-19)
(1.04655 0.85076 5.27078e-19)
(0.404364 1.34635 0)
(0.553087 1.31233 0)
(0.583596 1.25553 0)
(0.0877091 0.155864 -1.53893e-19)
(0.449346 0.233385 0)
(0.426789 0.12685 1.23553e-19)
(1.00823 0.90484 0)
(1.07767 0.744818 0)
(1.10739 0.678311 -4.54756e-19)
(1.13898 0.588645 0)
(1.19388 0.380074 4.66761e-20)
(0.956892 -0.00692894 0)
(0.962523 -0.00797784 0)
(0.900359 -0.00709264 0)
(0.983869 -0.00810915 0)
(0.974272 -0.00791856 0)
(0.936411 -0.00643268 0)
(1.00018 0.00249467 0)
(1.00082 0.00128051 0)
(0.999981 0.000794381 0)
(0.0383616 2.05328 1.84312e-19)
(0.149295 1.73928 0)
(0.00686995 2.16384 1.79613e-19)
(0.0607032 1.85912 -8.60778e-20)
(0.168507 1.14588 -5.04489e-19)
(0.0499073 1.01791 0)
(0.116599 1.01633 0)
(0.0376953 0.812824 0)
(0.0255793 0.640243 0)
(-0.0205265 2.18605 2.30969e-21)
(0.0182021 1.99255 0)
(-0.0394115 2.15716 1.50101e-19)
(-0.0148958 1.98889 -2.99405e-19)
(-0.000889775 0.784622 0)
(-0.00590525 0.778386 0)
(-0.00501251 0.613198 0)
(-0.0179367 0.746195 0)
(-0.0254049 0.636023 0)
(0.931769 0.0111156 0)
(0.846105 -0.011045 0)
(0.924585 0.00420951 0)
(0.842739 -0.00947208 0)
(0.815807 0.00323108 0)
(0.903426 0.0183037 0)
(0.881893 0.02149 0)
(0.792367 0.00133021 0)
(0.0103817 3.0677 -6.79541e-21)
(0.0147544 3.0593 0)
(0.0124424 2.97034 0)
(0.00757734 2.87669 0)
(0.903331 3.99678 0)
(1.19952 3.38996 1.0106e-18)
(0.0837166 3.09861 0)
(-0.0149341 2.92247 0)
(-0.286805 1.68956 0)
(-0.295082 1.92587 0)
(-0.248655 1.80666 0)
(-0.0692458 2.15197 -2.79205e-20)
(-0.221568 2.07777 0)
(-0.138436 2.03937 0)
(-0.101511 1.81294 -7.57251e-21)
(-0.117395 1.82029 -1.35356e-19)
(-0.0874651 1.61637 -1.99101e-19)
(-0.108795 1.60823 0)
(0.544914 0.109026 3.17901e-19)
(0.464445 -0.0051821 -3.11585e-19)
(0.233693 1.55443 0)
(0.282943 0.688319 -2.33987e-19)
(0.177381 1.65076 -7.79241e-19)
(0.2441 1.16146 7.79307e-19)
(0.902518 0.00677465 0)
(0.967456 0.0102272 0)
(0.975197 0.00961003 0)
(0.923499 0.00630685 0)
(-0.0166082 0.772519 0)
(-0.0306334 0.820768 0)
(-0.0353324 0.686031 0)
(0.327797 0.246072 3.98739e-19)
(0.267217 0.23586 -4.76301e-19)
(0.283765 0.176756 0)
(1.09326 0.0905694 -1.39002e-21)
(1.07797 0.0433458 0)
(1.00399 0.0436933 0)
(0.900375 0.00214092 0)
(0.563797 0.0846986 0)
(0.610262 0.0618555 -1.34168e-18)
(0.477535 -0.0161749 5.1474e-19)
(0.0112499 2.97762 5.38441e-19)
(-0.0324276 2.8626 4.78832e-20)
(0.00847428 3.05296 -1.45612e-20)
(0.015662 3.04349 5.52057e-19)
(-0.0117957 2.99998 2.41227e-20)
(-0.0123183 2.95236 -9.78575e-23)
(-0.0150507 3.0133 -4.60279e-19)
(0.0142121 3.02672 3.23218e-19)
(0.00753427 3.03466 -5.19159e-19)
(0.931846 0.00231077 0)
(0.937506 -0.0010342 0)
(0.845185 -0.00885522 0)
(0.957097 0.0111975 0)
(0.943701 0.0121027 0)
(0.883032 0.0069697 0)
(0.919247 0.0156561 0)
(0.927324 0.0139166 0)
(0.840991 0.00552243 0)
(0.676499 1.42578 2.53463e-19)
(0.695419 1.53747 0)
(0.144007 0.337402 3.06922e-20)
(0.16571 0.604161 2.45821e-19)
(0.231128 0.676761 -1.43376e-19)
(0.228407 0.552764 2.71416e-19)
(0.306922 0.753226 8.62404e-19)
(0.113691 0.201607 2.42451e-19)
(0.49312 0.193636 4.62226e-19)
(0.469477 0.211617 1.15714e-19)
(0.43126 0.0976256 2.3135e-19)
(1.18405 0.439979 2.81377e-19)
(1.20617 0.24194 2.92109e-19)
(0.00854376 2.205 2.54549e-20)
(0.04625 1.90154 0)
(0.958904 0.0322332 0)
(0.933718 0.0173224 0)
(0.860239 -0.0112417 0)
(0.0123656 3.07434 0)
(0.0168499 2.94408 9.31858e-19)
(0.0139932 2.95678 0)
(0.0058591 2.84992 -9.24511e-19)
(0.00949104 3.09079 2.24053e-19)
(0.0115008 3.08369 0)
(0.717324 1.83638 -2.38341e-19)
(1.24412 2.64525 7.95306e-19)
(0.70229 2.0155 -1.61694e-18)
(0.0228171 2.97671 -4.27402e-19)
(0.0419327 3.00105 0)
(-0.0378349 2.88054 0)
(-0.0566393 2.08832 4.29567e-21)
(-0.0995182 1.99488 2.90821e-19)
(-0.04041 1.9372 6.27509e-23)
(0.261617 1.34664 7.56062e-19)
(0.246281 0.464893 -5.20496e-19)
(0.0679333 1.97023 4.96485e-19)
(0.123088 1.84319 -6.28431e-19)
(0.206526 1.48511 9.67207e-20)
(0.00708588 3.11915 -1.233e-18)
(0.0178865 3.1193 1.32944e-18)
(-0.00491859 2.98032 6.15608e-19)
(-8.66411e-05 2.9751 -5.70733e-19)
(-0.0180705 2.87848 -6.27011e-19)
(0.0126809 3.0988 -1.64478e-18)
(0.0052321 3.10788 1.62329e-18)
(0.215852 0.625904 0)
(0.186953 0.610753 -5.087e-19)
(0.0682289 0.206345 2.26575e-19)
(0.325989 0.85977 7.30864e-19)
(0.176119 0.238465 -1.11763e-18)
(1.18467 0.174209 -5.0549e-20)
(1.20329 0.300942 0)
(1.18045 0.120342 1.11452e-19)
(-0.0121716 2.21233 1.97547e-21)
(0.0027372 2.20914 0)
(0.023883 1.95032 0)
(0.310559 1.27191 -2.68831e-19)
(0.342353 1.0866 -5.7419e-19)
(0.200208 0.342151 9.95986e-19)
(1.00642 -0.00980541 0)
(1.00776 -0.00783305 2.3443e-19)
(-0.230847 1.51209 0)
(-0.241583 1.42995 0)
(1.00243 0.00336375 1.41816e-21)
(1.00335 0.00810447 4.83132e-19)
(-0.0840722 2.18949 3.51834e-20)
(-0.0616533 2.23404 0)
(0.0436843 3.17464 2.49068e-19)
(0.380998 3.55671 0)
(1.10309 0.68768 4.92264e-20)
(1.01193 0.0110814 -2.62865e-21)
(1.02092 -0.00925861 0)
(1.00161 0.000195783 1.31749e-22)
(0.109532 1.35666 0)
(0.139257 2.59608 0)
(0.0710612 1.20277 0)
(-0.000969821 2.62184 -1.74333e-19)
(-0.0437442 2.58405 -1.54865e-19)
(1.00471 0.0241509 2.59473e-21)
(1.05837 0.00104981 0)
(1.08375 0.0190323 0)
(-0.294455 1.93754 0)
(-0.20984 2.49823 0)
(-0.18686 1.12441 0)
(0.25857 1.47894 -3.9613e-19)
(1.01144 -0.00919487 0)
(1.00965 -0.0131574 0)
(1.00232 0.000784717 2.99966e-19)
(1.00555 -0.00489728 -3.53688e-19)
(1.00116 -0.0009887 0)
(-0.354994 1.79213 0)
(-0.280695 1.5396 0)
(-0.29987 1.69947 0)
(-0.197382 1.12647 0)
(-0.257529 1.2811 0)
(-0.17739 1.15423 0)
(1.03483 -0.00577215 0)
(1.0199 0.0146078 -1.05777e-21)
(0.770213 1.29903 4.91942e-19)
(1.00236 0.000269887 -2.99802e-19)
(1.00342 0.0048001 3.59666e-19)
(1.00131 0.00213953 0)
(1.01147 0.0097096 2.94846e-19)
(1.00713 0.00745496 -3.64334e-19)
(1.00756 0.0116218 0)
(-0.193673 2.48922 0)
(-0.120587 2.3736 -2.54839e-19)
(-0.126802 2.37541 2.0351e-19)
(1.20756 0.26991 -1.74051e-20)
(1.14019 0.0887535 0)
(0.0479391 3.09047 -6.41052e-19)
(0.0514927 2.86986 -4.74138e-20)
(0.107091 3.20221 8.34039e-19)
(0.125684 3.21511 -1.17685e-19)
(0.148347 3.26377 0)
(0.0234295 3.13788 1.65207e-19)
(0.0633753 3.16236 6.36376e-19)
(0.0641332 3.17976 -3.11397e-19)
(0.0275026 3.12911 0)
(0.658258 0.316203 0)
(0.592435 0.376648 0)
(1.09162 0.714346 -1.96139e-19)
(1.05487 0.853792 3.11385e-19)
(1.14663 0.60474 0)
(1.17843 0.543659 0)
(1.01578 0.0119876 -5.4362e-19)
(1.01479 0.0127171 6.81158e-19)
(1.02542 -0.00903651 0)
(1.02357 -0.0108437 0)
(1.0065 0.00250726 0)
(1.01105 0.00398902 0)
(1.00462 0.00198668 0)
(1.0097 0.00649546 0)
(1.00722 0.00532521 0)
(1.00459 0.00525866 0)
(0.100729 1.35458 0)
(0.0910617 1.32689 0)
(0.12977 1.39779 0)
(0.122874 1.41666 0)
(0.151549 2.61589 0)
(0.194387 2.67488 -2.29267e-19)
(0.112001 2.67275 0)
(0.0780019 2.67167 -5.53713e-21)
(0.0219822 2.68496 1.68646e-19)
(0.0776949 1.16253 0)
(0.0404131 1.05301 0)
(0.0725882 1.26595 0)
(-0.00116606 1.22562 0)
(0.0319741 1.98659 2.07921e-19)
(-0.0585795 2.60515 -2.20495e-19)
(-0.0159107 2.65904 -2.5918e-19)
(-0.0352263 2.65588 0)
(-0.0915796 2.62236 4.40267e-19)
(-0.0930622 2.60622 2.96214e-19)
(-0.0188236 2.02651 -1.44577e-19)
(-0.0500269 2.48153 3.07328e-19)
(-0.00367367 2.47028 3.14588e-19)
(1.01304 0.0334607 5.43089e-19)
(1.00704 0.0166897 -6.75799e-19)
(1.00745 0.0386479 -5.62881e-19)
(0.986296 0.0270362 7.16619e-19)
(1.05942 0.00406553 0)
(1.04718 -0.00802464 0)
(1.08294 0.0247012 0)
(1.06665 0.00716087 0)
(1.06308 -0.00269459 0)
(1.1213 0.0725256 0)
(1.0964 0.0386601 0)
(1.09746 0.0333677 0)
(-0.175817 2.25028 1.14737e-20)
(-0.320156 2.11488 0)
(-0.236709 2.12527 0)
(-0.225635 2.58607 -1.91356e-19)
(-0.218917 2.54563 5.60145e-21)
(-0.402365 1.91806 -2.25031e-19)
(-0.331865 1.80518 2.25948e-19)
(-0.322653 1.48478 0)
(-0.352971 1.50455 0)
(-0.331644 1.53799 0)
(-0.153473 1.11444 0)
(-0.073175 0.97409 0)
(0.371241 1.4958 7.46024e-19)
(0.402471 1.50802 3.02516e-19)
(0.60082 2.46253 -1.74367e-19)
(0.394217 2.55923 4.74482e-19)
(0.352013 2.08848 -3.05849e-20)
(1.02032 -0.00828128 0)
(1.01563 -0.00954564 0)
(1.01466 -0.0136281 0)
(1.00752 -0.00116702 0)
(1.00494 -0.000953273 0)
(1.00798 -0.00475327 0)
(1.00946 -0.00381866 0)
(1.01445 -0.00447554 0)
(1.0206 0.0154692 5.23313e-19)
(1.01781 0.014574 -6.681e-19)
(1.02102 0.0173432 -5.25943e-19)
(1.01815 0.0154571 6.5735e-19)
(0.735774 1.34096 0)
(0.664265 1.38387 5.44045e-19)
(0.843123 1.21436 3.14477e-19)
(0.872277 1.1964 -4.17269e-19)
(1.16795 2.6273 -3.94897e-19)
(0.813455 0.104047 3.32457e-19)
(1.14504 0.101777 0)
(1.18317 0.193567 1.44028e-20)
(1.16277 0.160137 1.02164e-21)
(1.01031 0.139763 0)
(0.0903658 3.02808 -6.39917e-21)
(0.0916083 2.90637 -7.35879e-19)
(0.0405424 2.36437 4.79661e-19)
(0.137922 -0.0233651 -2.29184e-19)
(0.34892 3.45888 -4.39286e-19)
(0.198579 3.34912 0)
(0.228475 3.40892 5.72219e-19)
(0.23243 3.08614 -3.94476e-19)
(0.2656 3.20529 0)
(0.00601734 3.1227 3.38506e-20)
(0.0170422 3.1313 -4.0426e-19)
(0.0156647 3.1271 5.94995e-19)
(0.0338245 3.14019 0)
(0.0320568 3.14996 0)
(1.26542 2.59538 0)
(0.531309 0.831538 -2.81352e-19)
(0.97764 1.03283 -1.69344e-19)
(0.957172 1.06083 0)
(0.816168 0.951374 2.7295e-20)
(1.03829 0.890663 2.8427e-20)
(0.409141 0.402536 -5.6954e-19)
(0.712471 0.316246 -2.34651e-20)
(0.69307 0.26166 2.49736e-19)
(0.605679 0.403355 1.89881e-20)
(0.525848 0.384334 -7.74077e-19)
(0.671951 0.346064 0)
(0.694941 0.432865 4.08192e-19)
(0.694364 0.432048 0)
(0.646004 0.386347 0)
(0.615908 0.329926 0)
(0.750295 0.640219 1.58891e-19)
(1.21117 0.294687 8.23078e-21)
(1.19598 0.432112 0)
(1.20551 0.391696 0)
(0.773558 0.199312 3.74242e-19)
(0.80886 0.548522 -2.14011e-19)
(0.7344 0.515257 3.56727e-19)
(0.917196 0.415322 -3.38273e-19)
(1.01926 0.0141337 3.58842e-19)
(1.01744 0.0133828 -3.63388e-19)
(1.01627 0.0139895 0)
(1.03601 -0.00567764 0)
(1.0298 -0.00820618 -3.31052e-19)
(1.02765 -0.0113313 3.27482e-19)
(1.02485 0.0100251 0)
(1.02342 0.0138074 0)
(1.01235 0.00417205 0)
(1.01446 0.00867737 0)
(1.01586 0.00370076 0)
(1.01493 0.00285864 0)
(0.0750788 1.35063 0)
(0.0552048 1.31412 0)
(0.172002 1.36581 3.1975e-19)
(0.2436 1.47165 2.16277e-19)
(0.153672 1.4528 4.81698e-19)
(0.182362 1.45428 -7.79944e-19)
(0.173111 1.39534 0)
(0.133063 1.57146 2.03916e-19)
(0.136819 1.55752 0)
(0.344922 2.04946 4.45133e-20)
(0.347049 2.35888 3.02392e-19)
(0.185384 1.45179 -1.77966e-19)
(0.252231 1.37015 1.68471e-19)
(0.18875 1.37571 -1.35022e-19)
(0.271113 1.29961 2.58374e-19)
(0.247179 1.57071 0)
(0.237958 1.62228 -1.65735e-19)
(0.0428931 2.27854 9.19021e-20)
(0.0358768 2.6791 0)
(0.0618225 2.4189 -1.522e-19)
(0.0390717 2.43567 0)
(0.0696039 2.68255 4.49621e-21)
(0.0379724 2.70612 0)
(0.14057 1.48353 3.22482e-19)
(0.0705265 1.53527 0)
(0.062093 1.40559 0)
(0.146352 1.39633 -3.60666e-19)
(-0.00272622 2.64687 -1.70246e-20)
(0.0164716 2.70495 -2.21524e-19)
(0.00592642 2.72177 -1.57528e-21)
(0.0820308 2.00476 -2.68472e-19)
(0.0853833 1.72948 -1.00448e-19)
(0.0103058 1.03305 0)
(0.00792146 0.936548 0)
(0.0185778 1.58891 -3.67784e-19)
(0.0566634 1.45483 -3.79808e-19)
(0.0573527 1.55512 4.75827e-19)
(0.0257799 1.60548 0)
(-0.260789 2.41537 7.81558e-19)
(-0.235156 2.59764 -3.12383e-19)
(-0.248225 2.57248 9.01667e-20)
(0.0424256 2.01579 3.26047e-19)
(-0.14413 2.58127 1.2682e-19)
(-0.074235 2.5088 -3.71918e-19)
(1.01963 0.0200308 -3.56806e-19)
(1.01662 0.0240775 3.60373e-19)
(1.01246 0.0152885 0)
(1.01741 0.058029 4.98275e-19)
(0.998682 0.0480429 -5.93801e-19)
(0.965811 0.0414724 6.78746e-19)
(1.01512 0.0960414 -6.6586e-20)
(1.04257 -0.00587878 0)
(1.04975 -0.002441 3.01814e-19)
(1.03927 -0.00947754 -3.01812e-19)
(1.06496 0.0328748 -1.68589e-20)
(1.05892 0.0173846 1.49374e-19)
(1.06195 0.0501736 0)
(1.05729 0.0391034 -5.52758e-20)
(1.0339 0.035352 0)
(1.02916 0.0330151 0)
(1.02761 0.0130415 0)
(1.02446 0.0151919 0)
(1.04127 0.0250452 1.14859e-19)
(1.0382 0.0209782 -2.60644e-19)
(1.05275 0.0255911 -1.17666e-19)
(1.04914 0.0255895 -1.33746e-19)
(1.07481 0.0557389 2.37653e-19)
(1.0863 0.0458746 0)
(1.09101 0.0902079 0)
(-0.288695 2.40285 2.71286e-19)
(-0.335781 2.1519 1.80252e-20)
(-0.32377 2.20362 0)
(-0.237415 2.41579 -2.71003e-19)
(-0.205534 2.29706 -2.93261e-20)
(-0.210733 2.37227 4.89227e-20)
(-0.144381 2.6308 -2.43407e-19)
(-0.204616 2.61136 2.42028e-20)
(-0.190729 2.59111 -9.89486e-20)
(-0.207392 2.61305 1.60156e-19)
(-0.169806 2.58516 -1.96363e-19)
(-0.390946 1.7137 -2.05713e-20)
(-0.360512 1.94863 -4.00603e-19)
(0.365527 1.41298 -3.66745e-19)
(0.358399 1.34316 -3.42868e-19)
(0.621658 1.42701 -5.25813e-19)
(0.501188 1.49717 -2.93088e-19)
(0.540294 1.46464 0)
(0.602565 2.43671 1.32991e-19)
(0.664935 2.42214 2.43704e-19)
(0.420845 2.52403 8.22898e-20)
(0.398218 2.55752 -2.58223e-19)
(0.502037 2.50948 3.01673e-19)
(0.554271 2.4765 0)
(0.49408 2.52634 -3.77618e-19)
(0.262702 2.59415 6.68126e-19)
(0.369553 2.56497 -6.33005e-20)
(0.290452 2.65305 -1.01654e-18)
(0.94769 2.39845 3.14117e-19)
(0.839622 2.39523 0)
(1.01105 0.000491476 1.19435e-20)
(1.01511 -0.00530556 -9.71511e-21)
(1.0175 -0.00378992 -1.76425e-19)
(1.01518 -0.00132177 1.76589e-19)
(1.01251 0.00110305 0)
(0.6136 1.27987 0)
(0.645526 1.16483 0)
(0.748986 1.08138 0)
(0.632852 1.1267 0)
(1.19672 2.64594 4.80697e-20)
(1.09003 2.39033 0)
(0.83413 2.2234 -1.07538e-21)
(0.828409 2.47925 0)
(0.919715 2.56323 -5.69758e-20)
(0.952725 2.51263 3.81219e-20)
(0.82995 0.133581 0)
(0.797074 0.136991 9.49987e-20)
(0.924987 0.126745 4.97627e-19)
(0.856652 0.111167 -1.99874e-19)
(0.83218 0.0674667 -5.87624e-19)
(1.05904 0.223175 -3.21379e-19)
(0.959697 0.26759 -8.88078e-21)
(0.909653 0.306507 4.34983e-19)
(1.00037 0.218119 3.39016e-19)
(0.93385 0.169228 -6.32754e-19)
(0.897842 0.17997 8.34757e-20)
(0.911931 0.282109 -1.58214e-19)
(0.903336 0.191987 0)
(0.991084 0.173097 3.02706e-19)
(1.0369 0.186207 0)
(1.03159 0.194515 0)
(1.10107 0.114911 1.00391e-19)
(1.05245 0.168339 -1.01429e-20)
(1.05232 0.231642 -6.20819e-20)
(1.09357 0.201396 0)
(1.02602 0.0387999 2.71248e-19)
(1.04431 0.0508736 3.24483e-19)
(1.03586 0.0361727 -2.69877e-19)
(1.04738 0.0564099 -2.18665e-19)
(1.01952 0.0614498 -3.52555e-19)
(0.986945 0.140858 0)
(0.996486 0.0865958 0)
(0.970067 0.0505591 -2.43605e-19)
(0.923273 0.0753941 1.01292e-19)
(1.04147 0.0988829 3.05421e-19)
(1.06577 0.122459 -3.10097e-19)
(1.06284 0.156382 2.87286e-19)
(1.0344 0.132438 0)
(1.07634 0.105956 0)
(1.05817 0.0948514 -1.28595e-19)
(1.04855 0.0921478 -2.443e-19)
(0.59556 1.1249 -7.7985e-20)
(0.630081 1.44967 1.72119e-19)
(1.15022 2.74117 2.15891e-20)
(1.20172 3.11988 -5.51256e-20)
(1.25721 2.74678 4.29684e-19)
(1.29973 2.71826 -2.32625e-19)
(1.27546 2.33996 -3.63855e-20)
(1.18984 3.02649 1.58934e-19)
(1.20804 2.98383 -1.40778e-19)
(1.18361 3.27435 -2.24159e-19)
(1.4044 2.99163 2.76321e-19)
(1.41671 2.93147 0)
(0.555529 0.848554 -1.79487e-20)
(0.24095 1.23413 3.19931e-19)
(0.487334 0.48257 3.66171e-19)
(0.356684 0.249534 4.21697e-19)
(0.543284 0.408589 4.33955e-19)
(0.545637 0.48944 -6.81265e-19)
(0.548186 0.488752 5.60935e-19)
(0.506917 0.427522 -2.22695e-19)
(0.449534 0.366183 5.0891e-19)
(0.785953 0.250526 -2.10398e-19)
(0.749611 0.288239 0)
(0.731572 0.233073 1.06873e-20)
(0.716393 0.520984 2.17135e-19)
(0.678501 0.492477 -7.97699e-19)
(0.622662 0.486683 2.23506e-20)
(0.635881 0.462555 0)
(0.683959 0.736598 1.72815e-19)
(0.787603 0.78413 1.34425e-19)
(0.721157 0.833812 -1.61014e-19)
(0.848907 0.801169 -3.66988e-20)
(0.892326 0.839496 6.48952e-21)
(0.898613 0.848323 -6.65441e-21)
(0.838472 0.661107 -2.69281e-19)
(0.910346 0.712796 3.41413e-20)
(0.961532 0.713645 0)
(0.957234 0.688917 -3.10315e-20)
(0.999859 0.304967 8.75309e-20)
(1.12146 0.31116 2.59501e-20)
(1.0381 0.265214 1.31352e-19)
(0.95347 0.34793 -1.86852e-19)
(1.00277 0.459317 0)
(1.08802 0.412977 0)
(0.87379 0.381805 1.16073e-20)
(0.838663 0.294986 0)
(0.860679 0.274161 2.2578e-19)
(0.889831 0.305381 8.05646e-21)
(0.910289 0.435981 9.35273e-19)
(0.846106 0.511345 2.30111e-19)
(0.867512 0.460486 -2.96112e-19)
(0.80072 0.450415 3.14556e-19)
(0.790956 0.439226 2.06984e-19)
(0.77442 0.411217 -2.02949e-19)
(1.02771 -0.000313933 2.86686e-19)
(1.02028 0.000222444 0)
(1.0188 0.00111609 1.88647e-19)
(1.0224 -0.00159013 -4.24962e-19)
(1.02227 0.0040292 2.07226e-19)
(1.02007 0.0107593 -4.34304e-19)
(1.02106 0.0104276 0)
(1.02039 0.0110943 -9.12794e-20)
(1.01628 0.00728791 2.2884e-19)
(1.01673 0.0101454 -1.14851e-19)
(1.01735 0.00966854 8.40167e-20)
(0.0662625 1.31035 0)
(0.0616725 1.37091 0)
(0.0483755 1.34199 0)
(0.0252812 1.27802 0)
(0.0736367 1.36883 -5.88631e-19)
(0.0949296 1.33705 1.71885e-19)
(0.075564 1.52384 1.41951e-19)
(0.108935 1.34247 -1.83021e-19)
(0.0392115 1.47553 3.89197e-19)
(0.0329465 1.4653 -3.0305e-19)
(0.0515312 1.36655 -2.07991e-20)
(0.0476978 1.37533 3.82392e-19)
(0.0459259 1.35868 5.69544e-20)
(0.0337403 1.40187 5.18898e-20)
(0.0944913 2.41032 1.7201e-19)
(0.0966749 2.44302 0)
(0.132704 2.06453 -2.35223e-20)
(0.116264 1.68728 -8.19144e-20)
(0.232326 2.03926 1.74364e-20)
(0.210625 2.45401 0)
(0.249149 2.40614 -2.25765e-19)
(0.30071 2.40637 1.6e-19)
(0.254658 2.02805 5.91491e-20)
(0.135586 2.19079 -3.00089e-21)
(0.116808 2.30102 0)
(0.0160809 1.87178 3.75578e-19)
(-0.00546052 2.39029 3.81562e-19)
(-0.052257 2.15995 0)
(-0.000286297 2.46339 -1.02915e-20)
(-0.00492471 2.30989 -1.70924e-19)
(0.128225 1.43783 -6.87713e-20)
(0.116204 1.32222 1.18674e-18)
(0.0785958 1.39716 -3.76123e-19)
(0.136348 1.47859 -3.48652e-19)
(0.14014 1.51374 0)
(0.0614583 1.32915 0)
(-0.0953428 1.02918 -4.30039e-19)
(-0.0710957 1.18433 1.38583e-19)
(0.00219627 1.24669 0)
(-0.0456736 0.976014 -3.16984e-19)
(-0.0501664 0.93138 6.3124e-19)
(1.04008 0.0121512 0)
(1.0477 0.00819035 -2.83255e-20)
(1.03976 0.019977 -2.07948e-19)
(1.04793 0.0168235 0)
(1.05158 0.0158967 0)
(1.03509 0.00986524 -6.21213e-21)
(1.03056 0.0111158 3.41274e-19)
(1.03121 0.0146698 4.12791e-19)
(1.02655 0.0189539 0)
(1.02363 0.0201727 0)
(1.03536 0.0210929 2.08563e-19)
(1.0256 0.0247477 0)
(1.02576 0.0236019 0)
(-0.163497 2.29379 0)
(-0.339239 2.06886 -4.06762e-20)
(-0.276235 2.18987 -1.73235e-19)
(-0.0633502 1.25009 0)
(-0.260278 1.86633 -3.19702e-19)
(-0.267118 1.59156 1.51831e-19)
(-0.17258 1.24964 0)
(0.404439 1.68981 0)
(0.345007 1.28077 5.75117e-19)
(0.277294 1.33905 0)
(0.413207 1.28275 -7.57618e-19)
(0.460018 1.44993 0)
(0.438789 1.38751 3.49763e-19)
(1.03438 2.70428 -6.20043e-21)
(0.967022 2.42314 -3.96027e-19)
(0.918378 2.19469 4.34565e-19)
(0.853341 2.38928 1.34679e-19)
(0.851166 2.52233 0)
(0.917545 2.51867 0)
(0.931121 2.39318 0)
(0.910279 2.37628 -5.12802e-19)
(0.697091 2.50128 -5.51606e-20)
(0.804213 2.48652 -2.59479e-20)
(0.813548 2.46171 1.97404e-20)
(0.699341 2.40033 0)
(0.802584 2.3967 0)
(0.765419 2.40879 -2.49149e-19)
(0.771404 2.50273 0)
(0.596626 1.05851 0)
(0.524825 0.90319 -1.44364e-19)
(0.526236 0.960639 -7.1446e-21)
(0.504281 1.10599 0)
(0.493016 1.02199 2.27858e-19)
(0.755382 0.866747 -1.55489e-20)
(0.764923 1.00425 0)
(0.740291 0.977345 -1.80951e-20)
(0.636124 1.01375 0)
(0.632441 0.933379 0)
(1.16498 2.77532 1.24739e-20)
(1.14134 2.83414 9.02755e-20)
(0.931411 2.36838 -2.38275e-19)
(0.905126 2.34592 2.20209e-20)
(1.13311 2.75418 0)
(1.08426 2.7245 -2.63906e-20)
(1.09878 2.51268 -1.04699e-19)
(0.999387 2.25799 -2.84003e-20)
(0.504234 1.37228 0)
(0.517405 1.09824 6.87143e-20)
(0.563004 1.16112 0)
(0.882529 0.197683 0)
(0.818519 0.161309 0)
(0.75956 0.15868 0)
(0.874721 0.207615 -3.52986e-19)
(0.808313 0.211102 2.1807e-19)
(0.933639 0.0629554 -2.08565e-19)
(0.946077 0.110121 0)
(0.921294 0.113479 9.23311e-20)
(0.8795 0.0795883 3.73688e-19)
(0.858347 0.0546807 -2.30909e-19)
(1.10678 3.36939 -8.97049e-19)
(1.17004 3.29179 0)
(1.12702 3.45387 -1.94062e-18)
(0.665102 3.59868 1.64006e-18)
(1.03761 3.09758 3.67162e-19)
(0.525984 0.839349 2.75279e-19)
(0.516029 0.81331 0)
(0.385208 0.512947 -9.14875e-20)
(0.459682 0.688231 4.57697e-19)
(0.515402 0.487873 -1.22751e-19)
(0.507564 0.524401 1.42363e-19)
(0.665591 0.554724 2.86101e-19)
(0.696906 0.581842 0)
(0.630334 0.620039 0)
(0.597993 0.572358 0)
(0.957985 0.600043 -2.71939e-20)
(0.899809 0.552728 -2.21167e-19)
(0.929148 0.59137 1.04311e-19)
(0.96888 0.49932 -1.61622e-19)
(1.02495 0.48458 0)
(1.03521 0.589076 -1.53096e-20)
(0.829892 0.392988 -4.55331e-19)
(0.826772 0.389527 -5.54929e-19)
(0.801442 0.379302 3.61053e-19)
(0.795832 0.3497 -3.987e-19)
(0.834918 0.309231 -2.97705e-19)
(0.804461 0.307172 3.65444e-19)
(1.02632 0.00585123 -2.15811e-19)
(1.02593 0.00608002 4.37421e-19)
(1.02962 0.000224502 2.73741e-19)
(1.03369 0.0010805 -3.29062e-19)
(1.0335 0.0103737 0)
(1.02924 0.00907846 -5.3414e-19)
(0.0371572 1.66556 -5.30706e-20)
(0.0262733 1.58724 0)
(0.0993731 1.71362 -4.73558e-19)
(0.103261 1.68124 4.33595e-19)
(0.0563235 1.5495 -2.66515e-19)
(0.0382052 1.51614 0)
(0.0789987 1.9793 0)
(0.0572766 1.54628 1.49922e-19)
(-0.0299326 1.47084 -1.35461e-19)
(-0.130344 1.79913 -2.55569e-21)
(-0.125035 2.22713 2.65762e-19)
(-0.0791726 2.20183 -1.00254e-19)
(0.491056 1.38606 3.01193e-19)
(0.494224 1.38577 -3.21281e-19)
(0.4283 1.27992 3.83288e-19)
(0.420729 1.30082 -2.06582e-20)
(0.608088 1.29352 0)
(0.537222 1.37982 4.68157e-19)
(0.539166 1.38646 -4.55087e-19)
(0.451893 1.25719 -3.66986e-19)
(0.497786 1.22106 0)
(0.566847 1.19556 0)
(0.671152 2.46288 8.14146e-20)
(0.665568 2.48038 6.80034e-19)
(0.723114 2.49474 -4.66158e-19)
(0.625598 2.46835 -1.29799e-19)
(0.552094 2.57133 1.19059e-19)
(0.493936 2.5267 -3.43182e-19)
(0.97857 2.39403 -2.40401e-19)
(1.0211 2.41765 0)
(0.932483 2.17812 -2.84274e-19)
(1.05303 2.70401 0)
(1.05367 2.69094 0)
(0.624373 2.32238 2.95796e-19)
(1.12737 3.09134 3.77867e-19)
(1.01197 2.99324 -4.53426e-19)
(0.33918 0.888848 0)
(0.361618 0.803198 -1.70554e-19)
(0.550876 0.725536 -1.13542e-19)
(0.390779 2.17077 0)
(0.412592 2.75347 -2.58236e-19)
(0.426345 2.4952 0)
(0.686451 0.697297 -3.65182e-19)
(0.740886 0.689053 5.05859e-19)
(0.744609 0.657653 -5.05259e-19)
(0.666824 0.667005 -5.14859e-20)
(0.718917 0.619463 -2.14385e-19)
(0.985491 2.77572 -2.86262e-19)
(1.01907 2.77625 1.56937e-19)
(0.579627 2.2534 -4.77204e-20)
(0.625404 1.76282 -1.55075e-20)
(0.720892 1.88559 -7.16355e-20)
(0.98746 2.41584 -9.88409e-20)
(0.985079 2.37377 -5.77538e-21)
(0.673901 1.80796 6.17094e-21)
(0.478706 1.33473 -9.06485e-21)
)
;

boundaryField
{
    wall-4
    {
        type            noSlip;
    }
    velocity-inlet-5
    {
        type            fixedValue;
        value           uniform (1 0 0);
    }
    velocity-inlet-6
    {
        type            fixedValue;
        value           uniform (0 3 0);
    }
    pressure-outlet-7
    {
        type            zeroGradient;
    }
    wall-8
    {
        type            noSlip;
    }
    frontAndBackPlanes
    {
        type            empty;
    }
}


// ************************************************************************* //
