/*--------------------------------*- C++ -*----------------------------------*\
  =========                 |
  \\      /  F ield         | OpenFOAM: The Open Source CFD Toolbox
   \\    /   O peration     | Website:  https://openfoam.org
    \\  /    A nd           | Version:  6
     \\/     M anipulation  |
\*---------------------------------------------------------------------------*/
FoamFile
{
    version     2.0;
    format      ascii;
    class       volScalarField;
    location    "20";
    object      p;
}
// * * * * * * * * * * * * * * * * * * * * * * * * * * * * * * * * * * * * * //

dimensions      [0 2 -2 0 0 0 0];

internalField   nonuniform List<scalar> 
918
(
0.187589
0.955196
0.00921151
0.187317
-0.000928035
0.923348
-0.853633
0.36923
0.168511
-0.483504
-0.0815417
0.1599
0.780168
0.546959
-1.53337
0.00308828
0.328434
-0.736724
0.166005
-0.00346559
0.437065
0.175432
0.17788
0.168564
0.226526
0.512941
0.657155
-7.61424e-05
-0.00107167
-0.00465562
0.00437581
-0.00518836
-0.00153266
0.806486
0.858427
0.881537
0.137072
-0.0292444
-0.731653
-0.790295
-0.762799
-0.896364
0.355841
0.35874
-0.520673
0.36815
0.383284
0.154434
0.167753
0.168579
0.170175
0.168842
0.170251
0.144992
-0.488145
-0.522123
-0.466146
-0.453338
-0.110456
-0.116383
-0.164312
-0.0539515
-0.03712
0.0932291
0.157519
0.155545
0.164437
0.174715
0.895371
0.86905
0.895023
0.806087
0.823541
0.757055
0.729912
0.568953
0.592095
0.529422
0.517729
-2.0052
-2.97204
-0.94213
-0.651423
0.00052979
0.00358763
0.00350522
0.313152
0.313873
0.32462
0.337101
0.688686
-0.716051
-0.874638
0.166359
0.164993
0.174663
0.175662
0.170571
0.170661
0.00443316
0.0112432
-0.0113691
-0.00325777
-0.00672977
0.421974
0.417246
0.168001
0.165459
0.184666
0.209309
0.19664
-0.0702277
0.236734
0.254672
0.355859
0.513488
0.504052
0.515033
0.632741
0.599545
0.688932
0.710458
0.0138782
0.00385442
-0.00506401
-0.00156114
-0.00508904
0.133354
0.127808
0.150548
0.140471
0.14337
-0.124775
-0.276854
0.0517533
0.0738195
-0.640611
-0.689514
-0.816848
-0.804016
-0.88876
0.184028
0.351237
0.350402
-0.54028
-0.457371
-0.593725
-0.396498
-0.459235
0.147072
0.152304
0.149191
0.163217
0.157053
0.159803
0.171804
0.168976
0.170533
0.16095
0.286169
0.0786709
0.0228469
-0.61119
-0.545801
-0.598732
-0.433314
-0.384492
-0.105003
-0.110557
-0.104446
-0.0633056
-0.34296
-0.221208
-0.283305
-0.0189267
-0.0125364
0.085168
0.074879
0.102723
0.108805
0.147844
0.149905
0.152598
0.150828
0.680866
0.703645
0.709937
0.686313
-3.96968
-6.64011
-0.290908
-0.12263
0.00205422
0.00285768
0.00204417
0.00453582
0.00246729
0.000546163
-0.0186667
-0.0117615
0.00264413
-0.00175212
0.30241
0.304726
0.641244
0.67307
0.651397
0.643252
0.155425
0.1576
0.162366
0.159168
-0.000274864
0.0110021
0.00371776
0.384923
0.401059
0.396801
-0.108604
-0.194605
-0.0231873
0.00574569
0.293688
0.26831
0.288509
0.418184
0.457177
0.726899
0.75172
0.735304
0.74856
0.799709
0.822701
0.787773
0.113563
0.123474
0.117978
0.154317
0.152083
0.153131
0.147469
0.149217
0.146902
-0.391643
-0.769224
0.134481
0.140935
0.11138
0.117483
0.262616
0.347568
0.334732
0.340437
0.344222
-0.348889
-0.402403
0.005838
-0.028166
0.031761
0.064205
0.0477623
0.656314
0.617046
0.664907
0.640414
0.605348
0.629447
-0.706637
-2.4991
-1.47728
0.295109
0.0900532
0.185224
-0.0306053
-0.0364503
-0.0249174
0.677864
0.71224
0.328241
0.52143
0.480261
0.486007
0.51419
0.573155
0.502535
0.53882
0.573342
0.55133
0.1533
0.134112
0.131506
0.432642
0.499399
-0.228853
-0.297057
-0.329261
-0.111362
-0.062045
-0.087464
0.678307
0.565395
0.635341
0.166099
0.166896
0.0112229
0.0155743
0.170432
0.170317
0.00529873
0.00380435
0.201917
-1.31435
-0.211153
0.159609
0.149901
0.166362
-0.447645
-0.0179119
-0.11628
-0.092947
0.0572897
0.157051
0.103713
0.0695558
0.0050425
0.0112896
-0.00624633
-0.525241
0.16382
0.162289
0.165902
0.166924
0.16764
0.00510172
0.00689829
0.00472022
-0.0028388
-9.4525e-06
-0.0024166
0.132546
0.148787
-0.523512
0.165936
0.16806
0.167864
0.161566
0.166894
0.165196
0.0093485
0.00450316
-0.00128112
-0.124555
0.000767127
0.40268
0.490773
0.340441
0.164069
-0.144835
0.328774
0.38771
0.303971
0.446176
0.337677
0.34866
-0.150549
-0.292476
-0.153169
-0.208629
0.157154
0.156248
0.147644
0.145385
0.161572
0.159426
0.164
0.161072
0.163878
0.165182
-0.480205
-0.458613
-0.438362
-0.501515
0.00437756
0.236435
-0.14891
0.00501914
-0.118626
-0.0905466
-0.0592726
-0.189964
-0.231172
-0.211477
0.0143381
-0.0257902
-0.0916106
0.0634297
-0.0107387
-0.148961
-0.035063
-0.0908681
0.151041
0.149081
0.157561
0.164358
0.111621
0.11366
0.0857408
0.10208
0.0892719
0.0385183
0.0664381
0.0440467
0.00622003
0.00672598
0.00490352
0.0148138
0.0100669
0.00634735
0.00786664
0.0100503
0.00213593
0.00442503
-0.00360746
0.00508671
-0.497656
-0.622829
0.630346
0.592186
-0.198064
0.153229
0.159369
0.156206
0.161033
0.163949
0.164446
0.162354
0.158892
0.149076
0.151042
0.147084
0.147296
-0.468691
-0.573533
-0.402819
-0.470025
-0.205273
0.277077
0.00709322
-0.041475
-0.0557907
0.156904
0.345704
0.312111
0.41505
0.418276
-0.759677
-0.32783
-0.677414
-0.132862
-0.15727
0.423076
0.468573
0.487897
0.442668
0.395084
-0.385266
0.168786
-0.388026
-0.346293
-0.163566
-0.262307
0.383775
0.317893
0.323398
0.341114
0.364575
0.328711
0.308611
0.304705
0.334057
0.339479
0.151193
-0.0930311
-0.12337
-0.173159
0.305665
0.183418
0.234759
0.159134
0.151995
0.154787
0.153253
0.137417
0.143113
0.139624
0.143959
0.14742
0.156443
0.156544
0.152246
0.15421
-0.448534
-0.434424
-0.455081
-0.475164
-0.488185
-0.536046
-0.444496
-0.265915
-0.364759
-0.0727329
0.041647
-0.272715
-0.433906
-0.396399
-0.356166
-0.13397
-0.132185
-0.475155
-0.133987
-0.346489
-0.380132
-0.107017
-0.0425016
-0.204677
-0.267299
-0.332595
-0.236297
-0.14288
-0.16483
-0.178523
-0.0246349
-0.0724814
-0.0456194
-0.0185553
-0.403819
-0.380814
-0.354573
-0.518634
0.010411
0.0120036
0.0121189
-0.00202031
0.00948624
0.0115298
0.146924
0.146374
0.148314
0.159858
0.171727
0.186583
0.155343
0.130682
0.123373
0.125295
0.100511
0.108871
0.103791
0.11762
0.136915
0.143828
0.141658
0.144111
0.129506
0.130075
0.118274
0.122613
0.0987561
0.0828389
0.0755809
0.00823989
0.00607904
0.00657342
0.00575447
0.00890411
0.00905559
0.0176989
0.0160515
0.0151825
0.0140572
0.000774681
0.0120913
0.00871616
-0.425272
-0.361418
-0.53068
-0.573663
-0.63161
0.544206
0.655538
0.479038
0.273402
0.262975
0.480719
0.5695
0.252025
0.396223
0.451862
0.161825
0.447552
0.157777
0.156671
0.154765
0.154037
0.155202
-0.370134
-0.275599
-0.247904
-0.201663
-0.0837833
0.0243265
-0.0587612
-0.18496
-0.0478424
-0.0160988
0.272221
0.286132
0.229577
0.256066
0.256525
0.0771419
0.153635
0.196996
0.147048
0.211829
0.243485
0.189947
0.234582
0.16074
0.116671
0.110955
0.0603408
0.0954971
0.0762659
0.0504533
0.14817
0.12833
0.137494
0.131435
0.14766
0.177807
0.17516
0.193751
0.209884
0.134511
0.0901935
0.104573
0.129393
0.0922207
0.106294
0.123775
-0.183334
-0.27673
-0.117138
-0.460662
-0.351141
-0.315551
-0.354921
-0.413206
-0.102679
-0.753456
-0.685138
-1.37408
0.10629
0.51835
0.345386
0.362309
0.361405
0.338837
0.349413
0.373037
0.379982
0.296746
0.307165
0.313919
0.267776
0.300813
0.309035
0.315109
0.139894
0.0625041
0.0528856
0.00056551
-0.130831
-0.0955393
0.0789758
0.019726
-0.0448284
-0.04535
0.117465
-0.00230328
0.0668318
0.117043
0.061454
-0.00330372
0.207291
0.266094
0.252178
0.221638
0.139274
0.155601
0.181248
0.220857
0.241409
0.271955
0.14434
0.149992
0.150687
0.148015
0.146754
0.14898
0.148678
0.151409
0.152247
0.154667
0.153977
-0.307434
-0.356723
-0.413111
-0.355534
-0.552007
-0.524168
-0.426231
-0.460306
-0.467483
-0.544943
-0.544608
-0.49428
-0.441179
-0.419143
-0.370408
-0.343797
-0.286571
-0.357516
-0.0752043
0.110409
0.150332
0.0242689
-0.112989
-0.0902214
0.0174283
-0.373118
-0.216243
-0.261199
-0.238279
-0.387285
-0.0882349
-0.07047
-0.0768936
-0.0806756
-0.121562
-0.048698
0.00351753
-0.00522805
-0.0181706
-0.00606403
0.00251624
0.133812
0.128149
0.125298
0.120303
0.120298
0.130969
0.136064
0.137915
0.142804
0.144513
0.136679
0.141847
0.144161
0.0158109
0.0110505
0.0157897
0.000186577
0.00700029
0.0102005
0.00427158
-0.253729
-0.3164
-0.282105
-0.353938
-0.476157
-0.415439
0.108325
0.0929516
0.118737
0.316225
0.169726
0.0775771
0.158761
0.265073
-0.108689
0.10004
-0.0708479
0.518513
0.402844
0.546652
0.184621
-0.11957
0.029666
0.0439247
-0.112154
0.00689019
-0.0172236
-0.135487
-0.0965274
-0.0813689
-0.00418874
-0.111568
-0.133562
-0.377974
-0.202695
-0.0835469
-0.103958
0.0333169
0.0928043
-0.11137
-0.192365
-0.246088
0.26498
0.281359
0.294674
0.266723
0.289726
0.216315
0.209326
0.227309
0.237491
0.228627
-1.01545
-0.603393
-1.81567
-1.22925
-0.782618
0.132361
0.115567
0.366293
0.278961
0.352968
0.337688
0.28025
0.247034
0.260824
0.295672
-0.00482812
0.10256
0.0648661
0.0848742
0.0194877
-0.0588909
0.233781
0.230787
0.258656
0.28097
0.256985
0.282912
0.142968
0.141874
0.142155
0.139261
0.137245
0.139057
-0.501693
-0.561162
-0.432732
-0.432918
-0.472679
-0.523873
0.0190894
-0.00267928
-0.00135159
0.00349952
0.0256634
0.0167601
-0.212811
-0.268443
-0.344547
-0.318725
-0.369511
-0.429857
-0.443122
-0.354115
-0.265666
-0.286859
0.023765
0.304839
0.128485
0.305868
0.0930178
0.199096
0.11315
0.0935174
0.129071
0.00223421
0.0821432
-0.367206
-0.546697
-0.611186
0.423071
0.37694
0.17258
-0.0845711
-0.199272
0.107101
0.165745
0.132018
0.167846
0.212195
0.208235
-0.374582
-0.278183
-0.218466
0.080116
-0.100161
-0.0880003
-0.0864159
0.0491741
0.0312068
)
;

boundaryField
{
    wall-4
    {
        type            zeroGradient;
    }
    velocity-inlet-5
    {
        type            zeroGradient;
    }
    velocity-inlet-6
    {
        type            zeroGradient;
    }
    pressure-outlet-7
    {
        type            fixedValue;
        value           uniform 0;
    }
    wall-8
    {
        type            zeroGradient;
    }
    frontAndBackPlanes
    {
        type            empty;
    }
}


// ************************************************************************* //
