/*--------------------------------*- C++ -*----------------------------------*\
  =========                 |
  \\      /  F ield         | OpenFOAM: The Open Source CFD Toolbox
   \\    /   O peration     | Website:  https://openfoam.org
    \\  /    A nd           | Version:  6
     \\/     M anipulation  |
\*---------------------------------------------------------------------------*/
FoamFile
{
    version     2.0;
    format      ascii;
    class       volVectorField;
    location    "20";
    object      U;
}
// * * * * * * * * * * * * * * * * * * * * * * * * * * * * * * * * * * * * * //

dimensions      [0 1 -1 0 0 0 0];

internalField   nonuniform List<vector> 
918
(
(0.984994 -0.000756715 0)
(0.00530772 2.96627 0)
(-0.0155093 1.58474 0)
(0.979619 0.00188915 0)
(-0.00424637 1.56063 4.40698e-21)
(-0.00705195 2.94854 -1.96412e-18)
(0.845177 1.17438 7.44647e-19)
(0.437182 0.172645 -8.08033e-21)
(0.999914 -0.000297872 0)
(0.0792173 0.731752 0)
(-0.0346069 1.08558 0)
(0.769179 -0.00936794 0)
(0.0101814 2.93152 0)
(0.00282632 2.79405 0)
(-0.000937367 3.20345 1.15612e-18)
(-0.00275855 1.45507 -3.13048e-21)
(0.544301 0.0669454 5.06853e-19)
(0.220157 1.13512 6.71905e-19)
(0.965098 0.00688097 0)
(-0.00213752 1.30753 0)
(0.16642 0.254465 -4.31459e-19)
(1.00205 -0.00450309 0)
(0.999964 -0.00887047 0)
(0.975219 -0.00628313 0)
(0.685935 -0.0289081 0)
(0.0244787 2.63901 0)
(-0.0126437 2.91213 6.74261e-19)
(-0.0270694 1.60592 0)
(-0.0307856 1.73897 0)
(-0.0276841 1.59949 0)
(-0.00768437 1.84141 0)
(-0.00182112 1.58517 -3.48587e-21)
(-0.00339972 1.46659 0)
(-0.022248 2.98758 -6.90159e-23)
(-0.0165395 3.00552 1.52692e-18)
(0.00230153 3.00066 0)
(0.873008 -0.00687828 0)
(0.362626 0.908183 -5.9489e-20)
(0.851854 1.18463 -1.10276e-18)
(0.987933 1.03512 1.0065e-18)
(0.713632 1.26795 -1.72994e-19)
(0.723753 1.24729 9.79803e-19)
(0.474152 0.265589 7.88345e-21)
(0.468193 0.153963 0)
(1.17583 0.52731 0)
(0.436999 0.287406 3.68373e-20)
(0.394958 0.194327 -3.8226e-20)
(0.920545 -0.00609121 0)
(1.00034 4.78529e-05 0)
(0.99991 0.000320112 0)
(1.00345 -0.00758898 0)
(1.00094 -0.0011479 0)
(1.00014 -6.75394e-05 0)
(0.0275689 1.78698 -2.57591e-19)
(0.0598177 0.885111 0)
(0.117737 0.831341 0)
(0.0214056 0.824381 0)
(0.0265264 0.683674 0)
(0.0259598 1.53652 0)
(-0.0520482 1.16396 0)
(-0.0462465 0.966076 0)
(-0.0339694 1.28263 0)
(-0.0234513 1.16862 0)
(0.850079 -0.00301019 0)
(0.867367 0.013412 0)
(0.783728 -0.00449267 0)
(0.859368 0.0183454 0)
(0.750244 -0.0122659 0)
(0.0140009 3.00016 7.20266e-19)
(0.0112657 3.0057 0)
(0.00644242 3.00399 0)
(0.0119035 2.99697 8.05022e-24)
(0.00835455 2.95871 -1.07049e-18)
(0.0122208 2.98298 0)
(0.0089395 2.90477 0)
(0.0214108 2.93109 1.47575e-24)
(0.00386356 2.82421 0)
(0.0269072 2.91828 0)
(-0.00111246 2.74382 0)
(0.311714 3.60538 0)
(-0.12327 3.68931 0)
(0.153347 3.29433 -1.07605e-18)
(0.00765781 3.02382 0)
(-0.0199028 1.81846 0)
(0.00306958 1.61934 3.08802e-21)
(-0.00305454 1.46419 -2.81027e-21)
(0.5988 0.136076 -1.74084e-19)
(0.55035 0.0282671 -1.65774e-19)
(0.586892 0.172186 -5.23362e-19)
(0.536428 0.100406 -3.52204e-19)
(0.251409 0.926597 0)
(0.310916 1.28163 -6.60782e-19)
(0.379021 1.26804 1.08972e-18)
(0.988429 0.00826104 0)
(0.944293 0.00655236 0)
(1.00029 0.000729302 0)
(1.0025 0.0091531 0)
(1.00311 0.00911525 -8.66396e-19)
(0.992071 0.00945924 6.54979e-19)
(-0.0150192 1.47259 0)
(-0.00592487 1.29033 0)
(-0.0345561 1.60981 0)
(-0.023721 1.51192 0)
(-0.00635116 1.34755 0)
(0.222218 0.263709 1.33391e-19)
(0.261914 0.238343 0)
(0.99373 -0.00730059 0)
(0.954065 -0.00647303 0)
(0.828706 0.0262569 0)
(0.79382 0.0360816 0)
(0.724197 -0.0208992 0)
(1.00527 0.00074289 0)
(0.744354 0.046875 0)
(0.603986 -0.0239873 6.45423e-19)
(-0.0396362 2.86334 3.91368e-19)
(0.0348275 2.91321 0)
(0.0442782 2.89011 0)
(0.0029886 2.69947 0)
(-0.00847939 2.98639 6.29366e-19)
(-0.0144866 2.89496 0)
(-0.0110053 2.99178 -1.97044e-18)
(-0.0116696 2.92983 6.75795e-19)
(-0.0265959 1.81581 0)
(-0.0210317 1.8126 0)
(-0.000226087 1.6102 9.54623e-23)
(0.000557763 1.58324 0)
(-0.00494888 1.46513 0)
(0.936006 -0.00311478 0)
(0.857586 -0.00770328 0)
(0.868981 0.00881623 0)
(0.948577 -0.00412329 0)
(0.884191 -0.00576156 0)
(0.489208 1.11029 6.18411e-20)
(0.539188 1.18541 0)
(0.318514 0.835059 9.48521e-22)
(0.26346 0.702395 0)
(0.947527 1.06825 -2.94334e-19)
(1.06554 0.860344 5.96228e-19)
(0.483472 1.35643 0)
(0.563889 1.3419 0)
(0.591045 1.25624 0)
(0.0936487 0.124766 -1.03388e-19)
(0.501743 0.245895 0)
(0.483329 0.151368 1.00617e-19)
(1.02647 0.916053 0)
(1.09278 0.754425 0)
(1.12388 0.688594 -5.2128e-19)
(1.15435 0.593762 0)
(1.2101 0.386623 4.77859e-20)
(0.955916 -0.00600845 0)
(0.962298 -0.00768927 0)
(0.899133 -0.00653582 0)
(0.983993 -0.00750575 0)
(0.974696 -0.0073532 0)
(0.936339 -0.0057355 0)
(1.00027 0.00252002 0)
(1.00084 0.00129235 0)
(0.999984 0.000772808 0)
(-0.0184015 2.0419 1.51846e-19)
(0.148669 1.73469 0)
(-0.0643813 2.03784 1.58022e-19)
(-0.00570609 1.81955 -6.16876e-20)
(0.126407 1.13355 -5.57672e-19)
(0.0702939 1.00722 0)
(0.170724 0.955905 0)
(-0.0144628 0.825396 0)
(-0.025038 0.726247 0)
(0.0333264 1.72892 1.38128e-21)
(-0.0212732 1.5641 0)
(0.0545984 1.71174 7.30705e-20)
(0.00788934 1.51534 -1.13695e-19)
(-0.0424637 0.895887 0)
(-0.0570924 1.02679 0)
(-0.0388272 0.836644 0)
(-0.025097 1.37202 0)
(-0.0153054 1.22275 0)
(0.938742 0.0164986 0)
(0.873709 0.000478068 0)
(0.922545 0.00835443 0)
(0.845359 -0.00546189 0)
(0.818561 0.00379257 0)
(0.906751 0.0142384 0)
(0.887553 0.0127979 0)
(0.794917 3.3566e-05 0)
(0.0104079 3.0671 -6.32019e-21)
(0.0148612 3.05965 0)
(0.0124789 2.97044 0)
(0.00754224 2.87646 0)
(0.901932 4.00526 0)
(1.19774 3.39516 1.03061e-18)
(0.0842272 3.10488 0)
(-0.0146923 2.92604 0)
(-0.0251747 1.80291 0)
(-0.0263546 1.81268 0)
(-0.0230607 1.80607 0)
(-0.0109448 1.82988 4.1577e-21)
(-0.0192949 1.82821 0)
(-0.0154547 1.8255 0)
(-0.000255337 1.49176 -1.08512e-20)
(0.00688696 1.67256 -1.34041e-20)
(0.0023755 1.63896 2.95505e-21)
(-0.00558815 1.47417 0)
(0.615342 0.107569 2.56236e-19)
(0.548025 0.00370666 -2.49625e-19)
(0.247549 1.52608 0)
(0.301267 0.658271 -2.1107e-19)
(0.20509 1.62577 -7.13677e-19)
(0.261319 1.15873 7.14074e-19)
(0.904665 0.00789896 0)
(0.967873 0.0109758 0)
(0.975595 0.0101467 0)
(0.924889 0.00778268 0)
(-0.0212867 1.43159 0)
(-0.0171515 1.45938 0)
(-0.0108097 1.25833 0)
(0.382187 0.297444 3.39229e-19)
(0.332462 0.27371 -4.1387e-19)
(0.345213 0.219083 0)
(1.12787 0.0881368 -8.9253e-21)
(1.11512 0.0419313 0)
(1.03782 0.0421442 0)
(0.941282 0.00904031 0)
(0.634434 0.0805604 0)
(0.681474 0.0612018 -1.04874e-18)
(0.557466 -0.0132679 4.0872e-19)
(0.0115044 2.97786 4.75102e-19)
(-0.0330258 2.86317 4.61618e-20)
(0.00841212 3.05315 -1.35889e-20)
(0.0153213 3.0436 5.18452e-19)
(-0.0119231 3.00008 2.25141e-20)
(-0.0122104 2.95244 -9.15117e-23)
(-0.0149931 3.01339 -4.32633e-19)
(0.0139081 3.02698 3.02881e-19)
(0.00744029 3.03438 -4.85056e-19)
(0.927473 0.00327813 0)
(0.933605 -4.34474e-05 0)
(0.84835 -0.00611768 0)
(0.957572 0.0113448 0)
(0.94427 0.0128274 0)
(0.885677 0.00951536 0)
(0.92312 0.0141615 0)
(0.930285 0.0122447 0)
(0.847252 0.00716832 0)
(0.667701 1.41837 3.21426e-19)
(0.688625 1.5322 0)
(0.182993 0.367186 1.90802e-20)
(0.148486 0.538748 1.51207e-19)
(0.227374 0.653875 -8.32659e-20)
(0.193585 0.545598 1.50195e-19)
(0.294611 0.689207 6.176e-19)
(0.113335 0.163968 2.02127e-19)
(0.558984 0.215516 3.81042e-19)
(0.530745 0.235876 9.2585e-20)
(0.505093 0.132757 1.90198e-19)
(1.20119 0.442954 3.42308e-19)
(1.22737 0.242077 3.59557e-19)
(-0.0221585 1.99658 1.33964e-20)
(0.00244324 1.76996 0)
(0.986614 0.0330022 0)
(0.951748 0.0221085 0)
(0.89806 0.000217274 0)
(0.0119525 3.07512 0)
(0.0170823 2.94375 8.60907e-19)
(0.0141503 2.95688 0)
(0.00578427 2.84978 -8.54506e-19)
(0.00880059 3.09005 2.06185e-19)
(0.0120044 3.0829 0)
(0.710036 1.83303 -2.55812e-19)
(1.2418 2.64698 8.50442e-19)
(0.695943 2.01372 -1.67454e-18)
(0.0234958 2.97913 -3.61203e-19)
(0.0428736 3.00548 0)
(-0.0368029 2.88328 0)
(0.0454934 1.69194 1.66912e-20)
(0.0197452 1.70619 5.1181e-20)
(0.0183087 1.50397 -2.55883e-21)
(0.267531 1.30945 6.8366e-19)
(0.260548 0.43992 -4.70277e-19)
(0.0524536 1.96008 4.16984e-19)
(0.128373 1.80862 -5.53453e-19)
(0.229292 1.5174 1.0365e-19)
(0.00532268 3.12051 -1.17242e-18)
(0.014578 3.12066 1.29127e-18)
(-0.00479222 2.9808 5.5995e-19)
(-0.000849786 2.97557 -5.07478e-19)
(-0.017708 2.87815 -5.70329e-19)
(0.0123306 3.10047 -1.51081e-18)
(0.00575471 3.10505 1.51816e-18)
(0.191383 0.571745 0)
(0.137267 0.532658 -3.06245e-19)
(0.0839552 0.173279 1.36458e-19)
(0.313346 0.796358 6.13212e-19)
(0.175997 0.207783 -9.33309e-19)
(1.2144 0.170232 -8.10148e-20)
(1.22475 0.299856 0)
(1.211 0.11413 1.45966e-19)
(0.00139442 1.81358 1.97355e-21)
(-0.0297897 1.90903 0)
(-0.0245843 1.66776 0)
(0.308963 1.21627 -2.39255e-19)
(0.329476 1.02815 -5.0478e-19)
(0.217117 0.317334 8.6737e-19)
(1.00649 -0.0100527 0)
(1.0076 -0.00759911 1.57816e-19)
(-0.0279618 1.80253 0)
(-0.0361155 1.81113 0)
(1.00252 0.00359123 1.54227e-21)
(1.00318 0.00770227 3.25869e-19)
(-0.0110854 1.8355 -5.64183e-21)
(-0.00584956 1.83511 0)
(0.047063 3.179 1.84144e-19)
(0.384019 3.56704 0)
(1.08517 0.684776 7.80403e-20)
(1.0122 0.0112629 -2.35288e-21)
(1.02107 -0.00947514 0)
(1.00167 3.15389e-05 1.81037e-23)
(0.136775 1.19825 0)
(0.191384 2.6407 0)
(-0.218381 1.36813 0)
(-0.195459 2.40319 -1.04093e-19)
(-0.113109 2.07574 4.64736e-20)
(1.00773 0.0176373 3.43734e-21)
(1.04607 0.00865397 0)
(1.0756 0.0281904 0)
(-0.0281022 1.81643 0)
(-0.024059 1.87464 0)
(-0.037557 1.77527 0)
(0.266839 1.45777 -4.52846e-19)
(1.01104 -0.00858157 0)
(1.0099 -0.0143399 0)
(1.00226 0.0003295 1.99448e-19)
(1.00599 -0.00545427 -2.38016e-19)
(1.00126 -0.00106681 0)
(-0.0336512 1.80764 0)
(-0.0296922 1.79918 0)
(-0.0299564 1.8043 0)
(-0.0343635 1.77853 0)
(-0.0313806 1.78555 0)
(-0.032668 1.78582 0)
(1.02927 -0.0114825 0)
(1.01895 0.0112478 -1.03581e-21)
(0.762232 1.30964 5.61803e-19)
(1.00291 0.000241912 -2.00901e-19)
(1.00386 0.00492329 2.41827e-19)
(1.00115 0.00196391 0)
(1.01202 0.00968796 1.94759e-19)
(1.0071 0.00807133 -2.45056e-19)
(1.00779 0.011793 0)
(-0.0216419 1.87279 0)
(-0.012104 1.85214 3.73456e-21)
(-0.0113484 1.85294 -1.36944e-21)
(1.19528 0.265742 -1.77484e-19)
(1.12884 0.0937695 0)
(0.0529571 3.0893 -5.64449e-19)
(0.0532973 2.86682 -4.27557e-20)
(0.111923 3.20364 7.15588e-19)
(0.127163 3.21732 -7.31906e-20)
(0.152843 3.26984 0)
(0.0248117 3.13886 1.39179e-19)
(0.0671359 3.16279 5.59089e-19)
(0.0669487 3.1822 -2.63846e-19)
(0.0294004 3.12818 0)
(0.657837 0.334597 0)
(0.623123 0.375429 0)
(1.07747 0.709952 -2.87502e-19)
(1.03839 0.85802 4.35189e-19)
(1.13468 0.603559 0)
(1.161 0.536235 0)
(1.01524 0.012027 -3.57171e-19)
(1.01407 0.0125223 4.46319e-19)
(1.02529 -0.00902797 0)
(1.02374 -0.0108615 0)
(1.00697 0.00277724 0)
(1.00998 0.00329574 0)
(1.00421 0.00183991 0)
(1.00956 0.00700074 0)
(1.00789 0.00483057 0)
(1.00459 0.00514916 0)
(0.142732 1.21132 0)
(0.0892913 1.04815 0)
(0.212318 1.28373 0)
(0.142316 1.31027 0)
(0.171508 2.61852 0)
(0.226857 2.64997 -1.86628e-19)
(0.0880546 2.70535 0)
(0.0860541 2.68763 -3.98888e-20)
(-0.164563 2.68087 1.69047e-19)
(-0.17209 1.42127 0)
(-0.154504 1.47026 0)
(-0.217796 1.33278 0)
(-0.186793 1.19574 0)
(-0.399175 2.12269 1.39379e-19)
(-0.168606 2.18531 -1.30101e-20)
(-0.183071 2.38215 -6.319e-20)
(-0.124989 2.26656 0)
(-0.104389 2.07017 -8.60799e-20)
(-0.0689545 2.02212 -5.66726e-21)
(-0.419023 2.09767 -1.34144e-19)
(-0.272977 2.12488 1.69888e-20)
(-0.274746 2.25874 8.31749e-20)
(1.01797 0.0259586 3.51102e-19)
(1.01564 0.0135389 -4.27804e-19)
(1.00859 0.0273965 -3.71168e-19)
(0.9924 0.017142 4.7375e-19)
(1.0461 0.0101554 0)
(1.03242 -0.00812875 0)
(1.06988 0.0396752 0)
(1.05388 0.0191986 0)
(1.05493 0.0125235 0)
(1.10724 0.0759624 0)
(1.08361 0.0499147 0)
(1.09544 0.0421935 0)
(-0.0200552 1.83941 -1.26405e-21)
(-0.0308505 1.82915 0)
(-0.0230718 1.8299 0)
(-0.0376677 1.90093 8.56148e-21)
(-0.0323309 1.90893 -1.4808e-22)
(-0.0520592 1.81369 8.37371e-21)
(-0.0403654 1.81019 -8.47783e-21)
(-0.04621 1.78925 0)
(-0.0388536 1.79913 0)
(-0.0384272 1.79902 0)
(-0.0493966 1.76074 0)
(-0.0360079 1.72818 0)
(0.37155 1.48714 8.76461e-19)
(0.378327 1.49221 3.49189e-19)
(0.5915 2.43067 -1.56575e-19)
(0.385399 2.52415 3.87185e-19)
(0.341164 2.09487 -4.51806e-20)
(1.02063 -0.00789883 0)
(1.01447 -0.0093689 0)
(1.01516 -0.0141421 0)
(1.00762 -0.00101569 0)
(1.00445 -0.00118137 0)
(1.00708 -0.00424274 0)
(1.01051 -0.00366159 0)
(1.01323 -0.00513093 0)
(1.02088 0.013758 3.39694e-19)
(1.01539 0.0112928 -4.3145e-19)
(1.02174 0.0160846 -3.41884e-19)
(1.01647 0.0147868 4.26665e-19)
(0.733927 1.34626 0)
(0.655117 1.39291 6.37065e-19)
(0.83635 1.22088 3.80249e-19)
(0.854902 1.2052 -5.04423e-19)
(1.1552 2.62388 -5.92111e-19)
(0.833356 0.121567 2.57326e-19)
(1.13475 0.102743 0)
(1.17006 0.184596 1.44322e-19)
(1.15548 0.16145 6.56537e-21)
(0.983589 0.124399 0)
(0.101533 3.03388 -1.21174e-19)
(0.097917 2.90569 -6.37704e-19)
(0.0484361 2.35599 4.25719e-19)
(0.152671 0.052468 -2.01624e-19)
(0.349546 3.46773 -4.9968e-19)
(0.199938 3.35495 0)
(0.231429 3.41901 6.50891e-19)
(0.237982 3.09183 -1.32213e-19)
(0.274115 3.21363 0)
(0.0076621 3.12211 2.98913e-20)
(0.0181087 3.13118 -3.65359e-19)
(0.0169862 3.12696 5.37761e-19)
(0.0361773 3.14 0)
(0.034373 3.15077 0)
(1.25694 2.59457 0)
(0.494207 0.841201 -2.04524e-19)
(0.966333 1.04338 -2.20197e-19)
(0.949274 1.06604 0)
(0.797077 0.944355 6.69943e-20)
(1.0305 0.895235 3.01495e-20)
(0.449926 0.439876 -4.98114e-19)
(0.704172 0.329462 -2.36329e-20)
(0.690382 0.287369 1.98484e-19)
(0.633039 0.397903 1.58309e-20)
(0.571407 0.396696 -6.55074e-19)
(0.673843 0.354593 0)
(0.706385 0.420579 3.25705e-19)
(0.702635 0.419877 0)
(0.65813 0.37599 0)
(0.632738 0.343541 0)
(0.738425 0.606577 9.30336e-20)
(1.19762 0.284119 1.40154e-19)
(1.17236 0.420984 0)
(1.1925 0.389991 0)
(0.769815 0.203564 3.00643e-19)
(0.807986 0.519677 -1.58669e-19)
(0.741444 0.485711 2.56567e-19)
(0.909433 0.4191 -2.20638e-19)
(1.01845 0.0126172 2.32087e-19)
(1.01669 0.0128921 -2.38395e-19)
(1.01503 0.0129141 0)
(1.03071 -0.0106621 0)
(1.02867 -0.00983721 -2.10665e-19)
(1.02609 -0.0129575 2.08357e-19)
(1.02729 0.00574597 0)
(1.02572 0.0134029 0)
(1.01249 0.00445206 0)
(1.01415 0.00916588 0)
(1.0159 0.00373187 0)
(1.01457 0.00206411 0)
(0.0491185 1.02856 0)
(-0.0612965 0.990374 0)
(0.312574 1.34406 4.92466e-19)
(0.263468 1.46939 2.69351e-19)
(0.199613 1.43754 6.27151e-19)
(0.208004 1.43505 -9.87119e-19)
(0.264185 1.41353 0)
(0.29204 1.62212 2.82438e-19)
(0.317049 1.64698 0)
(0.334432 2.0416 6.5716e-20)
(0.336364 2.37752 2.3085e-19)
(0.288554 1.47096 -2.56365e-19)
(0.269012 1.42793 2.11376e-19)
(0.267053 1.39504 -1.71007e-19)
(0.276463 1.3577 3.55287e-19)
(0.247781 1.58695 0)
(0.278732 1.62698 -2.3073e-19)
(-0.154092 2.54951 2.19712e-19)
(-0.12706 2.72203 0)
(0.0479597 2.56467 -4.03002e-19)
(-0.0427867 2.62962 0)
(0.0170419 2.75941 4.44886e-20)
(-0.0828523 2.73528 0)
(-0.377726 1.61254 2.32333e-19)
(-0.457013 1.73364 0)
(-0.315119 1.41712 0)
(-0.319415 1.4333 -2.61996e-19)
(-0.217445 2.52035 -6.96175e-20)
(-0.173776 2.6695 -2.15168e-19)
(-0.1733 2.60443 -1.47706e-21)
(-0.30604 1.94832 -9.25436e-21)
(-0.371504 1.92291 -4.51008e-20)
(-0.128996 1.53631 0)
(-0.0913179 1.57414 0)
(-0.370978 1.84901 -5.59887e-19)
(-0.311514 1.4478 -5.28051e-19)
(-0.370572 1.69442 6.68656e-19)
(-0.131134 1.80643 0)
(-0.0662731 1.86151 -2.94371e-20)
(-0.0600618 1.89119 1.08129e-20)
(-0.0724605 1.90305 -3.6465e-21)
(-0.254544 1.88575 1.10264e-20)
(-0.115033 1.9729 -4.54877e-21)
(-0.139861 2.0112 4.67929e-20)
(1.0206 0.0185593 -2.31041e-19)
(1.02095 0.0205577 2.2745e-19)
(1.01485 0.0176947 0)
(1.00275 0.0462408 3.34417e-19)
(0.993276 0.0297487 -4.01076e-19)
(0.968756 0.0300226 4.65226e-19)
(1.00215 0.0831347 -4.31465e-20)
(1.03391 -0.0110028 0)
(1.0353 -0.00493598 1.83115e-19)
(1.02704 -0.0170328 -1.84973e-19)
(1.05501 0.0423767 -9.60199e-21)
(1.05304 0.033186 8.76168e-20)
(1.0543 0.0562842 0)
(1.04382 0.0484891 -3.36591e-20)
(1.03458 0.0320978 0)
(1.02979 0.023126 0)
(1.03171 0.00931839 0)
(1.02888 0.0118732 0)
(1.04318 0.0296406 7.00671e-20)
(1.04536 0.0209329 -1.61266e-19)
(1.04614 0.0330492 -6.90382e-20)
(1.04454 0.0329427 -8.19372e-20)
(1.05618 0.0594237 1.36692e-19)
(1.07578 0.0539136 0)
(1.06957 0.0952253 0)
(-0.0592803 1.85953 -9.40472e-21)
(-0.0367704 1.83269 -1.23501e-21)
(-0.0458665 1.83925 0)
(-0.0365681 1.86006 9.41485e-21)
(-0.0242098 1.8432 2.39276e-21)
(-0.0267049 1.85142 -2.00379e-21)
(-0.0604509 2.00205 4.67034e-22)
(-0.0782285 1.92906 -1.32584e-21)
(-0.0911689 1.94853 5.97061e-21)
(-0.0448448 1.94829 -4.16328e-21)
(-0.0454002 1.96076 5.7145e-21)
(-0.0656009 1.79778 3.07007e-22)
(-0.0688772 1.81618 1.26301e-20)
(0.404932 1.41314 -4.37543e-19)
(0.349027 1.38393 -4.49261e-19)
(0.626111 1.43109 -6.15081e-19)
(0.509693 1.49593 -3.36575e-19)
(0.529306 1.47568 0)
(0.59558 2.40343 1.18705e-19)
(0.660167 2.38644 2.15684e-19)
(0.419282 2.48745 7.33936e-20)
(0.406945 2.5499 -1.72579e-19)
(0.508431 2.51748 2.37859e-19)
(0.541763 2.44455 0)
(0.489335 2.48369 -3.35387e-19)
(0.280539 2.54589 5.70418e-19)
(0.359942 2.52749 -6.46681e-20)
(0.294371 2.60997 -8.86728e-19)
(0.93212 2.38609 1.68683e-19)
(0.832359 2.37464 0)
(1.01061 0.000960224 7.74481e-21)
(1.01635 -0.00539736 -6.59423e-21)
(1.01679 -0.00461016 -1.15751e-19)
(1.01528 -0.00113772 1.15716e-19)
(1.01254 0.00107175 0)
(0.613253 1.26585 0)
(0.635199 1.16795 0)
(0.744533 1.08942 0)
(0.618163 1.13139 0)
(1.18571 2.6442 4.61023e-20)
(1.07417 2.37697 0)
(0.833369 2.24022 -2.23247e-21)
(0.832206 2.49618 0)
(0.922025 2.57561 4.55232e-20)
(0.953878 2.52262 -3.05787e-20)
(0.842467 0.139283 0)
(0.808556 0.158018 7.52089e-20)
(0.928484 0.131209 3.70658e-19)
(0.863452 0.10484 -1.51142e-19)
(0.846177 0.0733632 -4.54303e-19)
(1.03122 0.211007 -1.56874e-19)
(0.942754 0.266731 -8.47128e-21)
(0.905926 0.303229 3.15445e-19)
(0.978975 0.208502 2.22508e-19)
(0.926294 0.170307 -4.5592e-19)
(0.892439 0.179323 6.17482e-20)
(0.922099 0.286797 -1.05622e-19)
(0.89725 0.192314 0)
(0.972145 0.161527 2.13094e-19)
(1.01007 0.175108 0)
(1.00712 0.186011 0)
(1.08988 0.112409 4.92033e-20)
(1.01904 0.158033 -1.02261e-20)
(1.02389 0.218668 -3.4207e-20)
(1.07435 0.193669 0)
(1.02144 0.0312678 1.73754e-19)
(1.03636 0.0519049 2.01135e-19)
(1.03247 0.0344359 -1.72402e-19)
(1.03065 0.0534302 -1.35729e-19)
(1.01435 0.0543011 -2.35477e-19)
(0.973955 0.127452 0)
(0.976456 0.076854 0)
(0.967536 0.0453058 -1.68262e-19)
(0.936119 0.0609566 7.35934e-20)
(1.01975 0.0840588 1.91655e-19)
(1.03879 0.113728 -1.66039e-19)
(1.02941 0.147395 1.60071e-19)
(1.00788 0.121319 0)
(1.05069 0.0996563 0)
(1.03284 0.0886927 -7.25458e-20)
(1.03025 0.0809637 -1.51485e-19)
(0.575057 1.10426 -1.25373e-19)
(0.610749 1.46617 2.23868e-19)
(1.13871 2.75441 1.00082e-19)
(1.19455 3.1312 -7.53801e-20)
(1.24691 2.74809 5.93318e-19)
(1.29151 2.72012 -3.05562e-19)
(1.2643 2.33298 -3.48514e-20)
(1.18046 3.035 2.31464e-19)
(1.19798 2.99026 -2.51233e-19)
(1.17881 3.28366 -2.5419e-19)
(1.39918 2.99611 3.13048e-19)
(1.41194 2.93489 0)
(0.52157 0.861849 -8.12469e-21)
(0.258983 1.25411 2.70017e-19)
(0.489187 0.537305 3.1992e-19)
(0.351565 0.313619 3.74742e-19)
(0.577444 0.425059 3.64576e-19)
(0.566511 0.501858 -5.77702e-19)
(0.566803 0.505482 4.82529e-19)
(0.537655 0.461708 -1.93299e-19)
(0.506065 0.402333 4.40747e-19)
(0.779436 0.250157 -1.67709e-19)
(0.737946 0.305057 0)
(0.726528 0.257416 1.12851e-20)
(0.727803 0.50085 1.71719e-19)
(0.687711 0.473103 -6.3374e-19)
(0.654191 0.485199 2.32967e-20)
(0.658912 0.450479 0)
(0.652105 0.736213 1.14706e-19)
(0.746525 0.767786 5.40688e-20)
(0.686085 0.820381 -6.95438e-20)
(0.82332 0.787568 -4.37562e-21)
(0.874792 0.833521 1.90841e-20)
(0.880322 0.842513 -1.95742e-20)
(0.807043 0.64047 -1.58327e-19)
(0.882178 0.690955 4.0687e-21)
(0.94302 0.701034 0)
(0.933488 0.678016 1.23023e-20)
(0.978739 0.308111 4.80327e-20)
(1.10253 0.293486 -4.45383e-20)
(1.01456 0.24964 6.36141e-20)
(0.948961 0.350351 -1.11139e-19)
(0.981865 0.441444 0)
(1.05792 0.398881 0)
(0.87432 0.380127 1.02269e-20)
(0.817843 0.296556 0)
(0.848378 0.27532 1.75295e-19)
(0.866358 0.309798 7.02883e-21)
(0.90883 0.432403 6.02011e-19)
(0.852505 0.496532 1.46625e-19)
(0.859265 0.44693 -2.14432e-19)
(0.80173 0.434044 2.27173e-19)
(0.796802 0.427401 1.57179e-19)
(0.770973 0.399586 -1.54547e-19)
(1.02722 -0.00394549 1.78737e-19)
(1.01965 -0.00147324 0)
(1.01819 -0.000451574 1.22025e-19)
(1.02309 -0.00164222 -2.74247e-19)
(1.02134 0.00155505 1.32971e-19)
(1.02107 0.00949998 -2.83366e-19)
(1.02235 0.00934095 0)
(1.02049 0.0115311 -5.90427e-20)
(1.01665 0.00723442 1.4856e-19)
(1.01692 0.0102864 -7.48394e-20)
(1.01784 0.00926876 5.44942e-20)
(-0.19925 1.18652 0)
(-0.287805 1.3568 0)
(-0.122147 1.07607 0)
(-0.129878 1.04415 0)
(0.184401 1.33139 -1.16106e-18)
(0.216807 1.22759 3.83516e-19)
(0.277209 1.63285 2.60043e-19)
(0.302601 1.30119 -2.42675e-19)
(-0.212629 1.4751 7.77224e-19)
(-0.173655 1.48767 -5.82748e-19)
(0.0716672 1.23323 3.80143e-20)
(-0.0161847 1.21379 7.18143e-19)
(-0.112088 1.18483 9.23673e-20)
(-0.220959 1.27987 8.26482e-20)
(0.127819 2.52816 4.12028e-19)
(0.116829 2.53642 0)
(0.219236 2.15424 -5.39268e-20)
(0.260493 1.79207 -1.54039e-19)
(0.251588 2.07284 3.47396e-20)
(0.259261 2.41936 0)
(0.253812 2.41392 -1.38891e-19)
(0.313563 2.40842 1.04731e-19)
(0.314086 2.02199 1.12361e-19)
(0.2053 2.21151 5.99105e-21)
(0.109935 2.3355 0)
(-0.351526 2.25163 6.05844e-19)
(-0.33597 2.43666 3.53395e-19)
(-0.39699 2.309 0)
(-0.247861 2.56743 -8.5496e-21)
(-0.227554 2.52009 -2.9766e-19)
(-0.303418 1.58248 -1.46527e-20)
(-0.211282 1.61725 2.20993e-19)
(-0.222139 1.67638 -5.86699e-20)
(-0.328816 1.66253 -7.92134e-20)
(-0.367666 1.61043 0)
(-0.195408 1.67865 0)
(-0.0680512 1.70917 1.96889e-21)
(-0.115163 1.7278 2.57084e-22)
(-0.148509 1.70058 0)
(-0.0905136 1.63434 -1.46345e-21)
(-0.0488772 1.66283 -1.02674e-21)
(1.03339 0.0037134 0)
(1.03749 0.0029208 -1.70528e-20)
(1.04732 0.0175244 -1.25819e-19)
(1.04853 0.0182032 0)
(1.04537 0.0162872 0)
(1.04356 0.00352108 -6.61904e-21)
(1.03725 0.00314656 2.14356e-19)
(1.03986 0.0104593 2.56088e-19)
(1.0315 0.0165337 0)
(1.02938 0.0181106 0)
(1.04152 0.0203549 1.28701e-19)
(1.03246 0.0187895 0)
(1.02979 0.0181856 0)
(-0.122306 1.86414 0)
(-0.0874213 1.81277 2.2804e-21)
(-0.100403 1.85055 7.0454e-21)
(-0.0918847 1.7452 0)
(-0.108912 1.79525 3.67468e-21)
(-0.0834328 1.78633 -4.84444e-21)
(-0.0776986 1.77066 0)
(0.40534 1.70672 0)
(0.322959 1.31122 7.23355e-19)
(0.253485 1.37169 0)
(0.426449 1.27413 -9.27265e-19)
(0.49134 1.43513 0)
(0.438133 1.389 4.30554e-19)
(1.02913 2.70893 -3.15856e-21)
(0.953137 2.4122 -2.12975e-19)
(0.889515 2.15852 2.56437e-19)
(0.847691 2.36989 1.02199e-19)
(0.851354 2.53102 0)
(0.916224 2.525 0)
(0.91518 2.38002 0)
(0.894537 2.35618 -3.68731e-19)
(0.694156 2.52065 3.18573e-20)
(0.807468 2.50429 -5.68734e-21)
(0.818306 2.47941 4.34855e-21)
(0.690402 2.36913 0)
(0.797336 2.37061 0)
(0.756924 2.37958 -2.18767e-19)
(0.776735 2.51022 0)
(0.56535 1.06098 0)
(0.493308 0.900591 -2.10834e-20)
(0.494116 0.961968 4.8025e-22)
(0.477818 1.08744 0)
(0.466219 1.00781 3.89222e-20)
(0.72649 0.869915 2.0536e-20)
(0.752123 1.0002 0)
(0.725549 0.976119 -7.86498e-20)
(0.605018 1.01743 0)
(0.603002 0.9361 0)
(1.15605 2.78207 8.10627e-20)
(1.13106 2.84424 1.41926e-19)
(0.923801 2.38331 -3.24071e-19)
(0.897812 2.35652 4.95894e-20)
(1.1236 2.75802 0)
(1.07573 2.72786 -5.97487e-20)
(1.08528 2.5047 -4.52782e-20)
(0.980703 2.23694 -2.79506e-20)
(0.503169 1.36844 0)
(0.506107 1.0806 1.10331e-19)
(0.562036 1.16042 0)
(0.861873 0.201605 0)
(0.821676 0.167447 0)
(0.770648 0.159513 0)
(0.860588 0.209917 -2.74433e-19)
(0.806305 0.206557 1.73609e-19)
(0.939792 0.0554358 -1.5231e-19)
(0.947776 0.103876 0)
(0.920846 0.112218 6.99259e-20)
(0.885506 0.0700003 2.86903e-19)
(0.880959 0.0517827 -1.75453e-19)
(1.10139 3.3758 -9.58676e-19)
(1.16617 3.29843 0)
(1.1231 3.4628 -2.06314e-18)
(0.66186 3.60917 1.74492e-18)
(1.03026 3.09318 4.59499e-19)
(0.502816 0.850779 1.62712e-19)
(0.491866 0.817028 0)
(0.393856 0.564549 -7.42508e-20)
(0.43677 0.696349 3.32546e-19)
(0.510814 0.543832 -1.02518e-19)
(0.510334 0.558183 1.15546e-19)
(0.672696 0.544263 2.28467e-19)
(0.688611 0.557703 0)
(0.624171 0.635297 0)
(0.593147 0.572249 0)
(0.942778 0.595323 -6.22859e-20)
(0.88592 0.531418 -1.40122e-19)
(0.910967 0.570853 3.07599e-20)
(0.958234 0.494404 -9.76889e-20)
(1.004 0.472087 0)
(1.02247 0.584733 7.97372e-21)
(0.824267 0.391836 -3.497e-19)
(0.820828 0.385133 -4.13418e-19)
(0.782987 0.380192 2.74872e-19)
(0.778767 0.350954 -3.14966e-19)
(0.816774 0.314121 -2.33176e-19)
(0.782697 0.31461 2.86504e-19)
(1.02659 0.00145538 -1.39194e-19)
(1.02765 -0.000472865 2.83501e-19)
(1.028 -0.00430347 1.68734e-19)
(1.02963 -0.00566344 -2.07546e-19)
(1.03288 -0.00101484 0)
(1.03236 -0.00106286 -3.37477e-19)
(-0.0120251 1.9127 -1.46063e-19)
(-0.0336546 1.80648 0)
(0.226766 1.80605 -8.66125e-19)
(0.240151 1.81598 7.58547e-19)
(0.256527 1.67766 -4.90477e-19)
(0.202077 1.68417 0)
(-0.223232 1.87965 0)
(-0.199924 1.75295 6.73076e-22)
(-0.150731 1.7562 -6.08686e-22)
(-0.131198 1.79367 5.38905e-21)
(-0.145565 1.87314 -8.36485e-21)
(-0.168686 1.87736 3.64605e-21)
(0.49998 1.37883 4.79735e-19)
(0.495588 1.39329 -5.16045e-19)
(0.431167 1.27329 4.88898e-19)
(0.418713 1.30777 -2.94401e-20)
(0.606829 1.29683 0)
(0.545551 1.36295 5.76498e-19)
(0.551404 1.37622 -5.57095e-19)
(0.449347 1.25109 -4.67246e-19)
(0.499255 1.21048 0)
(0.569167 1.19379 0)
(0.662843 2.47752 -4.71721e-20)
(0.666368 2.47649 5.13352e-19)
(0.722407 2.50275 -3.51018e-19)
(0.62667 2.48567 -1.15543e-19)
(0.545688 2.58228 8.33614e-20)
(0.499793 2.53642 -2.5853e-19)
(0.965371 2.37737 -1.39739e-19)
(1.00798 2.40504 0)
(0.907791 2.1466 -1.78573e-19)
(1.04439 2.70796 0)
(1.04374 2.69421 0)
(0.621287 2.33666 3.71035e-19)
(1.11741 3.08677 4.54229e-19)
(1.00203 2.9941 -5.36411e-19)
(0.352749 0.927811 0)
(0.376314 0.846298 -1.19218e-19)
(0.544429 0.759086 -3.93527e-20)
(0.397754 2.18928 0)
(0.422265 2.76471 -3.23212e-19)
(0.430891 2.51034 0)
(0.651387 0.686803 -2.40762e-19)
(0.703571 0.661284 3.36914e-19)
(0.717238 0.629618 -3.36988e-19)
(0.652354 0.658812 -3.66734e-20)
(0.706501 0.598717 -1.56104e-19)
(0.971171 2.7862 -3.44015e-19)
(1.01214 2.79114 2.81079e-19)
(0.578414 2.27648 -1.96377e-19)
(0.618176 1.78869 8.93375e-20)
(0.701966 1.90618 5.91426e-20)
(0.9746 2.4361 -9.45176e-20)
(0.970076 2.39822 -1.18059e-19)
(0.662222 1.85469 -2.96427e-21)
(0.455996 1.34617 -6.60612e-20)
)
;

boundaryField
{
    wall-4
    {
        type            noSlip;
    }
    velocity-inlet-5
    {
        type            fixedValue;
        value           uniform (1 0 0);
    }
    velocity-inlet-6
    {
        type            fixedValue;
        value           uniform (0 3 0);
    }
    pressure-outlet-7
    {
        type            zeroGradient;
    }
    wall-8
    {
        type            noSlip;
    }
    frontAndBackPlanes
    {
        type            empty;
    }
}


// ************************************************************************* //
