/*--------------------------------*- C++ -*----------------------------------*\
  =========                 |
  \\      /  F ield         | OpenFOAM: The Open Source CFD Toolbox
   \\    /   O peration     | Website:  https://openfoam.org
    \\  /    A nd           | Version:  6
     \\/     M anipulation  |
\*---------------------------------------------------------------------------*/
FoamFile
{
    version     2.0;
    format      ascii;
    class       volScalarField;
    location    "98";
    object      p;
}
// * * * * * * * * * * * * * * * * * * * * * * * * * * * * * * * * * * * * * //

dimensions      [0 2 -2 0 0 0 0];

internalField   nonuniform List<scalar> 
918
(
0.535687
1.22018
0.00709919
0.535596
-0.0116315
1.18702
-0.506499
0.63216
0.516841
-0.120869
-0.0842403
0.518833
1.0448
0.811859
-1.16734
-0.0250806
0.631606
-0.418176
0.514911
-0.0962592
0.643055
0.523514
0.525978
0.516762
0.578404
0.764362
0.922822
-0.00370858
0.0126997
0.00735283
-0.0130349
-0.033431
-0.0307615
1.07013
1.12204
1.14541
0.483312
0.316479
-0.401158
-0.456539
-0.433217
-0.522905
0.632853
0.633585
-0.230584
0.631571
0.630431
0.502513
0.516235
0.517071
0.518193
0.517104
0.518382
0.402123
-0.128278
-0.15582
-0.105383
-0.104883
0.0238458
-0.0863004
-0.0874102
-0.082022
-0.0838286
0.432257
0.513598
0.510223
0.523107
0.532161
1.16035
1.13426
1.16051
1.0699
1.08782
1.02192
0.995133
0.83309
0.85661
0.795095
0.78146
-1.61867
-2.55788
-0.594506
-0.321788
-0.0111171
-0.0273208
-0.026468
0.627256
0.629066
0.629165
0.632149
1.02964
-0.389845
-0.462724
0.515456
0.513987
0.523033
0.523938
0.518905
0.518903
-0.0923804
-0.0909021
-0.0801356
-0.0929511
-0.0913664
0.622528
0.625274
0.516197
0.513638
0.540346
0.563123
0.551635
0.248899
0.588719
0.604915
0.629068
0.774777
0.761357
0.773941
0.898092
0.865963
0.954779
0.976615
0.0147067
-0.00193556
-0.0263011
-0.0238857
-0.0244327
0.479047
0.472606
0.500907
0.486939
0.489986
0.222838
0.0741164
0.397762
0.42071
-0.325146
-0.376197
-0.459342
-0.458207
-0.565895
0.602099
0.634803
0.633874
-0.241909
-0.169317
-0.297631
-0.111056
-0.168777
0.49345
0.49971
0.495781
0.511186
0.505346
0.507774
0.520302
0.517487
0.51908
0.451222
0.578336
0.329504
0.29007
-0.277188
-0.173889
-0.257802
-0.0975398
-0.0961479
0.0329551
0.0614361
0.0111638
-0.00174436
-0.0910892
-0.0883797
-0.090262
-0.0847978
-0.0871955
0.423684
0.410597
0.443534
0.451077
0.500177
0.50157
0.506112
0.50413
0.947105
0.96995
0.975371
0.951368
-3.52702
-6.14236
0.0178167
0.174834
-0.0105084
-0.0123587
-0.000744456
-0.0105585
-0.00197909
-0.00326865
-0.0368522
-0.0361531
-0.0294829
-0.0304751
0.624108
0.625125
0.999956
1.02829
0.969896
0.945992
0.504823
0.506696
0.511317
0.508202
-0.087239
-0.0893908
-0.0880554
0.628891
0.626688
0.627793
0.207305
0.118052
0.300889
0.332236
0.620585
0.60979
0.619424
0.688962
0.728174
0.993193
1.01606
1.00114
1.01298
1.0633
1.08617
1.05141
0.457579
0.468529
0.462784
0.503703
0.501539
0.502475
0.499147
0.500035
0.498729
-0.0364237
-0.405157
0.468776
0.47018
0.462814
0.465353
0.689518
0.773597
0.630352
0.632932
0.633113
-0.0588563
-0.10598
0.236889
0.200284
0.362502
0.397302
0.379006
0.922123
0.881471
0.929888
0.904976
0.869704
0.894163
-0.340432
-2.09438
-1.09356
0.570745
0.375581
0.466481
-0.0199236
-0.0370051
-0.0336626
1.01952
1.05982
0.641285
0.824592
0.778969
0.750657
0.776981
0.840437
0.772884
0.807612
0.838147
0.813648
0.550671
0.479238
0.497824
0.84889
0.904218
0.0800144
7.85482e-05
-0.0227169
0.0851966
0.156806
0.123361
1.03764
0.956721
1.01838
0.513881
0.514835
-0.022998
-0.0516048
0.518952
0.518663
-0.0241183
-0.0150917
0.481412
-0.933215
0.0804972
0.508509
0.498086
0.514952
-0.102369
0.306154
-0.0887569
0.00166549
-0.0306948
0.509702
0.444661
0.402222
-0.0119404
-0.0353941
-0.0881299
-0.213152
0.511619
0.509975
0.514343
0.51516
0.51594
-0.0325734
-0.0329772
-0.0222517
-0.0780041
-0.0715856
-0.0842576
0.478177
0.498232
-0.196331
0.514638
0.516745
0.516437
0.510683
0.515599
0.514246
-0.026993
-0.0299495
-0.031754
0.186891
0.329196
0.663815
0.738187
0.612989
0.447531
0.159015
0.601547
0.652952
0.578577
0.708976
0.632778
0.630298
0.147328
0.00273294
0.151843
0.0848402
0.505311
0.504767
0.4956
0.492476
0.509799
0.507477
0.51267
0.509933
0.513101
0.514237
-0.0560866
-0.0848244
-0.101684
-0.145445
0.264119
0.530086
0.225262
0.281431
0.141789
-0.0807418
-0.078429
-0.0837763
-0.0872522
-0.0511235
-0.0504653
-0.00465926
0.00665345
-0.011066
-0.0369956
-0.05927
-0.0510065
-0.0597241
0.502843
0.50276
0.508055
0.516836
0.454317
0.458022
0.424326
0.443071
0.429211
0.369146
0.398844
0.375963
-0.0219676
-0.0136327
-0.0138323
-0.0366871
-0.0357931
-0.0585398
-0.0516895
-0.0500246
-0.0481298
-0.0528682
-0.08141
-0.0876052
-0.177379
-0.298011
0.949746
0.865719
0.137421
0.501498
0.50718
0.50434
0.509104
0.512295
0.51292
0.510482
0.50697
0.498372
0.5
0.496499
0.497549
-0.133584
-0.244572
-0.075142
-0.152467
0.14558
0.611744
0.336276
0.280818
0.266051
0.494475
0.681267
0.587476
0.641311
0.6125
-0.39674
-0.00203671
-0.332782
0.211217
0.209159
0.691236
0.732763
0.750158
0.707153
0.663668
-0.0222066
0.542905
-0.0806755
-0.0282604
0.164738
0.044552
0.597025
0.618074
0.624614
0.62285
0.626784
0.626347
0.616696
0.60325
0.627404
0.630478
0.488569
0.215098
0.171199
0.125403
0.616656
0.512505
0.563232
0.479374
0.500935
0.503369
0.502348
0.482984
0.490356
0.486009
0.493247
0.496882
0.504271
0.504436
0.500223
0.502195
-0.0783594
-0.0870582
-0.0632709
-0.126699
-0.131486
-0.174994
-0.0853279
0.0826313
0.0323097
0.232125
0.363629
0.060137
-0.0549123
-0.0387041
0.0145854
0.170237
0.177295
0.048517
0.148027
0.120346
0.104165
0.217863
0.219024
-0.055361
-0.0641045
-0.0608948
-0.0675455
-0.02344
0.0990011
0.0696393
-0.036627
-0.0421069
-0.0770885
-0.0809391
0.00356202
-0.043594
-0.0360683
-0.00454106
-0.0646832
-0.0392321
-0.0298938
-0.0390741
-0.0392133
-0.0381138
0.49736
0.499262
0.49936
0.509371
0.521123
0.536084
0.502095
0.47557
0.466575
0.46968
0.442728
0.451958
0.447263
0.463115
0.484687
0.493179
0.49124
0.493956
0.475954
0.477649
0.462995
0.467648
0.436824
0.417935
0.407731
-0.0609419
-0.0288207
-0.0421951
-0.0536331
-0.0288935
-0.0377487
-0.038344
-0.0192655
-0.0392072
-0.0337061
-0.0432943
-0.05031
-0.0510934
-0.0797143
0.00250114
-0.183989
-0.230483
-0.284955
0.875396
1.01459
0.790053
0.581215
0.588663
0.82182
0.926068
0.5352
0.70518
0.745016
0.568421
0.860691
0.505474
0.505046
0.502892
0.502054
0.503074
-0.0201767
0.0839495
0.093596
0.154386
0.269554
0.374128
0.310361
0.196515
0.328789
0.353668
0.608489
0.614359
0.572909
0.596057
0.598
0.403577
0.484493
0.521773
0.479281
0.553165
0.587274
0.532368
0.575667
0.496715
0.446658
0.437784
0.39278
0.427386
0.408452
0.382829
0.497297
0.474063
0.484859
0.475096
0.497211
0.522326
0.522975
0.544602
0.561727
0.475745
0.421193
0.438107
0.467199
0.423173
0.44091
0.463042
0.184883
0.0863166
0.249381
-0.0779675
0.00548862
0.0473013
0.00333267
-0.0377531
0.268756
-0.366401
-0.312517
-0.985851
0.492436
0.819051
0.539714
0.551034
0.624455
0.612473
0.620015
0.618778
0.625572
0.603644
0.613447
0.618204
0.590343
0.611208
0.598524
0.608856
0.490235
0.390281
0.395004
0.325008
0.185442
0.227961
0.415275
0.348968
0.27527
0.267655
0.445765
0.309989
0.390004
0.43989
0.362006
0.298038
0.525769
0.572686
0.565821
0.538151
0.415994
0.450295
0.450864
0.501786
0.546051
0.569106
0.4918
0.498088
0.499
0.496274
0.494642
0.497765
0.498053
0.500352
0.500484
0.503078
0.502576
-0.0774721
-0.063335
-0.0750847
-0.0840919
-0.0215226
-0.0291096
0.000131233
-0.0216316
-0.0339367
-0.0281431
-0.04514
-0.0621763
-0.0602761
-0.0509134
0.0728327
0.0938101
0.0824526
0.0430854
0.23467
0.404344
0.47402
0.342798
0.186732
0.198402
0.280807
0.0278886
0.0069804
-0.00627414
0.0670388
0.0598497
-0.0678692
-0.073538
-0.0724352
-0.0559376
-0.0485177
-0.0774732
-0.0810335
-0.068013
-0.0754415
-0.0796259
-0.0844789
0.477245
0.470145
0.47377
0.466171
0.464328
0.481264
0.485845
0.486966
0.492576
0.4951
0.48464
0.490482
0.494622
-0.0403443
-0.0581349
-0.0572638
-0.0611855
-0.0578515
-0.0561079
-0.0610465
0.123657
0.0297301
0.0660605
-0.00510298
-0.132479
-0.0730913
0.496531
0.487888
0.474982
0.715581
0.551739
0.470302
0.568408
0.689683
0.271653
0.470243
0.305973
0.88116
0.788834
0.9336
0.549758
0.250705
0.42388
0.430835
0.271715
0.397453
0.334812
0.210495
0.2458
0.281588
0.365611
0.250007
0.229403
-0.0139154
0.168645
0.277445
0.259359
0.385222
0.44094
0.262464
0.177368
0.123026
0.589744
0.606583
0.615301
0.586455
0.607691
0.564175
0.555728
0.573212
0.583169
0.576197
-0.620332
-0.20939
-1.40836
-0.827729
-0.375991
0.520057
0.525055
0.742939
0.641536
0.646663
0.628652
0.583454
0.563742
0.592532
0.604072
0.31386
0.398862
0.385146
0.361506
0.308045
0.250626
0.523993
0.533767
0.555413
0.583549
0.559116
0.587259
0.490568
0.490408
0.489083
0.485338
0.483841
0.487095
0.0176379
-0.00526643
0.0266499
0.0158462
-0.00697438
-0.0100296
-0.0489496
-0.0613297
-0.0605193
-0.0567111
-0.0457934
-0.0445218
0.170735
0.107879
0.0194195
0.0607497
-0.00700886
-0.0834657
-0.0900196
0.00169601
0.101248
0.0818306
0.386788
0.653461
0.479462
0.645144
0.445044
0.544168
0.457881
0.431608
0.458432
0.365343
0.456299
0.0589412
-0.143537
-0.19832
0.813573
0.778246
0.555393
0.316116
0.193966
0.481624
0.5028
0.462905
0.498069
0.540776
0.531881
0.0271439
0.110831
0.203745
0.506986
0.27864
0.298559
0.288153
0.455942
0.423743
)
;

boundaryField
{
    wall-4
    {
        type            zeroGradient;
    }
    velocity-inlet-5
    {
        type            zeroGradient;
    }
    velocity-inlet-6
    {
        type            zeroGradient;
    }
    pressure-outlet-7
    {
        type            fixedValue;
        value           uniform 0;
    }
    wall-8
    {
        type            zeroGradient;
    }
    frontAndBackPlanes
    {
        type            empty;
    }
}


// ************************************************************************* //
