/*--------------------------------*- C++ -*----------------------------------*\
  =========                 |
  \\      /  F ield         | OpenFOAM: The Open Source CFD Toolbox
   \\    /   O peration     | Website:  https://openfoam.org
    \\  /    A nd           | Version:  6
     \\/     M anipulation  |
\*---------------------------------------------------------------------------*/
FoamFile
{
    version     2.0;
    format      ascii;
    class       surfaceScalarField;
    location    "98";
    object      phi;
}
// * * * * * * * * * * * * * * * * * * * * * * * * * * * * * * * * * * * * * //

dimensions      [0 3 -1 0 0 0 0];

internalField   nonuniform List<scalar> 
1300
(
3.75095
5.62643
-3.30291
3.75095
-7.75958
5.62643
-4.2932
4.2932
-0.399879
0.399879
1.8765
1.87445
-2.43373
2.43373
-1.67363
1.67363
-2.5255
2.5255
-5.24819
5.24819
-5.06895
5.06895
4.69278
-4.69278
-6.35213
6.35213
-0.968297
0.968297
-3.58694
3.58694
3.17234
-3.17234
-1.73716
1.73716
0.113854
-0.113854
-0.55408
4.30503
3.19687
3.19687
-1.98763
1.98763
-4.87535
4.87535
6.22172
-6.22172
5.19753
-5.19753
-1.89463
-2.53449
1.78782
-11.4464
-5.97175
-5.97175
-8.44087
8.44087
-2.81444
2.81199
2.94734
-2.94734
-1.71322
1.71322
-4.31117
0.0179679
-4.31117
4.26248
0.0307228
4.26248
-0.512535
0.112656
-0.512535
3.96544
-3.96544
0.302727
0.0971528
0.302727
3.06734
-3.06734
-1.87685
3.75335
1.8741
-1.8721
6.17713
-1.87886
3.7533
-6.0395
6.0395
-2.68373
0.249995
-2.68373
2.1996
0.234135
2.1996
-6.90323
6.90323
-1.76873
0.0951038
-1.76873
1.68359
-0.00996632
1.68359
2.88866
-2.88866
-2.62593
0.100425
-2.62593
2.39144
0.134063
2.39144
0.35305
5.27338
-5.97948
8.79147
-5.27338
0.0251918
5.21021
0.0379773
5.21021
-5.1054
0.0364526
-5.1054
5.01385
0.0551053
5.01385
4.77939
-0.0866098
4.77939
-4.81453
0.121751
-4.81453
-3.3545
-4.08372
-6.51311
0.160987
-6.51311
-1.03633
0.0680319
-1.03633
0.860996
0.107301
0.860996
-3.72941
3.72941
-3.94715
0.360213
-3.94715
3.12728
0.045063
3.12728
1.86812
1.88284
5.61907
-5.61907
2.44673
-1.66414
-0.073023
-1.66414
-1.82981
-3.36773
1.82981
-0.0926458
-0.12256
0.236414
-0.12256
3.15713
0.0397415
3.15713
2.23789
0.153548
-2.23789
0.250263
3.30379
-3.30379
1.32739
0.660235
1.32739
-5.55854
5.55854
4.96232
0.0515246
-4.96232
0.0869713
6.15657
0.0651508
6.15657
-6.20695
-0.0147749
-6.20695
2.48088
-5.01537
-2.69468
6.16261
0.18952
-6.16261
0.190852
2.91894
0.0284055
2.91894
-2.91757
2.91757
-2.9843
0.0369605
-2.9843
-2.13613
0.42291
-2.13613
1.39899
0.314231
1.39899
-4.22636
-0.0848147
-4.22636
-4.10666
0.159513
4.10666
0.155816
1.11347
-1.11347
-0.613507
0.100972
-0.613507
-4.07293
-0.153427
4.07293
-0.107484
-3.90228
-0.0631642
-3.90228
-3.02197
0.0376643
3.02197
0.0453701
3.11213
0.0449988
-3.11213
0.0447958
-1.87099
3.75383
-1.87996
3.75406
-5.67709
-0.362413
-5.67709
6.36141
-0.321912
6.36141
3.10822
0.478716
-3.10822
0.424493
2.01463
0.184965
2.01463
-6.87491
-0.0283187
-6.87491
6.91117
-0.00794326
6.91117
1.87433
0.140305
-1.87433
0.105597
1.67078
0.0128105
1.67078
2.91642
-0.0277617
2.91642
-2.8822
-0.00645318
-2.8822
2.78839
-2.78839
2.71343
0.0749567
-2.71343
0.0875036
-11.1249
11.1101
-0.0363138
-11.0886
5.1739
5.1739
4.23126
0.548132
4.23126
-5.01291
0.198376
-5.01291
2.67082
-5.3655
3.12897
-6.48347
4.67378
-16.1202
4.27581
-8.35953
6.76341
-6.76341
6.6454
0.118009
-6.6454
0.13229
-1.14063
0.1043
-1.14063
-3.12809
-0.601325
-3.12809
4.36408
-0.634665
4.36408
-3.02728
3.02728
-3.07616
0.04888
3.07616
0.0511212
1.65144
0.0193449
-1.65144
-0.0126996
0.204945
0.0977812
-0.204945
0.0823854
3.52777
-0.223979
3.52777
-3.09811
-0.205687
-3.09811
-1.23559
0.094959
1.23559
0.0918069
-5.80739
0.248854
-5.80739
-11.1823
0.0937644
-11.1443
-6.11318
-6.11318
2.32769
11.1192
-2.89738
0.0151749
2.89738
0.0215583
2.97433
0.052952
-2.97433
0.056757
-2.85561
0.0672186
2.85561
0.0619628
-2.50419
0.368056
-2.50419
-1.01561
1.01561
-1.1623
0.146689
1.1623
0.236696
1.41675
-0.303283
1.41675
0.746271
0.114725
-0.746271
0.132764
-3.84522
-0.0570634
-3.84522
6.59665
-0.235239
6.59665
-2.96863
-0.129479
2.96863
-0.0522089
-0.034747
11.1448
-5.13915
0.0337467
5.13915
-11.21
11.2437
-3.20906
0.704876
3.20906
1.0222
5.28351
0.275034
-5.28351
0.270595
6.8532
0.0579726
-6.8532
0.0897895
-2.63692
-0.491171
-2.63692
-5.09818
-0.57891
5.09818
-0.734099
-11.4823
-0.202188
11.6845
-11.4272
6.00958
0.14699
-6.00958
11.3907
-0.987506
-0.125962
0.987506
0.0281002
1.75785
-0.341099
1.75785
3.74748
-0.219708
-3.74748
-0.0977363
-6.76119
-0.113716
6.76119
-0.164542
-2.18718
-0.449737
2.18718
-0.429333
-4.26739
4.30713
1.90974
-2.31451
-2.70086
-5.68224
1.85531
1.89852
4.30203
-10.1368
-5.98335
-9.94599
7.215
-6.9444
-9.31365
9.22704
7.94816
-8.01132
-5.77724
5.82836
6.48484
-6.43947
1.87949
1.87386
8.0889
-7.83891
-15.6751
15.3127
7.6726
-7.5775
15.8036
-15.8319
-17.8434
17.9014
-5.70546
5.80589
-6.74289
6.73644
-6.97996
6.92775
-2.79625
-3.68722
13.1035
-12.9426
8.67196
-8.74498
-8.69534
9.05555
3.38462
0.922516
3.42962
-1.88177
3.76126
-1.87153
3.78127
2.7899
-5.58615
2.5756
-5.27646
4.42536
4.2466
-4.33271
-1.34952
-5.92888
5.95728
-5.80985
5.87181
9.20153
-9.18356
-1.88498
3.75885
-1.86908
3.76761
-3.42278
-2.35446
3.37772
0.924311
8.05485
5.04869
-8.24437
-1.70162
-8.03341
7.8137
-8.21767
8.01198
-0.436164
5.83863
-5.40246
4.43918
-1.65345
7.49208
5.56155
5.75992
5.86074
-5.5857
1.08366
-6.48613
-6.39916
-2.20911
2.31008
2.04462
-1.94747
6.16271
1.78545
6.05522
-5.81398
-2.19734
-5.87105
3.81965
2.00871
3.86853
4.08223
2.4026
4.1199
3.0294
-3.03687
0.00747057
-3.05944
6.08883
0.721976
-5.41389
-4.48958
4.99717
3.09173
5.23131
-5.60513
-2.23378
-5.18064
-9.58542
-6.08966
-10.1643
10.1578
5.15491
9.83584
-11.9347
11.7701
4.91245
2.76016
4.90248
-4.98685
-2.59065
-4.88125
11.6633
-2.66108
-9.00217
-10.3197
-7.52372
10.3277
5.47596
10.9599
6.94155
11.0497
4.41989
7.24337
-9.89585
2.37213
-3.8659
-1.83956
-3.7784
3.66499
2.1409
3.79905
-4.21889
-2.524
-4.20371
-4.29525
-2.68471
4.32301
2.41343
-4.41772
-3.79995
4.5472
2.38055
4.05977
-10.0431
4.29976
-7.98698
-9.19122
-3.75133
-9.05893
3.58967
2.59891
-6.18858
-1.99648
8.62247
-4.37587
7.27294
-5.23147
-3.51351
-5.24417
-6.98534
-1.71
-6.82582
-8.90381
8.41264
-9.19281
8.55814
12.4972
-5.63049
-6.86672
-3.96705
-2.47242
3.92225
-0.492632
-3.71006
3.71753
0.0512008
3.83247
4.75499
4.26236
-3.88286
-1.92699
-3.8261
3.82236
2.04945
3.88958
6.86872
2.33281
6.89945
-6.63141
-2.55215
-6.71623
9.08066
-8.65775
2.79048
-2.69553
5.38025
2.63173
-5.15627
-2.87714
6.23005
-3.2075
-3.02255
-12.3507
10.7802
1.57048
-4.85862
-0.419439
-0.533294
-5.56337
-3.75027
5.44162
0.318301
11.0985
7.34825
-5.51466
5.76351
6.16982
6.22134
-0.177811
5.87569
-5.17081
5.28027
-2.73476
-2.54551
5.48979
-5.64322
-1.22643
-5.56728
4.34085
0.412004
1.4353
-1.19888
-1.74567
-0.463439
-1.61291
1.08669
0.957932
1.18447
0.958048
1.35204
-2.93947
0.482776
2.4567
-1.98142
-1.46469
-3.81291
-1.15111
4.96402
5.73992
2.07378
-5.64219
-0.22886
2.54956
-2.44225
-0.83772
-2.97519
2.21831
-3.05603
-3.45437
-1.9613
5.41567
-3.36884
-0.457264
3.31589
0.552643
-3.82825
-2.10063
3.79129
0.328606
-3.12898
6.19033
-3.06135
-5.05597
2.52906
3.55978
4.53777
-4.78988
2.44927
2.34061
-1.2301
4.26154
0.969764
4.44651
-7.08616
4.85238
5.74722
3.30833
-6.22594
1.0453
-6.04085
8.56587
-7.42215
-1.14372
4.11499
4.45089
7.02669
5.47052
-5.66877
12.6955
-1.17285
-6.2493
7.21371
-3.90538
4.87727
-8.78265
-10.3478
4.0985
-9.18713
11.0827
-1.89555
-3.58479
-8.34989
12.7719
-1.25071
-11.5212
8.58513
-4.36109
-4.43592
8.797
-7.02217
7.02657
-1.98783
-5.03874
-10.1405
-5.69142
10.2543
1.5159
-9.96673
12.3389
-2.72336
4.16458
0.737901
4.17739
3.37709
-5.47211
2.09502
3.64508
-5.63291
2.05175
-7.52386
-6.74655
12.0841
-5.33756
-10.4979
-9.53179
-0.966096
2.54803
9.79083
-9.48959
7.42305
2.06654
3.29869
0.590885
-3.37365
-0.404746
0.232008
4.50695
-4.73896
4.03106
4.18461
3.21646
1.29049
3.84954
2.10774
-3.8711
-0.332615
-4.1687
1.484
-1.75527
-3.69298
5.17698
-4.06181
0.36882
-2.74151
-3.49254
6.23406
-4.58108
3.03559
3.15474
5.08504
-4.91419
1.42165
-2.39074
-2.52345
2.64016
-4.39543
2.00116
3.17582
4.38171
0.581755
5.90762
6.17649
-8.50653
0.51955
11.2252
-9.52356
2.4758
8.57385
-9.89885
0.367069
-8.69186
0.983873
-5.35974
-5.20471
5.23939
-6.94939
-3.54326
6.26576
0.633687
-6.42158
-0.404249
-6.04919
-2.85462
-6.49893
-3.04991
-6.1429
-8.71868
-1.66841
-7.05027
6.74423
-6.67026
-3.49407
7.40436
1.15378
-7.46282
7.33686
-7.51941
7.17831
0.0951336
3.6224
4.35749
1.88507
-2.39229
4.27736
-5.08787
7.42068
-8.77178
3.6839
4.25389
-6.80604
-4.51788
5.04426
4.03639
5.35849
8.90422
-10.3554
1.45119
-10.6229
11.9621
-1.33922
-16.3919
5.76903
-7.48768
2.41165
0.378836
2.51595
0.54389
2.50035
-3.04424
-2.15164
-2.05983
-2.44687
-3.49299
5.93986
1.06053
-3.47467
2.41414
-3.56272
4.62324
-0.0810764
-3.39359
5.18188
-2.68153
5.56072
-3.64379
1.91692
3.54852
5.84046
-2.29194
4.41894
-1.78721
1.95118
-4.24312
-1.54181
-2.95398
5.09488
-3.28008
3.6489
-0.355922
4.00482
-4.04171
0.834212
-0.825247
3.35936
3.60962
4.33176
-3.04127
2.93391
-4.72112
-1.30921
-4.13937
-0.963545
-0.182748
-3.77067
3.95342
5.98901
-6.17176
-5.27504
9.51053
-4.23549
7.68904
-5.43149
-2.25756
-4.27942
-4.37833
3.91136
1.96433
9.65337
0.177106
-5.60859
-4.99371
-3.97151
3.09126
2.18901
-1.70182
3.2723
2.23511
-0.799814
0.402266
0.782202
1.75777
-1.35551
0.334295
1.42348
-0.864588
1.68705
0.862505
-1.80178
0.188867
-1.37823
3.59654
1.07847
-2.0364
0.680891
0.896404
-3.63116
5.10391
-2.73783
-2.36609
6.00032
1.14888
-3.8867
4.4184
-4.0064
2.45901
-3.61012
-1.42769
-5.43409
-3.64864
-2.4798
4.89394
-3.46006
5.53384
1.43956
-5.30498
6.74455
-3.63078
1.66948
-3.05112
3.91362
-0.992467
-2.05865
2.87324
2.54243
-3.14432
0.169127
-0.271076
2.4155
-2.68658
-0.640526
-2.62195
-4.57618
4.90478
-2.10379
4.55306
2.17357
-1.91778
6.47085
1.80757
-3.72536
-3.2484
-3.70566
-1.38475
3.15302
-0.569205
-4.31205
-5.60794
4.17174
0.274765
-7.09344
7.94457
-0.851135
-4.00171
-0.850672
4.96566
-6.10275
0.469842
-4.051
3.89357
4.86334
5.1381
-11.2914
-0.229856
-6.13645
1.08385
-7.22029
5.53473
-3.56348
7.66197
-10.2858
6.7917
-9.13198
6.51825
-0.702043
6.23735
-4.14233
2.76482
-8.45624
-6.94034
5.60078
-2.84062
6.33868
-3.23302
9.57169
-5.95638
5.39602
4.17567
-1.04763
-4.19654
-5.39622
4.34859
-0.000194904
4.1772
4.98721
-2.87947
4.6546
2.26484
-4.65558
-2.13059
-6.48893
1.83335
-3.33419
-1.92244
3.75579
3.1626
3.75349
1.23234
-3.34874
7.24919
-8.21529
-1.91163
-3.29308
5.38971
-1.04113
3.48354
-6.77662
-1.8762
4.7353
-0.723736
-4.01156
0.895188
-4.43845
1.67646
-6.1149
5.27293
-5.67718
2.25321
-9.74089
-5.20961
-5.18151
-2.27647
-5.24294
-7.55966
5.28319
-1.79063
5.54623
-8.4951
7.77136
-3.467
8.7502
-5.44633
-1.0526
5.87567
1.30265
10.0528
0.165585
-4.68347
-1.94291
3.71674
-1.77383
1.14835
-3.60509
0.111653
2.4994
3.50091
-6.84025
0.0342071
-4.64926
-3.90289
7.93928
5.60764
11.5966
1.24124
9.1237
-1.18442
10.3649
4.17408
4.41077
-2.99577
4.44696
0.957645
4.64155
-0.894318
2.81124
1.62163
1.68966
0.752593
2.29404
1.31558
3.12826
0.0840165
-1.97581
4.62812
-8.59963
-0.980477
-8.0515
1.17554
5.4354
-4.25986
2.84603
-0.657015
1.0722
-0.202119
-1.12023
1.32235
-2.74763
-1.92005
-0.49657
-1.68678
2.36767
1.90976
-1.8711
-0.876531
0.32589
-3.97453
3.28423
-3.1151
-0.572675
6.17187
-2.88583
0.199253
-1.21635
-2.4227
-2.88614
2.69727
6.17455
0.2963
3.1132
5.20108
3.10046
0.220988
3.79742
-5.69297
-3.72643
-5.92283
-0.388093
4.57757
1.76521
8.02561
5.94088
4.89976
-1.87686
-10.0921
6.497
-2.05004
5.15778
-1.14622
-4.96869
5.08552
2.33516
-5.7192
0.0420202
-4.92667
-6.97671
-0.477331
8.24869
-9.57551
8.52291
5.6683
1.38197
-4.42397
-0.757546
4.27728
0.133494
10.4984
-0.91979
-7.02603
7.94582
-4.51561
3.53513
0.675244
2.59706
1.9976
1.34058
-5.68545
-9.9453
-2.06408
-1.56708
-4.43017
0.533855
-2.44361
6.0614
-2.52627
3.80385
5.41954
6.49175
-2.05047
-4.12129
6.28596
-2.48211
4.00964
)
;

boundaryField
{
    wall-4
    {
        type            calculated;
        value           uniform 0;
    }
    velocity-inlet-5
    {
        type            calculated;
        value           uniform -3.75095;
    }
    velocity-inlet-6
    {
        type            calculated;
        value           uniform -5.62643;
    }
    pressure-outlet-7
    {
        type            calculated;
        value           nonuniform List<scalar> 8(3.30291 7.75958 4.42912 9.65858 7.43821 5.17556 5.7998 8.94959);
    }
    wall-8
    {
        type            calculated;
        value           uniform 0;
    }
    frontAndBackPlanes
    {
        type            empty;
        value           nonuniform 0();
    }
}


// ************************************************************************* //
