/*--------------------------------*- C++ -*----------------------------------*\
  =========                 |
  \\      /  F ield         | OpenFOAM: The Open Source CFD Toolbox
   \\    /   O peration     | Website:  https://openfoam.org
    \\  /    A nd           | Version:  6
     \\/     M anipulation  |
\*---------------------------------------------------------------------------*/
FoamFile
{
    version     2.0;
    format      ascii;
    class       volVectorField;
    location    "98";
    object      U;
}
// * * * * * * * * * * * * * * * * * * * * * * * * * * * * * * * * * * * * * //

dimensions      [0 1 -1 0 0 0 0];

internalField   nonuniform List<vector> 
918
(
(0.985049 -0.000715737 0)
(0.00543959 2.96618 0)
(-0.00439042 0.872085 0)
(0.979575 0.0019619 0)
(-0.0146776 2.0648 3.30907e-20)
(-0.00719052 2.9486 -2.54313e-18)
(0.822773 1.12552 4.47524e-19)
(0.118683 0.0863789 -1.41109e-20)
(0.999922 -0.000246039 0)
(0.0936991 0.674531 0)
(0.0208485 0.349892 0)
(0.732986 0.00878248 0)
(0.0101813 2.93181 0)
(0.00326102 2.79442 0)
(-0.00290581 3.17542 8.26977e-19)
(-0.0130433 1.93343 2.46145e-20)
(0.296509 0.0454105 9.85286e-19)
(0.235224 1.11207 3.5195e-19)
(0.96431 0.00674237 0)
(-0.00343143 0.329462 0)
(0.0574044 -0.0737791 -6.38453e-19)
(1.00183 -0.00455924 0)
(0.999851 -0.00892587 0)
(0.975169 -0.00605168 0)
(0.592311 0.0283323 0)
(0.0208161 2.64503 0)
(-0.0121838 2.91148 9.30265e-19)
(-0.00656688 0.923507 0)
(-0.0371181 1.17194 0)
(-0.0040741 0.890744 0)
(-0.0251262 2.58309 0)
(-0.00548 2.11588 -2.64316e-20)
(-0.0102667 1.90499 0)
(-0.0219319 2.98768 -9.15782e-23)
(-0.0163828 3.00545 1.9737e-18)
(0.00231055 3.00043 0)
(0.871986 -0.00976435 0)
(0.371723 0.908781 1.65802e-19)
(0.821657 1.14422 -5.59342e-19)
(0.954214 1.01053 5.71208e-19)
(0.683994 1.22719 -1.02346e-19)
(0.697515 1.18709 5.83694e-19)
(0.148711 0.126368 1.37646e-20)
(0.15216 0.0939175 0)
(1.17033 0.533084 0)
(0.116689 0.108441 6.19405e-20)
(0.094088 0.0715508 -6.42828e-20)
(0.920571 -0.00704521 0)
(1.00027 5.12877e-05 0)
(0.999907 0.000320946 0)
(1.0037 -0.00727964 0)
(1.00088 -0.000950024 0)
(1.00011 -5.29237e-06 0)
(0.078166 1.83337 -7.63154e-19)
(0.0332378 0.847139 0)
(0.12992 0.765492 0)
(0.0182634 0.787375 0)
(0.0557768 0.590146 0)
(0.00560289 2.03689 0)
(-0.00724627 0.683887 0)
(0.0128921 0.40365 0)
(-0.0133264 0.677731 0)
(0.0118731 0.350927 0)
(0.843799 -0.015628 0)
(0.842166 0.0259604 0)
(0.757214 0.00549101 0)
(0.799994 0.0273206 0)
(0.701808 0.0201151 0)
(0.0137988 3.00031 9.43925e-19)
(0.0109392 3.00667 0)
(0.00585999 3.00352 0)
(0.0118437 2.99746 1.07123e-23)
(0.00802051 2.95884 -1.4029e-18)
(0.0122278 2.98281 0)
(0.00923197 2.90492 0)
(0.0210092 2.93147 2.16622e-24)
(0.00380575 2.82436 0)
(0.0260272 2.91882 0)
(-0.000650633 2.74514 0)
(0.303889 3.56817 0)
(-0.122102 3.65071 0)
(0.147894 3.26592 -7.69639e-19)
(0.00232431 3.0051 0)
(-0.033988 1.9904 0)
(-0.00733648 2.18235 -2.42766e-20)
(-0.00879362 1.94622 2.5547e-20)
(0.348178 0.138916 -3.42239e-19)
(0.323757 0.0160483 -3.32519e-19)
(0.301598 0.158031 -1.02245e-18)
(0.262408 0.0673707 -6.64816e-19)
(0.2651 1.02577 0)
(0.335082 1.24393 -3.65022e-19)
(0.416836 1.15462 6.02593e-19)
(0.987685 0.00817441 0)
(0.943188 0.00577231 0)
(1.00028 0.000672208 0)
(1.00254 0.0090663 0)
(1.0031 0.00899947 -2.63615e-18)
(0.992135 0.00941051 1.99198e-18)
(-0.0250413 0.699916 0)
(0.00212917 0.336405 0)
(-0.0574131 1.01478 0)
(-0.0387597 0.761971 0)
(-0.0211724 0.333439 0)
(-0.0794765 0.0700011 1.98571e-19)
(0.0355416 0.0570599 0)
(0.993627 -0.00769176 0)
(0.954055 -0.00648451 0)
(0.742209 0.0267905 0)
(0.673148 0.0258258 0)
(0.660103 0.0273547 0)
(0.98081 -0.00236776 0)
(0.583058 0.0661117 0)
(0.454167 -0.0101394 1.49804e-18)
(-0.041091 2.86002 7.22652e-19)
(0.0338669 2.91431 0)
(0.0427904 2.89273 0)
(0.00320024 2.70251 0)
(-0.00875346 2.98637 8.88573e-19)
(-0.0138978 2.89424 0)
(-0.0109878 2.9915 -2.73923e-18)
(-0.01164 2.929 9.33339e-19)
(-0.0557977 1.35449 0)
(-0.0219701 1.38395 0)
(-0.00808135 2.1432 8.66843e-22)
(-0.00815336 2.10204 0)
(-0.0169318 1.91683 0)
(0.93893 -0.00519234 0)
(0.85735 -0.0111671 0)
(0.862604 0.0057059 0)
(0.949707 -0.00613334 0)
(0.883713 -0.00810344 0)
(0.494773 1.10837 -2.10351e-19)
(0.542386 1.17851 0)
(0.333693 0.842988 3.20077e-20)
(0.278858 0.708009 0)
(0.923097 1.03985 -1.61382e-19)
(1.04629 0.849814 3.25506e-19)
(0.39526 1.3225 0)
(0.546057 1.27825 0)
(0.600314 1.20445 0)
(0.10417 0.179263 -2.99087e-19)
(0.174033 0.140162 0)
(0.171115 0.108939 1.84817e-19)
(1.00923 0.90383 0)
(1.0848 0.751574 0)
(1.11448 0.686659 -2.61389e-19)
(1.15053 0.597158 0)
(1.2067 0.391332 4.76125e-20)
(0.957533 -0.00709338 0)
(0.962751 -0.00810727 0)
(0.900942 -0.00737843 0)
(0.983935 -0.00812085 0)
(0.974441 -0.00802919 0)
(0.936557 -0.00656701 0)
(1.0002 0.00250693 0)
(1.00078 0.001238 0)
(1 0.000759271 0)
(0.0391751 2.08392 4.19762e-19)
(0.142044 1.78072 0)
(0.0175065 2.18958 6.54059e-19)
(0.0515404 1.8892 -5.37616e-19)
(0.168501 1.08706 -2.88742e-19)
(0.0510998 0.935333 0)
(0.123745 0.942313 0)
(0.00576676 0.74946 0)
(0.031481 0.5163 0)
(-0.00254232 2.26114 -3.00712e-22)
(0.0214399 2.04282 0)
(-0.0046017 2.26083 -4.10735e-21)
(0.00361054 2.04885 -5.32192e-21)
(-0.00108918 0.718628 0)
(-0.00385344 0.697198 0)
(0.0152837 0.454134 0)
(-0.0165585 0.680934 0)
(0.00583065 0.346994 0)
(0.939596 0.0139292 0)
(0.856629 -0.0115275 0)
(0.928734 0.00491148 0)
(0.846368 -0.0127942 0)
(0.809018 0.00238772 0)
(0.899362 0.0198571 0)
(0.875264 0.0232091 0)
(0.782545 0.00290898 0)
(0.0100632 3.06786 -8.77078e-21)
(0.0156093 3.05789 0)
(0.0123096 2.96998 0)
(0.00763163 2.87673 0)
(0.892421 3.95981 0)
(1.18555 3.35665 9.32477e-19)
(0.080111 3.08801 0)
(-0.0182256 2.91665 0)
(-0.0206799 1.41172 0)
(-0.0391484 1.70252 0)
(-0.0284781 1.54081 0)
(-0.0351083 2.54507 -1.57329e-20)
(-0.0213807 2.24362 0)
(-0.025805 2.38661 0)
(4.86346e-05 1.97643 -3.73751e-22)
(-0.00517174 2.25592 -3.18111e-20)
(-0.00639015 2.22022 -2.61969e-20)
(-0.00500836 1.95945 0)
(0.391147 0.116097 5.24027e-19)
(0.363036 0.00973367 -5.14226e-19)
(0.233488 1.58941 0)
(0.290092 0.770231 -3.22086e-19)
(0.179654 1.68891 -1.05589e-18)
(0.248364 1.22709 1.05626e-18)
(0.901567 0.00599953 0)
(0.966977 0.0107062 0)
(0.974839 0.00989191 0)
(0.922919 0.00586925 0)
(-0.0229705 0.68412 0)
(-0.0224975 0.690132 0)
(0.00209195 0.332193 0)
(0.0850037 0.097512 5.67329e-19)
(0.0592968 0.0729898 -6.63275e-19)
(0.0571952 0.0603589 0)
(1.10868 0.0911668 2.39256e-20)
(1.09224 0.0430201 0)
(1.01954 0.0440017 0)
(0.914446 -0.00122279 0)
(0.43559 0.0985534 0)
(0.495098 0.0789273 -2.39654e-18)
(0.4004 0.00682888 8.98169e-19)
(0.0102834 2.97709 7.69232e-19)
(-0.033102 2.86108 4.59911e-20)
(0.00830563 3.05363 -1.85239e-20)
(0.01639 3.04265 6.89649e-19)
(-0.0117613 2.99991 3.07105e-20)
(-0.0124395 2.95201 -1.23675e-22)
(-0.0150989 3.01307 -5.73116e-19)
(0.0153262 3.02553 4.08142e-19)
(0.00804673 3.03582 -6.63607e-19)
(0.934793 0.0021656 0)
(0.93957 -0.0011006 0)
(0.848246 -0.0112052 0)
(0.956226 0.0117734 0)
(0.942289 0.0131901 0)
(0.88135 0.00572794 0)
(0.915935 0.01717 0)
(0.925134 0.0149919 0)
(0.836397 0.00337432 0)
(0.667635 1.40663 1.36454e-20)
(0.685807 1.51713 0)
(0.117138 0.285573 6.73296e-20)
(0.212433 0.649448 5.32436e-19)
(0.23818 0.687413 -3.12421e-19)
(0.211522 0.488588 6.20583e-19)
(0.34108 0.830788 1.58329e-18)
(0.136004 0.236026 3.80389e-19)
(0.258548 0.16881 7.05222e-19)
(0.211724 0.161238 1.82112e-19)
(0.219825 0.0968009 3.46418e-19)
(1.19745 0.448707 9.74331e-20)
(1.22167 0.246975 9.47048e-20)
(0.00779903 2.2446 2.44966e-19)
(0.0393551 1.9627 0)
(0.973345 0.0332426 0)
(0.94701 0.0193453 0)
(0.871584 -0.0150472 0)
(0.0129879 3.07334 0)
(0.0166979 2.94386 1.22296e-18)
(0.0138132 2.95653 0)
(0.00568501 2.85012 -1.21354e-18)
(0.00991091 3.08943 2.98543e-19)
(0.011145 3.08393 0)
(0.704772 1.81236 -1.68778e-19)
(1.22968 2.61668 5.70985e-19)
(0.689529 1.99036 -1.38558e-18)
(0.0217692 2.97595 -6.66836e-19)
(0.0397934 2.9973 0)
(-0.0386999 2.87793 0)
(-0.00616342 2.24094 -1.38215e-20)
(-0.00477854 2.26162 6.32109e-20)
(0.000325318 2.01217 -7.36132e-21)
(0.268615 1.40192 1.0247e-18)
(0.288771 0.574174 -7.03509e-19)
(0.0663382 2.00469 7.37111e-19)
(0.122904 1.87314 -8.86187e-19)
(0.210059 1.54226 9.98178e-20)
(0.00611429 3.12033 -1.65616e-18)
(0.0133368 3.12071 1.82455e-18)
(-0.00524975 2.98043 8.30054e-19)
(-0.00146017 2.97498 -7.94273e-19)
(-0.0175393 2.87702 -8.45445e-19)
(0.011789 3.10065 -2.21595e-18)
(0.00553949 3.10539 2.24979e-18)
(0.268256 0.696019 0)
(0.218344 0.655189 -1.13622e-18)
(0.0747767 0.209253 5.00019e-19)
(0.34735 0.952052 1.1244e-18)
(0.20102 0.281474 -1.73178e-18)
(1.19998 0.176946 4.73737e-20)
(1.21842 0.306589 0)
(1.19543 0.121895 1.00734e-20)
(-0.00020203 2.26969 -1.08332e-21)
(0.00381524 2.25362 0)
(0.0322207 2.00007 0)
(0.313019 1.3166 -3.68459e-19)
(0.354262 1.17886 -7.99585e-19)
(0.234619 0.393567 1.43132e-18)
(1.00644 -0.00967878 0)
(1.00774 -0.00778128 4.8452e-19)
(-0.0491946 1.33748 0)
(-0.0583912 1.34551 0)
(1.00244 0.00326717 1.33424e-21)
(1.0032 0.00781074 9.94696e-19)
(-0.0264947 2.53205 1.99395e-20)
(-0.0289911 2.57466 0)
(0.0398289 3.17208 4.69685e-19)
(0.371934 3.53616 0)
(1.15985 0.69587 -4.95191e-20)
(1.01176 0.0106287 -2.86301e-21)
(1.02089 -0.00898747 0)
(1.00157 0.000291359 1.57745e-22)
(0.11926 1.37919 0)
(0.145286 2.58557 0)
(0.0338647 1.32618 0)
(0.00125857 2.63102 -1.12389e-20)
(-0.02164 2.57835 -1.516e-20)
(0.998413 0.03126 2.74483e-21)
(1.06302 0.00591159 0)
(1.10022 0.0285005 0)
(-0.0374804 1.7503 0)
(-0.0199619 2.57713 0)
(-0.0136248 1.33271 0)
(0.309428 1.4938 -1.71144e-19)
(1.01152 -0.00904966 0)
(1.00971 -0.0129831 0)
(1.00227 0.000930013 6.20372e-19)
(1.00547 -0.00491012 -7.3151e-19)
(1.00113 -0.000862771 0)
(-0.0266672 1.47758 0)
(-0.0147244 1.403 0)
(-0.0223014 1.44054 0)
(-0.0168805 1.31801 0)
(-0.033923 1.30869 0)
(-0.0267987 1.28987 0)
(1.03571 -0.00428631 0)
(1.01906 0.0157059 -9.68157e-22)
(0.813896 1.31549 2.82704e-19)
(1.00246 0.000392077 -6.20236e-19)
(1.00339 0.00444073 7.40242e-19)
(1.00126 0.00208814 0)
(1.01104 0.0096242 6.17753e-19)
(1.00682 0.00743942 -7.51847e-19)
(1.0071 0.0111082 0)
(-0.0251909 2.60409 0)
(-0.0289454 2.58299 -3.50657e-20)
(-0.0255111 2.59724 2.46472e-20)
(1.24293 0.274374 5.20384e-19)
(1.1637 0.0894068 0)
(0.0435361 3.09149 -9.41992e-19)
(0.0519709 2.87409 -6.67987e-20)
(0.102732 3.20179 1.25913e-18)
(0.121056 3.21366 -2.66001e-19)
(0.13974 3.25538 0)
(0.0224716 3.13766 2.58795e-19)
(0.0607111 3.16197 9.38382e-19)
(0.0611156 3.1787 -4.84176e-19)
(0.026816 3.12947 0)
(0.53982 0.289086 0)
(0.477429 0.30555 0)
(1.14298 0.727389 1.09496e-19)
(1.10741 0.864025 -9.05654e-20)
(1.20007 0.613087 0)
(1.22692 0.546698 0)
(1.01569 0.0120371 -1.14751e-18)
(1.01462 0.01279 1.44279e-18)
(1.02578 -0.0087116 0)
(1.02411 -0.0102826 0)
(1.00682 0.00328978 0)
(1.01087 0.00422357 0)
(1.00418 0.00222026 0)
(1.00931 0.00633459 0)
(1.00682 0.0050377 0)
(1.00435 0.00524796 0)
(0.109846 1.37846 0)
(0.0964191 1.33458 0)
(0.140204 1.42337 0)
(0.147355 1.40757 0)
(0.144861 2.60991 0)
(0.185946 2.67968 -4.05628e-19)
(0.0924959 2.65624 0)
(0.0844423 2.65223 1.7488e-19)
(0.0240046 2.67406 -1.5403e-19)
(0.0214248 1.33449 0)
(0.0312114 1.25076 0)
(0.0243499 1.35108 0)
(0.0483947 1.27256 0)
(-0.00137391 1.99348 4.48678e-20)
(-0.0212608 2.60679 -4.63447e-20)
(-0.00408581 2.67335 -3.96613e-20)
(-0.0180594 2.686 0)
(-0.0238602 2.6126 4.45222e-20)
(-0.0223336 2.60812 4.72422e-20)
(0.00505568 1.98937 -3.51588e-20)
(-0.00985169 2.39607 6.21736e-20)
(-0.0142901 2.42194 4.49607e-20)
(1.01135 0.0403406 1.16374e-18)
(1.00474 0.0211364 -1.44876e-18)
(1.00352 0.0473702 -1.18854e-18)
(0.976154 0.0376315 1.49701e-18)
(1.06471 0.0092551 0)
(1.04994 -0.006416 0)
(1.0927 0.0379057 0)
(1.07589 0.0151017 0)
(1.07467 0.000466986 0)
(1.14129 0.079849 0)
(1.11583 0.0465394 0)
(1.11933 0.0374952 0)
(-0.0318914 2.42879 4.30044e-21)
(-0.0230022 2.02366 0)
(-0.0240111 2.219 0)
(-0.0220968 2.59794 -2.24493e-20)
(-0.0185828 2.60918 7.2938e-22)
(-0.00362166 1.59892 -6.32293e-20)
(-0.0154657 1.52167 6.4631e-20)
(-0.0247486 1.41432 0)
(-0.0297249 1.42081 0)
(-0.0356904 1.41022 0)
(-0.00753301 1.33586 0)
(0.0092455 1.24743 0)
(0.387215 1.51852 2.8513e-19)
(0.435504 1.52287 1.52877e-19)
(0.590709 2.45982 -2.47906e-19)
(0.3764 2.55711 6.86372e-19)
(0.349229 2.04845 7.03836e-20)
(1.02072 -0.00798732 0)
(1.0158 -0.0093453 0)
(1.01486 -0.0132038 0)
(1.00775 -0.00054814 0)
(1.00484 -0.000693476 0)
(1.008 -0.00446489 0)
(1.00954 -0.00342988 0)
(1.01465 -0.00426684 0)
(1.0198 0.0164702 1.12591e-18)
(1.01718 0.0151133 -1.43102e-18)
(1.02021 0.0189612 -1.13475e-18)
(1.01761 0.0174683 1.422e-18)
(0.770263 1.36221 0)
(0.708842 1.39826 2.47181e-19)
(0.878348 1.24313 1.02775e-19)
(0.914723 1.20279 -1.36402e-19)
(1.161 2.60619 2.77586e-19)
(0.747925 0.132002 5.84441e-19)
(1.17204 0.108321 0)
(1.21495 0.20296 -4.22525e-19)
(1.19643 0.154381 -1.759e-20)
(1.01138 0.16717 0)
(0.0753053 3.01836 3.36809e-19)
(0.0814425 2.90324 -1.1057e-18)
(0.0230597 2.36137 7.00742e-19)
(0.159346 -0.272508 -3.0586e-19)
(0.340064 3.44046 -2.52664e-19)
(0.191486 3.33711 0)
(0.221906 3.39218 3.29124e-19)
(0.21969 3.0754 -1.17636e-18)
(0.252285 3.19322 0)
(0.00643878 3.12239 4.90353e-20)
(0.0168857 3.13114 -5.65559e-19)
(0.0159035 3.1269 8.32399e-19)
(0.0329232 3.14006 0)
(0.030933 3.14956 0)
(1.25286 2.56882 0)
(0.542817 0.79119 -5.20276e-19)
(1.02783 1.0383 -1.52184e-20)
(0.994417 1.0909 0)
(0.863388 0.972269 -1.05998e-19)
(1.08729 0.913536 2.66253e-20)
(0.279915 0.309658 -7.63304e-19)
(0.63003 0.32589 -2.29094e-20)
(0.519597 0.217125 3.92307e-19)
(0.511078 0.315214 2.80203e-20)
(0.375028 0.262567 -1.11743e-18)
(0.583711 0.3236 0)
(0.675803 0.438725 6.78496e-19)
(0.690973 0.452724 0)
(0.539196 0.320417 0)
(0.444312 0.250076 0)
(0.796458 0.661425 3.99819e-19)
(1.25466 0.308612 -4.22709e-19)
(1.24795 0.440905 0)
(1.24811 0.396028 0)
(0.682561 0.186978 5.95787e-19)
(0.846736 0.562354 -3.71197e-19)
(0.767452 0.520636 6.62269e-19)
(0.964794 0.455934 -6.61613e-19)
(1.01854 0.0147974 7.67293e-19)
(1.01709 0.0136921 -7.72231e-19)
(1.01582 0.0143163 0)
(1.0371 -0.00450257 0)
(1.03049 -0.00768166 -7.2296e-19)
(1.0287 -0.0105696 7.15451e-19)
(1.02476 0.0110142 0)
(1.02272 0.0151058 0)
(1.01271 0.00476692 0)
(1.0146 0.00909473 0)
(1.01646 0.00426939 0)
(1.01558 0.00294987 0)
(0.0798337 1.36436 0)
(0.0818423 1.30499 0)
(0.152359 1.42391 4.52746e-20)
(0.277868 1.48991 8.27256e-20)
(0.177118 1.46083 1.8628e-19)
(0.21281 1.45875 -3.01146e-19)
(0.163906 1.43657 0)
(0.143853 1.59005 -7.94841e-20)
(0.1423 1.58307 0)
(0.347545 1.99877 -1.02488e-19)
(0.330413 2.33103 6.24733e-19)
(0.197662 1.47052 6.92485e-20)
(0.276844 1.40558 2.46418e-20)
(0.210543 1.40461 -2.00958e-20)
(0.290955 1.3436 -8.87931e-20)
(0.256924 1.57738 0)
(0.269793 1.62106 9.7678e-20)
(0.0192367 2.24134 -1.44888e-20)
(0.0369611 2.66702 0)
(0.0549844 2.39226 1.02473e-19)
(0.0476022 2.4174 0)
(0.0650285 2.67442 -2.09772e-19)
(0.0426799 2.70064 0)
(0.0277125 1.46625 6.22976e-20)
(0.0321017 1.52354 0)
(0.0351839 1.42617 0)
(0.0270489 1.43543 -7.11967e-20)
(0.00515285 2.65812 6.41506e-21)
(0.0267749 2.68757 1.78294e-19)
(0.0123093 2.73151 8.63699e-22)
(0.00388637 1.84744 -2.83899e-20)
(-0.0045629 1.70011 -1.97195e-20)
(0.0197332 1.31525 0)
(0.0280465 1.22699 0)
(0.0405968 1.59327 1.27659e-21)
(0.0425363 1.47452 -5.45677e-20)
(0.0252728 1.55922 5.45864e-20)
(0.0534464 1.61544 0)
(-0.0317761 2.26824 1.34938e-19)
(-0.0350193 2.54545 -5.70912e-20)
(-0.0208068 2.44574 1.04405e-20)
(-0.00397667 1.86287 3.44137e-20)
(-0.0282897 2.50074 1.48699e-20)
(-0.022669 2.443 -3.85029e-20)
(1.01827 0.0225123 -7.712e-19)
(1.01487 0.0289713 7.74985e-19)
(1.0123 0.018304 0)
(1.00966 0.0710549 1.07716e-18)
(0.990463 0.0609191 -1.21706e-18)
(0.949675 0.0559439 1.3628e-18)
(1.01258 0.115707 -1.44378e-19)
(1.04403 -0.00463808 0)
(1.05224 -0.000383823 6.92627e-19)
(1.04034 -0.00814601 -6.92264e-19)
(1.07232 0.0439028 -4.10639e-20)
(1.06502 0.0292183 3.54771e-19)
(1.06409 0.0658306 0)
(1.05438 0.0550725 -1.2779e-19)
(1.03213 0.0439169 0)
(1.02612 0.0388161 0)
(1.02765 0.0136658 0)
(1.02403 0.0163931 0)
(1.0406 0.0338003 2.62636e-19)
(1.03933 0.0285835 -5.81334e-19)
(1.0532 0.0388769 -2.77832e-19)
(1.04824 0.0387694 -3.0657e-19)
(1.0778 0.070654 5.86514e-19)
(1.10179 0.0567731 0)
(1.10848 0.0957218 0)
(-0.0296612 2.27405 7.78901e-20)
(-0.0329745 2.02895 4.52415e-21)
(-0.0279797 2.03881 0)
(-0.0310147 2.44221 -7.75248e-20)
(-0.0295292 2.40114 -8.64649e-21)
(-0.0358253 2.46848 1.03648e-20)
(-0.0215603 2.62007 -4.02867e-20)
(-0.0271851 2.56193 2.28353e-21)
(-0.025625 2.5156 -1.35522e-20)
(-0.0174979 2.61298 2.54887e-20)
(-0.0214112 2.61534 -2.96432e-20)
(-0.0125567 1.52817 -1.05665e-21)
(-0.00713871 1.64516 -6.4754e-20)
(0.37861 1.45447 -1.21708e-19)
(0.373766 1.38472 1.89048e-20)
(0.650223 1.44599 -2.39179e-19)
(0.525602 1.51566 -1.48547e-19)
(0.579522 1.47472 0)
(0.606303 2.41693 2.18087e-19)
(0.666007 2.42629 3.38248e-19)
(0.419876 2.51017 8.93422e-20)
(0.400054 2.53331 -6.3122e-19)
(0.500468 2.47293 5.69594e-19)
(0.552542 2.47012 0)
(0.485453 2.52025 -5.48186e-19)
(0.261935 2.58587 1.11139e-18)
(0.354679 2.56062 -6.06669e-20)
(0.27937 2.64681 -1.54956e-18)
(0.97005 2.38422 7.13753e-19)
(0.847719 2.38463 0)
(1.01141 0.00139818 2.51576e-20)
(1.01537 -0.00515413 -2.05564e-20)
(1.01779 -0.0038852 -3.75756e-19)
(1.01564 -0.00101524 3.7445e-19)
(1.01312 0.00184767 0)
(0.638318 1.30722 0)
(0.682872 1.19231 0)
(0.79832 1.12273 0)
(0.670305 1.14933 0)
(1.19216 2.62179 5.15017e-20)
(1.08426 2.37254 0)
(0.815315 2.16411 3.59048e-21)
(0.820368 2.42617 0)
(0.915189 2.51677 -4.37536e-19)
(0.946466 2.46615 2.9214e-19)
(0.782416 0.164937 0)
(0.726333 0.143188 1.58042e-19)
(0.905946 0.162892 9.24053e-19)
(0.814438 0.144617 -3.45223e-19)
(0.755275 0.0906328 -1.06892e-18)
(1.08791 0.247786 -8.41586e-19)
(0.985442 0.316568 -9.83657e-21)
(0.928048 0.354639 8.12668e-19)
(1.01416 0.261854 6.92501e-19)
(0.930782 0.208064 -1.21871e-18)
(0.888037 0.220807 1.52671e-19)
(0.929322 0.320407 -3.17928e-19)
(0.903693 0.224708 0)
(0.999797 0.209561 5.96859e-19)
(1.05499 0.218973 0)
(1.05269 0.230822 0)
(1.12591 0.125684 2.6787e-19)
(1.0655 0.19603 -1.06469e-20)
(1.07947 0.249446 -1.53324e-19)
(1.11301 0.213121 0)
(1.02224 0.0482792 5.93535e-19)
(1.03699 0.0626568 7.40758e-19)
(1.03272 0.0461151 -5.89516e-19)
(1.04137 0.069327 -4.9665e-19)
(1.0151 0.0763719 -7.60579e-19)
(0.984417 0.170425 0)
(0.987592 0.107917 0)
(0.962491 0.074112 -4.84978e-19)
(0.897052 0.0990962 1.94015e-19)
(1.03872 0.116547 6.86836e-19)
(1.07613 0.137892 -7.8411e-19)
(1.07067 0.182566 7.04976e-19)
(1.03556 0.158486 0)
(1.08624 0.123563 0)
(1.05682 0.1133 -3.21972e-19)
(1.04261 0.1093 -5.58249e-19)
(0.58742 1.07942 1.2044e-19)
(0.607921 1.39758 -2.17437e-20)
(1.14282 2.71431 -2.49455e-19)
(1.19486 3.09838 3.61086e-21)
(1.2499 2.72236 -1.26909e-19)
(1.28883 2.69232 2.23158e-20)
(1.26323 2.31457 -3.83872e-20)
(1.18228 3.00346 -7.63656e-20)
(1.20212 2.96038 2.27443e-19)
(1.17613 3.25108 -1.20217e-19)
(1.39318 2.9639 1.50962e-19)
(1.40431 2.89805 0)
(0.579211 0.816011 -4.80795e-20)
(0.196125 1.21209 4.63719e-19)
(0.52873 0.321419 4.9608e-19)
(0.411047 0.0875834 5.63815e-19)
(0.442465 0.290357 6.32673e-19)
(0.545219 0.416329 -1.02775e-18)
(0.557634 0.397541 8.42082e-19)
(0.445342 0.29226 -3.09141e-19)
(0.260166 0.225255 7.13351e-19)
(0.71566 0.257621 -3.4364e-19)
(0.660821 0.290776 0)
(0.595007 0.195205 7.9191e-21)
(0.726664 0.515229 3.58938e-19)
(0.698464 0.491717 -1.30044e-18)
(0.63026 0.440479 1.15396e-20)
(0.607991 0.418135 0)
(0.723209 0.723455 3.68763e-19)
(0.839434 0.80422 4.07974e-19)
(0.77759 0.853776 -4.75234e-19)
(0.908091 0.824088 -1.50182e-19)
(0.943366 0.867352 -3.48937e-20)
(0.950805 0.874844 3.57921e-20)
(0.8844 0.685153 -6.60936e-19)
(0.957321 0.730353 1.39629e-19)
(1.01306 0.732013 0)
(1.01123 0.706718 -1.78562e-19)
(1.03018 0.342193 2.10021e-19)
(1.15926 0.343549 2.54315e-19)
(1.07424 0.285557 3.44114e-19)
(0.998989 0.39011 -4.20285e-19)
(1.05815 0.492 0)
(1.14012 0.431947 0)
(0.900015 0.429247 -5.23059e-22)
(0.845227 0.324065 0)
(0.892034 0.314814 3.88123e-19)
(0.913305 0.353162 3.1534e-21)
(0.988072 0.503529 1.84722e-18)
(0.918838 0.562638 4.7628e-19)
(0.943749 0.521028 -5.03241e-19)
(0.861134 0.49542 5.36219e-19)
(0.824535 0.46975 3.42663e-19)
(0.800578 0.449726 -3.35777e-19)
(1.0282 -0.000366134 6.20893e-19)
(1.02052 0.000607506 0)
(1.01913 0.00141699 4.05187e-19)
(1.0227 -0.000714726 -9.17186e-19)
(1.02258 0.00462183 4.46819e-19)
(1.02004 0.0116706 -9.35276e-19)
(1.0208 0.0115001 0)
(1.01971 0.0122745 -1.94778e-19)
(1.01662 0.0078351 4.8807e-19)
(1.01671 0.0109642 -2.45423e-19)
(1.01732 0.0106729 1.79768e-19)
(0.0378808 1.33895 0)
(0.0442503 1.40297 0)
(0.0567247 1.34256 0)
(0.0628724 1.27593 0)
(0.0909709 1.40743 -6.34108e-20)
(0.0941931 1.38173 1.70123e-20)
(0.0913272 1.57439 2.51846e-21)
(0.109684 1.41497 -3.35623e-20)
(0.0435892 1.4893 4.44536e-20)
(0.0491392 1.4833 -3.50872e-20)
(0.0780639 1.40107 -2.44103e-20)
(0.0633773 1.40289 7.09183e-20)
(0.0613318 1.38669 1.1791e-20)
(0.0478237 1.40458 7.89777e-21)
(0.0982165 2.35504 -1.12949e-19)
(0.0862234 2.40321 0)
(0.158157 2.00684 8.90567e-20)
(0.13023 1.69246 3.13891e-20)
(0.214899 2.01127 -7.83027e-20)
(0.220418 2.41291 0)
(0.232473 2.38287 -6.15723e-19)
(0.295667 2.36963 4.58938e-19)
(0.254826 1.97895 -1.95237e-19)
(0.148475 2.14337 1.38983e-19)
(0.115628 2.24662 0)
(0.0133168 1.84236 -4.62755e-20)
(-0.00516792 2.36216 -3.33679e-21)
(0.00469541 2.12042 0)
(0.0041318 2.4264 -1.68547e-20)
(0.0156439 2.25902 3.38126e-20)
(0.0120845 1.44172 -1.27908e-20)
(0.012316 1.42331 2.18049e-19)
(0.00979256 1.43536 -7.00299e-20)
(0.0212548 1.44448 -6.25982e-20)
(0.0246289 1.46972 0)
(0.00741528 1.42056 0)
(0.0023199 1.31669 -9.04045e-20)
(0.00227126 1.41021 2.62846e-20)
(0.00899315 1.40898 0)
(0.0123764 1.30716 -6.79102e-20)
(0.0236728 1.21614 1.37067e-19)
(1.04247 0.0150688 0)
(1.04902 0.0105558 -6.47675e-20)
(1.03918 0.0245534 -4.68317e-19)
(1.0496 0.0234441 0)
(1.05467 0.0226807 0)
(1.03637 0.0130454 -6.75937e-21)
(1.03021 0.0134586 7.54442e-19)
(1.03198 0.0174609 9.14947e-19)
(1.02562 0.0211477 0)
(1.02223 0.0218039 0)
(1.03567 0.0259814 4.6727e-19)
(1.02583 0.0282174 0)
(1.02367 0.0280368 0)
(-0.0198657 2.02982 0)
(-0.0112402 1.67132 -2.32648e-21)
(-0.00903763 1.77283 -3.56801e-20)
(-0.0054845 1.41783 0)
(-0.00830715 1.57932 -3.75831e-20)
(-0.0175018 1.4945 2.29366e-20)
(-0.0147049 1.43655 0)
(0.402453 1.61867 0)
(0.367934 1.32273 -3.07232e-20)
(0.275403 1.34638 0)
(0.437656 1.32073 -3.51883e-20)
(0.473564 1.48045 0)
(0.459259 1.42201 3.97644e-20)
(1.0396 2.66547 -1.51733e-20)
(0.984308 2.40325 -8.9643e-19)
(0.946129 2.20365 1.00314e-18)
(0.864389 2.37669 2.42713e-19)
(0.851915 2.48167 0)
(0.920849 2.47688 0)
(0.953863 2.37685 0)
(0.929729 2.36761 -9.3923e-19)
(0.690105 2.4461 -3.80296e-19)
(0.799529 2.42968 -9.80665e-20)
(0.806641 2.40812 7.39124e-20)
(0.70319 2.39757 0)
(0.80852 2.39106 0)
(0.769041 2.40765 -3.6731e-19)
(0.7648 2.46028 0)
(0.633257 1.07039 0)
(0.514319 0.853045 -5.64538e-19)
(0.523512 0.930882 -3.29594e-20)
(0.500805 1.06645 0)
(0.488469 0.97314 8.62248e-19)
(0.805158 0.888762 -1.32566e-19)
(0.808889 1.02404 0)
(0.790133 1.00732 1.81389e-19)
(0.678618 1.02352 0)
(0.669742 0.92729 0)
(1.16122 2.75063 -2.19136e-19)
(1.1365 2.80928 -8.91253e-20)
(0.920798 2.33241 7.48717e-20)
(0.897699 2.31288 -7.58076e-20)
(1.13083 2.72803 0)
(1.08306 2.69587 9.10241e-20)
(1.09789 2.4895 -2.95209e-19)
(0.999196 2.24849 -2.77852e-20)
(0.495182 1.32508 0)
(0.515494 1.07457 -1.06063e-19)
(0.596353 1.18525 0)
(0.848774 0.232729 0)
(0.753126 0.177924 0)
(0.657273 0.14146 0)
(0.853607 0.232538 -6.12132e-19)
(0.738997 0.22712 3.59321e-19)
(0.916421 0.0897084 -4.01375e-19)
(0.923705 0.135383 0)
(0.901926 0.148654 1.73587e-19)
(0.837968 0.109974 6.94795e-19)
(0.795618 0.0774577 -4.35317e-19)
(1.09214 3.34123 -6.6546e-19)
(1.16087 3.26536 0)
(1.1101 3.42566 -1.56137e-18)
(0.653107 3.57239 1.29852e-18)
(1.02009 3.07294 1.17642e-19)
(0.533668 0.772442 5.69934e-19)
(0.510969 0.738621 0)
(0.341758 0.319147 -1.42175e-19)
(0.498081 0.6309 8.47295e-19)
(0.570602 0.32093 -1.82519e-19)
(0.525362 0.455043 2.19563e-19)
(0.687574 0.526842 4.56102e-19)
(0.729843 0.565662 0)
(0.674279 0.567261 0)
(0.661519 0.539457 0)
(1.02008 0.617161 8.81253e-20)
(0.972001 0.600871 -4.6138e-19)
(0.98348 0.612917 3.50785e-19)
(1.04732 0.554587 -3.39626e-19)
(1.09298 0.523475 0)
(1.09488 0.604753 -8.91276e-20)
(0.88572 0.425209 -7.63895e-19)
(0.873658 0.409067 -9.86083e-19)
(0.795886 0.419308 6.03097e-19)
(0.810163 0.379236 -6.28297e-19)
(0.853536 0.336868 -4.93168e-19)
(0.795946 0.341749 6.04152e-19)
(1.02661 0.00673295 -4.676e-19)
(1.02624 0.00685438 9.42287e-19)
(1.02999 0.000955456 6.01707e-19)
(1.03418 0.0015957 -7.22527e-19)
(1.03401 0.0119024 0)
(1.02981 0.0120501 -1.18099e-18)
(0.0845316 1.64727 1.09396e-20)
(0.0689069 1.60507 0)
(0.109363 1.70375 4.64827e-20)
(0.119736 1.67306 -4.04305e-20)
(0.0884183 1.57336 -4.60451e-21)
(0.0704805 1.57531 0)
(0.0083027 1.70727 0)
(-0.00643263 1.53036 2.015e-20)
(-0.00585693 1.47391 -1.8094e-20)
(-0.0121288 1.57687 3.43362e-21)
(-0.0011698 1.89546 2.99844e-20)
(-0.0136672 1.95045 -1.20233e-20)
(0.493062 1.35796 -2.65935e-19)
(0.495929 1.35224 2.90839e-19)
(0.451667 1.31278 -1.49052e-20)
(0.428238 1.29033 7.82866e-21)
(0.631449 1.31441 0)
(0.557372 1.40879 1.13053e-19)
(0.5583 1.41172 -1.10027e-19)
(0.487977 1.30189 1.43858e-20)
(0.528348 1.25348 0)
(0.592694 1.21917 0)
(0.664073 2.40955 5.60011e-19)
(0.659821 2.43921 1.27627e-18)
(0.715027 2.45446 -8.77732e-19)
(0.613553 2.42617 -2.00035e-19)
(0.555143 2.5198 2.74971e-19)
(0.495373 2.48544 -7.10816e-19)
(0.991265 2.3819 -5.65407e-19)
(1.02239 2.39944 0)
(0.948912 2.18685 -6.17609e-19)
(1.0541 2.67684 0)
(1.05295 2.65769 0)
(0.595771 2.28294 -1.72833e-21)
(1.11494 3.06531 6.75276e-20)
(0.990962 2.96099 -1.13944e-19)
(0.31297 0.776771 0)
(0.309379 0.64719 -3.03777e-19)
(0.521217 0.586603 -3.07015e-19)
(0.357554 2.124 0)
(0.399707 2.74355 -8.28301e-20)
(0.408837 2.47751 0)
(0.732342 0.694207 -7.84578e-19)
(0.797186 0.70434 1.09934e-18)
(0.797291 0.66505 -1.10309e-18)
(0.706463 0.64842 -9.95194e-20)
(0.757433 0.608664 -4.1807e-19)
(0.965649 2.74802 -5.11393e-20)
(1.01152 2.75657 -2.14527e-19)
(0.545845 2.19695 4.521e-19)
(0.599907 1.73013 -3.56162e-19)
(0.698673 1.84861 -4.99479e-19)
(0.973407 2.38925 -1.38828e-19)
(0.973999 2.34263 3.70442e-19)
(0.639869 1.75548 3.38061e-20)
(0.447077 1.29064 1.76208e-19)
)
;

boundaryField
{
    wall-4
    {
        type            noSlip;
    }
    velocity-inlet-5
    {
        type            fixedValue;
        value           uniform (1 0 0);
    }
    velocity-inlet-6
    {
        type            fixedValue;
        value           uniform (0 3 0);
    }
    pressure-outlet-7
    {
        type            zeroGradient;
    }
    wall-8
    {
        type            noSlip;
    }
    frontAndBackPlanes
    {
        type            empty;
    }
}


// ************************************************************************* //
