/*--------------------------------*- C++ -*----------------------------------*\
  =========                 |
  \\      /  F ield         | OpenFOAM: The Open Source CFD Toolbox
   \\    /   O peration     | Website:  https://openfoam.org
    \\  /    A nd           | Version:  6
     \\/     M anipulation  |
\*---------------------------------------------------------------------------*/
FoamFile
{
    version     2.0;
    format      ascii;
    class       surfaceScalarField;
    location    "63";
    object      phi;
}
// * * * * * * * * * * * * * * * * * * * * * * * * * * * * * * * * * * * * * //

dimensions      [0 3 -1 0 0 0 0];

internalField   nonuniform List<scalar> 
1300
(
3.75095
5.62643
-3.34214
3.75095
-7.75112
5.62643
-4.26113
4.26113
-0.468214
0.468214
1.87648
1.87447
-2.43187
2.43187
-1.86686
1.86686
-2.52555
2.52555
-5.24801
5.24801
-5.06928
5.06928
4.70288
-4.70288
-6.32413
6.32413
-0.973699
0.973699
-3.56283
3.56283
3.17256
-3.17256
-1.94596
1.94596
-0.0103899
0.0103899
-0.554085
4.30504
3.19687
3.19687
-1.95865
1.95865
-4.87352
4.87352
6.22204
-6.22204
5.2637
-5.2637
-1.92156
-2.48716
1.80206
-11.507
-5.94906
-5.94906
-8.44103
8.44103
-2.8146
2.81183
2.94702
-2.94702
-1.72785
1.72785
-4.27566
0.014529
-4.27566
4.23303
0.0281015
4.23303
-0.548904
0.0806897
-0.548904
3.93015
-3.93015
0.378753
0.0894609
0.378753
3.06723
-3.06723
-1.87686
3.75334
1.87409
-1.87209
6.17713
-1.87886
3.75334
-6.0732
6.0732
-2.66787
0.235998
-2.66787
2.22875
0.203124
2.22875
-6.88242
6.88242
-1.92421
0.05735
-1.92421
1.87902
-0.0121582
1.87902
2.88716
-2.88716
-2.63085
0.105305
-2.63085
2.39304
0.132501
2.39304
0.353487
5.27294
-5.97992
8.79174
-5.27294
0.024935
5.21041
0.0375944
5.21041
-5.10523
0.0359561
-5.10523
5.01369
0.0555832
5.01369
4.79331
-0.0904266
4.79331
-4.82135
0.118468
-4.82135
-3.35944
-4.08032
-6.48502
0.160886
-6.48502
-1.03461
0.0609113
-1.03461
0.864829
0.10887
0.864829
-3.72402
3.72402
-3.92226
0.359431
-3.92226
3.12753
0.0450227
3.12753
1.86812
1.88283
5.61908
-5.61908
2.44652
-1.8946
-0.0513543
-1.8946
-2.00812
-3.25558
2.00812
-0.0621641
-0.231208
0.220818
-0.231208
3.1571
0.0397671
3.1571
2.24678
0.146261
-2.24678
0.288136
3.29664
-3.29664
1.30945
0.6492
1.30945
-5.55982
5.55982
4.96136
0.0523345
-4.96136
0.0878351
6.15686
0.0651736
6.15686
-6.20755
-0.0144846
-6.20755
2.48558
-4.97274
-2.64189
6.1364
0.187735
-6.1364
0.187336
2.91848
0.0285376
2.91848
-2.91986
2.91986
-2.98407
0.0370453
-2.98407
-2.15077
0.422918
-2.15077
1.41308
0.31477
1.41308
-4.1881
-0.087562
-4.1881
-4.08003
0.157778
4.08003
0.152994
1.11425
-1.11425
-0.637473
0.0885692
-0.637473
-4.03466
-0.15344
4.03466
-0.10451
-3.87307
-0.057081
-3.87307
-3.0218
0.0377302
3.0218
0.0454322
3.11207
0.0450279
-3.11207
0.0448438
-1.87099
3.75382
-1.87996
3.75406
-5.69413
-0.37907
-5.69413
6.35692
-0.283722
6.35692
3.08842
0.474411
-3.08842
0.420544
2.08692
0.141834
2.08692
-6.85659
-0.0258248
-6.85659
6.88663
-0.00421544
6.88663
1.99257
0.0943475
-1.99257
0.0683599
1.87604
0.00297766
1.87604
2.91448
-0.0273226
2.91448
-2.88122
-0.00593622
-2.88122
2.79286
-2.79286
2.71981
0.0730529
-2.71981
0.0889582
-11.1241
11.1096
-0.036325
-11.0878
5.17409
5.17409
4.24791
0.545394
4.24791
-5.01643
0.195083
-5.01643
2.66107
-5.30296
3.09912
-6.45856
4.68157
-16.1885
4.29748
-8.3778
6.73545
-6.73545
6.61717
0.118281
-6.61717
0.132151
-1.13486
0.100252
-1.13486
-3.11968
-0.604342
-3.11968
4.35912
-0.635096
4.35912
-3.02778
3.02778
-3.07649
0.0487111
3.07649
0.05104
1.87427
0.00176587
-1.87427
-0.0203313
0.290679
0.0880742
-0.290679
0.0594715
3.51661
-0.219975
3.51661
-3.0939
-0.202739
-3.0939
-1.22746
0.0925967
1.22746
0.0819882
-5.80728
0.247458
-5.80728
-11.1814
0.0936773
-11.1438
-6.11388
-6.11388
2.32716
11.1189
-2.89672
0.0155008
2.89672
0.0217599
2.97537
0.052414
-2.97537
0.0555088
-2.85986
0.0669962
2.85986
0.0600021
-2.5192
0.368429
-2.5192
-1.02669
1.02669
-1.17555
0.148855
1.17555
0.237537
1.41251
-0.29826
1.41251
0.753754
0.111075
-0.753754
0.116281
-3.82195
-0.0511193
-3.82195
6.59618
-0.239253
6.59618
-2.96542
-0.128481
2.96542
-0.050935
-0.0350112
11.1446
-5.13908
0.0338438
5.13908
-11.2098
11.2436
-3.22557
0.706373
3.22557
1.02234
5.28554
0.274284
-5.28554
0.269105
6.82646
0.0601788
-6.82646
0.0910072
-2.62986
-0.489818
-2.62986
-5.09763
-0.596505
5.09763
-0.738506
-11.4815
-0.203206
11.6847
-11.426
6.01048
0.14638
-6.01048
11.39
-0.994409
-0.119844
0.994409
0.0322829
1.75104
-0.338522
1.75104
3.73047
-0.213856
-3.73047
-0.09148
-6.75019
-0.106408
6.75019
-0.15401
-2.17989
-0.449972
2.17989
-0.428856
-4.26736
4.30713
1.90977
-2.33766
-2.63508
-5.59324
1.85522
1.8986
4.30173
-10.1738
-6.01472
-9.98646
7.21485
-6.94574
-9.33399
9.24357
7.9052
-7.96228
-5.77761
5.82865
6.48453
-6.4391
1.87939
1.87395
8.04429
-7.80829
-15.6906
15.3115
7.59071
-7.53336
15.8484
-15.8742
-17.8956
17.9558
-5.69806
5.80336
-6.74167
6.73574
-6.97746
6.92652
-2.79454
-3.66402
13.1506
-12.9897
8.56479
-8.61615
-8.65364
9.01307
3.38459
0.922539
3.42962
-1.88183
3.76122
-1.87151
3.78127
2.74116
-5.5357
2.5618
-5.19688
4.35111
4.21368
-4.28894
-1.30429
-5.92832
5.95686
-5.80933
5.86933
9.15864
-9.14411
-1.88498
3.75893
-1.86908
3.76768
-3.42317
-2.35444
3.37814
0.923591
8.08645
5.06412
-8.27418
-1.71228
-8.01475
7.8009
-8.21281
8.01007
-0.437157
5.83807
-5.40092
4.43637
-1.65354
7.49161
5.56131
5.75639
5.86092
-5.58663
1.08483
-6.48574
-6.39791
-2.35227
2.44084
2.23749
-2.14803
6.12238
1.78282
6.01787
-5.7926
-2.16968
-5.84372
3.81996
2.00869
3.86867
4.08193
2.4026
4.11966
3.02977
-3.03658
0.00681423
-3.05918
6.08895
0.722346
-5.41362
-4.49003
4.99351
3.05078
5.19663
-5.57195
-2.23634
-5.1514
-9.58817
-6.10242
-10.1847
10.1
5.2115
9.81629
-11.9766
11.8226
4.8833
2.7074
4.87115
-4.95037
-2.58298
-4.88201
11.6776
-2.63594
-9.04163
-10.3464
-7.5492
10.3507
5.49774
10.993
6.96287
11.084
4.43214
7.24543
-9.92988
2.38068
-3.86399
-1.83407
-3.77503
3.66133
2.14203
3.79383
-4.21854
-2.52313
-4.20304
-4.29446
-2.683
4.32178
2.41396
-4.41531
-3.79749
4.54379
2.38273
4.06249
-10.0772
4.31531
-7.97933
-9.22192
-3.76776
-9.08977
3.53344
2.59702
-6.13046
-2.00227
8.50344
-4.28976
7.19915
-5.19556
-3.42058
-5.21589
-6.94942
-1.70421
-6.79164
-8.93127
8.44145
-9.22941
8.59432
12.5473
-5.65246
-6.89489
-3.96697
-2.47213
3.92213
-0.492507
-3.71006
3.71688
0.0511533
3.83243
4.75497
4.26246
-3.88203
-1.9273
-3.82652
3.82098
2.04835
3.88798
6.83498
2.32365
6.86308
-6.59384
-2.55027
-6.6814
9.10951
-8.68659
2.81373
-2.72113
5.36947
2.64059
-5.1495
-2.86526
6.24239
-3.21121
-3.03118
-12.3465
10.8069
1.53968
-4.85493
-0.418561
-0.408172
-5.57304
-3.76096
5.45457
0.301824
11.1087
7.34773
-5.5158
5.76325
6.16895
6.22128
-0.176621
5.89655
-5.19018
5.27718
-2.684
-2.59318
5.46024
-5.61368
-1.22116
-5.52791
4.30674
0.404191
1.55179
-1.33097
-1.82321
-0.529059
-1.70693
1.26335
0.974139
1.35142
0.935053
1.50579
-2.92654
0.56155
2.36499
-1.99149
-1.58647
-3.77578
-1.14746
4.92324
5.71614
2.08475
-5.62466
-0.219053
2.594
-2.48513
-0.805824
-2.96995
2.22034
-3.02616
-3.482
-1.91804
5.40004
-3.36875
-0.457774
3.31633
0.552338
-3.828
-2.10032
3.79096
0.328703
-3.12855
6.19012
-3.06158
-5.05584
2.52892
3.56003
4.53761
-4.79012
2.44907
2.34105
-1.23009
4.26561
0.931024
4.40744
-7.01499
4.77864
5.71767
3.29539
-6.19208
1.04068
-5.9743
8.60705
-7.44304
-1.16402
4.16917
4.43788
7.05198
5.49537
-5.68401
12.736
-1.19675
-6.24628
7.17106
-3.87566
4.877
-8.75266
-10.3724
4.12608
-9.21401
11.0719
-1.85787
-3.61228
-8.36433
12.8263
-1.21271
-11.6136
8.60358
-4.29746
-4.34993
8.64739
-6.9334
6.93292
-1.99737
-4.93555
-10.1601
-5.71413
10.2665
1.5561
-9.91312
12.2938
-2.66769
4.1605
0.710649
4.16347
3.33736
-5.46515
2.12779
3.59603
-5.5934
2.06639
-7.53154
-6.76716
12.1077
-5.34053
-10.5349
-9.56173
-0.973189
2.55365
9.74015
-9.51653
7.44926
2.06727
3.29806
0.589919
-3.37111
-0.403919
0.233812
4.51525
-4.74906
4.02765
4.17391
3.2279
1.28735
3.84909
2.10777
-3.87085
-0.332197
-4.16764
1.48464
-1.75368
-3.69304
5.17768
-4.06163
0.368595
-2.74658
-3.49393
6.24051
-4.58064
3.03632
3.1538
5.08467
-4.91458
1.42065
-2.39101
-2.52357
2.64098
-4.39466
1.99875
3.17892
4.38148
0.583989
5.91136
6.19633
-8.50838
0.529054
11.2604
-9.54816
2.48241
8.60155
-9.93167
0.36994
-8.71983
0.9759
-5.26566
-5.15456
5.21979
-6.924
-3.53288
6.24027
0.622817
-6.39326
-0.398383
-6.06812
-2.86315
-6.51809
-3.06555
-6.16387
-8.74956
-1.67324
-7.07631
6.76821
-6.68625
-3.49843
7.42475
1.16957
-7.48244
7.3626
-7.5422
7.20367
0.0947909
3.62209
4.35725
1.88512
-2.39199
4.27712
-5.06944
7.3931
-8.72935
3.6599
4.21952
-6.76978
-4.50983
5.06273
4.04678
5.3775
8.93278
-10.3918
1.45903
-10.6651
12.0034
-1.3383
-16.4491
5.78408
-7.51635
2.43389
0.379831
2.53415
0.56086
2.48879
-3.04965
-2.16027
-2.07828
-2.43601
-3.49772
5.93373
1.07808
-3.46431
2.38623
-3.58678
4.66486
-0.0559154
-3.4084
5.18555
-2.69676
5.56538
-3.6427
1.92268
3.54563
5.84441
-2.29878
4.42237
-1.78177
1.94061
-4.23938
-1.55711
-2.95533
5.09736
-3.28518
3.65378
-0.348296
4.00207
-4.06597
0.854757
-0.83807
3.33584
3.62397
4.33095
-3.0436
2.93961
-4.72139
-1.29977
-4.1374
-0.958474
-0.189693
-3.78953
3.97923
6.01521
-6.2049
-5.28679
9.53244
-4.24565
7.7084
-5.44374
-2.26465
-4.29587
-4.39073
3.92744
1.96912
9.67751
0.179277
-5.62302
-5.0109
-3.98856
3.10547
2.17171
-1.77084
3.31051
2.17901
-0.627222
0.407336
0.944086
1.77026
-1.36293
0.327411
1.44285
-1.00356
1.74577
0.84823
-1.85685
0.149916
-1.27808
3.49842
1.08691
-2.06105
0.698121
0.901773
-3.58577
5.05118
-2.70658
-2.3446
5.95295
1.14792
-3.8545
4.37998
-3.97579
2.4329
-3.58037
-1.4216
-5.39739
-3.61457
-2.49701
4.88325
-3.43672
5.52147
1.40125
-5.30242
6.70366
-3.62901
1.71097
-3.06845
3.91668
-1.03584
-2.03261
2.88672
2.51332
-3.11758
0.147632
-0.230864
2.41449
-2.64535
-0.611671
-2.60316
-4.57578
4.90449
-2.10393
4.55301
2.17318
-1.91738
6.47038
1.80791
-3.72528
-3.24794
-3.70571
-1.38424
3.15337
-0.605628
-4.27639
-5.54118
4.18204
0.225405
-7.06793
7.91175
-0.843827
-4.01715
-0.761493
4.93067
-6.07868
0.485277
-4.01228
3.89947
4.83049
5.0559
-11.3786
-0.235026
-6.16706
1.09972
-7.26678
5.5376
-3.56886
7.69494
-10.3367
6.83827
-9.16713
6.53093
-0.73585
6.2547
-4.12691
2.78693
-8.50106
-6.94496
5.51325
-2.80585
6.2239
-3.17385
9.39775
-5.84154
5.30186
4.0959
-1.03571
-4.18018
-5.28692
4.2512
0.0149403
4.17841
4.98689
-2.87912
4.6547
2.2631
-4.65411
-2.13157
-6.48765
1.83354
-3.33385
-1.92222
3.75576
3.16245
3.75237
1.23219
-3.34845
7.23179
-8.20498
-1.89126
-3.2633
5.26599
-1.01479
3.42025
-6.68355
-1.84541
4.76098
-0.731953
-4.02903
0.891476
-4.42435
1.66892
-6.09327
5.25508
-5.65346
2.25396
-9.77031
-5.22848
-5.1962
-2.27984
-5.26235
-7.58607
5.30622
-1.80199
5.56061
-8.52873
7.79678
-3.47463
8.78085
-5.46441
-1.05369
5.89326
1.31041
10.0913
0.152342
-4.66217
-1.93321
3.74772
-1.81451
1.17226
-3.63719
0.110529
2.48585
3.4671
-6.79259
0.0228082
-4.63936
-3.91202
7.95881
5.62041
11.6356
1.24382
9.14698
-1.18817
10.3908
4.18932
4.42686
-3.01367
4.47269
0.965561
4.62546
-0.88416
2.80684
1.64999
1.7109
0.774232
2.29043
1.33354
3.14519
0.0955435
-1.98274
4.63762
-8.62619
-0.985398
-8.08079
1.16278
5.42847
-4.2657
2.89752
-0.725809
1.08301
-0.13842
-1.27343
1.41185
-2.7316
-1.90066
-0.457805
-1.63266
2.33078
1.86576
-1.87298
-0.858621
0.331248
-3.94582
3.24912
-3.10148
-0.588163
6.1155
-2.88744
0.242085
-1.17647
-2.36107
-2.89013
2.74022
6.17435
0.296034
3.11277
5.20052
3.1002
0.221078
3.81815
-5.67602
-3.7134
-5.91104
-0.373443
4.55722
1.73968
8.00047
5.83558
4.82079
-1.86276
-10.0677
6.51813
-2.04544
5.17982
-1.1508
-4.94248
5.07154
2.32156
-5.69436
0.040893
-4.90158
-6.94702
-0.482683
8.27946
-9.60858
8.55489
5.69174
1.38457
-4.44018
-0.756017
4.29132
0.135535
10.5263
-0.909725
-7.07859
7.98832
-4.51875
3.53335
0.686861
2.62365
2.09872
1.37291
-5.70569
-9.97138
-2.044
-1.54177
-4.3886
0.534635
-2.40039
6.07784
-2.54449
3.81319
5.44382
6.52683
-2.05183
-4.15307
6.29748
-2.48429
4.04254
)
;

boundaryField
{
    wall-4
    {
        type            calculated;
        value           uniform 0;
    }
    velocity-inlet-5
    {
        type            calculated;
        value           uniform -3.75095;
    }
    velocity-inlet-6
    {
        type            calculated;
        value           uniform -5.62643;
    }
    pressure-outlet-7
    {
        type            calculated;
        value           nonuniform List<scalar> 8(3.34214 7.75112 4.40872 9.7049 7.43976 5.12748 5.76019 8.97905);
    }
    wall-8
    {
        type            calculated;
        value           uniform 0;
    }
    frontAndBackPlanes
    {
        type            empty;
        value           nonuniform 0();
    }
}


// ************************************************************************* //
