/*--------------------------------*- C++ -*----------------------------------*\
  =========                 |
  \\      /  F ield         | OpenFOAM: The Open Source CFD Toolbox
   \\    /   O peration     | Website:  https://openfoam.org
    \\  /    A nd           | Version:  6
     \\/     M anipulation  |
\*---------------------------------------------------------------------------*/
FoamFile
{
    version     2.0;
    format      ascii;
    class       volVectorField;
    location    "63";
    object      U;
}
// * * * * * * * * * * * * * * * * * * * * * * * * * * * * * * * * * * * * * //

dimensions      [0 1 -1 0 0 0 0];

internalField   nonuniform List<vector> 
918
(
(0.985049 -0.000714423 0)
(0.00534417 2.96624 0)
(-0.00181395 0.883043 0)
(0.979574 0.00196146 0)
(-0.013494 2.06237 3.2597e-20)
(-0.00709321 2.94855 -2.59033e-18)
(0.81527 1.1181 4.43619e-19)
(0.148375 0.0767117 -1.42729e-20)
(0.999922 -0.000243512 0)
(0.0855762 0.662 0)
(0.0138968 0.416664 0)
(0.733105 -0.00966886 0)
(0.0101881 2.93161 0)
(0.00348048 2.79447 0)
(-0.00202528 3.1817 8.27647e-19)
(-0.014029 1.9231 1.93455e-20)
(0.291443 0.0315581 9.80174e-19)
(0.231534 1.10428 3.55419e-19)
(0.964371 0.00674045 0)
(0.00086759 0.416682 0)
(0.0151187 0.0951867 -6.69625e-19)
(1.00183 -0.00456006 0)
(0.999851 -0.00892742 0)
(0.975166 -0.0060524 0)
(0.593109 0.000503448 0)
(0.0216664 2.6436 0)
(-0.0123048 2.9119 9.49118e-19)
(-0.0052769 0.935895 0)
(-0.0299049 1.16854 0)
(-0.00324752 0.906419 0)
(-0.0225206 2.59556 0)
(-0.00457015 2.11312 -2.6035e-20)
(-0.00967548 1.89469 0)
(-0.0221534 2.9876 -9.3415e-23)
(-0.0164946 3.00551 2.01281e-18)
(0.00230842 3.0006 0)
(0.871871 -0.00973628 0)
(0.375997 0.915966 1.63205e-19)
(0.814176 1.13605 -5.55202e-19)
(0.947026 1.00125 5.64497e-19)
(0.677353 1.21886 -1.01822e-19)
(0.690658 1.18026 5.80906e-19)
(0.177739 0.140101 1.39241e-20)
(0.165761 0.0699171 0)
(1.15979 0.529252 0)
(0.151606 0.126071 6.33611e-20)
(0.127307 0.0696341 -6.57495e-20)
(0.920535 -0.00704788 0)
(1.00026 6.18734e-05 0)
(0.999908 0.000320151 0)
(1.0037 -0.00728166 0)
(1.00089 -0.000947196 0)
(1.00011 -7.07336e-06 0)
(0.0926704 1.84366 -7.34667e-19)
(0.0321006 0.856796 0)
(0.12085 0.746108 0)
(0.0138956 0.806155 0)
(0.0485022 0.587844 0)
(0.00381164 2.02754 0)
(-0.00603403 0.737015 0)
(0.00767457 0.450167 0)
(-0.00925242 0.73371 0)
(0.00600734 0.414473 0)
(0.843238 -0.0156675 0)
(0.837194 0.0343551 0)
(0.764477 -0.00878094 0)
(0.803398 0.0339645 0)
(0.704071 0.00610177 0)
(0.0139553 3.00019 9.61651e-19)
(0.0111814 3.00595 0)
(0.00628244 3.00389 0)
(0.0118696 2.9971 1.09254e-23)
(0.00827214 2.95873 -1.42925e-18)
(0.0121856 2.98292 0)
(0.00902556 2.90493 0)
(0.0210772 2.93133 2.22134e-24)
(0.00415349 2.82416 0)
(0.0262549 2.91895 0)
(-0.000846451 2.74514 0)
(0.306761 3.57787 0)
(-0.122352 3.6608 0)
(0.149921 3.27253 -7.70278e-19)
(0.00377591 3.00893 0)
(-0.0306148 1.99101 0)
(-0.00733422 2.17639 -1.908e-20)
(-0.00986019 1.9353 1.83211e-20)
(0.358945 0.142675 -3.40249e-19)
(0.314539 0.00491853 -3.30982e-19)
(0.313515 0.164138 -1.01802e-18)
(0.256374 0.0466013 -6.62161e-19)
(0.262991 1.02017 0)
(0.33005 1.23546 -3.66234e-19)
(0.411941 1.14774 6.04226e-19)
(0.987754 0.00814607 0)
(0.943279 0.00578851 0)
(1.00028 0.000671916 0)
(1.00254 0.00906676 0)
(1.00311 0.00898537 -2.62041e-18)
(0.992136 0.00942786 1.98012e-18)
(-0.0176303 0.747575 0)
(0.0002142 0.424924 0)
(-0.050564 1.01973 0)
(-0.0253388 0.8003 0)
(-0.00912504 0.413823 0)
(-0.00759231 0.125158 2.07358e-19)
(0.0705111 0.0846091 0)
(0.993623 -0.00769375 0)
(0.954044 -0.00648233 0)
(0.743032 0.0313045 0)
(0.673795 0.0482025 0)
(0.663552 -0.000502477 0)
(0.978691 -0.00306088 0)
(0.592697 0.0505211 0)
(0.446985 -0.0178953 1.49574e-18)
(-0.0405467 2.86102 7.46359e-19)
(0.0335689 2.91443 0)
(0.0427627 2.89224 0)
(0.00332046 2.70178 0)
(-0.00877542 2.98622 9.08718e-19)
(-0.0142664 2.89468 0)
(-0.0111023 2.99169 -2.7971e-18)
(-0.011598 2.92951 9.52399e-19)
(-0.0425626 1.34227 0)
(-0.014265 1.3703 0)
(-0.00789297 2.13803 7.42865e-22)
(-0.00755164 2.09675 0)
(-0.0173769 1.90674 0)
(0.938831 -0.00522859 0)
(0.857186 -0.0111209 0)
(0.863499 0.00495047 0)
(0.949629 -0.00616146 0)
(0.883631 -0.00807808 0)
(0.499699 1.11612 -2.0734e-19)
(0.546967 1.18608 0)
(0.337863 0.85048 3.17698e-20)
(0.282182 0.714956 0)
(0.914409 1.03216 -1.5933e-19)
(1.03602 0.842387 3.19651e-19)
(0.38963 1.3145 0)
(0.540556 1.27019 0)
(0.593702 1.19781 0)
(0.102605 0.181269 -2.9684e-19)
(0.197248 0.150064 0)
(0.178845 0.0798282 1.8457e-19)
(0.999369 0.896428 0)
(1.07484 0.744627 0)
(1.10423 0.679862 -2.55396e-19)
(1.1413 0.591186 0)
(1.19706 0.390387 4.66842e-20)
(0.957473 -0.00710714 0)
(0.962709 -0.00811338 0)
(0.900887 -0.00736873 0)
(0.983925 -0.00812486 0)
(0.974418 -0.00803462 0)
(0.936535 -0.00656719 0)
(1.0002 0.00250419 0)
(1.00077 0.00124016 0)
(1 0.000763115 0)
(0.0442815 2.08781 4.10212e-19)
(0.144069 1.78739 0)
(0.0195124 2.20436 6.18224e-19)
(0.0525456 1.89113 -5.17376e-19)
(0.165468 1.08027 -2.91805e-19)
(0.0489647 0.936722 0)
(0.119693 0.934134 0)
(0.00167912 0.77918 0)
(0.0254855 0.530614 0)
(-0.00343666 2.25733 -4.6286e-22)
(0.0181931 2.03306 0)
(-0.00495994 2.25821 -1.15245e-20)
(0.00246461 2.03888 1.03578e-20)
(-0.00523956 0.75317 0)
(-0.00498017 0.73819 0)
(0.0103971 0.484363 0)
(-0.00868213 0.735726 0)
(0.00238087 0.421444 0)
(0.939213 0.0137318 0)
(0.855912 -0.0117194 0)
(0.928464 0.00479212 0)
(0.845998 -0.0128005 0)
(0.812233 -0.00333001 0)
(0.896828 0.0241999 0)
(0.870364 0.0300869 0)
(0.788626 -0.00706448 0)
(0.010226 3.06745 -8.95453e-21)
(0.0153025 3.05889 0)
(0.0123427 2.97031 0)
(0.00761355 2.87662 0)
(0.896728 3.97284 0)
(1.19104 3.36865 9.39264e-19)
(0.081282 3.0914 0)
(-0.0173125 2.91864 0)
(-0.0151125 1.39613 0)
(-0.0355858 1.69595 0)
(-0.0241064 1.5301 0)
(-0.0332841 2.5556 -1.37915e-20)
(-0.0185901 2.24949 0)
(-0.0229431 2.39442 0)
(-0.000930051 1.96367 4.62621e-22)
(-0.00509413 2.25194 -2.32608e-20)
(-0.00613512 2.21396 -1.88176e-20)
(-0.00604283 1.94934 0)
(0.397905 0.118243 5.22942e-19)
(0.347012 -0.00248141 -5.12934e-19)
(0.234133 1.59123 0)
(0.287114 0.763172 -3.21429e-19)
(0.179338 1.69225 -1.05486e-18)
(0.244327 1.22099 1.05516e-18)
(0.901725 0.00594361 0)
(0.967082 0.0106376 0)
(0.974931 0.0098407 0)
(0.923026 0.00588938 0)
(-0.0166785 0.738765 0)
(-0.0203351 0.742102 0)
(0.00690995 0.418843 0)
(0.126735 0.118354 5.84269e-19)
(0.104663 0.104994 -6.9169e-19)
(0.0907499 0.0711288 0)
(1.10542 0.0898288 2.37644e-20)
(1.08915 0.0421832 0)
(1.01783 0.0434902 0)
(0.913032 -0.00173851 0)
(0.444301 0.0962677 0)
(0.504947 0.0728696 -2.392e-18)
(0.391643 -0.00748959 8.95849e-19)
(0.0108391 2.97712 7.91286e-19)
(-0.0329546 2.86136 4.56156e-20)
(0.00828325 3.05347 -1.88952e-20)
(0.0156605 3.04322 7.08529e-19)
(-0.0118672 3.00002 3.1317e-20)
(-0.0123002 2.95227 -1.26347e-22)
(-0.0150273 3.01333 -5.84903e-19)
(0.0143655 3.0266 4.12239e-19)
(0.0075811 3.03488 -6.70312e-19)
(0.934617 0.00207954 0)
(0.939445 -0.00115753 0)
(0.848005 -0.011163 0)
(0.956377 0.0117378 0)
(0.942461 0.0132351 0)
(0.881729 0.00548835 0)
(0.915443 0.0188501 0)
(0.92523 0.0152981 0)
(0.838179 0.000853056 0)
(0.672496 1.41486 1.96209e-20)
(0.690542 1.52547 0)
(0.118712 0.293885 6.74097e-20)
(0.212421 0.653427 5.32641e-19)
(0.240105 0.693425 -3.12668e-19)
(0.215601 0.498584 6.20302e-19)
(0.33876 0.830113 1.5714e-18)
(0.133774 0.236176 3.77577e-19)
(0.271902 0.171198 7.02644e-19)
(0.229347 0.165473 1.81099e-19)
(0.220256 0.0669244 3.45431e-19)
(1.18904 0.444494 9.35555e-20)
(1.21497 0.244911 9.16324e-20)
(0.00911264 2.24717 2.40814e-19)
(0.0391692 1.95577 0)
(0.972319 0.0328938 0)
(0.946373 0.0191226 0)
(0.870559 -0.0153221 0)
(0.0125642 3.07479 0)
(0.01691 2.94408 1.25173e-18)
(0.0139731 2.95691 0)
(0.00581909 2.84975 -1.24228e-18)
(0.00896281 3.0908 3.05822e-19)
(0.0116939 3.08273 0)
(0.710504 1.82195 -1.72076e-19)
(1.23545 2.62724 5.81574e-19)
(0.695294 2.00011 -1.40027e-18)
(0.0222917 2.97663 -6.88136e-19)
(0.0404007 2.99863 0)
(-0.0384421 2.87919 0)
(-0.00613242 2.2368 -1.26672e-20)
(-0.00472282 2.25724 4.40221e-20)
(-0.00053242 1.99952 -7.04949e-21)
(0.268196 1.40173 1.02282e-18)
(0.285273 0.566371 -7.02102e-19)
(0.0707678 2.00698 7.39321e-19)
(0.124515 1.87465 -8.90809e-19)
(0.208082 1.53976 1.0138e-19)
(0.00636282 3.12026 -1.70134e-18)
(0.0129683 3.12091 1.87215e-18)
(-0.00512649 2.98038 8.50851e-19)
(-0.00158006 2.97515 -8.15502e-19)
(-0.017755 2.87731 -8.66626e-19)
(0.0125209 3.10001 -2.27305e-18)
(0.00500121 3.10538 2.3051e-18)
(0.265305 0.697306 0)
(0.217191 0.658994 -1.13597e-18)
(0.0732647 0.213023 4.99862e-19)
(0.345753 0.949525 1.11736e-18)
(0.198081 0.28009 -1.72076e-18)
(1.19517 0.175126 4.72832e-20)
(1.21173 0.30384 0)
(1.19062 0.120592 9.50055e-21)
(-0.00115877 2.26552 -1.23458e-21)
(0.003422 2.25118 0)
(0.0302662 1.99099 0)
(0.313605 1.31796 -3.67677e-19)
(0.354102 1.17578 -7.96709e-19)
(0.230897 0.390877 1.42484e-18)
(1.00644 -0.00968764 0)
(1.00774 -0.00778752 4.81639e-19)
(-0.0371652 1.32465 0)
(-0.0445346 1.32836 0)
(1.00244 0.00327694 1.34701e-21)
(1.0032 0.0078154 9.88785e-19)
(-0.0243607 2.54196 1.74726e-20)
(-0.0275818 2.5847 0)
(0.0404354 3.17297 4.88981e-19)
(0.375262 3.54296 0)
(1.15534 0.690964 -5.05867e-20)
(1.01183 0.0106721 -2.83056e-21)
(1.02084 -0.00903192 0)
(1.00158 0.00027535 1.56592e-22)
(0.111638 1.3741 0)
(0.13539 2.5884 0)
(0.023219 1.3212 0)
(-0.00141293 2.63696 1.53536e-21)
(-0.0220347 2.58594 -6.60066e-21)
(0.996272 0.0317013 2.29158e-21)
(1.0629 0.00577606 0)
(1.09982 0.0284071 0)
(-0.0338206 1.74231 0)
(-0.019663 2.58626 0)
(-0.0115287 1.31471 0)
(0.310306 1.48583 -1.74789e-19)
(1.01151 -0.00906237 0)
(1.00971 -0.0129908 0)
(1.00228 0.000942388 6.17046e-19)
(1.00548 -0.00491522 -7.27122e-19)
(1.00113 -0.000864121 0)
(-0.0209265 1.46134 0)
(-0.0096367 1.38297 0)
(-0.0161355 1.42331 0)
(-0.0135284 1.30215 0)
(-0.0265848 1.29188 0)
(-0.0207086 1.27065 0)
(1.03563 -0.00433038 0)
(1.01885 0.0150059 -8.6929e-22)
(0.810083 1.30903 2.80651e-19)
(1.00241 0.000380189 -6.16284e-19)
(1.00338 0.0044553 7.35809e-19)
(1.00127 0.00209941 0)
(1.01114 0.00963796 6.13933e-19)
(1.00687 0.00747044 -7.47329e-19)
(1.00716 0.0111362 0)
(-0.0247686 2.6139 0)
(-0.0278291 2.59291 -2.97863e-20)
(-0.0247954 2.60706 2.1021e-20)
(1.24099 0.27218 5.176e-19)
(1.16323 0.0888672 0)
(0.0443972 3.09109 -9.73142e-19)
(0.0516852 2.87326 -6.8923e-20)
(0.103554 3.20195 1.29945e-18)
(0.121996 3.21391 -2.7851e-19)
(0.142174 3.25816 0)
(0.0227125 3.13793 2.67599e-19)
(0.0613575 3.16185 9.69425e-19)
(0.0615862 3.17901 -5.00492e-19)
(0.0273734 3.12915 0)
(0.585041 0.289284 0)
(0.527692 0.307831 0)
(1.13642 0.721877 1.13625e-19)
(1.10249 0.858468 -9.68799e-20)
(1.19494 0.607577 0)
(1.22214 0.542546 0)
(1.01573 0.0120271 -1.14044e-18)
(1.0147 0.0127736 1.43387e-18)
(1.02571 -0.00874305 0)
(1.02404 -0.0103087 0)
(1.00674 0.0031485 0)
(1.0109 0.00420764 0)
(1.00426 0.0022058 0)
(1.0094 0.00637097 0)
(1.00688 0.00504977 0)
(1.00442 0.00527843 0)
(0.101842 1.37316 0)
(0.0887967 1.33227 0)
(0.135291 1.41618 0)
(0.145703 1.39877 0)
(0.14776 2.61429 0)
(0.190789 2.68216 -4.09053e-19)
(0.105185 2.67183 0)
(0.0815963 2.67421 1.65654e-19)
(0.0279612 2.67968 -1.59292e-19)
(0.0119814 1.32216 0)
(0.020168 1.25291 0)
(0.0166192 1.33504 0)
(0.0332811 1.27377 0)
(-0.000843629 1.99459 3.03319e-20)
(-0.0217822 2.6141 -3.36047e-20)
(-0.00793539 2.67953 -2.24325e-20)
(-0.0196872 2.69231 0)
(-0.0239334 2.62055 2.29057e-20)
(-0.0225898 2.61599 3.41124e-20)
(0.00641824 1.99168 -2.30821e-20)
(-0.00982463 2.4055 4.50877e-20)
(-0.0147652 2.42876 2.54289e-20)
(1.01186 0.0392964 1.16048e-18)
(1.00309 0.0187085 -1.44204e-18)
(1.00336 0.0457965 -1.18078e-18)
(0.975302 0.0358431 1.48668e-18)
(1.06455 0.00908568 0)
(1.04981 -0.00648957 0)
(1.09247 0.0374005 0)
(1.07562 0.0148322 0)
(1.07438 0.000605247 0)
(1.14115 0.0790703 0)
(1.1153 0.0458724 0)
(1.11833 0.0374118 0)
(-0.0302086 2.43668 3.22023e-21)
(-0.0205766 2.02275 0)
(-0.0212486 2.22263 0)
(-0.0217234 2.60714 -1.77504e-20)
(-0.0184319 2.61792 5.46968e-22)
(-0.00110647 1.58122 -5.23755e-20)
(-0.0100544 1.50449 5.34839e-20)
(-0.0193257 1.39546 0)
(-0.0234565 1.4013 0)
(-0.0303952 1.39278 0)
(-0.00787447 1.31619 0)
(0.00148804 1.24505 0)
(0.385949 1.51097 2.9215e-19)
(0.433328 1.51522 1.54078e-19)
(0.591591 2.46815 -2.46213e-19)
(0.379478 2.56657 6.85286e-19)
(0.35117 2.05625 6.9737e-20)
(1.02068 -0.00801981 0)
(1.01578 -0.00936979 0)
(1.01484 -0.0132253 0)
(1.0077 -0.000577416 0)
(1.00487 -0.000670469 0)
(1.00799 -0.00449006 0)
(1.00954 -0.00345383 0)
(1.01464 -0.0043058 0)
(1.0196 0.0161637 1.11939e-18)
(1.01726 0.0147102 -1.41553e-18)
(1.01991 0.0184675 -1.1292e-18)
(1.0175 0.0171553 1.40703e-18)
(0.76663 1.35607 0)
(0.706208 1.39054 2.46845e-19)
(0.872774 1.23701 1.01738e-19)
(0.910764 1.19604 -1.35026e-19)
(1.16518 2.61436 2.66004e-19)
(0.760354 0.131889 5.79906e-19)
(1.17132 0.107041 0)
(1.21338 0.200604 -4.19937e-19)
(1.1944 0.154017 -1.747e-20)
(1.01331 0.166402 0)
(0.0786893 3.01946 3.4416e-19)
(0.083695 2.90298 -1.14712e-18)
(0.0271844 2.35852 7.26342e-19)
(0.14105 -0.225004 -3.3702e-19)
(0.343159 3.44658 -2.51602e-19)
(0.193703 3.34097 0)
(0.224395 3.39796 3.27741e-19)
(0.223556 3.07749 -1.2023e-18)
(0.256434 3.19637 0)
(0.00731612 3.12238 5.05011e-20)
(0.0176156 3.13114 -5.8118e-19)
(0.0167759 3.12703 8.55408e-19)
(0.0335908 3.13993 0)
(0.0314571 3.14983 0)
(1.2588 2.57885 0)
(0.531131 0.793204 -5.22211e-19)
(1.02314 1.03142 -1.26308e-20)
(0.987673 1.08489 0)
(0.856681 0.968633 -1.05095e-19)
(1.07989 0.906744 2.66678e-20)
(0.347058 0.319643 -8.30067e-19)
(0.664447 0.319798 -2.1786e-20)
(0.563351 0.221788 3.90142e-19)
(0.558592 0.324443 2.87075e-20)
(0.448121 0.282795 -1.15105e-18)
(0.621364 0.320079 0)
(0.696895 0.422269 6.56792e-19)
(0.700052 0.428552 0)
(0.593959 0.3279 0)
(0.515867 0.25423 0)
(0.793787 0.65109 3.91927e-19)
(1.25162 0.305162 -4.21446e-19)
(1.24387 0.43665 0)
(1.24444 0.39291 0)
(0.697406 0.185487 5.93581e-19)
(0.842667 0.551648 -3.70032e-19)
(0.764155 0.513873 6.60559e-19)
(0.964063 0.44819 -6.66e-19)
(1.01844 0.0146314 7.58654e-19)
(1.01711 0.0136228 -7.66151e-19)
(1.016 0.0141663 0)
(1.03701 -0.00454798 0)
(1.03041 -0.00771002 -7.18452e-19)
(1.02862 -0.0105866 7.10986e-19)
(1.02474 0.0109029 0)
(1.02269 0.0150057 0)
(1.0127 0.00467488 0)
(1.01456 0.00910882 0)
(1.01634 0.00420204 0)
(1.01554 0.00290431 0)
(0.0688089 1.35784 0)
(0.0681308 1.30388 0)
(0.152692 1.41402 5.10895e-20)
(0.277291 1.48204 8.56504e-20)
(0.173693 1.45338 1.9316e-19)
(0.214599 1.45044 -3.11984e-19)
(0.167699 1.42688 0)
(0.148309 1.59222 -7.30723e-20)
(0.14794 1.58501 0)
(0.346702 2.00891 -1.0153e-19)
(0.332466 2.33865 6.20482e-19)
(0.20479 1.46662 6.36701e-20)
(0.276467 1.39773 2.64261e-20)
(0.210309 1.39507 -2.15205e-20)
(0.289971 1.33694 -8.02809e-20)
(0.257088 1.5795 0)
(0.273779 1.625 9.09794e-20)
(0.0254417 2.25873 -1.68461e-20)
(0.0379166 2.67288 0)
(0.0638563 2.40918 9.98937e-20)
(0.0591861 2.43182 0)
(0.0686278 2.69127 -1.83912e-19)
(0.0427248 2.70691 0)
(0.0236649 1.44201 5.35653e-20)
(0.0319693 1.49986 0)
(0.0267857 1.40776 0)
(0.0191943 1.41348 -6.0815e-20)
(0.00139963 2.66414 -1.38551e-21)
(0.0256464 2.69668 1.81806e-19)
(0.00899618 2.73533 9.84174e-22)
(0.00137078 1.84199 -1.84213e-20)
(-0.00466755 1.69342 -1.37654e-20)
(0.0118449 1.30479 0)
(0.018798 1.2323 0)
(0.039349 1.5899 -1.89782e-20)
(0.0356706 1.46653 -5.29578e-20)
(0.0274823 1.54115 5.84317e-20)
(0.0470896 1.615 0)
(-0.0307728 2.27398 1.15179e-19)
(-0.0338676 2.55493 -4.89291e-20)
(-0.0197737 2.45398 7.87136e-21)
(-0.00531517 1.85933 2.23344e-20)
(-0.0277292 2.50875 1.03228e-20)
(-0.0230138 2.44953 -2.20376e-20)
(1.01767 0.0219044 -7.62837e-19)
(1.01427 0.0281958 7.71439e-19)
(1.01198 0.016023 0)
(1.01196 0.0704822 1.05358e-18)
(0.990166 0.0608958 -1.21239e-18)
(0.947857 0.0540177 1.36038e-18)
(1.01374 0.116026 -1.4332e-19)
(1.04393 -0.00470071 0)
(1.05212 -0.000476278 6.88154e-19)
(1.04023 -0.00819439 -6.8779e-19)
(1.07217 0.0434111 -4.07813e-20)
(1.06486 0.0286704 3.52261e-19)
(1.06428 0.0652756 0)
(1.05427 0.0542859 -1.26924e-19)
(1.03202 0.0446115 0)
(1.02497 0.0401935 0)
(1.02758 0.0136502 0)
(1.02398 0.0161136 0)
(1.04086 0.0336436 2.6094e-19)
(1.03951 0.0291188 -5.77621e-19)
(1.05302 0.038527 -2.75957e-19)
(1.04821 0.0385321 -3.04671e-19)
(1.07769 0.0699172 5.8225e-19)
(1.10161 0.0559432 0)
(1.10849 0.0945196 0)
(-0.028759 2.2807 6.9308e-20)
(-0.0302497 2.02813 3.34108e-21)
(-0.025515 2.03804 0)
(-0.0304051 2.44993 -6.9007e-20)
(-0.0278425 2.40784 -6.4274e-21)
(-0.0349637 2.47737 8.74015e-21)
(-0.0216917 2.62839 -2.89825e-20)
(-0.0264172 2.57071 1.48792e-21)
(-0.0247506 2.52387 -9.89022e-21)
(-0.0173805 2.62165 1.96961e-20)
(-0.0214741 2.62378 -2.25942e-20)
(-0.00962565 1.49831 -3.16363e-22)
(-0.00454134 1.62941 -5.13628e-20)
(0.377845 1.44793 -1.25957e-19)
(0.372215 1.38072 1.12809e-20)
(0.648113 1.43879 -2.38858e-19)
(0.525107 1.50856 -1.50135e-19)
(0.578828 1.46701 0)
(0.607775 2.42468 2.17149e-19)
(0.667537 2.43365 3.37249e-19)
(0.423038 2.51942 9.0411e-20)
(0.402626 2.54176 -6.27052e-19)
(0.501771 2.48226 5.6426e-19)
(0.55395 2.47819 0)
(0.487662 2.52881 -5.45761e-19)
(0.262496 2.59123 1.11683e-18)
(0.35765 2.57138 -5.85754e-20)
(0.280009 2.65394 -1.55155e-18)
(0.970422 2.39213 7.10523e-19)
(0.848808 2.393 0)
(1.01145 0.00138112 2.50143e-20)
(1.01536 -0.00519773 -2.04295e-20)
(1.01774 -0.00395839 -3.73463e-19)
(1.01559 -0.00105988 3.72108e-19)
(1.01311 0.00182747 0)
(0.636567 1.30229 0)
(0.677026 1.18731 0)
(0.791524 1.11752 0)
(0.664693 1.14535 0)
(1.19615 2.6298 5.13867e-20)
(1.08889 2.38148 0)
(0.819367 2.17353 3.48012e-21)
(0.822081 2.4357 0)
(0.916896 2.52573 -4.28501e-19)
(0.94838 2.47523 2.86081e-19)
(0.785089 0.164744 0)
(0.731252 0.146203 1.57606e-19)
(0.906198 0.15976 9.17793e-19)
(0.821687 0.142233 -3.41247e-19)
(0.757219 0.0895165 -1.06271e-18)
(1.08835 0.2444 -8.35429e-19)
(0.987595 0.31326 -9.79117e-21)
(0.932915 0.349234 8.07935e-19)
(1.01532 0.258589 6.88741e-19)
(0.932928 0.204795 -1.20923e-18)
(0.892303 0.218902 1.50934e-19)
(0.934394 0.31445 -3.16563e-19)
(0.907743 0.220996 0)
(1.00137 0.208324 5.91546e-19)
(1.05637 0.217316 0)
(1.05276 0.226759 0)
(1.12531 0.123984 2.6593e-19)
(1.06532 0.193701 -1.06299e-20)
(1.08019 0.246465 -1.52259e-19)
(1.11386 0.210208 0)
(1.02333 0.0485477 5.89956e-19)
(1.03771 0.0633019 7.3554e-19)
(1.03291 0.0468602 -5.86282e-19)
(1.04232 0.0694711 -4.93011e-19)
(1.01467 0.0745251 -7.46489e-19)
(0.987415 0.171394 0)
(0.990308 0.10859 0)
(0.96123 0.0705258 -4.8372e-19)
(0.898945 0.100398 1.91626e-19)
(1.03929 0.116168 6.81478e-19)
(1.07607 0.135985 -7.78776e-19)
(1.06998 0.180013 7.00111e-19)
(1.03575 0.156236 0)
(1.0863 0.122432 0)
(1.05727 0.111826 -3.19656e-19)
(1.04321 0.108024 -5.54128e-19)
(0.587303 1.08764 1.14468e-19)
(0.614651 1.40741 -1.79013e-20)
(1.14553 2.72105 -2.41576e-19)
(1.19807 3.10506 1.68182e-21)
(1.2541 2.7306 -1.16724e-19)
(1.29403 2.70169 1.55775e-20)
(1.26973 2.32509 -3.79329e-20)
(1.18583 3.01058 -6.97033e-20)
(1.20526 2.9675 2.17097e-19)
(1.17992 3.25869 -1.24023e-19)
(1.39796 2.97348 1.54591e-19)
(1.40954 2.91008 0)
(0.569999 0.819835 -4.72736e-20)
(0.213978 1.21406 4.73211e-19)
(0.512714 0.365139 5.34219e-19)
(0.397149 0.127495 6.07197e-19)
(0.491444 0.310751 6.51116e-19)
(0.545981 0.42349 -1.05712e-18)
(0.551984 0.411582 8.70334e-19)
(0.476927 0.31818 -3.28181e-19)
(0.361606 0.25802 7.42933e-19)
(0.728437 0.253173 -3.42269e-19)
(0.683592 0.284155 0)
(0.622698 0.198278 7.95088e-21)
(0.737856 0.505297 3.58239e-19)
(0.706826 0.477215 -1.29966e-18)
(0.634956 0.435675 1.67932e-20)
(0.62778 0.41476 0)
(0.714419 0.715449 3.71514e-19)
(0.830387 0.79691 4.09455e-19)
(0.767857 0.846507 -4.77186e-19)
(0.899531 0.819397 -1.51784e-19)
(0.934748 0.86247 -3.52567e-20)
(0.942353 0.869958 3.61613e-20)
(0.879046 0.674928 -6.66972e-19)
(0.951358 0.722271 1.41116e-19)
(1.00526 0.726464 0)
(1.004 0.702396 -1.8068e-19)
(1.03131 0.337987 2.09816e-19)
(1.15856 0.337478 2.53487e-19)
(1.07433 0.282016 3.41662e-19)
(0.998964 0.383803 -4.18651e-19)
(1.05457 0.484477 0)
(1.13695 0.425971 0)
(0.901693 0.419991 1.50933e-21)
(0.849672 0.317948 0)
(0.894915 0.307061 3.86691e-19)
(0.919552 0.347257 4.69294e-21)
(0.984055 0.492947 1.86098e-18)
(0.916994 0.55201 4.8024e-19)
(0.938996 0.508131 -5.08032e-19)
(0.856987 0.485289 5.41377e-19)
(0.825214 0.459259 3.44738e-19)
(0.804331 0.433808 -3.37822e-19)
(1.02814 -0.00037774 6.17081e-19)
(1.0204 0.000535105 0)
(1.01904 0.00135882 4.02693e-19)
(1.02261 -0.000761522 -9.11603e-19)
(1.02253 0.00454197 4.44113e-19)
(1.02003 0.011585 -9.2949e-19)
(1.02076 0.0113711 0)
(1.01969 0.0121079 -1.93575e-19)
(1.01654 0.00777239 4.85137e-19)
(1.01668 0.010882 -2.43465e-19)
(1.01728 0.0105733 1.78145e-19)
(0.0260977 1.32891 0)
(0.0342567 1.38386 0)
(0.0432968 1.33446 0)
(0.0468964 1.27738 0)
(0.0805815 1.4045 -8.62375e-20)
(0.0851456 1.37562 2.63776e-20)
(0.0933687 1.56866 4.13721e-21)
(0.101724 1.40641 -3.43863e-20)
(0.0391924 1.47808 4.69376e-20)
(0.0438189 1.47386 -3.67994e-20)
(0.0689241 1.39446 -1.81785e-20)
(0.056963 1.39623 7.70664e-20)
(0.0510328 1.37266 1.20145e-20)
(0.0387137 1.39131 7.71506e-21)
(0.0995169 2.37562 -1.10338e-19)
(0.0907542 2.41933 0)
(0.146497 2.01862 9.61968e-20)
(0.133459 1.69946 3.48363e-20)
(0.215562 2.02295 -7.6013e-20)
(0.217662 2.42489 0)
(0.219245 2.40366 -6.0328e-19)
(0.309737 2.37763 4.51543e-19)
(0.248608 1.9903 -2.06014e-19)
(0.142635 2.15432 1.40129e-19)
(0.112068 2.25522 0)
(0.016583 1.86148 -1.59229e-20)
(-0.00356551 2.38412 -1.2518e-20)
(0.00386 2.14084 0)
(0.00698649 2.44606 -1.66371e-20)
(0.0258854 2.28432 1.95737e-20)
(0.00931374 1.41946 -1.04943e-20)
(0.00911513 1.40208 1.76451e-19)
(0.00794456 1.40968 -5.64182e-20)
(0.0176404 1.41463 -5.09382e-20)
(0.0215686 1.44526 0)
(0.0063722 1.39281 0)
(-0.000976003 1.30306 -6.78358e-20)
(0.0015715 1.37829 1.91911e-20)
(0.00674255 1.38036 0)
(0.00761782 1.29754 -5.2765e-20)
(0.0136477 1.22355 1.05081e-19)
(1.04242 0.0149939 0)
(1.04892 0.0104529 -6.43422e-20)
(1.03911 0.0241476 -4.65634e-19)
(1.04946 0.0231676 0)
(1.05465 0.0225152 0)
(1.03629 0.0130024 -6.77871e-21)
(1.03004 0.0134193 7.50952e-19)
(1.03194 0.0174237 9.09099e-19)
(1.02557 0.0211324 0)
(1.02197 0.0215782 0)
(1.03557 0.0258098 4.64444e-19)
(1.02613 0.0281743 0)
(1.02305 0.0287314 0)
(-0.0204744 2.02929 0)
(-0.00844756 1.65731 -2.25326e-21)
(-0.00947149 1.76371 -3.22393e-20)
(-0.00378427 1.38752 0)
(-0.00872923 1.55824 -2.78804e-20)
(-0.0138471 1.46582 1.77807e-20)
(-0.00797525 1.39954 0)
(0.404205 1.63127 0)
(0.366036 1.31866 -1.87311e-20)
(0.276706 1.34745 0)
(0.435571 1.31632 -4.8336e-20)
(0.472818 1.47455 0)
(0.45757 1.41622 4.50948e-20)
(1.04068 2.67386 -1.50946e-20)
(0.985007 2.41142 -8.9268e-19)
(0.947488 2.21107 1.0021e-18)
(0.865519 2.38515 2.41175e-19)
(0.853231 2.49078 0)
(0.92201 2.48594 0)
(0.954199 2.38526 0)
(0.930291 2.3757 -9.31985e-19)
(0.691873 2.45569 -3.74085e-19)
(0.800883 2.43936 -9.66302e-20)
(0.808212 2.4176 7.28191e-20)
(0.704432 2.40537 0)
(0.80969 2.39921 0)
(0.770469 2.41548 -3.65387e-19)
(0.766249 2.4694 0)
(0.626557 1.06674 0)
(0.514956 0.864195 -5.46786e-19)
(0.520717 0.935329 -3.16523e-20)
(0.501303 1.07392 0)
(0.488028 0.982922 8.37484e-19)
(0.797067 0.885274 -1.31116e-19)
(0.802593 1.02045 0)
(0.783239 1.00303 1.79816e-19)
(0.671135 1.02082 0)
(0.662979 0.92579 0)
(1.16392 2.75724 -2.1526e-19)
(1.13898 2.81551 -8.6259e-20)
(0.923866 2.33889 6.90497e-20)
(0.900555 2.31959 -7.4129e-20)
(1.13351 2.73509 0)
(1.08548 2.70294 8.90512e-20)
(1.10166 2.49813 -2.93708e-19)
(1.00321 2.2573 -2.84433e-20)
(0.498214 1.33371 0)
(0.517478 1.07955 -1.00841e-19)
(0.593528 1.18165 0)
(0.844932 0.227281 0)
(0.757764 0.176213 0)
(0.674495 0.139978 0)
(0.853182 0.228213 -6.09343e-19)
(0.749436 0.221267 3.5763e-19)
(0.917266 0.08396 -3.96544e-19)
(0.932474 0.134481 0)
(0.902644 0.145426 1.71774e-19)
(0.843298 0.104501 6.88006e-19)
(0.806736 0.0720293 -4.29383e-19)
(1.09776 3.35049 -6.77399e-19)
(1.16501 3.27374 0)
(1.1163 3.43539 -1.5769e-18)
(0.65753 3.58122 1.31339e-18)
(1.02671 3.07835 1.24136e-19)
(0.53097 0.788163 5.62045e-19)
(0.51184 0.756586 0)
(0.355 0.383682 -1.43891e-19)
(0.48093 0.634272 8.49917e-19)
(0.541547 0.365755 -1.90623e-19)
(0.514192 0.46104 2.24848e-19)
(0.688064 0.52721 4.62986e-19)
(0.733633 0.560483 0)
(0.659325 0.569406 0)
(0.640428 0.533605 0)
(1.01388 0.609971 8.89e-20)
(0.967712 0.591143 -4.64966e-19)
(0.978028 0.604018 3.55326e-19)
(1.04268 0.546593 -3.43272e-19)
(1.08781 0.515698 0)
(1.08997 0.598853 -9.02043e-20)
(0.885165 0.4145 -7.65484e-19)
(0.874056 0.402704 -9.84533e-19)
(0.804025 0.399414 6.04824e-19)
(0.816585 0.366672 -6.25925e-19)
(0.856315 0.327177 -4.92144e-19)
(0.804136 0.330549 6.02796e-19)
(1.02656 0.00664937 -4.64721e-19)
(1.02618 0.00677111 9.36212e-19)
(1.02993 0.00091733 5.97921e-19)
(1.03415 0.00155832 -7.17903e-19)
(1.03392 0.0118917 0)
(1.02968 0.0120026 -1.17594e-18)
(0.0798505 1.6443 1.17955e-20)
(0.0637498 1.59769 0)
(0.103787 1.69829 6.29372e-20)
(0.112773 1.67445 -5.48217e-20)
(0.0875132 1.56706 -7.55516e-21)
(0.0781986 1.56845 0)
(0.00629844 1.69481 0)
(-0.00727016 1.50661 1.48242e-20)
(-0.00612422 1.44649 -1.33156e-20)
(-0.0112744 1.55517 3.18327e-21)
(-0.00246338 1.89113 2.158e-20)
(-0.0143161 1.94614 -8.35174e-21)
(0.494089 1.36431 -2.51237e-19)
(0.496446 1.35998 2.74787e-19)
(0.448596 1.30865 -5.21416e-21)
(0.428767 1.29423 7.17975e-21)
(0.626711 1.31114 0)
(0.555708 1.40408 1.21346e-19)
(0.55652 1.4068 -1.18166e-19)
(0.484591 1.29455 5.02471e-21)
(0.524292 1.24978 0)
(0.588931 1.21537 0)
(0.665735 2.41903 5.50837e-19)
(0.661329 2.44843 1.26796e-18)
(0.716699 2.46341 -8.71961e-19)
(0.615247 2.43498 -1.99349e-19)
(0.556655 2.52946 2.72469e-19)
(0.496845 2.49496 -7.04123e-19)
(0.993084 2.39016 -5.64438e-19)
(1.02536 2.40792 0)
(0.951857 2.19505 -6.17695e-19)
(1.05628 2.68399 0)
(1.05521 2.66524 0)
(0.604495 2.29327 1.70666e-20)
(1.1198 3.0712 8.51134e-20)
(0.99842 2.96942 -1.35026e-19)
(0.324466 0.807794 0)
(0.325901 0.692074 -3.00415e-19)
(0.529874 0.625341 -3.02936e-19)
(0.367935 2.13648 0)
(0.404903 2.74507 -8.737e-20)
(0.414809 2.48042 0)
(0.722349 0.680671 -7.92119e-19)
(0.787669 0.685481 1.10427e-18)
(0.794861 0.654996 -1.04679e-18)
(0.696144 0.640493 -1.00579e-19)
(0.756667 0.599012 -4.13921e-19)
(0.972387 2.75542 -6.4465e-20)
(1.01447 2.76124 -2.00985e-19)
(0.555781 2.21267 4.20928e-19)
(0.606823 1.73776 -3.357e-19)
(0.705744 1.85649 -4.84977e-19)
(0.978446 2.39582 -1.36799e-19)
(0.978065 2.34949 3.56012e-19)
(0.649434 1.76927 3.26813e-20)
(0.455612 1.30012 1.70494e-19)
)
;

boundaryField
{
    wall-4
    {
        type            noSlip;
    }
    velocity-inlet-5
    {
        type            fixedValue;
        value           uniform (1 0 0);
    }
    velocity-inlet-6
    {
        type            fixedValue;
        value           uniform (0 3 0);
    }
    pressure-outlet-7
    {
        type            zeroGradient;
    }
    wall-8
    {
        type            noSlip;
    }
    frontAndBackPlanes
    {
        type            empty;
    }
}


// ************************************************************************* //
