/*--------------------------------*- C++ -*----------------------------------*\
  =========                 |
  \\      /  F ield         | OpenFOAM: The Open Source CFD Toolbox
   \\    /   O peration     | Website:  https://openfoam.org
    \\  /    A nd           | Version:  6
     \\/     M anipulation  |
\*---------------------------------------------------------------------------*/
FoamFile
{
    version     2.0;
    format      ascii;
    class       volScalarField;
    location    "99";
    object      p;
}
// * * * * * * * * * * * * * * * * * * * * * * * * * * * * * * * * * * * * * //

dimensions      [0 2 -2 0 0 0 0];

internalField   nonuniform List<scalar> 
918
(
0.532056
1.21564
0.0071087
0.531967
-0.0116156
1.18249
-0.509494
0.628193
0.51321
-0.123039
-0.0844094
0.515253
1.04027
0.807334
-1.17154
-0.0252197
0.627853
-0.420639
0.511283
-0.0965621
0.638814
0.519883
0.522347
0.513132
0.574988
0.75985
0.918308
-0.00372519
0.0127776
0.00741361
-0.0130715
-0.0334431
-0.0307677
1.0656
1.1175
1.14087
0.479685
0.312029
-0.404316
-0.459763
-0.436133
-0.525699
0.628826
0.629485
-0.234049
0.627684
0.626534
0.498883
0.512604
0.51344
0.514562
0.513473
0.51475
0.408098
-0.130295
-0.157919
-0.107525
-0.106469
0.0244703
-0.086679
-0.0878835
-0.0820612
-0.0839276
0.428628
0.510019
0.506626
0.519519
0.528574
1.15581
1.12973
1.15597
1.06536
1.08329
1.01738
0.990601
0.828574
0.852098
0.790567
0.776934
-1.62279
-2.56189
-0.598784
-0.326133
-0.0111385
-0.0273243
-0.0262053
0.623417
0.625112
0.6255
0.628337
1.03326
-0.392217
-0.465157
0.511828
0.51036
0.519403
0.520308
0.515276
0.515273
-0.0925776
-0.0909178
-0.0805047
-0.0933021
-0.0918234
0.618386
0.621189
0.512567
0.510008
0.536748
0.559317
0.547899
0.245297
0.585532
0.601367
0.624543
0.770254
0.756839
0.769421
0.893583
0.861453
0.950256
0.972086
0.014754
-0.00193675
-0.0261957
-0.0237559
-0.0241741
0.475421
0.468979
0.497291
0.483312
0.486359
0.218455
0.0697917
0.393248
0.416117
-0.328441
-0.379567
-0.461841
-0.460884
-0.568517
0.596661
0.630692
0.629868
-0.24535
-0.172755
-0.30107
-0.114535
-0.172286
0.489822
0.496082
0.492152
0.507556
0.501716
0.504144
0.516672
0.513857
0.515449
0.456896
0.58156
0.332821
0.291399
-0.279716
-0.176247
-0.260201
-0.0987783
-0.0974304
0.0335935
0.0622149
0.011557
-0.00109491
-0.0922474
-0.0890014
-0.0911646
-0.0848306
-0.0872191
0.420055
0.406968
0.439905
0.447448
0.496578
0.497959
0.502526
0.500522
0.942577
0.965414
0.970842
0.946848
-3.53091
-6.14603
0.0133867
0.170372
-0.0105057
-0.0123704
-0.000747495
-0.010588
-0.00199375
-0.00327515
-0.0367667
-0.0360655
-0.0291853
-0.0302771
0.620148
0.62152
0.999046
1.02619
0.972095
0.947196
0.501201
0.503071
0.507691
0.504576
-0.0872998
-0.0894449
-0.0881654
0.624959
0.622686
0.623835
0.203723
0.114457
0.297264
0.32861
0.617219
0.606007
0.615855
0.684434
0.723643
0.988651
1.01152
0.996601
1.00844
1.05876
1.08164
1.04688
0.45395
0.464902
0.459157
0.500082
0.497924
0.498858
0.49553
0.49642
0.495109
-0.040705
-0.409367
0.463863
0.465384
0.458136
0.460621
0.683967
0.767934
0.626329
0.629055
0.629159
-0.0623899
-0.109542
0.239038
0.202018
0.358876
0.393673
0.375382
0.917606
0.876964
0.925374
0.900465
0.865204
0.889657
-0.344603
-2.0984
-1.09764
0.566222
0.371073
0.461968
-0.0191476
-0.0366573
-0.0330778
1.01577
1.05526
0.644513
0.837913
0.790293
0.746124
0.772449
0.835925
0.768353
0.803089
0.833647
0.809138
0.545339
0.474203
0.492614
0.843145
0.89847
0.0764219
-0.00350921
-0.0263037
0.086602
0.157874
0.124718
1.03199
0.950935
1.01275
0.51025
0.511204
-0.0231061
-0.0519135
0.515322
0.515034
-0.0240914
-0.0149938
0.476868
-0.937373
0.0770309
0.504881
0.494457
0.511322
-0.10507
0.309563
-0.0892422
0.00244049
-0.0301645
0.506064
0.441031
0.398586
-0.011946
-0.0353502
-0.0884405
-0.215264
0.507989
0.506345
0.510712
0.511529
0.512309
-0.032583
-0.0330876
-0.022276
-0.0781784
-0.0718613
-0.0845103
0.47455
0.494595
-0.199543
0.511008
0.513115
0.512807
0.507055
0.51197
0.510618
-0.0269043
-0.0298552
-0.0316401
0.183311
0.325533
0.659274
0.733681
0.608413
0.442985
0.154548
0.597019
0.648421
0.574043
0.704452
0.62864
0.626391
0.143878
-0.000654072
0.148364
0.0813127
0.501684
0.501142
0.491973
0.488848
0.50617
0.503849
0.50904
0.506305
0.509473
0.510608
-0.0603822
-0.0873621
-0.104632
-0.147498
0.277463
0.536827
0.219571
0.282747
0.142435
-0.0809146
-0.0783744
-0.0843671
-0.0876565
-0.0496372
-0.0498942
-0.00376972
0.00719419
-0.0109905
-0.0368091
-0.0584664
-0.0503881
-0.0588829
0.499208
0.499169
0.504459
0.513252
0.45069
0.454394
0.420694
0.43944
0.425582
0.365492
0.395212
0.372332
-0.0219432
-0.0136064
-0.0138256
-0.0366147
-0.0355455
-0.0585838
-0.0517467
-0.0500569
-0.0483134
-0.0530523
-0.0818158
-0.0877549
-0.179374
-0.30034
0.943718
0.883871
0.134193
0.497869
0.50355
0.50071
0.505475
0.508665
0.509289
0.506853
0.503341
0.494737
0.496379
0.492874
0.493937
-0.136775
-0.247478
-0.0785181
-0.155834
0.141196
0.608374
0.33264
0.277213
0.262459
0.490328
0.676655
0.582884
0.636839
0.608175
-0.400949
-0.00643689
-0.337076
0.206832
0.204962
0.68671
0.728238
0.745636
0.702631
0.659143
-0.0263922
0.538652
-0.0841342
-0.0316797
0.161369
0.0411692
0.592868
0.614045
0.620791
0.61893
0.62287
0.622296
0.612706
0.599294
0.623386
0.62643
0.484892
0.211539
0.167606
0.121813
0.613051
0.508523
0.55931
0.47563
0.497312
0.499747
0.498727
0.479357
0.486729
0.482381
0.489629
0.493256
0.500644
0.50081
0.496596
0.498567
-0.0793238
-0.0879245
-0.0658593
-0.128439
-0.133286
-0.17748
-0.0849964
0.0939353
0.0422733
0.226398
0.334572
0.0687832
-0.0550133
-0.0361037
0.0146944
0.175561
0.174364
0.0490375
0.148638
0.123385
0.105548
0.219147
0.219798
-0.0553503
-0.0633294
-0.0618506
-0.0682493
-0.022851
0.0999041
0.070986
-0.036286
-0.0417383
-0.0769728
-0.0809194
0.00264473
-0.0440513
-0.0359459
-0.00427724
-0.0644932
-0.0390946
-0.0298417
-0.0389506
-0.0391121
-0.0380807
0.493778
0.495671
0.495785
0.505794
0.517583
0.532615
0.498566
0.471945
0.46295
0.466053
0.439098
0.448332
0.443621
0.459474
0.481093
0.489567
0.487628
0.490346
0.472349
0.474034
0.459382
0.464036
0.433172
0.414306
0.404094
-0.0609014
-0.0287676
-0.0422238
-0.0535765
-0.0288735
-0.0377243
-0.0382593
-0.0191587
-0.0390642
-0.033511
-0.0431538
-0.0502874
-0.0510541
-0.0813701
0.00181078
-0.186667
-0.233033
-0.287573
0.868433
1.00801
0.791048
0.554661
0.571933
0.814
0.922498
0.524836
0.737566
0.751883
0.563058
0.855025
0.501846
0.501417
0.499263
0.498426
0.499446
-0.0236518
0.0802716
0.0900539
0.150708
0.265129
0.369634
0.306055
0.191688
0.323918
0.349082
0.604971
0.610661
0.569888
0.592792
0.594055
0.39983
0.48071
0.517753
0.475821
0.549217
0.583105
0.52917
0.572215
0.492777
0.443198
0.434316
0.389144
0.423879
0.404832
0.379262
0.493728
0.470426
0.481263
0.471449
0.493622
0.518339
0.519358
0.541121
0.55815
0.472085
0.417453
0.434449
0.463349
0.419464
0.43722
0.459399
0.180908
0.0822072
0.24521
-0.0820957
0.0011658
0.0430805
-0.000944334
-0.0419423
0.264542
-0.370533
-0.316679
-0.98995
0.488542
0.814465
0.535283
0.546521
0.620575
0.608584
0.615882
0.614765
0.621627
0.599781
0.609559
0.61413
0.586425
0.607344
0.594714
0.605077
0.486042
0.386602
0.391189
0.321486
0.182093
0.22457
0.412436
0.345683
0.271889
0.264175
0.442237
0.306391
0.38636
0.436302
0.358319
0.294386
0.521868
0.568837
0.561828
0.534038
0.4122
0.446481
0.447004
0.497926
0.542155
0.565152
0.488175
0.494462
0.495373
0.492648
0.491018
0.49414
0.494428
0.496727
0.496858
0.499452
0.498951
-0.0779891
-0.0640799
-0.0768152
-0.0856207
-0.0263179
-0.0356708
0.0016064
-0.0294396
-0.0350733
-0.0286166
-0.0461831
-0.0612114
-0.0602806
-0.0515023
0.0734744
0.0877764
0.0983846
0.0565074
0.253036
0.393074
0.472841
0.358665
0.207337
0.234303
0.299619
0.0267966
0.00681805
-0.00557148
0.0668782
0.0593508
-0.0677756
-0.0735009
-0.0724613
-0.0558226
-0.0484616
-0.0775758
-0.0809147
-0.0677867
-0.0753504
-0.079589
-0.0844035
0.473622
0.466522
0.470147
0.462553
0.460706
0.477645
0.482223
0.483354
0.48897
0.491506
0.481031
0.486872
0.491017
-0.0402307
-0.0579616
-0.0570003
-0.061017
-0.0577171
-0.0561104
-0.0612062
0.119347
0.0272695
0.0628089
-0.00789348
-0.135167
-0.0754515
0.491656
0.482725
0.46997
0.709915
0.546367
0.465058
0.562995
0.684117
0.266362
0.464802
0.300727
0.874713
0.78279
0.927577
0.543953
0.246907
0.420073
0.427178
0.267779
0.393545
0.331259
0.206999
0.242432
0.277966
0.362053
0.245587
0.2251
-0.0181835
0.164291
0.27293
0.254796
0.380683
0.43631
0.258303
0.173386
0.119169
0.586153
0.602685
0.611313
0.582334
0.603837
0.560616
0.551666
0.569458
0.578756
0.572617
-0.624414
-0.213498
-1.41241
-0.831857
-0.380101
0.516141
0.521147
0.738786
0.637229
0.642353
0.624298
0.579416
0.559708
0.588119
0.599718
0.310475
0.395333
0.381946
0.357776
0.304409
0.247146
0.520039
0.529849
0.551285
0.579409
0.555134
0.583262
0.486945
0.486787
0.485458
0.481713
0.480219
0.483472
0.0207532
-0.00346049
0.0338871
0.0257889
0.00174869
-0.00704879
-0.048977
-0.0613668
-0.060275
-0.0564688
-0.0457383
-0.0445468
0.166543
0.103565
0.0160879
0.0568185
-0.0105406
-0.0874534
-0.0935757
-0.00189202
0.0973747
0.0780509
0.380343
0.646615
0.473344
0.637255
0.438187
0.534256
0.453025
0.426945
0.453676
0.360648
0.451487
0.0549361
-0.147617
-0.202382
0.809263
0.774123
0.551384
0.312107
0.189869
0.477406
0.498688
0.459362
0.493444
0.536417
0.527354
0.0230817
0.106758
0.199737
0.503017
0.274624
0.294535
0.284126
0.451964
0.419792
)
;

boundaryField
{
    wall-4
    {
        type            zeroGradient;
    }
    velocity-inlet-5
    {
        type            zeroGradient;
    }
    velocity-inlet-6
    {
        type            zeroGradient;
    }
    pressure-outlet-7
    {
        type            fixedValue;
        value           uniform 0;
    }
    wall-8
    {
        type            zeroGradient;
    }
    frontAndBackPlanes
    {
        type            empty;
    }
}


// ************************************************************************* //
