/*--------------------------------*- C++ -*----------------------------------*\
  =========                 |
  \\      /  F ield         | OpenFOAM: The Open Source CFD Toolbox
   \\    /   O peration     | Website:  https://openfoam.org
    \\  /    A nd           | Version:  6
     \\/     M anipulation  |
\*---------------------------------------------------------------------------*/
FoamFile
{
    version     2.0;
    format      ascii;
    class       surfaceScalarField;
    location    "99";
    object      phi;
}
// * * * * * * * * * * * * * * * * * * * * * * * * * * * * * * * * * * * * * //

dimensions      [0 3 -1 0 0 0 0];

internalField   nonuniform List<scalar> 
1300
(
3.75095
5.62643
-3.30194
3.75095
-7.76072
5.62643
-4.29322
4.29322
-0.40135
0.40135
1.8765
1.87445
-2.4339
2.4339
-1.67166
1.67166
-2.52542
2.52542
-5.24819
5.24819
-5.06895
5.06895
4.69264
-4.69264
-6.35229
6.35229
-0.969013
0.969013
-3.5872
3.5872
3.17234
-3.17234
-1.73515
1.73515
0.112818
-0.112818
-0.554079
4.30503
3.19687
3.19687
-1.98831
1.98831
-4.87534
4.87534
6.22171
-6.22171
5.19648
-5.19648
-1.89454
-2.53539
1.78837
-11.4465
-5.97235
-5.97235
-8.44087
8.44087
-2.81444
2.81199
2.94735
-2.94735
-1.71303
1.71303
-4.31118
0.0179671
-4.31118
4.26251
0.0307052
4.26251
-0.512516
0.111166
-0.512516
3.96552
-3.96552
0.305371
0.095979
0.305371
3.06734
-3.06734
-1.87685
3.75335
1.8741
-1.8721
6.17713
-1.87885
3.7533
-6.04035
6.04035
-2.68427
0.250369
-2.68427
2.20069
0.233217
2.20069
-6.90271
6.90271
-1.76848
0.0968241
-1.76848
1.68338
-0.0117206
1.68338
2.8887
-2.8887
-2.62577
0.100346
-2.62577
2.39176
0.133655
2.39176
0.35305
5.27338
-5.97948
8.79147
-5.27338
0.0251914
5.21021
0.0379796
5.21021
-5.10539
0.036444
-5.10539
5.01384
0.0551051
5.01384
4.7792
-0.0865641
4.7792
-4.81445
0.121807
-4.81445
-3.35437
-4.08248
-6.51303
0.160743
-6.51303
-1.03494
0.0659239
-1.03494
0.861253
0.10776
0.861253
-3.72632
3.72632
-3.94733
0.360131
-3.94733
3.12727
0.0450664
3.12727
1.86812
1.88284
5.61907
-5.61907
2.44673
-1.6634
-0.0717515
-1.6634
-1.82712
-3.36936
1.82712
-0.0919613
-0.124976
0.237794
-0.124976
3.15713
0.0397408
3.15713
2.23852
0.153239
-2.23852
0.250218
3.3038
-3.3038
1.32621
0.662094
1.32621
-5.55854
5.55854
4.96232
0.0515239
-4.96232
0.0869763
6.15656
0.0651512
6.15656
-6.20694
-0.0147666
-6.20694
2.4811
-5.0165
-2.69572
6.16301
0.189275
-6.16301
0.190658
2.91895
0.0284024
2.91895
-2.9175
2.9175
-2.98431
0.0369589
-2.98431
-2.13594
0.422916
-2.13594
1.39879
0.314235
1.39879
-4.22637
-0.0848098
-4.22637
-4.10671
0.159381
4.10671
0.155803
1.11327
-1.11327
-0.613705
0.101189
-0.613705
-4.07308
-0.153294
4.07308
-0.107555
-3.90234
-0.0631884
-3.90234
-3.02197
0.0376619
3.02197
0.0453683
3.11214
0.0449981
-3.11214
0.0447955
-1.87099
3.75383
-1.87996
3.75406
-5.67572
-0.364626
-5.67572
6.36162
-0.321271
6.36162
3.10776
0.47944
-3.10776
0.423483
2.01416
0.186523
2.01416
-6.87399
-0.0287152
-6.87399
6.91111
-0.00840366
6.91111
1.87432
0.139847
-1.87432
0.105834
1.67083
0.0125447
1.67083
2.91645
-0.0277525
2.91645
-2.88223
-0.00646884
-2.88223
2.78847
-2.78847
2.71351
0.0749535
-2.71351
0.0877463
-11.1249
11.1101
-0.0363193
-11.0886
5.17389
5.17389
4.23105
0.548155
4.23105
-5.01288
0.198435
-5.01288
2.67137
-5.3671
3.12872
-6.48309
4.67296
-16.1194
4.27589
-8.35838
6.76317
-6.76317
6.64534
0.117827
-6.64534
0.132311
-1.14197
0.107035
-1.14197
-3.12838
-0.597945
-3.12838
4.36544
-0.639118
4.36544
-3.02728
3.02728
-3.07615
0.0488748
3.07615
0.0511228
1.65121
0.0196252
-1.65121
-0.0121935
0.207798
0.0975731
-0.207798
0.0828218
3.52779
-0.223996
3.52779
-3.09816
-0.205641
-3.09816
-1.23585
0.0938792
1.23585
0.0903613
-5.80739
0.248854
-5.80739
-11.1823
0.0937591
-11.1443
-6.11319
-6.11319
2.32769
11.1192
-2.8974
0.0151663
2.8974
0.0215519
2.97431
0.0529631
-2.97431
0.0568085
-2.85554
0.067072
2.85554
0.0619675
-2.50399
0.368049
-2.50399
-1.01543
1.01543
-1.16215
0.146712
1.16215
0.236645
1.41665
-0.303384
1.41665
0.746612
0.114641
-0.746612
0.132907
-3.84527
-0.0570658
-3.84527
6.59481
-0.233196
6.59481
-2.96868
-0.129474
2.96868
-0.0522299
-0.0347521
11.1449
-5.13914
0.0337441
5.13914
-11.21
11.2438
-3.20884
0.704852
3.20884
1.0222
5.2835
0.275038
-5.2835
0.270622
6.85281
0.0583033
-6.85281
0.0896388
-2.63788
-0.490497
-2.63788
-5.08889
-0.586836
5.08889
-0.723444
-11.4823
-0.202187
11.6845
-11.4272
6.00958
0.146978
-6.00958
11.3907
-0.987257
-0.126009
0.987257
0.0281763
1.75803
-0.34138
1.75803
3.74753
-0.219734
-3.74753
-0.0977437
-6.76034
-0.113647
6.76034
-0.165529
-2.1877
-0.450184
2.1877
-0.429668
-4.26739
4.30714
1.90974
-2.31438
-2.70212
-5.68375
1.8553
1.89853
4.30203
-10.136
-5.98341
-9.94538
7.21503
-6.94441
-9.31336
9.2268
7.94809
-8.01128
-5.77724
5.82836
6.48484
-6.43947
1.87949
1.87386
8.09027
-7.8399
-15.6671
15.3025
7.67644
-7.57961
15.8007
-15.8294
-17.8416
17.8999
-5.70557
5.80592
-6.74295
6.73648
-6.9801
6.92787
-2.79643
-3.68666
13.1021
-12.9414
8.67399
-8.74574
-8.69563
9.05576
3.38462
0.922514
3.42962
-1.88177
3.76126
-1.87154
3.78127
2.79072
-5.58716
2.57637
-5.27849
4.42585
4.24814
-4.33389
-1.34986
-5.9289
5.9573
-5.8099
5.87187
9.2015
-9.18353
-1.88498
3.75884
-1.86908
3.76761
-3.42278
-2.35446
3.37771
0.924318
8.05426
5.04787
-8.24354
-1.70184
-8.03323
7.81349
-8.21796
8.01232
-0.436186
5.83865
-5.40247
4.43916
-1.65344
7.4921
5.56158
5.76002
5.86074
-5.58571
1.08366
-6.48613
-6.39915
-2.2093
2.31049
2.04346
-1.94748
6.16278
1.7853
6.05523
-5.81391
-2.19737
-5.87098
3.81965
2.00871
3.86852
4.08224
2.4026
4.1199
3.02939
-3.03687
0.00748058
-3.05944
6.08883
0.721972
-5.4139
-4.48958
4.99746
3.09281
5.23068
-5.60043
-2.23947
-5.17695
-9.55347
-6.11366
-10.1403
10.1542
5.14826
9.83297
-11.9349
11.7693
4.91601
2.76043
4.90429
-4.98703
-2.59258
-4.8812
11.6627
-2.65834
-9.00441
-10.3177
-7.52396
10.3261
5.4746
10.9595
6.94046
11.0491
4.41952
7.24322
-9.89412
2.37016
-3.86598
-1.83959
-3.77823
3.66503
2.14089
3.79868
-4.21891
-2.52404
-4.20374
-4.29528
-2.68483
4.32303
2.41345
-4.41779
-3.80017
4.54727
2.38061
4.05867
-10.0421
4.29971
-7.98637
-9.19042
-3.75096
-9.05811
3.59029
2.59935
-6.18964
-1.99686
8.62521
-4.37707
7.27535
-5.23214
-3.5136
-5.24433
-6.98512
-1.71052
-6.82573
-8.90602
8.41552
-9.19104
8.55192
12.4906
-5.62947
-6.86114
-3.96705
-2.47243
3.92225
-0.492634
-3.71006
3.71754
0.0512022
3.83247
4.75499
4.26235
-3.88289
-1.92701
-3.82609
3.82244
2.04943
3.88951
6.86863
2.33287
6.89934
-6.63152
-2.55201
-6.71633
9.08033
-8.65741
2.79287
-2.69899
5.38033
2.63199
-5.15634
-2.87689
6.23177
-3.20777
-3.024
-12.3508
10.7798
1.57093
-4.85866
-0.419501
-0.53232
-5.56321
-3.75015
5.4414
0.318615
11.0984
7.34829
-5.51466
5.76352
6.16982
6.22134
-0.17781
5.87542
-5.17057
5.28074
-2.73483
-2.54591
5.48983
-5.64313
-1.22649
-5.56701
4.34052
0.412099
1.43442
-1.19662
-1.74622
-0.463085
-1.61331
1.0865
0.956965
1.18407
0.957289
1.3532
-2.93894
0.483116
2.45582
-1.98165
-1.46437
-3.81295
-1.15073
4.96369
5.74009
2.0734
-5.64234
-0.228631
2.54923
-2.44147
-0.837996
-2.97496
2.21774
-3.05573
-3.45419
-1.96065
5.41485
-3.36883
-0.457252
3.31587
0.552652
-3.82826
-2.10064
3.7913
0.328604
-3.12897
6.19031
-3.06134
-5.05598
2.52906
3.55977
4.53777
-4.78988
2.44928
2.3406
-1.2301
4.25952
0.971156
4.44605
-7.07815
4.83869
5.7479
3.30786
-6.22734
1.05039
-6.02776
8.57351
-7.41562
-1.15789
4.12928
4.44423
7.0003
5.49031
-5.68161
12.6819
-1.18361
-6.232
7.21137
-3.90351
4.87728
-8.7808
-10.3676
4.13559
-9.18762
11.0887
-1.90104
-3.58477
-8.3501
12.7724
-1.24968
-11.5227
8.5833
-4.36369
-4.43545
8.79914
-7.02203
7.02803
-1.99079
-5.03724
-10.14
-5.68938
10.2536
1.5157
-9.96851
12.3387
-2.72529
4.16524
0.739045
4.17779
3.38148
-5.47089
2.08941
3.64055
-5.63134
2.04696
-7.51786
-6.74575
12.0831
-5.33732
-10.4967
-9.53133
-0.965381
2.5489
9.78978
-9.48936
7.42252
2.06684
3.29862
0.59089
-3.37358
-0.404656
0.231462
4.50712
-4.73858
4.03014
4.18338
3.21605
1.29107
3.84956
2.10774
-3.87112
-0.332628
-4.16872
1.48389
-1.75527
-3.69311
5.177
-4.0619
0.368789
-2.74147
-3.49247
6.23394
-4.58106
3.03555
3.15476
5.08498
-4.91424
1.42177
-2.39074
-2.52351
2.64013
-4.3954
2.00114
3.17587
4.38175
0.581577
5.90686
6.17622
-8.50621
0.51984
11.2241
-9.52224
2.47575
8.57335
-9.89827
0.366935
-8.69117
0.984281
-5.36135
-5.20536
5.2386
-6.94911
-3.5422
6.26569
0.633646
-6.42149
-0.40424
-6.04948
-2.85654
-6.49966
-3.04274
-6.14831
-8.72435
-1.66927
-7.05508
6.74625
-6.69146
-3.44884
7.4149
1.13702
-7.4628
7.33679
-7.51969
7.17831
0.0951388
3.6224
4.35749
1.88507
-2.3923
4.27737
-5.08792
7.42079
-8.77204
3.68412
4.25395
-6.80596
-4.51809
5.04404
4.03629
5.35828
8.90446
-10.3554
1.45091
-10.6227
11.9628
-1.34002
-16.392
5.76926
-7.48755
2.40917
0.383696
2.51621
0.545697
2.49535
-3.04105
-2.15329
-2.06293
-2.44621
-3.49369
5.93991
1.06206
-3.47631
2.41425
-3.56289
4.62495
-0.0826873
-3.39362
5.17824
-2.68289
5.56193
-3.64558
1.91636
3.54888
5.83984
-2.29096
4.41888
-1.7869
1.9517
-4.24266
-1.54199
-2.95377
5.09466
-3.28017
3.64896
-0.356078
4.00504
-4.04332
0.835553
-0.827271
3.35611
3.60633
4.33215
-3.04108
2.93451
-4.7214
-1.30815
-4.13983
-0.963961
-0.182497
-3.77113
3.95362
5.98924
-6.17174
-5.27487
9.51037
-4.2355
7.68881
-5.43132
-2.25749
-4.27921
-4.3782
3.91116
1.96426
9.65307
0.177083
-5.6084
-4.99349
-3.97128
3.0918
2.18893
-1.70144
3.27237
2.23376
-0.799339
0.403439
0.780631
1.75709
-1.35365
0.333171
1.42392
-0.863453
1.68705
0.862179
-1.80169
0.188383
-1.37828
3.59602
1.07754
-2.0345
0.680854
0.896937
-3.63177
5.10411
-2.73833
-2.36578
6.00105
1.14869
-3.88702
4.41832
-4.00622
2.45928
-3.61002
-1.42773
-5.43396
-3.64865
-2.47961
4.89386
-3.46029
5.5337
1.43967
-5.30506
6.74473
-3.63016
1.66951
-3.05181
3.91398
-0.994788
-2.05702
2.87289
2.54196
-3.1443
0.169341
-0.271411
2.41532
-2.68673
-0.640411
-2.62206
-4.57618
4.90478
-2.10379
4.55307
2.17358
-1.91779
6.47086
1.80757
-3.72536
-3.24841
-3.70566
-1.38476
3.15301
-0.568869
-4.31233
-5.60611
4.17248
0.273562
-7.10387
7.94577
-0.841898
-4.01106
-0.827627
4.95691
-6.10163
0.470294
-4.05467
3.8911
4.86225
5.13582
-11.2927
-0.229995
-6.14447
1.08966
-7.23412
5.53389
-3.50737
7.64296
-10.3116
6.86273
-9.17455
6.48506
-0.749063
6.2352
-4.14579
2.76921
-8.45859
-6.94288
5.60108
-2.84065
6.34013
-3.2332
9.57332
-5.95849
5.39717
4.17615
-1.04743
-4.1969
-5.39768
4.35025
-0.00051402
4.17727
4.98725
-2.87951
4.65462
2.26482
-4.65556
-2.13058
-6.48891
1.83335
-3.33415
-1.92246
3.75581
3.16252
3.75342
1.2323
-3.34876
7.24918
-8.21457
-1.91186
-3.2935
5.39079
-1.04054
3.48416
-6.77767
-1.87719
4.73398
-0.721961
-4.01202
0.895496
-4.4377
1.67642
-6.11412
5.27269
-5.67693
2.25332
-9.74087
-5.20947
-5.1813
-2.2768
-5.24288
-7.55978
5.28298
-1.79052
5.54627
-8.4951
7.77314
-3.46766
8.75064
-5.44659
-1.05307
5.87626
1.30205
10.0527
0.16578
-4.68387
-1.94354
3.71729
-1.77375
1.14826
-3.60535
0.111943
2.49972
3.50133
-6.84023
0.0342726
-4.6496
-3.90288
7.93917
5.60749
11.5967
1.24137
9.12358
-1.18441
10.3649
4.17387
4.41051
-2.99619
4.4471
0.957434
4.64155
-0.893429
2.80979
1.62278
1.6887
0.752769
2.28995
1.31638
3.1255
0.0844559
-1.97847
4.628
-8.59928
-0.980403
-8.05113
1.17567
5.4354
-4.25973
2.84584
-0.656912
1.0721
-0.201407
-1.12027
1.32168
-2.74731
-1.91961
-0.495696
-1.68629
2.36714
1.90973
-1.87145
-0.875867
0.325873
-3.97452
3.28414
-3.1148
-0.572844
6.17189
-2.88542
0.198685
-1.21591
-2.42337
-2.88646
2.69807
6.17455
0.296305
3.11321
5.20109
3.10044
0.220939
3.77986
-5.68091
-3.738
-5.9109
-0.377013
4.57989
1.7643
8.02548
5.94045
4.89991
-1.87775
-10.0923
6.49761
-2.05051
5.15759
-1.14558
-4.96854
5.0855
2.33529
-5.71915
0.0422153
-4.92633
-6.97684
-0.476226
8.24936
-9.57646
8.52339
5.66685
1.38823
-4.42374
-0.757554
4.27703
0.133481
10.4984
-0.919885
-7.0257
7.94558
-4.51552
3.53511
0.675717
2.59665
1.9974
1.34049
-5.68521
-9.94494
-2.06382
-1.56795
-4.4296
0.534081
-2.44381
6.06123
-2.52612
3.80374
5.41946
6.49156
-2.0504
-4.12134
6.28591
-2.48216
4.00939
)
;

boundaryField
{
    wall-4
    {
        type            calculated;
        value           uniform 0;
    }
    velocity-inlet-5
    {
        type            calculated;
        value           uniform -3.75095;
    }
    velocity-inlet-6
    {
        type            calculated;
        value           uniform -5.62643;
    }
    pressure-outlet-7
    {
        type            calculated;
        value           nonuniform List<scalar> 8(3.30194 7.76072 4.42994 9.65812 7.43685 5.17683 5.8001 8.94885);
    }
    wall-8
    {
        type            calculated;
        value           uniform 0;
    }
    frontAndBackPlanes
    {
        type            empty;
        value           nonuniform 0();
    }
}


// ************************************************************************* //
