/*--------------------------------*- C++ -*----------------------------------*\
  =========                 |
  \\      /  F ield         | OpenFOAM: The Open Source CFD Toolbox
   \\    /   O peration     | Website:  https://openfoam.org
    \\  /    A nd           | Version:  6
     \\/     M anipulation  |
\*---------------------------------------------------------------------------*/
FoamFile
{
    version     2.0;
    format      ascii;
    class       volVectorField;
    location    "99";
    object      U;
}
// * * * * * * * * * * * * * * * * * * * * * * * * * * * * * * * * * * * * * //

dimensions      [0 1 -1 0 0 0 0];

internalField   nonuniform List<vector> 
918
(
(0.985049 -0.000715804 0)
(0.00543956 2.96618 0)
(-0.00428712 0.871874 0)
(0.979576 0.00196184 0)
(-0.0145939 2.06508 3.30846e-20)
(-0.00719043 2.9486 -2.53317e-18)
(0.822794 1.1255 4.50226e-19)
(0.119072 0.0865312 -1.40218e-20)
(0.999922 -0.000245924 0)
(0.0939127 0.67472 0)
(0.021282 0.348918 0)
(0.732958 0.00893115 0)
(0.0101802 2.93181 0)
(0.00326097 2.79442 0)
(-0.00292179 3.17533 8.30907e-19)
(-0.0129876 1.93368 2.4682e-20)
(0.296841 0.0451834 9.79398e-19)
(0.235296 1.11216 3.54402e-19)
(0.964309 0.00674207 0)
(-0.00314623 0.328543 0)
(0.0574539 -0.0730549 -6.34188e-19)
(1.00183 -0.00455914 0)
(0.999851 -0.00892571 0)
(0.975169 -0.00605164 0)
(0.592611 0.0284727 0)
(0.0208226 2.64502 0)
(-0.0121884 2.91147 9.25916e-19)
(-0.0064636 0.923338 0)
(-0.0371786 1.17209 0)
(-0.00393802 0.890494 0)
(-0.0249948 2.58297 0)
(-0.00537901 2.11605 -2.64269e-20)
(-0.0101981 1.9053 0)
(-0.021932 2.98768 -9.11902e-23)
(-0.0163828 3.00545 1.96597e-18)
(0.00231058 3.00044 0)
(0.871988 -0.00976412 0)
(0.371659 0.908694 1.62942e-19)
(0.821681 1.14422 -5.6471e-19)
(0.954247 1.01051 5.7545e-19)
(0.683993 1.22721 -1.02957e-19)
(0.697511 1.18712 5.86869e-19)
(0.149173 0.126258 1.36777e-20)
(0.151935 0.0940668 0)
(1.17036 0.533072 0)
(0.11773 0.108574 6.1559e-20)
(0.0949869 0.0719299 -6.38864e-20)
(0.920571 -0.00704541 0)
(1.00027 5.15563e-05 0)
(0.999907 0.000321098 0)
(1.0037 -0.00727946 0)
(1.00088 -0.000949815 0)
(1.00011 -5.2117e-06 0)
(0.0777111 1.83297 -7.73288e-19)
(0.0338444 0.847062 0)
(0.129966 0.766042 0)
(0.0179038 0.787422 0)
(0.0559104 0.590615 0)
(0.00568371 2.03674 0)
(-0.00733297 0.683713 0)
(0.0131696 0.4038 0)
(-0.0130421 0.677315 0)
(0.0117465 0.351016 0)
(0.843815 -0.0156272 0)
(0.842178 0.0259055 0)
(0.75721 0.00543586 0)
(0.800048 0.0271368 0)
(0.701816 0.0202638 0)
(0.0137988 3.00031 9.40091e-19)
(0.0109393 3.00667 0)
(0.00586032 3.00352 0)
(0.011844 2.99746 1.06667e-23)
(0.00802034 2.95884 -1.3972e-18)
(0.012229 2.98281 0)
(0.00923173 2.90492 0)
(0.0210088 2.93146 2.15439e-24)
(0.00380839 2.82436 0)
(0.0260264 2.91882 0)
(-0.00064844 2.74514 0)
(0.303853 3.56804 0)
(-0.122099 3.65057 0)
(0.147865 3.26583 -7.73296e-19)
(0.00230036 3.00505 0)
(-0.0338427 1.99005 0)
(-0.00738374 2.18239 -2.43432e-20)
(-0.0087312 1.94612 2.52911e-20)
(0.348077 0.138848 -3.40173e-19)
(0.323286 0.0159946 -3.30429e-19)
(0.30179 0.158011 -1.0164e-18)
(0.262425 0.0674185 -6.60688e-19)
(0.266326 1.0256 0)
(0.335085 1.24402 -3.67073e-19)
(0.416782 1.15465 6.05899e-19)
(0.987684 0.0081748 0)
(0.943186 0.00577407 0)
(1.00028 0.000672291 0)
(1.00254 0.00906641 0)
(1.0031 0.00899959 -2.61771e-18)
(0.992134 0.00941037 1.97805e-18)
(-0.0246642 0.69964 0)
(0.0021624 0.335908 0)
(-0.0574618 1.01482 0)
(-0.0384682 0.761602 0)
(-0.0213108 0.332181 0)
(-0.0788148 0.0709719 1.97245e-19)
(0.0362431 0.0579689 0)
(0.993627 -0.00769152 0)
(0.954056 -0.00648449 0)
(0.742271 0.0267692 0)
(0.673397 0.0255105 0)
(0.660272 0.0271063 0)
(0.980802 -0.00239039 0)
(0.582844 0.0666778 0)
(0.453762 -0.0101148 1.489e-18)
(-0.0410882 2.86001 7.17195e-19)
(0.033866 2.91431 0)
(0.0427901 2.89273 0)
(0.00320141 2.70251 0)
(-0.00875494 2.98636 8.84172e-19)
(-0.0139007 2.89423 0)
(-0.0109895 2.9915 -2.72618e-18)
(-0.011641 2.929 9.28966e-19)
(-0.0560389 1.35481 0)
(-0.0220684 1.38431 0)
(-0.00799253 2.14324 8.63568e-22)
(-0.0081152 2.10214 0)
(-0.0168667 1.91687 0)
(0.938934 -0.00519137 0)
(0.857354 -0.0111673 0)
(0.862587 0.00572004 0)
(0.94971 -0.00613449 0)
(0.883715 -0.00810289 0)
(0.494703 1.10827 -2.06885e-19)
(0.542321 1.17842 0)
(0.333633 0.842881 3.16054e-20)
(0.278801 0.707933 0)
(0.923115 1.03984 -1.6272e-19)
(1.04632 0.849795 3.28422e-19)
(0.395249 1.32255 0)
(0.546059 1.27827 0)
(0.600359 1.20445 0)
(0.104175 0.179236 -2.96543e-19)
(0.174168 0.140203 0)
(0.170889 0.109231 1.83667e-19)
(1.00927 0.90384 0)
(1.08482 0.751607 0)
(1.1145 0.686715 -2.64409e-19)
(1.15055 0.597173 0)
(1.20672 0.39133 4.76018e-20)
(0.957535 -0.00709315 0)
(0.962752 -0.00810675 0)
(0.900943 -0.00737819 0)
(0.983935 -0.00812059 0)
(0.974441 -0.00802901 0)
(0.936558 -0.00656695 0)
(1.0002 0.00250708 0)
(1.00078 0.00123843 0)
(1 0.000759373 0)
(0.0385282 2.08372 4.25486e-19)
(0.141227 1.78148 0)
(0.0173123 2.18977 6.60446e-19)
(0.0516082 1.88986 -5.41136e-19)
(0.168625 1.08697 -2.90801e-19)
(0.0504734 0.935145 0)
(0.123757 0.94225 0)
(0.00622457 0.749168 0)
(0.0314107 0.516627 0)
(-0.00236984 2.26101 -3.10059e-22)
(0.0215093 2.0428 0)
(-0.00464965 2.26094 -4.56133e-21)
(0.00351436 2.04866 -4.24959e-21)
(-0.00114177 0.717979 0)
(-0.00384925 0.696828 0)
(0.0150953 0.454753 0)
(-0.0167883 0.680696 0)
(0.00612343 0.347131 0)
(0.939604 0.0139358 0)
(0.856642 -0.0115209 0)
(0.92874 0.0049157 0)
(0.846378 -0.012797 0)
(0.808997 0.00250698 0)
(0.899341 0.0198982 0)
(0.875198 0.023377 0)
(0.782592 0.00280466 0)
(0.0100669 3.06786 -8.72909e-21)
(0.0156058 3.05789 0)
(0.0123116 2.96998 0)
(0.00763489 2.87673 0)
(0.892367 3.95963 0)
(1.18548 3.35649 9.33351e-19)
(0.080094 3.08797 0)
(-0.0182353 2.91663 0)
(-0.0206969 1.41215 0)
(-0.0391027 1.70236 0)
(-0.028434 1.54089 0)
(-0.0349869 2.54495 -1.57303e-20)
(-0.0211675 2.24328 0)
(-0.0256376 2.38641 0)
(3.49007e-05 1.9765 -2.60147e-22)
(-0.00514614 2.25589 -3.17358e-20)
(-0.00638451 2.22006 -2.5936e-20)
(-0.00497287 1.95942 0)
(0.391134 0.116587 5.20875e-19)
(0.363289 0.0100514 -5.1106e-19)
(0.231917 1.58894 0)
(0.289827 0.770123 -3.21425e-19)
(0.176082 1.68667 -1.05653e-18)
(0.24613 1.2305 1.0574e-18)
(0.901564 0.00600879 0)
(0.966976 0.0107001 0)
(0.974838 0.00988993 0)
(0.922916 0.00587804 0)
(-0.0228168 0.684138 0)
(-0.0227323 0.689999 0)
(0.00162611 0.332219 0)
(0.0862452 0.0979811 5.63788e-19)
(0.0602838 0.0736851 -6.5907e-19)
(0.0583216 0.0612784 0)
(1.10868 0.0911651 2.35555e-20)
(1.09225 0.0430201 0)
(1.01955 0.0439932 0)
(0.914459 -0.00122574 0)
(0.435952 0.0984951 0)
(0.494924 0.0784088 -2.38208e-18)
(0.400513 0.00681944 8.92831e-19)
(0.0102829 2.97709 7.6432e-19)
(-0.0331004 2.86109 4.59885e-20)
(0.00830769 3.05364 -1.84397e-20)
(0.0163876 3.04265 6.86642e-19)
(-0.0117625 2.99991 3.0571e-20)
(-0.0124374 2.95201 -1.23121e-22)
(-0.015099 3.01307 -5.70694e-19)
(0.0153252 3.02553 4.06412e-19)
(0.00804542 3.03582 -6.607e-19)
(0.934799 0.00216664 0)
(0.939574 -0.00109859 0)
(0.848252 -0.0112073 0)
(0.956223 0.0117765 0)
(0.942283 0.0132023 0)
(0.881344 0.00572457 0)
(0.915964 0.0170612 0)
(0.925144 0.0149601 0)
(0.836363 0.00348952 0)
(0.667576 1.40653 1.73395e-20)
(0.685746 1.51702 0)
(0.117181 0.285644 6.6623e-20)
(0.212295 0.649177 5.26953e-19)
(0.238108 0.687258 -3.09306e-19)
(0.21154 0.488722 6.1429e-19)
(0.341121 0.830651 1.57065e-18)
(0.136 0.236003 3.77926e-19)
(0.258677 0.169088 7.00904e-19)
(0.211766 0.161491 1.81016e-19)
(0.219738 0.0973144 3.44278e-19)
(1.19747 0.448718 1.00403e-19)
(1.22169 0.246984 9.78874e-20)
(0.0072832 2.24371 2.4658e-19)
(0.0394895 1.96219 0)
(0.973362 0.033238 0)
(0.947025 0.0193525 0)
(0.871598 -0.0150475 0)
(0.0129839 3.07333 0)
(0.0166986 2.94385 1.21679e-18)
(0.013815 2.95652 0)
(0.00569014 2.85012 -1.20741e-18)
(0.00990811 3.08942 2.96972e-19)
(0.0111499 3.08392 0)
(0.704698 1.81223 -1.69739e-19)
(1.22961 2.61654 5.74074e-19)
(0.68945 1.99023 -1.38852e-18)
(0.0217679 2.97595 -6.6182e-19)
(0.0397866 2.9973 0)
(-0.0386969 2.87793 0)
(-0.00627847 2.24069 -1.38472e-20)
(-0.00482705 2.26149 6.26144e-20)
(0.000264529 2.01198 -7.54611e-21)
(0.268323 1.40238 1.02033e-18)
(0.288879 0.574429 -7.00684e-19)
(0.0689087 2.00209 7.44276e-19)
(0.119086 1.87104 -9.01278e-19)
(0.210716 1.53866 1.05335e-19)
(0.00611354 3.12034 -1.64635e-18)
(0.0133363 3.12071 1.81375e-18)
(-0.00525082 2.98042 8.255e-19)
(-0.00146105 2.97498 -7.89475e-19)
(-0.0175355 2.87702 -8.40806e-19)
(0.0117926 3.10064 -2.2039e-18)
(0.00553766 3.10539 2.23753e-18)
(0.268231 0.695857 0)
(0.218243 0.654954 -1.12429e-18)
(0.0747962 0.209218 4.94781e-19)
(0.347494 0.952034 1.11719e-18)
(0.201044 0.281486 -1.72056e-18)
(1.19998 0.17696 4.58856e-20)
(1.21844 0.306594 0)
(1.19543 0.121909 1.1664e-20)
(-0.000288074 2.26926 -1.10245e-21)
(0.00385608 2.2534 0)
(0.0321313 1.9997 0)
(0.313333 1.31695 -3.66253e-19)
(0.354454 1.17907 -7.95275e-19)
(0.23459 0.393626 1.42304e-18)
(1.00644 -0.00967858 0)
(1.00774 -0.00778089 4.81104e-19)
(-0.0493927 1.33783 0)
(-0.0585703 1.34592 0)
(1.00244 0.00326774 1.33452e-21)
(1.0032 0.00781207 9.87721e-19)
(-0.0264178 2.53188 1.99365e-20)
(-0.0289234 2.57449 0)
(0.0398121 3.17208 4.65076e-19)
(0.371899 3.53606 0)
(1.15983 0.695886 -4.8021e-20)
(1.01176 0.0106289 -2.86221e-21)
(1.02089 -0.00898709 0)
(1.00157 0.000291956 1.57903e-22)
(0.11731 1.37956 0)
(0.152504 2.58544 0)
(0.0339588 1.32642 0)
(0.000944538 2.63066 -1.06449e-20)
(-0.0212618 2.57807 -1.49476e-20)
(0.998426 0.0312856 2.76536e-21)
(1.06303 0.0059128 0)
(1.10024 0.0285112 0)
(-0.0374546 1.75028 0)
(-0.0199023 2.57689 0)
(-0.0134148 1.33298 0)
(0.30937 1.49385 -1.72942e-19)
(1.01152 -0.00904922 0)
(1.00971 -0.0129831 0)
(1.00227 0.000930285 6.15995e-19)
(1.00547 -0.00490967 -7.26353e-19)
(1.00113 -0.000862381 0)
(-0.0267347 1.47787 0)
(-0.0147449 1.40356 0)
(-0.022372 1.44095 0)
(-0.0166341 1.31824 0)
(-0.0339052 1.309 0)
(-0.0268368 1.29009 0)
(1.03571 -0.00428494 0)
(1.01907 0.0157232 -9.63207e-22)
(0.813869 1.31549 2.85395e-19)
(1.00246 0.000392562 -6.15866e-19)
(1.00339 0.00444168 7.35052e-19)
(1.00125 0.00208824 0)
(1.01104 0.00962357 6.13357e-19)
(1.00681 0.00743796 -7.46564e-19)
(1.0071 0.0111096 0)
(-0.0251024 2.60384 0)
(-0.0288672 2.58278 -3.49652e-20)
(-0.0254233 2.597 2.45644e-20)
(1.24289 0.274353 5.12446e-19)
(1.16376 0.0894102 0)
(0.0435512 3.09149 -9.35457e-19)
(0.0519669 2.87409 -6.63689e-20)
(0.102724 3.2018 1.24994e-18)
(0.121058 3.21368 -2.62942e-19)
(0.139696 3.25535 0)
(0.0224708 3.13766 2.56813e-19)
(0.0607081 3.16197 9.3184e-19)
(0.0611142 3.1787 -4.80513e-19)
(0.02682 3.12947 0)
(0.539948 0.289748 0)
(0.477366 0.305195 0)
(1.14296 0.727383 1.0489e-19)
(1.10735 0.863966 -8.45485e-20)
(1.20005 0.613066 0)
(1.22692 0.546688 0)
(1.01569 0.012038 -1.13929e-18)
(1.01462 0.0127905 1.43242e-18)
(1.02578 -0.0087109 0)
(1.02411 -0.0102815 0)
(1.00682 0.00329119 0)
(1.01087 0.00422413 0)
(1.00418 0.00222051 0)
(1.00931 0.00633476 0)
(1.00682 0.00503763 0)
(1.00435 0.0052481 0)
(0.109715 1.3794 0)
(0.0966162 1.33421 0)
(0.137326 1.42227 0)
(0.14801 1.40633 0)
(0.151823 2.6053 0)
(0.186679 2.67103 -4.03742e-19)
(0.0947457 2.65544 0)
(0.0843077 2.65068 1.75783e-19)
(0.0247669 2.67417 -1.55017e-19)
(0.0215345 1.33446 0)
(0.0309616 1.25074 0)
(0.0243736 1.35148 0)
(0.0483126 1.27236 0)
(-0.00179405 1.99326 4.40083e-20)
(-0.0208881 2.6064 -4.57999e-20)
(-0.00419246 2.6728 -3.86855e-20)
(-0.0177862 2.68558 0)
(-0.0236812 2.61244 4.42082e-20)
(-0.0222641 2.60802 4.70775e-20)
(0.00500547 1.98936 -3.42649e-20)
(-0.00941932 2.3956 6.14426e-20)
(-0.0140509 2.4215 4.38564e-20)
(1.01138 0.0403133 1.15538e-18)
(1.00469 0.0211505 -1.43839e-18)
(1.00347 0.0474017 -1.18015e-18)
(0.976098 0.0375228 1.48661e-18)
(1.06472 0.00926101 0)
(1.04995 -0.00641149 0)
(1.09271 0.0379257 0)
(1.0759 0.0151071 0)
(1.07467 0.000445145 0)
(1.14133 0.079891 0)
(1.11585 0.0465442 0)
(1.11934 0.0374973 0)
(-0.0316748 2.42856 4.29666e-21)
(-0.0229457 2.02336 0)
(-0.0238362 2.21873 0)
(-0.0220659 2.59771 -2.2387e-20)
(-0.0185706 2.60894 7.23236e-22)
(-0.00357845 1.5992 -6.3287e-20)
(-0.0155239 1.52198 6.46943e-20)
(-0.0247086 1.41471 0)
(-0.0297171 1.42127 0)
(-0.0356236 1.41062 0)
(-0.00734336 1.33634 0)
(0.00925124 1.24741 0)
(0.387131 1.51852 2.8861e-19)
(0.435409 1.52287 1.54315e-19)
(0.591245 2.46044 -2.46731e-19)
(0.385783 2.55083 7.09493e-19)
(0.349267 2.04661 6.86825e-20)
(1.02072 -0.00798565 0)
(1.0158 -0.00934477 0)
(1.01486 -0.0132037 0)
(1.00775 -0.000547815 0)
(1.00484 -0.000693446 0)
(1.008 -0.00446438 0)
(1.00954 -0.00342958 0)
(1.01465 -0.00426647 0)
(1.01981 0.0164744 1.11771e-18)
(1.01717 0.0151244 -1.4209e-18)
(1.02021 0.0189649 -1.12641e-18)
(1.01763 0.0174684 1.41168e-18)
(0.770266 1.3622 0)
(0.708799 1.39825 2.50386e-19)
(0.878353 1.24315 1.05681e-19)
(0.91469 1.20287 -1.40258e-19)
(1.16096 2.6061 2.66861e-19)
(0.748632 0.131382 5.8123e-19)
(1.1721 0.108378 0)
(1.21495 0.202915 -4.16104e-19)
(1.19642 0.154376 -1.73179e-20)
(1.01199 0.166977 0)
(0.0753321 3.01839 3.31036e-19)
(0.0814698 2.90325 -1.09746e-18)
(0.023132 2.36135 6.95649e-19)
(0.159167 -0.272278 -3.03353e-19)
(0.340032 3.44036 -2.55647e-19)
(0.191463 3.33707 0)
(0.221854 3.3921 3.3301e-19)
(0.219679 3.0754 -1.16259e-18)
(0.252261 3.19317 0)
(0.00643864 3.12239 4.87137e-20)
(0.0168855 3.13114 -5.62116e-19)
(0.0159036 3.1269 8.27331e-19)
(0.0329231 3.14006 0)
(0.0309336 3.14956 0)
(1.25278 2.56869 0)
(0.542967 0.791467 -5.1658e-19)
(1.02788 1.03836 -1.75075e-20)
(0.994397 1.09096 0)
(0.863331 0.972133 -1.0426e-19)
(1.08729 0.913441 2.66479e-20)
(0.278779 0.309794 -7.57464e-19)
(0.630232 0.326204 -2.3095e-20)
(0.519499 0.216951 3.89767e-19)
(0.511066 0.31572 2.78446e-20)
(0.374778 0.263006 -1.11046e-18)
(0.583973 0.323282 0)
(0.675682 0.438491 6.74071e-19)
(0.690724 0.452742 0)
(0.539232 0.320034 0)
(0.444974 0.249751 0)
(0.796323 0.661786 3.95108e-19)
(1.25463 0.308581 -4.1622e-19)
(1.24798 0.440899 0)
(1.24816 0.396048 0)
(0.681733 0.187332 5.92361e-19)
(0.846498 0.56244 -3.68555e-19)
(0.767354 0.520546 6.57404e-19)
(0.964715 0.455769 -6.55866e-19)
(1.01854 0.014799 7.61888e-19)
(1.01709 0.0136946 -7.66694e-19)
(1.01582 0.0143177 0)
(1.0371 -0.00450027 0)
(1.03049 -0.00768099 -7.17575e-19)
(1.0287 -0.0105676 7.10115e-19)
(1.02475 0.0110129 0)
(1.02273 0.0151024 0)
(1.01271 0.00476782 0)
(1.0146 0.00909538 0)
(1.01646 0.00427059 0)
(1.01558 0.00295111 0)
(0.079573 1.36362 0)
(0.0821568 1.30482 0)
(0.151736 1.42245 5.09777e-20)
(0.277692 1.48989 8.39025e-20)
(0.176078 1.46108 1.89043e-19)
(0.212998 1.45906 -3.054e-19)
(0.168079 1.43677 0)
(0.144407 1.58778 -9.03714e-20)
(0.141449 1.58444 0)
(0.345911 2.00034 -9.99961e-20)
(0.320236 2.3338 5.54264e-19)
(0.201437 1.46801 7.87531e-20)
(0.276679 1.40515 2.40915e-20)
(0.210664 1.40406 -1.96373e-20)
(0.291664 1.34339 -8.74265e-20)
(0.26074 1.57822 0)
(0.266444 1.62533 9.6251e-20)
(0.0206989 2.24157 -1.53422e-20)
(0.0371665 2.66705 0)
(0.0554126 2.39231 1.04408e-19)
(0.0465213 2.41782 0)
(0.0646154 2.67396 -2.10863e-19)
(0.042323 2.70066 0)
(0.027522 1.46662 6.26672e-20)
(0.0313542 1.52385 0)
(0.034784 1.4263 0)
(0.0264347 1.43577 -7.1761e-20)
(0.00484788 2.65786 5.87715e-21)
(0.027352 2.68754 1.7937e-19)
(0.0123028 2.73122 8.78955e-22)
(0.00414224 1.84739 -2.82231e-20)
(-0.00428599 1.70023 -1.94799e-20)
(0.0198662 1.31522 0)
(0.0283888 1.22708 0)
(0.0389424 1.59368 2.63965e-22)
(0.041661 1.47455 -5.49078e-20)
(0.0243105 1.55922 5.5046e-20)
(0.0528252 1.61601 0)
(-0.0317565 2.268 1.34474e-19)
(-0.0350494 2.54514 -5.69056e-20)
(-0.020931 2.44548 1.04112e-20)
(-0.00368905 1.86282 3.42111e-20)
(-0.0282732 2.50063 1.48539e-20)
(-0.0224551 2.44296 -3.84289e-20)
(1.01823 0.0225303 -7.65609e-19)
(1.01487 0.0289778 7.69445e-19)
(1.01229 0.0182693 0)
(1.00973 0.0711434 1.0688e-18)
(0.990475 0.0610276 -1.20877e-18)
(0.949355 0.0559528 1.35382e-18)
(1.0125 0.115859 -1.43343e-19)
(1.04403 -0.00463597 0)
(1.05225 -0.000381923 6.87256e-19)
(1.04034 -0.00814385 -6.86906e-19)
(1.07233 0.0439442 -4.07307e-20)
(1.06503 0.029221 3.51956e-19)
(1.06412 0.0658642 0)
(1.05441 0.0550811 -1.268e-19)
(1.0321 0.0439194 0)
(1.02609 0.0388198 0)
(1.02765 0.013666 0)
(1.02402 0.0163956 0)
(1.04061 0.0338348 2.60626e-19)
(1.03934 0.0286113 -5.76971e-19)
(1.05319 0.0388803 -2.75625e-19)
(1.04825 0.0387855 -3.0423e-19)
(1.07779 0.0706375 5.81601e-19)
(1.1018 0.0567636 0)
(1.10849 0.0957014 0)
(-0.0295138 2.27387 7.78224e-20)
(-0.03294 2.0289 4.51838e-21)
(-0.0279103 2.03871 0)
(-0.0309263 2.44194 -7.74599e-20)
(-0.029464 2.40092 -8.63706e-21)
(-0.0356657 2.46826 1.03447e-20)
(-0.0215553 2.61996 -4.01376e-20)
(-0.0272622 2.56174 2.27037e-21)
(-0.025686 2.51547 -1.35117e-20)
(-0.0174824 2.61275 2.53819e-20)
(-0.0214017 2.61517 -2.95158e-20)
(-0.0125312 1.52863 -1.06541e-21)
(-0.00710548 1.64541 -6.46619e-20)
(0.37848 1.45448 -1.23406e-19)
(0.373719 1.38447 1.73326e-20)
(0.650243 1.44596 -2.42283e-19)
(0.525609 1.51564 -1.49911e-19)
(0.579491 1.4747 0)
(0.606927 2.41707 2.15597e-19)
(0.666057 2.42661 3.36308e-19)
(0.416003 2.51138 9.46957e-20)
(0.400334 2.53482 -5.85407e-19)
(0.500644 2.47391 5.56604e-19)
(0.552193 2.47105 0)
(0.484673 2.52129 -5.47692e-19)
(0.253622 2.58982 1.10784e-18)
(0.365488 2.56147 -6.80171e-20)
(0.279182 2.65228 -1.56973e-18)
(0.970076 2.38421 7.06599e-19)
(0.847909 2.38465 0)
(1.01141 0.00139884 2.49768e-20)
(1.01537 -0.00515373 -2.04089e-20)
(1.01779 -0.00388473 -3.73044e-19)
(1.01564 -0.00101383 3.71747e-19)
(1.01312 0.00184805 0)
(0.638312 1.3072 0)
(0.682882 1.19233 0)
(0.79837 1.12272 0)
(0.670311 1.14938 0)
(1.19211 2.62171 5.14836e-20)
(1.08419 2.37243 0)
(0.815414 2.16414 3.52235e-21)
(0.820563 2.42616 0)
(0.915281 2.51678 -4.31356e-19)
(0.946533 2.46615 2.88032e-19)
(0.782297 0.166874 0)
(0.725988 0.144344 1.57063e-19)
(0.904327 0.161588 9.18746e-19)
(0.814916 0.143643 -3.43765e-19)
(0.756429 0.0906857 -1.06151e-18)
(1.0881 0.247744 -8.33812e-19)
(0.985814 0.31675 -9.87716e-21)
(0.928722 0.354216 8.06424e-19)
(1.01428 0.262555 6.87619e-19)
(0.930781 0.208103 -1.21022e-18)
(0.888456 0.221361 1.51453e-19)
(0.928632 0.319274 -3.15808e-19)
(0.903517 0.224767 0)
(0.9998 0.209869 5.92442e-19)
(1.05473 0.219145 0)
(1.05253 0.230152 0)
(1.12594 0.1256 2.65445e-19)
(1.06537 0.196101 -1.06419e-20)
(1.07964 0.249595 -1.52113e-19)
(1.11298 0.21302 0)
(1.02221 0.0483015 5.89206e-19)
(1.03704 0.0626934 7.35083e-19)
(1.0327 0.0461268 -5.85258e-19)
(1.04137 0.0693512 -4.92846e-19)
(1.01502 0.076366 -7.54755e-19)
(0.984956 0.16999 0)
(0.987778 0.108063 0)
(0.96253 0.0742095 -4.8185e-19)
(0.897144 0.0989238 1.92783e-19)
(1.03878 0.116736 6.8163e-19)
(1.0762 0.137775 -7.77272e-19)
(1.07054 0.182412 6.98979e-19)
(1.0356 0.15822 0)
(1.08632 0.12372 0)
(1.05685 0.113322 -3.19248e-19)
(1.04269 0.109375 -5.53888e-19)
(0.587523 1.0795 1.17798e-19)
(0.607988 1.39762 -1.89055e-20)
(1.14283 2.71423 -2.45523e-19)
(1.19483 3.09828 2.77023e-21)
(1.24986 2.72226 -1.18094e-19)
(1.28877 2.6922 1.84468e-20)
(1.26314 2.31443 -3.8415e-20)
(1.18225 3.00337 -7.29014e-20)
(1.20209 2.96029 2.22031e-19)
(1.17608 3.25098 -1.21688e-19)
(1.39313 2.96378 1.52833e-19)
(1.40425 2.89788 0)
(0.579201 0.816205 -4.76929e-20)
(0.195938 1.21224 4.60919e-19)
(0.528501 0.321439 4.92523e-19)
(0.410678 0.0875396 5.59473e-19)
(0.442098 0.290635 6.28733e-19)
(0.54472 0.416433 -1.02114e-18)
(0.557323 0.397721 8.36664e-19)
(0.444687 0.292191 -3.07081e-19)
(0.259082 0.225043 7.08828e-19)
(0.715104 0.25794 -3.41632e-19)
(0.661139 0.290476 0)
(0.595546 0.194938 7.87063e-21)
(0.725963 0.515009 3.5663e-19)
(0.697986 0.491027 -1.29201e-18)
(0.629235 0.440283 1.1596e-20)
(0.607447 0.417504 0)
(0.723479 0.724066 3.65698e-19)
(0.839364 0.804638 4.04002e-19)
(0.777699 0.854163 -4.70709e-19)
(0.908331 0.82418 -1.48673e-19)
(0.943321 0.867255 -3.43253e-20)
(0.950806 0.874749 3.52088e-20)
(0.884416 0.685331 -6.56242e-19)
(0.957332 0.730517 1.38224e-19)
(1.01302 0.73204 0)
(1.01133 0.706763 -1.76504e-19)
(1.03023 0.341934 2.08291e-19)
(1.1591 0.343628 2.50866e-19)
(1.07421 0.285654 3.40916e-19)
(0.999038 0.389914 -4.16907e-19)
(1.05813 0.49206 0)
(1.14015 0.431903 0)
(0.899795 0.429463 -4.2342e-22)
(0.845285 0.323828 0)
(0.892242 0.314497 3.85413e-19)
(0.9135 0.352735 3.21105e-21)
(0.988083 0.503335 1.83087e-18)
(0.918761 0.562765 4.72191e-19)
(0.943771 0.521055 -4.99196e-19)
(0.861146 0.495472 5.3185e-19)
(0.8244 0.469729 3.4025e-19)
(0.800316 0.449703 -3.33434e-19)
(1.0282 -0.00036712 6.16332e-19)
(1.02052 0.00060796 0)
(1.01913 0.00141777 4.02236e-19)
(1.02271 -0.000714342 -9.10484e-19)
(1.02258 0.00462231 4.43559e-19)
(1.02004 0.0116717 -9.28459e-19)
(1.0208 0.0115025 0)
(1.01971 0.0122788 -1.93371e-19)
(1.01662 0.00783672 4.84536e-19)
(1.01671 0.0109661 -2.43666e-19)
(1.01732 0.0106749 1.78488e-19)
(0.0379593 1.33883 0)
(0.044043 1.40257 0)
(0.0567438 1.34257 0)
(0.0628123 1.27628 0)
(0.0895482 1.41001 -7.27966e-20)
(0.093024 1.38286 1.99625e-20)
(0.0894927 1.5735 -9.8595e-22)
(0.105593 1.41437 -3.5538e-20)
(0.0438193 1.48902 4.56701e-20)
(0.0500246 1.48253 -3.599e-20)
(0.0795257 1.40197 -2.08185e-20)
(0.064675 1.40378 7.06782e-20)
(0.0607602 1.38566 1.17797e-20)
(0.0471684 1.4046 8.05959e-21)
(0.100456 2.35422 -1.14957e-19)
(0.0898259 2.40766 0)
(0.154799 2.01118 1.04572e-19)
(0.128331 1.69615 3.88397e-20)
(0.220939 2.01109 -8.61157e-20)
(0.187256 2.43103 0)
(0.232458 2.37891 -6.55679e-19)
(0.324073 2.34975 4.34877e-19)
(0.248334 1.97808 -2.27877e-19)
(0.138455 2.13837 1.56078e-19)
(0.118557 2.25054 0)
(0.0116217 1.84415 -4.48552e-20)
(-0.0059541 2.36255 -3.55151e-21)
(0.00312475 2.11965 0)
(0.00343128 2.42712 -1.70363e-20)
(0.0168597 2.25975 3.32167e-20)
(0.0121485 1.44196 -1.27776e-20)
(0.0124722 1.42329 2.17981e-19)
(0.00996144 1.43557 -7.0049e-20)
(0.0213935 1.44475 -6.25458e-20)
(0.024838 1.47008 0)
(0.0076569 1.42077 0)
(0.00224873 1.31661 -9.02689e-20)
(0.00247829 1.41014 2.62204e-20)
(0.00914949 1.40901 0)
(0.0124869 1.30722 -6.78631e-20)
(0.0236956 1.21608 1.3694e-19)
(1.04248 0.0150732 0)
(1.04902 0.0105589 -6.42656e-20)
(1.03918 0.0245453 -4.64775e-19)
(1.04959 0.0234391 0)
(1.05468 0.0226893 0)
(1.03637 0.0130502 -6.76541e-21)
(1.03022 0.0134586 7.48775e-19)
(1.03198 0.0174638 9.08163e-19)
(1.02561 0.0211503 0)
(1.0222 0.0218107 0)
(1.03567 0.0259803 4.63763e-19)
(1.02585 0.0282194 0)
(1.02365 0.0280627 0)
(-0.0200337 2.02968 0)
(-0.0112355 1.6715 -2.25018e-21)
(-0.00904151 1.77288 -3.55502e-20)
(-0.00510248 1.41796 0)
(-0.00832071 1.57962 -3.74618e-20)
(-0.0174439 1.49488 2.29325e-20)
(-0.0143224 1.43694 0)
(0.402796 1.61843 0)
(0.36796 1.32244 -2.60606e-20)
(0.27539 1.34615 0)
(0.437545 1.32057 -4.19886e-20)
(0.473566 1.48038 0)
(0.459213 1.42189 4.27191e-20)
(1.03965 2.66543 -1.502e-20)
(0.984356 2.40321 -8.87451e-19)
(0.946033 2.20354 9.9253e-19)
(0.864405 2.37672 2.40372e-19)
(0.852132 2.48167 0)
(0.920928 2.4769 0)
(0.953891 2.37683 0)
(0.929753 2.36758 -9.3168e-19)
(0.690484 2.44602 -3.73626e-19)
(0.799738 2.4298 -9.67407e-20)
(0.806823 2.40813 7.29156e-20)
(0.703345 2.3978 0)
(0.808709 2.39109 0)
(0.769283 2.40777 -3.64931e-19)
(0.764969 2.46024 0)
(0.633311 1.07053 0)
(0.51446 0.853057 -5.59174e-19)
(0.523658 0.930881 -3.26474e-20)
(0.500948 1.06654 0)
(0.488631 0.973215 8.54112e-19)
(0.80515 0.888844 -1.31035e-19)
(0.808898 1.024 0)
(0.790094 1.00724 1.78796e-19)
(0.678602 1.02359 0)
(0.669748 0.927268 0)
(1.16122 2.75056 -2.15401e-19)
(1.13651 2.80922 -8.63946e-20)
(0.920845 2.33241 7.02248e-20)
(0.897738 2.31286 -7.42799e-20)
(1.13083 2.72799 0)
(1.08308 2.69584 8.9183e-20)
(1.09783 2.48941 -2.91936e-19)
(0.999129 2.24835 -2.77352e-20)
(0.495277 1.32513 0)
(0.515596 1.07462 -1.03737e-19)
(0.596386 1.18522 0)
(0.847761 0.232164 0)
(0.753532 0.177239 0)
(0.657388 0.140432 0)
(0.854124 0.23205 -6.07827e-19)
(0.73912 0.227092 3.57231e-19)
(0.914984 0.0878131 -3.98909e-19)
(0.925495 0.13695 0)
(0.900625 0.146928 1.72352e-19)
(0.838796 0.110472 6.89537e-19)
(0.797441 0.0778893 -4.32418e-19)
(1.09208 3.34112 -6.68456e-19)
(1.16081 3.26526 0)
(1.11003 3.42552 -1.56644e-18)
(0.653064 3.57227 1.30306e-18)
(1.02003 3.0729 1.21135e-19)
(0.533567 0.772436 5.65834e-19)
(0.510899 0.738621 0)
(0.341599 0.319061 -1.41294e-19)
(0.498176 0.630989 8.41265e-19)
(0.570493 0.321065 -1.81143e-19)
(0.525159 0.455334 2.18079e-19)
(0.686948 0.526679 4.5313e-19)
(0.729298 0.565424 0)
(0.674228 0.567405 0)
(0.66126 0.539511 0)
(1.02012 0.617183 8.63387e-20)
(0.971834 0.600823 -4.57383e-19)
(0.98327 0.612813 3.47498e-19)
(1.04732 0.554592 -3.36333e-19)
(1.09304 0.523568 0)
(1.09478 0.604714 -8.80733e-20)
(0.885691 0.425266 -7.58224e-19)
(0.873634 0.409067 -9.78929e-19)
(0.795743 0.419603 5.98583e-19)
(0.810295 0.379476 -6.24069e-19)
(0.853642 0.336582 -4.897e-19)
(0.796048 0.34144 5.99934e-19)
(1.02661 0.00673444 -4.64144e-19)
(1.02624 0.00685649 9.35324e-19)
(1.02999 0.000955684 5.97228e-19)
(1.03418 0.00159765 -7.17149e-19)
(1.03401 0.0119034 0)
(1.02982 0.012055 -1.1721e-18)
(0.0856173 1.64698 1.05062e-20)
(0.0725329 1.6048 0)
(0.109291 1.6995 6.34445e-20)
(0.115412 1.66858 -5.72816e-20)
(0.0872084 1.573 1.80793e-21)
(0.0753585 1.57747 0)
(0.00822817 1.70728 0)
(-0.00632272 1.53048 2.01192e-20)
(-0.00601373 1.47396 -1.80648e-20)
(-0.0121572 1.57703 3.41344e-21)
(-0.00156579 1.8954 2.9897e-20)
(-0.0138568 1.95043 -1.20102e-20)
(0.493155 1.35802 -2.57734e-19)
(0.496051 1.35222 2.81978e-19)
(0.45175 1.31259 -1.00805e-20)
(0.428343 1.29025 7.4286e-21)
(0.631489 1.31445 0)
(0.557416 1.40876 1.17509e-19)
(0.558366 1.41172 -1.14376e-19)
(0.488019 1.30183 9.72879e-21)
(0.528413 1.25346 0)
(0.592715 1.21918 0)
(0.664391 2.40954 5.50186e-19)
(0.659911 2.43942 1.26151e-18)
(0.715421 2.45441 -8.67776e-19)
(0.614136 2.42658 -1.98113e-19)
(0.556259 2.51923 2.70331e-19)
(0.497159 2.48577 -6.9579e-19)
(0.99126 2.38182 -5.59409e-19)
(1.02235 2.39934 0)
(0.94882 2.18669 -6.11254e-19)
(1.05412 2.67682 0)
(1.05296 2.6577 0)
(0.595732 2.28288 1.89844e-21)
(1.11489 3.06525 7.14408e-20)
(0.990899 2.96093 -1.18022e-19)
(0.312802 0.77674 0)
(0.309246 0.647084 -3.01874e-19)
(0.521275 0.586486 -3.04293e-19)
(0.357506 2.12391 0)
(0.399615 2.74351 -8.52897e-20)
(0.408775 2.47751 0)
(0.732389 0.694729 -7.7813e-19)
(0.796741 0.704766 1.09009e-18)
(0.797155 0.665232 -1.08459e-18)
(0.706407 0.64853 -9.87245e-20)
(0.757093 0.608754 -4.14448e-19)
(0.965599 2.74797 -5.41028e-20)
(1.01149 2.75648 -2.09334e-19)
(0.545797 2.19684 4.45969e-19)
(0.599918 1.73014 -3.51972e-19)
(0.698674 1.84858 -4.9369e-19)
(0.97337 2.3892 -1.38346e-19)
(0.973989 2.34254 3.65235e-19)
(0.639839 1.75541 3.34331e-20)
(0.447132 1.29066 1.73621e-19)
)
;

boundaryField
{
    wall-4
    {
        type            noSlip;
    }
    velocity-inlet-5
    {
        type            fixedValue;
        value           uniform (1 0 0);
    }
    velocity-inlet-6
    {
        type            fixedValue;
        value           uniform (0 3 0);
    }
    pressure-outlet-7
    {
        type            zeroGradient;
    }
    wall-8
    {
        type            noSlip;
    }
    frontAndBackPlanes
    {
        type            empty;
    }
}


// ************************************************************************* //
