/*--------------------------------*- C++ -*----------------------------------*\
  =========                 |
  \\      /  F ield         | OpenFOAM: The Open Source CFD Toolbox
   \\    /   O peration     | Website:  https://openfoam.org
    \\  /    A nd           | Version:  6
     \\/     M anipulation  |
\*---------------------------------------------------------------------------*/
FoamFile
{
    version     2.0;
    format      ascii;
    class       volScalarField;
    location    "36";
    object      p;
}
// * * * * * * * * * * * * * * * * * * * * * * * * * * * * * * * * * * * * * //

dimensions      [0 2 -2 0 0 0 0];

internalField   nonuniform List<scalar> 
918
(
0.606638
1.34206
0.00561474
0.606517
0.0191243
1.3099
-0.422214
0.770634
0.587721
-0.0404995
0.0167647
0.584494
1.16695
0.9334
-1.10655
0.0762143
0.725361
-0.348339
0.585624
0.0415578
0.80516
0.594456
0.596929
0.587725
0.644665
0.891309
1.04438
0.0219292
-0.00647873
0.00134696
0.0609676
0.0565914
0.0561318
1.19301
1.24497
1.26813
0.554875
0.383942
-0.310209
-0.363648
-0.34545
-0.446342
0.763216
0.762858
-0.111593
0.771025
0.779449
0.573622
0.587104
0.587936
0.589132
0.587976
0.589281
0.473295
-0.0446619
-0.0761019
-0.0220069
-0.0114988
0.127736
0.0155464
0.0137154
0.0195616
0.0248368
0.505569
0.580652
0.577986
0.58958
0.598807
1.28223
1.25593
1.28199
1.19272
1.21027
1.14386
1.11675
0.955014
0.978727
0.917181
0.903061
-1.57309
-2.53263
-0.52138
-0.237364
-0.00258603
0.0693594
0.0789603
0.715808
0.715017
0.72587
0.734935
1.10295
-0.31685
-0.388951
0.58608
0.584615
0.593952
0.594858
0.589799
0.589817
0.0475733
0.0518528
0.0369069
0.0413513
0.0462436
0.796286
0.795581
0.587175
0.584639
0.608042
0.63047
0.619787
0.331242
0.651873
0.665392
0.748405
0.896528
0.885856
0.897469
1.02007
0.987845
1.0756
1.09734
-0.00044422
-0.00251949
0.0563788
0.0575559
0.066032
0.550692
0.544386
0.571019
0.55842
0.561387
0.28802
0.135871
0.466558
0.490441
-0.226847
-0.270845
-0.378906
-0.376487
-0.486796
0.657366
0.758645
0.75563
-0.134248
-0.0557216
-0.182626
0.00382587
-0.053371
0.564762
0.570868
0.567019
0.582208
0.576417
0.578826
0.591207
0.588352
0.589968
0.532152
0.664465
0.392937
0.362711
-0.199198
-0.095208
-0.186983
-0.000507852
0.00365213
0.138157
0.162214
0.114559
0.101956
0.0109193
0.0169111
0.013531
0.032899
0.034651
0.497447
0.485097
0.516383
0.523653
0.569564
0.57072
0.574703
0.57278
1.06757
1.0909
1.09673
1.0728
-3.52368
-6.18141
0.115752
0.279211
-0.0123163
0.00722331
-0.012358
0.0528002
0.0156701
0.0102151
0.0674418
0.0735705
0.073899
0.075844
0.706512
0.704849
1.06913
1.09611
1.0491
1.03067
0.575397
0.577354
0.58195
0.578867
0.0402216
0.0501909
0.0469209
0.781273
0.789243
0.788609
0.292047
0.206041
0.379801
0.409609
0.695528
0.674044
0.690818
0.809842
0.849074
1.11423
1.13847
1.12233
1.13526
1.18621
1.20916
1.17436
0.529902
0.540445
0.534894
0.57421
0.571797
0.572869
0.568735
0.569978
0.568415
0.0226797
-0.353491
0.545513
0.546367
0.531757
0.538955
0.74229
0.824363
0.736555
0.746285
0.744598
0.0495513
0.00228451
0.321511
0.291426
0.438939
0.471992
0.454821
1.04325
1.00336
1.05149
1.02692
0.991003
1.01573
-0.290934
-2.07106
-1.05724
0.688824
0.488311
0.581773
0.0914217
0.0764827
0.0853349
1.09662
1.13828
0.734024
0.919444
0.873444
0.872693
0.899068
0.962732
0.893949
0.929201
0.960861
0.935956
0.613142
0.553852
0.567472
0.901864
0.958605
0.171816
0.0991646
0.0756194
0.185994
0.247881
0.218557
1.11315
1.01669
1.08501
0.584879
0.585791
0.0152808
0.0425487
0.589846
0.589572
0.0507232
0.0718013
0.599722
-0.881825
0.18512
0.579151
0.569212
0.585822
-0.00602854
0.406735
0.0134215
0.115294
0.0816776
0.580609
0.517114
0.475495
0.070435
0.0595723
0.0474532
-0.13992
0.582626
0.580995
0.585203
0.58606
0.586798
0.0596418
0.0341903
0.0263539
0.0490045
0.0448618
0.0441369
0.549848
0.568542
-0.109301
0.585458
0.587557
0.587274
0.581308
0.586328
0.584874
0.0684772
0.072943
0.0619961
0.274905
0.404703
0.788333
0.867643
0.734689
0.564062
0.261469
0.721124
0.775541
0.698471
0.831517
0.749213
0.758397
0.248002
0.108461
0.247879
0.184166
0.576148
0.575478
0.566755
0.563755
0.580608
0.578384
0.583429
0.580638
0.58374
0.584924
0.0319296
-0.00241964
-0.0148721
-0.0675281
0.370294
0.63318
0.301057
0.32972
0.224941
0.0277531
0.0218506
0.0151282
0.0189597
0.0685821
0.0665981
0.10908
0.115074
0.0983266
0.0790669
0.0608994
0.0650309
0.0547442
0.574262
0.573381
0.579086
0.587311
0.526469
0.53018
0.496635
0.515539
0.50206
0.443361
0.473545
0.45117
0.0567328
0.0709514
0.0426392
0.0618
0.0644565
0.0609778
0.0669681
0.054105
0.0537895
0.0566485
0.058723
0.0543298
-0.102591
-0.218535
1.04384
0.960367
0.19461
0.572572
0.578214
0.57539
0.579962
0.583144
0.583834
0.581476
0.578034
0.568811
0.57031
0.56694
0.567825
-0.0531975
-0.160004
0.0107575
-0.0599984
0.210077
0.685375
0.413726
0.362652
0.347891
0.567155
0.773662
0.707958
0.784194
0.786542
-0.331458
0.0871498
-0.256437
0.29193
0.27613
0.812429
0.85443
0.871231
0.8288
0.784345
0.030677
0.603991
0.0191573
0.0644247
0.251713
0.14508
0.769023
0.726914
0.732819
0.747767
0.76735
0.743338
0.727617
0.718295
0.74825
0.753185
0.564574
0.304771
0.267386
0.218539
0.708602
0.601331
0.655877
0.578306
0.571464
0.574078
0.572917
0.554505
0.561671
0.557488
0.563993
0.567467
0.57529
0.575437
0.571455
0.573346
0.00967245
0.0097161
-0.00602274
-0.053665
-0.0508114
-0.0909162
-0.0251565
0.17474
0.121889
0.304985
0.445118
0.14365
0.0128994
0.0253185
0.0828509
0.249529
0.249166
0.124134
0.236599
0.196443
0.189128
0.281829
0.303644
0.0447643
0.0416649
0.0380615
0.0314413
0.0889468
0.176405
0.171474
0.0749634
0.0630581
0.0248988
0.0305614
0.063794
0.0492269
0.0539366
0.0768459
0.0203975
0.0598764
0.0730586
0.0767709
0.0669541
0.0690949
0.567769
0.569737
0.569668
0.57852
0.592413
0.607134
0.571222
0.547246
0.538453
0.541499
0.514894
0.523909
0.519311
0.534174
0.555584
0.564379
0.56205
0.5646
0.547269
0.548839
0.534511
0.539175
0.510414
0.492743
0.482923
0.0498282
0.0570973
0.0643265
0.0402509
0.0725157
0.0783271
0.0758227
0.0847283
0.0682287
0.0704904
0.0696325
0.064473
0.0689599
-0.00549153
0.0731032
-0.107966
-0.156978
-0.206735
0.953776
1.08702
0.867997
0.664797
0.665425
0.901628
0.990109
0.629088
0.80534
0.840821
0.630998
0.916163
0.576491
0.57613
0.573997
0.573201
0.574206
0.0497077
0.148519
0.170729
0.220265
0.334801
0.441503
0.366112
0.255634
0.390089
0.415066
0.685961
0.695941
0.643547
0.664719
0.661282
0.484726
0.566777
0.607949
0.557047
0.628116
0.66068
0.610346
0.651979
0.572069
0.522999
0.517062
0.470005
0.504888
0.486642
0.460585
0.567534
0.544638
0.555385
0.545698
0.566655
0.589539
0.590415
0.613722
0.628437
0.548208
0.498398
0.51519
0.541828
0.499251
0.51482
0.535411
0.234979
0.140475
0.304823
-0.0264389
0.0667032
0.10303
0.0622157
0.0145826
0.322117
-0.322558
-0.264579
-0.949352
0.543969
0.93614
0.73072
0.744483
0.76402
0.744041
0.752563
0.768512
0.776257
0.70087
0.717265
0.721081
0.683012
0.715027
0.714453
0.72274
0.564674
0.475249
0.475487
0.41231
0.280689
0.317622
0.491718
0.430996
0.363875
0.358094
0.53068
0.399344
0.474676
0.531316
0.463446
0.393913
0.624134
0.671309
0.659604
0.631292
0.54108
0.565311
0.586179
0.626913
0.653667
0.681164
0.562991
0.569134
0.570106
0.567394
0.565528
0.568579
0.568718
0.571025
0.571589
0.574088
0.573376
0.0269602
0.0365094
0.0235928
0.018338
0.0874009
0.059663
0.0637132
0.028156
0.0570211
0.0575705
0.0381297
0.0245702
0.0343042
0.0454465
0.140466
0.158354
0.161444
0.127086
0.314716
0.484645
0.550114
0.423346
0.270464
0.288184
0.3689
0.0782843
0.0966032
0.0824494
0.129157
0.109189
0.0398285
0.0357611
0.0446065
0.0462056
0.0545641
0.0446741
0.0552223
0.0639981
0.0508431
0.0385707
0.0426777
0.548716
0.541757
0.545161
0.537907
0.536251
0.552353
0.556702
0.557932
0.563293
0.565666
0.555669
0.561506
0.565223
0.0722377
0.068088
0.0614188
0.067124
0.0699904
0.0701492
0.071351
0.186071
0.0922878
0.126295
0.0578358
-0.063811
-0.00409403
0.55701
0.552104
0.54739
0.772995
0.614536
0.52971
0.625984
0.744118
0.330411
0.536653
0.368213
0.94738
0.847651
0.992893
0.61792
0.306324
0.467892
0.481504
0.317615
0.443412
0.410589
0.286496
0.325317
0.346331
0.429679
0.313235
0.291107
0.0504436
0.227869
0.34158
0.323367
0.452663
0.510206
0.316936
0.231349
0.180947
0.673285
0.689111
0.701231
0.6735
0.693912
0.629601
0.619705
0.637704
0.645535
0.640474
-0.588148
-0.177124
-1.38006
-0.788235
-0.337955
0.56971
0.559313
0.805184
0.712082
0.766705
0.750578
0.684153
0.649577
0.682956
0.710398
0.40236
0.505923
0.472853
0.47992
0.419259
0.347712
0.638761
0.640744
0.663938
0.688197
0.662681
0.690546
0.561499
0.561254
0.560291
0.556716
0.555183
0.558114
0.0925475
0.0684423
0.105377
0.101406
0.0844433
0.0857529
0.0651566
0.0568263
0.0604053
0.063691
0.0615493
0.0607348
0.229365
0.173073
0.0825694
0.128527
0.0586741
-0.022285
-0.0247768
0.0636969
0.163176
0.144112
0.450568
0.725516
0.551078
0.716654
0.50893
0.612218
0.530557
0.503152
0.533425
0.430603
0.520061
0.0716316
-0.121795
-0.181327
0.868377
0.824742
0.611853
0.357359
0.246242
0.548113
0.582959
0.541513
0.576685
0.627479
0.614827
0.0574402
0.1573
0.218724
0.528393
0.329241
0.344223
0.338083
0.493759
0.471443
)
;

boundaryField
{
    wall-4
    {
        type            zeroGradient;
    }
    velocity-inlet-5
    {
        type            zeroGradient;
    }
    velocity-inlet-6
    {
        type            zeroGradient;
    }
    pressure-outlet-7
    {
        type            fixedValue;
        value           uniform 0;
    }
    wall-8
    {
        type            zeroGradient;
    }
    frontAndBackPlanes
    {
        type            empty;
    }
}


// ************************************************************************* //
