/*--------------------------------*- C++ -*----------------------------------*\
  =========                 |
  \\      /  F ield         | OpenFOAM: The Open Source CFD Toolbox
   \\    /   O peration     | Website:  https://openfoam.org
    \\  /    A nd           | Version:  6
     \\/     M anipulation  |
\*---------------------------------------------------------------------------*/
FoamFile
{
    version     2.0;
    format      ascii;
    class       volVectorField;
    location    "36";
    object      U;
}
// * * * * * * * * * * * * * * * * * * * * * * * * * * * * * * * * * * * * * //

dimensions      [0 1 -1 0 0 0 0];

internalField   nonuniform List<vector> 
918
(
(0.985047 -0.000706339 0)
(0.00534001 2.96624 0)
(-0.0227736 0.812266 0)
(0.979573 0.00195808 0)
(-0.0913483 1.77594 -5.5918e-20)
(-0.00708433 2.94855 -2.81303e-18)
(0.819765 1.14099 3.70035e-19)
(0.328176 0.121499 -1.71182e-20)
(0.999918 -0.000248532 0)
(0.0728491 0.762638 0)
(-0.00687391 0.542473 0)
(0.736373 -0.0145055 0)
(0.0101906 2.9316 0)
(0.00362961 2.79434 0)
(-0.000689637 3.19202 7.64604e-19)
(-0.0146945 1.82075 -6.84208e-20)
(0.386204 0.0311972 1.13123e-18)
(0.238534 1.15294 2.79435e-19)
(0.964515 0.00666806 0)
(-0.00298007 0.622184 0)
(0.095278 0.189762 -8.06382e-19)
(1.00184 -0.00456915 0)
(0.999853 -0.00893701 0)
(0.975146 -0.00606761 0)
(0.600177 -0.0357158 0)
(0.0230527 2.64314 0)
(-0.0123175 2.91198 1.04609e-18)
(-0.0136499 0.840835 0)
(-0.0537354 1.01704 0)
(-0.0137592 0.816913 0)
(-0.133821 2.56181 0)
(-0.103113 1.90693 4.43996e-20)
(-0.0476677 1.72448 0)
(-0.0221652 2.9876 -1.02094e-22)
(-0.0165051 3.0055 2.18607e-18)
(0.00230296 3.00061 0)
(0.870986 -0.00938085 0)
(0.374616 0.917268 2.08597e-19)
(0.821831 1.15183 -4.06993e-19)
(0.957518 1.00562 4.49246e-19)
(0.686793 1.23605 -8.4263e-20)
(0.698141 1.20791 4.92565e-19)
(0.3601 0.217906 1.67002e-20)
(0.342663 0.102711 0)
(1.13589 0.514939 0)
(0.325872 0.222349 7.61554e-20)
(0.299487 0.142211 -7.90285e-20)
(0.920355 -0.00697054 0)
(1.00025 7.73396e-05 0)
(0.999909 0.000313611 0)
(1.00369 -0.00729558 0)
(1.00091 -0.00095 0)
(1.0001 -2.00667e-05 0)
(0.0986692 1.82297 -9.00296e-19)
(0.0390264 0.921553 0)
(0.121164 0.834858 0)
(0.0124993 0.88153 0)
(0.05158 0.693714 0)
(0.016707 2.00918 0)
(0.000304437 0.744682 0)
(0.0111436 0.560774 0)
(-0.00346441 0.743945 0)
(-0.0174836 0.551523 0)
(0.838967 -0.0147251 0)
(0.846001 0.0310265 0)
(0.767858 -0.00375067 0)
(0.818918 0.0418413 0)
(0.700004 -0.0190663 0)
(0.0139556 3.00019 1.04727e-18)
(0.0111852 3.00589 0)
(0.00630314 3.00391 0)
(0.0118847 2.99707 1.19416e-23)
(0.00827731 2.95874 -1.55649e-18)
(0.0122056 2.98297 0)
(0.00902913 2.90487 0)
(0.021232 2.93138 2.48555e-24)
(0.00407801 2.82394 0)
(0.0263533 2.91876 0)
(-0.00102126 2.74465 0)
(0.31038 3.59244 0)
(-0.122715 3.6759 0)
(0.152729 3.28304 -7.11628e-19)
(0.00626027 3.01535 0)
(-0.0935737 2.27087 0)
(-0.0193893 2.10296 6.74776e-20)
(0.00390079 1.86661 -6.98263e-20)
(0.46343 0.135141 -3.91429e-19)
(0.387892 0.00147685 -3.77941e-19)
(0.444704 0.162595 -1.17594e-18)
(0.372925 0.0512613 -7.74087e-19)
(0.25595 0.981137 0)
(0.340057 1.28131 -3.0239e-19)
(0.413861 1.18105 5.00765e-19)
(0.987975 0.00806097 0)
(0.943445 0.00579695 0)
(1.00029 0.000674264 0)
(1.00254 0.00907141 0)
(1.00315 0.00891009 -2.99629e-18)
(0.992125 0.0095163 2.26418e-18)
(-0.00515625 0.782228 0)
(-0.0191917 0.611469 0)
(0.0206402 0.87406 0)
(-0.0261075 0.799502 0)
(-0.00468892 0.62728 0)
(0.127364 0.201568 2.49599e-19)
(0.177973 0.175419 0)
(0.993603 -0.00769663 0)
(0.953971 -0.0064737 0)
(0.77031 0.05008 0)
(0.705718 0.0554278 0)
(0.659204 -0.0253607 0)
(0.964589 -0.00644625 0)
(0.63447 0.0584509 0)
(0.462142 -0.0384109 1.65202e-18)
(-0.040515 2.86217 8.65417e-19)
(0.0337451 2.91415 0)
(0.0427807 2.89147 0)
(0.00379674 2.701 0)
(-0.00882341 2.98629 1.00717e-18)
(-0.0143757 2.8948 0)
(-0.0110513 2.99184 -3.08864e-18)
(-0.0115934 2.92968 1.04953e-18)
(0.023133 1.24229 0)
(-0.0202691 1.3254 0)
(-0.0294838 2.0587 -1.76834e-21)
(-0.0647007 1.97273 0)
(-0.0261009 1.79026 0)
(0.938044 -0.0056071 0)
(0.855833 -0.0103365 0)
(0.863874 0.00628959 0)
(0.949083 -0.00637899 0)
(0.883017 -0.00791174 0)
(0.499236 1.1186 -2.62219e-19)
(0.547093 1.19019 0)
(0.335461 0.849556 3.81074e-20)
(0.279416 0.714637 0)
(0.917885 1.04191 -1.2212e-19)
(1.03168 0.841736 2.34421e-19)
(0.401504 1.34145 0)
(0.548916 1.29586 0)
(0.598895 1.22997 0)
(0.0928298 0.17245 -3.24257e-19)
(0.378455 0.210367 0)
(0.34091 0.0977478 2.19162e-19)
(0.994168 0.897568 0)
(1.05861 0.740206 0)
(1.08831 0.673618 -1.6049e-19)
(1.1157 0.582943 0)
(1.17028 0.370215 4.46723e-20)
(0.957139 -0.00724482 0)
(0.962541 -0.00820962 0)
(0.900505 -0.00723373 0)
(0.983879 -0.0081434 0)
(0.974331 -0.00809268 0)
(0.936416 -0.00651693 0)
(1.0002 0.00250522 0)
(1.00077 0.00125479 0)
(0.999998 0.000778892 0)
(0.039607 2.07395 4.94169e-19)
(0.147155 1.76678 0)
(0.010267 2.19 7.85143e-19)
(0.0622576 1.87759 -6.75281e-19)
(0.172886 1.13482 -2.27622e-19)
(0.0557418 0.998853 0)
(0.122489 0.998927 0)
(0.0126896 0.834798 0)
(0.0312642 0.647884 0)
(-0.00791797 2.22941 -1.78428e-21)
(0.0284687 2.00244 0)
(-0.00917195 2.20888 -9.42975e-20)
(0.0154761 2.01154 1.78093e-19)
(0.00957175 0.800434 0)
(0.0160097 0.766575 0)
(0.025956 0.607484 0)
(-0.00894664 0.750507 0)
(-0.0153351 0.565057 0)
(0.935852 0.0132355 0)
(0.849852 -0.011256 0)
(0.926118 0.00431848 0)
(0.842909 -0.0119752 0)
(0.81291 0.00099659 0)
(0.901454 0.0207383 0)
(0.87765 0.0252922 0)
(0.789561 -0.00140198 0)
(0.0101882 3.06761 -9.88282e-21)
(0.0151372 3.05897 0)
(0.0123873 2.97031 0)
(0.00761085 2.87665 0)
(0.901006 3.99114 0)
(1.19649 3.3844 9.32183e-19)
(0.0831804 3.09677 0)
(-0.0158031 2.92145 0)
(0.0862741 1.47936 0)
(0.0221026 1.94648 0)
(-0.0247547 1.77114 0)
(-0.0928521 2.51064 4.14841e-20)
(-0.0878545 2.40158 0)
(-0.132534 2.48338 0)
(0.0135006 1.97749 1.26118e-21)
(-0.0184446 2.14076 6.15564e-20)
(-0.019727 2.12472 7.10553e-20)
(0.0163956 1.92329 0)
(0.479051 0.110325 5.91589e-19)
(0.392746 -0.0109598 -5.81339e-19)
(0.228499 1.57515 0)
(0.278413 0.725741 -3.43197e-19)
(0.180624 1.67203 -1.14499e-18)
(0.241955 1.19092 1.14594e-18)
(0.902018 0.00628265 0)
(0.967251 0.0104136 0)
(0.975144 0.00973484 0)
(0.923193 0.00610482 0)
(-0.0326793 0.771082 0)
(-0.0257605 0.784019 0)
(-0.0188083 0.588448 0)
(0.281682 0.217737 7.00389e-19)
(0.235697 0.204146 -8.29789e-19)
(0.248952 0.153412 0)
(1.08587 0.0850454 3.25675e-20)
(1.06911 0.038566 0)
(1.00583 0.0410762 0)
(0.904574 -0.00411368 0)
(0.504 0.0862505 0)
(0.554776 0.0607135 -2.64853e-18)
(0.410702 -0.0196782 9.98008e-19)
(0.0111812 2.97743 8.99914e-19)
(-0.032704 2.86204 4.61128e-20)
(0.00848326 3.05327 -2.07728e-20)
(0.0155842 3.04339 7.77561e-19)
(-0.011835 2.99999 3.4422e-20)
(-0.0123422 2.95229 -1.38771e-22)
(-0.0150222 3.01334 -6.39207e-19)
(0.0142103 3.02675 4.4912e-19)
(0.00755762 3.03468 -7.31922e-19)
(0.933036 0.0015438 0)
(0.938464 -0.00185237 0)
(0.845863 -0.0101654 0)
(0.956709 0.0113138 0)
(0.943104 0.0125836 0)
(0.882093 0.00606125 0)
(0.917676 0.0167444 0)
(0.926394 0.0143217 0)
(0.838595 0.00370505 0)
(0.673734 1.42072 -3.72472e-20)
(0.692595 1.53244 0)
(0.124376 0.312127 7.80825e-20)
(0.197341 0.63099 6.19178e-19)
(0.232928 0.684192 -3.60279e-19)
(0.218373 0.516905 7.16025e-19)
(0.32154 0.795195 1.70459e-18)
(0.12043 0.221768 4.01417e-19)
(0.422542 0.182007 8.23171e-19)
(0.404862 0.204467 2.12472e-19)
(0.361581 0.072759 4.08423e-19)
(1.16069 0.434772 2.9379e-21)
(1.18396 0.237843 -2.04348e-21)
(-0.00141404 2.23137 3.18012e-19)
(0.05011 1.9356 0)
(0.964814 0.0308622 0)
(0.941559 0.0179804 0)
(0.863753 -0.0164673 0)
(0.0125687 3.07475 0)
(0.0169723 2.94418 1.39023e-18)
(0.0139583 2.95689 0)
(0.0057526 2.84972 -1.37965e-18)
(0.00907851 3.09124 3.41115e-19)
(0.0114877 3.08278 0)
(0.71364 1.83104 -1.58648e-19)
(1.24088 2.63996 5.38605e-19)
(0.698741 2.01018 -1.36571e-18)
(0.0226813 2.97719 -7.97324e-19)
(0.0413989 3.00047 0)
(-0.0382763 2.88044 0)
(-0.0116349 2.18632 -6.93369e-21)
(-0.0171284 2.1636 -1.34415e-19)
(0.0102056 1.99788 -6.51644e-21)
(0.262559 1.37589 1.10452e-18)
(0.263942 0.513581 -7.56519e-19)
(0.0687632 1.99085 8.34432e-19)
(0.121307 1.8617 -9.91539e-19)
(0.207464 1.513 1.01399e-19)
(0.0073133 3.11996 -1.92049e-18)
(0.0134511 3.12095 2.11388e-18)
(-0.00500779 2.98023 9.52957e-19)
(-0.00126654 2.97511 -9.22477e-19)
(-0.0180289 2.8776 -9.70624e-19)
(0.012644 3.09948 -2.54349e-18)
(0.00457016 3.10577 2.58124e-18)
(0.244238 0.668466 0)
(0.197097 0.636084 -1.30836e-18)
(0.0644818 0.209484 5.74495e-19)
(0.335668 0.910864 1.19227e-18)
(0.186008 0.262923 -1.8375e-18)
(1.17001 0.170284 8.4997e-20)
(1.18326 0.296297 0)
(1.16443 0.117311 -3.35599e-20)
(-0.00875268 2.23812 -2.48911e-21)
(-0.00563115 2.23652 0)
(0.0355738 1.97298 0)
(0.309119 1.30037 -3.94805e-19)
(0.347843 1.13624 -8.51897e-19)
(0.213323 0.368574 1.52119e-18)
(1.00642 -0.00975354 0)
(1.00773 -0.00781615 5.51518e-19)
(0.0439792 1.22998 0)
(0.00384707 1.1189 0)
(1.00245 0.00331696 1.39801e-21)
(1.00327 0.00797691 1.1307e-18)
(-0.0827809 2.52206 -5.3086e-20)
(-0.0624103 2.53986 0)
(0.0423982 3.1743 5.88621e-19)
(0.380202 3.5549 0)
(1.11741 0.684438 -9.397e-20)
(1.01212 0.010817 -2.75038e-21)
(1.02074 -0.00914169 0)
(1.00162 0.000208068 1.36324e-22)
(0.104861 1.36063 0)
(0.144425 2.59784 0)
(0.0256797 1.32048 0)
(-0.00530194 2.63914 8.92461e-20)
(-0.026605 2.58858 6.9517e-20)
(1.00023 0.0259005 2.53542e-21)
(1.06152 0.00485337 0)
(1.09777 0.0259355 0)
(-0.00881972 1.89225 0)
(-0.0347292 2.5751 0)
(0.0249567 1.25406 0)
(0.282422 1.48076 -1.06366e-19)
(1.01145 -0.00909643 0)
(1.0097 -0.0130497 0)
(1.00229 0.000924241 7.07122e-19)
(1.00549 -0.00498039 -8.32226e-19)
(1.00114 -0.000893183 0)
(0.0800383 1.59017 0)
(0.068525 1.33569 0)
(0.0442928 1.50705 0)
(0.0253153 1.23226 0)
(0.0157293 1.1529 0)
(-0.0147254 1.09693 0)
(1.03492 -0.00479062 0)
(1.01971 0.0149286 -9.66914e-22)
(0.782152 1.30401 2.06736e-19)
(1.00232 0.000361549 -7.05046e-19)
(1.00342 0.00456008 8.41529e-19)
(1.00132 0.00213496 0)
(1.0114 0.00971257 7.03354e-19)
(1.00708 0.00752098 -8.54656e-19)
(1.00744 0.0113949 0)
(-0.0454876 2.59103 0)
(-0.0543688 2.55667 7.72753e-20)
(-0.0461132 2.5745 -5.37318e-20)
(1.22253 0.261168 7.10211e-19)
(1.15553 0.0826094 0)
(0.0465146 3.09054 -1.12163e-18)
(0.0512064 2.87038 -7.90117e-20)
(0.105877 3.20163 1.50395e-18)
(0.12419 3.21428 -3.44047e-19)
(0.146913 3.26254 0)
(0.0228799 3.13802 3.11276e-19)
(0.062599 3.16183 1.11775e-18)
(0.0629181 3.17944 -5.81339e-19)
(0.0274795 3.1288 0)
(0.652631 0.309657 0)
(0.599295 0.350205 0)
(1.09924 0.714767 2.47881e-19)
(1.06629 0.851731 -2.72893e-19)
(1.16027 0.605495 0)
(1.19283 0.533454 0)
(1.0159 0.0119886 -1.30801e-18)
(1.01479 0.0127794 1.64507e-18)
(1.02548 -0.00890203 0)
(1.02382 -0.0104246 0)
(1.00656 0.00278402 0)
(1.01075 0.00407623 0)
(1.00447 0.00212104 0)
(1.00956 0.00653603 0)
(1.00708 0.00519499 0)
(1.00452 0.00534828 0)
(0.0925084 1.35751 0)
(0.0739586 1.34197 0)
(0.131873 1.4027 0)
(0.127203 1.41141 0)
(0.151022 2.62194 0)
(0.193641 2.68826 -4.80166e-19)
(0.10903 2.6822 0)
(0.0847898 2.68299 2.32418e-19)
(0.0285615 2.68968 -2.56595e-19)
(0.0220966 1.31972 0)
(0.0121122 1.25643 0)
(0.0339039 1.33825 0)
(0.0385396 1.27864 0)
(-0.00338835 1.99567 -5.1171e-20)
(-0.0273975 2.61563 5.99748e-20)
(-0.0140665 2.68239 8.95665e-20)
(-0.0248149 2.69006 0)
(-0.0322341 2.62133 -1.63164e-19)
(-0.0297579 2.61438 -9.68545e-20)
(0.00787971 1.99516 3.93555e-20)
(-0.0144509 2.42055 -8.04485e-20)
(-0.0184808 2.437 -1.01523e-19)
(1.01054 0.0369046 1.32453e-18)
(1.00732 0.0171376 -1.65009e-18)
(1.00429 0.0419414 -1.3525e-18)
(0.979762 0.0289035 1.70107e-18)
(1.0629 0.00776848 0)
(1.04841 -0.00733131 0)
(1.08987 0.0347424 0)
(1.07358 0.0131965 0)
(1.07195 -0.000695027 0)
(1.13547 0.0721697 0)
(1.11024 0.042068 0)
(1.11182 0.0341358 0)
(-0.105436 2.46082 -1.08341e-20)
(0.00383849 2.16421 0)
(-0.0701241 2.33235 0)
(-0.0398407 2.59432 3.59343e-20)
(-0.0337562 2.6062 -1.55928e-21)
(0.0350459 1.68429 7.33988e-20)
(0.0377188 1.60143 -7.46787e-20)
(0.0401266 1.41161 0)
(0.0430424 1.42043 0)
(0.043988 1.4231 0)
(0.028265 1.27544 0)
(0.00749912 1.16837 0)
(0.374848 1.50046 1.54372e-19)
(0.417337 1.5094 1.09852e-19)
(0.605999 2.463 -2.60069e-19)
(0.397121 2.56452 7.65179e-19)
(0.355586 2.07358 9.45402e-20)
(1.02054 -0.00811461 0)
(1.01569 -0.00941736 0)
(1.0148 -0.0132775 0)
(1.00761 -0.000730533 0)
(1.00496 -0.000618353 0)
(1.00796 -0.00461489 0)
(1.00949 -0.00362807 0)
(1.01449 -0.00448176 0)
(1.02048 0.0156845 1.28472e-18)
(1.01776 0.0148122 -1.62887e-18)
(1.02109 0.0177655 -1.29528e-18)
(1.01895 0.0162906 1.62117e-18)
(0.744564 1.34552 0)
(0.677088 1.38697 1.54826e-19)
(0.85029 1.2227 2.55184e-20)
(0.88039 1.19699 -3.38587e-20)
(1.1641 2.62258 4.33641e-19)
(0.79701 0.110543 6.53097e-19)
(1.161 0.0963278 0)
(1.19648 0.186171 -5.74061e-19)
(1.17754 0.147499 -2.39287e-20)
(1.01341 0.148445 0)
(0.0886244 3.02604 4.40863e-19)
(0.0895015 2.90561 -1.34391e-18)
(0.0380911 2.36443 8.53263e-19)
(0.135117 -0.0588251 -4.12346e-19)
(0.34751 3.45679 -2.02528e-19)
(0.197393 3.34703 0)
(0.228041 3.40728 2.63815e-19)
(0.230822 3.0841 -1.44313e-18)
(0.265079 3.20449 0)
(0.00741468 3.12236 5.76337e-20)
(0.0182009 3.13111 -6.57889e-19)
(0.0169794 3.12701 9.68319e-19)
(0.0340006 3.13975 0)
(0.031838 3.15001 0)
(1.26164 2.58987 0)
(0.512234 0.833152 -5.78486e-19)
(0.990384 1.03198 5.16983e-20)
(0.961609 1.07031 0)
(0.824197 0.956617 -1.48944e-19)
(1.04708 0.895182 2.83498e-20)
(0.406844 0.39374 -1.01861e-18)
(0.713885 0.319742 -2.4835e-20)
(0.670543 0.24888 4.60175e-19)
(0.615775 0.374851 3.3932e-20)
(0.527889 0.357936 -1.3687e-18)
(0.671544 0.340197 0)
(0.697735 0.423793 7.94601e-19)
(0.701949 0.427641 0)
(0.646503 0.363798 0)
(0.610276 0.30882 0)
(0.75858 0.643729 4.6641e-19)
(1.2268 0.290659 -5.86384e-19)
(1.20989 0.43399 0)
(1.22279 0.380394 0)
(0.761122 0.184081 6.88887e-19)
(0.822616 0.542673 -4.34639e-19)
(0.742902 0.500563 7.72463e-19)
(0.943134 0.426287 -8.38366e-19)
(1.019 0.0144362 8.73153e-19)
(1.01744 0.0135143 -8.81637e-19)
(1.01616 0.0142583 0)
(1.03629 -0.00506545 0)
(1.02999 -0.00799076 -8.28861e-19)
(1.02818 -0.0107904 8.20372e-19)
(1.02492 0.0101421 0)
(1.02316 0.0141126 0)
(1.01246 0.00450649 0)
(1.01452 0.00906952 0)
(1.01591 0.00380584 0)
(1.01515 0.00261984 0)
(0.0615654 1.3504 0)
(0.0605759 1.31477 0)
(0.144383 1.39203 -1.24219e-20)
(0.262587 1.47349 4.00722e-20)
(0.155946 1.44479 8.43469e-20)
(0.177676 1.45117 -1.38888e-19)
(0.145996 1.39928 0)
(0.123325 1.57591 -1.76438e-19)
(0.126043 1.56777 0)
(0.352263 2.0334 -1.37593e-19)
(0.342269 2.34896 7.27673e-19)
(0.178773 1.44682 1.53809e-19)
(0.264177 1.37281 -9.52576e-21)
(0.193688 1.37303 7.78399e-21)
(0.280247 1.30789 -1.77691e-19)
(0.255549 1.57521 0)
(0.252743 1.62433 1.65957e-19)
(0.0246389 2.28128 -4.79833e-20)
(0.036619 2.68306 0)
(0.0650707 2.42134 1.78875e-19)
(0.0579526 2.44128 0)
(0.0682336 2.69842 -2.57409e-19)
(0.042915 2.71547 0)
(0.0238302 1.41971 -3.80627e-20)
(0.0367842 1.47486 0)
(0.0351589 1.38542 0)
(0.0259458 1.38875 4.31604e-20)
(-0.00408975 2.66772 -7.8125e-21)
(0.0239468 2.707 3.01438e-19)
(0.00609683 2.73624 1.98401e-21)
(-0.00877662 1.84163 5.65893e-20)
(-0.013759 1.68688 2.2979e-20)
(0.00202201 1.30586 0)
(-0.00549348 1.23164 0)
(0.0371691 1.56656 9.10951e-20)
(0.0333666 1.44894 7.11182e-20)
(0.032581 1.51829 -9.41336e-20)
(0.0400855 1.59359 0)
(-0.048332 2.28851 -9.16995e-20)
(-0.0567428 2.55195 3.88227e-20)
(-0.0283571 2.46086 -1.96958e-20)
(-0.0258632 1.8594 -6.85543e-20)
(-0.0390737 2.51169 -2.29386e-20)
(-0.0330319 2.45336 1.15199e-19)
(1.01908 0.0205226 -8.7861e-19)
(1.01535 0.0262101 8.81036e-19)
(1.01435 0.0157817 0)
(1.01237 0.0651248 1.20853e-18)
(0.993093 0.0524802 -1.38402e-18)
(0.956426 0.0478034 1.54557e-18)
(1.01283 0.106496 -1.65164e-19)
(1.04295 -0.00530744 0)
(1.0508 -0.00133344 7.99395e-19)
(1.03927 -0.00865185 -7.97492e-19)
(1.0711 0.0391436 -4.76813e-20)
(1.06345 0.0259322 4.10264e-19)
(1.06452 0.0604131 0)
(1.05262 0.0507008 -1.47257e-19)
(1.03241 0.0411771 0)
(1.02561 0.0372645 0)
(1.02779 0.0126738 0)
(1.0243 0.0153662 0)
(1.04048 0.0309942 3.02348e-19)
(1.03949 0.0266292 -6.67225e-19)
(1.05183 0.0356281 -3.21268e-19)
(1.04728 0.0359076 -3.53513e-19)
(1.07378 0.0630663 6.85444e-19)
(1.09696 0.0503604 0)
(1.10252 0.087657 0)
(-0.0588244 2.28236 -5.68174e-20)
(-0.0162819 2.11883 -1.02249e-20)
(-0.0101816 2.08657 0)
(-0.0545388 2.45927 5.71632e-20)
(-0.0425983 2.43923 2.05949e-20)
(-0.0708432 2.45661 -2.20813e-20)
(-0.0332376 2.62477 8.52427e-20)
(-0.0481438 2.56625 -6.52707e-21)
(-0.0367505 2.5265 2.52333e-20)
(-0.0316268 2.61473 -4.36982e-20)
(-0.0339516 2.61728 5.37706e-20)
(0.043971 1.55436 2.61296e-22)
(0.0118611 1.70467 7.9349e-20)
(0.367802 1.42416 -5.12836e-20)
(0.3634 1.35661 1.06148e-19)
(0.629541 1.43022 -1.49755e-19)
(0.507815 1.4994 -1.05879e-19)
(0.552061 1.46526 0)
(0.604201 2.43764 2.248e-19)
(0.666427 2.43157 3.60412e-19)
(0.418175 2.53032 8.29638e-20)
(0.400584 2.55258 -7.5432e-19)
(0.500712 2.4949 6.45959e-19)
(0.557232 2.4815 0)
(0.487606 2.53743 -5.97109e-19)
(0.26186 2.60206 1.2923e-18)
(0.367678 2.5717 -6.03378e-20)
(0.287686 2.66237 -1.76611e-18)
(0.962619 2.39336 7.99965e-19)
(0.845309 2.39383 0)
(1.0113 0.00115421 2.87322e-20)
(1.01519 -0.00540472 -2.34473e-20)
(1.01764 -0.00416577 -4.2895e-19)
(1.01543 -0.00129126 4.27602e-19)
(1.01288 0.00158185 0)
(0.621172 1.29166 0)
(0.655267 1.17778 0)
(0.762067 1.09806 0)
(0.641785 1.1391 0)
(1.19541 2.63892 5.08436e-20)
(1.08645 2.38548 0)
(0.823662 2.20199 4.49824e-21)
(0.825517 2.45584 0)
(0.917281 2.54339 -5.16108e-19)
(0.9491 2.49368 3.44998e-19)
(0.812206 0.137064 0)
(0.777055 0.131475 1.79016e-19)
(0.919794 0.143416 1.03949e-18)
(0.843405 0.119658 -3.91336e-19)
(0.811747 0.0797379 -1.1875e-18)
(1.0802 0.223101 -1.01393e-18)
(0.986748 0.282552 -7.39116e-21)
(0.925792 0.321488 9.4905e-19)
(1.02029 0.233766 8.03462e-19)
(0.93704 0.181832 -1.38508e-18)
(0.899518 0.194931 1.72374e-19)
(0.937699 0.288288 -3.67627e-19)
(0.913193 0.19842 0)
(1.0021 0.185517 6.80613e-19)
(1.05444 0.198668 0)
(1.05126 0.20243 0)
(1.11753 0.110106 3.18374e-19)
(1.06588 0.171766 -1.02397e-20)
(1.07286 0.228004 -1.80221e-19)
(1.10773 0.193804 0)
(1.02355 0.0452671 6.80773e-19)
(1.03852 0.0589242 8.51153e-19)
(1.03289 0.0431761 -6.75412e-19)
(1.04105 0.0638092 -5.70684e-19)
(1.01502 0.0692234 -8.5571e-19)
(0.990703 0.154385 0)
(0.99436 0.0992047 0)
(0.965989 0.0620269 -5.47983e-19)
(0.915858 0.0909055 2.16648e-19)
(1.03652 0.104999 7.91259e-19)
(1.07352 0.119983 -9.27929e-19)
(1.06667 0.159784 8.31515e-19)
(1.03697 0.140049 0)
(1.08233 0.10867 0)
(1.05799 0.100047 -3.76919e-19)
(1.04408 0.0987255 -6.45373e-19)
(0.585199 1.10978 1.55022e-19)
(0.623293 1.44225 -6.20678e-20)
(1.14584 2.73661 -3.00001e-19)
(1.19886 3.1174 1.36345e-20)
(1.25444 2.74126 -2.54e-19)
(1.29632 2.71317 7.45031e-20)
(1.27179 2.33366 -3.6816e-20)
(1.18652 3.02286 -1.19712e-19)
(1.20512 2.97937 2.96082e-19)
(1.18126 3.27133 -1.03763e-19)
(1.40126 2.98669 1.28381e-19)
(1.41338 2.92525 0)
(0.544609 0.855843 -5.3607e-20)
(0.23804 1.23057 5.26367e-19)
(0.493272 0.47035 6.49177e-19)
(0.365469 0.232531 7.44621e-19)
(0.546457 0.38831 7.71156e-19)
(0.553866 0.48157 -1.24092e-18)
(0.555181 0.480528 1.01488e-18)
(0.51089 0.416942 -3.91911e-19)
(0.446288 0.35155 8.86881e-19)
(0.770815 0.244272 -3.94607e-19)
(0.734254 0.281489 0)
(0.708968 0.212397 1.05953e-20)
(0.727882 0.517119 4.18207e-19)
(0.688463 0.49099 -1.52156e-18)
(0.649429 0.472104 2.38301e-20)
(0.652173 0.446016 0)
(0.681187 0.73962 4.25354e-19)
(0.79199 0.786466 4.95566e-19)
(0.723897 0.836683 -5.74172e-19)
(0.860525 0.803835 -1.87863e-19)
(0.901961 0.850896 -5.05491e-20)
(0.909355 0.857777 5.18419e-20)
(0.850191 0.666431 -7.75169e-19)
(0.91922 0.717569 1.74749e-19)
(0.97296 0.723081 0)
(0.969753 0.700062 -2.32511e-19)
(1.02644 0.312505 2.56851e-19)
(1.14035 0.315182 3.40748e-19)
(1.06278 0.26433 4.15116e-19)
(0.985374 0.357756 -5.03013e-19)
(1.0208 0.46597 0)
(1.10753 0.413964 0)
(0.879374 0.394679 8.82332e-21)
(0.845716 0.288637 0)
(0.869457 0.270049 4.49047e-19)
(0.904969 0.318083 1.00769e-20)
(0.941183 0.450762 2.36816e-18)
(0.867487 0.519052 6.00837e-19)
(0.891533 0.467537 -6.4462e-19)
(0.812465 0.44842 6.84551e-19)
(0.801146 0.433244 4.10096e-19)
(0.789225 0.405581 -4.02095e-19)
(1.02786 -0.000829731 7.10428e-19)
(1.02021 0.000114948 0)
(1.0189 0.000977042 4.63302e-19)
(1.02256 -0.00118641 -1.04917e-18)
(1.02243 0.00411686 5.10593e-19)
(1.02024 0.0110337 -1.06843e-18)
(1.02112 0.0107688 0)
(1.02 0.0116071 -2.22386e-19)
(1.01636 0.0074652 5.57284e-19)
(1.01675 0.0106173 -2.8023e-19)
(1.01745 0.0101876 2.05307e-19)
(0.0339307 1.32175 0)
(0.0396832 1.35101 0)
(0.044458 1.32875 0)
(0.0476611 1.28957 0)
(0.0737894 1.3548 1.36903e-19)
(0.0899288 1.33033 -6.37458e-20)
(0.0589541 1.53087 -4.48249e-20)
(0.112785 1.35876 -1.27394e-20)
(0.036099 1.4555 -8.27628e-20)
(0.0386199 1.45047 6.40657e-20)
(0.0647152 1.35591 -3.48202e-20)
(0.0540001 1.35935 -4.01596e-20)
(0.0492028 1.34183 -5.6532e-21)
(0.0416119 1.36322 -9.47535e-21)
(0.107036 2.39312 -1.97194e-19)
(0.0963925 2.43425 0)
(0.154442 2.03987 1.30147e-19)
(0.117215 1.70633 7.28418e-20)
(0.221467 2.03112 -1.07023e-19)
(0.219121 2.43996 0)
(0.248262 2.39758 -7.45775e-19)
(0.298661 2.39312 5.34334e-19)
(0.258171 2.00494 -2.8397e-19)
(0.14426 2.16868 1.87192e-19)
(0.112679 2.27737 0)
(0.0129574 1.86846 -1.27966e-19)
(-0.0127966 2.40686 -1.78524e-19)
(-0.0021886 2.15527 0)
(0.000918028 2.46705 -1.43406e-20)
(0.0154542 2.3129 7.25975e-20)
(0.0166261 1.40502 6.87572e-21)
(-0.000972434 1.38875 -1.17146e-19)
(-0.00273324 1.39111 2.81305e-20)
(0.0142664 1.39378 4.48084e-20)
(0.0206113 1.42402 0)
(0.00231544 1.37128 0)
(0.0112601 1.28384 5.8538e-20)
(0.00515111 1.36349 -1.9982e-20)
(0.000896225 1.35979 0)
(0.0125539 1.28859 3.34507e-20)
(-0.0120351 1.19115 -7.38248e-20)
(1.04153 0.0136092 0)
(1.04821 0.00913198 -7.47262e-20)
(1.03872 0.0220485 -5.38281e-19)
(1.04857 0.0210419 0)
(1.05325 0.0206184 0)
(1.03617 0.0116571 -6.55138e-21)
(1.03046 0.0118893 8.6175e-19)
(1.03199 0.0160103 1.04874e-18)
(1.02587 0.0197751 0)
(1.02248 0.0204456 0)
(1.03544 0.0240932 5.36645e-19)
(1.02535 0.0261279 0)
(1.02416 0.0261547 0)
(-0.0571039 2.0306 0)
(0.000297526 1.6974 -2.24094e-21)
(-0.0301018 1.79166 8.30369e-21)
(0.0164743 1.36109 0)
(-0.0138579 1.57141 4.3974e-20)
(0.0154072 1.48089 -2.9063e-20)
(0.0534948 1.40854 0)
(0.407794 1.66954 0)
(0.355373 1.29716 -1.70085e-19)
(0.284918 1.34387 0)
(0.424663 1.30659 1.32434e-19)
(0.464158 1.45701 0)
(0.4462 1.4007 -3.40446e-20)
(1.03828 2.68624 -1.72562e-20)
(0.978442 2.41393 -1.00501e-18)
(0.936414 2.20207 1.15707e-18)
(0.860259 2.38662 2.59932e-19)
(0.852425 2.50365 0)
(0.919952 2.50135 0)
(0.946472 2.38689 0)
(0.922791 2.3746 -1.01262e-18)
(0.696053 2.47609 -4.48887e-19)
(0.803096 2.45987 -1.13553e-19)
(0.811276 2.43797 8.58391e-20)
(0.702957 2.40554 0)
(0.806724 2.39885 0)
(0.768862 2.41437 -3.89507e-19)
(0.768986 2.48298 0)
(0.600705 1.0743 0)
(0.512752 0.895836 -6.23687e-19)
(0.515137 0.96143 -3.65293e-20)
(0.499361 1.09504 0)
(0.486306 1.00802 9.54951e-19)
(0.758332 0.876245 -1.66761e-19)
(0.773652 1.01099 0)
(0.749317 0.987646 2.44843e-19)
(0.637001 1.02138 0)
(0.631686 0.937752 0)
(1.16336 2.76948 -2.73188e-19)
(1.13823 2.82877 -1.28954e-19)
(0.925649 2.35903 1.41432e-19)
(0.901852 2.33784 -9.6842e-20)
(1.13224 2.74623 0)
(1.08409 2.71471 1.16436e-19)
(1.09953 2.50482 -3.43727e-19)
(0.998737 2.25613 -2.83032e-20)
(0.50062 1.35896 0)
(0.516687 1.09268 -1.36628e-19)
(0.57635 1.17421 0)
(0.853882 0.202013 0)
(0.796841 0.154007 0)
(0.741251 0.139607 0)
(0.863175 0.204705 -7.04736e-19)
(0.790434 0.204159 4.09106e-19)
(0.930037 0.0768251 -4.4847e-19)
(0.945493 0.12354 0)
(0.921237 0.134172 1.92597e-19)
(0.867777 0.0942133 7.70893e-19)
(0.835018 0.0674686 -4.82959e-19)
(1.10246 3.3648 -6.42465e-19)
(1.16729 3.28748 0)
(1.12253 3.45012 -1.51876e-18)
(0.661936 3.59571 1.26104e-18)
(1.03335 3.09089 8.0335e-20)
(0.518318 0.834879 6.22578e-19)
(0.506745 0.802195 0)
(0.383571 0.499698 -1.6185e-19)
(0.463105 0.680941 9.41245e-19)
(0.51993 0.476969 -2.26346e-19)
(0.510008 0.519454 2.55629e-19)
(0.684864 0.550427 5.40417e-19)
(0.710983 0.577116 0)
(0.641171 0.617936 0)
(0.609593 0.565464 0)
(0.982353 0.616322 1.33995e-19)
(0.924176 0.563769 -5.81856e-19)
(0.947634 0.59933 4.39265e-19)
(1.0021 0.517131 -4.45914e-19)
(1.04539 0.494232 0)
(1.05606 0.597822 -1.17708e-19)
(0.84268 0.390767 -9.25828e-19)
(0.838535 0.384803 -1.17673e-18)
(0.80685 0.379684 7.27147e-19)
(0.807986 0.342453 -7.41928e-19)
(0.841341 0.300028 -5.80088e-19)
(0.808065 0.301313 7.12613e-19)
(1.02655 0.00599958 -5.35251e-19)
(1.02622 0.00612257 1.07928e-18)
(1.02959 0.000248966 6.89803e-19)
(1.03356 0.000824351 -8.28311e-19)
(1.03348 0.0105843 0)
(1.02983 0.0107064 -1.34765e-18)
(0.0811415 1.66268 3.18411e-20)
(0.0443322 1.58513 0)
(0.0993644 1.71092 2.19036e-19)
(0.11082 1.68237 -2.00418e-19)
(0.0397867 1.53237 8.41741e-20)
(0.0291216 1.5086 0)
(-0.00474855 1.69447 0)
(-0.00862456 1.49886 -1.93186e-20)
(-0.0130476 1.43188 1.73885e-20)
(-0.0102444 1.56695 -2.52797e-21)
(-0.0211869 1.90237 -3.66062e-20)
(-0.042567 1.95414 1.85749e-20)
(0.491542 1.38074 -3.85867e-19)
(0.494777 1.37848 4.19507e-19)
(0.438502 1.2947 -1.02918e-19)
(0.42649 1.30207 1.44719e-20)
(0.613526 1.29941 0)
(0.544584 1.39021 2.99548e-20)
(0.545731 1.39372 -2.91347e-20)
(0.470948 1.27415 9.81352e-20)
(0.509352 1.238 0)
(0.5761 1.20666 0)
(0.670553 2.43883 6.61441e-19)
(0.662969 2.46233 1.43816e-18)
(0.720711 2.4776 -9.87767e-19)
(0.62256 2.45017 -2.19492e-19)
(0.555932 2.54926 3.1128e-19)
(0.495995 2.51072 -8.03158e-19)
(0.988091 2.39132 -6.5253e-19)
(1.02237 2.411 0)
(0.943489 2.18782 -7.17717e-19)
(1.05433 2.69518 0)
(1.05343 2.67709 0)
(0.618006 2.31782 -1.47446e-20)
(1.12298 3.08387 4.31074e-20)
(1.00638 2.98628 -9.86011e-20)
(0.338068 0.876645 0)
(0.359084 0.786968 -3.27382e-19)
(0.544551 0.71138 -3.42741e-19)
(0.386345 2.16556 0)
(0.413383 2.75315 -5.65124e-20)
(0.424256 2.49327 0)
(0.687089 0.703384 -9.09018e-19)
(0.746786 0.694682 1.28116e-18)
(0.759222 0.658145 -1.27969e-18)
(0.679201 0.662212 -1.15841e-19)
(0.733082 0.618453 -4.8366e-19)
(0.978499 2.77198 -3.26524e-20)
(1.01565 2.77473 -2.74167e-19)
(0.572268 2.24733 4.75281e-19)
(0.616884 1.76279 -3.7498e-19)
(0.714062 1.8798 -5.70745e-19)
(0.982089 2.41392 -1.45013e-19)
(0.979898 2.37075 4.31728e-19)
(0.662081 1.80503 3.77667e-20)
(0.467251 1.32666 2.09433e-19)
)
;

boundaryField
{
    wall-4
    {
        type            noSlip;
    }
    velocity-inlet-5
    {
        type            fixedValue;
        value           uniform (1 0 0);
    }
    velocity-inlet-6
    {
        type            fixedValue;
        value           uniform (0 3 0);
    }
    pressure-outlet-7
    {
        type            zeroGradient;
    }
    wall-8
    {
        type            noSlip;
    }
    frontAndBackPlanes
    {
        type            empty;
    }
}


// ************************************************************************* //
