/*--------------------------------*- C++ -*----------------------------------*\
  =========                 |
  \\      /  F ield         | OpenFOAM: The Open Source CFD Toolbox
   \\    /   O peration     | Website:  https://openfoam.org
    \\  /    A nd           | Version:  6
     \\/     M anipulation  |
\*---------------------------------------------------------------------------*/
FoamFile
{
    version     2.0;
    format      ascii;
    class       volScalarField;
    location    "82";
    object      p;
}
// * * * * * * * * * * * * * * * * * * * * * * * * * * * * * * * * * * * * * //

dimensions      [0 2 -2 0 0 0 0];

internalField   nonuniform List<scalar> 
918
(
0.533853
1.22393
0.00662499
0.53377
-0.0116399
1.19156
-0.506861
0.628112
0.515008
-0.126178
-0.088467
0.517594
1.04847
0.816755
-1.16945
-0.0245736
0.629015
-0.422153
0.513071
-0.0845267
0.644962
0.521679
0.524144
0.514928
0.57713
0.769204
0.925909
-0.00284811
0.0110413
0.00594616
-0.013067
-0.0335509
-0.0304914
1.07468
1.12662
1.14983
0.481457
0.314925
-0.401748
-0.456753
-0.434154
-0.523561
0.628776
0.629978
-0.231351
0.627645
0.626991
0.500675
0.514403
0.51524
0.516358
0.51527
0.516547
0.390512
-0.133391
-0.160664
-0.111035
-0.110252
0.024487
-0.0902845
-0.0913046
-0.0859524
-0.0859738
0.430364
0.512077
0.508753
0.521822
0.530118
1.16411
1.1379
1.16402
1.07419
1.09197
1.02548
0.998522
0.837232
0.860562
0.801019
0.787007
-1.62289
-2.56487
-0.59509
-0.32101
-0.0106237
-0.0260302
-0.0247168
0.625019
0.626983
0.62709
0.629458
1.04117
-0.39385
-0.466015
0.513612
0.51214
0.521207
0.522112
0.517078
0.517076
-0.0823491
-0.0826608
-0.0686712
-0.0821432
-0.080336
0.625912
0.626637
0.514362
0.511803
0.538281
0.561212
0.549762
0.247001
0.587603
0.603554
0.63416
0.779777
0.76635
0.779154
0.901273
0.86984
0.957279
0.978946
0.0140356
-0.00158394
-0.025885
-0.0231873
-0.0239959
0.477188
0.470739
0.498976
0.485088
0.488138
0.220641
0.0711023
0.396813
0.420239
-0.325943
-0.376615
-0.462278
-0.459848
-0.567763
0.6025
0.631321
0.630839
-0.242784
-0.170136
-0.29839
-0.112379
-0.16985
0.491606
0.497872
0.493939
0.509351
0.50351
0.505939
0.518475
0.515658
0.517252
0.443742
0.575969
0.313087
0.282407
-0.282244
-0.178694
-0.262852
-0.102433
-0.100577
0.0345012
0.0647086
0.011673
-0.000488216
-0.0956368
-0.0921095
-0.0947421
-0.0862115
-0.0859392
0.42178
0.408679
0.44164
0.449187
0.498406
0.499922
0.5044
0.502356
0.949504
0.972551
0.978388
0.954427
-3.53719
-6.15916
0.0202168
0.177955
-0.00976657
-0.0111942
-0.000245361
-0.0102867
-0.000959352
-0.00288319
-0.0350917
-0.0347549
-0.027813
-0.029097
0.622061
0.623745
1.01041
1.03639
0.981981
0.954911
0.502975
0.504851
0.50947
0.506356
-0.0847527
-0.0835506
-0.0851913
0.625972
0.625742
0.625546
0.205463
0.116197
0.298904
0.330261
0.619065
0.607972
0.617698
0.693746
0.733963
0.996142
1.01993
1.00419
1.01706
1.06787
1.09083
1.05582
0.455693
0.466656
0.460905
0.501851
0.499647
0.500598
0.497347
0.498118
0.49689
-0.0398462
-0.409967
0.469822
0.470734
0.462867
0.465639
0.689616
0.77353
0.626948
0.629809
0.629988
-0.0601895
-0.107379
0.239323
0.2094
0.360544
0.395373
0.377069
0.92501
0.885318
0.933163
0.908527
0.873011
0.896664
-0.345778
-2.10299
-1.10089
0.575597
0.379728
0.47105
-0.0176714
-0.0347855
-0.0310241
1.02472
1.06366
0.646437
0.837257
0.788778
0.756187
0.782339
0.844828
0.779384
0.812487
0.841499
0.816438
0.551605
0.480501
0.499076
0.848802
0.90449
0.0782205
-0.00150781
-0.0243772
0.0908363
0.166638
0.131817
1.04001
0.957434
1.01994
0.512046
0.513
-0.0190563
-0.0432911
0.517124
0.516836
-0.0231335
-0.0139604
0.486246
-0.936185
0.0787417
0.506676
0.49625
0.513122
-0.105896
0.312287
-0.0917879
0.00327296
-0.0281545
0.508101
0.442753
0.400265
-0.00880572
-0.0339319
-0.0782115
-0.218331
0.509784
0.50814
0.51251
0.513325
0.514105
-0.0292374
-0.0286593
-0.0198299
-0.0704525
-0.0635763
-0.0749169
0.476323
0.496688
-0.197728
0.512806
0.514913
0.514606
0.508842
0.513764
0.512406
-0.0254747
-0.0285961
-0.030727
0.184968
0.327053
0.668797
0.74314
0.618317
0.452309
0.162056
0.606162
0.657664
0.583292
0.71373
0.628745
0.624895
0.145697
0.00182638
0.150204
0.083344
0.503493
0.502947
0.493767
0.490634
0.507961
0.505638
0.510835
0.508087
0.51126
0.5124
-0.0610228
-0.0912933
-0.1092
-0.152265
0.279515
0.54078
0.208179
0.249774
0.151489
-0.0839605
-0.0831367
-0.0871474
-0.0904749
-0.0476968
-0.0473084
-0.00345055
0.00764915
-0.00929092
-0.0351527
-0.0562878
-0.0485983
-0.0580016
0.501022
0.500678
0.506318
0.515414
0.452413
0.456138
0.422347
0.441181
0.427273
0.367028
0.396909
0.373976
-0.0198485
-0.0104515
-0.0116457
-0.035035
-0.0341756
-0.0552167
-0.0475387
-0.0470377
-0.0429635
-0.0473546
-0.0727239
-0.0800633
-0.181956
-0.301673
0.955233
0.897309
0.1332
0.499664
0.505344
0.502505
0.507266
0.51046
0.511085
0.508647
0.505133
0.496742
0.49821
0.494963
0.49613
-0.135418
-0.245932
-0.0769464
-0.153901
0.143435
0.609404
0.334275
0.278808
0.264136
0.491892
0.685731
0.592719
0.646309
0.617922
-0.398041
-0.000484729
-0.332829
0.212478
0.208671
0.695192
0.736349
0.754128
0.711512
0.668046
-0.0268669
0.541963
-0.0816211
-0.0297287
0.162861
0.0437998
0.604789
0.615094
0.621976
0.617915
0.623407
0.621891
0.609652
0.599909
0.620823
0.625482
0.484716
0.21323
0.169475
0.123635
0.615642
0.506973
0.556661
0.475256
0.499145
0.501553
0.500528
0.481131
0.488509
0.484159
0.491421
0.495134
0.502441
0.502626
0.498421
0.500372
-0.0836197
-0.0916599
-0.0787885
-0.132668
-0.137473
-0.180714
-0.0971604
0.0850016
0.0349434
0.222449
0.342752
0.0625459
-0.0613171
-0.0453643
0.00808544
0.174686
0.169603
0.0411156
0.156867
0.109689
0.102115
0.197871
0.218498
-0.0583731
-0.0647438
-0.0652912
-0.0714472
-0.0198551
0.104518
0.0740848
-0.0361396
-0.0426142
-0.0811994
-0.0837238
-0.00771623
-0.047622
-0.0399111
-0.0122706
-0.0631564
-0.0377507
-0.0286202
-0.037123
-0.0371292
-0.0364752
0.495798
0.497281
0.49771
0.507054
0.519032
0.533645
0.500088
0.47371
0.464705
0.467812
0.440805
0.450101
0.445303
0.461199
0.48282
0.491287
0.489387
0.492125
0.474084
0.475819
0.461119
0.465733
0.434773
0.415987
0.405769
-0.0590953
-0.0260959
-0.0398354
-0.0516984
-0.0261692
-0.0354296
-0.0366478
-0.0178839
-0.0373972
-0.0320812
-0.0418205
-0.0474497
-0.0477601
-0.0842802
-0.00261153
-0.184774
-0.233788
-0.286922
0.877112
1.01594
0.806122
0.568211
0.581279
0.826178
0.93607
0.528612
0.753256
0.755642
0.56948
0.860327
0.503631
0.50321
0.501064
0.500231
0.50124
-0.0227535
0.0811774
0.0911393
0.151587
0.267729
0.37289
0.306898
0.193386
0.325947
0.350441
0.606868
0.612281
0.572242
0.593788
0.595506
0.401731
0.482259
0.520606
0.477763
0.551598
0.585549
0.531346
0.574238
0.494487
0.444495
0.435641
0.390867
0.425512
0.406548
0.3809
0.495486
0.472164
0.483027
0.473017
0.495294
0.5199
0.521095
0.542956
0.560396
0.473676
0.419242
0.436298
0.465169
0.421164
0.438747
0.460893
0.181439
0.0836929
0.246259
-0.081234
0.00306733
0.0436259
0.000259967
-0.0408576
0.265853
-0.370548
-0.317324
-0.992065
0.490151
0.824338
0.548169
0.559858
0.622281
0.611633
0.620662
0.622282
0.625044
0.602706
0.611239
0.615321
0.581409
0.602505
0.595245
0.602876
0.488921
0.389126
0.392586
0.323712
0.184309
0.226388
0.417726
0.348977
0.273924
0.266015
0.443092
0.308244
0.388344
0.436636
0.359919
0.296151
0.521869
0.57174
0.564433
0.536784
0.413891
0.447221
0.448389
0.498558
0.541935
0.566641
0.489954
0.496281
0.497185
0.494442
0.492826
0.495965
0.496264
0.498558
0.498694
0.501289
0.50078
-0.0816851
-0.0677003
-0.0806689
-0.089134
-0.0247846
-0.0372301
-0.0119663
-0.0446288
-0.0396474
-0.0370221
-0.0533726
-0.0678854
-0.0653262
-0.0550631
0.0544917
0.0640514
0.0811489
0.0371239
0.258466
0.384077
0.477911
0.34628
0.193853
0.209589
0.27336
0.016981
0.00690297
-0.00849383
0.0645169
0.0509274
-0.0699933
-0.0744512
-0.0690485
-0.0567915
-0.0508308
-0.0714579
-0.0758773
-0.0652999
-0.0720388
-0.078705
-0.0812594
0.475366
0.46827
0.471894
0.464287
0.462453
0.479432
0.484118
0.485102
0.490665
0.493272
0.482756
0.488533
0.492733
-0.0385367
-0.0553479
-0.0552395
-0.0585477
-0.0549644
-0.0525554
-0.0562139
0.119589
0.0249346
0.061438
-0.00970582
-0.136734
-0.0776291
0.495041
0.488664
0.476044
0.714757
0.549988
0.469157
0.568676
0.6897
0.268112
0.467674
0.302774
0.881677
0.788284
0.934013
0.547544
0.247825
0.419424
0.427506
0.268473
0.393067
0.332019
0.207923
0.243365
0.278995
0.362928
0.248134
0.227503
-0.0154179
0.166763
0.275882
0.257959
0.384203
0.440599
0.258541
0.173989
0.119926
0.585588
0.60308
0.612367
0.582835
0.605381
0.562803
0.553587
0.571495
0.58019
0.574448
-0.626277
-0.214726
-1.41449
-0.831225
-0.379429
0.517625
0.521722
0.740416
0.641367
0.647575
0.62981
0.578899
0.554068
0.593899
0.605105
0.313032
0.397441
0.385366
0.36022
0.306436
0.249162
0.520305
0.530239
0.552457
0.580943
0.556645
0.585178
0.488744
0.488598
0.487232
0.48347
0.481957
0.485294
0.0101587
-0.0138876
0.0182807
0.00510618
-0.0109944
-0.0142418
-0.0461447
-0.0577675
-0.0586768
-0.0547658
-0.0436749
-0.0420324
0.166699
0.10429
0.0147662
0.0566474
-0.0102512
-0.0930892
-0.0954529
-0.00392163
0.0969714
0.0784352
0.383052
0.651996
0.476738
0.643209
0.441257
0.539854
0.458205
0.431286
0.458676
0.364334
0.455118
0.0528654
-0.149796
-0.204639
0.812449
0.774848
0.553381
0.312734
0.192033
0.481574
0.502196
0.463078
0.489316
0.538618
0.522648
0.021884
0.106875
0.197954
0.502495
0.275152
0.294249
0.283992
0.451664
0.419573
)
;

boundaryField
{
    wall-4
    {
        type            zeroGradient;
    }
    velocity-inlet-5
    {
        type            zeroGradient;
    }
    velocity-inlet-6
    {
        type            zeroGradient;
    }
    pressure-outlet-7
    {
        type            fixedValue;
        value           uniform 0;
    }
    wall-8
    {
        type            zeroGradient;
    }
    frontAndBackPlanes
    {
        type            empty;
    }
}


// ************************************************************************* //
