/*--------------------------------*- C++ -*----------------------------------*\
  =========                 |
  \\      /  F ield         | OpenFOAM: The Open Source CFD Toolbox
   \\    /   O peration     | Website:  https://openfoam.org
    \\  /    A nd           | Version:  6
     \\/     M anipulation  |
\*---------------------------------------------------------------------------*/
FoamFile
{
    version     2.0;
    format      ascii;
    class       surfaceScalarField;
    location    "82";
    object      phi;
}
// * * * * * * * * * * * * * * * * * * * * * * * * * * * * * * * * * * * * * //

dimensions      [0 3 -1 0 0 0 0];

internalField   nonuniform List<scalar> 
1300
(
3.75095
5.62643
-3.32926
3.75095
-7.75483
5.62643
-4.28277
4.28277
-0.374516
0.374516
1.8765
1.87446
-2.43029
2.43029
-1.71228
1.71228
-2.52598
2.52598
-5.24817
5.24817
-5.06951
5.06951
4.69614
-4.69614
-6.33832
6.33832
-0.961331
0.961331
-3.57934
3.57934
3.1724
-3.1724
-1.8265
1.8265
0.105681
-0.105681
-0.554079
4.30503
3.19687
3.19687
-1.98944
1.98944
-4.87526
4.87526
6.2225
-6.2225
5.23728
-5.23728
-1.90802
-2.51434
1.79411
-11.4637
-5.96071
-5.96071
-8.44098
8.44098
-2.81455
2.81188
2.94734
-2.94734
-1.72055
1.72055
-4.30116
0.0183896
-4.30116
4.25206
0.0307128
4.25206
-0.493269
0.118753
-0.493269
3.96067
-3.96067
0.273768
0.100749
0.273768
3.06733
-3.06733
-1.87685
3.75335
1.8741
-1.8721
6.17713
-1.87885
3.75331
-6.0742
6.0742
-2.679
0.248713
-2.679
2.19513
0.235157
2.19513
-6.89473
6.89473
-1.76983
0.0575506
-1.76983
1.71243
-0.0001557
1.71243
2.88863
-2.88863
-2.62471
0.0987208
-2.62471
2.38822
0.137763
2.38822
0.353304
5.27313
-5.97973
8.79162
-5.27313
0.024954
5.21037
0.0378068
5.21037
-5.10527
0.035753
-5.10527
5.01333
0.0561796
5.01333
4.78396
-0.0878177
4.78396
-4.8166
0.120459
-4.8166
-3.35832
-4.08025
-6.49975
0.161437
-6.49975
-1.03393
0.0725984
-1.03393
0.85379
0.107541
0.85379
-3.72434
3.72434
-3.9375
0.358165
-3.9375
3.12737
0.0450345
3.12737
1.86812
1.88284
5.61907
-5.61907
2.44667
-1.74239
-0.0841139
-1.74239
-1.91886
-3.31842
1.91886
-0.0923603
-0.117433
0.223115
-0.117433
3.15713
0.0397433
3.15713
2.23714
0.15108
-2.23714
0.247697
3.3033
-3.3033
1.32453
0.664916
1.32453
-5.55832
5.55832
4.96198
0.0513587
-4.96198
0.0867153
6.15695
0.0655498
6.15695
-6.20776
-0.0147397
-6.20776
2.48405
-4.99839
-2.67224
6.14976
0.188552
-6.14976
0.189049
2.91896
0.0283773
2.91896
-2.91845
2.91845
-2.9843
0.0369611
-2.9843
-2.14272
0.422171
-2.14272
1.40685
0.313701
1.40685
-4.21793
-0.0832358
-4.21793
-4.0964
0.158897
4.0964
0.155659
1.12014
-1.12014
-0.607221
0.113951
-0.607221
-4.06627
-0.15165
4.06628
-0.105601
-3.89934
-0.0613346
-3.89934
-3.02196
0.0376633
3.02196
0.0453664
3.11213
0.045002
-3.11213
0.0447998
-1.87099
3.75383
-1.87996
3.75406
-5.69379
-0.380408
-5.69379
6.36253
-0.288332
6.36253
3.10262
0.47672
-3.10262
0.423618
2.01239
0.182739
2.01239
-6.86708
-0.0276527
-6.86708
6.90182
-0.00708735
6.90182
1.87225
0.140144
-1.87225
0.102421
1.70539
0.00704351
1.70539
2.91649
-0.0278563
2.91649
-2.88221
-0.00642262
-2.88221
2.7896
-2.7896
2.71289
0.0767153
-2.71289
0.0881807
-11.124
11.1092
-0.0363679
-11.0876
5.174
5.174
4.23686
0.547101
4.23686
-5.01352
0.196922
-5.01352
2.66768
-5.33992
3.11805
-6.47637
4.67212
-16.1359
4.28456
-8.36482
6.75134
-6.75134
6.63278
0.118561
-6.63278
0.133031
-1.13923
0.1053
-1.13923
-3.12958
-0.594763
-3.12958
4.36839
-0.644057
4.36839
-3.02744
3.02744
-3.07629
0.0488448
3.07629
0.0510821
1.7049
0.000488341
-1.7049
-0.0374887
0.17542
0.0983474
-0.17542
0.0579871
3.52674
-0.223435
3.52674
-3.0981
-0.205204
-3.0981
-1.23242
0.0931893
1.23242
0.0921093
-5.80758
0.249257
-5.80758
-11.1817
0.0940692
-11.1439
-6.11369
-6.11369
2.32729
11.1189
-2.89742
0.0152058
2.89742
0.0215456
2.97468
0.0527569
-2.97468
0.0562307
-2.85715
0.0675453
2.85715
0.0613076
-2.51021
0.367483
-2.51021
-1.02376
1.02376
-1.1702
0.146443
1.1702
0.23665
1.42196
-0.301825
1.42196
0.737097
0.116693
-0.737097
0.129876
-3.84256
-0.0567764
-3.84256
6.59718
-0.234645
6.59718
-2.96864
-0.129452
2.96864
-0.0521564
-0.0349769
11.1442
-5.13902
0.0337537
5.13902
-11.2098
11.2435
-3.21503
0.704822
3.21503
1.02183
5.28333
0.274985
-5.28333
0.269814
6.84227
0.0595448
-6.84227
0.0909276
-2.63865
-0.490922
-2.63865
-5.09924
-0.594557
5.09924
-0.730844
-11.482
-0.20282
11.6848
-11.4258
6.0104
0.146552
-6.0104
11.3901
-0.995504
-0.124634
0.995504
0.0282546
1.76159
-0.339626
1.76159
3.74564
-0.2189
-3.74564
-0.0969263
-6.75766
-0.109417
6.75766
-0.16048
-2.19001
-0.448642
2.19001
-0.428423
-4.26739
4.30714
1.90974
-2.3223
-2.67609
-5.64072
1.85528
1.89854
4.30195
-10.1435
-5.99234
-9.95447
7.21438
-6.94457
-9.31972
9.2319
7.94591
-8.00724
-5.7773
5.82838
6.48477
-6.43941
1.87947
1.87388
8.06955
-7.82084
-15.6684
15.2879
7.62945
-7.5719
15.822
-15.8496
-17.8595
17.919
-5.7052
5.80392
-6.74312
6.73669
-6.9803
6.92815
-2.79453
-3.68184
13.1137
-12.9522
8.61416
-8.69828
-8.68324
9.04141
3.38462
0.922518
3.42962
-1.88178
3.76125
-1.87153
3.78127
2.77261
-5.56715
2.56731
-5.2434
4.39359
4.22058
-4.30122
-1.33949
-5.92889
5.95726
-5.80906
5.87036
9.19014
-9.17175
-1.88498
3.75886
-1.86908
3.76762
-3.4229
-2.3544
3.37786
0.924088
8.06105
5.05263
-8.2496
-1.70487
-8.03186
7.81296
-8.21836
8.01316
-0.436001
5.83856
-5.40256
4.43926
-1.65325
7.49181
5.56113
5.75806
5.86068
-5.5857
1.08388
-6.48644
-6.39973
-2.23232
2.34627
2.11181
-2.01106
6.15589
1.79002
6.05029
-5.81326
-2.19398
-5.87004
3.8197
2.00869
3.86854
4.08222
2.40256
4.11988
3.02951
-3.03681
0.00730173
-3.05936
6.08886
0.722051
-5.41376
-4.48967
4.99222
3.07733
5.22738
-5.59916
-2.22169
-5.17554
-9.5749
-6.09345
-10.1695
10.0896
5.1983
9.80131
-11.9426
11.7821
4.87725
2.7522
4.87709
-4.9822
-2.58969
-4.87978
11.6821
-2.65204
-9.03008
-10.3269
-7.53261
10.334
5.488
10.969
6.95008
11.0599
4.4249
7.25723
-9.9129
2.38028
-3.86658
-1.83862
-3.7784
3.66104
2.14288
3.79881
-4.21898
-2.52414
-4.20377
-4.29529
-2.68501
4.32315
2.41355
-4.41767
-3.8007
4.54712
2.38103
4.05851
-10.0508
4.30631
-7.98815
-9.19866
-3.75358
-9.06563
3.57454
2.59545
-6.17
-1.9926
8.57549
-4.35491
7.236
-5.20282
-3.49546
-5.24031
-6.97284
-1.7104
-6.81394
-8.91821
8.42729
-9.1949
8.55084
12.4985
-5.63121
-6.86725
-3.96703
-2.47237
3.92223
-0.492612
-3.71004
3.71734
0.0512131
3.83248
4.755
4.26239
-3.88229
-1.92676
-3.82606
3.82098
2.04938
3.88852
6.85764
2.3325
6.88835
-6.62375
-2.54801
-6.70698
9.09158
-8.66941
2.79742
-2.70423
5.37933
2.63383
-5.15589
-2.87597
6.23575
-3.21093
-3.02482
-12.3494
10.7884
1.56108
-4.85763
-0.418376
-0.524057
-5.56646
-3.75326
5.446
0.312052
11.1004
7.34716
-5.51453
5.76379
6.17028
6.22163
-0.178091
5.88294
-5.17812
5.27036
-2.73543
-2.53493
5.48501
-5.63666
-1.22197
-5.5615
4.33952
0.41363
1.46721
-1.24409
-1.74971
-0.482608
-1.61983
1.14121
0.970606
1.23955
0.960692
1.38558
-2.92393
0.506734
2.4172
-1.96324
-1.50433
-3.8227
-1.15192
4.97462
5.73813
2.07483
-5.6412
-0.228838
2.54769
-2.44015
-0.840572
-2.98213
2.22644
-3.06701
-3.4638
-1.95068
5.41449
-3.36873
-0.45733
3.31598
0.552565
-3.82823
-2.10066
3.79127
0.32861
-3.12903
6.19033
-3.06129
-5.0558
2.52898
3.55988
4.53767
-4.78991
2.44927
2.34065
-1.23003
4.25876
0.968618
4.4415
-7.07826
4.85658
5.74137
3.30004
-6.21809
1.04256
-6.03571
8.54043
-7.39978
-1.14066
4.07109
4.46934
7.01527
5.48319
-5.70744
12.7227
-1.16086
-6.23892
7.19657
-3.89653
4.87093
-8.76746
-10.3541
4.1152
-9.20978
11.0884
-1.8786
-3.59594
-8.34666
12.8057
-1.22
-11.5857
8.58131
-4.35141
-4.42138
8.77279
-7.00345
7.01108
-1.98583
-5.02524
-10.1469
-5.70277
10.2563
1.52584
-9.9684
12.3487
-2.71117
4.16131
0.715779
4.16836
3.36176
-5.48039
2.11863
3.64169
-5.62753
2.04346
-7.52385
-6.75544
12.0958
-5.34034
-10.509
-9.54355
-0.965466
2.54897
9.79971
-9.49904
7.43072
2.06832
3.29723
0.591293
-3.37395
-0.40445
0.23321
4.51009
-4.7433
4.03202
4.1831
3.21794
1.29215
3.84956
2.1077
-3.87111
-0.332663
-4.16874
1.48373
-1.7552
-3.69385
5.17758
-4.06176
0.367917
-2.74333
-3.49211
6.23544
-4.58195
3.03597
3.15436
5.08535
-4.91354
1.42143
-2.39058
-2.52296
2.64033
-4.39553
2.00126
3.17632
4.38229
0.581588
5.91459
6.18119
-8.51004
0.521895
11.2338
-9.52895
2.47907
8.58083
-9.90979
0.366238
-8.69939
0.975985
-5.3309
-5.19401
5.22798
-6.93838
-3.53948
6.25538
0.63297
-6.41104
-0.402902
-6.06164
-2.85657
-6.51028
-3.03669
-6.15821
-8.74413
-1.67432
-7.06981
6.75297
-6.70839
-3.46107
7.43923
1.11161
-7.47371
7.34907
-7.53133
7.19171
0.0950557
3.62229
4.35745
1.88507
-2.39225
4.27732
-5.07843
7.41093
-8.75977
3.68134
4.25059
-6.7986
-4.50918
5.05288
4.0387
5.36658
8.91172
-10.3596
1.44793
-10.6319
11.9732
-1.34127
-16.4061
5.77414
-7.49434
2.40785
0.389575
2.51315
0.54852
2.4906
-3.03912
-2.15572
-2.06361
-2.44454
-3.49397
5.93851
1.05529
-3.47598
2.42069
-3.56201
4.61729
-0.0786301
-3.39735
5.17652
-2.68592
5.5661
-3.64064
1.92546
3.54982
5.84189
-2.29206
4.41965
-1.78582
1.95028
-4.24235
-1.54368
-2.95364
5.09651
-3.2818
3.64972
-0.353215
4.00293
-4.04455
0.833617
-0.826603
3.35649
3.60419
4.33192
-3.03978
2.93525
-4.72106
-1.3071
-4.13948
-0.963156
-0.180472
-3.777
3.95747
5.99492
-6.1754
-5.27699
9.51614
-4.23914
7.69598
-5.43463
-2.26135
-4.28546
-4.38395
3.91798
1.96497
9.66094
0.178785
-5.61342
-4.99934
-3.97751
3.08352
2.18684
-1.71581
3.27689
2.23987
-0.772661
0.397785
0.84177
1.75871
-1.36092
0.344336
1.41437
-0.899757
1.68096
0.866725
-1.79766
0.177822
-1.33683
3.56327
1.08036
-2.05097
0.690047
0.889751
-3.62518
5.10557
-2.73936
-2.36622
5.99532
1.14609
-3.88545
4.41541
-4.00178
2.45302
-3.60495
-1.43242
-5.4342
-3.64418
-2.48066
4.90135
-3.45785
5.53268
1.43754
-5.30384
6.74139
-3.62695
1.67627
-3.0614
3.92813
-0.990341
-2.07106
2.87287
2.54162
-3.14224
0.160107
-0.269366
2.416
-2.68537
-0.651009
-2.61425
-4.57619
4.9048
-2.10369
4.55295
2.17363
-1.91776
6.47071
1.80755
-3.7253
-3.24825
-3.70558
-1.38466
3.15302
-0.570071
-4.30971
-5.59531
4.16957
0.27193
-7.06698
7.93884
-0.871861
-3.98964
-0.866936
4.93803
-6.09238
0.464852
-4.04892
3.88991
4.85853
5.13046
-11.348
-0.237764
-6.14965
1.1047
-7.25435
5.57404
-3.5129
7.62811
-10.3214
6.86035
-9.20981
6.48745
-0.766899
6.24939
-4.13076
2.78069
-8.48345
-6.95762
5.59127
-2.83907
6.30705
-3.22255
9.5296
-5.93372
5.37834
4.15126
-1.06354
-4.17677
-5.37041
4.30687
0.00792645
4.17628
4.98721
-2.87952
4.65455
2.26511
-4.65569
-2.13041
-6.48841
1.83272
-3.33405
-1.92251
3.75523
3.16284
3.75414
1.23226
-3.34969
7.25404
-8.2195
-1.9137
-3.28031
5.35437
-1.04749
3.47199
-6.7523
-1.85891
4.73891
-0.722615
-4.01629
0.892306
-4.43179
1.67395
-6.10574
5.26443
-5.66733
2.2547
-9.74904
-5.21901
-5.19075
-2.2781
-5.25324
-7.56815
5.29005
-1.79401
5.55506
-8.50315
7.78053
-3.47005
8.7601
-5.457
-1.05328
5.88542
1.30629
10.0664
0.168217
-4.67739
-1.94237
3.72131
-1.77893
1.14114
-3.60878
0.112524
2.49584
3.49949
-6.83536
0.0367648
-4.64063
-3.9072
7.9459
5.60894
11.6039
1.24422
9.1305
-1.1846
10.3747
4.18198
4.41863
-3.00239
4.45031
0.955086
4.63643
-0.897179
2.82264
1.61597
1.68857
0.751579
2.29023
1.31396
3.12384
0.0847259
-1.97888
4.63044
-8.60794
-0.982981
-8.06084
1.17106
5.431
-4.25994
2.85586
-0.669017
1.07693
-0.201351
-1.14197
1.34332
-2.73628
-1.91463
-0.500263
-1.66633
2.35638
1.89694
-1.85612
-0.880162
0.328084
-3.97227
3.27686
-3.11676
-0.57514
6.16625
-2.88771
0.202342
-1.21144
-2.41191
-2.89451
2.71669
6.17432
0.296392
3.11303
5.20119
3.10054
0.221022
3.80736
-5.68595
-3.71649
-5.92372
-0.34968
4.58835
1.76882
8.03089
5.92009
4.87259
-1.87971
-10.0992
6.5023
-2.05199
5.16103
-1.14474
-4.961
5.07726
2.33366
-5.71023
0.0428992
-4.9181
-6.97009
-0.478716
8.25925
-9.58767
8.53438
5.67782
1.392
-4.43218
-0.758572
4.28574
0.132892
10.5076
-0.914389
-7.03841
7.9528
-4.51661
3.53363
0.673031
2.60386
2.01636
1.34734
-5.69107
-9.95102
-2.07267
-1.55252
-4.43888
0.53574
-2.43268
6.06602
-2.53238
3.80467
5.42042
6.49735
-2.04736
-4.12803
6.28651
-2.48184
4.01551
)
;

boundaryField
{
    wall-4
    {
        type            calculated;
        value           uniform 0;
    }
    velocity-inlet-5
    {
        type            calculated;
        value           uniform -3.75095;
    }
    velocity-inlet-6
    {
        type            calculated;
        value           uniform -5.62643;
    }
    pressure-outlet-7
    {
        type            calculated;
        value           nonuniform List<scalar> 8(3.32926 7.75483 4.42236 9.66962 7.43858 5.15629 5.78573 8.95669);
    }
    wall-8
    {
        type            calculated;
        value           uniform 0;
    }
    frontAndBackPlanes
    {
        type            empty;
        value           nonuniform 0();
    }
}


// ************************************************************************* //
