/*--------------------------------*- C++ -*----------------------------------*\
  =========                 |
  \\      /  F ield         | OpenFOAM: The Open Source CFD Toolbox
   \\    /   O peration     | Website:  https://openfoam.org
    \\  /    A nd           | Version:  6
     \\/     M anipulation  |
\*---------------------------------------------------------------------------*/
FoamFile
{
    version     2.0;
    format      ascii;
    class       volVectorField;
    location    "82";
    object      U;
}
// * * * * * * * * * * * * * * * * * * * * * * * * * * * * * * * * * * * * * //

dimensions      [0 1 -1 0 0 0 0];

internalField   nonuniform List<vector> 
918
(
(0.985049 -0.000715673 0)
(0.005379 2.96622 0)
(-0.00363093 0.879081 0)
(0.979575 0.00196168 0)
(-0.0140187 2.06346 3.31807e-20)
(-0.0071181 2.94857 -2.55315e-18)
(0.820922 1.12267 4.47929e-19)
(0.111046 0.0794725 -1.402e-20)
(0.999922 -0.000244858 0)
(0.0914317 0.667652 0)
(0.0157421 0.362053 0)
(0.733099 0.00572116 0)
(0.0101574 2.93174 0)
(0.00345533 2.79445 0)
(-0.00247714 3.1775 8.28169e-19)
(-0.0137468 1.92871 2.37724e-20)
(0.295908 0.0447056 9.81603e-19)
(0.233826 1.10966 3.56346e-19)
(0.964328 0.00674332 0)
(-0.00322281 0.367429 0)
(0.0534062 -0.0548477 -6.42423e-19)
(1.00183 -0.00455936 0)
(0.999851 -0.00892572 0)
(0.975169 -0.00605161 0)
(0.592492 0.0270617 0)
(0.0206044 2.64496 0)
(-0.0122392 2.91184 9.32688e-19)
(-0.00739483 0.930513 0)
(-0.0340405 1.17147 0)
(-0.00515638 0.89995 0)
(-0.0236082 2.58617 0)
(-0.00492274 2.11398 -2.65023e-20)
(-0.0100364 1.90033 0)
(-0.0220927 2.98762 -9.19674e-23)
(-0.0164668 3.00548 1.98329e-18)
(0.00230173 3.00056 0)
(0.871987 -0.00976144 0)
(0.374059 0.912221 1.64485e-19)
(0.819674 1.1415 -5.60772e-19)
(0.951831 1.00834 5.71603e-19)
(0.682176 1.22439 -1.02544e-19)
(0.695693 1.18414 5.84616e-19)
(0.13874 0.129498 1.36754e-20)
(0.148096 0.0860707 0)
(1.16866 0.533241 0)
(0.106625 0.106569 6.15768e-20)
(0.0849429 0.0618016 -6.39062e-20)
(0.920569 -0.00704712 0)
(1.00027 5.47566e-05 0)
(0.999907 0.000321151 0)
(1.0037 -0.00727941 0)
(1.00088 -0.000948267 0)
(1.00011 -5.16827e-06 0)
(0.0907455 1.84536 -7.3974e-19)
(0.033522 0.850524 0)
(0.127345 0.758723 0)
(0.0191877 0.792902 0)
(0.0529369 0.582241 0)
(0.00516868 2.03352 0)
(-0.0106586 0.69384 0)
(0.0100249 0.394941 0)
(-0.0161262 0.690908 0)
(0.00685628 0.358287 0)
(0.843775 -0.0156307 0)
(0.841467 0.0264122 0)
(0.75715 0.00382513 0)
(0.799035 0.0300107 0)
(0.702298 0.0159875 0)
(0.0138888 3.00024 9.47305e-19)
(0.0110827 3.00608 0)
(0.00614779 3.0038 0)
(0.0118665 2.9972 1.07482e-23)
(0.00818713 2.95881 -1.40793e-18)
(0.0122201 2.98302 0)
(0.00911188 2.90484 0)
(0.0210025 2.93171 2.17692e-24)
(0.00403554 2.82407 0)
(0.0255396 2.91889 0)
(-0.00104074 2.74499 0)
(0.304841 3.57137 0)
(-0.122139 3.65406 0)
(0.148677 3.26806 -7.70754e-19)
(0.00295334 3.00625 0)
(-0.0320483 1.99056 0)
(-0.00747639 2.17885 -2.34461e-20)
(-0.00963575 1.94109 2.39842e-20)
(0.346783 0.138535 -3.40932e-19)
(0.322026 0.0139602 -3.31418e-19)
(0.301017 0.153151 -1.01909e-18)
(0.260289 0.062976 -6.61332e-19)
(0.263903 1.02435 0)
(0.333277 1.2408 -3.68128e-19)
(0.415228 1.15197 6.07447e-19)
(0.987704 0.00816806 0)
(0.943218 0.00576695 0)
(1.00028 0.000672364 0)
(1.00254 0.00906671 0)
(1.0031 0.00899713 -2.62686e-18)
(0.992135 0.00941466 1.98497e-18)
(-0.0270467 0.716759 0)
(-0.00207752 0.367502 0)
(-0.055312 1.01598 0)
(-0.0342513 0.778276 0)
(-0.0132295 0.374128 0)
(-0.0787218 0.0822484 1.99752e-19)
(0.033838 0.0457344 0)
(0.993627 -0.0076917 0)
(0.954055 -0.00648485 0)
(0.743352 0.0251424 0)
(0.673664 0.0239135 0)
(0.660532 0.0275543 0)
(0.980655 -0.00252702 0)
(0.583741 0.0669018 0)
(0.452004 -0.0142177 1.4941e-18)
(-0.041079 2.85992 7.28632e-19)
(0.0338595 2.91423 0)
(0.0427027 2.89266 0)
(0.00313027 2.7022 0)
(-0.00883675 2.98662 8.91578e-19)
(-0.0141217 2.89457 0)
(-0.0109301 2.99192 -2.74715e-18)
(-0.0116075 2.92965 9.35109e-19)
(-0.049463 1.34942 0)
(-0.0182751 1.37837 0)
(-0.0079523 2.14018 8.45375e-22)
(-0.00784057 2.09879 0)
(-0.0172188 1.91195 0)
(0.93893 -0.0051853 0)
(0.857357 -0.0111544 0)
(0.862962 0.00522453 0)
(0.949705 -0.00613105 0)
(0.883713 -0.0081002 0)
(0.497307 1.11195 -2.08831e-19)
(0.544673 1.18178 0)
(0.336146 0.846878 3.18889e-20)
(0.280913 0.711554 0)
(0.921112 1.03748 -1.616e-19)
(1.04428 0.848197 3.2589e-19)
(0.39361 1.31948 0)
(0.544478 1.27517 0)
(0.598573 1.20156 0)
(0.104435 0.181623 -2.99223e-19)
(0.168019 0.142426 0)
(0.172092 0.101743 1.83918e-19)
(1.00732 0.902097 0)
(1.08329 0.750173 0)
(1.11297 0.685503 -2.6207e-19)
(1.14946 0.596189 0)
(1.20553 0.391829 4.74968e-20)
(0.957531 -0.00709141 0)
(0.962747 -0.00810553 0)
(0.900941 -0.00737738 0)
(0.983934 -0.00812087 0)
(0.974438 -0.00802848 0)
(0.936556 -0.00656889 0)
(1.0002 0.00250658 0)
(1.00078 0.00123913 0)
(1 0.000760454 0)
(0.043447 2.08768 4.10039e-19)
(0.144859 1.78945 0)
(0.0186301 2.2021 6.28363e-19)
(0.0515317 1.89597 -5.2368e-19)
(0.167666 1.08508 -2.92474e-19)
(0.0505934 0.936369 0)
(0.122479 0.939861 0)
(0.00580324 0.756689 0)
(0.030079 0.507487 0)
(-0.00272282 2.26005 -3.22069e-22)
(0.0208321 2.03917 0)
(-0.00451657 2.26012 -4.87587e-21)
(0.00304343 2.04494 -3.03058e-21)
(-1.04071e-07 0.725826 0)
(-0.00498297 0.705248 0)
(0.013536 0.445403 0)
(-0.0155548 0.69235 0)
(0.0106632 0.355098 0)
(0.939612 0.0139093 0)
(0.856635 -0.0115404 0)
(0.928754 0.00490666 0)
(0.846365 -0.0127813 0)
(0.810332 -0.00122284 0)
(0.898337 0.0221671 0)
(0.874939 0.0239749 0)
(0.783492 -0.000700792 0)
(0.0101762 3.06799 -8.79349e-21)
(0.0151284 3.05872 0)
(0.0124352 2.97021 0)
(0.00767849 2.87673 0)
(0.893915 3.96406 0)
(1.18749 3.36061 9.35005e-19)
(0.0806173 3.08889 0)
(-0.0177779 2.91699 0)
(-0.0185335 1.40548 0)
(-0.0377436 1.70067 0)
(-0.026467 1.53701 0)
(-0.03422 2.54734 -1.51498e-20)
(-0.0199007 2.24534 0)
(-0.0239408 2.38845 0)
(-0.000773415 1.97137 -1.42696e-23)
(-0.00531237 2.25383 -3.0436e-20)
(-0.00643386 2.21683 -2.46041e-20)
(-0.00587134 1.955 0)
(0.38949 0.117663 5.22688e-19)
(0.361218 0.00721495 -5.1272e-19)
(0.23128 1.5904 0)
(0.2889 0.769418 -3.24615e-19)
(0.180402 1.68727 -1.06655e-18)
(0.245592 1.22857 1.06761e-18)
(0.90162 0.0058536 0)
(0.966998 0.0107372 0)
(0.974862 0.00988847 0)
(0.922955 0.00582352 0)
(-0.0198044 0.696065 0)
(-0.0263362 0.706827 0)
(0.00358498 0.353706 0)
(0.0768823 0.0902894 5.64486e-19)
(0.0604126 0.0664182 -6.62566e-19)
(0.0440467 0.0456965 0)
(1.10837 0.0909802 2.37327e-20)
(1.09198 0.0429111 0)
(1.01948 0.0439225 0)
(0.914429 -0.00129022 0)
(0.437711 0.0973667 0)
(0.4955 0.0774803 -2.38998e-18)
(0.399686 0.00218373 8.95596e-19)
(0.0105436 2.97726 7.75007e-19)
(-0.0326027 2.86135 4.69229e-20)
(0.00864195 3.05326 -1.85808e-20)
(0.0158489 3.04333 6.97158e-19)
(-0.0118043 2.99997 3.07867e-20)
(-0.0123518 2.95222 -1.24318e-22)
(-0.015034 3.01326 -5.75936e-19)
(0.0144592 3.02655 4.05209e-19)
(0.00767653 3.03486 -6.57736e-19)
(0.934808 0.0021615 0)
(0.939579 -0.00109723 0)
(0.848257 -0.0111856 0)
(0.956253 0.0118494 0)
(0.942304 0.0132903 0)
(0.881495 0.00548072 0)
(0.915286 0.0186304 0)
(0.925014 0.015296 0)
(0.837132 0.00177435 0)
(0.669925 1.40995 1.64402e-20)
(0.687896 1.52032 0)
(0.117857 0.288956 6.74927e-20)
(0.214328 0.654279 5.32877e-19)
(0.240044 0.6916 -3.1268e-19)
(0.213365 0.491695 6.20817e-19)
(0.341404 0.83428 1.58358e-18)
(0.136208 0.237818 3.80302e-19)
(0.256126 0.166728 7.01455e-19)
(0.209771 0.161954 1.81334e-19)
(0.218248 0.0885306 3.44788e-19)
(1.19645 0.448236 9.84474e-20)
(1.22092 0.246744 9.59564e-20)
(0.00877695 2.24577 2.42515e-19)
(0.0388364 1.95828 0)
(0.973345 0.0332002 0)
(0.94703 0.0193338 0)
(0.871613 -0.0150542 0)
(0.0127307 3.07382 0)
(0.0167214 2.94394 1.2283e-18)
(0.0139106 2.95663 0)
(0.00584475 2.84993 -1.2188e-18)
(0.00957587 3.09017 2.99705e-19)
(0.0111336 3.08397 0)
(0.707225 1.81585 -1.70226e-19)
(1.23173 2.6202 5.75653e-19)
(0.691898 1.9938 -1.39148e-18)
(0.021924 2.97575 -6.7239e-19)
(0.0400624 2.99734 0)
(-0.0386164 2.8778 0)
(-0.00620319 2.23899 -1.32204e-20)
(-0.00498172 2.25946 5.93531e-20)
(-0.000262933 2.00698 -7.37695e-21)
(0.268296 1.40365 1.02947e-18)
(0.288274 0.573651 -7.06563e-19)
(0.0721629 2.00417 7.45663e-19)
(0.12066 1.87758 -8.99523e-19)
(0.206551 1.54015 1.03943e-19)
(0.00675211 3.11957 -1.66794e-18)
(0.0156373 3.11989 1.8159e-18)
(-0.00517873 2.9803 8.34419e-19)
(-0.000864711 2.97499 -8.00577e-19)
(-0.0177592 2.87763 -8.49882e-19)
(0.0124071 3.09958 -2.22419e-18)
(0.00508347 3.10697 2.22757e-18)
(0.268784 0.699972 0)
(0.219772 0.659967 -1.13906e-18)
(0.0747663 0.211924 5.01349e-19)
(0.347407 0.954673 1.12464e-18)
(0.200744 0.282552 -1.73212e-18)
(1.19948 0.176707 4.66134e-20)
(1.21766 0.306222 0)
(1.19493 0.121704 1.08098e-20)
(-0.000767419 2.26708 -1.15401e-21)
(0.0040386 2.25018 0)
(0.0324677 1.99539 0)
(0.312967 1.31894 -3.69115e-19)
(0.354336 1.18086 -8.0093e-19)
(0.234177 0.39408 1.43291e-18)
(1.00644 -0.00967915 0)
(1.00774 -0.00778128 4.82798e-19)
(-0.0436468 1.33181 0)
(-0.0532273 1.33631 0)
(1.00244 0.00327055 1.33759e-21)
(1.0032 0.00780705 9.91211e-19)
(-0.0253345 2.5342 1.91981e-20)
(-0.028227 2.57662 0)
(0.0401863 3.17217 4.74553e-19)
(0.372766 3.53822 0)
(1.16013 0.694985 -4.87915e-20)
(1.01177 0.0106342 -2.85023e-21)
(1.02089 -0.00898877 0)
(1.00157 0.000289427 1.58433e-22)
(0.118012 1.37534 0)
(0.141165 2.58467 0)
(0.0351009 1.32657 0)
(7.76842e-05 2.63392 -8.79417e-21)
(-0.0218864 2.58063 -1.35406e-20)
(0.998037 0.0313752 2.79048e-21)
(1.06307 0.00591555 0)
(1.10024 0.0286096 0)
(-0.0359888 1.74784 0)
(-0.0203507 2.57909 0)
(-0.0171394 1.32445 0)
(0.308875 1.49148 -1.75437e-19)
(1.01152 -0.00905099 0)
(1.00971 -0.0129838 0)
(1.00227 0.000935685 6.18265e-19)
(1.00548 -0.00490909 -7.28905e-19)
(1.00113 -0.000861187 0)
(-0.0251608 1.47175 0)
(-0.0141424 1.39409 0)
(-0.0199225 1.43362 0)
(-0.0199372 1.3103 0)
(-0.0339028 1.30009 0)
(-0.0280633 1.2792 0)
(1.0357 -0.00428135 0)
(1.01889 0.0153926 -9.19252e-22)
(0.813313 1.31317 2.83429e-19)
(1.00245 0.000390834 -6.17973e-19)
(1.00339 0.00444445 7.37625e-19)
(1.00126 0.00209193 0)
(1.01106 0.00963235 6.15526e-19)
(1.00682 0.0074509 -7.492e-19)
(1.00712 0.0111051 0)
(-0.0251823 2.60602 0)
(-0.0283546 2.58488 -3.35404e-20)
(-0.0252156 2.5991 2.3693e-20)
(1.24285 0.274173 5.16058e-19)
(1.16385 0.0893653 0)
(0.0435645 3.09156 -9.48828e-19)
(0.0518385 2.87408 -6.72718e-20)
(0.103098 3.20174 1.26987e-18)
(0.121443 3.21358 -2.69073e-19)
(0.140698 3.25607 0)
(0.0224103 3.13765 2.60824e-19)
(0.0607666 3.16209 9.4518e-19)
(0.0612691 3.17868 -4.87958e-19)
(0.0266322 3.12965 0)
(0.547709 0.289513 0)
(0.493169 0.306043 0)
(1.14269 0.726697 1.07634e-19)
(1.10697 0.862258 -8.86322e-20)
(1.1999 0.612304 0)
(1.22648 0.54624 0)
(1.01569 0.0120311 -1.14338e-18)
(1.01464 0.0127704 1.43758e-18)
(1.02577 -0.0087141 0)
(1.0241 -0.0102851 0)
(1.0068 0.0032619 0)
(1.01088 0.00422028 0)
(1.0042 0.00221895 0)
(1.00934 0.00634383 0)
(1.00683 0.00504001 0)
(1.00437 0.00525712 0)
(0.107679 1.37579 0)
(0.0953443 1.33441 0)
(0.142525 1.42179 0)
(0.146376 1.40535 0)
(0.146985 2.6084 0)
(0.185204 2.67705 -4.06616e-19)
(0.107211 2.66832 0)
(0.083387 2.66555 1.66253e-19)
(0.0259593 2.67263 -1.63773e-19)
(0.0184376 1.33562 0)
(0.0293073 1.2534 0)
(0.0233583 1.34787 0)
(0.0484637 1.2729 0)
(-0.00248518 1.99632 4.23313e-20)
(-0.0216861 2.60888 -4.38395e-20)
(-0.00596101 2.67615 -3.79667e-20)
(-0.0188528 2.68765 0)
(-0.0240759 2.61494 4.09005e-20)
(-0.0226524 2.61045 4.50313e-20)
(0.00407946 1.99297 -3.24105e-20)
(-0.0104195 2.40072 5.88121e-20)
(-0.0148786 2.42574 4.30391e-20)
(1.01146 0.0404338 1.16013e-18)
(1.00448 0.0211809 -1.44316e-18)
(1.00379 0.0473028 -1.18493e-18)
(0.974988 0.0378122 1.49249e-18)
(1.06474 0.00926821 0)
(1.04995 -0.00642894 0)
(1.09278 0.0379334 0)
(1.07589 0.0151093 0)
(1.07469 0.000590805 0)
(1.14152 0.0799189 0)
(1.11586 0.0464944 0)
(1.11922 0.0375352 0)
(-0.0312673 2.43059 3.89073e-21)
(-0.0225822 2.02426 0)
(-0.0225847 2.2201 0)
(-0.0223551 2.59999 -2.15232e-20)
(-0.0188486 2.61115 6.9237e-22)
(-0.00426477 1.5935 -5.89447e-20)
(-0.0139678 1.51568 6.02273e-20)
(-0.0248964 1.40772 0)
(-0.0290996 1.41325 0)
(-0.0358249 1.40363 0)
(-0.0120058 1.32665 0)
(0.00126806 1.24538 0)
(0.386151 1.51608 2.93591e-19)
(0.435093 1.52012 1.54925e-19)
(0.592127 2.46378 -2.48586e-19)
(0.380733 2.55193 7.27789e-19)
(0.34995 2.04878 6.76889e-20)
(1.02072 -0.00798992 0)
(1.0158 -0.00934922 0)
(1.01485 -0.0132076 0)
(1.00774 -0.000549285 0)
(1.00484 -0.000685217 0)
(1.008 -0.0044666 0)
(1.00955 -0.00343108 0)
(1.01465 -0.00427067 0)
(1.01962 0.0163803 1.12217e-18)
(1.01717 0.0149236 -1.42188e-18)
(1.01999 0.018841 -1.13119e-18)
(1.01731 0.0169433 1.41777e-18)
(0.769704 1.35986 0)
(0.708397 1.39582 2.48451e-19)
(0.877624 1.24123 1.04149e-19)
(0.914286 1.20075 -1.38227e-19)
(1.16326 2.60918 2.72202e-19)
(0.750276 0.130434 5.82207e-19)
(1.17218 0.108383 0)
(1.21488 0.202729 -4.19007e-19)
(1.19627 0.154359 -1.7448e-20)
(1.01267 0.166941 0)
(0.0754735 3.01822 3.38959e-19)
(0.0816447 2.90317 -1.11538e-18)
(0.0228684 2.3611 7.06455e-19)
(0.157798 -0.269024 -3.11398e-19)
(0.341018 3.44239 -2.53077e-19)
(0.192295 3.33819 0)
(0.222797 3.39382 3.29662e-19)
(0.220452 3.07583 -1.1844e-18)
(0.252956 3.19408 0)
(0.00602062 3.12267 4.93449e-20)
(0.0167016 3.13126 -5.68457e-19)
(0.0156121 3.12707 8.3666e-19)
(0.0327547 3.14022 0)
(0.0308491 3.1496 0)
(1.25551 2.57235 0)
(0.540348 0.7884 -5.20313e-19)
(1.02725 1.03613 -1.57905e-20)
(0.99363 1.08921 0)
(0.862635 0.971055 -1.04886e-19)
(1.0863 0.911683 2.66395e-20)
(0.304787 0.304214 -7.75572e-19)
(0.637663 0.323059 -2.29064e-20)
(0.518929 0.213851 3.90509e-19)
(0.526202 0.322736 2.78423e-20)
(0.395953 0.270404 -1.11233e-18)
(0.592827 0.322399 0)
(0.683577 0.43549 6.68209e-19)
(0.692001 0.446872 0)
(0.557908 0.326557 0)
(0.458851 0.249186 0)
(0.800948 0.659407 3.88238e-19)
(1.25438 0.308227 -4.19383e-19)
(1.24767 0.440606 0)
(1.24795 0.395799 0)
(0.677873 0.190782 5.95438e-19)
(0.8478 0.561559 -3.66506e-19)
(0.769077 0.525307 6.54807e-19)
(0.966143 0.457267 -6.5736e-19)
(1.01844 0.0147461 7.62188e-19)
(1.01707 0.0136648 -7.68747e-19)
(1.01589 0.0142377 0)
(1.03709 -0.0045044 0)
(1.03049 -0.00768224 -7.20242e-19)
(1.02869 -0.0105712 7.1276e-19)
(1.02475 0.0110358 0)
(1.02269 0.0151486 0)
(1.01271 0.00474858 0)
(1.01457 0.00910324 0)
(1.01642 0.0042643 0)
(1.01557 0.00294458 0)
(0.0784883 1.36313 0)
(0.080833 1.30445 0)
(0.156871 1.42486 6.50946e-20)
(0.27671 1.48772 8.59033e-20)
(0.176279 1.45966 1.93302e-19)
(0.212721 1.45698 -3.12687e-19)
(0.162269 1.43517 0)
(0.144005 1.58374 -8.20302e-20)
(0.140793 1.58087 0)
(0.351811 2.00098 -9.85421e-20)
(0.315922 2.34202 6.05026e-19)
(0.196783 1.46783 7.14797e-20)
(0.275868 1.40243 2.79958e-20)
(0.20564 1.40156 -2.28464e-20)
(0.289949 1.34061 -8.0314e-20)
(0.255671 1.57699 0)
(0.267105 1.6236 9.07761e-20)
(0.0222062 2.25136 -1.11098e-20)
(0.0357275 2.66591 0)
(0.0632084 2.40203 8.69179e-20)
(0.057179 2.42831 0)
(0.065742 2.68445 -1.88116e-19)
(0.0408177 2.70038 0)
(0.0257911 1.4625 6.58155e-20)
(0.03191 1.51787 0)
(0.034984 1.42265 0)
(0.0254939 1.43266 -7.53601e-20)
(0.00356578 2.66073 5.15002e-21)
(0.0261516 2.68783 1.88269e-19)
(0.0109775 2.7319 9.20024e-22)
(0.00281057 1.84914 -2.73957e-20)
(-0.00476091 1.70167 -1.90869e-20)
(0.017938 1.3158 0)
(0.0253945 1.22829 0)
(0.0412851 1.59394 -1.19503e-20)
(0.0429581 1.47375 -6.01329e-20)
(0.0269856 1.55483 6.37313e-20)
(0.0549676 1.61739 0)
(-0.0320326 2.27088 1.31019e-19)
(-0.0353535 2.54809 -5.55899e-20)
(-0.0210914 2.44884 1.00246e-20)
(-0.00532223 1.86479 3.32022e-20)
(-0.0285694 2.50364 1.40597e-20)
(-0.0231123 2.44579 -3.60919e-20)
(1.01824 0.0223804 -7.69146e-19)
(1.01517 0.0286799 7.7194e-19)
(1.0117 0.0181889 0)
(1.0105 0.0710225 1.065e-18)
(0.990372 0.0615565 -1.21222e-18)
(0.949277 0.0563431 1.35698e-18)
(1.01328 0.116069 -1.43835e-19)
(1.04404 -0.0046422 0)
(1.05226 -0.000376793 6.89895e-19)
(1.04034 -0.0081494 -6.89492e-19)
(1.07236 0.0438735 -4.08902e-20)
(1.06504 0.0290671 3.53274e-19)
(1.06416 0.0658266 0)
(1.0544 0.0550615 -1.27263e-19)
(1.03235 0.044054 0)
(1.02613 0.0392479 0)
(1.02762 0.0136927 0)
(1.02402 0.0163473 0)
(1.04045 0.0338502 2.61581e-19)
(1.03921 0.0284632 -5.7909e-19)
(1.05324 0.0388641 -2.76706e-19)
(1.04822 0.0387659 -3.05318e-19)
(1.07791 0.0706145 5.83691e-19)
(1.1019 0.056668 0)
(1.10864 0.0955939 0)
(-0.0299425 2.27703 7.52974e-20)
(-0.0324408 2.02954 4.09686e-21)
(-0.0275758 2.03971 0)
(-0.0312674 2.44409 -7.49632e-20)
(-0.0290406 2.40261 -7.82663e-21)
(-0.0355912 2.4706 9.81487e-21)
(-0.021856 2.62238 -3.83765e-20)
(-0.0274767 2.56456 2.15553e-21)
(-0.0257992 2.51849 -1.29414e-20)
(-0.017772 2.61509 2.45036e-20)
(-0.0216582 2.61755 -2.84541e-20)
(-0.0131183 1.51918 -1.01128e-21)
(-0.00770893 1.64078 -6.09763e-20)
(0.377375 1.45199 -1.26013e-19)
(0.372521 1.38266 1.21189e-20)
(0.64956 1.44354 -2.40378e-19)
(0.524937 1.51305 -1.5051e-19)
(0.579058 1.472 0)
(0.606067 2.42158 2.17562e-19)
(0.666496 2.43106 3.38999e-19)
(0.413627 2.51466 9.53824e-20)
(0.398892 2.54055 -5.99936e-19)
(0.502928 2.4787 5.63546e-19)
(0.553179 2.47444 0)
(0.483968 2.52488 -5.56872e-19)
(0.253144 2.60106 1.1148e-18)
(0.365235 2.55937 -7.38049e-20)
(0.285552 2.65924 -1.58416e-18)
(0.971029 2.38801 7.14869e-19)
(0.848485 2.38896 0)
(1.01143 0.0013988 2.50693e-20)
(1.01538 -0.00515908 -2.04799e-20)
(1.01778 -0.00389239 -3.74355e-19)
(1.01563 -0.00102084 3.73063e-19)
(1.01313 0.00185382 0)
(0.638112 1.30506 0)
(0.682534 1.1905 0)
(0.797498 1.12138 0)
(0.670171 1.14744 0)
(1.19423 2.6246 5.16294e-20)
(1.08692 2.37649 0)
(0.816683 2.16443 3.55039e-21)
(0.821117 2.42832 0)
(0.915862 2.51888 -4.33707e-19)
(0.947311 2.46824 2.89553e-19)
(0.781197 0.171319 0)
(0.72659 0.142408 1.57515e-19)
(0.903102 0.160068 9.22194e-19)
(0.816935 0.144201 -3.44457e-19)
(0.755829 0.0917597 -1.06349e-18)
(1.08798 0.247265 -8.37983e-19)
(0.984978 0.31972 -1.02305e-20)
(0.926511 0.351836 8.10759e-19)
(1.01322 0.259851 6.90312e-19)
(0.931377 0.20802 -1.21517e-18)
(0.888126 0.220986 1.52655e-19)
(0.927338 0.315149 -3.1721e-19)
(0.903941 0.225626 0)
(1.00014 0.209927 5.94607e-19)
(1.05479 0.218974 0)
(1.05266 0.229897 0)
(1.12581 0.125332 2.6659e-19)
(1.06529 0.195717 -1.06797e-20)
(1.07968 0.249407 -1.52654e-19)
(1.11322 0.212668 0)
(1.02277 0.0489255 5.91349e-19)
(1.03675 0.0628402 7.37506e-19)
(1.03255 0.0463384 -5.87123e-19)
(1.04154 0.0693775 -4.94592e-19)
(1.01458 0.0757031 -7.53337e-19)
(0.985514 0.170179 0)
(0.988102 0.108522 0)
(0.962289 0.0748466 -4.83167e-19)
(0.896542 0.100121 1.93596e-19)
(1.03915 0.117059 6.83917e-19)
(1.07608 0.137275 -7.80615e-19)
(1.07035 0.181995 7.01905e-19)
(1.03526 0.157851 0)
(1.08624 0.123472 0)
(1.05696 0.113166 -3.20423e-19)
(1.04254 0.109376 -5.5579e-19)
(0.588054 1.08109 1.18166e-19)
(0.609681 1.39757 -2.03792e-20)
(1.14412 2.71565 -2.46386e-19)
(1.19647 3.10017 2.86915e-21)
(1.25199 2.72507 -1.22213e-19)
(1.29118 2.69544 1.92539e-20)
(1.26625 2.31858 -3.82687e-20)
(1.18405 3.00544 -7.38588e-20)
(1.20377 2.96242 2.23521e-19)
(1.17796 3.2533 -1.21776e-19)
(1.39518 2.96696 1.52571e-19)
(1.40644 2.90192 0)
(0.577067 0.813882 -4.78121e-20)
(0.201006 1.21018 4.66672e-19)
(0.528387 0.326396 5.02816e-19)
(0.413513 0.0928517 5.70934e-19)
(0.457055 0.296994 6.29974e-19)
(0.546094 0.415058 -1.02601e-18)
(0.556687 0.396686 8.43876e-19)
(0.460073 0.292379 -3.12118e-19)
(0.302201 0.234795 7.126e-19)
(0.712583 0.260264 -3.43608e-19)
(0.663926 0.286738 0)
(0.593501 0.195438 7.18508e-21)
(0.734939 0.515079 3.53715e-19)
(0.705774 0.489078 -1.28332e-18)
(0.632049 0.439323 1.30302e-20)
(0.617848 0.41886 0)
(0.724022 0.720078 3.68065e-19)
(0.83957 0.80239 4.05881e-19)
(0.778187 0.852641 -4.73067e-19)
(0.907957 0.823312 -1.49912e-19)
(0.942592 0.86626 -3.46719e-20)
(0.950091 0.873711 3.55587e-20)
(0.884547 0.681535 -6.61158e-19)
(0.957753 0.72812 1.3937e-19)
(1.01279 0.731211 0)
(1.01161 0.706701 -1.77886e-19)
(1.0305 0.343868 2.08255e-19)
(1.15895 0.342865 2.52537e-19)
(1.07483 0.284612 3.42565e-19)
(1.00075 0.390823 -4.17369e-19)
(1.05835 0.491052 0)
(1.1396 0.431441 0)
(0.899206 0.429972 -1.59141e-21)
(0.847611 0.321319 0)
(0.892927 0.31182 3.85997e-19)
(0.910944 0.350626 1.68971e-21)
(0.988299 0.501397 1.83597e-18)
(0.920901 0.560224 4.73781e-19)
(0.943617 0.519323 -5.00235e-19)
(0.861046 0.496483 5.3356e-19)
(0.825253 0.471239 3.40622e-19)
(0.802187 0.449877 -3.33776e-19)
(1.02822 -0.000360101 6.18578e-19)
(1.02047 0.000612198 0)
(1.01911 0.00142619 4.037e-19)
(1.02268 -0.000691335 -9.13833e-19)
(1.02257 0.00462256 4.45196e-19)
(1.02002 0.0116749 -9.31859e-19)
(1.02075 0.0114916 0)
(1.01968 0.0122514 -1.94058e-19)
(1.01659 0.00783094 4.86316e-19)
(1.01669 0.0109511 -2.44302e-19)
(1.01728 0.0106592 1.78844e-19)
(0.0370092 1.33692 0)
(0.0445048 1.39916 0)
(0.0557652 1.34064 0)
(0.0629615 1.27739 0)
(0.0870435 1.40433 -7.58418e-20)
(0.0936612 1.37636 1.48429e-20)
(0.0849215 1.57541 6.56224e-21)
(0.103306 1.4117 -4.70713e-20)
(0.0458677 1.48726 5.46232e-20)
(0.0504369 1.48276 -4.30067e-20)
(0.0760875 1.40076 -2.53545e-20)
(0.0653536 1.40263 7.95292e-20)
(0.0620926 1.38384 1.2853e-20)
(0.0476222 1.4018 8.82306e-21)
(0.103626 2.37007 -9.4535e-20)
(0.0937513 2.41752 0)
(0.141157 2.0084 9.46734e-20)
(0.133262 1.70499 2.96361e-20)
(0.224769 1.9967 -8.30329e-20)
(0.194709 2.4296 0)
(0.260242 2.36299 -6.34973e-19)
(0.311551 2.35491 4.48712e-19)
(0.248562 1.97912 -1.99334e-19)
(0.137878 2.14856 1.47554e-19)
(0.110038 2.26481 0)
(0.016722 1.85239 -2.98519e-20)
(-0.00517467 2.37255 -5.23868e-21)
(0.00353291 2.12976 0)
(0.00580087 2.43428 -1.78014e-20)
(0.0242953 2.27067 2.6187e-20)
(0.0118451 1.44038 -1.3091e-20)
(0.00809086 1.42007 2.16655e-19)
(0.00663541 1.42969 -7.0293e-20)
(0.0210189 1.4386 -6.15262e-20)
(0.0227303 1.46594 0)
(0.00397429 1.41354 0)
(-0.00169489 1.3119 -8.59237e-20)
(-0.0036355 1.40439 2.50644e-20)
(0.0046513 1.40313 0)
(0.00918807 1.3048 -6.62308e-20)
(0.015439 1.21343 1.31977e-19)
(1.04247 0.0151109 0)
(1.04902 0.0105829 -6.45122e-20)
(1.03921 0.0247083 -4.66482e-19)
(1.04971 0.0235432 0)
(1.05466 0.0227073 0)
(1.03637 0.0131023 -6.76155e-21)
(1.03006 0.0135694 7.53051e-19)
(1.03182 0.0176078 9.10999e-19)
(1.02562 0.0212408 0)
(1.0224 0.021734 0)
(1.03557 0.0260027 4.6557e-19)
(1.02614 0.0284033 0)
(1.02349 0.0284602 0)
(-0.021193 2.03195 0)
(-0.0118041 1.66874 -2.75585e-21)
(-0.00968009 1.77235 -3.50746e-20)
(-0.00968241 1.40962 0)
(-0.0107327 1.5741 -3.59826e-20)
(-0.0180864 1.48624 2.15932e-20)
(-0.0161397 1.42562 0)
(0.403605 1.62125 0)
(0.366641 1.32078 -2.03081e-20)
(0.275249 1.34577 0)
(0.436926 1.31891 -4.72485e-20)
(0.472895 1.47806 0)
(0.458389 1.41972 4.4911e-20)
(1.04034 2.66806 -1.5175e-20)
(0.985357 2.40682 -8.97978e-19)
(0.948056 2.2082 1.00504e-18)
(0.865106 2.38097 2.42483e-19)
(0.852376 2.48481 0)
(0.92157 2.47929 0)
(0.954801 2.38099 0)
(0.930651 2.37211 -9.38969e-19)
(0.69119 2.44848 -3.76183e-19)
(0.800101 2.43243 -9.73519e-20)
(0.807346 2.41037 7.33695e-20)
(0.704027 2.40201 0)
(0.809273 2.39552 0)
(0.769765 2.41223 -3.67571e-19)
(0.765305 2.46352 0)
(0.633903 1.06853 0)
(0.515081 0.853429 -5.57945e-19)
(0.522075 0.927482 -3.25048e-20)
(0.501838 1.06765 0)
(0.489082 0.974776 8.53451e-19)
(0.80558 0.888188 -1.3139e-19)
(0.808608 1.02282 0)
(0.789787 1.00598 1.79655e-19)
(0.678564 1.02171 0)
(0.670469 0.9253 0)
(1.16263 2.75232 -2.17439e-19)
(1.13782 2.81067 -8.80108e-20)
(0.921982 2.33287 7.27499e-20)
(0.898807 2.31392 -7.52371e-20)
(1.13236 2.73007 0)
(1.08447 2.69782 9.03539e-20)
(1.10003 2.49294 -2.94694e-19)
(1.00189 2.25298 -2.81644e-20)
(0.496536 1.32657 0)
(0.516775 1.07567 -1.04075e-19)
(0.596094 1.18409 0)
(0.854777 0.233366 0)
(0.75526 0.179688 0)
(0.652224 0.143619 0)
(0.862606 0.231771 -6.09054e-19)
(0.739136 0.231695 3.58588e-19)
(0.913676 0.0874795 -4.00354e-19)
(0.926207 0.138158 0)
(0.899683 0.147383 1.72859e-19)
(0.838913 0.11036 6.91058e-19)
(0.797371 0.0791022 -4.33707e-19)
(1.09416 3.34402 -6.69852e-19)
(1.16265 3.2678 0)
(1.1121 3.42868 -1.5671e-18)
(0.654483 3.57503 1.30402e-18)
(1.02242 3.07462 1.20047e-19)
(0.53421 0.774771 5.66279e-19)
(0.512064 0.741667 0)
(0.344508 0.331284 -1.42055e-19)
(0.494716 0.626367 8.46889e-19)
(0.564354 0.326494 -1.83328e-19)
(0.523583 0.452139 2.20182e-19)
(0.689053 0.527747 4.52854e-19)
(0.736912 0.564933 0)
(0.670808 0.562463 0)
(0.657582 0.533684 0)
(1.01937 0.615888 8.67948e-20)
(0.972941 0.598203 -4.59023e-19)
(0.983407 0.610429 3.50566e-19)
(1.04728 0.553319 -3.38187e-19)
(1.09287 0.522398 0)
(1.09507 0.604186 -8.88092e-20)
(0.886355 0.425642 -7.60709e-19)
(0.873595 0.411472 -9.80292e-19)
(0.798892 0.414389 5.99358e-19)
(0.814344 0.378987 -6.24817e-19)
(0.856199 0.33474 -4.90883e-19)
(0.800021 0.337849 6.00849e-19)
(1.02658 0.00674524 -4.65861e-19)
(1.02621 0.00686503 9.38643e-19)
(1.02997 0.000977703 5.99408e-19)
(1.03421 0.00161702 -7.19696e-19)
(1.034 0.0120174 0)
(1.02972 0.0120925 -1.17938e-18)
(0.0822149 1.64613 8.97796e-21)
(0.0694942 1.60654 0)
(0.106485 1.70309 2.65126e-20)
(0.11558 1.68208 -2.17178e-20)
(0.0697553 1.57108 -1.23252e-20)
(0.0653533 1.57321 0)
(0.00767807 1.70628 0)
(-0.00820982 1.52493 1.92257e-20)
(-0.00711935 1.46741 -1.72814e-20)
(-0.0137163 1.57205 3.19651e-21)
(-0.00217362 1.8969 2.87973e-20)
(-0.0144418 1.95114 -1.13721e-20)
(0.493796 1.35886 -2.58628e-19)
(0.496526 1.35343 2.82932e-19)
(0.451196 1.31102 -7.74966e-21)
(0.428639 1.29061 7.44796e-21)
(0.630942 1.31206 0)
(0.556722 1.40655 1.19779e-19)
(0.557707 1.40949 -1.16648e-19)
(0.487286 1.29946 7.47761e-21)
(0.5279 1.25189 0)
(0.592396 1.21759 0)
(0.664756 2.41213 5.5382e-19)
(0.660487 2.44257 1.27165e-18)
(0.715561 2.45772 -8.74588e-19)
(0.613389 2.42994 -2.00038e-19)
(0.557709 2.52272 2.72737e-19)
(0.498282 2.48987 -7.03877e-19)
(0.992852 2.38569 -5.66214e-19)
(1.02435 2.4032 0)
(0.951516 2.19165 -6.1806e-19)
(1.05545 2.6789 0)
(1.05432 2.65982 0)
(0.597953 2.2851 3.76858e-21)
(1.11696 3.06703 7.31298e-20)
(0.993501 2.96316 -1.20267e-19)
(0.316579 0.78211 0)
(0.312969 0.65614 -3.0242e-19)
(0.522902 0.594362 -3.05552e-19)
(0.359722 2.12651 0)
(0.401107 2.74371 -8.45234e-20)
(0.41026 2.47741 0)
(0.732449 0.688548 -7.83647e-19)
(0.798542 0.698474 1.09166e-18)
(0.801659 0.662071 -1.03533e-18)
(0.705071 0.64353 -9.92393e-20)
(0.760964 0.603496 -4.10408e-19)
(0.968179 2.74964 -5.53844e-20)
(1.01296 2.75741 -2.09367e-19)
(0.548052 2.19968 4.43829e-19)
(0.601577 1.73077 -3.50698e-19)
(0.70091 1.84959 -4.9403e-19)
(0.975479 2.39033 -1.37957e-19)
(0.975918 2.3433 3.64735e-19)
(0.642773 1.7573 3.34062e-20)
(0.449395 1.29212 1.74084e-19)
)
;

boundaryField
{
    wall-4
    {
        type            noSlip;
    }
    velocity-inlet-5
    {
        type            fixedValue;
        value           uniform (1 0 0);
    }
    velocity-inlet-6
    {
        type            fixedValue;
        value           uniform (0 3 0);
    }
    pressure-outlet-7
    {
        type            zeroGradient;
    }
    wall-8
    {
        type            noSlip;
    }
    frontAndBackPlanes
    {
        type            empty;
    }
}


// ************************************************************************* //
