/*--------------------------------*- C++ -*----------------------------------*\
  =========                 |
  \\      /  F ield         | OpenFOAM: The Open Source CFD Toolbox
   \\    /   O peration     | Website:  https://openfoam.org
    \\  /    A nd           | Version:  6
     \\/     M anipulation  |
\*---------------------------------------------------------------------------*/
FoamFile
{
    version     2.0;
    format      ascii;
    class       volScalarField;
    location    "74";
    object      p;
}
// * * * * * * * * * * * * * * * * * * * * * * * * * * * * * * * * * * * * * //

dimensions      [0 2 -2 0 0 0 0];

internalField   nonuniform List<scalar> 
918
(
0.533764
1.23154
0.00621573
0.533682
-0.01147
1.1993
-0.504806
0.630275
0.514918
-0.12318
-0.0827959
0.51757
1.05616
0.824591
-1.16887
-0.0214144
0.628786
-0.418429
0.512972
-0.0776773
0.652076
0.52159
0.524055
0.51484
0.578069
0.777716
0.933481
-0.0035498
0.0106955
0.00547694
-0.0128288
-0.0330913
-0.0294308
1.08243
1.13436
1.15754
0.481385
0.314647
-0.400055
-0.454595
-0.432335
-0.521891
0.629732
0.630495
-0.229557
0.631039
0.632031
0.500596
0.514313
0.51515
0.516269
0.515178
0.516457
0.387668
-0.129723
-0.15645
-0.108485
-0.107648
0.0286106
-0.0847416
-0.0862252
-0.0811127
-0.0787711
0.43028
0.512639
0.508746
0.521602
0.531033
1.17171
1.1455
1.17159
1.0819
1.09963
1.0332
1.00622
0.845097
0.868368
0.809041
0.795383
-1.62421
-2.56895
-0.592917
-0.317519
-0.0105141
-0.0228011
-0.0213739
0.624455
0.627222
0.627427
0.630394
1.03658
-0.39062
-0.462621
0.513508
0.512032
0.521119
0.522024
0.516988
0.516988
-0.0734692
-0.0717396
-0.0658582
-0.0757889
-0.0753372
0.638665
0.638184
0.514276
0.511717
0.539452
0.563444
0.551397
0.247215
0.58805
0.604302
0.641699
0.788215
0.774787
0.787747
0.908787
0.877357
0.964861
0.986539
0.0139986
-0.00132993
-0.023066
-0.0215219
-0.0217561
0.477116
0.470667
0.49888
0.485015
0.488064
0.220062
0.0700514
0.39673
0.420273
-0.324124
-0.374378
-0.459645
-0.457979
-0.565449
0.599425
0.631475
0.631253
-0.241044
-0.168718
-0.296364
-0.110765
-0.168113
0.49153
0.497795
0.493863
0.509267
0.503429
0.505856
0.518387
0.515567
0.517163
0.446097
0.576558
0.305427
0.277633
-0.278846
-0.174215
-0.259023
-0.100067
-0.0992586
0.0390757
0.0687037
0.0154322
0.00278747
-0.093649
-0.0887108
-0.0919838
-0.0754644
-0.0749769
0.421683
0.408589
0.44156
0.449108
0.498152
0.499572
0.504366
0.502267
0.957015
0.980083
0.986069
0.962153
-3.5443
-6.17238
0.025284
0.183739
-0.00927466
-0.0106545
3.56902e-05
-0.00994851
-0.000652538
-0.00273657
-0.0302475
-0.0302407
-0.0241956
-0.0250909
0.622963
0.624416
1.00271
1.02947
0.976468
0.950576
0.502868
0.504742
0.509362
0.506244
-0.0735466
-0.072157
-0.0736241
0.632489
0.635928
0.633849
0.205804
0.116606
0.298949
0.330274
0.619224
0.607983
0.617926
0.701095
0.741557
1.00375
1.02762
1.01186
1.0248
1.07563
1.09857
1.0635
0.455614
0.466583
0.460828
0.501742
0.499558
0.500501
0.497152
0.498037
0.496717
-0.0411427
-0.412293
0.469774
0.471052
0.462874
0.465962
0.686079
0.769527
0.628295
0.630187
0.630854
-0.0590463
-0.10613
0.2366
0.20752
0.360521
0.395286
0.377026
0.932662
0.893118
0.940922
0.916265
0.880751
0.904129
-0.348413
-2.10859
-1.10523
0.582962
0.386424
0.478041
-0.0138339
-0.0299741
-0.0268108
1.01941
1.05909
0.646129
0.839721
0.791385
0.765058
0.791441
0.852278
0.787011
0.819715
0.849114
0.824321
0.549277
0.479905
0.497618
0.84465
0.900119
0.0788047
-0.000590128
-0.0235583
0.0932592
0.165649
0.13269
1.03544
0.953065
1.01535
0.511959
0.512911
-0.0179431
-0.0414189
0.517036
0.516747
-0.0218767
-0.0119114
0.493622
-0.936374
0.0799492
0.506577
0.496175
0.513032
-0.102767
0.31921
-0.0858509
0.00878701
-0.0238224
0.508649
0.442672
0.400153
-0.00681019
-0.0305692
-0.0701012
-0.215758
0.509697
0.508055
0.512419
0.513234
0.514014
-0.0269793
-0.0267558
-0.0184177
-0.0642646
-0.059353
-0.0691235
0.476251
0.496602
-0.196884
0.512715
0.51482
0.514515
0.508737
0.513665
0.512302
-0.0224288
-0.0263037
-0.0278225
0.185458
0.32697
0.676939
0.751826
0.626091
0.459482
0.167695
0.613651
0.665587
0.590826
0.721806
0.627842
0.628132
0.146718
0.00266521
0.150895
0.084063
0.50341
0.502864
0.493697
0.49056
0.507866
0.505544
0.51074
0.507984
0.511157
0.512301
-0.0568827
-0.088405
-0.104339
-0.147818
0.290607
0.544634
0.212261
0.241568
0.149006
-0.0749921
-0.0801089
-0.0819608
-0.0872179
-0.0419707
-0.0428004
0.00241905
0.0121504
-0.00446466
-0.0302544
-0.050151
-0.0436359
-0.0518043
0.501558
0.501707
0.505881
0.5141
0.452344
0.456057
0.422228
0.441052
0.427164
0.366897
0.396825
0.373906
-0.0179371
-0.00792122
-0.00998065
-0.0310953
-0.0302149
-0.0515567
-0.0443455
-0.0423527
-0.0387039
-0.0438008
-0.0650556
-0.0699676
-0.179687
-0.299662
0.947989
0.890819
0.132586
0.499587
0.50526
0.502424
0.507173
0.510369
0.510995
0.50856
0.505046
0.496682
0.498194
0.494812
0.495943
-0.134987
-0.244587
-0.0761104
-0.152585
0.142802
0.609589
0.334317
0.278968
0.264305
0.491672
0.691258
0.600111
0.655507
0.631567
-0.396504
0.00375621
-0.330127
0.216178
0.210827
0.7025
0.744093
0.762171
0.719397
0.675654
-0.0289525
0.543329
-0.0804973
-0.0287676
0.162826
0.0444554
0.621067
0.614308
0.621752
0.623323
0.629607
0.621517
0.606894
0.601263
0.621164
0.6255
0.485818
0.21379
0.170214
0.124453
0.615392
0.508861
0.5582
0.477344
0.499114
0.50149
0.500462
0.481062
0.48844
0.484086
0.49136
0.495059
0.502357
0.502556
0.498362
0.500295
-0.0818356
-0.0898665
-0.0690261
-0.129602
-0.133918
-0.17758
-0.0883982
0.0875974
0.0333245
0.225255
0.334679
0.0660032
-0.0568378
-0.0388941
0.0118975
0.175231
0.171674
0.0450834
0.15544
0.111541
0.104745
0.192697
0.21546
-0.0546211
-0.0603283
-0.0601958
-0.0652764
-0.0157987
0.101665
0.0757593
-0.0303898
-0.0379451
-0.0747659
-0.0719131
-0.00711637
-0.0441738
-0.0364626
-0.0105784
-0.0586157
-0.0332643
-0.0235002
-0.0297631
-0.0316068
-0.0308973
0.495766
0.498041
0.49788
0.506635
0.51905
0.534663
0.499362
0.47364
0.464635
0.467744
0.440627
0.449896
0.445107
0.460987
0.482699
0.49141
0.489324
0.49207
0.473963
0.475599
0.460951
0.465633
0.434574
0.415862
0.40558
-0.0553983
-0.0229104
-0.0363638
-0.0486595
-0.0236646
-0.0328964
-0.0317046
-0.0128007
-0.0322301
-0.0276029
-0.0372558
-0.0419668
-0.0428179
-0.0818794
0.000241596
-0.183737
-0.232319
-0.285494
0.871452
1.01117
0.796996
0.557191
0.573802
0.818002
0.926247
0.529312
0.745326
0.754672
0.567204
0.856392
0.503537
0.503124
0.500987
0.500158
0.501155
-0.0230919
0.080626
0.091357
0.151169
0.267066
0.372533
0.304485
0.190877
0.323462
0.348011
0.607068
0.61357
0.572829
0.594606
0.595401
0.401597
0.482146
0.519103
0.477838
0.551412
0.584228
0.531207
0.57416
0.494392
0.44487
0.436108
0.390939
0.425642
0.406568
0.380923
0.495032
0.471711
0.482624
0.47251
0.494938
0.520203
0.520285
0.54119
0.561064
0.473305
0.419105
0.436252
0.465024
0.420885
0.438471
0.460566
0.179321
0.0819101
0.244327
-0.0828407
0.00223437
0.042042
-0.000911449
-0.0425173
0.264128
-0.37282
-0.319657
-0.995698
0.489156
0.832431
0.566877
0.578295
0.629755
0.618826
0.628984
0.634173
0.635188
0.60292
0.611281
0.616484
0.583304
0.604091
0.601313
0.608359
0.49108
0.390463
0.393451
0.324554
0.184852
0.226662
0.416519
0.349189
0.274672
0.266919
0.443466
0.308358
0.387928
0.437959
0.36087
0.296828
0.523412
0.5715
0.564256
0.535187
0.416069
0.449124
0.451027
0.501371
0.544816
0.569952
0.489886
0.496217
0.497122
0.494379
0.492747
0.495889
0.49618
0.498493
0.498638
0.501242
0.50073
-0.0794738
-0.064084
-0.0786293
-0.0872482
-0.0200566
-0.0294134
-0.00428727
-0.0282483
-0.0364751
-0.0326077
-0.0476413
-0.0644095
-0.0624948
-0.0522323
0.0593865
0.0712795
0.0879271
0.0446033
0.256562
0.392166
0.480712
0.364819
0.201368
0.22762
0.295022
0.0158961
0.00801771
-0.00628762
0.0620313
0.049755
-0.0644592
-0.0693616
-0.063257
-0.0522159
-0.0459564
-0.0633804
-0.0654268
-0.0550207
-0.0616802
-0.0666426
-0.0695374
0.47532
0.468213
0.471809
0.464196
0.46237
0.479352
0.48397
0.485033
0.490701
0.493392
0.482677
0.488764
0.493025
-0.0325883
-0.0491565
-0.0493588
-0.0498429
-0.0476666
-0.0453874
-0.0490283
0.118338
0.0257537
0.0611783
-0.00879751
-0.135422
-0.0757771
0.492645
0.486808
0.475248
0.71141
0.547254
0.466668
0.566053
0.68636
0.265716
0.465092
0.300243
0.877208
0.784471
0.929799
0.544692
0.246693
0.416023
0.424763
0.266717
0.390401
0.331461
0.207433
0.242675
0.277759
0.361197
0.247078
0.226423
-0.0161244
0.165355
0.274874
0.256889
0.383787
0.440476
0.256228
0.17214
0.118549
0.588911
0.604907
0.612393
0.584749
0.605404
0.564375
0.553205
0.570516
0.578493
0.573404
-0.629988
-0.218296
-1.41814
-0.832564
-0.380956
0.516801
0.518373
0.741167
0.644011
0.655499
0.637347
0.58354
0.556768
0.598286
0.610759
0.313283
0.398438
0.38519
0.361645
0.30734
0.249583
0.522759
0.531962
0.55524
0.58197
0.557085
0.585026
0.488658
0.488513
0.487158
0.483409
0.481915
0.4852
0.0130527
-0.0112346
0.0224238
0.0139262
-0.00818973
-0.0117204
-0.0383267
-0.049534
-0.0504921
-0.0475223
-0.0372867
-0.035641
0.164815
0.102691
0.0147133
0.055661
-0.0107961
-0.0927449
-0.0953112
-0.00415624
0.0958229
0.0773578
0.380407
0.648156
0.473967
0.63901
0.438563
0.535543
0.457649
0.431117
0.458759
0.36317
0.453374
0.0478104
-0.154494
-0.20941
0.812684
0.773618
0.553642
0.311313
0.19227
0.483648
0.504889
0.464359
0.492857
0.542301
0.52588
0.0180612
0.104632
0.192756
0.497957
0.272993
0.291592
0.281409
0.448385
0.416967
)
;

boundaryField
{
    wall-4
    {
        type            zeroGradient;
    }
    velocity-inlet-5
    {
        type            zeroGradient;
    }
    velocity-inlet-6
    {
        type            zeroGradient;
    }
    pressure-outlet-7
    {
        type            fixedValue;
        value           uniform 0;
    }
    wall-8
    {
        type            zeroGradient;
    }
    frontAndBackPlanes
    {
        type            empty;
    }
}


// ************************************************************************* //
