/*--------------------------------*- C++ -*----------------------------------*\
  =========                 |
  \\      /  F ield         | OpenFOAM: The Open Source CFD Toolbox
   \\    /   O peration     | Website:  https://openfoam.org
    \\  /    A nd           | Version:  6
     \\/     M anipulation  |
\*---------------------------------------------------------------------------*/
FoamFile
{
    version     2.0;
    format      ascii;
    class       surfaceScalarField;
    location    "74";
    object      phi;
}
// * * * * * * * * * * * * * * * * * * * * * * * * * * * * * * * * * * * * * //

dimensions      [0 3 -1 0 0 0 0];

internalField   nonuniform List<scalar> 
1300
(
3.75095
5.62643
-3.33192
3.75095
-7.76382
5.62643
-4.27466
4.27466
-0.379727
0.379727
1.87649
1.87446
-2.4286
2.4286
-1.76774
1.76774
-2.52296
2.52296
-5.24809
5.24809
-5.06972
5.06972
4.69931
-4.69931
-6.33847
6.33847
-0.959854
0.959854
-3.57614
3.57614
3.17245
-3.17245
-1.88306
1.88306
0.064576
-0.064576
-0.554081
4.30503
3.19687
3.19687
-1.9832
1.9832
-4.87485
4.87485
6.22254
-6.22254
5.24719
-5.24719
-1.91527
-2.49932
1.79926
-11.4865
-5.96456
-5.96456
-8.44099
8.44099
-2.81456
2.81187
2.94728
-2.94728
-1.72509
1.72509
-4.29161
0.0169509
-4.29161
4.24495
0.0297078
4.24495
-0.490029
0.110301
-0.490029
3.95146
-3.95146
0.287198
0.0925299
0.287198
3.06731
-3.06731
-1.87686
3.75335
1.8741
-1.8721
6.17713
-1.87886
3.75332
-6.07941
6.07941
-2.67525
0.246654
-2.67525
2.19718
0.231418
2.19718
-6.89022
6.89022
-1.7967
0.0289659
-1.7967
1.76609
0.00165028
1.76609
2.88846
-2.88846
-2.6286
0.105641
-2.6286
2.38642
0.136543
2.38642
0.353363
5.27307
-5.97979
8.79166
-5.27307
0.0249731
5.2103
0.037792
5.2103
-5.10526
0.035538
-5.10526
5.01284
0.056881
5.01284
4.78824
-0.0889242
4.78824
-4.81879
0.119473
-4.81879
-3.36078
-4.07484
-6.49766
0.159189
-6.49766
-1.02598
0.066122
-1.02598
0.857736
0.102118
0.857736
-3.7242
3.7242
-3.93302
0.356883
-3.93302
3.12742
0.0450287
3.12742
1.86812
1.88283
5.61907
-5.61907
2.44663
-1.81979
-0.0632681
-1.81979
-1.9605
-3.28669
1.9605
-0.0774401
-0.152888
0.217464
-0.152888
3.15712
0.0397486
3.15712
2.2377
0.148712
-2.2377
0.254507
3.30164
-3.30164
1.31914
0.664053
1.31914
-5.55833
5.55833
4.96165
0.0511848
-4.96165
0.0867983
6.15709
0.06545
6.15709
-6.20778
-0.0147549
-6.20778
2.48658
-4.9859
-2.65569
6.15199
0.186476
-6.15199
0.187433
2.91887
0.0284083
2.91887
-2.91895
2.91895
-2.98425
0.0369697
-2.98425
-2.14733
0.422238
-2.14733
1.41107
0.314021
1.41107
-4.20734
-0.0842733
-4.20734
-4.09085
0.157829
4.09085
0.154102
1.1188
-1.1188
-0.603705
0.113676
-0.603705
-4.05608
-0.151261
4.05608
-0.104618
-3.8911
-0.0603614
-3.8911
-3.02193
0.0376772
3.02193
0.0453778
3.11212
0.0450071
-3.11212
0.0448111
-1.87099
3.75382
-1.87996
3.75406
-5.69614
-0.383274
-5.69614
6.36075
-0.281342
6.36075
3.10068
0.475461
-3.10068
0.425426
2.01326
0.183919
2.01326
-6.8635
-0.026722
-6.8635
6.89619
-0.00596974
6.89619
1.88095
0.132312
-1.88095
0.0842466
1.77923
-0.0131447
1.77923
2.91619
-0.0277234
2.91619
-2.88206
-0.00640744
-2.88206
2.79047
-2.79047
2.71672
0.0737485
-2.71672
0.0881176
-11.124
11.1092
-0.0363359
-11.0876
5.17397
5.17397
4.24191
0.546326
4.24191
-5.01452
0.195738
-5.01452
2.66623
-5.32192
3.10442
-6.4652
4.67407
-16.1606
4.29313
-8.36796
6.74594
-6.74594
6.6285
0.117441
-6.6285
0.130845
-1.13791
0.111932
-1.13791
-3.12714
-0.597058
-3.12714
4.3669
-0.642695
4.3669
-3.02763
3.02763
-3.07637
0.0487386
3.07637
0.0510505
1.78978
-0.0105534
-1.78978
-0.0300039
0.198503
0.0886944
-0.198503
0.045615
3.52421
-0.22257
3.52421
-3.09728
-0.204358
-3.09728
-1.23267
0.0947586
1.23267
0.0864771
-5.80773
0.249399
-5.80773
-11.1817
0.0940436
-11.1439
-6.11374
-6.11374
2.32725
11.1189
-2.89728
0.0152263
2.89728
0.0215906
2.97509
0.0525437
-2.97509
0.05614
-2.8575
0.0670334
2.8575
0.061446
-2.51494
0.367616
-2.51494
-1.02649
1.02649
-1.17414
0.147644
1.17414
0.236931
1.41912
-0.300321
1.41912
0.738495
0.119241
-0.738495
0.13479
-3.8367
-0.054399
-3.8367
6.59792
-0.237168
6.59792
-2.96797
-0.129312
2.96797
-0.0517838
-0.0349672
11.1442
-5.139
0.0337421
5.139
-11.2096
11.2434
-3.22013
0.705188
3.22013
1.02178
5.2836
0.274733
-5.2836
0.269072
6.83645
0.0597455
-6.83645
0.0905019
-2.63631
-0.490835
-2.63631
-5.09564
-0.600495
5.09564
-0.728745
-11.482
-0.203138
11.6852
-11.4251
6.01087
0.14622
-6.01087
11.3896
-0.996187
-0.122608
0.996187
0.0303073
1.75848
-0.339368
1.75848
3.74157
-0.217365
-3.74158
-0.0951238
-6.75462
-0.108881
6.75462
-0.156698
-2.18717
-0.449142
2.18717
-0.428684
-4.26739
4.30714
1.90974
-2.33208
-2.65382
-5.61877
1.85526
1.89857
4.30188
-10.156
-6.00461
-9.96858
7.21432
-6.94525
-9.32575
9.23682
7.93346
-7.99382
-5.77741
5.82846
6.48469
-6.43931
1.87945
1.8739
8.06524
-7.81859
-15.6705
15.2872
7.59236
-7.5634
15.825
-15.8517
-17.8651
17.9248
-5.69901
5.80465
-6.74302
6.73662
-6.98004
6.92825
-2.79908
-3.66612
13.123
-12.9638
8.59273
-8.656
-8.67468
9.03156
3.38462
0.922521
3.42962
-1.88179
3.76124
-1.87153
3.78127
2.75565
-5.55472
2.56628
-5.2201
4.37591
4.21682
-4.29847
-1.32029
-5.92875
5.95715
-5.80885
5.87029
9.17707
-9.16012
-1.88499
3.75888
-1.86907
3.76764
-3.423
-2.35441
3.37797
0.923911
8.07111
5.05188
-8.25758
-1.71099
-8.0274
7.81003
-8.21763
8.01327
-0.436577
5.8386
-5.40202
4.43828
-1.65272
7.49131
5.56161
5.75734
5.86064
-5.58591
1.08461
-6.48663
-6.39983
-2.26943
2.38311
2.16047
-2.06794
6.1456
1.78787
6.04098
-5.8075
-2.18632
-5.8619
3.8198
2.00866
3.86854
4.08216
2.40254
4.11983
3.0296
-3.03674
0.00714636
-3.05928
6.08888
0.722139
-5.41369
-4.48978
4.99271
3.07253
5.22413
-5.59369
-2.2249
-5.16826
-9.56298
-6.10753
-10.1635
10.0862
5.201
9.80489
-11.9557
11.799
4.85688
2.73549
4.85853
-4.97565
-2.58775
-4.8914
11.6846
-2.65437
-9.03021
-10.3301
-7.53501
10.336
5.48893
10.9724
6.95241
11.0629
4.42688
7.2577
-9.91581
2.3808
-3.86397
-1.83503
-3.77586
3.66182
2.14283
3.79836
-4.21889
-2.52414
-4.20366
-4.29531
-2.68473
4.32303
2.41358
-4.41731
-3.80031
4.54663
2.38163
4.05467
-10.0593
4.31329
-7.97941
-9.20298
-3.76082
-9.07213
3.55416
2.60218
-6.15634
-2.00056
8.54095
-4.32414
7.22066
-5.19519
-3.46081
-5.2252
-6.96378
-1.7109
-6.80595
-8.92799
8.43716
-9.20888
8.56619
12.514
-5.63627
-6.87772
-3.96702
-2.4723
3.9222
-0.49258
-3.71003
3.71718
0.0512113
3.83248
4.755
4.26242
-3.88206
-1.92678
-3.82593
3.82139
2.0489
3.88842
6.84768
2.32939
6.87738
-6.61259
-2.54753
-6.69686
9.10064
-8.67841
2.79892
-2.70416
5.37721
2.63606
-5.15464
-2.87276
6.24158
-3.21493
-3.02666
-12.3468
10.7952
1.55163
-4.85548
-0.417204
-0.48178
-5.5693
-3.75644
5.44983
0.307516
11.1027
7.34623
-5.51449
5.76389
6.17066
6.22185
-0.177986
5.88945
-5.18426
5.27001
-2.72261
-2.5474
5.47759
-5.62885
-1.21927
-5.54932
4.33005
0.412132
1.49912
-1.28166
-1.77626
-0.493173
-1.64147
1.19222
0.968251
1.28091
0.954087
1.42902
-2.92097
0.528618
2.39235
-1.96688
-1.53932
-3.81273
-1.1551
4.96782
5.73232
2.07771
-5.6372
-0.224704
2.56006
-2.45795
-0.831265
-2.98146
2.23311
-3.06438
-3.46847
-1.94289
5.41137
-3.36859
-0.457337
3.31604
0.552494
-3.82818
-2.10057
3.79121
0.328623
-3.129
6.19028
-3.06128
-5.05578
2.52895
3.55993
4.53761
-4.78996
2.44922
2.34074
-1.23002
4.25807
0.966058
4.44199
-7.06378
4.83888
5.73726
3.2943
-6.21273
1.04446
-6.01932
8.549
-7.39682
-1.15218
4.09393
4.45507
7.01516
5.49883
-5.70446
12.7196
-1.16417
-6.23265
7.18349
-3.88919
4.86493
-8.75412
-10.3638
4.13111
-9.20626
11.0731
-1.86681
-3.60439
-8.35129
12.8107
-1.21644
-11.5942
8.58846
-4.35005
-4.40342
8.75347
-7.00442
6.99118
-1.99003
-5.00114
-10.1488
-5.70287
10.2577
1.54128
-9.95103
12.3318
-2.69333
4.16153
0.696996
4.14839
3.36295
-5.4817
2.11874
3.64146
-5.6315
2.05535
-7.53705
-6.75272
12.0956
-5.34291
-10.5135
-9.543
-0.970537
2.54894
9.78289
-9.50135
7.43476
2.06659
3.29802
0.590404
-3.37177
-0.404091
0.233615
4.51328
-4.74689
4.03198
4.18069
3.22153
1.29175
3.84944
2.10771
-3.87103
-0.332624
-4.16864
1.48391
-1.75506
-3.69406
5.17797
-4.06162
0.367562
-2.74495
-3.49331
6.23826
-4.57998
3.03593
3.15435
5.08483
-4.91503
1.42172
-2.39059
-2.52444
2.6399
-4.39496
2.00082
3.17715
4.38244
0.582131
5.90685
6.18877
-8.50903
0.529619
11.2407
-9.52966
2.47795
8.58497
-9.91272
0.369715
-8.70242
0.979404
-5.30354
-5.17694
5.21995
-6.93085
-3.53416
6.24963
0.62775
-6.40374
-0.402214
-6.06673
-2.86126
-6.51587
-3.04506
-6.16382
-8.74952
-1.67628
-7.07324
6.76088
-6.70803
-3.45545
7.43677
1.12942
-7.47983
7.35722
-7.53842
7.19905
0.0949667
3.62221
4.35739
1.88509
-2.39218
4.27728
-5.07292
7.40231
-8.74532
3.67241
4.23857
-6.7861
-4.50675
5.0586
4.04204
5.37262
8.91962
-10.3701
1.45053
-10.6453
11.9861
-1.3408
-16.4239
5.77861
-7.5043
2.41051
0.388412
2.52244
0.55125
2.48816
-3.03941
-2.15291
-2.06644
-2.44404
-3.49659
5.94063
1.06703
-3.47559
2.40856
-3.57428
4.64131
-0.0742094
-3.40138
5.17718
-2.68902
5.5656
-3.64849
1.91711
3.55256
5.84542
-2.29286
4.4214
-1.78535
1.94794
-4.2408
-1.54865
-2.95411
5.09694
-3.28415
3.65171
-0.350052
4.00177
-4.05024
0.835314
-0.828714
3.35197
3.60648
4.33092
-3.03918
2.93653
-4.72187
-1.30427
-4.13974
-0.96259
-0.182686
-3.78315
3.96583
6.00215
-6.18484
-5.28065
9.52258
-4.24193
7.70199
-5.43826
-2.26373
-4.29065
-4.38775
3.92304
1.96641
9.6684
0.179602
-5.61786
-5.00466
-3.98288
3.08793
2.18208
-1.73561
3.28725
2.21739
-0.718272
0.39143
0.889483
1.76187
-1.37044
0.34656
1.41531
-0.935098
1.69735
0.862712
-1.81659
0.175124
-1.30745
3.54056
1.08491
-2.05316
0.682719
0.889004
-3.61162
5.09022
-2.73242
-2.3578
5.97922
1.14445
-3.87688
4.40486
-3.99273
2.44602
-3.60112
-1.43086
-5.42359
-3.63572
-2.48724
4.8958
-3.45338
5.5311
1.42733
-5.30639
6.73372
-3.62929
1.68639
-3.05975
3.92246
-1.01202
-2.04773
2.87749
2.53388
-3.13703
0.155568
-0.259541
2.41876
-2.6783
-0.64562
-2.6125
-4.5761
4.90472
-2.10372
4.55294
2.17356
-1.91772
6.47066
1.80759
-3.7253
-3.24819
-3.70553
-1.38457
3.15304
-0.583039
-4.30836
-5.58418
4.17605
0.265941
-7.06271
7.92832
-0.865612
-3.99018
-0.848699
4.94263
-6.09892
0.467422
-4.04356
3.88476
4.85082
5.11676
-11.3608
-0.233379
-6.15983
1.10515
-7.26498
5.56022
-3.50875
7.63985
-10.3403
6.88484
-9.21087
6.48768
-0.777308
6.25091
-4.13217
2.7793
-8.48217
-6.9409
5.57545
-2.83997
6.27245
-3.22017
9.49262
-5.91351
5.3701
4.12252
-1.0604
-4.1648
-5.34313
4.28274
0.0269649
4.17535
4.9872
-2.87949
4.65457
2.26452
-4.65512
-2.13043
-6.4884
1.83328
-3.33404
-1.92258
3.75586
3.16225
3.75265
1.23142
-3.34856
7.24416
-8.2147
-1.90125
-3.27568
5.31639
-1.03365
3.44796
-6.72365
-1.85558
4.74511
-0.725474
-4.01963
0.891158
-4.42532
1.67218
-6.0975
5.25868
-5.66089
2.2547
-9.75899
-5.22514
-5.19483
-2.27935
-5.25907
-7.57644
5.2971
-1.79783
5.55939
-8.5137
7.78823
-3.4724
8.7695
-5.46217
-1.0537
5.89085
1.3082
10.0777
0.163065
-4.66981
-1.94128
3.73267
-1.79138
1.14665
-3.62008
0.112584
2.48972
3.4895
-6.81977
0.0336641
-4.63615
-3.90981
7.95185
5.61277
11.6149
1.24478
9.13788
-1.18603
10.3827
4.18659
4.42352
-3.0069
4.45743
0.958927
4.63133
-0.895986
2.81309
1.62646
1.69258
0.765368
2.29188
1.3146
3.12719
0.0877836
-1.97865
4.63319
-8.61606
-0.984678
-8.06974
1.16709
5.42909
-4.262
2.87148
-0.689402
1.0801
-0.181896
-1.18943
1.37133
-2.72929
-1.90771
-0.492398
-1.65955
2.34227
1.88101
-1.84987
-0.87942
0.330709
-3.96643
3.27041
-3.11484
-0.580965
6.15276
-2.8898
0.211501
-1.20341
-2.401
-2.89418
2.71905
6.17432
0.296333
3.11304
5.20105
3.10049
0.221
3.81855
-5.68536
-3.7185
-5.91874
-0.358514
4.58411
1.76111
8.02178
5.88363
4.84998
-1.87366
-10.0884
6.50619
-2.04876
5.16539
-1.14576
-4.95174
5.07372
2.32859
-5.70147
0.0405754
-4.91116
-6.95992
-0.479844
8.26807
-9.59785
8.54415
5.68289
1.39035
-4.43729
-0.757534
4.28965
0.133873
10.5165
-0.911491
-7.0534
7.96489
-4.5176
3.53292
0.675404
2.61184
2.04673
1.35733
-5.69607
-9.95808
-2.06817
-1.54345
-4.42597
0.541858
-2.42287
6.07065
-2.53773
3.80692
5.42717
6.50727
-2.04747
-4.13737
6.2894
-2.48248
4.02479
)
;

boundaryField
{
    wall-4
    {
        type            calculated;
        value           uniform 0;
    }
    velocity-inlet-5
    {
        type            calculated;
        value           uniform -3.75095;
    }
    velocity-inlet-6
    {
        type            calculated;
        value           uniform -5.62643;
    }
    pressure-outlet-7
    {
        type            calculated;
        value           nonuniform List<scalar> 8(3.33192 7.76382 4.41459 9.68728 7.43561 5.14227 5.77066 8.9672);
    }
    wall-8
    {
        type            calculated;
        value           uniform 0;
    }
    frontAndBackPlanes
    {
        type            empty;
        value           nonuniform 0();
    }
}


// ************************************************************************* //
