/*--------------------------------*- C++ -*----------------------------------*\
  =========                 |
  \\      /  F ield         | OpenFOAM: The Open Source CFD Toolbox
   \\    /   O peration     | Website:  https://openfoam.org
    \\  /    A nd           | Version:  6
     \\/     M anipulation  |
\*---------------------------------------------------------------------------*/
FoamFile
{
    version     2.0;
    format      ascii;
    class       volScalarField;
    location    "9.5";
    object      Ma;
}
// * * * * * * * * * * * * * * * * * * * * * * * * * * * * * * * * * * * * * //

dimensions      [0 0 0 0 0 0 0];

internalField   nonuniform List<scalar> 
26250
(
3.04873
3.07463
3.10647
3.12406
3.14956
3.15859
3.16702
3.15512
3.11828
2.9891
2.7203
2.00827
1.0292
0.50722
0.548475
0.621055
0.671461
0.675236
0.653377
0.616753
0.608552
0.579342
0.504803
0.354064
0.229422
3.04869
3.07463
3.1065
3.12406
3.14955
3.15864
3.16713
3.1553
3.11861
2.99013
2.72221
2.01355
1.03892
0.523701
0.559269
0.628049
0.67784
0.679516
0.656832
0.632505
0.620125
0.590124
0.521513
0.379737
0.25542
3.04866
3.07466
3.1065
3.12405
3.14956
3.15868
3.16735
3.15553
3.11948
2.99119
2.72531
2.0164
1.0413
0.521687
0.557411
0.627093
0.67757
0.67925
0.658253
0.637268
0.622329
0.592475
0.525133
0.386026
0.261778
3.04853
3.07489
3.10625
3.12425
3.14937
3.15915
3.16819
3.15645
3.12396
2.99452
2.73665
2.02515
1.04261
0.532645
0.564422
0.632334
0.681543
0.682171
0.659205
0.631492
0.620086
0.589906
0.520475
0.379923
0.255616
3.04518
3.07821
3.10258
3.12792
3.14568
3.16309
3.16512
3.1589
3.11592
3.02019
2.69614
2.07198
1.08731
0.556668
0.58116
0.643126
0.686599
0.684648
0.660853
0.638907
0.625154
0.593608
0.522608
0.382121
0.258642
3.0484
3.07496
3.10606
3.12438
3.1492
3.15969
3.16975
3.15804
3.12984
3.00026
2.74895
2.04751
1.07829
0.576969
0.595875
0.655343
0.700033
0.697822
0.675434
0.655973
0.639957
0.607375
0.536659
0.397584
0.273724
3.04458
3.07894
3.10203
3.12867
3.14509
3.16446
3.16677
3.16235
3.11904
3.02645
2.71507
2.10555
1.12757
0.600196
0.610369
0.665548
0.707434
0.705457
0.685359
0.669034
0.654239
0.623229
0.555821
0.420032
0.299413
3.048
3.07536
3.10572
3.12458
3.14914
3.16011
3.17048
3.1598
3.13056
3.0089
2.76685
2.08077
1.12964
0.625201
0.6271
0.677028
0.719176
0.717746
0.699659
0.685505
0.67233
0.644214
0.582222
0.454234
0.344415
3.04773
3.07556
3.10542
3.12502
3.14894
3.16048
3.17064
3.1607
3.13007
3.01507
2.77735
2.10926
1.17248
0.658815
0.649421
0.694518
0.733613
0.732146
0.716527
0.705233
0.694808
0.671824
0.619283
0.508254
0.425346
3.04743
3.07574
3.10545
3.12522
3.14884
3.16108
3.17211
3.16256
3.13621
3.02351
2.79645
2.14365
1.20904
0.697662
0.67686
0.716097
0.750354
0.748614
0.737282
0.730945
0.725479
0.71152
0.675705
0.599625
0.585857
2.96776
2.95187
2.94124
2.93498
2.92918
2.92395
2.9089
2.88364
2.807
2.64443
2.27914
1.50437
0.415872
0.175975
0.066633
0.278873
0.332932
0.298428
0.239493
0.14975
0.162423
0.134876
0.0561426
0.0405161
0.091273
2.96776
2.95187
2.94125
2.93498
2.92918
2.92395
2.90895
2.88374
2.80729
2.64508
2.28052
1.5095
0.42483
0.149346
0.0803619
0.286519
0.336065
0.303606
0.258245
0.207083
0.183408
0.146548
0.0816135
0.0623695
0.111525
2.96777
2.95187
2.94126
2.93498
2.92919
2.92396
2.90904
2.88397
2.80786
2.64639
2.28317
1.51268
0.427298
0.159369
0.0902512
0.293315
0.339502
0.308642
0.268337
0.22996
0.203266
0.167536
0.116805
0.0988489
0.126442
2.96778
2.95187
2.94125
2.93497
2.92919
2.92398
2.90919
2.8844
2.80875
2.64877
2.28715
1.51995
0.4388
0.143643
0.110699
0.304727
0.345444
0.313736
0.272719
0.208659
0.210932
0.190601
0.155457
0.139799
0.143525
2.96766
2.95186
2.94119
2.9349
2.92922
2.92405
2.90983
2.88441
2.8153
2.64257
2.30051
1.52021
0.428387
0.150906
0.130534
0.316493
0.353242
0.32344
0.28845
0.252044
0.241367
0.223151
0.196648
0.183197
0.171156
2.9678
2.95185
2.94126
2.93493
2.92922
2.92405
2.90969
2.88562
2.81165
2.6558
2.30091
1.54593
0.47274
0.127911
0.159256
0.333913
0.366035
0.338967
0.309873
0.284396
0.273763
0.259947
0.241467
0.230266
0.210688
2.96764
2.95187
2.9412
2.93489
2.92927
2.92415
2.91047
2.88597
2.81904
2.65188
2.31965
1.55853
0.475525
0.129913
0.186278
0.351101
0.379886
0.356451
0.332872
0.314227
0.307808
0.301116
0.291128
0.28317
0.26521
2.9678
2.95184
2.94126
2.9349
2.92929
2.92422
2.91053
2.88743
2.81654
2.66686
2.32578
1.59469
0.533044
0.12733
0.218489
0.371358
0.39607
0.37598
0.357495
0.344959
0.343913
0.345887
0.346082
0.345047
0.340612
2.96779
2.95181
2.94126
2.93493
2.92935
2.92435
2.91111
2.88861
2.81984
2.67405
2.34243
1.62608
0.577852
0.139673
0.252954
0.392266
0.412495
0.39633
0.383234
0.376659
0.382421
0.393957
0.40746
0.42213
0.446917
2.96777
2.9518
2.9413
2.93494
2.92941
2.92463
2.91197
2.89007
2.82456
2.68007
2.36134
1.65838
0.626102
0.16643
0.290142
0.41284
0.428304
0.416795
0.408988
0.408437
0.421995
0.444984
0.477392
0.517263
0.621728
2.98526
2.97067
2.95055
2.93592
2.9181
2.90558
2.88308
2.84803
2.75613
2.56679
2.17348
1.31101
0.189029
0.445716
0.0290501
0.201732
0.214542
0.167378
0.136955
0.0764189
0.067028
0.0812735
0.091306
0.0610742
0.0699947
2.98523
2.9707
2.95052
2.93594
2.91808
2.9056
2.88307
2.84824
2.75597
2.56826
2.17339
1.31013
0.192509
0.439344
0.0405635
0.211283
0.218322
0.168339
0.135427
0.0697447
0.106781
0.11734
0.127165
0.10483
0.0881513
2.98526
2.97067
2.95056
2.9359
2.9181
2.90561
2.88322
2.84832
2.75688
2.56831
2.17668
1.31612
0.199219
0.433297
0.0638333
0.223876
0.22447
0.174252
0.136829
0.0958842
0.144901
0.154346
0.166752
0.153091
0.128903
2.98523
2.97071
2.95053
2.93591
2.91808
2.90566
2.88334
2.84879
2.75739
2.57121
2.17964
1.3211
0.212142
0.417038
0.0899348
0.239124
0.234476
0.188672
0.157355
0.135821
0.184504
0.193959
0.207869
0.20119
0.174524
2.98521
2.97074
2.95049
2.93592
2.91806
2.90574
2.88355
2.84944
2.75836
2.57514
2.18492
1.33054
0.231462
0.394509
0.116804
0.255169
0.247607
0.208781
0.185836
0.176519
0.2236
0.234595
0.249996
0.250251
0.223566
2.98524
2.97072
2.95048
2.9359
2.91811
2.90584
2.88395
2.85008
2.76056
2.57854
2.19472
1.34933
0.256036
0.37253
0.144699
0.272114
0.263285
0.232447
0.218438
0.218678
0.263709
0.276952
0.294514
0.302624
0.279194
2.98522
2.97071
2.95045
2.93595
2.91816
2.90599
2.88441
2.8511
2.76298
2.58474
2.20691
1.37245
0.287575
0.347133
0.173469
0.289463
0.280428
0.258045
0.252551
0.261333
0.303943
0.321498
0.342802
0.360968
0.345599
2.9852
2.97068
2.95051
2.93602
2.91823
2.90615
2.885
2.8522
2.76631
2.59097
2.2224
1.4019
0.323949
0.320579
0.203195
0.306364
0.297912
0.284128
0.286539
0.303291
0.342468
0.368623
0.395882
0.426876
0.427786
2.98516
2.97081
2.95055
2.93604
2.91824
2.90634
2.88564
2.8536
2.76962
2.59977
2.23882
1.43839
0.367077
0.291277
0.233461
0.321478
0.314597
0.309618
0.319355
0.343253
0.38103
0.416944
0.454569
0.502757
0.535595
2.98578
2.97033
2.95088
2.93573
2.91863
2.90636
2.88691
2.85525
2.77426
2.60733
2.25807
1.4821
0.416058
0.262713
0.264525
0.333792
0.329625
0.333876
0.349967
0.380103
0.419899
0.466132
0.519327
0.590587
0.70567
2.96777
2.9519
2.94126
2.93496
2.92919
2.92393
2.90889
2.88369
2.80699
2.64416
2.27794
1.49864
0.415268
0.153424
0.0732413
0.285389
0.340483
0.31119
0.270106
0.227403
0.202496
0.165677
0.0974307
0.0532643
0.138308
2.96763
2.9519
2.94118
2.93491
2.92921
2.92397
2.90942
2.88324
2.81258
2.63529
2.28591
1.48521
0.385108
0.202466
0.0696797
0.281067
0.330576
0.295639
0.238494
0.136912
0.154759
0.134114
0.0785322
0.0717418
0.104506
2.96779
2.95188
2.94125
2.93496
2.92919
2.92393
2.909
2.88403
2.80761
2.64595
2.28066
1.50105
0.419647
0.156325
0.0916628
0.292684
0.335511
0.300101
0.250753
0.181328
0.176442
0.149632
0.110305
0.10908
0.119248
2.96762
2.95191
2.94118
2.93491
2.92919
2.92398
2.90953
2.88377
2.81352
2.63859
2.29247
1.49951
0.406695
0.166301
0.106514
0.301768
0.341315
0.308586
0.269397
0.228935
0.20776
0.179628
0.149182
0.14701
0.14414
2.96761
2.9519
2.94117
2.9349
2.9292
2.92401
2.90967
2.88427
2.81453
2.64163
2.29875
1.51167
0.423537
0.15011
0.131586
0.315368
0.350394
0.319714
0.284863
0.245884
0.235245
0.214615
0.191051
0.187517
0.174795
2.96765
2.95187
2.94118
2.9349
2.92922
2.92408
2.90995
2.88496
2.81636
2.64596
2.30758
1.53054
0.445152
0.143463
0.15811
0.331666
0.363051
0.335088
0.305467
0.278716
0.268627
0.254182
0.236721
0.232661
0.214674
2.96779
2.95185
2.94127
2.93493
2.92923
2.92412
2.91
2.88628
2.81365
2.66009
2.31184
1.56952
0.501387
0.126955
0.189263
0.351921
0.379518
0.354494
0.329934
0.310698
0.304136
0.297277
0.287006
0.284152
0.268572
2.96778
2.95185
2.94126
2.93493
2.92928
2.92422
2.91049
2.88731
2.81649
2.66638
2.3263
1.59738
0.53677
0.126166
0.220638
0.372967
0.396954
0.375705
0.356264
0.343126
0.341863
0.34349
0.342908
0.34513
0.34304
2.96778
2.95182
2.94126
2.93493
2.92935
2.92436
2.91109
2.88855
2.81969
2.67384
2.34203
1.6258
0.578033
0.139189
0.254162
0.393853
0.413696
0.396937
0.382986
0.375754
0.380983
0.392676
0.405423
0.421723
0.448521
2.96776
2.95182
2.94131
2.93494
2.92941
2.92462
2.91193
2.88998
2.82436
2.67968
2.36076
1.65792
0.626336
0.166579
0.29133
0.41416
0.429297
0.417658
0.409553
0.408507
0.421356
0.444067
0.476066
0.516879
0.622577
3.04859
3.07481
3.10645
3.12399
3.14963
3.15883
3.16787
3.15568
3.12236
2.98953
2.72492
2.00876
1.02128
0.522011
0.563043
0.636314
0.691371
0.698315
0.682885
0.665552
0.650374
0.616454
0.544105
0.402079
0.27937
3.04474
3.0789
3.10206
3.12859
3.14501
3.16403
3.16481
3.15955
3.11237
3.01277
2.6808
2.0387
1.04914
0.508169
0.541873
0.612681
0.659174
0.659597
0.637454
0.605414
0.596121
0.562274
0.481972
0.330792
0.217831
3.04865
3.07479
3.10631
3.12412
3.1495
3.15908
3.16865
3.15629
3.12599
2.99163
2.73314
2.01217
1.01682
0.520857
0.561938
0.633741
0.682913
0.683034
0.659289
0.632687
0.621542
0.587471
0.508661
0.360558
0.236597
3.04462
3.07902
3.10198
3.12866
3.14492
3.16402
3.16471
3.15831
3.11303
3.00993
2.68573
2.06412
1.06163
0.537465
0.572524
0.639483
0.684103
0.682739
0.660306
0.640514
0.62699
0.59349
0.5187
0.375133
0.251097
3.04446
3.07913
3.10188
3.12876
3.14482
3.16422
3.16471
3.159
3.11308
3.00792
2.69461
2.08325
1.06254
0.547833
0.577671
0.64266
0.686179
0.684588
0.662539
0.641403
0.626929
0.593697
0.520946
0.380203
0.25772
3.0451
3.07827
3.10253
3.12795
3.14563
3.16316
3.16497
3.15865
3.11609
3.01683
2.70288
2.09178
1.08942
0.569731
0.591598
0.652407
0.694762
0.692672
0.671257
0.652459
0.636428
0.602749
0.53137
0.392264
0.270588
3.04826
3.07503
3.10609
3.12433
3.14925
3.15949
3.16922
3.15801
3.12731
3.00237
2.75442
2.06207
1.10569
0.596574
0.608387
0.664289
0.70833
0.706471
0.68647
0.669291
0.653138
0.620223
0.551794
0.415817
0.296859
3.04797
3.07536
3.10575
3.12459
3.14913
3.15975
3.16961
3.1591
3.12681
3.00798
2.76268
2.08342
1.13705
0.625839
0.626369
0.677405
0.720807
0.719737
0.702362
0.688157
0.674299
0.644784
0.581801
0.453205
0.343587
3.04767
3.07558
3.10546
3.12499
3.14897
3.16042
3.17048
3.16048
3.12977
3.01459
2.77692
2.10807
1.17106
0.659098
0.649481
0.695206
0.735093
0.733603
0.718992
0.708411
0.697998
0.674607
0.621482
0.50994
0.425624
3.04742
3.07574
3.10554
3.12513
3.14886
3.16108
3.17185
3.16223
3.1354
3.02302
2.7962
2.1414
1.20763
0.697581
0.677428
0.717064
0.751601
0.749698
0.738787
0.732745
0.727928
0.714275
0.678365
0.602139
0.586588
3.04479
3.07882
3.10243
3.12843
3.14552
3.16477
3.16989
3.16675
3.13049
3.04925
2.77324
2.23738
1.28627
0.730579
0.699045
0.733695
0.763347
0.763111
0.758033
0.757149
0.759826
0.758559
0.751582
0.745006
0.777765
3.04742
3.07595
3.10511
3.1257
3.14823
3.16257
3.17447
3.16622
3.14419
3.04239
2.83167
2.23739
1.31054
0.783414
0.739579
0.762202
0.782735
0.78535
0.785659
0.790273
0.798652
0.806836
0.818129
0.844516
0.907126
3.04489
3.07836
3.10266
3.12816
3.14568
3.16512
3.17209
3.16985
3.13932
3.07183
2.82377
2.35948
1.42284
0.824199
0.7703
0.783023
0.799204
0.810004
0.817885
0.827776
0.838509
0.851063
0.870557
0.904927
0.970936
3.04765
3.07609
3.1049
3.12588
3.14821
3.1629
3.17615
3.1691
3.15278
3.07155
2.89049
2.37081
1.50206
0.897292
0.807943
0.805899
0.819948
0.839403
0.853234
0.862722
0.872506
0.88642
0.909595
0.944258
1.00465
3.04797
3.07565
3.10536
3.12555
3.14839
3.16324
3.17707
3.17054
3.16197
3.09225
2.94584
2.48184
1.69046
0.985584
0.841258
0.832655
0.849714
0.876114
0.887366
0.891262
0.898058
0.911795
0.935568
0.968837
1.02181
3.04504
3.07855
3.10235
3.12849
3.1456
3.16644
3.17482
3.17998
3.16632
3.12206
2.98292
2.64348
1.94888
1.10876
0.877645
0.86082
0.877571
0.902739
0.912001
0.912447
0.917702
0.931846
0.954349
0.986516
1.03158
3.04512
3.07845
3.10256
3.12824
3.14591
3.16623
3.17646
3.18379
3.17362
3.14112
3.02687
2.77811
2.13961
1.26076
0.879248
0.856739
0.875995
0.905553
0.919193
0.923437
0.93088
0.945987
0.968025
0.998395
1.03887
3.04535
3.07823
3.10279
3.12808
3.14611
3.16606
3.1776
3.18642
3.17849
3.15022
3.05352
2.8329
2.2526
1.37453
0.884244
0.849901
0.872296
0.90084
0.919792
0.929372
0.939709
0.95556
0.977377
1.00623
1.04232
3.04553
3.0781
3.10298
3.12788
3.14645
3.16575
3.17881
3.18915
3.18255
3.16032
3.07715
2.88535
2.38061
1.50734
0.945135
0.872284
0.881408
0.901482
0.924375
0.938442
0.950891
0.966464
0.987162
1.0131
1.04483
3.04651
3.07701
3.10413
3.12662
3.14782
3.1643
3.18066
3.18888
3.188
3.16719
3.11356
2.93508
2.56036
1.77925
1.06305
0.908065
0.904715
0.919091
0.94314
0.961934
0.974926
0.98807
1.00524
1.02596
1.0519
3.04548
3.07811
3.10295
3.12785
3.14651
3.16571
3.17933
3.19136
3.18759
3.18027
3.12904
3.0083
2.69378
1.98848
1.19214
0.955425
0.94309
0.953007
0.97458
0.993992
1.00525
1.0158
1.02877
1.04605
1.06723
3.04788
3.0756
3.10558
3.12518
3.14922
3.16301
3.18229
3.18931
3.19511
3.18505
3.15434
3.04825
2.81043
2.22569
1.36379
0.973068
0.946619
0.960874
0.984689
1.00665
1.01945
1.03028
1.0429
1.05876
1.07825
3.04514
3.07852
3.10247
3.12842
3.14591
3.16656
3.17881
3.19418
3.19546
3.19188
3.1589
3.07683
2.85683
2.34562
1.52257
0.982533
0.927317
0.94404
0.968289
0.994326
1.0119
1.02617
1.04124
1.05846
1.07832
3.04552
3.0781
3.10289
3.12801
3.1463
3.16617
3.1793
3.19431
3.19819
3.19614
3.17032
3.10728
2.91373
2.53192
1.6915
1.06214
0.936054
0.936135
0.953458
0.976286
0.997596
1.01447
1.03108
1.04933
1.06972
3.04585
3.07776
3.10326
3.12763
3.14667
3.1658
3.17972
3.19431
3.2004
3.19925
3.17964
3.12884
2.97373
2.66176
1.90733
1.17961
0.966873
0.953217
0.961588
0.979717
0.999483
1.01525
1.03053
1.04738
1.0663
3.04631
3.07727
3.10376
3.1271
3.14718
3.16531
3.18019
3.19434
3.2023
3.20179
3.18845
3.14736
3.03138
2.77436
2.15229
1.31441
0.995157
0.967422
0.974627
0.99288
1.01302
1.02714
1.04007
1.05451
1.07109
3.04651
3.07706
3.10395
3.12683
3.14738
3.16497
3.18051
3.19395
3.20339
3.20316
3.19399
3.16187
3.06697
2.85129
2.29799
1.46529
0.998123
0.943119
0.956032
0.978176
1.00348
1.02152
1.03674
1.0523
1.06919
3.04487
3.07877
3.10219
3.12871
3.14557
3.1669
3.17877
3.19577
3.20185
3.20565
3.19839
3.17093
3.0875
2.89186
2.39409
1.55972
0.993657
0.908532
0.921525
0.944081
0.971905
0.996918
1.01672
1.03516
1.05399
3.04489
3.07872
3.10225
3.12864
3.14564
3.16685
3.17881
3.19589
3.20225
3.20815
3.20185
3.17887
3.107
2.93932
2.50423
1.70322
1.04322
0.897202
0.898683
0.917401
0.945215
0.973614
0.995959
1.01574
1.03538
3.04521
3.0784
3.10259
3.1283
3.146
3.16652
3.17916
3.19561
3.203
3.2096
3.20422
3.18517
3.12643
2.98039
2.62183
1.87799
1.11379
0.896033
0.889001
0.905516
0.934641
0.964949
0.98729
1.00616
1.02469
3.0456
3.07802
3.10299
3.12789
3.14643
3.16609
3.17961
3.19521
3.20403
3.2109
3.20661
3.19122
3.14467
3.01727
2.73209
2.05995
1.21691
0.903563
0.887434
0.906739
0.939599
0.970908
0.991486
1.00787
1.02403
3.04568
3.07789
3.10319
3.12762
3.14678
3.16564
3.18014
3.19481
3.20512
3.21358
3.21053
3.19819
3.15577
3.05428
2.78034
2.23162
1.33333
0.899609
0.869541
0.895116
0.932758
0.967136
0.988422
1.00439
1.01987
3.04566
3.07795
3.10309
3.12779
3.14657
3.16588
3.17996
3.19496
3.20515
3.21426
3.21068
3.2025
3.16441
3.07104
2.81554
2.30245
1.38727
0.869269
0.830173
0.859792
0.900327
0.938724
0.96333
0.981933
0.999436
3.04581
3.07777
3.10326
3.12759
3.14674
3.16569
3.1801
3.19483
3.2053
3.21454
3.21216
3.20611
3.17082
3.08569
2.84104
2.36846
1.44552
0.880548
0.818463
0.839056
0.872304
0.908331
0.933244
0.952877
0.971407
3.04544
3.0781
3.10293
3.12786
3.14649
3.16591
3.17992
3.19503
3.20526
3.2151
3.21397
3.20852
3.17635
3.09739
2.87042
2.42634
1.52826
0.910498
0.817187
0.827778
0.853871
0.886509
0.912263
0.932206
0.950147
3.04562
3.07806
3.10297
3.12789
3.14643
3.1661
3.17966
3.19543
3.20489
3.21573
3.21427
3.20757
3.17901
3.09922
2.90237
2.42233
1.62759
0.954887
0.8219
0.823814
0.843845
0.874835
0.903084
0.923428
0.940389
3.04532
3.07831
3.1028
3.12806
3.1464
3.16601
3.17989
3.19515
3.2052
3.21605
3.21627
3.21307
3.18701
3.12367
2.93532
2.56861
1.73802
1.00533
0.820306
0.819508
0.841334
0.877243
0.909945
0.931171
0.947237
3.04597
3.07761
3.10345
3.12739
3.14698
3.16544
3.18041
3.19459
3.20577
3.21552
3.21711
3.21338
3.19193
3.13004
2.97934
2.6031
1.91449
1.08264
0.832352
0.832985
0.859559
0.902919
0.937325
0.956125
0.968161
3.04573
3.07787
3.10316
3.1277
3.14668
3.16575
3.18013
3.1949
3.20559
3.21614
3.21894
3.21641
3.1991
3.14643
3.01808
2.70856
2.05386
1.14302
0.810123
0.809603
0.843403
0.895305
0.933465
0.951708
0.962108
3.04583
3.07778
3.10325
3.12764
3.1467
3.16579
3.18002
3.19508
3.20544
3.21678
3.22054
3.21945
3.20291
3.15729
3.03568
2.76511
2.11198
1.20978
0.774061
0.763653
0.80521
0.864329
0.906605
0.926001
0.936572
3.04592
3.07767
3.10336
3.12751
3.14682
3.16566
3.18015
3.19496
3.20558
3.21678
3.22123
3.22032
3.20495
3.16398
3.04612
2.79801
2.14307
1.23622
0.751092
0.732283
0.775392
0.835479
0.879451
0.899931
0.911072
3.04597
3.07762
3.10341
3.12746
3.14688
3.1656
3.1802
3.1949
3.20565
3.21676
3.22157
3.22075
3.20662
3.16442
3.05368
2.78926
2.15411
1.24714
0.740933
0.717175
0.758526
0.816799
0.861699
0.883607
0.895658
3.04603
3.07756
3.10348
3.12738
3.14696
3.16552
3.18028
3.19483
3.20574
3.21678
3.22201
3.22137
3.20778
3.17021
3.06083
2.82572
2.18749
1.29331
0.75933
0.726405
0.761925
0.815366
0.860065
0.882476
0.894372
3.04606
3.07753
3.10351
3.12735
3.14699
3.16548
3.18032
3.19479
3.20578
3.21678
3.22218
3.2216
3.20859
3.17217
3.06595
2.83686
2.2119
1.32618
0.775975
0.73744
0.76907
0.819402
0.864998
0.888299
0.900247
3.04608
3.07751
3.10354
3.12732
3.14702
3.16545
3.18035
3.19476
3.20581
3.21676
3.22226
3.22168
3.20896
3.1742
3.06874
2.84968
2.22948
1.34964
0.791151
0.74923
0.777548
0.824847
0.870407
0.89428
0.906476
3.0461
3.07749
3.10356
3.12731
3.14703
3.16544
3.18036
3.19475
3.20583
3.21676
3.22239
3.22187
3.20954
3.17447
3.07173
2.84948
2.24189
1.36029
0.795342
0.751339
0.77743
0.822471
0.867272
0.891549
0.904219
3.0461
3.07748
3.10356
3.1273
3.14704
3.16543
3.18037
3.19474
3.20583
3.21673
3.22237
3.22182
3.20981
3.17305
3.07193
2.8358
2.24252
1.35015
0.807503
0.761719
0.785689
0.827922
0.87061
0.894052
0.90633
3.04611
3.07747
3.10358
3.12728
3.14706
3.16541
3.18039
3.19471
3.20586
3.21673
3.22245
3.22194
3.20981
3.17631
3.07363
2.86038
2.25457
1.37962
0.809463
0.762901
0.786989
0.828587
0.87058
0.8943
0.907388
3.04612
3.07747
3.10358
3.12728
3.14705
3.16541
3.18038
3.19472
3.20585
3.21671
3.22237
3.22185
3.20987
3.17449
3.07368
2.84706
2.25472
1.36668
0.821706
0.773638
0.79583
0.835003
0.875097
0.897919
0.910462
3.0461
3.07749
3.10356
3.12731
3.14703
3.16544
3.18036
3.19474
3.20583
3.21671
3.22229
3.22172
3.20974
3.17296
3.07312
2.83845
2.25331
1.358
0.817365
0.771057
0.793338
0.832124
0.871712
0.89444
0.906901
2.9683
2.95123
2.94185
2.93431
2.93013
2.92451
2.91583
2.88672
2.83355
2.68805
2.37004
1.67699
0.634741
0.201573
0.327016
0.428073
0.441323
0.436665
0.43471
0.440681
0.461821
0.496401
0.551485
0.629948
0.787128
2.96842
2.95116
2.94199
2.93427
2.93033
2.9247
2.91679
2.88962
2.83867
2.70359
2.39101
1.73087
0.71225
0.255927
0.365455
0.435008
0.451466
0.456645
0.461032
0.472442
0.500618
0.545539
0.614309
0.711121
0.855201
2.96818
2.95127
2.94194
2.93425
2.93039
2.92476
2.91757
2.89168
2.84572
2.71423
2.42856
1.79443
0.781634
0.325068
0.396511
0.431138
0.461698
0.478973
0.488121
0.503047
0.535981
0.587856
0.661086
0.754804
0.871137
2.96824
2.95142
2.94176
2.93449
2.93026
2.92529
2.91897
2.89709
2.85242
2.74187
2.46046
1.87415
0.9081
0.410718
0.413182
0.427645
0.476085
0.5042
0.516215
0.532601
0.567037
0.620469
0.692356
0.778302
0.877889
2.96813
2.95176
2.94146
2.93492
2.92987
2.92606
2.91835
2.9041
2.86174
2.75869
2.53319
1.95056
1.06081
0.51268
0.426763
0.432449
0.496729
0.530958
0.543406
0.55944
0.59444
0.64592
0.711763
0.788798
0.877733
2.96827
2.95126
2.94185
2.93436
2.93036
2.92579
2.92124
2.9046
2.8745
2.78473
2.58661
2.11037
1.2542
0.627157
0.443743
0.448915
0.524413
0.55824
0.568418
0.583074
0.617695
0.665494
0.724339
0.79309
0.872551
2.96819
2.95135
2.94179
2.93443
2.93036
2.92595
2.92209
2.90866
2.88565
2.8115
2.65716
2.26396
1.53414
0.726758
0.461572
0.481452
0.551265
0.579101
0.587725
0.601877
0.634038
0.677748
0.730916
0.793358
0.86341
2.96801
2.95153
2.94161
2.93465
2.93014
2.92647
2.92285
2.91499
2.89084
2.83591
2.71186
2.36871
1.73904
0.809157
0.463558
0.508003
0.557227
0.585566
0.598098
0.613754
0.642913
0.682695
0.732086
0.788461
0.850365
2.96779
2.95176
2.94141
2.93486
2.92999
2.9267
2.92303
2.91683
2.89613
2.85019
2.74156
2.4463
1.87548
0.919646
0.508202
0.520646
0.545435
0.581218
0.600577
0.61891
0.646003
0.683114
0.728204
0.778674
0.834219
2.96756
2.95204
2.94113
2.93517
2.92971
2.92704
2.92296
2.91795
2.89849
2.86408
2.76507
2.5246
2.03448
1.08117
0.595262
0.514895
0.531801
0.572867
0.600793
0.621209
0.646796
0.680547
0.720286
0.76538
0.815303
2.96799
2.9516
2.94156
2.93473
2.93018
2.92652
2.92375
2.9177
2.90657
2.87206
2.7925
2.61153
2.13848
1.32941
0.695192
0.520267
0.533424
0.575577
0.608084
0.627967
0.649656
0.677903
0.71212
0.752384
0.796952
2.96822
2.95144
2.94174
2.93462
2.93032
2.92651
2.92409
2.91934
2.91059
2.88217
2.82061
2.67537
2.29992
1.59466
0.80336
0.549502
0.558997
0.590447
0.620422
0.637105
0.653672
0.676497
0.705725
0.740904
0.780352
2.96776
2.95181
2.94134
2.93493
2.92996
2.92689
2.9239
2.92118
2.91195
2.89214
2.84352
2.70983
2.43617
1.80209
0.901163
0.556533
0.56745
0.59474
0.626509
0.64229
0.656119
0.675458
0.700573
0.731118
0.765946
2.96761
2.95199
2.94115
2.93515
2.92975
2.9271
2.92392
2.92166
2.91522
2.89549
2.85389
2.75007
2.48117
1.9531
1.02401
0.596498
0.559635
0.584545
0.615519
0.636994
0.653031
0.671362
0.694391
0.721721
0.752949
2.968
2.9516
2.94153
2.93477
2.93013
2.92674
2.92433
2.92165
2.91675
2.89921
2.8664
2.77792
2.55081
2.10661
1.21588
0.676147
0.542594
0.56192
0.594579
0.624545
0.645334
0.665044
0.687631
0.713269
0.742035
2.96823
2.95139
2.94175
2.93457
2.93033
2.92657
2.92453
2.92173
2.91783
2.9026
2.87728
2.79987
2.62895
2.25244
1.43595
0.775045
0.546576
0.553827
0.584057
0.618608
0.640899
0.660422
0.682001
0.706258
0.733029
2.96833
2.95129
2.94185
2.93446
2.93043
2.92646
2.92465
2.92177
2.91881
2.90675
2.88633
2.82291
2.68942
2.3787
1.73449
0.890379
0.566278
0.561354
0.585752
0.621299
0.642467
0.660303
0.68008
0.702408
0.727126
2.9678
2.95175
2.94137
2.93489
2.92998
2.92689
2.92419
2.92236
2.91864
2.91168
2.88965
2.84102
2.72789
2.43492
1.85366
0.959976
0.556234
0.544086
0.575031
0.612357
0.638161
0.658442
0.678465
0.699864
0.723089
2.96813
2.95143
2.9417
2.93456
2.93032
2.92654
2.92461
2.92206
2.91983
2.91111
2.89664
2.84909
2.7495
2.5165
1.95572
1.09767
0.58369
0.512511
0.543297
0.585318
0.622853
0.649758
0.672427
0.694705
0.717827
2.96813
2.95144
2.94169
2.93458
2.93032
2.92657
2.92461
2.92216
2.92005
2.91252
2.90014
2.85762
2.77493
2.57074
2.07377
1.25469
0.634013
0.468636
0.498772
0.553272
0.604974
0.638102
0.663145
0.686489
0.710157
2.96812
2.95147
2.94168
2.93461
2.93031
2.92661
2.92459
2.92226
2.92034
2.91402
2.90344
2.8665
2.79811
2.61735
2.20083
1.4338
0.688629
0.436857
0.469817
0.538682
0.596859
0.630853
0.655399
0.678404
0.701973
2.96807
2.95152
2.94164
2.93465
2.93028
2.92664
2.92458
2.92235
2.92061
2.91541
2.90629
2.87526
2.81697
2.66001
2.31273
1.61305
0.753415
0.43942
0.476588
0.54271
0.598673
0.629706
0.651775
0.673152
0.695601
2.96806
2.95153
2.94162
2.93467
2.93026
2.92666
2.92458
2.92239
2.92076
2.91616
2.90822
2.87965
2.82964
2.68618
2.37975
1.7284
0.782853
0.409548
0.460301
0.523986
0.585124
0.618964
0.642313
0.664232
0.686816
2.96805
2.95154
2.94161
2.93468
2.93024
2.92668
2.92457
2.92244
2.92092
2.91696
2.90969
2.88459
2.83756
2.71126
2.41307
1.80885
0.839456
0.402264
0.430587
0.491525
0.557715
0.597448
0.625199
0.649787
0.673758
2.96801
2.95156
2.94158
2.93469
2.93022
2.92668
2.92456
2.92247
2.92103
2.91752
2.91098
2.88777
2.84551
2.72963
2.45063
1.89724
0.910857
0.422276
0.397019
0.452663
0.520757
0.569088
0.602973
0.63071
0.656148
2.96775
2.95184
2.94131
2.93496
2.92996
2.92696
2.92429
2.92281
2.92091
2.91905
2.91142
2.89494
2.85515
2.74326
2.52011
1.91829
0.993219
0.448118
0.358806
0.40713
0.480871
0.541303
0.581577
0.611603
0.637809
2.96792
2.95164
2.9415
2.93477
2.93014
2.92674
2.92451
2.92254
2.92128
2.91866
2.91316
2.89668
2.85798
2.768
2.51702
2.0378
1.11687
0.501748
0.320748
0.364248
0.454633
0.526262
0.569489
0.599134
0.62444
2.96773
2.95186
2.9413
2.935
2.92992
2.927
2.92426
2.92286
2.92095
2.91933
2.91275
2.90043
2.86568
2.77779
2.59004
2.09324
1.24038
0.543121
0.285262
0.336213
0.452281
0.531535
0.574133
0.600882
0.623345
2.96773
2.95185
2.94129
2.935
2.92991
2.92701
2.92424
2.92288
2.92096
2.91941
2.9133
2.90285
2.86934
2.79497
2.62465
2.19136
1.41215
0.590188
0.275257
0.338136
0.469886
0.550902
0.589326
0.611004
0.629348
2.96774
2.95184
2.94131
2.93498
2.92993
2.92699
2.92428
2.92284
2.92115
2.91972
2.91579
2.90185
2.87827
2.80771
2.65156
2.30675
1.58941
0.659587
0.267748
0.344683
0.477261
0.559735
0.59566
0.613777
0.629275
2.96771
2.95186
2.94128
2.935
2.92991
2.927
2.92426
2.92286
2.92115
2.91982
2.91625
2.90368
2.88153
2.8172
2.66619
2.33774
1.64933
0.668418
0.221919
0.320808
0.457047
0.545586
0.584475
0.603216
0.618681
2.96783
2.95176
2.94139
2.93491
2.93
2.92693
2.92432
2.92283
2.92111
2.91986
2.91557
2.90703
2.8841
2.82369
2.69955
2.33964
1.69421
0.687238
0.196876
0.298311
0.431941
0.524504
0.567883
0.589185
0.605552
2.96777
2.95182
2.94133
2.93496
2.92995
2.92697
2.92429
2.92284
2.92118
2.91992
2.91666
2.90468
2.88502
2.82354
2.68908
2.38544
1.71846
0.740245
0.210089
0.292035
0.409911
0.50731
0.555496
0.579047
0.595772
2.96779
2.9518
2.94135
2.93495
2.92997
2.92695
2.92431
2.92283
2.92121
2.91997
2.91678
2.90473
2.88593
2.82389
2.69772
2.40079
1.74192
0.774558
0.226333
0.289503
0.395329
0.496274
0.548288
0.573463
0.59023
2.96782
2.95177
2.94138
2.93491
2.92999
2.92692
2.92433
2.9228
2.92123
2.91995
2.91693
2.90548
2.88666
2.82777
2.69817
2.40441
1.74946
0.779669
0.232173
0.28145
0.379182
0.483716
0.539333
0.566512
0.583944
2.96788
2.95172
2.94143
2.93487
2.93004
2.92688
2.92438
2.92276
2.92128
2.9199
2.91701
2.90575
2.88755
2.82954
2.70352
2.41762
1.76951
0.805205
0.249752
0.284238
0.374294
0.477865
0.534304
0.562165
0.579669
2.96786
2.95173
2.94141
2.93488
2.93002
2.9269
2.92434
2.92281
2.92116
2.91996
2.91619
2.90854
2.88835
2.83368
2.72289
2.39169
1.7942
0.812253
0.256432
0.283035
0.370633
0.472552
0.529193
0.557499
0.57501
2.96795
2.95164
2.9415
2.9348
2.93011
2.92681
2.92444
2.9227
2.92134
2.91977
2.91712
2.90732
2.88804
2.836
2.70316
2.42273
1.77639
0.806931
0.260494
0.281767
0.366617
0.466883
0.523392
0.551942
0.569721
2.96784
2.95175
2.94139
2.9349
2.93
2.92693
2.92432
2.92283
2.92113
2.91985
2.91591
2.90876
2.88668
2.8352
2.72012
2.40023
1.81658
0.799916
0.254264
0.271982
0.357699
0.458351
0.515416
0.544572
0.562893
2.96783
2.95176
2.94138
2.93492
2.92999
2.92694
2.92431
2.92284
2.92111
2.91983
2.91583
2.90871
2.8863
2.83499
2.71868
2.40026
1.81299
0.803611
0.252753
0.269605
0.354552
0.454663
0.511745
0.540985
0.559431
2.98644
2.9696
2.95171
2.93475
2.91967
2.90506
2.88793
2.8495
2.78431
2.61571
2.25962
1.52008
0.445192
0.251175
0.293716
0.340429
0.342502
0.356254
0.378166
0.41336
0.457665
0.513873
0.585566
0.682997
0.853925
2.98674
2.96921
2.95212
2.9344
2.92
2.90511
2.88849
2.85221
2.78956
2.62849
2.29071
1.56227
0.500972
0.255428
0.317999
0.340856
0.3543
0.376998
0.403771
0.442767
0.492486
0.557178
0.641317
0.75064
0.902615
2.98687
2.9695
2.95161
2.93485
2.91959
2.90562
2.89021
2.86195
2.79237
2.64713
2.33907
1.63422
0.600185
0.278027
0.336621
0.334569
0.366166
0.397089
0.42646
0.467339
0.521838
0.59216
0.679522
0.784221
0.906128
2.98743
2.96853
2.95244
2.93424
2.91999
2.90585
2.89114
2.86571
2.80122
2.6681
2.38206
1.71756
0.697102
0.331902
0.343646
0.324947
0.380412
0.417674
0.446897
0.487499
0.545135
0.618271
0.702769
0.7971
0.899321
2.98634
2.96966
2.95145
2.93498
2.91965
2.90593
2.89208
2.86644
2.81574
2.70092
2.41212
1.84335
0.829479
0.407938
0.346056
0.325951
0.4001
0.439535
0.465767
0.50438
0.564008
0.63659
0.715446
0.799935
0.888685
2.9875
2.96848
2.95274
2.9338
2.92077
2.90525
2.89302
2.8686
2.82767
2.72271
2.48368
1.9769
1.01367
0.506701
0.355818
0.341786
0.426563
0.463199
0.484223
0.520497
0.579632
0.649368
0.722478
0.79944
0.876884
2.98714
2.96861
2.95273
2.9337
2.92096
2.90523
2.89434
2.87339
2.84109
2.75027
2.56511
2.12235
1.29766
0.597297
0.371159
0.378686
0.459281
0.487654
0.503834
0.537417
0.592792
0.656107
0.724005
0.795709
0.864967
2.98603
2.96991
2.95148
2.93493
2.92
2.906
2.89506
2.87766
2.84999
2.77554
2.62108
2.27483
1.56054
0.651177
0.376402
0.418765
0.480724
0.504337
0.521182
0.551809
0.600859
0.658301
0.72151
0.787077
0.850714
2.98554
2.97051
2.9508
2.93578
2.91898
2.90735
2.89384
2.88121
2.85618
2.79242
2.6585
2.37171
1.699
0.719063
0.406749
0.444459
0.474654
0.507346
0.531035
0.560129
0.603449
0.656619
0.714396
0.774891
0.83396
2.98603
2.96991
2.95139
2.93515
2.91955
2.9069
2.89413
2.88154
2.85574
2.81057
2.6935
2.41992
1.87523
0.851605
0.47668
0.433143
0.45043
0.500883
0.532184
0.561412
0.600933
0.649775
0.702335
0.759047
0.814775
2.98608
2.96981
2.95149
2.935
2.91971
2.90677
2.89452
2.88281
2.86242
2.82198
2.73088
2.49101
2.03817
1.08956
0.563177
0.416804
0.433559
0.494985
0.529711
0.558112
0.594412
0.638454
0.685655
0.738826
0.792662
2.98661