/*--------------------------------*- C++ -*----------------------------------*\
  =========                 |
  \\      /  F ield         | OpenFOAM: The Open Source CFD Toolbox
   \\    /   O peration     | Website:  https://openfoam.org
    \\  /    A nd           | Version:  6
     \\/     M anipulation  |
\*---------------------------------------------------------------------------*/
FoamFile
{
    version     2.0;
    format      ascii;
    class       volScalarField;
    location    "9.5";
    object      p;
}
// * * * * * * * * * * * * * * * * * * * * * * * * * * * * * * * * * * * * * //

dimensions      [1 -1 -2 0 0 0 0];

internalField   nonuniform List<scalar> 
26250
(
0.958052
0.910547
0.875572
0.843574
0.821152
0.797743
0.789804
0.794833
0.80228
0.913688
1.02387
1.82789
3.32569
7.79241
7.63813
7.16465
6.62343
6.54166
6.57807
6.66356
6.66699
6.71517
6.89475
7.34953
8.17751
0.95804
0.910556
0.875559
0.843592
0.82112
0.797777
0.789701
0.79468
0.802072
0.91292
1.02251
1.82182
3.30954
7.75359
7.62226
7.178
6.62865
6.53806
6.5667
6.63308
6.66336
6.7364
6.92371
7.36235
8.20896
0.958007
0.910586
0.875509
0.843656
0.821028
0.797859
0.789804
0.794109
0.801401
0.911976
1.02038
1.81651
3.29413
7.71767
7.58792
7.15402
6.61655
6.5258
6.55004
6.60627
6.64925
6.73621
6.93392
7.37397
8.22919
0.957887
0.910743
0.87537
0.843871
0.820744
0.798247
0.788383
0.792981
0.800037
0.907764
1.01212
1.80504
3.26844
7.65347
7.53419
7.11911
6.59809
6.51456
6.53999
6.59624
6.62775
6.71155
6.91698
7.37412
8.22978
0.957496
0.911267
0.875037
0.84425
0.820463
0.798431
0.788145
0.790862
0.820115
0.851176
1.12954
1.5886
3.37473
7.54104
7.46179
7.05634
6.56815
6.48995
6.51074
6.55531
6.59076
6.67928
6.89219
7.36083
8.22165
0.957703
0.910971
0.87513
0.844238
0.820262
0.798793
0.786651
0.791059
0.797362
0.902076
1.00226
1.78323
3.19943
7.45395
7.36761
7.02154
6.52832
6.44586
6.46154
6.49593
6.54027
6.63835
6.85719
7.32659
8.20458
0.957327
0.911514
0.874771
0.844638
0.819872
0.799096
0.785921
0.787839
0.817467
0.846717
1.11557
1.54724
3.27298
7.28932
7.25383
6.93424
6.47649
6.39155
6.40413
6.43435
6.47882
6.57878
6.79714
7.25804
8.15837
0.95766
0.911051
0.875019
0.844361
0.820028
0.799018
0.785997
0.790019
0.796361
0.896754
0.990775
1.74321
3.07097
7.16802
7.12472
6.87517
6.41926
6.32842
6.33891
6.36643
6.40557
6.49896
6.70364
7.13929
8.03691
0.957665
0.911047
0.874972
0.844426
0.819886
0.799145
0.785741
0.789684
0.795637
0.893591
0.985388
1.70667
2.97824
6.95934
6.99993
6.77943
6.35061
6.25922
6.26821
6.29116
6.32026
6.39551
6.56583
6.93759
7.75631
0.957539
0.911223
0.874828
0.844676
0.81952
0.799562
0.784098
0.787719
0.793163
0.886248
0.971698
1.6721
2.88578
6.72657
6.86955
6.67289
6.28112
6.19142
6.19771
6.20641
6.22144
6.26146
6.36329
6.58766
7.13596
1.03455
1.06958
1.0932
1.11022
1.12268
1.13479
1.14786
1.18623
1.24226
1.46774
1.84993
3.2824
7.08582
16.571
15.1958
13.6777
13.0575
13.0859
13.2295
13.4246
13.2624
13.3053
13.5776
14.1084
14.6232
1.03454
1.06958
1.09319
1.11023
1.12267
1.13479
1.14783
1.18611
1.24196
1.46701
1.8476
3.27623
7.06395
16.4624
15.1745
13.6553
13.0394
13.0669
13.189
13.2817
13.2557
13.3106
13.5573
14.0626
14.5927
1.03451
1.0696
1.09316
1.11025
1.12264
1.13481
1.14777
1.18585
1.2414
1.46526
1.84383
3.2651
7.0324
16.4071
15.0953
13.583
12.9867
13.0203
13.1359
13.2105
13.2068
13.2634
13.4883
13.9605
14.5112
1.03445
1.06967
1.09309
1.11034
1.12256
1.13487
1.14766
1.18535
1.24049
1.46203
1.83767
3.24633
6.98009
16.2521
14.976
13.4766
12.9101
12.9549
13.0895
13.1917
13.1
13.1454
13.3591
13.8066
14.369
1.03429
1.06982
1.09296
1.1105
1.12242
1.13495
1.14702
1.18588
1.23236
1.46758
1.81239
3.23137
6.95188
16.0851
14.819
13.3432
12.8099
12.8585
12.9772
13.0218
12.9589
12.998
13.1943
13.6022
14.1715
1.03432
1.06979
1.09296
1.1105
1.1224
1.13494
1.14733
1.184
1.23771
1.45315
1.81817
3.18779
6.80842
15.8454
14.6398
13.1954
12.6848
12.7291
12.8227
12.833
12.7895
12.8227
12.9912
13.3436
13.9092
1.03418
1.06995
1.09283
1.11066
1.12223
1.13501
1.14661
1.18409
1.22897
1.45607
1.78701
3.15267
6.71724
15.5723
14.4184
13.0171
12.5348
12.5728
12.6445
12.6419
12.5933
12.6081
12.7358
13.012
13.5582
1.03428
1.06984
1.0929
1.11056
1.1223
1.1349
1.1468
1.1821
1.23344
1.44022
1.78582
3.09302
6.50873
15.2482
14.1853
12.8289
12.3677
12.3954
12.4445
12.4329
12.3691
12.3457
12.4211
12.5921
13.067
1.0343
1.06982
1.0929
1.11055
1.12226
1.13485
1.14642
1.18085
1.23063
1.43224
1.76449
3.04266
6.30965
14.8626
13.9176
12.6145
12.1839
12.2004
12.226
12.2035
12.1172
12.0288
12.0337
12.0462
12.3408
1.0343
1.06978
1.09297
1.11044
1.12235
1.13461
1.14572
1.17932
1.22564
1.42514
1.73816
2.98411
6.11413
14.4092
13.6105
12.3872
11.9959
11.9978
11.9972
11.9599
11.8434
11.6763
11.5492
11.2938
11.2051
1.00869
1.03219
1.05875
1.08841
1.11226
1.14153
1.16211
1.21288
1.28834
1.562
2.02777
3.72692
8.37321
19.3482
17.4789
15.6699
15.056
15.1081
15.2337
15.2975
15.3093
15.3645
15.6152
16.0503
16.397
1.00868
1.0322
1.05874
1.08841
1.11226
1.14151
1.16217
1.2125
1.28903
1.55997
2.02955
3.72392
8.3678
19.2903
17.4314
15.6241
15.0368
15.0998
15.2343
15.2884
15.2903
15.3245
15.558
15.9678
16.3198
1.00867
1.0322
1.05873
1.08842
1.11225
1.14152
1.16202
1.21259
1.28762
1.55999
2.02288
3.71285
8.32709
19.2166
17.3376
15.5247
14.9823
15.0598
15.2031
15.2777
15.2175
15.2178
15.4166
15.7802
16.1409
1.00865
1.03222
1.05871
1.08843
1.11225
1.14148
1.162
1.21194
1.28765
1.55613
2.02001
3.69632
8.27568
19.0606
17.1957
15.3921
14.8921
14.9771
15.1209
15.1626
15.0735
15.0538
15.2127
15.5229
15.8831
1.00863
1.03223
1.0587
1.08845
1.11225
1.14145
1.16192
1.2111
1.28723
1.55095
2.01384
3.67028
8.19189
18.8404
17.0136
15.2338
14.771
14.8558
14.99
15.0386
14.894
14.8487
14.9636
15.2078
15.5576
1.00862
1.03223
1.0587
1.08845
1.11222
1.14143
1.16162
1.21056
1.28477
1.54672
1.9983
3.62894
8.05632
18.566
16.797
15.0493
14.6179
14.6973
14.8133
14.8556
14.6782
14.6015
14.6678
14.8276
15.1499
1.00862
1.03224
1.05869
1.08845
1.1122
1.14136
1.16135
1.2094
1.28281
1.53888
1.98204
3.57459
7.88478
18.2368
16.5471
14.8397
14.4338
14.5041
14.595
14.6199
14.4278
14.3083
14.3143
14.3617
14.6302
1.00862
1.03224
1.05869
1.08844
1.11218
1.1413
1.16092
1.20831
1.27947
1.53117
1.95964
3.51026
7.68159
17.8519
16.2633
14.6054
14.2225
14.2809
14.3446
14.3483
14.148
13.9641
13.8935
13.8002
13.9627
1.00864
1.03221
1.05872
1.0884
1.1122
1.14117
1.16054
1.20665
1.27704
1.52036
1.93883
3.43776
7.4607
17.4114
15.9387
14.3508
13.9917
14.0356
14.0703
14.0512
13.835
13.5703
13.3956
13.1094
13.0567
1.0087
1.03207
1.05893
1.08805
1.11261
1.14045
1.16032
1.2052
1.27253
1.51158
1.91103
3.36204
7.22883
16.898
15.5731
14.0883
13.7505
13.7767
13.7826
13.7383
13.4961
13.1348
12.8086
12.2572
11.793
1.03444
1.06965
1.09309
1.11032
1.12258
1.13487
1.14785
1.18613
1.24197
1.46749
1.85012
3.28551
7.09983
16.5075
15.2138
13.6756
13.0329
13.0458
13.146
13.24
13.2512
13.3301
13.6066
14.153
14.6953
1.03428
1.06983
1.09295
1.1105
1.1224
1.135
1.14727
1.18706
1.2346
1.47599
1.83251
3.29283
7.14623
16.5643
15.1484
13.6241
13.0115
13.0477
13.1894
13.3574
13.2189
13.2785
13.5679
14.1051
14.6314
1.03436
1.06972
1.09302
1.11041
1.12251
1.13493
1.14778
1.18575
1.24133
1.46498
1.84591
3.27283
7.06719
16.4182
15.0815
13.5557
12.9675
13.0142
13.154
13.2507
13.1619
13.2163
13.4812
13.9816
14.5154
1.03421
1.06988
1.0929
1.11055
1.12239
1.13501
1.14722
1.18652
1.23384
1.47239
1.8239
3.26608
7.06375
16.2959
14.958
13.4505
12.8943
12.9432
13.0642
13.1013
13.0722
13.1279
13.3544
13.8075
14.358
1.03417
1.06992
1.09289
1.11059
1.12237
1.13501
1.14713
1.18598
1.23299
1.4689
1.81598
3.2406
6.98867
16.082
14.8046
13.3239
12.7969
12.8467
12.959
12.998
12.9497
12.9957
13.1902
13.5936
14.1541
1.03423
1.06985
1.09293
1.11052
1.1224
1.13494
1.14694
1.18529
1.23156
1.46364
1.8041
3.2035
6.87275
15.8598
14.6299
13.183
12.6783
12.7239
12.8181
12.832
12.7886
12.8223
12.9847
13.3309
13.8881
1.03437
1.06972
1.093
1.11041
1.12244
1.13485
1.14713
1.18335
1.236
1.44852
1.8039
3.14662
6.67159
15.584
14.4362
13.0279
12.5357
12.5725
12.6446
12.643
12.5947
12.6081
12.7286
12.9985
13.5355
1.03436
1.06975
1.09297
1.11044
1.12238
1.13482
1.14682
1.18228
1.23356
1.44129
1.78516
3.09712
6.49837
15.2563
14.199
12.8374
12.3674
12.3944
12.4443
12.4334
12.3703
12.3449
12.4147
12.5805
13.0466
1.03433
1.0698
1.09293
1.11052
1.12228
1.13482
1.14643
1.18092
1.23085
1.43255
1.76565
3.04321
6.31419
14.8725
13.9263
12.6189
12.1841
12.1998
12.2262
12.2047
12.1196
12.0287
12.0279
12.0373
12.3246
1.03431
1.06976
1.09299
1.11042
1.12237
1.1346
1.14575
1.17942
1.22586
1.4258
1.73926
2.98688
6.11999
14.4195
13.6154
12.3885
11.9962
11.9978
11.9978
11.9614
11.8455
11.6763
11.544
11.2867
11.1912
0.95788
0.910719
0.875378
0.843834
0.820774
0.798241
0.788599
0.793577
0.800553
0.911496
1.02073
1.82506
3.33473
7.7741
7.63501
7.17257
6.60629
6.50183
6.52649
6.58777
6.63502
6.73313
6.95092
7.421
8.3262
0.957455
0.911326
0.874985
0.844303
0.820335
0.798614
0.787511
0.789806
0.822535
0.855282
1.14248
1.62634
3.46694
7.77036
7.62768
7.11176
6.59363
6.51087
6.54149
6.61272
6.62964
6.70625
6.92546
7.42132
8.25116
0.957766
0.910846
0.87526
0.844011
0.820597
0.798405
0.788243
0.792304
0.799424
0.908552
1.01398
1.82066
3.32231
7.73876
7.58745
7.11314
6.58857
6.5112
6.53815
6.59651
6.62006
6.6996
6.91738
7.41101
8.23853
0.957324
0.911435
0.874925
0.844375
0.820356
0.798575
0.787691
0.790643
0.823066
0.856123
1.14183
1.60395
3.43254
7.6382
7.52838
7.06625
6.57323
6.49796
6.51841
6.56113
6.59959
6.69183
6.91192
7.39616
8.24014
0.957244
0.911533
0.87489
0.844447
0.820302
0.798625
0.787563
0.789883
0.824111
0.856359
1.13814
1.58149
3.40039
7.53835
7.44724
7.01599
6.5446
6.47222
6.49046
6.52916
6.57088
6.66837
6.89063
7.37035
8.22818
0.957391
0.911339
0.875001
0.844282
0.820473
0.798413
0.788237
0.790985
0.8212
0.85205
1.1283
1.56679
3.34641
7.43295
7.36467
6.97841
6.5125
6.43514
6.45002
6.4824
6.52773
6.62834
6.85067
7.3248
8.19944
0.957777
0.910846
0.875229
0.844043
0.820475
0.798499
0.787656
0.79155
0.79824
0.902051
1.00102
1.76539
3.14323
7.3315
7.26569
6.95684
6.47333
6.38357
6.39615
6.42481
6.47085
6.5713
6.78895
7.2504
8.14444
0.957777
0.910883
0.875168
0.844116
0.820322
0.798624
0.787254
0.791137
0.797621
0.899115
0.995615
1.73655
3.06738
7.17364
7.13268
6.88524
6.41785
6.32257
6.33302
6.35894
6.39871
6.49245
6.69531
7.12947
8.02057
0.957687
0.911022
0.875018
0.844349
0.819998
0.798975
0.786023
0.790019
0.795978
0.894133
0.985771
1.70941
2.98242
6.9706
7.01062
6.78801
6.35304
6.25674
6.26643
6.28646
6.31591
6.38967
6.5581
6.92872
7.7416
0.957547
0.9112
0.874851
0.84464
0.819579
0.799485
0.784426
0.787967
0.79376
0.886974
0.97259
1.67478
2.89108
6.73974
6.87683
6.67803
6.2836
6.19237
6.1979
6.20441
6.21859
6.25655
6.35575
6.57839
7.12341
0.957207
0.911708
0.874495
0.845077
0.819133
0.799868
0.783142
0.784475
0.808769
0.831896
1.07181
1.41535
2.94422
6.45355
6.71136
6.54681
6.2119
6.12297
6.12412
6.11653
6.11108
6.09717
6.07505
5.99007
5.52103
0.95739
0.911464
0.874547
0.845125
0.818825
0.800301
0.781416
0.784115
0.78896
0.871783
0.950123
1.5697
2.67209
6.16329
6.56184
6.42991
6.15781
6.06892
6.04395
6.0286
5.99678
5.93253
5.82213
5.59326
5.05868
0.957177
0.911783
0.874365
0.845302
0.818736
0.800251
0.7815
0.782425
0.802063
0.821062
1.03422
1.31586
2.69138
5.84412
6.40525
6.32529
6.1338
6.0086
5.97012
5.94357
5.88625
5.77913
5.62009
5.37174
4.93269
0.957426
0.911492
0.874396
0.845298
0.818424
0.800798
0.779251
0.781391
0.785348
0.853989
0.917729
1.44086
2.35995
5.43211
6.3154
6.27557
6.14308
5.97041
5.89891
5.85344
5.7837
5.655
5.47112
5.21788
4.84831
0.957458
0.911458
0.874364
0.845369
0.818277
0.800773
0.779136
0.779622
0.784127
0.838086
0.890992
1.34003
2.11299
4.83477
6.33617
6.31302
6.19245
5.94732
5.82444
5.76626
5.69165
5.55449
5.36589
5.12005
4.79593
0.957161
0.911837
0.874235
0.84553
0.818194
0.800874
0.778165
0.777999
0.78404
0.793899
0.921723
1.08452
1.95444
3.91111
6.43836
6.43078
6.28202
5.95453
5.76669
5.6904
5.6108
5.47741
5.2947
5.06472
4.77705
0.957194
0.911709
0.874482
0.845104
0.818946
0.799498
0.780064
0.7724
0.77697
0.783428
0.884469
0.984925
1.70561
2.97971
6.40275
6.47017
6.30578
5.95035
5.72615
5.63188
5.5472
5.41965
5.2486
5.03587
4.77969
0.957295
0.91152
0.874709
0.84472
0.819499
0.798577
0.781175
0.768974
0.772483
0.778158
0.862354
0.942413
1.56068
2.63683
6.00055
6.39532
6.26515
5.96155
5.72609
5.60582
5.50949
5.38556
5.22585
5.03028
4.7954
0.957406
0.911336
0.874926
0.844351
0.820021
0.79767
0.782285
0.765568
0.768401
0.772479
0.843702
0.911251
1.42805
2.35011
5.3679
6.2244
6.17255
6.00286
5.75476
5.60852
5.49581
5.37202
5.22178
5.03898
4.83121
0.957549
0.91113
0.875102
0.844113
0.820278
0.797304
0.782585
0.764577
0.765014
0.778219
0.791456
0.946953
1.15053
2.13303
4.47286
6.1738
6.17739
6.07603
5.83796
5.62925
5.49926
5.37505
5.23074
5.06499
4.88065
0.957482
0.911241
0.875023
0.844192
0.820196
0.797372
0.782407
0.764396
0.763049
0.766321
0.805442
0.846627
1.14022
1.67207
3.47423
6.14853
6.25616
6.16339
5.93043
5.67725
5.51803
5.39165
5.25783
5.10928
4.94036
0.957669
0.91099
0.875112
0.844148
0.82012
0.797549
0.782037
0.764439
0.760792
0.764399
0.770863
0.861889
0.949654
1.59741
2.70566
5.92264
6.26794
6.18177
5.97097
5.71556
5.55377
5.42938
5.30333
5.1625
5.00474
0.957323
0.911507
0.87472
0.84467
0.819544
0.798324
0.780877
0.765727
0.756477
0.758105
0.782097
0.805688
0.999825
1.31044
2.5216
5.34028
6.16999
6.13303
5.99474
5.75582
5.59604
5.47439
5.35366
5.22076
5.07352
0.957281
0.91157
0.874634
0.844827
0.819328
0.79865
0.780345
0.766299
0.75429
0.755245
0.773514
0.788782
0.956959
1.1652
2.21719
4.57254
5.99955
6.06713
6.0009
5.83545
5.65611
5.52703
5.40878
5.28193
5.14269
0.957299
0.911557
0.874578
0.844921
0.819144
0.798941
0.779868
0.766847
0.752589
0.753115
0.76644
0.777999
0.911302
1.07137
1.89901
3.71707
5.93428
6.10715
6.0503
5.90773
5.72139
5.58361
5.46417
5.34113
5.20806
0.957337
0.911519
0.874543
0.844989
0.818984
0.799199
0.779446
0.767309
0.751189
0.751383
0.760097
0.769121
0.870888
0.975136
1.64282
2.82646
5.81653
6.20479
6.14741
5.99769
5.78386
5.63678
5.51698
5.39667
5.26829
0.957328
0.911529
0.874524
0.845028
0.81893
0.799292
0.779284
0.767527
0.750479
0.750448
0.755781
0.762725
0.844643
0.921642
1.49218
2.44206
5.38956
6.20247
6.17072
6.05799
5.83854
5.68397
5.56265
5.44513
5.32145
0.957139
0.911775
0.874415
0.845143
0.818918
0.799242
0.779455
0.767181
0.751032
0.749477
0.752484
0.758156
0.828841
0.896648
1.3892
2.23965
4.99037
6.15404
6.14982
6.07863
5.9115
5.73497
5.6035
5.48612
5.36641
0.957145
0.911737
0.87449
0.845028
0.819106
0.798956
0.779879
0.766496
0.751823
0.747222
0.749513
0.753913
0.814518
0.871714
1.28752
2.00533
4.41793
6.10826
6.18263
6.12454
5.97783
5.78323
5.63948
5.52041
5.40414
0.957223
0.911617
0.874593
0.844865
0.819302
0.79867
0.780256
0.765941
0.752401
0.745545
0.747298
0.75121
0.800482
0.851795
1.18533
1.77395
3.75673
6.15078
6.29695
6.22892
6.0543
5.82363
5.6658
5.54593
5.43366
0.95731
0.911489
0.874709
0.844682
0.819521
0.798354
0.780649
0.765376
0.752951
0.743881
0.745195
0.748938
0.787631
0.833535
1.09546
1.55898
3.14007
6.18789
6.46186
6.36719
6.12857
5.85337
5.6833
5.56496
5.4577
0.95736
0.911411
0.874799
0.844544
0.819704
0.798051
0.781119
0.764535
0.754013
0.74069
0.741775
0.744152
0.779019
0.810871
1.04977
1.42905
2.864
6.02431
6.51255
6.41488
6.16179
5.86776
5.6944
5.58038
5.47855
0.957373
0.911393
0.874823
0.84451
0.819745
0.797994
0.781183
0.764432
0.754073
0.740319
0.74069
0.743001
0.772968
0.799007
1.02214
1.34405
2.72167
5.80708
6.45055
6.37382
6.15417
5.86877
5.70132
5.59269
5.49659
0.95738
0.911384
0.874826
0.844521
0.819721
0.798047
0.781086
0.764587
0.753769
0.740619
0.739355
0.741511
0.768165
0.790219
1.00239
1.28061
2.59246
5.53113
6.3404
6.29645
6.14327
5.88294
5.71905
5.61073
5.51656
0.957335
0.911448
0.874785
0.844578
0.819666
0.798126
0.780978
0.764733
0.753512
0.740797
0.738086
0.739955
0.764092
0.783438
0.980281
1.22703
2.44841
5.20971
6.28432
6.26355
6.15259
5.92337
5.7469
5.62814
5.53327
0.957334
0.911457
0.874766
0.844602
0.819635
0.798161
0.780943
0.764752
0.753505
0.740579
0.737984
0.739869
0.762028
0.786154
0.955221
1.22104
2.28381
4.83284
6.28841
6.28324
6.19187
5.98368
5.77447
5.64093
5.5462
0.957309
0.911491
0.874744
0.844631
0.819601
0.798214
0.780856
0.764904
0.753194
0.740992
0.736166
0.737458
0.756434
0.771645
0.931032
1.12523
2.1112
4.35437
6.36489
6.37388
6.27753
6.04335
5.79388
5.64723
5.55466
0.957369
0.911416
0.874767
0.844622
0.819568
0.798286
0.780727
0.765101
0.752916
0.741298
0.735768
0.737241
0.752884
0.769745
0.900718
1.08634
1.89394
3.73956
6.57744
6.57402
6.4299
6.10291
5.80846
5.65072
5.56163
0.95734
0.91147
0.874713
0.844698
0.819469
0.798423
0.780536
0.765362
0.752511
0.7417
0.734304
0.735375
0.748064
0.761392
0.873763
1.00678
1.75286
3.16914
6.74817
6.77494
6.58816
6.16418
5.81356
5.6463
5.56195
0.957338
0.911481
0.874688
0.844742
0.8194
0.798528
0.780376
0.765598
0.752112
0.742153
0.732639
0.733191
0.744726
0.754434
0.860488
0.96431
1.6772
2.96034
6.69251
6.86584
6.66046
6.19132
5.81186
5.64052
5.56253
0.957347
0.911476
0.87468
0.844759
0.819365
0.798583
0.780294
0.765713
0.75194
0.74233
0.732117
0.732541
0.742831
0.751419
0.851468
0.94662
1.63748
2.85795
6.56419
6.84106
6.6458
6.1934
5.81362
5.64198
5.56624
0.95735
0.911476
0.874672
0.844774
0.819336
0.798627
0.780224
0.765815
0.751792
0.7425
0.731828
0.732207
0.741788
0.750684
0.847127
0.938487
1.61776
2.78628
6.43155
6.77659
6.60297
6.19433
5.82305
5.64802
5.5704
0.957359
0.911466
0.874676
0.84477
0.819335
0.79863
0.780214
0.76583
0.751753
0.742538
0.731522
0.731808
0.740605
0.748069
0.84078
0.924088
1.58258
2.69602
6.27297
6.72979
6.58248
6.21775
5.84461
5.6592
5.57547
0.957364
0.91146
0.874679
0.844766
0.819336
0.79863
0.78021
0.765839
0.751731
0.742565
0.731396
0.731651
0.740006
0.747232
0.837032
0.917526
1.55583
2.63196
6.13265
6.68885
6.56557
6.24306
5.86352
5.66706
5.57791
0.957368
0.911457
0.87468
0.844766
0.819334
0.798634
0.780204
0.765846
0.751722
0.742568
0.73136
0.731599
0.739641
0.7467
0.834511
0.913533
1.53903
2.5903
6.01896
6.63813
6.53505
6.25031
5.87482
5.67375
5.58097
0.957367
0.911459
0.874676
0.844774
0.819322
0.798651
0.780179
0.765881
0.751673
0.742623
0.731253
0.73147
0.739299
0.746239
0.832824
0.910659
1.52398
2.56084
5.95044
6.58636
6.49565
6.2388
5.87689
5.67805
5.58369
0.957366
0.911462
0.874671
0.844783
0.81931
0.79867
0.780152
0.765918
0.751627
0.742679
0.731257
0.731487
0.739266
0.74673
0.833302
0.912996
1.52047
2.56235
5.89066
6.53888
6.4555
6.217
5.87278
5.67968
5.58545
0.957367
0.91146
0.874672
0.844781
0.819313
0.798664
0.780165
0.765896
0.75166
0.742632
0.731235
0.731433
0.738984
0.745702
0.830926
0.907586
1.51304
2.53123
5.86205
6.51116
6.42975
6.1991
5.86875
5.68161
5.58816
0.957365
0.911464
0.874667
0.844787
0.819304
0.798676
0.780148
0.765919
0.751634
0.742668
0.731281
0.731498
0.739141
0.746325
0.831558
0.910592
1.50943
2.53492
5.81155
6.481
6.40437
6.1847
5.86502
5.68295
5.59059
0.957362
0.911469
0.874664
0.844792
0.819298
0.798683
0.780139
0.765929
0.751626
0.742676
0.731332
0.731568
0.739378
0.746921
0.832616
0.912295
1.5105
2.54076
5.80791
6.45564
6.38062
6.1675
5.85834
5.68134
5.59087
1.03424
1.06973
1.09319
1.10999
1.12316
1.13269
1.14671
1.16992
1.24574
1.36038
1.82984
2.77076
6.04122
13.8707
13.2427
12.1563
11.8128
11.7883
11.7695
11.7078
11.5538
11.2908
10.9736
10.3182
8.74775
1.03428
1.06968
1.09322
1.10996
1.12312
1.13265
1.14589
1.16766
1.2404
1.34454
1.79978
2.67836
5.74896
13.3227
12.8846
11.9662
11.6421
11.5777
11.5406
11.4574
11.269
10.9114
10.4289
9.60997
8.0107
1.03416
1.06986
1.09303
1.11022
1.1228
1.13286
1.14521
1.16598
1.2331
1.33575
1.75315
2.57814
5.47965
12.6684
12.4893
11.864
11.4818
11.3603
11.3192
11.2264
11.011
10.5872
10.0226
9.22326
8.02374
1.03421
1.06986
1.09297
1.11031
1.12258
1.13292
1.1442
1.16169
1.22594
1.30779
1.70827
2.45658
5.07709
11.9361
12.2058
11.8207
11.3361
11.1574
11.1122
11.0135
10.7861
10.3368
9.76506
9.04046
8.07889
1.03427
1.06981
1.09294
1.11044
1.12212
1.13394
1.14148
1.16537
1.19411
1.34159
1.52363
2.4962
4.50193
10.9439
12.1869
11.8343
11.2304
10.9824
10.9259
10.8221
10.5928
10.1515
9.61119
8.96799
8.1748
1.03422
1.06983
1.09302
1.1103
1.12242
1.13307
1.14182
1.15658
1.20237
1.27405
1.55618
2.12696
4.07938
9.47835
12.303
11.9352
11.1846
10.8487
10.7665
10.6586
10.4296
10.0205
9.52706
8.95457
8.26934
1.0343
1.06969
1.09318
1.11006
1.12272
1.13261
1.14157
1.15359
1.18973
1.24721
1.46907
1.90643
3.42199
7.63098
12.6246
12.1721
11.2018
10.7741
10.6498
10.5276
10.2943
9.93107
9.48773
8.96716
8.37367
1.03438
1.06961
1.09322
1.11006
1.12254
1.13297
1.13972
1.1529
1.17081
1.24965
1.33974
1.84602
2.77414
5.97642
12.5296
12.1438
11.2511
10.7738
10.584
10.4339
10.2054
9.88099
9.48603
9.00911
8.49559
1.03446
1.06951
1.0933
1.10993
1.12268
1.13266
1.13997
1.15104
1.16639
1.23374
1.307
1.73835
2.48469
5.22949
11.8457
11.869
11.3948
10.8123
10.5613
10.3833
10.162
9.87042
9.50285
9.09078
8.63738
1.03452
1.06946
1.09335
1.10985
1.1228
1.1324
1.14028
1.14967
1.16513
1.21815
1.28678
1.63867
2.21823
4.57233
10.3343
11.7537
11.479
10.9006
10.5738
10.3715
10.1582
9.88135
9.5512
9.19136
8.78981
1.03447
1.06949
1.09338
1.10975
1.12305
1.13186
1.14127
1.14719
1.16602
1.18903
1.30362
1.4374
2.19986
3.67344
8.62972
11.8289
11.6045
11.0263
10.6124
10.3835
10.1726
9.91861
9.63446
9.31003
8.94978
1.03449
1.06945
1.09341
1.10971
1.12308
1.13181
1.14109
1.14647
1.16153
1.18153
1.27032
1.37771
1.9537
3.04996
6.78699
11.9328
11.7344
11.1599
10.6801
10.4209
10.217
9.99542
9.73552
9.43885
9.11201
1.03437
1.06961
1.09323
1.10998
1.12272
1.13235
1.14009
1.14718
1.15497
1.18505
1.21507
1.40091
1.6341
2.80696
5.3032
11.6199
11.6544
11.2866
10.7628
10.4928
10.2994
10.0907
9.84821
9.57447
9.27459
1.03429
1.06972
1.09313
1.1101
1.12266
1.1323
1.14036
1.14573
1.15638
1.17033
1.23188
1.29882
1.68895
2.32307
4.7942
10.5743
11.5034
11.3061
10.8754
10.596
10.3978
10.1967
9.96766
9.71172
9.43263
1.03423
1.06979
1.09307
1.11018
1.12255
1.13245
1.1401
1.146
1.15462
1.16814
1.21764
1.2748
1.5992
2.08266
4.12311
8.99305
11.5172
11.3881
11.0245
10.7117
10.5011
10.3041
10.0861
9.84405
9.58126
1.03424
1.06978
1.09306
1.11019
1.12251
1.13252
1.13994
1.14616
1.15349
1.16576
1.20461
1.26016
1.50066
1.909
3.46029
7.31877
11.6687
11.5809
11.2206
10.8335
10.5994
10.4055
10.1969
9.96609
9.71633
1.03422
1.06981
1.09302
1.11025
1.12242
1.13267
1.1397
1.14643
1.15251
1.16286
1.19416
1.23986
1.42794
1.73567
2.90861
5.65938
11.6895
11.749
11.4393
10.9607
10.697
10.4999
10.2961
10.0735
9.83435
1.0342
1.06983
1.09299
1.11031
1.12233
1.13282
1.1394
1.14694
1.15115
1.16334
1.17881
1.24801
1.32696
1.74979
2.50635
5.10727
11.1984
11.7627
11.5397
11.0874
10.8048
10.5904
10.3835
10.1663
9.93582
1.03419
1.06982
1.09304
1.11022
1.1225
1.13255
1.13982
1.14615
1.15196
1.15971
1.18288
1.21459
1.35949
1.53981
2.49789
4.35902
10.2081
11.8035
11.6484
11.2644
10.9188
10.6699
10.4571
10.2453
10.0234
1.03425
1.06973
1.09313
1.11009
1.12264
1.13236
1.14002
1.14588
1.15198
1.15886
1.17884
1.20814
1.32923
1.48649
2.29498
3.8219
8.93369
11.9895
11.8677
11.4633
11.0152
10.7294
10.5156
10.3116
10.0981
1.03431
1.06966
1.09319
1.11
1.12272
1.13224
1.14012
1.14574
1.15185
1.15797
1.17505
1.20126
1.30126
1.442
2.09594
3.35454
7.61691
12.4238
12.2201
11.6164
11.0746
10.7696
10.5614
10.367
10.1628
1.03435
1.06961
1.09324
1.10994
1.12278
1.13217
1.14018
1.14561
1.15175
1.15705
1.17171
1.19425
1.27793
1.40057
1.92945
2.95735
6.31301
12.7683
12.4948
11.7402
11.1299
10.8108
10.6064
10.4191
10.2225
1.03437
1.0696
1.09326
1.10992
1.12281
1.13213
1.14022
1.14554
1.15172
1.15657
1.16965
1.1902
1.2635
1.37503
1.8335
2.73432
5.79989
12.5461
12.4313
11.8428
11.1982
10.8604
10.6537
10.4699
10.2798
1.03437
1.0696
1.09326
1.10993
1.1228
1.13215
1.14018
1.14556
1.15158
1.15602
1.16801
1.18623
1.25431
1.34739
1.78009
2.58358
5.41599
12.0503
12.2713
11.9116
11.293
10.9342
10.7107
10.5223
10.3362
1.03436
1.06961
1.09325
1.10994
1.12279
1.13217
1.14018
1.14555
1.15154
1.15564
1.16661
1.18333
1.24572
1.32715
1.7312
2.43127
5.07559
11.3888
12.2441
11.9763
11.4177
11.0251
10.7684
10.5695
10.3879
1.03438
1.06959
1.09325
1.10995
1.12277
1.1322
1.14011
1.14565
1.15116
1.15564
1.16217
1.18681
1.21137
1.36399
1.53007
2.55801
4.52571
10.722
12.326
12.097
11.5608
11.1056
10.8113
10.6066
10.4336
1.03433
1.06966
1.0932
1.11
1.12273
1.13223
1.14011
1.14557
1.15143
1.15462
1.16438
1.17549
1.23112
1.28625
1.64127
2.17129
4.38643
9.84126
12.5635
12.3117
11.6788
11.1466
10.8298
10.6315
10.4718
1.03438
1.06961
1.09322
1.10999
1.1227
1.1323
1.13998
1.14581
1.15094
1.15558
1.16153
1.18078
1.20314
1.32448
1.46084
2.25815
3.77086
8.84355
13.0203
12.6374
11.7624
11.1511
10.8286
10.6463
10.5039
1.03436
1.06964
1.09318
1.11004
1.12264
1.13238
1.13987
1.14595
1.15074
1.15569
1.16121
1.1782
1.20021
1.30604
1.42975
2.10847
3.37567
7.70428
13.6044
13.0561
11.8789
11.1621
10.8247
10.6572
10.5314
1.03434
1.06966
1.09317
1.11006
1.12263
1.13237
1.13993
1.14577
1.15107
1.15464
1.16135
1.17225
1.2078
1.25777
1.47633
1.83407
3.19968
6.59678
14.0596
13.4266
12.0481
11.2023
10.8339
10.6735
10.5593
1.03433
1.06969
1.09315
1.11009
1.1226
1.13242
1.13986
1.14586
1.15093
1.15475
1.16094
1.17073
1.20412
1.24681
1.45743
1.77038
3.07492
6.19845
14.0281
13.4641
12.1543
11.2633
10.8632
10.6974
10.5872
1.03434
1.06968
1.09315
1.11009
1.12258
1.13245
1.13979
1.14602
1.15061
1.1555
1.1596
1.17331
1.18829
1.26991
1.35691
1.87554
2.79971
6.05838
13.8439
13.3883
12.2152
11.3432
10.9179
10.7312
10.6158
1.03434
1.06967
1.09316
1.11007
1.12261
1.1324
1.13988
1.14584
1.15093
1.15471
1.16052
1.16992
1.20028
1.24115
1.43254
1.70403
2.93989
5.70399
13.5815
13.2687
12.318
11.436
10.9742
10.763
10.6401
1.03434
1.06967
1.09316
1.11007
1.12262
1.13239
1.1399
1.14582
1.15096
1.15465
1.16038
1.16981
1.19922
1.24143
1.42328
1.68939
2.88655
5.55282
13.3305
13.1522
12.398
11.5149
11.0224
10.7909
10.6617
1.03432
1.06969
1.09314
1.1101
1.12259
1.13243
1.13985
1.14589
1.15086
1.15476
1.16025
1.16929
1.19837
1.2371
1.42125
1.67526
2.86614
5.47205
13.1201
13.0411
12.4403
11.5717
11.0634
10.8186
10.6837
1.03432
1.06969
1.09314
1.1101
1.12258
1.13245
1.13982
1.14592
1.15082
1.15482
1.16017
1.16916
1.19744
1.23569
1.41547
1.66108
2.83415
5.37977
12.9554
12.9566
12.4592
11.6128
11.0998
10.847
10.7065
1.03432
1.06969
1.09313
1.11012
1.12255
1.1325
1.13973
1.1461
1.15051
1.15553
1.15917
1.17168
1.18473
1.25811
1.33444
1.80053
2.61158
5.48912
12.8208
12.8986
12.4467
11.6347
11.1279
10.8719
10.7274
1.0343
1.06973
1.0931
1.11015
1.12252
1.13253
1.13971
1.14607
1.15064
1.15505
1.16016
1.16797
1.19682
1.22853
1.41248
1.64488
2.81925
5.32235
12.7075
12.8585
12.4291
11.6455
11.1481
10.8921
10.7449
1.03432
1.0697
1.09311
1.11015
1.12251
1.13256
1.13965
1.14619
1.15041
1.15566
1.1595
1.17154
1.18608
1.25841
1.33503
1.79532
2.56426
5.46068
12.6378
12.8153
12.4051
11.6484
11.161
10.9069
10.7584
1.03432
1.0697
1.09311
1.11015
1.12251
1.13255
1.13966
1.14618
1.15042
1.15567
1.15957
1.17162
1.18639
1.25865
1.33603
1.7948
2.56866
5.44613
12.6223
12.7941
12.3946
11.6497
11.167
10.9146
10.7659
1.00881
1.03175
1.05945
1.0871
1.11421
1.13764
1.16509
1.1987
1.29328
1.44173
2.00373
3.14709
7.07591
16.2858
15.1585
13.8299
13.5083
13.5077
13.4932
13.4179
13.1423
12.6729
12.1486
11.2081
9.21141
1.00878
1.03178
1.05944
1.08711
1.1142
1.13754
1.16467
1.19707
1.28757
1.42959
1.96437
3.05022
6.78382
15.6661
14.748
13.6037
13.2747
13.2309
13.2042
13.1037
12.7969
12.2249
11.516
10.4098
8.4575
1.00863
1.03207
1.05905
1.08781
1.11297
1.13948
1.15984
1.19825
1.25812
1.46402
1.81207
3.04885
6.3381
14.994
14.3563
13.4328
13.0451
12.9536
12.9224
12.8116
12.4875
11.8523
11.0606
9.99953
8.5037
1.00857
1.03218
1.05897
1.08783
1.113
1.13913
1.15974
1.19518
1.24954
1.44219
1.74496
2.92403
5.88053
14.2141
14.0199
13.3276
12.8168
12.6808
12.6582
12.5504
12.2269
11.5788
10.7958
9.84824
8.64466
1.00875
1.03188
1.05933
1.08727
1.1139
1.13728
1.16288
1.18646
1.26166
1.35288
1.7903
2.58865
5.43516
13.1797
13.9115
13.3087
12.6191
12.433
12.4197
12.3207
12.0125
11.3884
10.6591
9.83872
8.85136
1.00879
1.0318
1.05948
1.08701
1.11426
1.13673
1.16292
1.18557
1.24767
1.33847
1.70443
2.38918
4.85218
11.6643
14.0185
13.3629
12.484
12.2332
12.2186
12.1218
11.8307
11.2543
10.5978
9.85897
9.02188
1.0089
1.03166
1.05961
1.08685
1.1144
1.13651
1.16242
1.18263
1.23089
1.31759
1.58548
2.17723
4.07797
9.56531
14.4066
13.5806
12.4715
12.1206
12.0747
11.955
11.6672
11.1691
10.5927
9.91497
9.19085
1.00903
1.0315
1.05971
1.08675
1.11441
1.13641
1.16198
1.17916
1.22171
1.28311
1.51864
1.90509
3.39199
7.14292
14.605
13.7318
12.5209
12.1053
11.9843
11.8329
11.548
11.1228
10.6073
10.0157
9.37892
1.00905
1.0315
1.05966
1.08686
1.11419
1.13673
1.16127
1.17865
1.21491
1.26601
1.46941
1.75416
3.05929
6.05468
14.0686
13.6145
12.6642
12.1276
11.9203
11.7504
11.4891
11.1219
10.6501
10.1382
9.57989
1.00895
1.03171
1.05938
1.08733
1.11342
1.13805
1.15885
1.18274
1.20604
1.27595
1.36871
1.79742
2.54063
5.43986
12.5994
13.3711
12.8886
12.1939
11.8926
11.7105
11.4743
11.1365
10.7324
10.2816
9.78723
1.00892
1.03174
1.05938
1.08732
1.11346
1.13797
1.1588
1.18205
1.2012
1.2623
1.33069
1.69184
2.26501
4.57459
10.6474
13.4815
13.0501
12.266
11.9004
11.7117
11.4861
11.1812
10.8373
10.4384
9.99894
1.0089
1.03173
1.05943
1.08718
1.11375
1.13739
1.15972
1.17946
1.20211
1.23693
1.34654
1.50352
2.20523
3.62655
8.49356
13.7753
13.2535
12.3668
11.942
11.7379
11.5292
11.2735
10.963
10.605
10.2103
1.00888
1.03172
1.05941
1.08722
1.11371
1.13742
1.15962
1.17897
1.20074
1.22614
1.31915
1.43035
1.98501
3.03168
6.56915
13.671
13.2601
12.4871
12.0364
11.8095
11.6219
11.3875
11.1019
10.7764
10.4189
1.00866
1.03205
1.05912
1.08757
1.11331
1.13798
1.15867
1.18053
1.19574
1.23061
1.27322
1.46042
1.71744
2.87826
5.54359
12.8901
13.1226
12.7032
12.1793
11.9171
11.7313
11.5118
11.247
10.947
10.6188
1.00863
1.03208
1.05911
1.08758
1.11334
1.13791
1.15879
1.18011
1.19561
1.22516
1.2619
1.41974
1.61168
2.62159
4.65486
11.1378
13.1656
12.8673
12.3292