/*--------------------------------*- C++ -*----------------------------------*\
  =========                 |
  \\      /  F ield         | OpenFOAM: The Open Source CFD Toolbox
   \\    /   O peration     | Website:  https://openfoam.org
    \\  /    A nd           | Version:  6
     \\/     M anipulation  |
\*---------------------------------------------------------------------------*/
FoamFile
{
    version     2.0;
    format      ascii;
    class       surfaceScalarField;
    location    "9.5";
    object      phi;
}
// * * * * * * * * * * * * * * * * * * * * * * * * * * * * * * * * * * * * * //

dimensions      [1 0 -1 0 0 0 0];

internalField   nonuniform List<scalar> 
72625
(
0.0016233
2.49451e-09
5.88902e-05
0.00157657
3.86038e-10
4.67454e-05
0.00153785
2.88042e-09
3.87411e-05
0.00150607
5.01219e-10
3.17603e-05
0.00147879
5.01484e-09
2.72673e-05
0.00145634
-4.67956e-10
2.23118e-05
0.00143657
1.75684e-08
2.01241e-05
0.0014183
4.76783e-08
1.83225e-05
0.00140396
8.68314e-08
1.30646e-05
0.00138476
2.49e-07
1.97539e-05
0.00139876
5.4111e-07
-1.39278e-05
0.00134841
2.20509e-06
4.78774e-05
0.00155541
6.99458e-06
-0.000211235
0.00181088
3.83165e-05
-0.000292215
0.00176533
4.0464e-05
8.60081e-06
0.00157191
3.30514e-05
0.000155202
0.00146759
3.63368e-05
5.95653e-05
0.00140759
4.48622e-05
6.12856e-06
0.00135777
5.62502e-05
-2.64701e-05
0.001347
7.80358e-05
-7.66028e-05
0.00125336
7.18932e-05
2.45011e-05
0.00113557
5.59213e-05
7.66013e-05
0.000967821
3.84972e-05
0.000149837
0.000650071
2.78555e-05
0.000297864
-1.8828e-05
0.00065049
0.00162327
6.06447e-09
5.8886e-05
0.00157659
2.97667e-09
4.67485e-05
0.00153787
7.92563e-09
3.87387e-05
0.00150606
-1.83271e-09
3.17641e-05
0.0014788
9.9579e-09
2.72616e-05
0.00145635
-3.8811e-09
2.23189e-05
0.00143658
2.28569e-08
2.01099e-05
0.00141831
1.37505e-07
1.82921e-05
0.00140391
2.3567e-07
1.30978e-05
0.00138483
5.02509e-07
1.96048e-05
0.00139856
1.07041e-06
-1.373e-05
0.0013505
3.00818e-06
4.71867e-05
0.00155527
8.69367e-06
-0.000203909
0.00181969
4.84536e-05
-0.000273031
0.00179935
7.12277e-05
-6.36374e-06
0.00159245
8.4902e-05
0.000148044
0.00148187
8.65601e-05
5.15838e-05
0.00142483
9.71512e-05
-5.27543e-06
0.00138612
0.000109507
-3.54938e-05
0.00136977
0.000125294
-4.06782e-05
0.00131516
0.00012856
1.40815e-06
0.00121827
0.000120621
4.80084e-05
0.00104703
0.000103806
0.000126456
0.000725387
8.23272e-05
0.000275938
4.40816e-05
0.000645124
0.00162326
2.18182e-08
5.88807e-05
0.00157659
1.94066e-09
4.67537e-05
0.00153786
1.6019e-08
3.87314e-05
0.00150606
-1.98971e-08
3.17739e-05
0.00147878
3.19023e-08
2.72467e-05
0.00145664
-4.56355e-08
2.23387e-05
0.00143486
1.95237e-07
2.00816e-05
0.00141744
3.33759e-07
1.82465e-05
0.00140487
5.59093e-07
1.30478e-05
0.001385
4.86535e-07
1.96191e-05
0.00139583
4.15737e-06
-1.38088e-05
0.00135029
1.75829e-06
4.72e-05
0.00154849
2.20974e-05
-0.00020849
0.0017995
7.9995e-05
-0.000281075
0.00177384
0.00011141
-1.04086e-05
0.00158161
0.000129027
0.000140558
0.00147728
0.00013738
4.50386e-05
0.00142622
0.000150545
-1.25214e-05
0.00139084
0.000163235
-3.89123e-05
0.00136882
0.000173259
-3.53797e-05
0.00132721
0.000185648
-1.0567e-05
0.00124217
0.000191724
3.16398e-05
0.00107487
0.000181108
0.000111953
0.000741562
0.000158493
0.000266725
0.000138106
0.000630371
0.00162332
7.46059e-08
5.8858e-05
0.00157663
-6.65229e-08
4.67826e-05
0.00153786
5.16216e-08
3.87025e-05
0.00150607
-4.92356e-08
3.18131e-05
0.00147889
2.91445e-08
2.71915e-05
0.00145633
-1.09767e-08
2.24158e-05
0.00143648
2.51269e-08
1.98498e-05
0.00141883
5.23518e-07
1.80298e-05
0.00140953
-3.85078e-06
1.29007e-05
0.00137928
1.28081e-05
1.89072e-05
0.00142958
-3.0403e-05
-1.51915e-05
0.00131449
7.17439e-05
4.52773e-05
0.00155838
-1.15431e-05
-0.000206046
0.0017933
0.000119128
-0.000272363
0.00177683
0.000152269
-2.03576e-05
0.00157938
0.000185741
0.000132156
0.00147869
0.000191271
3.86237e-05
0.00142214
0.000213018
-1.68217e-05
0.00137789
0.00023452
-4.74387e-05
0.00135181
0.000256592
-6.4021e-05
0.00129178
0.000257453
-6.16308e-06
0.00121157
0.000256857
3.46376e-05
0.00105404
0.000250336
0.00010982
0.000712073
0.000241498
0.000267017
0.000223252
0.000609163
0.00162362
-3.94073e-08
5.86823e-05
0.00157651
7.11388e-08
4.69736e-05
0.00153805
-2.34745e-08
3.85424e-05
0.00150606
1.88584e-08
3.19744e-05
0.00147902
1.98407e-08
2.70492e-05
0.00145651
-3.70242e-08
2.25473e-05
0.00143663
2.32968e-07
1.9768e-05
0.00141963
1.56774e-07
1.75077e-05
0.00139198
5.14341e-06
1.90893e-05
0.00141435
-1.06872e-05
1.46089e-06
0.0013175
3.91347e-05
2.74308e-05
0.00148506
-4.3211e-05
-5.09511e-05
0.00146854
7.22144e-05
-6.911e-05
0.00177333
0.000130488
-0.000313636
0.00174872
0.000196754
-1.59509e-05
0.00158073
0.000217716
0.000125541
0.00148169
0.000243682
3.67895e-05
0.00142067
0.000276194
-1.83709e-05
0.00137778
0.000301467
-4.77775e-05
0.00134834
0.000323459
-4.37318e-05
0.0012912
0.000329434
-8.04065e-06
0.00120733
0.000327866
3.34202e-05
0.00104771
0.000323371
0.000107144
0.000703228
0.000327684
0.000265365
0.00031602
0.000594479
0.00162327
6.97925e-08
5.88283e-05
0.00157664
-9.2121e-08
4.6818e-05
0.00153787
6.14716e-08
3.86626e-05
0.00150607
-6.32453e-08
3.18734e-05
0.00147892
5.95017e-08
2.71036e-05
0.00145624
-3.1081e-08
2.25305e-05
0.00143862
1.45426e-07
1.95531e-05
0.00141895
7.20569e-07
1.77178e-05
0.00141532
-3.74532e-06
1.27111e-05
0.00137267
1.34581e-05
1.83894e-05
0.0014585
-3.0228e-05
-1.54977e-05
0.00131007
5.94405e-05
4.58376e-05
0.00159023
-6.75791e-06
-0.000197189
0.00180946
0.000185009
-0.000270116
0.00180625
0.000244962
-4.28395e-05
0.00160038
0.000293086
0.000123487
0.00149922
0.000305524
3.21242e-05
0.0014424
0.000339847
-2.24091e-05
0.00139924
0.000366152
-4.5126e-05
0.00136532
0.000386055
-3.27919e-05
0.00131685
0.000395487
-7.8768e-06
0.0012348
0.000399116
3.17757e-05
0.00107032
0.000403227
0.000104918
0.000721221
0.000424737
0.00025909
0.000446361
0.000576055
0.00162375
-6.08825e-08
5.86398e-05
0.00157661
7.3547e-08
4.70297e-05
0.00153818
-4.02068e-08
3.84828e-05
0.00150606
5.15403e-08
3.20554e-05
0.00147922
-2.47018e-08
2.69291e-05
0.00145645
3.19829e-08
2.27042e-05
0.00143732
-1.79384e-08
1.93565e-05
0.0014214
-3.49214e-07
1.7061e-05
0.0013943
4.50416e-06
1.88647e-05
0.00141603
-9.64744e-06
1.65681e-06
0.00132165
3.74253e-05
2.71868e-05
0.0014737
-3.87675e-05
-5.33835e-05
0.00145255
7.65892e-05
-6.04614e-05
0.00175541
0.000193241
-0.000309538
0.001753
0.000295454
-4.73444e-05
0.0015926
0.000331519
0.000111869
0.00149831
0.00036184
2.81836e-05
0.00144251
0.000400271
-2.4763e-05
0.00140318
0.000426002
-4.27635e-05
0.0013737
0.000444405
-2.97806e-05
0.00133147
0.000454953
-6.64161e-06
0.00125709
0.000465836
3.0613e-05
0.00109451
0.000484595
0.000102129
0.000745946
0.000532019
0.000249184
0.000628529
0.000550185
0.00162332
1.25783e-09
5.88104e-05
0.00157664
-1.04833e-08
4.68432e-05
0.00153778
1.21032e-08
3.86345e-05
0.00150608
-9.72693e-09
3.19023e-05
0.001479
2.44624e-08
2.70618e-05
0.00145639
-5.81692e-09
2.2585e-05
0.00143654
7.89629e-08
1.94549e-05
0.00141899
1.8355e-07
1.7727e-05
0.00140955
3.40817e-07
1.29555e-05
0.00137967
2.02692e-06
1.8505e-05
0.00142988
1.58615e-06
-1.37011e-05
0.00132657
1.80451e-05
4.6918e-05
0.00155717
4.05478e-05
-0.000190168
0.00176875
0.000254157
-0.00026639
0.00179476
0.000340822
-7.07561e-05
0.00160169
0.000400799
0.000111915
0.00150379
0.000423305
2.58481e-05
0.00145031
0.000458622
-2.53125e-05
0.00141433
0.00048135
-3.82261e-05
0.0013883
0.000497619
-2.64292e-05
0.00135036
0.000508809
-4.1165e-06
0.00128042
0.000528341
3.19426e-05
0.0011231
0.000566923
9.6396e-05
0.00076943
0.000658617
0.000235471
0.000875913
0.000510017
0.00162331
2.29184e-08
5.88007e-05
0.00157654
-1.04061e-08
4.68538e-05
0.00153787
1.27788e-08
3.86178e-05
0.00150613
-3.06934e-08
3.19264e-05
0.00147902
4.2459e-08
2.70302e-05
0.00145653
-4.41518e-08
2.26261e-05
0.00143758
2.64659e-07
1.94025e-05
0.00141855
5.87182e-07
1.77733e-05
0.00140521
1.01362e-06
1.31878e-05
0.0013865
1.87546e-06
1.85933e-05
0.00139283
6.58061e-06
-1.16268e-05
0.00135403
1.23052e-05
4.47994e-05
0.00152055
5.74084e-05
-0.000178529
0.00176208
0.000293478
-0.000270979
0.00177801
0.000392368
-7.5656e-05
0.00160353
0.000459452
9.99373e-05
0.0015101
0.000481863
2.18522e-05
0.00146021
0.00051138
-2.47334e-05
0.0014304
0.000529296
-3.25282e-05
0.0014088
0.000544163
-2.22027e-05
0.00137814
0.00055742
-1.56208e-06
0.00131105
0.000587895
3.39057e-05
0.0011597
0.000652187
8.84972e-05
0.000809988
0.000808449
0.000209656
0.00123546
0.000440642
0.00162328
5.87663e-05
5.73774e-08
0.00157672
4.68961e-05
-6.14051e-08
0.00153802
3.85811e-05
4.5358e-08
0.00150617
3.19829e-05
-5.40592e-08
0.00147914
2.6951e-05
4.09063e-08
0.00145637
2.2728e-05
-1.99612e-08
0.00143817
1.91787e-05
1.44128e-07
0.00141955
1.75031e-05
8.25487e-07
0.00141018
1.31849e-05
-2.5075e-06
0.00138073
1.77282e-05
1.29784e-05
0.00142201
-1.19321e-05
-2.234e-05
0.00132697
4.23433e-05
6.55296e-05
0.00154608
-0.00017857
2.32424e-05
0.00177654
-0.000268899
0.000337797
0.00177778
-7.40919e-05
0.000453749
0.00160825
8.84062e-05
0.000522692
0.00152051
1.8645e-05
0.000536663
0.0014787
-2.11406e-05
0.000553644
0.00145911
-2.40589e-05
0.000567741
0.00144649
-1.5641e-05
0.000579486
0.00143267
3.51334e-06
0.000598225
0.00137355
3.48693e-05
0.000640599
0.00123779
7.81297e-05
0.000734077
0.000926212
0.000172099
0.000957809
0.000322513
0.00183154
0.0017299
9.74921e-10
7.1829e-06
0.001764
1.6029e-09
1.26331e-05
0.00178831
2.38333e-09
1.44396e-05
0.00180599
2.93444e-09
1.40686e-05
0.00181994
3.236e-09
1.33065e-05
0.0018304
4.04161e-09
1.18402e-05
0.00183906
9.82254e-09
1.1445e-05
0.00184626
3.17891e-08
1.11542e-05
0.00184929
9.58409e-08
9.90826e-06
0.00185999
2.57498e-07
9.06787e-06
0.00184048
8.41348e-07
5.15175e-06
0.0018898
2.85518e-06
-7.36313e-06
0.00178908
1.34138e-05
-0.000119662
0.00158649
0.000142162
-0.00023484
0.00137478
0.000124404
7.54902e-05
0.00134265
0.000144622
2.47333e-05
0.00125395
0.000157427
-5.39958e-06
0.00109579
0.000174677
2.98385e-05
0.000786343
0.000221003
8.59253e-05
0.000894585
0.000407632
-0.000585689
0.000569999
0.000266746
8.75156e-05
0.000320258
0.000202904
0.000127337
5.46364e-05
0.000206264
0.000205988
-0.000170041
0.000208607
0.000297756
8.91139e-05
0.000368623
0.00172989
5.38441e-09
7.17874e-06
0.001764
2.38722e-09
1.26383e-05
0.00178831
7.55266e-09
1.44351e-05
0.00180599
2.4796e-09
1.40739e-05
0.00181994
7.61359e-09
1.32992e-05
0.0018304
5.01568e-09
1.18469e-05
0.00183908
1.56183e-08
1.14136e-05
0.00184617
6.82126e-08
1.12323e-05
0.00184965
1.82042e-07
9.48781e-06
0.00185955
5.72993e-07
9.66233e-06
0.00184187
1.47334e-06
3.6926e-06
0.00189071
5.1379e-06
-7.29847e-06
0.00180054
2.00456e-05
-0.000116651
0.00160913
0.000127694
-6.87287e-05
0.00138599
0.000250115
6.91069e-05
0.00134972
0.000296697
1.32209e-05
0.00126873
0.000312606
-1.92282e-05
0.00114232
0.000329682
6.40628e-06
0.000969754
0.000349357
3.20157e-05
0.000860387
0.000394411
9.02984e-05
0.000657274
0.000425447
5.04149e-05
0.000383171
0.000432543
9.53132e-05
0.000116642
0.000436737
0.000158654
-9.95605e-05
0.000431786
0.000253827
0.000278277
0.000334694
0.00172988
1.40589e-08
7.1797e-06
0.001764
3.0946e-09
1.2636e-05
0.0017883
1.42937e-08
1.44351e-05
0.00180599
-1.7292e-09
1.40727e-05
0.00181992
1.31249e-08
1.33021e-05
0.00183041
2.55612e-09
1.18414e-05
0.00183901
2.59492e-08
1.1456e-05
0.0018461
1.44906e-07
1.1144e-05
0.00184918
2.76812e-07
9.87803e-06
0.00185941
1.28885e-06
8.95663e-06
0.00184031
2.3144e-06
4.88221e-06
0.00188694
9.54949e-06
-8.11078e-06
0.00179279
3.42287e-05
-0.000124086
0.00156832
0.000256975
-0.00018701
0.00135826
0.000364371
6.24101e-05
0.00133352
0.000433611
9.65114e-06
0.00126559
0.000459012
-2.82606e-05
0.00115835
0.00047717
-1.16075e-05
0.00102712
0.000468405
-4.66461e-06
0.00090736
0.000468359
1.9028e-05
0.000699365
0.000588331
3.87502e-05
0.000419651
0.000652542
9.31982e-05
0.000150115
0.000665178
0.00014867
-6.35172e-05
0.000659537
0.000238463
0.000499629
0.000324222
0.00172987
3.11143e-08
7.17022e-06
0.00176402
-1.24428e-08
1.2647e-05
0.00178828
2.63823e-08
1.44256e-05
0.00180601
-1.42298e-08
1.40843e-05
0.0018199
2.4188e-08
1.32935e-05
0.00183046
-6.22695e-10
1.18449e-05
0.00183872
1.30284e-07
1.14647e-05
0.00184579
-3.9997e-08
1.12395e-05
0.00184771
1.72078e-06
9.51783e-06
0.00185913
-4.00618e-07
9.52646e-06
0.00183619
6.94452e-06
3.70891e-06
0.00188398
9.84486e-06
-8.26856e-06
0.00179944
3.14406e-05
-0.000113925
0.00158755
0.000326241
-0.000129778
0.00135285
0.000499265
5.37892e-05
0.00132078
0.000575239
2.90178e-06
0.00125294
0.000605591
-3.17408e-05
0.00113582
0.000635876
-1.69452e-05
0.000902746
0.000674873
-8.79346e-07
0.000854814
0.000831652
-0.000371233
0.000632773
0.000767445
4.04716e-05
0.000407604
0.000823258
9.0921e-05
0.000158172
0.00087677
0.000143945
-4.82316e-05
0.000890747
0.000228032
0.000720409
0.000318444
0.00172976
-4.99861e-09
7.16041e-06
0.00176403
1.71882e-08
1.26553e-05
0.00178819
-2.65346e-10
1.4415e-05
0.00180604
1.15985e-08
1.40987e-05
0.00181984
3.8987e-10
1.32783e-05
0.0018305
1.51432e-08
1.18557e-05
0.00183908
-5.01888e-08
1.13854e-05
0.00184468
4.13677e-07
1.15131e-05
0.00185907
-8.19539e-07
7.44593e-06
0.00184308
3.6201e-06
1.37332e-05
0.00188374
6.17967e-07
-5.71767e-06
0.00180978
1.83257e-05
7.00003e-06
0.00179911
8.78453e-05
-0.000107875
0.00154171
0.000450363
-0.000181171
0.0013262
0.00062513
4.61219e-05
0.00130205
0.000705088
-5.47013e-08
0.00124364
0.000745855
-3.1963e-05
0.00113712
0.000784441
-2.1318e-05
0.000974154
0.000825941
-1.91401e-05
0.000887775
0.000899922
-1.7978e-05
0.000672102
0.000947549
3.18886e-05
0.00043145
0.00101356
8.63405e-05
0.000185049
0.00108761
0.000139201
-1.89151e-05
0.00112697
0.000218885
0.000962366
0.000311699
0.00172985
2.5804e-08
7.15998e-06
0.00176403
-2.24636e-08
1.26582e-05
0.00178826
2.48384e-08
1.44135e-05
0.00180605
-2.11524e-08
1.40975e-05
0.00181983
3.05325e-08
1.32876e-05
0.00183053
-1.45597e-09
1.18418e-05
0.00183838
1.50689e-07
1.15233e-05
0.00184526
5.46676e-08
1.12737e-05
0.0018457
1.96209e-06
9.54447e-06
0.00185848
1.80261e-07
9.43241e-06
0.00183167
9.24085e-06
3.72169e-06
0.00187645
1.80941e-05
-8.75157e-06
0.00179999
7.09104e-05
-9.66174e-05
0.00159525
0.000548456
-0.000163798
0.00133665
0.000768144
4.11887e-05
0.00130462
0.000843858
-4.31009e-06
0.00125075
0.000879653
-3.1486e-05
0.00115414
0.00092051
-2.40174e-05
0.00101549
0.000965995
-3.10821e-05
0.000909432
0.00104021
-5.90063e-05
0.000719134
0.00111036
2.50914e-05
0.000484269
0.00120011
8.37901e-05
0.000240573
0.0013003
0.000133412
3.15403e-05
0.00137305
0.000208486
0.0012483
0.000300016
0.00172974
-1.87553e-08
7.15649e-06
0.00176407
1.66507e-08
1.26602e-05
0.00178818
-1.27554e-08
1.44054e-05
0.00180608
1.92024e-08
1.41078e-05
0.00181978
-9.18258e-09
1.32756e-05
0.00183059
2.92051e-08
1.18481e-05
0.00183864
-1.4334e-08
1.14938e-05
0.00184387
4.53134e-07
1.15091e-05
0.00185766
-5.30404e-07
7.81566e-06
0.00184272
3.97945e-06
1.30917e-05
0.00188234
3.13613e-06
-4.48597e-06
0.00180092
2.60159e-05
7.70131e-06
0.00179834
0.000123922
-9.88941e-05
0.00157343
0.00066374
-0.000199226
0.00132707
0.000896744
3.54732e-05
0.00129965
0.000965152
-3.43219e-06
0.00125765
0.000999252
-2.91124e-05
0.00117294
0.00104043
-2.44742e-05
0.00105184
0.00109116
-3.21359e-05
0.000956246
0.00117241
-5.83109e-05
0.000786967
0.00125903
1.97129e-05
0.000559333
0.00138163
8.15778e-05
0.000321715
0.00151146
0.000127565
0.000104843
0.00162831
0.000198157
0.00159707
0.000285038
0.00172984
-2.04754e-09
7.15991e-06
0.00176403
-2.55543e-09
1.26596e-05
0.00178822
3.90701e-09
1.44086e-05
0.00180604
-2.26211e-09
1.4102e-05
0.00181981
1.5603e-08
1.32835e-05
0.00183058
1.35158e-08
1.18427e-05
0.00183835
1.02619e-07
1.15694e-05
0.00184506
3.61876e-07
1.12318e-05
0.00184682
9.68271e-07
9.80513e-06
0.00185795
2.7874e-06
9.04038e-06
0.00183694
8.14795e-06
4.56707e-06
0.00187262
2.80327e-05
-8.06681e-06
0.00179049
0.000121594
-8.9579e-05
0.00161922
0.000771908
-0.000203915
0.00133437
0.00103192
3.40266e-05
0.00130629
0.00108833
-5.7445e-06
0.00127282
0.00110852
-2.55639e-05
0.00119803
0.00114574
-2.25377e-05
0.00109696
0.00119841
-3.02744e-05
0.001012
0.00128667
-4.8175e-05
0.000868398
0.00139154
1.39411e-05
0.000667751
0.00154435
7.50279e-05
0.000435636
0.0017188
0.000121338
0.00020143
0.00190116
0.000185997
0.00202707
0.000261624
0.00172982
1.35753e-09
7.15803e-06
0.001764
8.60749e-09
1.26641e-05
0.00178822
-4.7377e-09
1.44014e-05
0.00180605
1.06961e-08
1.41099e-05
0.00181983
5.37862e-09
1.3273e-05
0.00183059
2.39257e-08
1.18507e-05
0.00183831
2.29606e-07
1.15741e-05
0.00184475
4.88364e-07
1.12406e-05
0.00184785
1.77752e-06
9.67321e-06
0.00185732
2.58638e-06
9.10662e-06
0.00184153
1.161e-05
4.03535e-06
0.00187717
2.80838e-05
-6.56159e-06
0.0017948
0.000134408
-8.76313e-05
0.00164269
0.000870983
-0.000218653
0.00134098
0.00116699
3.07099e-05
0.00131047
0.00120394
-6.05446e-06
0.00128979
0.00120119
-2.07505e-05
0.00123094
0.00123288
-2.00424e-05
0.00115339
0.00128469
-2.77065e-05
0.00108405
0.00137954
-3.86045e-05
0.000968236
0.00150399
9.65135e-06
0.000808931
0.00168158
6.36629e-05
0.000597444
0.00191135
0.000108938
0.000346037
0.00218868
0.000165034
0.00257063
0.000226608
0.00172977
7.15513e-06
9.02698e-09
0.00176404
1.26698e-05
1.43939e-08
0.00178825
1.43887e-05
-3.01879e-08
0.00180605
1.41353e-05
7.31258e-08
0.0018199
1.32363e-05
-1.20098e-07
0.00183041
1.18938e-05
3.22584e-07
0.00183836
1.15329e-05
-3.72896e-08
0.00184308
1.12395e-05
2.0002e-06
0.00185179
9.46174e-06
-2.66449e-06
0.00184864
9.37822e-06
1.36779e-05
0.00186018
3.4718e-06
-1.15322e-05
0.00186411
-4.03877e-06
6.06862e-05
0.00181689
-8.39583e-05
0.000113115
0.00163251
-0.000231954
0.000985117
0.00133569
2.42011e-05
0.00131544
0.00131298
-5.70728e-06
0.00130739
0.00131026
-1.37572e-05
0.00127536
0.00127229
-1.73979e-05
0.00129793
0.00122037
-2.44021e-05
0.00134757
0.00117078
-3.02066e-05
0.0014513
0.00108983
6.94143e-06
0.00159123
0.000971176
5.53681e-05
0.00178772
0.000806606
9.16649e-05
0.00206639
0.000623584
0.000124804
0.00241368
0.000164238
0.00333739
0.0016939
2.57839e-09
-7.17466e-06
0.00171917
-7.83829e-11
-1.26385e-05
0.00174805
2.91795e-09
-1.443e-05
0.00177616
5.67723e-10
-1.40738e-05
0.00180275
8.54284e-10
-1.33037e-05
0.0018264
6.23112e-09
-1.18337e-05
0.00184936
-8.19635e-09
-1.14849e-05
0.00187175
8.00792e-08
-1.11929e-05
0.00189181
-9.977e-08
-9.92796e-06
0.00190994
5.01934e-07
-9.15228e-06
0.0019215
-1.38589e-07
-5.33406e-06
0.00190225
1.57043e-06
6.49887e-06
0.00167817
5.94118e-06
0.000111565
0.0012067
0.000117564
7.59374e-05
0.00117535
0.000188882
-8.25909e-05
0.00102449
0.000226495
-2.02488e-05
0.00080728
0.000225155
1.51714e-05
0.000652684
0.000214624
-1.32492e-05
0.000595246
0.00019048
-4.06705e-05
-9.00112e-05
0.000219546
-0.000113982
-0.000255512
0.000332627
-7.5922e-05
-0.000415732
0.000389798
-0.000103937
-0.000455352
0.000409369
-0.000174
-0.000318612
0.000432406
-0.000291807
0.000394314
-0.000367802
0.00169389
1.45859e-09
-7.16632e-06
0.00171917
1.80659e-09
-1.2646e-05
0.00174804
2.54812e-09
-1.44196e-05
0.00177617
2.78946e-09
-1.40886e-05
0.00180274
4.36758e-09
-1.32885e-05
0.00182641
1.44598e-09
-1.18408e-05
0.00184924
3.43487e-08
-1.14321e-05
0.0018722
1.32907e-09
-1.1535e-05
0.00188912
3.43838e-07
-7.75001e-06
0.001913
1.76876e-07
-1.34827e-05
0.00191119
2.13906e-06
4.17239e-06
0.00190532
5.08329e-06
-8.87543e-06
0.00167715
2.86956e-05
0.000101866
0.00118589
0.000187455
0.00030965
0.00115566
0.000354203
-6.36977e-05
0.00102003
0.000429172
-1.90512e-05
0.000806942
0.000428873
1.70765e-05
0.000634275
0.000421768
-1.19081e-05
0.000521423
0.000405616
-6.53216e-05
-0.000166425
0.000421737
0.000582015
-0.000363666
0.000643899
-5.9997e-05
-0.000474129
0.000689379
-9.52619e-05
-0.000481912
0.00073089
-0.000165047
-0.00032631
0.000761133
-0.000250642
0.000699798
-0.000320211
0.00169389
4.70613e-09
-7.16814e-06
0.00171918
9.09015e-10
-1.26453e-05
0.00174803
5.09301e-09
-1.44228e-05
0.00177616
1.63141e-09
-1.40825e-05
0.00180274
3.03026e-09
-1.32989e-05
0.00182641
1.03858e-08
-1.18355e-05
0.00184943
1.31647e-08
-1.15118e-05
0.00187175
1.51549e-07
-1.12029e-05
0.00189192
1.22092e-07
-9.95079e-06
0.00190943
1.10579e-06
-9.08248e-06
0.0019211
1.7189e-06
-5.47507e-06
0.00189938
7.76769e-06
6.96483e-06
0.00167354
3.9105e-05
0.000104277
0.00118481
0.000354377
9.16632e-05
0.00112728
0.000536223
-5.79045e-05
0.00100102
0.000611305
-8.42052e-06
0.000787197
0.0006149
2.53572e-05
0.00058391
0.00062248
4.34291e-06
0.000372409
0.000639251
-2.31004e-05
-0.000169299
0.000813982
0.000175464
-0.000371968
0.000925644
-3.70579e-05
-0.000465964
0.000969691
-9.40008e-05
-0.000465818
0.00102552
-0.000155632
-0.000319066
0.00106584
-0.000232689
0.000988551
-0.000306663
0.00169388
4.20253e-09
-7.15994e-06
0.00171918
8.80047e-10
-1.26519e-05
0.00174802
4.14095e-09
-1.44138e-05
0.00177616
1.6013e-09
-1.40966e-05
0.00180273
3.99405e-09
-1.32831e-05
0.00182643
1.21119e-08
-1.18489e-05
0.00184935
2.82297e-08
-1.1438e-05
0.00187216
2.05525e-07
-1.14955e-05
0.00188938
2.68918e-07
-7.75116e-06
0.0019121
1.54361e-06
-1.32235e-05
0.00191113
2.98471e-06
4.33888e-06
0.00190248
1.21423e-05
-8.42786e-06
0.00167808
6.23059e-05
0.00010023
0.00117431
0.000488197
0.00019679
0.00111151
0.000709838
-5.08684e-05
0.000986975
0.000782225
-4.42772e-06
0.000775826
0.000788767
2.93156e-05
0.000559084
0.000816383
1.55996e-05
0.000331181
0.000860831
8.98305e-06
-0.000159101
0.000950711
-9.77074e-06
-0.000339338
0.00118549
-3.55867e-05
-0.00042777
0.00124226
-9.39253e-05
-0.000431186
0.001311
-0.000146705
-0.000301784
0.00136542
-0.000220455
0.00128335
-0.000301543
0.00169387
6.7459e-10
-7.15419e-06
0.00171919
7.16745e-10
-1.2659e-05
0.00174799
1.28359e-09
-1.44097e-05
0.00177616
2.79397e-09
-1.41042e-05
0.00180272
6.68983e-09
-1.32773e-05
0.00182645
1.11644e-08
-1.18561e-05
0.00184925
7.20378e-08
-1.14207e-05
0.0018725
1.70304e-07
-1.15632e-05
0.00188696
7.15711e-07
-7.37601e-06
0.00191477
1.58899e-06
-1.36896e-05
0.0019017
5.69948e-06
5.64196e-06
0.00190608
1.88036e-05
-9.12755e-06
0.00168745
9.67959e-05
8.94024e-05
0.00117238
0.000631486
0.000149201
0.00109728
0.000880669
-4.36272e-05
0.00097563
0.000941933
-3.81763e-07
0.000774268
0.000949775
2.98268e-05
0.000557886
0.00099885
1.96778e-05
0.000304957
0.00108163
1.72293e-05
-9.99496e-05
0.0012034
0.000143653
-0.000283314
0.00144061
-3.51018e-05
-0.000370247
0.00150671
-9.13318e-05
-0.000380718
0.00159319
-0.000140114
-0.000272044
0.00166819
-0.000212006
0.00159648
-0.000297372
0.00169388
3.6639e-10
-7.16025e-06
0.00171917
-6.87148e-10
-1.26524e-05
0.00174797
1.52161e-09
-1.44138e-05
0.00177616
2.289e-09
-1.40986e-05
0.00180276
5.84358e-09
-1.32792e-05
0.00182648
1.99459e-08
-1.18571e-05
0.00184945
7.1199e-08
-1.14223e-05
0.00187214
3.17283e-07
-1.1423e-05
0.00188963
6.83769e-07
-7.83977e-06
0.00191158
2.61035e-06
-1.30608e-05
0.00191136
6.50105e-06
4.24813e-06
0.00189899
2.48569e-05
-8.22164e-06
0.00169349
0.000123661
9.6015e-05
0.00116493
0.000776797
0.00018014
0.0010837
0.00104755
-3.9809e-05
0.000967654
0.00108865
6.01183e-07
0.000780544
0.00109624
2.85404e-05
0.000573955
0.00116539
2.11829e-05
0.000313277
0.00128942
2.67681e-05
-2.89458e-05
0.00144543
5.3035e-05
-0.000207621
0.00167829
-2.89688e-05
-0.00029192
0.00176359
-8.78576e-05
-0.000310355
0.00187192
-0.000134019
-0.000225282
0.00197731
-0.000204599
0.00193661
-0.000290122
0.00169386
-5.93624e-10
-7.16384e-06
0.00171914
-7.29442e-10
-1.26531e-05
0.00174797
2.08433e-09
-1.44149e-05
0.0017762
8.71733e-10
-1.40942e-05
0.0018028
8.52698e-09
-1.32834e-05
0.00182651
1.78619e-08
-1.18511e-05
0.00184947
1.0701e-07
-1.14936e-05
0.00187237
3.25717e-07
-1.12684e-05
0.00188938
1.04209e-06
-9.44307e-06
0.00191241
2.79888e-06
-9.59557e-06
0.00191066
8.59443e-06
-3.36988e-06
0.00189875
2.97457e-05
7.74516e-06
0.0017021
0.000146448
9.09524e-05
0.00115778
0.000910435
0.000174701
0.00107172
0.00121094
-3.83811e-05
0.000962794
0.00122393
3.6754e-06
0.000793657
0.00122626
2.73473e-05
0.000602195
0.00131463
2.17001e-05
0.000365319
0.00146974
2.88043e-05
5.0198e-05
0.00165964
5.47905e-05
-0.000112481
0.00188876
-2.24719e-05
-0.000189457
0.00200865
-8.41761e-05
-0.000211976
0.00214457
-0.000127721
-0.000155714
0.00229627
-0.000195271
0.00231899
-0.000277587
0.00169384
-2.5322e-09
-7.16562e-06
0.00171916
3.21999e-09
-1.26529e-05
0.00174804
6.50364e-11
-1.44139e-05
0.00177625
2.87021e-09
-1.40949e-05
0.00180283
1.02555e-08
-1.32836e-05
0.00182651
2.10138e-08
-1.18474e-05
0.00184961
1.25029e-07
-1.15337e-05
0.00187201
4.6892e-07
-1.12051e-05
0.00189184
9.55365e-07
-9.76181e-06
0.0019096
3.68761e-06
-9.06752e-06
0.00192008
8.86754e-06
-4.27956e-06
0.00189237
3.41861e-05
7.49266e-06
0.00171115
0.000162677
9.4394e-05
0.00114395
0.00103736
0.000202288
0.00105782
0.00137088
-3.6629e-05
0.000958888
0.00134337
4.66684e-06
0.000813437
0.00133624
2.4959e-05
0.000644575
0.00144224
2.11506e-05
0.000434718
0.00162455
2.83508e-05
0.000164241
0.00184666
4.59262e-05
1.38691e-05
0.00207664
-1.60438e-05
-5.6177e-05
0.00223378
-7.66412e-05
-8.19056e-05
0.00240912
-0.000121292
-5.31093e-05
0.00262122
-0.000183943
0.00276037
-0.00025635
0.00169388
-9.3021e-09
-7.16027e-06
0.00171925
1.55556e-08
-1.26615e-05
0.00174807
-2.06718e-08
-1.44038e-05
0.00177624
3.79437e-08
-1.41076e-05
0.00180284
-2.82839e-08
-1.32727e-05
0.00182649
7.53124e-08
-1.18528e-05
0.00184957
1.87942e-07
-1.15632e-05
0.00187227
3.08531e-07
-1.12387e-05
0.00189145
1.38613e-06
-9.68848e-06
0.00191126
2.59837e-06
-9.12103e-06
0.00191844
1.24161e-05
-4.17271e-06
0.00189644
3.31371e-05
6.55866e-06
0.00172674
0.000179185
8.73417e-05
0.00113228
0.00116026
0.000222207
0.00103841
0.00152648
-3.18673e-05
0.000954652
0.00144398
5.76238e-06
0.000840506
0.00142161
2.07483e-05
0.000698919
0.00154527
1.95896e-05
0.000520445
0.00174939
2.66905e-05
0.00029862
0.00200136
3.70967e-05
0.000169028
0.00223726
-1.11894e-05
0.000111327
0.00242549
-6.49965e-05
8.39995e-05
0.0026521
-0.000108597
9.27515e-05
0.00292714
-0.00016344
0.00328088
-0.00022319
0.00169394
-7.15634e-06
-2.16381e-08
0.00171915
-1.26673e-05
4.92248e-08
0.00174807
-1.43904e-05
-7.78871e-08
0.00177623
-1.4133e-05
1.45439e-07
0.00180293
-1.3237e-05
-2.37615e-07
0.00182633
-1.18942e-05
4.39444e-07
0.00185029
-1.1529e-05
-7.11059e-07
0.0018719
-1.12382e-05
1.11954e-06
0.0018963
-9.46709e-06
-3.52726e-06
0.0019035
-9.42251e-06
1.44741e-05
0.00193957
-3.56119e-06
-1.30321e-05
0.00188876
3.72327e-06
6.59081e-05
0.00176306
8.3118e-05
0.000165053
0.00111495
0.000233895
0.00130575
0.00100422
-2.47025e-05
0.00168433
0.000950318
5.60279e-06
0.0015162
0.000876692
1.37294e-05
0.00147879
0.000762104
1.7385e-05
0.00162174
0.000619946
2.40465e-05
0.00184053
0.000451133
2.95153e-05
0.00211596
0.000348713
-7.87296e-06
0.00236669
0.000319975
-5.60457e-05
0.00257312
0.000313611
-9.12905e-05
0.00284227
0.000316185
-0.000123949
0.00316376
-0.000161968
0.00390269
0.00172986
2.97715e-08
-5.88616e-05
0.00176402
-2.15479e-08
-4.67755e-05
0.00178827
2.67516e-08
-3.87119e-05
0.001806
-2.50312e-08
-3.17983e-05
0.0018199
2.92816e-08
-2.72103e-05
0.00183044
-1.57189e-08
-2.23956e-05
0.00183876
1.11e-07
-1.99053e-05
0.00184585
-1.49415e-07
-1.80772e-05
0.00184736
1.47258e-06
-1.28291e-05
0.00185922
-1.41892e-06
-1.92023e-05
0.00183516
4.21724e-06
1.50866e-05
0.00188359
-3.46502e-07
-4.53053e-05
0.00179865
-1.6189e-05
0.00021762
0.00163541
-3.08128e-05
0.000265704
0.00141819
0.000109967
2.07049e-06
0.00137846
0.000150271
-0.000150912
0.00130223
0.000148204
-5.42912e-05
0.00118827
0.000137587
3.01708e-06
0.00106789
7.83796e-05
2.5763e-05
0.000982267
-4.34037e-05
2.4874e-05
0.000810012
0.00010942
-7.78947e-06
0.000569566
0.000190616
-5.24927e-05
0.00028255
0.000229888
-0.000122435
9.05293e-06
0.000254524
-0.000286344
0.000287746
-0.000663694
0.00172976
-1.41953e-08
-5.86637e-05
0.00176405
2.67038e-08
-4.69985e-05
0.00178819
-1.15672e-08
-3.8519e-05
0.00180603
2.47275e-08
-3.19979e-05
0.00181982
-1.86751e-08
-2.70121e-05
0.00183052
1.75597e-08
-2.25966e-05
0.00183892
-9.59969e-08
-1.96145e-05
0.00184424
2.61964e-07
-1.71882e-05
0.00185875
-1.25641e-06
-1.93292e-05
0.00184302
2.49491e-06
-1.30786e-06
0.00188288
-2.48005e-06
-2.79788e-05
0.0018102
7.38372e-06
5.15699e-05
0.00178559
4.11971e-05
7.58543e-05
0.00151326
0.000211875
0.000334901
0.0013416
0.000223873
-2.68788e-05
0.00131398
0.000280211
-0.000138037
0.00123457
0.000301166
-4.76111e-05
0.00107764
0.000315426
7.23247e-06
0.000760801
0.000314181
3.49194e-05
0.000807231
0.000426747
7.2236e-05
0.000537379
0.000349949
-2.54759e-05
0.000332814
0.000373535
-7.04443e-05
7.87498e-05
0.00044997
-0.000136432
-0.000138847
0.000501095
-0.000295437
0.000423382
-0.00061324
0.00172985
2.96341e-08
-5.88472e-05
0.00176403
-1.6615e-08
-4.6792e-05
0.00178826
2.42686e-08
-3.86916e-05
0.00180603
-1.79002e-08
-3.18288e-05
0.00181987
2.24472e-08
-2.71714e-05
0.00183049
-9.13611e-09
-2.24406e-05
0.00183855
1.09674e-07
-1.97898e-05
0.0018457
-1.12613e-07
-1.78831e-05
0.00184569
1.51607e-06
-1.26577e-05
0.00185923
-1.06413e-06
-1.86965e-05
0.00182982
5.47444e-06
1.66543e-05
0.00187833
5.3146e-06
-4.44879e-05
0.00179271
1.44366e-05
0.000221914
0.00160069
0.000222646
0.000269422
0.00136216
0.00037197
7.71528e-06
0.00131319
0.000433052
-0.00013038
0.00123143
0.000455272
-3.71164e-05
0.00109424
0.00048075
1.62285e-05
0.000843255
0.000512875
4.78217e-05
0.000799164
0.000599351
5.53584e-05
0.000550974
0.000575066
-8.73982e-06
0.000302946
0.000583956
-5.32862e-05
5.7273e-05
0.000659484
-0.000124128
-0.000120378
0.000709391
-0.000279308
0.00058495
-0.000607824
0.00172973
7.55505e-09
-5.86408e-05
0.00176407
2.12856e-09
-4.70218e-05
0.00178818
3.70816e-09
-3.85063e-05
0.00180606
2.71915e-10
-3.20133e-05
0.00181981
2.54665e-09
-2.70099e-05
0.00183053
5.48882e-09
-2.25936e-05
0.00183886
2.27946e-08
-1.96512e-05
0.00184446
1.5486e-07
-1.73105e-05
0.00185782
2.72157e-07
-1.96487e-05
0.0018446
1.378e-06
-2.0773e-06
0.0018815
2.8343e-06
-2.88027e-05
0.00180784
1.21457e-05
5.2145e-05
0.00180411
5.32048e-05
7.19997e-05
0.00153925
0.000361557
0.000322106
0.00133134