/*--------------------------------*- C++ -*----------------------------------*\
  =========                 |
  \\      /  F ield         | OpenFOAM: The Open Source CFD Toolbox
   \\    /   O peration     | Website:  https://openfoam.org
    \\  /    A nd           | Version:  6
     \\/     M anipulation  |
\*---------------------------------------------------------------------------*/
FoamFile
{
    version     2.0;
    format      ascii;
    class       volScalarField;
    location    "9.5";
    object      T;
}
// * * * * * * * * * * * * * * * * * * * * * * * * * * * * * * * * * * * * * //

dimensions      [0 0 0 1 0 0 0];

internalField   nonuniform List<scalar> 
26250
(
0.978764
0.968862
0.954451
0.948161
0.93661
0.933861
0.929147
0.935226
0.946806
1.00915
1.11521
1.56025
2.45108
2.67691
2.64666
2.59645
2.58893
2.6025
2.66163
2.72323
2.73809
2.73731
2.73034
2.71399
2.6834
0.97879
0.968861
0.954434
0.948159
0.936618
0.933841
0.929107
0.93515
0.946691
1.00866
1.11445
1.55638
2.44483
2.66671
2.63762
2.59059
2.58532
2.59971
2.65933
2.71554
2.73384
2.73304
2.72753
2.71522
2.68699
0.978808
0.968844
0.954435
0.94817
0.936613
0.933822
0.929027
0.935077
0.946278
1.00822
1.11262
1.55482
2.4409
2.66787
2.63945
2.59269
2.58839
2.60332
2.6612
2.71471
2.73403
2.73111
2.72319
2.71257
2.68755
0.978893
0.968699
0.954583
0.948054
0.936717
0.933612
0.928727
0.934751
0.94403
1.00717
1.10516
1.55587
2.44524
2.66508
2.63993
2.59393
2.59144
2.60681
2.66847
2.71994
2.73345
2.72829
2.71792
2.71048
2.69635
0.981038
0.96659
0.956835
0.945816
0.938925
0.93129
0.930733
0.931623
0.95231
0.98436
1.14643
1.52164
2.30288
2.63661
2.61604
2.57742
2.57831
2.59892
2.67027
2.71824
2.73096
2.72334
2.71576
2.71212
2.70196
0.978973
0.968654
0.954686
0.947979
0.936811
0.933384
0.928125
0.934202
0.941212
1.00491
1.09851
1.54485
2.41171
2.63738
2.62132
2.5785
2.57469
2.59227
2.65795
2.70429
2.7157
2.70673
2.70655
2.70916
2.70603
0.981418
0.966137
0.957169
0.945378
0.93927
0.930612
0.93021
0.930081
0.95107
0.981984
1.1373
1.49726
2.26093
2.61236
2.60611
2.57281
2.57366
2.59496
2.65994
2.69735
2.70225
2.68989
2.69125
2.70181
2.70423
0.979226
0.968409
0.954897
0.94787
0.936848
0.933176
0.92784
0.933355
0.941396
1.0008
1.09034
1.52171
2.3792
2.60036
2.60262
2.57172
2.57287
2.59487
2.65652
2.68776
2.68922
2.67353
2.6749
2.68557
2.69371
0.979396
0.968281
0.955076
0.947608
0.936966
0.932986
0.927821
0.932916
0.942063
0.997605
1.08691
1.49701
2.35154
2.56809
2.59333
2.57194
2.57543
2.59859
2.65402
2.67747
2.67428
2.65416
2.65471
2.66586
2.66544
0.979584
0.968164
0.95505
0.947492
0.937024
0.932723
0.927268
0.932221
0.93928
0.994185
1.07729
1.47847
2.31598
2.54459
2.58714
2.57353
2.579
2.6054
2.64598
2.65259
2.63514
2.60506
2.60452
2.61733
2.5691
1.01406
1.02115
1.0262
1.02909
1.03204
1.03448
1.04187
1.05356
1.08953
1.17331
1.37704
1.91768
2.81166
2.73933
2.82985
2.85173
2.85727
2.82089
2.78255
2.75981
2.75885
2.76531
2.79648
2.77721
2.71518
1.01406
1.02115
1.0262
1.02909
1.03204
1.03448
1.04185
1.05352
1.08939
1.17301
1.37625
1.91073
2.81105
2.73962
2.82553
2.84696
2.85187
2.81536
2.77271
2.7568
2.75528
2.75775
2.78697
2.78598
2.72307
1.01406
1.02115
1.02619
1.0291
1.03204
1.03447
1.04181
1.05341
1.08912
1.17231
1.37453
1.90977
2.80948
2.74046
2.83108
2.85027
2.85107
2.80933
2.76599
2.75084
2.75079
2.75214
2.77761
2.78726
2.72623
1.01405
1.02115
1.02619
1.0291
1.03203
1.03447
1.04174
1.05319
1.08874
1.17093
1.37218
1.90267
2.80711
2.73993
2.82984
2.84918
2.8465
2.79997
2.75763
2.74916
2.74752
2.74972
2.76914
2.78462
2.72645
1.01413
1.02116
1.02623
1.02915
1.03201
1.03446
1.04129
1.05376
1.084
1.17758
1.36063
1.90501
2.81089
2.74287
2.8377
2.85281
2.84349
2.79029
2.75135
2.7372
2.73702
2.74113
2.75881
2.77861
2.72448
1.01403
1.02117
1.02619
1.02913
1.03202
1.03444
1.04151
1.05261
1.0874
1.16713
1.36369
1.8812
2.79875
2.74289
2.82828
2.85282
2.83982
2.78116
2.74489
2.73076
2.7275
2.73083
2.74906
2.77144
2.71981
1.01414
1.02116
1.02622
1.02916
1.03199
1.03442
1.041
1.053
1.08228
1.17256
1.34895
1.872
2.79913
2.74777
2.82559
2.85412
2.83562
2.77153
2.73663
2.72206
2.71446
2.71416
2.72994
2.75678
2.70998
1.01403
1.02118
1.02619
1.02915
1.03198
1.03437
1.0411
1.05177
1.08503
1.16152
1.34806
1.84412
2.77576
2.74536
2.81955
2.85576
2.83153
2.76282
2.72903
2.71517
2.70592
2.7019
2.70754
2.73762
2.69009
1.01403
1.0212
1.02619
1.02914
1.03195
1.03431
1.04082
1.05123
1.08343
1.15799
1.33738
1.82317
2.75313
2.74423
2.81537
2.85511
2.82576
2.75314
2.71735
2.70434
2.69005
2.68197
2.68504
2.70097
2.64934
1.01405
1.0212
1.02616
1.02913
1.03191
1.03419
1.04038
1.05069
1.08082
1.15592
1.32477
1.80351
2.7065
2.75393
2.82763
2.85201
2.81247
2.74001
2.70672
2.69631
2.67858
2.65717
2.64858
2.65779
2.56557
1.00659
1.01244
1.02177
1.02776
1.03622
1.04137
1.0522
1.06847
1.1122
1.21308
1.43861
2.11988
2.83822
2.6534
2.85122
2.81267
2.72127
2.71617
2.75264
2.71901
2.78371
2.77017
2.76853
2.76012
2.70696
1.00661
1.01242
1.02179
1.02774
1.03624
1.04135
1.05223
1.06829
1.11244
1.21174
1.43898
2.12248
2.8362
2.6558
2.84629
2.79975
2.71344
2.71137
2.75097
2.71693
2.77873
2.76634
2.76448
2.75595
2.70978
1.00659
1.01243
1.02176
1.02777
1.03623
1.04135
1.05213
1.06833
1.11182
1.21228
1.43644
2.11719
2.83362
2.66214
2.84405
2.78351
2.70428
2.70466
2.74798
2.72665
2.77451
2.75968
2.75673
2.74726
2.70776
1.00661
1.01241
1.02178
1.02776
1.03625
1.04132
1.05209
1.06804
1.11172
1.21021
1.43479
2.11515
2.82905
2.67118
2.83842
2.76599
2.69533
2.69793
2.74153
2.71865
2.76754
2.75265
2.74972
2.74026
2.70309
1.00663
1.01239
1.02181
1.02775
1.03626
1.04128
1.05201
1.06765
1.11139
1.20759
1.4316
2.10907
2.82269
2.68229
2.83289
2.75292
2.68864
2.69179
2.73557
2.71233
2.75783
2.74317
2.73535
2.72732
2.69285
1.00661
1.0124
1.02182
1.02777
1.03623
1.04123
1.05178
1.06741
1.11018
1.20621
1.42491
2.09337
2.81507
2.69356
2.82957
2.74475
2.68318
2.68617
2.72435
2.70323
2.74574
2.73076
2.72315
2.71645
2.68163
1.00662
1.01241
1.02184
1.02774
1.0362
1.04115
1.05157
1.06689
1.10905
1.20269
1.4171
2.07529
2.80479
2.70458
2.82535
2.73769
2.67761
2.67946
2.71407
2.68692
2.73486
2.716
2.70793
2.69462
2.65771
1.00663
1.01243
1.0218
1.02769
1.03616
1.04107
1.05126
1.06643
1.10731
1.19971
1.40691
2.05078
2.79121
2.72005
2.82015
2.72953
2.67124
2.67263
2.70256
2.674
2.71991
2.69714
2.68672
2.67208
2.63133
1.00666
1.01234
1.02178
1.02768
1.03616
1.04098
1.05096
1.06572
1.10582
1.19465
1.39701
2.0139
2.78464
2.73514
2.81049
2.72133
2.66481
2.66596
2.68875
2.65959
2.7002
2.67895
2.66166
2.63698
2.57148
1.00625
1.01266
1.02155
1.02789
1.03591
1.04104
1.05018
1.06499
1.10328
1.19136
1.38444
1.9701
2.76926
2.74885
2.80651
2.71536
2.65921
2.65941
2.6778
2.64779
2.67395
2.65629
2.62901
2.59344
2.48998
1.01406
1.02114
1.02619
1.0291
1.03203
1.03449
1.04188
1.05353
1.08953
1.17338
1.37771
1.92407
2.81051
2.73897
2.82543
2.84706
2.85265
2.82225
2.7717
2.75962
2.76036
2.7663
2.77978
2.80865
2.71181
1.01415
1.02113
1.02624
1.02914
1.03202
1.0345
1.04147
1.05433
1.08523
1.18145
1.36941
1.94191
2.81546
2.73957
2.84073
2.85928
2.856
2.8113
2.78011
2.76374
2.76511
2.77177
2.79136
2.79985
2.7225
1.01404
1.02115
1.02619
1.02911
1.03203
1.03449
1.04184
1.05336
1.08929
1.1723
1.37606
1.92373
2.80876
2.73779
2.83138
2.85389
2.85122
2.80522
2.77247
2.75875
2.75849
2.76619
2.7896
2.78948
2.72156
1.01415
1.02113
1.02624
1.02914
1.03203
1.03449
1.04144
1.05405
1.08487
1.17964
1.36551
1.92709
2.81339
2.74129
2.83832
2.85666
2.84897
2.7971
2.76324
2.75082
2.75167
2.75481
2.78274
2.7858
2.72138
1.01416
1.02113
1.02624
1.02915
1.03203
1.03448
1.04139
1.05379
1.08445
1.17796
1.36171
1.91631
2.81075
2.74204
2.8393
2.8571
2.84401
2.7871
2.75448
2.74484
2.74521
2.74783
2.7718
2.77909
2.71987
1.01414
1.02116
1.02624
1.02915
1.03202
1.03445
1.04125
1.05346
1.08357
1.17565
1.35626
1.89945
2.8055
2.7437
2.83737
2.85888
2.84223
2.78097
2.74868
2.73549
2.7329
2.73588
2.75823
2.77192
2.71579
1.01404
1.02117
1.02618
1.02913
1.03201
1.03441
1.04136
1.05232
1.08638
1.16512
1.35668
1.86173
2.78976
2.74261
2.82511
2.85871
2.83972
2.77602
2.74307
2.72828
2.72419
2.72156
2.73987
2.75715
2.70678
1.01405
1.02117
1.02619
1.02914
1.03199
1.03437
1.04112
1.05185
1.085
1.16198
1.34748
1.84141
2.77438
2.7441
2.81662
2.85719
2.83348
2.76576
2.73288
2.71962
2.71025
2.70839
2.71627
2.73919
2.68773
1.01405
1.02119
1.02618
1.02914
1.03194
1.03431
1.04083
1.05126
1.08351
1.15805
1.3377
1.82338
2.75194
2.74459
2.81495
2.85423
2.82462
2.75186
2.71946
2.70893
2.69881
2.68666
2.69114
2.70382
2.64761
1.01406
1.02119
1.02615
1.02913
1.03191
1.03419
1.0404
1.05073
1.08092
1.15615
1.32513
1.80372
2.70555
2.75443
2.82683
2.8496
2.80979
2.73661
2.70349
2.69508
2.68416
2.66606
2.65491
2.65988
2.56477
0.978857
0.968751
0.954463
0.948208
0.936563
0.933775
0.928836
0.935083
0.944589
1.00932
1.11152
1.56451
2.45671
2.66917
2.63653
2.5854
2.5743
2.58713
2.63336
2.6788
2.69838
2.70496
2.71766
2.71556
2.6769
0.981321
0.96616
0.957159
0.945419
0.939322
0.930767
0.93104
0.931075
0.953851
0.987564
1.15378
1.54917
2.33364
2.66063
2.6312
2.58937
2.59045
2.6121
2.67794
2.71905
2.72214
2.72496
2.73325
2.73893
2.72131
0.978817
0.968766
0.954539
0.948133
0.936641
0.93366
0.928521
0.934914
0.942739
1.00884
1.10566
1.5692
2.46161
2.67042
2.63564
2.58998
2.58669
2.60109
2.66003
2.70334
2.71155
2.71502
2.72087
2.72233
2.71318
0.981398
0.966081
0.957207
0.945371
0.939378
0.930761
0.931057
0.931716
0.953283
0.989476
1.15154
1.52575
2.31611
2.64715
2.61388
2.57789
2.57811
2.59618
2.65883
2.70173
2.71236
2.7142
2.71958
2.72385
2.71563
0.981499
0.966004
0.957266
0.945307
0.939438
0.930653
0.931107
0.93129
0.953249
0.991157
1.14678
1.51022
2.30132
2.63939
2.61382
2.57641
2.57617
2.59387
2.65725
2.70041
2.71125
2.71198
2.71725
2.72527
2.72109
0.981093
0.966551
0.956867
0.945792
0.938953
0.931242
0.9308
0.931672
0.95207
0.986591
1.14311
1.50532
2.2872
2.62741
2.61101
2.57133
2.57083
2.58897
2.65184
2.69105
2.70052
2.70098
2.70814
2.72171
2.72288
0.979063
0.968615
0.954678
0.948012
0.936791
0.933462
0.928321
0.934098
0.9427
1.00361
1.0967
1.53178
2.38949
2.62447
2.61349
2.57461
2.57331
2.59081
2.64833
2.68264
2.69015
2.68971
2.69727
2.71399
2.71864
0.979251
0.968409
0.954885
0.947857
0.936859
0.933333
0.928171
0.933574
0.943372
1.00074
1.09409
1.51255
2.37412
2.59878
2.60968
2.58013
2.58142
2.5994
2.65142
2.67631
2.67602
2.66679
2.67234
2.68874
2.70317
0.979433
0.968271
0.955057
0.94762
0.936955
0.933006
0.927872
0.933015
0.942198
0.99787
1.08698
1.49838
2.35283
2.56595
2.59656
2.57745
2.58212
2.60616
2.65361
2.66922
2.66216
2.64195
2.6442
2.6584
2.66993
0.979597
0.968163
0.954997
0.947549
0.937012
0.932709
0.927376
0.932356
0.939671
0.994377
1.07724
1.48019
2.31716
2.54376
2.58822
2.57635
2.58306
2.61102
2.64861
2.6526
2.63053
2.59788
2.59653
2.60849
2.56836
0.981272
0.966218
0.95691
0.945552
0.939014
0.930598
0.928908
0.928576
0.946324
0.972867
1.11053
1.40302
2.12321
2.5194
2.57676
2.57115
2.58091
2.61463
2.63797
2.6336
2.59705
2.56123
2.53836
2.51625
2.45012
0.979582
0.96804
0.955247
0.947226
0.937381
0.932019
0.926442
0.930733
0.936213
0.985559
1.06358
1.41467
2.20046
2.47185
2.54188
2.5544
2.57456
2.61104
2.61874
2.59848
2.55726
2.52076
2.49294
2.45686
2.36886
0.981204
0.966511
0.956755
0.945724
0.938918
0.930506
0.927943
0.927545
0.94255
0.963409
1.08712
1.31851
2.00145
2.46986
2.54316
2.56443
2.58075
2.59459
2.58365
2.55057
2.51496
2.4859
2.45408
2.41984
2.34201
0.979432
0.967958
0.955376
0.947133
0.9374
0.931935
0.925793
0.929504
0.933121
0.972231
1.03902
1.33206
1.99634
2.41589
2.53932
2.57622
2.57725
2.56668
2.54018
2.5127
2.48858
2.46672
2.43055
2.39793
2.33232
0.979227
0.968245
0.955094
0.94734
0.937306
0.931766
0.925516
0.92916
0.929522
0.963407
1.01466
1.2667
1.84593
2.4117
2.55111
2.55453
2.52192
2.49576
2.48862
2.48269
2.47178
2.4545
2.41917
2.38674
2.33147
0.981113
0.966394
0.956944
0.945549
0.938973
0.929939
0.927021
0.923859
0.931008
0.946012
1.01157
1.16831
1.59268
2.39137
2.54454
2.52437
2.47795
2.4634
2.45642
2.4547
2.4465
2.4269
2.39895
2.3645
2.32423
0.981066
0.966452
0.956826
0.945676
0.938832
0.930017
0.926347
0.922525
0.927777
0.937984
0.992654
1.09098
1.48004
2.26367
2.51882
2.51613
2.49449
2.47025
2.45284
2.44146
2.42836
2.40672
2.38139
2.34915
2.31105
0.980925
0.966584
0.956698
0.945759
0.938736
0.9301
0.925851
0.921571
0.925591
0.934621
0.980352
1.06571
1.40713
2.12217
2.49384
2.52411
2.50816
2.48102
2.45454
2.4364
2.42057
2.39967
2.37476
2.34448
2.30966
0.980813
0.966668
0.956595
0.94587
0.938563
0.930271
0.925327
0.920572
0.923944
0.930607
0.969727
1.04374
1.3241
2.00323
2.44273
2.49813
2.48912
2.47045
2.43981
2.4205
2.40553
2.3889
2.36763
2.34242
2.31014
0.980185
0.967356
0.955888
0.946631
0.937758
0.931125
0.924303
0.921064
0.920509
0.930728
0.948382
1.03348
1.21074
1.69748
2.35807
2.4857
2.47907
2.45687
2.4247
2.39875
2.37968
2.36611
2.34841
2.33037
2.30673
0.980844
0.966657
0.956616
0.945885
0.938533
0.930309
0.925099
0.919799
0.921915
0.922648
0.946602
0.99334
1.1442
1.63357
2.21097
2.41675
2.42342
2.41512
2.39592
2.37242
2.35627
2.3407
2.32566
2.30686
2.28857
0.979305
0.968252
0.954991
0.947515
0.936911
0.931915
0.923405
0.921165
0.917904
0.92297
0.932625
0.98283
1.07698
1.43111
2.13251
2.39997
2.41358
2.40008
2.38186
2.3596
2.34465
2.33088
2.31641
2.29978
2.28078
0.981057
0.966405
0.956895
0.945553
0.93887
0.929855
0.92542
0.918583
0.918547
0.918459
0.933885
0.964625
1.06607
1.34098
1.93383
2.40404
2.44243
2.42288
2.40412
2.37378
2.3524
2.33625
2.31988
2.30218
2.28259
0.980811
0.966668
0.956632
0.945811
0.93863
0.930102
0.925129
0.918642
0.91738
0.91694
0.929266
0.950919
1.04339
1.2215
1.76596
2.33381
2.43692
2.43282
2.41415
2.39288
2.36979
2.35113
2.33365
2.31544
2.29565
0.980599
0.966889
0.956403
0.946046
0.9384
0.930335
0.924877
0.918733
0.916428
0.91593
0.925303
0.942737
1.01531
1.15253
1.61002
2.2109
2.40158
2.40701
2.39944
2.3838
2.3651
2.34927
2.33394
2.3176
2.29985
0.980303
0.967201
0.956088
0.946373
0.938086
0.930638
0.9246
0.918804
0.915624
0.915182
0.921463
0.935862
0.989665
1.09459
1.46406
2.14522
2.36816
2.38372
2.37662
2.36014
2.34172
2.3296
2.31856
2.30592
2.29117
0.980172
0.967334
0.955974
0.946536
0.937963
0.930841
0.92441
0.919061
0.915098
0.91479
0.919091
0.930003
0.973924
1.05761
1.37662
2.05338
2.36651
2.4082
2.39351
2.37623
2.35191
2.33546
2.32196
2.30783
2.29237
0.981226
0.966253
0.957054
0.945391
0.939048
0.929694
0.925437
0.917993
0.916012
0.913742
0.917228
0.926454
0.964665
1.04087
1.31345
1.9669
2.36291
2.43844
2.42393
2.40629
2.38326
2.36108
2.34383
2.32738
2.31028
0.981213
0.966281
0.957025
0.94543
0.939017
0.929711
0.92544
0.917917
0.91591
0.912759
0.915853
0.923423
0.956174
1.02075
1.24682
1.86265
2.31768
2.44026
2.43804
2.42127
2.39936
2.37526
2.35663
2.34024
2.32367
0.981009
0.966483
0.956815
0.945633
0.93881
0.929901
0.92525
0.918072
0.91557
0.912258
0.91489
0.921209
0.947308
1.00471
1.17999
1.71601
2.2567
2.4438
2.443
2.42716
2.40466
2.37861
2.3594
2.34309
2.32727
0.980765
0.96672
0.956578
0.945875
0.938558
0.930147
0.925004
0.918306
0.915078
0.911863
0.913924
0.919078
0.939143
0.990546
1.12195
1.57281
2.14126
2.42429
2.43434
2.41773
2.39364
2.36752
2.35042
2.33627
2.32235
0.980713
0.9668
0.95646
0.946034
0.938358
0.930399
0.924723
0.91852
0.914635
0.910873
0.912347
0.916147
0.935211
0.972906
1.10261
1.41848
2.05877
2.42537
2.44575
2.42367
2.3963
2.36746
2.34966
2.33608
2.32262
0.980724
0.966761
0.956519
0.945932
0.938486
0.930254
0.924832
0.918435
0.914638
0.910599
0.912424
0.914269
0.931669
0.965783
1.08757
1.36367
2.01701
2.44686
2.47828
2.4533
2.42512
2.39224
2.37069
2.35417
2.33855
0.980627
0.966874
0.956414
0.946055
0.938386
0.930369
0.924745
0.918524
0.91455
0.910531
0.911834
0.912773
0.929114
0.95923
1.07721
1.31801
1.96672
2.43697
2.48699
2.46742
2.44692
2.41738
2.39657
2.38012
2.36428
0.980865
0.966671
0.956616
0.945894
0.938532
0.930246
0.924843
0.918419
0.91458
0.910301
0.911041
0.911888
0.926828
0.954632
1.06365
1.28113
1.90097
2.413
2.4867
2.47789
2.45899
2.43123
2.40955
2.39352
2.37919
0.980748
0.966692
0.956593
0.945872
0.938564
0.930134
0.924995
0.918185
0.914807
0.909968
0.910877
0.912611
0.925145
0.955618
1.04348
1.29137
1.84071
2.38443
2.4878
2.48552
2.46873
2.44316
2.41894
2.40165
2.38708
0.980945
0.966536
0.956694
0.945769
0.93858
0.930189
0.92486
0.918361
0.914624
0.909902
0.910076
0.910145
0.922322
0.944223
1.03302
1.19976
1.73644
2.35034
2.49418
2.4908
2.46764
2.4387
2.41081
2.39321
2.37976
0.980523
0.966979
0.956292
0.94618
0.938232
0.930529
0.924548
0.918687
0.914295
0.910209
0.909646
0.910278
0.919847
0.943203
1.00976
1.18819
1.61403
2.27963
2.48465
2.48242
2.4582
2.41804
2.38485
2.36819
2.35895
0.98068
0.966813
0.956468
0.945995
0.938408
0.930352
0.924705
0.918523
0.914398
0.909957
0.908932
0.909198
0.916941
0.936595
0.994213
1.12886
1.52932
2.30002
2.50031
2.497
2.46754
2.4227
2.3877
2.37226
2.36461
0.980615
0.966873
0.956414
0.946035
0.938394
0.930332
0.924765
0.918431
0.914479
0.90969
0.908343
0.907925
0.915607
0.931828
0.987913
1.09737
1.49254
2.27728
2.5291
2.5284
2.49652
2.45021
2.41356
2.3972
2.38884
0.980551
0.966941
0.956343
0.946112
0.938317
0.930412
0.924689
0.918505
0.914398
0.909718
0.908052
0.907643
0.91484
0.928902
0.983566
1.07895
1.47302
2.27491
2.5475
2.55372
2.52231
2.48017
2.44443
2.42794
2.41918
0.980524
0.966973
0.95631
0.946148
0.938282
0.93045
0.924653
0.918542
0.91436
0.909742
0.907909
0.907517
0.914021
0.929084
0.979847
1.08524
1.4712
2.25373
2.53877
2.55205
2.52212
2.48271
2.44695
2.42952
2.42024
0.980483
0.967015
0.956267
0.946191
0.938238
0.930495
0.924608
0.918587
0.914308
0.909751
0.907722
0.907299
0.913687
0.926457
0.977249
1.06516
1.44885
2.23298
2.5361
2.5524
2.5244
2.48804
2.45166
2.43279
2.4226
0.980465
0.967034
0.956249
0.946212
0.938217
0.930517
0.924586
0.918609
0.914286
0.909759
0.907646
0.907234
0.913342
0.925707
0.974947
1.06032
1.43248
2.20253
2.52323
2.547
2.5209
2.48739
2.45019
2.43073
2.42021
0.980451
0.967049
0.956233
0.946228
0.938201
0.930535
0.924569
0.918627
0.914267
0.909773
0.907609
0.907225
0.913207
0.92479
0.973771
1.05377
1.42049
2.18604
2.51399
2.54178
2.51712
2.48608
2.44894
2.42923
2.41856
0.980441
0.967061
0.956223
0.94624
0.938191
0.930546
0.924559
0.918638
0.914255
0.909779
0.907556
0.907157
0.912946
0.924819
0.972316
1.05509
1.41168
2.1723
2.50882
2.53957
2.51671
2.48773
2.4519
2.43197
2.42169
0.980437
0.967065
0.956219
0.946244
0.938188
0.93055
0.924556
0.918641
0.914253
0.90979
0.907565
0.907185
0.912743
0.92557
0.971903
1.06382
1.41009
2.16246
2.48821
2.52112
2.50018
2.4727
2.43834
2.41928
2.40999
0.980431
0.967074
0.956209
0.946256
0.938176
0.930564
0.924543
0.918657
0.914238
0.909796
0.907527
0.907145
0.912861
0.923957
0.97156
1.04931
1.4033
2.1593
2.50149
2.53426
2.51305
2.48551
2.45102
2.43094
2.42013
0.980428
0.967074
0.95621
0.946253
0.938178
0.93056
0.924546
0.918652
0.914244
0.909802
0.907561
0.907177
0.912754
0.924921
0.97117
1.05781
1.40223
2.14726
2.47982
2.51501
2.49524
2.46986
2.43665
2.41629
2.406
0.980441
0.967061
0.956223
0.946239
0.938191
0.930546
0.924559
0.918639
0.914256
0.909798
0.907598
0.907226
0.912752
0.925669
0.971275
1.06302
1.40248
2.15005
2.48013
2.51393
2.49423
2.46856
2.43498
2.41397
2.40377
1.0137
1.02159
1.02579
1.02955
1.03149
1.03434
1.03829
1.0523
1.07771
1.14763
1.32189
1.87171
2.63856
2.75893
2.82645
2.84065
2.79105
2.72245
2.69474
2.68099
2.66367
2.64148
2.60534
2.57569
2.44547
1.01362
1.02164
1.02569
1.02958
1.03135
1.03428
1.03787
1.05083
1.07561
1.13907
1.31147
1.82589
2.58341
2.75654
2.82107
2.83172
2.78023
2.71191
2.68273
2.66587
2.64138
2.61761
2.57461
2.5257
2.40523
1.01377
1.02156
1.02572
1.0296
1.03132
1.03428
1.03751
1.05008
1.07181
1.13507
1.2887
1.75983
2.52565
2.75565
2.80632
2.822
2.7678
2.7028
2.67474
2.65836
2.6269
2.59344
2.54217
2.4995
2.40743
1.01373
1.02147
1.02585
1.02944
1.03142
1.03399
1.03695
1.04714
1.06974
1.11923
1.27476
1.69059
2.42975
2.75923
2.80817
2.82165
2.7509
2.68647
2.66199
2.64746
2.61793
2.58594
2.52424
2.47932
2.40727
1.01381
1.02123
1.02605
1.02917
1.03166
1.03359
1.03735
1.04439
1.06294
1.11886
1.2219
1.62021
2.35685
2.76845
2.82021
2.82012
2.72905
2.67593
2.65343
2.63851
2.60442
2.57734
2.52215
2.47533
2.40971
1.01372
1.02157
1.02578
1.02955
1.03135
1.0338
1.0359
1.044
1.05816
1.10092
1.20292
1.50612
2.11401
2.77803
2.82634
2.80315
2.70617
2.67337
2.64877
2.6309
2.58983
2.56191
2.51653
2.4746
2.41765
1.01377
1.02151
1.02583
1.02949
1.03136
1.03372
1.03551
1.04214
1.05279
1.08846
1.16609
1.40237
1.86911
2.77831
2.81235
2.7695
2.69806
2.67075
2.6424
2.62414
2.58565
2.55289
2.51382
2.47295
2.42534
1.01389
1.02139
1.02595
1.02935
1.03151
1.03346
1.03515
1.03903
1.04985
1.07886
1.13235
1.33426
1.77986
2.61708
2.7701
2.74381
2.70199
2.66749
2.63389
2.61423
2.58402
2.55251
2.51503
2.47611
2.43377
1.01405
1.02122
1.0261
1.0292
1.03163
1.03329
1.03514
1.03815
1.04744
1.07165
1.11836
1.2885
1.67883
2.46264
2.75212
2.73982
2.70636
2.65884
2.62601
2.60578
2.58178
2.55301
2.52022
2.48275
2.44364
1.01421
1.02104
1.02629
1.02898
1.03184
1.03305
1.03526
1.03753
1.04696
1.06386
1.10845
1.24356
1.54168
2.30359
2.73012
2.72822
2.70108
2.6548
2.62537
2.60401
2.58265
2.55742
2.52856
2.49546
2.46049
1.01391
1.02133
1.026
1.02928
1.03152
1.03339
1.03481
1.03781
1.04323
1.05861
1.10117
1.1819
1.48279
2.15297
2.67562
2.71675
2.69359
2.65284
2.62324
2.60141
2.58182
2.55847
2.53386
2.50484
2.47464
1.01375
1.02144
1.02588
1.02936
1.03143
1.03342
1.03464
1.03702
1.04119
1.0542
1.08616
1.15144
1.37406
1.93839
2.59869
2.68208
2.65976
2.63774
2.62037
2.60278
2.58554
2.56387
2.54213
2.51577
2.48788
1.01407
1.02119
1.02615
1.02914
1.03167
1.03318
1.03478
1.03615
1.04037
1.05072
1.07086
1.14486
1.27771
1.7174
2.55931
2.67291
2.65221
2.63378
2.6106
2.59832
2.58761
2.56977
2.5505
2.52719
2.50117
1.01417
1.02107
1.02628
1.02899
1.03182
1.03302
1.03486
1.03581
1.03905
1.04802
1.06962
1.11492
1.26907
1.60333
2.39555
2.67127
2.66352
2.64029
2.61611
2.60091
2.59034
2.57761
2.56034
2.54064
2.51704
1.0139
1.02133
1.02601
1.02926
1.03155
1.03328
1.03456
1.03593
1.03823
1.04654
1.06305
1.10154
1.23021
1.48603
2.19743
2.62815
2.67863
2.65456
2.63198
2.60907
2.59355
2.58031
2.564
2.54694
2.52625
1.01374
1.02148
1.02586
1.0294
1.0314
1.03341
1.03442
1.03594
1.03772
1.04524
1.05708
1.09316
1.18257
1.39431
2.01862
2.55233
2.67105
2.65944
2.63634
2.61543
2.60022
2.58647
2.57118
2.55463
2.53593
1.01367
1.02155
1.02579
1.02948
1.03133
1.0335
1.03433
1.03596
1.03731
1.04325
1.05274
1.08248
1.15089
1.3185
1.73216
2.49639
2.64957
2.6433
2.62988
2.61036
2.59798
2.58642
2.57313
2.55847
2.5416
1.01403
1.02124
1.02611
1.02918
1.03164
1.0332
1.03464
1.03561
1.03749
1.04085
1.05077
1.07603
1.12586
1.29145
1.70165
2.41272
2.65993
2.65622
2.63602
2.61427
2.59957
2.58685
2.5734
2.55939
2.54376
1.01381
1.02146
1.02589
1.02941
1.03141
1.03343
1.03437
1.03582
1.03686
1.0412
1.04796
1.0698
1.12259
1.23221
1.60414
2.39831
2.63197
2.66845
2.65252
2.63289
2.61222
2.59538
2.57966
2.56363
2.54739
1.01381
1.02144
1.0259
1.02939
1.03141
1.03341
1.03438
1.03576
1.03677
1.04055
1.04618
1.06626
1.10869
1.20387
1.51935
2.28419
2.60442
2.68494
2.66057
2.64169
2.61586
2.59761
2.58212
2.56676
2.55103
1.01382
1.02143
1.02591
1.02937
1.03143
1.03339
1.0344
1.03571
1.03664
1.03983
1.0446
1.06234
1.09615
1.18236
1.43057
2.10563
2.57696
2.70067
2.67826
2.65063
2.62244
2.60386
2.58875
2.57367
2.55796
1.01385
1.02139
1.02594
1.02934
1.03145
1.03337
1.03441
1.03566
1.03653
1.03914
1.04329
1.05815
1.0865
1.16207
1.35868
1.9372
2.52111
2.69466
2.6698
2.64727
2.61979
2.60349
2.59027
2.57659
2.56224
1.01387
1.02138
1.02595
1.02933
1.03147
1.03335
1.03441
1.03564
1.03647
1.0388
1.04236
1.05631
1.07993
1.1497
1.31729
1.82308
2.5291
2.70697
2.67008
2.65612
2.62825
2.61064
2.59641
2.58268
2.56835
1.01387
1.02138
1.02596
1.02932
1.03148
1.03334
1.03443
1.03561
1.0364
1.0384
1.04174
1.05371
1.07678
1.13521
1.30162
1.7317
2.51186
2.71902
2.68944
2.66829
2.63553
2.61534
2.59998
2.58571
2.57127
1.0139
1.02136
1.02598
1.02931
1.03149
1.03333
1.03443
1.0356
1.03635
1.03814
1.04113
1.05226
1.07307
1.1256
1.28329
1.64556
2.45892
2.70909
2.71015
2.68894
2.65503
2.63007
2.61276
2.5975
2.58247
1.01408
1.02117
1.02616
1.02912
1.03168
1.03314
1.03462
1.03538
1.03647
1.03739
1.04087
1.04946
1.06557
1.12805
1.22392
1.64408
2.5123
2.7022
2.72456
2.70043
2.67158
2.64218
2.62107
2.60455
2.58938
1.01396
1.0213
1.02603
1.02926
1.03154
1.0333
1.03447
1.03556
1.03626
1.03758
1.04033
1.0475
1.06803
1.10532
1.25055
1.53248
2.29539
2.68423
2.73426
2.716
2.67767
2.64901
2.6304
2.61614
2.60245
1.01408
1.02116
1.02617
1.0291
1.0317
1.03312
1.03464
1.03535
1.03646
1.03724
1.04043
1.04655
1.0614
1.10904
1.19169
1.51165
2.27733
2.67054
2.74603
2.73028
2.68985
2.65647
2.63584
2.62194
2.60983
1.01409
1.02116
1.02617
1.0291
1.0317
1.03311
1.03465
1.03534
1.03645
1.0372
1.04024
1.04521
1.06031
1.09947
1.1765
1.44133
2.12538
2.66255
2.75889
2.7405
2.68813
2.65431
2.6359
2.6233
2.61185
1.01408
1.02117
1.02617
1.02911
1.03169
1.03313
1.03463
1.03536
1.03637
1.03705
1.03891
1.04575
1.05686
1.08946
1.17112
1.36064
1.84801
2.65678
2.75693
2.73438
2.68168
2.64495
2.62855
2.61902
2.6104
1.0141
1.02115
1.02618
1.0291
1.03171
1.03311
1.03464
1.03534
1.03637
1.037
1.03872
1.04482
1.05555
1.08437
1.16505
1.34103
1.80548
2.6944
2.75675
2.72435
2.68327
2.64621
2.62882
2.6197
2.61138
1.01402
1.02123
1.02611
1.02917
1.03164
1.03317
1.03459
1.03538
1.03637
1.03702
1.0391
1.04343
1.05304
1.08554
1.13661
1.35219
1.8154
2.66077
2.76863
2.73181
2.69583
2.65597
2.63563
2.6253
2.61674
1.01406
1.02118
1.02615
1.02912
1.03168
1.03314
1.03462
1.03536
1.03635
1.03696
1.03852
1.04444
1.05369
1.08184
1.15317
1.30942
1.7609
2.69081
2.75991
2.72234
2.69806
2.65874
2.63726
2.62684
2.61932
1.01405
1.0212
1.02614
1.02914
1.03166
1.03315
1.03461
1.03537
1.03634
1.03695
1.03845
1.04449
1.05307
1.08228
1.14772
1.30028
1.73921
2.67238
2.75738
2.71974
2.69937
2.66006
2.63727
2.62611
2.61902
1.01402
1.02122
1.02612
1.02916
1.03164
1.03317
1.03459
1.03539
1.03632
1.03697
1.03839
1.04406
1.05292
1.07981
1.14854
1.29776
1.73906
2.66349
2.75308
2.71922
2.69974
2.66019
2.6355
2.62265
2.61596
1.01399
1.02126
1.02608
1.02919
1.03161
1.0332
1.03456
1.03542
1.03629
1.037
1.03835
1.04393
1.05246
1.079
1.14598
1.28923
1.72639
2.65755
2.75417
2.7256
2.70475
2.6643
2.63699
2.62241
2.61595
1.01399
1.02125
1.02609
1.02918
1.03162
1.03319
1.03457
1.03539
1.03634
1.03698
1.03881
1.04273
1.05108
1.08055
1.12514
1.32114
1.73073
2.57212
2.75715
2.73714
2.71371
2.67432
2.64419
2.62681
2.61977
1.01394
1.02131
1.02603
1.02924
1.03156
1.03325
1.03451
1.03547
1.03624
1.03708
1.03836
1.04295
1.0527
1.0749
1.14782
1.28462
1.73129
2.64731
2.74859
2.73348
2.71004
2.67266
2.64119
2.62387
2.61699
1.01401
1.02123
1.0261
1.02917
1.03163
1.03317
1.03459
1.03538
1.03636
1.03702
1.03899
1.04248
1.05217
1.07936
1.1279
1.31583
1.7116
2.57369
2.75661
2.74369
2.72014
2.68347
2.65048
2.63122
2.62292
1.01402
1.02123
1.02611
1.02916
1.03164
1.03317
1.0346
1.03538
1.03637
1.03703
1.03904
1.04248
1.05241
1.07938
1.12903
1.31499
1.71667
2.56901
2.76039
2.74842
2.7251
2.68723
2.65407
2.63648
2.62975
1.00582
1.01314
1.02101
1.02852
1.03526
1.04182
1.04961
1.06815
1.09939
1.18298
1.38639
2.01527
2.70951
2.76813
2.79953
2.7114
2.65426
2.65516
2.66605
2.63791
2.64877
2.63376
2.59243
2.53558
2.38092
1.00562
1.01341
1.02073
1.02877
1.03504
1.04183
1.04936
1.06676
1.09685
1.17655
1.36589
1.98555
2.6799
2.76679
2.78418
2.71219
2.65123
2.65274
2.65485
2.62555
2.62219
2.60639
2.56206
2.49569
2.3573
1.00552
1.01322
1.02106
1.0285
1.03527
1.04169
1.04841
1.0618
1.09449
1.17009
1.33559
1.84915
2.68952
2.77247
2.77669
2.72472
2.65235
2.65118
2.64915
2.61944
2.60131
2.58046
2.53711
2.4811
2.36397
1.00514
1.01388
1.02049
1.02892
1.03502
1.04157
1.04802
1.06005
1.0903
1.16054
1.30932
1.7751
2.66034
2.79988
2.77771
2.74379
2.65704
2.65099
2.64555
2.61765
2.58563
2.557
2.51549
2.47409
2.38121
1.00588
1.0131
1.02119
1.02838
1.03533
1.04141
1.04778
1.0593
1.08552
1.1373
1.30378
1.69348
2.5084
2.83855
2.78663
2.7564
2.66098
2.65256
2.64418
2.61874
2.57103
2.5418
2.50188
2.47049
2.40403
1.0051
1.0139
1.02031
1.0292
1.03455
1.04194
1.04715
1.05894
1.07865
1.12818
1.25922
1.58924
2.32113
2.83775
2.80484
2.76476
2.6689
2.65815
2.64605
2.61905
2.5693
2.53213
2.48844
2.46146
2.4254
1.00535
1.01381
1.02032
1.02926
1.03442
1.042
1.04646
1.05682
1.07139
1.11644
1.21143
1.49333
2.05806
2.83504
2.80761
2.76126
2.68656
2.66193
2.64612
2.6194
2.57117
2.53236
2.48793
2.45023
2.42768
1.0061
1.01293
1.02118
1.02841
1.03511
1.04149
1.04619
1.05451
1.06757
1.10291
1.18556
1.38116
1.85804
2.787
2.79341
2.76287
2.69593
2.66096
2.63985
2.61877
2.57605
2.53517
2.4914
2.44972
2.42632
1.00643
1.01252
1.02164
1.02782
1.03582
1.04055
1.04715
1.0524
1.06458
1.09435
1.16761
1.3126
1.78537
2.74497
2.78713
2.76614
2.70595
2.65854
2.63074
2.6154
2.58057
2.54067
2.49995
2.45408
2.4271
1.00609
1.01294
1.02122
1.02829
1.03538
1.04095
1.04681
1.05251
1.06472
1.08719
1.14181
1.3005
1.65327
2.56936
2.78903
2.75573
2.70473
2.65297
2.62658
2.61123
2.58861
2.55452
2.5155
2.46564
2.43242
1.00606
1.01301
1.02115
1.02839
1.03527
1.04106
1.04659
1.05199
1.06111
1.0822
1.12186
1.26198
1.53144
2.31053
2.75676
2.73726
2.70346
2.65131
2.62507
2.61037
2.59453
2.56486
2.53922
2.49039
2.44623
1.00571
1.01332
1.02086
1.02864
1.03503
1.04124
1.04629
1.05172
1.05871
1.07751
1.11412
1.2
1.45656
2.10121
2.71637
2.72316
2.70071
2.65299
2.62647
2.60864
2.59626
2.57019
2.55332
2.52137
2.4769
1.00628
1.01272
1.02145
1.02805
1.03561
1.04066
1.04678
1.05093
1.05779
1.07105
1.10418
1.16556
1.37649
1.89854
2.61613
2.70781
2.68886
2.65566
2.63029
2.61074
2.5999
2.57807
2.55812
2.53943
2.5079
1.00479
1.01424
1.01996
1.02953
1.03418
1.04203
1.04548
1.05189
1.05613
1.06834
1.09336
1.16306
1.29175
1.73904
2.63156
2.70365
2.68705
2.67423
2.64994
2.6217
2.6081
2.58915
2.56578
2.54744
2.52617
1.00494
1.01417
1.02002
1.02955
1.03416
1.04212
1.04535
1.05202
1.05525
1.06586
1.08692
1.14518
1.24545
1.6333
2.54582
2.67903
2.694
2.67976
2.66077
2.6377
2.61847
2.60054
2.57778
2.55575
2.53596