/*--------------------------------*- C++ -*----------------------------------*\
  =========                 |
  \\      /  F ield         | OpenFOAM: The Open Source CFD Toolbox
   \\    /   O peration     | Website:  https://openfoam.org
    \\  /    A nd           | Version:  6
     \\/     M anipulation  |
\*---------------------------------------------------------------------------*/
FoamFile
{
    version     2.0;
    format      ascii;
    class       volVectorField;
    location    "9.5";
    object      U;
}
// * * * * * * * * * * * * * * * * * * * * * * * * * * * * * * * * * * * * * //

dimensions      [0 1 -1 0 0 0 0];

internalField   nonuniform List<vector> 
26250
(
(3.01562 1.89605e-06 -0.0578962)
(3.02578 1.43804e-07 -0.0598611)
(3.03428 2.21105e-06 -0.0610374)
(3.04136 -3.77978e-07 -0.0623835)
(3.04745 4.60616e-06 -0.063063)
(3.05167 -1.02454e-06 -0.0642464)
(3.05207 1.62156e-05 -0.0648713)
(3.05049 4.16526e-05 -0.0664945)
(3.03342 7.53698e-05 -0.0689)
(3.00176 0.000212529 -0.0766703)
(2.87129 0.000446408 -0.0905567)
(2.50492 0.00155375 -0.134468)
(1.59473 0.00408954 -0.230493)
(0.783136 0.0112685 -0.274337)
(0.853921 0.0130936 -0.258505)
(0.969836 0.0115063 -0.246488)
(1.05056 0.0115677 -0.251846)
(1.05854 0.0136175 -0.256709)
(1.03265 0.0175268 -0.263774)
(0.981017 0.0260489 -0.269812)
(0.969716 0.0271238 -0.27004)
(0.919229 0.022551 -0.270647)
(0.788713 0.0145055 -0.271071)
(0.517717 0.00731689 -0.268593)
(0.272243 -0.00703409 -0.258984)
(3.01562 6.50579e-06 -0.0578978)
(3.02578 2.22424e-07 -0.0598607)
(3.03428 1.00957e-05 -0.0610364)
(3.04136 -2.28411e-06 -0.062383)
(3.04745 1.67632e-05 -0.063064)
(3.05168 -6.18247e-06 -0.0642441)
(3.0521 4.16322e-05 -0.0648711)
(3.05054 0.000137537 -0.0664909)
(3.03356 0.000226427 -0.0688894)
(3.00207 0.000535001 -0.0766406)
(2.87233 0.00108198 -0.0904854)
(2.50841 0.003133 -0.134206)
(1.60806 0.00800909 -0.230068)
(0.810265 0.0215526 -0.272731)
(0.870688 0.0283097 -0.257089)
(0.980316 0.0309096 -0.244673)
(1.06018 0.0341284 -0.250424)
(1.06469 0.039993 -0.255406)
(1.03744 0.0482412 -0.262105)
(1.00574 0.0603901 -0.266867)
(0.987673 0.0622624 -0.268206)
(0.93641 0.0553206 -0.268032)
(0.817415 0.0422666 -0.26808)
(0.565512 0.0280026 -0.266356)
(0.329994 0.00287012 -0.257668)
(3.01562 2.11924e-05 -0.0578984)
(3.02579 -5.91451e-06 -0.0598598)
(3.03428 2.31824e-05 -0.0610368)
(3.04136 -2.02123e-05 -0.0623826)
(3.04744 3.83507e-05 -0.0630653)
(3.05169 -3.79205e-05 -0.0642383)
(3.05219 0.000186277 -0.064876)
(3.05064 0.000448205 -0.0665017)
(3.03374 0.000747659 -0.0688534)
(3.00247 0.0015989 -0.0765949)
(2.87326 0.00316461 -0.0903374)
(2.51071 0.00608862 -0.134004)
(1.61054 0.0125774 -0.22949)
(0.806615 0.0319111 -0.272822)
(0.867236 0.0449669 -0.256847)
(0.978199 0.0554459 -0.244156)
(1.05919 0.0637592 -0.24976)
(1.06348 0.0726063 -0.254643)
(1.03839 0.0815911 -0.261112)
(1.01183 0.0896503 -0.265767)
(0.989402 0.0934203 -0.266878)
(0.937869 0.0910819 -0.266066)
(0.820949 0.0815316 -0.265241)
(0.574922 0.065315 -0.263461)
(0.341879 0.0437377 -0.25569)
(3.01562 7.34162e-05 -0.0579021)
(3.02578 -2.58835e-05 -0.0598507)
(3.03427 4.52597e-05 -0.0610455)
(3.04137 -4.87154e-05 -0.062373)
(3.04743 3.93513e-05 -0.0630761)
(3.0518 -5.16513e-05 -0.0642185)
(3.0525 0.000187808 -0.0648898)
(3.051 0.000735995 -0.0664949)
(3.03449 -0.00265736 -0.0687194)
(3.00424 0.00868133 -0.0765123)
(2.87552 -0.0112867 -0.0897032)
(2.52227 0.034931 -0.133695)
(1.61398 0.0165261 -0.229962)
(0.824298 0.0525126 -0.271816)
(0.877828 0.069698 -0.256059)
(0.98529 0.0851874 -0.243133)
(1.0642 0.0963954 -0.248804)
(1.06636 0.108043 -0.25355)
(1.03799 0.119503 -0.260537)
(0.998738 0.129741 -0.265231)
(0.981153 0.133986 -0.265348)
(0.928407 0.13281 -0.264257)
(0.807274 0.124514 -0.262809)
(0.558191 0.108252 -0.260646)
(0.322726 0.0863053 -0.254118)
(3.0156 2.68301e-05 -0.0580057)
(3.02576 -6.65305e-06 -0.0597387)
(3.03426 2.94903e-05 -0.0611644)
(3.04135 -2.86535e-05 -0.0622491)
(3.04744 4.80435e-05 -0.063198)
(3.05181 -4.25538e-05 -0.0640866)
(3.05283 0.000229305 -0.0649805)
(3.04826 0.000580574 -0.0664451)
(3.03993 0.00101986 -0.068404)
(2.99549 0.00205045 -0.0768071)
(2.88542 0.00391768 -0.0887719)
(2.5523 0.00860646 -0.134918)
(1.63522 0.0215745 -0.219353)
(0.861018 0.0626436 -0.267859)
(0.900804 0.0893593 -0.253224)
(0.998118 0.108552 -0.24087)
(1.06718 0.126165 -0.246312)
(1.06491 0.145008 -0.251306)
(1.03572 0.162573 -0.258914)
(1.00453 0.177276 -0.262812)
(0.982423 0.181567 -0.263021)
(0.927111 0.177857 -0.261635)
(0.803628 0.168054 -0.260123)
(0.553235 0.153665 -0.257548)
(0.317076 0.129983 -0.251625)
(3.01561 2.31339e-05 -0.057906)
(3.02579 -1.43116e-05 -0.059847)
(3.03425 2.67222e-05 -0.0610525)
(3.04139 -3.40521e-05 -0.0623641)
(3.04742 6.03561e-05 -0.06309)
(3.05195 -4.76728e-05 -0.0641918)
(3.05302 0.000320129 -0.0648798)
(3.05164 0.000842506 -0.066509)
(3.03567 0.00129207 -0.0685179)
(3.00665 0.00217072 -0.0762589)
(2.87979 0.00440455 -0.0887935)
(2.54143 0.0127314 -0.131865)
(1.65901 0.0301443 -0.225508)
(0.894192 0.0816089 -0.267807)
(0.924011 0.115117 -0.252368)
(1.01551 0.137939 -0.238951)
(1.08471 0.159477 -0.244294)
(1.08021 0.183102 -0.248863)
(1.05147 0.20402 -0.255674)
(1.02374 0.219978 -0.259254)
(0.997207 0.224888 -0.259223)
(0.939819 0.22139 -0.257384)
(0.817549 0.213399 -0.256054)
(0.567602 0.204621 -0.253382)
(0.328251 0.182969 -0.248036)
(3.01559 6.7344e-06 -0.0580231)
(3.02576 -5.62286e-06 -0.0597133)
(3.03424 1.29288e-05 -0.0611831)
(3.04138 -8.01426e-06 -0.0622197)
(3.04743 2.78963e-05 -0.063227)
(3.05202 -5.95082e-06 -0.0640299)
(3.05356 0.000118197 -0.0650075)
(3.04906 0.000283225 -0.0663973)
(3.041 0.000506996 -0.0683091)
(2.99809 0.00149573 -0.0764433)
(2.89413 0.00369048 -0.0878755)
(2.57295 0.0108652 -0.132825)
(1.6814 0.0363732 -0.214842)
(0.927944 0.100273 -0.264431)
(0.942043 0.143767 -0.250576)
(1.02644 0.172057 -0.237603)
(1.09096 0.197279 -0.242708)
(1.0864 0.223467 -0.247431)
(1.06064 0.244979 -0.253862)
(1.03644 0.259514 -0.256512)
(1.0106 0.264436 -0.255741)
(0.954616 0.263439 -0.253171)
(0.83666 0.261275 -0.251311)
(0.588087 0.262849 -0.248465)
(0.344613 0.254247 -0.242956)
(3.01561 -4.54475e-05 -0.0579179)
(3.02579 2.18398e-05 -0.0598345)
(3.03425 -7.94484e-06 -0.0610652)
(3.0414 2.35662e-05 -0.0623565)
(3.04742 2.05515e-05 -0.0630953)
(3.05202 1.36028e-05 -0.0641704)
(3.05325 7.11835e-05 -0.0648904)
(3.05196 -0.000213733 -0.0664079)
(3.03666 0.00374773 -0.0684605)
(3.00913 -0.0050559 -0.0758036)
(2.88772 0.0188348 -0.0879614)
(2.56347 -0.014555 -0.129403)
(1.72782 0.0444521 -0.220691)
(0.966 0.11826 -0.263196)
(0.965746 0.169541 -0.249157)
(1.04034 0.202404 -0.235625)
(1.10397 0.232285 -0.240874)
(1.09924 0.261016 -0.245586)
(1.07574 0.282821 -0.251411)
(1.05406 0.296243 -0.253424)
(1.03013 0.301358 -0.252207)
(0.977255 0.304297 -0.24883)
(0.865476 0.311411 -0.246401)
(0.621349 0.330491 -0.242501)
(0.372037 0.353963 -0.236284)
(3.01561 1.83859e-05 -0.0579267)
(3.02579 -1.08479e-05 -0.0598282)
(3.03425 1.73404e-05 -0.0610752)
(3.04141 -3.203e-05 -0.06234)
(3.04742 5.09931e-05 -0.0631044)
(3.05206 -3.71298e-05 -0.0641531)
(3.05338 0.000294057 -0.0648716)
(3.05212 0.000723756 -0.0663788)
(3.03727 0.00129304 -0.0684566)
(3.0105 0.00331387 -0.0754816)
(2.89419 0.00681199 -0.0875943)
(2.57747 0.0208677 -0.127694)
(1.7839 0.0544132 -0.217667)
(1.01225 0.150054 -0.259746)
(0.99592 0.201842 -0.247237)
(1.06186 0.241227 -0.234182)
(1.12009 0.272332 -0.239356)
(1.11515 0.299736 -0.243984)
(1.09491 0.319078 -0.248927)
(1.07691 0.330645 -0.250168)
(1.0566 0.336059 -0.248352)
(1.00982 0.344506 -0.243955)
(0.909075 0.365513 -0.241018)
(0.679076 0.414568 -0.235871)
(0.424017 0.500826 -0.22718)
(3.0156 6.11738e-05 -0.057938)
(3.02579 -3.75642e-05 -0.0598158)
(3.03423 3.62512e-05 -0.0610785)
(3.04142 -6.44696e-05 -0.062323)
(3.04742 5.99262e-05 -0.0631208)
(3.05222 -5.74946e-05 -0.0641183)
(3.05388 0.000356254 -0.0648677)
(3.05277 0.00123029 -0.0663449)
(3.03873 -0.00115418 -0.068189)
(3.01374 0.0103876 -0.0752582)
(2.90121 -0.00590923 -0.0864804)
(2.60291 0.0538311 -0.125817)
(1.82657 0.0578117 -0.213901)
(1.06867 0.174922 -0.256644)
(1.03468 0.233954 -0.244899)
(1.08964 0.279523 -0.232875)
(1.1397 0.310737 -0.237851)
(1.13545 0.334763 -0.242499)
(1.12032 0.350417 -0.245774)
(1.10802 0.359403 -0.245639)
(1.0929 0.365808 -0.24221)
(1.05699 0.381651 -0.236524)
(0.978016 0.422444 -0.232778)
(0.786964 0.520159 -0.226227)
(0.527941 0.747234 -0.211429)
(2.98854 7.05511e-07 -0.00141441)
(2.98292 5.37408e-07 -0.0033117)
(2.97951 1.65725e-06 -0.00490582)
(2.97735 1.50035e-06 -0.00647854)
(2.97572 2.5199e-06 -0.00764109)
(2.97391 2.44465e-06 -0.00895489)
(2.96916 6.84544e-06 -0.00965457)
(2.95983 2.16048e-05 -0.0106549)
(2.92993 6.20881e-05 -0.0122374)
(2.86439 0.00015799 -0.0152107)
(2.67441 0.000454265 -0.0219986)
(2.08297 0.00129295 -0.034279)
(0.694404 0.00394245 -0.0637248)
(-0.283378 0.01725 -0.0650247)
(0.0903933 0.0214529 -0.0627151)
(0.466317 0.0258261 -0.0604946)
(0.558481 0.0289518 -0.063005)
(0.496211 0.0314884 -0.063311)
(0.392605 0.0389044 -0.0628167)
(0.233209 0.0616654 -0.0608253)
(0.255192 0.0613398 -0.0624202)
(0.209548 0.0493323 -0.0629344)
(0.0552273 0.0420118 -0.0632406)
(0.011704 0.0280891 -0.0602739)
(0.140348 0.00716673 -0.0535759)
(2.98854 4.55507e-06 -0.00141435)
(2.98292 1.55765e-06 -0.00331173)
(2.97951 7.23028e-06 -0.00490585)
(2.97735 3.26805e-06 -0.00647828)
(2.97572 8.82115e-06 -0.00764202)
(2.97391 6.35445e-06 -0.00895339)
(2.96917 1.83229e-05 -0.00965889)
(2.95988 6.62602e-05 -0.0106496)
(2.93004 0.00017536 -0.0122612)
(2.86473 0.000491574 -0.0151835)
(2.67527 0.00122559 -0.0220793)
(2.08628 0.00345901 -0.0342754)
(0.70933 0.00966088 -0.0639855)
(-0.236361 0.0311156 -0.0653497)
(0.109256 0.0493125 -0.0622796)
(0.475232 0.0655136 -0.0598104)
(0.559148 0.0744239 -0.0624623)
(0.499308 0.0790254 -0.06289)
(0.416641 0.0862089 -0.0623718)
(0.318137 0.114992 -0.0615277)
(0.276705 0.110856 -0.0618726)
(0.213017 0.100147 -0.0618111)
(0.0743953 0.095811 -0.0620391)
(0.0123685 0.084395 -0.0596806)
(0.171116 0.0421735 -0.0530046)
(2.98854 1.38475e-05 -0.00141509)
(2.98292 1.3295e-06 -0.00331097)
(2.97952 1.51005e-05 -0.00490706)
(2.97736 -9.11761e-07 -0.00647651)
(2.97572 1.43428e-05 -0.00764433)
(2.97392 4.14604e-06 -0.00895137)
(2.96921 2.73295e-05 -0.00965242)
(2.95996 0.000127097 -0.0106675)
(2.93027 0.0003131 -0.0122445)
(2.86528 0.000958908 -0.0152134)
(2.67669 0.00212074 -0.0219934)
(2.09014 0.00600115 -0.0342553)
(0.713189 0.0157288 -0.0638505)
(-0.251296 0.0469065 -0.065215)
(0.111255 0.0825498 -0.0621901)
(0.478856 0.111274 -0.0594359)
(0.556011 0.124957 -0.0620945)
(0.497051 0.129055 -0.0624574)
(0.423014 0.127937 -0.0620874)
(0.352871 0.130907 -0.0617517)
(0.297693 0.1459 -0.0612012)
(0.221985 0.155851 -0.0606712)
(0.0884964 0.162458 -0.0605955)
(0.0089177 0.154099 -0.0583818)
(0.174558 0.102136 -0.0517992)
(2.98854 3.38006e-05 -0.00141786)
(2.98292 1.73811e-06 -0.00330691)
(2.97951 2.89361e-05 -0.00491052)
(2.97736 -5.42572e-06 -0.00647084)
(2.97572 2.3883e-05 -0.00765218)
(2.97392 4.93263e-06 -0.00893997)
(2.96927 0.000105424 -0.00968918)
(2.9601 9.64621e-05 -0.010682)
(2.93069 0.00126206 -0.0122841)
(2.86617 0.000852981 -0.0152356)
(2.67906 0.00491476 -0.0221414)
(2.09627 0.00938765 -0.0342287)
(0.732137 0.0196527 -0.0638966)
(-0.218201 0.0683961 -0.0651449)
(0.130097 0.118011 -0.0618524)
(0.486377 0.156631 -0.0589449)
(0.552712 0.174346 -0.0615574)
(0.489657 0.178947 -0.0617689)
(0.412109 0.177461 -0.0614332)
(0.28062 0.193103 -0.0604748)
(0.274832 0.207478 -0.060529)
(0.216391 0.222453 -0.0598591)
(0.0942444 0.233511 -0.059258)
(0.00389544 0.226233 -0.056789)
(0.161349 0.166125 -0.0503186)
(2.98854 1.87007e-05 -0.00142847)
(2.98292 7.51459e-07 -0.00329263)
(2.9795 1.87375e-05 -0.00491974)
(2.97735 -3.47254e-06 -0.00646065)
(2.97572 1.79174e-05 -0.00766015)
(2.97399 8.16626e-06 -0.00893363)
(2.96927 5.36846e-05 -0.00969395)
(2.9609 0.000233813 -0.0107166)
(2.93113 0.000593608 -0.0117802)
(2.86756 0.00177994 -0.0164966)
(2.68337 0.0041595 -0.0194776)
(2.09785 0.0119848 -0.0379597)
(0.714738 0.0339008 -0.0619782)
(-0.220912 0.0970959 -0.065054)
(0.139543 0.158311 -0.0617824)
(0.491386 0.202123 -0.0586929)
(0.54916 0.222507 -0.0610201)
(0.485749 0.228531 -0.0610125)
(0.413507 0.232918 -0.0606674)
(0.326343 0.252497 -0.0602342)
(0.289818 0.268171 -0.0595276)
(0.225809 0.286463 -0.0587083)
(0.109211 0.302363 -0.0577367)
(0.00504259 0.300338 -0.0549972)
(0.152317 0.232921 -0.0485721)
(2.98854 1.52481e-05 -0.00142243)
(2.98292 -2.67044e-06 -0.00330086)
(2.97951 1.59222e-05 -0.00491694)
(2.97736 -5.61572e-06 -0.00646087)
(2.97573 1.93781e-05 -0.00766494)
(2.97396 1.07561e-05 -0.00892354)
(2.96945 6.67742e-05 -0.00972512)
(2.96052 0.000309381 -0.010701)
(2.9319 0.000749923 -0.0122903)
(2.86911 0.00231111 -0.0151825)
(2.68683 0.0054212 -0.0219671)
(2.12001 0.0161619 -0.0336002)
(0.787021 0.045703 -0.0630867)
(-0.157885 0.125546 -0.0647102)
(0.169982 0.197715 -0.0612103)
(0.503619 0.247162 -0.0579778)
(0.551409 0.269782 -0.0603946)
(0.489378 0.276455 -0.0602771)
(0.423147 0.284457 -0.0599787)
(0.350986 0.306759 -0.0597783)
(0.308378 0.325412 -0.058523)
(0.244108 0.348783 -0.0573535)
(0.136641 0.372118 -0.0560715)
(0.0189296 0.379184 -0.0529982)
(0.147504 0.311157 -0.0464117)
(2.98854 5.44416e-06 -0.00143314)
(2.98292 -1.30048e-06 -0.00328582)
(2.9795 8.27701e-06 -0.00492705)
(2.97736 3.73073e-07 -0.00644961)
(2.97573 1.40897e-05 -0.00767551)
(2.97403 1.95844e-05 -0.00891329)
(2.96951 9.20735e-05 -0.00973796)
(2.96144 0.000349088 -0.0107577)
(2.9327 0.00090581 -0.0117483)
(2.87153 0.00269462 -0.0163638)
(2.69406 0.00669811 -0.0191724)
(2.13197 0.0200784 -0.0371911)
(0.790995 0.0597414 -0.0608565)
(-0.133768 0.155863 -0.0647112)
(0.191873 0.239827 -0.0609456)
(0.512245 0.29345 -0.057645)
(0.553169 0.315671 -0.0597497)
(0.495397 0.32122 -0.0595)
(0.436343 0.330655 -0.059148)
(0.374205 0.353943 -0.058875)
(0.332433 0.378653 -0.0573781)
(0.271748 0.411255 -0.0558103)
(0.175746 0.444474 -0.0541597)
(0.0468601 0.465068 -0.0506653)
(0.145729 0.409217 -0.0437494)
(2.98854 -1.61197e-05 -0.00142372)
(2.98292 1.81082e-06 -0.00329891)
(2.97951 -6.63899e-06 -0.00491992)
(2.97736 7.76425e-06 -0.00645739)
(2.97574 5.11849e-06 -0.00767025)
(2.97402 2.73403e-05 -0.00891416)
(2.96972 5.66696e-05 -0.00972464)
(2.96121 0.000502797 -0.0106769)
(2.93381 0.000291193 -0.0121949)
(2.87414 0.00372057 -0.0149881)
(2.70028 0.00630915 -0.0214795)
(2.16519 0.0232197 -0.0324421)
(0.882736 0.0751888 -0.0617371)
(-0.0648697 0.190222 -0.0641698)
(0.225529 0.282983 -0.0604561)
(0.525384 0.338462 -0.0569398)
(0.558743 0.358478 -0.0590161)
(0.505871 0.36222 -0.0586926)
(0.454303 0.372814 -0.0582635)
(0.401256 0.398421 -0.0578805)
(0.363701 0.429644 -0.056315)
(0.309885 0.473572 -0.0543039)
(0.226658 0.519805 -0.0521244)
(0.0936924 0.561102 -0.0481533)
(0.152912 0.535775 -0.0407143)
(2.98854 -3.11071e-07 -0.00142414)
(2.98293 6.14592e-06 -0.00329819)
(2.97951 -2.91782e-06 -0.00492203)
(2.97737 1.10219e-05 -0.00645446)
(2.97575 4.97128e-06 -0.0076745)
(2.97407 4.23399e-05 -0.00890721)
(2.96991 0.000188331 -0.0097216)
(2.96166 0.000583707 -0.0106478)
(2.93507 0.00160919 -0.0121586)
(2.87749 0.00387142 -0.0148373)
(2.7088 0.0100562 -0.0212005)
(2.19521 0.0275228 -0.0319115)
(0.953395 0.0812061 -0.0611949)
(0.00442009 0.222286 -0.0640699)
(0.262858 0.327817 -0.0598703)
(0.537265 0.384035 -0.0564239)
(0.564671 0.39819 -0.0582812)
(0.519353 0.399224 -0.0578381)
(0.476873 0.410371 -0.0572536)
(0.433202 0.439069 -0.0567626)
(0.403056 0.47741 -0.0550636)
(0.359759 0.532958 -0.0526693)
(0.292902 0.597896 -0.0500727)
(0.166896 0.67185 -0.0453379)
(0.177012 0.704583 -0.0373051)
(2.98854 8.21934e-06 -0.00142919)
(2.98292 1.88896e-05 -0.00328954)
(2.97951 -2.00155e-05 -0.00493122)
(2.97737 5.26251e-05 -0.00643906)
(2.97576 -6.52096e-05 -0.00769429)
(2.97418 0.000215228 -0.00887826)
(2.97016 0.000174058 -0.00976048)
(2.96238 0.00166831 -0.0106678)
(2.93645 -0.000379316 -0.0121218)
(2.88138 0.00974129 -0.0148419)
(2.71778 0.0012278 -0.0209781)
(2.22651 0.0414222 -0.0313666)
(1.02504 0.0815265 -0.060002)
(0.0797247 0.256517 -0.0642168)
(0.301697 0.378777 -0.059522)
(0.546529 0.429256 -0.055952)
(0.570309 0.43288 -0.0573684)
(0.536007 0.430641 -0.0568601)
(0.504207 0.442005 -0.0562229)
(0.470777 0.474409 -0.0557136)
(0.451158 0.520146 -0.0538848)
(0.423471 0.5867 -0.0510024)
(0.381547 0.675085 -0.0479395)
(0.28092 0.793953 -0.0428998)
(0.232812 0.967649 -0.0340227)
(2.99508 1.97288e-06 3.05752e-06)
(2.98907 6.16417e-07 -2.17223e-06)
(2.98248 2.37377e-06 3.11293e-06)
(2.97638 1.14107e-06 -2.60304e-06)
(2.97048 9.42119e-07 2.8503e-06)
(2.96506 4.01955e-06 -2.13802e-06)
(2.95736 -3.90622e-06 2.89e-07)
(2.94391 4.71478e-05 2.48062e-06)
(2.90664 -4.40968e-05 7.22273e-06)
(2.82705 0.00024484 5.70957e-06)
(2.60692 -1.16455e-05 -3.98664e-06)
(1.9088 0.000460881 -5.47262e-05)
(0.318455 0.00110035 -0.000154284)
(-0.725959 0.0106294 0.000301105)
(-0.042757 0.0240414 -0.000101524)
(0.336573 0.0343805 1.286e-05)
(0.352063 0.0361526 0.000154988)
(0.273539 0.03565 0.000251575)
(0.224714 0.0336635 0.000528038)
(0.121652 0.032832 0.00114774)
(-0.0928002 0.0624064 7.16316e-05)
(-0.118253 0.065683 -0.000156926)
(-0.137988 0.0635583 -0.000180086)
(-0.0813043 0.0607034 -0.0002677)
(0.103148 0.0512081 -0.000417765)
(2.99508 2.97903e-06 7.31175e-06)
(2.98907 1.11706e-06 -7.02324e-06)
(2.98249 3.86299e-06 6.80321e-06)
(2.97638 2.31283e-06 -7.50538e-06)
(2.97048 3.6983e-06 7.19071e-06)
(2.96506 5.54171e-06 -5.38635e-06)
(2.9574 1.72855e-05 1.42975e-05)
(2.94388 5.46711e-05 -2.38557e-05)
(2.90678 0.000146291 0.000182273)
(2.82711 0.000404621 -0.000205078)
(2.60713 0.000991955 0.000315871)
(1.90868 0.00282546 -0.000292711)
(0.324091 0.00848185 -0.000905589)
(-0.715391 0.02905 -0.000483993)
(-0.0272529 0.0627735 0.000146818)
(0.343097 0.0852415 0.000192239)
(0.349203 0.0859717 0.000173699)
(0.264541 0.0827794 0.000119403)
(0.211029 0.0769431 -2.45358e-06)
(0.0782157 0.0842499 -0.000468316)
(-0.12487 0.126849 0.000233967)
(-0.138879 0.137117 0.000201096)
(-0.157326 0.141253 -6.51101e-05)
(-0.102165 0.140883 -0.000253821)
(0.0803294 0.120846 -0.000223834)
(2.99508 4.54716e-06 4.35801e-06)
(2.98908 1.87298e-06 -3.56518e-06)
(2.98249 5.43838e-06 3.9442e-06)
(2.97638 3.00518e-06 -4.18335e-06)
(2.97048 5.10503e-06 3.4629e-06)
(2.96508 8.35578e-06 -3.09783e-06)
(2.9574 3.10719e-05 -3.73403e-07)
(2.94402 0.000103216 2.72085e-06)
(2.90693 0.000280171 1.50649e-06)
(2.82779 0.000775647 6.42406e-06)
(2.60878 0.00193204 -4.34971e-05)
(1.91502 0.00554467 -0.000136341)
(0.334925 0.0168999 -0.000383914)
(-0.704902 0.0540182 -5.31872e-05)
(-0.0146139 0.106654 7.78709e-05)
(0.347165 0.137792 0.000167432)
(0.341951 0.139029 0.000118919)
(0.251508 0.137355 3.73884e-05)
(0.181576 0.135935 -0.000113539)
(0.0332465 0.154799 -0.000250261)
(-0.126356 0.205641 0.000283956)
(-0.135368 0.217757 0.000294533)
(-0.158783 0.226809 4.39932e-05)
(-0.110727 0.228311 -0.000126291)
(0.0698969 0.200265 -2.44124e-05)
(2.99508 6.70196e-06 6.76147e-06)
(2.98908 2.56625e-06 -6.00896e-06)
(2.98249 7.23397e-06 5.31277e-06)
(2.97638 3.4434e-06 -5.72202e-06)
(2.97048 5.20855e-06 4.55989e-06)
(2.96508 1.48462e-05 -3.72049e-06)
(2.95748 2.91447e-05 1.13839e-05)
(2.94409 0.000227033 -2.95335e-05)
(2.90733 0.000272131 0.000164789)
(2.82856 0.00149411 -0.000236694)
(2.61082 0.00250499 0.000288615)
(1.92132 0.00827773 -0.000349238)
(0.355939 0.0249903 -0.00092669)
(-0.676483 0.0833066 -0.000210706)
(0.00560872 0.151414 0.000101393)
(0.351475 0.186075 0.000159875)
(0.335627 0.188521 9.83954e-05)
(0.243661 0.191486 7.24456e-05)
(0.168326 0.198866 0.000159055)
(0.0241521 0.222639 0.000559158)
(-0.115588 0.284343 0.000175966)
(-0.123289 0.297244 0.000109421)
(-0.151075 0.309822 2.92698e-05)
(-0.113614 0.313066 -5.25089e-06)
(0.0628827 0.279959 6.40917e-05)
(2.99508 3.60497e-06 3.35157e-06)
(2.98908 1.07832e-06 -2.60295e-06)
(2.98249 3.8285e-06 2.01705e-06)
(2.97638 2.85696e-06 -2.31375e-06)
(2.97049 7.29587e-06 1.26555e-06)
(2.9651 1.59846e-05 -1.65495e-06)
(2.95758 6.64579e-05 -3.01615e-06)
(2.94424 0.000248006 -2.38181e-06)
(2.90793 0.00061596 -1.55982e-05)
(2.82983 0.00185017 -3.00919e-05)
(2.61424 0.00445399 -7.53934e-05)
(1.93225 0.0133491 -0.000163727)
(0.386792 0.0401945 -0.000409908)
(-0.63583 0.114814 1.54418e-05)
(0.0253345 0.194956 8.15387e-05)
(0.354946 0.230777 0.000118226)
(0.3315 0.234405 8.07431e-05)
(0.241343 0.243077 7.34482e-05)
(0.161593 0.261457 0.000114026)
(0.0308445 0.28907 0.000147941)
(-0.095853 0.35874 5.78689e-05)
(-0.104391 0.374262 1.39759e-05)
(-0.135645 0.390581 2.52426e-05)
(-0.111627 0.397918 5.23052e-05)
(0.0580709 0.362243 0.000102643)
(2.99508 7.42207e-07 2.5167e-06)
(2.98908 -5.53983e-07 -1.69061e-06)
(2.98249 1.61992e-06 8.93526e-07)
(2.97638 3.11794e-06 -5.27483e-07)
(2.97049 8.89449e-06 8.66173e-08)
(2.96513 2.14311e-05 -1.60819e-07)
(2.95767 9.65563e-05 1.00309e-05)
(2.94456 0.000321861 -3.2646e-05)
(2.90865 0.000886666 0.000152398)
(2.83195 0.00247912 -0.000240318)
(2.61981 0.00633578 0.000295792)
(1.95218 0.0189829 -0.000279569)
(0.425808 0.0568015 -0.000724844)
(-0.593086 0.148512 -7.12346e-05)
(0.0447042 0.239262 5.68491e-05)
(0.357912 0.274109 7.69581e-05)
(0.329614 0.278118 4.02032e-05)
(0.244114 0.292483 3.23719e-05)
(0.161815 0.322192 2.87195e-05)
(0.0514338 0.355841 5.98791e-06)
(-0.0718215 0.431029 6.02527e-06)
(-0.0780127 0.450964 2.53062e-06)
(-0.111893 0.472948 4.0879e-05)
(-0.103236 0.487972 7.78251e-05)
(0.0560181 0.453753 0.000126139)
(2.99508 -1.74568e-07 -5.20914e-06)
(2.98908 -8.86855e-07 6.23002e-06)
(2.98249 1.80263e-06 -4.85787e-06)
(2.97638 2.98332e-06 6.59223e-06)
(2.9705 9.06711e-06 -5.54609e-06)
(2.96517 2.6305e-05 4.25054e-06)
(2.95783 0.000119233 -1.3236e-05)
(2.94491 0.000421713 1.8713e-05)
(2.90973 0.00110218 -0.000174246)
(2.8346 0.00319523 0.000173266)
(2.62713 0.00791022 -0.000355922)
(1.97699 0.0238845 0.000108174)
(0.476369 0.0708881 0.00052213)
(-0.541056 0.182106 -5.88633e-05)
(0.0647796 0.284293 -0.000102737)
(0.359828 0.316087 -6.70233e-05)
(0.329504 0.319363 -5.70415e-06)
(0.251661 0.339239 1.83643e-06)
(0.170524 0.379513 -5.60073e-07)
(0.0808858 0.420665 -6.69484e-06)
(-0.0428448 0.500812 -8.96523e-06)
(-0.0424929 0.528129 -2.80432e-07)
(-0.0774196 0.558768 4.57492e-05)
(-0.0859355 0.586274 8.46584e-05)
(0.0577524 0.560442 0.000138039)
(2.99508 -2.33069e-06 -2.15844e-06)
(2.98908 3.15664e-06 2.4736e-06)
(2.98249 -3.40138e-07 -2.04997e-06)
(2.97638 6.09515e-06 3.056e-06)
(2.97051 6.72378e-06 -2.07041e-06)
(2.96523 3.34576e-05 2.06479e-06)
(2.95801 0.000144406 -3.81551e-07)
(2.9454 0.000522089 -4.42727e-06)
(2.91095 0.00127637 -2.99639e-06)
(2.83791 0.00382773 -2.46699e-05)
(2.63604 0.00918159 1.38678e-05)
(2.00739 0.0280659 -7.38003e-05)
(0.534825 0.0829349 0.000120659)
(-0.482414 0.216373 -4.15094e-05)
(0.0849752 0.33048 -7.97039e-05)
(0.359789 0.356007 -5.33718e-05)
(0.33084 0.35724 2.07055e-06)
(0.263543 0.382495 6.66998e-06)
(0.187711 0.432038 1.74612e-06)
(0.112725 0.482971 -3.26162e-06)
(-0.00333632 0.564793 -7.8018e-06)
(0.00298043 0.60538 5.12047e-06)
(-0.0290917 0.648245 4.10846e-05)
(-0.0556686 0.695567 7.42599e-05)
(0.0662223 0.690758 0.000127032)
(2.99508 -8.7841e-06 -7.03528e-07)
(2.98908 1.59489e-05 6.59068e-07)
(2.98249 -1.79663e-05 -7.42549e-07)
(2.97639 3.50701e-05 8.57878e-07)
(2.97053 -2.44916e-05 -5.48895e-07)
(2.96529 8.92982e-05 7.37879e-07)
(2.95825 0.000171237 -2.09806e-07)
(2.94587 0.000620533 -1.84133e-06)
(2.91246 0.00152267 -5.4926e-06)
(2.84153 0.00431539 -7.10509e-06)
(2.64615 0.0104482 -2.44625e-05)
(2.04099 0.0315763 -9.8181e-06)
(0.6055 0.0926585 -5.41652e-05)
(-0.410572 0.251964 -5.20393e-05)
(0.103302 0.377506 -5.13332e-05)
(0.356523 0.3926 -2.75714e-05)
(0.3337 0.390363 -1.3312e-06)
(0.279603 0.421176 3.75925e-06)
(0.212467 0.478618 -1.62952e-06)
(0.14765 0.539962 -7.55335e-06)
(0.0481109 0.624266 -1.52519e-05)
(0.0576546 0.679991 5.12856e-07)
(0.0372082 0.740675 3.80815e-05)
(-0.000377716 0.816413 5.89141e-05)
(0.084304 0.854723 0.000103975)
(2.99509 -2.29498e-05 -3.93049e-07)
(2.98907 4.0899e-05 7.00379e-07)
(2.9825 -6.1696e-05 -4.52244e-07)
(2.97638 0.000114325 5.76338e-07)
(2.97056 -0.000156862 -3.97057e-07)
(2.96539 0.000310604 2.87027e-07)
(2.95845 -0.00027972 -7.45855e-07)
(2.94656 0.000841574 -2.76508e-06)
(2.914 -0.00132192 -5.54296e-06)
(2.84586 0.00973379 -1.51978e-05)
(2.6569 0.0010717 -2.33726e-05)
(2.07981 0.0437669 -4.98065e-05)
(0.685413 0.0978655 -7.14861e-05)
(-0.324542 0.290504 -5.64846e-05)
(0.117539 0.427276 -2.91496e-05)
(0.349276 0.424904 -8.16966e-06)
(0.338522 0.417531 -2.04635e-06)
(0.299964 0.454393 -5.7454e-07)
(0.243652 0.518267 -4.25193e-06)
(0.187298 0.589462 -9.48455e-06)
(0.110621 0.677658 -1.37765e-05)
(0.125016 0.74935 -8.0664e-08)
(0.12414 0.832846 3.46969e-05)
(0.0935861 0.946472 4.88066e-05)
(0.122471 1.10677 9.35271e-05)
(2.98855 2.30898e-05 0.00141933)
(2.98292 -1.80456e-06 0.00330678)
(2.97951 1.75203e-05 0.00491137)
(2.97735 -7.61608e-06 0.00647125)
(2.97572 1.50779e-05 0.00765156)
(2.9739 -2.02487e-06 0.00894143)
(2.96916 7.57061e-05 0.00968607)
(2.95985 -5.01835e-05 0.010688)
(2.92992 0.000908221 0.0122838)
(2.86418 -0.000329885 0.015267)
(2.67366 0.00207726 0.0220756)
(2.07848 0.00106486 0.0344238)
(0.693266 -0.00414408 0.0634674)
(-0.245155 -0.00867407 0.065543)
(0.105958 0.00469754 0.0625072)
(0.477446 0.0171711 0.0602864)
(0.571109 0.0236234 0.063073)
(0.5183 0.0245995 0.0637397)
(0.444997 0.0142048 0.0631613)
(0.372253 -0.0143869 0.062656)
(0.330398 -0.0102382 0.0626015)
(0.268383 0.00443717 0.0623086)
(0.148813 0.0201888 0.0619242)
(0.0562528 0.034399 0.0601721)
(0.217867 0.0409669 0.05225)
(2.98854 1.09758e-05 0.00143112)
(2.98292 8.93101e-07 0.00329005)
(2.9795 1.06878e-05 0.00492233)
(2.97736 -1.6655e-06 0.00645835)
(2.97572 7.71869e-06 0.00766411)
(2.97396 9.31169e-08 0.00893033)
(2.96911 9.53264e-06 0.00971661)
(2.96051 6.06593e-05 0.0107763)
(2.92995 0.000146358 0.0117579)
(2.86436 0.000476959 0.016582)
(2.67493 0.000986236 0.0194662)
(2.06932 0.0026314 0.0382831)
(0.643194 0.00659739 0.0617368)
(-0.328105 0.0213317 0.0647561)
(0.088701 0.0444969 0.0628058)
(0.466881 0.0648864 0.0607423)
(0.550314 0.0726975 0.0630263)
(0.486415 0.0715243 0.0632294)
(0.387977 0.0601724 0.0631127)
(0.210215 0.0618646 0.0615509)
(0.239899 0.0687276 0.0628474)
(0.197868 0.0822976 0.0626883)
(0.0634304 0.0966136 0.0621088)
(0.000496199 0.104389 0.0592715)
(0.136634 0.0912424 0.0523398)
(2.98855 1.08041e-05 0.001422)
(2.98292 3.07785e-06 0.00330355)
(2.97951 9.86693e-06 0.00491426)
(2.97735 2.53142e-06 0.00646643)
(2.97572 5.34971e-06 0.00765636)
(2.9739 3.55998e-06 0.00893643)
(2.96921 9.34772e-06 0.00969326)
(2.95995 8.03288e-05 0.0107145)
(2.93024 0.000173315 0.0122974)
(2.86479 0.000654632 0.0152988)
(2.67525 0.00169673 0.022137)
(2.08163 0.00522411 0.0343572)
(0.700284 0.015341 0.0632268)
(-0.245171 0.0506829 0.065013)
(0.114014 0.0831591 0.0622465)
(0.478069 0.111041 0.0599513)
(0.549417 0.123256 0.0624659)
(0.482632 0.125638 0.0626131)
(0.393171 0.125866 0.0624306)
(0.254584 0.148588 0.0617674)
(0.244868 0.148523 0.0620999)
(0.187614 0.151384 0.0617865)
(0.0474424 0.167181 0.061167)
(-0.00584529 0.172601 0.0580102)
(0.133721 0.134799 0.0514622)
(2.98854 2.82442e-05 0.00143397)
(2.98292 6.81268e-07 0.00328745)
(2.9795 1.88139e-05 0.00492337)
(2.97735 -5.50993e-06 0.00645668)
(2.97572 1.30678e-05 0.00766339)
(2.97396 1.64898e-06 0.00893064)
(2.96918 8.78706e-05 0.00970772)
(2.96065 5.40409e-05 0.0107421)
(2.93044 0.00111421 0.0117131)
(2.86575 0.000469614 0.0164829)
(2.67878 0.00416488 0.019298)
(2.08124 0.00811893 0.038196)
(0.679107 0.0189084 0.0615717)
(-0.258313 0.0696825 0.065049)
(0.118674 0.119365 0.062204)
(0.481797 0.156375 0.0596277)
(0.546023 0.17296 0.0619208)
(0.480482 0.177921 0.0619275)
(0.404781 0.181321 0.061763)
(0.317224 0.199403 0.0614915)
(0.268259 0.207577 0.0610135)
(0.196899 0.215584 0.0603413)
(0.0604266 0.233908 0.0597194)
(-0.00454343 0.238704 0.0566183)
(0.13961 0.185848 0.050092)
(2.98854 -2.39649e-06 0.00143568)
(2.98292 2.13922e-06 0.00328506)
(2.9795 -1.22986e-06 0.00492397)
(2.97735 3.59898e-06 0.00645501)
(2.97572 2.30023e-06 0.00766477)
(2.97397 1.13816e-05 0.00892825)
(2.96925 4.71201e-05 0.00970923)
(2.9608 0.000206717 0.0107415)
(2.93093 0.000496179 0.0116798)
(2.867 0.00168786 0.0163658)
(2.68239 0.00411499 0.0192669)
(2.09222 0.0126017 0.0381942)
(0.706454 0.0368404 0.0613688)
(-0.217603 0.101026 0.0650302)
(0.140417 0.160023 0.06195)
(0.489804 0.201861 0.0591733)
(0.544623 0.220907 0.0613068)
(0.479423 0.226491 0.0611728)
(0.407665 0.231519 0.061033)
(0.314798 0.251316 0.0607576)
(0.278962 0.265528 0.0599636)
(0.210869 0.28038 0.0590362)
(0.0846016 0.30106 0.0581125)
(-0.000162761 0.307732 0.0549566)
(0.139107 0.247797 0.0484384)
(2.98854 -2.80653e-05 0.00143136)
(2.98292 -2.15552e-07 0.00329066)
(2.9795 -1.45915e-05 0.00492076)
(2.97735 9.54925e-06 0.00645972)
(2.97572 1.13621e-06 0.00765946)
(2.974 2.36156e-05 0.00893343)
(2.96935 2.55532e-05 0.00968426)
(2.96105 0.000376267 0.0107013)
(2.93165 5.52918e-06 0.0116942)
(2.86889 0.00287411 0.0163874)
(2.68729 0.00434475 0.0191853)
(2.10898 0.0175221 0.0377868)
(0.740882 0.0574977 0.061029)
(-0.185259 0.133999 0.0647529)
(0.162343 0.201971 0.0615027)
(0.500204 0.246688 0.0585043)
(0.547288 0.267246 0.0606346)
(0.483822 0.272988 0.0604271)
(0.417072 0.280896 0.0602195)
(0.341911 0.303303 0.0600286)
(0.299172 0.322874 0.0587843)
(0.233043 0.345157 0.0576023)
(0.118175 0.370696 0.0563945)
(0.0129792 0.383483 0.0530886)
(0.13771 0.322549 0.0464187)
(2.98854 -1.88619e-05 0.00142024)
(2.98293 -4.97605e-06 0.00330462)
(2.97951 -8.85996e-06 0.00491394)
(2.97736 1.66874e-06 0.00646647)
(2.97573 6.09148e-06 0.0076586)
(2.97399 2.33613e-05 0.0089299)
(2.96954 4.40396e-05 0.0096922)
(2.96079 0.000455766 0.0106605)
(2.93262 0.000209791 0.0122226)
(2.87127 0.00335095 0.0150132)
(2.69265 0.00548577 0.0216804)
(2.14117 0.0207861 0.0329958)