/*--------------------------------*- C++ -*----------------------------------*\
  =========                 |
  \\      /  F ield         | OpenFOAM: The Open Source CFD Toolbox
   \\    /   O peration     | Website:  https://openfoam.org
    \\  /    A nd           | Version:  6
     \\/     M anipulation  |
\*---------------------------------------------------------------------------*/
FoamFile
{
    version     2.0;
    format      ascii;
    class       volScalarField;
    location    "40";
    object      p;
}
// * * * * * * * * * * * * * * * * * * * * * * * * * * * * * * * * * * * * * //

dimensions      [0 2 -2 0 0 0 0];

internalField   nonuniform List<scalar> 
918
(
0.552669
1.28939
0.00386073
0.55256
-0.00769387
1.25717
-0.473863
0.711001
0.533773
-0.091106
-0.0333555
0.531488
1.11438
0.88129
-1.15529
0.00228731
0.663978
-0.399508
0.5317
-0.00290302
0.747238
0.540489
0.54296
0.533752
0.59099
0.838204
0.9918
0.0135733
0.00295204
-0.000189233
-0.00883367
-0.0253414
-0.0202143
1.14029
1.19224
1.21541
0.500769
0.333459
-0.36237
-0.414867
-0.397419
-0.498735
0.704183
0.702844
-0.172285
0.712658
0.719989
0.519617
0.533158
0.533987
0.535166
0.534026
0.535324
0.419194
-0.0970893
-0.127754
-0.0750399
-0.0703479
0.0682708
-0.0310785
-0.033682
-0.0323363
-0.0364167
0.450841
0.527534
0.524543
0.536381
0.54584
1.22956
1.20325
1.2293
1.14009
1.15759
1.09126
1.06413
0.902575
0.925867
0.864376
0.850419
-1.62135
-2.58045
-0.570482
-0.287151
-0.00574764
0.00711101
0.00606559
0.654757
0.654375
0.665526
0.674712
1.05745
-0.369168
-0.441803
0.53217
0.530701
0.539992
0.540902
0.535848
0.535862
-0.00881841
-0.0148722
0.000657984
-0.00519065
-0.00764172
0.738368
0.736547
0.533198
0.53066
0.554618
0.576773
0.565807
0.274522
0.597632
0.611571
0.696408
0.844701
0.832999
0.845093
0.96754
0.934904
1.02328
1.04498
0.0141288
0.00340407
-0.00355019
-0.0114165
-0.000834168
0.496577
0.490247
0.517179
0.504328
0.507314
0.237651
0.085522
0.416035
0.439665
-0.281621
-0.324027
-0.43119
-0.428398
-0.535646
0.604506
0.698369
0.695787
-0.19091
-0.113493
-0.238401
-0.0573721
-0.113527
0.510712
0.516846
0.51298
0.528223
0.522421
0.524834
0.537243
0.534401
0.536008
0.47936
0.612215
0.337592
0.30987
-0.253738
-0.144801
-0.238049
-0.0574837
-0.0515311
0.080596
0.105856
0.055771
0.0452424
-0.0435809
-0.0376429
-0.0409634
-0.0359818
-0.0315894
0.442461
0.42987
0.461878
0.469267
0.515732
0.517053
0.52126
0.519416
1.01521
1.03837
1.04424
1.02039
-3.57105
-6.2282
0.0655095
0.228606
-0.00066317
-0.00169266
0.00283914
-0.00448821
0.00310107
-0.00345731
0.0048942
0.00628537
0.010263
0.0151138
0.647132
0.64618
1.01789
1.04585
1.00197
0.979738
0.521502
0.523423
0.528054
0.524954
-0.028009
-0.0182514
-0.0249221
0.721175
0.730657
0.728459
0.234995
0.148096
0.323703
0.354029
0.637956
0.619502
0.634335
0.757454
0.796243
1.06155
1.08589
1.06971
1.08256
1.13349
1.15643
1.12174
0.475611
0.486244
0.480652
0.520315
0.517962
0.518979
0.514911
0.516159
0.514631
-0.0275182
-0.403631
0.490745
0.493569
0.480917
0.487447
0.690565
0.774771
0.676781
0.687959
0.684868
-0.0100537
-0.0581385
0.266883
0.236796
0.383248
0.41695
0.399345
0.990592
0.950755
0.998961
0.974386
0.938615
0.963496
-0.341064
-2.12025
-1.10721
0.636979
0.437137
0.530098
0.0305816
0.00488381
0.0137105
1.04876
1.08993
0.681218
0.86767
0.820451
0.819752
0.846604
0.909364
0.841021
0.876297
0.907713
0.883715
0.55897
0.498123
0.512266
0.853317
0.910394
0.113122
0.0390589
0.0154366
0.128337
0.195173
0.164654
1.06222
0.967646
1.03484
0.530897
0.531819
0.0107536
0.0114946
0.535883
0.53561
-0.00389278
-0.00387828
0.548513
-0.929408
0.123619
0.525287
0.515197
0.531873
-0.0588393
0.352548
-0.030125
0.0572792
0.0173767
0.52722
0.462874
0.42113
0.0170275
-0.00588147
-0.00925255
-0.191141
0.528639
0.526999
0.531254
0.5321
0.53285
0.00249595
0.00606007
0.00586475
-0.00578283
0.000924881
-0.00272617
0.495679
0.514775
-0.163345
0.53152
0.533606
0.533328
0.527413
0.532418
0.530975
-0.00294517
-0.0130839
-0.0164318
0.217338
0.349476
0.736001
0.814159
0.683227
0.513164
0.21139
0.669378
0.723514
0.646926
0.779012
0.690731
0.700276
0.187658
0.0510437
0.191872
0.126486
0.522222
0.521539
0.512764
0.509737
0.526654
0.524371
0.529523
0.526683
0.529845
0.531016
-0.0156553
-0.0525771
-0.0697004
-0.120424
0.318783
0.578934
0.246487
0.272697
0.175187
-0.0314234
-0.0318501
-0.0277149
-0.0335241
0.00829465
0.00125266
0.0486974
0.0551028
0.034668
0.00604243
0.000260677
0.0010785
-0.00656816
0.520726
0.52003
0.525612
0.533851
0.472215
0.475887
0.442577
0.461306
0.447603
0.388668
0.4184
0.395773
0.0114932
0.021384
0.0102191
-0.00136814
0.00647644
-0.0065572
-0.00049055
-0.00230121
0.00330201
-0.00210424
-0.0103102
-0.0157351
-0.154598
-0.27176
0.982329
0.910064
0.148646
0.518578
0.524213
0.5214
0.52599
0.529192
0.529873
0.527498
0.524021
0.515
0.516507
0.513204
0.514149
-0.10667
-0.212186
-0.043381
-0.115473
0.159527
0.627033
0.357839
0.306265
0.291387
0.512026
0.726729
0.656808
0.729128
0.729879
-0.379577
0.0380183
-0.305323
0.243977
0.228095
0.760148
0.802128
0.819576
0.77656
0.732295
-0.0193335
0.55541
-0.0367449
0.00909656
0.197855
0.0897791
0.713398
0.670029
0.675392
0.691135
0.708801
0.685888
0.671588
0.659995
0.690056
0.695458
0.514735
0.246407
0.207904
0.159057
0.651665
0.548037
0.602188
0.521849
0.517593
0.520161
0.519
0.500406
0.507637
0.503422
0.510095
0.513614
0.521316
0.521484
0.517444
0.519355
-0.0459161
-0.0488012
-0.0618176
-0.104424
-0.107673
-0.148886
-0.0751307
0.127253
0.0737239
0.261044
0.402751
0.0952591
-0.0341222
-0.0205686
0.0354978
0.198476
0.201529
0.068525
0.183812
0.141412
0.13376
0.224277
0.247277
-0.0125399
-0.0141639
-0.0158504
-0.0213243
0.0321849
0.12517
0.113725
0.0103835
0.00233315
-0.0303744
-0.0342671
0.00950959
-0.00299201
0.00233172
0.0192737
-0.0386238
-0.00684368
0.00591584
0.0126237
0.00948779
0.0096419
0.514164
0.516307
0.516087
0.524442
0.53872
0.553597
0.517189
0.493087
0.484223
0.487261
0.460538
0.469847
0.464903
0.480457
0.501668
0.510568
0.508142
0.510758
0.493206
0.494925
0.480406
0.484978
0.455514
0.437677
0.427824
-0.0305379
0.0188589
0.00617352
-0.0269625
0.00750162
-0.0130555
0.00661303
0.0205071
0.00585154
0.00828327
-0.000918461
-7.96093e-05
-0.000169908
-0.057764
0.0233756
-0.159279
-0.208813
-0.25935
0.900405
1.03493
0.821132
0.620361
0.619631
0.847289
0.937967
0.57587
0.749346
0.787748
0.577108
0.867881
0.522472
0.522113
0.519996
0.519193
0.520191
-0.00281743
0.0964635
0.118257
0.169251
0.283711
0.390697
0.31237
0.203469
0.338197
0.361958
0.626497
0.635956
0.587053
0.60857
0.607398
0.427733
0.508886
0.550834
0.500105
0.571667
0.604948
0.552743
0.59485
0.516262
0.467326
0.459744
0.41393
0.448627
0.430283
0.404249
0.513711
0.491056
0.501603
0.491667
0.512675
0.534761
0.536669
0.560441
0.57462
0.493407
0.442697
0.459564
0.486401
0.443936
0.459947
0.480608
0.183299
0.0881598
0.254194
-0.0747444
0.0164855
0.0531249
0.0121552
-0.0346982
0.272273
-0.371048
-0.313988
-0.998634
0.496146
0.886597
0.674879
0.689022
0.707063
0.686931
0.697011
0.712847
0.719873
0.64211
0.658557
0.661342
0.629082
0.661841
0.65881
0.668797
0.513296
0.420252
0.422712
0.356947
0.225539
0.263222
0.440654
0.376655
0.307208
0.300542
0.47304
0.341318
0.416773
0.475085
0.404616
0.33537
0.56687
0.613068
0.602762
0.574724
0.47768
0.505938
0.524312
0.568807
0.597666
0.62257
0.508943
0.515195
0.516143
0.513418
0.511604
0.514663
0.51484
0.517125
0.5176
0.520126
0.519456
-0.0265614
-0.0167879
-0.0316295
-0.0344571
0.0410766
0.0147105
0.0132599
-0.0238844
0.00362717
0.00387187
-0.0125863
-0.0290267
-0.0187692
-0.00652189
0.0860707
0.104662
0.112689
0.0778467
0.262729
0.439966
0.5077
0.378436
0.222459
0.242049
0.323897
0.0246714
0.0433681
0.026673
0.0777573
0.0562872
-0.0204601
-0.0236026
-0.0177363
-0.0128254
-0.00409004
-0.0209848
-0.0175071
-0.0119867
-0.0209188
-0.0284249
-0.0256564
0.49476
0.487718
0.490989
0.48351
0.48184
0.498372
0.502768
0.504066
0.509456
0.511933
0.501809
0.507609
0.511553
0.00256037
-0.00737594
-0.0166088
-0.00521481
-0.00334635
-0.00084083
-0.00567471
0.135077
0.0427395
0.0775403
0.00829763
-0.114234
-0.054482
0.50282
0.49734
0.491454
0.723354
0.563924
0.478786
0.573977
0.692215
0.280149
0.485613
0.316978
0.89679
0.798846
0.944145
0.56757
0.256979
0.418828
0.432273
0.268034
0.393087
0.359342
0.234318
0.273024
0.295891
0.379476
0.261195
0.239223
-0.00235623
0.174559
0.289334
0.270653
0.401487
0.45909
0.263926
0.178908
0.128331
0.611182
0.629436
0.641034
0.614262
0.637347
0.574827
0.564819
0.582256
0.591621
0.586088
-0.637293
-0.22635
-1.42804
-0.83471
-0.383837
0.523397
0.512959
0.756923
0.66312
0.714406
0.696953
0.62985
0.595412
0.631189
0.656724
0.349534
0.448113
0.42057
0.415999
0.357586
0.29309
0.581259
0.582995
0.605288
0.630333
0.60455
0.632613
0.507556
0.507347
0.506211
0.502643
0.501184
0.504171
0.0382267
0.0135189
0.0509769
0.0476182
0.0353912
0.0361314
0.00592805
-0.00599091
-0.00755406
-0.00477742
0.00469361
0.00914328
0.17655
0.12033
0.0314787
0.076572
0.00660131
-0.0736477
-0.0759718
0.011803
0.11049
0.0915783
0.401767
0.675612
0.501225
0.66813
0.461009
0.565294
0.475732
0.450881
0.480166
0.377377
0.465978
0.0249022
-0.171016
-0.229495
0.821892
0.778033
0.565584
0.311374
0.20048
0.501381
0.530135
0.48826
0.524713
0.574433
0.560929
0.00915181
0.109173
0.172095
0.482849
0.278749
0.295746
0.288129
0.445992
0.421439
)
;

boundaryField
{
    wall-4
    {
        type            zeroGradient;
    }
    velocity-inlet-5
    {
        type            zeroGradient;
    }
    velocity-inlet-6
    {
        type            zeroGradient;
    }
    pressure-outlet-7
    {
        type            fixedValue;
        value           uniform 0;
    }
    wall-8
    {
        type            zeroGradient;
    }
    frontAndBackPlanes
    {
        type            empty;
    }
}


// ************************************************************************* //
