/*--------------------------------*- C++ -*----------------------------------*\
  =========                 |
  \\      /  F ield         | OpenFOAM: The Open Source CFD Toolbox
   \\    /   O peration     | Website:  https://openfoam.org
    \\  /    A nd           | Version:  6
     \\/     M anipulation  |
\*---------------------------------------------------------------------------*/
FoamFile
{
    version     2.0;
    format      ascii;
    class       surfaceScalarField;
    location    "40";
    object      phi;
}
// * * * * * * * * * * * * * * * * * * * * * * * * * * * * * * * * * * * * * //

dimensions      [0 3 -1 0 0 0 0];

internalField   nonuniform List<scalar> 
1300
(
3.75095
5.62643
-3.11692
3.75095
-7.54571
5.62643
-4.2974
4.2974
-0.859098
0.859098
1.87645
1.8745
-2.66575
2.66575
-2.05945
2.05945
-2.55143
2.55143
-5.24799
5.24799
-5.06906
5.06906
4.71731
-4.71731
-6.1868
6.1868
-1.1844
1.1844
-3.69551
3.69551
3.17304
-3.17304
-2.21808
2.21808
-0.235445
0.235445
-0.554099
4.30505
3.19685
3.19685
-2.00083
2.00083
-4.87254
4.87254
6.22215
-6.22215
5.01557
-5.01557
-1.89865
-2.23755
1.77067
-11.5148
-5.77505
-5.77505
-8.44104
8.44104
-2.81461
2.81182
2.94519
-2.94519
-1.73139
1.73139
-4.28359
-0.0138169
-4.28359
4.27953
0.0178747
4.27953
-0.943963
0.084865
-0.943963
3.82687
-3.82687
0.733317
0.12578
0.733317
3.06684
-3.06684
-1.87687
3.75332
1.87408
-1.87203
6.17708
-1.87892
3.75342
-6.04217
6.04217
-2.86988
0.204136
-2.86988
2.47389
0.191858
2.47389
-6.83519
6.83519
-2.15458
0.09513
-2.15458
2.03244
0.0270098
2.03244
2.87844
-2.87844
-2.64677
0.0953394
-2.64677
2.42236
0.129068
2.42236
0.353509
5.27292
-5.97994
8.79176
-5.27292
0.0249322
5.2104
0.0375916
5.2104
-5.10524
0.0361783
-5.10524
5.01333
0.0557303
5.01333
4.81234
-0.0950283
4.81234
-4.83129
0.113981
-4.83129
-3.55176
-4.12756
-6.376
0.189192
-6.376
-1.18481
0.000409944
-1.18481
1.14073
0.0436709
1.14073
-3.66298
3.66298
-4.01806
0.322551
-4.01806
3.12797
0.0450734
3.12797
1.86811
1.88284
5.61907
-5.61907
2.44603
-2.12514
-0.0929429
-2.12514
-2.24426
-2.77131
2.24426
-0.0261805
-0.469949
0.234503
-0.469949
3.15697
0.0398861
3.15697
2.26502
0.157344
-2.26502
0.264187
3.26594
-3.26594
1.32913
0.671699
1.32913
-5.56065
5.56065
4.96076
0.0525783
-4.96076
0.0882171
6.15702
0.065128
6.15702
-6.20765
-0.0144965
-6.20765
2.67619
-4.91374
-2.49769
5.9744
0.212406
-5.9744
0.199352
2.91553
0.0296641
2.91553
-2.92072
2.92072
-2.98293
0.0377439
-2.98293
-2.15904
0.427651
-2.15904
1.41114
0.320251
1.41114
-4.15329
-0.130301
-4.15329
-4.15908
0.141022
4.15908
0.120447
1.06725
-1.06725
-1.02075
0.0767862
-1.02075
-3.9585
-0.194782
3.9585
-0.131637
-3.76765
-0.0592195
-3.76765
-3.02103
0.0381004
3.02103
0.0458042
3.11185
0.0451225
-3.11185
0.0450078
-1.87097
3.75381
-1.87998
3.75407
-5.65964
-0.382537
-5.65964
6.33933
-0.297152
6.33933
3.25467
0.440842
-3.25467
0.384783
2.33109
0.142799
2.33109
-6.81878
-0.0164064
-6.81878
6.82698
0.00820424
6.82698
2.23986
0.0912278
-2.23986
0.0852813
2.0262
0.00623988
2.0262
2.90176
-0.0233278
2.90176
-2.87508
-0.00335798
-2.87508
2.79737
-2.79737
2.72673
0.0706446
-2.72673
0.0799581
-11.124
11.1095
-0.0363009
-11.0877
5.1741
5.1741
4.26772
0.544616
4.26772
-5.02106
0.189764
-5.02106
2.95179
-5.44947
3.14736
-6.69912
4.72022
-16.235
4.29784
-8.4254
6.65729
-6.65729
6.53333
0.123966
-6.53333
0.157333
-1.22593
0.0411268
-1.22593
-3.06172
-0.601256
-3.06172
4.31808
-0.655102
4.31808
-3.02833
3.02833
-3.07693
0.0485978
3.07693
0.0510415
2.05834
-0.0321372
-2.05834
-0.0667991
0.59368
0.139637
-0.59368
0.123731
3.47267
-0.206736
3.47267
-3.07245
-0.193487
-3.07245
-1.27627
0.05034
1.27627
0.0528576
-5.80764
0.246992
-5.80764
-11.1814
0.0937237
-11.1438
-6.11393
-6.11393
2.32711
11.1189
-2.89249
0.0174151
2.89249
0.0230325
2.97601
0.0523147
-2.97601
0.0552939
-2.8612
0.0638316
2.8612
0.0595138
-2.53152
0.372479
-2.53152
-1.01258
1.01258
-1.17078
0.158201
1.17078
0.240359
1.35559
-0.288336
1.35559
1.0898
0.050925
-1.0898
0.0690534
-3.73309
-0.0345581
-3.73309
6.57561
-0.236287
6.57561
-2.94951
-0.122944
2.94951
-0.0477415
-0.0349962
11.1445
-5.1391
0.0338581
5.1391
-11.2096
11.2435
-3.24229
0.710768
3.24229
1.02544
5.28741
0.273235
-5.28741
0.266358
6.75094
0.0760373
-6.75094
0.0936505
-2.56871
-0.493008
-2.56871
-5.05711
-0.602525
5.05711
-0.739032
-11.4817
-0.203037
11.6847
-11.426
6.01068
0.146342
-6.01068
11.3898
-0.964716
-0.102538
0.964716
0.047864
1.692
-0.336412
1.692
3.66968
-0.197012
-3.66968
-0.0634052
-6.71764
-0.101145
6.71764
-0.142023
-2.12178
-0.44693
2.12178
-0.429782
-4.26719
4.30708
1.90989
-2.48366
-2.43008
-5.25497
1.85483
1.89897
4.30086
-10.1876
-6.04738
-9.98827
7.21393
-6.94758
-9.36564
9.27061
7.72208
-7.7813
-5.77822
5.82926
6.48394
-6.43813
1.87911
1.87422
7.98116
-7.77702
-15.7183
15.3357
7.56498
-7.46985
15.8881
-15.9045
-17.9334
18.0094
-5.70602
5.80136
-6.73073
6.72737
-6.96113
6.91339
-3.00879
-3.69033
13.191
-13.0019
8.37844
-8.47138
-8.62537
8.94792
3.3845
0.922581
3.42962
-1.88201
3.76112
-1.87141
3.7813
2.70422
-5.71301
2.74526
-5.17534
4.14702
4.23141
-4.12084
-1.13412
-5.92489
5.95455
-5.814
5.87351
9.01428
-9.02809
-1.88502
3.75923
-1.86905
3.76803
-3.42355
-2.35467
3.37848
0.922386
8.08451
5.10653
-8.29692
-1.69135
-7.92312
7.72611
-8.1791
7.98561
-0.438331
5.83652
-5.39819
4.43421
-1.65304
7.48956
5.56089
5.75066
5.86055
-5.58731
1.08703
-6.48522
-6.397
-2.5193
2.59608
2.49847
-2.37269
6.00302
1.71906
5.87138
-5.69325
-2.08805
-5.72781
3.82051
2.00875
3.86911
4.0809
2.40303
4.119
3.03004
-3.03612
0.0060794
-3.05885
6.08889
0.723109
-5.41352
-4.49114
5.00773
2.97343
5.19959
-5.57077
-2.20626
-5.18598
-9.59161
-6.12664
-10.1941
10.1247
5.21101
9.82755
-12.0099
11.8679
4.84824
2.71674
4.87525
-4.95234
-2.51752
-4.86706
11.6746
-2.6194
-9.05517
-10.3713
-7.56205
10.3631
5.52498
11.016
6.99342
11.1096
4.43998
7.23459
-9.96496
2.40291
-3.86493
-1.84109
-3.78497
3.66628
2.13508
3.79535
-4.21501
-2.51572
-4.19759
-4.2908
-2.67034
4.31413
2.41324
-4.40413
-3.77497
4.52707
2.38632
4.10385
-10.1512
4.32154
-8.01187
-9.24929
-3.75256
-9.09195
3.54283
2.55238
-6.0952
-2.17018
8.47964
-4.24823
7.34552
-5.1155
-3.35588
-5.1823
-6.91026
-1.71512
-6.76923
-8.94443
8.45142
-9.23704
8.58194
12.6472
-5.68136
-6.96588
-3.96678
-2.47135
3.92177
-0.492149
-3.71049
3.71657
0.0506231
3.83193
4.75451
4.26236
-3.88388
-1.93012
-3.82859
3.82642
2.04709
3.89025
6.77126
2.24301
6.78914
-6.4625
-2.56559
-6.5928
9.13855
-8.7109
2.87528
-2.82494
5.32256
2.66304
-5.11583
-2.80729
6.22435
-3.16461
-3.05973
-12.3595
10.8575
1.50208
-4.86998
-0.435776
-0.200331
-5.588
-3.77764
5.47402
0.27664
11.1341
7.35647
-5.51598
5.76297
6.16877
6.22135
-0.175657
5.92017
-5.2094
5.34943
-2.54573
-2.8037
5.33201
-5.52679
-1.2608
-5.41853
4.15773
0.344592
1.7353
-1.50079
-1.95881
-0.560482
-1.88976
1.47134
1.02714
1.61097
0.913532
1.68255
-2.97046
0.605279
2.36518
-2.05693
-1.76742
-3.65236
-1.10341
4.75577
5.60314
2.12297
-5.53973
-0.188075
2.66659
-2.62292
-0.745546
-2.90681
2.1541
-2.89965
-3.56014
-1.85644
5.41658
-3.36959
-0.458996
3.31727
0.551836
-3.82696
-2.09793
3.78922
0.329786
-3.12704
6.19029
-3.06325
-5.05715
2.52899
3.5599
4.53774
-4.79092
2.44845
2.34247
-1.23102
4.28061
0.918984
4.42341
-6.99274
4.78648
5.71323
3.23469
-6.15407
0.968087
-6.02465
8.38985
-7.25016
-1.13968
3.88106
4.50878
7.09168
5.55555
-5.70274
12.7944
-1.04798
-6.20218
7.07263
-3.83794
4.78198
-8.61992
-10.3375
4.13535
-9.23703
11.0452
-1.80816
-3.62495
-8.38499
12.862
-1.20627
-11.6557
8.62128
-4.21525
-4.27581
8.49106
-6.83465
6.79333
-1.96091
-4.83242
-10.1737
-5.73083
10.2748
1.59311
-9.87375
12.2767
-2.63916
4.16168
0.713571
4.16792
3.27342
-5.42112
2.1477
3.56122
-5.52213
2.05614
-7.47726
-6.81484
12.1955
-5.38071
-10.5674
-9.60132
-0.966083
2.54194
9.73472
-9.53536
7.45968
2.07569
3.30382
0.58643
-3.37446
-0.410508
0.249199
4.5187
-4.7679
4.04455
4.20189
3.26774
1.25096
3.84591
2.10864
-3.86895
-0.328645
-4.1594
1.48907
-1.74616
-3.68341
5.17248
-4.06292
0.379508
-2.7405
-3.49945
6.23995
-4.58158
3.03846
3.15183
5.08555
-4.91269
1.41324
-2.39482
-2.51787
2.64968
-4.39584
1.98284
3.18964
4.36916
0.594192
5.98315
6.21239
-8.53553
0.523658
11.3189
-9.62758
2.49403
8.6156
-9.95371
0.352388
-8.73956
0.960598
-5.20883
-5.1346
5.13539
-6.85051
-3.48452
6.21736
0.571781
-6.33781
-0.431428
-6.0669
-2.87752
-6.51383
-3.07147
-6.16558
-8.77421
-1.68459
-7.08962
6.76683
-6.68989
-3.50424
7.42892
1.15302
-7.47764
7.3751
-7.5406
7.20419
0.0943425
3.62223
4.3567
1.88535
-2.39121
4.27656
-5.06153
7.30455
-8.63056
3.56903
4.096
-6.66159
-4.53456
5.07093
4.06763
5.39118
8.98134
-10.4897
1.50836
-10.7566
12.0851
-1.3285
-16.5593
5.80269
-7.578
2.57075
0.304534
2.61187
0.617523
2.46882
-3.08635
-2.20742
-2.15456
-2.37853
-3.49078
5.86931
1.13813
-3.40937
2.27124
-3.55848
4.69662
0.0159448
-3.42532
5.21599
-2.74717
5.52052
-3.54254
1.97798
3.47718
5.80385
-2.32667
4.42086
-1.75781
1.87722
-4.20388
-1.61357
-2.96175
5.09683
-3.2782
3.6577
-0.328932
3.98664
-4.07635
0.911739
-0.80861
3.39328
3.65747
4.31033
-3.05937
2.95329
-4.7111
-1.25059
-4.11691
-0.927267
-0.227958
-3.83309
4.06105
6.06736
-6.29532
-5.3135
9.57275
-4.25925
7.73176
-5.46459
-2.26717
-4.31248
-4.39842
3.94
1.98016
9.71193
0.177025
-5.64162
-5.03237
-4.00694
3.20917
2.14026
-1.90645
3.40853
2.10678
-0.371486
0.502422
1.10855
1.86313
-1.36071
0.268508
1.59462
-1.23228
1.91038
0.756212
-1.9613
0.0715402
-1.28072
3.43482
1.08446
-2.1116
0.75089
0.982002
-3.52773
4.86087
-2.59696
-2.26391
5.84287
1.15901
-3.75597
4.25952
-3.91493
2.40017
-3.50358
-1.3558
-5.27072
-3.55166
-2.55883
4.83007
-3.31048
5.43345
1.26993
-5.24538
6.51531
-3.5938
1.73736
-3.07017
3.82638
-1.10281
-1.96735
2.94808
2.4685
-3.06631
0.159493
-0.118222
2.37635
-2.49457
-0.523295
-2.58022
-4.57473
4.90451
-2.10486
4.55331
2.1717
-1.9159
6.46921
1.80941
-3.72531
-3.24774
-3.70674
-1.38284
3.1549
-0.577803
-4.28925
-5.41023
4.19802
0.225382
-6.81646
7.73185
-0.915394
-3.84303
-0.943446
4.82451
-5.9894
0.467272
-3.93326
3.79859
4.71757
4.94295
-11.4253
-0.23039
-6.21431
1.09792
-7.31222
5.6067
-3.58778
7.72313
-10.3597
6.85542
-9.20665
6.58344
-0.728779
6.2441
-4.0964
2.81107
-8.5419
-6.94879
5.4588
-2.74206
6.17238
-3.10984
9.28221
-5.749
5.21434
4.06788
-1.04043
-4.14187
-5.20825
4.16782
0.00608344
4.174
4.98233
-2.8737
4.65369
2.25788
-4.6527
-2.13797
-6.49068
1.83798
-3.33885
-1.91886
3.75684
3.16669
3.75312
1.23897
-3.34261
7.25725
-8.22333
-1.87654
-3.25806
5.17645
-1.00863
3.38826
-6.64632
-1.82057
4.81835
-0.761546
-4.05681
0.863001
-4.34752
1.66814
-6.01567
5.18237
-5.6138
2.24531
-9.82331
-5.23232
-5.18446
-2.27587
-5.26474
-7.62472
5.34885
-1.82203
5.55307
-8.59945
7.83791
-3.48569
8.83454
-5.45996
-1.05387
5.88974
1.31445
10.149
0.0983388
-4.6329
-1.91528
3.84004
-1.92476
1.29389
-3.73475
0.105286
2.46666
3.37621
-6.62439
-0.0371948
-4.6701
-3.91679
7.98442
5.65596
11.7233
1.23362
9.18521
-1.20079
10.4188
4.19039
4.43075
-3.03475
4.54312
1.0263
4.59533
-0.842658
2.82064
1.76922
1.76963
0.853291
2.2983
1.35916
3.21004
0.123697
-2.03086
4.65531
-8.66225
-0.986302
-8.11764
1.15297
5.43181
-4.27884
3.02014
-0.879877
1.09538
0.00930359
-1.57858
1.56928
-2.7944
-1.95007
-0.355445
-1.61587
2.36676
1.81895
-2.01132
-0.783086
0.295225
-3.84689
3.20836
-3.04887
-0.580366
5.93494
-2.79619
0.301616
-1.05883
-2.2786
-2.83909
2.76755
6.17494
0.294276
3.11169
5.19879
3.10086
0.227167
3.9119
-5.72006
-3.56536
-5.95045
-0.343753
4.48076
1.73134
8.00338
5.79922
4.79059
-1.85573
-10.0791
6.5325
-1.98938
5.204
-1.14719
-4.86847
5.05225
2.2523
-5.62403
0.0102335
-4.85824
-6.84762
-0.494342
8.33225
-9.65465
8.60078
5.72325
1.36637
-4.44174
-0.742719
4.28354
0.147207
10.566
-0.906011
-7.17556
8.08157
-4.5258
3.5395
0.740876
2.66766
2.31015
1.43027
-5.74528
-10.0241
-1.91852
-1.60921
-4.18243
0.573346
-2.3923
6.10702
-2.56752
3.83985
5.51405
6.60943
-2.07496
-4.22036
6.3342
-2.49435
4.11507
)
;

boundaryField
{
    wall-4
    {
        type            calculated;
        value           uniform 0;
    }
    velocity-inlet-5
    {
        type            calculated;
        value           uniform -3.75095;
    }
    velocity-inlet-6
    {
        type            calculated;
        value           uniform -5.62643;
    }
    pressure-outlet-7
    {
        type            calculated;
        value           nonuniform List<scalar> 8(3.11692 7.54571 4.1362 9.74412 7.67932 5.17387 6.09915 9.01806);
    }
    wall-8
    {
        type            calculated;
        value           uniform 0;
    }
    frontAndBackPlanes
    {
        type            empty;
        value           nonuniform 0();
    }
}


// ************************************************************************* //
