/*--------------------------------*- C++ -*----------------------------------*\
  =========                 |
  \\      /  F ield         | OpenFOAM: The Open Source CFD Toolbox
   \\    /   O peration     | Website:  https://openfoam.org
    \\  /    A nd           | Version:  6
     \\/     M anipulation  |
\*---------------------------------------------------------------------------*/
FoamFile
{
    version     2.0;
    format      ascii;
    class       volVectorField;
    location    "40";
    object      U;
}
// * * * * * * * * * * * * * * * * * * * * * * * * * * * * * * * * * * * * * //

dimensions      [0 1 -1 0 0 0 0];

internalField   nonuniform List<vector> 
918
(
(0.985047 -0.000709565 0)
(0.00533653 2.96625 0)
(-0.00490858 0.820698 0)
(0.979573 0.00195737 0)
(-0.0218959 2.00872 2.41169e-20)
(-0.00708456 2.94855 -2.69724e-18)
(0.813039 1.13501 4.14574e-19)
(0.297482 0.110325 -1.57928e-20)
(0.99992 -0.000242102 0)
(0.0834835 0.743558 0)
(0.00489076 0.524126 0)
(0.735672 -0.0161818 0)
(0.0101961 2.93159 0)
(0.00348955 2.7943 0)
(-0.000680385 3.19084 8.09888e-19)
(-0.00598096 1.87901 -4.3999e-21)
(0.354157 0.0260764 1.03628e-18)
(0.237353 1.14489 3.31259e-19)
(0.964474 0.00668428 0)
(-0.00778621 0.569913 0)
(0.0836896 0.177052 -7.48855e-19)
(1.00184 -0.00455789 0)
(0.999854 -0.00893368 0)
(0.975156 -0.00605802 0)
(0.597693 -0.0367765 0)
(0.0229615 2.64346 0)
(-0.0123487 2.91199 9.95647e-19)
(-0.00387334 0.891856 0)
(0.0051736 1.10406 0)
(-0.00510108 0.869176 0)
(-0.0281795 2.60178 0)
(-0.00629773 2.06611 -1.92427e-20)
(-0.0153412 1.82566 0)
(-0.0221707 2.9876 -9.75814e-23)
(-0.016504 3.00551 2.09607e-18)
(0.00230603 3.00061 0)
(0.871175 -0.00943254 0)
(0.375627 0.918823 1.7585e-19)
(0.814272 1.14548 -4.94203e-19)
(0.948588 0.998906 5.17485e-19)
(0.68005 1.22981 -9.51302e-20)
(0.691156 1.20358 5.50367e-19)
(0.326639 0.204238 1.54072e-20)
(0.3067 0.0931731 0)
(1.13079 0.508227 0)
(0.292567 0.202732 7.03623e-20)
(0.268434 0.124991 -7.30159e-20)
(0.920388 -0.0069994 0)
(1.00025 7.88985e-05 0)
(0.999909 0.000314922 0)
(1.00369 -0.00729926 0)
(1.0009 -0.000955164 0)
(1.00011 -1.74453e-05 0)
(0.0966775 1.83149 -7.96104e-19)
(0.0297487 0.918046 0)
(0.128115 0.814122 0)
(0.0163752 0.870329 0)
(0.0431563 0.685303 0)
(0.0146533 2.00782 0)
(0.0176823 0.752547 0)
(0.0116598 0.560635 0)
(0.00265061 0.739874 0)
(-0.00490722 0.513986 0)
(0.840072 -0.0152399 0)
(0.842986 0.0325801 0)
(0.767525 -0.00592274 0)
(0.815519 0.0432566 0)
(0.69959 -0.0182238 0)
(0.0139635 3.00019 1.00273e-18)
(0.0111955 3.0059 0)
(0.0063098 3.00391 0)
(0.0118787 2.99707 1.14134e-23)
(0.00828839 2.95873 -1.49031e-18)
(0.0121915 2.98293 0)
(0.00902056 2.90488 0)
(0.0211221 2.9313 2.3489e-24)
(0.00413672 2.82418 0)
(0.0263412 2.91886 0)
(-0.000650742 2.74487 0)
(0.310318 3.59128 0)
(-0.122688 3.67464 0)
(0.15267 3.28196 -7.53772e-19)
(0.0059662 3.0146 0)
(-0.0139787 2.0525 0)
(-0.0157176 2.13667 4.33928e-21)
(0.00433527 1.90934 -7.44717e-21)
(0.435523 0.13509 -3.58296e-19)
(0.35528 -0.00162542 -3.45891e-19)
(0.412882 0.157996 -1.07873e-18)
(0.341574 0.0479852 -7.1136e-19)
(0.258481 0.994348 0)
(0.337141 1.27398 -3.47293e-19)
(0.414457 1.17931 5.72975e-19)
(0.98793 0.00808451 0)
(0.943434 0.0057981 0)
(1.00029 0.000675466 0)
(1.00254 0.00907391 0)
(1.00314 0.00893742 -2.72218e-18)
(0.992125 0.00949454 2.05706e-18)
(-0.034644 0.778126 0)
(-0.0224416 0.549238 0)
(-0.0124346 0.922735 0)
(-0.00691606 0.797002 0)
(-0.020915 0.581913 0)
(0.109323 0.18713 2.31802e-19)
(0.159936 0.159588 0)
(0.99361 -0.00769904 0)
(0.953992 -0.00646296 0)
(0.762991 0.0500993 0)
(0.69584 0.0551103 0)
(0.66029 -0.0231519 0)
(0.969746 -0.00537244 0)
(0.626893 0.0610038 0)
(0.453754 -0.0320461 1.51833e-18)
(-0.0405729 2.86174 8.03154e-19)
(0.0335764 2.9143 0)
(0.0426416 2.89175 0)
(0.00369362 2.70136 0)
(-0.00871863 2.98626 9.55905e-19)
(-0.0143337 2.89476 0)
(-0.0110798 2.99172 -2.93686e-18)
(-0.0115969 2.92961 9.99048e-19)
(0.0280178 1.32468 0)
(0.0490518 1.38033 0)
(-0.007891 2.10556 2.96485e-22)
(-0.00745786 2.06172 0)
(-0.0184171 1.84019 0)
(0.93824 -0.00554932 0)
(0.856076 -0.0106885 0)
(0.863647 0.00590944 0)
(0.949219 -0.00639355 0)
(0.883166 -0.00792086 0)
(0.500318 1.12003 -2.22641e-19)
(0.548073 1.19129 0)
(0.336367 0.851434 3.35715e-20)
(0.280238 0.716254 0)
(0.909146 1.03612 -1.43875e-19)
(1.02095 0.836512 2.80529e-19)
(0.397802 1.33579 0)
(0.542772 1.29031 0)
(0.593971 1.22334 0)
(0.0950029 0.171425 -2.99962e-19)
(0.343885 0.20157 0)
(0.30746 0.0875729 2.01911e-19)
(0.98381 0.892555 0)
(1.0486 0.734339 0)
(1.07721 0.667864 -2.09567e-19)
(1.11183 0.576786 0)
(1.16642 0.373828 4.4855e-20)
(0.957222 -0.00724266 0)
(0.96258 -0.00819821 0)
(0.900603 -0.00731129 0)
(0.983887 -0.00815371 0)
(0.974345 -0.00809019 0)
(0.936442 -0.00653467 0)
(1.0002 0.00250211 0)
(1.00077 0.00124674 0)
(0.999999 0.000773533 0)
(0.0414944 2.07892 4.41562e-19)
(0.1473 1.77455 0)
(0.0143165 2.1974 6.79262e-19)
(0.0564955 1.88152 -5.73866e-19)
(0.17398 1.12553 -2.71209e-19)
(0.0545488 0.99096 0)
(0.122977 0.986802 0)
(0.0081942 0.823597 0)
(0.0308346 0.629711 0)
(-0.0081738 2.24579 -9.88309e-22)
(0.0249482 2.01639 0)
(-0.0112316 2.24684 -4.39959e-20)
(0.0135178 2.01245 7.68329e-20)
(0.0043729 0.794852 0)
(0.010189 0.776638 0)
(0.0122868 0.595362 0)
(-0.015038 0.744676 0)
(0.00140876 0.504498 0)
(0.936862 0.0133063 0)
(0.851621 -0.0117336 0)
(0.926682 0.00443684 0)
(0.843825 -0.0124126 0)
(0.812408 3.42546e-05 0)
(0.900423 0.0213663 0)
(0.875338 0.0268659 0)
(0.788682 -0.00269184 0)
(0.0102133 3.06735 -9.40067e-21)
(0.0152249 3.05906 0)
(0.0123595 2.97034 0)
(0.00758253 2.87659 0)
(0.901258 3.99004 0)
(1.19676 3.38375 9.42915e-19)
(0.0829504 3.09609 0)
(-0.0160083 2.92123 0)
(0.0330317 1.43565 0)
(-0.00920653 1.77087 0)
(0.0253481 1.62438 0)
(-0.033795 2.56172 -3.55531e-21)
(-0.0258146 2.26207 0)
(-0.0289093 2.40642 0)
(0.0132161 1.93816 -6.15974e-22)
(-0.00607395 2.2262 4.92251e-21)
(-0.0174192 2.17965 7.60833e-21)
(0.00665561 1.92166 0)
(0.454226 0.112084 5.42388e-19)
(0.367618 -0.0129833 -5.32642e-19)
(0.233997 1.57834 0)
(0.282567 0.735729 -3.27474e-19)
(0.177899 1.67747 -1.09095e-18)
(0.241226 1.20312 1.0918e-18)
(0.901897 0.00620017 0)
(0.967231 0.0104772 0)
(0.9751 0.0097202 0)
(0.923166 0.00599549 0)
(-0.0184959 0.741562 0)
(-0.0251315 0.751638 0)
(-0.0197506 0.523995 0)
(0.25048 0.202027 6.46661e-19)
(0.210551 0.186528 -7.68779e-19)
(0.217701 0.138655 0)
(1.09234 0.0857561 2.66937e-20)
(1.07661 0.0391922 0)
(1.00998 0.0419441 0)
(0.906284 -0.00343064 0)
(0.482048 0.0887198 0)
(0.539226 0.0649705 -2.43392e-18)
(0.395061 -0.0180019 9.16769e-19)
(0.0110645 2.9771 8.43209e-19)
(-0.0331599 2.86175 4.58018e-20)
(0.00832388 3.05333 -1.97959e-20)
(0.015614 3.04331 7.41665e-19)
(-0.0118718 3.00001 3.28059e-20)
(-0.0123076 2.95231 -1.32309e-22)
(-0.0150214 3.01334 -6.1097e-19)
(0.0142674 3.02669 4.29875e-19)
(0.00755628 3.03476 -6.9969e-19)
(0.933397 0.00163105 0)
(0.938643 -0.00158337 0)
(0.846479 -0.0108549 0)
(0.956625 0.0114585 0)
(0.942939 0.0127109 0)
(0.881933 0.00597592 0)
(0.91717 0.0171885 0)
(0.926085 0.0145057 0)
(0.838281 0.00306195 0)
(0.674679 1.42163 5.98943e-21)
(0.69337 1.53313 0)
(0.122054 0.306908 7.02345e-20)
(0.197662 0.633598 5.58231e-19)
(0.233884 0.68666 -3.26627e-19)
(0.219126 0.515379 6.47557e-19)
(0.327682 0.801695 1.58728e-18)
(0.123207 0.223759 3.81546e-19)
(0.389281 0.180856 7.56458e-19)
(0.374185 0.196902 1.95928e-19)
(0.324991 0.0649314 3.75774e-19)
(1.15944 0.431305 5.34832e-20)
(1.18854 0.236937 5.19605e-20)
(0.00298375 2.242 2.68079e-19)
(0.0433138 1.94579 0)
(0.966831 0.0319626 0)
(0.942422 0.0186719 0)
(0.865077 -0.0161843 0)
(0.0124866 3.07495 0)
(0.0169295 2.94408 1.31807e-18)
(0.0139923 2.95694 0)
(0.00578511 2.84975 -1.3082e-18)
(0.00890622 3.09079 3.22705e-19)
(0.0116841 3.08272 0)
(0.714482 1.83154 -1.70285e-19)
(1.24127 2.6398 5.76052e-19)
(0.699534 2.01048 -1.40149e-18)
(0.0227021 2.97697 -7.39771e-19)
(0.0413118 3.00021 0)
(-0.0382065 2.88049 0)
(-0.00875667 2.21981 -1.35055e-20)
(-0.00543987 2.24196 -1.2398e-20)
(0.0105644 1.97017 -1.10929e-20)
(0.262752 1.38284 1.05446e-18)
(0.268332 0.528397 -7.23875e-19)
(0.0697852 1.99425 7.79511e-19)
(0.121663 1.86443 -9.33741e-19)
(0.208455 1.523 1.01748e-19)
(0.00626196 3.12034 -1.80641e-18)
(0.0130433 3.12089 1.98699e-18)
(-0.00503979 2.98046 8.99495e-19)
(-0.00145981 2.9752 -8.66393e-19)
(-0.0178323 2.87744 -9.16173e-19)
(0.0124985 3.10016 -2.40259e-18)
(0.00518589 3.10534 2.43589e-18)
(0.247243 0.671444 0)
(0.203044 0.639066 -1.17726e-18)
(0.0665675 0.209652 5.17558e-19)
(0.338414 0.917321 1.13183e-18)
(0.189068 0.265441 -1.7429e-18)
(1.17711 0.169899 6.07835e-20)
(1.18778 0.294332 0)
(1.17285 0.117685 -6.84953e-21)
(-0.00615123 2.25824 -1.68817e-21)
(-0.00121983 2.24553 0)
(0.0342619 1.97764 0)
(0.312597 1.30449 -3.7635e-19)
(0.350362 1.14618 -8.1295e-19)
(0.218538 0.374069 1.44971e-18)
(1.00642 -0.00973567 0)
(1.00773 -0.00781067 5.00713e-19)
(0.0232875 1.30106 0)
(-0.00523198 1.26123 0)
(1.00245 0.00331409 1.3905e-21)
(1.00325 0.00792543 1.02739e-18)
(-0.0305906 2.54665 4.50303e-21)
(-0.0348002 2.58654 0)
(0.0420408 3.17386 5.36888e-19)
(0.37973 3.55358 0)
(1.12999 0.682188 -6.76905e-20)
(1.01198 0.0108589 -2.76601e-21)
(1.02078 -0.0090937 0)
(1.0016 0.000220822 1.42435e-22)
(0.107325 1.36241 0)
(0.143423 2.59296 0)
(0.0244512 1.30564 0)
(-0.00146833 2.64129 3.82409e-20)
(-0.026267 2.59191 2.061e-20)
(0.99945 0.0261025 2.56773e-21)
(1.06142 0.00465879 0)
(1.09781 0.0258957 0)
(-0.0118089 1.79616 0)
(-0.0287909 2.59148 0)
(-0.00644539 1.28544 0)
(0.288056 1.48256 -1.51566e-19)
(1.01145 -0.00910887 0)
(1.00969 -0.0130156 0)
(1.00228 0.000902741 6.41619e-19)
(1.00549 -0.00494797 -7.55633e-19)
(1.00115 -0.000881081 0)
(0.00183829 1.50663 0)
(0.0231664 1.3766 0)
(0.0263953 1.46043 0)
(0.00168141 1.2742 0)
(0.00457487 1.22823 0)
(-0.0010413 1.20941 0)
(1.03518 -0.00474582 0)
(1.01956 0.0150656 -9.28416e-22)
(0.784619 1.30333 2.51458e-19)
(1.00236 0.000334429 -6.40694e-19)
(1.00341 0.00453558 7.64391e-19)
(1.00129 0.0021071 0)
(1.01135 0.00967147 6.38054e-19)
(1.007 0.00758662 -7.76518e-19)
(1.0074 0.0112745 0)
(-0.0339734 2.61826 0)
(-0.0359088 2.59693 -1.57638e-20)
(-0.0350828 2.60964 1.19402e-20)
(1.23109 0.263062 5.8356e-19)
(1.15901 0.0867247 0)
(0.0458873 3.09034 -1.0466e-18)
(0.051159 2.87062 -7.39575e-20)
(0.105133 3.20133 1.40105e-18)
(0.123527 3.21403 -3.09661e-19)
(0.146105 3.26172 0)
(0.0232017 3.13798 2.88711e-19)
(0.0624057 3.16168 1.04258e-18)
(0.0626499 3.17921 -5.39558e-19)
(0.0276653 3.12884 0)
(0.638948 0.302108 0)
(0.592524 0.347774 0)
(1.10741 0.714227 1.68186e-19)
(1.07334 0.847636 -1.70759e-19)
(1.16942 0.599217 0)
(1.20037 0.530023 0)
(1.01586 0.0120635 -1.18572e-18)
(1.01479 0.0128215 1.49084e-18)
(1.02552 -0.00885567 0)
(1.02386 -0.0103771 0)
(1.0066 0.00285376 0)
(1.01096 0.00418169 0)
(1.00442 0.00213221 0)
(1.00949 0.0064761 0)
(1.00701 0.00506984 0)
(1.00457 0.00533823 0)
(0.0943335 1.35819 0)
(0.0781123 1.34292 0)
(0.134207 1.40965 0)
(0.129077 1.41123 0)
(0.151715 2.61672 0)
(0.193576 2.68335 -4.39366e-19)
(0.109784 2.67772 0)
(0.0844237 2.67955 1.88429e-19)
(0.0316054 2.68563 -1.92113e-19)
(0.0266391 1.32579 0)
(0.0203214 1.26075 0)
(0.0198535 1.32885 0)
(0.0301938 1.27705 0)
(-0.000904813 1.9928 -2.75677e-21)
(-0.0248223 2.62026 1.05425e-21)
(-0.0103708 2.68494 2.06508e-20)
(-0.0217597 2.69671 0)
(-0.0273052 2.62733 -4.43988e-20)
(-0.0249148 2.62276 -7.95214e-21)
(0.00699933 1.99157 3.48613e-21)
(-0.0140705 2.41617 -1.41454e-21)
(-0.0169114 2.43633 -2.34082e-20)
(1.01013 0.0373536 1.20142e-18)
(1.00661 0.016882 -1.49745e-18)
(1.00351 0.0431 -1.22833e-18)
(0.978019 0.029685 1.54605e-18)
(1.06316 0.00797162 0)
(1.04875 -0.00688016 0)
(1.09035 0.0352022 0)
(1.07402 0.0135566 0)
(1.0729 -0.000516168 0)
(1.13754 0.0754568 0)
(1.11232 0.0429876 0)
(1.11462 0.0356944 0)
(-0.0269018 2.4454 -1.623e-21)
(-0.0290943 2.0271 0)
(-0.0232361 2.23371 0)
(-0.0290975 2.61226 -2.4718e-21)
(-0.0234703 2.62119 -1.90056e-22)
(-0.00755316 1.57726 -4.03379e-21)
(0.00511147 1.5289 4.06722e-21)
(-0.00197771 1.38654 0)
(0.00825881 1.39819 0)
(0.00909691 1.39603 0)
(-0.0159102 1.2936 0)
(-0.0059947 1.2334 0)
(0.376049 1.50355 2.46383e-19)
(0.420199 1.51153 1.3991e-19)
(0.601662 2.46343 -2.53954e-19)
(0.394811 2.56118 7.15146e-19)
(0.351325 2.07041 7.825e-20)
(1.02057 -0.00811212 0)
(1.01571 -0.00942826 0)
(1.0148 -0.0132422 0)
(1.00761 -0.000708383 0)
(1.00491 -0.00067901 0)
(1.00797 -0.00458813 0)
(1.00949 -0.00362741 0)
(1.01453 -0.0044512 0)
(1.02033 0.0158803 1.1633e-18)
(1.0177 0.0148127 -1.47481e-18)
(1.02082 0.0180255 -1.17239e-18)
(1.01859 0.0164524 1.46746e-18)
(0.745524 1.34693 0)
(0.680263 1.38593 2.14335e-19)
(0.850482 1.22468 7.28375e-20)
(0.883688 1.19366 -9.6642e-20)
(1.16552 2.62296 3.09414e-19)
(0.790955 0.121158 5.97735e-19)
(1.16586 0.101603 0)
(1.20357 0.190736 -4.72263e-19)
(1.18428 0.151313 -1.96167e-20)
(1.01181 0.15346 0)
(0.0865138 3.02483 3.78394e-19)
(0.088247 2.90535 -1.2472e-18)
(0.0363517 2.36495 7.92666e-19)
(0.133958 -0.0783318 -3.82183e-19)
(0.347169 3.45573 -2.36549e-19)
(0.196727 3.3462 0)
(0.227695 3.4061 3.08132e-19)
(0.229692 3.08309 -1.29708e-18)
(0.263813 3.20355 0)
(0.00750357 3.12233 5.39155e-20)
(0.0177549 3.13113 -6.18373e-19)
(0.0169271 3.12705 9.10155e-19)
(0.0340902 3.13985 0)
(0.031982 3.1499 0)
(1.26254 2.58993 0)
(0.520023 0.829022 -5.36429e-19)
(0.99458 1.02674 1.45432e-20)
(0.962928 1.07122 0)
(0.830163 0.960971 -1.21562e-19)
(1.05014 0.892952 2.79214e-20)
(0.40589 0.380028 -9.43048e-19)
(0.697513 0.319152 -2.50516e-20)
(0.652628 0.239775 4.24302e-19)
(0.611038 0.370954 3.13418e-20)
(0.524776 0.346095 -1.26422e-18)
(0.663323 0.328689 0)
(0.698594 0.415747 7.336e-19)
(0.705168 0.421921 0)
(0.644687 0.353628 0)
(0.596557 0.296644 0)
(0.76499 0.645539 4.20435e-19)
(1.2367 0.291337 -4.80462e-19)
(1.22219 0.429193 0)
(1.23248 0.378149 0)
(0.740892 0.177632 6.33883e-19)
(0.828504 0.539742 -3.98632e-19)
(0.74813 0.49286 7.06381e-19)
(0.953745 0.428828 -7.45219e-19)
(1.01894 0.0144731 7.90621e-19)
(1.01737 0.0135692 -7.97501e-19)
(1.01617 0.0142191 0)
(1.0365 -0.00494129 0)
(1.03011 -0.00792999 -7.49155e-19)
(1.02827 -0.0107714 7.41473e-19)
(1.02482 0.0103477 0)
(1.02299 0.0143692 0)
(1.01245 0.00447632 0)
(1.01453 0.00904709 0)
(1.01603 0.00394563 0)
(1.01532 0.00278728 0)
(0.0626738 1.35445 0)
(0.061919 1.31784 0)
(0.142316 1.40869 4.56241e-20)
(0.264968 1.47705 6.97257e-20)
(0.15828 1.4506 1.5486e-19)
(0.186055 1.45647 -2.5093e-19)
(0.147387 1.41291 0)
(0.126406 1.57825 -1.23639e-19)
(0.127122 1.57032 0)
(0.346086 2.029 -1.13893e-19)
(0.33904 2.3439 6.73313e-19)
(0.178058 1.45217 1.07791e-19)
(0.264467 1.37709 1.45093e-20)
(0.189063 1.37981 -1.18168e-20)
(0.279461 1.313 -1.16876e-19)
(0.253245 1.5757 0)
(0.254849 1.62447 1.19784e-19)
(0.0290673 2.27689 -2.32685e-20)
(0.0377732 2.67998 0)
(0.068492 2.41658 1.20624e-19)
(0.0621747 2.43626 0)
(0.0701645 2.69563 -2.09038e-19)
(0.0447292 2.71265 0)
(0.0263365 1.41673 1.73494e-20)
(0.035544 1.47431 0)
(0.0315787 1.38078 0)
(0.0254534 1.38247 -2.02449e-20)
(-0.000379856 2.66884 -5.10935e-21)
(0.025241 2.70461 2.21426e-19)
(0.00851733 2.73796 1.34564e-21)
(8.95441e-05 1.83948 8.67278e-21)
(-0.00686625 1.68312 3.82021e-22)
(0.0232528 1.30651 0)
(0.0189064 1.24227 0)
(0.0412799 1.574 1.65052e-20)
(0.0352331 1.44923 -3.76816e-22)
(0.0337625 1.51851 -3.17072e-21)
(0.0440416 1.60165 0)
(-0.0336565 2.29164 5.97381e-20)
(-0.0410376 2.56359 -2.75433e-20)
(-0.017934 2.4658 2.91536e-22)
(-0.0121813 1.85616 -1.05121e-20)
(-0.0311752 2.51445 -3.33704e-21)
(-0.0268865 2.45472 2.82127e-20)
(1.01874 0.0209336 -7.95898e-19)
(1.01486 0.0267681 7.98473e-19)
(1.01401 0.0167037 0)
(1.01255 0.0673465 1.09483e-18)
(0.992348 0.0544815 -1.2593e-18)
(0.954291 0.0505876 1.4088e-18)
(1.01304 0.110058 -1.49279e-19)
(1.04317 -0.00514389 0)
(1.0511 -0.00112589 7.18079e-19)
(1.03965 -0.00840043 -7.17805e-19)
(1.07067 0.0406443 -4.27031e-20)
(1.06337 0.0273905 3.68168e-19)
(1.06418 0.0624659 0)
(1.05269 0.051642 -1.3251e-19)
(1.03251 0.0424852 0)
(1.02563 0.0377506 0)
(1.02775 0.0129521 0)
(1.02421 0.0156107 0)
(1.04033 0.0321084 2.72268e-19)
(1.0391 0.0273028 -6.02136e-19)
(1.05225 0.0360813 -2.88438e-19)
(1.04849 0.0358212 -3.17944e-19)
(1.07554 0.0665027 6.12035e-19)
(1.09873 0.0526171 0)
(1.10481 0.0914256 0)
(-0.0360983 2.29991 3.90114e-20)
(-0.0275729 2.03525 -2.08251e-21)
(-0.0284021 2.04226 0)
(-0.0360101 2.45993 -3.88745e-20)
(-0.0267004 2.41613 3.64628e-21)
(-0.0413335 2.49383 4.07113e-21)
(-0.0235349 2.63372 6.88025e-21)
(-0.0323408 2.57574 -1.18208e-21)
(-0.0248339 2.53063 2.18598e-21)
(-0.0214682 2.62559 -1.32349e-21)
(-0.0238713 2.6283 2.73332e-21)
(-0.0198606 1.47829 -1.42259e-22)
(3.49563e-05 1.62025 -2.72152e-21)
(0.366985 1.43209 -1.00424e-19)
(0.363724 1.36073 4.22208e-20)
(0.630983 1.43177 -2.07385e-19)
(0.50989 1.50219 -1.35307e-19)
(0.557159 1.46584 0)
(0.60683 2.43088 2.17741e-19)
(0.667045 2.43027 3.43603e-19)
(0.422109 2.52308 8.05786e-20)
(0.401713 2.54752 -6.90957e-19)
(0.498464 2.49181 5.98646e-19)
(0.550927 2.48093 0)
(0.48798 2.5316 -5.65417e-19)
(0.262322 2.5956 1.19213e-18)
(0.363921 2.56934 -6.16063e-20)
(0.284665 2.65634 -1.64525e-18)
(0.964133 2.39538 7.25859e-19)
(0.846799 2.39368 0)
(1.01137 0.0011874 2.60406e-20)
(1.01521 -0.0053455 -2.12506e-20)
(1.01762 -0.00413621 -3.88584e-19)
(1.01544 -0.00119741 3.87257e-19)
(1.01295 0.00166146 0)
(0.620409 1.29345 0)
(0.655749 1.18063 0)
(0.766367 1.10349 0)
(0.64263 1.14085 0)
(1.19645 2.63946 5.00894e-20)
(1.0878 2.38691 0)
(0.825439 2.20261 3.65732e-21)
(0.825056 2.45547 0)
(0.918168 2.54377 -4.48677e-19)
(0.95002 2.49394 2.99814e-19)
(0.80862 0.143922 0)
(0.769865 0.133264 1.63784e-19)
(0.920208 0.148688 9.48274e-19)
(0.8381 0.126254 -3.56244e-19)
(0.799812 0.0855452 -1.08907e-18)
(1.08203 0.228007 -8.91982e-19)
(0.988202 0.288535 -7.66316e-21)
(0.925846 0.327191 8.61744e-19)
(1.01533 0.239648 7.23208e-19)
(0.935602 0.187249 -1.259e-18)
(0.897996 0.199748 1.5758e-19)
(0.942052 0.292703 -3.31274e-19)
(0.911783 0.203317 0)
(0.999562 0.191849 6.1731e-19)
(1.0542 0.20172 0)
(1.04927 0.211561 0)
(1.12187 0.11764 2.81596e-19)
(1.06198 0.179461 -1.04854e-20)
(1.07528 0.230847 -1.60372e-19)
(1.11406 0.199657 0)
(1.02356 0.0465395 6.16024e-19)
(1.03907 0.0602952 7.66691e-19)
(1.0329 0.0443384 -6.10773e-19)
(1.04085 0.0654675 -5.14225e-19)
(1.01511 0.0713173 -7.75161e-19)
(0.991055 0.158348 0)
(0.993094 0.102658 0)
(0.963445 0.0638774 -4.9994e-19)
(0.912092 0.0940445 1.97862e-19)
(1.03656 0.109959 7.12184e-19)
(1.0735 0.12879 -8.2442e-19)
(1.06489 0.167932 7.40073e-19)
(1.03399 0.14616 0)
(1.08286 0.114101 0)
(1.05673 0.10527 -3.36202e-19)
(1.04417 0.102997 -5.79621e-19)
(0.586915 1.11002 1.20394e-19)
(0.624883 1.44007 -2.65252e-20)
(1.14721 2.73543 -2.52568e-19)
(1.19969 3.11622 3.76088e-21)
(1.25547 2.74123 -1.51769e-19)
(1.29717 2.71301 2.90189e-20)
(1.27285 2.33443 -3.69493e-20)
(1.18753 3.02202 -7.89244e-20)
(1.20618 2.97879 2.31867e-19)
(1.18186 3.27027 -1.21092e-19)
(1.4018 2.98611 1.49764e-19)
(1.41389 2.92489 0)
(0.551632 0.851359 -4.85546e-20)
(0.23643 1.22696 4.97209e-19)
(0.496545 0.455978 6.01146e-19)
(0.371276 0.218692 6.89733e-19)
(0.546379 0.374211 7.13716e-19)
(0.557984 0.472875 -1.14648e-18)
(0.558573 0.470341 9.39288e-19)
(0.511448 0.401199 -3.63561e-19)
(0.442793 0.33223 8.22672e-19)
(0.761061 0.234398 -3.62462e-19)
(0.723477 0.274898 0)
(0.69448 0.201638 1.0289e-20)
(0.734469 0.511945 3.86464e-19)
(0.691406 0.480959 -1.40472e-18)
(0.65206 0.468388 2.27118e-20)
(0.646055 0.440627 0)
(0.688978 0.736847 3.86745e-19)
(0.805414 0.791057 4.38725e-19)
(0.733588 0.840959 -5.09117e-19)
(0.87267 0.810283 -1.63466e-19)
(0.908713 0.853553 -4.12966e-20)
(0.916452 0.860208 4.23477e-20)
(0.865534 0.672195 -6.99634e-19)
(0.931898 0.722586 1.52031e-19)
(0.982022 0.725359 0)
(0.981272 0.701709 -1.99542e-19)
(1.03223 0.31102 2.28505e-19)
(1.14831 0.313865 2.84518e-19)
(1.0663 0.267305 3.65317e-19)
(0.989755 0.358568 -4.48749e-19)
(1.03071 0.465701 0)
(1.11858 0.411638 0)
(0.890162 0.400807 8.07983e-21)
(0.84492 0.288883 0)
(0.872898 0.276284 4.10051e-19)
(0.910108 0.325002 1.00294e-20)
(0.958806 0.458071 2.10019e-18)
(0.883174 0.530135 5.35711e-19)
(0.907526 0.473327 -5.81399e-19)
(0.822982 0.45136 6.1569e-19)
(0.80839 0.43165 3.74708e-19)
(0.794009 0.401513 -3.67544e-19)
(1.02797 -0.000616678 6.4247e-19)
(1.02028 0.000307957 0)
(1.01892 0.00116175 4.19199e-19)
(1.02254 -0.00100136 -9.49011e-19)
(1.02242 0.00428288 4.62076e-19)
(1.02009 0.0111901 -9.67e-19)
(1.02098 0.0109448 0)
(1.01998 0.0117328 -2.01391e-19)
(1.0164 0.00756048 5.04697e-19)
(1.01673 0.0106714 -2.53626e-19)
(1.01742 0.0102621 1.85736e-19)
(0.0293327 1.3206 0)
(0.0359727 1.3471 0)
(0.044057 1.33073 0)
(0.0410962 1.28953 0)
(0.0775891 1.35906 4.06003e-20)
(0.0912227 1.3336 -3.6061e-20)
(0.0496725 1.53758 -1.605e-20)
(0.107619 1.37274 -4.70044e-20)
(0.0419393 1.45784 -5.73276e-21)
(0.0451247 1.45454 4.17624e-21)
(0.0688841 1.36122 -3.89817e-20)
(0.0585107 1.36584 2.85984e-20)
(0.0482805 1.344 4.58399e-21)
(0.0389924 1.36207 2.49388e-22)
(0.107969 2.38776 -1.32411e-19)
(0.0980885 2.42968 0)
(0.155366 2.03288 1.07457e-19)
(0.120602 1.70905 4.8062e-20)
(0.219109 2.02638 -8.81483e-20)
(0.216694 2.43431 0)
(0.237033 2.39583 -6.86334e-19)
(0.301558 2.38693 4.93144e-19)
(0.252598 2.00224 -2.34352e-19)
(0.144008 2.16177 1.62326e-19)
(0.114565 2.2675 0)
(0.0229337 1.86429 -4.45072e-20)
(-0.0067217 2.40254 -7.86203e-20)
(0.00357531 2.14965 0)
(0.00708611 2.46194 -1.47275e-20)
(0.0238184 2.30638 3.15391e-20)
(0.0181361 1.40265 -4.00282e-21)
(0.0117367 1.38728 6.4228e-20)
(0.0121355 1.39108 -2.33319e-20)
(0.0200135 1.39001 -1.47131e-20)
(0.0242631 1.4205 0)
(0.00955058 1.37384 0)
(-0.00596944 1.29146 -2.20412e-20)
(-0.00398138 1.36029 5.23455e-21)
(0.00826899 1.36492 0)
(0.00640344 1.29648 -2.23712e-20)
(0.00170754 1.22166 4.05727e-20)
(1.04185 0.0137759 0)
(1.04809 0.00937551 -6.71973e-20)
(1.039 0.0227858 -4.8534e-19)
(1.04927 0.0217203 0)
(1.05383 0.0208322 0)
(1.0363 0.0117714 -6.70453e-21)
(1.03034 0.0120914 7.78375e-19)
(1.03198 0.016306 9.4662e-19)
(1.02582 0.0201775 0)
(1.0225 0.0206498 0)
(1.03554 0.0245242 4.83957e-19)
(1.02608 0.0265376 0)
(1.0238 0.0268639 0)
(-0.0309011 2.03542 0)
(0.00443135 1.64933 -5.41578e-21)
(-0.00779087 1.76469 -2.46244e-20)
(-0.00861687 1.36621 0)
(-0.0158115 1.55314 -2.63285e-21)
(-0.00583456 1.44848 2.01401e-22)
(-0.00753906 1.37112 0)
(0.403977 1.66219 0)
(0.355715 1.29997 -6.28806e-20)
(0.278397 1.34437 0)
(0.421795 1.30556 2.74209e-21)
(0.463229 1.46095 0)
(0.446151 1.40458 2.21776e-20)
(1.03932 2.68731 -1.55625e-20)
(0.97969 2.41679 -9.12097e-19)
(0.937994 2.20628 1.03893e-18)
(0.862016 2.3868 2.42715e-19)
(0.853311 2.504 0)
(0.921 2.50174 0)
(0.947944 2.38856 0)
(0.925041 2.37574 -9.42874e-19)
(0.694072 2.47506 -3.93943e-19)
(0.802936 2.45897 -1.01012e-19)
(0.810817 2.43729 7.63336e-20)
(0.703873 2.40438 0)
(0.807919 2.39859 0)
(0.769893 2.41362 -3.70567e-19)
(0.768565 2.48269 0)
(0.601922 1.07116 0)
(0.516736 0.895898 -5.55399e-19)
(0.520213 0.960593 -3.23167e-20)
(0.501663 1.09625 0)
(0.48891 1.00982 8.51329e-19)
(0.765708 0.875756 -1.44012e-19)
(0.777189 1.01362 0)
(0.754751 0.9922 2.0423e-19)
(0.64182 1.02147 0)
(0.636499 0.936933 0)
(1.16435 2.76917 -2.29596e-19)
(1.1396 2.82814 -9.57285e-20)
(0.927119 2.35832 8.38177e-20)
(0.903101 2.33663 -7.87328e-20)
(1.13321 2.74669 0)
(1.08495 2.71539 9.46586e-20)
(1.10047 2.50614 -3.07211e-19)
(0.99964 2.25827 -2.84182e-20)
(0.499815 1.35658 0)
(0.516747 1.09313 -1.06106e-19)
(0.577665 1.17636 0)
(0.85946 0.212253 0)
(0.78843 0.162687 0)
(0.73126 0.13607 0)
(0.860422 0.211369 -6.29473e-19)
(0.775095 0.206152 3.78264e-19)
(0.926769 0.0785389 -4.09896e-19)
(0.944137 0.127929 0)
(0.919289 0.137421 1.76227e-19)
(0.860304 0.099967 7.07048e-19)
(0.824666 0.0686195 -4.42428e-19)
(1.10309 3.36391 -6.78309e-19)
(1.16786 3.28652 0)
(1.12301 3.44907 -1.57685e-18)
(0.662297 3.59444 1.31357e-18)
(1.0339 3.09 1.19414e-19)
(0.522733 0.831596 5.74036e-19)
(0.510198 0.800952 0)
(0.381945 0.485723 -1.51426e-19)
(0.468777 0.674526 8.72966e-19)
(0.52353 0.462281 -2.09319e-19)
(0.513016 0.508192 2.38506e-19)
(0.689297 0.54762 4.97783e-19)
(0.71621 0.574985 0)
(0.646406 0.610905 0)
(0.617778 0.562248 0)
(0.991067 0.610361 1.05914e-19)
(0.938401 0.573426 -5.18087e-19)
(0.958337 0.600741 3.86646e-19)
(1.01936 0.525812 -3.90175e-19)
(1.05971 0.49778 0)
(1.06299 0.591829 -1.01047e-19)
(0.85256 0.391983 -8.42431e-19)
(0.848404 0.384989 -1.07121e-18)
(0.805327 0.38322 6.62344e-19)
(0.803855 0.342905 -6.81841e-19)
(0.844108 0.298777 -5.31701e-19)
(0.803277 0.299498 6.53429e-19)
(1.0265 0.00619382 -4.83853e-19)
(1.02616 0.00630069 9.75456e-19)
(1.02983 0.000455013 6.23019e-19)
(1.03376 0.00107594 -7.48184e-19)
(1.03362 0.010632 0)
(1.02981 0.0108897 -1.21721e-18)
(0.0866295 1.66589 1.60491e-20)
(0.0484837 1.59128 0)
(0.0991204 1.71573 1.03958e-19)
(0.1142 1.68783 -9.54052e-20)
(0.0323414 1.52765 3.01439e-20)
(0.0275948 1.51321 0)
(0.00514355 1.68994 0)
(-0.00625909 1.49725 2.22279e-21)
(-0.00408583 1.43303 -2.00037e-21)
(-0.0113206 1.54694 2.24481e-21)
(-0.00424785 1.8939 4.90453e-23)
(-0.0219151 1.94284 2.70084e-21)
(0.489559 1.37824 -2.84065e-19)
(0.492763 1.37472 3.09762e-19)
(0.436062 1.29737 -3.05943e-20)
(0.421544 1.29973 9.31439e-21)
(0.610656 1.30275 0)
(0.543775 1.39412 9.51349e-20)
(0.544187 1.39692 -9.25743e-20)
(0.468427 1.27643 2.92312e-20)
(0.507848 1.23936 0)
(0.574582 1.20802 0)
(0.668265 2.43717 5.80562e-19)
(0.662463 2.45977 1.32655e-18)
(0.719314 2.4765 -9.1136e-19)
(0.622592 2.44857 -2.0622e-19)
(0.55342 2.54629 2.85253e-19)
(0.494126 2.50708 -7.41126e-19)
(0.988502 2.3938 -5.85425e-19)
(1.02297 2.41295 0)
(0.944282 2.19087 -6.47054e-19)
(1.05511 2.69598 0)
(1.05429 2.67834 0)
(0.618001 2.31562 2.7436e-20)
(1.12396 3.08315 9.0015e-20)
(1.00706 2.98532 -1.46921e-19)
(0.336902 0.869641 0)
(0.356486 0.778022 -3.05627e-19)
(0.5452 0.70418 -3.10726e-19)
(0.385296 2.16302 0)
(0.412153 2.75184 -8.39956e-20)
(0.423694 2.49179 0)
(0.69689 0.701002 -8.25235e-19)
(0.759497 0.694107 1.15972e-18)
(0.766949 0.657059 -1.15901e-18)
(0.684214 0.660878 -1.05665e-19)
(0.739375 0.615815 -4.40757e-19)
(0.979647 2.77053 -6.81852e-20)
(1.01662 2.7728 -2.12398e-19)
(0.571967 2.24412 4.04942e-19)
(0.618274 1.75977 -3.26519e-19)
(0.7152 1.87819 -4.97796e-19)
(0.983266 2.41178 -1.37911e-19)
(0.981321 2.36824 3.67959e-19)
(0.663245 1.80092 3.32784e-20)
(0.469406 1.3258 1.77112e-19)
)
;

boundaryField
{
    wall-4
    {
        type            noSlip;
    }
    velocity-inlet-5
    {
        type            fixedValue;
        value           uniform (1 0 0);
    }
    velocity-inlet-6
    {
        type            fixedValue;
        value           uniform (0 3 0);
    }
    pressure-outlet-7
    {
        type            zeroGradient;
    }
    wall-8
    {
        type            noSlip;
    }
    frontAndBackPlanes
    {
        type            empty;
    }
}


// ************************************************************************* //
