/*--------------------------------*- C++ -*----------------------------------*\
  =========                 |
  \\      /  F ield         | OpenFOAM: The Open Source CFD Toolbox
   \\    /   O peration     | Website:  https://openfoam.org
    \\  /    A nd           | Version:  6
     \\/     M anipulation  |
\*---------------------------------------------------------------------------*/
FoamFile
{
    version     2.0;
    format      ascii;
    class       volScalarField;
    location    "2";
    object      Ma;
}
// * * * * * * * * * * * * * * * * * * * * * * * * * * * * * * * * * * * * * //

dimensions      [0 0 0 0 0 0 0];

internalField   nonuniform List<scalar> 
5250
(
2.99989
2.99971
2.99915
2.99823
2.99521
2.99035
2.97447
2.94644
2.86858
2.69571
2.32596
1.56031
0.496074
0.0194155
0.146713
0.308233
0.350095
0.317082
0.256436
0.201025
0.163347
0.128529
0.0929679
0.0624527
0.0471396
2.99989
2.99971
2.99915
2.99824
2.99523
2.99039
2.97458
2.94668
2.86908
2.69694
2.32835
1.56426
0.5025
0.028605
0.156381
0.31467
0.353821
0.320237
0.260773
0.207808
0.172013
0.139161
0.107174
0.082059
0.0706825
2.99989
2.99971
2.99916
2.99825
2.99527
2.99048
2.97479
2.94719
2.87015
2.69964
2.33375
1.57345
0.517991
0.0465731
0.173848
0.324422
0.36017
0.326786
0.270278
0.222279
0.190586
0.162005
0.136068
0.117672
0.109648
2.9999
2.99972
2.99917
2.99828
2.99534
2.99062
2.97513
2.94801
2.87186
2.70398
2.34255
1.58853
0.543468
0.0726749
0.196962
0.336166
0.369469
0.337781
0.286024
0.244196
0.217551
0.194105
0.174353
0.161577
0.156286
2.9999
2.99972
2.99919
2.99832
2.99543
2.99082
2.97561
2.94918
2.87428
2.71005
2.35513
1.6097
0.578508
0.106761
0.224549
0.349971
0.3814
0.352694
0.306861
0.271366
0.249843
0.231674
0.217319
0.209036
0.20611
2.9999
2.99973
2.99921
2.99836
2.99556
2.99108
2.97624
2.95067
2.87746
2.71807
2.3716
1.63816
0.624194
0.149304
0.256366
0.365607
0.395971
0.371402
0.332397
0.303362
0.28733
0.274093
0.265118
0.260965
0.260248
2.99991
2.99974
2.99924
2.99842
2.99571
2.99141
2.97703
2.95251
2.88149
2.72777
2.39232
1.67331
0.67885
0.200204
0.291767
0.382958
0.413135
0.393782
0.362281
0.33963
0.32929
0.322109
0.319002
0.320385
0.323252
2.99991
2.99975
2.99927
2.99849
2.9959
2.99178
2.978
2.95463
2.88637
2.73965
2.41661
1.71757
0.741364
0.259534
0.328613
0.400467
0.432098
0.419162
0.396074
0.380309
0.376321
0.375682
0.380675
0.390742
0.402266
2.99991
2.99977
2.99931
2.99857
2.99612
2.99224
2.97917
2.95717
2.89228
2.75367
2.44604
1.77049
0.815545
0.32787
0.363032
0.418717
0.451834
0.446555
0.43196
0.424049
0.427979
0.43598
0.452703
0.479112
0.514206
2.99992
2.99978
2.99936
2.99867
2.99639
2.99279
2.98058
2.96023
2.89942
2.77061
2.48217
1.83752
0.908848
0.404048
0.392391
0.441126
0.474164
0.476387
0.469948
0.470545
0.482764
0.503653
0.539586
0.596772
0.702195
2.99993
2.9998
2.99942
2.99879
2.9967
2.99343
2.98225
2.96385
2.90786
2.79127
2.52576
1.92083
1.0255
0.489002
0.42147
0.461348
0.496987
0.507253
0.509343
0.518468
0.540478
0.578316
0.638311
0.738465
0.898947
2.99994
2.99983
2.99948
2.99893
2.99707
2.99417
2.98421
2.96804
2.91784
2.81535
2.5786
2.02096
1.17016
0.583182
0.448141
0.48002
0.519157
0.539065
0.54945
0.567245
0.600458
0.652638
0.728718
0.846448
1.01206
2.99995
2.99985
2.99955
2.99907
2.99747
2.99497
2.98636
2.97256
2.92897
2.84199
2.63696
2.14497
1.34231
0.686058
0.479352
0.506222
0.5482
0.575874
0.591865
0.615272
0.655456
0.713417
0.793627
0.903679
1.03986
2.99996
2.99987
2.99962
2.99922
2.99787
2.99576
2.98854
2.97705
2.93998
2.87126
2.69433
2.30055
1.57162
0.799036
0.531236
0.553467
0.590934
0.619918
0.637499
0.663577
0.704388
0.76237
0.838539
0.933455
1.04625
2.99996
2.9999
2.99969
2.99935
2.99822
2.99647
2.99043
2.98093
2.9497
2.89387
2.74198
2.42147
1.75744
0.896476
0.575187
0.600179
0.636574
0.667578
0.684463
0.707455
0.74717
0.800607
0.871099
0.953676
1.04692
2.99997
2.99992
2.99974
2.99946
2.99853
2.99708
2.99207
2.98425
2.9583
2.91146
2.78761
2.49899
1.94273
1.01619
0.644707
0.637961
0.673826
0.706037
0.726676
0.748623
0.784001
0.832489
0.895254
0.969415
1.05034
2.99998
2.99993
2.99979
2.99956
2.9988
2.99763
2.99354
2.98721
2.966
2.9281
2.82544
2.57965
2.11518
1.21006
0.758843
0.670161
0.696208
0.727347
0.757006
0.782037
0.815248
0.859342
0.914331
0.979808
1.05172
2.99998
2.99995
2.99984
2.99966
2.99905
2.99812
2.99487
2.98991
2.97289
2.94382
2.86081
2.66913
2.28904
1.46852
0.906444
0.717167
0.723158
0.749263
0.782664
0.811308
0.843962
0.885016
0.932848
0.99005
1.05339
2.99999
2.99996
2.99988
2.99974
2.99927
2.99856
2.99607
2.99234
2.9792
2.95815
2.89376
2.75999
2.46213
1.84403
1.0885
0.798621
0.773762
0.787379
0.813804
0.842464
0.872275
0.909614
0.952815
1.00205
1.05735
2.99999
2.99997
2.99991
2.9998
2.99945
2.99891
2.997
2.9942
2.98402
2.96858
2.91763
2.81872
2.58485
2.04384
1.27432
0.87596
0.813545
0.825762
0.848649
0.877147
0.903691
0.935983
0.974306
1.01773
1.06517
3
2.99998
2.99993
2.99985
2.99959
2.99918
2.99776
2.99567
2.98806
2.97658
2.93834
2.86507
2.68524
2.25598
1.54401
1.00481
0.859205
0.860024
0.878939
0.906585
0.933102
0.961146
0.994682
1.03314
1.07554
3
2.99999
2.99995
2.99989
2.9997
2.99941
2.99837
2.99686
2.99133
2.98317
2.95472
2.90676
2.76933
2.49319
1.88643
1.18944
0.931242
0.901502
0.912895
0.936028
0.963352
0.987644
1.01573
1.0489
1.08591
3
2.99999
2.99997
2.99993
2.99979
2.99958
2.99885
2.99778
2.99387
2.9882
2.96796
2.93467
2.83722
2.62555
2.18872
1.4118
1.02712
0.939486
0.942727
0.961309
0.988781
1.015
1.04002
1.06804
1.10024
3
3
2.99998
2.99995
2.99986
2.99971
2.99921
2.99848
2.99578
2.99196
2.97799
2.95621
2.88743
2.74199
2.43959
1.76407
1.20875
1.0056
0.981825
0.991482
1.01287
1.03878
1.06289
1.08798
1.1162
3.00001
3
2.99999
2.99997
2.99991
2.99981
2.99947
2.99898
2.99719
2.99464
2.98532
2.97105
2.92463
2.83001
2.61342
2.1078
1.42133
1.09165
1.02853
1.02758
1.04143
1.06383
1.08695
1.10996
1.13466
3.00001
3
3
2.99998
2.99995
2.99986
2.99971
2.99921
2.99847
2.99579
2.9919
2.97825
2.9554
2.88625
2.73569
2.42135
1.75336
1.25582
1.08272
1.06304
1.07083
1.0887
1.11153
1.13363
1.15582
3.00001
3
3
2.99999
2.99997
2.99991
2.99981
2.99947
2.99899
2.99718
2.99473
2.98519
2.9717
2.92459
2.83662
2.62325
2.1392
1.4913
1.17588
1.10838
1.10438
1.11363
1.13295
1.15613
1.17689
3.00001
3.00001
3
3
2.99998
2.99994
2.99988
2.99967
2.99936
2.99822
2.99669
2.99066
2.98248
2.95246
2.90128
2.76083
2.45041
1.87383
1.3393
1.15967
1.13696
1.14012
1.15576
1.17738
1.19807
3.00001
3.00001
3
3
2.99999
2.99997
2.99993
2.99979
2.9996
2.99889
2.99792
2.9941
2.98907
2.96928
2.94004
2.84355
2.66991
2.22303
1.61731
1.26713
1.17771
1.16861
1.176
1.19321
1.21513
3.00001
3.00001
3.00001
3
3
2.99999
2.99995
2.9999
2.99973
2.99947
2.99854
2.99724
2.99229
2.98539
2.96014
2.91833
2.7961
2.55626
2.01049
1.47626
1.24866
1.2086
1.20549
1.21434
1.23087
3.00001
3.00001
3.00001
3
3
2.99999
2.99998
2.99994
2.99988
2.99967
2.99937
2.99838
2.99672
2.99174
2.98112
2.95293
2.88528
2.73014
2.35208
1.77622
1.36096
1.24436
1.23088
1.23506
1.24853
3.00001
3.00001
3.00001
3.00001
3
3
2.99999
2.99996
2.99993
2.99978
2.9996
2.99882
2.99789
2.99371
2.98882
2.96728
2.93764
2.83512
2.65344
2.18983
1.62429
1.34368
1.27146
1.26091
1.26594
3.00001
3.00001
3.00001
3.00001
3.00001
3
3
2.99998
2.99996
2.99988
2.99978
2.99937
2.99886
2.99665
2.99407
2.98273
2.96791
2.91269
2.81795
2.56903
2.12006
1.57287
1.34882
1.30451
1.29681
3.00001
3.00001
3.00001
3.00001
3.00001
3.00001
3
3
2.99998
2.99995
2.9999
2.99972
2.99947
2.99861
2.9973
2.99308
2.98443
2.95945
2.90146
2.75766
2.42779
1.90863
1.47818
1.34
1.32043
3.00001
3.00001
3.00001
3.00001
3.00001
3.00001
3
3
2.99999
2.99997
2.99994
2.99982
2.99968
2.99903
2.99832
2.99489
2.99109
2.97328
2.95021
2.86289
2.71595
2.33145
1.81016
1.4677
1.36375
3.00001
3.00001
3.00001
3.00001
3.00001
3.00001
3.00001
3
3
2.99999
2.99997
2.99993
2.99979
2.99962
2.9989
2.99803
2.99427
2.98951
2.96987
2.94103
2.84184
2.67498
2.22726
1.75246
1.47277
3.00001
3.00001
3.00001
3.00001
3.00001
3.00001
3.00001
3.00001
3
3
2.99999
2.99996
2.99992
2.99977
2.99958
2.99878
2.99782
2.9937
2.98843
2.96712
2.93433
2.82822
2.63896
2.18887
1.72117
3.00001
3.00001
3.00001
3.00001
3.00001
3.00001
3.00001
3.00001
3.00001
3
3
2.99998
2.99997
2.99989
2.9998
2.99941
2.99898
2.99694
2.99477
2.9843
2.97177
2.91928
2.83927
2.60651
2.21424
3.00001
3.00001
3.00001
3.00001
3.00001
3.00001
3.00001
3.00001
3.00001
3.00001
3
3
2.99999
2.99997
2.99993
2.99984
2.99965
2.99911
2.99845
2.99438
2.99191
2.97005
2.92916
2.82615
2.60561
3.00001
3.00001
3.00001
3.00001
3.00001
3.00001
3.00001
3.00001
3.00001
3.00001
3.00001
3
3
2.99999
2.99998
2.99994
2.99986
2.99969
2.99917
2.99841
2.9942
2.99256
2.9703
2.92916
2.82098
3.00001
3.00001
3.00001
3.00001
3.00001
3.00001
3.00001
3.00001
3.00001
3.00001
3.00001
3.00001
3.00001
3
3
2.99998
2.99996
2.99987
2.99972
2.99915
2.99851
2.99403
2.99281
2.96757
2.91985
3.00001
3.00001
3.00001
3.00001
3.00001
3.00001
3.00001
3.00001
3.00001
3.00001
3.00001
3.00001
3.00001
3.00001
3
3
2.99999
2.99997
2.99988
2.99974
2.99914
2.99847
2.99404
2.99206
2.96688
3.00001
3.00001
3.00001
3.00001
3.00001
3.00001
3.00001
3.00001
3.00001
3.00001
3.00001
3.00001
3.00001
3.00001
3.00001
3
3
2.99999
2.99996
2.99985
2.99972
2.99901
2.99871
2.99505
2.98681
3.00001
3.00001
3.00001
3.00001
3.00001
3.00001
3.00001
3.00001
3.00001
3.00001
3.00001
3.00001
3.00001
3.00001
3.00001
3.00001
3
3
2.99999
2.99996
2.99984
2.99974
2.99899
2.99884
2.99486
3.00001
3.00001
3.00001
3.00001
3.00001
3.00001
3.00001
3.00001
3.00001
3.00001
3.00001
3.00001
3.00001
3.00001
3.00001
3.00001
3.00001
3
3
2.99997
2.99995
2.99982
2.9997
2.99899
2.99809
3.00001
3.00001
3.00001
3.00001
3.00001
3.00001
3.00001
3.00001
3.00001
3.00001
3.00001
3.00001
3.00001
3.00001
3.00001
3.00001
3.00001
3
3
2.99999
2.99998
2.99993
2.99989
2.9996
2.99926
3.00001
3.00001
3.00001
3.00001
3.00001
3.00001
3.00001
3.00001
3.00001
3.00001
3.00001
3.00001
3.00001
3.00001
3.00001
3.00001
3.00001
3.00001
3.00001
3
3
2.99999
2.99995
2.99992
2.99966
3.00001
3.00001
3.00001
3.00001
3.00001
3.00001
3.00001
3.00001
3.00001
3.00001
3.00001
3.00001
3.00001
3.00001
3.00001
3.00001
3.00001
3.00001
3.00001
3.00001
3
3
2.99999
2.99994
2.99988
3.00001
3.00001
3.00001
3.00001
3.00001
3.00001
3.00001
3.00001
3.00001
3.00001
3.00001
3.00001
3.00001
3.00001
3.00001
3.00001
3.00001
3.00001
3.00001
3.00001
3.00001
3
3
2.99998
2.99997
3.00001
3.00001
3.00001
3.00001
3.00001
3.00001
3.00001
3.00001
3.00001
3.00001
3.00001
3.00001
3.00001
3.00001
3.00001
3.00001
3.00001
3.00001
3.00001
3.00001
3.00001
3.00001
3
3
2.99998
1.12218
1.34387
1.49553
1.58806
1.61466
1.58445
1.51605
1.43967
1.32177
1.20656
1.12362
1.08539
1.07576
1.07526
1.07487
1.07327
1.07064
1.06699
1.06255
1.05956
1.05869
1.05988
1.06259
1.06596
1.06979
1.07387
1.07798
1.08192
1.08565
1.08918
1.09239
1.09488
1.09659
1.09803
1.09919
1.0999
1.10016
1.10015
1.1001
1.10011
1.10022
1.10036
1.10052
1.09997
1.0991
1.09752
1.09305
1.08118
1.05248
0.987448
0.847307
0.556389
0.11317
0.148679
0.0989057
0.0874373
0.197632
0.277353
0.343398
0.397806
0.445572
0.487671
0.526427
0.561925
0.595249
0.626284
0.656086
0.684361
0.711984
0.738461
0.764568
0.789693
0.814682
0.838836
0.862991
0.886393
0.909836
0.932628
0.955502
0.977862
1.00033
1.02231
1.04444
1.06592
1.08779
1.10868
1.13042
1.15082
1.17232
1.19205
1.21313
1.23215
1.25263
1.27097
1.29081
1.30832
1.32726
1.34306
1.35858
1.36682
1.17757
1.3237
1.42454
1.48362
1.50405
1.50026
1.49435
1.50488
1.52796
1.5456
1.54811
1.53597
1.515
1.4898
1.46899
1.45609
1.45043
1.44868
1.44803
1.44786
1.44766
1.44751
1.44788
1.44823
1.44938
1.45116
1.45322
1.45552
1.45802
1.46077
1.46362
1.46624
1.46871
1.47122
1.47383
1.47639
1.47881
1.48119
1.48354
1.48556
1.48779
1.48924
1.49082
1.4905
1.48975
1.48761
1.48286
1.47172
1.44606
1.38985
1.27133
1.04886
0.720348
0.508169
0.560559
0.620576
0.673595
0.719203
0.759609
0.794057
0.824836
0.853371
0.88023
0.905983
0.930815
0.954933
0.978455
1.00157
1.02444
1.0469
1.06917
1.09086
1.1123
1.13313
1.15368
1.17365
1.19335
1.2125
1.23144
1.2499
1.26829
1.28644
1.30479
1.32267
1.34128
1.35878
1.37762
1.39475
1.41349
1.43045
1.44918
1.46586
1.48452
1.50088
1.51938
1.53522
1.55316
1.56757
1.58263
1.58982
1.16667
1.27767
1.37039
1.44791
1.51668
1.58315
1.64793
1.70327
1.74792
1.77615
1.78391
1.77961
1.76718
1.74512
1.71822
1.69662
1.68076
1.67051
1.66449
1.66063
1.65774
1.65575
1.65427
1.65324
1.65279
1.65295
1.65315
1.65366
1.65483
1.65613
1.65783
1.65984
1.66188
1.66401
1.66635
1.66903
1.67183
1.67475
1.67769
1.68042
1.68325
1.68562
1.68755
1.68794
1.68776
1.68604
1.68082
1.6676
1.63714
1.57503
1.45178
1.28549
1.10714
0.946938
0.891934
0.901363
0.921951
0.94359
0.965547
0.987221
1.00844
1.02826
1.0474
1.06654
1.08545
1.10419
1.12321
1.14248
1.16231
1.18215
1.2025
1.22238
1.24262
1.26195
1.28164
1.30011
1.31905
1.33672
1.35511
1.37231
1.39025
1.40676
1.42417
1.44015
1.45725
1.473
1.49002
1.50565
1.52274
1.53831
1.55557
1.57108
1.58841
1.60428
1.62133
1.63732
1.65437
1.66921
1.68426
1.69244
1.15583
1.25652
1.34772
1.43194
1.51106
1.58372
1.64989
1.70819
1.75642
1.79236
1.81801
1.83424
1.84078
1.8414
1.83776
1.82827
1.81511
1.80187
1.7899
1.77954
1.77214
1.76733
1.76505
1.76397
1.76373
1.76401
1.76438
1.76484
1.7654
1.76638
1.76765
1.76912
1.77071
1.77241
1.77441
1.7768
1.77944
1.78219
1.78499
1.78782
1.7904
1.79273
1.79369
1.79431
1.7927
1.7899
1.78038
1.75682
1.7074
1.60267
1.46052
1.35387
1.29082
1.21019
1.12836
1.06943
1.04863
1.05236
1.06386
1.07883
1.09732
1.1157
1.13437
1.15244
1.1698
1.18675
1.2039
1.22106
1.23909
1.25714
1.2762
1.29471
1.31426
1.33256
1.35185
1.36966
1.38846
1.40566
1.42368
1.44002
1.4574
1.47319
1.49015
1.50557
1.5223
1.5375
1.55414
1.56923
1.58584
1.60084
1.61743
1.63241
1.64868
1.66433
1.67998
1.69595
1.7116
1.72694
1.7411
1.7502
1.14435
1.23657
1.32307
1.40383
1.4796
1.551
1.61632
1.67663
1.72994
1.77851
1.81943
1.8551
1.88114
1.90098
1.90955
1.91106
1.9078
1.90098
1.89046
1.8796
1.86935
1.86031
1.85288
1.84761
1.84382
1.84154
1.84023
1.83976
1.8399
1.84042
1.84171
1.843
1.84444
1.84594
1.84766
1.84948
1.85154
1.8537
1.85606
1.85835
1.86047
1.86148
1.86202
1.86063
1.85834
1.85025
1.82856
1.78449
1.68509
1.54344
1.4312
1.38943
1.37763
1.35798
1.31912
1.26634
1.2076
1.16171
1.14104
1.13915
1.14772
1.16076
1.17868
1.19705
1.21597
1.23338
1.25017
1.26619
1.28294
1.29919
1.31684
1.33392
1.35247
1.37005
1.38902
1.4067
1.42542
1.44265
1.4609
1.47759
1.4954
1.51164
1.5291
1.54495
1.56211
1.57761
1.59447
1.6096
1.62611
1.64091
1.65696
1.67188
1.68696
1.70253
1.71672
1.73225
1.74641
1.76121
1.77468
1.7832
1.13487
1.21893
1.29869
1.37423
1.4454
1.51284
1.57603
1.63543
1.69029
1.74122
1.78681
1.82879
1.86369
1.89506
1.9174
1.93577
1.9447
1.95017
1.94881
1.94605
1.94092
1.9338
1.9255
1.91779
1.90992
1.90408
1.90005
1.89796
1.89731
1.89771
1.89865
1.90033
1.90193
1.90366
1.90526
1.90677
1.90835
1.91001
1.91173
1.91313
1.91413
1.91387
1.9129
1.91028
1.90276
1.88184
1.8405
1.74459
1.60188
1.47623
1.43299
1.42546
1.4326
1.43499
1.42912
1.41098
1.37807
1.32821
1.26837
1.22043
1.19977
1.1979
1.20663
1.2202
1.23945
1.25869
1.27822
1.29542
1.31216
1.32775
1.34408
1.35974
1.37682
1.39356
1.4117
1.42919
1.44781
1.46553
1.48422
1.50175
1.52012
1.53726
1.55532
1.5721
1.5898
1.60604
1.6232
1.63885
1.65539
1.6705
1.68605
1.70099
1.71516
1.73028
1.74373
1.75834
1.77158
1.78518
1.79818
1.80522
1.12785
1.20368
1.27717
1.34727
1.41373
1.47714
1.53721
1.59444
1.64839
1.6991
1.74659
1.79005
1.8306
1.86609
1.89912
1.92614
1.94938
1.96633
1.97799
1.98497
1.98544
1.98445
1.98125
1.97634
1.96987
1.96384
1.9569
1.95178
1.94789
1.94572
1.94492
1.94509
1.94596
1.94733
1.94864
1.95025
1.95173
1.9533
1.95472
1.9552
1.9553
1.95374
1.95156
1.94368
1.92507
1.88293
1.7925
1.64119
1.50445
1.45269
1.44391
1.45382
1.46681
1.47878
1.48901
1.4913
1.48545
1.46532
1.42757
1.37353
1.31213
1.2655
1.24822
1.24913
1.25776
1.27317
1.29441
1.31423
1.3339
1.351
1.36742
1.3829
1.39888
1.41464
1.43156
1.44861
1.46688
1.48482
1.50352
1.52162
1.54035
1.55826
1.57667
1.59416
1.61221
1.62923
1.64673
1.66307
1.67979
1.69551
1.71107
1.72626
1.74026
1.75478
1.76791
1.78153
1.79423
1.80635
1.81823
1.82397
1.12085
1.18974
1.2574
1.32264
1.38479
1.44436
1.50098
1.55543
1.60704
1.65648
1.70309
1.74724
1.78861
1.82703
1.86282
1.89491
1.92464
1.94936
1.97183
1.9872
2.00076
2.00692
2.01195
2.011
2.01006
2.00699
2.00247
1.99757
1.99167
1.98694
1.98264
1.97998
1.9789
1.97861
1.97915
1.98005
1.98131
1.98276
1.98375
1.98388
1.98263
1.98069
1.9723
1.95503
1.91244
1.82586
1.66762
1.52657
1.47024
1.45895
1.4678
1.47906
1.49323
1.51011
1.52809
1.54108
1.5459
1.54564
1.53623
1.51165
1.47065
1.4143
1.35247
1.30862
1.29371
1.29734
1.3065
1.32355
1.34633
1.36644
1.3861
1.4034
1.42009
1.43612
1.45285
1.46967
1.48739
1.50519
1.52379
1.54195
1.56052
1.57857
1.59709
1.61489
1.63299
1.65026
1.66793
1.68477
1.70173
1.71791
1.7336
1.74912
1.76337
1.77784
1.7911
1.80432
1.81695
1.82837
1.8391
1.84389
1.11726
1.17906
1.24093
1.30165
1.35992
1.41605
1.46941
1.52102
1.57009
1.61761
1.66266
1.70607
1.74708
1.78615
1.82292
1.85733
1.88951
1.91887
1.94564
1.96928
1.98928
2.00563
2.01802
2.02624
2.03237
2.0327
2.03321
2.03247
2.02933
2.02525
2.02003
2.01552
2.01106
2.00784
2.00634
2.00508
2.00527
2.00551
2.00568
2.00487
2.00243
1.99576
1.9771
1.93789
1.84683
1.6925
1.54029
1.47731
1.46564
1.47347
1.48412
1.49745
1.51572
1.53613
1.55624
1.57291
1.58605
1.59508
1.59807
1.59626
1.58418
1.55687
1.51269
1.45169
1.38927
1.34759
1.334
1.34153
1.35317
1.37317
1.39696
1.41842
1.43923
1.45783
1.4761
1.49344
1.51119
1.52845
1.54624
1.56354
1.58143
1.59869
1.61656
1.63394
1.65207
1.66945
1.68727
1.70425
1.72154
1.73817
1.75427
1.7702
1.78459
1.79918
1.81263
1.82565
1.83854
1.85002
1.86046
1.86484
1.11758
1.17263
1.22865
1.28436
1.33851
1.39118
1.44148
1.49002
1.53649
1.58145
1.62474
1.66649
1.70675
1.74524
1.78224
1.81724
1.85063
1.88177
1.9112
1.93811
1.9631
1.98526
2.00487
2.02134
2.03401
2.04452
2.05018
2.05454
2.05468
2.05416
2.05188
2.04822
2.04326
2.03776
2.03303
2.02922
2.0268
2.0253
2.02395
2.02064
2.01339
1.99465
1.95585
1.86549
1.71123
1.55064
1.48322
1.46949
1.47608
1.48583
1.49942
1.51758
1.53841
1.5585
1.57859
1.5973
1.61492
1.62897
1.6402
1.64651
1.64799
1.64331
1.62634
1.59391
1.545
1.48266
1.42058
1.38376
1.37528
1.38614
1.40263
1.42629
1.4518
1.47479
1.49673
1.51605
1.53486
1.552
1.56927
1.58551
1.60237
1.61856
1.63582
1.6524
1.67002
1.687
1.70506
1.72215
1.73977
1.75633
1.77296
1.7891
1.80446
1.81952
1.83384
1.84708
1.86071
1.87245
1.88339
1.88778
1.1216
1.17093
1.22139
1.27226
1.32255
1.37169
1.41933
1.46506
1.50918
1.55146
1.59265
1.63221
1.67095
1.70811
1.74431
1.77894
1.81232
1.84423
1.87455
1.90355
1.93071
1.95653
1.98025
2.00216
2.02147
2.03788
2.05105
2.06118
2.06762
2.07144
2.07145
2.07071
2.06905
2.06587
2.06098
2.05579
2.05083
2.04582
2.04096
2.03182
2.01279
1.97168
1.88479
1.7253
1.55725
1.48414
1.46903
1.47473
1.48429
1.49778
1.51663
1.53676
1.55761
1.5778
1.59861
1.61751
1.63583
1.65187
1.66645
1.67848
1.68619
1.68996
1.68853
1.68131
1.66094
1.62702
1.57819
1.51766
1.45926
1.42639
1.42824
1.44066
1.46016
1.48617
1.51197
1.53468
1.55594
1.57428
1.59219
1.60804
1.62423
1.63923
1.65529
1.67065
1.68761
1.70367
1.72111
1.73762
1.75547
1.77203
1.78926
1.80517
1.82151
1.83674
1.85234
1.86617
1.88073
1.89281
1.90469
1.90938
1.12685
1.17042
1.2166
1.26345
1.31015
1.35607
1.4007
1.44409
1.48595
1.52625
1.56518
1.60281
1.63942
1.67499
1.70968
1.74341
1.7762
1.80805
1.83883
1.86867
1.89725
1.92483
1.9509
1.97562
1.99845
2.01923
2.03761
2.05281
2.06533
2.07421
2.08089
2.08358
2.0848
2.08396
2.08228
2.07886
2.07341
2.06575
2.05422
2.03333
1.99127
1.90476
1.74569
1.57053
1.48877
1.47071
1.47513
1.48459
1.4977
1.51508
1.53525
1.55542
1.57635
1.59669
1.61686
1.63515
1.653
1.66864
1.68482
1.69821
1.71141
1.72099
1.7276
1.73013
1.72792
1.72159
1.70332
1.67197
1.62605
1.56757
1.51094
1.4802
1.48884
1.50168
1.52146
1.54745
1.57197
1.59318
1.61279
1.62975
1.6467
1.66166
1.6773
1.69172
1.70749
1.7225
1.73935
1.75508
1.77223
1.78813
1.80548
1.8214
1.83827
1.85346
1.86958
1.88371
1.89889
1.91127
1.9239
1.92879
1.13554
1.17449
1.21521
1.25803
1.30132
1.34397
1.38606
1.42653
1.46628
1.50432
1.54141
1.57701
1.61166
1.64548
1.67834
1.71098
1.74254
1.7741
1.80451
1.83476
1.86383
1.89235
1.91953
1.94572
1.97023
1.9934
2.01443
2.03385
2.05056
2.06524
2.07666
2.0862
2.09193
2.09582
2.09515
2.09331
2.08902
2.07902
2.05853
2.0164
1.93416
1.77539
1.59844
1.49941
1.47684
1.47824
1.48724
1.4998
1.5166
1.53433
1.55438
1.57362
1.59408
1.61299
1.63242
1.6498
1.66763
1.68382
1.70072
1.71551
1.7312
1.7438
1.75708
1.76687
1.77547
1.7795
1.78044
1.77548
1.75908
1.72821
1.68256
1.62311
1.56382
1.53534
1.54688
1.56088
1.58012
1.60519
1.62854
1.64827
1.66693
1.68327
1.69994
1.71466
1.73034
1.74458
1.76029
1.77497
1.79157
1.80683
1.82357
1.83887
1.85571
1.87093
1.88734
1.90146
1.91674
1.92897
1.9419
1.94683
1.148
1.18242
1.21872
1.25656
1.29588
1.33548
1.37484
1.41318
1.45044
1.4865
1.52147
1.55533
1.58819
1.62014
1.65154
1.68232
1.71302
1.74312
1.77327
1.8027
1.83186
1.86025
1.88774
1.91454
1.93972
1.96443
1.98692
2.00908
2.02863
2.04759
2.06386
2.07823
2.09028
2.09747
2.1004
2.09795
2.09165
2.07434
2.03667
1.96107
1.80739
1.63077
1.51878
1.48963
1.48644
1.49453
1.50751
1.52213
1.53938
1.5571
1.57598
1.59416
1.61286
1.63055
1.64925
1.66704
1.68558
1.70249
1.71969
1.73528
1.75193
1.76665
1.78288
1.79684
1.81084
1.82196
1.83057
1.83458
1.8354
1.83012
1.81334
1.78186
1.73537
1.67242
1.61046
1.58782
1.59995
1.61503
1.63581
1.65921
1.68181
1.70101
1.71941
1.73575
1.75261
1.76749
1.78329
1.79751
1.81312
1.82763
1.84401
1.85904
1.87551
1.89037
1.9067
1.92096
1.93644
1.94867
1.9616
1.96639
1.16265
1.1931
1.22553
1.25942
1.29439
1.3304
1.36668
1.40269
1.43791
1.47197
1.50521
1.53725
1.56866
1.59923
1.62915
1.65872
1.68787
1.71696
1.74588
1.77449
1.80304
1.8309
1.85839
1.88528
1.91084
1.93663
1.95979
1.98407
2.0049
2.02694
2.04543
2.06397
2.07918
2.08955
2.09152
2.08737
2.07509
2.04302
1.97298
1.83119
1.65814
1.5408
1.50353
1.49947
1.509
1.52102
1.53545
1.55075
1.56804
1.58502
1.60237
1.61808
1.63477
1.65147
1.67004
1.68783
1.7062
1.72267
1.73967
1.75567
1.77263
1.78886
1.80619
1.82097
1.83689
1.84976
1.86302
1.87377
1.88248
1.88688
1.88804
1.88321
1.86664
1.83442
1.78556
1.71692
1.65354
1.64168
1.65342
1.66836
1.69045
1.71262
1.73435
1.75294
1.77115
1.78735
1.80409
1.81882
1.83468
1.84883
1.8644
1.87885
1.89532
1.91022
1.92657
1.94059
1.95619
1.96853
1.98204
1.98702
1.18003
1.20668
1.23551
1.26578
1.2974
1.3295
1.36279
1.39614
1.42937
1.46187
1.49336
1.5242
1.55389
1.58314
1.61196
1.63989
1.66861
1.69565
1.72442
1.75128
1.77951
1.80651
1.8334
1.86045
1.88555
1.91211
1.93558
1.96079
1.98298
2.006
2.02678
2.04635
2.0631
2.0721
2.07007
2.06166
2.03546
1.9736
1.84212
1.67294
1.55384
1.51406
1.51086
1.52215
1.53614
1.55104
1.56871
1.58507
1.60167
1.6161
1.63057
1.64416
1.66014
1.67618
1.69395
1.71056
1.72796
1.74379
1.76106
1.77702
1.79472
1.81106
1.82812
1.84325
1.85941
1.87307
1.88845
1.90175
1.91557
1.9274
1.93704
1.94192
1.94353
1.93897
1.9219
1.88776
1.83457
1.75788
1.69686
1.69671
1.70819
1.72279
1.74427
1.76579
1.78685
1.80447
1.82268
1.83862
1.85528
1.86979
1.88574
1.89981
1.91556
1.92968
1.94609
1.96021
1.97619
1.98828
2.00204
2.0072
1.19751
1.22037
1.2457
1.27298
1.30179
1.33195
1.36207
1.3931
1.42409
1.45509
1.48545
1.51475
1.54407
1.57124
1.59985
1.62603
1.65371
1.68013
1.7066
1.73384
1.75943
1.78701
1.81223
1.8392
1.86451
1.88993
1.91545
1.93893
1.96393
1.98583
2.00841
2.02774
2.04113
2.04358
2.03745
2.01615
1.96235
1.83906
1.67307
1.55081
1.51331
1.5138
1.52762
1.54333
1.56151
1.58007
1.59885
1.61613
1.63234
1.64606
1.66008
1.67381
1.68911
1.70386
1.72029
1.73577
1.7527
1.76859
1.78575
1.80159
1.81876
1.83416
1.85083
1.86595
1.8821
1.89647
1.91269
1.92652
1.94254
1.95642
1.97092
1.98296
1.99316
1.99806
1.9995
1.99448
1.97587
1.93798
1.87867
1.79394
1.74275
1.75011
1.76124
1.77581
1.79765
1.81792
1.83866
1.85592
1.87395
1.88973
1.90634
1.9208
1.93695
1.95104
1.96686
1.98044
1.99643
2.00883
2.02306
2.02829
1.21756
1.23751
1.25869
1.28274
1.30838
1.33574
1.3638
1.39218
1.4212
1.45027
1.47958
1.5074
1.53586
1.56254
1.58947
1.61556
1.6412
1.66713
1.69265
1.71803
1.74413
1.76896
1.79535
1.81992
1.84585
1.87064
1.89536
1.92042
1.94336
1.96749
1.9879
2.00482
2.0102
2.00444
1.98765
1.93763
1.82899
1.66096
1.53601
1.49888
1.50384
1.52057
1.54075
1.56199
1.5836
1.60313
1.62217
1.6395
1.65693
1.67289
1.68905
1.70355
1.71872
1.73359
1.7499
1.7656
1.78256
1.79804
1.81429
1.82894
1.84462
1.85904
1.8752
1.88972
1.90581
1.92021
1.9361
1.95001
1.96626
1.98015
1.99619
2.01069
2.02536
2.03814
2.04833
2.05355
2.05414
2.04759
2.02636
1.98395
1.91561
1.82731
1.79296
1.80204
1.81342
1.8285
1.85005
1.86944
1.88981
1.90667
1.92467
1.94041
1.95706
1.97147
1.98796
2.00178
2.01792
2.03
2.04472
2.05021
1.23545
1.25528
1.27562
1.29692
1.31965
1.34354
1.36903
1.3951
1.42182
1.44814
1.4759
1.50215
1.52933
1.55516
1.58095
1.60614
1.63091
1.65563
1.67992
1.70496
1.72878
1.75443
1.77796
1.80398
1.82747
1.85324
1.8767
1.90176
1.9243
1.94702
1.9642
1.97198
1.96702
1.94896
1.90782
1.79333
1.63594
1.51328
1.47573
1.48286
1.50239
1.52667
1.55408
1.57863
1.60055
1.62006
1.6397
1.65783
1.6767
1.69422
1.71216
1.72878
1.74636
1.76263
1.77999
1.79613
1.81288
1.82756
1.84288
1.85636
1.87133
1.88523
1.90079
1.91501
1.93092
1.94478
1.96019
1.97368
1.98925
2.00273
2.01949
2.03387
2.05079
2.0661
2.08136
2.09452
2.10448
2.10934
2.10923
2.10038
2.07562
2.02729
1.94553
1.86235
1.84548
1.8539
1.86541
1.88121
1.90242
1.92117
1.94071
1.95697
1.9752
1.99042
2.00737
2.02117
2.0379
2.05009
2.0654
2.07119
1.25166
1.27127
1.29059
1.31041
1.33157
1.35377
1.37724
1.4012
1.42621
1.45051
1.47545
1.50049
1.52502
1.55004
1.57391
1.59817
1.62155
1.64523
1.66848
1.69188
1.71573
1.73908
1.76377
1.78713
1.8124
1.83569
1.86069
1.88329
1.90643
1.92397
1.93295
1.92811
1.91001
1.87245
1.75838
1.60369
1.48164
1.44619
1.45484
1.47566
1.50443
1.53613
1.56512
1.58988
1.61282
1.63401
1.65513
1.67456
1.69402
1.71203
1.73106
1.74942
1.76862
1.78678
1.80561
1.82264
1.83985
1.85513
1.87094
1.88506
1.90039
1.91414
1.92939
1.94316
1.95828
1.97158
1.98657
1.99955
2.01467
2.0281
2.04424
2.05814
2.07548
2.09026
2.10736
2.12282
2.13826
2.15095
2.16063
2.16389
2.1628
2.15114
2.1219
2.06581
1.97113
1.90232
1.89748
1.90669
1.91845
1.93463
1.95571
1.97335
1.99213
2.00751
2.02581
2.0399
2.05715
2.06933
2.08473
2.09069
1.26761
1.28783
1.3068
1.32551
1.34468
1.36486
1.38609
1.40802
1.4311
1.45416
1.47751
1.50083
1.5238
1.54691
1.56966
1.59231
1.61465
1.63713
1.6592
1.68196
1.70393
1.72744
1.74961
1.77393
1.7963
1.82107
1.8429
1.86639
1.88375
1.89354
1.8883
1.87139
1.83232
1.72358
1.56553
1.44468
1.41405
1.4244
1.44629
1.47733
1.51342
1.54449
1.57208
1.59672
1.62105
1.64392
1.66665
1.68769
1.70893
1.7285
1.74859
1.76723
1.7872
1.80618
1.82608
1.84469
1.86385
1.88098
1.89842
1.91366
1.92952
1.94343
1.95862
1.97193
1.98676
1.99973
2.01416
2.02658
2.0411
2.05366
2.06892
2.08243
2.09912
2.11344
2.13114
2.14642
2.16342
2.17886
2.19377
2.20552
2.21371
2.21563
2.21316
2.19824
2.16393
2.09539
1.99771
1.9483
1.94918
1.95866
1.97235
1.98766
2.00857
2.02489
2.04329
2.05745
2.07556
2.08803
2.10381
2.10978
1.28082
1.30137
1.32095
1.33963
1.35817
1.37707
1.39692
1.41708
1.43797
1.4598
1.48142
1.50372
1.52529
1.54672
1.56807
1.58952
1.61074
1.63186
1.65328
1.67437
1.69641
1.71769
1.74056
1.76209
1.78559
1.80669
1.82923
1.84597
1.8552
1.84957
1.83296
1.7914
1.69104
1.52157
1.40408
1.38002
1.39335
1.41537
1.44833
1.48632
1.52033
1.54931
1.57635
1.60174
1.62714
1.65103
1.67508
1.69794
1.72105
1.74277
1.7644
1.78433
1.80463
1.82366
1.84421
1.86378
1.88431
1.90323
1.92226
1.93886
1.95566
1.97028
1.98572
1.9992
2.01401
2.02668
2.04101
2.05325
2.06752
2.07975
2.09474
2.10761
2.12364
2.13741
2.1546
2.16893
2.18654
2.20166
2.21827
2.23336
2.24783
2.25912
2.26552
2.26674
2.26252
2.24362
2.20299
2.11935
2.02612
1.99858
2.00045
2.00997
2.02574
2.04089
2.06008
2.0751
2.09322
2.10585
2.12194
2.12785
1.30223
1.31621
1.33523
1.35346
1.37131
1.38922
1.40768
1.42687
1.44632
1.46653
1.48689
1.50756
1.52833
1.54916
1.56903
1.58913
1.60918
1.62939
1.64949
1.67032
1.6907
1.71233
1.73307
1.75512
1.77584
1.79655
1.81311
1.82027
1.81414
1.79671
1.75258
1.65301
1.47383
1.36008
1.34316
1.36093
1.38517
1.41902
1.45837
1.4937
1.52508
1.55329
1.58043
1.60598
1.63137
1.65594
1.68119
1.70561
1.73048
1.75369
1.77679
1.79801
1.81915
1.83906
1.85971
1.87941
1.90045
1.92001
1.94015
1.95824
1.97653
1.99239
2.00889
2.02331
2.03879
2.05213
2.0669
2.07941
2.09389
2.10623
2.12106
2.13377
2.14941
2.16272
2.17913
2.19293
2.21011
2.22421
2.24158
2.25645
2.27284
2.28772
2.30155
2.31278
2.31672
2.31707
2.31039
2.28668
2.23647
2.1412
2.05936
2.04888
2.05269
2.06191
2.07727
2.09328
2.11066
2.12347
2.1398
2.14542
1.32127
1.33181
1.34721
1.36637
1.38439
1.40202
1.41948
1.43748
1.45589
1.47486
1.49415
1.51369
1.53334
1.55302
1.57287
1.59199
1.6108
1.62991
1.64877
1.66821
1.68808
1.70812
1.72861
1.74885
1.76788
1.78408
1.78938
1.78263
1.76377
1.71297
1.61307
1.42877
1.31747
1.30516
1.32734
1.3554
1.39164
1.43021
1.46623
1.49859
1.52892
1.55701
1.58408
1.60963
1.6354
1.66064
1.68673
1.71223
1.73799
1.76218
1.7861
1.80818
1.83058
1.85164
1.87321
1.89358
1.91453
1.93416
1.95476
1.97369
1.99322
2.0107
2.02864
2.04417
2.06056
2.07473
2.09027
2.10366
2.11896
2.13199
2.14734
2.16029
2.17574
2.18869
2.20435
2.21752
2.23365
2.24723
2.26413
2.27821
2.29533
2.31021
2.32621
2.34093
2.35355
2.36378
2.36651
2.36534
2.35477
2.32581
2.26173
2.16344
2.10038
2.09651
2.10384
2.11382
2.12874
2.14261
2.15848
2.16361
1.34754
1.34962
1.36095
1.37717
1.39637
1.41422
1.43146
1.44829
1.46532
1.4828
1.50081
1.51921
1.53797
1.55683
1.5758
1.59468
1.61357
1.63187
1.65066
1.66895
1.68778
1.70629
1.72515
1.74285
1.75698
1.76074
1.75243
1.73091
1.67431
1.56781
1.38349
1.27682
1.26917
1.29451
1.32649
1.36574
1.40408
1.43915
1.47204
1.50307
1.53306
1.56093
1.58792
1.61356
1.63951
1.6651
1.69164
1.71745
1.74352
1.7682
1.79281
1.81598
1.83916
1.86085
1.88292
1.90377
1.92533
1.94559
1.96651
1.98593