/*--------------------------------*- C++ -*----------------------------------*\
  =========                 |
  \\      /  F ield         | OpenFOAM: The Open Source CFD Toolbox
   \\    /   O peration     | Website:  https://openfoam.org
    \\  /    A nd           | Version:  6
     \\/     M anipulation  |
\*---------------------------------------------------------------------------*/
FoamFile
{
    version     2.0;
    format      ascii;
    class       volScalarField;
    location    "2";
    object      p;
}
// * * * * * * * * * * * * * * * * * * * * * * * * * * * * * * * * * * * * * //

dimensions      [1 -1 -2 0 0 0 0];

internalField   nonuniform List<scalar> 
5250
(
1.00004
1.00025
1.00065
1.00169
1.00366
1.00938
1.01936
1.05241
1.10302
1.30576
1.65135
2.90519
6.19783
14.0343
13.3143
11.9164
11.4187
11.4956
11.7466
12.0338
12.1841
12.2759
12.3561
12.4239
12.4593
1.00004
1.00025
1.00064
1.00169
1.00364
1.00934
1.01928
1.05218
1.10255
1.30453
1.64782
2.89842
6.16914
13.9761
13.2622
11.8792
11.4021
11.4848
11.7411
12.0234
12.1709
12.2637
12.3453
12.4137
12.4523
1.00004
1.00025
1.00064
1.00167
1.00361
1.00925
1.0191
1.05169
1.10153
1.3019
1.63974
2.88381
6.1024
13.8437
13.1535
11.8074
11.3602
11.4486
11.7087
11.981
12.1227
12.2158
12.2987
12.3677
12.4098
1.00004
1.00024
1.00063
1.00165
1.00356
1.00911
1.01882
1.05092
1.09989
1.29775
1.62642
2.86103
5.9926
13.6357
12.995
11.7193
11.295
11.3842
11.6404
11.899
12.0335
12.1246
12.2063
12.274
12.3175
1.00004
1.00024
1.00061
1.00161
1.00348
1.00892
1.01843
1.04983
1.09753
1.29202
1.60732
2.82966
5.84113
13.3515
12.7886
11.6154
11.2098
11.295
11.539
11.7836
11.9098
11.9965
12.0749
12.1388
12.1812
1.00004
1.00023
1.0006
1.00157
1.00339
1.00867
1.01792
1.04842
1.0946
1.28416
1.5845
2.78389
5.65176
12.9894
12.5296
11.4992
11.106
11.1818
11.4038
11.6307
11.7465
11.825
11.8969
11.9559
11.9989
1.00004
1.00022
1.00058
1.00151
1.00327
1.00836
1.01729
1.04668
1.09088
1.27464
1.55641
2.7272
5.42761
12.5452
12.2138
11.3722
10.9844
11.0449
11.2339
11.4382
11.5378
11.5998
11.6567
11.7033
11.7449
1.00004
1.00021
1.00055
1.00145
1.00312
1.00799
1.01653
1.04459
1.08688
1.26214
1.52887
2.64612
5.18222
12.0139
11.8425
11.2415
10.8473
10.8855
11.0285
11.2024
11.2779
11.3103
11.3355
11.3502
11.3774
1.00004
1.0002
1.00052
1.00137
1.00295
1.00755
1.01563
1.0421
1.082
1.24747
1.49577
2.55108
4.89741
11.3883
11.4623
11.1008
10.6947
10.7055
10.7932
10.9238
10.9584
10.9446
10.9047
10.8362
10.796
1.00003
1.00019
1.00048
1.00127
1.00275
1.00702
1.01454
1.03912
1.07606
1.23005
1.45513
2.43915
4.5537
10.6185
11.1938
10.925
10.5287
10.4956
10.5391
10.6012
10.5811
10.4975
10.3208
10.057
9.71581
1.00003
1.00017
1.00044
1.00116
1.00251
1.00639
1.01325
1.03556
1.06927
1.20909
1.40745
2.3076
4.15468
9.70337
10.9776
10.7756
10.3743
10.2643
10.2671
10.2506
10.1654
9.95611
9.55671
8.84478
7.19805
1.00003
1.00015
1.00039
1.00103
1.00223
1.00568
1.01177
1.03144
1.06139
1.18511
1.35072
2.16036
3.70227
8.61296
10.832
10.6595
10.2501
10.0374
9.98024
9.89388
9.71187
9.35744
8.78048
7.86775
6.23664
1.00002
1.00013
1.00034
1.00089
1.00193
1.0049
1.01016
1.02699
1.05294
1.15807
1.29519
1.98222
3.2314
7.34506
10.8016
10.6121
10.1257
9.79916
9.67347
9.533
9.27115
8.84322
8.20812
7.33152
6.13259
1.00002
1.00011
1.00029
1.00075
1.00163
1.00412
1.00859
1.02247
1.04523
1.12802
1.24853
1.77589
2.75096
5.88443
10.7327
10.5357
10.006
9.56556
9.36925
9.18892
8.89371
8.45262
7.84778
7.08252
6.15229
1.00002
1.00009
1.00024
1.00063
1.00136
1.00344
1.00717
1.01867
1.03775
1.10498
1.20803
1.62492
2.41198
4.98412
10.3115
10.2708
9.87388
9.33922
9.08015
8.87475
8.58015
8.15726
7.61135
6.95453
6.19784
1.00001
1.00008
1.0002
1.00052
1.00113
1.00284
1.00593
1.01544
1.03109
1.08775
1.16639
1.52564
2.1505
4.3636
9.29178
9.80181
9.59126
9.13824
8.83135
8.60306
8.31916
7.92568
7.43719
6.86893
6.23485
1.00001
1.00006
1.00016
1.00042
1.00092
1.00231
1.00481
1.01256
1.02513
1.07184
1.13083
1.43676
1.88183
3.74028
7.78187
9.42831
9.319
9.00527
8.64423
8.38246
8.10071
7.73809
7.29847
6.79911
6.2514
1.00001
1.00005
1.00013
1.00034
1.00073
1.00183
1.00382
1.00992
1.01994
1.05614
1.10306
1.33709
1.66895
3.06847
6.13755
9.24267
9.19857
8.95421
8.52478
8.21353
7.92433
7.58571
7.18793
6.74125
6.25837
1.00001
1.00004
1.0001
1.00026
1.00056
1.00141
1.00294
1.00754
1.01528
1.04165
1.07864
1.24231
1.47582
2.43623
4.40529
8.82464
9.08853
8.89698
8.48117
8.09242
7.77845
7.45559
7.09145
6.68904
6.25773
1.00001
1.00003
1.00008
1.0002
1.00043
1.00107
1.00224
1.00572
1.01165
1.03131
1.06008
1.1841
1.33608
2.13573
3.54061
7.67858
8.84313
8.73517
8.42304
7.98426
7.64531
7.33545
7.0028
6.64
6.25412
1
1.00002
1.00006
1.00015
1.00032
1.0008
1.00168
1.00427
1.00869
1.02329
1.0447
1.13638
1.24442
1.83224
2.80517
5.90008
8.53155
8.50605
8.31771
7.91584
7.53999
7.22932
6.92155
6.59322
6.24562
1
1.00002
1.00004
1.00011
1.00023
1.00058
1.00122
1.0031
1.00633
1.01667
1.03301
1.0927
1.18168
1.53936
2.17858
4.14294
7.88585
8.35787
8.22829
7.90187
7.48608
7.15535
6.85675
6.55337
6.2353
1
1.00001
1.00003
1.00008
1.00017
1.00041
1.00087
1.00219
1.00447
1.01171
1.0231
1.06565
1.12075
1.38602
1.78957
3.30322
6.49431
8.10067
8.06036
7.86947
7.48266
7.11597
6.81374
6.52739
6.23382
1
1.00001
1.00002
1.00005
1.00012
1.00029
1.0006
1.00151
1.00308
1.008
1.01574
1.04444
1.07973
1.26442
1.48075
2.5415
4.54076
7.60297
7.91715
7.79963
7.49653
7.11437
6.79092
6.50619
6.22984
1
1.00001
1.00001
1.00004
1.00008
1.00019
1.0004
1.00101
1.00206
1.00533
1.0105
1.02933
1.05257
1.17439
1.29795
2.03174
3.19497
6.50051
7.68819
7.6488
7.48167
7.12893
6.79281
6.50108
6.23038
1
1
1.00001
1.00002
1.00006
1.00012
1.00029
1.0006
1.00152
1.00307
1.00807
1.01554
1.04538
1.07876
1.2719
1.48582
2.56375
4.5486
7.17058
7.50179
7.41284
7.16804
6.81339
6.50712
6.2353
1
1
1.00001
1.00001
1.00004
1.00008
1.00019
1.0004
1.001
1.00204
1.00527
1.01039
1.02869
1.0527
1.16768
1.29193
1.98177
3.07158
6.0681
7.2636
7.25514
7.1463
6.87913
6.53251
6.2512
1
1
1
1.00001
1.00002
1.00005
1.00012
1.00026
1.00064
1.00129
1.00332
1.00657
1.01775
1.03313
1.10132
1.1755
1.58753
2.18382
4.03606
6.70581
7.13339
7.08199
6.91613
6.5877
6.28948
1
1
1
1.00001
1.00001
1.00003
1.00008
1.00016
1.0004
1.00081
1.00208
1.00414
1.01103
1.02125
1.06045
1.1142
1.34298
1.70043
2.93264
5.36538
6.82571
6.95595
6.8838
6.69147
6.36974
1
1
1
1
1.00001
1.00002
1.00004
1.0001
1.00021
1.00053
1.00107
1.00276
1.00543
1.01474
1.02768
1.08246
1.14965
1.46878
1.9525
3.43244
6.08581
6.78802
6.78211
6.68626
6.47065
1
1
1
1
1.00001
1.00001
1.00003
1.00005
1.00013
1.00025
1.00064
1.0012
1.00344
1.00545
1.02006
1.02748
1.12169
1.16839
1.71924
2.316
4.48269
6.3317
6.64952
6.62006
6.50235
1
1
1
1
1
1.00001
1.00002
1.00003
1.00008
1.00016
1.00041
1.00082
1.00215
1.0042
1.01149
1.02159
1.0638
1.11674
1.36216
1.718
2.92763
5.19059
6.32632
6.50792
6.46537
1
1
1
1
1
1
1.00001
1.00002
1.00004
1.00009
1.00023
1.00045
1.00117
1.00228
1.00612
1.01144
1.03329
1.05882
1.18458
1.35096
1.98287
3.09944
5.57526
6.30917
6.37856
1
1
1
1
1
1
1
1.00001
1.00002
1.00005
1.00011
1.00022
1.00055
1.00099
1.00295
1.00429
1.01727
1.02082
1.10858
1.13207
1.63297
2.05245
3.82694
5.73725
6.21213
1
1
1
1
1
1
1
1.00001
1.00001
1.00003
1.00007
1.00013
1.00034
1.00066
1.00175
1.00331
1.0094
1.01672
1.05275
1.08869
1.29824
1.54683
2.53673
4.30466
5.73135
1
1
1
1
1
1
1
1
1.00001
1.00002
1.00003
1.00008
1.00015
1.00039
1.00076
1.00205
1.00376
1.01105
1.01891
1.06199
1.10259
1.34405
1.63689
2.69818
4.56457
1
1
1
1
1
1
1
1
1
1.00001
1.00002
1.00004
1.00009
1.00017
1.00044
1.00084
1.0023
1.00405
1.01243
1.02
1.07
1.10923
1.38246
1.68042
2.78373
1
1
1
1
1
1
1
1
1
1
1.00001
1.00002
1.00004
1.00008
1.00021
1.0004
1.00108
1.00197
1.00568
1.00951
1.03104
1.04775
1.17306
1.27034
1.87821
1
1
1
1
1
1
1
1
1
1
1
1.00001
1.00001
1.00004
1.00006
1.00018
1.00025
1.0009
1.0012
1.00476
1.00647
1.03027
1.03428
1.18926
1.24562
1
1
1
1
1
1
1
1
1
1
1
1
1.00001
1.00001
1.00003
1.00004
1.00016
1.00021
1.00083
1.00121
1.0044
1.00553
1.03002
1.02931
1.1974
1
1
1
1
1
1
1
1
1
1
1
1
1
1.00001
1.00001
1.00002
1.00003
1.00014
1.00017
1.00078
1.0013
1.00399
1.00571
1.03147
1.03853
1
1
1
1
1
1
1
1
1
1
1
1
1
1
1
1.00001
1.00002
1.00003
1.00012
1.00015
1.00075
1.0014
1.00364
1.00672
1.0322
1
1
1
1
1
1
1
1
1
1
1
1
1
1
1
1
1
1.00002
1.00003
1.00014
1.00025
1.00067
1.0011
1.00484
1.0059
1
1
1
1
1
1
1
1
1
1
1
1
1
1
1
1
1
1
1.00002
1.00002
1.00014
1.00024
1.00067
1.00093
1.0048
1
1
1
1
1
1
1
1
1
1
1
1
1
1
1
1
1
1
1.00001
1.00002
1.00006
1.0001
1.00037
1.00051
1.00216
1
1
1
1
1
1
1
1
1
1
1
1
1
1
1
1
1
1
1
1.00001
1.00003
1.00004
1.00015
1.00019
1.00089
1
1
1
1
1
1
1
1
1
1
1
1
1
1
1
1
1
1
1
1
1.00001
1.00001
1.00005
1.00007
1.00026
1
1
1
1
1
1
1
1
1
1
1
1
1
1
1
1
1
1
1
1
1
1.00001
1.00002
1.00003
1.00015
1
1
1
1
1
1
1
1
1
1
1
1
1
1
1
1
1
1
1
1
1
1
1
1.00002
1.00003
1
1
1
1
1
1
1
1
1
1
1
1
1
1
1
1
1
1
1
1
1
1
1
1.00001
1.00002
3.57527
1.94765
1.24781
0.913591
0.743724
0.678262
0.684059
0.71055
0.780386
0.93405
1.10588
1.21098
1.24782
1.24778
1.24652
1.24692
1.24924
1.25529
1.2678
1.2813
1.29226
1.30067
1.30698
1.3125
1.31716
1.32109
1.32428
1.32671
1.32839
1.32948
1.32969
1.32961
1.32936
1.32872
1.3274
1.3253
1.32272
1.31976
1.3164
1.31265
1.3086
1.30446
1.30066
1.29903
1.29952
1.30184
1.3088
1.32657
1.36877
1.46556
1.68665
2.1993
3.43809
5.01263
4.91467
4.84735
4.86458
4.91118
4.91991
4.91324
4.87549
4.8202
4.76249
4.69903
4.63024
4.55777
4.48371
4.40979
4.33629
4.26344
4.1909
4.11868
4.04659
3.97465
3.90271
3.83077
3.75887
3.68722
3.61605
3.54556
3.4759
3.40711
3.33931
3.27241
3.20652
3.14145
3.07744
3.01403
2.95207
2.89049
2.8302
2.77032
2.71172
2.65345
2.59657
2.54023
2.48589
2.43332
2.38641
2.35038
4.01274
2.53405
1.75161
1.353
1.16988
1.112
1.11247
1.11227
1.10692
1.09017
1.0942
1.10869
1.14076
1.18541
1.22677
1.25606
1.27283
1.28109
1.28625
1.29097
1.296
1.30153
1.30723
1.31266
1.3176
1.3216
1.32497
1.3275
1.32924
1.33033
1.33056
1.33047
1.33019
1.32951
1.32821
1.32616
1.32362
1.32059
1.31711
1.31326
1.30915
1.30495
1.30085
1.29903
1.29949
1.30158
1.30798
1.32449
1.36413
1.45507
1.66332
2.13319
3.18982
5.06167
5.08631
5.04638
4.97584
4.95991
4.9287
4.89664
4.8489
4.79296
4.73645
4.67735
4.61284
4.54419
4.4733
4.40129
4.32902
4.25689
4.1849
4.11304
4.04136
3.96979
3.89831
3.8268
3.75537
3.68409
3.61329
3.54306
3.47364
3.40497
3.3373
3.27047
3.20473
3.13969
3.07599
3.01251
2.95088
2.88915
2.82902
2.76894
2.71049
2.6521
2.5953
2.53882
2.48447
2.43155
2.38398
2.34647
4.73397
3.5863
2.77094
2.22457
1.84503
1.5714
1.37434
1.23363
1.13805
1.06772
1.04145
1.04476
1.05767
1.08754
1.14073
1.18698
1.22546
1.25269
1.26972
1.28062
1.28894
1.29575
1.3017
1.30684
1.31132
1.31513
1.31835
1.32132
1.32344
1.32524
1.32639
1.32659
1.32651
1.3262
1.32543
1.32382
1.3213
1.31833
1.31484
1.31105
1.30718
1.30319
1.29938
1.29878
1.2995
1.30234
1.31049
1.33071
1.37732
1.48035
1.70116
2.16
2.97629
4.2678
5.07742
5.16457
5.13747
5.07626
4.99369
4.92387
4.84007
4.7682
4.70741
4.64647
4.58505
4.52341
4.45861
4.39103
4.32181
4.25119
4.17984
4.10813
4.03661
3.9652
3.89416
3.8231
3.75233
3.68155
3.61131
3.54141
3.47246
3.40408
3.33674
3.27001
3.20433
3.13925
3.07549
3.01191
2.95008
2.88813
2.82798
2.76793
2.70918
2.65087
2.59381
2.53744
2.48276
2.42975
2.38104
2.3424
5.13697
4.19808
3.41972
2.80796
2.33581
1.9759
1.70649
1.50696
1.36075
1.26471
1.20177
1.16439
1.14607
1.14708
1.15254
1.16612
1.19334
1.22142
1.24752
1.27222
1.29224
1.30622
1.31493
1.32009
1.32299
1.32459
1.32566
1.3267
1.32792
1.3289
1.32955
1.32956
1.32946
1.32912
1.32832
1.32666
1.32415
1.3212
1.31761
1.31379
1.30972
1.30589
1.30344
1.3038
1.30562
1.3111
1.3263
1.36071
1.43998
1.60665
1.95513
2.52852
2.95481
3.44135
4.01496
4.64587
5.0038
5.08459
5.06766
5.01462
4.90266
4.80559
4.7147
4.63408
4.56525
4.4997
4.43572
4.3722
4.30748
4.24008
4.17089
4.10025
4.02925
3.958
3.88727
3.81652
3.74639
3.6763
3.60693
3.53766
3.46923
3.40107
3.33394
3.26718
3.20158
3.13646
3.0726
3.00905
2.94697
2.88503
2.82463
2.76459
2.70564
2.64745
2.59009
2.53384
2.47885
2.42578
2.37636
2.33644
5.38351
4.59165
3.8844
3.28627
2.79586
2.40239
2.09109
1.84741
1.65603
1.50766
1.392
1.30456
1.23974
1.19684
1.16865
1.16376
1.16656
1.17515
1.19348
1.21733
1.2382
1.25997
1.27866
1.293
1.30357
1.31088
1.31565
1.31879
1.32046
1.32133
1.32132
1.32125
1.32105
1.32062
1.31981
1.31854
1.31685
1.31447
1.31166
1.30824
1.30498
1.30227
1.3025
1.30378
1.30848
1.3207
1.35114
1.41924
1.56543
1.86821
2.42116
2.80726
2.97714
3.13915
3.37226
3.70032
4.14278
4.61976
4.89772
4.97652
4.95788
4.90101
4.78501
4.68009
4.57729
4.48813
4.41328
4.34546
4.28097
4.21789
4.15381
4.08737
4.01926
3.94982
3.88028
3.81042
3.74104
3.67153
3.60264
3.53376
3.46574
3.3979
3.33109
3.26454
3.19913
3.13406
3.07022
3.00669
2.94449
2.8826
2.82199
2.76197
2.70283
2.64482
2.58722
2.53112
2.47601
2.42284
2.37314
2.33233
5.55587
4.87529
4.24323
3.68324
3.20243
2.79867
2.46356
2.18813
1.96195
1.77741
1.6268
1.50553
1.4081
1.33293
1.27606
1.23687
1.21202
1.20005
1.20103
1.20501
1.21433
1.23055
1.24822
1.26629
1.28493
1.30096
1.31299
1.32081
1.3257
1.32715
1.32705
1.32658
1.32549
1.3237
1.32204
1.3202
1.31849
1.316
1.31358
1.31069
1.30839
1.30855
1.30977
1.31383
1.32582
1.35332
1.41973
1.55609
1.8442
2.40245
2.79577
2.94947
2.99979
3.03987
3.10744
3.22488
3.3976
3.66203
4.08097
4.54656
4.8203
4.88321
4.86174
4.79629
4.66579
4.54556
4.43146
4.33784
4.26088
4.19289
4.12977
4.06747
4.00437
3.93939
3.87291
3.80493
3.73644
3.66728
3.59845
3.52962
3.46161
3.39385
3.32707
3.26059
3.19516
3.13006
3.06609
3.00249
2.94008
2.87813
2.81728
2.75722
2.69792
2.63982
2.58228
2.52602
2.47105
2.41751
2.36816
2.32638
5.6706
5.08435
4.52192
4.00599
3.54656
3.14629
2.80198
2.50895
2.26066
2.05138
1.87545
1.72803
1.60513
1.50288
1.41867
1.35061
1.29819
1.25894
1.2335
1.21625
1.21459
1.21621
1.22113
1.23179
1.24564
1.26014
1.27608
1.29049
1.30202
1.31007
1.31543
1.31756
1.31748
1.31697
1.31561
1.31323
1.31094
1.30834
1.30575
1.30375
1.30399
1.30512
1.30951
1.31989
1.34809
1.40786
1.54424
1.8185
2.37741
2.81134
2.97172
3.01366
3.01312
3.00768
2.99772
3.007
3.04696
3.14087
3.31955
3.60617
4.04986
4.50348
4.75949
4.78079
4.75442
4.67582
4.52015
4.39514
4.27594
4.18263
4.1064
4.03995
3.97912
3.91868
3.85723
3.79348
3.72785
3.66055
3.59263
3.52423
3.45626
3.38851
3.32165
3.25519
3.18975
3.12476
3.06082
2.99737
2.93498
2.87319
2.81236
2.7524
2.69319
2.63508
2.5778
2.52139
2.46686
2.41241
2.36552
2.32079
5.75198
5.23871
4.73803
4.26629
3.83375
3.44579
3.10255
2.80258
2.54184
2.31674
2.12278
1.95623
1.81352
1.69137
1.58748
1.49921
1.42533
1.36419
1.31606
1.27879
1.2528
1.23613
1.22731
1.22794
1.2305
1.23634
1.24664
1.25933
1.27265
1.28672
1.29858
1.30725
1.31286
1.3149
1.3147
1.31396
1.31224
1.30943
1.30627
1.30638
1.3072
1.31165
1.32116
1.35008
1.40728
1.54457
1.81751
2.38267
2.83342
3.00539
3.04859
3.04485
3.02874
2.99303
2.93797
2.9007
2.89434
2.90715
2.95389
3.06021
3.25232
3.55876
4.01447
4.44417
4.67681
4.66572
4.62363
4.53315
4.36482
4.23952
4.12333
4.0337
3.9597
3.89489
3.83503
3.77499
3.71373
3.65019
3.58482
3.51794
3.45056
3.38288
3.31577
3.24902
3.18328
3.11813
3.0541
2.99069
2.92834
2.8667
2.80594
2.74613
2.68703
2.62896
2.57188
2.51532
2.46124
2.40605
2.36111
2.31417
5.81083
5.35552
4.90639
4.47542
4.07151
3.70077
3.36511
3.06528
2.79912
2.56478
2.35888
2.17879
2.02142
1.88419
1.76476
1.66088
1.57101
1.49341
1.42716
1.37148
1.32603
1.29057
1.26367
1.24606
1.23388
1.23236
1.2333
1.23626
1.24263
1.2531
1.26426
1.27645
1.28729
1.29567
1.30103
1.30372
1.30367
1.30336
1.30335
1.30418
1.307
1.31896
1.34111
1.40546
1.53001
1.81053
2.36984
2.86125
3.0428
3.08891
3.08525
3.06955
3.03203
2.96906
2.90777
2.85334
2.81452
2.78928
2.79255
2.8111
2.86397
2.98014
3.18052
3.50085
3.96481
4.36729
4.56413
4.54823
4.48894
4.36488
4.20582
4.08306
3.97411
3.88899
3.81646
3.75164
3.69126
3.63066
3.56911
3.50555
3.44056
3.37434
3.30791
3.24132
3.1755
3.1102
3.0461
2.98272
2.9205
2.85906
2.79856
2.73899
2.6802
2.6223
2.56556
2.509
2.45533
2.39972
2.35595
2.30772
5.8533
5.44413
5.0371
4.64307
4.26811
3.91725
3.59349
3.29867
3.03239
2.79377
2.58085
2.39157
2.22373
2.07505
1.94365
1.82747
1.72504
1.63473
1.55547
1.48612
1.42591
1.3746
1.33179
1.29753
1.27082
1.25181
1.23958
1.23294
1.23332
1.23487
1.23857
1.24609
1.25642
1.26721
1.27763
1.28621
1.29233
1.2965
1.29956
1.30455
1.31764
1.34182
1.4059
1.53009
1.81209
2.3759
2.8882
3.08483
3.1325
3.13032
3.11579
3.079
3.01575
2.95039
2.8885
2.83048
2.77793
2.73327
2.70252
2.68495
2.68992
2.71266
2.77107
2.89498
3.10218
3.4334
3.90411
4.28776
4.43104
4.41082
4.34498
4.20269
4.05054
3.93091
3.82842
3.74611
3.67361
3.60791
3.54641
3.48509
3.42349
3.36033
3.29625
3.23114
3.16619
3.10121
3.03726
2.97384
2.9117
2.85028
2.79002
2.73059
2.67214
2.61441
2.55805
2.5016
2.44824
2.39261
2.34918
2.30068
5.88231
5.51406
5.14509
4.78217
4.43236
4.10071
3.7905
3.50358
3.24073
3.00158
2.78541
2.59056
2.41569
2.2588
2.11844
1.99278
1.88046
1.78006
1.69038
1.61043
1.53927
1.47627
1.42079
1.37277
1.33212
1.29867
1.27241
1.25235
1.23929
1.23058
1.22983
1.23049
1.23261
1.2375
1.24655
1.25662
1.2676
1.27833
1.28878
1.30379
1.33034
1.39777
1.51994
1.80313
2.36798
2.90998
3.12189
3.17422
3.17367
3.16078
3.12782
3.06729
3.00046
2.93498
2.8729
2.8139
2.75836
2.70659
2.66031
2.62194
2.59513
2.5815
2.58752
2.61335
2.67706
2.80745
3.02096
3.3622
3.82517
4.21625
4.29006
4.26635
4.19492
4.04588
3.89964
3.78128
3.68217
3.60108
3.52826
3.46198
3.39998
3.33862
3.27766
3.21555
3.15304
3.08973
3.02686
2.96395
2.90212
2.84073
2.78066
2.72125
2.66314
2.60554
2.54957
2.4933
2.4403
2.38487
2.34129
2.29319
5.90581
5.56947
5.23109
4.89674
4.57049
4.25776
3.96172
3.68448
3.4273
3.19033
2.97351
2.77586
2.59646
2.43388
2.28684
2.15392
2.03378
1.92528
1.82718
1.73864
1.65863
1.58657
1.52171
1.46367
1.41204
1.36678
1.32806
1.29568
1.26981
1.24964
1.23584
1.22695
1.22419
1.22473
1.2271
1.23172
1.24233
1.25602
1.27735
1.30726
1.37285
1.49756
1.77255
2.3272
2.91227
3.14345
3.20585
3.20612
3.19578
3.16978
3.11764
3.0501
2.98246
2.91809
2.85741
2.79931
2.74377
2.6902
2.63944
2.59185
2.54924
2.51364
2.48834
2.48013
2.48712
2.5151
2.58268
2.71732
2.93078
3.28166
3.7287
4.12902
4.13839
4.1138
4.03902
3.88472
3.74602
3.63047
3.53456
3.45433
3.38191
3.31584
3.25428
3.19362
3.13385
3.07333
3.01282
2.95157
2.89085
2.83002
2.77035
2.71103
2.65318
2.59568
2.54002
2.48397
2.43131
2.37618
2.33244
2.28478
5.92908
5.61661
5.30378
4.99249
4.68783
4.39305
4.11132
3.84453
3.5945
3.36155
3.14612
2.9477
2.76577
2.5994
2.44748
2.30904
2.18274
2.06773
1.96278
1.86717
1.77991
1.70041
1.62793
1.56208
1.50228
1.44837
1.39996
1.35726
1.32031
1.28915
1.26398
1.2441
1.23058
1.22174
1.22223
1.22465
1.23173
1.24555
1.27661
1.33585
1.4592
1.70823
2.22003
2.87249
3.13755
3.21515
3.22349
3.21694
3.19716
3.15391
3.08636
3.01928
2.95674
2.89744
2.8406
2.78483
2.73032
2.67657
2.62445
2.57379
2.52581
2.48072
2.44073
2.40694
2.38297
2.37968
2.38713
2.41593
2.48392
2.61936
2.82853
3.18223
3.62864
4.01295
3.99401
3.94967
3.87048
3.7176
3.5875
3.47796
3.38695
3.30824
3.23704
3.17176
3.11105
3.05158
2.99337
2.93458
2.87602
2.81679
2.75828
2.69962
2.64227
2.585
2.52963
2.47379
2.42143
2.36659
2.3229
2.27546
5.94622
5.65652
5.36443
5.07445
4.78889
4.51079
4.24286
3.98691
3.74466
3.51692
3.30432
3.1067
2.92383
2.7551
2.5998
2.45707
2.32602
2.20568
2.09524
1.99374
1.90054
1.81487
1.73612
1.66388
1.59744
1.53681
1.48123
1.43098
1.38552
1.34514
1.31034
1.28014
1.25747
1.23743
1.23313
1.2354
1.24597
1.26386
1.32213
1.41912
1.65413
2.10205
2.79423
3.10363
3.19769
3.22439
3.21911
3.19994
3.15735
3.09442
3.03416
2.97828
2.92522
2.87277
2.82043
2.76744
2.71446
2.66138
2.60919
2.55773
2.50802
2.45976
2.41423
2.37127
2.33344
2.30189
2.27937
2.27832
2.28562
2.31453
2.38173
2.51553
2.72246
3.07588
3.54027
3.86182
3.8446
3.79217
3.69133
3.55032
3.42831
3.32593
3.24042
3.16412
3.09449
3.03051
2.97104
2.91297
2.85634
2.79932
2.74284
2.68578
2.62963
2.57312
2.5183
2.46278
2.41077
2.35615
2.31266
2.26525
5.96084
5.68975
5.41726
5.14518
4.87669
4.61434
4.35997
4.11495
3.88101
3.65913
3.45015
3.25427
3.07149
2.90158
2.74398
2.59809
2.46332
2.33866
2.2237
2.11731
2.01915
1.92833
1.84434
1.7668
1.69484
1.62875
1.56733
1.51124
1.45947
1.41243
1.37016
1.33171
1.30125
1.27223
1.26833
1.27227
1.29089
1.32546
1.42934
1.62085
2.03655
2.69124
3.06825
3.17667
3.20154
3.19498
3.17323
3.12679
3.07136
3.02055
2.97476
2.93058
2.88612
2.83994
2.79222
2.74266
2.69222
2.64093
2.5899
2.53906
2.48934
2.44045
2.39331
2.34758
2.30452
2.26397
2.2284
2.19891
2.17774
2.17804
2.18557
2.21404
2.27976
2.4112
2.62407
2.979
3.47614
3.68746
3.67444
3.62689
3.51832
3.38528
3.27167
3.1761
3.09551
3.02203
2.95463
2.89256
2.83463
2.77817
2.7234
2.66836
2.61411
2.55912
2.50547
2.45071
2.39925
2.34505
2.30152
2.25448
5.97654
5.72121
5.46621
5.21183
4.95984
4.71083
4.46702
4.23125
4.00502
3.78889
3.58357
3.39013
3.20812
3.03823
2.87957
2.73155
2.59428
2.4662
2.34771
2.23735
2.13509
2.04007
1.95165
1.86976
1.79321
1.72252
1.65637
1.59537
1.53856
1.48634
1.4383
1.39506
1.35758
1.32928
1.33087
1.34408
1.36946
1.46678
1.63519
2.02511
2.66132
3.06039
3.18702
3.19546
3.18412
3.15219
3.08786
3.02997
2.98526
2.94608
2.9098
2.87314
2.83498
2.79433
2.75151
2.70628
2.65957
2.61137
2.56286
2.51393
2.46564
2.41771
2.37104
2.32518
2.2811
2.23835
2.19811
2.16022
2.12679
2.09897
2.07873
2.07969
2.08791
2.11571
2.18104
2.31217
2.53707
2.91024
3.42106
3.51359
3.49935
3.44931
3.34656
3.22396
3.11819
3.02993
2.95376
2.88321
2.81851
2.75855
2.7026
2.64803
2.59528
2.54202
2.49011
2.43672
2.38635
2.33296
2.28955
2.2431
5.99995
5.75623
5.51537
5.27507
5.03535
4.7986
4.56658
4.34001
4.12065
3.91042
3.70939
3.51816
3.33809
3.16734
3.00837
2.85844
2.71912
2.58878
2.46733
2.35416
2.24841
2.15009
2.05798
1.97231
1.89205
1.81719
1.74726
1.68187
1.62102
1.56449
1.51203
1.46658
1.42474
1.41689
1.42438
1.44752
1.53422
1.69188
2.06315
2.7135
3.11174
3.24248
3.23896
3.21872
3.16866
3.09063
3.02516
2.96895
2.92071
2.879
2.84392
2.80916
2.77407
2.73696
2.69806
2.65692
2.61424
2.56988
2.52488
2.4791
2.43361
2.3881
2.34347
2.29924
2.25625
2.21387
2.17309
2.1333
2.09566
2.06001
2.02816
2.00179
1.98226
1.98383
1.99272
2.02095
2.08771
2.22266
2.45843
2.86929
3.33679
3.34945
3.33293
3.28123
3.17387
3.06629
2.96929
2.8883
2.81656
2.74899
2.68704
2.62927
2.57539
2.52251
2.47184
2.42002
2.37113
2.31918
2.27626
2.23079
6.03579
5.80108
5.56991
5.33807
5.1069
4.87919
4.65639
4.43895
4.22672
4.02143
3.82547
3.63739
3.45939
3.28998
3.13055
2.98051
2.83943
2.70731
2.58366
2.46802
2.35973
2.25834
2.16337
2.07432
1.99083
1.91251
1.83896
1.77013
1.70556
1.64562
1.59148
1.54339
1.52067
1.52592
1.5564
1.61749
1.79811
2.15037
2.82271
3.22978
3.34791
3.34079
3.30695
3.22746
3.14072
3.06349
2.99828
2.94131
2.88889
2.84035
2.79539
2.75313
2.71576
2.67734
2.63893
2.59936
2.5591
2.51777
2.47614
2.43393
2.39197
2.34986
2.30838
2.26695
2.22634
2.18587
2.14641
2.10716
2.06921
2.03185
1.99635
1.96256
1.93206
1.90723
1.88862
1.89079
1.90088
1.9308
2.00105
2.14498
2.39056
2.84824
3.19657
3.19348
3.16953
3.11503
3.0118
2.91459
2.82688
2.752
2.68401
2.61922
2.56021
2.50439
2.45274
2.40128
2.35345
2.30311
2.26084
2.21717
6.09261
5.85036
5.62253
5.40037
5.18015
4.96096
4.74419
4.53177
4.32578
4.12518
3.93318
3.74844
3.57257
3.40512
3.24638
3.09636
2.95519
2.8222
2.69694
2.57947
2.46885
2.36516
2.26736
2.17565
2.08903
2.00777
1.93094
1.85923
1.79142
1.73059
1.67523
1.6442
1.64921
1.67122
1.751
1.91
2.28539
2.99312
3.41187
3.51282
3.50102
3.44942
3.34013
3.2246
3.133
3.05627
2.99076
2.9326
2.87642
2.8235
2.77181
2.72145
2.6735
2.62759
2.58578
2.54381
2.50288
2.46216
2.42217
2.38233
2.34321
2.3042
2.26586
2.22749
2.18976
2.15189
2.11467
2.07729
2.04072
2.00405
1.96852
1.93331
1.89979
1.86776
1.83856
1.81527
1.79808
1.80072
1.81254
1.84549
1.92108
2.07439
2.35584
2.83239
3.03276
3.03959
3.01373
2.95146
2.85819
2.76974
2.69015
2.62019
2.55532
2.49335
2.4377
2.3838
2.3352
2.28547
2.24352
2.20184
6.173
5.91087
5.67809
5.45847
5.24395
5.03193
4.82278
4.61743
4.41749
4.22387
4.03582
3.85473
3.68095
3.51558
3.35803
3.20879
3.06714
2.9336
2.80731
2.68825
2.57585
2.46986
2.36983
2.27537
2.18626
2.10202
2.02278
1.94817
1.88007
1.81897
1.77986
1.78439
1.80667
1.88863
2.05632
2.456
3.2135
3.63497
3.71893
3.70119
3.6325
3.49227
3.35639
3.24101
3.1467
3.06671
2.99649
2.93222
2.87362
2.81859
2.7625
2.70725
2.65239
2.59897
2.54834
2.49978
2.45542
2.41221
2.3711
2.33115
2.29278
2.25515
2.21865
2.18246
2.14707
2.11163
2.0768
2.04172
2.00722
1.9724
1.93835
1.90404
1.87076
1.8376
1.80589
1.77554
1.74751
1.72557
1.71073
1.71385
1.72726
1.7641
1.84738
2.01142
2.34373
2.79383
2.88568
2.89093
2.86305
2.79554
2.71158
2.63054
2.55825
2.49254
2.43107
2.37209
2.32046
2.26875
2.22619
2.18521
6.25265
5.97743
5.73481
5.51487
5.30523
5.10011
4.89805
4.69901
4.50478
4.31563
4.1322
3.95529
3.78429
3.62088
3.46495
3.31666
3.17542
3.04144
2.91425
2.79389
2.67977
2.57196
2.46971
2.37314
2.28153
2.19523
2.11375
2.03897
1.97245
1.92681
1.93116
1.95204
2.04478
2.22044
2.65762
3.47674
3.89406
3.95767
3.93392
3.84817
3.67895
3.52485
3.39512
3.28551
3.19056
3.10531
3.02742
2.95458
2.88646
2.82128
2.76033
2.70277
2.64342
2.58588
2.52945
2.4747
2.42321
2.37425
2.32971
2.28705
2.24702
2.20847
2.17177
2.13598
2.1015
2.06739
2.03421
2.00101
1.96853
1.9358
1.90373
1.87126
1.83952
1.80736
1.77605
1.74468
1.71448
1.68569
1.65889
1.6381
1.62702
1.63061
1.64599
1.68723
1.78116
1.96724
2.33806
2.70028
2.75445
2.74689
2.71432
2.64895
2.57176
2.4976
2.43202
2.36957
2.31281
2.25684
2.21225
2.1693
6.33081
6.0604
5.80218
5.57551
5.36723
5.16718
4.97143
4.77909
4.59026
4.40555
4.22594
4.05222
3.88544
3.72392
3.56854
3.42021
3.27912
3.14488
3.01721
2.89579
2.78042
2.67078
2.56681
2.46805
2.37479
2.2867
2.20563
2.13391
2.08385
2.08818
2.10985
2.21178
2.4012
2.88623
3.77781
4.18882
4.22533
4.19429
4.08816
3.89679
3.72398
3.57941
3.45693
3.34855
3.24995
3.15797
3.07188
2.99029
2.91327
2.83969
2.77023
2.70334
2.64097
2.58158
2.52127
2.46322
2.40712
2.35294
2.30224
2.25429
2.21084
2.16931
2.13044
2.09314
2.05779
2.02337
1.99043
1.95796
1.92661
1.89533
1.86494
1.83428
1.80434
1.77388
1.74408
1.71372
1.68408
1.65434
1.62556
1.5984
1.57339
1.55342
1.54763
1.55207
1.57051
1.61831
1.72454
1.94089
2.34441
2.57191
2.62771
2.61295
2.57157
2.50676
2.43865
2.37177
2.31227
2.25245
2.20466
2.15714
6.31814
6.16521
5.90114
5.65605
5.43904
5.23821
5.04528
4.85694
4.67228
4.49175
4.31576
4.145
3.97944
3.82069
3.66779
3.52013
3.37858
3.24367
3.11511
2.99307
2.87661
2.76595
2.66049
2.5606
2.46612
2.37923
2.30228
2.24995
2.25485
2.28283
2.3847
2.60997
3.14255
4.1095
4.52074
4.5328
4.48552
4.34742
4.13579
3.94567
3.78744
3.65219
3.53215
3.42141
3.31768
3.21909
3.12561
3.03623
2.9513
2.86993
2.79266
2.71859
2.64868
2.58152
2.51895
2.45952
2.4002
2.34319
2.28857
2.23596
2.18678
2.14057
2.09828
2.05796
2.02017
1.98386
1.94962
1.9164
1.88484
1.85383
1.82413
1.79452
1.76588
1.73694
1.70872
1.67993
1.65177
1.62305
1.595
1.56696
1.53977
1.51426
1.49187
1.47243
1.47288
1.47899
1.50098
1.55814
1.67993
1.93007
2.33793
2.45291
2.50028
2.48317
2.43951
2.37281
2.31376
2.25199
2.2031
2.15087
6.23076
6.16249
5.99957
5.74905
5.51698
5.30941
5.11621
4.9306
4.74961
4.5728
4.40032
4.23258
4.06976
3.91213
3.76024
3.61488
3.47463
3.33989
3.21095
3.08715
2.96961
2.85762
2.75154
2.6514
2.55877
2.47813
2.42239
2.42745
2.47218
2.55953
2.85515
3.43626
4.46542
4.88705
4.8805
4.80215
4.6193
4.39086
4.18705
4.01588
3.86888
3.73694
3.61503
3.49965
3.39
3.28486
3.18454
3.08819
2.99624
2.908
2.82401
2.74351
2.66718
2.59419
2.52542
2.45957
2.3982
2.34003
2.2827
2.22752
2.17471
2.12399
2.07662
2.03229
1.99108
1.95185
1.91516
1.87992
1.84683
1.81477
1.78448
1.75477
1.72643
1.69821
1.67098
1.64352
1.61678
1.58957
1.56299
1.53597
1.50957
1.48331
1.45795
1.43389
1.41449
1.39814
1.40035
1.41069
1.43872
1.50754
1.64729
1.93118
2.2863
2.35366
2.37762
2.35891
2.31236
2.25111
2.20295
2.14933
6.08844
6.08615
6.01281
5.84619
5.607
5.38566
5.18653
5.00083
4.82208
4.64829
4.47948
4.31537
4.15551
4.00023
3.84992
3.70467
3.56519
3.43099
3.3019
3.17851
3.06048
2.94813
2.84222
2.74465
2.66031
2.60603
2.61291
2.66722
2.77152
3.11901
3.79995
4.89455
5.28422
5.26687
5.15177
4.91042
4.66434
4.44794
4.26473
4.10525
3.9615
3.82767
3.70119
3.57999
3.46406
3.35252
3.24582
3.14316
3.04517
2.95095
2.86118
2.77513
2.69339
2.61522
2.54123
2.47059
2.40408
2.34048
2.28107
2.22476
2.16945
2.11617
2.06531
2.01655
1.97114
1.92854
1.88877
1.85071
1.81517
1.78101
1.74905
1.71809
1.68893
1.66037
1.6332
1.60624
1.58033
1.55429
1.52904
1.50343
1.47848
1.45318
1.42848
1.4039
1.38059
1.35802
1.34081
1.33054
1.33346
1.34634
1.38142
1.46451
1.63493
1.9457
2.19393
2.25868
2.25967
2.24231
2.20022
2.14954
5.69255
5.95197
5.94321
5.86518
5.69338
5.46775
5.25931
5.07025
4.89351
4.72358
4.55806
4.39582
4.23779
4.08446
3.93613
3.79272
3.65394
3.5203
3.39183
3.26836
3.15057
3.03929
2.93802
2.84959
2.80179
2.81226
2.879
3.01185
3.43453
4.26077
5.38863
5.72217
5.68522
5.52548
5.22615
4.95566
4.72668
4.5316
4.36027
4.20419
4.05854
3.91979
3.78722
3.65971
3.53755
3.41992
3.30738
3.19912
3.09573
2.99638
2.9017
2.81088
2.72452
2.64184
2.56342
2.48845
2.41753
2.34976
2.28597
2.22487
2.16791
2.11333
2.06023
2.00884
1.96002
1.91345
1.87031
1.82913
1.79072
1.75395
1.71963
1.68664
1.65578
1.62594
1.59788
1.57051
1.54455
1.51892
1.49437
1.46978
1.44604
1.42198
1.39862
1.37491
1.35192
1.32889
1.30753
1.28733
1.27083
1.26852
1.27275
1.2896
1.33387
1.43313
1.64079
1.96129
2.10139
2.16878
2.16246
2.14593
4.71989
5.60211
5.81634
5.80326
5.72254
5.55199
5.34024
5.14468
4.96655
4.79876
4.63637
4.47837
4.3241
4.17344
4.02652
3.88285
3.74372
3.60961
3.4812
3.3587
3.24258
3.1376
3.04691
3.01195
3.02838
3.111
3.29225
3.80874
4.83349
5.91192
6.18439
6.11778
5.90269
5.56728
5.26682
5.01931
4.81173
4.62911
4.46184
4.30419
4.15406
4.00964
3.87097
3.73733
3.60925
3.48597
3.36809
3.25478
3.14664
3.04278
2.94379
2.84881
2.75843
2.67181
2.58954
2.51076
2.43607
2.36459
2.29699
2.23229
2.17138
2.11302
2.05864
2.00568
1.95486
1.9055
1.85884
1.81461
1.77337
1.73386
1.69694
1.66153
1.62847
1.59673
1.56707