/*--------------------------------*- C++ -*----------------------------------*\
  =========                 |
  \\      /  F ield         | OpenFOAM: The Open Source CFD Toolbox
   \\    /   O peration     | Website:  https://openfoam.org
    \\  /    A nd           | Version:  6
     \\/     M anipulation  |
\*---------------------------------------------------------------------------*/
FoamFile
{
    version     2.0;
    format      ascii;
    class       surfaceScalarField;
    location    "2";
    object      phi;
}
// * * * * * * * * * * * * * * * * * * * * * * * * * * * * * * * * * * * * * //

dimensions      [1 0 -1 0 0 0 0];

internalField   nonuniform List<scalar> 
10325
(
0.00840002
3.62756e-10
0.00840002
2.2697e-09
0.00840001
6.88965e-09
0.0084
1.83042e-08
0.00839997
4.13095e-08
0.00839988
9.75904e-08
0.00839972
2.05688e-07
0.00839926
4.9432e-07
0.0083984
1.06426e-06
0.0083957
2.70384e-06
0.00838907
7.38126e-06
0.00836844
2.00285e-05
0.00828445
8.80103e-05
0.00781282
0.000474473
0.00715255
0.000653292
0.00644627
0.000690215
0.00576617
0.000662927
0.00509716
0.000656185
0.00444859
0.000644599
0.00376302
0.000670653
0.00301486
0.000700802
0.00227194
0.000726111
0.00152364
0.000752746
0.000756646
0.000779262
0.000754441
0.00840002
7.57664e-10
0.00840002
4.74884e-09
0.00840001
1.43615e-08
0.0084
3.82865e-08
0.00839996
8.61852e-08
0.00839987
2.05178e-07
0.00839968
4.31112e-07
0.00839917
1.0469e-06
0.00839817
2.27165e-06
0.00839517
5.7172e-06
0.00838707
1.62678e-05
0.00836387
4.25959e-05
0.00826203
0.000194042
0.00773835
0.00100159
0.00709164
0.00129345
0.00645171
0.00131399
0.00580946
0.00128796
0.00515856
0.00129411
0.00449061
0.00130877
0.00378175
0.00136522
0.00301833
0.00141713
0.00226818
0.00145942
0.00152327
0.00150221
0.000775315
0.00153975
0.00152806
0.00840002
1.19073e-09
0.00840002
7.46289e-09
0.00840001
2.25491e-08
0.00839999
6.01841e-08
0.00839995
1.35476e-07
0.00839985
3.23503e-07
0.00839964
6.79978e-07
0.00839908
1.65762e-06
0.00839794
3.61596e-06
0.00839463
9.0504e-06
0.00838545
2.62629e-05
0.00836016
6.72511e-05
0.00825018
0.00030827
0.00771982
0.00153636
0.00706543
0.00194304
0.00645273
0.00190988
0.00583755
0.00188575
0.00520757
0.00191104
0.00453902
0.00197424
0.00382248
0.00206839
0.00304826
0.00214454
0.00228595
0.00220472
0.00152885
0.00226366
0.000770822
0.00231064
0.00229792
0.00840002
1.65999e-09
0.00840002
1.04062e-08
0.00840001
3.14182e-08
0.00839999
8.39382e-08
0.00839995
1.88908e-07
0.00839983
4.52143e-07
0.0083996
9.50241e-07
0.00839899
2.31511e-06
0.00839772
5.12466e-06
0.00839431
1.24978e-05
0.00838425
3.73277e-05
0.00835829
9.24282e-05
0.00825117
0.000420269
0.0077282
0.00206347
0.00708624
0.00258029
0.00648388
0.00249641
0.00588835
0.00246571
0.00527244
0.00251544
0.00461686
0.0026281
0.00390219
0.00277037
0.00312156
0.00287749
0.00234956
0.00295905
0.00156933
0.00304795
0.000780359
0.00311362
0.00307818
0.00840002
2.1593e-09
0.00840002
1.3527e-08
0.00840001
4.08499e-08
0.00839999
1.09054e-07
0.00839994
2.45629e-07
0.00839982
5.86691e-07
0.00839958
1.234e-06
0.00839894
3.01688e-06
0.0083978
6.48731e-06
0.00839369
1.66822e-05
0.00838602
4.59081e-05
0.00835156
0.000126366
0.0082569
0.000519465
0.00775854
0.00256571
0.00712675
0.00320927
0.0065384
0.00307045
0.00595894
0.00302959
0.00536243
0.00310013
0.00472008
0.00326778
0.00401491
0.00346326
0.00324012
0.00360554
0.00245557
0.00372598
0.00165806
0.0038482
0.000837633
0.00394835
0.00391629
0.00840002
2.68703e-09
0.00840002
1.6828e-08
0.00840001
5.08169e-08
0.00839999
1.35622e-07
0.00839994
3.05587e-07
0.00839981
7.29026e-07
0.00839955
1.53477e-06
0.00839891
3.72008e-06
0.00839747
8.13581e-06
0.00839406
2.02289e-05
0.00838425
5.64894e-05
0.00835736
0.00015325
0.00827025
0.000609922
0.00780955
0.00303115
0.00719228
0.00382125
0.00661442
0.00363499
0.00605332
0.00357769
0.00547929
0.00366493
0.00486235
0.00388397
0.00417958
0.00413819
0.00340302
0.00433586
0.00261527
0.00449485
0.00178568
0.00468189
0.000915489
0.00483408
0.00483206
0.00840002
3.24194e-09
0.00840002
2.02772e-08
0.00840001
6.13331e-08
0.00839999
1.63229e-07
0.00839993
3.68306e-07
0.00839981
8.72496e-07
0.00839954
1.83859e-06
0.00839887
4.46837e-06
0.008398
9.19118e-06
0.0083931
2.53261e-05
0.00839009
6.00835e-05
0.00834531
0.000198669
0.0082826
0.000675518
0.00785605
0.00346353
0.00726671
0.00440554
0.0067204
0.00416961
0.00618217
0.00410462
0.00563194
0.0042066
0.00504336
0.0044721
0.00439247
0.0047835
0.00364191
0.00504445
0.00284566
0.00527122
0.00199328
0.00553695
0.00104261
0.00579968
0.00587653
0.00840002
3.88475e-09
0.00840002
2.42961e-08
0.00840001
7.34979e-08
0.00839998
1.95577e-07
0.00839991
4.41507e-07
0.00839976
1.045e-06
0.00839943
2.20443e-06
0.00839866
5.32239e-06
0.00839693
1.10827e-05
0.00839276
2.97497e-05
0.00838179
7.1492e-05
0.0083517
0.000230138
0.00826159
0.000767164
0.00783555
0.00389732
0.0073382
0.0048961
0.00684001
0.00465512
0.00634062
0.00459523
0.00582922
0.0047112
0.00528682
0.00501257
0.00467997
0.00538652
0.00395798
0.00572244
0.00318327
0.00602105
0.00231305
0.00640272
0.00127822
0.00684636
0.00715817
0.00840002
4.63256e-09
0.00840002
2.89747e-08
0.00840001
8.75889e-08
0.00839997
2.33281e-07
0.00839989
5.26644e-07
0.00839971
1.24887e-06
0.00839932
2.63478e-06
0.00839837
6.36262e-06
0.00839631
1.33319e-05
0.00839117
3.52088e-05
0.00837735
8.59087e-05
0.00834067
0.000268256
0.00822955
0.00088127
0.0077007
0.0044355
0.00747049
0.00511994
0.00696123
0.00515548
0.00651267
0.00503501
0.00603428
0.00518354
0.00557075
0.00547178
0.005044
0.00590751
0.00441586
0.00632561
0.00369959
0.00670326
0.00285625
0.00724213
0.0017468
0.00797718
0.00891005
0.00840002
5.43608e-09
0.00840002
3.39891e-08
0.0084
1.02687e-07
0.00839997
2.73654e-07
0.00839989
6.18122e-07
0.00839969
1.46743e-06
0.00839927
3.09785e-06
0.00839821
7.52273e-06
0.00839633
1.54384e-05
0.0083903
4.16278e-05
0.0083771
9.99428e-05
0.00833702
0.000309855
0.00825021
0.000972118
0.00781593
0.00488115
0.00741651
0.00551156
0.00707175
0.00548922
0.00672174
0.00537618
0.00632931
0.00556952
0.0059363
0.00586419
0.00553092
0.00631705
0.00505691
0.00678086
0.00444911
0.00727969
0.00374143
0.00793391
0.0028155
0.00891795
0.0117213
0.00840002
6.20314e-09
0.00840002
3.87701e-08
0.00840001
1.16965e-07
0.00839997
3.12161e-07
0.00839989
7.05661e-07
0.00839971
1.67982e-06
0.0083993
3.55267e-06
0.0083983
8.643e-06
0.00839627
1.76985e-05
0.00839126
4.71266e-05
0.008377
0.000115293
0.00834701
0.000341537
0.00828414
0.00103924
0.00795941
0.00522057
0.00753806
0.00592505
0.00722836
0.00578684
0.00698652
0.00560846
0.00673309
0.00581811
0.00643364
0.00616112
0.00615155
0.00660164
0.00579971
0.00711271
0.00542065
0.00762918
0.00519856
0.00813354
0.00558416
0.00853518
0.0081003
0.00921737
0.00840002
6.68688e-09
0.00840002
4.17549e-08
0.00840001
1.25847e-07
0.0084
3.35968e-07
0.00839995
7.59992e-07
0.00839985
1.80952e-06
0.00839962
3.83203e-06
0.00839911
9.29743e-06
0.0083981
1.89791e-05
0.00839443
5.13623e-05
0.00839425
0.000116914
0.00835807
0.000379758
0.00835761
0.00104596
0.0082891
0.00530703
0.00787934
0.00632539
0.00759227
0.0060613
0.0073169
0.00587305
0.00709159
0.00603706
0.00686925
0.00637947
0.00668772
0.00678689
0.00654545
0.00724244
0.00653056
0.00762117
0.0067437
0.00789382
0.00737457
0.00788672
0.00718378
0.00829537
0.00840003
6.6596e-09
0.00840003
4.15476e-08
0.00840003
1.25147e-07
0.00840004
3.34024e-07
0.00840005
7.5397e-07
0.00840009
1.79836e-06
0.00840019
3.76766e-06
0.00840032
9.31471e-06
0.0084016
1.79068e-05
0.00839972
5.39202e-05
0.00841333
0.000104344
0.00839893
0.000396337
0.00844951
0.00100042
0.00900632
0.00477276
0.00854199
0.00677674
0.00805784
0.00653076
0.00772568
0.00619621
0.00752242
0.00623409
0.00737247
0.00651748
0.0072935
0.00687401
0.00731623
0.00721155
0.00746384
0.00745351
0.00778226
0.00754888
0.00828542
0.00735887
0.006714
0.0087435
0.00840003
6.04149e-09
0.00840003
3.77102e-08
0.00840004
1.13975e-07
0.00840008
3.03096e-07
0.00840015
6.85274e-07
0.00840036
1.61671e-06
0.00840075
3.414e-06
0.00840211
8.09192e-06
0.00840352
1.67237e-05
0.0084144
4.37462e-05
0.0084302
8.96131e-05
0.00853051
0.000298571
0.00880062
0.000736081
0.010552
0.00304881
0.00966668
0.00764529
0.00875282
0.00742704
0.0083082
0.00662937
0.00804134
0.00649165
0.00792693
0.00663375
0.00792226
0.00688501
0.00801092
0.00711876
0.00821602
0.00723906
0.00850183
0.00723526
0.00886333
0.00697237
0.00639666
0.00915942
0.00840003
5.32592e-09
0.00840003
3.32613e-08
0.00840005
1.00728e-07
0.00840009
2.67326e-07
0.00840017
6.05258e-07
0.00840039
1.41794e-06
0.00840081
3.01319e-06
0.008402
6.98919e-06
0.00840416
1.47029e-05
0.00841353
3.47635e-05
0.00842149
8.23309e-05
0.00850949
0.000212002
0.00867616
0.000570631
0.00965977
0.00207496
0.00980687
0.00749378
0.00963532
0.0075894
0.0089084
0.00734586
0.00855978
0.00682999
0.00841979
0.00676939
0.00843904
0.00687223
0.00856623
0.0069978
0.00878099
0.00701524
0.00905335
0.00694313
0.00931519
0.00667643
0.00616534
0.00951954
0.00840003
4.73563e-09
0.00840003
2.95684e-08
0.00840004
8.95178e-08
0.00840008
2.37586e-07
0.00840015
5.37743e-07
0.00840031
1.26018e-06
0.00840067
2.67501e-06
0.00840151
6.2089e-06
0.00840329
1.30288e-05
0.008407
3.12806e-05
0.00841965
7.02538e-05
0.00844981
0.000182596
0.00849429
0.000527432
0.00881747
0.00175584
0.00955946
0.00676106
0.00950051
0.00764375
0.00925784
0.00758417
0.00898349
0.00709644
0.00885629
0.0068902
0.00886754
0.00686324
0.00899399
0.00687817
0.00919209
0.00681579
0.00945074
0.00667538
0.00969083
0.00641465
0.005975
0.00984745
0.00840003
4.22958e-09
0.00840003
2.64213e-08
0.00840004
7.99084e-08
0.00840007
2.12472e-07
0.00840013
4.80529e-07
0.00840027
1.13107e-06
0.00840057
2.3881e-06
0.00840124
5.61261e-06
0.0084028
1.15275e-05
0.00840498
2.93264e-05
0.00841753
5.88396e-05
0.00842157
0.00017887
0.00851713
0.000434913
0.00868746
0.00158569
0.00945735
0.00600364
0.00946395
0.00763128
0.00941121
0.00763092
0.00926066
0.0072418
0.00918837
0.0069553
0.00921375
0.00683396
0.00932839
0.00677174
0.00949587
0.00666039
0.00970844
0.00646031
0.00992341
0.00618738
0.00579671
0.0100764
0.00840003
3.71511e-09
0.00840003
2.31911e-08
0.00840004
6.99997e-08
0.00840007
1.86383e-07
0.00840013
4.21329e-07
0.00840027
9.95336e-07
0.00840057
2.099e-06
0.00840123
4.96703e-06
0.00840271
1.01483e-05
0.00840606
2.62236e-05
0.00841366
5.07948e-05
0.00843522
0.000158517
0.00849604
0.000371046
0.00872125
0.00137479
0.010281
0.00444237
0.0100006
0.00790281
0.00981707
0.00780848
0.00959719
0.00745674
0.00953644
0.00700983
0.00956769
0.00679848
0.00966959
0.00667476
0.00979667
0.0065368
0.00994593
0.00631132
0.0101102
0.00601888
0.00565505
0.0102355
0.00840003
3.02553e-09
0.00840003
1.88802e-08
0.00840005
5.71962e-08
0.00840008
1.51616e-07
0.00840016
3.42866e-07
0.00840036
8.01966e-07
0.00840079
1.69358e-06
0.00840185
3.92562e-06
0.00840417
8.07834e-06
0.00841086
1.974e-05
0.00842133
3.93843e-05
0.00847758
0.000105295
0.00859196
0.000261455
0.00920711
0.000741709
0.0113335
0.00232166
0.0110257
0.00822211
0.0107129
0.008119
0.0102428
0.00792312
0.010008
0.00724067
0.00993304
0.00686643
0.00998096
0.00663201
0.010082
0.0064482
0.0101839
0.00621264
0.0102907
0.00591174
0.0055594
0.0103831
0.00840003
2.43851e-09
0.00840003
1.52184e-08
0.00840005
4.61303e-08
0.00840008
1.2218e-07
0.00840014
2.76517e-07
0.0084003
6.44523e-07
0.00840064
1.36538e-06
0.00840144
3.13148e-06
0.00840307
6.49391e-06
0.00840753
1.53777e-05
0.0084154
3.13155e-05
0.00843858
8.29651e-05
0.00851943
0.000179579
0.00866093
0.000602213
0.00936023
0.00163592
0.0109843
0.00661263
0.0109658
0.00813406
0.0108078
0.00807692
0.0104718
0.00757292
0.0103129
0.00702073
0.0102904
0.0066586
0.0103523
0.00640278
0.0104293
0.00614653
0.0104947
0.00584673
0.00550281
0.0105467
0.00840003
1.95316e-09
0.00840003
1.21876e-08
0.00840004
3.69243e-08
0.00840007
9.78471e-08
0.00840012
2.21421e-07
0.00840025
5.16638e-07
0.00840053
1.09351e-06
0.00840116
2.51348e-06
0.00840248
5.19128e-06
0.00840545
1.24691e-05
0.00841265
2.42563e-05
0.00842552
7.03158e-05
0.00847656
0.000129474
0.00858737
0.000492267
0.00903467
0.00119169
0.010982
0.00467178
0.0111598
0.00795335
0.0110975
0.00813623
0.0108677
0.00780596
0.0106555
0.00722411
0.0105612
0.00674867
0.0105716
0.00639777
0.0106239
0.00610256
0.0106758
0.00579731
0.0054623
0.0107123
0.00840003
1.52237e-09
0.00840003
9.50265e-09
0.00840004
2.88079e-08
0.00840006
7.6321e-08
0.00840011
1.72737e-07
0.00840023
4.02728e-07
0.00840047
8.5332e-07
0.00840104
1.95548e-06
0.00840219
4.05475e-06
0.00840524
9.4634e-06
0.00840995
1.96225e-05
0.00843345
4.70103e-05
0.00845477
0.000108442
0.0086695
0.000278002
0.00909832
0.000763946
0.0112602
0.00251076
0.0116498
0.00757004
0.0115804
0.008207
0.0113531
0.00803655
0.0110734
0.00750343
0.0109049
0.00690842
0.0108269
0.00646839
0.0108188
0.00611356
0.0108356
0.00578314
0.00544587
0.0108497
0.00840003
1.15833e-09
0.00840003
7.23139e-09
0.00840004
2.19308e-08
0.00840006
5.80532e-08
0.0084001
1.31367e-07
0.0084002
3.05607e-07
0.00840041
6.4704e-07
0.0084009
1.4774e-06
0.00840191
3.05779e-06
0.00840426
7.1151e-06
0.00840941
1.45594e-05
0.00842061
3.6002e-05
0.00845305
7.41238e-05
0.00853025
0.000203977
0.00875633
0.000532246
0.00949511
0.0017853
0.0114372
0.00562796
0.0116861
0.00795672
0.0116674
0.00805571
0.01145
0.00772426
0.0112805
0.00707601
0.0111541
0.00658801
0.0110896
0.00617636
0.0110617
0.00581662
0.0054738
0.0110393
0.00840003
8.55063e-10
0.00840003
5.32177e-09
0.00840004
1.62459e-08
0.00840005
4.26696e-08
0.00840009
9.7147e-08
0.00840017
2.23803e-07
0.00840035
4.77099e-07
0.00840077
1.07473e-06
0.0084016
2.24324e-06
0.00840364
5.11728e-06
0.00840773
1.05296e-05
0.00841844
2.54175e-05
0.00844127
5.11735e-05
0.00850642
0.000140026
0.0087153
0.000322873
0.00944381
0.00105948
0.0120443
0.00303712
0.0122119
0.00778923
0.0121593
0.00810473
0.011949
0.0079329
0.0116128
0.00741161
0.0114561
0.00674119
0.0113467
0.00628198
0.0112819
0.00588419
0.00552066
0.0112418
0.00840003
5.23214e-10
0.00840003
4.11577e-09
0.00840004
1.06252e-08
0.00840005
3.23993e-08
0.00840008
6.34407e-08
0.00840014
1.70146e-07
0.00840031
3.06201e-07
0.00840057
8.23914e-07
0.00840143
1.39355e-06
0.00840262
3.98214e-06
0.00840704
6.1504e-06
0.00841206
2.05311e-05
0.00843864
2.50334e-05
0.00845901
0.000119818
0.00864932
0.000134599
0.00894175
0.000768186
0.0102357
0.00174823
0.0122509
0.00578021
0.0123903
0.00796076
0.012356
0.00796146
0.012056
0.00770713
0.011803
0.00699365
0.0116535
0.00643139
0.011543
0.00599762
0.00560729
0.0114639
0.00840003
4.32478e-10
0.00840003
2.40549e-09
0.00840003
8.04628e-09
0.00840005
1.95622e-08
0.00840006
4.79912e-08
0.00840013
1.01472e-07
0.00840021
2.34801e-07
0.00840056
4.76007e-07
0.00840086
1.10354e-06
0.00840268
2.18486e-06
0.00840363
5.26176e-06
0.00841433
9.92756e-06
0.00841246
2.70976e-05
0.00848597
4.70044e-05
0.0084646
0.000156456
0.00891476
0.000320253
0.00948631
0.00117913
0.0121092
0.00316768
0.0126524
0.00741479
0.0126961
0.00791152
0.0125573
0.00783973
0.0121965
0.00735114
0.0119978
0.00662883
0.011846
0.006147
0.00572949
0.0117254
0.00840003
3.02742e-10
0.00840003
1.69366e-09
0.00840003
5.53949e-09
0.00840004
1.37185e-08
0.00840005
3.3016e-08
0.00840009
7.13273e-08
0.00840016
1.61518e-07
0.0084003
3.36383e-07
0.00840066
7.57886e-07
0.0084013
1.55516e-06
0.00840303
3.56301e-06
0.00840578
7.2173e-06
0.00841564
1.73483e-05
0.00842861
3.44538e-05
0.00849195
9.32993e-05
0.00861814
0.000195988
0.00914675
0.000651648
0.0106332
0.00168573
0.0126251
0.00542722
0.0127883
0.00774566
0.012888
0.0077373
0.012714
0.00752284
0.0123788
0.00696321
0.0121519
0.0063733
0.00588623
0.0119933
0.00840003
2.03614e-10
0.00840003
1.14551e-09
0.00840003
3.72792e-09
0.00840004
9.28398e-09
0.00840005
2.21628e-08
0.00840007
4.80992e-08
0.00840013
1.07723e-07
0.00840024
2.25448e-07
0.0084005
5.00492e-07
0.00840103
1.03246e-06
0.00840229
2.31634e-06
0.00840481
4.72901e-06
0.0084112
1.10172e-05
0.00842407
2.17126e-05
0.00845992
5.77654e-05
0.00854601
0.000110266
0.00883895
0.000359647
0.00965206
0.000875691
0.0122455
0.00284261
0.0130519
0.00693698
0.0130575
0.00773002
0.0130456
0.00753356
0.012752
0.00725711
0.012523
0.00660383
0.00607572
0.0123346
0.00840003
1.50915e-10
0.00840003
7.19078e-10
0.00840003
2.66221e-09
0.00840004
5.91925e-09
0.00840004
1.58232e-08
0.00840006
3.06378e-08
0.00840009
7.77058e-08
0.00840017
1.42783e-07
0.00840031
3.6732e-07
0.0084007
6.48499e-07
0.00840129
1.73673e-06
0.00840309
2.93622e-06
0.00840578
8.36744e-06
0.0084143
1.32439e-05
0.0084299
4.23232e-05
0.00847603
6.43567e-05
0.00860366
0.000232715
0.0090145
0.000463985
0.0103312
0.00152904
0.0127114
0.00455953
0.0131721
0.00726761
0.0132839
0.00742181
0.0131776
0.00736379
0.0129046
0.00687872
0.0063038
0.0126791
0.00840003
7.49446e-11
0.00840003
5.45163e-10
0.00840003
1.47252e-09
0.00840003
4.32093e-09
0.00840004
8.80772e-09
0.00840005
2.25632e-08
0.00840008
4.26827e-08
0.00840012
1.08101e-07
0.00840029
1.96906e-07
0.00840043
5.13262e-07
0.00840128
8.94139e-07
0.00840172
2.49412e-06
0.00840617
3.93403e-06
0.00840684
1.25869e-05
0.00843285
1.63939e-05
0.00843258
6.46702e-05
0.00859007
7.53644e-05
0.00870911
0.000344806
0.0096113
0.000627822
0.0122309
0.00193974
0.0134078
0.00608949
0.013416
0.00741261
0.0135599
0.00722022
0.0133045
0.00713564
0.00656438
0.0130466
0.00840003
4.79663e-11
0.00840003
2.71e-10
0.00840003
9.02218e-10
0.00840003
2.2054e-09
0.00840004
5.29548e-09
0.00840005
1.11658e-08
0.00840007
2.49265e-08
0.00840012
5.01613e-08
0.00840021
1.10605e-07
0.00840051
2.1621e-07
0.00840092
4.90623e-07
0.00840253
8.86252e-07
0.00840414
2.33069e-06
0.0084133
3.45492e-06
0.00841737
1.22949e-05
0.00846629
1.59383e-05
0.00847096
7.03584e-05
0.00871562
0.000100936
0.008875
0.000467329
0.00982612
0.000990152
0.0126176
0.00329723
0.0134809
0.00654696
0.0135462
0.00715512
0.0136599
0.00702295
0.0068274
0.0134
0.00840003
3.05163e-11
0.00840003
1.71524e-10
0.00840003
5.60534e-10
0.00840003
1.38739e-09
0.00840003
3.31369e-09
0.00840004
7.11855e-09
0.00840005
1.59262e-08
0.00840006
3.28979e-08
0.0084001
7.30419e-08
0.00840017
1.48781e-07
0.00840033
3.33882e-07
0.00840054
6.76144e-07
0.00840133
1.54005e-06
0.00840166
3.13388e-06
0.00840667
7.27977e-06
0.00840761
1.50097e-05
0.00844106
3.68143e-05
0.00846309
7.89932e-05
0.00871554
0.000214316
0.00917639
0.000529594
0.0107402
0.00173197
0.0131041
0.00417874
0.0135807
0.00667673
0.0137212
0.00688288
0.00682479
0.0137255
0.00840003
1.87081e-11
0.00840003
1.04969e-10
0.00840003
3.43228e-10
0.00840003
8.49835e-10
0.00840003
2.03672e-09
0.00840004
4.38573e-09
0.00840004
9.8717e-09
0.00840005
2.0479e-08
0.00840008
4.58407e-08
0.00840014
9.40081e-08
0.00840026
2.12507e-07
0.0084005
4.35983e-07
0.00840105
9.87444e-07
0.00840212
2.07203e-06
0.00840483
4.56365e-06
0.00840986
9.99227e-06
0.00842548
2.11154e-05
0.00845657
4.79993e-05
0.00856959
0.000100822
0.00883821
0.000260985
0.00990233
0.00066649
0.0124116
0.00166702
0.0138075
0.00527567
0.01393
0.00675786
0.00667579
0.0140784
0.00840003
9.94156e-12
0.00840003
5.67802e-11
0.00840003
1.84825e-10
0.00840003
4.60955e-10
0.00840003
1.08129e-09
0.00840003
2.32787e-09
0.00840004
5.05326e-09
0.00840005
1.04464e-08
0.00840007
2.2176e-08
0.00840012
4.51791e-08
0.00840024
9.55239e-08
0.00840048
1.90789e-07
0.00840106
4.16666e-07
0.00840236
7.6839e-07
0.00840498
1.93865e-06
0.00841204
2.96065e-06
0.00842308
1.00171e-05
0.00845774
1.34788e-05
0.00849997
5.80819e-05
0.00867528
8.62314e-05
0.00896026
0.000379237
0.00983673
0.000789616
0.0125922
0.00251245
0.0137907
0.00555445
0.0065367
0.0139273
0.00840003
6.127e-12
0.00840003
3.0913e-11
0.00840003
1.10056e-10
0.00840003
2.53106e-10
0.00840003
6.44539e-10
0.00840003
1.28127e-09
0.00840003
3.05716e-09
0.00840004
5.7657e-09
0.00840005
1.38066e-08
0.00840007
2.51806e-08
0.0084001
6.20531e-08
0.00840018
1.09785e-07
0.00840032
2.80705e-07
0.0084006
4.83127e-07
0.00840124
1.29268e-06
0.00840208
2.12072e-06
0.00840586
6.21214e-06
0.00840989
9.44477e-06
0.00843567
3.20901e-05
0.00847471
4.72244e-05
0.00867511
0.000177628
0.00911236
0.000352352
0.0105285
0.00109228
0.0130151
0.0030591
0.00559013
0.0139564
0.00840003
2.80937e-12
0.00840003
1.96768e-11
0.00840003
5.51124e-11
0.00840003
1.56264e-10
0.00840003
3.24816e-10
0.00840003
7.94235e-10
0.00840003
1.52254e-09
0.00840003
3.64252e-09
0.00840004
6.72166e-09
0.00840005
1.63877e-08
0.00840008
2.9366e-08
0.00840012
7.40715e-08
0.00840027
1.29376e-07
0.00840041
3.39453e-07
0.00840113
5.71745e-07
0.00840164
1.60661e-06
0.00840536
2.49776e-06
0.00840679
7.94946e-06
0.00842788
1.10385e-05
0.00843354
4.11852e-05
0.00855572
5.55754e-05
0.00868653
0.000219963
0.0093474
0.000430894
0.0111495
0.00125264
0.0033377
0.0133911
0.00840003
1.74596e-12
0.00840003
9.84387e-12
0.00840003
3.25912e-11
0.00840003
7.97951e-11
0.00840003
1.91069e-10
0.00840003
4.03659e-10
0.00840003
9.00499e-10
0.00840003
1.82185e-09
0.00840004
4.02256e-09
0.00840004
8.00193e-09
0.00840006
1.78296e-08
0.00840009
3.51322e-08
0.00840014
7.94537e-08
0.00840033
1.55395e-07
0.00840054
3.58554e-07
0.00840146
6.85813e-07
0.00840229
1.66049e-06
0.0084072
3.0402e-06
0.00841015
7.99834e-06
0.00843747
1.39545e-05
0.00845178
4.07499e-05
0.0085991
7.299e-05
0.00880355
0.000224665
0.00954948
0.000506238
0.00148069
0.0114031
0.00840003
9.94651e-13
0.00840003
5.22799e-12
0.00840003
1.80224e-11
0.00840003
4.26369e-11
0.00840003
1.05417e-10
0.00840003
2.16616e-10
0.00840003
4.98571e-10
0.00840003
9.82417e-10
0.00840003
2.24544e-09
0.00840004
4.34333e-09
0.00840004
1.00917e-08
0.00840006
1.91522e-08
0.00840009
4.61154e-08
0.00840017
8.40668e-08
0.00840031
2.13813e-07
0.00840062
3.69397e-07
0.00840129
9.90036e-07
0.00840271
1.62139e-06
0.0084061
4.58691e-06
0.00841293
7.14805e-06
0.00843113
2.22172e-05
0.00847393
3.02576e-05
0.00858525
0.000112302
0.00892289
0.000167769
0.00060965
0.00979203
0.00840003
4.17274e-13
0.00840003
2.77507e-12
0.00840003
8.11123e-12
0.00840003
2.21476e-11
0.00840003
4.74842e-11
0.00840003
1.10653e-10
0.00840003
2.19433e-10
0.00840003
4.9156e-10
0.00840003
9.43986e-10
0.00840003
2.11449e-09
0.00840004
3.94016e-09
0.00840005
9.17299e-09
0.00840008
1.58016e-08
0.00840012
4.14866e-08
0.00840028
6.13482e-08
0.00840045
1.88992e-07
0.00840119
2.47947e-07
0.00840212
8.52877e-07
0.00840614
1.0831e-06
0.00840729
3.76673e-06
0.00842895
4.7138e-06
0.008428
2.10182e-05
0.0085596
2.0253e-05
0.00855944
0.000117786
0.000145258
0.00903349
0.00840003
2.09965e-13
0.00840003
1.14711e-12
0.00840003
3.91946e-12
0.00840003
9.34842e-12
0.00840003
2.26134e-11
0.00840003
4.63096e-11
0.00840003
1.02732e-10
0.00840003
2.00333e-10
0.00840003
4.34979e-10
0.00840003
8.23672e-10
0.00840003
1.81545e-09
0.00840004
3.24824e-09
0.00840005
7.74301e-09
0.00840008
1.21646e-08
0.0084001
3.43812e-08
0.00840025
4.48272e-08
0.00840033
1.54702e-07
0.00840102
1.73197e-07
0.00840137
7.0114e-07
0.00840466
8.37154e-07
0.00840477
3.00836e-06
0.00843675
3.60477e-06
0.0084173
1.88701e-05
0.00859954
1.47773e-05
0.000111013
0.00857448
0.00840003
7.8938e-14
0.00840003
5.1551e-13
0.00840003
1.54366e-12
0.00840003
4.12537e-12
0.00840003
8.93014e-12
0.00840003
2.01162e-11
0.00840003
3.99897e-11
0.00840003
8.55857e-11
0.00840003
1.63703e-10
0.00840003
3.4974e-10
0.00840003
6.36163e-10
0.00840003
1.4364e-09
0.00840004
2.3579e-09
0.00840005
6.04925e-09
0.00840007
8.52673e-09
0.00840009
2.62162e-08
0.00840021
3.2004e-08
0.00840025
1.27927e-07
0.00840082
1.30349e-07
0.00840107
6.13687e-07
0.00840317
7.73401e-07
0.00840428
2.56082e-06
0.00841611
2.95763e-06
0.00841498
1.83375e-05
1.53564e-05
0.00849986
0.00840003
3.37153e-14
0.00840003
1.89493e-13
0.00840003
6.41057e-13
0.00840003
1.54775e-12
0.00840003
3.67129e-12
0.00840003
7.54067e-12
0.00840003
1.62273e-11
0.00840003
3.14999e-11
0.00840003
6.62732e-11
0.00840003
1.22364e-10
0.00840003
2.67533e-10
0.00840003
4.54855e-10
0.00840003
1.09514e-09
0.00840004
1.64618e-09
0.00840004
4.47592e-09
0.00840006
6.12398e-09
0.00840007
1.94736e-08
0.00840018
1.86831e-08
0.00840019
1.02381e-07
0.00840078
8.20415e-08
0.00840112
5.00664e-07
0.00840057
7.60515e-07
0.00840301
2.48645e-06
0.00840597
2.381e-06
1.79376e-05
0.00841078
0.00840003
1.16132e-14
0.00840003
7.56086e-14
0.00840003
2.29318e-13
0.00840003
6.07368e-13
0.00840003
1.31827e-12
0.00840003
2.91208e-12
0.00840003
5.75504e-12
0.00840003
1.19967e-11
0.00840003
2.2429e-11
0.00840003
4.7376e-11
0.00840003
8.14343e-11
0.00840003
1.86454e-10
0.00840003
2.8343e-10
0.00840003
7.52766e-10
0.00840004
1.02681e-09
0.00840004
3.20109e-09
0.00840005
3.70706e-09
0.00840005
1.81022e-08
0.00840013
1.60121e-08
0.00840019
1.01326e-07
0.00840017
1.28784e-07
0.00840185
4.37813e-07
0.00839778
5.66859e-07
0.00840382
2.87651e-06
2.27851e-06
0.00840056
0.00840003
4.41308e-15
0.00840003
2.62646e-14
0.00840003
8.60963e-14
0.00840003
2.13748e-13
0.00840003
4.88885e-13
0.00840003
1.01662e-12
0.00840003
2.08398e-12
0.00840003
4.05915e-12
0.00840003
7.96915e-12
0.00840003
1.47396e-11
0.00840003
2.93489e-11
0.00840003
4.94661e-11
0.00840003
1.07297e-10
0.00840003
1.56827e-10
0.00840003
3.95815e-10
0.00840003
5.4283e-10
0.00840004
1.60144e-09
0.00840005
1.76743e-09
0.00840006
1.113e-08
0.00840015
1.33159e-08
0.0084002
7.48471e-08
0.00840058
1.53131e-07
0.00840107
3.41034e-07
0.0084005
5.18935e-07
2.18839e-06
0.00840611
0.00840003
1.81533e-15
0.00840003
1.05493e-14
0.00840003
3.46132e-14
0.00840003
8.60003e-14
0.00840003
1.98554e-13
0.00840003
4.17208e-13
0.00840003
8.77198e-13
0.00840003
1.73927e-12
0.00840003
3.57468e-12
0.00840003
6.93431e-12
0.00840003
1.43851e-11
0.00840003
2.78413e-11
0.00840003
5.93459e-11
0.00840003
1.15766e-10
0.00840003
2.5803e-10
0.00840003
5.0776e-10
0.00840003
1.212e-09
0.00840003
2.37654e-09
0.00840003
6.08296e-09
0.00840003
1.23738e-08
0.00840008
3.31391e-08
0.00840014
6.64385e-08
0.00840034
1.86088e-07
0.00840032
3.22866e-07
9.14265e-07
0.00840228
0.00840003
8.1261e-16
0.00840003
4.64716e-15
0.00840003
1.52581e-14
0.00840003
3.78428e-14
0.00840003
8.85838e-14
0.00840003
1.87749e-13
0.00840003
4.0564e-13
0.00840003
8.20355e-13
0.00840003
1.74537e-12
0.00840003
3.50795e-12
0.00840003
7.42029e-12
0.00840003
1.51298e-11
0.00840003
3.21014e-11
0.00840003
6.59577e-11
0.00840003
1.46284e-10
0.00840003
3.01216e-10
0.00840003
7.01716e-10
0.00840003
1.45405e-09
0.00840003
3.40286e-09
0.00840004
6.92782e-09
0.00840005
1.68598e-08
0.00840008
3.26289e-08
0.00840018
8.39991e-08
0.00840031
1.45822e-07
4.43473e-07
0.0084008
0.00840003
3.45806e-16
0.00840003
2.01011e-15
0.00840003
6.51996e-15
0.00840003
1.6275e-14
0.00840003
3.74444e-14
0.00840003
7.93996e-14
0.00840003
1.67089e-13
0.00840003
3.35623e-13
0.00840003
6.96481e-13
0.00840003
1.35237e-12
0.00840003
2.98689e-12
0.00840003
5.60525e-12
0.00840003
1.34296e-11
0.00840003
2.53276e-11
0.00840003
5.96391e-11
0.00840003
1.13498e-10
0.00840003
2.5787e-10
0.00840003
4.69452e-10
0.00840003
1.16698e-09
0.00840004
2.09313e-09
0.00840004
5.22354e-09
0.00840009
9.4583e-09
0.00840011
2.45515e-08
0.00840021
4.7592e-08
1.10582e-07
0.0084006
0.00840003
1.62468e-16
0.00840003
8.72457e-16
0.00840003
2.97229e-15
0.00840003
7.11833e-15
0.00840003
1.71201e-14
0.00840003
3.52401e-14
0.00840003
7.82436e-14
0.00840003
1.53278e-13
0.00840003
3.39158e-13
0.00840003
6.48898e-13
0.00840003
1.48722e-12
0.00840003
2.7988e-12
0.00840003
6.71644e-12
0.00840003
1.25628e-11
0.00840003
3.10001e-11
0.00840003
5.68417e-11
0.00840003
1.43876e-10
0.00840003
2.49834e-10
0.00840003
6.6543e-10
0.00840003
1.03593e-09
0.00840003
3.04752e-09
0.00840004
4.04875e-09
0.00840005
1.49169e-08
0.00840008
1.57232e-08
7.57326e-08
0.00840011
0.00840003
5.18249e-17
0.00840003
3.49709e-16
0.00840003
1.03167e-15
0.00840003
2.79236e-15
0.00840003
5.96051e-15
0.00840003
1.35985e-14
0.00840003
2.67377e-14
0.00840003
5.82346e-14
0.00840003
1.10264e-13
0.00840003
2.44418e-13
0.00840003
4.36668e-13
0.00840003
1.06326e-12
0.00840003
1.70598e-12
0.00840003
4.74342e-12
0.00840003
6.98667e-12
0.00840003
2.16618e-11
0.00840003
2.95132e-11
0.00840003
9.91571e-11
0.00840003
1.2243e-10
0.00840003
4.86625e-10
0.00840003
5.03643e-10
0.00840003
2.33017e-09
0.00840006
1.98239e-09
0.00840005
1.17529e-08
1.22333e-08
0.00840022
0.00840003
0.00840003
0.00840003
0.00840003
0.00840003
0.00840003
0.00840003
0.00840003
0.00840003
0.00840003
0.00840003
0.00840003
0.00840003
0.00840003
0.00840003
0.00840003
0.00840003
0.00840003
0.00840003
0.00840003
0.00840003
0.00840003
0.00840003
0.00840005
0.00840006
0.00556223
0.00366232
0.00392603
0.00163817
0.00302694
0.000898651
0.00248676
0.000538673
0.00216477
0.000319515
0.00197956
0.000183032
0.00188507
9.17419e-05
0.00186751
1.50234e-05
0.00195299
-8.79771e-05
0.00218276
-0.00023156
0.00232641
-0.000145315
0.00240658
-8.29797e-05
0.00242968
-2.5385e-05
0.00242493
2.84348e-06
0.00241134
1.25354e-05
0.00240259
7.80075e-06
0.00240443
-1.74059e-06
0.00241742
-1.21059e-05
0.00243631
-1.73362e-05
0.0024569
-1.82592e-05
0.00247725
-1.77718e-05
0.00249827
-1.74992e-05
0.0025194
-1.7742e-05
0.00254051
-1.81345e-05
0.00256074
-1.83303e-05
0.00257958
-1.82295e-05
0.0025963
-1.78607e-05
0.00261048
-1.71543e-05
0.00262222
-1.61346e-05
0.00263184
-1.49545e-05
0.00263878
-1.36941e-05
0.00264208
-1.24981e-05
0.00264297
-1.11569e-05
0.00264144
-9.73231e-06
0.00263692
-8.3139e-06
0.00262939
-7.35145e-06
0.00261982
-6.55434e-06
0.00260904
-5.79328e-06
0.00259759
-5.1205e-06
0.00258588
-4.58777e-06
0.0025741
-4.22196e-06
0.0025635
-4.02697e-06
0.00255445
-3.80236e-06
0.00254591
-3.43441e-06
0.00253885
-3.64984e-06
0.0025321
-3.86312e-06
0.00252431
-3.73081e-06
0.00251258
-2.63654e-06
0.00248883
3.72299e-07
0.00243562
7.63043e-06
0.00230948
2.39511e-05
0.00199208
7.48189e-05
0.000968673
0.000355225
0.000377862
0.00044349
0.000630644
-0.000237219
0.00119968
-0.000550582
0.00182724
-0.000583333
0.00238526
-0.000527934
0.00287162
-0.000477244
0.00326494
-0.000408818
0.0035675
-0.000359796
0.00384798
-0.000312942
0.00409181
-0.000270338
0.00430058
-0.000235914
0.00448135
-0.000208602
0.00463889
-0.000184149
0.00477916
-0.000163597
0.00490534
-0.000145797
0.00501997
-0.000130842
0.00512394
-0.00011771
0.00521809
-0.000106258
0.00530303