/*--------------------------------*- C++ -*----------------------------------*\
  =========                 |
  \\      /  F ield         | OpenFOAM: The Open Source CFD Toolbox
   \\    /   O peration     | Website:  https://openfoam.org
    \\  /    A nd           | Version:  6
     \\/     M anipulation  |
\*---------------------------------------------------------------------------*/
FoamFile
{
    version     2.0;
    format      ascii;
    class       volScalarField;
    location    "2";
    object      T;
}
// * * * * * * * * * * * * * * * * * * * * * * * * * * * * * * * * * * * * * //

dimensions      [0 0 0 1 0 0 0];

internalField   nonuniform List<scalar> 
5250
(
1.00005
1.00013
1.00039
1.00076
1.00216
1.00417
1.0114
1.02389
1.05826
1.1448
1.34589
1.85611
2.78503
2.77044
2.77329
2.74055
2.72829
2.74759
2.75669
2.76737
2.80348
2.83975
2.83884
2.81311
2.82979
1.00005
1.00013
1.00038
1.00076
1.00215
1.00415
1.01136
1.02378
1.05804
1.14422
1.34431
1.85354
2.78325
2.77035
2.7702
2.73851
2.72738
2.74663
2.75568
2.76581
2.80105
2.83723
2.83617
2.80993
2.82704
1.00005
1.00013
1.00038
1.00075
1.00213
1.00411
1.01127
1.02355
1.05756
1.14297
1.34069
1.8475
2.77923
2.77144
2.76628
2.73288
2.72449
2.74394
2.75334
2.76303
2.79762
2.83399
2.83315
2.80683
2.82138
1.00005
1.00012
1.00038
1.00074
1.0021
1.00405
1.01112
1.02318
1.05679
1.14098
1.33474
1.83757
2.77265
2.77306
2.76101
2.72759
2.71904
2.73744
2.7467
2.75625
2.78983
2.8281
2.82743
2.8008
2.81577
1.00005
1.00012
1.00037
1.00072
1.00206
1.00396
1.01091
1.02265
1.0557
1.13827
1.3262
1.82344
2.76446
2.77009
2.7543
2.72147
2.71304
2.7303
2.73857
2.74742
2.78131
2.81809
2.81907
2.79114
2.80364
1.00005
1.00012
1.00036
1.0007
1.00201
1.00384
1.01064
1.02197
1.05429
1.1345
1.31551
1.80464
2.7423
2.76588
2.74506
2.71736
2.70774
2.72319
2.72971
2.73554
2.76296
2.80631
2.80732
2.78103
2.79115
1.00005
1.00011
1.00035
1.00068
1.00194
1.0037
1.0103
1.02115
1.05246
1.13003
1.30214
1.78151
2.71406
2.76015
2.73164
2.70992
2.6986
2.71205
2.71813
2.72341
2.74662
2.78486
2.78904
2.76153
2.77002
1.00005
1.00011
1.00033
1.00065
1.00185
1.00354
1.00987
1.02018
1.0503
1.12402
1.28791
1.75185
2.67245
2.75032
2.71572
2.70771
2.6907
2.70009
2.7018
2.7032
2.72171
2.76372
2.76612
2.73952
2.73873
1.00004
1.0001
1.00031
1.00061
1.00175
1.00334
1.00935
1.01903
1.04766
1.11706
1.27076
1.71689
2.61698
2.73496
2.69183
2.6953
2.68534
2.69131
2.69147
2.68837
2.69446
2.73001
2.73736
2.70199
2.6857
1.00004
1.0001
1.00029
1.00057
1.00163
1.0031
1.00873
1.01765
1.04448
1.10879
1.24995
1.67151
2.55246
2.70434
2.69602
2.67294
2.66674
2.67172
2.67423
2.67148
2.66586
2.6854
2.68576
2.64018
2.5707
1.00004
1.00009
1.00026
1.00052
1.00149
1.00283
1.00799
1.016
1.04075
1.09869
1.22543
1.61488
2.46539
2.66397
2.68827
2.67191
2.65208
2.64914
2.64837
2.64317
2.63281
2.637
2.62705
2.5619
2.40777
1.00003
1.00008
1.00024
1.00046
1.00133
1.00251
1.00712
1.01411
1.0363
1.08722
1.19584
1.54903
2.34854
2.61272
2.67655
2.66526
2.64511
2.63247
2.62677
2.61333
2.59328
2.57808
2.55199
2.49023
2.33918
1.00003
1.00007
1.0002
1.0004
1.00115
1.00216
1.00615
1.01207
1.0314
1.07423
1.16585
1.46648
2.19786
2.54623
2.66276
2.65057
2.63659
2.61204
2.6017
2.58693
2.55905
2.53561
2.49723
2.44455
2.3372
1.00002
1.00006
1.00017
1.00034
1.00097
1.00182
1.00518
1.01
1.02683
1.05903
1.14042
1.363
1.98193
2.47027
2.63052
2.6184
2.61343
2.59655
2.58053
2.55072
2.52163
2.48944
2.44719
2.40803
2.33182
1.00002
1.00005
1.00014
1.00028
1.00081
1.00152
1.00433
1.00829
1.02259
1.04797
1.11879
1.28926
1.81119
2.41414
2.61332
2.57863
2.57718
2.56998
2.56054
2.53954
2.49577
2.46194
2.4092
2.3692
2.32031
1.00002
1.00004
1.00012
1.00023
1.00067
1.00125
1.00359
1.00685
1.01862
1.04033
1.09497
1.25044
1.61507
2.35255
2.5802
2.57215
2.54585
2.53094
2.52491
2.51286
2.47967
2.44375
2.3919
2.33915
2.29292
1.00001
1.00003
1.0001
1.00019
1.00054
1.00102
1.00293
1.00556
1.01512
1.03283
1.07668
1.21094
1.47678
2.17935
2.51636
2.56144
2.53601
2.51782
2.49759
2.48635
2.4619
2.42886
2.3857
2.33303
2.28282
1.00001
1.00003
1.00008
1.00015
1.00043
1.00081
1.00233
1.00437
1.01212
1.02541
1.06116
1.16227
1.36401
1.97715
2.39768
2.53486
2.52576
2.50784
2.47855
2.45801
2.43339
2.40048
2.36989
2.3257
2.27841
1.00001
1.00002
1.00006
1.00012
1.00033
1.00062
1.00179
1.0033
1.00939
1.01865
1.04719
1.11404
1.26634
1.64128
2.29533
2.46893
2.4867
2.48206
2.46641
2.4438
2.41976
2.38321
2.34947
2.31466
2.27265
1.00001
1.00001
1.00005
1.00009
1.00025
1.00047
1.00137
1.0025
1.00727
1.01387
1.03664
1.08602
1.19348
1.53397
2.20942
2.41716
2.45574
2.44386
2.43602
2.41707
2.39934
2.3668
2.33081
2.2958
2.26126
1
1.00001
1.00003
1.00007
1.00019
1.00035
1.00102
1.00186
1.00543
1.01031
1.02731
1.06329
1.14291
1.39746
1.99816
2.33367
2.43407
2.42925
2.41342
2.39373
2.37831
2.35489
2.32161
2.28612
2.2504
1
1.00001
1.00002
1.00005
1.00014
1.00026
1.00074
1.00135
1.00396
1.00732
1.02051
1.04194
1.10671
1.24838
1.70917
2.16934
2.38602
2.39759
2.3872
2.37119
2.34988
2.33667
2.31316
2.28199
2.24891
1
1.00001
1.00002
1.00003
1.0001
1.00018
1.00053
1.00095
1.0028
1.00512
1.01443
1.02955
1.07294
1.18304
1.4403
1.99927
2.31584
2.37543
2.37042
2.35435
2.3299
2.30847
2.28978
2.26696
2.2383
1
1
1.00001
1.00002
1.00007
1.00013
1.00036
1.00065
1.00193
1.00348
1.00993
1.01968
1.04977
1.12574
1.27498
1.71815
2.15236
2.32064
2.34134
2.33555
2.32007
2.29789
2.2778
2.2562
2.23019
1
1
1.00001
1.00002
1.00005
1.00009
1.00024
1.00044
1.00129
1.00232
1.00663
1.01294
1.03303
1.0815
1.17994
1.49117
2.06066
2.25022
2.2901
2.29456
2.28836
2.27427
2.25735
2.23925
2.21844
1
1
1
1.00001
1.00002
1.00007
1.00013
1.00036
1.00066
1.00192
1.00353
1.00969
1.02025
1.05005
1.1298
1.28583
1.74403
2.13324
2.26507
2.27031
2.26426
2.2527
2.23449
2.2175
2.20013
1
1
1
1.00001
1.00002
1.00005
1.00008
1.00024
1.00043
1.0013
1.00227
1.00678
1.01253
1.03364
1.07745
1.17643
1.46547
1.99216
2.19431
2.24049
2.23939
2.23193
2.2181
2.19958
2.18326
1
1
1
1.00001
1.00001
1.00003
1.00005
1.00016
1.00027
1.00082
1.00142
1.0043
1.00769
1.02132
1.04566
1.10902
1.27946
1.70704
2.05938
2.20745
2.21413
2.21072
2.19771
2.17934
2.16164
1
1
1
1
1.00001
1.00002
1.00003
1.0001
1.00017
1.00051
1.00089
1.00273
1.00474
1.01411
1.02673
1.07245
1.15615
1.44323
1.81175
2.11995
2.18953
2.1926
2.18597
2.17226
2.15204
1
1
1
1
1
1.00001
1.00002
1.00005
1.00013
1.00023
1.00067
1.00119
1.00354
1.00641
1.01803
1.03724
1.09413
1.2178
1.60526
1.92409
2.12931
2.15595
2.16013
2.15406
2.14325
1
1
1
1
1
1.00001
1.00001
1.00003
1.00005
1.00015
1.00028
1.00071
1.00149
1.00346
1.00892
1.01969
1.05623
1.12169
1.3532
1.79277
2.03148
2.1304
2.13551
2.13187
2.12198
1
1
1
1
1
1
1.00001
1.00002
1.00003
1.0001
1.00018
1.00055
1.00091
1.00295
1.00485
1.01518
1.02794
1.07688
1.16483
1.47541
1.8243
2.05819
2.1104
2.11493
2.11045
1
1
1
1
1
1
1
1.00001
1.00002
1.00006
1.0001
1.0003
1.00049
1.00157
1.00257
1.00798
1.01426
1.04009
1.08428
1.2158
1.45457
1.88226
2.04944
2.07838
2.08371
1
1
1
1
1
1
1
1.00001
1.00001
1.00003
1.00005
1.00013
1.00023
1.00061
1.00123
1.00288
1.00745
1.0168
1.04873
1.11067
1.30823
1.69586
1.93939
2.05711
2.06422
1
1
1
1
1
1
1
1
1.00001
1.00002
1.00003
1.00009
1.00014
1.00046
1.00073
1.0024
1.00389
1.01238
1.02245
1.06398
1.13546
1.37345
1.67488
1.95413
2.03718
1
1
1
1
1
1
1
1
1
1.00001
1.00002
1.00003
1.0001
1.00017
1.00051
1.00086
1.00264
1.00465
1.01376
1.02691
1.07429
1.15612
1.45488
1.71425
1.95028
1
1
1
1
1
1
1
1
1
1
1.00001
1.00002
1.00004
1.00011
1.00019
1.00057
1.00095
1.00289
1.00518
1.01487
1.03038
1.08036
1.17686
1.47881
1.7431
1
1
1
1
1
1
1
1
1
1
1
1.00001
1.00002
1.00005
1.00009
1.00028
1.00044
1.00143
1.0023
1.00726
1.01274
1.03722
1.07617
1.1975
1.41473
1
1
1
1
1
1
1
1
1
1
1
1
1.00001
1.00002
1.00003
1.00008
1.00015
1.00043
1.00057
1.00289
1.00245
1.01519
1.02992
1.08717
1.19839
1
1
1
1
1
1
1
1
1
1
1
1
1
1.00001
1.00001
1.00003
1.00007
1.00013
1.0004
1.00062
1.00307
1.00207
1.01522
1.02944
1.08967
1
1
1
1
1
1
1
1
1
1
1
1
1
1
1
1.00001
1.00002
1.00006
1.00011
1.00041
1.00057
1.00327
1.00179
1.01657
1.03579
1
1
1
1
1
1
1
1
1
1
1
1
1
1
1
1
1.00001
1.00001
1.00006
1.0001
1.00041
1.0006
1.00322
1.00217
1.01691
1
1
1
1
1
1
1
1
1
1
1
1
1
1
1
1
1
1.00001
1.00002
1.00007
1.00011
1.00053
1.00038
1.00251
1.00567
1
1
1
1
1
1
1
1
1
1
1
1
1
1
1
1
1
1
1.00001
1.00002
1.00008
1.0001
1.00055
1.0003
1.00264
1
1
1
1
1
1
1
1
1
1
1
1
1
1
1
1
1
1
1
1.00002
1.00002
1.00009
1.00014
1.00046
1.00088
1
1
1
1
1
1
1
1
1
1
1
1
1
1
1
1
1
1
1
1.00001
1.00001
1.00003
1.00006
1.00019
1.00035
1
1
1
1
1
1
1
1
1
1
1
1
1
1
1
1
1
1
1
1
1
1.00001
1.00003
1.00003
1.00018
1
1
1
1
1
1
1
1
1
1
1
1
1
1
1
1
1
1
1
1
1
1.00001
1.00001
1.00003
1.00006
1
1
1
1
1
1
1
1
1
1
1
1
1
1
1
1
1
1
1
1
1
1
1
1.00001
1.00001
1
1
1
1
1
1
1
1
1
1
1
1
1
1
1
1
1
1
1
1
1
1
1
1
1.00002
2.27527
2.11588
2.01266
1.94903
1.9444
1.97569
2.04888
2.11422
2.22051
2.3142
2.37776
2.40711
2.41291
2.41252
2.41132
2.41166
2.41243
2.41307
2.41376
2.41314
2.4116
2.40803
2.40247
2.39709
2.39214
2.38769
2.38424
2.38208
2.38103
2.38087
2.38125
2.38292
2.38642
2.39021
2.3951
2.40164
2.40939
2.41767
2.42593
2.43398
2.44169
2.44923
2.45498
2.46067
2.46553
2.4702
2.47731
2.49147
2.52204
2.58843
2.72579
2.99742
3.31563
3.53693
3.43509
3.35941
3.28417
3.24461
3.20897
3.18316
3.15654
3.13673
3.1175
3.10354
3.08803
3.07643
3.06231
3.05137
3.03779
3.02696
3.01347
3.00293
2.98965
2.97926
2.96609
2.95549
2.94224
2.93099
2.91729
2.90497
2.89047
2.87725
2.86189
2.84885
2.83266
2.82059
2.80362
2.79238
2.77498
2.76498
2.74766
2.73868
2.72218
2.71379
2.69788
2.6903
2.67495
2.66888
2.65657
2.6594
2.20597
2.08474
2.00932
1.96462
1.94998
1.95375
1.96249
1.95342
1.9327
1.9154
1.90908
1.91906
1.93325
1.95281
1.96879
1.97892
1.9827
1.98259
1.98198
1.98059
1.97917
1.97766
1.97519
1.97351
1.97072
1.96721
1.96392
1.96097
1.95831
1.95588
1.95383
1.95257
1.95199
1.95182
1.95204
1.95289
1.95442
1.95627
1.95832
1.96126
1.96358
1.96768
1.97033
1.976
1.98111
1.98775
1.99622
2.01013
2.03742
2.0927
2.21151
2.43849
2.70607
3.05518
2.97898
2.89076
2.8255
2.78036
2.74387
2.71469
2.68781
2.66247
2.63963
2.61799
2.59732
2.57687
2.55679
2.53689
2.51685
2.49773
2.47865
2.46148
2.44488
2.43057
2.4171
2.40566
2.39496
2.386
2.37747
2.37044
2.36344
2.35734
2.35038
2.3448
2.33636
2.33125
2.32102
2.31584
2.30481
2.29901
2.28691
2.28062
2.26756
2.26086
2.24709
2.24033
2.22643
2.22074
2.20894
2.21056
2.22754
2.12556
2.04293
1.97764
1.92388
1.87169
1.81972
1.77746
1.74325
1.72185
1.7155
1.7187
1.72828
1.74293
1.76282
1.77841
1.78962
1.79673
1.8004
1.80235
1.80361
1.80378
1.80359
1.80312
1.80211
1.80039
1.79918
1.79799
1.796
1.79436
1.79272
1.79109
1.78985
1.7889
1.78821
1.78764
1.78749
1.78751
1.78781
1.78871
1.78949
1.79121
1.79286
1.7964
1.80014
1.80506
1.81271
1.82719
1.85734
1.91347
2.03069
2.17894
2.35345
2.56142
2.6425
2.62863
2.60425
2.58129
2.56047
2.54147
2.5206
2.50149
2.48353
2.46546
2.44755
2.42976
2.41124
2.3925
2.37239
2.35298
2.33221
2.31365
2.29411
2.27829
2.26153
2.24929
2.23564
2.22659
2.21549
2.20854
2.19929
2.19429
2.18629
2.18243
2.17496
2.17122
2.16355
2.15953
2.15108
2.14653
2.13683
2.13152
2.12078
2.11343
2.10244
2.09354
2.08107
2.07276
2.06072
2.05822
2.24689
2.15946
2.07841
2.00379
1.93464
1.87449
1.82119
1.77563
1.73811
1.7107
1.69111
1.67839
1.67309
1.67171
1.67383
1.67983
1.68809
1.69693
1.70463
1.71146
1.71588
1.71859
1.7189
1.71854
1.71757
1.71618
1.71487
1.71356
1.71235
1.71068
1.70902
1.70748
1.70612
1.7051
1.7042
1.70333
1.70267
1.70238
1.70246
1.70275
1.70369
1.70486
1.70767
1.71006
1.71556
1.72019
1.73089
1.75367
1.79641
1.89247
2.01237
2.12539
2.19421
2.28987
2.37595
2.45404
2.4847
2.48379
2.47501
2.46303
2.44404
2.42561
2.40754
2.39111
2.37418
2.35741
2.33927
2.32146
2.30172
2.28347
2.26273
2.24488
2.22419
2.20833
2.18979
2.17676
2.16112
2.1508
2.13805
2.13044
2.11993
2.11414
2.10509
2.10047
2.09221
2.08815
2.08014
2.07614
2.06801
2.06386
2.05529
2.05053
2.04211
2.03479
2.02696
2.01776
2.00855
1.99883
1.98913
1.98431
2.25307
2.18395
2.11282
2.04418
1.97888
1.91631
1.86084
1.80972
1.76674
1.72686
1.69547
1.66693
1.64766
1.63124
1.62483
1.62237
1.62434
1.62823
1.63459
1.64106
1.64723
1.65211
1.65623
1.65861
1.66016
1.66051
1.66028
1.65945
1.65835
1.65725
1.65528
1.65364
1.65215
1.65103
1.65006
1.64946
1.64907
1.64905
1.64916
1.64973
1.65069
1.65299
1.65525
1.66013
1.66423
1.67312
1.69414
1.73054
1.82149
1.93399
2.04738
2.10088
2.12041
2.14376
2.18767
2.2435
2.31207
2.37301
2.40195
2.41038
2.40421
2.39343
2.37596
2.3609
2.34259
2.32678
2.30953
2.29378
2.27536
2.25943
2.2399
2.22359
2.20358
2.18789
2.16868
2.15404
2.13657
2.12391
2.10852
2.09792
2.08438
2.07546
2.06345
2.05595
2.04519
2.0389
2.02923
2.02403
2.01537
2.01089
2.00323
1.99813
1.99233
1.98512
1.9807
1.97266
1.9671
1.95894
1.95132
1.94819
2.24495
2.18932
2.13225
2.07374
2.0162
1.95947
1.90609
1.8556
1.80991
1.76758
1.7311
1.69663
1.66992
1.64385
1.62725
1.61077
1.60393
1.59666
1.59667
1.59686
1.59809
1.60068
1.6049
1.60806
1.61216
1.61453
1.61582
1.6156
1.61455
1.61306
1.61135
1.60888
1.60716
1.60563
1.60467
1.60426
1.6042
1.60444
1.60494
1.60626
1.60788
1.61108
1.61493
1.61954
1.62789
1.64805
1.68126
1.76708
1.87567
2.00547
2.05174
2.07046
2.06626
2.06941
2.07764
2.09862
2.13582
2.18942
2.25782
2.3209
2.35082
2.3606
2.35491
2.34671
2.3296
2.31411
2.29457
2.27924
2.26222
2.24775
2.23062
2.21631
2.19878
2.18358
2.16515
2.14963
2.13144
2.11632
2.09878
2.08478
2.06872
2.05628
2.04161
2.03057
2.01744
2.00823
1.99697
1.98961
1.98022
1.97431
1.96735
1.96176
1.95778
1.95144
1.94856
1.94264
1.9392
1.93393
1.92773
1.92815
2.23354
2.18613
2.13804
2.08945
2.04099
1.99191
1.94404
1.897
1.85239
1.81033
1.77082
1.73538
1.70167
1.67357
1.64598
1.62452
1.60477
1.59021
1.57964
1.57139
1.5693
1.56807
1.56832
1.56937
1.57212
1.57385
1.57724
1.57879
1.57986
1.57966
1.57872
1.57761
1.57623
1.57462
1.57382
1.5731
1.573
1.5731
1.57358
1.57526
1.57719
1.58126
1.58476
1.59308
1.60949
1.64374
1.71758
1.83943
1.97475
2.02946
2.04826
2.04104
2.03191
2.0255
2.01802
2.01987
2.02801
2.05151
2.09347
2.14959
2.21955
2.28248
2.31074
2.3168
2.31306
2.30489
2.28593
2.26961
2.25056
2.23552
2.21984
2.20575
2.18979
2.17533
2.15858
2.14271
2.12433
2.10764
2.08933
2.07305
2.05533
2.04007
2.02375
2.01007
1.99527
1.98332
1.97048
1.96067
1.95019
1.94224
1.93472
1.92816
1.92421
1.91901
1.91672
1.913
1.91089
1.90886
1.90554
1.90926
2.23205
2.18634
2.14238
2.09967
2.05821
2.01614
1.97482
1.93279
1.89231
1.85214
1.81415
1.77763
1.74335
1.71159
1.68166
1.6554
1.63013
1.61004
1.59004
1.57757
1.56396
1.55849
1.55118
1.55065
1.54904
1.54914
1.55008
1.55107
1.55348
1.5545
1.55611
1.55667
1.55636
1.55624
1.5557
1.55525
1.55496
1.55498
1.55536
1.55657
1.55943
1.56208
1.57052
1.58462
1.61937
1.6854
1.81699
1.95012
2.00777
2.02694
2.01927
2.01402
2.00548
1.9939
1.97869
1.96786
1.96887
1.97227
1.98373
2.01173
2.05511
2.11339
2.18591
2.24486
2.27414
2.27723
2.27378
2.26517
2.24487
2.22799
2.20924
2.19325
2.1769
2.16171
2.14468
2.12826
2.11017
2.0928
2.07394
2.05678
2.03892
2.02272
2.0056
1.99055
1.97505
1.96183
1.94798
1.93634
1.9247
1.91506
1.90671
1.89891
1.89394
1.8885
1.88562
1.88253
1.88051
1.87976
1.87902
1.88517
2.22824
2.18578
2.145
2.10529
2.06801
2.03092
1.99533
1.95848
1.92276
1.88604
1.85085
1.81561
1.7822
1.74974
1.7191
1.69036
1.6633
1.63888
1.61644
1.59667
1.5799
1.56576
1.55451
1.54679
1.53905
1.53744
1.53468
1.53272
1.53294
1.53371
1.53599
1.53742
1.53976
1.54154
1.54204
1.54348
1.54362
1.54402
1.54457
1.54635
1.54881
1.55473
1.56996
1.59936
1.67292
1.79012
1.93422
1.99725
2.01469
2.00841
2.00376
1.99713
1.98312
1.966
1.94835
1.9358
1.92687
1.92095
1.92262
1.92721
1.94139
1.97166
2.01833
2.08596
2.16241
2.22024
2.25104
2.24897
2.24272
2.22718
2.20489
2.18419
2.16221
2.14326
2.12377
2.10626
2.08756
2.07067
2.0529
2.03699
2.02001
2.00508
1.98896
1.97436
1.95824
1.94419
1.9294
1.91684
1.90387
1.89267
1.88286
1.87365
1.86786
1.86172
1.85802
1.85501
1.85226
1.85107
1.85085
1.85789
2.22235
2.18348
2.14555
2.10898
2.07508
2.04171
2.01037
1.97882
1.94776
1.91587
1.88384
1.85163
1.81946
1.78812
1.75728
1.7281
1.69985
1.67381
1.64893
1.62656
1.60544
1.5869
1.57007
1.5555
1.5441
1.53327
1.52742
1.52106
1.51943
1.51823
1.51858
1.51979
1.5224
1.5259
1.52885
1.53145
1.53308
1.53417
1.53522
1.53769
1.54322
1.55747
1.58585
1.65761
1.77169
1.92357
1.98922
2.00708
2.00184
1.99792
1.9896
1.97568
1.95825
1.9423
1.92517
1.91006
1.89549
1.88609
1.87895
1.87772
1.88137
1.89054
1.91309
1.95178
2.00676
2.07601
2.15523
2.20622
2.22652
2.21974
2.20525
2.18117
2.15338
2.12888
2.10466
2.08486
2.06498
2.04858
2.03153
2.01732
2.00186
1.98853
1.97306
1.95964
1.94412
1.93046
1.91465
1.90135
1.88718
1.87562
1.86416
1.85401
1.84568
1.83808
1.83217
1.82826
1.82369
1.82163
1.8202
1.82697
2.21471
2.17671
2.14121
2.10725
2.07528
2.04498
2.01587
1.98829
1.96088
1.93406
1.90596
1.87809
1.84882
1.82013
1.79089
1.76265
1.73488
1.70815
1.6827
1.6581
1.63518
1.61308
1.59287
1.57392
1.55719
1.5427
1.53094
1.52145
1.51535
1.51082
1.51015
1.5101
1.51062
1.51205
1.515
1.51814
1.52099
1.52429
1.52698
1.53362
1.54644
1.5771
1.64177
1.76333
1.91833
1.98785
2.00569
2.0013
1.99666
1.98743
1.97123
1.95602
1.93926
1.9232
1.90461
1.88968
1.87521
1.86483
1.85591
1.84997
1.84995
1.85355
1.86226
1.87485
1.90216
1.94148
1.99411
2.05924
2.12966
2.17746
2.17614
2.16607
2.14726
2.11877
2.09035
2.06686
2.04452
2.02746
2.01017
1.997
1.98262
1.97124
1.95766
1.94618
1.93144
1.91918
1.90423
1.89173
1.87663
1.8646
1.85145
1.84129
1.83048
1.82206
1.81314
1.80761
1.80083
1.79775
1.79419
1.79996
2.21371
2.17906
2.14228
2.10798
2.07635
2.0471
2.02014
1.99421
1.96935
1.94523
1.92111
1.89681
1.87175
1.84621
1.81999
1.79358
1.76709
1.74073
1.7149
1.68941
1.66494
1.64105
1.61862
1.59728
1.57782
1.56028
1.54491
1.53245
1.52207
1.51499
1.50905
1.50686
1.50498
1.50513
1.50576
1.50735
1.51027
1.51465
1.52216
1.53622
1.56636
1.62959
1.75034
1.90596
1.98248
2.00233
1.99935
1.99425
1.98423
1.96958
1.95326
1.93885
1.92163
1.90475
1.88749
1.87408
1.86128
1.85297
1.84286
1.8378
1.83145
1.83029
1.83145
1.83626
1.84508
1.8539
1.87442
1.90608
1.95051
2.01169
2.07434
2.12124
2.11016
2.09807
2.08091
2.05421
2.02896
2.00896
1.99031
1.97634
1.96141
1.95034
1.93736
1.92733
1.91453
1.90388
1.88963
1.87828
1.86426
1.85322
1.83949
1.82892
1.81669
1.80797
1.79764
1.79114
1.78281
1.77882
1.77354
1.77854
2.20969
2.17673
2.14475
2.11082
2.07863
2.04998
2.02302
1.99953
1.97601
1.95458
1.9328
1.91188
1.89035
1.86809
1.84544
1.82105
1.79695
1.77111
1.74604
1.71999
1.69501
1.67004
1.64655
1.62389
1.60319
1.58377
1.56674
1.55104
1.53805
1.52632
1.51757
1.50948
1.50491
1.50029
1.50013
1.50052
1.50249
1.50837
1.52164
1.55099
1.60853
1.73376
1.87522
1.97217
1.99555
1.99706
1.99184
1.98234
1.96691
1.95488
1.93975
1.92569
1.90775
1.89307
1.87701
1.86558
1.85299
1.84387
1.83293
1.82608
1.81664
1.81257
1.80542
1.80278
1.79839
1.79877
1.80014
1.80518
1.82062
1.85021
1.89294
1.9549
2.01908
2.06313
2.05231
2.03687
2.0215
1.99805
1.97549
1.95871
1.94206
1.9294
1.91527
1.90486
1.89209
1.8826
1.87026
1.86053
1.84721
1.83702
1.82418
1.81451
1.80207
1.79296
1.78183
1.775
1.76624
1.76221
1.75614
1.76072
2.20123
2.17144
2.14195
2.11253
2.08217
2.05336
2.02642
2.00249
1.98071
1.9606
1.94129
1.92251
1.90375
1.88474
1.86467
1.84382
1.82119
1.79808
1.7734
1.74888
1.72379
1.69926
1.67555
1.65235
1.63123
1.61021
1.59207
1.57362
1.55829
1.54269
1.52988
1.518
1.50786
1.50152
1.49725
1.49801
1.50173
1.51272
1.53943
1.59115
1.71226
1.84461
1.95345
1.98476
1.99333
1.98725
1.97618
1.96522
1.9522
1.93971
1.9238
1.90921
1.89352
1.88051
1.86553
1.85282
1.83856
1.82784
1.81638
1.80809
1.79729
1.78997
1.7789
1.77129
1.76203
1.75592
1.75089
1.75077
1.75217
1.75763
1.77342
1.80344
1.84615
1.91099
1.97893
2.01264
2.00506
1.98982
1.97053
1.95035
1.92944
1.91363
1.89758
1.88503
1.87071
1.86015
1.84755
1.83837
1.82664
1.81743
1.80489
1.79534
1.78333
1.77463
1.76343
1.75611
1.74679
1.74249
1.73627
1.74078
2.19283
2.16544
2.13756
2.11019
2.08341
2.05633
2.03047
2.00642
1.98467
1.96542
1.94707
1.93015
1.91288
1.89562
1.87788
1.85893
1.83912
1.81777
1.7953
1.77222
1.74819
1.72461
1.70094
1.67771
1.65621
1.63372
1.61508
1.59393
1.57766
1.55864
1.54431
1.52846
1.51645
1.50715
1.50417
1.50605
1.51438
1.53626
1.58587
1.6981
1.82501
1.93607
1.97462
1.98422
1.97508
1.9663
1.9554
1.94514
1.93015
1.91552
1.90007
1.88898
1.87632
1.86428
1.84862
1.83511
1.82063
1.8103
1.79889
1.78947
1.77801
1.76782
1.7552
1.74713
1.73624
1.73013
1.72195
1.71622
1.71088
1.7099
1.71066
1.71527
1.73026
1.75992
1.80432
1.87247
1.94637
1.96216
1.95568
1.9449
1.92388
1.90509
1.88545
1.87064
1.85506
1.84295
1.82926
1.81926
1.80693
1.79807
1.78669
1.77774
1.76536
1.75619
1.74473
1.73756
1.72783
1.72313
1.71573
1.7196
2.17939
2.15534
2.12938
2.1038
2.07836
2.0551
2.03069
2.00765
1.98568
1.96591
1.94829
1.93135
1.91589
1.89986
1.88322
1.86694
1.84727
1.8298
1.80722
1.78747
1.76384
1.7418
1.71918
1.69563
1.67507
1.65139
1.63255
1.61025
1.59243
1.57267
1.55576
1.53957
1.52587
1.5173
1.51773
1.52368
1.54069
1.58543
1.68956
1.81266
1.92393
1.96689
1.97581
1.9652
1.95284
1.94369
1.92945
1.91559
1.8997
1.88866
1.87783
1.86963
1.85682
1.84458
1.82926
1.81696
1.8034
1.79337
1.78058
1.77054
1.75716
1.7465
1.73441
1.72584
1.71512
1.70862
1.69845
1.69122
1.68192
1.6743
1.66741
1.66554
1.66554
1.66952
1.68446
1.71472
1.76248
1.83695
1.9135
1.91385
1.90553
1.89721
1.879
1.86111
1.84219
1.82888
1.81348
1.80213
1.78894
1.77957
1.7674
1.75887
1.74747
1.73933
1.72743
1.71974
1.70912
1.7046
1.69664
1.69985
2.16821
2.14894
2.12592
2.10161
2.077
2.05192
2.02985
2.00716
1.98589
1.96525
1.94644
1.92995
1.9126
1.89949
1.88158
1.86805
1.84963
1.83273
1.81444
1.79343
1.77482
1.75136
1.73183
1.7083
1.68737
1.66575
1.64354
1.62442
1.60233
1.58487
1.56537
1.55
1.53814
1.53471
1.53929
1.55288
1.59178
1.69101
1.80951
1.92817
1.96828
1.97138
1.95989
1.94756
1.93423
1.92075
1.90399
1.88928
1.87567
1.86637
1.85584
1.84615
1.83353
1.82267
1.80881
1.79742
1.78349
1.77204
1.75844
1.74771
1.73468
1.72523
1.71351
1.70472
1.69401
1.68638
1.67529
1.66811
1.65673
1.64841
1.6381
1.63032
1.6227
1.62073
1.62094
1.62523
1.64115
1.6744
1.72642
1.80941
1.87705
1.87094
1.86169
1.85345
1.83483
1.81903
1.80068
1.78779
1.77298
1.76212
1.74931
1.74023
1.72812
1.71978
1.70868
1.7016
1.69071
1.68538
1.67646
1.67924
2.14621
2.13129
2.1164
2.09641
2.07517
2.05184
2.0293
2.00831
1.98729
1.96712
1.9468
1.93046
1.91218
1.89771
1.88167
1.86662
1.85146
1.83451
1.81739
1.79957
1.77937
1.76099
1.73884
1.71967
1.69745
1.67691
1.65613
1.6344
1.61589
1.5947
1.57853
1.56374
1.55838
1.56138
1.57326
1.61076
1.68887
1.818
1.94087
1.98322
1.97962
1.96528
1.95
1.93498
1.91681
1.90124
1.88461
1.87104
1.85666
1.8449
1.83194
1.82165
1.8095
1.79809
1.7839
1.77119
1.75631
1.74469
1.73193
1.72255
1.71154
1.70315
1.69179
1.68356
1.67262
1.66466
1.65413
1.6469
1.63562
1.62807
1.61672
1.60743
1.59707
1.58834
1.58091
1.57828
1.57946
1.58526
1.60308
1.64016
1.6981
1.78828
1.83414
1.82948
1.82063
1.81131
1.7931
1.7783
1.76066
1.74849
1.73404
1.72343
1.71094
1.70221
1.68996
1.68225
1.6709
1.66587
1.65594
1.65794
2.13331
2.11547
2.09814
2.08115
2.06331
2.04528
2.0253
2.00584
1.98632
1.96911
1.94872
1.93273
1.91436
1.89908
1.88338
1.86833
1.8534
1.83774
1.82213
1.80407
1.78783
1.76717
1.75021
1.72785
1.70993
1.68738
1.66869
1.64683
1.62866
1.60917
1.59516
1.58693
1.59066
1.60346
1.63188
1.73161
1.835
1.95448
2.00236
1.99745
1.98042
1.96155
1.93964
1.9209
1.90294
1.88769
1.87033
1.8559
1.83971
1.82643
1.81212
1.80014
1.78542
1.77252
1.757
1.74381
1.72942
1.71905
1.70763
1.69979
1.68948
1.6813
1.6704
1.66204
1.65092
1.6434
1.63334
1.62649
1.61624
1.60936
1.5972
1.58874
1.57619
1.56582
1.55483
1.54576
1.53874
1.53632
1.53789
1.54577
1.56636
1.60774
1.67773
1.76718
1.78997
1.78658
1.77994
1.76961
1.75162
1.73764
1.7216
1.71064
1.69618
1.68668
1.67408
1.66651
1.65418
1.64878
1.63774
1.63894
2.12589
2.1087
2.0915
2.07451
2.05635
2.03812
2.01888
2.00048
1.9809
1.96478
1.94804
1.93165
1.91681
1.90065
1.88701
1.87195
1.85835
1.84337
1.82871
1.81303
1.79579
1.77903
1.75905
1.74133
1.71954
1.70117
1.67932
1.6612
1.64097
1.62706
1.61753
1.62133
1.63479
1.65965
1.76396
1.86037
1.98088
2.02832
2.02183
2.00456
1.97944
1.9528
1.92915
1.91062
1.8919
1.87454
1.85584
1.84001
1.82361
1.8104
1.79527
1.78149
1.7657
1.75143
1.73516
1.7217
1.70745
1.69657
1.6846
1.67564
1.66458
1.6564
1.64573
1.6377
1.62752
1.62045
1.61065
1.60418
1.59435
1.58723
1.57597
1.56822
1.55534
1.54633
1.53384
1.5235
1.51254
1.50423
1.49753
1.49687
1.49899
1.50924
1.53341
1.57933
1.66251
1.74055
1.75
1.74308
1.7373
1.72711
1.70928
1.69703
1.68242
1.67315
1.65902
1.65146
1.63862
1.63332
1.62214
1.6228
2.10847
2.09283
2.07767
2.06238
2.04706
2.03088
2.01397
1.99714
1.9788
1.96208
1.94577
1.93041
1.91638
1.90212
1.88866
1.8752
1.8621
1.84823
1.83477
1.81929
1.80501
1.78701
1.77138
1.75107
1.73426
1.71247
1.69562
1.67443
1.66098
1.65014
1.65486
1.66586
1.69374
1.79441
1.89247
2.0134
2.05503
2.04717
2.02916
2.0025
1.96923
1.94382
1.92212
1.90363
1.88312
1.86423
1.84454
1.8278
1.81003
1.79514
1.77857
1.76495
1.7488
1.73435
1.71788
1.70342
1.68747
1.67465
1.66089
1.65074
1.63938
1.63123
1.62089
1.6136
1.60379
1.59697
1.58782
1.58183
1.57259
1.56643
1.55623
1.54877
1.53674
1.52833
1.51518
1.50556
1.49349
1.48336
1.4733
1.46613
1.46127
1.46188
1.46488
1.4775
1.50497
1.5604
1.64799
1.70455
1.71008
1.70327
1.69398
1.68572
1.6685
1.65828
1.64446
1.63725
1.62372
1.61832
1.60685
1.60737
2.09918
2.08194
2.0659
2.05019
2.03484
2.01979
2.0038
1.98876
1.97337
1.95681
1.94192
1.92602
1.91267
1.90017
1.88794
1.87534
1.86299
1.8506
1.83716
1.8241
1.80862
1.79438
1.77651
1.76103
1.74124
1.72549
1.70554
1.69288
1.68263
1.68786
1.69791
1.72963
1.81903
1.93308
2.04882
2.0821
2.07063
2.05481
2.02627
1.99126
1.9615
1.93901
1.91739
1.8972
1.87537
1.85597
1.8354
1.81685
1.79724
1.78002
1.76246
1.74761
1.73148
1.71775
1.70121
1.68628
1.6695
1.65529
1.64052
1.62943
1.6176
1.60911
1.59902
1.59188
1.58244
1.57617
1.5672
1.56132
1.55229
1.54629
1.53624
1.52937
1.51805
1.51013
1.49757
1.48915
1.4764
1.46709
1.45576
1.44622
1.43686
1.43001
1.42712
1.4281
1.4322
1.44753
1.47894
1.5462
1.63514
1.66441
1.66922
1.66517
1.65294
1.64461
1.6304
1.62223
1.60916
1.6038
1.59242
1.59296
2.07967
2.07051
2.05526
2.04062
2.02572
2.01102
1.99617
1.9809
1.96651
1.95141
1.93702
1.92273
1.90882
1.89521
1.88438
1.87313
1.8619
1.8501
1.8382
1.82443
1.81139
1.79543
1.78106
1.76363
1.74816
1.73116
1.71818
1.71094
1.71583
1.72803
1.76148
1.84761
1.97862
2.08693
2.11098
2.09441
2.07755
2.05029
2.01352
1.98229
1.95573
1.93325
1.9109
1.89078
1.87002
1.85039
1.82869
1.80837
1.78673
1.76814
1.74936
1.7338
1.71784
1.70358
1.68745
1.67304
1.65633
1.64211
1.62682
1.61475
1.60195
1.59259
1.58178
1.57392
1.56408
1.55723
1.54795
1.54184
1.5326
1.52638
1.5165
1.50966
1.49874
1.49118
1.47949
1.47153
1.45921
1.45113
1.43895
1.43008
1.41924
1.41009
1.40164
1.39453
1.39411
1.39568
1.40136
1.4198
1.45747
1.5333
1.61729
1.62785
1.62776
1.6258
1.61578
1.60596
1.59437
1.58899
1.57778
1.57863
2.06297
2.05272
2.04346
2.02853
2.01462
2.00029
1.98658
1.97238
1.95837
1.94411
1.93004
1.91623
1.90289
1.89004
1.8771
1.86617
1.85613
1.8454
1.83514
1.82339
1.81038
1.79671
1.78169
1.7665
1.75202
1.73885
1.73449
1.73802
1.75405
1.79586
1.8728
2.02426
2.12453
2.14196
2.1213
2.10018
2.06997
2.03633
2.0043
1.97653
1.95017
1.92708
1.90492
1.88538
1.86453
1.84433
1.82186
1.80037
1.7781
1.75881
1.73975
1.72386
1.70693
1.69202
1.67574
1.66115
1.6452
1.63148
1.61622
1.60367
1.59002
1.57934
1.5675
1.55888
1.54854
1.54114
1.53136
1.5244
1.51441
1.50745
1.49705
1.48992
1.47932
1.47214
1.46139
1.45403
1.44294
1.43529
1.42359
1.41561
1.404
1.39525
1.38512
1.37624
1.36924
1.36304
1.36327
1.36589
1.3745
1.39613
1.44327
1.52126
1.58801
1.59605
1.59076
1.58737
1.57906
1.57196
1.56151
1.56279
2.04373
2.04117
2.02995
2.01876
2.00359
1.98997
1.9765
1.96411
1.95189
1.93933
1.92625
1.91312
1.89992
1.88715
1.87457
1.86251
1.85063
1.84026
1.82878
1.8183
1.80644
1.79484
1.78162
1.76887
1.75818
1.75556
1.76062
1.77919
1.82787
1.90786
2.06438
2.16004
2.16965
2.14623
2.12368
2.09013
2.05637
2.02661
1.99779
1.97045
1.94364
1.92076
1.89907
1.87976
1.8591
1.83877
1.81603
1.79467
1.77259
1.75318
1.73366
1.71667
1.69932
1.68436
1.66834
1.65411
1.63832
1.62436
1.60901
1.59608
1.58169
1.57014
1.5574
1.54768
1.53635
1.52786
1.5169
1.50863
1.49756
1.4895
1.4786
1.47108
1.46061
1.45357
1.44342
1.43653
1.42641
1.41938
1.40894
1.40165
1.39056
1.38287
1.37174
1.36322
1.35357
1.34488
1.3386
1.33436
1.33496
1.33787
1.34934
1.37579
1.43687
1.51259
1.55261
1.56348
1.55782
1.55413
1.54659
1.54754
2.01328
2.01958
2.0173
2.0063
1.99256
1.97709
1.96227
1.94889
1.93688
1.92677
1.91702
1.90698
1.89592
1.88446
1.8729
1.86128
1.84999
1.83832
1.82763
1.81597
1.80474
1.79291
1.78261
1.77454
1.77445
1.78267
1.80334
1.86538
1.94829
2.11148
2.1974
2.19951
2.17001
2.1456
2.10965
2.07662
2.04691
2.01967
1.9913
1.96434
1.93811
1.91537
1.89373
1.87434
1.85352
1.83361
1.81197
1.79159
1.76993
1.75023
1.73005
1.71265
1.69509
1.67976
1.66336
1.64847
1.63223
1.61771
1.60198
1.58855
1.57412
1.56219
1.5486
1.53738
1.52425
1.51367
1.50117
1.49148
1.47969
1.47102
1.46006
1.45235
1.44218
1.4353
1.42581
1.41948
1.41026
1.4038
1.39414
1.387
1.37642
1.3689
1.35757
1.35008
1.33916
1.33123
1.32233
1.31447
1.30837
1.30668
1.30778
1.31179
1.32671
1.36149
1.43302
1.50472
1.52305
1.53381
1.52933
1.53123
1.93995
1.9871
1.99845
1.99737
1.9881
1.9741
1.95871
1.94292
1.92845
1.91485
1.90343
1.8924
1.88389
1.87474
1.86659
1.8572
1.84754
1.83721
1.8268
1.81609
1.80565
1.79553
1.78991
1.79169
1.80487
1.82784
1.90749
1.99266
2.16237
2.23269
2.23035
2.19742
2.16463
2.12833
2.09595
2.06774
2.04051
2.01455
1.98757
1.96167
1.93596
1.91306
1.89079
1.87098
1.85041
1.83103
1.80987
1.78969
1.76804
1.74827
1.72799
1.71013
1.69175
1.67542
1.6582
1.64266
1.62588
1.6108
1.59466
1.58072
1.56563
1.55279
1.5384
1.52613
1.512
1.50032
1.48694
1.47646
1.46432
1.45521
1.44426
1.43641
1.42653
1.41965
1.41052
1.40409
1.39512
1.38849
1.37908
1.37199
1.36187
1.35456
1.34376
1.33671
1.32561
1.31881
1.3085
1.30111
1.29257
1.28607
1.27998
1.28013