/*--------------------------------*- C++ -*----------------------------------*\
  =========                 |
  \\      /  F ield         | OpenFOAM: The Open Source CFD Toolbox
   \\    /   O peration     | Website:  https://openfoam.org
    \\  /    A nd           | Version:  6
     \\/     M anipulation  |
\*---------------------------------------------------------------------------*/
FoamFile
{
    version     2.0;
    format      ascii;
    class       volVectorField;
    location    "2";
    object      U;
}
// * * * * * * * * * * * * * * * * * * * * * * * * * * * * * * * * * * * * * //

dimensions      [0 1 -1 0 0 0 0];

internalField   nonuniform List<vector> 
5250
(
(2.99996 3.9004e-08 0)
(2.99989 2.50277e-07 0)
(2.99972 7.78622e-07 0)
(2.99936 2.12601e-06 0)
(2.99843 4.92444e-06 0)
(2.99656 1.19406e-05 0)
(2.99138 2.57358e-05 0)
(2.98142 6.26766e-05 0)
(2.95095 0.000135251 0)
(2.88428 0.000328663 0)
(2.6984 0.000831107 0)
(2.12575 0.00184656 0)
(0.827845 0.00578126 0)
(-0.0291962 0.0138538 0)
(0.243402 0.0211921 0)
(0.50957 0.0266447 0)
(0.577535 0.0291189 0)
(0.524688 0.0307764 0)
(0.424591 0.0316231 0)
(0.33271 0.0336997 0)
(0.270976 0.0370767 0)
(0.212615 0.0413024 0)
(0.149713 0.0460657 0)
(0.0911596 0.051594 0)
(0.0541505 0.0579301 0)
(2.99996 1.20469e-07 0)
(2.99989 7.74755e-07 0)
(2.99972 2.40768e-06 0)
(2.99936 6.59071e-06 0)
(2.99844 1.52531e-05 0)
(2.99658 3.71698e-05 0)
(2.99141 8.00546e-05 0)
(2.9815 0.00019629 0)
(2.95115 0.000426701 0)
(2.88486 0.00103227 0)
(2.69958 0.00268645 0)
(2.12965 0.00586924 0)
(0.838111 0.0188107 0)
(-0.0192543 0.0435441 0)
(0.25256 0.0629111 0)
(0.515373 0.0744887 0)
(0.579035 0.0784525 0)
(0.524583 0.0805141 0)
(0.425241 0.0810116 0)
(0.335178 0.0842226 0)
(0.273613 0.0895195 0)
(0.214222 0.0951541 0)
(0.150216 0.10006 0)
(0.0898147 0.104184 0)
(0.05182 0.106951 0)
(2.99997 2.09494e-07 0)
(2.99989 1.34934e-06 0)
(2.99972 4.19076e-06 0)
(2.99937 1.14956e-05 0)
(2.99846 2.65988e-05 0)
(2.99661 6.5094e-05 0)
(2.99149 0.000140209 0)
(2.98168 0.000345713 0)
(2.95159 0.000757172 0)
(2.88617 0.00182099 0)
(2.70219 0.00487028 0)
(2.13864 0.0104318 0)
(0.862865 0.0342145 0)
(0.00551613 0.0773366 0)
(0.26826 0.107896 0)
(0.522053 0.122855 0)
(0.580247 0.129377 0)
(0.524434 0.134126 0)
(0.426747 0.137904 0)
(0.339813 0.145059 0)
(0.278892 0.154393 0)
(0.218185 0.163631 0)
(0.152319 0.171036 0)
(0.0889387 0.17594 0)
(0.0489123 0.177561 0)
(2.99997 3.06513e-07 0)
(2.9999 1.97559e-06 0)
(2.99973 6.13486e-06 0)
(2.99938 1.68488e-05 0)
(2.99848 3.89948e-05 0)
(2.99666 9.56733e-05 0)
(2.99162 0.000206209 0)
(2.98197 0.000509091 0)
(2.95228 0.00112732 0)
(2.8883 0.00267353 0)
(2.70635 0.00730493 0)
(2.1533 0.0153369 0)
(0.903536 0.0504085 0)
(0.0449588 0.112361 0)
(0.289312 0.152998 0)
(0.528802 0.16913 0)
(0.582579 0.178235 0)
(0.526824 0.186513 0)
(0.431875 0.195423 0)
(0.348312 0.207455 0)
(0.288087 0.221458 0)
(0.226239 0.235305 0)
(0.15829 0.246768 0)
(0.0911392 0.254586 0)
(0.0473807 0.257935 0)
(2.99997 4.10655e-07 0)
(2.9999 2.64684e-06 0)
(2.99973 8.22037e-06 0)
(2.99939 2.25781e-05 0)
(2.99851 5.22815e-05 0)
(2.99673 0.000128248 0)
(2.9918 0.000276581 0)
(2.98238 0.000684067 0)
(2.95324 0.00150132 0)
(2.89133 0.00362754 0)
(2.71216 0.0096198 0)
(2.17355 0.0211369 0)
(0.959559 0.0665368 0)
(0.098462 0.147914 0)
(0.315256 0.198724 0)
(0.535765 0.215125 0)
(0.586094 0.226156 0)
(0.532118 0.237653 0)
(0.44087 0.252005 0)
(0.360334 0.269214 0)
(0.300906 0.288215 0)
(0.238366 0.307305 0)
(0.168565 0.323609 0)
(0.0977415 0.335273 0)
(0.0487257 0.341655 0)
(2.99997 5.21083e-07 0)
(2.9999 3.35757e-06 0)
(2.99974 1.04307e-05 0)
(2.99941 2.86368e-05 0)
(2.99855 6.63614e-05 0)
(2.99682 0.00016255 0)
(2.99203 0.000351009 0)
(2.9829 0.000865698 0)
(2.95452 0.00189481 0)
(2.89508 0.00461581 0)
(2.72009 0.0118936 0)
(2.20048 0.0273208 0)
(1.03041 0.0819023 0)
(0.167043 0.183718 0)
(0.346584 0.245549 0)
(0.543024 0.261435 0)
(0.591178 0.273974 0)
(0.540787 0.288415 0)
(0.454528 0.308225 0)
(0.376941 0.331152 0)
(0.31834 0.35604 0)
(0.255323 0.381628 0)
(0.183594 0.40449 0)
(0.108053 0.421568 0)
(0.0521248 0.431652 0)
(2.99997 6.3749e-07 0)
(2.9999 4.10298e-06 0)
(2.99975 1.27529e-05 0)
(2.99943 3.49518e-05 0)
(2.9986 8.10517e-05 0)
(2.99693 0.00019769 0)
(2.99231 0.000427171 0)
(2.98356 0.00105157 0)
(2.9561 0.00224573 0)
(2.89968 0.00570107 0)
(2.72987 0.0136292 0)
(2.23315 0.0346411 0)
(1.11424 0.0958883 0)
(0.249525 0.219929 0)
(0.382819 0.293238 0)
(0.550265 0.307629 0)
(0.597735 0.321419 0)
(0.553033 0.338665 0)
(0.473448 0.364132 0)
(0.399236 0.393385 0)
(0.342045 0.425236 0)
(0.279537 0.459129 0)
(0.206074 0.491275 0)
(0.124634 0.517615 0)
(0.0588324 0.534772 0)
(2.99997 7.6627e-07 0)
(2.99991 4.92726e-06 0)
(2.99976 1.53211e-05 0)
(2.99945 4.19307e-05 0)
(2.99866 9.72935e-05 0)
(2.99707 0.000236464 0)
(2.99265 0.000511265 0)
(2.98429 0.00125636 0)
(2.95807 0.00262786 0)
(2.90456 0.00689295 0)
(2.74247 0.0154963 0)
(2.27293 0.0425286 0)
(1.20685 0.111022 0)
(0.344359 0.258209 0)
(0.422341 0.338949 0)
(0.556706 0.352595 0)
(0.605901 0.367774 0)
(0.569213 0.387804 0)
(0.498469 0.418771 0)
(0.428684 0.455199 0)
(0.374049 0.495506 0)
(0.313844 0.539967 0)
(0.24066 0.585602 0)
(0.15303 0.628369 0)
(0.0726509 0.661737 0)
(2.99997 9.15791e-07 0)
(2.99991 5.89058e-06 0)
(2.99977 1.83174e-05 0)
(2.99948 5.0158e-05 0)
(2.99874 0.000116442 0)
(2.99723 0.000283217 0)
(2.99306 0.000613012 0)
(2.98516 0.00150308 0)
(2.9604 0.00317425 0)
(2.91036 0.00820131 0)
(2.7573 0.0186698 0)
(2.31933 0.0504461 0)
(1.31278 0.131111 0)
(0.447533 0.306134 0)
(0.461786 0.376183 0)
(0.562632 0.394958 0)
(0.615027 0.412265 0)
(0.588446 0.436355 0)
(0.52927 0.471244 0)
(0.466495 0.515554 0)
(0.416869 0.565467 0)
(0.362854 0.622294 0)
(0.295802 0.688109 0)
(0.206407 0.76002 0)
(0.103909 0.836253 0)
(2.99997 1.08259e-06 0)
(2.99992 6.96719e-06 0)
(2.99979 2.1667e-05 0)
(2.99952 5.93864e-05 0)
(2.99883 0.000137948 0)
(2.99742 0.000336035 0)
(2.99355 0.000727923 0)
(2.98623 0.00179134 0)
(2.96319 0.00375897 0)
(2.9174 0.00977075 0)
(2.775 0.0223276 0)
(2.37491 0.059728 0)
(1.44379 0.154298 0)
(0.55666 0.3628 0)
(0.497353 0.409567 0)
(0.578068 0.431239 0)
(0.629768 0.450506 0)
(0.612169 0.481226 0)
(0.566042 0.519808 0)
(0.514314 0.57182 0)
(0.472377 0.631004 0)
(0.432532 0.702927 0)
(0.385314 0.795924 0)
(0.31528 0.916985 0)
(0.183803 1.11075 0)
(2.99998 1.25146e-06 0)
(2.99993 8.06023e-06 0)
(2.99981 2.50708e-05 0)
(2.99956 6.88139e-05 0)
(2.99893 0.000160043 0)
(2.99765 0.000390681 0)
(2.99413 0.00084797 0)
(2.98746 0.00209573 0)
(2.96651 0.0043623 0)
(2.92573 0.0114003 0)
(2.79586 0.0262664 0)
(2.43997 0.0691408 0)
(1.60046 0.176738 0)
(0.675695 0.424794 0)
(0.525962 0.448214 0)
(0.595339 0.462884 0)
(0.651438 0.48029 0)
(0.643611 0.517107 0)
(0.609793 0.56144 0)
(0.571687 0.619418 0)
(0.54345 0.688292 0)
(0.528877 0.776034 0)
(0.527149 0.890213 0)
(0.561311 1.04019 0)
(0.608712 1.25507 0)
(2.99998 1.38595e-06 0)
(2.99993 8.93267e-06 0)
(2.99983 2.77933e-05 0)
(2.99961 7.63883e-05 0)
(2.99905 0.000177918 0)
(2.99791 0.00043505 0)
(2.9948 0.000946521 0)
(2.98889 0.00234125 0)
(2.97033 0.00486845 0)
(2.93552 0.0128415 0)
(2.81966 0.0288787 0)
(2.51403 0.0790751 0)
(1.78267 0.194689 0)
(0.805808 0.489142 0)
(0.549215 0.485689 0)
(0.612452 0.488903 0)
(0.676994 0.504577 0)
(0.683684 0.545476 0)
(0.661258 0.596441 0)
(0.638347 0.658326 0)
(0.629225 0.734219 0)
(0.641641 0.828486 0)
(0.680362 0.94461 0)
(0.781153 1.0835 0)
(0.938391 1.231 0)
(2.99998 1.43503e-06 0)
(2.99994 9.24849e-06 0)
(2.99985 2.87802e-05 0)
(2.99966 7.91269e-05 0)
(2.99918 0.000184261 0)
(2.9982 0.000451054 0)
(2.99553 0.000977757 0)
(2.99044 0.0024392 0)
(2.97459 0.00494162 0)
(2.94553 0.0138637 0)
(2.8471 0.0284249 0)
(2.59603 0.0878994 0)
(1.97915 0.207478 0)
(0.94491 0.5528 0)
(0.573389 0.53204 0)
(0.636844 0.523127 0)
(0.712771 0.533209 0)
(0.73359 0.572778 0)
(0.720488 0.626321 0)
(0.710457 0.688878 0)
(0.718266 0.763884 0)
(0.751054 0.852317 0)
(0.813874 0.954183 0)
(0.930605 1.06314 0)
(1.10124 1.14652 0)
(2.99998 1.36563e-06 0)
(2.99995 8.78979e-06 0)
(2.99988 2.73552e-05 0)
(2.99971 7.5047e-05 0)
(2.99931 0.000174607 0)
(2.99848 0.000425688 0)
(2.99626 0.000920944 0)
(2.99189 0.00227695 0)
(2.97914 0.00463535 0)
(2.95476 0.012927 0)
(2.87717 0.0253974 0)
(2.68462 0.0807127 0)
(2.2046 0.187301 0)
(1.14065 0.525439 0)
(0.654834 0.559958 0)
(0.69275 0.567606 0)
(0.766256 0.570497 0)
(0.796451 0.602917 0)
(0.788998 0.652854 0)
(0.785401 0.711555 0)
(0.802778 0.778895 0)
(0.846147 0.854932 0)
(0.918314 0.936712 0)
(1.03165 1.01681 0)
(1.18615 1.07029 0)
(2.99999 1.22224e-06 0)
(2.99996 7.85355e-06 0)
(2.9999 2.4449e-05 0)
(2.99976 6.68416e-05 0)
(2.99942 0.000155567 0)
(2.99873 0.000376059 0)
(2.99689 0.000818225 0)
(2.99325 0.00196415 0)
(2.98283 0.00417342 0)
(2.96244 0.0104421 0)
(2.90018 0.0224031 0)
(2.74879 0.0610256 0)
(2.36086 0.142722 0)
(1.33408 0.400486 0)
(0.740738 0.562046 0)
(0.74615 0.610014 0)
(0.812338 0.620037 0)
(0.857547 0.640272 0)
(0.85866 0.679917 0)
(0.858999 0.73016 0)
(0.880078 0.786606 0)
(0.926421 0.848392 0)
(0.998513 0.911644 0)
(1.10187 0.969866 0)
(1.23613 1.00754 0)
(2.99999 1.08183e-06 0)
(2.99997 6.94752e-06 0)
(2.99991 2.16323e-05 0)
(2.9998 5.90685e-05 0)
(2.99952 0.000137532 0)
(2.99895 0.000331381 0)
(2.99743 0.000723154 0)
(2.99443 0.00171888 0)
(2.9857 0.00368952 0)
(2.96957 0.00882633 0)
(2.91691 0.0201023 0)
(2.79401 0.0487098 0)
(2.466 0.120031 0)
(1.52595 0.31754 0)
(0.845211 0.598386 0)
(0.785061 0.656142 0)
(0.837303 0.674418 0)
(0.893718 0.680373 0)
(0.913122 0.706752 0)
(0.922596 0.746395 0)
(0.94712 0.791897 0)
(0.993626 0.840421 0)
(1.06175 0.888669 0)
(1.15356 0.931413 0)
(1.26859 0.959303 0)
(2.99999 9.63947e-07 0)
(2.99997 6.19421e-06 0)
(2.99993 1.92851e-05 0)
(2.99984 5.27152e-05 0)
(2.99961 0.000122719 0)
(2.99915 0.000296381 0)
(2.99791 0.000645261 0)
(2.99549 0.00154398 0)
(2.98833 0.00328501 0)
(2.97575 0.0081686 0)
(2.9317 0.0174061 0)
(2.83834 0.0459176 0)
(2.56806 0.110171 0)
(1.76064 0.302027 0)
(1.01383 0.648979 0)
(0.82351 0.687175 0)
(0.855384 0.705357 0)
(0.913402 0.705483 0)
(0.952318 0.724118 0)
(0.973951 0.75632 0)
(1.00297 0.793906 0)
(1.04911 0.832463 0)
(1.11283 0.869515 0)
(1.19453 0.901578 0)
(1.2935 0.922975 0)
(2.99999 8.54219e-07 0)
(2.99998 5.4955e-06 0)
(2.99994 1.71093e-05 0)
(2.99987 4.68645e-05 0)
(2.99969 0.000109133 0)
(2.99932 0.000264679 0)
(2.99835 0.000575107 0)
(2.99643 0.00139025 0)
(2.99084 0.00292748 0)
(2.98097 0.00757883 0)
(2.94694 0.015163 0)
(2.8772 0.0443649 0)
(2.67156 0.0988144 0)
(2.04424 0.291362 0)
(1.22822 0.679329 0)
(0.887447 0.71846 0)
(0.890559 0.726472 0)
(0.940313 0.723667 0)
(0.990411 0.73304 0)
(1.02058 0.759156 0)
(1.05208 0.791432 0)
(1.09632 0.823568 0)
(1.15519 0.853121 0)
(1.22834 0.877968 0)
(1.31438 0.89475 0)
(2.99999 7.24759e-07 0)
(2.99998 4.65799e-06 0)
(2.99996 1.45021e-05 0)
(2.9999 3.96674e-05 0)
(2.99976 9.23313e-05 0)
(2.99948 0.000223403 0)
(2.99874 0.0004852 0)
(2.99727 0.00116766 0)
(2.99314 0.00245937 0)
(2.9856 0.00629473 0)
(2.96122 0.0125457 0)
(2.91289 0.0355321 0)
(2.76949 0.0806243 0)
(2.3517 0.224798 0)
(1.54751 0.569909 0)
(1.02753 0.720303 0)
(0.968073 0.74272 0)
(0.990484 0.74681 0)
(1.03738 0.746509 0)
(1.07264 0.764142 0)
(1.10299 0.790258 0)
(1.14222 0.816809 0)
(1.19428 0.840638 0)
(1.25874 0.860074 0)
(1.33359 0.873108 0)
(3 5.87498e-07 0)
(2.99999 3.76806e-06 0)
(2.99997 1.17326e-05 0)
(2.99992 3.19813e-05 0)
(2.99982 7.4389e-05 0)
(2.9996 0.00017874 0)
(2.99904 0.000388441 0)
(2.99792 0.000920799 0)
(2.99483 0.0019494 0)
(2.98908 0.00479055 0)
(2.97058 0.00975906 0)
(2.93733 0.0256702 0)
(2.82328 0.0572777 0)
(2.52677 0.152405 0)
(1.85408 0.387558 0)
(1.14851 0.731863 0)
(1.01843 0.766902 0)
(1.02926 0.779127 0)
(1.07455 0.774445 0)
(1.11889 0.779583 0)
(1.15118 0.796381 0)
(1.18634 0.816119 0)
(1.23156 0.834165 0)
(1.28752 0.84864 0)
(1.35251 0.858096 0)
(3 4.72195e-07 0)
(2.99999 3.02881e-06 0)
(2.99998 9.43406e-06 0)
(2.99994 2.57133e-05 0)
(2.99987 5.98599e-05 0)
(2.9997 0.00014366 0)
(2.99929 0.000312898 0)
(2.99845 0.000738577 0)
(2.99615 0.00157029 0)
(2.99187 0.00382451 0)
(2.97817 0.00778281 0)
(2.95426 0.0213039 0)
(2.87039 0.0422842 0)
(2.66366 0.131291 0)
(2.16068 0.308145 0)
(1.34178 0.745524 0)
(1.07031 0.807056 0)
(1.06431 0.814873 0)
(1.10048 0.808322 0)
(1.15145 0.800973 0)
(1.19119 0.807339 0)
(1.22604 0.819925 0)
(1.26636 0.832657 0)
(1.3152 0.842836 0)
(1.37187 0.849231 0)
(3 3.73691e-07 0)
(2.99999 2.39728e-06 0)
(2.99998 7.46751e-06 0)
(2.99996 2.03573e-05 0)
(2.9999 4.7397e-05 0)
(2.99978 0.000113782 0)
(2.99948 0.000247903 0)
(2.99887 0.000585268 0)
(2.99723 0.00124508 0)
(2.99406 0.0030238 0)
(2.98486 0.00619483 0)
(2.96703 0.0165766 0)
(2.91314 0.0334908 0)
(2.78391 0.0985779 0)
(2.45532 0.231566 0)
(1.63818 0.620841 0)
(1.19059 0.807266 0)
(1.12178 0.83074 0)
(1.13715 0.834454 0)
(1.18299 0.823437 0)
(1.22817 0.819992 0)
(1.26396 0.825634 0)
(1.30062 0.833605 0)
(1.34338 0.840194 0)
(1.3927 0.843987 0)
(3 2.8823e-07 0)
(3 1.84851e-06 0)
(2.99999 5.75773e-06 0)
(2.99997 1.56861e-05 0)
(2.99993 3.65119e-05 0)
(2.99985 8.75356e-05 0)
(2.99963 0.00019073 0)
(2.9992 0.00044903 0)
(2.99805 0.000956471 0)
(2.99583 0.00228719 0)
(2.9893 0.00482606 0)
(2.97769 0.0118756 0)
(2.93876 0.0259641 0)
(2.85499 0.0656644 0)
(2.62192 0.158845 0)
(1.94987 0.427636 0)
(1.34698 0.792952 0)
(1.17433 0.847098 0)
(1.17131 0.857145 0)
(1.20636 0.848748 0)
(1.25583 0.837128 0)
(1.29665 0.834825 0)
(1.33232 0.837626 0)
(1.37071 0.840889 0)
(1.41422 0.842312 0)
(3 2.16481e-07 0)
(3 1.38795e-06 0)
(2.99999 4.32198e-06 0)
(2.99998 1.17621e-05 0)
(2.99995 2.73648e-05 0)
(2.99989 6.5452e-05 0)
(2.99975 0.000142502 0)
(2.99945 0.000334095 0)
(2.99867 0.00071078 0)
(2.99716 0.00169147 0)
(2.99274 0.00354276 0)
(2.98514 0.00885165 0)
(2.95834 0.0182189 0)
(2.90887 0.0484922 0)
(2.75235 0.112651 0)
(2.29127 0.311128 0)
(1.62717 0.70504 0)
(1.28005 0.841528 0)
(1.22769 0.865896 0)
(1.24077 0.869711 0)
(1.28255 0.85747 0)
(1.32649 0.84852 0)
(1.36312 0.845695 0)
(1.39854 0.84541 0)
(1.43704 0.844709 0)
(3 1.48193e-07 0)
(3 1.03922e-06 0)
(2.99999 3.05257e-06 0)
(2.99999 8.72561e-06 0)
(2.99997 1.92861e-05 0)
(2.99993 4.84491e-05 0)
(2.99983 9.96121e-05 0)
(2.99963 0.000247112 0)
(2.99911 0.000489701 0)
(2.9981 0.00125119 0)
(2.99519 0.0023711 0)
(2.99019 0.00661801 0)
(2.97252 0.011259 0)
(2.94282 0.0376919 0)
(2.83809 0.064701 0)
(2.56418 0.223444 0)
(1.97773 0.501451 0)
(1.40978 0.833114 0)
(1.28237 0.882115 0)
(1.2762 0.891173 0)
(1.3051 0.882385 0)
(1.34949 0.867603 0)
(1.38897 0.858904 0)
(1.42434 0.854404 0)
(1.46002 0.851166 0)
(3 1.02757e-07 0)
(3 7.16606e-07 0)
(3 2.11108e-06 0)
(2.99999 6.00938e-06 0)
(2.99998 1.32971e-05 0)
(2.99995 3.32044e-05 0)
(2.99989 6.82954e-05 0)
(2.99974 0.000168085 0)
(2.99945 0.000333503 0)
(2.99866 0.000842757 0)
(2.99717 0.00160869 0)
(2.99264 0.00438001 0)
(2.98515 0.00765179 0)
(2.95748 0.0245725 0)
(2.90751 0.0416925 0)
(2.74202 0.141463 0)
(2.29145 0.332929 0)
(1.67897 0.738492 0)
(1.37552 0.873637 0)
(1.32597 0.898548 0)
(1.33466 0.902796 0)
(1.37078 0.889385 0)
(1.41258 0.874826 0)
(1.44869 0.86662 0)
(1.48262 0.86083 0)
(3 7.90513e-08 0)
(3 4.53347e-07 0)
(3 1.51925e-06 0)
(2.99999 3.86583e-06 0)
(2.99999 9.55791e-06 0)
(2.99997 2.12308e-05 0)
(2.99993 4.9432e-05 0)
(2.99983 0.000105766 0)
(2.99964 0.000245345 0)
(2.99912 0.000516442 0)
(2.99812 0.00122657 0)
(2.99529 0.00251154 0)
(2.99025 0.00643514 0)
(2.97334 0.0125687 0)
(2.9442 0.0359684 0)
(2.84424 0.0760408 0)
(2.58004 0.222623 0)
(2.03535 0.536532 0)
(1.51671 0.856521 0)
(1.38698 0.910339 0)
(1.37281 0.920145 0)
(1.39093 0.912842 0)
(1.43029 0.895178 0)
(1.47037 0.882073 0)
(1.504 0.872897 0)
(3 5.44437e-08 0)
(3 3.12223e-07 0)
(3 1.04681e-06 0)
(3 2.66207e-06 0)
(2.99999 6.58167e-06 0)
(2.99998 1.46167e-05 0)
(2.99995 3.4003e-05 0)
(2.99989 7.28044e-05 0)
(2.99977 0.000168374 0)
(2.99944 0.000354956 0)
(2.99882 0.000832672 0)
(2.99707 0.00172992 0)
(2.99391 0.00423146 0)
(2.98375 0.00847479 0)
(2.96668 0.0230716 0)
(2.90706 0.045695 0)
(2.76837 0.136518 0)
(2.42651 0.325354 0)
(1.77457 0.73812 0)
(1.47123 0.896741 0)
(1.4168 0.92456 0)
(1.41816 0.9287 0)
(1.4474 0.9169 0)
(1.48797 0.898308 0)
(1.523 0.884985 0)
(3 3.81192e-08 0)
(3 2.05624e-07 0)
(3 7.18283e-07 0)
(3 1.76197e-06 0)
(2.99999 4.50595e-06 0)
(2.99999 9.64499e-06 0)
(2.99997 2.32617e-05 0)
(2.99993 4.77304e-05 0)
(2.99985 0.000115138 0)
(2.99965 0.000230516 0)
(2.99925 0.000568154 0)
(2.99817 0.00111046 0)
(2.99614 0.0028611 0)
(2.99014 0.00531442 0)
(2.97903 0.0153139 0)
(2.94462 0.0269176 0)
(2.86951 0.0861111 0)
(2.66455 0.180153 0)
(2.11769 0.50435 0)
(1.64558 0.834195 0)
(1.48222 0.916452 0)
(1.4568 0.933841 0)
(1.46673 0.933728 0)
(1.50013 0.91781 0)
(1.53893 0.899566 0)
(3 2.42846e-08 0)
(3 1.39221e-07 0)
(3 4.66956e-07 0)
(3 1.18764e-06 0)
(3 2.93991e-06 0)
(2.99999 6.53416e-06 0)
(2.99998 1.52354e-05 0)
(2.99996 3.27014e-05 0)
(2.99991 7.58258e-05 0)
(2.99981 0.000160891 0)
(2.99954 0.000375787 0)
(2.99902 0.000798742 0)
(2.99757 0.00186707 0)
(2.99493 0.00401057 0)
(2.98669 0.00938507 0)
(2.97208 0.0205925 0)
(2.92432 0.0487678 0)
(2.81844 0.118323 0)
(2.53116 0.285968 0)
(1.92954 0.685653 0)
(1.59424 0.882222 0)
(1.5124 0.928356 0)
(1.50157 0.940403 0)
(1.51669 0.935977 0)
(1.55008 0.918881 0)
(3 1.32155e-08 0)
(3 8.88605e-08 0)
(3 2.6749e-07 0)
(3 7.43189e-07 0)
(3 1.67056e-06 0)
(3 4.0499e-06 0)
(2.99999 8.46509e-06 0)
(2.99998 2.00631e-05 0)
(2.99995 4.07519e-05 0)
(2.99989 9.75973e-05 0)
(2.99978 0.000194294 0)
(2.99944 0.000476914 0)
(2.99894 0.000929967 0)
(2.9969 0.00238142 0)
(2.99437 0.00448689 0)
(2.98182 0.0124525 0)
(2.96519 0.0231749 0)
(2.89069 0.0674744 0)
(2.73195 0.15056 0)
(2.34606 0.390051 0)
(1.77414 0.784304 0)
(1.57117 0.911144 0)
(1.53313 0.940707 0)
(1.5349 0.946554 0)
(1.5582 0.937991 0)
(3 8.4385e-09 0)
(3 4.85117e-08 0)
(3 1.61278e-07 0)
(3 4.08987e-07 0)
(3 9.9469e-07 0)
(3 2.18831e-06 0)
(2.99999 4.96273e-06 0)
(2.99999 1.046e-05 0)
(2.99997 2.3411e-05 0)
(2.99993 4.82696e-05 0)
(2.99985 0.000109977 0)
(2.99964 0.000216494 0)
(2.99924 0.000538736 0)
(2.99811 0.000959677 0)
(2.99605 0.00284467 0)
(2.9897 0.00480817 0)
(2.97834 0.0162526 0)
(2.94192 0.0291174 0)
(2.8621 0.0982787 0)
(2.65095 0.217879 0)
(2.11808 0.571645 0)
(1.72344 0.863565 0)
(1.59183 0.93688 0)
(1.5664 0.953348 0)
(1.57264 0.953417 0)
(3 5.29264e-09 0)
(3 3.03646e-08 0)
(3 1.01562e-07 0)
(3 2.57977e-07 0)
(3 6.34904e-07 0)
(3 1.40596e-06 0)
(3 3.2518e-06 0)
(2.99999 6.94505e-06 0)
(2.99998 1.59759e-05 0)
(2.99996 3.37458e-05 0)
(2.99992 7.85225e-05 0)
(2.9998 0.000165356 0)
(2.99959 0.000389933 0)
(2.99899 0.000824371 0)
(2.9979 0.00195995 0)
(2.9946 0.00416424 0)
(2.98898 0.0100353 0)
(2.97042 0.0215636 0)
(2.93381 0.0530285 0)
(2.83001 0.123099 0)
(2.53705 0.318017 0)
(2.04995 0.673956 0)
(1.71669 0.884048 0)
(1.62906 0.939705 0)
(1.61028 0.954549 0)
(3 3.08044e-09 0)
(3 1.76878e-08 0)
(3 5.89999e-08 0)
(3 1.49672e-07 0)
(3 3.66353e-07 0)
(3 8.08628e-07 0)
(3 1.85339e-06 0)
(3 3.93784e-06 0)
(2.99999 8.93693e-06 0)
(2.99998 1.87372e-05 0)
(2.99996 4.28147e-05 0)
(2.99991 8.91244e-05 0)
(2.99982 0.000206271 0)
(2.99952 0.000425967 0)
(2.99914 0.00100786 0)
(2.99738 0.00204271 0)
(2.99551 0.00506638 0)
(2.98418 0.0101252 0)
(2.97119 0.026344 0)
(2.90569 0.0570538 0)
(2.77267 0.152221 0)
(2.4594 0.359262 0)
(1.91839 0.746558 0)
(1.69608 0.9039 0)
(1.64408 0.946585 0)
(3 1.7277e-09 0)
(3 9.55746e-09 0)
(3 3.25845e-08 0)
(3 8.06691e-08 0)
(3 1.99674e-07 0)
(3 4.28199e-07 0)
(3 9.87125e-07 0)
(3 2.02161e-06 0)
(3 4.60283e-06 0)
(2.99999 9.19868e-06 0)
(2.99998 2.11276e-05 0)
(2.99994 4.10267e-05 0)
(2.99988 9.76602e-05 0)
(2.99971 0.000177396 0)
(2.9994 0.000471649 0)
(2.99847 0.000745808 0)
(2.99689 0.00248241 0)
(2.99161 0.00354283 0)
(2.9831 0.0145951 0)
(2.95296 0.0219669 0)
(2.89274 0.0873706 0)
(2.72687 0.172616 0)
(2.2924 0.482595 0)
(1.89719 0.781106 0)
(1.7224 0.906684 0)
(3 9.60845e-10 0)
(3 5.52507e-09 0)
(3 1.83859e-08 0)
(3 4.66015e-08 0)
(3 1.13454e-07 0)
(3 2.49555e-07 0)
(3 5.67681e-07 0)
(3 1.20042e-06 0)
(3 2.70418e-06 0)
(2.99999 5.64581e-06 0)
(2.99999 1.28356e-05 0)
(2.99997 2.66596e-05 0)
(2.99993 6.15904e-05 0)
(2.99986 0.0001275 0)
(2.99966 0.000300874 0)
(2.99931 0.000615467 0)
(2.99822 0.00150843 0)
(2.99644 0.0030232 0)
(2.99021 0.00783259 0)
(2.98029 0.0156099 0)
(2.94521 0.0418102 0)
(2.87471 0.0929986 0)
(2.6761 0.23591 0)
(2.22276 0.569157 0)
(1.88465 0.823584 0)
(3 4.89792e-10 0)
(3 3.20153e-09 0)
(3 9.77975e-09 0)
(3 2.66161e-08 0)
(3 6.03084e-08 0)
(3 1.42271e-07 0)
(3 2.99247e-07 0)
(3 6.85628e-07 0)
(3 1.40507e-06 0)
(3 3.23385e-06 0)
(2.99999 6.5392e-06 0)
(2.99999 1.52938e-05 0)
(2.99997 3.06498e-05 0)
(2.99993 7.31608e-05 0)
(2.99985 0.000144575 0)
(2.99962 0.000357312 0)
(2.99925 0.000685085 0)
(2.99801 0.00180151 0)
(2.99615 0.00331897 0)
(2.98908 0.009448 0)
(2.97851 0.0172787 0)
(2.93922 0.0505118 0)
(2.86086 0.105722 0)
(2.6469 0.281209 0)
(2.18841 0.61206 0)
(3 2.94672e-10 0)
(3 1.65265e-09 0)
(3 5.5799e-09 0)
(3 1.3949e-08 0)
(3 3.43169e-08 0)
(3 7.45321e-08 0)
(3 1.7112e-07 0)
(3 3.56905e-07 0)
(3 8.11414e-07 0)
(3 1.66712e-06 0)
(3 3.82736e-06 0)
(2.99999 7.78458e-06 0)
(2.99999 1.82263e-05 0)
(2.99996 3.64817e-05 0)
(2.99993 8.78781e-05 0)
(2.99982 0.000170887 0)
(2.99964 0.000429143 0)
(2.99908 0.000802376 0)
(2.9982 0.00213805 0)
(2.9951 0.00384224 0)
(2.99062 0.0111129 0)
(2.97304 0.0194227 0)
(2.94483 0.0588013 0)
(2.85001 0.114425 0)
(2.61361 0.32439 0)
(3 1.51811e-10 0)
(3 8.70982e-10 0)
(3 2.89209e-09 0)
(3 7.31506e-09 0)
(3 1.77397e-08 0)
(3 3.89327e-08 0)
(3 8.80291e-08 0)
(3 1.85528e-07 0)
(3 4.14267e-07 0)
(3 8.61228e-07 0)
(3 1.93276e-06 0)
(3 4.00444e-06 0)
(2.99999 9.05024e-06 0)
(2.99999 1.88173e-05 0)
(2.99997 4.27061e-05 0)
(2.99995 8.86392e-05 0)
(2.99986 0.000204063 0)
(2.99974 0.00041507 0)
(2.99929 0.000990115 0)
(2.9987 0.00192404 0)
(2.99556 0.00493714 0)
(2.9925 0.00936785 0)
(2.97255 0.0249529 0)
(2.94632 0.0505065 0)
(2.84948 0.128702 0)
(3 6.74413e-11 0)
(3 4.22371e-10 0)
(3 1.31718e-09 0)
(3 3.48458e-09 0)
(3 7.98918e-09 0)
(3 1.81945e-08 0)
(3 3.85741e-08 0)
(3 8.42619e-08 0)
(3 1.73542e-07 0)
(3 3.75171e-07 0)
(3 7.59116e-07 0)
(3 1.6572e-06 0)
(3 3.23856e-06 0)
(3 7.44979e-06 0)
(2.99999 1.36988e-05 0)
(2.99998 3.36753e-05 0)
(2.99996 6.00655e-05 0)
(2.99988 0.00015374 0)
(2.99976 0.000279916 0)
(2.99933 0.000726097 0)
(2.99878 0.00127132 0)
(2.99566 0.00415121 0)
(2.9928 0.00696502 0)
(2.97187 0.0236951 0)
(2.94439 0.0452583 0)
(3 3.1063e-11 0)
(3 1.79463e-10 0)
(3 5.88199e-10 0)
(3 1.48399e-09 0)
(3 3.52807e-09 0)
(3 7.65773e-09 0)
(3 1.67667e-08 0)
(3 3.46769e-08 0)
(3 7.39862e-08 0)
(3 1.49856e-07 0)
(3 3.18714e-07 0)
(3 6.30211e-07 0)
(3 1.37937e-06 0)
(3 2.59309e-06 0)
(3 6.137e-06 0)
(2.99999 1.07938e-05 0)
(2.99998 2.8086e-05 0)
(2.99996 4.89871e-05 0)
(2.99988 0.000132931 0)
(2.99976 0.000251036 0)
(2.99936 0.000649923 0)
(2.9989 0.00113026 0)
(2.99548 0.00389585 0)
(2.99205 0.00636522 0)
(2.97155 0.0232665 0)
(3 1.21126e-11 0)
(3 7.51715e-11 0)
(3 2.34333e-10 0)
(3 6.13232e-10 0)
(3 1.39738e-09 0)
(3 3.12098e-09 0)
(3 6.53458e-09 0)
(3 1.38745e-08 0)
(3 2.81011e-08 0)
(3 5.87749e-08 0)
(3 1.16109e-07 0)
(3 2.47149e-07 0)
(3 4.67723e-07 0)
(3 1.05317e-06 0)
(3 1.86723e-06 0)
(3 4.628e-06 0)
(2.99999 7.88906e-06 0)
(2.99998 2.22306e-05 0)
(2.99997 3.84418e-05 0)
(2.99989 0.000113079 0)
(2.99975 0.00022526 0)
(2.99936 0.00058735 0)
(2.99885 0.00102253 0)
(2.99529 0.00381388 0)
(2.99184 0.00669243 0)
(3 4.87379e-12 0)
(3 2.83253e-11 0)
(3 9.21129e-11 0)
(3 2.32163e-10 0)
(3 5.45222e-10 0)
(3 1.17442e-09 0)
(3 2.51839e-09 0)
(3 5.13469e-09 0)
(3 1.06878e-08 0)
(3 2.11019e-08 0)
(3 4.42316e-08 0)
(3 8.42853e-08 0)
(3 1.83657e-07 0)
(3 3.35421e-07 0)
(3 7.70021e-07 0)
(3 1.3969e-06 0)
(3 3.42857e-06 0)
(2.99999 5.86824e-06 0)
(2.99998 1.84833e-05 0)
(2.99995 3.16099e-05 0)
(2.99988 0.000106004 0)
(2.9998 0.000221539 0)
(2.99928 0.000568904 0)
(2.99879 0.00106035 0)
(2.99526 0.00386439 0)
(3 1.72318e-12 0)
(3 1.07845e-11 0)
(3 3.33605e-11 0)
(3 8.72922e-11 0)
(3 1.96504e-10 0)
(3 4.34294e-10 0)
(3 8.89959e-10 0)
(3 1.85749e-09 0)
(3 3.60957e-09 0)
(3 7.51256e-09 0)
(3 1.375e-08 0)
(3 2.96458e-08 0)
(3 5.05768e-08 0)
(3 1.18213e-07 0)
(3 1.92887e-07 0)
(3 5.10526e-07 0)
(3 7.55876e-07 0)
(3 2.97196e-06 0)
(2.99999 4.5746e-06 0)
(2.99998 1.88731e-05 0)
(2.99995 3.82395e-05 0)
(2.99989 0.000105725 0)
(2.99982 0.000167529 0)
(2.99928 0.000633614 0)
(2.9988 0.000919584 0)
(3 6.69637e-13 0)
(3 3.91468e-12 0)
(3 1.26778e-11 0)
(3 3.19559e-11 0)
(3 7.42817e-11 0)
(3 1.58941e-10 0)
(3 3.34575e-10 0)
(3 6.7332e-10 0)
(3 1.36755e-09 0)
(3 2.64257e-09 0)
(3 5.42361e-09 0)
(3 9.92223e-09 0)
(3 2.16024e-08 0)
(3 3.70269e-08 0)
(3 8.86779e-08 0)
(3 1.51882e-07 0)
(3 4.01993e-07 0)
(3 6.35857e-07 0)
(3 2.59325e-06 0)
(2.99999 4.25566e-06 0)
(2.99998 1.76445e-05 0)
(2.99994 3.93399e-05 0)
(2.9999 9.64232e-05 0)
(2.99968 0.000163449 0)
(2.9994 0.000584604 0)
(3 2.82532e-13 0)
(3 1.62739e-12 0)
(3 5.35465e-12 0)
(3 1.34911e-11 0)
(3 3.20506e-11 0)
(3 6.932e-11 0)
(3 1.51785e-10 0)
(3 3.13e-10 0)
(3 6.75266e-10 0)
(3 1.3774e-09 0)
(3 3.00263e-09 0)
(3 6.15869e-09 0)
(3 1.37845e-08 0)
(3 2.84037e-08 0)
(3 6.66907e-08 0)
(3 1.37856e-07 0)
(3 3.41014e-07 0)
(3 7.04743e-07 0)
(3 1.8149e-06 0)
(3 3.68089e-06 0)
(2.99999 9.82867e-06 0)
(2.99998 1.91273e-05 0)
(2.99996 5.25193e-05 0)
(2.99987 9.51961e-05 0)
(2.99978 0.000287672 0)
(3 1.24528e-13 0)
(3 7.15705e-13 0)
(3 2.35829e-12 0)
(3 5.94503e-12 0)
(3 1.4202e-11 0)
(3 3.08364e-11 0)
(3 6.82176e-11 0)
(3 1.41531e-10 0)
(3 3.09456e-10 0)
(3 6.33642e-10 0)
(3 1.40668e-09 0)
(3 2.87953e-09 0)
(3 6.55851e-09 0)
(3 1.34708e-08 0)
(3 3.15147e-08 0)
(3 6.47496e-08 0)
(3 1.55386e-07 0)
(3 3.15984e-07 0)
(3 7.79842e-07 0)
(3 1.54857e-06 0)
(3 3.95774e-06 0)
(2.99999 7.51169e-06 0)
(2.99999 2.04383e-05 0)
(2.99996 3.59202e-05 0)
(2.99993 0.000110125 0)
(3 5.46442e-14 0)
(3 3.09907e-13 0)
(3 1.02721e-12 0)
(3 2.5676e-12 0)
(3 6.13281e-12 0)
(3 1.31639e-11 0)
(3 2.89597e-11 0)
(3 5.89433e-11 0)
(3 1.28569e-10 0)
(3 2.5278e-10 0)
(3 5.83756e-10 0)
(3 1.11492e-09 0)
(3 2.76343e-09 0)
(3 5.33281e-09 0)
(3 1.31407e-08 0)
(3 2.53944e-08 0)
(3 6.16572e-08 0)
(3 1.11597e-07 0)
(3 2.95793e-07 0)
(3 5.02557e-07 0)
(3 1.39278e-06 0)
(3 2.21699e-06 0)
(2.99999 6.97575e-06 0)
(2.99998 1.08003e-05 0)
(2.99996 3.50775e-05 0)
(3 2.31102e-14 0)
(3 1.31826e-13 0)
(3 4.35589e-13 0)
(3 1.09583e-12 0)
(3 2.61722e-12 0)
(3 5.67754e-12 0)
(3 1.25864e-11 0)
(3 2.61014e-11 0)
(3 5.74175e-11 0)
(3 1.17782e-10 0)
(3 2.63847e-10 0)
(3 5.45055e-10 0)
(3 1.2445e-09 0)
(3 2.60532e-09 0)
(3 5.99795e-09 0)
(3 1.25647e-08 0)
(3 2.90091e-08 0)
(3 5.94779e-08 0)
(3 1.40183e-07 0)
(3 2.76048e-07 0)
(3 6.7148e-07 0)
(3 1.22956e-06 0)
(3 3.38962e-06 0)
(2.99999 5.61931e-06 0)
(2.99998 1.85752e-05 0)
(3 5.53774e-15 0)
(3 3.73107e-14 0)
(3 1.12358e-13 0)
(3 3.04207e-13 0)
(3 6.72738e-13 0)
(3 1.54736e-12 0)
(3 3.15739e-12 0)
(3 6.93732e-12 0)
(3 1.36162e-11 0)
(3 3.0312e-11 0)
(3 5.59238e-11 0)
(3 1.35796e-10 0)
(3 2.23968e-10 0)
(3 6.15425e-10 0)
(3 9.25453e-10 0)
(3 2.85765e-09 0)
(3 3.9383e-09 0)
(3 1.34577e-08 0)
(3 1.65508e-08 0)
(3 6.98496e-08 0)
(3 7.28858e-08 0)
(3 3.57203e-07 0)
(3 3.19471e-07 0)
(3 1.9721e-06 0)
(2.99999 2.39914e-06 0)
(1.17777 1.21576 0)
(1.5967 1.12773 0)
(1.8605 1.01983 0)
(2.0275 0.896948 0)
(2.1226 0.75087 0)
(2.15054 0.578864 0)
(2.13441 0.391737 0)
(2.08316 0.206089 0)
(1.96922 0.0396369 0)
(1.83465 -0.0550291 0)
(1.73155 -0.0609962 0)
(1.68376 -0.0264273 0)
(1.67099 0.0125292 0)
(1.66973 0.0357404 0)
(1.66856 0.0427823 0)
(1.66629 0.0386963 0)
(1.66267 0.0288008 0)
(1.65738 0.017634 0)
(1.65078 0.0091926 0)
(1.64594 0.00427449 0)
(1.64407 0.00180375 0)
(1.6447 0.000559114 0)
(1.64699 -0.000230299 0)
(1.65037 -0.000806379 0)
(1.65459 -0.00125657 0)
(1.65936 -0.00155551 0)
(1.6645 -0.00174489 0)
(1.66983 -0.00179047 0)
(1.67522 -0.00169262 0)
(1.6806 -0.00149602 0)
(1.68569 -0.00123758 0)
(1.69013 -0.000918364 0)
(1.69401 -0.00053025 0)
(1.69758 -0.000102981 0)
(1.70111 0.000319974 0)
(1.70454 0.000596638 0)
(1.70768 0.000776674 0)
(1.71061 0.00090782 0)
(1.71345 0.00100133 0)
(1.7163 0.00103045 0)
(1.71919 0.00098221 0)
(1.72205 0.000862373 0)
(1.72434 0.000733581 0)
(1.72546 0.000611491 0)
(1.7258 0.000395092 0)
(1.72496 0.000119821 0)
(1.72039 -0.000131249 0)
(1.70657 -0.000170335 0)
(1.67143 0.000275149 0)
(1.58866 0.00176534 0)
(1.39889 0.00568193 0)
(0.96312 0.0173874 0)
(0.196506 0.0620462 0)
(-0.264129 0.0917659 0)
(-0.182901 0.0122567 0)
(0.151014 -0.0536507 0)
(0.350305 -0.0745632 0)
(0.493325 -0.0788689 0)
(0.610327 -0.0768614 0)
(0.706331 -0.0694766 0)
(0.789197 -0.062025 0)
(0.862031 -0.0537148 0)
(0.928333 -0.0461614 0)
(0.989127 -0.0399396 0)
(1.04543 -0.0349279 0)
(1.09805 -0.030808 0)
(1.14778 -0.0274649 0)
(1.1952 -0.0246762 0)
(1.24073 -0.0223195 0)
(1.28462 -0.0202548 0)
(1.32711 -0.0184039 0)
(1.36835 -0.0166832 0)
(1.40855 -0.0150791 0)
(1.44781 -0.0135568 0)
(1.48622 -0.0121227 0)
(1.5238 -0.0107531 0)
(1.56061 -0.009456 0)
(1.59665 -0.00821464 0)
(1.63199 -0.00704841 0)
(1.66665 -0.00594873 0)
(1.70068 -0.00493083 0)
(1.73408 -0.0039768 0)
(1.76689 -0.00310544 0)
(1.79911 -0.00229677 0)
(1.8308 -0.00158317 0)
(1.86198 -0.000939861 0)
(1.89278 -0.000421863 0)
(1.92307 8.94589e-05 0)
(1.95288 0.000479192 0)
(1.98216 0.000911031 0)
(2.01089 0.00127567 0)
(2.03908 0.00167395 0)
(2.06671 0.00201043 0)
(2.09374 0.0023721 0)
(2.12018 0.00270371 0)
(2.14591 0.00305945 0)
(2.17076 0.00342137 0)
(2.1941 0.00388063 0)
(2.21434 0.00454031 0)
(2.22896 0.00566441 0)
(1.32098 1.14627 0)
(1.63945 0.982354 0)
(1.86182 0.781748 0)
(2.00146 0.564377 0)
(2.07182 0.344547 0)
(2.09216 0.142406 0)
(2.09325 -0.0259921 0)
(2.09743 -0.156889 0)
(2.11071 -0.238924 0)
(2.12304 -0.261369 0)
(2.12611 -0.234566 0)
(2.11978 -0.184299 0)
(2.10235 -0.1317 0)
(2.07997 -0.089432 0)
(2.06025 -0.0620877 0)
(2.04779 -0.0471907 0)
(2.04189 -0.0418468 0)