/*--------------------------------*- C++ -*----------------------------------*\
  =========                 |
  \\      /  F ield         | OpenFOAM: The Open Source CFD Toolbox
   \\    /   O peration     | Website:  https://openfoam.org
    \\  /    A nd           | Version:  6
     \\/     M anipulation  |
\*---------------------------------------------------------------------------*/
FoamFile
{
    version     2.0;
    format      ascii;
    class       surfaceScalarField;
    location    "9.5";
    object      phi;
}
// * * * * * * * * * * * * * * * * * * * * * * * * * * * * * * * * * * * * * //

dimensions      [1 0 -1 0 0 0 0];

internalField   nonuniform List<scalar> 
10325
(
0.00840001
7.06322e-10
0.0084
4.42355e-09
0.00839998
1.34383e-08
0.00839993
3.57764e-08
0.00839984
8.08965e-08
0.00839958
1.92841e-07
0.00839908
4.10205e-07
0.00839775
1.01481e-06
0.00839503
2.31129e-06
0.00838745
6.5991e-06
0.00837042
1.69092e-05
0.00827682
8.40256e-05
0.00783894
0.000420997
0.00727181
0.000560367
0.00666771
0.000601893
0.00606868
0.000598612
0.00546262
0.00060743
0.0048628
0.000596631
0.00424098
0.000621833
0.00358135
0.000662395
0.00288852
0.000691634
0.00218099
0.000707512
0.00146573
0.000715778
0.000738017
0.000723974
0.000737548
0.00840001
1.48285e-09
0.0084
9.31016e-09
0.00839998
2.81694e-08
0.00839993
7.52793e-08
0.00839982
1.70516e-07
0.00839954
4.07694e-07
0.00839898
8.82245e-07
0.00839754
2.14344e-06
0.00839426
5.16135e-06
0.00838602
1.3879e-05
0.00836494
3.78466e-05
0.00825241
0.000186988
0.00776698
0.000889477
0.00722743
0.00109311
0.00667571
0.00115136
0.0061111
0.00116274
0.00552507
0.00119485
0.0049116
0.00120697
0.00427195
0.00126143
0.00360453
0.00133248
0.00290818
0.00138673
0.00219449
0.00142109
0.00146732
0.00144344
0.000734471
0.00145308
0.00147167
0.00840001
2.32614e-09
0.0084
1.46122e-08
0.00839998
4.41831e-08
0.00839992
1.18231e-07
0.00839981
2.6862e-07
0.00839951
6.41973e-07
0.00839889
1.40833e-06
0.00839736
3.36359e-06
0.00839366
8.42161e-06
0.00838495
2.16411e-05
0.00836126
6.13232e-05
0.00824269
0.000296055
0.00775022
0.00136486
0.00720611
0.00163019
0.00667569
0.00167946
0.00613561
0.00170235
0.00557015
0.00176183
0.00496046
0.00181362
0.00431809
0.0019036
0.00364628
0.00200689
0.00294392
0.00208796
0.00222018
0.0021446
0.0014812
0.00218271
0.000730532
0.00219997
0.00220155
0.00840001
3.2187e-09
0.0084
2.01949e-08
0.00839998
6.10182e-08
0.00839992
1.63305e-07
0.0083998
3.70198e-07
0.00839949
8.88114e-07
0.00839887
1.93058e-06
0.00839726
4.66384e-06
0.00839361
1.15807e-05
0.00838421
3.01847e-05
0.00835997
8.50438e-05
0.00824174
0.000405122
0.00775146
0.00183696
0.0072088
0.00216704
0.00669348
0.00219243
0.0061737
0.00222174
0.00562604
0.00231102
0.00503098
0.00240586
0.00439412
0.00254003
0.00372423
0.00267879
0.00301845
0.00279193
0.00228376
0.00287887
0.00152445
0.00294227
0.000752758
0.00296787
0.00295265
0.00840001
4.13247e-09
0.0084
2.59346e-08
0.00839998
7.80966e-08
0.00839992
2.09689e-07
0.0083998
4.70048e-07
0.00839948
1.14862e-06
0.00839894
2.38531e-06
0.0083972
6.0846e-06
0.00839395
1.44261e-05
0.00838374
3.93441e-05
0.00835995
0.000108564
0.00824459
0.000511317
0.00776606
0.00229688
0.00722993
0.00269707
0.00672557
0.00269414
0.00622227
0.00272431
0.00569533
0.00283963
0.00511853
0.00297946
0.00449827
0.00315965
0.00384009
0.00333953
0.00313912
0.00349278
0.00239537
0.0036225
0.0016117
0.00372616
0.000803382
0.00377267
0.00375594
0.00840001
5.00283e-09
0.0084
3.13629e-08
0.00839998
9.45814e-08
0.00839992
2.53353e-07
0.00839981
5.68959e-07
0.00839951
1.3814e-06
0.00839893
2.88012e-06
0.0083973
7.3895e-06
0.00839463
1.66722e-05
0.00838363
4.93174e-05
0.00836174
0.000130076
0.00825199
0.000612002
0.00779511
0.00273483
0.00726407
0.00322193
0.00677084
0.00318519
0.00628653
0.00320824
0.00578517
0.00334239
0.00523518
0.0035267
0.00463748
0.00375632
0.00399642
0.00398261
0.00330069
0.00418813
0.00255366
0.00436849
0.00175113
0.00452867
0.000886797
0.00463407
0.00464278
0.00840001
5.88361e-09
0.0084
3.6864e-08
0.00839998
1.11207e-07
0.00839992
2.97588e-07
0.00839981
6.67822e-07
0.0083995
1.61891e-06
0.00839895
3.36128e-06
0.00839728
8.72866e-06
0.00839479
1.88347e-05
0.00838381
5.90884e-05
0.00836166
0.000151113
0.00825995
0.000705966
0.00782938
0.00314697
0.00730645
0.00373679
0.00682419
0.00366535
0.00636716
0.00366553
0.00589634
0.00381527
0.0053808
0.00404034
0.00481752
0.0043189
0.00420744
0.00459429
0.00353554
0.00486032
0.00278463
0.00511821
0.00194866
0.00536495
0.00101451
0.00556406
0.00565585
0.00840001
6.81452e-09
0.0084
4.26871e-08
0.00839998
1.2879e-07
0.00839992
3.44484e-07
0.0083998
7.73364e-07
0.00839948
1.87138e-06
0.00839887
3.89166e-06
0.0083972
1.00572e-05
0.008394
2.17044e-05
0.00838428
6.75686e-05
0.00836084
0.000173448
0.00827226
0.000786867
0.0078681
0.00353274
0.00733742
0.00425901
0.00689625
0.00410483
0.00647589
0.00408641
0.00604773
0.00424648
0.0055707
0.00451659
0.00504732
0.00483913
0.00447809
0.00516461
0.00384379
0.00549543
0.00312602
0.00583507
0.0022758
0.00621396
0.00123971
0.00659719
0.00689403
0.00840001
7.7978e-09
0.0084
4.88451e-08
0.00839998
1.47399e-07
0.00839992
3.94088e-07
0.00839979
8.83584e-07
0.00839945
2.1378e-06
0.00839884
4.42351e-06
0.00839708
1.14745e-05
0.00839402
2.4416e-05
0.00838403
7.6295e-05
0.00836131
0.000194927
0.00828302
0.00085779
0.00791353
0.00388343
0.00738478
0.00477745
0.00699061
0.00449791
0.00661173
0.00446625
0.00622726
0.00463373
0.00580649
0.00493687
0.00534291
0.00530233
0.00483465
0.00567328
0.00429511
0.00603544
0.00364749
0.00648205
0.00282109
0.00704154
0.00171083
0.00770424
0.00860326
0.00840001
8.92095e-09
0.0084
5.58762e-08
0.00839998
1.68726e-07
0.00839991
4.50754e-07
0.00839976
1.01058e-06
0.00839939
2.44006e-06
0.00839868
5.04326e-06
0.00839677
1.30334e-05
0.00839329
2.75287e-05
0.00838278
8.55043e-05
0.00835965
0.00021665
0.00828964
0.000920701
0.00797548
0.00417857
0.0075167
0.00522665
0.00711733
0.00489642
0.00677329
0.0048107
0.00644007
0.0049697
0.00607896
0.00529811
0.00569488
0.00568484
0.00532313
0.0060448
0.0048909
0.00646995
0.00436534
0.00700655
0.00371143
0.00769413
0.00276559
0.00864731
0.0113676
0.00840001
1.03151e-08
0.0084
6.4581e-08
0.00839997
1.95137e-07
0.00839989
5.20811e-07
0.0083997
1.17309e-06
0.00839926
2.8125e-06
0.0083983
5.91039e-06
0.0083962
1.47607e-05
0.00839076
3.25676e-05
0.00838038
9.45041e-05
0.00834715
0.000248396
0.00828173
0.00097897
0.00799843
0.00444292
0.00758121
0.00563409
0.00724138
0.00523608
0.00696264
0.00509076
0.00666017
0.00527437
0.00640216
0.00555593
0.00615251
0.00593345
0.00588303
0.00631338
0.00560254
0.00675113
0.00534301
0.00726724
0.00520257
0.00783521
0.00555463
0.00829343
0.00796226
0.00895744
0.00840001
1.18949e-08
0.0084
7.446e-08
0.00839996
2.24939e-07
0.00839987
6.00518e-07
0.00839966
1.35805e-06
0.00839915
3.2431e-06
0.00839802
6.92386e-06
0.00839561
1.67572e-05
0.00838883
3.88484e-05
0.00837731
0.000104296
0.00833468
0.000291304
0.00825166
0.00105502
0.00789484
0.00478003
0.0076918
0.00582969
0.00736484
0.00556544
0.00710971
0.00534717
0.00690854
0.00547603
0.00674022
0.00572412
0.00662297
0.00605003
0.00649667
0.0064393
0.0063848
0.00686209
0.00642577
0.00722568
0.0067176
0.00754378
0.00736823
0.00764252
0.00702924
0.00829932
0.00840001
1.33873e-08
0.0084
8.38453e-08
0.00839997
2.52911e-07
0.00839987
6.76469e-07
0.00839968
1.52215e-06
0.00839917
3.66703e-06
0.00839829
7.68208e-06
0.0083955
1.91103e-05
0.00839072
4.29919e-05
0.00837759
0.000115729
0.00833238
0.000334498
0.00822528
0.00115567
0.00779112
0.00519266
0.00771745
0.00589321
0.00745552
0.00583209
0.0072721
0.00553464
0.00716473
0.00558561
0.00708166
0.00580756
0.0070189
0.00611163
0.00700349
0.00645246
0.00710046
0.00676355
0.0073367
0.00698985
0.00773377
0.00714667
0.00830262
0.00707443
0.00655823
0.00877242
0.00840001
1.4735e-08
0.0084
9.22078e-08
0.00839997
2.78377e-07
0.00839989
7.43478e-07
0.0083997
1.67677e-06
0.00839926
4.01821e-06
0.00839834
8.47417e-06
0.00839555
2.14126e-05
0.00839377
4.42094e-05
0.00837205
0.000135489
0.00836778
0.000336718
0.00823045
0.00128218
0.00788572
0.0055156
0.00763706
0.00613688
0.00751413
0.00595451
0.00743908
0.00561258
0.0073819
0.00564482
0.00733804
0.00585169
0.00735043
0.006098
0.00745955
0.00634064
0.00766722
0.00655302
0.00798622
0.00666907
0.00840278
0.00672912
0.00889886
0.00657746
0.00622131
0.00923474
0.00840002
1.59224e-08
0.00840001
9.95998e-08
0.00839998
3.00038e-07
0.0083999
8.03171e-07
0.00839973
1.81325e-06
0.00839928
4.36306e-06
0.00839837
9.22512e-06
0.00839592
2.33147e-05
0.00839117
4.82847e-05
0.00837903
0.000145363
0.00834853
0.000364687
0.00829283
0.00132639
0.00812688
0.00565305
0.00785359
0.00641124
0.00776323
0.00604635
0.0076509
0.00572703
0.00761869
0.00567757
0.00764688
0.00582342
0.00772572
0.00601875
0.00788495
0.00618037
0.00812092
0.00631524
0.00844102
0.00634685
0.00884082
0.00632696
0.00928537
0.00613145
0.00584218
0.00966253
0.00840002
1.60671e-08
0.00840002
1.00474e-07
0.00840001
3.01673e-07
0.00839998
8.09978e-07
0.00839993
1.82827e-06
0.00839975
4.42527e-06
0.00839945
9.35479e-06
0.00839843
2.37407e-05
0.00839697
4.89783e-05
0.00839414
0.000145635
0.00839054
0.000365182
0.00843097
0.00127582
0.00888192
0.00516616
0.00846755
0.00683216
0.00811017
0.00640783
0.00795991
0.00588005
0.00791374
0.00572393
0.00796333
0.00577274
0.00807871
0.00590223
0.00826177
0.00599592
0.00850896
0.00606636
0.00880983
0.006044
0.00917279
0.00596139
0.00953735
0.00576363
0.00547649
0.00990074
0.00840002
1.40477e-08
0.00840003
8.7922e-08
0.00840006
2.65194e-07
0.00840014
7.0898e-07
0.00840034
1.60129e-06
0.00840081
3.83369e-06
0.00840191
8.09344e-06
0.00840479
2.02508e-05
0.00841252
4.04336e-05
0.00843556
0.000119881
0.00851318
0.000283674
0.00879605
0.000986992
0.0105687
0.00334244
0.00964649
0.00776687
0.00884517
0.00722048
0.00851739
0.00621557
0.00837095
0.0058732
0.00835915
0.00578407
0.00844371
0.00581432
0.00860624
0.00582914
0.00884108
0.00582716
0.00911857
0.00576219
0.009452
0.00562476
0.00976817
0.00544344
0.0051611
0.0100795
0.00840003
1.15434e-08
0.00840004
7.23923e-08
0.00840008
2.19203e-07
0.00840019
5.83923e-07
0.00840045
1.31688e-06
0.00840107
3.12308e-06
0.00840248
6.57934e-06
0.00840663
1.56685e-05
0.00841194
3.46684e-05
0.00844958
8.04189e-05
0.0084953
0.0002358
0.00891277
0.000567359
0.01012
0.00211857
0.0099866
0.00789293
0.00993008
0.00728065
0.00915856
0.00698944
0.00892483
0.00610817
0.00883861
0.00586984
0.00886173
0.00579034
0.00896911
0.00572013
0.00915681
0.00563638
0.00939797
0.00551554
0.00967872
0.00533983
0.00996733
0.00515029
0.00488035
0.010243
0.00840003
9.97696e-09
0.00840003
6.23948e-08
0.00840006
1.88962e-07
0.00840013
5.02075e-07
0.00840029
1.1346e-06
0.00840067
2.67229e-06
0.00840151
5.64181e-06
0.00840334
1.35139e-05
0.00841017
2.74047e-05
0.00841488
7.4267e-05
0.00848177
0.000166813
0.00849031
0.00055419
0.00899617
0.00159935
0.00987966
0.00698146
0.00968465
0.00746819
0.00959889
0.00707027
0.00936499
0.00633965
0.00926628
0.00596683
0.00927083
0.00578427
0.00934361
0.00564502
0.00948195
0.00549651
0.00968711
0.00530624
0.00989695
0.00512484
0.0101447
0.00489676
0.00462963
0.0103898
0.00840003
8.89679e-09
0.00840003
5.56045e-08
0.00840005
1.67961e-07
0.00840009
4.4741e-07
0.0084002
1.01169e-06
0.00840042
2.39509e-06
0.00840092
5.06523e-06
0.00840198
1.21829e-05
0.00840428
2.47559e-05
0.00841049
6.68196e-05
0.00842659
0.000149076
0.00849147
0.000484338
0.0087428
0.00133869
0.00957614
0.0061176
0.00961309
0.00742453
0.00969278
0.0069858
0.0095616
0.00646876
0.00955044
0.00597374
0.00958329
0.00574692
0.00966422
0.0055596
0.0097999
0.00535681
0.00995058
0.00515172
0.0101308
0.00493975
0.0103344
0.00468767
0.00441645
0.0105424
0.00840003
7.68171e-09
0.00840003
4.79797e-08
0.00840005
1.447e-07
0.00840011
3.85837e-07
0.00840024
8.70122e-07
0.00840052
2.06994e-06
0.0084012
4.32516e-06
0.00840258
1.05808e-05
0.00840631
2.07765e-05
0.00841175
6.02611e-05
0.00844515
0.000114556
0.00849146
0.000434237
0.00874806
0.00107685
0.010133
0.00469923
0.00998998
0.00756062
0.0098182
0.00715256
0.00974364
0.00654098
0.00976294
0.00595025
0.00983226
0.00567143
0.00993524
0.00545019
0.0100589
0.00522703
0.0101905
0.00501413
0.0103599
0.00476536
0.0105384
0.00450486
0.00423295
0.010718
0.00840003
6.13744e-09
0.00840004
3.83656e-08
0.00840006
1.16399e-07
0.00840013
3.08551e-07
0.0084003
6.98576e-07
0.0084007
1.63206e-06
0.00840152
3.46293e-06
0.00840392
8.01329e-06
0.00840768
1.68138e-05
0.00842651
4.062e-05
0.00844894
9.11968e-05
0.00862589
0.000254611
0.00904098
0.000656131
0.0112864
0.002442
0.0106333
0.00819834
0.0105101
0.00726616
0.010275
0.00676832
0.0101161
0.00610235
0.0101237
0.00565713
0.0102022
0.00536477
0.0102994
0.00512312
0.0104362
0.00487118
0.0105852
0.0046113
0.0107409
0.00434547
0.00407463
0.0108964
0.00840003
5.05444e-09
0.00840003
3.15985e-08
0.00840005
9.57993e-08
0.0084001
2.54037e-07
0.00840022
5.74933e-07
0.00840047
1.34397e-06
0.00840104
2.85301e-06
0.00840231
6.59068e-06
0.00840508
1.38541e-05
0.00841262
3.23376e-05
0.00842595
7.6889e-05
0.00849197
0.00018532
0.00860309
0.00054571
0.00921705
0.00181408
0.0103789
0.0070101
0.0104313
0.007204
0.0103985
0.00679036
0.0103591
0.00613288
0.0103812
0.00562672
0.0104562
0.00528308
0.0105644
0.00500932
0.0106876
0.00474356
0.0108188
0.00447632
0.0109536
0.00420806
0.0039395
0.0110871
0.00840003
4.27698e-09
0.00840003
2.64929e-08
0.00840005
8.12935e-08
0.00840008
2.12186e-07
0.00840016
4.88136e-07
0.00840035
1.1239e-06
0.00840073
2.4323e-06
0.00840165
5.52377e-06
0.00840349
1.18299e-05
0.00840702
2.81086e-05
0.00842147
6.13109e-05
0.00843641
0.000167337
0.00853047
0.000447125
0.00876365
0.00156987
0.00975916
0.00597134
0.0100298
0.00692164
0.0103064
0.00650394
0.0103493
0.00608208
0.0104585
0.00551062
0.0105952
0.00514138
0.0107383
0.0048625
0.0108771
0.00460168
0.0110119
0.00433959
0.0111422
0.00407686
0.00381569
0.0112661
0.00840003
2.35814e-09
0.00840003
2.54625e-08
0.00840006
5.32921e-08
0.00840007
1.98219e-07
0.00840023
3.16124e-07
0.00840026
1.07252e-06
0.00840118
1.47184e-06
0.00840101
5.56674e-06
0.00840646
6.19575e-06
0.00840208
3.17667e-05
0.00844055
2.20225e-05
0.00840278
0.000201884
0.00860842
0.000236991
0.00887527
0.00129252
0.0102397
0.00455668
0.0101829
0.00697197
0.0102379
0.00644199
0.0103607
0.00595519
0.0104978
0.00537142
0.0106642
0.00497218
0.0108397
0.00468529
0.0110057
0.00443434
0.011157
0.00418799
0.0112948
0.00393968
0.00369159
0.0114203
0.00840003
2.69055e-09
0.00840004
1.48223e-08
0.00840004
5.03991e-08
0.00840011
1.20765e-07
0.00840012
3.03108e-07
0.00840055
6.30045e-07
0.00840045
1.51459e-06
0.00840296
2.99117e-06
0.00840146
7.45108e-06
0.00841863
1.42604e-05
0.00840023
3.90895e-05
0.00852354
7.7139e-05
0.00850674
0.0002487
0.00919062
0.000599065
0.0114275
0.00229379
0.0108519
0.00750429
0.0107646
0.00651874
0.0107097
0.0060041
0.0107384
0.00534211
0.0108485
0.00486225
0.0109924
0.00454232
0.0111438
0.0042852
0.0112907
0.00404357
0.0114279
0.00380476
0.0035679
0.0115539
0.00840003
2.24099e-09
0.00840003
1.24708e-08
0.00840004
4.08586e-08
0.00840006
1.01143e-07
0.0084001
2.45553e-07
0.00840019
5.32669e-07
0.00840043
1.22475e-06
0.00840078
2.57363e-06
0.00840206
5.92314e-06
0.00840347
1.25478e-05
0.00841259
2.87669e-05
0.00841833
6.97719e-05
0.00849646
0.000165076
0.00861295
0.00048333
0.00925182
0.00162975
0.0103746
0.00633201
0.0105643
0.00631642
0.0106976
0.00586416
0.0108269
0.00521419
0.0109703
0.00472197
0.0111195
0.00439615
0.0112657
0.00414211
0.0114044
0.00390767
0.0115338
0.00367766
0.00344983
0.0116535
0.00840003
1.86397e-09
0.00840003
1.04367e-08
0.00840004
3.35514e-08
0.00840005
8.45329e-08
0.00840009
2.01911e-07
0.00840016
4.47186e-07
0.00840032
1.01074e-06
0.00840067
2.16943e-06
0.00840144
4.90305e-06
0.00840309
1.06055e-05
0.00840604
2.47045e-05
0.00841838
5.5427e-05
0.00843259
0.00014636
0.00850427
0.000404067
0.00871813
0.00139788
0.00954927
0.00543879
0.0100077
0.00585312
0.0103865
0.00548503
0.010684
0.00492364
0.0109222
0.00449048
0.0111253
0.0041993
0.0113045
0.00396862
0.0114635
0.00375358
0.0116046
0.00354034
0.00332752
0.0117295
0.00840003
1.92461e-09
0.00840003
6.02534e-09
0.00840003
3.15031e-08
0.00840006
5.15801e-08
0.00840007
1.90481e-07
0.00840024
2.61954e-07
0.00840022
9.88001e-07
0.0084012
1.14084e-06
0.0084007
5.1893e-06
0.00840685
4.23245e-06
0.00839911
3.12735e-05
0.00844349
9.91153e-06
0.00838065
0.000203771
0.00860213
0.000175119
0.0087573
0.0012249
0.00975579
0.00435061
0.00992051
0.00569638
0.0102513
0.00516696
0.0105161
0.00467418
0.0107753
0.00424203
0.0110278
0.00395583
0.0112541
0.00374931
0.0114493
0.00356402
0.0116158
0.00337779
0.00318698
0.011759
0.00840003
5.27778e-10
0.00840003
7.62867e-09
0.00840005
1.32544e-08
0.00840004
5.91984e-08
0.00840014
7.87339e-08
0.00840007
3.20336e-07
0.00840068
3.58179e-07
0.0084001
1.65131e-06
0.00840377
1.42871e-06
0.00839861
8.96325e-06
0.00842565
3.95519e-06
0.00837567
5.703e-05
0.00856716
9.84563e-06
0.00838099
0.000347906
0.00911919
0.000456422
0.0112046
0.00215367
0.0108669
0.00605818
0.0106834
0.00537
0.010705
0.00467207
0.0108596
0.00410352
0.0110519
0.00377472
0.0112471
0.00356114
0.0114309
0.00338484
0.0115986
0.00321327
0.00303814
0.0117495
0.00840003
7.2299e-10
0.00840003
3.97677e-09
0.00840003
1.36823e-08
0.00840006
3.24574e-08
0.00840005
8.19632e-08
0.00840019
1.68014e-07
0.00840012
4.04345e-07
0.00840096
7.82724e-07
0.00840032
1.94189e-06
0.00840552
3.57312e-06
0.00839867
1.00719e-05
0.0084391
1.59766e-05
0.00838716
5.83299e-05
0.00861251
0.000116812
0.00865483
0.000402128
0.00949156
0.00127534
0.0103163
0.00520661
0.0106921
0.00498974
0.0107484
0.00462563
0.01087
0.00400117
0.0110547
0.00360441
0.0112448
0.0033803
0.0114193
0.00321618
0.0115771
0.00305911
0.00289671
0.0117207
0.00840003
6.40047e-10
0.00840003
3.56893e-09
0.00840003
1.16919e-08
0.00840003
2.89503e-08
0.00840004
7.01195e-08
0.00840005
1.51854e-07
0.00840008
3.47765e-07
0.0084001
7.25994e-07
0.00840025
1.6685e-06
0.00840024
3.43205e-06
0.00840152
8.16161e-06
0.00839954
1.71587e-05
0.00841257
4.24278e-05
0.00841901
0.000105601
0.00849267
0.000318544
0.00880174
0.000934091
0.0095646
0.00437133
0.0100031
0.00455066
0.0103511
0.00428001
0.010653
0.00371496
0.0109129
0.00335847
0.0111372
0.00316548
0.0113313
0.00302812
0.0115028
0.00289151
0.00274549
0.0116565
0.00840003
5.9974e-10
0.00840003
3.32349e-09
0.00840003
1.0892e-08
0.00840003
2.69806e-08
0.00840003
6.57883e-08
0.00840003
1.43585e-07
0.00840002
3.30798e-07
0.00840001
7.03737e-07
0.00839996
1.59921e-06
0.00839982
3.41699e-06
0.00839977
7.59326e-06
0.00839874
1.74147e-05
0.00840032
3.79909e-05
0.00840679
9.52721e-05
0.00843165
0.000282477
0.00854563
0.000795077
0.0088815
0.00396055
0.00929933
0.00413332
0.00981708
0.00376829
0.0102526
0.00328883
0.010586
0.00303125
0.0108563
0.00289993
0.0110927
0.00279659
0.0113004
0.00268834
0.00256593
0.0114839
0.00840003
5.39298e-10
0.00840003
3.01637e-09
0.00840003
9.63055e-09
0.00840003
2.4497e-08
0.00840003
5.84713e-08
0.00840004
1.31772e-07
0.00840005
2.97143e-07
0.00840006
6.55664e-07
0.00840007
1.45003e-06
0.00840011
3.26193e-06
0.00840013
6.94191e-06
0.00840016
1.6409e-05
0.00839901
3.64112e-05
0.00839667
9.25888e-05
0.00841412
0.000252768
0.00841556
0.000770279
0.00855721
0.00372316
0.00882849
0.0038735
0.00941242
0.00319921
0.00984417
0.00286765
0.0101762
0.00270284
0.0104487
0.00262905
0.0107037
0.00254453
0.0109384
0.00245847
0.00235583
0.0111543
0.00840003
6.29195e-10
0.00840003
1.47653e-09
0.00840003
9.87954e-09
0.00840004
1.31389e-08
0.00840004
6.02838e-08
0.00840009
6.66996e-08
0.00840005
3.21737e-07
0.0084004
2.80354e-07
0.00840001
1.75454e-06
0.00840238
7.58059e-07
0.0083975
1.1345e-05
0.00841708
-3.75914e-06
0.00837431
7.66084e-05
0.00849281
-2.96545e-05
0.00826794
0.000466788
0.0084688
0.000543244
0.00870624
0.00338861
0.00895225
0.00366869
0.00932723
0.00284839
0.00962774
0.00257404
0.00989181
0.0024396
0.0101462
0.00237599
0.0103858
0.00230815
0.0106145
0.00223426
0.00214535
0.0108301
0.00840003
1.66479e-11
0.00840003
2.13135e-09
0.00840004
1.94969e-09
0.00840003
1.617e-08
0.00840008
1.07076e-08
0.00840005
8.65971e-08
0.00840034
3.09812e-08
0.00840016
4.44365e-07
0.00840192
-3.89776e-08
0.00840004
2.57282e-06
0.00841381
-2.1585e-06
0.00838996
1.87539e-05
0.00848798
-2.03919e-05
0.00832048
0.000130826
0.0088172
-3.73034e-05
0.00875202
0.000580052
0.010413
0.00158061
0.0104939
0.00364034
0.0101794
0.00320716
0.0100675
0.00270142
0.0101108
0.0023996
0.0102448
0.00224322
0.0103945
0.00216154
0.0105603
0.0020733
0.00198152
0.0107296
0.00840003
1.98191e-10
0.00840003
1.1052e-09
0.00840003
3.67246e-09
0.00840004
8.97084e-09
0.00840002
2.18666e-08
0.00840006
4.63994e-08
0.00839997
1.06882e-07
0.00840018
2.17041e-07
0.00839958
5.04607e-07
0.00840107
9.99385e-07
0.0083961
2.4717e-06
0.00840981
4.62914e-06
0.00837412
1.33997e-05
0.00847642
2.61411e-05
0.0083413
8.89601e-05
0.00870997
0.000211471
0.00929623
0.000932481
0.00983854
0.00306435
0.00985215
0.00317396
0.00988961
0.00265135
0.00998053
0.00229848
0.0101114
0.00210382
0.0102618
0.00200587
0.0104203
0.00191463
0.00182639
0.0105793
0.00840003
3.81783e-10
0.00840003
5.13818e-10
0.00840003
5.7131e-09
0.00840003
5.06418e-09
0.00840002
3.4914e-08
0.00840004
2.44263e-08
0.00839995
1.87829e-07
0.00840006
8.86844e-08
0.0083995
1.01951e-06
0.00840031
1.22794e-07
0.00839652
5.99578e-06
0.00840425
-3.37646e-06
0.00837504
4.1159e-05
0.00844672
-4.70023e-05
0.00830395
0.000225588
0.00854769
-3.63342e-05
0.00853194
0.000910594
0.00906661
0.00248008
0.00930297
0.00290648
0.00951781
0.00242556
0.0096721
0.00213731
0.00983295
0.00194048
0.0100141
0.00182704
0.0101919
0.00174171
0.00166155
0.0103622
0.00840003
1.79746e-11
0.00840003
1.71613e-09
0.00840003
1.39207e-09
0.00840002
1.2959e-08
0.00840005
7.99608e-09
0.0084
7.22696e-08
0.00840015
2.8366e-08
0.00839983
3.93228e-07
0.00840081
9.56867e-09
0.00839854
2.30063e-06
0.00840601
-1.61843e-06
0.00838602
1.60129e-05
0.00845129
-2.4529e-05
0.00828545
0.000116128
0.00863546
-0.000129318
0.0082218
0.000369644
0.00888704
0.000209884
0.00912489
0.00218232
0.00938779
0.00260535
0.00942558
0.00238536
0.00954915
0.00201342
0.00970391
0.00178588
0.00987033
0.00166191
0.0100363
0.00157874
0.00150506
0.0101974
0.00840003
2.67061e-10
0.00840003
6.63916e-11
0.00840003
3.9902e-09
0.00840004
1.35288e-09
0.00840002
2.40595e-08
0.00840009
2.14082e-09
0.00839998
1.27134e-07
0.0084004
-4.20507e-08
0.00839965
7.06153e-07
0.00840256
-6.76223e-07
0.0083958
4.85033e-06
0.00841994
-8.38235e-06
0.00835278
4.10919e-05
0.00853404
-6.65477e-05
0.00817817
0.000220536
0.00869838
-0.000154316
0.00814365
0.000731082
0.0084203
0.00183872
0.00888213
0.00210481
0.00914867
0.00210165
0.00936201
0.00180978
0.00954986
0.00160544
0.00972658
0.00148845
0.00989399
0.00141298
0.00134913
0.0100521
0.00840003
-1.04034e-11
0.00840003
1.3577e-09
0.00840003
6.98509e-10
0.00840002
1.0138e-08
0.00840004
3.9048e-09
0.00839998
5.77192e-08
0.00840009
1.03663e-08
0.00839969
3.25245e-07
0.00840043
-7.12199e-08
0.00839754
2.05506e-06
0.00840419
-1.96649e-06
0.00838074
1.42862e-05
0.00844567
-2.48059e-05
0.00827081
0.000104895
0.0086436
-0.000157306
0.00811266
0.000363506
0.00878077
3.0887e-05
0.00882416
0.00171842
0.00897357
0.00192801
0.00917765
0.00188207
0.00935557
0.001633
0.0095242
0.00144168
0.00968652
0.00133005
0.00984052
0.00126176
0.00120706
0.00998538
0.00840003
2.00482e-10
0.00840003
-1.75791e-10
0.00840003
2.83081e-09
0.00840004
-7.05416e-10
0.00840002
1.72213e-08
0.00840008
-7.82905e-09
0.00839998
9.4361e-08
0.00840037
-8.17081e-08
0.00839964
5.72286e-07
0.00840248
-9.14524e-07
0.0083955
4.59588e-06
0.00841844
-9.18247e-06
0.00835331
3.81777e-05
0.00852618
-7.05709e-05
0.00815268
0.000208701
0.00871237
-0.000202688
0.00809335
0.000617211
0.00834357
0.00137016
0.0086523
0.00159435
0.00895453
0.00156207
0.00917954
0.00140518
0.00938068
0.00124342
0.00956173
0.00115288
0.00972383
0.00110297
0.00106343
0.00987052
0.00840003
-8.82372e-11
0.00840003
7.84889e-10
0.00840003
-6.51337e-10
0.00840002
5.64632e-09
0.00840004
-4.35653e-09
0.00839999
3.24914e-08
0.00840011
-3.26024e-08
0.00839979
1.90222e-07
0.00840057
-2.66131e-07
0.00839813
1.30253e-06
0.00840526
-2.86282e-06
0.0083836
1.14009e-05
0.00844788
-2.74952e-05
0.00828172
9.04112e-05
0.00862819
-0.000143557
0.00808762
0.000320075
0.0087006
-4.03084e-05
0.00869971
0.00125911
0.0088017
0.00146887
0.00894578
0.00140082
0.00915745
0.00119376
0.00935529
0.0010509
0.00952709
0.000986566
0.0096754
0.00095945
0.000935146
0.00980844
0.00840003
1.74562e-11
0.00840003
9.77617e-11
0.00840003
4.80614e-10
0.00840003
8.03083e-10
0.00840002
2.45787e-09
0.00840004
1.99514e-09
0.00839998
7.89939e-09
0.00840015
-9.32797e-09
0.00839974
3.17238e-08
0.00840109
-1.87283e-07
0.00839712
5.11751e-07
0.00840944
-1.60045e-06
0.00837369
5.38801e-06
0.00846253
-1.84727e-06
0.00826963
3.66702e-05
0.00853852
4.55354e-05
0.00817225
0.000265701
0.00817583
0.00111332
0.00837639
0.0012416
0.00862855
0.00113773
0.00890686
0.000924692
0.00915267
0.000817889
0.00934705
0.000802996
0.00950633
0.000808428
0.000801356
0.00964733
0.00840003
7.89177e-11
0.00840003
4.35633e-10
0.00840003
1.41373e-09
0.00840002
3.47119e-09
0.00840001
8.38501e-09
0.00839999
1.8007e-08
0.00839993
4.10895e-08
0.00839979
8.50237e-08
0.00839948
1.92796e-07
0.00839873
3.96071e-07
0.00839762
9.04571e-07
0.00839312
1.89726e-06
0.00839037
4.63458e-06
0.00837192
1.02005e-05
0.00836551
2.86871e-05
0.00830855
7.74666e-05
0.00823272
0.000276316
0.00794706
0.00120306
0.00804582
0.00112642
0.00834531
0.000843076
0.00868355
0.000608078
0.00895334
0.000568148
0.00915616
0.000614991
0.00932407
0.000652469
0.000663323
0.00947266
0.00840003
1.2087e-10
0.00840003
6.72606e-10
0.00840003
2.19381e-09
0.00840002
5.44691e-09
0.00840001
1.31786e-08
0.00839999
2.87918e-08
0.00839994
6.56508e-08
0.00839984
1.38119e-07
0.00839954
3.12488e-07
0.00839909
6.36255e-07
0.00839753
1.48991e-06
0.00839534
2.77831e-06
0.0083881
7.20068e-06
0.00837595
1.31335e-05
0.00834852
3.64619e-05
0.0083036
8.62308e-05
0.00818866
0.000299522
0.00780455
0.00130409
0.00791291
0.00103151
0.00828748
0.000499673
0.00866347
0.000277818
0.00892798
0.000336863
0.00912823
0.000438162
0.00929643
0.000503698
0.000523731
0.00945364
0.00840003
1.6921e-10
0.00840003
9.2825e-10
0.00840003
2.95617e-09
0.00840002
7.5973e-09
0.00840001
1.85526e-08
0.00839999
4.32886e-08
0.00839992
9.96425e-08
0.00839977
2.33507e-07
0.00839938
4.90355e-07
0.00839848
1.29406e-06
0.0083968
1.94782e-06
0.00839144
6.60123e-06
0.00838538
6.61785e-06
0.00836171
2.49995e-05
0.0083392
3.02521e-05
0.00826884
0.000106637
0.0081436
0.000288259
0.00768779
0.00135299
0.00798804
0.000819649
0.00849823
8.33754e-05
0.00887449
-1.78798e-05
0.00911274
0.000143091
0.00929664
0.000280366
0.00947061
0.000352016
0.000376412
0.00964091
0.00840003
2.23647e-10
0.00840003
3.54605e-10
0.00840003
3.35734e-09
0.00840003
3.40921e-09
0.00840002
2.1386e-08
0.00840004
1.83822e-08
0.00839998
1.25841e-07
0.0084001
6.54076e-08
0.00839954
8.20743e-07
0.00840075
-1.81696e-07
0.00839568
5.45676e-06
0.00840575
-5.10942e-06
0.00836801
3.4927e-05
0.00842588
-4.82268e-05
0.00822107
0.000194861
0.00847233
-0.000212935
0.00805252
0.000531402
0.0077841
0.00103012
0.00848377
0.000388589
0.00900851
-0.00025053
0.00920772
-0.0001122
0.00936312
3.36681e-05
0.00951633
0.0001506
0.00967885
0.000209136
0.000248721
0.00982739
0.00840003
-7.7956e-11
0.00840003
4.52957e-10
0.00840003
-6.73248e-10
0.00840003
3.27249e-09
0.00840006
-4.65467e-09
0.00840005
1.8621e-08
0.0084002
-3.69344e-08
0.00840008
1.27214e-07
0.00840119
-3.72229e-07
0.00839929
1.1919e-06
0.00840742
-3.32809e-06
0.00838824
9.67375e-06
0.00844353
-2.55605e-05
0.00829939
7.1844e-05
0.00863232
-0.000179026
0.00796774
0.000362591
0.0083942
-0.000124539
0.0078186
0.000900299
0.00835091
0.000359058
0.00870977
-0.000263668
0.00891824
-0.000173951
0.00902472
-2.71447e-05
0.00913123
5.47559e-05
0.00926244
8.68554e-05
0.000115412
0.00940893
0.00840003
0.00840003
0.00840003
0.00840003
0.00840003
0.00840004
0.00839999
0.00840007
0.00839945
0.00840038
0.00839445
0.00840235
0.00836156
0.00840804
0.00816513
0.00842065
0.00802577
0.00801083
0.00906806
0.00925677
0.00922753
0.0092338
0.00930211
0.00940504
0.00953784
0.00525625
0.00369898
0.00317317
0.00207849
0.0015358
0.00163147
-0.000475277
0.00200736
-0.00100955
0.000528629
-0.00160099
0.000588186
-0.00201285
0.000409703
-0.00229545
0.000279965
-0.00246737
0.000168917
-0.00255988
8.90974e-05
-0.00257779
1.39666e-05
-0.0025555
-2.61254e-05
-0.00255316
-5.6827e-06
-0.00254384
-1.18698e-05
-0.00254213
-3.66569e-06
-0.00254043
-3.50806e-06
-0.00253232
-1.03449e-05
-0.00250964
-2.55178e-05
-0.00246908
-4.40015e-05
-0.00241476
-5.80439e-05
-0.00234797
-7.08954e-05
-0.00226961
-8.2296e-05
-0.00217955
-9.3765e-05
-0.00207702
-0.000105833
-0.00196008
-0.000119699
-0.00182697
-0.00013499
-0.00168191
-0.00014568
-0.00152617
-0.000154924
-0.00136067
-0.000163536
-0.00118668
-0.000171386
-0.0010078
-0.000175056
-0.000820184
-0.000182703
-0.000628686
-0.000185665
-0.000432645
-0.000189509
-0.000230469
-0.000194838
-2.07583e-05
-0.000201874
0.000199101
-0.000211878
0.000422637
-0.000215691
0.000635415
-0.000204608
0.000843482
-0.000199612
0.00104576
-0.000193877
0.00124429
-0.000189963
0.0014376
-0.000185196
0.00162549
-0.000179927
0.00180712
-0.000173774
0.00198346
-0.000168387
0.00215679
-0.000165462
0.0023288
-0.000164538
0.00249541
-0.000159249
0.00265656
-0.000154004
0.00281244
-0.000148796
0.00296291
-0.000143559
0.00310812
-0.000138307
0.0032481
-0.000133189
0.00338264
-0.000127958
0.00351239
-0.000122858
0.00363713
-0.000117712
0.00375672
-0.00011262
0.00387117
-0.000107485
0.00398039
-0.000102405
0.00408437
-9.7317e-05
0.00418319
-9.2289e-05
0.00427683
-8.729e-05
0.00436544
-8.23346e-05
0.00444888
-7.74952e-05
0.00452742
-7.27317e-05
0.00460119
-6.81156e-05
0.0046702
-6.35902e-05
0.0047348
-5.92256e-05
0.00479484
-5.49674e-05
0.00485072
-5.08411e-05
0.00490235
-4.6843e-05
0.00495
-4.29611e-05
0.00499363
-3.92175e-05
0.00503345
-3.55913e-05
0.00506952
-3.21132e-05