/*--------------------------------*- C++ -*----------------------------------*\
  =========                 |
  \\      /  F ield         | OpenFOAM: The Open Source CFD Toolbox
   \\    /   O peration     | Website:  https://openfoam.org
    \\  /    A nd           | Version:  6
     \\/     M anipulation  |
\*---------------------------------------------------------------------------*/
FoamFile
{
    version     2.0;
    format      ascii;
    class       volScalarField;
    location    "9.5";
    object      T;
}
// * * * * * * * * * * * * * * * * * * * * * * * * * * * * * * * * * * * * * //

dimensions      [0 0 0 1 0 0 0];

internalField   nonuniform List<scalar> 
5250
(
1.00014
1.00033
1.001
1.00198
1.00555
1.01111
1.02876
1.06566
1.15306
1.40266
2.08808
2.77626
2.74606
2.80009
2.74874
2.72651
2.74266
2.75407
2.77347
2.77836
2.7842
2.79134
2.79307
2.80304
2.80973
1.00014
1.00033
1.001
1.00198
1.00553
1.01107
1.02868
1.06545
1.15257
1.40153
2.08413
2.77563
2.74614
2.79968
2.74719
2.72562
2.74226
2.75309
2.7718
2.77643
2.78203
2.78906
2.79061
2.80072
2.80743
1.00014
1.00033
1.00099
1.00196
1.00549
1.01099
1.02849
1.06501
1.15144
1.399
2.07433
2.77454
2.74647
2.79833
2.74409
2.7237
2.74044
2.75141
2.76965
2.77422
2.77965
2.78641
2.7876
2.79637
2.80263
1.00013
1.00032
1.00098
1.00194
1.00544
1.01087
1.0282
1.06433
1.14956
1.39486
2.05878
2.77239
2.74836
2.79387
2.74044
2.72074
2.73683
2.74761
2.76462
2.76901
2.77468
2.78203
2.78329
2.79165
2.79745
1.00013
1.00032
1.00097
1.00191
1.00536
1.0107
1.02778
1.06336
1.14696
1.38901
2.03735
2.76874
2.75238
2.78498
2.73578
2.71735
2.73263
2.74287
2.75907
2.76269
2.76695
2.7726
2.77327
2.78229
2.78952
1.00013
1.00031
1.00095
1.00187
1.00525
1.01047
1.02726
1.06204
1.14368
1.38134
2.00926
2.76387
2.75719
2.77434
2.73072
2.7124
2.72738
2.73628
2.75027
2.75341
2.75641
2.76394
2.76434
2.76854
2.77428
1.00013
1.0003
1.00092
1.00183
1.00512
1.0102
1.02661
1.06043
1.13991
1.37158
1.97853
2.75271
2.76181
2.76147
2.72404
2.70764
2.72058
2.73008
2.74182
2.74317
2.74322
2.74589
2.74743
2.75273
2.75659
1.00012
1.00029
1.0009
1.00177
1.00497
1.00989
1.02585
1.05852
1.13571
1.35971
1.94497
2.73351
2.76406
2.75284
2.7133
2.69867
2.71195
2.71763
2.73002
2.73169
2.73045
2.73048
2.72524
2.7276
2.72816
1.00012
1.00028
1.00086
1.00171
1.0048
1.00953
1.02496
1.05631
1.13084
1.34599
1.90613
2.70891
2.76363
2.74557
2.70364
2.68989
2.7003
2.70737
2.71346
2.71334
2.70968
2.70564
2.69915
2.6899
2.67951
1.00011
1.00027
1.00083
1.00164
1.0046
1.00912
1.02396
1.05377
1.12544
1.33013
1.86401
2.67529
2.76041
2.73487
2.69572
2.67984
2.68778
2.69096
2.69883
2.69683
2.68925
2.67693
2.65453
2.63253
2.57733
1.00011
1.00026
1.00079
1.00155
1.00437
1.00865
1.02282
1.0509
1.11939
1.31228
1.81733
2.63408
2.75235
2.71948
2.69446
2.67357
2.6767
2.67461
2.67473
2.67129
2.66382
2.64612
2.60742
2.54569
2.42632
1.0001
1.00024
1.00074
1.00146
1.00411
1.00812
1.02147
1.04775
1.11189
1.29381
1.75635
2.57743
2.74039
2.69249
2.68578
2.66883
2.66918
2.66767
2.66128
2.64856
2.62819
2.60576
2.56201
2.48986
2.37091
1.00009
1.00022
1.00068
1.00135
1.0038
1.0075
1.01986
1.04428
1.10246
1.27497
1.67579
2.51201
2.71616
2.68844
2.67496
2.6555
2.6551
2.65413
2.64824
2.63339
2.60788
2.57141
2.52255
2.46576
2.37147
1.00008
1.0002
1.00062
1.00122
1.00346
1.00679
1.01811
1.04014
1.09253
1.25243
1.5962
2.41697
2.68257
2.68558
2.67041
2.64938
2.64095
2.63721
2.62971
2.61583
2.58756
2.55792
2.49903
2.453
2.3786
1.00008
1.00018
1.00055
1.00108
1.00308
1.00602
1.01618
1.03539
1.08262
1.22135
1.52308
2.30963
2.63095
2.68085
2.6664
2.64756
2.63383
2.62451
2.6126
2.59977
2.57313
2.54986
2.4993
2.45557
2.39319
1.00007
1.00016
1.00048
1.00094
1.00266
1.00517
1.01401
1.03016
1.0714
1.18685
1.44027
2.15615
2.56601
2.67073
2.65868
2.64349
2.62337
2.61418
2.59649
2.58318
2.55532
2.53629
2.49786
2.46051
2.41321
1.00005
1.00013
1.0004
1.00078
1.00223
1.0043
1.01174
1.02469
1.05946
1.15049
1.35061
1.95471
2.47879
2.64325
2.63711
2.62906
2.61179
2.60459
2.5886
2.57536
2.54758
2.52559
2.49423
2.46017
2.42475
1.00005
1.00011
1.00033
1.00065
1.00186
1.00356
1.0098
1.02013
1.04999
1.1198
1.28586
1.71996
2.442
2.61414
2.60578
2.6015
2.5896
2.58571
2.57665
2.56647
2.54529
2.52147
2.49508
2.46293
2.43108
1.00004
1.00009
1.00028
1.00055
1.00157
1.00297
1.00836
1.0167
1.04245
1.1027
1.23276
1.62729
2.4071
2.59134
2.5928
2.58315
2.57244
2.56653
2.55875
2.55136
2.53722
2.51843
2.49531
2.46937
2.44112
1.00003
1.00008
1.00023
1.00045
1.00131
1.00247
1.00701
1.01383
1.03574
1.08485
1.19156
1.52955
2.28431
2.54395
2.59687
2.58096
2.56859
2.55777
2.54921
2.54102
2.5295
2.51351
2.49511
2.47435
2.45131
1.00003
1.00006
1.00019
1.00037
1.00107
1.00202
1.00574
1.0112
1.02936
1.06804
1.1537
1.42517
2.08456
2.46984
2.59575
2.58383
2.57036
2.55256
2.54328
2.53472
2.52436
2.51068
2.49554
2.47747
2.45772
1.00002
1.00005
1.00015
1.0003
1.00086
1.00162
1.00463
1.00887
1.02411
1.05127
1.12649
1.30791
1.85966
2.36659
2.57094
2.56993
2.56193
2.54638
2.53613
2.5299
2.52241
2.51155
2.49803
2.48238
2.46501
1.00002
1.00004
1.00013
1.00025
1.0007
1.00132
1.00379
1.00723
1.01977
1.042
1.10268
1.25529
1.67666
2.33639
2.57458
2.57396
2.55673
2.54189
2.52989
2.52285
2.51671
2.50856
2.49719
2.48384
2.46887
1.00001
1.00003
1.0001
1.0002
1.00057
1.00107
1.00309
1.00587
1.01606
1.0347
1.08148
1.22163
1.51065
2.23273
2.54266
2.59306
2.57008
2.55677
2.53769
2.52647
2.51754
2.50842
2.49758
2.48493
2.47125
1.00001
1.00003
1.00008
1.00016
1.00046
1.00086
1.00247
1.00472
1.01276
1.02775
1.06538
1.17893
1.39944
2.01133
2.46082
2.59407
2.58736
2.57384
2.55452
2.53868
2.52532
2.51242
2.4997
2.48667
2.47305
1
1.00003
1.00005
1.00016
1.0003
1.00085
1.00161
1.00455
1.00891
1.02371
1.05214
1.12763
1.31349
1.87177
2.36228
2.571
2.57944
2.57184
2.55684
2.54202
2.5304
2.51876
2.5055
2.49156
2.47719
1
1.00002
1.00004
1.00013
1.00025
1.00072
1.00132
1.00386
1.00727
1.02018
1.04264
1.10526
1.26142
1.70362
2.3467
2.59107
2.59409
2.57676
2.5621
2.54474
2.53219
2.52122
2.50993
2.49769
2.48485
1
1.00002
1.00004
1.00011
1.0002
1.00059
1.00109
1.00318
1.00599
1.01643
1.03582
1.08452
1.23125
1.54026
2.27066
2.57865
2.62776
2.59879
2.57721
2.55145
2.53493
2.52269
2.51143
2.49964
2.48778
1
1.00001
1.00003
1.00009
1.00017
1.00048
1.00089
1.00257
1.00491
1.01318
1.02944
1.06904
1.193
1.43494
2.07933
2.52147
2.65258
2.63457
2.6107
2.57491
2.54942
2.53125
2.51627
2.50298
2.49034
1
1.00001
1.00003
1.00006
1.00017
1.00032
1.00091
1.00171
1.00487
1.00961
1.02531
1.05833
1.13889
1.35803
1.98323
2.45373
2.64316
2.62875
2.61197
2.57943
2.55747
2.54226
2.52851
2.51445
2.50043
1
1.00001
1.00002
1.00006
1.00012
1.00034
1.00063
1.00183
1.00341
1.00971
1.01971
1.04986
1.12417
1.29231
1.7303
2.5305
2.65776
2.63196
2.61557
2.5837
2.55989
2.54485
2.53297
2.5215
2.50984
1
1.00001
1.00002
1.00005
1.0001
1.0003
1.00055
1.00165
1.003
1.00889
1.01712
1.04585
1.10724
1.25786
1.66417
2.50494
2.6744
2.66733
2.63139
2.59729
2.56715
2.54813
2.5349
2.52387
2.51319
1
1.00001
1.00002
1.00005
1.00009
1.00027
1.00048
1.00146
1.00264
1.00789
1.0151
1.0405
1.09653
1.22358
1.61188
2.43799
2.66078
2.6955
2.66391
2.63276
2.59358
2.56709
2.5477
2.53309
2.52075
1
1.00001
1.00001
1.00004
1.00008
1.00023
1.00042
1.00126
1.0023
1.00673
1.0133
1.03444
1.08755
1.19399
1.5605
2.35189
2.63633
2.71938
2.68632
2.65764
2.61692
2.58919
2.57221
2.55745
2.5432
1
1.00001
1.00001
1.00004
1.00007
1.0002
1.00036
1.00106
1.00199
1.00553
1.0117
1.02865
1.07743
1.16736
1.50364
2.25789
2.6223
2.72669
2.69949
2.6632
2.621
2.59641
2.58199
2.5708
2.5594
1
1
1.00001
1.00003
1.00007
1.00014
1.00039
1.00073
1.00205
1.00417
1.01029
1.02603
1.05805
1.16907
1.36974
1.96048
2.59393
2.74027
2.70662
2.66277
2.61596
2.59392
2.5831
2.57498
2.56551
1
1
1.00001
1.00003
1.00005
1.00016
1.00029
1.00087
1.0016
1.00474
1.00911
1.02487
1.05678
1.13554
1.35999
1.98716
2.56284
2.74738
2.70661
2.67335
2.62811
2.60612
2.59746
2.5904
2.5814
1
1
1.00001
1.00003
1.00005
1.00015
1.00027
1.00082
1.0015
1.00446
1.0085
1.02335
1.05307
1.12663
1.33821
1.93013
2.57549
2.75266
2.7072
2.68083
2.63727
2.61588
2.60655
2.5989
2.58987
1
1
1.00001
1.00002
1.00006
1.00011
1.00031
1.00058
1.0017
1.00327
1.0089
1.01971
1.04812
1.13004
1.30287
1.77231
2.63943
2.75762
2.70986
2.68876
2.6451
2.62185
2.61208
2.60516
2.59691
1
1
1.00001
1.00002
1.00004
1.00012
1.00023
1.00067
1.00129
1.00345
1.00762
1.01833
1.05032
1.11102
1.31749
1.832
2.53479
2.75347
2.7212
2.70153
2.65806
2.62979
2.61701
2.60924
2.60141
1
1
1.00001
1.00002
1.00005
1.0001
1.00028
1.00052
1.00152
1.00293
1.00807
1.01775
1.0442
1.11869
1.27749
1.73144
2.6097
2.74215
2.73375
2.70481
2.66518
2.63725
2.62314
2.61435
2.60615
1
1
1.00001
1.00002
1.00004
1.00011
1.00021
1.00059
1.00116
1.00303
1.00701
1.01651
1.04633
1.10141
1.29602
1.76292
2.48514
2.73855
2.73648
2.71017
2.67462
2.64656
2.63107
2.62136
2.61277
1
1
1.00001
1.00002
1.00004
1.00009
1.00025
1.00047
1.00136
1.00267
1.0071
1.01653
1.04001
1.11243
1.25297
1.703
2.56417
2.7409
2.73936
2.71439
2.67962
2.65031
2.63334
2.62288
2.61421
1
1
1.00001
1.00002
1.00004
1.0001
1.00019
1.00057
1.00109
1.00299
1.00649
1.01582
1.04326
1.095
1.2815
1.68539
2.44886
2.74195
2.75179
2.72756
2.69352
2.66059
2.64068
2.62839
2.61927
1
1
1.00001
1.00002
1.00004
1.00011
1.00019
1.0006
1.00108
1.0033
1.00626
1.01703
1.04048
1.09432
1.2697
1.65588
2.42981
2.74614
2.76049
2.73444
2.69968
2.66397
2.64246
2.6302
2.6218
1
1
1.00001
1.00002
1.00003
1.0001
1.00019
1.00057
1.00103
1.00316
1.00602
1.0164
1.03897
1.09156
1.26169
1.63703
2.40451
2.75925
2.77029
2.74211
2.70201
2.66027
2.63698
2.62539
2.61846
1
1
1.00001
1.00002
1.00003
1.0001
1.00017
1.00054
1.00097
1.00301
1.0057
1.01569
1.03723
1.08822
1.25332
1.61745
2.37714
2.78572
2.78353
2.74927
2.69726
2.64933
2.62486
2.61505
2.60988
1
1
1.00001
1.00001
1.00003
1.00008
1.00015
1.00045
1.00088
1.00236
1.00541
1.01302
1.03699
1.08291
1.2495
1.61235
2.33992
2.81624
2.79828
2.7431
2.68266
2.6324
2.6099
2.60345
2.60157
1
1
1.00001
1.00001
1.00003
1.00006
1.00016
1.00033
1.00079
1.00205
1.00439
1.01331
1.02782
1.09287
1.18934
1.64001
2.4474
2.88094
2.82988
2.76445
2.67115
2.61734
2.59971
2.60041
2.60089
1
1
1
1.00001
1.00002
1.00007
1.00014
1.00039
1.00079
1.00201
1.00502
1.01177
1.03442
1.0784
1.23512
1.59839
2.29024
2.9115
2.8433
2.7626
2.66954
2.62165
2.60534
2.60591
2.60554
2.34264
2.34426
2.60599
2.83629
3.16186
3.1144
3.11039
3.07132
3.05621
3.04861
3.04729
3.04976
3.04961
3.05177
3.05207
3.0539
3.05485
3.05791
3.06075
3.06493
3.06864
3.07227
3.07607
3.07919
3.08263
3.08522
3.08829
3.09107
3.09465
3.09603
3.096
3.09536
3.09394
3.09145
3.08762
3.08509
3.07936
3.07213
3.06905
3.06169
3.05711
3.04921
3.04201
3.03497
3.02711
3.01928
3.01073
3.00194
2.9922
2.98247
2.97245
2.96214
2.95193
2.94117
2.93078
2.92004
2.90887
2.89765
2.88639
2.87504
2.86384
2.85254
2.84134
2.83009
2.81886
2.80794
2.79677
2.78599
2.77509
2.76434
2.75379
2.74311
2.73288
2.72239
2.71259
2.70247
2.69317
2.68373
2.67497
2.6664
2.65847
2.65099
2.6444
2.63854
2.63391
2.63046
2.62841
2.62798
2.62811
2.62853
2.62998
2.63302
2.6402
2.64591
2.65553
2.66135
2.66985
2.67356
2.68038
2.67798
2.28676
2.29045
2.43526
2.6258
2.75627
2.91631
3.04184
3.11757
3.15927
3.1935
3.2217
3.31832
3.39669
3.31237
3.27868
3.2591
3.24684
3.24129
3.2366
3.22862
3.22073
3.20799
3.19621
3.17972
3.16097
3.1417
3.12144
3.09909
3.07739
3.0606
3.03493
3.01583
2.99655
2.97554
2.95692
2.93833
2.91779
2.89556
2.87546
2.85703
2.84055
2.8249
2.81093
2.79772
2.78628
2.7751
2.76455
2.75397
2.74384
2.73427
2.72467
2.71497
2.70486
2.69518
2.68495
2.67527
2.66442
2.65344
2.64138
2.62888
2.61596
2.60263
2.58971
2.57662
2.56467
2.55262
2.54177
2.53099
2.52114
2.51144
2.50255
2.49365
2.48552
2.47735
2.46972
2.4623
2.4551
2.44835
2.44174
2.43557
2.42973
2.42451
2.41965
2.41589
2.41273
2.41078
2.41026
2.41069
2.41149
2.41269
2.41506
2.41806
2.42443
2.43057
2.43886
2.44477
2.45232
2.45555
2.46037
2.45719
2.31844
2.2973
2.34023
2.39828
2.44832
2.51174
2.58094
2.66558
2.73885
2.80575
2.86108
2.91523
2.96089
3.00316
3.02305
3.03667
3.05012
3.05197
3.05373
3.05672
3.05423
3.04813
3.03593
3.01871
2.99928
2.97329
2.94141
2.90156
2.86187
2.82255
2.78921
2.76248
2.73878
2.71704
2.69579
2.67209
2.64885
2.62765
2.60879
2.59166
2.57627
2.562
2.54876
2.53603
2.5239
2.51245
2.50111
2.48981
2.47826
2.46711
2.45664
2.44712
2.4382
2.43019
2.42288
2.41643
2.41034
2.40433
2.39799
2.39095
2.38372
2.37611
2.36889
2.36175
2.35512
2.34869
2.34237
2.33591
2.32932
2.32228
2.31514
2.30749
2.29987
2.292
2.28421
2.27664
2.2691
2.2621
2.2552
2.24885
2.2429
2.23741
2.23263
2.22843
2.22527
2.22292
2.22226
2.22258
2.2234
2.2245
2.22686
2.22976
2.23573
2.24149
2.24986
2.25532
2.26337
2.26682
2.27257
2.27107
2.33336
2.29893
2.2912
2.30614
2.32346
2.34578
2.37022
2.3994
2.43358
2.46891
2.50554
2.53913
2.56713
2.5897
2.60556
2.61479
2.61941
2.62026
2.61924
2.61632
2.61165
2.60499
2.59682
2.5885
2.57969
2.57171
2.56337
2.5551
2.54778
2.54324
2.54074
2.5388
2.53727
2.53531
2.53156
2.52556
2.51763
2.50902
2.50024
2.49181
2.48365
2.47566
2.46742
2.45888
2.45009
2.44111
2.43168
2.42142
2.41025
2.39812
2.38568
2.37301
2.36031
2.34738
2.33466
2.32214
2.31035
2.29913
2.28885
2.2795
2.27176
2.26561
2.26149
2.25884
2.2575
2.25661
2.25603
2.25482
2.25299
2.25013
2.2466
2.2423
2.23719
2.23152
2.22506
2.21843
2.21115
2.20429
2.19689
2.19028
2.18351
2.17748
2.17189
2.16694
2.16305
2.15967
2.15822
2.15707
2.15706
2.1573
2.15827
2.16032
2.16498
2.16925
2.17681
2.18149
2.18875
2.19221
2.19774
2.19691
2.34336
2.30521
2.28052
2.27019
2.26784
2.26969
2.27599
2.28398
2.29788
2.31362
2.33193
2.34913
2.36433
2.37595
2.38483
2.39024
2.39319
2.39478
2.39536
2.3962
2.39691
2.39672
2.39626
2.39565
2.3952
2.39526
2.39555
2.39629
2.39733
2.39874
2.39953
2.40042
2.40049
2.4003
2.40002
2.39998
2.40017
2.40099
2.40275
2.40419
2.40445
2.40423
2.40353
2.40183
2.39865
2.39474
2.38996
2.38361
2.37562
2.3657
2.35493
2.34325
2.33147
2.31879
2.30599
2.29206
2.27839
2.26443
2.25143
2.23884
2.22753
2.2172
2.20829
2.20042
2.1938
2.18821
2.18381
2.18037
2.17756
2.17517
2.17262
2.17019
2.16723
2.16428
2.16058
2.15684
2.15214
2.14768
2.14248
2.13777
2.13285
2.12848
2.12444
2.12109
2.11849
2.11668
2.11639
2.11665
2.11723
2.11802
2.11989
2.12207
2.12668
2.1306
2.13738
2.14193
2.14861
2.15214
2.15726
2.15664
2.36342
2.32431
2.29099
2.26857
2.253
2.24353
2.23734
2.23463
2.23465
2.23826
2.24334
2.25012
2.25608
2.26172
2.26514
2.26791
2.26877
2.26938
2.26921
2.26871
2.26927
2.27014
2.27112
2.27248
2.27414
2.2763
2.27889
2.28213
2.28548
2.28903
2.29267
2.2966
2.30048
2.30462
2.30809
2.31232
2.31547
2.31916
2.32072
2.32312
2.32447
2.32498
2.32478
2.32409
2.32326
2.32169
2.31985
2.31694
2.31331
2.30809
2.30204
2.29456
2.28622
2.27643
2.26584
2.254
2.24161
2.22854
2.21567
2.20323
2.19172
2.1813
2.17179
2.16362
2.15596
2.14942
2.14271
2.13675
2.13036
2.12468
2.11879
2.11368
2.10848
2.10378
2.09907
2.09443
2.09008
2.08528
2.08107
2.07622
2.07219
2.06775
2.06424
2.06077
2.05836
2.05644
2.05601
2.05624
2.05657
2.05736
2.05958
2.06197
2.06691
2.07103
2.0778
2.08252
2.08917
2.09303
2.09845
2.09824
2.38351
2.34631
2.31379
2.28742
2.2654
2.24608
2.2327
2.2219
2.21451
2.20933
2.2063
2.20504
2.20444
2.20417
2.20347
2.20214
2.20049
2.19882
2.19731
2.19616
2.1955
2.19445
2.19527
2.19652
2.19857
2.20101
2.20419
2.20775
2.21185
2.21617
2.2209
2.22586
2.23066
2.23526
2.23984
2.24409
2.24823
2.25182
2.25605
2.25968
2.26378
2.26735
2.27081
2.27424
2.27762
2.28044
2.28259
2.2832
2.28288
2.28171
2.27905
2.27406
2.26775
2.25936
2.24957
2.23825
2.22637
2.21398
2.20177
2.18959
2.17785
2.16648
2.15564
2.14535
2.1355
2.12638
2.11774
2.11014
2.10311
2.09711
2.09146
2.08655
2.08161
2.07734
2.07281
2.06887
2.06458
2.06069
2.05658
2.0527
2.04887
2.04525
2.04194
2.03915
2.03679
2.03537
2.03484
2.03491
2.0349
2.03528
2.03661
2.03833
2.04182
2.0447
2.04964
2.05307
2.05818
2.06133
2.06582
2.06544
2.39795
2.36443
2.33449
2.30707
2.2847
2.26576
2.2481
2.23326
2.21879
2.20819
2.19956
2.19292
2.18729
2.18263
2.1783
2.17394
2.17003
2.16609
2.16286
2.16006
2.1581
2.15638
2.15593
2.15491
2.15592
2.15785
2.1602
2.16344
2.16705
2.17118
2.17558
2.18043
2.18528
2.19044
2.19521
2.20034
2.20434
2.20936
2.21273
2.2175
2.21979
2.22418
2.22691
2.2306
2.23267
2.23516
2.23807
2.24167
2.2442
2.24449
2.24415
2.24325
2.24133
2.23762
2.23199
2.22468
2.21587
2.20628
2.19588
2.18536
2.1742
2.16319
2.1517
2.14077
2.12968
2.11943
2.10924
2.09996
2.09089
2.08274
2.07488
2.06789
2.06126
2.05527
2.04971
2.04439
2.03965
2.03483
2.03065
2.02636
2.02265
2.01897
2.01599
2.01317
2.01136
2.00995
2.00994
2.01019
2.01044
2.01124
2.01339
2.0155
2.01959
2.02278
2.02788
2.03143
2.03655
2.03975
2.04456
2.04446
2.41195
2.38253
2.35421
2.32794
2.30389
2.28272
2.26362
2.24664
2.23281
2.2194
2.20762
2.19706
2.18767
2.17982
2.17261
2.16596
2.16002
2.15429
2.14929
2.14495
2.14105
2.13807
2.13595
2.13468
2.1337
2.13364
2.13475
2.13681
2.13973
2.14312
2.14691
2.15077
2.15541
2.15954
2.16427
2.168
2.17279
2.17575
2.1801
2.18277
2.18693
2.18938
2.19223
2.19553
2.19824
2.20101
2.20424
2.20773
2.21206
2.2165
2.2193
2.22005
2.21994
2.21933
2.21755
2.21361
2.20773
2.20079
2.19253
2.18362
2.17345
2.16285
2.15123
2.13962
2.1275
2.11582
2.10417
2.09329
2.08288
2.07332
2.06449
2.05641
2.04919
2.0424
2.03652
2.03072
2.02575
2.02079
2.01638
2.01216
2.00831
2.00482
2.00179
1.99927
1.99745
1.99634
1.99626
1.9964
1.99656
1.99729
1.9992
2.00112
2.00455
2.00702
2.01125
2.01392
2.01837
2.02095
2.02538
2.02521
2.42633
2.40074
2.37536
2.35071
2.32734
2.30545
2.28514
2.26634
2.24911
2.23356
2.21926
2.20702
2.19568
2.18566
2.17643
2.16806
2.16035
2.15349
2.14691
2.14176
2.13631
2.13259
2.12852
2.1263
2.12393
2.12342
2.12237
2.12289
2.12455
2.12667
2.12991
2.13261
2.13656
2.13922
2.14383
2.14612
2.15051
2.15245
2.15637
2.15814
2.1614
2.16298
2.16632
2.16768
2.17049
2.17227
2.1751
2.17886
2.18263
2.1863
2.19041
2.19462
2.19753
2.19857
2.19857
2.19816
2.19674
2.19354
2.18828
2.18162
2.17293
2.16277
2.15112
2.13864
2.12566
2.11259
2.09993
2.08772
2.07647
2.06588
2.05649
2.04766
2.04004
2.03275
2.02655
2.02055
2.01537
2.01039
2.00601
2.00186
1.99819
1.99492
1.99213
1.98986
1.9883
1.98744
1.98747
1.9876
1.98779
1.98857
1.99061
1.9922
1.99541
1.99735
2.00095
2.00309
2.00682
2.00894
2.01318
2.01289
2.43622
2.41369
2.39112
2.36867
2.34684
2.32598
2.30588
2.28699
2.26902
2.25229
2.23665
2.22229
2.20903
2.19705
2.18589
2.17615
2.16683
2.1589
2.15103
2.14479
2.13816
2.13346
2.12822
2.12496
2.12138
2.11959
2.11769
2.11735
2.1165
2.11721
2.11919
2.12088
2.12431
2.12626
2.13025
2.13233
2.1362
2.13819
2.14133
2.14305
2.14581
2.14689
2.14926
2.15024
2.15238
2.15305
2.15453
2.15717
2.16061
2.16381
2.16654
2.17021
2.17517
2.17988
2.18272
2.18349
2.18339
2.18281
2.18103
2.17678
2.16897
2.15859
2.14645
2.13309
2.1194
2.10571
2.09263
2.08023
2.06887
2.05836
2.04899
2.04036
2.03273
2.02572
2.01945
2.0137
2.00855
2.00374
1.99954
1.99557
1.99225
1.98926
1.9868
1.98494
1.98369
1.98321
1.98327
1.98341
1.98363
1.9845
1.98642
1.98784
1.99049
1.99211
1.99493
1.99666
1.99965
2.00144
2.00526
2.00473
2.44607
2.4259
2.4053
2.38448
2.36382
2.34372
2.32414
2.3054
2.2874
2.27031
2.25421
2.23896
2.22486
2.21161
2.19951
2.18814
2.17787
2.16838
2.15948
2.15173
2.14428
2.13793
2.1319
2.12706
2.12243
2.11916
2.11628
2.1145
2.11324
2.11315
2.11293
2.11377
2.11575
2.11719
2.12018
2.12202
2.12543
2.12718
2.13017
2.13145
2.13395
2.13493
2.1369
2.13757
2.13906
2.13951
2.14047
2.14198
2.14419
2.1468
2.14956
2.15323
2.15839
2.16413
2.1686
2.17074
2.17107
2.17078
2.16952
2.16596
2.15807
2.14698
2.13432
2.12086
2.10728
2.09417
2.08175
2.0703
2.05978
2.05025
2.04153
2.03373
2.02645
2.02007
2.01398
2.00867
2.00365
1.99916
1.99519
1.99152
1.98852
1.98587
1.98389
1.98244
1.98159
1.98155
1.98166
1.98184
1.98227
1.98327
1.98507
1.98638
1.98845
1.98975
1.99188
1.99317
1.99538
1.99677
1.99998
1.99887
2.45253
2.43498
2.41662
2.39777
2.37867
2.35963
2.34081
2.3225
2.30461
2.28756
2.27112
2.25573
2.24109
2.22736
2.21457
2.2026
2.19137
2.18106
2.1713
2.16251
2.15394
2.14679
2.1395
2.13366
2.12778
2.12347
2.11884
2.11627
2.11308
2.11185
2.11043
2.1103
2.10989
2.11053
2.11194
2.1131
2.11557
2.1169
2.11916
2.12031
2.12227
2.12304
2.12438
2.12478
2.12558
2.12574
2.12612
2.12708
2.12901
2.13157
2.1348
2.13924
2.14508
2.15108
2.1555
2.15751
2.15777
2.1574
2.1558
2.15139
2.14263
2.1316
2.11957
2.10707
2.0948
2.08302
2.07193
2.06176
2.05224
2.04371
2.03565
2.02847
2.02165
2.01556
2.00979
2.00466
1.99989
1.99564
1.99188
1.98854
1.98586
1.98359
1.98199
1.98097
1.98059
1.9807
1.98098
1.98119
1.98184
1.98292
1.9844
1.98541
1.98682
1.98762
1.98883
1.98953
1.99072
1.99156
1.99383
1.99191
2.45659
2.44103
2.42467
2.40773
2.39036
2.37275
2.35511
2.33762
2.32044
2.30357
2.28736
2.27168
2.25689
2.24274
2.22942
2.21686
2.205
2.19383
2.1834
2.17352
2.16444
2.1559
2.14801
2.14086
2.13426
2.12827
2.12292
2.11859
2.11439
2.1114
2.10843
2.10709
2.10532
2.10499
2.10404
2.10434
2.10506
2.10574
2.10717
2.10796
2.10932
2.10985
2.11076
2.11123
2.11159
2.11214
2.11249
2.11342
2.11546
2.11824
2.12172
2.1263
2.13193
2.13727
2.14077
2.14201
2.142
2.14135
2.13907
2.1335
2.12465
2.1144
2.10343
2.09232
2.08148
2.07115
2.06148
2.05249
2.04412
2.0364
2.02917
2.02251
2.01626
2.01049
2.00507
2.00023
1.99564
1.99175
1.98819
1.98525
1.98287
1.981
1.97987
1.9792
1.97929
1.97948
1.97989
1.9802
1.98122
1.98215
1.98328
1.98397
1.9847
1.98507
1.98535
1.98543
1.98567
1.98589
1.98728
1.98463
2.45891
2.44437
2.42936
2.41397
2.39821
2.38225
2.36617
2.35009
2.33416
2.31839
2.30292
2.28786
2.27326
2.25929
2.24579
2.23301
2.22075
2.20911
2.19799
2.18744
2.1774
2.16797
2.15904
2.15058
2.14273
2.13537
2.1283
2.12212
2.11638
2.11119
2.10667
2.10324
2.09963
2.09747
2.0956
2.09479
2.09346
2.09356
2.09413
2.09468
2.09569
2.09626
2.09693
2.09758
2.09785
2.09864
2.09916
2.10041
2.10282
2.10592
2.10977
2.11461
2.12003
2.12454
2.12696
2.12746
2.12723
2.12607
2.12284
2.11626
2.10781
2.09844
2.08853
2.07862
2.06897
2.05967
2.05101
2.04273
2.03514
2.02792
2.02131
2.01506
2.00934
2.0039
1.999
1.99439
1.99031
1.98672
1.98355
1.98107
1.97908
1.97775
1.97693
1.97694
1.97709
1.97753
1.97787
1.97878
1.97958
1.98038
1.98119
1.98149
1.98163
1.98155
1.98131
1.98084
1.9805
1.98011
1.981
1.97779
2.46264
2.44795
2.43309
2.41802
2.4028
2.38742
2.37204
2.35672
2.34151
2.32645
2.31157
2.29692
2.28263
2.26867
2.2552
2.24211
2.22959
2.21744
2.2059
2.19465
2.18402
2.17366
2.16396
2.15449
2.14565
2.13712
2.12919
2.12157
2.11484
2.10849
2.10294
2.09798
2.09399
2.0903
2.08749
2.08556
2.08374
2.08324
2.08229
2.08225
2.08252
2.08313
2.08364
2.08476
2.0853
2.08675
2.08751
2.08915
2.09184
2.0951
2.099
2.10361
2.10821
2.11141
2.11258
2.11256
2.11202
2.11023
2.10599
2.09952
2.09177
2.08339
2.07452
2.06573
2.05699
2.04859
2.04058
2.0329
2.02578
2.01902
2.01281
2.00706
2.00175
1.9969
1.99245
1.98851
1.98492
1.98202
1.97952
1.97767
1.97633
1.97555
1.97535
1.97549
1.97582
1.97615
1.97694
1.9776
1.97854
1.97907
1.97929
1.97926
1.97908
1.9787
1.97807
1.97712
1.97646
1.97564
1.9758
1.97262
2.4712
2.45692
2.44224
2.4273
2.41221
2.39704
2.38174
2.36654
2.35139
2.3364
2.32158
2.30698
2.29258
2.27857
2.26475
2.25143
2.23842
2.22591
2.21373
2.20216
2.1908
2.18011
2.16971
2.15989
2.15033
2.14138
2.13281
2.12472
2.11705
2.11013
2.10353
2.09773
2.09263
2.08825
2.08453
2.08182
2.07939
2.07746
2.0762
2.07544
2.07454
2.07448
2.07469
2.0754
2.07592
2.07731
2.07811
2.07973
2.08223
2.08518
2.08854
2.09238
2.09585
2.09787
2.09825
2.09804
2.09716
2.09492
2.09054
2.08484
2.07825
2.07094
2.06338
2.05562
2.04791
2.04041
2.03299
2.02605
2.01923
2.01296
2.00694
2.00144
1.99635
1.99172
1.98762
1.98395
1.9809
1.97836
1.97646
1.9751
1.97436
1.97407
1.97418
1.97444
1.97475
1.97532
1.97629
1.97675
1.9773
1.97731
1.97723
1.97698
1.97638
1.97548
1.97427
1.97268
1.97145
1.97026
1.9701
1.96705
2.47557
2.46304
2.45012
2.43681
2.4231
2.40903
2.39475
2.38023
2.36574
2.35117
2.33674
2.32239
2.3082
2.29419
2.28043
2.2669
2.25375
2.24088
2.22849
2.2164
2.20481
2.19359
2.18277
2.17249
2.16251
2.15298
2.14381
2.13503
2.1266
2.11856
2.11096
2.10378
2.09704
2.09109
2.08563
2.08086
2.07745
2.07425
2.07114
2.06918
2.06754
2.066
2.06537
2.06541
2.06574
2.06685
2.06777
2.0693
2.07159
2.07433
2.07719
2.08037
2.08329
2.08499
2.08523
2.08497
2.08409
2.08199
2.07835
2.07362
2.06804
2.06195
2.05545
2.0489
2.04219
2.03559
2.02897
2.02254
2.01625
2.01025
2.00458
1.99927
1.99451
1.99009
1.98644
1.98313
1.98061
1.97867
1.97733
1.9766
1.97631
1.97639
1.97659
1.97683
1.97751
1.97814
1.97874
1.97871
1.97859
1.97828
1.9777
1.97683
1.97542
1.97379
1.97181
1.96996
1.96825
1.96674
1.96628
1.96346
2.47792
2.46572
2.45333
2.44091
2.42826
2.41532
2.40212
2.38866
2.37508
2.36137
2.34768
2.33388
2.32022
2.30646
2.293
2.27948
2.26633
2.25328
2.24061
2.22819
2.21615
2.2044
2.19308
2.18207
2.17146
2.16115
2.1511
2.14131
2.13188
2.1226
2.11379
2.1054
2.09759
2.09034
2.08411
2.07847
2.07334
2.06908
2.06518
2.06163
2.05918
2.05731
2.05601
2.05584
2.05607
2.05663
2.05777
2.05932
2.06156
2.06426
2.06694
2.0697
2.07258
2.07472
2.07527
2.07509
2.07443
2.07281
2.06987
2.06578
2.06112
2.05574
2.05013
2.04413
2.03805
2.03192
2.02574
2.01987
2.014
2.00868
2.00345
1.9988
1.99444
1.99057
1.98721
1.98435
1.98209
1.98054
1.97953
1.97939
1.97951
1.98001
1.98049
1.98177
1.98279
1.98371
1.98381
1.98369
1.98336
1.98281
1.98164
1.9803
1.97801
1.97584
1.9732
1.97088
1.96848
1.96632
1.9655
1.96271
2.48652
2.47296
2.45975
2.44676
2.43379
2.42074
2.40756
2.39422
2.38082
2.36728
2.35378
2.3402
2.32667
2.31312
2.29964
2.28625
2.27299
2.25993
2.2471
2.23452
2.22226
2.21025
2.19864
2.18727
2.17636
2.16555
2.1552
2.14499
2.13506
2.12559
2.11633
2.10765
2.09951
2.0919
2.0849
2.07847
2.07252
2.06719
2.06277
2.05895
2.05582
2.05411
2.05261
2.05137
2.05117
2.05134
2.05187
2.05298
2.05475
2.05722
2.05998
2.06278
2.06573
2.06833
2.0694
2.06935
2.0689
2.06776
2.06534
2.0618
2.05739
2.05235
2.04702
2.04143
2.03593
2.03035
2.0251
2.01986
2.0149
2.01008
2.00554
2.00132
1.99741
1.99394
1.99082
1.98829
1.98629
1.98496
1.98418
1.98407
1.98421
1.98463
1.98575
1.98738
1.98806
1.98919
1.98926
1.98924
1.98907
1.98852
1.98731
1.9854
1.9828
1.98017
1.97716
1.97414
1.97136
1.96845
1.96711
1.96367
2.49792
2.48565
2.47315
2.46015
2.4469
2.43342
2.41984
2.4062
2.3925
2.37888
2.36514
2.35154
2.33781
2.32425
2.31062
2.29717
2.28378
2.27059
2.25759
2.24487
2.23241
2.22026
2.20841
2.19686
2.18566
2.17472
2.16414
2.15379
2.1439
2.13423
2.12503
2.11628
2.10794
2.10019
2.09266
2.08567
2.07927
2.07315
2.06803
2.06344
2.05893
2.05537
2.05263
2.04995
2.04832
2.04814
2.04838
2.04914
2.05086
2.05351
2.05656
2.05964
2.06273
2.06536
2.06647
2.06644
2.06604
2.06484
2.06257
2.05891
2.05497
2.05028
2.04564
2.04066
2.03589
2.031
2.02641
2.0218
2.01754
2.01341
2.00966
2.00596
2.00291
1.99997
1.99757
1.99565
1.99404
1.99297
1.99218
1.99155
1.99187
1.99248
1.99379
1.99427
1.99532
1.99524
1.99515
1.99496
1.99452
1.99342
1.9918
1.98925
1.98649
1.98336
1.97996
1.97643
1.97303
1.96939
1.96759
1.96358
2.50251
2.49169
2.48065
2.4692
2.45733
2.44504
2.43239
2.41943
2.40626
2.39291
2.37955
2.36601
2.35259
2.33903
2.32561
2.31217
2.29886
2.28567
2.27264
2.25986
2.24728
2.23503
2.22298
2.21126
2.19984
2.18864
2.17779
2.16716
2.15684
2.14681
2.13707
2.1276
2.11832
2.10932
2.1008
2.09245
2.08499
2.07782
2.07124
2.06553
2.05996
2.05499
2.05124
2.04753
2.04497
2.04461
2.04494
2.04592
2.04806
2.05101
2.05435
2.05778
2.06089
2.06309
2.06376
2.06366
2.06307
2.06164
2.05868
2.05536
2.05135
2.04745
2.04307
2.0391
2.03475
2.03083
2.02673
2.02312
2.0194
2.01629
2.01304
2.01066
2.00812
2.00651
2.00484
2.00419
2.00328
2.00305
2.00242
2.00286
2.00343
2.00408
2.00444
2.00461
2.00433
2.00382
2.00326
2.00269
2.00152
1.99967
1.99732
1.99428
1.99115
1.98742
1.98383
1.97968
1.97627
1.97206
1.97018
1.96614
2.50904
2.49761
2.4862
2.47474
2.46301
2.45111
2.43895
2.42656
2.41395
2.40116
2.38827
2.3753
2.36229
2.34928
2.33623
2.32325
2.31022
2.29735
2.28449
2.27181
2.25926
2.24684
2.23459
2.22251
2.21062
2.19898
2.18744
2.1762
2.16504
2.15409
2.14332
2.13277
2.12248
2.11265
2.10323
2.09433
2.08604
2.07824
2.07075
2.06422
2.0577
2.05216
2.04766
2.0437
2.04129
2.04104
2.04146
2.0427
2.0454
2.04892
2.0524
2.05537
2.05755
2.05856
2.05862
2.05823
2.0571
2.05454
2.05196
2.04849
2.04548
2.04167
2.03838
2.03451
2.03109
2.02743
2.02408
2.02079
2.01768
2.0149
2.01237
2.01017
2.00838
2.00718
2.00636
2.00626
2.00646
2.0069
2.00839
2.01025
2.01211
2.01382
2.01472
2.01572
2.01557
2.01537
2.01485
2.014
2.01198
2.00975
2.00628
2.00269
1.99862
1.99433
1.99024
1.98575
1.98223
1.97791
1.97602
1.97206
2.52874
2.51443
2.5005
2.48692
2.47372
2.46064
2.44765
2.4347
2.42167
2.40863
2.39547
2.38236
2.36914
2.35603
2.34284
2.32977
2.31671
2.30374
2.2909
2.27809
2.26554
2.25293
2.24064
2.22827
2.21626
2.20429
2.19261
2.18104
2.16961
2.15842
2.14725
2.13658
2.12594
2.11598
2.10616
2.09702
2.088
2.07967
2.07147
2.06417
2.05738
2.05173
2.0474
2.04409
2.04304
2.04327
2.04423
2.04654
2.04913
2.05135
2.05318
2.05435
2.0547
2.05459
2.05403
2.05266
2.05063
2.04844
2.04579
2.04306
2.03996
2.03688
2.03355
2.03026
2.02694
2.02367
2.0206
2.01768
2.01505
2.01296
2.01096
2.0099
2.009
2.00873
2.00884
2.0092
2.01013
2.01224
2.01437
2.01681
2.01935
2.02075
2.02289
2.02303
2.02299
2.02275
2.02183
2.02053
2.01745
2.01485
2.01037
2.00686
2.00219
1.99847
1.99399
1.99028
1.9863
1.98265
1.98032
1.97708
2.54713
2.5341
2.52077
2.50723
2.49358
2.47996
2.46625
2.45257
2.43885
2.4252
2.41154
2.39792
2.38433
2.37074
2.35721
2.34368
2.33028
2.3169
2.3037
2.29061
2.2777
2.26498
2.25246
2.24011
2.22802
2.216
2.20423
2.19241
2.18081
2.16927
2.158
2.14699
2.13632
2.12602
2.11601
2.10635
2.09707
2.08812
2.08
2.07251
2.06627
2.06114
2.05743
2.05468
2.05323
2.05277
2.05257
2.05237
2.05219
2.05213
2.05186
2.05136
2.05044
2.04929
2.04783
2.0462
2.04423
2.04229
2.03996
2.0378
2.03523
2.03282
2.0301
2.02748
2.02474
2.02216
2.01957
2.01745
2.01538
2.01404
2.01294
2.01252
2.01262
2.01314
2.0138
2.01554
2.01811
2.0206
2.02326
2.02594
2.02783
2.02978
2.03047
2.03035
2.02992
2.02925
2.02757
2.0258
2.02218
2.01898
2.01467
2.0111
2.00671
2.00331
1.99908
1.99574
1.99184