/*--------------------------------*- C++ -*----------------------------------*\
  =========                 |
  \\      /  F ield         | OpenFOAM: The Open Source CFD Toolbox
   \\    /   O peration     | Website:  https://openfoam.org
    \\  /    A nd           | Version:  6
     \\/     M anipulation  |
\*---------------------------------------------------------------------------*/
FoamFile
{
    version     2.0;
    format      ascii;
    class       volVectorField;
    location    "9.5";
    object      U;
}
// * * * * * * * * * * * * * * * * * * * * * * * * * * * * * * * * * * * * * //

dimensions      [0 1 -1 0 0 0 0];

internalField   nonuniform List<vector> 
5250
(
(2.99991 7.59453e-08 0)
(2.99972 4.87492e-07 0)
(2.99927 1.5165e-06 0)
(2.99834 4.14413e-06 0)
(2.9959 9.60211e-06 0)
(2.99104 2.33541e-05 0)
(2.97704 5.04679e-05 0)
(2.94935 0.00012327 0)
(2.86461 0.000272556 0)
(2.64775 0.000690936 0)
(2.07113 0.00161814 0)
(0.559001 0.00474162 0)
(-0.239546 0.0109933 0)
(0.156489 0.0170674 0)
(0.500315 0.0222892 0)
(0.597193 0.025276 0)
(0.557238 0.0273648 0)
(0.466793 0.0282644 0)
(0.371909 0.0301375 0)
(0.309889 0.0331008 0)
(0.260097 0.036376 0)
(0.205741 0.0396601 0)
(0.148336 0.0431232 0)
(0.0894129 0.0476965 0)
(0.0393625 0.0556091 0)
(2.99991 2.35385e-07 0)
(2.99972 1.51574e-06 0)
(2.99927 4.71157e-06 0)
(2.99834 1.29131e-05 0)
(2.99591 2.99914e-05 0)
(2.99107 7.31042e-05 0)
(2.97711 0.000160056 0)
(2.94952 0.000386647 0)
(2.86503 0.000888326 0)
(2.64887 0.00217227 0)
(2.07423 0.00529572 0)
(0.565668 0.0155557 0)
(-0.233076 0.0346873 0)
(0.164682 0.0504919 0)
(0.506825 0.0628469 0)
(0.600022 0.0689955 0)
(0.558016 0.0727089 0)
(0.467959 0.073655 0)
(0.375257 0.0769347 0)
(0.313824 0.0822343 0)
(0.263035 0.0873557 0)
(0.207297 0.0914383 0)
(0.148799 0.0946851 0)
(0.0886817 0.0980642 0)
(0.037992 0.10266 0)
(2.99991 4.09552e-07 0)
(2.99972 2.64358e-06 0)
(2.99928 8.21671e-06 0)
(2.99835 2.2577e-05 0)
(2.99594 5.26123e-05 0)
(2.99113 0.000128422 0)
(2.97726 0.000285248 0)
(2.94991 0.00067996 0)
(2.86593 0.00162494 0)
(2.65144 0.00381939 0)
(2.08187 0.0096629 0)
(0.582183 0.0282959 0)
(-0.215004 0.0612994 0)
(0.178202 0.0856056 0)
(0.51522 0.103682 0)
(0.60328 0.113744 0)
(0.558619 0.120848 0)
(0.469277 0.124845 0)
(0.380156 0.131855 0)
(0.319981 0.141063 0)
(0.268013 0.149735 0)
(0.210496 0.156811 0)
(0.150475 0.16226 0)
(0.0887169 0.166778 0)
(0.0367483 0.170199 0)
(2.99991 5.96194e-07 0)
(2.99973 3.8491e-06 0)
(2.99928 1.19631e-05 0)
(2.99837 3.29019e-05 0)
(2.99598 7.66753e-05 0)
(2.99123 0.00018764 0)
(2.97751 0.000416612 0)
(2.95055 0.00099535 0)
(2.86736 0.0023994 0)
(2.6556 0.00560476 0)
(2.09459 0.0142987 0)
(0.608669 0.0416735 0)
(-0.186615 0.0884686 0)
(0.19645 0.120535 0)
(0.52539 0.142846 0)
(0.607994 0.156633 0)
(0.561187 0.167583 0)
(0.473213 0.175942 0)
(0.388116 0.187413 0)
(0.329426 0.200938 0)
(0.276588 0.2139 0)
(0.217526 0.225259 0)
(0.155742 0.234586 0)
(0.0916314 0.242052 0)
(0.0371758 0.246625 0)
(2.99991 7.90415e-07 0)
(2.99973 5.10439e-06 0)
(2.9993 1.58414e-05 0)
(2.9984 4.36519e-05 0)
(2.99605 0.000101051 0)
(2.99137 0.000250086 0)
(2.97785 0.000540155 0)
(2.95144 0.00133346 0)
(2.86936 0.00313219 0)
(2.66144 0.00755821 0)
(2.11215 0.018957 0)
(0.645039 0.0553403 0)
(-0.148419 0.116145 0)
(0.219006 0.155801 0)
(0.536943 0.181767 0)
(0.613943 0.198671 0)
(0.565744 0.213087 0)
(0.479837 0.225845 0)
(0.39901 0.241916 0)
(0.342134 0.259993 0)
(0.288938 0.277614 0)
(0.228767 0.293848 0)
(0.165217 0.307953 0)
(0.0981251 0.319518 0)
(0.0396247 0.326375 0)
(2.99991 9.82248e-07 0)
(2.99974 6.3402e-06 0)
(2.99931 1.96638e-05 0)
(2.99843 5.41906e-05 0)
(2.99613 0.000124966 0)
(2.99155 0.000310664 0)
(2.9783 0.000659401 0)
(2.95255 0.00167222 0)
(2.87199 0.0037568 0)
(2.66905 0.00966893 0)
(2.13429 0.0234377 0)
(0.692065 0.0691416 0)
(-0.0999156 0.144368 0)
(0.246065 0.191544 0)
(0.550155 0.220834 0)
(0.621308 0.240241 0)
(0.572585 0.257707 0)
(0.489727 0.274835 0)
(0.413588 0.295907 0)
(0.358746 0.319153 0)
(0.305631 0.342345 0)
(0.24482 0.364596 0)
(0.179467 0.384816 0)
(0.108454 0.40193 0)
(0.044099 0.412151 0)
(2.99992 1.17053e-06 0)
(2.99974 7.54689e-06 0)
(2.99933 2.34148e-05 0)
(2.99847 6.44237e-05 0)
(2.99622 0.000148577 0)
(2.99176 0.000368155 0)
(2.97885 0.000780554 0)
(2.95382 0.00200156 0)
(2.87529 0.00429828 0)
(2.67837 0.0118425 0)
(2.16021 0.0277426 0)
(0.749504 0.0829233 0)
(-0.0416768 0.173124 0)
(0.277351 0.227957 0)
(0.564703 0.260037 0)
(0.629815 0.281159 0)
(0.581795 0.301225 0)
(0.503389 0.322764 0)
(0.432728 0.349226 0)
(0.380614 0.378307 0)
(0.328479 0.408192 0)
(0.267834 0.438241 0)
(0.200761 0.467337 0)
(0.124435 0.493577 0)
(0.051573 0.510577 0)
(2.99992 1.36533e-06 0)
(2.99975 8.79885e-06 0)
(2.99935 2.73038e-05 0)
(2.99851 7.50735e-05 0)
(2.99634 0.000173131 0)
(2.992 0.000428393 0)
(2.97949 0.000907644 0)
(2.95526 0.00233682 0)
(2.87928 0.00492273 0)
(2.68939 0.0139219 0)
(2.18992 0.0321831 0)
(0.818165 0.0963679 0)
(0.0272517 0.202481 0)
(0.313185 0.266077 0)
(0.580876 0.298402 0)
(0.639597 0.320431 0)
(0.593837 0.342784 0)
(0.521634 0.369057 0)
(0.457382 0.401311 0)
(0.408926 0.436971 0)
(0.359299 0.474805 0)
(0.300835 0.514724 0)
(0.234025 0.556801 0)
(0.152205 0.599373 0)
(0.065986 0.631908 0)
(2.99992 1.57115e-06 0)
(2.99976 1.0122e-05 0)
(2.99937 3.14094e-05 0)
(2.99857 8.63229e-05 0)
(2.99647 0.000198979 0)
(2.99228 0.000492042 0)
(2.98024 0.00104091 0)
(2.95691 0.00268234 0)
(2.88388 0.00561769 0)
(2.7021 0.0159186 0)
(2.22393 0.0367341 0)
(0.898217 0.10926 0)
(0.108182 0.232526 0)
(0.352565 0.307045 0)
(0.595785 0.334828 0)
(0.650045 0.357003 0)
(0.608853 0.381459 0)
(0.544863 0.41281 0)
(0.488246 0.451131 0)
(0.445098 0.49397 0)
(0.400449 0.539723 0)
(0.348314 0.592165 0)
(0.287409 0.653899 0)
(0.203797 0.724604 0)
(0.0972968 0.79879 0)
(2.99992 1.79764e-06 0)
(2.99977 1.15754e-05 0)
(2.9994 3.59174e-05 0)
(2.99863 9.86348e-05 0)
(2.99662 0.000227171 0)
(2.9926 0.000561103 0)
(2.98109 0.00118398 0)
(2.95877 0.00305135 0)
(2.88911 0.00634542 0)
(2.71645 0.0179691 0)
(2.26205 0.041343 0)
(0.989743 0.121696 0)
(0.2024 0.262761 0)
(0.394225 0.348674 0)
(0.606082 0.370167 0)
(0.660413 0.391229 0)
(0.626665 0.417118 0)
(0.573169 0.453078 0)
(0.525525 0.49733 0)
(0.488634 0.545539 0)
(0.453325 0.599701 0)
(0.416995 0.66773 0)
(0.374017 0.754735 0)
(0.308682 0.87199 0)
(0.175909 1.06115 0)
(2.99993 2.0683e-06 0)
(2.99978 1.33158e-05 0)
(2.99943 4.13461e-05 0)
(2.9987 0.000113454 0)
(2.99679 0.00026195 0)
(2.99296 0.000644164 0)
(2.98206 0.00137092 0)
(2.96086 0.00346778 0)
(2.89497 0.00736764 0)
(2.73243 0.0201286 0)
(2.30403 0.0470659 0)
(1.09112 0.134168 0)
(0.307869 0.293224 0)
(0.438502 0.388873 0)
(0.614209 0.404472 0)
(0.670805 0.422358 0)
(0.646958 0.450365 0)
(0.606028 0.488325 0)
(0.567204 0.536228 0)
(0.539317 0.588185 0)
(0.520947 0.650906 0)
(0.510477 0.733284 0)
(0.509881 0.839189 0)
(0.545019 0.980974 0)
(0.584609 1.1881 0)
(2.99993 2.38807e-06 0)
(2.9998 1.53819e-05 0)
(2.99946 4.78103e-05 0)
(2.99878 0.000131211 0)
(2.99699 0.000304384 0)
(2.99339 0.000745173 0)
(2.98315 0.0016121 0)
(2.96336 0.00395985 0)
(2.90152 0.00880652 0)
(2.75064 0.0225644 0)
(2.34999 0.0549682 0)
(1.20027 0.149001 0)
(0.422472 0.328681 0)
(0.483461 0.423253 0)
(0.617794 0.435945 0)
(0.68126 0.449899 0)
(0.668859 0.479305 0)
(0.639704 0.516875 0)
(0.611872 0.564694 0)
(0.596223 0.620212 0)
(0.599251 0.689048 0)
(0.6179 0.775362 0)
(0.654882 0.881306 0)
(0.74838 1.00787 0)
(0.888543 1.14146 0)
(2.99994 2.71839e-06 0)
(2.99981 1.75223e-05 0)
(2.9995 5.4449e-05 0)
(2.99887 0.000149623 0)
(2.99722 0.000346999 0)
(2.9939 0.000851985 0)
(2.98441 0.00184103 0)
(2.96638 0.00452622 0)
(2.90888 0.0101685 0)
(2.77197 0.0254027 0)
(2.40164 0.0640631 0)
(1.32039 0.169078 0)
(0.541022 0.375929 0)
(0.523292 0.447186 0)
(0.621849 0.462565 0)
(0.691299 0.472754 0)
(0.691097 0.50004 0)
(0.672441 0.536703 0)
(0.657593 0.583642 0)
(0.657571 0.641365 0)
(0.677937 0.710285 0)
(0.716749 0.788361 0)
(0.77612 0.876963 0)
(0.879781 0.970662 0)
(1.02341 1.03966 0)
(2.99994 3.02376e-06 0)
(2.99983 1.94888e-05 0)
(2.99955 6.05452e-05 0)
(2.99897 0.0001664 0)
(2.99747 0.000385429 0)
(2.99446 0.000947737 0)
(2.98584 0.00203789 0)
(2.96974 0.00512384 0)
(2.91715 0.0109279 0)
(2.7968 0.0293223 0)
(2.46107 0.0699311 0)
(1.46309 0.194976 0)
(0.66316 0.434273 0)
(0.553527 0.468718 0)
(0.630187 0.481603 0)
(0.700685 0.48699 0)
(0.712965 0.512236 0)
(0.705785 0.548993 0)
(0.704127 0.595005 0)
(0.716956 0.650432 0)
(0.747594 0.71215 0)
(0.796142 0.777273 0)
(0.864065 0.844571 0)
(0.963873 0.908077 0)
(1.08934 0.946944 0)
(2.99995 3.29633e-06 0)
(2.99985 2.12572e-05 0)
(2.9996 6.60675e-05 0)
(2.99909 0.000181754 0)
(2.99776 0.000421861 0)
(2.99508 0.00103759 0)
(2.98746 0.00224241 0)
(2.97317 0.00569725 0)
(2.92702 0.0117347 0)
(2.82238 0.0333371 0)
(2.5298 0.0751151 0)
(1.6431 0.220601 0)
(0.794901 0.500049 0)
(0.573306 0.495398 0)
(0.637562 0.493354 0)
(0.711297 0.494308 0)
(0.738131 0.518756 0)
(0.740549 0.555411 0)
(0.747698 0.598365 0)
(0.768662 0.647081 0)
(0.804983 0.698883 0)
(0.857103 0.751354 0)
(0.925425 0.801836 0)
(1.01577 0.845571 0)
(1.12458 0.869155 0)
(2.99996 3.43955e-06 0)
(2.99987 2.22274e-05 0)
(2.99965 6.90942e-05 0)
(2.99921 0.000190745 0)
(2.99807 0.000443738 0)
(2.99576 0.00109747 0)
(2.98925 0.00238197 0)
(2.97698 0.00607868 0)
(2.93797 0.0126008 0)
(2.85076 0.0356748 0)
(2.60661 0.0812148 0)
(1.8604 0.238449 0)
(0.946887 0.566981 0)
(0.5983 0.534232 0)
(0.654713 0.513193 0)
(0.732811 0.50548 0)
(0.770483 0.524216 0)
(0.778329 0.55684 0)
(0.788901 0.594656 0)
(0.813066 0.635624 0)
(0.851378 0.677896 0)
(0.903621 0.71929 0)
(0.969714 0.757178 0)
(1.05064 0.788405 0)
(1.14435 0.805084 0)
(2.99996 3.23798e-06 0)
(2.99989 2.09186e-05 0)
(2.99971 6.5019e-05 0)
(2.99934 0.000179397 0)
(2.99839 0.000417377 0)
(2.99646 0.00103084 0)
(2.99111 0.00223727 0)
(2.98095 0.00570236 0)
(2.94946 0.0116997 0)
(2.88067 0.0331312 0)
(2.68889 0.0750778 0)
(2.11508 0.219299 0)
(1.15242 0.552165 0)
(0.681968 0.559512 0)
(0.710035 0.545705 0)
(0.779044 0.5264 0)
(0.819304 0.533648 0)
(0.826703 0.557997 0)
(0.834594 0.588495 0)
(0.856401 0.621261 0)
(0.892361 0.654593 0)
(0.941083 0.686461 0)
(1.00224 0.714663 0)
(1.07468 0.736283 0)
(1.1558 0.747665 0)
(2.99997 2.75158e-06 0)
(2.99991 1.77263e-05 0)
(2.99976 5.50698e-05 0)
(2.99945 0.000151164 0)
(2.99866 0.000350734 0)
(2.99706 0.000858078 0)
(2.99268 0.0018554 0)
(2.98417 0.00460978 0)
(2.95888 0.00971788 0)
(2.9041 0.0251328 0)
(2.75243 0.0608012 0)
(2.30905 0.155077 0)
(1.37373 0.42395 0)
(0.769258 0.552373 0)
(0.763047 0.57016 0)
(0.819606 0.556807 0)
(0.869137 0.550539 0)
(0.879837 0.563736 0)
(0.884576 0.585384 0)
(0.9014 0.609161 0)
(0.932176 0.633206 0)
(0.975271 0.655894 0)
(1.02935 0.676218 0)
(1.09257 0.690378 0)
(1.16253 0.696585 0)
(2.99997 2.31389e-06 0)
(2.99992 1.48773e-05 0)
(2.9998 4.62341e-05 0)
(2.99954 0.000126456 0)
(2.99888 0.000293222 0)
(2.99754 0.000711771 0)
(2.99387 0.0015383 0)
(2.98692 0.00373716 0)
(2.96513 0.00802576 0)
(2.92319 0.0196146 0)
(2.78811 0.0479573 0)
(2.4221 0.114972 0)
(1.5949 0.310241 0)
(0.844292 0.581311 0)
(0.784415 0.600546 0)
(0.834468 0.592699 0)
(0.893439 0.574599 0)
(0.919462 0.574458 0)
(0.928398 0.585982 0)
(0.942859 0.600704 0)
(0.969005 0.615631 0)
(1.007 0.630099 0)
(1.05408 0.642242 0)
(1.10793 0.649758 0)
(1.16767 0.65126 0)
(2.99998 2.02933e-06 0)
(2.99994 1.3049e-05 0)
(2.99983 4.0591e-05 0)
(2.99962 0.000111087 0)
(2.99907 0.000258262 0)
(2.99795 0.00062653 0)
(2.9949 0.00135897 0)
(2.98909 0.00332466 0)
(2.97103 0.00686101 0)
(2.93702 0.0181789 0)
(2.82499 0.0392549 0)
(2.52988 0.111602 0)
(1.83601 0.271068 0)
(0.969112 0.629337 0)
(0.784718 0.625179 0)
(0.829811 0.61305 0)
(0.894689 0.590822 0)
(0.938521 0.582868 0)
(0.958183 0.586078 0)
(0.975031 0.593333 0)
(1.00007 0.601303 0)
(1.03417 0.608725 0)
(1.07486 0.613048 0)
(1.12135 0.614295 0)
(1.17267 0.611489 0)
(2.99998 1.78254e-06 0)
(2.99995 1.14756e-05 0)
(2.99986 3.5697e-05 0)
(2.99969 9.7927e-05 0)
(2.99924 0.000227776 0)
(2.99832 0.00055541 0)
(2.99585 0.00120209 0)
(2.99109 0.00297251 0)
(2.97655 0.00608028 0)
(2.94974 0.0167596 0)
(2.86009 0.0340565 0)
(2.6343 0.105001 0)
(2.07823 0.248483 0)
(1.12394 0.64959 0)
(0.793911 0.640505 0)
(0.829277 0.618807 0)
(0.8959 0.591848 0)
(0.950874 0.580395 0)
(0.978434 0.580214 0)
(0.998926 0.58332 0)
(1.02395 0.586475 0)
(1.05474 0.58743 0)
(1.09077 0.586202 0)
(1.13208 0.582849 0)
(1.17722 0.576765 0)
(2.99999 1.48585e-06 0)
(2.99996 9.55192e-06 0)
(2.99989 2.97164e-05 0)
(2.99974 8.1315e-05 0)
(2.99938 0.000189001 0)
(2.99864 0.000458454 0)
(2.99668 0.000991395 0)
(2.99278 0.00241858 0)
(2.98167 0.00499665 0)
(2.95985 0.0133499 0)
(2.89359 0.0269147 0)
(2.73149 0.0809652 0)
(2.32537 0.1894 0)
(1.34056 0.534741 0)
(0.862988 0.611132 0)
(0.857003 0.609153 0)
(0.91159 0.591036 0)
(0.971527 0.574714 0)
(1.00265 0.569778 0)
(1.02205 0.568942 0)
(1.04373 0.567453 0)
(1.07104 0.564173 0)
(1.10407 0.559824 0)
(1.14156 0.553966 0)
(1.18204 0.546045 0)
(2.99999 1.20336e-06 0)
(2.99997 7.72224e-06 0)
(2.99991 2.40345e-05 0)
(2.99979 6.55242e-05 0)
(2.9995 0.000152391 0)
(2.99889 0.000366216 0)
(2.99729 0.000797457 0)
(2.99412 0.00188947 0)
(2.98501 0.00404133 0)
(2.96754 0.00966998 0)
(2.91315 0.0218139 0)
(2.7838 0.0533539 0)
(2.44566 0.129628 0)
(1.51132 0.347531 0)
(0.89726 0.582756 0)
(0.856757 0.600436 0)
(0.909787 0.594943 0)
(0.973889 0.573116 0)
(1.0144 0.560114 0)
(1.03703 0.553309 0)
(1.05823 0.54771 0)
(1.08435 0.542055 0)
(1.11542 0.535755 0)
(1.15008 0.52832 0)
(1.18699 0.519292 0)
(2.99999 1.00332e-06 0)
(2.99997 6.44686e-06 0)
(2.99993 2.00541e-05 0)
(2.99983 5.47532e-05 0)
(2.99959 0.000127423 0)
(2.9991 0.000306923 0)
(2.9978 0.000669522 0)
(2.99524 0.00159008 0)
(2.98769 0.00340912 0)
(2.97427 0.0081957 0)
(2.92794 0.0183402 0)
(2.82774 0.0449022 0)
(2.54243 0.110709 0)
(1.70319 0.294213 0)
(0.982184 0.610614 0)
(0.831784 0.608003 0)
(0.883018 0.595318 0)
(0.952092 0.567482 0)
(1.0066 0.547562 0)
(1.03828 0.536429 0)
(1.06366 0.528886 0)
(1.09117 0.521879 0)
(1.12203 0.514292 0)
(1.15538 0.50576 0)
(1.19015 0.496016 0)
(2.99999 7.13412e-07 0)
(2.99998 5.72534e-06 0)
(2.99994 1.54516e-05 0)
(2.99986 4.79367e-05 0)
(2.99967 9.788e-05 0)
(2.99928 0.000271505 0)
(2.99823 0.000503844 0)
(2.99619 0.00144547 0)
(2.99013 0.00245608 0)
(2.97962 0.00809626 0)
(2.94227 0.0116922 0)
(2.8664 0.0482096 0)
(2.63993 0.0835319 0)
(1.96116 0.289275 0)
(1.14234 0.635103 0)
(0.8279 0.619729 0)
(0.862534 0.586144 0)
(0.928707 0.551266 0)
(0.993177 0.526234 0)
(1.03421 0.5135 0)
(1.06408 0.506005 0)
(1.09308 0.49936 0)
(1.12412 0.492021 0)
(1.15692 0.483613 0)
(1.19055 0.474031 0)
(2.99999 5.42837e-07 0)
(2.99998 4.42308e-06 0)
(2.99995 1.18141e-05 0)
(2.99989 3.69453e-05 0)
(2.99975 7.4554e-05 0)
(2.99939 0.000208366 0)
(2.99866 0.000380417 0)
(2.9967 0.00110411 0)
(2.99288 0.00183087 0)
(2.98164 0.00618127 0)
(2.95995 0.00839285 0)
(2.89228 0.0363229 0)
(2.72999 0.0594393 0)
(2.29984 0.205475 0)
(1.33723 0.526217 0)
(0.871928 0.586109 0)
(0.866886 0.56325 0)
(0.924473 0.534705 0)
(0.991978 0.507523 0)
(1.03841 0.49205 0)
(1.06981 0.483405 0)
(1.09807 0.476745 0)
(1.12767 0.469831 0)
(1.15889 0.461951 0)
(1.19085 0.452935 0)
(3 5.30241e-07 0)
(2.99998 3.03417e-06 0)
(2.99996 1.02008e-05 0)
(2.99991 2.59705e-05 0)
(2.99979 6.47334e-05 0)
(2.9995 0.000144074 0)
(2.9989 0.000340778 0)
(2.99728 0.000730658 0)
(2.99411 0.00174123 0)
(2.98484 0.00370517 0)
(2.96727 0.00892888 0)
(2.91145 0.02032 0)
(2.77931 0.0492741 0)
(2.43372 0.122005 0)
(1.48796 0.324582 0)
(0.877508 0.534969 0)
(0.838083 0.536472 0)
(0.900455 0.520432 0)
(0.975355 0.492977 0)
(1.0328 0.475072 0)
(1.07043 0.464801 0)
(1.1006 0.457424 0)
(1.12995 0.450301 0)
(1.16013 0.442493 0)
(1.19076 0.433742 0)
(3 4.41367e-07 0)
(2.99999 2.52373e-06 0)
(2.99997 8.50914e-06 0)
(2.99992 2.1666e-05 0)
(2.99983 5.42155e-05 0)
(2.99959 0.00012106 0)
(2.9991 0.000287112 0)
(2.99776 0.000619442 0)
(2.99519 0.00146888 0)
(2.98737 0.00316498 0)
(2.97375 0.00750198 0)
(2.92537 0.0170224 0)
(2.82016 0.0408677 0)
(2.52315 0.100917 0)
(1.65097 0.265412 0)
(0.923506 0.546568 0)
(0.779766 0.524572 0)
(0.847812 0.498927 0)
(0.934344 0.468844 0)
(1.00909 0.452793 0)
(1.05772 0.444364 0)
(1.09328 0.43799 0)
(1.1249 0.431372 0)
(1.15582 0.423908 0)
(1.1864 0.415503 0)
(3 4.07351e-07 0)
(2.99999 1.84487e-06 0)
(2.99997 7.34206e-06 0)
(2.99994 1.61761e-05 0)
(2.99986 4.69256e-05 0)
(2.99966 8.94996e-05 0)
(2.99926 0.000252756 0)
(2.99817 0.000444034 0)
(2.9961 0.00134324 0)
(2.98964 0.00211039 0)
(2.97883 0.00771101 0)
(2.93858 0.00972269 0)
(2.85666 0.0464261 0)
(2.61269 0.0740736 0)
(1.88142 0.26714 0)
(1.04018 0.575897 0)
(0.729746 0.510365 0)
(0.796227 0.461938 0)
(0.895373 0.431253 0)
(0.986487 0.419976 0)
(1.04295 0.416031 0)
(1.08159 0.4129 0)
(1.1146 0.408591 0)
(1.1463 0.402841 0)
(1.17726 0.395747 0)
(3 2.63683e-07 0)
(2.99999 1.50738e-06 0)
(2.99998 5.07682e-06 0)
(2.99995 1.29167e-05 0)
(2.99988 3.23017e-05 0)
(2.99973 7.18644e-05 0)
(2.99935 0.000170971 0)
(2.99859 0.00036463 0)
(2.99648 0.000887651 0)
(2.99248 0.00181561 0)
(2.97997 0.00491456 0)
(2.95699 0.00946401 0)
(2.88005 0.0286861 0)
(2.69609 0.066854 0)
(2.20881 0.181552 0)
(1.16815 0.497457 0)
(0.717305 0.482072 0)
(0.779994 0.446161 0)
(0.88703 0.414291 0)
(0.984531 0.397272 0)
(1.04183 0.391128 0)
(1.07878 0.388346 0)
(1.10978 0.385361 0)
(1.13978 0.381055 0)
(1.16933 0.375226 0)
(3 1.34483e-07 0)
(2.99999 1.25338e-06 0)
(2.99998 3.09058e-06 0)
(2.99996 1.03736e-05 0)
(2.9999 1.94152e-05 0)
(2.99976 5.82172e-05 0)
(2.99948 9.77431e-05 0)
(2.99872 0.000305435 0)
(2.99722 0.000460105 0)
(2.99288 0.00164503 0)
(2.98512 0.00203169 0)
(2.95872 0.00965426 0)
(2.90745 0.00967866 0)
(2.74542 0.0547754 0)
(2.30087 0.0893993 0)
(1.36405 0.286432 0)
(0.709304 0.419122 0)
(0.747928 0.425555 0)
(0.8542 0.407392 0)
(0.964229 0.384599 0)
(1.03206 0.372963 0)
(1.07272 0.368164 0)
(1.10383 0.365078 0)
(1.13272 0.361226 0)
(1.16093 0.355939 0)
(3 1.46555e-07 0)
(2.99999 8.39413e-07 0)
(2.99998 2.81571e-06 0)
(2.99996 7.16841e-06 0)
(2.99991 1.77804e-05 0)
(2.99979 3.94979e-05 0)
(2.99954 9.26216e-05 0)
(2.99886 0.00019739 0)
(2.99753 0.000466059 0)
(2.99372 0.00097022 0)
(2.98666 0.00243002 0)
(2.96355 0.00481302 0)
(2.91963 0.0129647 0)
(2.77352 0.0301169 0)
(2.37703 0.0755241 0)
(1.51737 0.193463 0)
(0.726478 0.39541 0)
(0.700446 0.40196 0)
(0.80424 0.390807 0)
(0.921206 0.365605 0)
(1.00373 0.351821 0)
(1.05376 0.346993 0)
(1.08866 0.344719 0)
(1.11841 0.341608 0)
(1.14651 0.336877 0)
(3 1.33303e-07 0)
(2.99999 7.62341e-07 0)
(2.99999 2.56982e-06 0)
(2.99997 6.55017e-06 0)
(2.99992 1.63816e-05 0)
(2.99982 3.66586e-05 0)
(2.99959 8.66576e-05 0)
(2.999 0.000187904 0)
(2.99782 0.000441421 0)
(2.99445 0.000950163 0)
(2.98828 0.0022263 0)
(2.96751 0.00494617 0)
(2.93 0.0113244 0)
(2.79815 0.0267089 0)
(2.44791 0.0689727 0)
(1.65896 0.165289 0)
(0.768035 0.392252 0)
(0.635964 0.375218 0)
(0.737611 0.354301 0)
(0.864308 0.330735 0)
(0.964637 0.322249 0)
(1.02518 0.32181 0)
(1.06395 0.322043 0)
(1.09467 0.320338 0)
(1.12314 0.316555 0)
(3 1.2247e-07 0)
(3 6.99018e-07 0)
(2.99999 2.3653e-06 0)
(2.99997 6.03412e-06 0)
(2.99993 1.52017e-05 0)
(2.99984 3.4203e-05 0)
(2.99965 8.15451e-05 0)
(2.99913 0.000178637 0)
(2.99812 0.000420224 0)
(2.99515 0.000923326 0)
(2.98997 0.00211395 0)
(2.97113 0.00478121 0)
(2.93924 0.010957 0)
(2.82097 0.0247839 0)
(2.51327 0.0653668 0)
(1.79954 0.155837 0)
(0.813337 0.394819 0)
(0.552945 0.335414 0)
(0.662053 0.294626 0)
(0.80688 0.28097 0)
(0.924898 0.28488 0)
(0.992438 0.291892 0)
(1.03234 0.295903 0)
(1.06297 0.296182 0)
(1.09162 0.293764 0)
(3 1.25637e-07 0)
(3 5.0998e-07 0)
(2.99999 2.20966e-06 0)
(2.99997 4.56453e-06 0)
(2.99994 1.43075e-05 0)
(2.99986 2.57e-05 0)
(2.9997 7.90687e-05 0)
(2.99926 0.000129882 0)
(2.9984 0.000432752 0)
(2.99581 0.000603231 0)
(2.99148 0.00258069 0)
(2.97489 0.00218929 0)
(2.94797 0.0160749 0)
(2.84268 0.0117685 0)
(2.58173 0.0905153 0)
(1.94176 0.149615 0)
(0.850341 0.434786 0)
(0.456424 0.322935 0)
(0.596583 0.252169 0)
(0.77362 0.239187 0)
(0.903388 0.249062 0)
(0.970156 0.259877 0)
(1.00609 0.26604 0)
(1.03352 0.267732 0)
(1.06067 0.266672 0)
(3 6.94415e-08 0)
(3 3.96839e-07 0)
(2.99999 1.33358e-06 0)
(2.99998 3.38815e-06 0)
(2.99995 8.44128e-06 0)
(2.99989 1.8709e-05 0)
(2.99972 4.4287e-05 0)
(2.9994 9.33461e-05 0)
(2.99848 0.000227084 0)
(2.99688 0.000452104 0)
(2.99122 0.00127552 0)
(2.9825 0.00214255 0)
(2.94757 0.00792317 0)
(2.87981 0.0145854 0)
(2.66744 0.0523134 0)
(2.06659 0.132882 0)
(1.02171 0.353246 0)
(0.486982 0.301838 0)
(0.622021 0.256939 0)
(0.807082 0.241034 0)
(0.932074 0.241366 0)
(0.986549 0.245042 0)
(1.01031 0.246682 0)
(1.02859 0.246019 0)
(1.04964 0.244034 0)
(3 2.30996e-08 0)
(3 3.39479e-07 0)
(2.99999 6.53005e-07 0)
(2.99998 2.71876e-06 0)
(2.99995 3.92253e-06 0)
(2.99989 1.49611e-05 0)
(2.99975 1.7479e-05 0)
(2.99939 7.72078e-05 0)
(2.99868 6.28947e-05 0)
(2.99665 0.00043357 0)
(2.99286 6.30508e-05 0)
(2.98057 0.00292112 0)
(2.95882 -0.000709216 0)
(2.88192 0.0185811 0)
(2.69812 0.0068795 0)
(2.219 0.0794733 0)
(1.02578 0.186108 0)
(0.41984 0.228665 0)
(0.577631 0.242627 0)
(0.782537 0.2395 0)
(0.919588 0.236138 0)
(0.977926 0.234626 0)
(1.00096 0.232647 0)
(1.01754 0.230005 0)
(1.03695 0.22697 0)
(3 6.23592e-08 0)
(3 1.91402e-07 0)
(2.99999 1.02805e-06 0)
(2.99998 1.7569e-06 0)
(2.99996 6.59542e-06 0)
(2.9999 9.55572e-06 0)
(2.99977 3.61861e-05 0)
(2.99943 4.52632e-05 0)
(2.99877 0.000196995 0)
(2.99687 0.000191342 0)
(2.99332 0.00113745 0)
(2.9818 0.000478168 0)
(2.96155 0.00735376 0)
(2.88946 0.000190312 0)
(2.71709 0.0386846 0)
(2.26651 0.0317935 0)
(1.06212 0.138448 0)
(0.383229 0.206971 0)
(0.533819 0.243938 0)
(0.738757 0.235166 0)
(0.88408 0.22429 0)
(0.948552 0.217554 0)
(0.974771 0.21352 0)
(0.99321 0.210454 0)
(1.01381 0.207573 0)
(3 4.29822e-08 0)
(3 2.45656e-07 0)
(2.99999 8.32718e-07 0)
(2.99998 2.1278e-06 0)
(2.99996 5.36935e-06 0)
(2.99991 1.21459e-05 0)
(2.99978 2.89187e-05 0)
(2.99952 6.43229e-05 0)
(2.99879 0.000147796 0)
(2.99741 0.000341513 0)
(2.99307 0.000682943 0)
(2.98585 0.00183081 0)
(2.9584 0.0030296 0)
(2.90701 0.00762333 0)
(2.73524 0.0154868 0)
(2.25856 0.0372144 0)
(1.23131 0.0934837 0)
(0.461977 0.186399 0)
(0.548225 0.230721 0)
(0.71522 0.221895 0)
(0.861233 0.207102 0)
(0.929969 0.197403 0)
(0.958257 0.192556 0)
(0.976723 0.189772 0)
(0.996607 0.187444 0)
(3 3.06472e-08 0)
(3 1.9515e-07 0)
(2.99999 6.09245e-07 0)
(2.99998 1.64424e-06 0)
(2.99996 3.81601e-06 0)
(2.99991 8.98475e-06 0)
(2.99981 1.9438e-05 0)
(2.99952 4.44032e-05 0)
(2.99898 9.34394e-05 0)
(2.9973 0.00021461 0)
(2.99455 0.000435361 0)
(2.98377 0.00106528 0)
(2.96657 0.00206122 0)
(2.90019 0.00523494 0)
(2.74416 0.0129765 0)
(2.32959 0.0268593 0)
(1.21105 0.0804544 0)
(0.478536 0.168637 0)
(0.532922 0.20137 0)
(0.68431 0.20196 0)
(0.832492 0.188889 0)
(0.908013 0.178945 0)
(0.940953 0.173733 0)
(0.961201 0.170983 0)
(0.981268 0.168919 0)
(3 2.7596e-08 0)
(3 1.58612e-07 0)
(2.99999 5.32891e-07 0)
(2.99999 1.35898e-06 0)
(2.99996 3.37112e-06 0)
(2.99992 7.51021e-06 0)
(2.9998 1.75547e-05 0)
(2.99957 3.76801e-05 0)
(2.99892 8.57083e-05 0)
(2.99769 0.000193385 0)
(2.99377 0.000414794 0)
(2.98722 0.000874657 0)
(2.96202 0.0021148 0)
(2.91663 0.00444062 0)
(2.75466 0.0108835 0)
(2.32076 0.0281348 0)
(1.36398 0.0664048 0)
(0.553815 0.152582 0)
(0.558735 0.171516 0)
(0.68599 0.177724 0)
(0.823279 0.168358 0)
(0.899873 0.159896 0)
(0.934725 0.155216 0)
(0.955271 0.152919 0)
(0.974462 0.151373 0)
(3 2.04374e-08 0)
(3 1.31247e-07 0)
(2.99999 4.10522e-07 0)
(2.99999 1.12263e-06 0)
(2.99997 2.62414e-06 0)
(2.99992 6.32676e-06 0)
(2.99983 1.38904e-05 0)
(2.99958 3.29143e-05 0)
(2.9991 7.10946e-05 0)
(2.99756 0.000164297 0)
(2.99511 0.00038989 0)
(2.98522 0.000804985 0)
(2.96965 0.00188019 0)
(2.90804 0.003915 0)
(2.76564 0.0103323 0)
(2.38045 0.0221554 0)
(1.32188 0.0590981 0)
(0.560574 0.136309 0)
(0.537524 0.150805 0)
(0.662901 0.155651 0)
(0.799315 0.147793 0)
(0.88116 0.140273 0)
(0.920872 0.13633 0)
(0.944123 0.134892 0)
(0.964216 0.1342 0)
(3 1.20686e-08 0)
(3 6.94872e-08 0)
(2.99999 2.30024e-07 0)
(2.99999 5.84824e-07 0)
(2.99997 1.41698e-06 0)
(2.99993 3.09966e-06 0)
(2.99982 7.07254e-06 0)
(2.99962 1.46304e-05 0)
(2.99902 3.64142e-05 0)
(2.99794 5.85844e-05 0)
(2.9943 0.000207437 0)
(2.98848 0.000362036 0)
(2.96474 0.00114122 0)
(2.92407 0.00264639 0)
(2.77132 0.00705442 0)
(2.36489 0.0205325 0)
(1.45742 0.0491191 0)
(0.615741 0.122658 0)
(0.554128 0.133588 0)
(0.662424 0.135688 0)
(0.791003 0.127499 0)
(0.873316 0.120721 0)
(0.915112 0.118125 0)
(0.939145 0.118057 0)
(0.958544 0.118393 0)
(3 -7.61043e-09 0)
(3 8.94432e-08 0)
(2.99999 -1.25191e-08 0)
(2.99999 6.58072e-07 0)
(2.99997 -2.12436e-07 0)
(2.99993 3.63837e-06 0)
(2.99984 -3.00067e-06 0)
(2.9996 1.9918e-05 0)
(2.99914 -2.97671e-05 0)
(2.9977 0.000130373 0)
(2.99536 -0.000307321 0)
(2.98602 0.00118912 0)
(2.97162 -0.00280479 0)
(2.91352 0.00915673 0)
(2.78113 -0.0140548 0)
(2.42263 0.0330905 0)
(1.39549 0.0202916 0)
(0.615125 0.0988612 0)
(0.519243 0.111117 0)
(0.627569 0.11175 0)
(0.759458 0.102924 0)
(0.849765 0.0982328 0)
(0.897851 0.0987241 0)
(0.924875 0.101112 0)
(0.945026 0.102963 0)
(3 1.03622e-08 0)
(3 6.02706e-08 0)
(2.99999 1.95948e-07 0)
(2.99999 4.93547e-07 0)
(2.99997 1.15222e-06 0)
(2.99993 2.41803e-06 0)
(2.99984 5.25799e-06 0)
(2.99959 9.6027e-06 0)
(2.99911 2.39237e-05 0)
(2.99771 2.87288e-05 0)
(2.9952 0.000156981 0)
(2.98633 8.4587e-05 0)
(2.97197 0.00113651 0)
(2.91588 0.00177527 0)
(2.78906 0.00724315 0)
(2.44246 0.0183813 0)
(1.40952 0.045661 0)
(0.622492 0.108612 0)
(0.484204 0.103975 0)
(0.587803 0.0896638 0)
(0.725221 0.07596 0)
(0.826011 0.0737326 0)
(0.880845 0.0784323 0)
(0.910239 0.0839837 0)
(0.930635 0.0874597 0)
(3 2.14813e-08 0)
(3 1.23166e-07 0)
(2.99999 4.13998e-07 0)
(2.99999 1.05547e-06 0)
(2.99997 2.62681e-06 0)
(2.99993 5.86691e-06 0)
(2.99984 1.37543e-05 0)
(2.99961 2.95534e-05 0)
(2.99915 6.86889e-05 0)
(2.99781 0.000144124 0)
(2.9954 0.000341178 0)
(2.98685 0.000683243 0)
(2.97309 0.00172692 0)
(2.91869 0.00342744 0)
(2.79708 0.00885203 0)
(2.45923 0.0201796 0)
(1.44212 0.052229 0)
(0.630736 0.1184 0)
(0.444684 0.093334 0)
(0.551397 0.0593837 0)
(0.70457 0.0427173 0)
(0.820636 0.0459873 0)
(0.882316 0.0569445 0)
(0.912377 0.0662638 0)
(0.931465 0.0711432 0)
(3 3.11896e-08 0)
(3 1.77157e-07 0)
(3 6.04699e-07 0)
(2.99999 1.54948e-06 0)
(2.99997 3.97024e-06 0)
(2.99993 9.07352e-06 0)
(2.99985 2.19578e-05 0)
(2.99964 4.92888e-05 0)
(2.9992 0.000113629 0)
(2.99793 0.000266477 0)
(2.99565 0.000527031 0)
(2.98749 0.00131767 0)
(2.97439 0.0022863 0)
(2.92181 0.00509203 0)
(2.80545 0.0102763 0)
(2.47694 0.0206449 0)
(1.47418 0.0567806 0)
(0.632062 0.125509 0)
(0.393079 0.0778705 0)
(0.519813 0.0253132 0)
(0.703722 0.0119853 0)
(0.839865 0.0221792 0)
(0.907806 0.0371916 0)
(0.936466 0.047555 0)
(0.952936 0.0524294 0)
(3 4.22403e-08 0)
(3 1.5022e-07 0)
(3 7.29826e-07 0)
(2.99999 1.41224e-06 0)
(2.99998 4.96125e-06 0)
(2.99994 8.53621e-06 0)
(2.99987 2.98245e-05 0)
(2.99968 4.51334e-05 0)
(2.99932 0.000183037 0)
(2.99814 0.000194963 0)
(2.99627 0.00107416 0)
(2.98833 0.000493517 0)
(2.97644 0.0061256 0)
(2.92532 -0.000970575 0)
(2.81217 0.0314143 0)
(2.49178 0.0023598 0)
(1.52647 0.0785228 0)
(0.634915 0.128059 0)
(0.349104 0.0541079 0)
(0.507295 -0.0102924 0)
(0.725603 -0.011512 0)
(0.874775 0.00714853 0)
(0.941658 0.0242627 0)
(0.964686 0.0336686 0)
(0.975882 0.0385342 0)
(3 1.56648e-08 0)
(3 8.87373e-08 0)
(3 3.02201e-07 0)
(2.99999 7.69909e-07 0)
(2.99998 1.98205e-06 0)
(2.99995 4.48788e-06 0)
(2.99988 1.10842e-05 0)
(2.99975 2.46048e-05 0)
(2.99932 5.8816e-05 0)
(2.99865 0.000136237 0)
(2.99586 0.000294843 0)
(2.99181 0.000638764 0)
(2.97289 0.00150315 0)
(2.94257 0.00291081 0)
(2.81177 0.00737795 0)
(2.47665 0.0162729 0)
(1.6532 0.039755 0)
(0.596852 0.107532 0)
(0.234497 0.0392679 0)
(0.436469 -0.0243303 0)
(0.704466 -0.0268995 0)
(0.861083 -0.0105158 0)
(0.919801 0.00453906 0)
(0.934415 0.0127575 0)
(0.940766 0.0189126 0)
(3 -8.38189e-09 0)
(3 4.13392e-08 0)
(3 -7.23903e-08 0)
(2.99999 2.72086e-07 0)
(2.99998 -5.87139e-07 0)
(2.99995 1.50442e-06 0)
(2.99989 -4.99927e-06 0)
(2.99972 1.11902e-05 0)
(2.99941 -5.1048e-05 0)
(2.99832 0.000123938 0)
(2.99668 -0.000448752 0)
(2.98935 0.00107916 0)
(2.97839 -0.00328524 0)
(2.93054 0.00707892 0)
(2.82347 -0.0180928 0)
(2.51603 0.0229732 0)
(1.57899 -0.0071586 0)
(0.613133 0.0467861 0)
(0.239769 0.0295821 0)
(0.455879 0.0058106 0)
(0.737778 0.000370599 0)
(0.897491 0.00382149 0)
(0.949968 0.00756108 0)
(0.958506 0.00873522 0)
(0.960787 0.00949202 0)
(1.08146 1.13579 0)
(1.26093 1.02477 0)
(0.982112 0.868738 0)
(0.303164 0.634196 0)
(-0.296276 0.0349907 0)
(-0.367559 -0.00592523 0)
(-0.543962 -0.0352786 0)
(-0.672996 -0.0404523 0)
(-0.739912 -0.0329312 0)
(-0.765821 -0.0212679 0)
(-0.770965 -0.00819858 0)
(-0.762856 0.00636547 0)
(-0.759795 0.0199066 0)
(-0.753908 0.0272624 0)
(-0.752354 0.0308723 0)
(-0.750655 0.0306072 0)
(-0.746494 0.0273577 0)
(-0.736413 0.0224053 0)
(-0.719772 0.0175802 0)
(-0.698024 0.0134812 0)
(-0.671895 0.00959008 0)
(-0.642339 0.00561492 0)
(-0.609625 0.00141321 0)
(-0.573649 -0.00311825 0)
(-0.534292 -0.00799178 0)
(-0.491865 -0.0125878 0)
(-0.447525 -0.0165188 0)
(-0.401703 -0.0202012 0)
(-0.354721 -0.0236091 0)
(-0.307032 -0.0267356 0)
(-0.25933 -0.029593 0)
(-0.210546 -0.0322605 0)
(-0.162526 -0.0343828 0)
(-0.113364 -0.0364829 0)
(-0.064485 -0.0385594 0)
(-0.0163109 -0.0410772 0)
(0.0384775 -0.0432825 0)
(0.0889808 -0.0430033 0)
(0.12501 -0.0398148 0)
(0.166483 -0.0375162 0)
(0.208218 -0.0355628 0)
(0.249676 -0.0339021 0)
(0.289879 -0.0322886 0)
(0.329131 -0.0306949 0)
(0.366576 -0.0290227 0)
(0.402309 -0.0275268 0)
(0.43843 -0.0264798 0)
(0.475701 -0.0259258 0)
(0.512214 -0.0249346 0)
(0.547417 -0.0238145 0)
(0.581598 -0.0227345 0)
(0.615003 -0.0217245 0)
(0.647755 -0.0207751 0)
(0.679897 -0.0198788 0)
(0.711439 -0.0190169 0)
(0.742416 -0.0181892 0)