/*--------------------------------*- C++ -*----------------------------------*\
  =========                 |
  \\      /  F ield         | OpenFOAM: The Open Source CFD Toolbox
   \\    /   O peration     | Website:  https://openfoam.org
    \\  /    A nd           | Version:  6
     \\/     M anipulation  |
\*---------------------------------------------------------------------------*/
FoamFile
{
    version     2.0;
    format      ascii;
    class       volScalarField;
    location    "92";
    object      p;
}
// * * * * * * * * * * * * * * * * * * * * * * * * * * * * * * * * * * * * * //

dimensions      [0 2 -2 0 0 0 0];

internalField   nonuniform List<scalar> 
918
(
0.535985
1.22167
0.00700367
0.535894
-0.01171
1.1885
-0.505556
0.630103
0.517138
-0.122075
-0.0860153
0.519297
1.04629
0.813382
-1.16747
-0.0255497
0.631802
-0.419026
0.515207
-0.0936705
0.643089
0.523811
0.526276
0.51706
0.579904
0.765871
0.92411
-0.00355838
0.0120399
0.00676711
-0.0131122
-0.0336776
-0.0311218
1.07161
1.12351
1.14688
0.483621
0.316797
-0.400375
-0.455616
-0.43246
-0.522061
0.630666
0.632124
-0.229353
0.629568
0.628573
0.502814
0.516532
0.517368
0.51849
0.517401
0.518678
0.40627
-0.129455
-0.156878
-0.106786
-0.106141
0.0236055
-0.0874766
-0.0884083
-0.0842334
-0.0860396
0.432602
0.513952
0.510671
0.523581
0.532666
1.16184
1.13575
1.162
1.07138
1.08931
1.0234
0.99657
0.834535
0.857997
0.796654
0.782997
-1.61926
-2.5591
-0.594253
-0.321206
-0.0109096
-0.0272532
-0.0260601
0.627293
0.629513
0.629628
0.632113
1.04372
-0.390839
-0.463555
0.51575
0.514278
0.523331
0.524236
0.519203
0.5192
-0.0905721
-0.090036
-0.0768918
-0.0903329
-0.0880509
0.622299
0.624733
0.516495
0.513937
0.540809
0.564485
0.552274
0.249358
0.589881
0.605359
0.63058
0.776288
0.762872
0.775446
0.899358
0.867309
0.956121
0.978022
0.0143847
-0.00184835
-0.026885
-0.0241549
-0.0249427
0.479358
0.472915
0.50118
0.487246
0.490291
0.222952
0.0740046
0.398287
0.421417
-0.324381
-0.375153
-0.459899
-0.457893
-0.565835
0.604272
0.633951
0.633624
-0.240809
-0.16796
-0.296468
-0.110097
-0.167771
0.493753
0.500013
0.496083
0.511485
0.505646
0.508074
0.5206
0.517785
0.519378
0.453766
0.582779
0.331812
0.289184
-0.278182
-0.174958
-0.258899
-0.0984785
-0.0973481
0.0349186
0.0648096
0.0084747
-0.0048454
-0.092283
-0.0895328
-0.0913587
-0.0861897
-0.0873913
0.424037
0.410948
0.443862
0.451395
0.500568
0.501952
0.506505
0.504418
0.948492
0.971439
0.976774
0.952708
-3.52894
-6.14583
0.0188265
0.175996
-0.0103796
-0.0119651
-0.000614728
-0.0104912
-0.00149792
-0.00302185
-0.0368906
-0.0371616
-0.0296001
-0.0314253
0.62482
0.626204
1.01265
1.03879
0.984175
0.957482
0.505128
0.506993
0.511608
0.508495
-0.0877307
-0.0885723
-0.0881611
0.627327
0.62561
0.626417
0.207822
0.11855
0.301281
0.332619
0.62178
0.610086
0.620257
0.690505
0.729751
0.99477
1.01761
1.00262
1.01445
1.06477
1.08765
1.0529
0.45789
0.46884
0.463096
0.504006
0.501838
0.502775
0.499464
0.500313
0.499026
-0.0366505
-0.405737
0.470116
0.471212
0.463764
0.466291
0.691757
0.775985
0.630164
0.633009
0.633167
-0.0579083
-0.105178
0.236767
0.199858
0.362862
0.397657
0.379362
0.923401
0.882767
0.931175
0.906267
0.870919
0.895366
-0.341152
-2.09589
-1.09478
0.572246
0.376993
0.467916
-0.0202344
-0.0361358
-0.0319889
1.02728
1.06613
0.649343
0.840636
0.792659
0.752277
0.778587
0.84183
0.774472
0.809133
0.839423
0.815051
0.55276
0.480854
0.499731
0.851413
0.907196
0.0805425
0.000754479
-0.0221135
0.0868077
0.155396
0.122523
1.04243
0.960078
1.02258
0.514178
0.515132
-0.0218573
-0.049038
0.51925
0.51896
-0.0239587
-0.0152074
0.483029
-0.933464
0.0812999
0.50881
0.498388
0.51525
-0.101392
0.309089
-0.0888709
0.0013823
-0.0305117
0.509729
0.444964
0.402582
-0.0110243
-0.0354979
-0.0860505
-0.214782
0.511917
0.510274
0.51464
0.515457
0.516237
-0.0317466
-0.0318427
-0.021674
-0.0765203
-0.069424
-0.0823634
0.478492
0.498559
-0.195839
0.514936
0.517042
0.516734
0.510981
0.515894
0.514541
-0.0272107
-0.0299742
-0.0321291
0.187376
0.329544
0.665427
0.739681
0.614737
0.449143
0.160205
0.6031
0.654527
0.580165
0.710514
0.631681
0.628207
0.14834
0.00417572
0.152927
0.0857998
0.505621
0.505082
0.495903
0.492779
0.510095
0.507774
0.512967
0.510229
0.513398
0.514534
-0.0559971
-0.0866946
-0.103996
-0.148294
0.272747
0.538985
0.217435
0.282623
0.140811
-0.0818835
-0.0812292
-0.0841306
-0.0881177
-0.0512553
-0.0502836
-0.00589652
0.00462874
-0.0110686
-0.0370231
-0.0592421
-0.0508238
-0.0602725
0.502873
0.502828
0.508321
0.51739
0.454622
0.45833
0.424616
0.44338
0.429529
0.369489
0.399209
0.376321
-0.0214604
-0.0128625
-0.0132302
-0.036772
-0.036022
-0.0580363
-0.0507354
-0.049496
-0.0466953
-0.0514177
-0.0788458
-0.0856347
-0.178686
-0.298779
0.957979
0.900672
0.13675
0.501799
0.507479
0.50464
0.509401
0.512593
0.513218
0.510781
0.507268
0.498675
0.500289
0.496885
0.498009
-0.133135
-0.24375
-0.0747254
-0.151848
0.145721
0.612952
0.336704
0.281295
0.266522
0.493947
0.682956
0.589255
0.642613
0.613113
-0.39672
-0.00122224
-0.332425
0.21191
0.209096
0.692772
0.734298
0.751669
0.708678
0.665205
-0.0227341
0.543163
-0.0794192
-0.0274561
0.165256
0.0460469
0.597225
0.617948
0.625037
0.620278
0.624777
0.624873
0.614475
0.601889
0.625278
0.628345
0.488563
0.215606
0.17195
0.126034
0.617283
0.510005
0.560303
0.478866
0.50123
0.503684
0.502661
0.483292
0.490661
0.486314
0.493558
0.497182
0.504572
0.504743
0.50053
0.502498
-0.0793943
-0.0879241
-0.0725652
-0.129038
-0.133157
-0.176286
-0.0938039
0.0872555
0.0367667
0.225012
0.346667
0.0646383
-0.0586656
-0.0432385
0.0108602
0.17461
0.170849
0.0436719
0.146967
0.117884
0.100607
0.218061
0.218427
-0.056999
-0.0650844
-0.0621994
-0.0686574
-0.0242717
0.0985791
0.070254
-0.0374841
-0.0431623
-0.0797274
-0.0828365
0.000889755
-0.0450673
-0.0378522
-0.00517587
-0.064769
-0.0392892
-0.0303592
-0.0398266
-0.0395573
-0.0385433
0.497811
0.499415
0.499764
0.509481
0.521342
0.536193
0.502241
0.475887
0.466899
0.469997
0.442993
0.452284
0.447487
0.463387
0.485039
0.493381
0.491556
0.494275
0.476253
0.477942
0.463349
0.467971
0.437042
0.418256
0.408032
-0.0609826
-0.02852
-0.0420685
-0.0537182
-0.0283594
-0.0374795
-0.0388565
-0.0198496
-0.0395835
-0.0340624
-0.0440883
-0.050322
-0.0508844
-0.0812237
0.000351389
-0.182658
-0.230974
-0.284591
0.879803
1.0183
0.809253
0.571148
0.584223
0.828963
0.938318
0.528733
0.755441
0.757845
0.570494
0.863004
0.50577
0.505345
0.503194
0.502357
0.503373
-0.0201042
0.0839036
0.0938177
0.1544
0.269847
0.3746
0.310552
0.196723
0.329242
0.354018
0.609641
0.615446
0.575738
0.597322
0.59778
0.404079
0.484438
0.521757
0.480093
0.554558
0.586799
0.532918
0.576173
0.496992
0.44733
0.438676
0.393235
0.428072
0.409046
0.383394
0.497659
0.474385
0.48526
0.475351
0.497467
0.522265
0.52289
0.543998
0.562923
0.475908
0.421394
0.438549
0.467337
0.423347
0.441088
0.463233
0.184879
0.0865378
0.249447
-0.0781216
0.00556952
0.0470448
0.0032212
-0.0377913
0.268834
-0.366771
-0.313061
-0.986759
0.492187
0.820734
0.540866
0.552583
0.622721
0.61113
0.619302
0.618188
0.62432
0.603745
0.613937
0.618207
0.586895
0.608305
0.595905
0.605587
0.491318
0.391645
0.395235
0.326249
0.186649
0.228753
0.420647
0.351866
0.27674
0.268965
0.44568
0.310422
0.390393
0.439704
0.362747
0.298698
0.525668
0.57266
0.565603
0.537749
0.416424
0.44928
0.450318
0.500802
0.544179
0.567673
0.492104
0.498396
0.499305
0.496576
0.49495
0.498071
0.498353
0.50065
0.500793
0.503383
0.502878
-0.0789843
-0.0645809
-0.0766233
-0.0856731
-0.019562
-0.0311681
-0.00690764
-0.0355849
-0.035466
-0.0318381
-0.0481955
-0.0634899
-0.0614004
-0.051431
0.0640635
0.0766678
0.0886533
0.0423569
0.254647
0.390628
0.485905
0.34603
0.195075
0.215527
0.277775
0.0250236
0.00424024
-0.00910237
0.0645919
0.0567117
-0.0696367
-0.0747399
-0.071425
-0.0569275
-0.0502161
-0.0755782
-0.0810598
-0.0699322
-0.0762187
-0.081321
-0.0856085
0.477555
0.470479
0.474034
0.4665
0.464677
0.481551
0.486171
0.487248
0.492846
0.495398
0.484932
0.490674
0.494832
-0.0408801
-0.0582744
-0.0574847
-0.0625304
-0.0583364
-0.0562266
-0.0602903
0.123045
0.0283305
0.0650107
-0.00627793
-0.133511
-0.0743879
0.497604
0.489699
0.476568
0.717301
0.552828
0.471516
0.570277
0.691779
0.271502
0.470862
0.306148
0.884199
0.790938
0.936598
0.550675
0.250858
0.423512
0.430194
0.271808
0.397192
0.334333
0.210563
0.245717
0.281585
0.365138
0.25039
0.229777
-0.0134578
0.169177
0.277962
0.259951
0.385826
0.441758
0.262389
0.177359
0.123009
0.59137
0.607075
0.615062
0.586859
0.607853
0.566565
0.555943
0.573226
0.581685
0.57645
-0.621182
-0.210048
-1.40929
-0.828031
-0.376265
0.520074
0.525069
0.742412
0.641881
0.64652
0.628272
0.580369
0.558961
0.593123
0.603585
0.316025
0.399826
0.388184
0.362724
0.309339
0.252144
0.523328
0.534146
0.554139
0.583235
0.559776
0.588048
0.490876
0.490722
0.489384
0.485637
0.484139
0.487408
0.0128731
-0.00951056
0.0228827
0.0104943
-0.00814319
-0.0104516
-0.049517
-0.0612759
-0.0618356
-0.0577121
-0.0465523
-0.0449998
0.170434
0.107664
0.0183874
0.0601811
-0.00720669
-0.087867
-0.0916342
2.50802e-05
0.100493
0.0815587
0.386309
0.65492
0.479979
0.646154
0.444359
0.542792
0.459089
0.432438
0.459411
0.366172
0.457272
0.0583282
-0.144298
-0.199067
0.813667
0.777673
0.555345
0.315784
0.193829
0.481757
0.504507
0.465417
0.493237
0.540223
0.526633
0.0266375
0.110546
0.203291
0.506875
0.278607
0.29826
0.287959
0.455755
0.423544
)
;

boundaryField
{
    wall-4
    {
        type            zeroGradient;
    }
    velocity-inlet-5
    {
        type            zeroGradient;
    }
    velocity-inlet-6
    {
        type            zeroGradient;
    }
    pressure-outlet-7
    {
        type            fixedValue;
        value           uniform 0;
    }
    wall-8
    {
        type            zeroGradient;
    }
    frontAndBackPlanes
    {
        type            empty;
    }
}


// ************************************************************************* //
