/*--------------------------------*- C++ -*----------------------------------*\
  =========                 |
  \\      /  F ield         | OpenFOAM: The Open Source CFD Toolbox
   \\    /   O peration     | Website:  https://openfoam.org
    \\  /    A nd           | Version:  6
     \\/     M anipulation  |
\*---------------------------------------------------------------------------*/
FoamFile
{
    version     2.0;
    format      ascii;
    class       surfaceScalarField;
    location    "92";
    object      phi;
}
// * * * * * * * * * * * * * * * * * * * * * * * * * * * * * * * * * * * * * //

dimensions      [0 3 -1 0 0 0 0];

internalField   nonuniform List<scalar> 
1300
(
3.75095
5.62643
-3.31184
3.75095
-7.75299
5.62643
-4.29093
4.29093
-0.38905
0.38905
1.8765
1.87445
-2.43093
2.43093
-1.68507
1.68507
-2.52564
2.52564
-5.24819
5.24819
-5.06895
5.06895
4.69357
-4.69357
-6.34532
6.34532
-0.965859
0.965859
-3.5836
3.5836
3.17235
-3.17235
-1.75639
1.75639
0.11718
-0.11718
-0.554079
4.30503
3.19687
3.19687
-1.98853
1.98853
-4.87534
4.87534
6.22187
-6.22187
5.20716
-5.20716
-1.89532
-2.52923
1.7892
-11.4505
-5.96379
-5.96379
-8.44087
8.44087
-2.81444
2.81199
2.94736
-2.94736
-1.71527
1.71527
-4.30948
0.01855
-4.30948
4.25988
0.0310532
4.25988
-0.503469
0.114419
-0.503469
3.9646
-3.9646
0.28903
0.10002
0.28903
3.06734
-3.06734
-1.87685
3.75335
1.8741
-1.8721
6.17713
-1.87885
3.75331
-6.04457
6.04457
-2.67932
0.248386
-2.67932
2.19594
0.234988
2.19594
-6.90321
6.90321
-1.76984
0.084766
-1.76984
1.68451
0.000563669
1.68451
2.88874
-2.88874
-2.62434
0.0987077
-2.62434
2.39157
0.134062
2.39157
0.353049
5.27338
-5.97948
8.79147
-5.27338
0.0251913
5.21025
0.0379401
5.21025
-5.10548
0.0365238
-5.10548
5.01385
0.0551009
5.01385
4.78045
-0.0868794
4.78045
-4.81504
0.121465
-4.81504
-3.35667
-4.08581
-6.50847
0.163152
-6.50847
-1.0329
0.0670388
-1.0329
0.858679
0.10718
0.858679
-3.72475
3.72475
-3.94361
0.360008
-3.94361
3.1273
0.0450471
3.1273
1.86812
1.88284
5.61907
-5.61907
2.44672
-1.67689
-0.0794925
-1.67689
-1.85259
-3.35458
1.85259
-0.0962
-0.112637
0.229818
-0.112637
3.15713
0.0397403
3.15713
2.23775
0.153826
-2.23775
0.249219
3.3039
-3.3039
1.32561
0.662918
1.32561
-5.55854
5.55854
4.96231
0.0515416
-4.96231
0.0869765
6.15668
0.0651884
6.15668
-6.20702
-0.0148439
-6.20702
2.48044
-5.00967
-2.68896
6.15479
0.190536
-6.15479
0.190999
2.91898
0.0283819
2.91898
-2.91757
2.91757
-2.98432
0.0369557
-2.98432
-2.13788
0.422615
-2.13788
1.40132
0.313943
1.40132
-4.22515
-0.0843274
-4.22515
-4.10353
0.159925
4.10353
0.156343
1.11709
-1.11709
-0.612601
0.109132
-0.612601
-4.07169
-0.153459
4.07169
-0.107089
-3.90221
-0.0623929
-3.90221
-3.02198
0.0376617
3.02198
0.0453632
3.11214
0.0449978
-3.11214
0.0447953
-1.87099
3.75383
-1.87996
3.75406
-5.67777
-0.366802
-5.67777
6.3679
-0.323329
6.3679
3.10453
0.479068
-3.10453
0.425213
2.01165
0.184296
2.01165
-6.8779
-0.0253142
-6.8779
6.91167
-0.00845682
6.91167
1.87192
0.139731
-1.87192
0.102079
1.67433
0.0101794
1.67433
2.91662
-0.0278736
2.91662
-2.88226
-0.00648036
-2.88226
2.78894
-2.78894
2.71292
0.0760191
-2.71292
0.0885777
-11.1247
11.1098
-0.0362428
-11.0884
5.17401
5.17401
4.23261
0.547848
4.23261
-5.01311
0.19807
-5.01311
2.66895
-5.35791
3.129
-6.48567
4.67352
-16.124
4.27934
-8.36516
6.76228
-6.76228
6.64277
0.119504
-6.64277
0.134302
-1.1463
0.1134
-1.1463
-3.13035
-0.5944
-3.13035
4.36762
-0.642866
4.36762
-3.02734
3.02734
-3.07621
0.0488676
3.07621
0.0510929
1.65865
0.0156808
-1.65865
-0.0182461
0.190353
0.0986775
-0.190353
0.0777156
3.52788
-0.223971
3.52788
-3.0984
-0.205504
-3.0984
-1.23496
0.0886654
1.23496
0.0906477
-5.80738
0.248835
-5.80738
-11.1823
0.0938431
-11.1443
-6.11318
-6.11318
2.32769
11.1192
-2.89744
0.0151753
2.89744
0.0215416
2.97435
0.0529917
-2.97435
0.0567857
-2.85589
0.0669524
2.85589
0.0616743
-2.50572
0.36784
-2.50572
-1.01844
1.01844
-1.16468
0.14624
1.16468
0.236639
1.4203
-0.303217
1.4203
0.745247
0.113433
-0.745247
0.132645
-3.84488
-0.0573277
-3.84488
6.60115
-0.233247
6.60115
-2.9689
-0.1295
2.9689
-0.0522842
-0.0347205
11.1446
-5.13929
0.033808
5.13929
-11.2098
11.2436
-3.21054
0.704825
3.21054
1.02206
5.28355
0.274989
-5.28355
0.270445
6.85342
0.0582431
-6.85342
0.0911461
-2.63909
-0.491263
-2.63909
-5.09432
-0.583454
5.09432
-0.726698
-11.4823
-0.202198
11.6845
-11.4272
6.00958
0.147103
-6.00958
11.3907
-0.990967
-0.126118
0.990967
0.0274773
1.76101
-0.340711
1.76101
3.74744
-0.219566
-3.74744
-0.097441
-6.76529
-0.112612
6.76529
-0.164136
-2.19007
-0.449019
2.19007
-0.429058
-4.2674
4.30714
1.90973
-2.31554
-2.69413
-5.67012
1.85529
1.89853
4.30201
-10.1383
-5.98572
-9.94727
7.21487
-6.94443
-9.31514
9.22826
7.94871
-8.0111
-5.77724
5.82834
6.48483
-6.43946
1.87949
1.87386
8.07558
-7.82719
-15.6855
15.3187
7.65334
-7.56858
15.8172
-15.8425
-17.8521
17.9103
-5.70682
5.80553
-6.74327
6.73679
-6.98024
6.92795
-2.79495
-3.69072
13.1079
-12.9447
8.65652
-8.73602
-8.69238
9.05239
3.38462
0.922513
3.42962
-1.88177
3.76126
-1.87154
3.78127
2.78626
-5.58121
2.57165
-5.26579
4.41886
4.23767
-4.32266
-1.34746
-5.92891
5.95729
-5.80976
5.87144
9.2
-9.18145
-1.88499
3.75885
-1.86908
3.76761
-3.42282
-2.35443
3.37777
0.924242
8.05544
5.05243
-8.24598
-1.7013
-8.03369
7.81412
-8.21842
8.01291
-0.436117
5.83852
-5.4024
4.43922
-1.65348
7.492
5.56139
5.75946
5.86071
-5.58573
1.08371
-6.48612
-6.39914
-2.20753
2.31666
2.05837
-1.95835
6.16041
1.78829
6.05333
-5.81428
-2.19682
-5.87161
3.81964
2.0087
3.8685
4.08225
2.40257
4.11992
3.02943
-3.03686
0.00743341
-3.05941
6.08884
0.721988
-5.41384
-4.4896
4.99375
3.08183
5.22874
-5.60609
-2.22111
-5.18088
-9.57678
-6.10877
-10.1602
10.1619
5.15685
9.83857
-11.9437
11.7795
4.89355
2.7598
4.89411
-4.98125
-2.58733
-4.87917
11.6637
-2.65568
-9.00801
-10.3251
-7.52702
10.3335
5.48364
10.9649
6.94543
11.056
4.41977
7.24391
-9.90342
2.3764
-3.86664
-1.84018
-3.77806
3.66393
2.1416
3.798
-4.21895
-2.52432
-4.20378
-4.29534
-2.6849
4.32321
2.41358
-4.41791
-3.80051
4.54741
2.38054
4.06163
-10.0473
4.30353
-7.99424
-9.19494
-3.74978
-9.06064
3.58755
2.59766
-6.18522
-1.99365
8.6069
-4.36923
7.25944
-5.2265
-3.50952
-5.24474
-6.9824
-1.70999
-6.82247
-8.90859
8.41733
-9.18386
8.54099
12.4893
-5.62884
-6.86042
-3.96705
-2.47242
3.92225
-0.492631
-3.71005
3.71748
0.0512113
3.83248
4.755
4.26236
-3.88283
-1.92693
-3.82604
3.82199
2.04944
3.88895
6.86642
2.33358
6.89748
-6.63061
-2.55085
-6.71493
9.08332
-8.66071
2.79287
-2.70421
5.38105
2.63186
-5.15708
-2.87661
6.236
-3.21017
-3.02583
-12.3505
10.7824
1.56808
-4.85845
-0.419234
-0.536415
-5.56418
-3.75096
5.44272
0.316747
11.0991
7.34816
-5.51468
5.76351
6.16981
6.22135
-0.177786
5.87743
-5.1726
5.27611
-2.73323
-2.54288
5.48861
-5.64207
-1.22633
-5.56807
4.34174
0.41126
1.44477
-1.21495
-1.74412
-0.463405
-1.61148
1.09999
0.958384
1.19867
0.96611
1.35055
-2.94803
0.493382
2.45465
-1.98192
-1.46497
-3.81821
-1.14526
4.96346
5.73959
2.07453
-5.64215
-0.229456
2.54951
-2.44233
-0.837495
-2.98071
2.2233
-3.0608
-3.46122
-1.95639
5.41761
-3.36883
-0.457211
3.31584
0.552666
-3.82826
-2.10065
3.79131
0.328608
-3.129
6.19029
-3.06129
-5.05594
2.52902
3.55982
4.53772
-4.78989
2.4493
2.34058
-1.23007
4.25964
0.969105
4.44393
-7.09312
4.87201
5.74565
3.30675
-6.22471
1.04384
-6.04928
8.53711
-7.39734
-1.13978
4.06754
4.46957
7.0067
5.48256
-5.70059
12.7073
-1.1608
-6.23653
7.21008
-3.90334
4.87555
-8.77889
-10.3581
4.12158
-9.19285
11.0773
-1.88441
-3.58778
-8.35588
12.7806
-1.24945
-11.5312
8.58912
-4.3601
-4.43077
8.79086
-7.01578
7.01809
-1.98449
-5.0336
-10.1484
-5.69412
10.261
1.51855
-9.96597
12.3424
-2.72205
4.1656
0.728511
4.17578
3.37082
-5.47714
2.10632
3.64496
-5.62946
2.04653
-7.52367
-6.75408
12.0928
-5.33872
-10.5039
-9.54076
-0.963095
2.54885
9.79352
-9.49428
7.42585
2.06843
3.29766
0.591283
-3.37368
-0.404381
0.230572
4.50834
-4.73891
4.02857
4.18239
3.2166
1.29174
3.84956
2.10773
-3.8711
-0.332676
-4.16871
1.48381
-1.75513
-3.69366
5.17747
-4.06197
0.368304
-2.74152
-3.49231
6.23383
-4.5817
3.03564
3.15465
5.08508
-4.91426
1.42195
-2.39086
-2.5234
2.64002
-4.39515
2.00152
3.17596
4.38206
0.58155
5.91527
6.17752
-8.51294
0.518691
11.2299
-9.52865
2.47924
8.5768
-9.90509
0.364328
-8.69631
0.980177
-5.34941
-5.20504
5.23642
-6.94641
-3.54246
6.26278
0.634695
-6.41913
-0.403346
-6.05394
-2.85466
-6.50296
-3.0329
-6.15095
-8.7335
-1.67198
-7.06152
6.74535
-6.70451
-3.45573
7.43121
1.10978
-7.46626
7.34014
-7.52305
7.18234
0.095117
3.62237
4.35748
1.88507
-2.3923
4.27736
-5.08508
7.41866
-8.76997
3.68489
4.25499
-6.80583
-4.51498
5.04661
4.03671
5.36055
8.90563
-10.3549
1.44924
-10.6232
11.9637
-1.34044
-16.3935
5.77026
-7.48786
2.40504
0.387835
2.51844
0.549944
2.4874
-3.03735
-2.15426
-2.06361
-2.44578
-3.49378
5.93956
1.05929
-3.47823
2.41894
-3.56811
4.6274
-0.0856882
-3.39254
5.1748
-2.6874
5.56263
-3.6538
1.90884
3.5486
5.83832
-2.28972
4.41904
-1.78718
1.95134
-4.24106
-1.54244
-2.9534
5.095
-3.28043
3.64873
-0.356088
4.00482
-4.04479
0.834621
-0.82819
3.3542
3.60342
4.33216
-3.04042
2.93473
-4.72191
-1.30633
-4.14036
-0.964405
-0.181569
-3.77093
3.95249
5.98971
-6.17128
-5.27525
9.51165
-4.2364
7.69069
-5.43217
-2.25852
-4.28088
-4.37983
3.91304
1.96438
9.65507
0.177574
-5.60975
-4.99503
-3.97297
3.08705
2.18906
-1.70499
3.27307
2.24141
-0.796637
0.398934
0.799732
1.75957
-1.36064
0.337506
1.42206
-0.877447
1.68482
0.864699
-1.79825
0.18677
-1.36747
3.59078
1.08717
-2.04556
0.684922
0.89386
-3.62709
5.10718
-2.73698
-2.37021
6.00104
1.14993
-3.88691
4.41814
-4.00688
2.45796
-3.60322
-1.42895
-5.43583
-3.64754
-2.47955
4.89849
-3.46001
5.53453
1.43727
-5.30508
6.74235
-3.62951
1.67312
-3.04986
3.91456
-0.997884
-2.05198
2.87539
2.54222
-3.14372
0.163007
-0.268326
2.41699
-2.68532
-0.643803
-2.62572
-4.57622
4.90483
-2.10372
4.55302
2.17365
-1.91782
6.47084
1.80752
-3.72534
-3.24842
-3.70563
-1.38476
3.15296
-0.569416
-4.30976
-5.60301
4.17002
0.273906
-7.07067
7.94293
-0.872261
-3.98884
-0.883175
4.95072
-6.09608
0.466624
-4.04955
3.89338
4.86248
5.13639
-11.2984
-0.232806
-6.14153
1.09286
-7.23439
5.56243
-3.50478
7.62635
-10.3123
6.85658
-9.20252
6.48658
-0.747811
6.24062
-4.1343
2.76739
-8.4615
-6.94296
5.59998
-2.84018
6.32849
-3.22863
9.55712
-5.95068
5.3867
4.17042
-1.05192
-4.19283
-5.38534
4.33342
0.00136504
4.17715
4.98722
-2.87949
4.65455
2.26492
-4.65578
-2.13023
-6.4889
1.83311
-3.33424
-1.92258
3.75569
3.1625
3.75378
1.2323
-3.3494
7.25423
-8.21733
-1.91552
-3.28952
5.3785
-1.04508
3.48043
-6.76995
-1.86898
4.73399
-0.721533
-4.01246
0.894851
-4.43732
1.67534
-6.11266
5.27107
-5.67442
2.25409
-9.74195
-5.21217
-5.18469
-2.27708
-5.24597
-7.56122
5.28414
-1.79096
5.54919
-8.49566
7.77413
-3.468
8.75214
-5.44985
-1.0531
5.87891
1.30342
10.0556
0.167479
-4.68246
-1.94154
3.71505
-1.77351
1.14551
-3.60345
0.111607
2.49958
3.50146
-6.84133
0.0354928
-4.64697
-3.90414
7.94085
5.60751
11.5972
1.24236
9.12504
-1.18418
10.3674
4.17637
4.41301
-2.99688
4.44612
0.955615
4.6405
-0.893754
2.80259
1.62468
1.69172
0.750612
2.28878
1.31464
3.1234
0.0860553
-1.97756
4.62862
-8.60158
-0.98113
-8.05374
1.17452
5.43439
-4.25987
2.84663
-0.657564
1.07311
-0.202307
-1.12211
1.32441
-2.74519
-1.91874
-0.496679
-1.68224
2.36716
1.90854
-1.87048
-0.874704
0.325531
-3.97307
3.27769
-3.11468
-0.572462
6.16989
-2.88659
0.201265
-1.21347
-2.42446
-2.88786
2.70109
6.17447
0.29637
3.11318
5.2012
3.10055
0.221061
3.80855
-5.69295
-3.71512
-5.92576
-0.363334
4.58738
1.7669
8.02662
5.93731
4.89223
-1.87772
-10.095
6.49763
-2.05152
5.15719
-1.14473
-4.96792
5.08274
2.33592
-5.71744
0.0430199
-4.92491
-6.97642
-0.477118
8.25125
-9.57845
8.52535
5.67069
1.39083
-4.42629
-0.758403
4.28005
0.132958
10.5004
-0.918392
-7.02822
7.94661
-4.516
3.53487
0.674332
2.59874
1.99875
1.34118
-5.68703
-9.9469
-2.06786
-1.55923
-4.43807
0.525395
-2.43393
6.06249
-2.52762
3.80397
5.41898
6.4921
-2.04949
-4.1218
6.28589
-2.48191
4.01019
)
;

boundaryField
{
    wall-4
    {
        type            calculated;
        value           uniform 0;
    }
    velocity-inlet-5
    {
        type            calculated;
        value           uniform -3.75095;
    }
    velocity-inlet-6
    {
        type            calculated;
        value           uniform -5.62643;
    }
    pressure-outlet-7
    {
        type            calculated;
        value           nonuniform List<scalar> 8(3.31184 7.75299 4.42455 9.66126 7.44248 5.16941 5.79795 8.95287);
    }
    wall-8
    {
        type            calculated;
        value           uniform 0;
    }
    frontAndBackPlanes
    {
        type            empty;
        value           nonuniform 0();
    }
}


// ************************************************************************* //
