/*--------------------------------*- C++ -*----------------------------------*\
  =========                 |
  \\      /  F ield         | OpenFOAM: The Open Source CFD Toolbox
   \\    /   O peration     | Website:  https://openfoam.org
    \\  /    A nd           | Version:  6
     \\/     M anipulation  |
\*---------------------------------------------------------------------------*/
FoamFile
{
    version     2.0;
    format      ascii;
    class       volVectorField;
    location    "92";
    object      U;
}
// * * * * * * * * * * * * * * * * * * * * * * * * * * * * * * * * * * * * * //

dimensions      [0 1 -1 0 0 0 0];

internalField   nonuniform List<vector> 
918
(
(0.985049 -0.00071593 0)
(0.00544024 2.96618 0)
(-0.00506863 0.874136 0)
(0.979575 0.00196182 0)
(-0.0144231 2.06298 3.33297e-20)
(-0.00719184 2.9486 -2.54636e-18)
(0.822556 1.12474 4.46764e-19)
(0.11528 0.0846684 -1.40635e-20)
(0.999922 -0.000245609 0)
(0.0931375 0.67127 0)
(0.0172663 0.354785 0)
(0.73248 0.00945093 0)
(0.0101946 2.93182 0)
(0.00327652 2.79441 0)
(-0.00282368 3.17591 8.26908e-19)
(-0.0136709 1.93113 2.48049e-20)
(0.295506 0.046758 9.85691e-19)
(0.234815 1.11099 3.52858e-19)
(0.964312 0.00674343 0)
(-0.00503044 0.337964 0)
(0.057574 -0.0756156 -6.38499e-19)
(1.00183 -0.00455906 0)
(0.999851 -0.00892557 0)
(0.97517 -0.00605157 0)
(0.592488 0.0282101 0)
(0.0207894 2.64503 0)
(-0.0121276 2.91155 9.31531e-19)
(-0.00757572 0.924977 0)
(-0.036846 1.17129 0)
(-0.00544514 0.892925 0)
(-0.0246328 2.5839 0)
(-0.00526453 2.11397 -2.66213e-20)
(-0.0103662 1.90184 0)
(-0.0219326 2.98768 -9.17046e-23)
(-0.0163812 3.00545 1.97618e-18)
(0.00231061 3.00043 0)
(0.871993 -0.0097705 0)
(0.37241 0.909709 1.65912e-19)
(0.82136 1.14366 -5.58232e-19)
(0.953687 1.0103 5.70009e-19)
(0.683714 1.22653 -1.02197e-19)
(0.697223 1.18616 5.82857e-19)
(0.144507 0.126623 1.37182e-20)
(0.150211 0.0909287 0)
(1.17002 0.53319 0)
(0.11077 0.108204 6.17488e-20)
(0.0895489 0.0691742 -6.40854e-20)
(0.920572 -0.00704549 0)
(1.00027 5.24383e-05 0)
(0.999907 0.000320941 0)
(1.0037 -0.00727954 0)
(1.00088 -0.000949364 0)
(1.00011 -5.19393e-06 0)
(0.0776663 1.83448 -7.69426e-19)
(0.0330785 0.848615 0)
(0.129075 0.761347 0)
(0.0186675 0.788087 0)
(0.0540789 0.587738 0)
(0.00567327 2.03603 0)
(-0.00690177 0.685905 0)
(0.0126043 0.40062 0)
(-0.0126527 0.680005 0)
(0.0125195 0.351421 0)
(0.84382 -0.015634 0)
(0.842349 0.0250237 0)
(0.7567 0.00585319 0)
(0.800203 0.0272599 0)
(0.701586 0.0192154 0)
(0.0137979 3.00031 9.45183e-19)
(0.0109369 3.00668 0)
(0.0058555 3.00351 0)
(0.0118383 2.99746 1.07274e-23)
(0.0080238 2.95884 -1.40477e-18)
(0.0122107 2.98281 0)
(0.00922316 2.90494 0)
(0.0210089 2.9315 2.17001e-24)
(0.00380071 2.8244 0)
(0.0260283 2.9188 0)
(-0.000663756 2.74513 0)
(0.304101 3.56892 0)
(-0.122114 3.65149 0)
(0.148055 3.26643 -7.69575e-19)
(0.00244623 3.00538 0)
(-0.033743 1.99156 0)
(-0.0078145 2.18061 -2.44643e-20)
(-0.00943776 1.94416 2.54129e-20)
(0.347137 0.138866 -3.42299e-19)
(0.322635 0.0159239 -3.32756e-19)
(0.300977 0.157259 -1.0231e-18)
(0.261986 0.0667683 -6.64696e-19)
(0.265449 1.02576 0)
(0.334623 1.24267 -3.65799e-19)
(0.416642 1.15366 6.03824e-19)
(0.987689 0.00816941 0)
(0.943196 0.0057765 0)
(1.00028 0.000672142 0)
(1.00254 0.0090663 0)
(1.0031 0.00899776 -2.63766e-18)
(0.992135 0.00941181 1.99313e-18)
(-0.0270789 0.703111 0)
(0.0004201 0.342398 0)
(-0.0571927 1.01447 0)
(-0.0396255 0.765288 0)
(-0.0187695 0.344362 0)
(-0.082064 0.0674007 1.98606e-19)
(0.0329479 0.0518105 0)
(0.993627 -0.00769132 0)
(0.954056 -0.00648454 0)
(0.742502 0.0270897 0)
(0.673322 0.0244387 0)
(0.660801 0.0270283 0)
(0.980821 -0.00245669 0)
(0.582919 0.0679938 0)
(0.453396 -0.0104549 1.49895e-18)
(-0.0411236 2.86003 7.24468e-19)
(0.0338761 2.91431 0)
(0.0428017 2.89273 0)
(0.00318747 2.70252 0)
(-0.00874031 2.98645 8.89823e-19)
(-0.0138743 2.89429 0)
(-0.0109675 2.99154 -2.74299e-18)
(-0.0116121 2.92904 9.34642e-19)
(-0.0540129 1.3528 0)
(-0.0212478 1.38212 0)
(-0.00832569 2.14143 8.81212e-22)
(-0.00819921 2.0998 0)
(-0.0173359 1.91397 0)
(0.938935 -0.005186 0)
(0.857367 -0.0111686 0)
(0.862638 0.00561966 0)
(0.949713 -0.00613292 0)
(0.883717 -0.00810072 0)
(0.495494 1.10932 -2.10507e-19)
(0.543026 1.17935 0)
(0.334453 0.844086 3.20437e-20)
(0.279517 0.708982 0)
(0.922801 1.03947 -1.61037e-19)
(1.04588 0.849721 3.24606e-19)
(0.395039 1.32148 0)
(0.545807 1.27734 0)
(0.600034 1.20344 0)
(0.104444 0.180302 -3.00115e-19)
(0.171188 0.140348 0)
(0.172421 0.107636 1.84791e-19)
(1.00883 0.903617 0)
(1.08451 0.75125 0)
(1.11424 0.686416 -2.6037e-19)
(1.15048 0.596915 0)
(1.20659 0.391562 4.75871e-20)
(0.957537 -0.00709298 0)
(0.962752 -0.00810699 0)
(0.900945 -0.00737486 0)
(0.983935 -0.00812052 0)
(0.974441 -0.00802894 0)
(0.936559 -0.00656732 0)
(1.0002 0.00250687 0)
(1.00078 0.00123904 0)
(1 0.000759843 0)
(0.0389251 2.08533 4.22987e-19)
(0.142633 1.78208 0)
(0.0164355 2.1905 6.57637e-19)
(0.0525456 1.89296 -5.37609e-19)
(0.168445 1.08604 -2.89509e-19)
(0.0512019 0.935508 0)
(0.123366 0.940795 0)
(0.00619392 0.750189 0)
(0.0313622 0.513918 0)
(-0.0027768 2.26093 -3.16793e-22)
(0.0218852 2.04122 0)
(-0.00478597 2.2631 -1.58598e-21)
(0.00377149 2.04997 -9.31903e-21)
(-0.00189465 0.720416 0)
(-0.00532981 0.700485 0)
(0.0160711 0.449815 0)
(-0.0189619 0.682978 0)
(0.00420365 0.345632 0)
(0.93963 0.0139281 0)
(0.856701 -0.0115228 0)
(0.928764 0.00491263 0)
(0.846383 -0.0127944 0)
(0.809369 0.00135401 0)
(0.898924 0.0208364 0)
(0.875207 0.0234116 0)
(0.782867 0.00156138 0)
(0.0100166 3.06789 -8.78329e-21)
(0.0156454 3.05789 0)
(0.0122823 2.97001 0)
(0.00758252 2.8768 0)
(0.89279 3.9608 0)
(1.18603 3.35759 9.32958e-19)
(0.0802049 3.08824 0)
(-0.0181668 2.91676 0)
(-0.0204749 1.40985 0)
(-0.0391293 1.70315 0)
(-0.0283959 1.54032 0)
(-0.0350174 2.54551 -1.5631e-20)
(-0.0211519 2.24531 0)
(-0.0252991 2.3874 0)
(-0.000327524 1.97595 4.48461e-22)
(-0.0055539 2.25615 -3.22646e-20)
(-0.00664514 2.21919 -2.6069e-20)
(-0.00558125 1.95898 0)
(0.390669 0.117162 5.24774e-19)
(0.365687 0.00872781 -5.1491e-19)
(0.230894 1.58913 0)
(0.290006 0.770869 -3.25364e-19)
(0.179274 1.68554 -1.0691e-18)
(0.24767 1.2304 1.07018e-18)
(0.901583 0.00587676 0)
(0.966976 0.0107391 0)
(0.974846 0.00988606 0)
(0.922929 0.00585032 0)
(-0.021504 0.685983 0)
(-0.0224964 0.692545 0)
(0.00549703 0.33508 0)
(0.0792891 0.0943757 5.65702e-19)
(0.0560475 0.068922 -6.62035e-19)
(0.0512814 0.0547345 0)
(1.1087 0.091117 2.39769e-20)
(1.09229 0.042987 0)
(1.01963 0.0439856 0)
(0.914519 -0.00122938 0)
(0.437123 0.0975319 0)
(0.494906 0.0766563 -2.39818e-18)
(0.399988 0.00531894 8.99061e-19)
(0.0102817 2.97707 7.70923e-19)
(-0.0331236 2.86107 4.60169e-20)
(0.00827612 3.0536 -1.85522e-20)
(0.0164171 3.04263 6.90445e-19)
(-0.0117423 2.9999 3.07566e-20)
(-0.0124586 2.95202 -1.23853e-22)
(-0.0150952 3.01306 -5.739e-19)
(0.0153427 3.02551 4.08768e-19)
(0.00806249 3.03583 -6.64559e-19)
(0.934813 0.00216683 0)
(0.93958 -0.00108966 0)
(0.848267 -0.0111954 0)
(0.956209 0.0118889 0)
(0.942272 0.0132832 0)
(0.881384 0.00553755 0)
(0.915777 0.0173545 0)
(0.925132 0.0149262 0)
(0.836496 0.00323153 0)
(0.668256 1.40747 1.37889e-20)
(0.686357 1.51793 0)
(0.117236 0.286166 6.7539e-20)
(0.213586 0.651634 5.33589e-19)
(0.238959 0.688872 -3.13066e-19)
(0.211885 0.488729 6.21846e-19)
(0.341563 0.832876 1.58839e-18)
(0.136331 0.237043 3.81504e-19)
(0.258025 0.166384 7.05107e-19)
(0.211569 0.160642 1.82287e-19)
(0.220706 0.0932789 3.46514e-19)
(1.19733 0.448673 9.6608e-20)
(1.22159 0.24691 9.39877e-20)
(0.00727106 2.246 2.44496e-19)
(0.0399083 1.96453 0)
(0.973436 0.0332506 0)
(0.947062 0.0193648 0)
(0.87169 -0.0150028 0)
(0.013036 3.07342 0)
(0.0166922 2.94395 1.22475e-18)
(0.0137937 2.9566 0)
(0.00564051 2.8502 -1.21528e-18)
(0.00995009 3.08954 2.98977e-19)
(0.0110973 3.08403 0)
(0.705403 1.81323 -1.68996e-19)
(1.23019 2.61753 5.71697e-19)
(0.690135 1.99121 -1.3866e-18)
(0.0217767 2.97595 -6.68485e-19)
(0.0398305 2.99735 0)
(-0.0387202 2.87797 0)
(-0.00539985 2.24168 -1.17679e-20)
(-0.00492436 2.26131 6.1743e-20)
(0.000703295 2.01079 -6.85504e-21)
(0.26813 1.4029 1.03201e-18)
(0.289067 0.575121 -7.08258e-19)
(0.0686899 2.00293 7.48757e-19)
(0.118544 1.8751 -9.03439e-19)
(0.208695 1.53903 1.04185e-19)
(0.00613059 3.1203 -1.65965e-18)
(0.0133473 3.12069 1.82821e-18)
(-0.00524787 2.98048 8.31543e-19)
(-0.00146184 2.97496 -7.95953e-19)
(-0.0175776 2.87702 -8.46962e-19)
(0.0117607 3.10073 -2.21951e-18)
(0.0055656 3.10544 2.2532e-18)
(0.268904 0.697975 0)
(0.219362 0.657329 -1.14015e-18)
(0.0748932 0.210249 5.01824e-19)
(0.347663 0.953964 1.12799e-18)
(0.201145 0.282276 -1.73732e-18)
(1.19998 0.17691 4.75868e-20)
(1.21836 0.306512 0)
(1.19543 0.121888 9.80591e-21)
(0.000333833 2.27028 -1.09934e-21)
(0.00386996 2.25553 0)
(0.0331472 2.00162 0)
(0.312855 1.3178 -3.69981e-19)
(0.354491 1.18061 -8.0296e-19)
(0.234664 0.394267 1.4368e-18)
(1.00644 -0.00967837 0)
(1.00774 -0.00778059 4.84799e-19)
(-0.0477363 1.3355 0)
(-0.0571182 1.34243 0)
(1.00244 0.00326813 1.33461e-21)
(1.0032 0.00781421 9.95271e-19)
(-0.0262946 2.53259 1.98086e-20)
(-0.0289989 2.57498 0)
(0.039918 3.1721 4.71321e-19)
(0.372112 3.53665 0)
(1.16026 0.695901 -4.9921e-20)
(1.01176 0.0106247 -2.85615e-21)
(1.02089 -0.00898272 0)
(1.00157 0.000291724 1.57715e-22)
(0.119042 1.37637 0)
(0.152645 2.58761 0)
(0.0341788 1.32504 0)
(0.000576489 2.63273 -1.17616e-20)
(-0.0216578 2.57951 -1.50978e-20)
(0.998694 0.0312628 2.86899e-21)
(1.06309 0.00594758 0)
(1.10021 0.0285395 0)
(-0.0374044 1.75062 0)
(-0.0207838 2.57782 0)
(-0.0144555 1.33064 0)
(0.309358 1.49323 -1.72452e-19)
(1.01152 -0.00904909 0)
(1.00971 -0.0129827 0)
(1.00227 0.000932676 6.20759e-19)
(1.00547 -0.00490863 -7.31933e-19)
(1.00113 -0.000861738 0)
(-0.0265286 1.47613 0)
(-0.0148912 1.40011 0)
(-0.0219671 1.43853 0)
(-0.0178622 1.31608 0)
(-0.0341726 1.30604 0)
(-0.0264968 1.2874 0)
(1.03571 -0.00428236 0)
(1.01904 0.0156757 -9.25396e-22)
(0.814063 1.31505 2.82122e-19)
(1.00246 0.000392406 -6.2058e-19)
(1.00339 0.00444279 7.40667e-19)
(1.00126 0.00208987 0)
(1.01104 0.0096308 6.18116e-19)
(1.00682 0.00744213 -7.52282e-19)
(1.0071 0.0111061 0)
(-0.0257566 2.60463 0)
(-0.0291086 2.58338 -3.51824e-20)
(-0.0258759 2.59763 2.48066e-20)
(1.24305 0.274406 5.21455e-19)
(1.16388 0.0893866 0)
(0.0434988 3.09144 -9.44319e-19)
(0.0519913 2.87408 -6.69452e-20)
(0.102793 3.20174 1.26272e-18)
(0.121098 3.21364 -2.67046e-19)
(0.139977 3.25553 0)
(0.0224946 3.13766 2.59487e-19)
(0.060741 3.16195 9.4069e-19)
(0.061146 3.17869 -4.85448e-19)
(0.0268142 3.12947 0)
(0.538488 0.291019 0)
(0.479921 0.302561 0)
(1.14301 0.72777 1.11018e-19)
(1.10726 0.863495 -9.29063e-20)
(1.20015 0.612974 0)
(1.22669 0.546767 0)
(1.01568 0.0120362 -1.14822e-18)
(1.01462 0.0127715 1.44368e-18)
(1.02578 -0.0087138 0)
(1.02411 -0.0102817 0)
(1.00681 0.00328558 0)
(1.01088 0.00422367 0)
(1.00419 0.0022204 0)
(1.00932 0.00633709 0)
(1.00682 0.00503791 0)
(1.00436 0.00525357 0)
(0.108422 1.37659 0)
(0.0964554 1.33462 0)
(0.143864 1.42347 0)
(0.146672 1.40688 0)
(0.148065 2.60857 0)
(0.183318 2.67657 -4.06062e-19)
(0.0951871 2.65828 0)
(0.0862546 2.65252 1.75332e-19)
(0.0243632 2.67609 -1.53131e-19)
(0.0200926 1.33458 0)
(0.0313994 1.25179 0)
(0.0237248 1.34948 0)
(0.0483968 1.27189 0)
(-0.00171364 1.99356 4.48949e-20)
(-0.0215845 2.608 -4.61755e-20)
(-0.00584614 2.6756 -4.06267e-20)
(-0.0186744 2.68754 0)
(-0.0240822 2.61381 4.46859e-20)
(-0.0227817 2.60938 4.76035e-20)
(0.00465485 1.98947 -3.49795e-20)
(-0.0106179 2.39807 6.19472e-20)
(-0.0149155 2.42368 4.60514e-20)
(1.01141 0.0403171 1.16371e-18)
(1.00456 0.0215362 -1.44939e-18)
(1.00345 0.0476882 -1.18925e-18)
(0.975643 0.0374236 1.49827e-18)
(1.06475 0.00930284 0)
(1.04995 -0.0064135 0)
(1.09276 0.0379422 0)
(1.07593 0.0151462 0)
(1.07471 0.000546318 0)
(1.1414 0.0798962 0)
(1.11588 0.0465539 0)
(1.11935 0.0374911 0)
(-0.031931 2.42974 4.21205e-21)
(-0.0233106 2.02571 0)
(-0.0238088 2.22039 0)
(-0.0228083 2.59867 -2.24903e-20)
(-0.0192873 2.60989 7.33176e-22)
(-0.00422294 1.59806 -6.23939e-20)
(-0.0152194 1.52023 6.37648e-20)
(-0.0250616 1.41202 0)
(-0.0298598 1.41825 0)
(-0.0360568 1.408 0)
(-0.00828042 1.33282 0)
(0.00834953 1.24696 0)
(0.38688 1.51791 2.87821e-19)
(0.435696 1.52209 1.53316e-19)
(0.591984 2.46079 -2.49266e-19)
(0.380645 2.54902 7.29413e-19)
(0.349612 2.04695 6.87687e-20)
(1.02072 -0.00798754 0)
(1.0158 -0.00934617 0)
(1.01486 -0.0132039 0)
(1.00775 -0.000546322 0)
(1.00484 -0.000690257 0)
(1.008 -0.00446408 0)
(1.00955 -0.00342856 0)
(1.01465 -0.00426585 0)
(1.01978 0.0164654 1.12659e-18)
(1.01716 0.0150966 -1.43133e-18)
(1.02011 0.0189562 -1.13533e-18)
(1.01751 0.0172798 1.42326e-18)
(0.770353 1.36171 0)
(0.709 1.39763 2.45944e-19)
(0.878378 1.24286 1.02317e-19)
(0.914801 1.20234 -1.35794e-19)
(1.16164 2.60692 2.77938e-19)
(0.749603 0.128773 5.8564e-19)
(1.17225 0.108455 0)
(1.21504 0.202872 -4.23384e-19)
(1.19662 0.15451 -1.76278e-20)
(1.01262 0.16663 0)
(0.0752271 3.0183 3.37911e-19)
(0.0813759 2.90319 -1.10867e-18)
(0.0228231 2.36137 7.02401e-19)
(0.160051 -0.27313 -3.06754e-19)
(0.340262 3.44095 -2.52516e-19)
(0.191633 3.33737 0)
(0.222153 3.39261 3.28931e-19)
(0.21979 3.07551 -1.17994e-18)
(0.25241 3.19352 0)
(0.00645364 3.12239 4.91447e-20)
(0.0168989 3.13114 -5.66716e-19)
(0.0159136 3.12691 8.34102e-19)
(0.0329373 3.14006 0)
(0.0309464 3.14956 0)
(1.25353 2.56966 0)
(0.542338 0.789437 -5.20742e-19)
(1.02764 1.03762 -1.43034e-20)
(0.994437 1.09048 0)
(0.863334 0.972705 -1.06108e-19)
(1.0869 0.913168 2.66819e-20)
(0.287556 0.309673 -7.6438e-19)
(0.630042 0.327191 -2.33482e-20)
(0.515725 0.216629 3.92305e-19)
(0.516381 0.313683 2.79199e-20)
(0.38075 0.263927 -1.11419e-18)
(0.583668 0.326139 0)
(0.679689 0.440074 6.757e-19)
(0.692878 0.453552 0)
(0.544212 0.31971 0)
(0.442509 0.246912 0)
(0.798967 0.659329 3.92514e-19)
(1.2547 0.30854 -4.2359e-19)
(1.24805 0.441051 0)
(1.2481 0.395995 0)
(0.681967 0.18723 5.96298e-19)
(0.847398 0.561356 -3.68681e-19)
(0.768759 0.521454 6.5893e-19)
(0.965358 0.456505 -6.61761e-19)
(1.01853 0.0147847 7.67438e-19)
(1.01708 0.0136886 -7.72614e-19)
(1.01582 0.0142944 0)
(1.0371 -0.0045022 0)
(1.03049 -0.00768308 -7.23407e-19)
(1.02871 -0.0105678 7.15893e-19)
(1.02475 0.0110256 0)
(1.02273 0.0151221 0)
(1.01271 0.00476529 0)
(1.01459 0.00909815 0)
(1.01645 0.00427619 0)
(1.01558 0.00295252 0)
(0.0785672 1.36388 0)
(0.0815153 1.30415 0)
(0.157891 1.42668 5.67747e-20)
(0.27739 1.48945 8.36827e-20)
(0.177594 1.46117 1.87861e-19)
(0.212957 1.45797 -3.04269e-19)
(0.162624 1.43643 0)
(0.144839 1.58308 -8.44423e-20)
(0.141408 1.58031 0)
(0.350623 1.99947 -1.00119e-19)
(0.315683 2.33938 6.09198e-19)
(0.19629 1.46884 7.35801e-20)
(0.276866 1.40503 2.67375e-20)
(0.206646 1.40422 -2.18554e-20)
(0.291234 1.34292 -8.31908e-20)
(0.258098 1.57729 0)
(0.266223 1.62412 9.26831e-20)
(0.0182476 2.24292 -1.23536e-20)
(0.036689 2.66869 0)
(0.0564502 2.39359 9.64197e-20)
(0.048627 2.41974 0)
(0.0646455 2.6756 -2.10342e-19)
(0.0421462 2.70252 0)
(0.0270612 1.46529 6.36697e-20)
(0.0312939 1.5219 0)
(0.0351028 1.42443 0)
(0.027001 1.43366 -7.28261e-20)
(0.00458796 2.66008 5.0122e-21)
(0.0280361 2.68935 1.76917e-19)
(0.0123757 2.7333 8.76435e-22)
(0.00415582 1.84759 -2.89783e-20)
(-0.00406978 1.69965 -1.98579e-20)
(0.0185809 1.31553 0)
(0.0271561 1.22784 0)
(0.0423957 1.59387 -2.23515e-21)
(0.0434689 1.47354 -5.67823e-20)
(0.0257518 1.55784 5.77848e-20)
(0.0558642 1.61555 0)
(-0.0327015 2.26989 1.35198e-19)
(-0.0360615 2.54682 -5.72202e-20)
(-0.0217535 2.44763 1.05122e-20)
(-0.00403998 1.86328 3.51252e-20)
(-0.0287904 2.50237 1.50142e-20)
(-0.0227934 2.44435 -3.88649e-20)
(1.0182 0.0225804 -7.72074e-19)
(1.0151 0.028916 7.75383e-19)
(1.01191 0.0183191 0)
(1.00988 0.071292 1.07712e-18)
(0.99036 0.0615002 -1.21747e-18)
(0.949114 0.056273 1.36248e-18)
(1.01278 0.115876 -1.44469e-19)
(1.04403 -0.00464022 0)
(1.05225 -0.000376228 6.93069e-19)
(1.04034 -0.00814932 -6.92743e-19)
(1.07236 0.0439015 -4.10909e-20)
(1.06502 0.0291392 3.5498e-19)
(1.06421 0.0659535 0)
(1.05444 0.0551304 -1.27867e-19)
(1.0321 0.0439132 0)
(1.02623 0.0387937 0)
(1.02764 0.0136788 0)
(1.02401 0.0163996 0)
(1.04072 0.0339757 2.6281e-19)
(1.03932 0.0285002 -5.81687e-19)
(1.05306 0.0388259 -2.77994e-19)
(1.04821 0.038754 -3.06761e-19)
(1.07788 0.0707432 5.86771e-19)
(1.10184 0.0567995 0)
(1.10859 0.0955921 0)
(-0.0304987 2.27597 7.79638e-20)
(-0.0332541 2.03057 4.45885e-21)
(-0.0283192 2.04068 0)
(-0.0317686 2.44321 -7.76082e-20)
(-0.0297873 2.40201 -8.49717e-21)
(-0.0361401 2.4695 1.03334e-20)
(-0.0221842 2.62139 -4.05352e-20)
(-0.0280203 2.56334 2.32283e-21)
(-0.0263278 2.51727 -1.37108e-20)
(-0.0181631 2.61391 2.58655e-20)
(-0.0220072 2.61649 -3.00908e-20)
(-0.0130507 1.52531 -1.12597e-21)
(-0.00774661 1.64469 -6.46677e-20)
(0.37822 1.45386 -1.23041e-19)
(0.373504 1.38437 1.61326e-20)
(0.650262 1.44535 -2.37987e-19)
(0.525495 1.51496 -1.48908e-19)
(0.579554 1.474 0)
(0.605812 2.41873 2.18271e-19)
(0.666072 2.42807 3.39811e-19)
(0.41302 2.51171 9.50711e-20)
(0.398148 2.53747 -6.05066e-19)
(0.502267 2.47585 5.6679e-19)
(0.552687 2.47158 0)
(0.483602 2.52201 -5.58908e-19)
(0.253416 2.59839 1.11533e-18)
(0.366304 2.55683 -7.43998e-20)
(0.284334 2.65722 -1.58814e-18)
(0.970622 2.38524 7.16347e-19)
(0.84808 2.3859 0)
(1.01142 0.00139957 2.51734e-20)
(1.01537 -0.00515335 -2.0568e-20)
(1.01779 -0.00388505 -3.75972e-19)
(1.01564 -0.00101426 3.74674e-19)
(1.01313 0.00185378 0)
(0.638444 1.30669 0)
(0.683193 1.19192 0)
(0.798507 1.12245 0)
(0.670678 1.14881 0)
(1.19277 2.62243 5.1621e-20)
(1.08505 2.37357 0)
(0.815578 2.16362 3.59658e-21)
(0.820634 2.42629 0)
(0.915365 2.51696 -4.38074e-19)
(0.946692 2.46634 2.92496e-19)
(0.782865 0.167583 0)
(0.725207 0.148808 1.58269e-19)
(0.900744 0.159374 9.27647e-19)
(0.815375 0.141971 -3.47271e-19)
(0.75729 0.0925233 -1.06839e-18)
(1.08817 0.247667 -8.4286e-19)
(0.986071 0.318471 -1.0162e-20)
(0.928757 0.353359 8.12411e-19)
(1.01273 0.261769 6.93226e-19)
(0.929983 0.207575 -1.2215e-18)
(0.888469 0.222216 1.53064e-19)
(0.929158 0.318551 -3.18556e-19)
(0.904792 0.225695 0)
(1.00059 0.209213 5.97588e-19)
(1.05428 0.219625 0)
(1.05205 0.229738 0)
(1.12604 0.125666 2.6809e-19)
(1.06486 0.195802 -1.0603e-20)
(1.07958 0.249704 -1.53583e-19)
(1.11296 0.212794 0)
(1.02218 0.0484849 5.93857e-19)
(1.03687 0.0627464 7.41132e-19)
(1.03259 0.0461267 -5.89827e-19)
(1.04137 0.0694019 -4.96958e-19)
(1.01499 0.0763583 -7.60546e-19)
(0.985705 0.169866 0)
(0.988094 0.108273 0)
(0.96187 0.0747162 -4.84954e-19)
(0.899094 0.100263 1.92978e-19)
(1.03895 0.117045 6.87327e-19)
(1.07628 0.137946 -7.84749e-19)
(1.07046 0.181931 7.05638e-19)
(1.03559 0.157995 0)
(1.08644 0.123883 0)
(1.05682 0.113275 -3.2212e-19)
(1.04263 0.109571 -5.58476e-19)
(0.587604 1.07931 1.20436e-19)
(0.60815 1.3971 -2.198e-20)
(1.14317 2.7145 -2.49474e-19)
(1.19528 3.09878 3.56554e-21)
(1.25048 2.72297 -1.27115e-19)
(1.28943 2.69305 2.21507e-20)
(1.26402 2.31556 -3.83732e-20)
(1.18274 3.00389 -7.63709e-20)
(1.20257 2.96081 2.27488e-19)
(1.17661 3.25159 -1.20373e-19)
(1.39368 2.9646 1.51068e-19)
(1.40484 2.89897 0)
(0.579241 0.814596 -4.8051e-20)
(0.197195 1.21151 4.64741e-19)
(0.529663 0.322519 4.96357e-19)
(0.412724 0.0887104 5.64909e-19)
(0.446758 0.291602 6.30762e-19)
(0.546186 0.415944 -1.02524e-18)
(0.557732 0.397236 8.40807e-19)
(0.449854 0.293738 -3.09005e-19)
(0.271377 0.22942 7.11965e-19)
(0.714537 0.259738 -3.43944e-19)
(0.661186 0.290171 0)
(0.594311 0.196023 7.83225e-21)
(0.729611 0.516444 3.57099e-19)
(0.702215 0.492359 -1.29449e-18)
(0.634058 0.439258 1.22415e-20)
(0.61314 0.418869 0)
(0.722811 0.720758 3.6978e-19)
(0.839281 0.802871 4.08631e-19)
(0.777835 0.853511 -4.76177e-19)
(0.907849 0.824581 -1.51113e-19)
(0.943275 0.86781 -3.50679e-20)
(0.950701 0.875363 3.59637e-20)
(0.88333 0.682699 -6.65972e-19)
(0.956988 0.72878 1.40491e-19)
(1.0132 0.732326 0)
(1.01165 0.707597 -1.7967e-19)
(1.0303 0.343261 2.09919e-19)
(1.15947 0.343226 2.54766e-19)
(1.07464 0.28556 3.44572e-19)
(1.00017 0.39042 -4.20098e-19)
(1.0582 0.491457 0)
(1.13998 0.431925 0)
(0.899803 0.427994 1.99312e-24)
(0.845701 0.323612 0)
(0.892814 0.313566 3.88259e-19)
(0.914946 0.351665 3.08382e-21)
(0.988089 0.502824 1.84802e-18)
(0.921098 0.561813 4.76431e-19)
(0.944125 0.519681 -5.02579e-19)
(0.860833 0.495277 5.35349e-19)
(0.825925 0.470613 3.41648e-19)
(0.80334 0.450896 -3.3466e-19)
(1.0282 -0.000368317 6.21274e-19)
(1.0205 0.000613614 0)
(1.01912 0.00142633 4.05451e-19)
(1.02271 -0.000687807 -9.17807e-19)
(1.02258 0.00462533 4.47099e-19)
(1.02003 0.0116835 -9.3586e-19)
(1.02079 0.0115176 0)
(1.0197 0.0122987 -1.94897e-19)
(1.01661 0.00784609 4.88361e-19)
(1.01669 0.010971 -2.45643e-19)
(1.01731 0.0106775 1.7994e-19)
(0.0373688 1.33809 0)
(0.0445295 1.40144 0)
(0.0561657 1.3412 0)
(0.0627448 1.27626 0)
(0.0877288 1.40462 -6.42166e-20)
(0.0942954 1.37736 1.22811e-20)
(0.0865587 1.57545 4.4187e-21)
(0.106853 1.41414 -4.24866e-20)
(0.0449112 1.48815 4.80764e-20)
(0.0493307 1.48314 -3.78781e-20)
(0.0759713 1.40126 -2.58989e-20)
(0.06487 1.40323 7.31014e-20)
(0.062192 1.3855 1.20257e-20)
(0.0479592 1.40354 8.09154e-21)
(0.101756 2.35667 -1.05369e-19)
(0.0888927 2.40815 0)
(0.150841 2.00682 9.84099e-20)
(0.133077 1.7014 3.28203e-20)
(0.225186 1.99691 -8.22482e-20)
(0.18986 2.42703 0)
(0.257416 2.36257 -6.5331e-19)
(0.313074 2.35152 4.59343e-19)
(0.249171 1.97877 -2.03652e-19)
(0.13965 2.14411 1.47349e-19)
(0.116057 2.26176 0)
(0.0146809 1.84458 -4.17866e-20)
(-0.00528239 2.36465 3.28722e-22)
(0.00459814 2.12292 0)
(0.00525016 2.4282 -1.72592e-20)
(0.0182644 2.25996 3.14688e-20)
(0.0128487 1.442 -1.30687e-20)
(0.0108704 1.42266 2.19453e-19)
(0.00871023 1.4336 -7.0822e-20)
(0.0218894 1.44302 -6.26421e-20)
(0.0239339 1.46878 0)
(0.00568741 1.41861 0)
(0.00204921 1.31661 -9.12361e-20)
(-0.000490775 1.41042 2.67934e-20)
(0.00719871 1.40842 0)
(0.0117096 1.30757 -6.9072e-20)
(0.0219413 1.21614 1.38731e-19)
(1.0425 0.0150817 0)
(1.049 0.0105717 -6.48133e-20)
(1.03919 0.0246008 -4.68616e-19)
(1.04959 0.0234846 0)
(1.05469 0.0227263 0)
(1.03638 0.013095 -6.76762e-21)
(1.03017 0.0135074 7.55301e-19)
(1.03194 0.0175308 9.15499e-19)
(1.02561 0.0211912 0)
(1.02227 0.0218182 0)
(1.03569 0.0259701 4.67621e-19)
(1.026 0.0283386 0)
(1.02361 0.0282719 0)
(-0.020836 2.03092 0)
(-0.0118019 1.67153 -2.47892e-21)
(-0.00972737 1.77354 -3.57487e-20)
(-0.00799208 1.41575 0)
(-0.00880611 1.57778 -3.806e-20)
(-0.0179651 1.49183 2.29839e-20)
(-0.0167147 1.43293 0)
(0.402957 1.61851 0)
(0.367762 1.32245 -2.74642e-20)
(0.275353 1.34606 0)
(0.437663 1.32033 -3.84574e-20)
(0.473479 1.47974 0)
(0.45914 1.42145 4.11404e-20)
(1.03991 2.66586 -1.52158e-20)
(0.98488 2.4041 -8.99723e-19)
(0.947046 2.20514 1.00635e-18)
(0.864642 2.37793 2.43141e-19)
(0.852087 2.4823 0)
(0.921135 2.47718 0)
(0.954416 2.37798 0)
(0.93021 2.36896 -9.42007e-19)
(0.690656 2.44625 -3.799e-19)
(0.799767 2.43009 -9.81662e-20)
(0.806895 2.40828 7.39888e-20)
(0.70357 2.39905 0)
(0.808842 2.39244 0)
(0.769349 2.40917 -3.68554e-19)
(0.764948 2.46095 0)
(0.63381 1.06974 0)
(0.514043 0.852579 -5.6421e-19)
(0.523002 0.930059 -3.29174e-20)
(0.500967 1.06615 0)
(0.488367 0.972792 8.61674e-19)
(0.805519 0.88914 -1.32416e-19)
(0.8091 1.02386 0)
(0.790585 1.00739 1.81353e-19)
(0.679 1.02278 0)
(0.670328 0.927306 0)
(1.16166 2.75093 -2.19383e-19)
(1.13689 2.80951 -8.93837e-20)
(0.921062 2.33225 7.52765e-20)
(0.89795 2.31292 -7.59976e-20)
(1.13132 2.72843 0)
(1.08352 2.69621 9.12547e-20)
(1.09855 2.49032 -2.95718e-19)
(1.00007 2.24977 -2.79086e-20)
(0.495487 1.32492 0)
(0.515835 1.07451 -1.06062e-19)
(0.596574 1.18505 0)
(0.844335 0.23221 0)
(0.753211 0.179084 0)
(0.659614 0.140747 0)
(0.852738 0.231981 -6.12317e-19)
(0.739326 0.227138 3.59608e-19)
(0.912315 0.0877829 -3.96066e-19)
(0.927503 0.139735 0)
(0.901558 0.147416 1.73339e-19)
(0.839085 0.110283 6.93497e-19)
(0.797032 0.0768953 -4.35467e-19)
(1.09264 3.34187 -6.66099e-19)
(1.16133 3.26592 0)
(1.11059 3.42637 -1.56209e-18)
(0.653441 3.57301 1.29924e-18)
(1.02061 3.07345 1.17828e-19)
(0.534085 0.772217 5.69476e-19)
(0.511357 0.738566 0)
(0.341803 0.320439 -1.42119e-19)
(0.496566 0.629965 8.47737e-19)
(0.56958 0.321509 -1.82483e-19)
(0.524822 0.454462 2.19573e-19)
(0.688305 0.529623 4.53652e-19)
(0.731715 0.567531 0)
(0.672158 0.565733 0)
(0.661032 0.539495 0)
(1.0194 0.616392 8.83115e-20)
(0.972639 0.599459 -4.61473e-19)
(0.983068 0.611027 3.53422e-19)
(1.04708 0.554613 -3.40415e-19)
(1.09266 0.522945 0)
(1.09501 0.604668 -8.97118e-20)
(0.885789 0.425184 -7.62738e-19)
(0.872711 0.408751 -9.86656e-19)
(0.799074 0.419719 6.0196e-19)
(0.810944 0.378531 -6.27723e-19)
(0.853225 0.334771 -4.93831e-19)
(0.796096 0.339506 6.04574e-19)
(1.0266 0.00674506 -4.67882e-19)
(1.02623 0.00686843 9.42868e-19)
(1.02999 0.000965627 6.02076e-19)
(1.0342 0.00160672 -7.22943e-19)
(1.03401 0.0119512 0)
(1.02979 0.0120729 -1.1825e-18)
(0.0828763 1.64586 9.39382e-21)
(0.0686102 1.60603 0)
(0.106175 1.70334 3.67843e-20)
(0.120158 1.68037 -3.14618e-20)
(0.0731962 1.57109 -8.22329e-21)
(0.0638599 1.57507 0)
(0.00878194 1.70669 0)
(-0.00654942 1.52831 2.03371e-20)
(-0.00546551 1.47196 -1.82701e-20)
(-0.0125058 1.57547 3.3448e-21)
(-0.00158911 1.89625 3.04994e-20)
(-0.0135858 1.95069 -1.21409e-20)
(0.493317 1.35783 -2.65445e-19)
(0.496161 1.35209 2.90316e-19)
(0.451971 1.31233 -1.30259e-20)
(0.428494 1.29012 7.78716e-21)
(0.631534 1.31361 0)
(0.557365 1.40821 1.15007e-19)
(0.558324 1.41103 -1.1198e-19)
(0.488077 1.30146 1.25716e-20)
(0.52854 1.25314 0)
(0.592891 1.21879 0)
(0.664351 2.40984 5.59331e-19)
(0.66009 2.43995 1.2783e-18)
(0.715254 2.4551 -8.7919e-19)
(0.613248 2.42735 -2.00774e-19)
(0.557044 2.52005 2.74419e-19)
(0.497731 2.48704 -7.07877e-19)
(0.991943 2.3829 -5.67118e-19)
(1.02305 2.40042 0)
(0.949916 2.18837 -6.18939e-19)
(1.05456 2.67721 0)
(1.05339 2.65801 0)
(0.5961 2.28335 -1.16444e-21)
(1.11542 3.06579 6.81541e-20)
(0.991497 2.96148 -1.14655e-19)
(0.31377 0.777426 0)
(0.309645 0.648244 -3.03621e-19)
(0.521086 0.587306 -3.07125e-19)
(0.357814 2.12443 0)
(0.400057 2.74374 -8.29626e-20)
(0.409094 2.47754 0)
(0.730923 0.689296 -7.87425e-19)
(0.798329 0.698789 1.09842e-18)
(0.799672 0.662556 -1.04832e-18)
(0.703407 0.647004 -9.95584e-20)
(0.758123 0.607659 -4.13733e-19)
(0.966209 2.74837 -5.16143e-20)
(1.01188 2.75678 -2.14171e-19)
(0.546137 2.19728 4.51601e-19)
(0.600019 1.72997 -3.55847e-19)
(0.699062 1.84855 -4.99344e-19)
(0.973881 2.38943 -1.38795e-19)
(0.974468 2.34265 3.70096e-19)
(0.640395 1.75556 3.37825e-20)
(0.447294 1.29049 1.76216e-19)
)
;

boundaryField
{
    wall-4
    {
        type            noSlip;
    }
    velocity-inlet-5
    {
        type            fixedValue;
        value           uniform (1 0 0);
    }
    velocity-inlet-6
    {
        type            fixedValue;
        value           uniform (0 3 0);
    }
    pressure-outlet-7
    {
        type            zeroGradient;
    }
    wall-8
    {
        type            noSlip;
    }
    frontAndBackPlanes
    {
        type            empty;
    }
}


// ************************************************************************* //
