/*--------------------------------*- C++ -*----------------------------------*\
  =========                 |
  \\      /  F ield         | OpenFOAM: The Open Source CFD Toolbox
   \\    /   O peration     | Website:  https://openfoam.org
    \\  /    A nd           | Version:  6
     \\/     M anipulation  |
\*---------------------------------------------------------------------------*/
FoamFile
{
    version     2.0;
    format      ascii;
    class       volScalarField;
    location    "46";
    object      p;
}
// * * * * * * * * * * * * * * * * * * * * * * * * * * * * * * * * * * * * * //

dimensions      [0 2 -2 0 0 0 0];

internalField   nonuniform List<scalar> 
918
(
0.537676
1.26731
0.00523652
0.537577
-0.01025
1.23503
-0.487985
0.679563
0.518799
-0.11004
-0.043514
0.517267
1.09233
0.859248
-1.1669
-0.00876727
0.640106
-0.411453
0.516768
-0.0521785
0.713328
0.525497
0.527967
0.518761
0.576927
0.8147
0.969539
0.00377618
0.00684909
0.00377409
-0.0122183
-0.0317031
-0.0267238
1.11816
1.17008
1.19326
0.485617
0.320676
-0.37982
-0.430984
-0.414464
-0.512793
0.674767
0.673416
-0.196693
0.6813
0.687308
0.504598
0.518188
0.519023
0.520173
0.519055
0.520343
0.40201
-0.113239
-0.142458
-0.0928305
-0.0894632
0.0541099
-0.0465256
-0.0505686
-0.0423669
-0.0435691
0.435312
0.513136
0.510212
0.522158
0.531842
1.20748
1.1812
1.20725
1.11794
1.13545
1.06926
1.04215
0.880534
0.903719
0.842086
0.82846
-1.63081
-2.58704
-0.583995
-0.302421
-0.00966591
-0.00819839
-0.00580549
0.633057
0.633531
0.641016
0.647425
1.03564
-0.382957
-0.452273
0.517264
0.515776
0.525016
0.525919
0.52087
0.52088
-0.0499833
-0.0485696
-0.0357737
-0.0471283
-0.0403579
0.704524
0.701988
0.518204
0.515657
0.540892
0.562755
0.551862
0.256918
0.583158
0.598423
0.675194
0.822704
0.810201
0.822368
0.945101
0.912494
1.00151
1.02315
0.0142761
0.000785687
-0.0155399
-0.0168501
-0.0164063
0.481396
0.475021
0.502258
0.489208
0.492214
0.224798
0.0727939
0.403535
0.427494
-0.301056
-0.343892
-0.445034
-0.443653
-0.547023
0.593743
0.668977
0.664745
-0.211709
-0.137862
-0.263937
-0.0818295
-0.137135
0.495639
0.501819
0.497933
0.513217
0.507407
0.509823
0.522275
0.519443
0.521045
0.461639
0.594273
0.321006
0.294352
-0.268015
-0.16032
-0.250613
-0.0767588
-0.068641
0.0648564
0.0917162
0.0411944
0.0280331
-0.0605312
-0.054591
-0.0587113
-0.0438984
-0.0476438
0.426905
0.41405
0.446405
0.453814
0.501145
0.502514
0.50672
0.504733
0.993513
1.01629
1.02229
0.998503
-3.57466
-6.22626
0.0482669
0.210245
-0.00623691
-0.00836602
0.0011542
-0.00748128
0.00137971
-0.00167789
-0.00875827
-0.0115231
-0.00645346
-0.00709391
0.628105
0.629024
0.994558
1.02804
0.986187
0.964102
0.506579
0.508493
0.513116
0.510012
-0.0468812
-0.048821
-0.0493294
0.688773
0.697527
0.695007
0.216738
0.12946
0.306905
0.337538
0.622727
0.606144
0.619861
0.735428
0.774113
1.03957
1.06385
1.04781
1.06053
1.11137
1.13428
1.09956
0.460194
0.470986
0.465333
0.505409
0.503054
0.504093
0.500153
0.501291
0.499811
-0.0399263
-0.415412
0.479502
0.481805
0.469391
0.475569
0.679316
0.761982
0.648635
0.658072
0.656269
-0.0339923
-0.0815211
0.252423
0.223776
0.367092
0.401034
0.383324
0.968547
0.9286
0.976885
0.952105
0.916859
0.941438
-0.352893
-2.12796
-1.11746
0.616186
0.417395
0.509667
0.0114114
-0.00661136
-0.00230663
1.0292
1.06828
0.663414
0.846174
0.800096
0.798067
0.824825
0.886592
0.818977
0.853938
0.88498
0.861651
0.547063
0.486963
0.500127
0.839289
0.896282
0.0939566
0.018739
-0.00495368
0.114853
0.18259
0.151933
1.0423
0.952478
1.01711
0.515894
0.516824
-0.00328126
-0.0187678
0.520918
0.520638
-0.0148389
-0.00610954
0.528322
-0.93905
0.101459
0.510338
0.500187
0.516906
-0.0741797
0.335966
-0.0469856
0.0404051
0.000346414
0.512586
0.447382
0.405555
0.00360215
-0.0186283
-0.0464993
-0.209341
0.513637
0.512002
0.516285
0.51712
0.517882
-0.0156637
-0.0125175
-0.0100667
-0.0430764
-0.0375315
-0.0473188
0.480499
0.500069
-0.183191
0.516569
0.518665
0.518379
0.512487
0.517484
0.516069
-0.0134002
-0.0192467
-0.0212674
0.198617
0.333217
0.713623
0.789968
0.662232
0.493421
0.193844
0.648342
0.701655
0.626067
0.756825
0.662048
0.672281
0.166723
0.0280965
0.171268
0.103474
0.507236
0.506602
0.497736
0.494667
0.511707
0.509403
0.51457
0.511753
0.514906
0.516086
-0.0322218
-0.0706168
-0.0834621
-0.138617
0.300961
0.56187
0.231502
0.256342
0.1636
-0.0389123
-0.0385432
-0.0458462
-0.0510842
-0.00320385
-0.0157543
0.0337501
0.0392472
0.0184758
-0.00854626
-0.013117
-0.0144453
-0.018871
0.505942
0.505278
0.511032
0.519454
0.456848
0.460509
0.427213
0.445756
0.432136
0.372413
0.402432
0.379692
-0.0057083
0.00518159
-0.00015286
-0.0167352
-0.0144284
-0.0346118
-0.0269998
-0.0274436
-0.0230039
-0.026026
-0.0416503
-0.04663
-0.172705
-0.289168
0.949515
0.886677
0.13224
0.503575
0.50921
0.506397
0.511024
0.514227
0.514885
0.512485
0.508996
0.500227
0.501648
0.49848
0.499484
-0.124095
-0.230743
-0.0636753
-0.135505
0.146807
0.612065
0.341407
0.288409
0.273505
0.495707
0.713806
0.636069
0.701727
0.698124
-0.391438
0.0227332
-0.319014
0.230814
0.21622
0.738215
0.780253
0.797946
0.754622
0.710738
-0.0313529
0.546954
-0.0555101
-0.00906995
0.18104
0.0686137
0.682992
0.641818
0.646932
0.664488
0.678992
0.657273
0.638281
0.633466
0.661161
0.666743
0.498153
0.227521
0.186398
0.139922
0.628264
0.525622
0.578649
0.499124
0.502718
0.505223
0.504108
0.485251
0.492568
0.488287
0.495192
0.498762
0.506257
0.506457
0.502414
0.504279
-0.0632208
-0.0661892
-0.0710286
-0.121744
-0.12473
-0.166072
-0.0882662
0.103898
0.0502492
0.241682
0.382065
0.0759952
-0.04822
-0.0345058
0.0212401
0.182012
0.185648
0.052758
0.16989
0.123063
0.116364
0.206793
0.231169
-0.0265328
-0.0264194
-0.0305572
-0.0361318
0.0166128
0.115719
0.0994129
-0.00439097
-0.0112552
-0.0385994
-0.0410023
-0.00150436
-0.0163233
-0.0092926
0.00291257
-0.045693
-0.0190976
-0.00767176
-0.00495262
-0.0084669
-0.00707036
0.49948
0.501599
0.501546
0.509589
0.524201
0.539225
0.502086
0.477919
0.468965
0.472061
0.445338
0.454542
0.449627
0.465128
0.486901
0.495747
0.493215
0.495903
0.478171
0.479838
0.465459
0.469894
0.439551
0.421393
0.411513
-0.0426028
-0.00740051
-0.020272
-0.0385243
-0.0108702
-0.0229928
-0.0117616
0.00450091
-0.0116399
-0.0102456
-0.0189516
-0.0264636
-0.0262814
-0.0748145
0.00750249
-0.175714
-0.225204
-0.276692
0.881723
1.01778
0.806322
0.604196
0.608905
0.824208
0.920311
0.561267
0.723319
0.766639
0.564909
0.85261
0.507438
0.507079
0.504978
0.504171
0.50512
-0.0170681
0.0831055
0.10068
0.155531
0.271182
0.378206
0.300887
0.188413
0.323012
0.347075
0.609477
0.617461
0.572904
0.594389
0.593137
0.409238
0.49064
0.531642
0.482445
0.556302
0.589115
0.537063
0.579375
0.499461
0.449168
0.440646
0.397887
0.431293
0.412902
0.387531
0.49898
0.475771
0.486765
0.476334
0.49767
0.519859
0.521873
0.545384
0.560927
0.47758
0.426037
0.442441
0.470136
0.427332
0.44369
0.465042
0.172703
0.0773359
0.243353
-0.0854071
0.0043837
0.0413362
0.000133575
-0.0451208
0.261965
-0.380192
-0.324766
-1.00771
0.488398
0.869058
0.644149
0.658453
0.678296
0.661463
0.67135
0.684426
0.689605
0.620366
0.631623
0.635718
0.604853
0.63348
0.636947
0.64413
0.49909
0.404763
0.402797
0.339461
0.204565
0.244412
0.431132
0.362491
0.289338
0.283623
0.454218
0.321577
0.398363
0.45435
0.381398
0.313674
0.544662
0.592218
0.582243
0.554065
0.448393
0.478692
0.491468
0.537857
0.572505
0.599633
0.493948
0.500215
0.501163
0.498416
0.496628
0.499722
0.499936
0.502223
0.502613
0.505157
0.504527
-0.0439553
-0.0336443
-0.0506585
-0.0530205
0.0211807
-0.00124519
0.00127826
-0.0311193
-0.011467
-0.012644
-0.0313877
-0.04682
-0.0384093
-0.0251234
0.0697439
0.0873189
0.094331
0.0596364
0.244749
0.423534
0.490844
0.360807
0.201947
0.221135
0.303511
0.0157477
0.0335087
0.018765
0.0694434
0.0454693
-0.0322048
-0.0384392
-0.0360645
-0.028019
-0.0184477
-0.0382916
-0.043519
-0.0343
-0.0401866
-0.0436442
-0.0466923
0.479618
0.472536
0.475993
0.468539
0.466732
0.483395
0.48779
0.489137
0.494612
0.497152
0.486861
0.492791
0.496795
-0.0141525
-0.0318259
-0.0330162
-0.0278353
-0.0289858
-0.0283199
-0.0295514
0.120893
0.0271243
0.0614524
-0.00570444
-0.130118
-0.0705447
0.489455
0.485793
0.480751
0.709498
0.549415
0.46612
0.562605
0.680731
0.267298
0.469574
0.301753
0.881435
0.784203
0.929901
0.550736
0.246016
0.409691
0.423678
0.258855
0.383927
0.342652
0.218862
0.258111
0.284072
0.369147
0.249161
0.227632
-0.0141381
0.163987
0.277318
0.258982
0.389199
0.447152
0.252289
0.167277
0.115701
0.592813
0.61059
0.620791
0.593801
0.61505
0.561999
0.55087
0.567876
0.576332
0.571576
-0.644916
-0.233172
-1.43482
-0.841798
-0.390549
0.515303
0.5063
0.745393
0.651774
0.692513
0.673731
0.610047
0.574598
0.615523
0.63669
0.333427
0.42491
0.405499
0.389492
0.332597
0.272564
0.552295
0.556427
0.581376
0.605111
0.5801
0.605978
0.492562
0.492378
0.491214
0.487548
0.486096
0.489138
0.0262536
0.00294517
0.040914
0.0359602
0.0179213
0.0186773
-0.0125427
-0.0229428
-0.0263083
-0.0243909
-0.0146644
-0.0110672
0.162627
0.10374
0.0173707
0.0584341
-0.00787644
-0.0884484
-0.0904986
-0.00231375
0.0950961
0.0766301
0.387626
0.656179
0.483261
0.656558
0.448088
0.554312
0.464342
0.438759
0.468364
0.365299
0.453186
0.0223823
-0.175947
-0.233225
0.813088
0.769606
0.556483
0.304594
0.191761
0.490537
0.520218
0.484838
0.509109
0.559258
0.538955
0.00242209
0.0993741
0.168548
0.478772
0.269025
0.286352
0.277963
0.438941
0.412518
)
;

boundaryField
{
    wall-4
    {
        type            zeroGradient;
    }
    velocity-inlet-5
    {
        type            zeroGradient;
    }
    velocity-inlet-6
    {
        type            zeroGradient;
    }
    pressure-outlet-7
    {
        type            fixedValue;
        value           uniform 0;
    }
    wall-8
    {
        type            zeroGradient;
    }
    frontAndBackPlanes
    {
        type            empty;
    }
}


// ************************************************************************* //
