/*--------------------------------*- C++ -*----------------------------------*\
  =========                 |
  \\      /  F ield         | OpenFOAM: The Open Source CFD Toolbox
   \\    /   O peration     | Website:  https://openfoam.org
    \\  /    A nd           | Version:  6
     \\/     M anipulation  |
\*---------------------------------------------------------------------------*/
FoamFile
{
    version     2.0;
    format      ascii;
    class       surfaceScalarField;
    location    "46";
    object      phi;
}
// * * * * * * * * * * * * * * * * * * * * * * * * * * * * * * * * * * * * * //

dimensions      [0 3 -1 0 0 0 0];

internalField   nonuniform List<scalar> 
1300
(
3.75095
5.62643
-3.26179
3.75095
-7.72544
5.62643
-4.24475
4.24475
-0.735989
0.735989
1.87647
1.87449
-2.60282
2.60282
-2.04553
2.04553
-2.54393
2.54393
-5.24794
5.24794
-5.06891
5.06891
4.713
-4.713
-6.29048
6.29048
-1.07634
1.07634
-3.66185
3.66185
3.17288
-3.17288
-2.03715
2.03715
-0.161487
0.161487
-0.554104
4.30506
3.19685
3.19685
-1.97732
1.97732
-4.87401
4.87401
6.2221
-6.2221
5.22456
-5.22456
-1.96277
-2.4071
1.81373
-11.5688
-5.91171
-5.91171
-8.44103
8.44103
-2.8146
2.81183
2.94583
-2.94583
-1.73484
1.73484
-4.22957
-0.0151852
-4.22957
4.22862
0.0161321
4.22862
-0.821519
0.0855307
-0.821519
3.85288
-3.85288
0.610151
0.125837
0.610151
3.067
-3.067
-1.87687
3.75334
1.87408
-1.87207
6.17713
-1.87889
3.75337
-6.05399
6.05399
-2.82158
0.21876
-2.82158
2.40938
0.19344
2.40938
-6.85758
6.85758
-2.10087
0.0553376
-2.10087
2.02716
0.0183703
2.02716
2.88209
-2.88209
-2.64111
0.0971858
-2.64111
2.4122
0.13173
2.4122
0.353503
5.27293
-5.97993
8.79176
-5.27293
0.0249845
5.21031
0.0376306
5.21031
-5.10536
0.0364494
-5.10536
5.01348
0.0554383
5.01348
4.80682
-0.0938236
4.80682
-4.82824
0.115244
-4.82824
-3.39425
-4.0797
-6.45855
0.16807
-6.45855
-1.10285
0.0265104
-1.10285
1.01827
0.0580646
1.01827
-3.68971
3.68971
-3.97895
0.317094
-3.97895
3.12785
0.0450264
3.12785
1.86813
1.88283
5.61908
-5.61908
2.4462
-1.97693
-0.0602144
-1.97693
-2.11372
-3.11084
2.11372
-0.0765752
-0.378146
0.216659
-0.378146
3.15702
0.0398266
3.15702
2.25216
0.160039
-2.25216
0.274839
3.27717
-3.27717
1.30597
0.671345
1.30597
-5.55946
5.55946
4.96162
0.0518515
-4.96162
0.0876189
6.15729
0.0648138
6.15729
-6.20749
-0.0146112
-6.20749
2.56132
-4.96842
-2.58122
6.09882
0.191666
-6.09882
0.187108
2.91668
0.0291495
2.91668
-2.92038
2.92038
-2.98331
0.0374725
-2.98331
-2.16015
0.425311
-2.16015
1.41699
0.317846
1.41699
-4.11207
-0.117495
-4.11207
-4.11266
0.133712
4.11266
0.115959
1.08224
-1.08224
-0.884422
0.0629032
-0.884422
-3.94823
-0.163841
3.94823
-0.0953485
-3.81019
-0.0426901
-3.81019
-3.02131
0.0380074
3.02131
0.0456864
3.11194
0.0450795
-3.11194
0.044943
-1.87098
3.7538
-1.87998
3.75405
-5.67247
-0.381521
-5.67247
6.34539
-0.291398
6.34539
3.21516
0.446694
-3.21516
0.393576
2.26911
0.140269
2.26911
-6.83307
-0.0245105
-6.83307
6.86057
-0.00298243
6.86057
2.17115
0.0979616
-2.17115
0.0702801
1.99621
0.0309521
1.99621
2.90696
-0.0248653
2.90696
-2.87772
-0.00437285
-2.87772
2.79563
-2.79563
2.72385
0.0717845
-2.72385
0.0827326
-11.1242
11.1095
-0.0362374
-11.0879
5.17407
5.17407
4.26305
0.543777
4.26305
-5.01955
0.191303
-5.01955
2.69106
-5.27228
3.07778
-6.47202
4.69039
-16.2592
4.32545
-8.40515
6.70932
-6.70932
6.59205
0.117269
-6.59205
0.133504
-1.17137
0.0685273
-1.17137
-3.07073
-0.618975
-3.07073
4.33162
-0.641918
4.33162
-3.02817
3.02817
-3.0768
0.0486271
3.0768
0.0510528
1.96363
0.0325789
-1.96363
-0.0132986
0.484096
0.126055
-0.484096
0.10595
3.48961
-0.21244
3.48961
-3.08047
-0.196704
-3.08047
-1.24212
0.0707436
1.24212
0.0638564
-5.80741
0.247949
-5.80741
-11.1815
0.0935411
-11.1438
-6.11395
-6.11395
2.32708
11.1188
-2.89419
0.0164675
2.89419
0.0224966
2.97582
0.0523505
-2.97582
0.0554455
-2.86061
0.064978
2.86061
0.0597666
-2.53075
0.370598
-2.53075
-1.02243
1.02243
-1.17824
0.155818
1.17824
0.238748
1.3708
-0.288556
1.3708
0.955099
0.063174
-0.955099
0.070676
-3.77403
-0.0361625
-3.77403
6.58069
-0.2353
6.58069
-2.95553
-0.124942
2.95553
-0.0485676
-0.0348654
11.1444
-5.13921
0.0338454
5.13921
-11.2092
11.2431
-3.23957
0.708821
3.23957
1.02348
5.28629
0.273167
-5.28629
0.266743
6.79953
0.0610335
-6.79953
0.0902085
-2.5878
-0.482935
-2.5878
-5.0738
-0.598673
5.0738
-0.742172
-11.4818
-0.203
11.6848
-11.4264
6.01041
0.146883
-6.01041
11.39
-0.975809
-0.106435
0.975809
0.0466183
1.70823
-0.337429
1.70823
3.69578
-0.206166
-3.69578
-0.0782508
-6.72927
-0.103805
6.72927
-0.14858
-2.13795
-0.449844
2.13795
-0.429723
-4.26726
4.30709
1.90986
-2.38681
-2.58162
-5.49765
1.85498
1.89882
4.30118
-10.2094
-6.04978
-10.0223
7.21294
-6.9462
-9.35586
9.26204
7.80633
-7.84902
-5.77803
5.82908
6.48404
-6.43836
1.87927
1.87407
7.99971
-7.78095
-15.7077
15.3261
7.55856
-7.50322
15.8448
-15.8693
-17.9099
17.9709
-5.70126
5.79845
-6.73545
6.73107
-6.96765
6.91909
-2.83822
-3.63381
13.1904
-13.0224
8.52045
-8.58067
-8.63492
8.95202
3.38452
0.922563
3.4296
-1.88194
3.76121
-1.87143
3.78129
2.70291
-5.54113
2.56937
-5.15099
4.31059
4.20986
-4.23402
-1.26363
-5.92647
5.95562
-5.81241
5.87218
9.03676
-9.05195
-1.88501
3.75908
-1.86905
3.76787
-3.42342
-2.3546
3.3784
0.922783
8.11169
5.07874
-8.30336
-1.71895
-7.96615
7.75998
-8.1929
7.9962
-0.437039
5.83627
-5.39923
4.43697
-1.65425
7.49051
5.55869
5.75
5.86004
-5.58688
1.08615
-6.48538
-6.39776
-2.46028
2.52318
2.40815
-2.28231
6.02589
1.78043
5.93055
-5.74598
-2.10304
-5.78214
3.82033
2.00875
3.86896
4.08111
2.40293
4.11912
3.03
-3.03616
0.00615781
-3.05897
6.08897
0.722919
-5.41358
-4.49079
5.01233
2.98739
5.20577
-5.57432
-2.20663
-5.18075
-9.60109
-6.10657
-10.1998
10.1073
5.2188
9.81594
-11.9843
11.8357
4.83644
2.72212
4.85481
-4.96239
-2.54083
-4.89211
11.6699
-2.63531
-9.03456
-10.3476
-7.56227
10.3506
5.49422
11.0065
6.96435
11.0967
4.44124
7.22864
-9.93545
2.37318
-3.8642
-1.83706
-3.78147
3.65998
2.13847
3.79171
-4.21657
-2.51888
-4.2001
-4.29133
-2.67632
4.31619
2.41488
-4.40787
-3.78503
4.53281
2.38628
4.06613
-10.1159
4.33902
-7.97283
-9.2417
-3.78067
-9.10819
3.50482
2.60457
-6.10938
-2.03631
8.45093
-4.24107
7.1873
-5.19959
-3.38108
-5.21288
-6.90056
-1.73436
-6.76685
-8.94803
8.46509
-9.23595
8.59403
12.6368
-5.67765
-6.95916
-3.9668
-2.47155
3.92186
-0.492257
-3.71029
3.71644
0.0509278
3.83222
4.75478
4.26253
-3.88326
-1.92915
-3.82781
3.82455
2.04763
3.88953
6.77579
2.26098
6.79192
-6.491
-2.56095
-6.6085
9.13413
-8.70882
2.8553
-2.78456
5.34275
2.65344
-5.13031
-2.83584
6.2324
-3.18298
-3.04941
-12.3558
10.8431
1.51274
-4.86529
-0.428323
-0.266836
-5.58377
-3.77209
5.46853
0.281471
11.1245
7.35245
-5.51516
5.76311
6.16967
6.22152
-0.176237
5.9151
-5.20628
5.33561
-2.61375
-2.72186
5.37503
-5.53887
-1.23346
-5.4555
4.22204
0.391671
1.68606
-1.46941
-1.89522
-0.565065
-1.82454
1.41176
0.99639
1.53781
0.908456
1.61473
-2.92744
0.582049
2.3454
-2.01899
-1.70026
-3.7032
-1.14231
4.84552
5.65727
2.10271
-5.57902
-0.203122
2.64061
-2.58254
-0.75877
-2.94443
2.18068
-2.93945
-3.52337
-1.87727
5.40065
-3.3693
-0.458517
3.31695
0.552013
-3.82738
-2.09909
3.78991
0.329211
-3.12758
6.19007
-3.06249
-5.05674
2.52899
3.55998
4.53774
-4.7907
2.44865
2.34205
-1.23071
4.28681
0.918958
4.42708
-6.99695
4.79032
5.71513
3.23688
-6.16183
0.981081
-6.01587
8.43325
-7.2763
-1.15695
3.97058
4.46267
7.09233
5.54449
-5.70519
12.7975
-1.06518
-6.21112
7.08105
-3.84417
4.78764
-8.63181
-10.3321
4.12101
-9.23741
11.0366
-1.79919
-3.61287
-8.37141
12.8503
-1.20923
-11.641
8.60671
-4.24422
-4.2928
8.53702
-6.87952
6.83363
-1.97294
-4.86069
-10.1522
-5.71713
10.256
1.57973
-9.89081
12.264
-2.66218
4.14092
0.713896
4.17187
3.30081
-5.43617
2.13535
3.57871
-5.55165
2.07082
-7.50699
-6.77686
12.1244
-5.34752
-10.5575
-9.57435
-0.983181
2.56036
9.70363
-9.52472
7.46853
2.05618
3.30157
0.587955
-3.37336
-0.40811
0.242541
4.51708
-4.75962
4.03425
4.19429
3.24853
1.26855
3.84742
2.1082
-3.86991
-0.330187
-4.16289
1.48656
-1.74801
-3.68723
5.17379
-4.06329
0.376059
-2.74333
-3.49746
6.24079
-4.58039
3.03731
3.15276
5.08494
-4.91379
1.41633
-2.3937
-2.5201
2.64696
-4.39497
1.98842
3.18537
4.3747
0.589664
5.90966
6.21472
-8.51423
0.541398
11.2935
-9.57451
2.48084
8.6159
-9.94938
0.375029
-8.73316
0.977466
-5.21854
-5.13192
5.13572
-6.87009
-3.49609
6.21638
0.575539
-6.33234
-0.434512
-6.07278
-2.87525
-6.52262
-3.07354
-6.16241
-8.77873
-1.68371
-7.09502
6.78138
-6.69787
-3.50189
7.44005
1.15398
-7.48642
7.37998
-7.55175
7.21432
0.0943659
3.62208
4.35689
1.88534
-2.39137
4.27671
-5.07182
7.3328
-8.68649
3.61467
4.14718
-6.70812
-4.53932
5.07319
4.06094
5.39103
8.97422
-10.4614
1.48714
-10.7381
12.0744
-1.33629
-16.5397
5.80158
-7.56551
2.52557
0.329728
2.5941
0.596649
2.48532
-3.08197
-2.18791
-2.12405
-2.40369
-3.49376
5.89745
1.10699
-3.42589
2.3189
-3.5775
4.68449
-0.00064053
-3.42525
5.20249
-2.71717
5.53222
-3.57814
1.95408
3.51523
5.82895
-2.31371
4.42015
-1.7667
1.90945
-4.22316
-1.58431
-2.95845
5.09692
-3.28234
3.6584
-0.337292
3.99569
-4.08195
0.89897
-0.833425
3.36087
3.63571
4.32394
-3.05538
2.94864
-4.71534
-1.27452
-4.12568
-0.940305
-0.212205
-3.84403
4.05624
6.05833
-6.27053
-5.30385
9.5618
-4.25795
7.72697
-5.45785
-2.26912
-4.3097
-4.39912
3.9391
1.976
9.70297
0.179224
-5.63708
-5.02705
-4.00358
3.18182
2.15379
-1.86525
3.37799
2.13209
-0.446024
0.467541
1.07027
1.83032
-1.36278
0.293186
1.53714
-1.17622
1.84932
0.791289
-1.91249
0.0879539
-1.26092
3.4416
1.08447
-2.08086
0.718081
0.941954
-3.55571
4.96212
-2.67513
-2.28699
5.90407
1.13868
-3.81381
4.31682
-3.92515
2.40399
-3.5463
-1.40982
-5.33497
-3.55454
-2.52276
4.84166
-3.37469
5.4774
1.31829
-5.27428
6.59257
-3.61475
1.73747
-3.06188
3.85317
-1.06974
-1.99214
2.93506
2.46558
-3.09016
0.145726
-0.155096
2.39117
-2.54627
-0.548281
-2.56727
-4.57499
4.90421
-2.10464
4.55329
2.17206
-1.91655
6.46984
1.80891
-3.72546
-3.24782
-3.70634
-1.38341
3.15432
-0.589527
-4.30259
-5.45022
4.20463
0.222451
-6.86088
7.78964
-0.928761
-3.87349
-0.916832
4.88741
-6.02614
0.474488
-3.95531
3.83432
4.75328
4.97573
-11.4188
-0.2222
-6.20005
1.10706
-7.30711
5.56973
-3.60168
7.72269
-10.3498
6.84793
-9.19584
6.56575
-0.741359
6.23088
-4.09553
2.80368
-8.52081
-6.94108
5.47753
-2.75542
6.19143
-3.11943
9.31086
-5.7816
5.23844
4.07242
-1.01422
-4.19866
-5.24422
4.23
-0.0057867
4.16608
4.98427
-2.87607
4.65408
2.25976
-4.65346
-2.13521
-6.48916
1.8357
-3.3364
-1.92002
3.75573
3.16491
3.75287
1.23563
-3.34476
7.22094
-8.20412
-1.87343
-3.25849
5.21964
-0.989632
3.37998
-6.63847
-1.83855
4.80875
-0.748236
-4.06052
0.8689
-4.36499
1.6801
-6.04509
5.18999
-5.6245
2.24781
-9.81332
-5.23861
-5.19199
-2.27965
-5.2721
-7.62091
5.34127
-1.81933
5.56065
-8.5878
7.83957
-3.48663
8.8279
-5.46871
-1.05391
5.89843
1.31588
10.1438
0.124521
-4.66384
-1.93597
3.83351
-1.89754
1.24585
-3.71951
0.113992
2.47308
3.43099
-6.69511
-0.0130106
-4.67685
-3.91856
7.9795
5.64324
11.7016
1.24021
9.17582
-1.19632
10.416
4.19471
4.43346
-3.04862
4.53576
1.00762
4.62229
-0.86418
2.81826
1.72992
1.75643
0.826115
2.29647
1.33923
3.19544
0.113472
-2.01058
4.649
-8.65258
-0.988075
-8.1088
1.15324
5.42792
-4.27468
2.99289
-0.839096
1.09535
-0.0430859
-1.48868
1.53176
-2.76494
-1.9347
-0.397565
-1.62296
2.34104
1.81864
-1.94348
-0.821466
0.328539
-3.88308
3.21776
-3.07203
-0.606453
5.98612
-2.83074
0.284476
-1.09327
-2.28279
-2.84786
2.75991
6.17478
0.295054
3.11229
5.19926
3.10017
0.224104
3.90137
-5.70056
-3.60562
-5.92276
-0.35303
4.53438
1.71726
7.98637
5.78968
4.80005
-1.83843
-10.0425
6.55258
-2.01682
5.21629
-1.15577
-4.88932
5.05516
2.27764
-5.6307
0.00620024
-4.88312
-6.89993
-0.489418
8.32899
-9.65436
8.60045
5.7252
1.36982
-4.44604
-0.745949
4.29022
0.143239
10.5593
-0.904416
-7.14842
8.05284
-4.5235
3.53543
0.722127
2.65586
2.25389
1.41479
-5.73363
-10.0083
-2.00153
-1.55417
-4.28852
0.556996
-2.37564
6.09854
-2.56311
3.82942
5.48973
6.58507
-2.06384
-4.2067
6.32179
-2.49237
4.0927
)
;

boundaryField
{
    wall-4
    {
        type            calculated;
        value           uniform 0;
    }
    velocity-inlet-5
    {
        type            calculated;
        value           uniform -3.75095;
    }
    velocity-inlet-6
    {
        type            calculated;
        value           uniform -5.62643;
    }
    pressure-outlet-7
    {
        type            calculated;
        value           nonuniform List<scalar> 8(3.26179 7.72544 4.36987 9.75507 7.47395 5.14254 5.76884 9.01584);
    }
    wall-8
    {
        type            calculated;
        value           uniform 0;
    }
    frontAndBackPlanes
    {
        type            empty;
        value           nonuniform 0();
    }
}


// ************************************************************************* //
