/*--------------------------------*- C++ -*----------------------------------*\
  =========                 |
  \\      /  F ield         | OpenFOAM: The Open Source CFD Toolbox
   \\    /   O peration     | Website:  https://openfoam.org
    \\  /    A nd           | Version:  6
     \\/     M anipulation  |
\*---------------------------------------------------------------------------*/
FoamFile
{
    version     2.0;
    format      ascii;
    class       volScalarField;
    location    "26";
    object      p;
}
// * * * * * * * * * * * * * * * * * * * * * * * * * * * * * * * * * * * * * //

dimensions      [0 2 -2 0 0 0 0];

internalField   nonuniform List<scalar> 
918
(
0.227775
0.975362
0.0213036
0.227572
-0.0109818
0.94335
-0.809511
0.403479
0.208784
-0.412931
-0.409829
0.201852
0.800326
0.567738
-1.48994
-0.199251
0.361118
-0.713839
0.206616
-0.0660319
0.446693
0.215598
0.218067
0.20883
0.264739
0.528715
0.676819
0.000857954
0.0128974
0.00274039
-0.00924706
-0.0509353
-0.0715341
0.826508
0.878418
0.901541
0.17644
0.00767668
-0.690775
-0.74882
-0.728478
-0.84175
0.394912
0.397194
-0.486603
0.402795
0.411999
0.19482
0.208128
0.208952
0.210271
0.209056
0.210397
0.124649
-0.424222
-0.452641
-0.392657
-0.388875
-0.204638
-0.410768
-0.400811
-0.403628
-0.378577
0.129901
0.198628
0.196609
0.207014
0.215245
0.915531
0.889249
0.915258
0.826074
0.843583
0.777312
0.750187
0.589327
0.612541
0.551437
0.540035
-1.96064
-2.92713
-0.900975
-0.614032
-0.00378797
-0.218392
-0.245561
0.348527
0.349031
0.361683
0.370636
0.724947
-0.715641
-0.833776
0.207019
0.205552
0.215011
0.215914
0.210842
0.210872
-0.103449
-0.15223
-0.0211002
-0.0477478
-0.0416656
0.434355
0.43103
0.208272
0.205769
0.225091
0.24969
0.237382
-0.0364232
0.273666
0.291334
0.38084
0.534428
0.522596
0.534668
0.651965
0.620054
0.708701
0.730423
0.00317151
0.00295896
-0.178192
-0.0938478
-0.129075
0.172596
0.166704
0.191833
0.180133
0.183016
-0.0882294
-0.241475
0.0895634
0.111762
-0.605926
-0.651332
-0.765548
-0.765126
-0.867118
0.242337
0.391273
0.39012
-0.506147
-0.424727
-0.558275
-0.365907
-0.425562
0.186211
0.192088
0.188407
0.203417
0.197614
0.200039
0.212243
0.209352
0.210965
0.181163
0.303897
0.0451534
0.0156421
-0.563421
-0.472685
-0.556093
-0.378879
-0.384352
-0.199009
-0.168917
-0.209195
-0.200743
-0.376555
-0.389636
-0.379896
-0.359409
-0.321551
0.121986
0.110769
0.139707
0.146652
0.189539
0.19055
0.194022
0.192068
0.700883
0.723796
0.730067
0.706272
-3.92522
-6.59867
-0.257282
-0.0920185
-0.00333071
0.00276289
0.000969854
0.00897162
0.00341278
-0.00574302
-0.249397
-0.264282
-0.261365
-0.271244
0.33911
0.339495
0.684252
0.707671
0.676128
0.658344
0.196309
0.198308
0.202921
0.199827
-0.285717
-0.199211
-0.235226
0.410166
0.420971
0.420613
-0.0747294
-0.158983
0.0103135
0.039297
0.328826
0.301904
0.321504
0.441201
0.481387
0.747592
0.771876
0.755762
0.768777
0.819734
0.842618
0.807654
0.152649
0.163022
0.157584
0.195027
0.192574
0.193557
0.188843
0.190434
0.188375
-0.355848
-0.735232
0.168335
0.178263
0.149377
0.163273
0.321055
0.403557
0.368818
0.381178
0.382181
-0.31625
-0.367047
-0.0200813
-0.0477259
0.0663868
0.0990188
0.081908
0.6764
0.637264
0.684879
0.660237
0.625099
0.647932
-0.6739
-2.46555
-1.44614
0.321244
0.118875
0.212803
-0.218519
-0.223458
-0.222887
0.707266
0.747341
0.36748
0.550474
0.505091
0.509942
0.537584
0.594156
0.526313
0.560078
0.592796
0.570183
0.210163
0.167298
0.177246
0.485561
0.546267
-0.194045
-0.265586
-0.291701
-0.169194
-0.109314
-0.135834
0.720024
0.609112
0.681696
0.206002
0.206924
-0.0162182
-0.0293421
0.210886
0.210609
-0.00916379
-0.0540525
0.231739
-1.2655
-0.183049
0.200179
0.190291
0.206815
-0.387219
0.0483404
-0.406801
-0.201345
-0.270079
0.197392
0.140293
0.102695
0.00514785
-0.190391
-0.11531
-0.499991
0.203718
0.202177
0.20624
0.207142
0.207863
-0.0159646
-0.0247059
-0.0104847
-0.0960307
-0.0560611
-0.0575663
0.171564
0.18925
-0.485132
0.206428
0.208553
0.20827
0.202243
0.207249
0.205804
-0.118965
-0.0810553
-0.161388
-0.0910444
0.0346427
0.423861
0.505597
0.367783
0.195348
-0.110758
0.354279
0.410319
0.331293
0.467291
0.378873
0.386005
-0.124891
-0.26066
-0.117914
-0.179289
0.197333
0.196475
0.187953
0.185145
0.201635
0.199448
0.20441
0.201503
0.204583
0.205849
-0.352455
-0.376021
-0.390199
-0.445597
0.0122931
0.267929
-0.0574718
-0.0120478
-0.1511
-0.439329
-0.410706
-0.404204
-0.390642
-0.359869
-0.277001
-0.249836
-0.223591
-0.306357
-0.300391
-0.426522
-0.355177
-0.384206
0.191931
0.192312
0.196934
0.204173
0.149462
0.152909
0.120502
0.139083
0.124612
0.0715663
0.100654
0.0778728
-0.00488405
-0.00281948
0.00425825
-0.204585
-0.30807
-0.1066
-0.0619135
-0.0607295
-0.0426978
-0.0490555
-0.195791
-0.218168
-0.464301
-0.570451
0.662726
0.589121
-0.179489
0.193754
0.199427
0.196665
0.201072
0.204272
0.205008
0.20261
0.199144
0.189626
0.191216
0.187414
0.187911
-0.432616
-0.537145
-0.364813
-0.437119
-0.168756
0.316205
0.0442448
-0.00749292
-0.0210756
0.192903
0.395537
0.340371
0.425148
0.428524
-0.710999
-0.288794
-0.63449
-0.0860752
-0.100054
0.444601
0.489072
0.508307
0.464076
0.41821
-0.350728
0.214611
-0.352908
-0.313494
-0.130342
-0.226886
0.403077
0.359573
0.365855
0.375523
0.393175
0.369154
0.346189
0.345957
0.372003
0.379929
0.186479
-0.0593983
-0.0967146
-0.144751
0.342154
0.221375
0.275004
0.199725
0.192402
0.195101
0.193764
0.176228
0.183229
0.17941
0.18486
0.188211
0.196696
0.196903
0.192671
0.194877
-0.361458
-0.37344
-0.352654
-0.419192
-0.430359
-0.459511
-0.390957
-0.221719
-0.248463
-0.0631967
0.0480752
-0.270135
-0.369458
-0.365861
-0.300702
-0.159256
-0.0980243
-0.21022
-0.127517
-0.118324
-0.134209
-0.0485327
-0.0462973
-0.413589
-0.361638
-0.349087
-0.405575
-0.253016
-0.184173
-0.182962
-0.473437
-0.490802
-0.41247
-0.368874
-0.309072
-0.321492
-0.333879
-0.285326
-0.188149
-0.198762
-0.270693
-0.445992
-0.347977
-0.365402
0.187788
0.189518
0.189468
0.200661
0.209753
0.225229
0.194756
0.169221
0.160735
0.163778
0.138319
0.147884
0.142526
0.157122
0.178203
0.184432
0.182933
0.184971
0.169929
0.170994
0.15761
0.161492
0.135053
0.118659
0.109931
-0.101569
-0.0566598
-0.0909779
-0.0843207
-0.0292566
-0.0520525
-0.320045
-0.29034
-0.326955
-0.303782
-0.35621
-0.132008
-0.148363
-0.382456
-0.309177
-0.486261
-0.524572
-0.581905
0.572046
0.695411
0.488673
0.283939
0.285663
0.516004
0.611104
0.254312
0.43337
0.468436
0.224836
0.501414
0.197784
0.197281
0.195174
0.194355
0.195651
-0.337195
-0.239024
-0.20941
-0.165844
-0.0470467
0.0616269
-0.0380204
-0.14531
-0.00766856
0.0161843
0.312523
0.32507
0.26788
0.293389
0.288754
0.115845
0.194947
0.232289
0.188729
0.249026
0.280851
0.233278
0.272147
0.199118
0.157636
0.151908
0.0995711
0.1341
0.114081
0.0875954
0.188561
0.167618
0.17783
0.16905
0.188989
0.216489
0.215262
0.23615
0.251158
0.171974
0.127049
0.142139
0.166476
0.126909
0.140833
0.159842
-0.158287
-0.250219
-0.0812818
-0.406001
-0.312997
-0.277229
-0.317053
-0.367735
-0.0615008
-0.707834
-0.648578
-1.33915
0.156869
0.561442
0.36683
0.382217
0.391493
0.371068
0.378136
0.398135
0.405614
0.331694
0.34778
0.350092
0.303516
0.336988
0.344649
0.351243
0.178729
0.0936675
0.0902952
0.0319511
-0.0965723
-0.0618213
0.113235
0.051354
-0.0154327
-0.0185604
0.158566
0.0332758
0.106059
0.156188
0.0948747
0.0285444
0.246388
0.302648
0.288681
0.253816
0.174586
0.190923
0.217146
0.257268
0.28133
0.313676
0.184192
0.190307
0.191358
0.188651
0.18682
0.189567
0.189483
0.191908
0.192696
0.195366
0.19447
-0.357813
-0.334566
-0.362056
-0.366717
-0.312937
-0.328776
-0.279824
-0.313951
-0.310478
-0.302062
-0.326716
-0.336786
-0.350243
-0.338973
-0.202847
-0.190777
-0.183883
-0.227307
-0.0912172
0.0998397
0.151657
0.0190951
-0.115411
-0.0779253
-0.00109272
-0.287209
-0.272087
-0.298689
-0.216721
-0.237893
-0.457772
-0.45816
-0.454722
-0.502636
-0.460537
-0.399015
-0.271029
-0.318102
-0.34495
-0.341291
-0.299926
0.17082
0.163916
0.16721
0.160418
0.159118
0.174182
0.17839
0.179162
0.183825
0.185983
0.176989
0.182018
0.185648
-0.342909
-0.233831
-0.287263
-0.335261
-0.264047
-0.200975
-0.235579
-0.202459
-0.284842
-0.249919
-0.321391
-0.437101
-0.379995
0.148993
0.146918
0.153191
0.365281
0.216101
0.127747
0.216802
0.324854
-0.0620117
0.14379
-0.0267226
0.55286
0.44271
0.586649
0.22713
-0.0824232
0.073933
0.0880286
-0.0763082
0.0461546
0.0241639
-0.0971317
-0.0597922
-0.0419876
0.0386406
-0.0740759
-0.0989416
-0.345997
-0.17441
-0.045024
-0.0655676
0.0704253
0.12944
-0.0862541
-0.163367
-0.211024
0.2972
0.317485
0.33161
0.303283
0.326543
0.253748
0.246107
0.263034
0.270568
0.263504
-0.981693
-0.572351
-1.77263
-1.17357
-0.723371
0.191539
0.171034
0.421177
0.325737
0.3917
0.374065
0.314943
0.278469
0.303326
0.33459
0.0288785
0.133062
0.0962698
0.115484
0.0510188
-0.0208739
0.270348
0.27038
0.298126
0.32218
0.293073
0.321477
0.182955
0.182578
0.181355
0.17812
0.177009
0.17964
-0.245558
-0.270368
-0.248042
-0.266664
-0.276658
-0.279165
-0.454141
-0.438864
-0.41528
-0.376801
-0.405071
-0.421675
-0.172769
-0.226107
-0.304676
-0.265042
-0.330006
-0.401109
-0.40804
-0.321514
-0.228993
-0.245764
0.0643844
0.341918
0.16885
0.337708
0.127461
0.229327
0.145056
0.128981
0.165466
0.0380573
0.11878
-0.328507
-0.522756
-0.583257
0.487405
0.442975
0.237585
-0.0251269
-0.13261
0.172702
0.2032
0.163759
0.200458
0.250936
0.241844
-0.334852
-0.224611
-0.178697
0.135916
-0.0590338
-0.0390023
-0.0471861
0.10448
0.0789663
)
;

boundaryField
{
    wall-4
    {
        type            zeroGradient;
    }
    velocity-inlet-5
    {
        type            zeroGradient;
    }
    velocity-inlet-6
    {
        type            zeroGradient;
    }
    pressure-outlet-7
    {
        type            fixedValue;
        value           uniform 0;
    }
    wall-8
    {
        type            zeroGradient;
    }
    frontAndBackPlanes
    {
        type            empty;
    }
}


// ************************************************************************* //
