/*--------------------------------*- C++ -*----------------------------------*\
  =========                 |
  \\      /  F ield         | OpenFOAM: The Open Source CFD Toolbox
   \\    /   O peration     | Website:  https://openfoam.org
    \\  /    A nd           | Version:  6
     \\/     M anipulation  |
\*---------------------------------------------------------------------------*/
FoamFile
{
    version     2.0;
    format      ascii;
    class       volVectorField;
    location    "26";
    object      U;
}
// * * * * * * * * * * * * * * * * * * * * * * * * * * * * * * * * * * * * * //

dimensions      [0 1 -1 0 0 0 0];

internalField   nonuniform List<vector> 
918
(
(0.985004 -0.000736316 0)
(0.00531979 2.96626 0)
(-0.0277669 1.50081 0)
(0.979574 0.00194162 0)
(0.00435955 1.48404 4.50162e-20)
(-0.00707019 2.94855 -2.00804e-18)
(0.830746 1.15765 7.07786e-19)
(0.396381 0.150067 -8.9007e-21)
(0.99992 -0.000241617 0)
(0.0810204 0.763675 0)
(-0.0262722 0.610907 0)
(0.739801 -0.00963731 0)
(0.0102176 2.9315 0)
(0.00321981 2.79436 0)
(-0.000185479 3.19778 1.11723e-18)
(0.0373661 1.25797 1.96119e-19)
(0.476703 0.0469394 5.61119e-19)
(0.231198 1.16525 6.38256e-19)
(0.964624 0.00671751 0)
(-0.0372281 1.03811 0)
(0.125132 0.217801 -4.4292e-19)
(1.00201 -0.00446868 0)
(0.9999 -0.00891843 0)
(0.975213 -0.00610218 0)
(0.637155 -0.0454664 0)
(0.0233051 2.64258 0)
(-0.0124511 2.91215 6.93613e-19)
(-0.0531749 1.48633 0)
(-0.0635019 1.64696 0)
(-0.0374886 1.49066 0)
(-0.0115179 1.98406 0)
(0.0338255 1.5197 -3.55823e-20)
(0.0261257 1.31224 0)
(-0.0221938 2.98759 -7.07294e-23)
(-0.0165201 3.0055 1.56069e-18)
(0.00230195 3.00062 0)
(0.870426 -0.00847968 0)
(0.372663 0.920236 -3.56586e-20)
(0.834465 1.1669 -1.03671e-18)
(0.974234 1.01761 9.53996e-19)
(0.698138 1.25218 -1.66162e-19)
(0.705678 1.23137 9.31742e-19)
(0.433464 0.253373 8.68387e-21)
(0.425844 0.139171 0)
(1.1647 0.521295 0)
(0.390534 0.260573 4.00285e-20)
(0.356439 0.161308 -4.15418e-20)
(0.920257 -0.00656402 0)
(1.00028 7.04514e-05 0)
(0.999907 0.000304719 0)
(1.00361 -0.0074098 0)
(1.0009 -0.00104612 0)
(1.00011 -4.2934e-05 0)
(0.0952639 1.78047 -2.2983e-19)
(0.062718 0.935646 0)
(0.131026 0.872694 0)
(0.0297955 0.856464 0)
(0.0515052 0.696395 0)
(-0.0373317 1.95744 0)
(0.00587733 0.743683 0)
(0.0116589 0.606257 0)
(-0.0225695 0.753377 0)
(-0.0329494 0.662881 0)
(0.837233 -0.0115485 0)
(0.856503 0.0252509 0)
(0.771823 -0.000557017 0)
(0.835316 0.0312471 0)
(0.710935 -0.0150915 0)
(0.0139801 3.00018 7.37249e-19)
(0.0112245 3.00586 0)
(0.00634452 3.00393 0)
(0.0119132 2.99704 8.25249e-24)
(0.00832445 2.95871 -1.09573e-18)
(0.0122175 2.98292 0)
(0.00893883 2.90473 0)
(0.0210408 2.9317 1.52884e-24)
(0.00410858 2.82388 0)
(0.0254463 2.91862 0)
(-0.00104573 2.74374 0)
(0.312445 3.60086 0)
(-0.123128 3.68442 0)
(0.154165 3.28918 -1.03984e-18)
(0.00721666 3.01939 0)
(-0.121901 1.89157 0)
(0.0683579 1.4395 -1.93479e-19)
(0.000545643 1.23992 2.31435e-19)
(0.552492 0.139073 -1.92649e-19)
(0.483914 0.0136742 -1.84255e-19)
(0.521353 0.163725 -5.82968e-19)
(0.467096 0.0712445 -3.88955e-19)
(0.256775 0.943908 0)
(0.328825 1.32287 -6.63036e-19)
(0.437287 1.26633 1.08124e-18)
(0.988084 0.00810724 0)
(0.943694 0.005946 0)
(1.00029 0.000673571 0)
(1.00255 0.00907838 0)
(1.00316 0.0089137 -1.07102e-18)
(0.992139 0.00952946 8.0945e-19)
(-0.0634524 1.12588 0)
(-0.0460829 0.934999 0)
(-0.0762704 1.45672 0)
(-0.0492173 1.25763 0)
(-0.020672 1.1606 0)
(0.167249 0.229165 1.37102e-19)
(0.213098 0.205629 0)
(0.993648 -0.0076425 0)
(0.954022 -0.00641311 0)
(0.796093 0.0345629 0)
(0.750839 0.0433486 0)
(0.677687 -0.0280903 0)
(0.973472 0.000864127 0)
(0.69719 0.0521467 0)
(0.53142 -0.0360569 7.32045e-19)
(-0.0407471 2.86164 4.22277e-19)
(0.0341786 2.9134 0)
(0.0429712 2.89137 0)
(0.00343694 2.70059 0)
(-0.00856875 2.98677 6.48363e-19)
(-0.0143062 2.89504 0)
(-0.0108723 2.9919 -2.02792e-18)
(-0.0117108 2.92985 6.94901e-19)
(-0.113765 1.7042 0)
(-0.112995 1.75464 0)
(0.069071 1.45464 5.07715e-21)
(0.0524198 1.45257 0)
(0.0203103 1.27651 0)
(0.937369 -0.00478432 0)
(0.854847 -0.00864039 0)
(0.865516 0.00780333 0)
(0.948527 -0.00616808 0)
(0.882511 -0.00795716 0)
(0.498688 1.12233 3.29997e-20)
(0.5477 1.19506 0)
(0.330489 0.849833 4.30071e-21)
(0.274628 0.716382 0)
(0.933983 1.05437 -2.78856e-19)
(1.05028 0.852061 5.63455e-19)
(0.405986 1.34498 0)
(0.549864 1.32105 0)
(0.584573 1.25899 0)
(0.0880175 0.148245 -1.3047e-19)
(0.463012 0.242615 0)
(0.447443 0.139102 1.12238e-19)
(1.01168 0.906833 0)
(1.08011 0.746214 0)
(1.10983 0.680315 -4.90355e-19)
(1.14346 0.588994 0)
(1.19844 0.382549 4.73794e-20)
(0.956852 -0.00682965 0)
(0.962543 -0.00785616 0)
(0.900342 -0.00693753 0)
(0.983853 -0.00802204 0)
(0.97425 -0.0078934 0)
(0.936389 -0.00627809 0)
(1.00016 0.00248581 0)
(1.00087 0.00132272 0)
(0.999969 0.000790167 0)
(0.0421343 2.04763 1.5088e-19)
(0.151988 1.72722 0)
(0.0185126 2.15638 1.11461e-19)
(0.0692551 1.86202 -2.67604e-20)
(0.157746 1.14807 -5.28393e-19)
(0.0520639 1.02269 0)
(0.113657 1.02512 0)
(0.0313815 0.804729 0)
(0.00523175 0.650119 0)
(-0.0453008 2.17274 2.73771e-21)
(-0.0203816 1.97655 0)
(-0.0628887 2.09549 1.78499e-19)
(-0.0590722 1.87328 -3.60283e-19)
(-0.00361929 0.781801 0)
(0.0109601 0.766584 0)
(-0.00296962 0.617427 0)
(-0.036136 0.800276 0)
(-0.0337799 0.728256 0)
(0.929575 0.012051 0)
(0.846765 -0.00831828 0)
(0.923015 0.00432693 0)
(0.842952 -0.00964592 0)
(0.81678 0.00353302 0)
(0.904417 0.017646 0)
(0.883533 0.020029 0)
(0.793925 0.00127614 0)
(0.0104922 3.06754 -6.50314e-21)
(0.0147286 3.05947 0)
(0.0124509 2.97039 0)
(0.00755815 2.87666 0)
(0.904515 4.00218 0)
(1.20098 3.39456 1.02201e-18)
(0.0841351 3.10039 0)
(-0.0146047 2.92346 0)
(-0.16494 1.74628 0)
(-0.171412 1.86005 0)
(-0.137252 1.80461 0)
(-0.0416383 1.9896 -1.24879e-21)
(-0.136178 1.94062 0)
(-0.0843219 1.92236 0)
(-0.0629806 1.53834 1.79523e-20)
(-0.0409443 1.62876 -2.23516e-19)
(0.0230474 1.4871 -2.37009e-19)
(-0.0374079 1.34497 0)
(0.56212 0.108919 2.85409e-19)
(0.485909 -0.00256368 -2.79333e-19)
(0.230567 1.5463 0)
(0.282092 0.678044 -2.21704e-19)
(0.178066 1.64662 -7.35619e-19)
(0.246453 1.1574 7.35452e-19)
(0.902809 0.00712819 0)
(0.967527 0.0102582 0)
(0.975346 0.0096284 0)
(0.92366 0.00650569 0)
(-0.0500503 0.878634 0)
(-0.0526446 0.990179 0)
(-0.051713 0.822963 0)
(0.336777 0.256368 3.63488e-19)
(0.27695 0.244572 -4.38047e-19)
(0.292218 0.184552 0)
(1.10129 0.0907719 -5.40258e-21)
(1.08673 0.0430678 0)
(1.01052 0.0445011 0)
(0.907012 0.00514794 0)
(0.580092 0.0845066 0)
(0.627681 0.0616416 -1.1844e-18)
(0.497265 -0.0152524 4.5729e-19)
(0.0113554 2.97749 5.0087e-19)
(-0.0326497 2.86257 4.65946e-20)
(0.00837608 3.05294 -1.39703e-20)
(0.0156343 3.0435 5.30615e-19)
(-0.0118204 3 2.31433e-20)
(-0.0122767 2.95239 -9.39681e-23)
(-0.0150464 3.01331 -4.43276e-19)
(0.0141652 3.02675 3.11276e-19)
(0.00750543 3.03463 -4.98984e-19)
(0.93126 0.002583 0)
(0.937113 -0.000785326 0)
(0.846133 -0.00797559 0)
(0.957231 0.0111277 0)
(0.943803 0.0119386 0)
(0.883419 0.00714187 0)
(0.91958 0.0149702 0)
(0.927607 0.0141216 0)
(0.841872 0.00587985 0)
(0.675762 1.4267 2.89485e-19)
(0.695205 1.53897 0)
(0.161734 0.33933 2.38423e-20)
(0.166585 0.575792 1.96846e-19)
(0.237328 0.671106 -1.13473e-19)
(0.20656 0.559002 2.09767e-19)
(0.304057 0.740758 7.50044e-19)
(0.111271 0.194613 2.24242e-19)
(0.509207 0.192651 4.19504e-19)
(0.491092 0.219056 1.05039e-19)
(0.454508 0.105924 2.1222e-19)
(1.18886 0.440214 3.14383e-19)
(1.21331 0.24106 3.28082e-19)
(0.00703639 2.16608 -1.94093e-21)
(0.0527431 1.91611 0)
(0.96119 0.0333418 0)
(0.933692 0.0191034 0)
(0.863522 -0.00810532 0)
(0.0122 3.07442 0)
(0.016851 2.94398 8.88541e-19)
(0.0140408 2.95678 0)
(0.00586059 2.84998 -8.81587e-19)
(0.0095084 3.09037 2.13032e-19)
(0.0116281 3.08381 0)
(0.717442 1.83859 -2.48323e-19)
(1.24561 2.6489 8.27433e-19)
(0.70262 2.01813 -1.65038e-18)
(0.023009 2.97691 -3.89929e-19)
(0.0422933 3.00191 0)
(-0.0376185 2.88105 0)
(-0.103288 1.9716 -1.0422e-20)
(-0.0938082 1.79065 4.0411e-19)
(-0.0921913 1.74099 -2.15134e-21)
(0.261338 1.34045 7.15289e-19)
(0.243406 0.459446 -4.92493e-19)
(0.070715 1.96783 4.52808e-19)
(0.117493 1.83432 -5.84169e-19)
(0.211025 1.47781 9.86184e-20)
(0.00537895 3.11951 -1.26792e-18)
(0.0194588 3.11904 1.36128e-18)
(-0.00478999 2.98064 5.80798e-19)
(9.79292e-05 2.9752 -5.32832e-19)
(-0.0179906 2.87875 -5.91554e-19)
(0.0127312 3.09922 -1.56213e-18)
(0.00528537 3.1076 1.52463e-18)
(0.208147 0.610007 0)
(0.181498 0.5978 -3.91891e-19)
(0.0659425 0.200413 1.76637e-19)
(0.322676 0.844535 6.74422e-19)
(0.17579 0.232008 -1.02951e-18)
(1.19212 0.174238 -6.67755e-20)
(1.21015 0.300685 0)
(1.18836 0.12079 1.29376e-19)
(-0.0135078 2.20563 2.43601e-21)
(-0.00980025 2.19567 0)
(0.0176033 1.96416 0)
(0.310965 1.26128 -2.53913e-19)
(0.339701 1.0733 -5.40863e-19)
(0.197068 0.335871 9.32578e-19)
(1.0064 -0.0098703 0)
(1.00777 -0.00781467 1.95079e-19)
(-0.141191 1.64876 0)
(-0.14743 1.62388 0)
(1.00244 0.00339073 1.42656e-21)
(1.00331 0.00807219 4.02719e-19)
(-0.038342 2.01586 1.59829e-21)
(-0.021416 2.04842 0)
(0.0446558 3.1754 2.15187e-19)
(0.38251 3.56022 0)
(1.09971 0.685112 6.65779e-20)
(1.01212 0.0110985 -2.61729e-21)
(1.02099 -0.00926185 0)
(1.00162 0.000168272 1.00802e-22)
(0.117808 1.36251 0)
(0.132695 2.59327 0)
(0.0341477 1.09149 0)
(-0.0127757 2.61951 -2.05791e-19)
(-0.137382 2.62142 -2.21854e-19)
(1.00682 0.0241385 2.63226e-21)
(1.05482 -0.000352671 0)
(1.08038 0.0225886 0)
(-0.191806 1.8614 0)
(-0.113162 2.29149 0)
(-0.233503 1.33082 0)
(0.269058 1.47311 -4.21663e-19)
(1.01148 -0.00919336 0)
(1.0096 -0.0133838 0)
(1.0023 0.000664264 2.48993e-19)
(1.00563 -0.00485155 -2.94193e-19)
(1.00122 -0.000984372 0)
(-0.246516 1.78492 0)
(-0.184228 1.65726 0)
(-0.198017 1.74143 0)
(-0.221069 1.35948 0)
(-0.199051 1.51052 0)
(-0.164471 1.43707 0)
(1.0349 -0.00623222 0)
(1.01956 0.0141146 -1.14345e-21)
(0.767098 1.30001 5.27867e-19)
(1.00246 0.000215202 -2.49978e-19)
(1.00343 0.00482386 2.99725e-19)
(1.00126 0.00209235 0)
(1.01139 0.00966868 2.44e-19)
(1.00714 0.0075601 -3.03424e-19)
(1.00753 0.0117427 0)
(-0.0922746 2.27665 0)
(-0.0451208 2.14943 -1.24617e-19)
(-0.0363482 2.16647 1.03954e-19)
(1.20411 0.269632 -1.02994e-19)
(1.13726 0.091895 0)
(0.0488006 3.09012 -5.95331e-19)
(0.0518436 2.86929 -4.4437e-20)
(0.108066 3.20223 7.69557e-19)
(0.126113 3.21534 -9.4776e-20)
(0.149723 3.26514 0)
(0.0238737 3.138 1.50809e-19)
(0.0641619 3.16244 5.90406e-19)
(0.0648091 3.18009 -2.84834e-19)
(0.0277711 3.12905 0)
(0.655575 0.332094 0)
(0.59122 0.379199 0)
(1.08743 0.711789 -2.49331e-19)
(1.04927 0.851945 3.81079e-19)
(1.14295 0.601816 0)
(1.17354 0.54304 0)
(1.01584 0.0119793 -4.48538e-19)
(1.01483 0.0127033 5.6138e-19)
(1.0254 -0.00929626 0)
(1.02343 -0.0109901 0)
(1.00665 0.00254243 0)
(1.01102 0.00386753 0)
(1.00459 0.00193304 0)
(1.00981 0.00625607 0)
(1.00727 0.00531272 0)
(1.00469 0.00529115 0)
(0.0912523 1.36673 0)
(0.0875009 1.33304 0)
(0.126551 1.39206 0)
(0.134219 1.41705 0)
(0.148037 2.61396 0)
(0.192791 2.67406 -1.98294e-19)
(0.104641 2.66865 0)
(0.0643665 2.66579 -2.50012e-20)
(0.0197683 2.68399 2.13906e-19)
(0.0193463 1.0478 0)
(-0.0371667 0.962518 0)
(0.104199 1.1474 0)
(0.0130083 1.10431 0)
(0.0293263 2.08898 3.37812e-19)
(-0.126026 2.64211 -2.92299e-19)
(-0.0311292 2.67521 -3.62171e-19)
(-0.0893231 2.67135 0)
(-0.182806 2.65243 5.94577e-19)
(-0.205193 2.61775 3.64863e-19)
(0.0519873 2.16995 -2.26074e-19)
(-0.0919212 2.55485 4.13399e-19)
(-0.00658069 2.53239 4.35592e-19)
(1.01438 0.032608 4.45372e-19)
(1.00714 0.0181396 -5.54265e-19)
(1.00909 0.0369394 -4.63222e-19)
(0.990175 0.0263436 5.9166e-19)
(1.05592 0.00223451 0)
(1.04461 -0.010127 0)
(1.0777 0.0287729 0)
(1.06236 0.00679619 0)
(1.05866 -0.00428477 0)
(1.1186 0.0757323 0)
(1.09325 0.0424668 0)
(1.09467 0.0379114 0)
(-0.127115 2.03444 2.83457e-21)
(-0.219911 1.9662 0)
(-0.156814 1.9639 0)
(-0.171866 2.42579 -1.27608e-19)
(-0.162224 2.42974 6.65188e-21)
(-0.357131 1.875 -9.65047e-20)
(-0.264717 1.80337 1.00678e-19)
(-0.298768 1.5817 0)
(-0.289267 1.60633 0)
(-0.23737 1.64081 0)
(-0.241818 1.29052 0)
(-0.153858 1.12793 0)
(0.367651 1.49625 7.86437e-19)
(0.385194 1.51005 3.09009e-19)
(0.601097 2.45614 -1.64313e-19)
(0.398298 2.55658 4.35453e-19)
(0.355652 2.08298 -4.03288e-20)
(1.02046 -0.0084472 0)
(1.01561 -0.00973992 0)
(1.01459 -0.0135801 0)
(1.00766 -0.00122106 0)
(1.00479 -0.00107529 0)
(1.00786 -0.00495787 0)
(1.00942 -0.00361158 0)
(1.01448 -0.00436072 0)
(1.0203 0.0152983 4.28832e-19)
(1.0175 0.0144647 -5.48711e-19)
(1.02086 0.0170817 -4.31224e-19)
(1.01769 0.0150486 5.38361e-19)
(0.733231 1.34203 0)
(0.660566 1.38423 5.89766e-19)
(0.84067 1.21342 3.49999e-19)
(0.868703 1.19896 -4.64395e-19)
(1.16554 2.62991 -4.99837e-19)
(0.816704 0.103141 2.94288e-19)
(1.14254 0.103095 0)
(1.18072 0.190884 8.39703e-20)
(1.16063 0.161721 3.97072e-21)
(1.00426 0.137091 0)
(0.091887 3.02873 -5.67187e-20)
(0.0926394 2.90618 -6.77944e-19)
(0.041476 2.36338 4.44606e-19)
(0.140295 -0.00793862 -2.12053e-19)
(0.349936 3.46192 -4.67869e-19)
(0.199261 3.35072 0)
(0.229705 3.41176 6.09452e-19)
(0.233728 3.08705 -2.79152e-19)
(0.267298 3.20682 0)
(0.00616703 3.12273 3.14727e-20)
(0.0167585 3.13146 -3.80916e-19)
(0.0155051 3.12719 5.60638e-19)
(0.0341891 3.1403 0)
(0.0325525 3.15004 0)
(1.26526 2.59834 0)
(0.532623 0.829838 -2.44325e-19)
(0.974355 1.03482 -1.966e-19)
(0.956282 1.06049 0)
(0.810977 0.949334 4.89226e-20)
(1.03395 0.88905 2.91842e-20)
(0.418222 0.407164 -5.24227e-19)
(0.709358 0.325956 -2.43691e-20)
(0.690299 0.261308 2.25711e-19)
(0.604246 0.404416 1.72192e-20)
(0.529315 0.384211 -7.04802e-19)
(0.670798 0.355504 0)
(0.691886 0.434266 3.65675e-19)
(0.691232 0.434256 0)
(0.643384 0.386703 0)
(0.617156 0.335479 0)
(0.750699 0.633453 1.23167e-19)
(1.20755 0.293648 7.81725e-20)
(1.19358 0.432502 0)
(1.20231 0.391917 0)
(0.774431 0.205681 3.35259e-19)
(0.810298 0.551834 -1.85933e-19)
(0.736189 0.515455 3.05371e-19)
(0.911728 0.415246 -2.76475e-19)
(1.01905 0.0142232 2.94925e-19)
(1.01746 0.013391 -2.99383e-19)
(1.01623 0.0140174 0)
(1.03586 -0.00606211 0)
(1.02985 -0.00820268 -2.70406e-19)
(1.02761 -0.0118843 2.67575e-19)
(1.02499 0.010011 0)
(1.02372 0.0139409 0)
(1.0121 0.00411498 0)
(1.01438 0.00860475 0)
(1.01579 0.00337109 0)
(1.0148 0.00284214 0)
(0.0673763 1.363 0)
(0.055118 1.2931 0)
(0.16619 1.35303 3.5742e-19)
(0.255124 1.47211 2.38855e-19)
(0.155501 1.45133 5.15893e-19)
(0.172158 1.45671 -8.40625e-19)
(0.185433 1.38635 0)
(0.128249 1.58708 2.68568e-19)
(0.125157 1.56626 0)
(0.352086 2.04564 5.87016e-20)
(0.357721 2.36741 2.42482e-19)
(0.187835 1.44664 -2.3451e-19)
(0.262431 1.37167 1.89625e-19)
(0.201066 1.37037 -1.52087e-19)
(0.278777 1.29989 2.92223e-19)
(0.273494 1.58659 0)
(0.257622 1.60435 -1.79858e-19)
(0.049647 2.26324 1.03921e-19)
(0.0494477 2.67212 0)
(0.0635979 2.39416 -1.74235e-19)
(0.0294728 2.40775 0)
(0.0611881 2.67455 2.61615e-20)
(0.0398476 2.70368 0)
(0.137258 1.49271 4.29449e-19)
(0.194333 1.61086 0)
(0.168593 1.38433 0)
(0.178025 1.37536 -4.84127e-19)
(-0.0137743 2.64885 -3.57859e-20)
(0.0331293 2.69485 -2.75591e-19)
(0.0119876 2.71578 -1.94243e-21)
(-0.0601062 2.1427 -3.45547e-19)
(0.126137 1.86423 -1.68033e-19)
(-0.0787801 0.993783 0)
(-0.0517882 0.93587 0)
(0.0737536 1.6448 -4.48899e-19)
(0.134879 1.47795 -4.51752e-19)
(0.123771 1.62651 5.76009e-19)
(0.0608804 1.64178 0)
(-0.279897 2.24259 5.19567e-19)
(-0.223755 2.4348 -2.06267e-19)
(-0.251182 2.45203 6.78109e-20)
(-0.127384 2.10526 4.13236e-19)
(-0.241672 2.55861 1.29959e-19)
(-0.202697 2.54986 -4.76178e-19)
(1.01944 0.0193939 -2.91922e-19)
(1.01686 0.0237529 2.95835e-19)
(1.01221 0.0143282 0)
(1.01551 0.054748 4.19339e-19)
(0.999913 0.0438787 -4.93684e-19)
(0.965651 0.0360632 5.7155e-19)
(1.01298 0.0925898 -5.44358e-20)
(1.04191 -0.00633234 0)
(1.04783 -0.003619 2.41197e-19)
(1.03849 -0.00970862 -2.40157e-19)
(1.0637 0.0344792 -1.31026e-20)
(1.05578 0.0170806 1.1708e-19)
(1.06146 0.0532687 0)
(1.05744 0.0408435 -4.42861e-20)
(1.03589 0.033926 0)
(1.03134 0.0310537 0)
(1.0278 0.0130333 0)
(1.02503 0.0147582 0)
(1.04406 0.0238881 9.18549e-20)
(1.03983 0.0177481 -2.09657e-19)
(1.05314 0.0227635 -9.20076e-20)
(1.04994 0.0238474 -1.0753e-19)
(1.07276 0.0597535 1.83991e-19)
(1.08379 0.0500751 0)
(1.08826 0.0937167 0)
(-0.288491 2.20698 1.23766e-19)
(-0.258178 2.00541 6.80445e-21)
(-0.263045 2.03868 0)
(-0.183702 2.20748 -1.23229e-19)
(-0.133319 2.08864 -9.56479e-21)
(-0.159738 2.14948 2.12759e-20)
(-0.20586 2.61831 -3.05338e-19)
(-0.22369 2.54562 2.44987e-20)
(-0.245447 2.54661 -1.04527e-19)
(-0.198187 2.55604 2.20417e-19)
(-0.204107 2.55493 -2.54025e-19)
(-0.420708 1.74298 -1.11899e-20)
(-0.354043 1.89576 -2.07677e-19)
(0.371729 1.40649 -4.00306e-19)
(0.361319 1.34507 -3.86761e-19)
(0.620745 1.42892 -5.70314e-19)
(0.502052 1.50328 -3.07079e-19)
(0.540281 1.46852 0)
(0.602867 2.42841 1.24842e-19)
(0.664756 2.41321 2.29419e-19)
(0.422676 2.5213 8.28911e-20)
(0.401752 2.55621 -1.85689e-19)
(0.508408 2.51003 2.6339e-19)
(0.554634 2.46999 0)
(0.496208 2.52148 -3.51226e-19)
(0.261038 2.59313 5.9369e-19)
(0.368372 2.5638 -6.09606e-20)
(0.28767 2.65117 -9.26931e-19)
(0.944028 2.3953 2.47606e-19)
(0.83729 2.38816 0)
(1.01096 0.000539022 9.84357e-21)
(1.01492 -0.00523509 -8.03314e-21)
(1.01771 -0.00388792 -1.45556e-19)
(1.01522 -0.00116785 1.45307e-19)
(1.01249 0.0012723 0)
(0.612311 1.28107 0)
(0.639203 1.16111 0)
(0.743863 1.07876 0)
(0.626775 1.12692 0)
(1.19548 2.64887 4.65651e-20)
(1.08575 2.39071 0)
(0.834626 2.23815 -1.83787e-21)
(0.825322 2.48517 0)
(0.917678 2.56962 -2.11647e-21)
(0.95037 2.51949 1.41639e-21)
(0.834939 0.137025 0)
(0.802398 0.138552 8.48456e-20)
(0.925124 0.127391 4.3087e-19)
(0.859726 0.106735 -1.77261e-19)
(0.838433 0.0687421 -5.15735e-19)
(1.05245 0.220694 -2.38088e-19)
(0.952616 0.266705 -8.68072e-21)
(0.914245 0.30535 3.68055e-19)
(0.992339 0.213413 2.8141e-19)
(0.931334 0.168065 -5.40471e-19)
(0.899424 0.178651 7.19151e-20)
(0.908574 0.285245 -1.32217e-19)
(0.900081 0.191639 0)
(0.98413 0.165831 2.56319e-19)
(1.03002 0.181818 0)
(1.02463 0.19041 0)
(1.09655 0.114797 7.40566e-20)
(1.04547 0.166099 -1.01945e-20)
(1.04607 0.229702 -4.77907e-20)
(1.0909 0.200356 0)
(1.02661 0.0361564 2.20916e-19)
(1.04524 0.0513195 2.6124e-19)
(1.03862 0.0349531 -2.19949e-19)
(1.04683 0.0572231 -1.76286e-19)
(1.0217 0.0611419 -2.9571e-19)
(0.979873 0.138143 0)
(0.994648 0.0839528 0)
(0.968599 0.0479419 -2.06795e-19)
(0.925212 0.0715717 8.72944e-20)
(1.03718 0.0971778 2.46307e-19)
(1.06038 0.121685 -2.35637e-19)
(1.05813 0.154497 2.21599e-19)
(1.02972 0.129149 0)
(1.07177 0.106603 0)
(1.05375 0.0967661 -9.88799e-20)
(1.04594 0.0917601 -1.95472e-19)
(0.593448 1.12165 -1.07587e-19)
(0.63081 1.45857 2.04078e-19)
(1.15014 2.74682 6.37756e-20)
(1.20112 3.12403 -6.43077e-20)
(1.25607 2.75019 5.15906e-19)
(1.29951 2.72168 -2.70944e-19)
(1.27459 2.34178 -3.60062e-20)
(1.18909 3.03071 1.9552e-19)
(1.20686 2.98813 -1.98174e-19)
(1.18326 3.27848 -2.39714e-19)
(1.40493 2.99565 2.94979e-19)
(1.4174 2.93585 0)
(0.553897 0.84873 -1.30742e-20)
(0.24665 1.23489 2.98199e-19)
(0.48857 0.492087 3.36644e-19)
(0.357811 0.262585 3.90826e-19)
(0.546699 0.407038 3.95317e-19)
(0.550816 0.487775 -6.15424e-19)
(0.552994 0.487438 5.07989e-19)
(0.511228 0.432352 -2.04405e-19)
(0.456953 0.365169 4.68311e-19)
(0.785629 0.252721 -1.87365e-19)
(0.750491 0.279759 0)
(0.732963 0.229204 1.09945e-20)
(0.717083 0.520645 1.93207e-19)
(0.676661 0.488301 -7.12155e-19)
(0.625766 0.482469 2.23063e-20)
(0.631512 0.460914 0)
(0.684283 0.727396 1.42443e-19)
(0.782703 0.777718 9.06342e-20)
(0.713278 0.825522 -1.10858e-19)
(0.844077 0.797798 -1.8421e-20)
(0.88716 0.839506 1.33331e-20)
(0.894212 0.847717 -1.36709e-20)
(0.837679 0.659899 -2.10175e-19)
(0.907343 0.713721 1.71377e-20)
(0.957461 0.712424 0)
(0.954811 0.686508 -6.4335e-21)
(0.988423 0.301038 6.77063e-20)
(1.11779 0.309486 -1.12809e-20)
(1.03039 0.262606 9.72222e-20)
(0.947774 0.344917 -1.49022e-19)
(0.996256 0.452871 0)
(1.08227 0.409663 0)
(0.868982 0.386032 1.4276e-20)
(0.838493 0.295368 0)
(0.854982 0.279058 1.99676e-19)
(0.888349 0.30437 8.84295e-21)
(0.907171 0.435559 7.59245e-19)
(0.844609 0.512213 1.8348e-19)
(0.863901 0.458907 -2.52683e-19)
(0.797267 0.450943 2.68774e-19)
(0.787324 0.444932 1.82762e-19)
(0.763875 0.418637 -1.7915e-19)
(1.02774 -0.000128895 2.33928e-19)
(1.02011 0.000239092 0)
(1.0187 0.00121877 1.54673e-19)
(1.02257 -0.0013833 -3.4771e-19)
(1.02216 0.00406875 1.69444e-19)
(1.02003 0.0108105 -3.55816e-19)
(1.02108 0.0105559 0)
(1.02058 0.0113008 -7.50151e-20)
(1.01601 0.00740865 1.88101e-19)
(1.01663 0.0101973 -9.45158e-20)
(1.01741 0.00959989 6.91576e-20)
(0.0758109 1.22995 0)
(0.153196 1.31152 0)
(0.0744585 1.31901 0)
(0.0509596 1.17199 0)
(0.0589038 1.39268 -6.94831e-19)
(0.0721599 1.36145 2.16381e-19)
(0.0567102 1.52458 1.61637e-19)
(0.0755712 1.36965 -1.97288e-19)
(0.104267 1.49741 4.43986e-19)
(0.0902345 1.47908 -3.41385e-19)
(0.072818 1.3816 -1.41786e-20)
(0.0828474 1.39385 4.31122e-19)
(0.100869 1.35439 6.61442e-20)
(0.112346 1.41091 6.06453e-20)
(0.0859623 2.39345 1.95724e-19)
(0.0965831 2.43953 0)
(0.14058 2.05831 -4.29968e-20)
(0.0938834 1.71201 -1.03105e-19)
(0.222228 2.07555 3.8121e-20)
(0.215362 2.45242 0)
(0.249955 2.4082 -1.41084e-19)
(0.302486 2.40972 1.00375e-19)
(0.244744 2.04249 1.03081e-19)
(0.131169 2.19418 -2.77692e-20)
(0.114215 2.30057 0)
(0.0385311 1.9024 4.36451e-19)
(-0.0383663 2.41265 4.77138e-19)
(0.00270306 2.21168 0)
(0.0119318 2.43211 -1.61192e-20)
(-0.0074427 2.29839 -2.01177e-19)
(0.0768895 1.36282 -8.32752e-20)
(-0.0170711 1.25 1.3797e-18)
(-0.0426875 1.32781 -3.81131e-19)
(0.0738224 1.44282 -4.70082e-19)
(0.117958 1.52851 0)
(-0.130089 1.19437 0)
(-0.189188 1.12072 -3.1739e-19)
(-0.23105 1.17748 1.0493e-19)
(-0.163188 1.17169 0)
(-0.126666 1.02263 -2.59296e-19)
(-0.110614 1.02648 4.93128e-19)
(1.04044 0.0102195 0)
(1.0465 0.00588318 -2.25776e-20)
(1.04129 0.0171893 -1.67162e-19)
(1.04884 0.0129462 0)
(1.04917 0.0113292 0)
(1.0353 0.00777804 -6.09809e-21)
(1.03063 0.00994628 2.76818e-19)
(1.03161 0.0130254 3.32957e-19)
(1.02691 0.0183837 0)
(1.0244 0.0191048 0)
(1.03646 0.0187257 1.68153e-19)
(1.02727 0.0252159 0)
(1.02637 0.0223258 0)
(-0.341269 2.21473 0)
(-0.400853 1.96842 -4.75388e-20)
(-0.408152 2.12316 -1.18321e-19)
(-0.247733 1.32306 0)
(-0.442461 1.8542 -2.17183e-19)
(-0.405161 1.67121 7.27989e-20)
(-0.356821 1.39794 0)
(0.397656 1.68576 0)
(0.346347 1.28441 6.49169e-19)
(0.276549 1.33793 0)
(0.410749 1.285 -8.51543e-19)
(0.458353 1.45067 0)
(0.434578 1.39217 3.92802e-19)
(1.03246 2.70749 -4.6908e-21)
(0.963639 2.42142 -3.12511e-19)
(0.91236 2.19031 3.27635e-19)
(0.850896 2.38282 1.18628e-19)
(0.848625 2.52476 0)
(0.91491 2.5231 0)
(0.927606 2.38969 0)
(0.907452 2.37006 -4.46666e-19)
(0.694544 2.50393 -1.60042e-20)
(0.802447 2.49056 -1.64211e-20)
(0.810248 2.46647 1.25294e-20)
(0.697482 2.39222 0)
(0.800134 2.38868 0)
(0.76387 2.40007 -2.31995e-19)
(0.770257 2.5035 0)
(0.587069 1.05809 0)
(0.519383 0.908776 -7.81356e-20)
(0.520891 0.965255 -2.95989e-21)
(0.497395 1.10426 0)
(0.485998 1.0238 1.27474e-19)
(0.74826 0.858214 3.06254e-21)
(0.758185 0.999714 0)
(0.73445 0.974145 -5.04269e-20)
(0.626081 1.00978 0)
(0.623004 0.932303 0)
(1.16387 2.78083 4.97929e-20)
(1.14041 2.83995 1.20562e-19)
(0.931948 2.37707 -2.90264e-19)
(0.905409 2.35261 3.8113e-20)
(1.13148 2.75875 0)
(1.08181 2.72909 -4.57163e-20)
(1.09616 2.5142 -7.1542e-20)
(0.994771 2.25678 -2.82446e-20)
(0.500324 1.37484 0)
(0.511567 1.09143 9.47414e-20)
(0.558084 1.15524 0)
(0.87876 0.199714 0)
(0.821751 0.163193 0)
(0.763683 0.166382 0)
(0.869168 0.209161 -3.1213e-19)
(0.808745 0.213253 1.94837e-19)
(0.934781 0.0599204 -1.79372e-19)
(0.948173 0.107314 0)
(0.921721 0.109271 7.99018e-20)
(0.882902 0.0772603 3.26092e-19)
(0.864632 0.0540965 -2.00606e-19)
(1.10789 3.37384 -9.3137e-19)
(1.1702 3.29602 0)
(1.12868 3.45828 -1.99897e-18)
(0.666195 3.60312 1.69207e-18)
(1.03934 3.09816 4.06885e-19)
(0.524801 0.847299 2.28053e-19)
(0.514677 0.821654 0)
(0.393658 0.523679 -8.35082e-20)
(0.468918 0.688695 3.97531e-19)
(0.518743 0.496557 -1.11416e-19)
(0.512943 0.5251 1.29846e-19)
(0.66756 0.548402 2.55059e-19)
(0.696733 0.577467 0)
(0.63685 0.61534 0)
(0.60129 0.565243 0)
(0.955571 0.596405 -4.64767e-20)
(0.900751 0.552719 -1.75902e-19)
(0.92951 0.591272 6.33626e-20)
(0.966743 0.499025 -1.26414e-19)
(1.01858 0.480005 0)
(1.02885 0.58298 -2.96848e-21)
(0.82622 0.395163 -4.05641e-19)
(0.821706 0.386316 -4.87248e-19)
(0.79513 0.383561 3.17186e-19)
(0.7899 0.345052 -3.58979e-19)
(0.834342 0.3075 -2.64045e-19)
(0.804 0.304458 3.24726e-19)
(1.02598 0.00592702 -1.79636e-19)
(1.02576 0.00605661 3.67545e-19)
(1.03001 -0.000144672 2.21882e-19)
(1.03374 0.000991629 -2.66813e-19)
(1.03288 0.00900581 0)
(1.02937 0.00768909 -4.33038e-19)
(0.0392363 1.67306 -6.11066e-20)
(0.0476248 1.59152 0)
(0.0595362 1.71501 -5.42576e-19)
(0.0758621 1.69922 5.00881e-19)
(0.0387372 1.52326 -3.02704e-19)
(0.0572406 1.50246 0)
(-0.207383 2.10739 0)
(-0.185275 1.6238 1.39761e-19)
(-0.353091 1.60777 -1.27503e-19)
(-0.376775 1.85333 -4.39859e-20)
(-0.324277 2.22928 2.16854e-19)
(-0.282729 2.22996 -1.10313e-19)
(0.485882 1.38971 3.86884e-19)
(0.487146 1.38842 -4.13758e-19)
(0.421054 1.282 4.37789e-19)
(0.412947 1.30379 -2.45777e-20)
(0.603732 1.29538 0)
(0.535737 1.38015 5.1515e-19)
(0.536976 1.38776 -5.00643e-19)
(0.451654 1.25494 -4.17209e-19)
(0.490676 1.22127 0)
(0.55885 1.19057 0)
(0.667759 2.46463 2.36086e-20)
(0.665522 2.4777 5.97581e-19)
(0.721888 2.49318 -4.09761e-19)
(0.627915 2.46706 -1.21767e-19)
(0.554683 2.57065 1.0088e-19)
(0.499619 2.52609 -2.96381e-19)
(0.974429 2.3932 -1.79864e-19)
(1.01879 2.4178 0)
(0.925515 2.17243 -2.27509e-19)
(1.05035 2.70879 0)
(1.05071 2.69571 0)
(0.629152 2.3286 3.41466e-19)
(1.12752 3.09265 4.24779e-19)
(1.014 2.99711 -5.06054e-19)
(0.343516 0.899542 0)
(0.372272 0.819896 -1.50055e-19)
(0.556087 0.742202 -8.09824e-20)
(0.398249 2.17759 0)
(0.415553 2.75381 -2.86057e-19)
(0.429138 2.49725 0)
(0.689223 0.68551 -2.99947e-19)
(0.742529 0.678729 4.12331e-19)
(0.748063 0.649328 -4.1194e-19)
(0.671934 0.658746 -4.3861e-20)
(0.719495 0.612901 -1.82594e-19)
(0.986231 2.78025 -3.21805e-19)
(1.01898 2.77929 2.14766e-19)
(0.586432 2.26397 -1.28066e-19)
(0.628001 1.77028 4.00357e-20)
(0.719553 1.89139 -4.83041e-21)
(0.986777 2.42145 -9.36939e-20)
(0.984387 2.38024 -6.31662e-20)
(0.67698 1.81878 1.8411e-21)
(0.478055 1.33896 -3.78374e-20)
)
;

boundaryField
{
    wall-4
    {
        type            noSlip;
    }
    velocity-inlet-5
    {
        type            fixedValue;
        value           uniform (1 0 0);
    }
    velocity-inlet-6
    {
        type            fixedValue;
        value           uniform (0 3 0);
    }
    pressure-outlet-7
    {
        type            zeroGradient;
    }
    wall-8
    {
        type            noSlip;
    }
    frontAndBackPlanes
    {
        type            empty;
    }
}


// ************************************************************************* //
