/*--------------------------------*- C++ -*----------------------------------*\
  =========                 |
  \\      /  F ield         | OpenFOAM: The Open Source CFD Toolbox
   \\    /   O peration     | Website:  https://openfoam.org
    \\  /    A nd           | Version:  6
     \\/     M anipulation  |
\*---------------------------------------------------------------------------*/
FoamFile
{
    version     2.0;
    format      ascii;
    class       volScalarField;
    location    "29";
    object      p;
}
// * * * * * * * * * * * * * * * * * * * * * * * * * * * * * * * * * * * * * //

dimensions      [0 2 -2 0 0 0 0];

internalField   nonuniform List<scalar> 
918
(
0.319004
1.05594
0.0184614
0.318864
-0.0340139
1.02378
-0.699008
0.493229
0.300044
-0.315026
-0.293945
0.294512
0.880921
0.648481
-1.39652
-0.223054
0.446909
-0.640381
0.297965
-0.235467
0.525303
0.306819
0.309293
0.300085
0.354781
0.607194
0.75801
-0.0342062
0.00472896
-0.0230738
-0.059335
-0.138889
-0.194621
0.906906
0.95884
0.982001
0.267505
0.0999101
-0.600531
-0.651578
-0.631426
-0.730978
0.486175
0.486851
-0.395672
0.492616
0.500218
0.28609
0.299421
0.300257
0.301481
0.300329
0.301641
0.202822
-0.327226
-0.353582
-0.294527
-0.296884
-0.11867
-0.279808
-0.279205
-0.300977
-0.312049
0.219963
0.290923
0.28838
0.299265
0.307533
0.996106
0.969798
0.995834
0.906657
0.924146
0.857814
0.830646
0.669345
0.692382
0.631609
0.618025
-1.86342
-2.82537
-0.81047
-0.526125
-0.0176023
-0.173711
-0.141116
0.435471
0.43656
0.44928
0.459231
0.814434
-0.618789
-0.695014
0.298352
0.296878
0.306299
0.307206
0.302141
0.302162
-0.272729
-0.289395
-0.0904713
-0.213118
-0.169605
0.515048
0.513633
0.299543
0.297019
0.317007
0.340805
0.329021
0.0501312
0.36334
0.380462
0.461883
0.612531
0.601056
0.61287
0.733641
0.700987
0.78983
0.811482
-0.0175694
-0.0107732
-0.238377
-0.226934
-0.248337
0.263432
0.257253
0.283069
0.271146
0.27418
0.00344699
-0.149894
0.183201
0.206665
-0.512424
-0.557643
-0.661042
-0.663786
-0.761356
0.349492
0.4795
0.478332
-0.414865
-0.335979
-0.467476
-0.276824
-0.336332
0.277438
0.283329
0.279585
0.294609
0.288879
0.291235
0.303545
0.30067
0.302289
0.259756
0.389261
0.125491
0.0944486
-0.474623
-0.370498
-0.459229
-0.294629
-0.29354
-0.116755
-0.105263
-0.136846
-0.139194
-0.283864
-0.282997
-0.285593
-0.323371
-0.32692
0.211682
0.199953
0.230028
0.237159
0.280747
0.282143
0.285658
0.284094
0.781802
0.804748
0.81072
0.78691
-3.81852
-6.48201
-0.172654
-0.00848752
-0.0419418
-0.0301034
-0.0170052
-0.0266538
-0.0118238
-0.00628128
-0.114296
-0.119868
-0.112185
-0.128901
0.42723
0.426349
0.772286
0.79464
0.765072
0.745308
0.287592
0.289556
0.294267
0.291126
-0.335009
-0.310703
-0.323574
0.498822
0.505699
0.507257
0.0119803
-0.0715575
0.0974332
0.126361
0.415203
0.390404
0.408685
0.523067
0.562093
0.828067
0.85251
0.836256
0.849167
0.900119
0.923058
0.88832
0.243261
0.2536
0.248134
0.28631
0.283894
0.284898
0.280191
0.281904
0.280127
-0.263946
-0.642038
0.267926
0.271124
0.247516
0.260157
0.4274
0.505368
0.457728
0.468146
0.467516
-0.229622
-0.277806
0.0508994
0.0249719
0.153794
0.187574
0.169565
0.7569
0.717174
0.765341
0.74069
0.705242
0.729863
-0.580583
-2.36488
-1.34969
0.402145
0.200841
0.294253
-0.141932
-0.140327
-0.129056
0.796446
0.839384
0.457409
0.634399
0.593159
0.586357
0.613487
0.675165
0.607459
0.642518
0.673567
0.65028
0.313339
0.271499
0.278048
0.584552
0.644921
-0.106095
-0.177462
-0.202349
-0.0857278
-0.0164695
-0.0431366
0.812936
0.706052
0.776423
0.297254
0.298135
-0.075595
-0.121779
0.302185
0.30191
-0.0887269
-0.233237
0.312733
-1.1692
-0.0940668
0.291552
0.281595
0.298119
-0.289755
0.132806
-0.260559
-0.127995
-0.152113
0.290082
0.230511
0.191287
-0.0894945
-0.259731
-0.284621
-0.420508
0.294998
0.293392
0.297493
0.298402
0.299151
-0.131854
-0.123438
-0.0950319
-0.289092
-0.187475
-0.227262
0.262595
0.280413
-0.395042
0.297758
0.299877
0.299587
0.29356
0.298609
0.29711
-0.223259
-0.241772
-0.279985
-0.00470046
0.121839
0.502928
0.583694
0.447518
0.276513
-0.0271606
0.435077
0.490169
0.412254
0.546187
0.469189
0.476321
-0.0349245
-0.17266
-0.030687
-0.0934328
0.288596
0.287719
0.279178
0.276346
0.292933
0.29074
0.295759
0.292883
0.295989
0.297194
-0.24602
-0.271369
-0.295796
-0.343445
0.0998987
0.358865
0.0261579
0.0578907
-0.0495206
-0.277263
-0.289719
-0.251063
-0.272535
-0.178872
-0.184451
-0.134981
-0.133259
-0.165322
-0.163218
-0.191896
-0.21887
-0.19415
0.284449
0.284216
0.289317
0.297417
0.239593
0.243359
0.209382
0.2289
0.214387
0.159201
0.189519
0.165548
-0.0800879
-0.119414
-0.0683643
-0.261219
-0.184591
-0.290475
-0.221778
-0.313935
-0.208863
-0.18812
-0.343487
-0.331646
-0.385186
-0.497009
0.746819
0.675346
-0.107329
0.285059
0.290615
0.287893
0.292279
0.295445
0.29619
0.29383
0.290365
0.280807
0.28247
0.278819
0.279321
-0.342178
-0.448487
-0.274143
-0.344785
-0.0758015
0.403893
0.131834
0.0802495
0.0660699
0.281074
0.480766
0.420385
0.502015
0.505781
-0.618698
-0.202437
-0.545123
0.00158667
-0.0110751
0.526307
0.569016
0.587252
0.543569
0.49863
-0.257892
0.310002
-0.261155
-0.220734
-0.0378402
-0.137348
0.485741
0.447487
0.45197
0.465406
0.482726
0.461845
0.439985
0.434155
0.463192
0.47266
0.275266
0.0264173
-0.0100738
-0.0577815
0.431625
0.312407
0.367584
0.290066
0.283619
0.286332
0.284998
0.267257
0.274306
0.270237
0.276268
0.279593
0.287864
0.288002
0.283921
0.286013
-0.269529
-0.285719
-0.274578
-0.328232
-0.329239
-0.365925
-0.303935
-0.112463
-0.149113
0.0169448
0.153823
-0.14661
-0.274455
-0.261663
-0.214582
-0.0336321
-0.0362644
-0.137564
-0.0370883
-0.0717009
-0.0766419
0.0149215
0.0328335
-0.252381
-0.217384
-0.243539
-0.247393
-0.15586
-0.106031
-0.0977913
-0.247188
-0.1995
-0.304692
-0.319821
-0.235051
-0.232241
-0.219311
-0.204563
-0.321221
-0.27319
-0.280057
-0.282006
-0.240372
-0.24096
0.279139
0.280915
0.280909
0.290658
0.302836
0.316653
0.284786
0.260193
0.251338
0.254529
0.228319
0.238102
0.233049
0.247304
0.268252
0.275942
0.27436
0.276629
0.259736
0.261587
0.247999
0.251515
0.22443
0.207601
0.198206
-0.282788
-0.192737
-0.282649
-0.225722
-0.133332
-0.187157
-0.17713
-0.246672
-0.224571
-0.196208
-0.156552
-0.37749
-0.358153
-0.297691
-0.222972
-0.399841
-0.441958
-0.495636
0.656426
0.786095
0.576819
0.375024
0.375422
0.606148
0.697663
0.34814
0.519511
0.556332
0.328502
0.598913
0.289008
0.288612
0.286531
0.285652
0.286802
-0.243479
-0.145974
-0.117375
-0.0707821
0.0479233
0.156838
0.0622375
-0.0495533
0.0872541
0.110824
0.40266
0.413913
0.35684
0.381458
0.37751
0.203667
0.284727
0.325492
0.277052
0.34034
0.374269
0.324497
0.364134
0.287757
0.245402
0.239691
0.187924
0.222374
0.202865
0.176589
0.279299
0.257567
0.2683
0.258863
0.279026
0.30533
0.304344
0.32449
0.34016
0.261756
0.215829
0.231065
0.255289
0.215441
0.229734
0.249652
-0.0614167
-0.152745
0.0165143
-0.310775
-0.219728
-0.183998
-0.224336
-0.271466
0.0353395
-0.610936
-0.553739
-1.24134
0.254545
0.644995
0.447389
0.460783
0.479262
0.460449
0.466201
0.48404
0.491122
0.421514
0.435245
0.43968
0.395703
0.427468
0.434443
0.440587
0.271688
0.186087
0.181371
0.124008
-0.00641247
0.0292682
0.202015
0.141588
0.0754775
0.0728949
0.246286
0.120129
0.193026
0.245163
0.181304
0.114725
0.336663
0.391103
0.376218
0.345606
0.263571
0.28159
0.307204
0.347736
0.370419
0.399219
0.275611
0.281553
0.282567
0.279929
0.277865
0.280765
0.28087
0.283215
0.28386
0.286473
0.285692
-0.266032
-0.251301
-0.273111
-0.277866
-0.213721
-0.232109
-0.196137
-0.234754
-0.228152
-0.223393
-0.242746
-0.255852
-0.250778
-0.241267
-0.130078
-0.108928
-0.10056
-0.13939
0.0282279
0.198302
0.259157
0.133828
-0.0177191
0.0092058
0.0917948
-0.215108
-0.166779
-0.18734
-0.146183
-0.163932
-0.296138
-0.323621
-0.324366
-0.230142
-0.266773
-0.369224
-0.351623
-0.358372
-0.36155
-0.335494
-0.342756
0.262127
0.25495
0.257918
0.250935
0.249158
0.264891
0.269177
0.270166
0.275121
0.277141
0.268012
0.273506
0.276846
-0.344096
-0.431188
-0.39296
-0.367085
-0.458552
-0.441708
-0.408594
-0.116386
-0.204966
-0.174411
-0.235748
-0.352453
-0.294311
0.249645
0.251585
0.260684
0.463278
0.311909
0.22793
0.321178
0.430233
0.0259323
0.234891
0.0634773
0.645077
0.538324
0.682837
0.317221
0.01428
0.17578
0.189301
0.0226938
0.147767
0.117234
-0.0044918
0.0342468
0.0528545
0.135252
0.0230022
0.000396017
-0.24412
-0.0706044
0.0512661
0.0314239
0.167838
0.228068
0.0138102
-0.0676704
-0.117657
0.385381
0.405409
0.418762
0.390651
0.414549
0.343535
0.336539
0.352969
0.359614
0.352818
-0.882724
-0.473018
-1.67214
-1.07502
-0.623773
0.287964
0.274719
0.512147
0.418746
0.477835
0.461954
0.403686
0.367426
0.395072
0.424011
0.118841
0.22414
0.186852
0.204387
0.137176
0.0655046
0.359121
0.357625
0.384396
0.40863
0.381304
0.409487
0.273949
0.273681
0.27293
0.269383
0.268047
0.270614
-0.180834
-0.211093
-0.168068
-0.168234
-0.193807
-0.205242
-0.329871
-0.360103
-0.370655
-0.407349
-0.339665
-0.308166
-0.0732472
-0.130573
-0.216929
-0.176022
-0.238002
-0.313279
-0.319041
-0.232393
-0.13672
-0.155107
0.150164
0.428514
0.254659
0.420438
0.208998
0.314935
0.246872
0.22307
0.257243
0.136947
0.219395
-0.220323
-0.419793
-0.477821
0.576385
0.534894
0.330834
0.0726707
-0.0382256
0.260636
0.293622
0.254896
0.290463
0.340862
0.330591
-0.23376
-0.127832
-0.0718944
0.243272
0.0393488
0.0584619
0.050047
0.207316
0.1802
)
;

boundaryField
{
    wall-4
    {
        type            zeroGradient;
    }
    velocity-inlet-5
    {
        type            zeroGradient;
    }
    velocity-inlet-6
    {
        type            zeroGradient;
    }
    pressure-outlet-7
    {
        type            fixedValue;
        value           uniform 0;
    }
    wall-8
    {
        type            zeroGradient;
    }
    frontAndBackPlanes
    {
        type            empty;
    }
}


// ************************************************************************* //
