/*--------------------------------*- C++ -*----------------------------------*\
  =========                 |
  \\      /  F ield         | OpenFOAM: The Open Source CFD Toolbox
   \\    /   O peration     | Website:  https://openfoam.org
    \\  /    A nd           | Version:  6
     \\/     M anipulation  |
\*---------------------------------------------------------------------------*/
FoamFile
{
    version     2.0;
    format      ascii;
    class       surfaceScalarField;
    location    "29";
    object      phi;
}
// * * * * * * * * * * * * * * * * * * * * * * * * * * * * * * * * * * * * * //

dimensions      [0 3 -1 0 0 0 0];

internalField   nonuniform List<scalar> 
1300
(
3.75095
5.62643
-5.03377
3.75095
-5.20624
5.62643
-4.36199
4.36199
-1.09818
1.09818
1.8765
1.87445
-2.76051
2.76051
-2.22247
2.22247
-2.57607
2.57607
-5.24796
5.24796
-5.06872
5.06872
4.72087
-4.72087
-4.26945
4.26945
-1.45188
1.45188
-3.76997
3.76997
3.17335
-3.17335
-2.68892
2.68892
-0.319481
0.319481
-0.554001
4.30495
3.19695
3.19695
-2.11459
2.11459
-4.87107
4.87107
6.2223
-6.2223
7.18079
-7.18079
-2.14702
-3.38144
1.64765
-9.84406
-3.55859
-3.55859
-8.44105
8.44105
-2.81462
2.81181
2.94321
-2.94321
-1.73575
1.73575
-4.35559
-0.00640149
-4.35559
4.33413
0.0278696
4.33413
-1.22202
0.123839
-1.22202
3.91702
-3.91702
0.935604
0.162573
0.935604
3.06638
-3.06638
-1.87687
3.75337
1.87408
-1.87205
6.177
-1.8789
3.75336
-5.94768
5.94768
-2.98151
0.221008
-2.98151
2.51163
0.248879
2.51163
-6.71352
6.71352
-2.25961
0.0371421
-2.25961
2.208
0.0144696
2.208
2.87077
-2.87077
-2.663
0.0869326
-2.663
2.46239
0.113678
2.46239
0.353535
5.27289
-5.97997
8.79178
-5.27289
0.024931
5.21039
0.0375699
5.21039
-5.10533
0.0366071
-5.10533
5.01297
0.0557542
5.01297
4.81676
-0.0958894
4.81676
-4.83462
0.113749
-4.83462
-2.83441
-4.82646
-4.96087
0.691418
-4.96087
-1.45426
0.00238007
-1.45426
1.41764
0.0342381
1.41764
-3.57413
3.57413
-4.10893
0.338964
-4.10893
3.1282
0.0451585
3.1282
1.86813
1.88282
5.61909
-5.61909
2.44573
-2.40973
-0.279186
-2.40973
-3.05108
-4.12971
3.05108
-0.362164
-0.578865
0.259384
-0.578865
3.1569
0.0400548
3.1569
2.32495
0.137442
-2.32495
0.210355
3.24313
-3.24313
1.4704
0.644191
1.4704
-5.56099
5.56099
4.96032
0.052646
-4.96032
0.089251
6.15744
0.0648605
6.15744
-6.2077
-0.0145972
-6.2077
2.05143
-5.43287
-4.02753
3.72906
0.540391
-3.72906
0.170469
2.91268
0.0305331
2.91268
-2.9241
2.9241
-2.98195
0.0387421
-2.98195
-2.1641
0.428345
-2.1641
1.41404
0.321714
1.41404
-4.23383
-0.121765
-4.23383
-4.24494
0.136004
4.24494
0.0891892
1.0069
-1.0069
-1.30074
0.0787197
-1.30074
-4.04253
-0.191294
4.04253
-0.125514
-3.84405
-0.0729726
-3.84405
-3.02046
0.0385082
3.02046
0.0459163
3.11173
0.0451645
-3.11173
0.0453563
-1.8709
3.75372
-1.88006
3.75414
-5.58465
-0.363037
-5.58465
6.25575
-0.308067
6.25575
3.3512
0.418773
-3.3512
0.369682
2.31606
0.195563
2.31606
-6.69422
-0.0192942
-6.69422
6.67723
0.0362845
6.67723
2.24809
0.0679755
-2.24809
-0.0115259
2.22343
-0.0154302
2.22343
2.88396
-0.0131868
2.88396
-2.87039
-0.000381528
-2.87039
2.80519
-2.80519
2.73799
0.0671999
-2.73799
0.074987
-11.1239
11.1093
-0.0362547
-11.0876
5.17414
5.17414
4.27362
0.543142
4.27362
-5.02365
0.189036
-5.02365
2.21862
-6.24615
4.61448
-7.44889
4.59584
-14.4399
3.3797
-8.20615
6.22445
-6.22445
5.69351
0.530937
-5.69351
0.732642
-1.46188
0.00761807
-1.46188
-2.96704
-0.607095
-2.96704
4.23193
-0.657791
4.23193
-3.02957
3.02957
-3.07753
0.0479616
3.07753
0.0506632
2.27912
-0.0556909
-2.27912
-0.13061
0.754068
0.181537
-0.754068
0.175203
3.47025
-0.227119
3.47025
-3.04446
-0.198674
-3.04446
-1.4696
0.00772426
1.4696
0.000801298
-5.80815
0.247157
-5.80815
-11.1813
0.0936661
-11.1437
-6.11404
-6.11404
2.32701
11.1188
-2.88866
0.0182726
2.88866
0.0240159
2.97818
0.05139
-2.97818
0.0540801
-2.86654
0.061356
2.86654
0.057556
-2.53715
0.373054
-2.53715
-1.00973
1.00973
-1.17951
0.16978
1.17951
0.234523
1.26797
-0.261062
1.26797
1.36292
0.0547222
-1.36292
0.0621829
-3.78527
-0.0587725
-3.78527
6.4884
-0.232645
6.4884
-2.92961
-0.114849
2.92961
-0.0456509
-0.0349292
11.1442
-5.13921
0.0338793
5.13921
-11.2091
11.2429
-3.24838
0.711234
3.24838
1.02523
5.2888
0.272195
-5.2888
0.265144
6.51829
0.158938
-6.51829
0.293847
-2.46415
-0.502892
-2.46415
-4.98069
-0.603954
4.98069
-0.748767
-11.4819
-0.202654
11.6846
-11.4262
6.0108
0.146636
-6.0108
11.3896
-0.936532
-0.0703713
0.936532
0.0732007
1.59737
-0.329401
1.59737
3.68843
-0.218181
-3.68843
-0.0968439
-6.60581
-0.0884119
6.60581
-0.117414
-2.02405
-0.440101
2.02405
-0.426681
-4.26706
4.30711
1.90994
-1.48488
-3.94799
-5.61459
1.85416
1.89956
4.29989
-9.2935
-5.1464
-9.12303
7.21508
-6.94994
-9.37164
9.27575
7.62235
-7.69532
-5.77807
5.82873
6.4836
-6.43769
1.87947
1.8739
7.95146
-7.73045
-15.7358
15.3727
7.20454
-7.16739
15.7906
-15.8099
-17.7942
17.9531
-5.72876
5.81569
-6.71272
6.71234
-6.89531
6.84966
-1.68957
-5.75932
13.189
-12.4976
6.85929
-7.13848
-8.56019
8.89915
3.38479
0.922325
3.42995
-1.88194
3.7614
-1.87142
3.78136
4.40193
-6.0915
1.84422
-5.79221
3.76325
3.09604
-3.40109
-2.2135
-5.92171
5.95225
-5.81682
5.87438
8.95536
-8.96176
-1.88547
3.75937
-1.86867
3.76822
-3.42333
-2.35474
3.37817
0.921728
7.44459
5.74446
-7.98498
-1.13806
-7.79957
7.58139
-8.06587
7.8672
-0.441087
5.837
-5.39591
4.42999
-1.65192
7.48892
5.56317
5.7522
5.8604
-5.5882
1.08954
-6.48545
-6.3962
-2.59476
2.67348
2.56248
-2.39991
5.95431
1.66804
5.82879
-5.60951
-2.08581
-5.66828
3.82074
2.00799
3.8687
4.07965
2.40395
4.11816
3.03059
-3.03553
0.0049398
-3.05905
6.08964
0.723845
-5.4138
-4.49207
4.93773
3.01373
5.18661
-5.57411
-2.15635
-5.20442
-9.58081
-6.15497
-10.1848
10.1549
5.21789
9.84679
-11.9905
11.8731
4.23749
2.96705
4.25196
-4.8422
-2.32519
-4.85373
11.7312
-2.63623
-9.095
-10.2839
-7.51021
10.2477
5.54294
10.8403
7.11275
11.1342
4.47245
7.25878
-10.0154
2.50518
-3.86662
-1.86214
-3.79163
3.69688
2.11881
3.81056
-4.21149
-2.50123
-4.19321
-4.27071
-2.62461
4.28389
2.42844
-4.35
-3.71587
4.46485
2.38481
4.78143
-9.92783
3.42472
-9.18404
-9.40765
-3.08998
-8.675
5.57471
1.38943
-6.96414
-0.51679
8.5225
-5.42647
6.309
-4.01871
-3.11977
-4.14932
-6.8625
-1.69769
-6.72649
-8.96188
8.45899
-9.23808
8.58029
12.7573
-5.70953
-7.04776
-3.96667
-2.47101
3.92132
-0.491363
-3.71156
3.7165
0.0498447
3.83121
4.75353
4.26217
-3.88439
-1.93244
-3.83031
3.8286
2.04578
3.88996
6.73304
2.22232
6.76091
-6.42662
-2.53514
-6.54839
9.15178
-8.72344
2.91948
-2.91175
5.24072
2.62648
-5.0136
-2.78597
6.20536
-3.1064
-3.09897
-12.3653
10.8677
1.49758
-4.87633
-0.446349
-0.126868
-5.59058
-3.78106
5.47683
0.275372
11.143
7.36198
-5.51567
5.76283
6.16893
6.22158
-0.174622
5.92788
-5.21664
5.36404
-2.50447
-2.85958
5.3051
-5.4964
-1.24329
-5.34288
4.0996
0.332394
1.77159
-1.51221
-2.03521
-0.559548
-1.97303
1.50258
1.0599
1.68412
0.95277
1.72071
-2.9371
0.555354
2.38174
-1.98433
-1.84455
-3.63934
-1.02541
4.66475
5.52664
2.05476
-5.42979
-0.238484
2.77367
-2.73943
-0.830125
-2.80922
2.06816
-2.89829
-3.4734
-1.86373
5.33713
-3.36942
-0.460884
3.31803
0.55067
-3.826
-2.09571
3.78726
0.330902
-3.12553
6.18977
-3.06424
-5.05796
2.53036
3.55928
4.53835
-4.79185
2.44776
2.34409
-1.23257
4.25727
0.929341
4.45283
-6.88969
4.73334
5.72539
3.17376
-6.14417
0.939741
-5.94994
8.35999
-7.22844
-1.13155
3.9257
4.43429
7.152
5.60529
-5.74674
12.8987
-1.05377
-6.17467
7.00371
-3.82996
4.69803
-8.52798
-10.3033
4.12865
-9.31465
11.0268
-1.71212
-3.6115
-8.37898
12.9262
-1.23516
-11.691
8.61163
-4.26413
-4.58687
8.851
-6.90036
6.91206
-1.97205
-4.94001
-10.1162
-5.69366
10.2046
1.66842
-10.563
13.0681
-3.30418
3.31867
0.933287
3.30324
3.32207
-5.41553
2.09347
3.57829
-5.55034
2.16248
-7.57802
-7.70402
13.116
-5.41202
-10.794
-10.3199
-0.474075
2.55742
10.5107
-9.67017
7.32981
2.34036
3.30494
0.585014
-3.37214
-0.419488
0.283963
4.53936
-4.82332
4.09452
4.23197
3.34101
1.19835
3.84466
2.10759
-3.86867
-0.324541
-4.14154
1.51693
-1.71309
-3.64142
5.15835
-4.07268
0.431253
-2.72503
-3.52196
6.24699
-4.58717
3.03979
3.14998
5.08557
-4.90949
1.38753
-2.40412
-2.50537
2.68515
-4.39824
1.93629
3.22206
4.3211
0.605234
7.32898
5.78706
-8.71841
-0.465628
11.5315
-10.3935
2.80481
8.32938
-10.1346
-0.185314
-8.86032
0.162826
-5.58929
-6.80131
5.08118
-6.77887
-3.44681
6.19731
0.563599
-6.2865
-0.439992
-6.06726
-2.89462
-6.50736
-3.07218
-6.16589
-8.81892
-1.686
-7.13292
6.77299
-6.68065
-3.50411
7.42942
1.15087
-7.45946
7.38908
-7.53932
7.20992
0.0941087
3.62239
4.35628
1.88527
-2.38982
4.27509
-5.0159
7.23821
-8.5318
3.5159
4.04015
-6.57528
-4.49165
5.07809
4.0737
5.3998
9.00975
-10.53
1.52025
-10.8392
12.1741
-1.33485
-16.6521
5.81289
-7.64238
2.65686
0.262615
2.66448
0.672149
2.41018
-3.08233
-2.2396
-2.2388
-2.33122
-3.42194
5.75317
1.13105
-3.34539
2.21434
-3.47531
4.60635
0.0338033
-3.37919
5.22409
-2.81391
5.4867
-3.4415
2.0452
3.39145
5.71042
-2.31897
4.35604
-1.72956
1.85188
-4.17085
-1.57006
-2.98639
5.1052
-3.2606
3.69185
-0.281876
3.97373
-4.06558
0.959186
-0.724569
3.5074
3.71775
4.30855
-3.11021
2.96126
-4.69082
-1.20959
-4.08559
-0.863524
-0.220113
-3.87572
4.09583
6.09417
-6.31428
-5.31758
9.58667
-4.26909
7.74009
-5.46878
-2.27131
-4.31916
-4.40428
3.94611
1.98177
9.72186
0.177831
-5.64661
-5.03881
-4.01358
3.22367
2.14038
-1.93976
3.43734
2.06663
-0.295034
0.568304
1.11581
1.86148
-1.29317
0.221195
1.64028
-1.29101
2.00737
0.766297
-2.0621
0.0890644
-1.3527
3.42086
1.02905
-2.08894
0.795773
1.00103
-3.5055
4.79528
-2.51307
-2.28221
5.79631
1.15789
-3.67096
4.185
-3.8526
2.36108
-3.38649
-1.30988
-5.16249
-3.49445
-2.49
4.70434
-3.26317
5.31793
1.23094
-5.07944
6.31038
-3.52422
1.66049
-3.05476
3.82106
-1.08214
-1.97263
2.84435
2.49279
-2.9728
0.163581
-0.128449
2.32982
-2.45827
-0.568467
-2.55279
-4.57315
4.90405
-2.1059
4.55366
2.16919
-1.91426
6.46792
1.81109
-3.72535
-3.24687
-3.70776
-1.38126
3.15709
-0.557952
-4.29578
-5.49796
4.2278
0.225028
-6.84771
7.73145
-0.883737
-3.83398
-0.899356
4.82506
-6.0791
0.52876
-3.91662
3.81483
4.74417
4.9692
-11.4719
-0.219052
-6.25404
1.13358
-7.38762
5.56787
-3.63596
7.76461
-10.4137
6.90954
-9.26278
6.63306
-0.754564
6.22409
-4.13062
2.87091
-8.56457
-6.89615
5.52242
-2.55537
6.4557
-2.99145
9.44715
-6.29563
4.84189
4.60527
-1.00439
-3.14493
-4.9445
3.94012
-0.102616
3.20062
4.97728
-2.86969
4.65274
2.24673
-4.65086
-2.15151
-6.49229
1.84144
-3.34232
-1.91438
3.75582
3.17119
3.7562
1.25045
-3.33671
8.75175
-9.22583
-3.33973
-3.46158
4.66745
-0.727337
4.04161
-7.50318
-1.54769
4.85497
-0.776248
-4.07873
0.854557
-4.30136
1.64865
-5.95002
5.13021
-5.5702
2.2253
-9.86768
-5.23415
-5.16095
-2.26384
-5.27548
-7.66543
5.4016
-1.85254
5.53654
-8.67566
7.89941
-3.49843
8.90002
-5.45695
-1.05041
5.88363
1.32629
10.2263
0.110804
-4.60245
-1.94184
3.88086
-1.93902
1.28183
-3.76492
0.115945
2.4398
3.35651
-6.5394
-0.0358814
-4.63833
-3.92211
7.99581
5.66456
11.7587
1.22872
9.20294
-1.20713
10.4317
4.19267
4.42719
-3.06066
4.58091
1.03517
4.55107
-0.82703
2.87223
1.83745
1.83983
0.899602
2.29634
1.42142
3.25552
0.173196
-2.06561
4.6591
-8.67268
-0.987514
-8.12954
1.14621
5.41677
-4.27055
3.04695
-0.90658
1.10794
0.0703514
-1.6497
1.57935
-2.78923
-1.94474
-0.304455
-1.57135
2.36713
1.8495
-2.06267
-0.726554
0.268981
-3.76343
3.11751
-2.95393
-0.46114
5.84924
-2.7343
0.276029
-1.07381
-2.27676
-2.83631
2.74725
6.17409
0.293827
3.10985
5.19788
3.10216
0.232469
3.98418
-5.6963
-3.59384
-5.91535
-0.347481
4.47757
1.50796
9.00276
6.11322
5.38589
-2.1173
-11.3431
6.56799
-1.98708
5.23314
-1.15441
-4.7956
5.00662
2.23159
-5.57022
1.17399e-05
-4.79559
-6.78267
-0.506016
8.40543
-9.72029
8.66988
5.77526
1.35766
-4.44002
-0.720936
4.27024
0.156952
10.5886
-0.893417
-7.20154
8.09496
-4.52335
3.53584
0.766171
2.67117
2.34552
1.43894
-5.7626
-10.0332
-1.87369
-1.63181
-4.1559
0.508858
-2.35836
6.11558
-2.57975
3.84428
5.51521
6.62315
-2.07365
-4.24063
6.34274
-2.49846
4.12468
)
;

boundaryField
{
    wall-4
    {
        type            calculated;
        value           uniform 0;
    }
    velocity-inlet-5
    {
        type            calculated;
        value           uniform -3.75095;
    }
    velocity-inlet-6
    {
        type            calculated;
        value           uniform -5.62643;
    }
    pressure-outlet-7
    {
        type            calculated;
        value           nonuniform List<scalar> 8(5.03377 5.20624 5.52847 8.19641 7.66087 6.07896 6.8331 7.97554);
    }
    wall-8
    {
        type            calculated;
        value           uniform 0;
    }
    frontAndBackPlanes
    {
        type            empty;
        value           nonuniform 0();
    }
}


// ************************************************************************* //
