/*--------------------------------*- C++ -*----------------------------------*\
  =========                 |
  \\      /  F ield         | OpenFOAM: The Open Source CFD Toolbox
   \\    /   O peration     | Website:  https://openfoam.org
    \\  /    A nd           | Version:  6
     \\/     M anipulation  |
\*---------------------------------------------------------------------------*/
FoamFile
{
    version     2.0;
    format      ascii;
    class       volVectorField;
    location    "29";
    object      U;
}
// * * * * * * * * * * * * * * * * * * * * * * * * * * * * * * * * * * * * * //

dimensions      [0 1 -1 0 0 0 0];

internalField   nonuniform List<vector> 
918
(
(0.985028 -0.000714688 0)
(0.005328 2.96625 0)
(-0.0534737 1.32403 0)
(0.979571 0.00195452 0)
(0.0195879 1.35612 1.26729e-19)
(-0.00707802 2.94855 -2.18466e-18)
(0.827453 1.14957 6.23767e-19)
(0.380785 0.146509 -1.09124e-20)
(0.999916 -0.000261133 0)
(0.0918385 0.790158 0)
(-0.00638567 0.61713 0)
(0.738526 -0.00996215 0)
(0.0102099 2.93156 0)
(0.0033361 2.79408 0)
(-0.000759839 3.19308 1.03237e-18)
(-0.0604734 1.30204 1.8654e-19)
(0.451502 0.0418573 6.96081e-19)
(0.237483 1.1771 5.58978e-19)
(0.964514 0.00664805 0)
(-0.0427869 0.769584 0)
(0.112662 0.207304 -5.22533e-19)
(1.00191 -0.00450697 0)
(0.999866 -0.00894092 0)
(0.975172 -0.00606796 0)
(0.617714 -0.047465 0)
(0.0234187 2.64275 0)
(-0.012413 2.9121 7.71209e-19)
(-0.120588 1.20946 0)
(-0.155757 1.46035 0)
(-0.0740742 1.27408 0)
(-0.0282864 2.22359 0)
(0.0875841 1.43012 -9.99932e-20)
(0.0447252 1.0538 0)
(-0.0221914 2.98759 -7.76095e-23)
(-0.01651 3.00551 1.69783e-18)
(0.00230613 3.00061 0)
(0.870627 -0.00900877 0)
(0.376014 0.921663 2.39404e-20)
(0.831191 1.16001 -9.04021e-19)
(0.969725 1.014 8.27114e-19)
(0.696224 1.24401 -1.45491e-19)
(0.705859 1.2185 8.20639e-19)
(0.413626 0.247525 1.06466e-20)
(0.40704 0.13428 0)
(1.1578 0.520727 0)
(0.373789 0.251694 4.87702e-20)
(0.343034 0.157276 -5.06135e-20)
(0.920262 -0.00677409 0)
(1.00027 7.02994e-05 0)
(0.999907 0.000316192 0)
(1.00371 -0.00731289 0)
(1.00089 -0.000946153 0)
(1.00011 -1.81253e-05 0)
(0.0997933 1.79544 -3.811e-19)
(0.040151 0.948241 0)
(0.107484 0.859632 0)
(0.0382009 0.863641 0)
(0.0407147 0.706389 0)
(0.0112978 2.00153 0)
(0.00186953 0.762829 0)
(0.00141817 0.614614 0)
(-0.0125666 0.747661 0)
(-0.0213799 0.612145 0)
(0.837929 -0.012215 0)
(0.853181 0.026985 0)
(0.770539 -0.00235339 0)
(0.830153 0.0357786 0)
(0.704243 -0.0152223 0)
(0.0139728 3.00019 8.05364e-19)
(0.0112107 3.00588 0)
(0.00632972 3.00392 0)
(0.0118821 2.99706 9.06428e-24)
(0.00831232 2.95872 -1.19697e-18)
(0.0121835 2.98293 0)
(0.00898663 2.90485 0)
(0.0212089 2.93129 1.73774e-24)
(0.00405452 2.8243 0)
(0.0264254 2.91863 0)
(-0.000529061 2.74467 0)
(0.311005 3.59449 0)
(-0.122963 3.6778 0)
(0.152952 3.28451 -9.60842e-19)
(0.00616129 3.01657 0)
(-0.258145 2.04771 0)
(-0.0950655 1.53322 -1.83803e-19)
(-0.107313 1.50864 1.15744e-19)
(0.52311 0.137124 -2.39445e-19)
(0.453006 0.0102922 -2.30558e-19)
(0.49932 0.162835 -7.25005e-19)
(0.436454 0.0611821 -4.82359e-19)
(0.254015 0.952142 0)
(0.337468 1.31565 -5.61511e-19)
(0.429588 1.21042 9.15808e-19)
(0.988031 0.00809088 0)
(0.943577 0.00599534 0)
(1.00029 0.000674173 0)
(1.00254 0.00907318 0)
(1.00317 0.00888033 -1.53489e-18)
(0.992129 0.00952963 1.15991e-18)
(-0.0454393 0.841666 0)
(-0.0165012 0.681448 0)
(-0.121843 1.1739 0)
(-0.0529744 0.93977 0)
(-0.0267309 0.882468 0)
(0.151453 0.218767 1.61974e-19)
(0.199277 0.195505 0)
(0.993621 -0.00769472 0)
(0.953995 -0.00645713 0)
(0.785851 0.0432994 0)
(0.731607 0.0497638 0)
(0.663579 -0.0283775 0)
(0.962518 -0.00158403 0)
(0.674698 0.0501871 0)
(0.504614 -0.039009 9.51041e-19)
(-0.0405305 2.8619 5.2008e-19)
(0.033856 2.9141 0)
(0.0428726 2.89149 0)
(0.00351904 2.70113 0)
(-0.00858222 2.98642 7.27811e-19)
(-0.014283 2.89482 0)
(-0.0110273 2.99172 -2.26187e-18)
(-0.0116094 2.92969 7.73411e-19)
(-0.259133 1.46038 0)
(-0.258265 1.61826 0)
(0.00801756 1.38262 7.73822e-21)
(0.0584797 1.3149 0)
(-9.1887e-05 1.12459 0)
(0.937743 -0.00536274 0)
(0.854912 -0.00970174 0)
(0.864794 0.00691515 0)
(0.948737 -0.0064421 0)
(0.882651 -0.00763973 0)
(0.501267 1.12295 -3.91267e-20)
(0.549275 1.19416 0)
(0.336021 0.853975 1.26395e-20)
(0.279301 0.71968 0)
(0.929459 1.05011 -2.39752e-19)
(1.04482 0.849775 4.82473e-19)
(0.401416 1.34624 0)
(0.553262 1.30928 0)
(0.585994 1.2518 0)
(0.0877027 0.160098 -1.79967e-19)
(0.440642 0.227216 0)
(0.413858 0.120522 1.38107e-19)
(1.00678 0.90378 0)
(1.07612 0.744318 0)
(1.10602 0.677619 -4.10654e-19)
(1.13631 0.588369 0)
(1.19117 0.3788 4.62806e-20)
(0.956927 -0.00703645 0)
(0.962516 -0.0080232 0)
(0.900366 -0.00713236 0)
(0.983874 -0.00812436 0)
(0.974281 -0.00795276 0)
(0.936407 -0.00649129 0)
(1.00019 0.00249606 0)
(1.0008 0.00126902 0)
(0.999985 0.000792365 0)
(0.0373973 2.05644 2.27686e-19)
(0.150172 1.74273 0)
(0.0123575 2.1732 2.65108e-19)
(0.0539134 1.85139 -1.71685e-19)
(0.168831 1.14893 -4.61647e-19)
(0.0553465 1.01555 0)
(0.119278 1.01407 0)
(0.0355 0.819462 0)
(0.0341968 0.635945 0)
(-0.0151519 2.18524 1.65364e-21)
(0.0211876 1.9973 0)
(-0.0258717 2.16011 1.20213e-19)
(0.0024607 2.01091 -2.42079e-19)
(0.00475514 0.785129 0)
(-0.0130854 0.776586 0)
(-0.00152127 0.607572 0)
(-0.0135036 0.746408 0)
(-0.0251131 0.621787 0)
(0.932892 0.0112673 0)
(0.846813 -0.0118176 0)
(0.925025 0.00425345 0)
(0.842409 -0.00960341 0)
(0.815473 0.00306111 0)
(0.903198 0.018612 0)
(0.881033 0.0224112 0)
(0.791639 0.00116086 0)
(0.0102597 3.06719 -7.24993e-21)
(0.0151456 3.05933 0)
(0.0123695 2.97041 0)
(0.00751939 2.87658 0)
(0.902799 3.99438 0)
(1.19874 3.38789 9.98245e-19)
(0.0832455 3.09815 0)
(-0.0153637 2.92268 0)
(-0.334149 1.65679 0)
(-0.339316 1.98467 0)
(-0.302966 1.81917 0)
(-0.111002 2.25482 -5.3569e-20)
(-0.251689 2.17511 0)
(-0.172784 2.12856 0)
(-0.0712022 1.90797 -8.96173e-21)
(-0.115245 1.92659 -1.01941e-19)
(-0.119925 1.74131 -1.13381e-19)
(-0.109901 1.74996 0)
(0.536179 0.108903 3.58399e-19)
(0.453857 -0.00627867 -3.51557e-19)
(0.233986 1.55878 0)
(0.282625 0.692809 -2.48892e-19)
(0.178629 1.65389 -8.32692e-19)
(0.241906 1.16372 8.32745e-19)
(0.902425 0.00663836 0)
(0.96741 0.0102361 0)
(0.975167 0.00962723 0)
(0.923426 0.00624801 0)
(-0.00348076 0.752451 0)
(-0.020472 0.779839 0)
(-0.0281976 0.647188 0)
(0.323513 0.241758 4.44052e-19)
(0.263466 0.231871 -5.28312e-19)
(0.28054 0.173572 0)
(1.08981 0.0900164 3.5653e-21)
(1.07398 0.0430832 0)
(1.00188 0.0432044 0)
(0.898819 0.000726571 0)
(0.555857 0.085013 0)
(0.602169 0.0615671 -1.53241e-18)
(0.468148 -0.0165943 5.85324e-19)
(0.0110822 2.9772 5.89152e-19)
(-0.0333797 2.86216 4.62097e-20)
(0.00823411 3.05322 -1.54636e-20)
(0.0156247 3.04334 5.8471e-19)
(-0.0118841 3.00003 2.56236e-20)
(-0.0122776 2.95237 -1.0378e-22)
(-0.015018 3.01333 -4.86221e-19)
(0.0142435 3.02669 3.41973e-19)
(0.00753773 3.03473 -5.51255e-19)
(0.932151 0.00195812 0)
(0.937703 -0.0011357 0)
(0.844968 -0.00911701 0)
(0.957026 0.0111856 0)
(0.943649 0.0122461 0)
(0.88285 0.00685199 0)
(0.919083 0.0158847 0)
(0.927191 0.0138375 0)
(0.84058 0.00521749 0)
(0.676307 1.42476 2.09901e-19)
(0.69505 1.53633 0)
(0.135409 0.336835 3.83132e-20)
(0.172772 0.613032 3.02612e-19)
(0.228862 0.679837 -1.76739e-19)
(0.233198 0.547066 3.39932e-19)
(0.308074 0.75966 9.89555e-19)
(0.115157 0.205182 2.64842e-19)
(0.485465 0.193103 5.16754e-19)
(0.459185 0.211345 1.30283e-19)
(0.422229 0.0945149 2.57763e-19)
(1.18121 0.439778 2.40197e-19)
(1.20263 0.241985 2.48372e-19)
(0.00594581 2.21681 6.76726e-20)
(0.0454476 1.91084 0)
(0.958752 0.0316172 0)
(0.934733 0.0166881 0)
(0.859744 -0.0127743 0)
(0.0122658 3.07506 0)
(0.016918 2.94398 9.98111e-19)
(0.0140227 2.95698 0)
(0.00578308 2.84991 -9.90613e-19)
(0.00898711 3.0903 2.41111e-19)
(0.0117931 3.08306 0)
(0.716703 1.83511 -2.26304e-19)
(1.24335 2.64361 7.56524e-19)
(0.701686 2.01413 -1.57835e-18)
(0.0229121 2.97724 -4.79616e-19)
(0.0417514 3.0014 0)
(-0.0376456 2.88141 0)
(-0.0433743 2.11369 3.92288e-21)
(-0.0641152 2.04881 2.30458e-19)
(-0.0164413 1.97677 6.84419e-22)
(0.261099 1.35029 8.04914e-19)
(0.247282 0.467831 -5.54032e-19)
(0.0678327 1.97153 5.4548e-19)
(0.123383 1.84515 -6.78974e-19)
(0.208253 1.48986 9.57424e-20)
(0.00588795 3.12043 -1.30131e-18)
(0.0132691 3.12073 1.43104e-18)
(-0.00504996 2.98072 6.63716e-19)
(-0.00129441 2.97524 -6.18669e-19)
(-0.0177859 2.87751 -6.76022e-19)
(0.0120943 3.10072 -1.77724e-18)
(0.00575688 3.10522 1.79898e-18)
(0.220473 0.634787 0)
(0.187543 0.616502 -6.37124e-19)
(0.0694885 0.208185 2.81952e-19)
(0.327585 0.868087 7.97806e-19)
(0.176769 0.242378 -1.22211e-18)
(1.18098 0.174115 -3.05357e-20)
(1.19994 0.300784 0)
(1.17659 0.120103 8.97717e-20)
(-0.0154294 2.20821 1.26667e-21)
(-0.00289727 2.21015 0)
(0.0333443 1.95299 0)
(0.310159 1.27779 -2.8691e-19)
(0.342506 1.09311 -6.13882e-19)
(0.202331 0.345335 1.07158e-18)
(1.00643 -0.0097778 0)
(1.00776 -0.00782783 2.80853e-19)
(-0.262169 1.44812 0)
(-0.268862 1.31843 0)
(1.00243 0.00335619 1.40972e-21)
(1.00336 0.0081165 5.77976e-19)
(-0.125363 2.29194 6.6885e-20)
(-0.117108 2.3422 0)
(0.0429494 3.17458 2.9739e-19)
(0.38054 3.55543 0)
(1.10471 0.687812 2.77756e-20)
(1.01192 0.0110786 -2.6457e-21)
(1.02086 -0.00925577 0)
(1.00161 0.000205683 1.41507e-22)
(0.107367 1.35855 0)
(0.138336 2.59613 0)
(0.0580194 1.25314 0)
(-0.000595505 2.6232 -1.28207e-19)
(-0.0314014 2.57667 -1.21976e-19)
(1.00395 0.0239765 2.55817e-21)
(1.05977 0.00211881 0)
(1.08617 0.017992 0)
(-0.327932 1.9872 0)
(-0.231165 2.54095 0)
(-0.129916 1.07206 0)
(0.270644 1.47693 -3.52659e-19)
(1.01143 -0.00918258 0)
(1.00967 -0.0131292 0)
(1.00232 0.000832427 3.59788e-19)
(1.00552 -0.00493173 -4.2384e-19)
(1.00114 -0.000971546 0)
(-0.376713 1.79694 0)
(-0.318566 1.47692 0)
(-0.326514 1.66947 0)
(-0.145325 1.05081 0)
(-0.230839 1.16367 0)
(-0.14161 1.04643 0)
(1.03472 -0.00559772 0)
(1.02002 0.0147424 -1.02744e-21)
(0.771955 1.29921 4.51452e-19)
(1.00232 0.000303473 -3.5911e-19)
(1.00343 0.0047851 4.30268e-19)
(1.00132 0.00213718 0)
(1.01152 0.00970634 3.54701e-19)
(1.00713 0.00745567 -4.36177e-19)
(1.00755 0.0115362 0)
(-0.223206 2.54302 0)
(-0.172749 2.46736 -3.03917e-19)
(-0.193719 2.44741 2.28205e-19)
(1.20922 0.270249 8.89294e-20)
(1.14181 0.0866161 0)
(0.0475977 3.08997 -7.1032e-19)
(0.0515428 2.86951 -5.19135e-20)
(0.10635 3.20206 9.29006e-19)
(0.124819 3.2152 -1.50001e-19)
(0.147147 3.26327 0)
(0.023889 3.13805 1.86181e-19)
(0.0634368 3.16198 7.05751e-19)
(0.0637979 3.1798 -3.50103e-19)
(0.0282454 3.12871 0)
(0.658997 0.310936 0)
(0.59356 0.375163 0)
(1.09309 0.715164 -1.29912e-19)
(1.05703 0.855167 2.24447e-19)
(1.14825 0.605923 0)
(1.18022 0.542633 0)
(1.01577 0.0120179 -6.55597e-19)
(1.01477 0.0127398 8.22311e-19)
(1.02541 -0.00897354 0)
(1.02363 -0.0107104 0)
(1.00644 0.00251069 0)
(1.01099 0.00406695 0)
(1.00463 0.00201812 0)
(1.00964 0.006552 0)
(1.0072 0.00525531 0)
(1.00454 0.00527798 0)
(0.0987316 1.35387 0)
(0.0881297 1.32703 0)
(0.131945 1.40328 0)
(0.124855 1.4174 0)
(0.151016 2.61732 0)
(0.194433 2.67775 -2.68713e-19)
(0.113909 2.67498 0)
(0.0798407 2.67589 2.5846e-20)
(0.0269957 2.68343 9.89968e-20)
(0.0733883 1.22331 0)
(0.0512798 1.11631 0)
(0.0428178 1.30382 0)
(0.00535508 1.25948 0)
(0.00126036 1.98581 1.49434e-19)
(-0.0448022 2.60123 -1.85971e-19)
(-0.0146165 2.66402 -1.89469e-19)
(-0.0254722 2.66421 0)
(-0.0672018 2.60981 3.48059e-19)
(-0.05928 2.59459 2.13953e-19)
(-0.0205211 1.9865 -1.06259e-19)
(-0.0476653 2.45702 2.62581e-19)
(-0.00530758 2.43933 2.26905e-19)
(1.01237 0.0336472 6.57428e-19)
(1.00715 0.0165788 -8.18377e-19)
(1.00679 0.0392361 -6.78404e-19)
(0.984583 0.0269856 8.60869e-19)
(1.06072 0.00527753 0)
(1.04791 -0.00759673 0)
(1.08504 0.0251303 0)
(1.06839 0.00796574 0)
(1.06504 -0.00137958 0)
(1.12288 0.0707334 0)
(1.09844 0.0372151 0)
(1.09935 0.0315888 0)
(-0.191928 2.34935 1.74689e-20)
(-0.349737 2.20473 0)
(-0.2605 2.22556 0)
(-0.226305 2.59835 -1.64872e-19)
(-0.195319 2.55018 3.57403e-21)
(-0.371962 1.94473 -3.00441e-19)
(-0.33884 1.813 2.96014e-19)
(-0.26248 1.42317 0)
(-0.328404 1.44607 0)
(-0.338918 1.48337 0)
(-0.0729167 1.0616 0)
(-0.0433886 0.951118 0)
(0.372155 1.49533 6.5974e-19)
(0.400932 1.50646 2.72787e-19)
(0.603118 2.46567 -1.86865e-19)
(0.392569 2.56279 5.11651e-19)
(0.352561 2.08839 -1.23609e-20)
(1.02029 -0.00819998 0)
(1.01562 -0.00948517 0)
(1.0147 -0.0135877 0)
(1.00748 -0.00109806 0)
(1.00498 -0.000881862 0)
(1.00801 -0.00466743 0)
(1.0095 -0.00384723 0)
(1.01444 -0.004526 0)
(1.0207 0.0154662 6.34674e-19)
(1.0179 0.0145545 -8.08774e-19)
(1.02112 0.0174004 -6.38282e-19)
(1.01837 0.0155585 7.98271e-19)
(0.73716 1.34086 0)
(0.666162 1.3843 4.89456e-19)
(0.844766 1.215 2.71027e-19)
(0.873562 1.19547 -3.59618e-19)
(1.16831 2.62583 -2.69976e-19)
(0.811413 0.105904 3.79444e-19)
(1.14639 0.100357 0)
(1.18424 0.19401 -7.16832e-20)
(1.16404 0.15833 -2.62022e-21)
(1.01259 0.140301 0)
(0.0896808 3.02794 5.85235e-20)
(0.0909124 2.90616 -8.22129e-19)
(0.0402986 2.36432 5.32638e-19)
(0.137275 -0.029582 -2.55091e-19)
(0.348233 3.45776 -4.04365e-19)
(0.197637 3.34855 0)
(0.227912 3.40807 5.26729e-19)
(0.23175 3.08579 -5.4596e-19)
(0.265454 3.20537 0)
(0.00731628 3.12226 3.72829e-20)
(0.0175463 3.13111 -4.41312e-19)
(0.0166866 3.12698 6.49544e-19)
(0.0345397 3.13995 0)
(0.0325885 3.14999 0)
(1.26467 2.59367 0)
(0.526976 0.832967 -3.25349e-19)
(0.979992 1.03254 -1.36088e-19)
(0.958141 1.06165 0)
(0.818102 0.951235 8.13532e-22)
(1.04042 0.892269 2.80553e-20)
(0.406687 0.401723 -6.34359e-19)
(0.712703 0.319113 -2.40778e-20)
(0.693209 0.265198 2.8109e-19)
(0.60712 0.402262 2.12428e-20)
(0.525581 0.383376 -8.63341e-19)
(0.672923 0.339745 0)
(0.69559 0.430024 4.78042e-19)
(0.695385 0.42969 0)
(0.647806 0.383813 0)
(0.615265 0.323891 0)
(0.75046 0.641201 2.03805e-19)
(1.2128 0.295094 -7.86721e-20)
(1.19717 0.432004 0)
(1.20743 0.391707 0)
(0.772072 0.196684 4.22053e-19)
(0.808935 0.546708 -2.4694e-19)
(0.73536 0.513117 4.17914e-19)
(0.920461 0.41598 -4.12269e-19)
(1.01924 0.0141055 4.34166e-19)
(1.01742 0.0133975 -4.38896e-19)
(1.01625 0.0140203 0)
(1.03603 -0.00548664 0)
(1.02981 -0.00821567 -4.03889e-19)
(1.02773 -0.0111845 3.99579e-19)
(1.02485 0.00992865 0)
(1.02329 0.0137364 0)
(1.01243 0.00420956 0)
(1.0145 0.0087519 0)
(1.01588 0.0038251 0)
(1.01501 0.00275477 0)
(0.0787644 1.34572 0)
(0.0665832 1.31544 0)
(0.165756 1.37651 2.68471e-19)
(0.245046 1.47159 1.89588e-19)
(0.152065 1.44999 4.18123e-19)
(0.174302 1.45263 -6.85475e-19)
(0.162717 1.39383 0)
(0.126368 1.57578 1.41605e-19)
(0.135694 1.55967 0)
(0.346125 2.05044 1.79902e-20)
(0.345362 2.35849 3.6361e-19)
(0.172754 1.45418 -1.23653e-19)
(0.250326 1.36548 1.38104e-19)
(0.18058 1.37525 -1.10838e-19)
(0.272579 1.29598 1.94497e-19)
(0.234111 1.57421 0)
(0.243813 1.6268 -1.16953e-19)
(0.0359606 2.28399 7.30675e-20)
(0.0371109 2.67825 0)
(0.0607911 2.42411 -1.08827e-19)
(0.0439706 2.44358 0)
(0.0701877 2.68644 -3.00759e-20)
(0.0426939 2.7065 0)
(0.0934837 1.46479 2.62021e-19)
(0.0239082 1.50593 0)
(0.0291672 1.40496 0)
(0.0870862 1.4004 -2.89196e-19)
(-0.00621218 2.65093 -1.96715e-20)
(0.0152429 2.70878 -1.38349e-19)
(0.001359 2.72346 -1.00996e-21)
(0.0789787 1.94357 -1.96115e-19)
(0.0354006 1.6817 -7.26974e-20)
(0.0372972 1.09299 0)
(0.031571 0.984828 0)
(0.0139831 1.58107 -3.15489e-19)
(0.0314638 1.45345 -3.11036e-19)
(0.0391189 1.53144 3.93913e-19)
(0.0252809 1.60529 0)
(-0.235113 2.46359 7.72402e-19)
(-0.234022 2.61331 -3.11977e-19)
(-0.207008 2.57868 8.2406e-20)
(0.0254978 1.97219 2.37196e-19)
(-0.0959476 2.55568 9.67051e-20)
(-0.0552306 2.48794 -2.95153e-19)
(1.01969 0.0201876 -4.33241e-19)
(1.01633 0.0247192 4.36608e-19)
(1.01281 0.0156776 0)
(1.01694 0.0587507 6.01527e-19)
(0.997688 0.0489821 -7.09813e-19)
(0.965184 0.0438752 8.05055e-19)
(1.01592 0.098137 -8.09875e-20)
(1.04271 -0.00555706 0)
(1.05023 -0.00221625 3.74752e-19)
(1.03934 -0.00932444 -3.74724e-19)
(1.06597 0.0333505 -2.13362e-20)
(1.06083 0.018201 1.87251e-19)
(1.0619 0.0499675 0)
(1.0567 0.0395847 -6.86419e-20)
(1.03311 0.0363455 0)
(1.02819 0.0335094 0)
(1.0276 0.0129049 0)
(1.02432 0.0152724 0)
(1.04032 0.0262783 1.42212e-19)
(1.0381 0.0227306 -3.20005e-19)
(1.05229 0.027907 -1.47626e-19)
(1.04876 0.0275099 -1.65537e-19)
(1.07491 0.0546171 3.03051e-19)
(1.08783 0.0443439 0)
(1.09253 0.088064 0)
(-0.25332 2.46827 3.42239e-19)
(-0.330255 2.23353 2.56386e-20)
(-0.313794 2.28991 0)
(-0.252421 2.4868 -3.26284e-19)
(-0.228816 2.39717 -4.30568e-20)
(-0.211454 2.46616 6.56679e-20)
(-0.10223 2.61258 -1.73078e-19)
(-0.162818 2.61268 1.90556e-20)
(-0.124616 2.56524 -7.19141e-20)
(-0.164685 2.61578 1.16722e-19)
(-0.107931 2.57606 -1.43057e-19)
(-0.273774 1.68711 -1.76898e-20)
(-0.295839 1.99153 -4.81253e-19)
(0.366336 1.41404 -3.22203e-19)
(0.358963 1.34405 -2.7871e-19)
(0.622673 1.42662 -4.72782e-19)
(0.502434 1.49479 -2.64047e-19)
(0.541344 1.46345 0)
(0.60325 2.4405 1.45849e-19)
(0.665201 2.42665 2.60484e-19)
(0.420337 2.52698 8.21204e-20)
(0.396984 2.55886 -3.30494e-19)
(0.501375 2.50853 3.52547e-19)
(0.55622 2.48012 0)
(0.494372 2.53091 -4.07394e-19)
(0.262318 2.59514 7.65696e-19)
(0.366697 2.56771 -5.98011e-20)
(0.289172 2.65368 -1.1269e-18)
(0.949957 2.39885 3.89466e-19)
(0.840641 2.39737 0)
(1.01111 0.000551806 1.44121e-20)
(1.0152 -0.00536006 -1.17129e-20)
(1.01747 -0.00384255 -2.1314e-19)
(1.01516 -0.00139924 2.1335e-19)
(1.01253 0.00104913 0)
(0.614624 1.28042 0)
(0.649284 1.16684 0)
(0.751889 1.08425 0)
(0.63608 1.12696 0)
(1.19714 2.64406 4.86366e-20)
(1.0908 2.38963 0)
(0.832959 2.21636 -2.29602e-22)
(0.828758 2.47525 0)
(0.919573 2.55953 -1.24384e-19)
(0.952619 2.50907 8.321e-20)
(0.827797 0.132476 0)
(0.794424 0.135029 1.07421e-19)
(0.9246 0.127536 5.76839e-19)
(0.854567 0.111562 -2.27863e-19)
(0.829325 0.067163 -6.7544e-19)
(1.06219 0.224093 -4.22337e-19)
(0.963868 0.268977 -8.82445e-21)
(0.908427 0.307902 5.11882e-19)
(1.00421 0.220906 4.07172e-19)
(0.935486 0.170616 -7.42889e-19)
(0.897211 0.180472 9.70849e-20)
(0.91524 0.282013 -1.88907e-19)
(0.903955 0.192322 0)
(0.994578 0.175681 3.57972e-19)
(1.04046 0.188041 0)
(1.03485 0.196623 0)
(1.10328 0.114162 1.32381e-19)
(1.05545 0.169133 -1.0209e-20)
(1.05536 0.232124 -7.93656e-20)
(1.09524 0.201351 0)
(1.02532 0.0401474 3.31307e-19)
(1.04316 0.0511857 4.01413e-19)
(1.03457 0.0372342 -3.29228e-19)
(1.04672 0.0562658 -2.70196e-19)
(1.01851 0.0620093 -4.25746e-19)
(0.989349 0.141971 0)
(0.996448 0.0885777 0)
(0.97062 0.0527911 -2.87557e-19)
(0.922856 0.077727 1.18001e-19)
(1.04283 0.0996852 3.76343e-19)
(1.06799 0.122057 -4.00604e-19)
(1.06476 0.15693 3.67102e-19)
(1.03663 0.133555 0)
(1.07817 0.104704 0)
(1.05971 0.0935199 -1.64891e-19)
(1.04874 0.0920013 -3.02791e-19)
(0.596004 1.12417 -4.28833e-20)
(0.629506 1.44583 1.36649e-19)
(1.15005 2.73867 -2.81771e-20)
(1.20125 3.11843 -4.46685e-20)
(1.25721 2.7449 3.26699e-19)
(1.29917 2.71648 -1.86438e-19)
(1.27511 2.3385 -3.66266e-20)
(1.1894 3.02469 1.16128e-19)
(1.20797 2.98185 -7.34735e-20)
(1.18313 3.27282 -2.05905e-19)
(1.40361 2.98971 2.53847e-19)
(1.41586 2.92953 0)
(0.553277 0.850209 -2.33698e-20)
(0.239329 1.23422 3.49335e-19)
(0.487481 0.479972 4.07336e-19)
(0.35687 0.245243 4.67783e-19)
(0.543097 0.407983 4.84198e-19)
(0.544952 0.490148 -7.65121e-19)
(0.547434 0.489422 6.28546e-19)
(0.506427 0.426893 -2.47453e-19)
(0.448059 0.367086 5.64346e-19)
(0.785678 0.247824 -2.38165e-19)
(0.747701 0.290273 0)
(0.731384 0.230966 1.07341e-20)
(0.716812 0.520401 2.47337e-19)
(0.68018 0.493428 -9.07768e-19)
(0.62447 0.487723 2.2545e-20)
(0.639432 0.462163 0)
(0.682009 0.739754 2.10247e-19)
(0.788046 0.785649 1.87407e-19)
(0.72319 0.837371 -2.2177e-19)
(0.850371 0.800571 -5.90343e-20)
(0.894272 0.840453 -1.97422e-21)
(0.900391 0.848661 2.02441e-21)
(0.838712 0.661281 -3.42752e-19)
(0.910845 0.712646 5.492e-20)
(0.963097 0.715018 0)
(0.958116 0.690607 -6.10657e-20)
(1.00549 0.306871 1.11933e-19)
(1.12334 0.311893 7.19316e-20)
(1.0418 0.266472 1.72731e-19)
(0.957776 0.349584 -2.32769e-19)
(1.00548 0.46147 0)
(1.09044 0.413208 0)
(0.875262 0.380106 1.11728e-20)
(0.840232 0.293082 0)
(0.864407 0.271537 2.58344e-19)
(0.888994 0.3067 7.20237e-21)
(0.913234 0.436459 1.14671e-18)
(0.848321 0.512677 2.85334e-19)
(0.86987 0.460829 -3.48886e-19)
(0.802728 0.45029 3.70122e-19)
(0.79397 0.43651 2.36227e-19)
(0.780074 0.40835 -2.31784e-19)
(1.02767 -0.000462868 3.48842e-19)
(1.02032 0.000191995 0)
(1.01883 0.00102911 2.28813e-19)
(1.02233 -0.00160593 -5.16254e-19)
(1.02238 0.00407586 2.51776e-19)
(1.02013 0.0107621 -5.27173e-19)
(1.02107 0.0104177 0)
(1.0203 0.0110678 -1.10476e-19)
(1.01639 0.00727763 2.76969e-19)
(1.01678 0.0101898 -1.38984e-19)
(1.01738 0.00973789 1.01691e-19)
(0.0504638 1.3246 0)
(0.0368758 1.37681 0)
(0.0499874 1.33783 0)
(0.02061 1.2943 0)
(0.0875966 1.36298 -4.79099e-19)
(0.0963093 1.33767 1.38234e-19)
(0.0725201 1.50908 1.12999e-19)
(0.114341 1.34371 -1.57755e-19)
(0.0272372 1.46921 3.24035e-19)
(0.0288018 1.46186 -2.52541e-19)
(0.0653811 1.35789 -2.46217e-20)
(0.0513893 1.36552 3.26881e-19)
(0.0442395 1.34877 4.86593e-20)
(0.02374 1.38819 4.3468e-20)
(0.100496 2.40399 1.22688e-19)
(0.0968892 2.4393 0)
(0.141073 2.05582 -2.03268e-21)
(0.12462 1.69579 -6.06038e-20)
(0.219693 2.03597 -2.17599e-21)
(0.217442 2.44976 0)
(0.247861 2.40708 -3.06828e-19)
(0.296653 2.40489 2.19375e-19)
(0.256021 2.01275 1.05838e-20)
(0.141981 2.18169 2.6716e-20)
(0.114016 2.29765 0)
(0.0194198 1.87625 3.23448e-19)
(-0.00777262 2.40765 2.93734e-19)
(-0.0516153 2.15558 0)
(-0.0110673 2.46854 -1.07744e-20)
(0.0115767 2.31929 -1.45235e-19)
(0.109783 1.44264 -5.56847e-20)
(0.1329 1.35754 9.60493e-19)
(0.0929811 1.4153 -3.16983e-19)
(0.112215 1.47194 -2.68429e-19)
(0.110911 1.49209 0)
(0.0908571 1.37974 0)
(-0.0626523 1.03052 -3.96613e-19)
(0.00293473 1.24249 1.26051e-19)
(0.0801431 1.31506 0)
(-0.00196162 1.0031 -2.81819e-19)
(-0.0183334 0.918631 5.72909e-19)
(1.04021 0.0125945 0)
(1.04749 0.00860972 -3.51126e-20)
(1.03937 0.0208402 -2.56228e-19)
(1.04776 0.0186122 0)
(1.05258 0.0176891 0)
(1.0352 0.0104412 -6.26914e-21)
(1.03062 0.011353 4.17321e-19)
(1.0313 0.0150588 5.05921e-19)
(1.0264 0.019148 0)
(1.02335 0.0203285 0)
(1.03513 0.0220524 2.56407e-19)
(1.02542 0.0251963 0)
(1.02549 0.0243374 0)
(-0.0787446 2.26822 0)
(-0.240337 2.07985 -1.54069e-20)
(-0.172373 2.18704 -1.64036e-19)
(0.0068683 1.26748 0)
(-0.107702 1.84951 -2.97888e-19)
(-0.106421 1.53965 1.78664e-19)
(-0.0683493 1.24314 0)
(0.407108 1.68753 0)
(0.347366 1.28062 4.69738e-19)
(0.280043 1.33802 0)
(0.416313 1.28515 -6.32288e-19)
(0.4609 1.45136 0)
(0.441056 1.38774 2.95232e-19)
(1.03506 2.70146 -7.94285e-21)
(0.96881 2.42233 -4.90535e-19)
(0.921527 2.19595 5.51083e-19)
(0.85444 2.39106 1.53377e-19)
(0.851564 2.51956 0)
(0.918027 2.51582 0)
(0.933469 2.3936 0)
(0.911817 2.37801 -5.88075e-19)
(0.698173 2.49791 -1.1243e-19)
(0.804787 2.48267 -3.86692e-20)
(0.814038 2.45791 2.93862e-20)
(0.700284 2.40381 0)
(0.803366 2.39938 0)
(0.76616 2.41215 -2.69472e-19)
(0.771326 2.50058 0)
(0.601307 1.06083 0)
(0.52461 0.900508 -2.18471e-19)
(0.52629 0.959377 -1.17199e-20)
(0.507235 1.10548 0)
(0.49477 1.01992 3.40497e-19)
(0.757174 0.871284 -3.80275e-20)
(0.768094 1.00638 0)
(0.742496 0.978642 2.13959e-20)
(0.639295 1.01688 0)
(0.634518 0.934299 0)
(1.16545 2.77295 -3.06287e-20)
(1.14172 2.83175 5.68538e-20)
(0.930976 2.36477 -1.80653e-19)
(0.904852 2.34301 3.97511e-21)
(1.13376 2.75201 0)
(1.08501 2.72218 -4.70588e-21)
(1.09998 2.51131 -1.4142e-19)
(1.00032 2.25829 -2.8514e-20)
(0.505208 1.37157 0)
(0.519943 1.09987 3.78108e-20)
(0.566017 1.164 0)
(0.883081 0.197373 0)
(0.816311 0.161555 0)
(0.756598 0.155684 0)
(0.877023 0.207531 -4.04047e-19)
(0.807414 0.210441 2.46786e-19)
(0.933429 0.0649184 -2.43299e-19)
(0.945622 0.111522 0)
(0.920892 0.115618 1.0701e-19)
(0.877797 0.0812566 4.31591e-19)
(0.855164 0.0551404 -2.67667e-19)
(1.10591 3.36751 -8.58365e-19)
(1.16952 3.29013 0)
(1.12618 3.45214 -1.87587e-18)
(0.664519 3.59704 1.58204e-18)
(1.0364 3.0977 3.23609e-19)
(0.524533 0.836418 3.27384e-19)
(0.514377 0.809366 0)
(0.3821 0.509878 -1.017e-19)
(0.455455 0.687852 5.2923e-19)
(0.514625 0.485863 -1.37977e-19)
(0.505999 0.524938 1.58768e-19)
(0.666071 0.555926 3.24716e-19)
(0.698188 0.582218 0)
(0.629218 0.622432 0)
(0.59752 0.574316 0)
(0.960044 0.602244 -3.14862e-21)
(0.899956 0.553166 -2.74782e-19)
(0.929314 0.591682 1.53823e-19)
(0.970684 0.50052 -2.04134e-19)
(1.02784 0.486407 0)
(1.039 0.592682 -3.03737e-20)
(0.831727 0.393591 -5.26417e-19)
(0.829086 0.390955 -6.47205e-19)
(0.802503 0.381276 4.15253e-19)
(0.796988 0.352707 -4.496e-19)
(0.835879 0.30821 -3.39939e-19)
(0.803546 0.307415 4.17103e-19)
(1.02632 0.00585129 -2.61074e-19)
(1.02604 0.00600561 5.27311e-19)
(1.02951 0.000277308 3.34816e-19)
(1.03358 0.000980649 -4.02512e-19)
(1.03375 0.0105598 0)
(1.02936 0.00943534 -6.53252e-19)
(0.0536011 1.66382 -4.3192e-20)
(0.0295157 1.5929 0)
(0.11323 1.70534 -3.57394e-19)
(0.0972289 1.67386 3.26515e-19)
(0.0617499 1.5435 -2.12263e-19)
(0.0499988 1.53043 0)
(0.125426 1.89369 0)
(0.0843405 1.58507 1.21213e-19)
(0.0753872 1.43366 -1.08376e-19)
(0.0123655 1.70759 3.59206e-20)
(-0.0341964 2.16369 2.0528e-19)
(-0.00537764 2.14214 -7.42052e-20)
(0.492694 1.38505 1.98732e-19)
(0.496091 1.38472 -2.10705e-19)
(0.428544 1.28324 3.1543e-19)
(0.424254 1.30066 -1.553e-20)
(0.609551 1.29219 0)
(0.538268 1.37918 4.04729e-19)
(0.540471 1.38666 -3.93388e-19)
(0.454502 1.2591 -3.02266e-19)
(0.501184 1.22308 0)
(0.570042 1.19814 0)
(0.673018 2.46018 1.65897e-19)
(0.665933 2.47961 7.88646e-19)
(0.723829 2.49351 -5.40767e-19)
(0.626566 2.46782 -1.42387e-19)
(0.553026 2.56952 1.46963e-19)
(0.493374 2.52585 -4.10549e-19)
(0.981038 2.39422 -3.06512e-19)
(1.02201 2.41688 0)
(0.935779 2.18149 -3.50103e-19)
(1.05391 2.70191 0)
(1.05436 2.6879 0)
(0.621657 2.32054 2.47441e-19)
(1.12675 3.09122 3.26627e-19)
(1.01044 2.99158 -3.97668e-19)
(0.337947 0.885366 0)
(0.357822 0.797242 -1.93698e-19)
(0.54762 0.719361 -1.48521e-19)
(0.387426 2.1684 0)
(0.412197 2.75431 -2.27702e-19)
(0.425073 2.49504 0)
(0.68391 0.701678 -4.45681e-19)
(0.738723 0.69254 6.20988e-19)
(0.743555 0.659283 -6.19946e-19)
(0.666003 0.668849 -6.10105e-20)
(0.7197 0.621106 -2.54395e-19)
(0.984132 2.77452 -2.47437e-19)
(1.01848 2.77591 9.08142e-20)
(0.57593 2.24916 3.49802e-20)
(0.622937 1.76168 -7.23839e-20)
(0.720213 1.88248 -1.49351e-19)
(0.986945 2.414 -1.06628e-19)
(0.984794 2.37091 6.20354e-20)
(0.670237 1.80233 1.11243e-20)
(0.476941 1.33187 2.49269e-20)
)
;

boundaryField
{
    wall-4
    {
        type            noSlip;
    }
    velocity-inlet-5
    {
        type            fixedValue;
        value           uniform (1 0 0);
    }
    velocity-inlet-6
    {
        type            fixedValue;
        value           uniform (0 3 0);
    }
    pressure-outlet-7
    {
        type            zeroGradient;
    }
    wall-8
    {
        type            noSlip;
    }
    frontAndBackPlanes
    {
        type            empty;
    }
}


// ************************************************************************* //
