/*--------------------------------*- C++ -*----------------------------------*\
  =========                 |
  \\      /  F ield         | OpenFOAM: The Open Source CFD Toolbox
   \\    /   O peration     | Website:  https://openfoam.org
    \\  /    A nd           | Version:  6
     \\/     M anipulation  |
\*---------------------------------------------------------------------------*/
FoamFile
{
    version     2.0;
    format      ascii;
    class       volScalarField;
    location    "0.5";
    object      Ma;
}
// * * * * * * * * * * * * * * * * * * * * * * * * * * * * * * * * * * * * * //

dimensions      [0 0 0 0 0 0 0];

internalField   nonuniform List<scalar> 
26250
(
3.04744
3.07626
3.1047
3.12614
3.14817
3.16421
3.18131
3.1937
3.20659
3.21523
3.22144
3.21703
3.19762
3.14415
2.99513
2.6437
1.82277
0.858558
0.298617
0.402618
0.503114
0.494649
0.429807
0.314357
0.241902
3.04745
3.07625
3.1047
3.12614
3.14816
3.16421
3.18132
3.19369
3.2066
3.21525
3.22158
3.21714
3.19806
3.14496
2.99724
2.64715
1.83045
0.86532
0.30966
0.410572
0.505383
0.49412
0.428772
0.313226
0.24114
3.04747
3.07622
3.10473
3.12611
3.14818
3.16415
3.18138
3.19361
3.20663
3.21537
3.22186
3.21744
3.1991
3.14687
3.00209
2.65493
1.85005
0.881837
0.32542
0.422967
0.509453
0.494563
0.429816
0.313414
0.240115
3.0475
3.07613
3.1048
3.12606
3.14817
3.16416
3.18136
3.19365
3.20664
3.21545
3.22259
3.21774
3.20295
3.14964
3.0108
2.66684
1.87067
0.919636
0.357034
0.445624
0.517598
0.499107
0.435972
0.318891
0.243227
3.04569
3.07832
3.10274
3.12825
3.14604
3.16625
3.1794
3.19533
3.20531
3.21697
3.22194
3.2212
3.20425
3.16243
3.014
2.70994
1.94651
0.927674
0.400242
0.477634
0.532624
0.514289
0.452389
0.331922
0.254152
3.04748
3.07606
3.10491
3.12592
3.14825
3.16412
3.18153
3.19344
3.20688
3.21573
3.22328
3.21835
3.21064
3.15937
3.03763
2.70977
1.96577
1.0259
0.444045
0.507871
0.54576
0.527486
0.471254
0.352516
0.276058
3.04595
3.07801
3.10286
3.12806
3.14603
3.16629
3.17929
3.19565
3.20489
3.2177
3.22259
3.22238
3.20947
3.17629
3.04458
2.77195
2.05038
1.05869
0.505593
0.545993
0.562558
0.550449
0.500001
0.384774
0.31308
3.04731
3.0761
3.10495
3.12577
3.14846
3.16388
3.18179
3.19316
3.20731
3.21565
3.22445
3.22164
3.21694
3.1748
3.07261
2.78809
2.14752
1.18589
0.573473
0.579637
0.582066
0.580668
0.53925
0.433273
0.373073
3.04715
3.07624
3.10482
3.1258
3.14844
3.16383
3.1819
3.19303
3.20759
3.21552
3.22526
3.22392
3.21958
3.18518
3.09291
2.85128
2.2682
1.33191
0.663176
0.615095
0.614002
0.62331
0.594146
0.505841
0.471736
3.04685
3.07655
3.10454
3.12607
3.14822
3.16409
3.18169
3.1933
3.20758
3.21549
3.22618
3.22638
3.22356
3.19596
3.12447
2.92169
2.42711
1.5493
0.773901
0.650111
0.655876
0.67583
0.667506
0.61444
0.647348
2.96794
2.9517
2.94147
2.93492
2.93007
2.92696
2.92433
2.92287
2.92103
2.91953
2.91379
2.90422
2.86921
2.80114
2.61804
2.1903
1.32293
0.192231
0.273128
0.0400484
0.132933
0.143142
0.110029
0.0566638
0.172533
2.96794
2.9517
2.94147
2.93492
2.93007
2.92696
2.92433
2.92286
2.92104
2.91954
2.91385
2.90436
2.8696
2.80199
2.62005
2.19428
1.32848
0.196739
0.276048
0.0631716
0.142992
0.15305
0.120789
0.0811644
0.168805
2.96795
2.9517
2.94148
2.93492
2.93007
2.92695
2.92433
2.92285
2.92104
2.91956
2.914
2.9047
2.87043
2.80407
2.62436
2.20335
1.34347
0.215348
0.268564
0.0962664
0.16152
0.174467
0.149667
0.125755
0.173821
2.96795
2.95169
2.94149
2.93491
2.93007
2.92694
2.92433
2.92284
2.92106
2.91961
2.91424
2.90527
2.87178
2.80759
2.63127
2.21853
1.37069
0.246074
0.262432
0.131498
0.184765
0.203018
0.188558
0.175289
0.192816
2.96786
2.95178
2.94145
2.93492
2.93003
2.92693
2.92429
2.92281
2.92108
2.9197
2.91475
2.9062
2.87643
2.81018
2.64441
2.23448
1.40844
0.305096
0.248868
0.168133
0.209722
0.235491
0.231383
0.225326
0.225181
2.96797
2.95171
2.94151
2.93489
2.93007
2.92693
2.92432
2.92281
2.92111
2.91976
2.91503
2.90702
2.87638
2.81903
2.65318
2.27115
1.46459
0.352657
0.254361
0.20317
0.232281
0.269844
0.277874
0.278274
0.270824
2.96791
2.95179
2.94143
2.93489
2.93003
2.92689
2.9243
2.92278
2.92113
2.91987
2.91574
2.90837
2.88292
2.8239
2.67723
2.30249
1.53668
0.445345
0.271384
0.236845
0.254189
0.307789
0.329224
0.337539
0.332634
2.968
2.95173
2.94149
2.93487
2.93007
2.92688
2.92431
2.92279
2.92116
2.91998
2.91629
2.90966
2.88424
2.83609
2.69382
2.35891
1.63965
0.535894
0.311982
0.266605
0.274989
0.350896
0.387641
0.406003
0.416061
2.96805
2.95169
2.94147
2.93486
2.93003
2.92685
2.92433
2.92278
2.9212
2.92012
2.91701
2.91115
2.88885
2.84651
2.72249
2.41986
1.77525
0.666035
0.375359
0.293653
0.298737
0.401156
0.455817
0.490259
0.533376
2.96815
2.95153
2.94155
2.93478
2.93003
2.92687
2.92432
2.92279
2.92126
2.9203
2.91779
2.91269
2.89398
2.85755
2.75326
2.48949
1.92266
0.871071
0.450929
0.317401
0.334889
0.46137
0.534866
0.596052
0.720525
2.98624
2.96973
2.95151
2.93502
2.91972
2.90685
2.89522
2.88547
2.87671
2.86954
2.86067
2.84646
2.80458
2.72716
2.53179
2.06593
1.16566
0.00904287
0.436681
0.202469
0.0314769
0.046681
0.0578684
0.0541809
0.230063
2.98621
2.96976
2.95148
2.93506
2.91967
2.90689
2.89518
2.88551
2.87668
2.86957
2.86068
2.84662
2.8048
2.7284
2.53348
2.0714
1.17598
0.0226782
0.448031
0.21682
0.0758878
0.0881966
0.100739
0.106343
0.233422
2.98625
2.96972
2.95151
2.93503
2.9197
2.90686
2.89521
2.88547
2.87672
2.86955
2.86077
2.84687
2.80586
2.73005
2.53846
2.08018
1.18941
0.0452318
0.438808
0.229421
0.124882
0.141245
0.152663
0.167129
0.244013
2.98622
2.96974
2.9515
2.93505
2.91966
2.90691
2.89516
2.88551
2.87671
2.86958
2.86086
2.84737
2.80712
2.73365
2.54566
2.09799
1.21998
0.0754263
0.429812
0.247268
0.169762
0.194393
0.206357
0.227121
0.269663
2.9862
2.96974
2.9515
2.93506
2.91963
2.90696
2.89509
2.88556
2.8767
2.8696
2.86102
2.84807
2.80899
2.73868
2.55614
2.12317
1.26352
0.112279
0.419033
0.271096
0.208365
0.243705
0.258734
0.285424
0.30736
2.98624
2.96969
2.95155
2.93501
2.91966
2.90693
2.8951
2.88555
2.87674
2.86958
2.86127
2.84892
2.81169
2.74475
2.57031
2.15345
1.31488
0.166581
0.400196
0.299902
0.241083
0.291005
0.312485
0.345983
0.356755
2.98622
2.96969
2.95158
2.93497
2.91969
2.90693
2.89507
2.88561
2.87672
2.86961
2.86159
2.85
2.81478
2.75323
2.58722
2.19381
1.38594
0.242538
0.385981
0.333597
0.268159
0.337993
0.369869
0.411795
0.420749
2.98624
2.96966
2.95162
2.9349
2.91977
2.90686
2.89513
2.8856
2.87674
2.86966
2.86196
2.85115
2.81919
2.76337
2.60712
2.24572
1.48004
0.347885
0.383827
0.369538
0.290229
0.386893
0.432128
0.484861
0.503955
2.98618
2.96972
2.95158
2.93489
2.91981
2.9068
2.89522
2.88557
2.87679
2.86971
2.86221
2.85235
2.82433
2.77451
2.63543
2.30863
1.61219
0.483651
0.406339
0.399487
0.311226
0.438806
0.502709
0.565758
0.618665
2.98622
2.96967
2.95159
2.93487
2.91986
2.90675
2.89534
2.88547
2.87693
2.86964
2.86258
2.85349
2.82998
2.78584
2.66867
2.37782
1.77062
0.674782
0.441655
0.41495
0.339639
0.494896
0.582961
0.663123
0.801581
2.96796
2.95169
2.94149
2.93491
2.93006
2.92696
2.92432
2.92286
2.92104
2.91953
2.91385
2.90445
2.86968
2.80259
2.62069
2.19559
1.33554
0.200165
0.265859
0.04399
0.118501
0.138656
0.105739
0.0555136
0.170418
2.96784
2.95177
2.94145
2.93494
2.93002
2.92697
2.92428
2.92284
2.92104
2.91957
2.91409
2.90477
2.87258
2.80122
2.62525
2.19251
1.33849
0.223017
0.247491
0.0687913
0.128977
0.153004
0.118674
0.0809198
0.169751
2.96796
2.9517
2.94149
2.93492
2.93005
2.92696
2.9243
2.92286
2.92105
2.91956
2.91406
2.90493
2.87085
2.80551
2.62672
2.20761
1.35751
0.22241
0.259143
0.0979472
0.150421
0.173431
0.147463
0.125118
0.173554
2.96787
2.95177
2.94145
2.93492
2.93003
2.92694
2.92429
2.92282
2.92106
2.91963
2.91443
2.90557
2.87466
2.80625
2.63629
2.215
1.37985
0.267897
0.242309
0.131615
0.177857
0.202751
0.186526
0.174305
0.192253
2.9679
2.95176
2.94145
2.93491
2.93003
2.92692
2.92429
2.92281
2.92107
2.91967
2.91473
2.90627
2.87648
2.81081
2.64612
2.23629
1.41959
0.311928
0.238733
0.167459
0.204345
0.23429
0.228887
0.224196
0.224868
2.9679
2.95177
2.94145
2.9349
2.93003
2.92691
2.92429
2.9228
2.9211
2.91976
2.91518
2.90718
2.87923
2.81649
2.65965
2.26487
1.47075
0.370064
0.244139
0.203373
0.229474
0.268512
0.27528
0.276945
0.270691
2.96798
2.95172
2.94151
2.93488
2.93006
2.92691
2.92431
2.9228
2.92113
2.91986
2.91558
2.90816
2.87976
2.82665
2.66972
2.31044
1.54072
0.431719
0.267422
0.236491
0.251516
0.305791
0.326634
0.336008
0.332425
2.96799
2.95173
2.9415
2.93487
2.93007
2.92687
2.92431
2.92279
2.92116
2.91998
2.91626
2.90955
2.88403
2.83556
2.69311
2.35764
1.63744
0.533153
0.310835
0.265794
0.272695
0.348625
0.38522
0.404476
0.415697
2.96805
2.95168
2.94148
2.93486
2.93004
2.92685
2.92433
2.92278
2.9212
2.92012
2.91698
2.9111
2.88868
2.84619
2.72171
2.41848
1.77325
0.665078
0.375329
0.293335
0.297301
0.39929
0.453797
0.488751
0.533058
2.96815
2.95152
2.94156
2.93477
2.93003
2.92687
2.92432
2.92279
2.92126
2.92029
2.91777
2.91265
2.89389
2.85732
2.75274
2.4882
1.92091
0.868717
0.451375
0.318142
0.334663
0.460448
0.533567
0.595164
0.720112
3.04748
3.07621
3.10472
3.12616
3.14806
3.16429
3.18125
3.19365
3.20675
3.2153
3.22235
3.21756
3.20126
3.14571
3.00332
2.6512
1.83442
0.882471
0.316846
0.409653
0.498445
0.485551
0.420428
0.306853
0.237339
3.04558
3.07837
3.10283
3.1282
3.14622
3.16609
3.17964
3.19505
3.20542
3.21694
3.2211
3.2201
3.2012
3.1557
2.99551
2.67839
1.89419
0.856804
0.341004
0.428886
0.5083
0.498072
0.430734
0.313062
0.242758
3.04747
3.07622
3.10472
3.1262
3.14795
3.16442
3.18113
3.1938
3.20668
3.21528
3.22266
3.21735
3.20485
3.14828
3.01174
2.66127
1.84198
0.914088
0.336493
0.428452
0.508515
0.492762
0.428389
0.312985
0.241493
3.04598
3.07782
3.10342
3.12734
3.14709
3.16515
3.18031
3.19477
3.20537
3.21713
3.22138
3.22054
3.20236
3.15576
3.00494
2.69394
1.92975
0.903792
0.37524
0.455982
0.520349
0.503302
0.438714
0.319411
0.244511
3.0463
3.07743
3.10365
3.1271
3.14717
3.16511
3.18031
3.19476
3.20546
3.21713
3.22168
3.221
3.2037
3.15665
3.01483
2.71042
1.95658
0.945056
0.405183
0.477458
0.529334
0.512023
0.450344
0.329737
0.253876
3.04617
3.07762
3.10348
3.12723
3.14711
3.16502
3.18056
3.19442
3.20581
3.21703
3.22229
3.22174
3.20609
3.16496
3.02784
2.73691
1.99576
0.995889
0.448997
0.507907
0.544462
0.52767
0.469941
0.349282
0.274966
3.04748
3.07599
3.10497
3.12584
3.14827
3.16409
3.18151
3.19341
3.20701
3.21575
3.22369
3.21917
3.21262
3.16582
3.05218
2.74222
2.05487
1.09009
0.499314
0.54176
0.560833
0.548186
0.497715
0.381313
0.311573
3.04734
3.07604
3.10503
3.12568
3.14849
3.16381
3.18176
3.19319
3.20725
3.21569
3.22437
3.22115
3.21452
3.17449
3.0678
2.78872
2.14902
1.18109
0.572721
0.579518
0.580797
0.578505
0.536761
0.430176
0.371491
3.04713
3.07624
3.10484
3.12579
3.14846
3.16381
3.18191
3.19304
3.20755
3.21559
3.22515
3.22372
3.21931
3.18462
3.09172
2.8487
2.26494
1.32936
0.663252
0.616062
0.613502
0.621814
0.592002
0.503476
0.470179
3.04685
3.07654
3.10457
3.12604
3.14826
3.16405
3.18172
3.19326
3.2076
3.21547
3.22615
3.22605
3.2236
3.19507
3.12328
2.91881
2.42204
1.54442
0.773065
0.651051
0.656116
0.675884
0.666254
0.612415
0.645987
3.04569
3.07765
3.10333
3.1275
3.14678
3.16582
3.18
3.19523
3.20557
3.21767
3.22412
3.22954
3.22418
3.2083
3.14436
3.00165
2.59395
1.79001
0.905846
0.685906
0.698413
0.732648
0.752358
0.763582
0.845654
3.04701
3.07635
3.10453
3.12621
3.148
3.16457
3.1813
3.19394
3.20702
3.21612
3.22606
3.2293
3.22834
3.21171
3.1706
3.03592
2.74057
2.02983
1.07182
0.718868
0.748792
0.790595
0.82937
0.876937
0.980418
3.04547
3.07824
3.10271
3.12813
3.14633
3.16607
3.18006
3.19507
3.2058
3.21746
3.22496
3.23184
3.22858
3.21998
3.17554
3.08148
2.79117
2.21078
1.26044
0.798628
0.802313
0.842943
0.891557
0.950737
1.05003
3.04667
3.07703
3.10416
3.12682
3.14753
3.16504
3.1809
3.19388
3.20703
3.21602
3.226
3.2313
3.23106
3.22045
3.18953
3.09596
2.87442
2.31859
1.40982
0.912074
0.875158
0.901476
0.941036
1.00069
1.09042
3.04703
3.07681
3.10411
3.12687
3.14735
3.16511
3.1806
3.19427
3.20656
3.21605
3.2269
3.23099
3.23235
3.2264
3.20259
3.12395
2.94938
2.4684
1.6175
1.04724
0.961883
0.96367
0.992271
1.0456
1.12711
3.04632
3.07736
3.1034
3.12747
3.14659
3.16579
3.17995
3.19516
3.20544
3.21801
3.22467
3.23442
3.23458
3.23245
3.21306
3.15709
3.01569
2.67376
1.95213
1.22662
1.05362
1.04022
1.05888
1.10394
1.17865
3.0463
3.07701
3.10379
3.12701
3.14708
3.16553
3.18035
3.19486
3.20603
3.21736
3.22537
3.23429
3.23725
3.23668
3.22364
3.18772
3.08577
2.85791
2.26776
1.46613
1.151
1.11596
1.12626
1.16377
1.22574
3.04579
3.07757
3.10376
3.12695
3.14768
3.16488
3.18097
3.19439
3.20622
3.21717
3.22561
3.23408
3.23872
3.23852
3.23097
3.20517
3.1386
2.9596
2.53619
1.76552
1.26588
1.18157
1.18423
1.21217
1.26807
3.04586
3.07803
3.10312
3.12776
3.1467
3.16552
3.18055
3.19431
3.20652
3.21696
3.22571
3.23442
3.23942
3.24115
3.23782
3.22046
3.18167
3.05072
2.79021
2.10641
1.46036
1.28199
1.26323
1.27797
1.31719
3.04683
3.07679
3.10409
3.12684
3.14725
3.16521
3.1806
3.19428
3.20662
3.21649
3.22638
3.2337
3.24096
3.24456
3.24432
3.23565
3.21253
3.13617
2.97177
2.50399
1.78469
1.40143
1.33946
1.33831
1.36162
3.04602
3.07741
3.10375
3.12708
3.14718
3.16547
3.18019
3.19503
3.20579
3.21744
3.22558
3.23465
3.24018
3.2472
3.24741
3.24589
3.23067
3.19244
3.07859
2.81558
2.23336
1.5898
1.42131
1.41203
1.42503
3.04643
3.07727
3.10387
3.12694
3.14754
3.16473
3.18122
3.19372
3.20705
3.21612
3.22677
3.23336
3.2414
3.24658
3.2505
3.24845
3.24262
3.22132
3.15631
3.01227
2.6058
1.9749
1.54931
1.47901
1.47955
3.04617
3.07737
3.10369
3.12727
3.14699
3.16564
3.18016
3.19495
3.20594
3.21713
3.22604
3.23386
3.24122
3.2469
3.25139
3.25235
3.24964
3.23803
3.20909
3.11271
2.92669
2.39313
1.81666
1.58366
1.54862
3.04608
3.07744
3.10371
3.1271
3.14734
3.16515
3.1807
3.19457
3.20604
3.21743
3.22541
3.23473
3.24035
3.24765
3.25175
3.25574
3.25449
3.25073
3.23609
3.18685
3.08438
2.7827
2.26778
1.74372
1.62912
3.04625
3.0774
3.10362
3.12729
3.14702
3.16542
3.1805
3.19447
3.20641
3.21678
3.22611
3.23413
3.24073
3.24751
3.25183
3.257
3.25814
3.2577
3.24967
3.22955
3.16853
3.04232
2.66052
2.0995
1.75343
3.04633
3.0773
3.10374
3.12715
3.14716
3.1653
3.18051
3.19462
3.20607
3.21723
3.22573
3.23423
3.24103
3.2469
3.25259
3.25664
3.26002
3.26002
3.2578
3.24634
3.2236
3.14102
2.98612
2.53095
2.04367
3.04622
3.07743
3.10363
3.12726
3.1471
3.16533
3.18058
3.19446
3.20634
3.21692
3.22596
3.23424
3.24069
3.24753
3.25189
3.25728
3.26047
3.26332
3.26231
3.25933
3.24849
3.20944
3.13596
2.91768
2.50742
3.04634
3.07722
3.10385
3.127
3.14733
3.16515
3.18065
3.1945
3.20619
3.2171
3.22585
3.23415
3.24104
3.24699
3.25243
3.25699
3.26056
3.26444
3.26524
3.26442
3.26031
3.24414
3.21158
3.11642
2.89278
3.04634
3.07723
3.10383
3.12702
3.14731
3.16517
3.18064
3.19449
3.20624
3.21703
3.22591
3.23418
3.24087
3.24732
3.25207
3.25718
3.26075
3.26424
3.26699
3.26782
3.26666
3.26008
3.24809
3.19939
3.11191
3.04632
3.07726
3.10381
3.12705
3.14727
3.16521
3.1806
3.19453
3.20619
3.21708
3.22587
3.23418
3.24094
3.24714
3.25233
3.25696
3.26078
3.26454
3.26685
3.26976
3.26967
3.2686
3.26332
3.24715
3.20598
3.04633
3.07725
3.10383
3.12701
3.14734
3.1651
3.18075
3.19433
3.20643
3.21683
3.2261
3.23401
3.24101
3.24718
3.25219
3.25712
3.2607
3.26441
3.26726
3.26969
3.27168
3.27178
3.27071
3.26413
3.25185
3.04633
3.07725
3.10383
3.12702
3.14733
3.16512
3.18073
3.19438
3.20637
3.21692
3.226
3.23412
3.24092
3.24723
3.2522
3.25704
3.26083
3.26433
3.26719
3.26999
3.2717
3.27379
3.27352
3.27258
3.26782
3.04633
3.07725
3.10383
3.12702
3.14733
3.16512
3.18072
3.19438
3.20637
3.2169
3.22603
3.23406
3.24101
3.24712
3.25231
3.25696
3.26086
3.26436
3.26715
3.26994
3.27196
3.2738
3.27535
3.27543
3.27437
3.04633
3.07725
3.10383
3.12702
3.14733
3.16512
3.18072
3.19437
3.20638
3.21689
3.22605
3.23402
3.24105
3.24706
3.25239
3.25687
3.26095
3.26427
3.26725
3.26986
3.27198
3.27395
3.2754
3.27695
3.27684
3.04633
3.07725
3.10383
3.12702
3.14733
3.16512
3.18072
3.19437
3.20638
3.21689
3.22605
3.23404
3.24103
3.2471
3.25233
3.25694
3.26087
3.26435
3.26717
3.26994
3.2719
3.27401
3.27546
3.27702
3.27804
3.04633
3.07725
3.10383
3.12702
3.14733
3.16512
3.18072
3.19438
3.20637
3.21689
3.22604
3.23404
3.24103
3.2471
3.25234
3.25692
3.26091
3.26428
3.26728
3.2698
3.27206
3.27384
3.27561
3.27694
3.27818
3.04633
3.07725
3.10383
3.12702
3.14733
3.16512
3.18072
3.19438
3.20637
3.21689
3.22604
3.23404
3.24103
3.2471
3.25234
3.25692
3.26091
3.26429
3.26726
3.26983
3.27202
3.2739
3.27554
3.27703
3.27809
3.04633
3.07725
3.10383
3.12702
3.14733
3.16512
3.18072
3.19438
3.20637
3.21689
3.22604
3.23404
3.24103
3.2471
3.25234
3.25692
3.26091
3.26429
3.26725
3.26984
3.27201
3.2739
3.27556
3.27698
3.27818
3.04633
3.07725
3.10383
3.12702
3.14733
3.16512
3.18072
3.19438
3.20637
3.21689
3.22604
3.23404
3.24103
3.2471
3.25234
3.25692
3.26091
3.26429
3.26725
3.26984
3.27201
3.2739
3.27556
3.27698
3.27818
3.04633
3.07725
3.10383
3.12702
3.14733
3.16512
3.18072
3.19438
3.20637
3.21689
3.22604
3.23404
3.24103
3.2471
3.25234
3.25692
3.26091
3.26429
3.26725
3.26984
3.27201
3.2739
3.27556
3.27698
3.27817
3.04633
3.07725
3.10383
3.12702
3.14733
3.16512
3.18072
3.19438
3.20637
3.21689
3.22604
3.23404
3.24103
3.2471
3.25234
3.25692
3.26091
3.26429
3.26725
3.26984
3.27201
3.2739
3.27556
3.27698
3.27817
3.04633
3.07725
3.10383
3.12702
3.14733
3.16512
3.18072
3.19438
3.20637
3.21689
3.22604
3.23404
3.24103
3.2471
3.25234
3.25692
3.26091
3.26429
3.26725
3.26984
3.27201
3.2739
3.27556
3.27698
3.27817
3.04633
3.07725
3.10383
3.12702
3.14733
3.16512
3.18072
3.19438
3.20637
3.21689
3.22604
3.23404
3.24103
3.2471
3.25234
3.25692
3.26091
3.26429
3.26725
3.26984
3.27201
3.2739
3.27556
3.27698
3.27817
3.04633
3.07725
3.10383
3.12702
3.14733
3.16512
3.18072
3.19438
3.20637
3.21689
3.22604
3.23404
3.24103
3.2471
3.25234
3.25692
3.26091
3.26429
3.26725
3.26984
3.27201
3.2739
3.27556
3.27698
3.27817
3.04633
3.07725
3.10383
3.12702
3.14733
3.16512
3.18072
3.19438
3.20637
3.21689
3.22604
3.23404
3.24103
3.2471
3.25234
3.25692
3.26091
3.26429
3.26725
3.26984
3.27201
3.2739
3.27556
3.27698
3.27817
3.04633
3.07725
3.10383
3.12702
3.14733
3.16512
3.18072
3.19438
3.20637
3.21689
3.22604
3.23404
3.24103
3.2471
3.25234
3.25692
3.26091
3.26429
3.26725
3.26984
3.27201
3.2739
3.27556
3.27698
3.27817
3.04633
3.07725
3.10383
3.12702
3.14733
3.16512
3.18072
3.19438
3.20637
3.21689
3.22604
3.23404
3.24103
3.2471
3.25234
3.25692
3.26091
3.26429
3.26725
3.26984
3.27201
3.2739
3.27556
3.27698
3.27817
3.04633
3.07725
3.10383
3.12702
3.14733
3.16512
3.18072
3.19438
3.20637
3.21689
3.22604
3.23404
3.24103
3.2471
3.25234
3.25692
3.26091
3.26429
3.26725
3.26984
3.27201
3.2739
3.27556
3.27698
3.27817
3.04633
3.07725
3.10383
3.12702
3.14733
3.16512
3.18072
3.19438
3.20637
3.21689
3.22604
3.23404
3.24103
3.2471
3.25234
3.25692
3.26091
3.26429
3.26725
3.26984
3.27201
3.2739
3.27556
3.27698
3.27817
3.04633
3.07725
3.10383
3.12702
3.14733
3.16512
3.18072
3.19438
3.20637
3.21689
3.22604
3.23404
3.24103
3.2471
3.25234
3.25692
3.26091
3.26429
3.26725
3.26984
3.27201
3.2739
3.27556
3.27698
3.27817
2.96805
2.95147
2.94167
2.93459
2.93029
2.92662
2.92459
2.92252
2.92153
2.92001
2.91858
2.91238
2.90103
2.86553
2.7784
2.58075
2.05406
1.14002
0.525139
0.342071
0.389945
0.530444
0.623654
0.72075
0.906907
2.9681
2.95148
2.94166
2.93459
2.9303
2.92662
2.92462
2.92256
2.92156
2.92009
2.91875
2.91359
2.90405
2.87497
2.80411
2.64766
2.21757
1.40562
0.593933
0.370596
0.45678
0.603066
0.703263
0.817276
1.00038
2.96798
2.95156
2.94152
2.93469
2.93019
2.92669
2.9246
2.92259
2.92157
2.92013
2.91894
2.91447
2.90659
2.87952
2.82573
2.68287
2.34762
1.61673
0.680846
0.41322
0.535872
0.669457
0.765506
0.878132
1.03236
2.96791
2.95164
2.94154
2.93477
2.9302
2.92679
2.92457
2.92263
2.92156
2.92017
2.91915
2.91553
2.90876
2.88735
2.83872
2.72008
2.4278
1.78828
0.845168
0.496142
0.618533
0.715781
0.804771
0.911936
1.04502
2.96792
2.95175
2.94141
2.93495
2.93001
2.92699
2.92434
2.92281
2.92136
2.92038
2.91924
2.91738
2.90972
2.89537
2.8538
2.74766
2.52214
1.93837
1.0511
0.618919
0.681562
0.739248
0.827035
0.932156
1.05247
2.96796
2.95174
2.94135
2.93496
2.92993
2.92695
2.92437
2.9227
2.92149
2.92023
2.91951
2.91754
2.91315
2.89805
2.86765
2.78757
2.58492
2.14454
1.26654
0.774059
0.724287
0.770561
0.84538
0.945221
1.05691
2.96808
2.95152
2.94153
2.93479
2.93003
2.92694
2.92431
2.92285
2.92131
2.92043
2.91959
2.91837
2.91518
2.90353
2.88349
2.81875
2.67775
2.32868
1.61319
0.95235
0.788924
0.819579
0.876662
0.967934
1.06802
2.96805
2.95148
2.9416
2.93468
2.93016
2.92683
2.92441
2.9228
2.92135
2.92049
2.91943
2.91874
2.91593
2.91064
2.89312
2.85255
2.74992
2.49483
1.93194
1.16957
0.873429
0.881077
0.92445
0.999203
1.08356
2.96792
2.95164
2.94153
2.93473
2.93021
2.92673
2.92455
2.92268
2.92141
2.92049
2.91947
2.91891
2.91718
2.91363
2.90029
2.8749
2.79962
2.62383
2.20592
1.45152
1.01405
0.954313
0.980301
1.0326
1.10312
2.96793
2.9517
2.94146
2.93485
2.93009
2.92684
2.92449
2.92264
2.92153
2.92028
2.91967
2.9189
2.91813
2.91585
2.90698
2.89257
2.84142
2.73683
2.4536
1.87337
1.21248
1.04902
1.04887
1.07792
1.1295
2.96796
2.95167
2.94144
2.93486
2.93002
2.92691
2.92437
2.92276
2.92142
2.92036
2.91967
2.91885
2.9184
2.91676
2.91311
2.90093
2.87478
2.80269
2.62655
2.2108
1.51103
1.17666
1.11857
1.12693
1.16085
2.96802
2.95158
2.94156
2.93475
2.93016
2.92681
2.92444
2.92277
2.92135
2.92048
2.91954
2.91897
2.91843
2.91775
2.91568
2.90801
2.89452
2.85088
2.75217
2.50303
1.96562
1.3636
1.20971
1.1944
1.21033
2.96792
2.95169
2.94149
2.9348
2.93017
2.92677
2.92453
2.92266
2.92146
2.92038
2.9196
2.91899
2.91834
2.918
2.91661
2.91362
2.90366
2.88166
2.8231
2.67579
2.32291
1.6993
1.33595
1.26376
1.2627
2.96793
2.95164
2.94149
2.93482
2.93009
2.92687
2.92442
2.92275
2.92143
2.92036
2.91968
2.91887
2.91851
2.91789
2.91743
2.91534
2.91106
2.89719
2.86784
2.78497
2.604
2.13589
1.57942
1.37039
1.32751
2.96798
2.95161
2.94153
2.93476
2.93015
2.92681
2.92446
2.92274
2.9214
2.92043
2.91958
2.91896
2.91847
2.91793
2.91767
2.91671
2.91461
2.90659
2.8929
2.84679
2.75177
2.49151
1.99177
1.5326
1.41822
2.96799
2.95162
2.94152
2.93478
2.93014
2.92681
2.92448
2.92269
2.92146
2.92037
2.91962
2.91896
2.91841
2.91804
2.9176
2.91727
2.91624
2.91208
2.90508
2.88209
2.82964
2.71024
2.37573
1.85803
1.53853
2.96797
2.95164
2.9415
2.9348
2.93012
2.92684
2.92445
2.92274
2.92141
2.92041
2.91961
2.91893
2.91848
2.91795
2.91769
2.91729
2.91685
2.91492
2.91166
2.89876
2.87719
2.80241
2.66679
2.24898
1.81897
2.96798
2.95162
2.94152
2.93478
2.93013
2.92682
2.92446
2.92273
2.92142
2.92041
2.91959
2.91898
2.91841
2.91804
2.91762
2.91735
2.91706
2.91653
2.91429
2.91035
2.89647
2.87029
2.78989
2.62914
2.18282
2.96797
2.95163
2.9415
2.9348
2.93011
2.92684
2.92444
2.92274
2.92142
2.9204
2.91961
2.91894
2.91846
2.91799
2.91766
2.91734
2.91706
2.91686
2.91624
2.91375
2.90949
2.89461
2.86517
2.78428
2.59307
2.96797
2.95163
2.9415
2.9348
2.93012
2.92683
2.92446
2.92272
2.92143
2.92039
2.91961
2.91896
2.91843
2.91801
2.91765
2.91733
2.91711
2.91682
2.91663
2.91577
2.91412
2.90748
2.89643
2.85764
2.78256
2.96797
2.95163
2.9415
2.9348
2.93012
2.92683
2.92446
2.92272
2.92142
2.9204
2.91961
2.91896
2.91843
2.91801
2.91764
2.91734
2.91708
2.91687
2.9167
2.9165
2.91586
2.91328
2.90904
2.89376
2.86348
2.96797
2.95163
2.9415
2.9348
2.93012
2.92683
2.92446
2.92273
2.92142
2.9204
2.9196
2.91896
2.91843
2.91802
2.91764
2.91734
2.9171
2.91685
2.91671
2.91653
2.91637
2.91558
2.91405
2.90829
2.89788
2.96797
2.95163
2.9415
2.9348
2.93012
2.92683
2.92446
2.92272
2.92143
2.9204
2.91961
2.91896
2.91843
2.91801
2.91764
2.91734
2.91709
2.91686
2.9167
2.91655
2.91644
2.91629
2.91579
2.91375
2.91037
2.96797
2.95163
2.9415
2.9348
2.93012
2.92683
2.92446
2.92272
2.92143
2.9204
2.91961
2.91896
2.91843
2.91802
2.91764
2.91734
2.91709
2.91687
2.9167
2.91655
2.91645
2.91633
2.91624
2.91571
2.91463
2.96797
2.95163
2.9415
2.9348
2.93012
2.92683
2.92446
2.92272
2.92143
2.9204
2.91961
2.91896
2.91843
2.91801
2.91764
2.91734
2.91709
2.91686
2.9167
2.91655
2.91644
2.91635
2.91628
2.91621
2.91594
2.96797
2.95163
2.9415
2.9348
2.93012
2.92683
2.92446
2.92272
2.92143
2.9204
2.91961
2.91896
2.91843
2.91801
2.91764
2.91734
2.91709
2.91686
2.9167
2.91655
2.91645
2.91635
2.9163
2.91623
2.9162
2.96797
2.95163
2.9415
2.9348
2.93012
2.92683
2.92446
2.92272
2.92143
2.9204
2.91961
2.91896
2.91843
2.91801
2.91764
2.91734
2.91709
2.91686
2.9167
2.91655
2.91644
2.91636
2.91629
2.91624
2.91622
2.96797
2.95163
2.9415
2.9348
2.93012
2.92683
2.92446
2.92272
2.92143
2.9204
2.91961
2.91896
2.91843
2.91801
2.91764
2.91734
2.91709
2.91686
2.9167
2.91655
2.91644
2.91636
2.91629
2.91624
2.91623
2.96797
2.95163
2.9415
2.9348
2.93012
2.92683
2.92446
2.92272
2.92143
2.9204
2.91961
2.91896
2.91843
2.91801
2.91764
2.91734
2.91709
2.91686
2.9167
2.91655
2.91644
2.91636
2.91629
2.91624
2.91623
2.96797
2.95163
2.9415
2.9348
2.93012
2.92683
2.92446
2.92272
2.92143
2.9204
2.91961
2.91896
2.91843
2.91801
2.91764
2.91734
2.91709
2.91686
2.9167
2.91655
2.91644
2.91636
2.91629
2.91624
2.91623
2.96797
2.95163
2.9415
2.9348
2.93012
2.92683
2.92446
2.92272
2.92143
2.9204
2.91961
2.91896
2.91843
2.91801
2.91764
2.91734
2.91709
2.91686
2.9167
2.91655
2.91644
2.91636
2.91629
2.91624
2.91623
2.96797
2.95163
2.9415
2.9348
2.93012
2.92683
2.92446
2.92272
2.92143
2.9204
2.91961
2.91896
2.91843
2.91801
2.91764
2.91734
2.91709
2.91686
2.9167
2.91655
2.91644
2.91636
2.91629
2.91624
2.91623
2.96797
2.95163
2.9415
2.9348
2.93012
2.92683
2.92446
2.92272
2.92143
2.9204
2.91961
2.91896
2.91843
2.91801
2.91764
2.91734
2.91709
2.91686
2.9167
2.91655
2.91644
2.91636
2.91629
2.91624
2.91623
2.96797
2.95163
2.9415
2.9348
2.93012
2.92683
2.92446
2.92272
2.92143
2.9204
2.91961
2.91896
2.91843
2.91801
2.91764
2.91734
2.91709
2.91686
2.9167
2.91655
2.91644
2.91636
2.91629
2.91624
2.91623
2.96797
2.95163
2.9415
2.9348
2.93012
2.92683
2.92446
2.92272
2.92143
2.9204
2.91961
2.91896
2.91843
2.91801
2.91764
2.91734
2.91709
2.91686
2.9167
2.91655
2.91644
2.91636
2.91629
2.91624
2.91623
2.96797
2.95163
2.9415
2.9348
2.93012
2.92683
2.92446
2.92272
2.92143
2.9204
2.91961
2.91896
2.91843
2.91801
2.91764
2.91734
2.91709
2.91686
2.9167
2.91655
2.91644
2.91636
2.91629
2.91624
2.91623
2.96797
2.95163
2.9415
2.9348
2.93012
2.92683
2.92446
2.92272
2.92143
2.9204
2.91961
2.91896
2.91843
2.91801
2.91764
2.91734
2.91709
2.91686
2.9167
2.91655
2.91644
2.91636
2.91629
2.91624
2.91623
2.96797
2.95163
2.9415
2.9348
2.93012
2.92683
2.92446
2.92272
2.92143
2.9204
2.91961
2.91896
2.91843
2.91801
2.91764
2.91734
2.91709
2.91686
2.9167
2.91655
2.91644
2.91636
2.91629
2.91624
2.91623
2.96797
2.95163
2.9415
2.9348
2.93012
2.92683
2.92446
2.92272
2.92143
2.9204
2.91961
2.91896
2.91843
2.91801
2.91764
2.91734
2.91709
2.91686
2.9167
2.91655
2.91644
2.91636
2.91629
2.91624
2.91623
2.96797
2.95163
2.9415
2.9348
2.93012
2.92683
2.92446
2.92272
2.92143
2.9204
2.91961
2.91896
2.91843
2.91801
2.91764
2.91734
2.91709
2.91686
2.9167
2.91655
2.91644
2.91636
2.91629
2.91624
2.91623
2.98631
2.96957
2.9518
2.93468
2.92011
2.90652
2.89553
2.88529
2.87711
2.8694
2.86336
2.85381
2.83818
2.79329
2.69801
2.46828
1.90719
0.928737
0.47911
0.42256
0.383303
0.557399
0.664778
0.768842
0.990224
2.98642
2.96951
2.95179
2.9347
2.92009
2.90649
2.89563
2.88516
2.87721
2.86943
2.8633
2.85526
2.84171
2.80279
2.72712
2.53776
2.08147
1.18438
0.511079
0.419257
0.443446
0.620146
0.740923
0.859905
1.06885
2.98629
2.96975
2.95159
2.93505
2.91974
2.90692
2.89521
2.88552
2.87686
2.86972
2.86297
2.85586
2.84162
2.81519
2.74765
2.58051
2.24086
1.42944
0.555971
0.417391
0.517343
0.679741
0.79901
0.917873
1.08354
2.98641
2.96965
2.95167
2.93496
2.91978
2.90692
2.89514
2.88558
2.87681
2.86978
2.86299
2.8566
2.84408
2.82158
2.7634
2.6225
2.33287
1.63751
0.658186
0.452956
0.596121
0.72389
0.834695
0.950149
1.08407
2.98625
2.9697
2.95142
2.93515
2.91943
2.90716
2.89486
2.88584
2.87658
2.87005
2.86315
2.85743
2.84845
2.82614
2.77843
2.67168
2.38919
1.82642
0.83587
0.52611
0.658815
0.739824
0.85151
0.965168
1.08205
2.98674
2.96917
2.95199
2.93455
2.9201
2.90651
2.89554
2.88523
2.87716
2.86955
2.86362
2.85734
2.84958
2.82931
2.79349
2.70013
2.47422
1.99643
1.05178
0.64436
0.688225
0.742857
0.85173
0.970961
1.08339
2.98652
2.96934
2.95197
2.93454
2.92018
2.90647
2.89558
2.8852
2.87725
2.86944
2.86377
2.85757
2.85111
2.83555
2.80973
2.7356
2.56896
2.17367
1.37254
0.805213
0.711001
0.763967
0.859969
0.973739
1.08219
2.98626
2.96972
2.95159
2.93497
2.91984
2.90672
2.89546
2.88521
2.87723
2.86948
2.86374
2.85784
2.85256
2.84161
2.82343
2.76958
2.6527
2.37907
1.75979
0.980244
0.760825
0.808815
0.88168
0.977897
1.07862
2.98637
2.96963
2.95169
2.93489
2.91984
2.90676
2.89529
2.88541
2.877
2.86967
2.86371
2.85791
2.85358
2.84547
2.83218
2.79412
2.70903
2.51728
2.01144
1.20293
0.86313
0.86898
0.914189
0.99006
1.07532
2.98642
2.96953
2.95169
2.93489
2.91976
2.90691
2.8951
2.88567
2.87677
2.86992
2.86344
2.85841
2.8534
2.84825
2.8365
2.81664
2.75556
2.62364
2.29204
1.60314
1.03453
0.935053
0.960093
1.01155
1.08029
2.98647
2.9694
2.95188
2.93469
2.92002
2.90663
2.8954
2.88535
2.87701
2.86973
2.8635
2.85845
2.8535
2.84955
2.84216
2.82878
2.79261
2.70579
2.51457
2.00454
1.26676
1.03602
1.01893
1.04564
1.09376
2.98636
2.96963
2.95164
2.9349
2.91985
2.9067
2.89539
2.88528
2.87712
2.86959
2.86369
2.85823
2.8539
2.84966
2.84507
2.83451
2.81618
2.76091
2.63858
2.33153
1.67113
1.18257
1.0873
1.09251
1.12067
2.98633
2.96962
2.95164
2.93495
2.91977
2.90687
2.89522
2.88549
2.87692
2.86978
2.86354
2.85831
2.85393
2.84976
2.84641
2.84017
2.82878
2.79825
2.72372
2.55906
2.10143
1.43254
1.18999
1.14974
1.1635
2.98654
2.9694
2.95187
2.93468
2.92005
2.90656
2.89549
2.88525
2.8771
2.86963
2.86363
2.85828
2.85387
2.84998
2.84666
2.84273
2.83498
2.81939
2.77897
2.67739
2.44811
1.90017
1.36226
1.23327
1.2158
2.98638
2.96956
2.95168
2.9349
2.91982
2.9068
2.89531
2.88539
2.87704
2.86968
2.8636
2.85834
2.85379
2.85015
2.84657
2.84389
2.83901
2.83059
2.8074
2.75346
2.63367
2.28944
1.68866
1.34505
1.28252
2.98633
2.96963
2.95164
2.93492
2.91982
2.90679
2.89529
2.88545
2.87693
2.8698
2.86353
2.8583
2.85394
2.84991
2.84691
2.84383
2.84097
2.8352
2.82482
2.79501
2.72634
2.56817