/*--------------------------------*- C++ -*----------------------------------*\
  =========                 |
  \\      /  F ield         | OpenFOAM: The Open Source CFD Toolbox
   \\    /   O peration     | Website:  https://openfoam.org
    \\  /    A nd           | Version:  6
     \\/     M anipulation  |
\*---------------------------------------------------------------------------*/
FoamFile
{
    version     2.0;
    format      ascii;
    class       volScalarField;
    location    "0.5";
    object      p;
}
// * * * * * * * * * * * * * * * * * * * * * * * * * * * * * * * * * * * * * //

dimensions      [1 -1 -2 0 0 0 0];

internalField   nonuniform List<scalar> 
26250
(
0.957603
0.911229
0.874794
0.844626
0.819401
0.798509
0.780334
0.765555
0.752195
0.741799
0.733665
0.735659
0.739806
0.787664
0.841971
1.18093
1.79503
4.09457
9.44049
8.92939
7.78701
7.41494
7.45177
7.57937
7.88055
0.957604
0.911226
0.874793
0.844627
0.819398
0.798517
0.780322
0.76558
0.752161
0.741842
0.733558
0.735501
0.739526
0.787132
0.840816
1.17781
1.78771
4.07284
9.38028
8.89037
7.78423
7.42185
7.46295
7.59272
7.89863
0.957604
0.911218
0.874794
0.84463
0.81939
0.798543
0.780281
0.765654
0.752056
0.741987
0.733098
0.735213
0.738906
0.785868
0.838164
1.17048
1.77009
4.02145
9.27021
8.80701
7.75806
7.41649
7.46647
7.60698
7.93167
0.95757
0.911252
0.874778
0.844663
0.819367
0.798582
0.780235
0.765725
0.751941
0.74216
0.7325
0.734286
0.737436
0.784002
0.831873
1.15947
1.74496
3.93789
9.10043
8.68427
7.71707
7.39757
7.45629
7.61391
7.97384
0.957368
0.911535
0.874614
0.84484
0.819246
0.798702
0.780125
0.765874
0.751718
0.742431
0.73175
0.732276
0.743151
0.753625
0.876847
1.02919
1.83707
3.76958
8.88097
8.51556
7.66442
7.35472
7.4237
7.60455
8.01473
0.957535
0.911275
0.874777
0.844674
0.819365
0.798615
0.780167
0.765881
0.751676
0.742439
0.73174
0.732771
0.735597
0.776635
0.816864
1.12037
1.65898
3.67924
8.5987
8.30991
7.56379
7.28957
7.36638
7.5738
8.04145
0.957401
0.911479
0.874643
0.844802
0.819271
0.798698
0.780092
0.765973
0.751539
0.742646
0.731084
0.731291
0.739227
0.747626
0.856584
0.979743
1.74191
3.42162
8.26479
8.04903
7.48059
7.20032
7.27723
7.50146
8.02497
0.95756
0.911223
0.874833
0.844587
0.819462
0.798486
0.780326
0.765698
0.751838
0.742304
0.73119
0.730514
0.733112
0.765379
0.797512
1.05635
1.51739
3.29042
7.87025
7.77053
7.3718
7.08243
7.15644
7.38123
7.94004
0.957568
0.911197
0.874861
0.844539
0.819522
0.798407
0.780439
0.765546
0.752056
0.741952
0.731507
0.728784
0.730943
0.758264
0.78636
1.00966
1.41327
3.00219
7.35355
7.53579
7.34633
6.9615
7.00293
7.17649
7.69138
0.957513
0.911257
0.874848
0.844555
0.819545
0.798363
0.780526
0.765396
0.752276
0.741587
0.73181
0.726873
0.728479
0.748593
0.767938
0.955267
1.26184
2.60916
6.42611
7.52534
7.34803
6.88792
6.76861
6.81402
7.07899
1.03443
1.06964
1.09318
1.11009
1.12254
1.13251
1.13967
1.14612
1.15052
1.15562
1.16115
1.17778
1.20277
1.30646
1.45629
2.16133
3.61756
9.18667
19.2729
17.0304
15.2742
14.8291
14.8153
15.0289
15.2116
1.03443
1.06963
1.09318
1.11008
1.12254
1.13251
1.13967
1.14613
1.15051
1.15562
1.16111
1.17762
1.20244
1.3054
1.45433
2.15434
3.60246
9.13304
19.2286
16.945
15.2189
14.7873
14.7888
15.0044
15.1985
1.03443
1.06963
1.09317
1.11009
1.12253
1.13252
1.13966
1.14615
1.15049
1.15563
1.16102
1.17724
1.20171
1.30287
1.45003
2.13884
3.56726
8.99205
19.1037
16.7649
15.0811
14.677
14.7053
14.9224
15.1521
1.0344
1.06965
1.09316
1.11011
1.12252
1.13254
1.13964
1.14618
1.15046
1.15563
1.16086
1.17661
1.20044
1.29877
1.44289
2.11355
3.5074
8.76386
18.8913
16.5032
14.8614
14.4943
14.5579
14.777
15.0534
1.03433
1.06973
1.0931
1.11018
1.12247
1.1326
1.13959
1.14624
1.15037
1.1557
1.16039
1.17572
1.19567
1.29538
1.42128
2.09054
3.41872
8.44344
18.566
16.1589
14.5732
14.2564
14.3658
14.586
14.8987
1.03438
1.06967
1.09315
1.11012
1.12252
1.13255
1.13964
1.1462
1.15039
1.15561
1.16034
1.17463
1.19633
1.28571
1.41966
2.03239
3.31695
8.10206
18.1277
15.7524
14.2245
13.9593
14.1118
14.329
14.6759
1.03434
1.06971
1.09311
1.11016
1.12248
1.13259
1.1396
1.14625
1.15031
1.15567
1.15968
1.17321
1.18989
1.27941
1.38652
1.99042
3.17083
7.621
17.5551
15.2872
13.8376
13.6058
13.7878
13.9783
14.3432
1.0344
1.06963
1.09318
1.11007
1.12257
1.13249
1.13971
1.14612
1.15044
1.15547
1.15947
1.17148
1.18943
1.26553
1.37363
1.91298
2.9947
7.1034
16.7628
14.7619
13.4362
13.2006
13.3816
13.5089
13.8426
1.0344
1.06961
1.09321
1.11004
1.12261
1.13244
1.13976
1.14607
1.15047
1.15538
1.15901
1.16966
1.18546
1.25246
1.34369
1.82255
2.75845
6.42057
15.6281
14.3463
13.0692
12.7494
12.8709
12.8729
13.0468
1.03438
1.06963
1.09321
1.11003
1.12264
1.1324
1.13982
1.14598
1.15055
1.15524
1.15848
1.16771
1.18115
1.23817
1.31199
1.72098
2.48077
5.59134
13.9769
13.9805
13.0048
12.3002
12.2269
11.9818
11.7077
1.00884
1.03183
1.05932
1.08737
1.11349
1.1377
1.15897
1.17904
1.19512
1.21188
1.22365
1.24603
1.28331
1.40811
1.59723
2.42699
4.23913
11.2676
21.4637
19.0749
17.7411
17.1813
16.9633
17.2084
17.4136
1.00883
1.03183
1.05931
1.08737
1.11349
1.1377
1.15897
1.17904
1.19513
1.21186
1.22365
1.24586
1.283
1.40651
1.59564
2.41633
4.21448
11.1815
21.4843
18.978
17.6672
17.1154
16.9114
17.1425
17.3693
1.00883
1.03183
1.05931
1.08737
1.11349
1.1377
1.15898
1.17902
1.19516
1.21182
1.22368
1.2456
1.28212
1.40431
1.58924
2.40077
4.17012
11.0124
21.4492
18.7515
17.4679
16.9444
16.7706
16.9734
17.2516
1.00882
1.03184
1.0593
1.08738
1.1135
1.13769
1.159
1.179
1.19518
1.21175
1.2237
1.24509
1.28085
1.39968
1.58095
2.36976
4.0877
10.702
21.3894
18.4396
17.1476
16.6725
16.551
16.7215
17.0373
1.00881
1.03185
1.0593
1.08738
1.1135
1.13768
1.15902
1.17897
1.19523
1.21166
1.22373
1.24436
1.27901
1.39324
1.56895
2.32713
3.97377
10.2591
21.2833
18.0385
16.7409
16.3364
16.2905
16.42
16.7482
1.00882
1.03185
1.0593
1.08738
1.11351
1.13766
1.15906
1.17891
1.19531
1.21152
1.22379
1.2435
1.27658
1.38547
1.55262
2.27619
3.84309
9.74537
21.0627
17.5342
16.2567
15.9309
15.9749
16.0407
16.365
1.00883
1.03184
1.0593
1.08737
1.11352
1.13764
1.1591
1.17884
1.19541
1.21134
1.22385
1.24237
1.27361
1.37491
1.53289
2.20904
3.68278
9.19455
20.5975
16.9416
15.7084
15.4577
15.5837
15.5523
15.8443
1.00884
1.03182
1.05931
1.08736
1.11352
1.13763
1.15911
1.17881
1.19548
1.21115
1.22395
1.24104
1.26954
1.36246
1.50637
2.12979
3.47431
8.51152
19.8576
16.3075
15.1378
14.9249
15.0949
14.9284
15.1319
1.00885
1.03181
1.05932
1.08735
1.11353
1.13763
1.15911
1.17881
1.19546
1.2111
1.22392
1.23956
1.2649
1.34844
1.46924
2.03624
3.19701
7.64569
18.6677
15.785
14.6238
14.3529
14.4714
14.1337
14.1184
1.00884
1.03181
1.05934
1.08733
1.11356
1.13759
1.15916
1.17874
1.19554
1.21097
1.2238
1.23871
1.25997
1.33336
1.42939
1.92379
2.86471
6.62074
16.7272
15.6319
14.3094
13.7441
13.689
13.1022
12.5852
1.03439
1.06966
1.09314
1.11012
1.1225
1.13255
1.13963
1.14618
1.15046
1.15569
1.16111
1.17745
1.20212
1.3044
1.45226
2.15024
3.58547
9.06242
19.0797
16.8928
15.2263
14.7878
14.7637
14.9762
15.1606
1.03432
1.06973
1.09309
1.11018
1.12246
1.1326
1.1396
1.14622
1.15041
1.15573
1.16083
1.17729
1.19896
1.30556
1.44073
2.15376
3.57206
8.96225
19.0235
16.8216
15.1783
14.7491
14.7448
14.9535
15.1461
1.03437
1.06968
1.09313
1.11014
1.12249
1.13257
1.13963
1.14619
1.15046
1.15567
1.16097
1.17693
1.20104
1.30095
1.44599
2.12908
3.5357
8.86686
18.9062
16.6443
15.0441
14.6377
14.6612
14.8719
15.1018
1.03432
1.06973
1.0931
1.11018
1.12247
1.1326
1.1396
1.14625
1.15038
1.15573
1.1606
1.1764
1.19711
1.29978
1.42916
2.11789
3.48082
8.637
18.7289
16.4005
14.8223
14.4549
14.5166
14.7288
15.0045
1.03432
1.06973
1.0931
1.11018
1.12247
1.13262
1.13958
1.14627
1.15033
1.15574
1.1604
1.17561
1.19552
1.29455
1.41923
2.08547
3.40088
8.36026
18.4523
16.0844
14.54
14.2223
14.3303
14.5403
14.8483
1.03433
1.06972
1.09311
1.11017
1.12248
1.1326
1.13959
1.14626
1.15033
1.15571
1.16008
1.17457
1.19307
1.28796
1.40491
2.04317
3.29755
8.01647
18.0589
15.6962
14.1932
13.9319
14.0861
14.289
14.6247
1.0344
1.06963
1.09317
1.11009
1.12254
1.13251
1.13968
1.14616
1.15042
1.15556
1.15996
1.17326
1.19342
1.27695
1.40051
1.97902
3.17077
7.63858
17.499
15.23
13.8002
13.5789
13.7663
13.9456
14.2939
1.03442
1.06961
1.0932
1.11005
1.12258
1.13246
1.13973
1.1461
1.15046
1.15546
1.1595
1.1716
1.18972
1.26618
1.37468
1.91485
2.99767
7.11088
16.741
14.7271
13.4061
13.1804
13.364
13.481
13.7959
1.03441
1.06961
1.09321
1.11004
1.1226
1.13244
1.13976
1.14607
1.15047
1.15539
1.15903
1.16974
1.18563
1.25289
1.34456
1.82456
2.76248
6.42593
15.621
14.3303
13.0523
12.7376
12.8574
12.8502
13.0054
1.03437
1.06963
1.0932
1.11004
1.12263
1.13241
1.13981
1.146
1.15053
1.15526
1.1585
1.16777
1.18124
1.23849
1.31252
1.7229
2.48416
5.60041
13.9872
13.9713
12.9901
12.2926
12.215
11.9632
11.6763
0.957553
0.911266
0.87476
0.844674
0.819363
0.798575
0.780249
0.765732
0.751894
0.74227
0.732537
0.734482
0.737701
0.785808
0.834996
1.17036
1.77202
4.01497
9.25721
8.79557
7.74718
7.36564
7.40395
7.52569
7.82517
0.95735
0.91155
0.87461
0.844837
0.81926
0.798667
0.780187
0.765771
0.751887
0.742228
0.732327
0.732991
0.745335
0.756859
0.88821
1.0531
1.90134
3.9454
9.2103
8.77109
7.76932
7.37453
7.41669
7.53684
7.84868
0.957518
0.9113
0.874745
0.844701
0.819353
0.798589
0.780263
0.765698
0.751973
0.742181
0.732427
0.734072
0.737044
0.783953
0.829696
1.15954
1.7559
3.95107
9.14952
8.71032
7.72129
7.36918
7.41914
7.55442
7.88602
0.95737
0.911494
0.874654
0.844794
0.819302
0.798655
0.780186
0.76581
0.751822
0.742311
0.732068
0.73267
0.744933
0.755977
0.883288
1.03898
1.86314
3.82015
8.9813
8.58527
7.68779
7.35041
7.40885
7.56324
7.92999
0.957382
0.911479
0.874662
0.844798
0.819289
0.798684
0.780133
0.765886
0.751702
0.74244
0.731772
0.732309
0.744315
0.754821
0.877776
1.02415
1.82967
3.70668
8.77081
8.42661
7.62279
7.30956
7.37971
7.55758
7.96969
0.957402
0.911459
0.874671
0.844778
0.8193
0.798669
0.780134
0.765906
0.751636
0.742541
0.731381
0.731801
0.742063
0.751691
0.868405
1.00213
1.79668
3.5699
8.53214
8.23966
7.52967
7.24451
7.32513
7.53062
7.99748
0.95758
0.911205
0.874821
0.844609
0.819415
0.798548
0.780237
0.765819
0.751685
0.742517
0.731436
0.732094
0.735052
0.772491
0.809173
1.09227
1.59178
3.49265
8.23051
8.01699
7.41104
7.1598
7.24242
7.46563
7.98441
0.957598
0.911172
0.874861
0.844546
0.819483
0.798454
0.780355
0.765661
0.751874
0.742308
0.731132
0.731108
0.734005
0.766558
0.80109
1.05705
1.51795
3.29046
7.85159
7.74919
7.33258
7.05729
7.13207
7.35178
7.90339
0.95757
0.911196
0.874862
0.844537
0.819518
0.798408
0.780429
0.765552
0.752042
0.741975
0.731472
0.728966
0.731165
0.75877
0.787042
1.01185
1.41611
3.00654
7.34452
7.51944
7.32602
6.94443
6.98573
7.15382
7.65985
0.957507
0.911257
0.874843
0.844563
0.819535
0.798385
0.780496
0.765443
0.752215
0.741675
0.73169
0.727154
0.728498
0.749356
0.768766
0.957719
1.26716
2.61889
6.4438
7.51609
7.33548
6.87743
6.74883
6.79276
7.05683
0.957394
0.911409
0.87477
0.844649
0.819502
0.798389
0.780548
0.765318
0.752431
0.741295
0.732204
0.725587
0.727696
0.730849
0.782547
0.832008
1.22102
1.99134
4.94825
7.55824
7.33293
6.78099
6.40978
6.17287
5.45683
0.957507
0.911249
0.874862
0.844539
0.8196
0.798276
0.780681
0.765149
0.752656
0.740963
0.732561
0.724372
0.724909
0.735561
0.744924
0.859152
0.974406
1.81907
3.41856
7.40791
7.18502
6.64261
6.08029
5.6973
4.9068
0.957365
0.911467
0.874735
0.844645
0.819549
0.798273
0.78074
0.765019
0.752879
0.740578
0.7331
0.722858
0.723931
0.725631
0.759003
0.78596
1.04023
1.41366
3.04287
6.6321
6.67824
6.39187
5.81336
5.36163
4.71726
0.957491
0.911292
0.874835
0.844527
0.819621
0.798205
0.780795
0.76498
0.752915
0.740569
0.733027
0.722929
0.72313
0.729717
0.735964
0.816587
0.892026
1.4586
2.47714
5.72121
6.1931
6.02217
5.61905
5.13465
4.60228
0.957531
0.911258
0.874815
0.844549
0.819581
0.79825
0.780752
0.765017
0.752908
0.740521
0.733075
0.722437
0.722503
0.726329
0.731556
0.796384
0.85736
1.31764
2.11884
4.82522
5.79206
5.72106
5.48233
5.00344
4.51728
0.957443
0.911379
0.874738
0.84467
0.819466
0.798409
0.780546
0.765302
0.752473
0.741132
0.732096
0.723494
0.719302
0.720488
0.73523
0.750304
0.874441
1.05417
1.85747
3.77582
5.54656
5.53007
5.36724
4.98598
4.48042
0.957419
0.911378
0.874762
0.844679
0.819448
0.798476
0.780431
0.765482
0.752193
0.741534
0.731468
0.724243
0.717001
0.71748
0.72685
0.734879
0.824776
0.913544
1.51941
2.5324
5.17214
5.38068
5.26522
4.96021
4.46042
0.957357
0.911445
0.874751
0.844679
0.819461
0.798476
0.780407
0.765551
0.752084
0.741715
0.731191
0.724599
0.716005
0.716194
0.721507
0.72785
0.787388
0.854558
1.26563
1.99449
4.28088
5.1242
5.07827
4.89367
4.48426
0.957364
0.911469
0.874698
0.84471
0.819435
0.798463
0.780461
0.765457
0.752228
0.741533
0.731408
0.724284
0.715985
0.714526
0.716484
0.721829
0.756059
0.808582
1.05347
1.5392
3.08592
4.7995
4.91168
4.81589
4.54224
0.957481
0.911307
0.874789
0.844619
0.819497
0.798393
0.780543
0.765327
0.752426
0.741211
0.731919
0.723389
0.717178
0.710534
0.710768
0.716345
0.721766
0.78646
0.8484
1.29482
2.00492
4.1182
4.73625
4.6949
4.53342
0.957416
0.911383
0.87478
0.844631
0.819502
0.798393
0.780535
0.765335
0.752407
0.741235
0.731859
0.723485
0.716872
0.710505
0.707529
0.708523
0.719446
0.729489
0.829471
0.9456
1.56255
2.78114
4.36345
4.56627
4.4899
0.957437
0.911362
0.874778
0.844623
0.819514
0.798375
0.78055
0.765341
0.752367
0.741333
0.731674
0.723792
0.71636
0.711036
0.705747
0.706282
0.708114
0.726519
0.751032
0.878132
1.11334
1.88902
3.55668
4.34844
4.35236
0.957413
0.911389
0.874761
0.844655
0.81948
0.798417
0.78051
0.765377
0.752336
0.741359
0.731651
0.723816
0.716296
0.711129
0.70489
0.704035
0.705476
0.709494
0.734663
0.774422
0.942585
1.26845
2.1881
3.8607
4.19052
0.957402
0.911402
0.874765
0.844648
0.819497
0.798397
0.78053
0.765351
0.752372
0.741288
0.731778
0.723583
0.716689
0.710422
0.705842
0.700835
0.701195
0.702575
0.715677
0.732018
0.823447
0.978725
1.51636
2.73648
3.8182
0.957418
0.911391
0.874752
0.84466
0.819478
0.798412
0.780521
0.765356
0.752375
0.741285
0.731781
0.723595
0.716635
0.710557
0.705473
0.701091
0.697951
0.698329
0.704187
0.70918
0.761221
0.812414
1.14034
1.6431
3.03661
0.95743
0.911377
0.874759
0.844649
0.819483
0.798409
0.780519
0.765362
0.752364
0.741305
0.731747
0.723656
0.716525
0.710744
0.705147
0.701494
0.696675
0.696776
0.69863
0.702409
0.723494
0.757707
0.894534
1.149
1.8414
0.957421
0.91139
0.874754
0.844653
0.819483
0.798404
0.780527
0.765349
0.75238
0.741283
0.731777
0.723609
0.716609
0.710584
0.705438
0.700925
0.697389
0.693923
0.694264
0.695438
0.70554
0.718311
0.785121
0.890012
1.25605
0.957436
0.911364
0.874775
0.844633
0.819497
0.798395
0.780529
0.765352
0.752373
0.741292
0.731765
0.723622
0.716592
0.710606
0.705404
0.700979
0.697217
0.693884
0.691843
0.692274
0.695931
0.701561
0.730484
0.776371
0.953495
0.957438
0.911362
0.874776
0.844633
0.819497
0.798395
0.780529
0.765351
0.752375
0.741289
0.73177
0.723617
0.716599
0.710599
0.705403
0.701005
0.697116
0.694017
0.690926
0.689968
0.690718
0.69266
0.704949
0.724006
0.804102
0.957436
0.911365
0.874773
0.844635
0.819495
0.798397
0.780529
0.765351
0.752375
0.741289
0.73177
0.723615
0.716604
0.710588
0.705426
0.700958
0.697208
0.693809
0.691229
0.688543
0.687942
0.68844
0.693021
0.698409
0.734567
0.957436
0.911364
0.874776
0.844632
0.8195
0.798391
0.780535
0.765344
0.752381
0.741284
0.731774
0.723611
0.716607
0.710587
0.70542
0.700981
0.697152
0.693921
0.690995
0.688843
0.686358
0.686377
0.68725
0.689337
0.701729
0.957436
0.911364
0.874776
0.844632
0.8195
0.798391
0.780535
0.765345
0.75238
0.741285
0.731773
0.723613
0.716606
0.710588
0.705418
0.70098
0.697164
0.69388
0.691095
0.688605
0.6867
0.684715
0.684538
0.684984
0.689196
0.957436
0.911364
0.874776
0.844632
0.8195
0.798391
0.780534
0.765345
0.75238
0.741285
0.731773
0.723612
0.716607
0.710588
0.705419
0.700978
0.697165
0.693884
0.691074
0.688664
0.686537
0.684927
0.683107
0.683112
0.683896
0.957436
0.911364
0.874776
0.844632
0.8195
0.798391
0.780534
0.765345
0.75238
0.741284
0.731774
0.723611
0.716607
0.710587
0.705419
0.700979
0.697162
0.693889
0.691069
0.688661
0.686569
0.684799
0.683295
0.681928
0.681578
0.957436
0.911364
0.874776
0.844632
0.8195
0.798391
0.780534
0.765345
0.75238
0.741284
0.731774
0.723612
0.716607
0.710587
0.705419
0.70098
0.697161
0.693889
0.691071
0.688655
0.686579
0.684788
0.683269
0.681951
0.680791
0.957436
0.911364
0.874776
0.844632
0.8195
0.798391
0.780534
0.765345
0.75238
0.741284
0.731774
0.723612
0.716607
0.710588
0.705418
0.70098
0.697161
0.69389
0.691071
0.688655
0.686578
0.684795
0.683252
0.681961
0.680769
0.957436
0.911364
0.874776
0.844632
0.8195
0.798391
0.780534
0.765345
0.75238
0.741284
0.731774
0.723612
0.716607
0.710588
0.705418
0.70098
0.697161
0.693889
0.691071
0.688654
0.68658
0.684793
0.683256
0.681947
0.680793
0.957436
0.911364
0.874776
0.844632
0.8195
0.798391
0.780534
0.765345
0.75238
0.741284
0.731774
0.723612
0.716607
0.710588
0.705418
0.70098
0.697161
0.693889
0.691072
0.688653
0.686581
0.684792
0.683257
0.681945
0.680797
0.957436
0.911364
0.874776
0.844632
0.8195
0.798391
0.780534
0.765345
0.75238
0.741284
0.731774
0.723612
0.716607
0.710588
0.705418
0.70098
0.697161
0.693889
0.691073
0.688652
0.686581
0.684791
0.683258
0.681944
0.680798
0.957436
0.911364
0.874776
0.844632
0.8195
0.798391
0.780534
0.765345
0.75238
0.741284
0.731774
0.723612
0.716607
0.710588
0.705418
0.70098
0.697161
0.693889
0.691073
0.688652
0.686582
0.684791
0.683258
0.681943
0.680799
0.957436
0.911364
0.874776
0.844632
0.8195
0.798391
0.780534
0.765345
0.75238
0.741284
0.731774
0.723612
0.716607
0.710588
0.705418
0.70098
0.697161
0.693889
0.691073
0.688652
0.686582
0.684791
0.683258
0.681943
0.680799
0.957436
0.911364
0.874776
0.844632
0.8195
0.798391
0.780534
0.765345
0.75238
0.741284
0.731774
0.723612
0.716607
0.710588
0.705418
0.70098
0.697161
0.693889
0.691073
0.688652
0.686582
0.684791
0.683258
0.681943
0.680799
0.957436
0.911364
0.874776
0.844632
0.8195
0.798391
0.780534
0.765345
0.75238
0.741284
0.731774
0.723612
0.716607
0.710588
0.705418
0.70098
0.697161
0.693889
0.691073
0.688652
0.686582
0.684791
0.683258
0.681943
0.680799
0.957436
0.911364
0.874776
0.844632
0.8195
0.798391
0.780534
0.765345
0.75238
0.741284
0.731774
0.723612
0.716607
0.710588
0.705418
0.70098
0.697161
0.693889
0.691073
0.688652
0.686582
0.684791
0.683258
0.681943
0.680799
0.957436
0.911364
0.874776
0.844632
0.8195
0.798391
0.780534
0.765345
0.75238
0.741284
0.731774
0.723612
0.716607
0.710588
0.705418
0.70098
0.697161
0.693889
0.691073
0.688652
0.686582
0.684791
0.683258
0.681943
0.680799
0.957436
0.911364
0.874776
0.844632
0.8195
0.798391
0.780534
0.765345
0.75238
0.741284
0.731774
0.723612
0.716607
0.710588
0.705418
0.70098
0.697161
0.693889
0.691073
0.688652
0.686582
0.684791
0.683258
0.681943
0.680799
0.957436
0.911364
0.874776
0.844632
0.8195
0.798391
0.780534
0.765345
0.75238
0.741284
0.731774
0.723612
0.716607
0.710588
0.705418
0.70098
0.697161
0.693889
0.691073
0.688652
0.686582
0.684791
0.683258
0.681943
0.680799
0.957436
0.911364
0.874776
0.844632
0.8195
0.798391
0.780534
0.765345
0.75238
0.741284
0.731774
0.723612
0.716607
0.710588
0.705418
0.70098
0.697161
0.693889
0.691073
0.688652
0.686582
0.684791
0.683258
0.681943
0.680799
0.957436
0.911364
0.874776
0.844632
0.8195
0.798391
0.780534
0.765345
0.75238
0.741284
0.731774
0.723612
0.716607
0.710588
0.705418
0.70098
0.697161
0.693889
0.691073
0.688652
0.686582
0.684791
0.683258
0.681943
0.680799
0.957436
0.911364
0.874776
0.844632
0.8195
0.798391
0.780534
0.765345
0.75238
0.741284
0.731774
0.723612
0.716607
0.710588
0.705418
0.70098
0.697161
0.693889
0.691073
0.688652
0.686582
0.684791
0.683258
0.681943
0.680799
1.03435
1.06966
1.09319
1.11004
1.12265
1.13236
1.13992
1.14582
1.15083
1.15474
1.15899
1.16448
1.18318
1.20594
1.33413
1.50178
2.38983
4.43959
11.6364
14.0105
12.9557
11.8266
11.4541
10.7056
8.77908
1.03439
1.06961
1.09323
1.10999
1.12271
1.13228
1.14
1.14571
1.15095
1.15458
1.15901
1.16369
1.17929
1.19822
1.2999
1.42378
2.10898
3.58713
8.92864
14.0605
12.8518
11.3307
10.6656
9.71291
7.73483
1.03436
1.06965
1.0932
1.11001
1.12269
1.13229
1.14
1.14571
1.15093
1.15459
1.15885
1.16327
1.17604
1.19569
1.27255
1.39009
1.89221
2.97617
6.64491
13.7479
12.5358
10.8212
10.0206
9.0782
7.50426
1.0344
1.0696
1.09323
1.10997
1.12272
1.13226
1.14002
1.14569
1.15094
1.15456
1.15876
1.16243
1.17381
1.18861
1.25751
1.34503
1.78032
2.62358
5.56108
12.5752
11.8098
10.3451
9.54358
8.66637
7.44359
1.03441
1.06959
1.09323
1.10998
1.1227
1.13228
1.13999
1.14574
1.15087
1.15465
1.15827
1.1623
1.16875
1.19142
1.21804
1.36787
1.55033
2.55288
4.57572
10.865
10.7759
10.1392
9.23741
8.39551
7.39538
1.03436
1.06965
1.09319
1.11004
1.12265
1.13235
1.13992
1.1458
1.15082
1.15461
1.15846
1.16124
1.16897
1.18028
1.22538
1.28504
1.57567
2.09332
4.01103
8.97896
10.2701
9.8957
9.05886
8.23633
7.34371
1.03434
1.06967
1.09318
1.11007
1.12264
1.13239
1.13988
1.14586
1.15075
1.15465
1.15836
1.16065
1.16668
1.17566
1.20792
1.25698
1.46384
1.84689
3.2496
6.88411
9.98977
9.72297
8.99596
8.13973
7.29658
1.03432
1.06968
1.09317
1.11007
1.12263
1.13241
1.13984
1.14595
1.15061
1.15489
1.15795
1.16141
1.16435
1.17398
1.18592
1.24702
1.32086
1.70732
2.42069
4.72549
9.31827
9.35116
8.94586
8.1051
7.29058
1.03434
1.06967
1.09316
1.11007
1.12261
1.13241
1.13984
1.14592
1.15064
1.15486
1.15795
1.16129
1.16369
1.17041
1.18055
1.2201
1.27821
1.53366
2.02778
3.67052
7.79699
8.97829
8.76057
8.12605
7.31353
1.03439
1.06962
1.0932
1.11003
1.12265
1.13237
1.13988
1.14587
1.15071
1.15477
1.15804
1.16113
1.16316
1.16758
1.17463
1.19935
1.23536
1.39821
1.66683
2.75379
5.24371
8.39592
8.40634
8.10292
7.40136
1.03436
1.06965
1.0932
1.11003
1.12265
1.13236
1.13989
1.14586
1.15073
1.15472
1.15814
1.16089
1.1636
1.16569
1.17236
1.18106
1.22178
1.27298
1.53954
2.00617
3.62673
7.05933
8.11007
7.98691
7.54199
1.03436
1.06965
1.09319
1.11003
1.12265
1.13235
1.1399
1.14584
1.15074
1.15471
1.15814
1.16089
1.16351
1.16521
1.16923
1.17525
1.19791
1.22772
1.38094
1.60462
2.58048
4.61774
7.45475
7.72489
7.50487
1.03436
1.06965
1.09319
1.11004
1.12264
1.13238
1.13988
1.14587
1.15071
1.15475
1.15807
1.161
1.16329
1.16563
1.16748
1.17294
1.18054
1.21397
1.25864
1.4763
1.86263
3.17187
5.97223
7.33382
7.30575
1.03435
1.06966
1.09319
1.11005
1.12264
1.13237
1.13989
1.14587
1.15071
1.15475
1.15809
1.16097
1.16335
1.16546
1.16738
1.16977
1.17697
1.18779
1.23175
1.30068
1.57427
2.11422
3.61957
6.44323
7.02124
1.03436
1.06966
1.09318
1.11005
1.12264
1.13238
1.13988
1.14587
1.15072
1.15474
1.1581
1.16094
1.16339
1.16539
1.16734
1.16881
1.17278
1.17899
1.20176
1.2366
1.38229
1.64402
2.52361
4.47899
6.38406
1.03436
1.06965
1.09319
1.11004
1.12264
1.13238
1.13988
1.14587
1.15071
1.15474
1.1581
1.16094
1.16338
1.1654
1.16727
1.16861
1.17083
1.17439
1.1866
1.2028
1.28377
1.38445
1.88816
2.74507
5.01352
1.03436
1.06965
1.09319
1.11004
1.12264
1.13237
1.13988
1.14586
1.15072
1.15473
1.15811
1.16094
1.16338
1.1654
1.16725
1.16865
1.17023
1.17229
1.17828
1.18827
1.2239
1.28619
1.50193
1.92375
3.04879
1.03437
1.06965
1.0932
1.11004
1.12265
1.13237
1.13988
1.14587
1.15072
1.15474
1.1581
1.16095
1.16336
1.16544
1.16717
1.16875
1.16998
1.17135
1.17372
1.18057
1.19221
1.23262
1.30626
1.54693
2.03198
1.03437
1.06964
1.0932
1.11004
1.12265
1.13237
1.13988
1.14587
1.15072
1.15474
1.1581
1.16095
1.16337
1.16543
1.1672
1.1687
1.17004
1.17107
1.17249
1.17493
1.18239
1.19476
1.24016
1.31744
1.59345
1.03437
1.06964
1.0932
1.11004
1.12265
1.13237
1.13988
1.14587
1.15072
1.15474
1.1581
1.16095
1.16337
1.16542
1.16721
1.16868
1.17004
1.17108
1.17219
1.17332
1.17658
1.1819
1.20118
1.23376
1.35275
1.03437
1.06964
1.0932
1.11004
1.12265
1.13237
1.13989
1.14586
1.15072
1.15474
1.15811
1.16094
1.16337
1.16542
1.1672
1.16869
1.17003
1.17109
1.17212
1.17282
1.17423
1.1766
1.18433
1.19695
1.24545
1.03437
1.06964
1.0932
1.11004
1.12265
1.13237
1.13989
1.14586
1.15072
1.15474
1.1581
1.16095
1.16337
1.16543
1.1672
1.16871
1.17001
1.17111
1.17209
1.17286
1.17368
1.17467
1.17763
1.1824
1.20049
1.03437
1.06964
1.0932
1.11004
1.12265
1.13237
1.13989
1.14586
1.15072
1.15474
1.1581
1.16095
1.16337
1.16543
1.1672
1.16871
1.17001
1.17111
1.17209
1.17287
1.17363
1.17412
1.17527
1.17716
1.18354
1.03437
1.06964
1.0932
1.11004
1.12265
1.13237
1.13989
1.14586
1.15072
1.15474
1.1581
1.16095
1.16337
1.16543
1.1672
1.16871
1.17001
1.17112
1.17208
1.17289
1.1736
1.17417
1.17474
1.17544
1.17761
1.03437
1.06964
1.0932
1.11004
1.12265
1.13237
1.13989
1.14586
1.15072
1.15474
1.1581
1.16095
1.16337
1.16543
1.16719
1.16871
1.17
1.17112
1.17207
1.17289
1.17359
1.17417
1.17471
1.17506
1.17577
1.03437
1.06964
1.0932
1.11004
1.12265
1.13237
1.13989
1.14586
1.15072
1.15474
1.1581
1.16095
1.16337
1.16543
1.16719
1.16871
1.17
1.17112
1.17207
1.17289
1.17359
1.17417
1.17468
1.17511
1.17543
1.03437
1.06964
1.0932
1.11004
1.12265
1.13237
1.13989
1.14586
1.15072
1.15474
1.1581
1.16095
1.16337
1.16543
1.16719
1.16871
1.17
1.17112
1.17207
1.17289
1.17359
1.17417
1.17468
1.1751
1.17543
1.03437
1.06964
1.0932
1.11004
1.12265
1.13237
1.13989
1.14586
1.15072
1.15474
1.1581
1.16095
1.16337
1.16543
1.16719
1.16871
1.17
1.17112
1.17207
1.17289
1.17359
1.17417
1.17468
1.1751
1.17543
1.03437
1.06964
1.0932
1.11004
1.12265
1.13237
1.13989
1.14586
1.15072
1.15474
1.1581
1.16095
1.16337
1.16543
1.16719
1.16871
1.17
1.17112
1.17207
1.17289
1.17359
1.17417
1.17468
1.1751
1.17543
1.03437
1.06964
1.0932
1.11004
1.12265
1.13237
1.13989
1.14586
1.15072
1.15474
1.1581
1.16095
1.16337
1.16543
1.16719
1.16871
1.17
1.17112
1.17207
1.17289
1.17359
1.17417
1.17468
1.1751
1.17543
1.03437
1.06964
1.0932
1.11004
1.12265
1.13237
1.13989
1.14586
1.15072
1.15474
1.1581
1.16095
1.16337
1.16543
1.16719
1.16871
1.17
1.17112
1.17207
1.17289
1.17359
1.17417
1.17468
1.1751
1.17543
1.03437
1.06964
1.0932
1.11004
1.12265
1.13237
1.13989
1.14586
1.15072
1.15474
1.1581
1.16095
1.16337
1.16543
1.16719
1.16871
1.17
1.17112
1.17207
1.17289
1.17359
1.17417
1.17468
1.1751
1.17543
1.03437
1.06964
1.0932
1.11004
1.12265
1.13237
1.13989
1.14586
1.15072
1.15474
1.1581
1.16095
1.16337
1.16543
1.16719
1.16871
1.17
1.17112
1.17207
1.17289
1.17359
1.17417
1.17468
1.1751
1.17543
1.03437
1.06964
1.0932
1.11004
1.12265
1.13237
1.13989
1.14586
1.15072
1.15474
1.1581
1.16095
1.16337
1.16543
1.16719
1.16871
1.17
1.17112
1.17207
1.17289
1.17359
1.17417
1.17468
1.1751
1.17543
1.03437
1.06964
1.0932
1.11004
1.12265
1.13237
1.13989
1.14586
1.15072
1.15474
1.1581
1.16095
1.16337
1.16543
1.16719
1.16871
1.17
1.17112
1.17207
1.17289
1.17359
1.17417
1.17468
1.1751
1.17543
1.03437
1.06964
1.0932
1.11004
1.12265
1.13237
1.13989
1.14586
1.15072
1.15474
1.1581
1.16095
1.16337
1.16543
1.16719
1.16871
1.17
1.17112
1.17207
1.17289
1.17359
1.17417
1.17468
1.1751
1.17543
1.03437
1.06964
1.0932
1.11004
1.12265
1.13237
1.13989
1.14586
1.15072
1.15474
1.1581
1.16095
1.16337
1.16543
1.16719
1.16871
1.17
1.17112
1.17207
1.17289
1.17359
1.17417
1.17468
1.1751
1.17543
1.03437
1.06964
1.0932
1.11004
1.12265
1.13237
1.13989
1.14586
1.15072
1.15474
1.1581
1.16095
1.16337
1.16543
1.16719
1.16871
1.17
1.17112
1.17207
1.17289
1.17359
1.17417
1.17468
1.1751
1.17543
1.03437
1.06964
1.0932
1.11004
1.12265
1.13237
1.13989
1.14586
1.15072
1.15474
1.1581
1.16095
1.16337
1.16543
1.16719
1.16871
1.17
1.17112
1.17207
1.17289
1.17359
1.17417
1.17468
1.1751
1.17543
1.03437
1.06964
1.0932
1.11004
1.12265
1.13237
1.13989
1.14586
1.15072
1.15474
1.1581
1.16095
1.16337
1.16543
1.16719
1.16871
1.17
1.17112
1.17207
1.17289
1.17359
1.17417
1.17468
1.1751
1.17543
1.00884
1.03181
1.05933
1.08732
1.1136
1.13751
1.15931
1.17848
1.19599
1.21015
1.22506
1.23533
1.26126
1.2986
1.45059
1.69074
2.72515
5.35397
14.2136
15.6364
14.2271
13.1181
12.759
11.7047
9.33164
1.00884
1.03181
1.05935
1.08731
1.11361
1.1375
1.15931
1.1785
1.19593
1.21026
1.22471
1.23518
1.25612
1.2904
1.40927
1.59731
2.39979
4.31412
11.1913
15.8842
14.1362
12.4851
11.8424
10.5415
8.11193
1.00885
1.03179
1.05936
1.08729
1.11361
1.13753
1.15921
1.17869
1.19555
1.21094
1.22339
1.23735
1.25102
1.29339
1.34586
1.6022
2.01009
3.64498
8.11564
15.8031
13.9
11.9022
11.0673
9.82918
7.90379
1.00885
1.03179
1.05936
1.08728
1.11361
1.13753
1.1592
1.17872
1.1955
1.211
1.22323
1.23704
1.24923
1.28541
1.33057
1.54402
1.86957
3.17489
6.5979
14.965
13.3298
11.4005
10.4925
9.41226
7.91564
1.00885
1.03179
1.05938
1.08726
1.11365
1.13748
1.15928
1.1786
1.1957
1.21064
1.22374
1.23531
1.24902
1.26876
1.34218
1.43012
1.87401
2.69339
5.61219
13.0021
12.3224
11.0374
10.1114
9.12901
7.91758
1.0088
1.03185
1.05932
1.08732
1.11361
1.13751
1.15929
1.17854
1.19582
1.21043
1.22397
1.23488
1.24808
1.26679
1.32439
1.40513
1.76183
2.40815
4.78075
11.0048
11.4992
10.9226
9.89869
8.93995
7.9094
1.00881
1.03184
1.05932
1.08733
1.1136
1.13751
1.1593
1.17852
1.19585
1.21037
1.22401
1.2346
1.24702
1.26235
1.30427
1.375
1.62728
2.15124
3.89827
8.73105
11.3306
10.8256
9.78663
8.80779
7.88054
1.00883
1.0318
1.05935
1.0873
1.11362
1.13751
1.15928
1.17855
1.19581
1.21042
1.22393
1.23448
1.24631
1.25728
1.2885
1.33184
1.52218
1.80864
3.01868
5.80402
10.9474
10.6078
9.74618
8.75529
7.86496
1.00883
1.03181
1.05935
1.0873
1.11361
1.13751
1.15927
1.17857
1.19577
1.21048
1.22383
1.23448
1.2458
1.25419
1.27728
1.3077
1.44668
1.62076
2.54802
4.34331
9.74854
10.1082
9.66754
8.75947
7.87341
1.00883
1.03181
1.05934
1.0873
1.11361
1.13752
1.15925
1.17862
1.19568
1.21065
1.22351
1.23501
1.24445
1.25464
1.26647
1.30067
1.35356
1.56767
1.96478
3.4028
7.02538
9.63311
9.43791
8.79704
7.91665
1.00882
1.03183
1.05933
1.08732
1.11359
1.13754
1.15923
1.17864
1.19566
1.21066
1.22351
1.23498
1.24432
1.25402
1.26186
1.28487
1.31373
1.45493
1.63737
2.55853
4.31207
8.68964
9.09537
8.76532
8.03485
1.00884
1.03181
1.05935
1.0873
1.11361
1.13753
1.15924
1.17862
1.1957
1.21059
1.22364
1.23474
1.24471
1.25284
1.26171
1.27243
1.30387
1.35246
1.55123
1.9177
3.22352
6.30912
8.62828
8.57576
8.18028
1.00884
1.03181
1.05935
1.0873
1.11361
1.13752
1.15925
1.1786
1.19571
1.21058
1.22364
1.23475
1.24468
1.25271
1.26109
1.26774
1.28739
1.31184
1.4335
1.5899
2.38103
3.82901