/*--------------------------------*- C++ -*----------------------------------*\
  =========                 |
  \\      /  F ield         | OpenFOAM: The Open Source CFD Toolbox
   \\    /   O peration     | Website:  https://openfoam.org
    \\  /    A nd           | Version:  6
     \\/     M anipulation  |
\*---------------------------------------------------------------------------*/
FoamFile
{
    version     2.0;
    format      ascii;
    class       surfaceScalarField;
    location    "0.5";
    object      phi;
}
// * * * * * * * * * * * * * * * * * * * * * * * * * * * * * * * * * * * * * //

dimensions      [1 0 -1 0 0 0 0];

internalField   nonuniform List<scalar> 
72625
(
0.00162364
-9.2913e-11
5.87792e-05
0.00157653
7.32575e-10
4.69056e-05
0.00153807
6.09912e-10
3.85541e-05
0.00150601
5.88347e-10
3.20115e-05
0.00147907
8.39658e-10
2.69209e-05
0.00145629
-3.42865e-10
2.27384e-05
0.00143693
1.11311e-09
1.93395e-05
0.00142048
-2.59312e-09
1.65603e-05
0.001406
2.32639e-09
1.41253e-05
0.00139452
-4.16389e-09
1.22217e-05
0.00138258
1.13279e-08
1.02584e-05
0.00137184
4.15336e-08
9.48911e-06
0.00136331
8.24211e-08
7.42724e-06
0.00135214
1.8915e-07
9.69077e-06
0.00135146
4.41328e-07
-2.10496e-06
0.00132517
1.39909e-06
1.73335e-05
0.00139846
3.38226e-06
-5.75385e-05
0.00148059
1.83616e-05
-0.00011913
0.00171857
9.39768e-05
-0.000417811
0.00141518
0.000105345
0.000142899
0.00118041
8.37713e-05
0.000163178
0.000970796
6.69644e-05
0.000153358
0.00070265
5.62714e-05
0.000193251
0.000427833
4.73424e-05
0.000216209
3.09191e-05
0.000449128
0.00162363
4.26109e-10
5.87792e-05
0.00157652
2.93809e-09
4.69052e-05
0.00153807
3.68681e-10
3.85541e-05
0.00150601
1.22466e-09
3.2012e-05
0.00147907
3.2177e-10
2.69203e-05
0.00145629
-1.90988e-09
2.27396e-05
0.00143694
2.58018e-09
1.93379e-05
0.00142048
-8.87784e-09
1.65633e-05
0.00140601
1.01464e-08
1.41206e-05
0.00139453
-1.76331e-08
1.2229e-05
0.00138259
5.13519e-08
1.02464e-05
0.00137186
9.88906e-08
9.47251e-06
0.00136342
1.90901e-07
7.42292e-06
0.00135228
4.37624e-07
9.65062e-06
0.00135135
1.03815e-06
-2.08646e-06
0.00132471
3.2666e-06
1.70252e-05
0.00139707
7.75631e-06
-5.75113e-05
0.00148022
3.94669e-05
-0.000124004
0.00170111
0.00018001
-0.000399291
0.00141285
0.000211813
0.000124092
0.00117972
0.000181065
0.000149957
0.000968267
0.000148308
0.000137277
0.000705212
0.000132217
0.00016751
0.000434603
0.000119255
0.000187364
8.90529e-05
0.000431307
0.00162361
6.36909e-09
5.87798e-05
0.00157652
4.14356e-09
4.69032e-05
0.00153807
-1.48352e-09
3.85557e-05
0.001506
-8.71054e-10
3.20109e-05
0.00147907
-2.1122e-09
2.69206e-05
0.00145629
-4.30988e-09
2.27409e-05
0.00143695
-1.08037e-10
1.93349e-05
0.00142045
-9.27288e-09
1.65709e-05
0.00140608
5.37683e-09
1.41068e-05
0.00139442
-1.3486e-08
1.22533e-05
0.00138387
5.39565e-08
1.01932e-05
0.00137201
1.91528e-07
9.43914e-06
0.00136375
3.46761e-07
7.40796e-06
0.00135283
5.93344e-07
9.62416e-06
0.00135023
2.88601e-06
-2.12519e-06
0.00132486
3.8754e-06
1.67722e-05
0.00139321
1.60046e-05
-5.66239e-05
0.00147534
5.97368e-05
-0.000123105
0.00167889
0.000288412
-0.000406149
0.00139778
0.000329336
0.000105437
0.00117689
0.000275376
0.000142898
0.000965063
0.000233845
0.000129566
0.000707697
0.000219648
0.000148787
0.000440113
0.000207577
0.000168255
0.000172591
0.000415821
0.00162357
3.49666e-08
5.87754e-05
0.00157654
-3.93473e-08
4.6906e-05
0.00153808
2.69499e-08
3.85552e-05
0.00150599
-2.88443e-08
3.2013e-05
0.00147907
1.81966e-08
2.69182e-05
0.00145629
-2.17243e-08
2.27449e-05
0.00143697
1.29162e-08
1.93293e-05
0.00142045
-2.32261e-08
1.65794e-05
0.00140613
2.37484e-08
1.40935e-05
0.00139436
-4.1102e-08
1.22742e-05
0.0013832
1.10166e-07
1.01409e-05
0.00137264
3.59927e-07
9.32838e-06
0.0013669
-7.77856e-07
7.40206e-06
0.00135042
5.9251e-06
9.49836e-06
0.00136046
-8.23758e-06
-2.69741e-06
0.00130833
3.13156e-05
1.62543e-05
0.00141148
-1.24676e-05
-5.53093e-05
0.00146627
0.000106991
-0.000122468
0.00166516
0.000395415
-0.000406437
0.00139776
0.000450316
8.50325e-05
0.00118162
0.000365133
0.000143209
0.000968155
0.000321502
0.000125792
0.000717826
0.000311342
0.000137311
0.000446336
0.000308442
0.000162378
0.000279207
0.000404429
0.00162396
-2.78416e-08
5.86838e-05
0.00157662
4.59587e-08
4.70145e-05
0.00153824
-2.80887e-08
3.84653e-05
0.001506
3.18535e-08
3.21019e-05
0.00147911
-2.31531e-08
2.68402e-05
0.00145631
1.97968e-08
2.28175e-05
0.00143691
-1.58762e-08
1.9264e-05
0.00142052
7.65541e-09
1.66408e-05
0.00140621
-6.19547e-09
1.40327e-05
0.00139421
1.05885e-08
1.23495e-05
0.00138392
-1.45512e-08
1.00374e-05
0.00137455
8.11785e-09
9.0967e-06
0.00136095
1.41209e-06
9.46111e-06
0.00136798
-3.79857e-06
1.70247e-06
0.00132518
1.55574e-05
1.47435e-05
0.0013997
-1.63666e-05
-3.43892e-05
0.0013082
5.76732e-05
1.78819e-05
0.00151
8.24013e-05
-0.000216857
0.00167033
0.000484932
-0.000348674
0.00145716
0.000553499
5.58702e-05
0.00122107
0.000476832
0.000160704
0.000996162
0.000413712
0.000135875
0.000737033
0.000408246
0.000135884
0.000459078
0.000418927
0.000156929
0.000413296
0.000394877
0.00162351
2.29085e-08
5.877e-05
0.00157658
-3.59841e-08
4.69086e-05
0.00153807
2.65364e-08
3.85571e-05
0.00150598
-2.42409e-08
3.20101e-05
0.00147912
2.08836e-08
2.69221e-05
0.00145633
-1.73779e-08
2.27436e-05
0.00143702
1.58216e-08
1.93294e-05
0.0014204
-1.9039e-08
1.65865e-05
0.0014063
2.43027e-08
1.40741e-05
0.00139429
-3.86665e-08
1.23138e-05
0.00138384
1.1127e-07
1.00957e-05
0.0013735
2.04965e-07
9.20051e-06
0.00136821
-3.16211e-07
7.69437e-06
0.00134586
5.81272e-06
8.97531e-06
0.00136725
-6.74889e-06
-2.61065e-06
0.00129021
3.55012e-05
1.44886e-05
0.00142328
-7.69877e-06
-4.95549e-05
0.00142539
0.000159491
-0.00010551
0.00163134
0.000600832
-0.00042451
0.00142303
0.000670501
3.9562e-05
0.00123301
0.000543307
0.000161111
0.00101659
0.00049661
0.000135153
0.000759901
0.000506723
0.000129933
0.000477234
0.000539463
0.000151988
0.000585684
0.000380483
0.0016239
-2.52091e-08
5.86989e-05
0.00157651
3.64782e-08
4.69971e-05
0.0015382
-2.61123e-08
3.84769e-05
0.00150589
3.23628e-08
3.20896e-05
0.00147915
-2.51748e-08
2.68487e-05
0.00145623
3.02662e-08
2.28117e-05
0.00143706
-3.09513e-08
1.92659e-05
0.00142041
4.0316e-08
1.66479e-05
0.00140634
-4.89189e-08
1.40156e-05
0.00139436
7.13705e-08
1.23844e-05
0.00138376
-3.81514e-08
1.00267e-05
0.00137385
2.82873e-07
9.21218e-06
0.00136178
1.32201e-06
9.19882e-06
0.0013664
-2.36019e-06
2.37844e-06
0.00132516
1.28113e-05
1.39499e-05
0.00139441
-1.0048e-05
-3.28695e-05
0.00128393
7.29803e-05
2.54109e-05
0.00148905
0.000132416
-0.000217399
0.00162231
0.000720779
-0.00035903
0.00147879
0.000761956
8.84321e-06
0.00127874
0.000630807
0.000182229
0.00105847
0.000582157
0.000140323
0.000794151
0.000611539
0.000127511
0.000504267
0.000674836
0.000146157
0.000808626
0.000358905
0.00162344
-5.11226e-10
5.87675e-05
0.00157661
8.51675e-10
4.69067e-05
0.00153801
6.71345e-10
3.85642e-05
0.001506
3.96243e-09
3.19971e-05
0.0014791
-3.85557e-09
2.69403e-05
0.00145633
6.56181e-09
2.272e-05
0.00143703
-1.0789e-08
1.93614e-05
0.00142038
1.31684e-08
1.65446e-05
0.00140652
-1.9665e-08
1.41309e-05
0.00139392
3.22583e-08
1.22511e-05
0.00138433
-5.41198e-09
1.01934e-05
0.00137428
2.62124e-07
9.01264e-06
0.00136535
6.41382e-07
7.89703e-06
0.0013472
1.99775e-06
8.49119e-06
0.00135195
3.4695e-06
-1.11861e-06
0.00129879
1.64144e-05
1.24112e-05
0.0013774
4.0115e-05
-4.1609e-05
0.00135532
0.000197059
-7.83334e-05
0.0015519
0.000853082
-0.000442776
0.00147769
0.00081073
-7.63584e-06
0.00133103
0.00069093
0.000187547
0.00111959
0.000663256
0.00013948
0.00085361
0.000726457
0.000124564
0.000544685
0.000838711
0.000141603
0.0010989
0.00033107
0.00162343
1.01579e-08
5.87639e-05
0.0015766
-1.08816e-09
4.6909e-05
0.00153796
7.16533e-10
3.85638e-05
0.001506
-2.48794e-09
3.19946e-05
0.00147907
-6.82366e-09
2.69469e-05
0.00145636
1.29264e-09
2.27101e-05
0.00143702
-1.4724e-08
1.93786e-05
0.00142046
1.32286e-08
1.652e-05
0.00140652
-2.89067e-08
1.41716e-05
0.00139403
4.39338e-08
1.21946e-05
0.00138429
-3.10132e-08
1.03142e-05
0.00137423
2.9496e-07
8.90989e-06
0.00136482
6.25355e-07
7.90099e-06
0.00135069
2.10683e-06
8.22037e-06
0.00134172
4.90923e-06
-2.30155e-07
0.00131416
1.46681e-05
1.05574e-05
0.00133004
5.17861e-05
-3.91145e-05
0.00134157
0.000193727
-6.83276e-05
0.00155128
0.000934098
-0.000475238
0.00157921
0.000848055
-6.62236e-07
0.00143566
0.000769197
0.00018649
0.00122478
0.000745759
0.000136838
0.000933321
0.000875556
0.000118012
0.000609183
0.00102999
0.000130097
0.00149257
0.000282731
0.00162346
5.87466e-05
2.29904e-08
0.00157664
4.69273e-05
-2.09283e-08
0.00153797
3.8552e-05
1.22714e-08
0.00150604
3.20063e-05
-1.60708e-08
0.00147909
2.69411e-05
3.99402e-09
0.0014564
2.27126e-05
-1.00076e-08
0.00143703
1.9383e-05
-3.75177e-09
0.00142058
1.65056e-05
1.72435e-09
0.00140643
1.4205e-05
-1.48816e-08
0.00139418
1.21347e-05
2.40706e-08
0.0013842
1.04611e-05
-2.96459e-08
0.00137445
8.77806e-06
1.42328e-07
0.00136539
7.88858e-06
2.02357e-07
0.0013519
7.65703e-06
3.28496e-06
0.00135278
-1.25178e-08
-1.72021e-06
0.00131207
8.64579e-06
2.46009e-05
0.00135386
-4.46824e-05
1.59129e-05
0.00130648
-4.96968e-05
0.000192208
0.00163616
-0.000518302
0.000821161
0.00173677
1.14354e-05
0.00091476
0.0015964
0.000147585
0.000881642
0.00134681
0.000138565
0.000860032
0.00108434
9.79348e-05
0.00100338
0.000765991
0.000106776
0.0012321
0.000199194
0.00211155
0.00172985
-1.95807e-10
7.15672e-06
0.00176405
8.43941e-10
1.26766e-05
0.00178827
4.85582e-10
1.43721e-05
0.0018061
1.08678e-09
1.41736e-05
0.0018199
5.06194e-10
1.31367e-05
0.00183067
6.86955e-10
1.19336e-05
0.00183924
2.25699e-10
1.07609e-05
0.00184625
-3.59154e-10
9.53769e-06
0.00185189
2.87395e-10
8.41759e-06
0.00185688
3.9202e-10
7.27829e-06
0.00186028
7.91553e-09
6.78702e-06
0.00186224
3.91991e-08
6.56849e-06
0.00186278
1.05145e-07
5.43953e-06
0.00186203
3.34534e-07
5.26779e-06
0.00185308
7.81268e-07
1.96358e-06
0.00184474
2.8602e-06
3.7337e-06
0.00180201
7.37877e-06
-2.56943e-05
0.00157341
4.59965e-05
-0.000140066
0.00147799
0.000174354
-0.000552739
0.000959614
0.000242958
0.0004254
0.000702926
0.000233491
0.00012443
0.000422227
0.000244791
0.000104661
0.000177637
0.000255578
0.000150767
-8.65507e-05
0.000302216
0.000230595
0.000194269
0.000288866
0.00172985
1.15038e-09
7.15502e-06
0.00176405
1.45705e-09
1.26788e-05
0.00178827
1.48085e-09
1.43705e-05
0.0018061
1.33243e-09
1.41753e-05
0.0018199
7.58951e-10
1.3135e-05
0.00183066
2.23324e-10
1.19355e-05
0.00183924
2.25757e-10
1.07591e-05
0.00184624
-1.88433e-09
9.53969e-06
0.00185189
1.37275e-09
8.41501e-06
0.00185688
1.72474e-10
7.28116e-06
0.00186028
1.81314e-08
6.77335e-06
0.0018622
9.26592e-08
6.5683e-06
0.00186283
2.37809e-07
5.30914e-06
0.00186175
7.71916e-07
5.42289e-06
0.00185308
1.75246e-06
1.37613e-06
0.00184261
6.26161e-06
4.83332e-06
0.00179791
1.66373e-05
-2.47216e-05
0.00155263
0.00011032
-0.000140467
0.00140584
0.000425687
-0.000558144
0.000911965
0.000471511
0.000393579
0.000670392
0.000459126
0.000100278
0.000410628
0.000487961
6.8285e-05
0.000167899
0.000523599
0.000110803
-6.67608e-05
0.000590511
0.000186751
0.000434626
0.000243524
0.00172984
4.58796e-09
7.15641e-06
0.00176405
1.73054e-09
1.26763e-05
0.00178827
3.08172e-09
1.4372e-05
0.0018061
9.75972e-11
1.41738e-05
0.0018199
1.19179e-09
1.31358e-05
0.00183066
-1.78576e-09
1.19352e-05
0.00183924
2.08975e-10
1.07587e-05
0.00184624
-3.4945e-09
9.54104e-06
0.00185189
1.36957e-09
8.41307e-06
0.00185691
1.89737e-09
7.28196e-06
0.00186025
2.89197e-08
6.77218e-06
0.00186212
1.60834e-07
6.5473e-06
0.00186249
4.13839e-07
5.43286e-06
0.00186137
1.41609e-06
5.21045e-06
0.00185124
2.99289e-06
2.07338e-06
0.00184008
1.10283e-05
3.63926e-06
0.00179628
2.78805e-05
-2.4114e-05
0.00155202
0.000179569
-0.000133247
0.00136278
0.000686109
-0.000544237
0.000867092
0.000699875
0.000367918
0.000640945
0.000665903
9.09691e-05
0.000405578
0.00071678
5.0191e-05
0.000174053
0.000778566
9.51164e-05
-5.18017e-05
0.000857673
0.000180272
0.000694012
0.000224381
0.00172984
1.29882e-08
7.15326e-06
0.00176407
-8.28742e-09
1.26797e-05
0.00178828
1.18555e-08
1.43694e-05
0.0018061
-9.84185e-09
1.41772e-05
0.0018199
9.42299e-09
1.31325e-05
0.00183066
-1.07401e-08
1.19393e-05
0.00183923
7.82788e-09
1.07538e-05
0.00184624
-1.2327e-08
9.54767e-06
0.00185189
1.32692e-08
8.40353e-06
0.00185693
-1.14617e-08
7.29214e-06
0.00186019
9.30245e-08
6.74151e-06
0.00186196
2.23147e-07
6.53182e-06
0.00186178
1.20309e-06
5.29132e-06
0.00186106
1.37893e-06
5.33393e-06
0.00184712
6.98524e-06
1.6234e-06
0.00183832
1.17344e-05
4.68821e-06
0.00179474
4.15683e-05
-2.24879e-05
0.0015514
0.000261118
-0.000128021
0.001323
0.000958037
-0.000539192
0.000830908
0.000919659
0.000342038
0.000625151
0.000849265
8.94493e-05
0.000414554
0.000924519
4.52831e-05
0.00019521
0.00102037
8.77482e-05
-3.13242e-05
0.00112496
0.000176297
0.000966733
0.000222057
0.00172982
-7.28537e-09
7.14967e-06
0.00176413
1.20486e-08
1.26823e-05
0.00178825
-7.85421e-09
1.43655e-05
0.00180612
1.15534e-08
1.41827e-05
0.00181986
-9.61507e-09
1.31267e-05
0.00183066
1.02276e-08
1.19457e-05
0.00183919
-1.09863e-08
1.07457e-05
0.00184623
9.80239e-09
9.55865e-06
0.00185189
-1.04327e-08
8.38782e-06
0.00185695
2.20812e-08
7.3091e-06
0.00186025
1.31956e-08
6.6789e-06
0.00186168
2.75212e-07
6.53228e-06
0.00186593
9.07923e-08
4.51839e-06
0.00185408
2.74894e-06
6.87206e-06
0.00186749
2.64563e-06
-2.95357e-06
0.00179253
2.15669e-05
1.42644e-05
0.00183995
4.96641e-05
-3.51988e-05
0.00155526
0.000293998
-0.000120708
0.00130401
0.00127255
-0.000504997
0.000802554
0.00113533
0.000318448
0.000626263
0.0010156
8.90233e-05
0.000438712
0.00112266
4.40618e-05
0.000231781
0.00126271
7.75156e-05
2.96655e-06
0.00139802
0.000170017
0.00127009
0.000217105
0.00172984
6.7543e-09
7.15115e-06
0.00176409
-7.79426e-09
1.26804e-05
0.00178827
7.77967e-09
1.43691e-05
0.0018061
-8.61403e-09
1.41782e-05
0.00181989
8.25547e-09
1.31311e-05
0.00183066
-9.06582e-09
1.19429e-05
0.00183922
9.52627e-09
1.07475e-05
0.00184623
-1.16067e-08
9.55914e-06
0.00185191
1.84994e-08
8.38373e-06
0.00185697
-1.15293e-08
7.31418e-06
0.00186017
1.26289e-07
6.65222e-06
0.00186171
3.29026e-07
6.43681e-06
0.00186109
1.53313e-06
5.19501e-06
0.00185963
2.19372e-06
5.27032e-06
0.00183821
9.84158e-06
1.66253e-06
0.00183236
1.97806e-05
4.69347e-06
0.00178979
6.72326e-05
-2.03868e-05
0.00154152
0.00038363
-0.000105301
0.00122442
0.00156049
-0.000513673
0.000771599
0.00130643
0.000297981
0.000629879
0.0011401
9.28661e-05
0.000470091
0.00130178
4.15583e-05
0.0002821
0.00150065
6.3582e-05
5.16534e-05
0.0016796
0.000161822
0.00161531
0.000210692
0.00172985
-9.13353e-09
7.15048e-06
0.00176412
1.02317e-08
1.26795e-05
0.00178823
-1.05107e-08
1.4369e-05
0.00180609
1.22588e-08
1.41788e-05
0.00181983
-1.17431e-08
1.31305e-05
0.00183063
1.40818e-08
1.19437e-05
0.00183919
-1.41814e-08
1.07447e-05
0.00184621
1.87855e-08
9.56571e-06
0.00185192
-1.71387e-08
8.36948e-06
0.00185696
3.66565e-08
7.33313e-06
0.00186034
4.90928e-08
6.56548e-06
0.00186191
3.91606e-07
6.37146e-06
0.0018658
3.61971e-07
4.58651e-06
0.00185361
3.50176e-06
6.48217e-06
0.0018638
5.43885e-06
-2.54782e-06
0.00178776
2.83384e-05
1.25011e-05
0.00184429
7.89788e-05
-3.57908e-05
0.00153435
0.000406198
-9.09831e-05
0.00119492
0.00188322
-0.000479187
0.000756509
0.00146099
0.000278533
0.000660417
0.00124535
9.73703e-05
0.000526681
0.00147355
4.04356e-05
0.000360932
0.00173662
5.02214e-05
0.000121678
0.00197664
0.000152497
0.00201658
0.000202785
0.00172987
-1.31768e-09
7.15242e-06
0.00176409
1.58048e-09
1.26765e-05
0.00178825
-2.69564e-09
1.43743e-05
0.00180608
3.3083e-09
1.41708e-05
0.00181986
-3.74778e-09
1.31397e-05
0.00183061
4.31833e-09
1.19348e-05
0.00183921
-3.99746e-09
1.07542e-05
0.0018462
4.53797e-09
9.55656e-06
0.00185197
8.74053e-10
8.37381e-06
0.00185691
1.31118e-08
7.33411e-06
0.00186048
9.89103e-08
6.50455e-06
0.00186205
4.02998e-07
6.29888e-06
0.00186228
1.0364e-06
5.26292e-06
0.00185844
3.30794e-06
5.00929e-06
0.00184027
8.6153e-06
1.6756e-06
0.00181689
2.99531e-05
3.63403e-06
0.00179346
9.43163e-05
-1.98268e-05
0.00154602
0.00045558
-7.62705e-05
0.00111557
0.00213424
-0.000462386
0.000768418
0.00157034
0.000242778
0.000718363
0.00133203
0.000104221
0.000614665
0.00163822
3.83092e-05
0.00046607
0.00197352
3.94174e-05
0.000220488
0.00228673
0.000139447
0.00250114
0.000187121
0.00172987
4.14629e-09
7.15148e-06
0.00176405
-4.84677e-10
1.26769e-05
0.00178824
5.18334e-10
1.43752e-05
0.00180604
1.25009e-09
1.41681e-05
0.00181983
-4.07944e-09
1.31441e-05
0.00183059
4.20123e-09
1.19294e-05
0.00183923
-7.68016e-09
1.07605e-05
0.00184618
7.31592e-09
9.54975e-06
0.00185202
-4.24052e-09
8.37821e-06
0.0018569
1.46604e-08
7.32768e-06
0.00186072
1.16217e-07
6.43976e-06
0.0018625
3.95386e-07
6.1759e-06
0.00186364
1.09366e-06
5.25755e-06
0.00186002
3.38985e-06
4.84905e-06
0.00184543
9.22227e-06
2.244e-06
0.0018204
3.01736e-05
2.31952e-06
0.00176819
9.97226e-05
-1.82528e-05
0.00154943
0.000462106
-5.84027e-05
0.00107209
0.00226014
-0.000419763
0.000866223
0.00167422
0.000175107
0.000828824
0.00144985
0.000110788
0.000751926
0.00179893
3.69498e-05
0.000617271
0.00220609
3.10118e-05
0.000365565
0.00260441
0.000117806
0.00309596
0.000158673
0.00172983
7.14947e-06
5.39872e-09
0.00176402
1.26785e-05
-2.51266e-09
0.00178823
1.43747e-05
3.56881e-09
0.001806
1.41688e-05
-1.67853e-09
0.00181984
1.31449e-05
-1.53575e-09
0.0018306
1.19285e-05
3.94701e-09
0.00183923
1.07618e-05
-1.24634e-08
0.0018462
9.54946e-06
2.11547e-08
0.00185211
8.3731e-06
-3.82809e-08
0.00185685
7.33283e-06
7.14207e-08
0.00186112
6.35166e-06
-8.0773e-08
0.00186297
6.01533e-06
5.31935e-07
0.00186579
5.28052e-06
-9.00853e-08
0.00186005
4.72558e-06
6.02372e-06
0.001858
2.79638e-06
-7.31868e-07
0.00181196
1.5596e-06
4.8558e-05
0.00178319
-1.36283e-05
5.23558e-05
0.00161309
-5.26074e-05
0.000433341
0.00117331
-0.000377944
0.00208718
0.00115905
9.25988e-05
0.00178673
0.0010102
0.000120269
0.00168799
0.000941516
3.80544e-05
0.00195772
0.000827602
2.75265e-05
0.00240007
0.000618395
8.60147e-05
0.00287337
0.00010548
0.00389193
0.00169386
8.62622e-10
-7.15352e-06
0.00171918
1.46533e-10
-1.26792e-05
0.00174794
9.97195e-10
-1.43679e-05
0.00177628
-1.99311e-11
-1.41772e-05
0.00180253
3.64502e-10
-1.31326e-05
0.0018264
-3.71898e-11
-1.19366e-05
0.00184796
-1.30269e-10
-1.07584e-05
0.00186693
-4.94081e-10
-9.53982e-06
0.00188396
-2.56676e-10
-8.41832e-06
0.00189825
8.10414e-10
-7.27335e-06
0.00191213
2.42995e-09
-6.81295e-06
0.00192452
3.39016e-08
-6.5716e-06
0.00193382
9.04335e-08
-5.42565e-06
0.00193769
4.29699e-07
-5.13159e-06
0.00193274
7.54381e-07
-1.7401e-06
0.00191394
3.7987e-06
-2.87384e-06
0.00181433
1.05306e-05
2.93592e-05
0.00115807
6.55617e-05
0.000165695
0.000103715
0.000142637
0.000454536
0.000562157
0.000380437
-0.000390637
0.000277096
0.00039137
-0.000112446
-7.81002e-05
0.000425573
-8.99169e-05
-0.000266105
0.000457485
-0.000142301
-0.000288359
0.000534094
-0.000225611
0.000399039
-0.000282282
0.00169385
8.21906e-10
-7.15022e-06
0.00171918
2.56461e-10
-1.26818e-05
0.00174794
8.0974e-10
-1.4364e-05
0.00177628
8.9739e-10
-1.41826e-05
0.00180253
-2.79174e-10
-1.31278e-05
0.00182641
1.0267e-09
-1.19412e-05
0.00184795
-2.23286e-09
-1.07539e-05
0.00186694
2.03973e-09
-9.54545e-06
0.00188395
-4.58408e-09
-8.41024e-06
0.00189825
6.13921e-09
-7.28393e-06
0.00191209
-1.47659e-09
-6.77022e-06
0.00192454
4.81935e-08
-6.6146e-06
0.00193283
2.17513e-07
-4.63468e-06
0.00193867
6.76235e-07
-6.79299e-06
0.00192776
2.09749e-06
2.83785e-06
0.00192137
6.417e-06
-1.27822e-05
0.00181057
1.98997e-05
4.28932e-05
0.0011468
0.000136087
0.000170034
2.24182e-05
0.000480751
0.000340153
0.00050158
0.000659035
-0.000353402
0.000217837
0.000721922
-8.54436e-05
-0.000141938
0.000786671
-5.54271e-05
-0.000310425
0.000814842
-0.000103322
-0.000240853
0.000886448
-0.000180517
0.000749701
-0.000235895
0.00169385
1.68866e-09
-7.15157e-06
0.00171918
1.21251e-10
-1.26808e-05
0.00174794
1.75388e-09
-1.43664e-05
0.00177628
-2.00112e-10
-1.41797e-05
0.00180253
-2.49183e-10
-1.31303e-05
0.00182641
4.79315e-11
-1.19399e-05
0.00184795
-2.47914e-09
-1.07547e-05
0.00186694
1.1806e-09
-9.54571e-06
0.00188395
-4.14655e-09
-8.40973e-06
0.00189825
7.8913e-09
-7.28497e-06
0.00191209
3.12571e-09
-6.77749e-06
0.00192442
1.00228e-07
-6.54703e-06
0.00193357
3.37918e-07
-5.40111e-06
0.00193703
1.31124e-06
-5.12394e-06
0.00193217
3.08314e-06
-1.8994e-06
0.0019115
1.18046e-05
-2.99505e-06
0.00181168
3.5161e-05
2.79288e-05
0.00114676
0.000232596
0.00015721
4.05714e-06
0.00075846
0.000432876
0.000452218
0.000908054
-0.000336089
0.00018971
0.00100836
-8.04513e-05
-0.000159071
0.00110441
-3.93797e-05
-0.000302786
0.0011206
-8.87145e-05
-0.000214861
0.0012091
-0.000173965
0.00108649
-0.000216902
0.00169384
1.47414e-09
-7.14897e-06
0.00171918
-3.75676e-10
-1.26824e-05
0.00174794
1.7467e-09
-1.43643e-05
0.00177628
-1.06444e-09
-1.41833e-05
0.00180254
-1.59334e-10
-1.31271e-05
0.00182641
-1.33511e-10
-1.19444e-05
0.00184794
-2.93955e-09
-1.07491e-05
0.00186696
2.90015e-09
-9.55411e-06
0.00188394
-5.54855e-09
-8.39727e-06
0.00189826
1.28403e-08
-7.29912e-06
0.00191203
5.46909e-09
-6.72688e-06
0.00192436
1.41468e-07
-6.56204e-06
0.00193244
4.84996e-07
-4.5997e-06
0.0019375
1.8328e-06
-6.67048e-06
0.00192708
4.4293e-06
2.75236e-06
0.00191765
1.64908e-05
-1.28816e-05
0.00181113
4.90678e-05
4.04158e-05
0.00118138
0.000322366
0.000144291
-4.00267e-06
0.00110612
0.00039989
0.000417428
0.00112218
-0.000317674
0.000189364
0.00125097
-7.88709e-05
-0.000132454
0.0013944
-3.75443e-05
-0.000278524
0.00142321
-8.33627e-05
-0.000198969
0.00153578
-0.000170906
0.001436
-0.000214774
0.00169383
-5.27967e-10
-7.1467e-06
0.00171918
-3.57681e-11
-1.26855e-05
0.00174795
-3.55387e-10
-1.4363e-05
0.00177628
3.49004e-10
-1.41861e-05
0.00180254
-1.41718e-09
-1.31244e-05
0.00182642
2.1699e-09
-1.19489e-05
0.00184792
-4.39211e-09
-1.07433e-05
0.00186698
7.68804e-09
-9.56222e-06
0.00188392
-9.31848e-09
-8.38526e-06
0.00189826
2.14978e-08
-7.3126e-06
0.00191197
4.98573e-09
-6.6828e-06
0.00192426
1.68317e-07
-6.52345e-06
0.00193127
6.27787e-07
-4.45997e-06
0.00193777
2.23304e-06
-6.72788e-06
0.00192187
5.87802e-06
3.24603e-06
0.00192289
2.03012e-05
-1.38387e-05
0.0018134
6.06841e-05
3.84441e-05
0.00124352
0.000396359
0.000132104
-2.71567e-05
0.00151671
0.000422712
0.000385521
0.00128937
-0.000301826
0.00020246
0.00144638
-8.31428e-05
-8.75941e-05
0.00166058
-3.90552e-05
-0.000240332
0.00172421
-7.47311e-05
-0.000173584
0.00186589
-0.000165471
0.00179879
-0.000209556
0.00169382
-1.8382e-09
-7.14936e-06
0.00171918
3.04345e-10
-1.26813e-05
0.00174795
-1.25014e-09
-1.43666e-05
0.00177627
-2.01373e-10
-1.41817e-05
0.00180254
-6.02385e-10
-1.31276e-05
0.00182641
1.31521e-09
-1.19462e-05
0.00184792
-1.95519e-09
-1.07439e-05
0.001867
6.98488e-09
-9.56413e-06
0.00188391
-7.69839e-09
-8.37806e-06
0.00189827
2.56773e-08
-7.32146e-06
0.00191195
7.02542e-09
-6.64028e-06
0.00192404
2.18441e-07
-6.46019e-06
0.00193172
7.80753e-07
-4.57806e-06
0.00193595
2.84804e-06
-6.54787e-06
0.00192439
7.23497e-06
2.58499e-06
0.00191072
2.56298e-05
-1.28893e-05
0.00181858
7.67117e-05
3.78486e-05
0.00132917
0.000471466
0.000108259
-6.42733e-05
0.00192983
0.000448241
0.000351753
0.00140523
-0.000287275
0.000228156
0.00159217
-8.83216e-05
-2.55815e-05
0.00190022
-3.99302e-05
-0.000185107
0.00202057
-6.2917e-05
-0.000135298
0.0022006
-0.000158332
0.00218471
-0.000203408
0.00169381
-2.36566e-09
-7.15199e-06
0.00171919
5.48522e-10
-1.26783e-05
0.00174794
-2.09703e-09
-1.43712e-05
0.00177625
2.94321e-10
-1.41747e-05
0.00180255
-5.10247e-10
-1.3134e-05
0.0018264
6.10724e-10
-1.19404e-05
0.00184792
4.9197e-10
-1.07484e-05
0.00186703
3.21678e-09
-9.56104e-06
0.00188387
-1.87552e-09
-8.37544e-06
0.00189832
2.18662e-08
-7.32726e-06
0.00191189
7.13766e-09
-6.58645e-06
0.00192373
2.50656e-07
-6.37422e-06
0.00193136
9.48359e-07
-5.14159e-06
0.00193567
3.18881e-06
-5.24915e-06
0.0019194
9.05953e-06
-1.30538e-06
0.00190611
2.96406e-05
-5.01512e-06
0.00181436
9.41013e-05
2.06011e-05
0.00135632
0.000541742
9.39975e-05
-0.000106929
0.00234383
0.000468344
0.000322938
0.00147359
-0.000268589
0.000271581
0.00168957
-9.47138e-05
6.28423e-05
0.00211561
-3.89389e-05
-0.000108133
0.0023155
-4.98242e-05
-7.97382e-05
0.00254288
-0.000149976
0.00260855
-0.000196428
0.00169381
-1.87085e-09
-7.1539e-06
0.00171919
1.33971e-09
-1.26747e-05
0.00174792
-2.24535e-09
-1.43757e-05
0.00177624
1.08393e-09
-1.41685e-05
0.00180255
-3.48858e-10
-1.31411e-05
0.00182639
-1.58563e-10
-1.1933e-05
0.00184793
2.64247e-09
-1.07556e-05
0.00186706
-2.58039e-09
-9.55488e-06
0.00188383
8.57042e-09
-8.37535e-06
0.00189843
2.16478e-11
-7.33328e-06
0.00191171
3.92819e-08
-6.50569e-06
0.0019233
2.14392e-07
-6.30071e-06
0.00193202
9.33237e-07
-5.27466e-06
0.00193421
3.54934e-06
-5.02344e-06
0.00191949
1.04281e-05
-1.67034e-06
0.00189726
3.43357e-05
-3.92921e-06
0.0018187
0.000111464
1.92518e-05
0.00139663
0.000584464
7.1693e-05
-9.16627e-05
0.00271442
0.000459856
0.000315773
0.0015258
-0.000238667
0.000344803
0.00175453
-0.000101083
0.000183048
0.00231358
-3.67576e-05
7.13107e-06
0.00259869
-3.85495e-05
1.58357e-05
0.00287956
-0.000137519
0.00309041
-0.000182093
0.0016938
1.06646e-10
-7.15174e-06
0.0017192
5.08072e-10
-1.26767e-05
0.0017479
-9.88105e-10
-1.43753e-05
0.00177626
2.70198e-09
-1.41678e-05
0.00180255
-3.11916e-09
-1.3144e-05
0.0018264
4.70967e-09
-1.19293e-05
0.00184797
-5.39124e-09
-1.07604e-05
0.00186707
6.63749e-09
-9.54955e-06
0.00188383
-4.14738e-09
-8.37847e-06
0.00189852
8.0953e-09
-7.32733e-06
0.00191127
5.11152e-08
-6.44247e-06
0.00192371
1.46194e-07
-6.17841e-06
0.00193284
1.08732e-06
-5.26756e-06
0.00193505
3.65362e-06
-4.88044e-06
0.00192355
1.11426e-05
-2.32131e-06
0.00189063
3.48717e-05
-2.4962e-06
0.00182759
0.000120937
1.7749e-05
0.00145842
0.000570803
5.5402e-05
7.51499e-05
0.00289069
0.000411896
0.000362544
0.00166817
-0.000174094
0.000465767
0.00183288
-0.000108867
0.000355662
0.00248835
-3.5906e-05
0.000179585
0.00288321
-3.02057e-05
0.000163056
0.00318491
-0.000116537
0.00365001
-0.000155062
0.0016938
-7.14884e-06
9.13876e-10
0.00171918
-1.26791e-05
9.33605e-10
0.00174789
-1.43737e-05
4.34357e-10
0.00177628
-1.41697e-05
3.01417e-09
0.00180255
-1.31438e-05
-5.11882e-09
0.00182644
-1.19294e-05
1.13939e-08
0.00184799
-1.0761e-05
-2.15934e-08
0.00186708
-9.55005e-06
3.84163e-08
0.00188385
-8.37331e-06
-6.81826e-08
0.00189845
-7.33151e-06
1.27205e-07
0.00191125
-6.35695e-06
-1.91475e-07
0.00192286
-6.01234e-06
6.02255e-07
0.00193362
-5.27968e-06
1.19567e-07
0.00193337
-4.74477e-06
6.84192e-06
0.00193908
-2.83273e-06
-4.94244e-08
0.00188309
-1.69032e-06
5.56701e-05
0.00186526
1.3317e-05
6.87546e-05
0.00155274
5.01742e-05
0.000527869
0.000434743
0.000369009
0.0027136
0.000528724
-9.1893e-05
0.00191341
0.000650158
-0.000118806
0.00200969
0.000591278
-3.75835e-05
0.00263285
0.000454601
-2.72151e-05
0.00311284
0.000427311
-8.54797e-05
0.00342768
-0.000102863
0.00435016
0.00172983
1.25644e-08
-5.8774e-05
0.00176406
-9.43079e-09
-4.69089e-05
0.00178827
1.02333e-08
-3.85515e-05
0.0018061
-9.46633e-09
-3.20169e-05
0.00181989
8.01153e-09
-2.69151e-05
0.00183067
-8.74627e-09
-2.27475e-05
0.00183923
6.35731e-09
-1.93283e-05
0.00184626
-9.08866e-09
-1.65805e-05
0.00185189
8.5365e-09
-1.40887e-05
0.00185693
-1.07188e-08
-1.22895e-05
0.00186008
5.33168e-08
-1.00891e-05
0.00186191
4.93867e-08
-9.3216e-06
0.00186165
7.3497e-07
-7.21051e-06
0.0018615
-1.70504e-08
-9.53437e-06
0.00184909
3.44592e-06
3.09201e-06
0.00184419
2.63299e-07
-1.672e-05
0.00180347
8.83173e-06
5.79105e-05
0.00158627
6.87423e-05
0.000119268
0.00141127
0.000162066
0.000417889
0.000911643
0.000248765
-0.00013871
0.000663954
0.000233686
-0.000177229
0.000394809
0.000243787
-0.000154141
0.000158497
0.000248908
-0.000184437
-0.000103952
0.00030075
-0.000209504
0.000178368
-0.000447568
0.0017298
-7.15118e-09
-5.86775e-05
0.00176412
1.16963e-08
-4.70189e-05
0.00178826
-6.20919e-09
-3.84654e-05
0.00180612
9.93563e-09
-3.21005e-05
0.00181986
-6.45844e-09
-2.68449e-05
0.00183068
6.53433e-09
-2.28101e-05
0.00183919
-7.63235e-09
-1.92756e-05
0.00184625
5.60745e-09
-1.66236e-05
0.00185188
-1.22933e-08
-1.40552e-05
0.00185694
1.24365e-08
-1.23172e-05
0.00186021
-3.20085e-08
-1.00663e-05
0.00186169
8.20723e-08
-9.05664e-06
0.00186623
-3.85525e-07
-9.59537e-06
0.00185486
1.2467e-06
-1.3086e-06
0.0018703
-8.07152e-07
-1.51861e-05
0.00179867
9.14436e-06
3.55204e-05
0.00184618
1.49044e-05
-1.5556e-05
0.00161687
8.22548e-05
0.000213746
0.00134722
0.000411331
0.000313698
0.000865864
0.00048557
-0.000114609
0.000638315
0.000471448
-0.000178345
0.000401416
0.000491889
-0.000157494
0.000161379
0.000521659
-0.000166881
-7.38453e-05
0.000586123
-0.000174883
0.00041805
-0.000432437
0.00172983
9.64502e-09
-5.87688e-05
0.00176408
-6.04976e-09
-4.69138e-05
0.00178828
7.86676e-09
-3.85488e-05
0.00180611
-5.8952e-09
-3.20207e-05
0.00181989
4.66548e-09
-2.69113e-05
0.00183068
-6.90299e-09
-2.27518e-05
0.00183922
4.14502e-09
-1.93264e-05
0.00184627
-1.09871e-08
-1.65788e-05
0.0018519
1.08463e-08
-1.40992e-05
0.00185693
-1.22834e-08
-1.22677e-05
0.00186012
7.18747e-08
-1.01332e-05
0.00186189
1.37895e-07
-9.26057e-06
0.00186109
9.74577e-07
-7.34359e-06
0.00186117
6.98651e-07
-9.2968e-06
0.00184484
5.28876e-06
3.52002e-06
0.00184163
6.48044e-06
-1.58627e-05
0.00180117
2.6542e-05
5.63358e-05
0.00156442
0.000186039
0.000115442
0.00124937
0.000631905
0.000465029
0.00081492
0.000687429
-0.000115788
0.000607272
0.000669798
-0.000157724
0.000393338
0.000712759
-0.000135672
0.000169212
0.00077014
-0.000140533
-5.271e-05
0.000851131
-0.000160319
0.000684462
-0.000419719
0.00172981
9.3412e-10
-5.86947e-05
0.00176413
1.74402e-09
-4.69966e-05
0.00178825
3.84623e-10
-3.84885e-05
0.00180612
-2.71737e-10
-3.20739e-05
0.00181986
-4.70813e-11
-2.68735e-05
0.00183067
-2.73859e-09
-2.27839e-05
0.00183919
8.00213e-10
-1.92959e-05
0.00184625
-4.49794e-09
-1.66148e-05
0.00185188
3.70993e-09
-1.40525e-05
0.00185695
2.08211e-09
-1.233e-05
0.00186019
3.84364e-08
-1.00506e-05
0.00186166
2.00713e-07
-9.08614e-06
0.00186556