/*--------------------------------*- C++ -*----------------------------------*\
  =========                 |
  \\      /  F ield         | OpenFOAM: The Open Source CFD Toolbox
   \\    /   O peration     | Website:  https://openfoam.org
    \\  /    A nd           | Version:  6
     \\/     M anipulation  |
\*---------------------------------------------------------------------------*/
FoamFile
{
    version     2.0;
    format      ascii;
    class       volScalarField;
    location    "0.5";
    object      T;
}
// * * * * * * * * * * * * * * * * * * * * * * * * * * * * * * * * * * * * * //

dimensions      [0 0 0 1 0 0 0];

internalField   nonuniform List<scalar> 
26250
(
0.979575
0.967843
0.95552
0.946956
0.937518
0.93127
0.924022
0.919227
0.913845
0.910559
0.907703
0.909893
0.916719
0.94009
0.999453
1.16769
1.81955
2.30803
2.89239
3.01424
2.97105
2.81938
2.7985
2.89599
2.88468
0.979572
0.967848
0.955521
0.946951
0.937523
0.931272
0.924013
0.919236
0.913839
0.910551
0.907645
0.909861
0.916526
0.939755
0.99849
1.16606
1.81069
2.30448
2.89052
3.01106
2.96494
2.82012
2.80553
2.9064
2.88511
0.97956
0.967872
0.9555
0.946973
0.937512
0.931305
0.923976
0.919282
0.913819
0.910501
0.907542
0.909759
0.916075
0.938972
0.996271
1.16244
1.7876
2.29507
2.89081
3.00678
2.95237
2.81428
2.80672
2.91543
2.88673
0.979541
0.967926
0.955458
0.947001
0.937516
0.9313
0.923983
0.919261
0.913814
0.910475
0.90722
0.909715
0.914119
0.938142
0.992257
1.15744
1.7687
2.2768
2.88512
2.99703
2.93727
2.81052
2.80822
2.91526
2.88613
0.980695
0.966536
0.956725
0.945672
0.93879
0.930069
0.925121
0.918301
0.914565
0.909652
0.907776
0.907385
0.915625
0.928823
0.998295
1.12648
1.62144
2.39339
2.9133
2.98413
2.88747
2.75582
2.76932
2.91041
2.88586
0.979553
0.967967
0.955392
0.947086
0.937465
0.931326
0.92388
0.91939
0.913669
0.910353
0.907005
0.909613
0.910586
0.93448
0.980175
1.13777
1.6685
2.22003
2.88979
2.97113
2.86629
2.74152
2.75953
2.90858
2.88421
0.98053
0.966732
0.956656
0.945788
0.938793
0.930047
0.925183
0.918125
0.914796
0.909269
0.907518
0.907127
0.913505
0.923151
0.985359
1.09399
1.55038
2.30842
2.90005
2.94754
2.8119
2.69854
2.73337
2.90286
2.87784
0.979665
0.967941
0.955366
0.947176
0.93734
0.931464
0.923731
0.919552
0.913426
0.910443
0.906558
0.908176
0.908256
0.928122
0.966083
1.10057
1.50061
2.12239
2.9025
2.93087
2.76498
2.66469
2.70782
2.88483
2.85867
0.97977
0.967851
0.955446
0.947153
0.937357
0.931491
0.923672
0.919619
0.913274
0.910519
0.90621
0.907172
0.907466
0.923551
0.95865
1.06972
1.41468
1.99343
2.90973
2.88747
2.70647
2.63589
2.68451
2.85923
2.82335
0.979961
0.967654
0.955621
0.946986
0.937486
0.931334
0.923797
0.919459
0.913297
0.910538
0.905803
0.906101
0.906097
0.919211
0.944909
1.03924
1.30226
1.85677
2.90026
2.8341
2.65853
2.62234
2.65768
2.80974
2.73763
1.01394
1.02127
1.02605
1.02916
1.03159
1.03315
1.03459
1.03535
1.03643
1.03716
1.04007
1.04446
1.06125
1.09544
1.1834
1.43989
2.24428
2.81962
3.01792
3.13447
3.03599
3.04887
3.05492
3.06029
2.90747
1.01394
1.02127
1.02605
1.02916
1.03159
1.03315
1.03459
1.03536
1.03643
1.03716
1.04004
1.0444
1.06107
1.09501
1.18236
1.43733
2.23855
2.81806
3.02289
3.12902
3.03154
3.04672
3.05537
3.07022
2.91979
1.01394
1.02127
1.02605
1.02916
1.03159
1.03316
1.03458
1.03537
1.03642
1.03714
1.03997
1.04424
1.0607
1.09394
1.18021
1.43153
2.22369
2.81022
3.03287
3.1184
3.02445
3.04197
3.05175
3.07599
2.93453
1.01393
1.02128
1.02604
1.02917
1.03159
1.03316
1.03459
1.03538
1.03641
1.03712
1.03985
1.04397
1.06012
1.09211
1.17686
1.42185
2.1949
2.80046
3.04501
3.10261
3.01193
3.0299
3.04141
3.07493
2.94057
1.01399
1.02122
1.02606
1.02916
1.03161
1.03317
1.03461
1.0354
1.0364
1.03709
1.03959
1.04373
1.05733
1.09209
1.16949
1.41452
2.16388
2.79333
3.05929
3.07931
2.99228
3.01688
3.03034
3.07079
2.94205
1.01392
1.02126
1.02603
1.02918
1.03159
1.03317
1.03459
1.0354
1.03638
1.03706
1.03948
1.04316
1.05804
1.08629
1.16661
1.38888
2.09869
2.77411
3.0705
3.05264
2.97357
3.00112
3.01439
3.06162
2.93981
1.01396
1.02121
1.02607
1.02918
1.03161
1.0332
1.03461
1.03542
1.03636
1.03702
1.0391
1.04275
1.05418
1.08556
1.15261
1.3737
2.02977
2.74853
3.08456
3.0172
2.94917
2.98381
2.9983
3.0414
2.93018
1.0139
1.02125
1.02604
1.02919
1.03159
1.03321
1.0346
1.03541
1.03635
1.03697
1.03885
1.04193
1.0542
1.07823
1.14561
1.33804
1.9163
2.70909
3.09981
2.97126
2.92559
2.96089
2.97518
3.01929
2.90795
1.01387
1.02128
1.02605
1.0292
1.03162
1.03323
1.03459
1.03542
1.03633
1.0369
1.03849
1.04123
1.05197
1.07321
1.13063
1.30421
1.77169
2.65193
3.11116
2.91322
2.8937
2.932
2.94205
2.97188
2.84996
1.0138
1.02138
1.026
1.02926
1.03162
1.03321
1.03459
1.03542
1.03629
1.03682
1.0381
1.04052
1.04944
1.06788
1.11498
1.26525
1.64323
2.4773
3.10889
2.86555
2.87431
2.90765
2.9078
2.92313
2.77249
1.00595
1.01306
1.02114
1.02837
1.03528
1.04101
1.04629
1.05071
1.05474
1.05797
1.06215
1.0687
1.08936
1.12928
1.22604
1.52279
2.34939
2.97863
2.9281
2.97859
3.02887
3.06757
3.2398
3.29754
3.08692
1.00597
1.01304
1.02116
1.02834
1.03531
1.04097
1.04632
1.05069
1.05476
1.05795
1.06215
1.06862
1.08932
1.12851
1.22542
1.51882
2.33588
2.98077
2.92004
2.9728
3.0275
3.06919
3.25394
3.31133
3.11012
1.00594
1.01306
1.02114
1.02837
1.03529
1.041
1.0463
1.05071
1.05473
1.05797
1.0621
1.06851
1.08873
1.1278
1.22246
1.51295
2.32512
2.97645
2.92565
2.9635
3.01982
3.06973
3.28234
3.3337
3.15395
1.00596
1.01305
1.02115
1.02835
1.03532
1.04096
1.04634
1.05068
1.05475
1.05795
1.06207
1.06827
1.08819
1.12584
1.21886
1.50042
2.2961
2.96559
2.93618
2.95234
3.00175
3.06205
3.28516
3.33577
3.16584
1.00598
1.01305
1.02115
1.02834
1.03534
1.04092
1.04639
1.05065
1.05476
1.05794
1.062
1.06792
1.08737
1.12317
1.21355
1.48309
2.25533
2.94784
2.95223
2.93306
2.98184
3.04541
3.27993
3.33292
3.16517
1.00595
1.01308
1.02111
1.02837
1.03532
1.04094
1.04638
1.05065
1.05473
1.05796
1.06187
1.06752
1.08605
1.12011
1.20597
1.46316
2.21084
2.92305
2.97878
2.90135
2.95962
3.02035
3.26737
3.32452
3.15931
1.00596
1.01309
1.0211
1.0284
1.0353
1.04094
1.0464
1.0506
1.05475
1.05794
1.06171
1.06701
1.08465
1.11559
1.19757
1.43684
2.14495
2.89734
3.01099
2.85865
2.93362
2.99535
3.2376
3.30781
3.14071
1.00595
1.01311
1.02106
1.02845
1.03525
1.04099
1.04636
1.05061
1.05474
1.05791
1.06152
1.06652
1.08237
1.11039
1.18799
1.40357
2.05801
2.84947
3.05032
2.80632
2.90833
2.96059
3.20111
3.27369
3.11277
1.00599
1.01307
1.0211
1.02846
1.03522
1.04104
1.0463
1.05063
1.05471
1.05788
1.06142
1.06596
1.07966
1.10501
1.17268
1.36618
1.92227
2.7883
3.07781
2.77161
2.88605
2.9224
3.13943
3.23295
3.03647
1.00596
1.0131
1.02109
1.02847
1.03518
1.04107
1.04621
1.05071
1.05461
1.05795
1.06121
1.06548
1.0767
1.09965
1.15445
1.32774
1.76235
2.65788
3.0787
2.77037
2.87143
2.88121
3.03158
3.16927
2.95203
1.01393
1.02128
1.02604
1.02916
1.03159
1.03315
1.03459
1.03536
1.03642
1.03716
1.04004
1.04435
1.06105
1.09465
1.18198
1.43638
2.22769
2.821
3.01524
3.11117
3.03592
3.0588
3.05573
3.05121
2.89997
1.014
1.02122
1.02607
1.02914
1.03162
1.03315
1.03462
1.03538
1.03642
1.03715
1.0399
1.04439
1.05911
1.09654
1.17898
1.44105
2.23348
2.82181
3.02572
3.10405
3.03461
3.05683
3.05494
3.05883
2.90759
1.01393
1.02127
1.02604
1.02916
1.0316
1.03315
1.0346
1.03536
1.03641
1.03714
1.03994
1.04412
1.06054
1.09315
1.17895
1.42877
2.20353
2.81568
3.02688
3.09239
3.02922
3.05424
3.05056
3.06306
2.92365
1.01399
1.02122
1.02606
1.02916
1.03162
1.03317
1.03461
1.03539
1.03641
1.03712
1.03974
1.04402
1.05816
1.09405
1.17333
1.4269
2.18913
2.80856
3.04076
3.08148
3.01716
3.04225
3.03911
3.06193
2.93105
1.01397
1.02123
1.02606
1.02917
1.03161
1.03318
1.03461
1.03539
1.0364
1.0371
1.0396
1.04369
1.05735
1.09175
1.16841
1.4136
2.14698
2.79945
3.04992
3.06472
3.0011
3.02807
3.02921
3.05916
2.93441
1.01397
1.02122
1.02606
1.02917
1.03161
1.03319
1.03461
1.03541
1.03639
1.03707
1.03938
1.04329
1.056
1.08906
1.16152
1.39619
2.09495
2.78149
3.06045
3.04366
2.9821
3.01121
3.01457
3.05219
2.93287
1.01392
1.02126
1.02603
1.02919
1.03159
1.03319
1.0346
1.03541
1.03637
1.03702
1.0392
1.04263
1.05639
1.08264
1.15839
1.36536
2.01868
2.75209
3.07646
3.01015
2.95833
2.99442
3.00104
3.03638
2.92459
1.01391
1.02125
1.02603
1.02919
1.03159
1.03321
1.0346
1.03541
1.03635
1.03697
1.03886
1.04198
1.05428
1.07851
1.14593
1.33878
1.91798
2.71078
3.09452
2.96727
2.93033
2.96994
2.97925
3.01571
2.90321
1.01387
1.02128
1.02605
1.0292
1.03161
1.03323
1.03459
1.03542
1.03633
1.0369
1.03851
1.04125
1.05205
1.07335
1.13103
1.30498
1.77358
2.65202
3.10709
2.91105
2.89635
2.93871
2.94476
2.9689
2.84462
1.0138
1.02139
1.02599
1.02926
1.03162
1.03321
1.0346
1.03542
1.03629
1.03682
1.03812
1.04054
1.04949
1.06801
1.11522
1.26606
1.64436
2.48047
3.10575
2.86141
2.87193
2.90954
2.90582
2.91509
2.7663
0.979552
0.967872
0.955507
0.94694
0.937583
0.931222
0.924048
0.919264
0.913741
0.910558
0.907335
0.909753
0.914818
0.939796
0.995228
1.16468
1.80698
2.30564
2.87584
2.98434
2.93526
2.81404
2.81729
2.9094
2.87712
0.980767
0.966508
0.956674
0.945702
0.938684
0.930161
0.924985
0.918457
0.914502
0.909641
0.908158
0.907764
0.916875
0.931349
1.00649
1.14172
1.65982
2.43994
2.90888
2.98507
2.91396
2.74972
2.76699
2.91405
2.87653
0.979554
0.967865
0.955508
0.946916
0.937646
0.931143
0.924122
0.919171
0.913785
0.910571
0.907177
0.909929
0.913009
0.939009
0.99122
1.16003
1.8041
2.28518
2.88087
2.98147
2.91185
2.78355
2.80033
2.92298
2.87218
0.980514
0.96685
0.956311
0.946218
0.938158
0.930716
0.924594
0.918617
0.914531
0.909543
0.908044
0.907579
0.916327
0.931832
1.0021
1.1346
1.6244
2.42165
2.90195
2.97434
2.89294
2.75981
2.78087
2.9192
2.87388
0.980308
0.967095
0.956167
0.94637
0.938111
0.930743
0.924594
0.918631
0.914475
0.909558
0.907925
0.907391
0.915694
0.931893
0.997528
1.12666
1.60173
2.40802
2.90919
2.9706
2.86393
2.72811
2.75926
2.91887
2.87909
0.980393
0.966979
0.956273
0.946288
0.938149
0.930792
0.924445
0.918825
0.914276
0.909636
0.907645
0.907201
0.914781
0.928148
0.992357
1.11149
1.58193
2.37688
2.90605
2.95734
2.82109
2.68785
2.73178
2.91579
2.88036
0.979555
0.968015
0.955351
0.947137
0.937455
0.93134
0.92389
0.919408
0.913591
0.910369
0.906857
0.909258
0.909903
0.931733
0.974311
1.12234
1.57809
2.18804
2.88874
2.94686
2.80237
2.67559
2.71982
2.91007
2.87643
0.979644
0.967981
0.95532
0.947231
0.937323
0.931502
0.923753
0.919531
0.91346
0.910422
0.906567
0.908376
0.909468
0.927868
0.968734
1.09911
1.50156
2.10825
2.88514
2.92557
2.77291
2.66947
2.71609
2.89733
2.85757
0.979777
0.967851
0.955435
0.947162
0.937343
0.931504
0.923667
0.919615
0.9133
0.910477
0.90626
0.907256
0.907569
0.923789
0.959118
1.07098
1.41678
1.99406
2.8982
2.87833
2.70922
2.64556
2.70085
2.87134
2.81961
0.979962
0.967662
0.955602
0.947003
0.937465
0.931355
0.923778
0.919483
0.91328
0.910548
0.905807
0.906245
0.906011
0.919633
0.945368
1.04056
1.3058
1.85783
2.89465
2.82748
2.65636
2.62604
2.67136
2.8211
2.72793
0.980707
0.966952
0.956363
0.946115
0.938347
0.930312
0.924783
0.918344
0.91445
0.909295
0.907014
0.904408
0.907084
0.911616
0.941105
0.993886
1.2033
1.76061
2.70195
2.67232
2.60733
2.60515
2.63685
2.69815
2.57923
0.979859
0.967778
0.955626
0.9469
0.93762
0.931044
0.924035
0.919078
0.913632
0.910173
0.905989
0.904852
0.904492
0.912382
0.925674
0.989542
1.10753
1.56796
2.46938
2.60183
2.55742
2.5668
2.59894
2.60198
2.50562
0.980845
0.96658
0.956748
0.94573
0.938622
0.930155
0.924759
0.918421
0.91434
0.909402
0.906681
0.903605
0.905225
0.907084
0.927768
0.959512
1.10259
1.43012
2.15023
2.54442
2.53682
2.5367
2.54326
2.53267
2.45491
0.980076
0.967347
0.955861
0.946527
0.93791
0.930762
0.924273
0.919108
0.913638
0.910223
0.906105
0.904001
0.903615
0.908674
0.918984
0.961923
1.04795
1.36359
2.11087
2.40199
2.46135
2.48304
2.50651
2.49705
2.43487
0.979842
0.967494
0.95589
0.9465
0.938016
0.930724
0.924446
0.91888
0.91391
0.910203
0.905634
0.904273
0.903284
0.906138
0.913865
0.949997
1.01476
1.27116
1.95787
2.30516
2.39399
2.45112
2.47659
2.46778
2.40848
0.980298
0.967141
0.956321
0.946136
0.938464
0.930326
0.924815
0.918384
0.914534
0.909129
0.906876
0.902549
0.90284
0.902859
0.911776
0.932683
0.99564
1.15188
1.59014
2.21428
2.37971
2.41407
2.41002
2.39153
2.3348
0.980312
0.967358
0.956077
0.946415
0.938167
0.930486
0.924578
0.918564
0.914188
0.909513
0.906471
0.902724
0.901715
0.901314
0.907448
0.919951
0.966856
1.05509
1.40028
2.04374
2.30833
2.34925
2.34537
2.3257
2.28711
0.980638
0.967006
0.956101
0.946454
0.937808
0.930868
0.924214
0.918835
0.914074
0.909629
0.906328
0.90289
0.901052
0.900796
0.904247
0.913601
0.94261
1.01368
1.23385
1.75561
2.20275
2.30921
2.31421
2.29598
2.24354
0.980594
0.96672
0.956497
0.945963
0.938398
0.930491
0.924463
0.918878
0.913905
0.909742
0.906285
0.902716
0.900812
0.899957
0.901431
0.908122
0.923747
0.978354
1.09532
1.52385
2.01334
2.20263
2.23206
2.22267
2.19252
0.979973
0.967501
0.955897
0.94652
0.938066
0.930672
0.924434
0.918887
0.913859
0.909994
0.905938
0.903095
0.900162
0.898753
0.898484
0.90261
0.910069
0.945032
1.00511
1.25922
1.7582
2.09378
2.17187
2.18236
2.16284
0.980494
0.967104
0.956104
0.946374
0.938109
0.930517
0.924674
0.918458
0.914332
0.909461
0.906381
0.902586
0.900616
0.897556
0.897705
0.8977
0.904814
0.917897
0.96979
1.08218
1.3989
1.95711
2.11659
2.10507
2.08872
0.98023
0.9672
0.956031
0.94646
0.937895
0.930952
0.924077
0.919216
0.913611
0.910215
0.905703
0.903322
0.899929
0.897999
0.896322
0.89736
0.899115
0.908065
0.933844
0.994553
1.1988
1.57335
1.99937
2.06021
2.05173
0.980392
0.967132
0.956141
0.946259
0.938223
0.930415
0.924695
0.918507
0.914243
0.909643
0.906115
0.903045
0.900032
0.897865
0.896033
0.895575
0.896779
0.901084
0.91272
0.952575
1.0311
1.33151
1.7085
1.95612
1.99251
0.980454
0.967089
0.956132
0.946357
0.938016
0.930706
0.92438
0.918727
0.914188
0.90947
0.906479
0.902542
0.900538
0.897429
0.896001
0.894256
0.894921
0.895974
0.902219
0.921788
0.963953
1.10818
1.3609
1.82071
1.9162
0.980343
0.967113
0.956184
0.946244
0.938205
0.930546
0.924495
0.918781
0.913978
0.909835
0.906082
0.902882
0.900321
0.897523
0.895952
0.893775
0.893429
0.893233
0.896958
0.903802
0.931109
0.976651
1.16903
1.51969
1.79802
0.980291
0.96718
0.956115
0.946333
0.938122
0.930617
0.924488
0.918695
0.914173
0.90958
0.906295
0.90283
0.900151
0.89787
0.895527
0.894036
0.892617
0.892564
0.8935
0.898049
0.906859
0.941105
1.00429
1.25512
1.53102
0.980363
0.967097
0.956182
0.946265
0.938158
0.930603
0.924448
0.918791
0.914016
0.909756
0.906167
0.902821
0.900345
0.897514
0.895934
0.893667
0.892533
0.891298
0.891828
0.892698
0.897274
0.91293
0.942747
1.03952
1.23379
0.980284
0.967226
0.956046
0.946423
0.93802
0.930708
0.924404
0.918765
0.9141
0.909652
0.906227
0.902871
0.900152
0.897811
0.895635
0.893837
0.892488
0.890853
0.890625
0.890835
0.892517
0.898978
0.911739
0.949741
1.04771
0.980288
0.96722
0.956054
0.94641
0.938035
0.930693
0.924412
0.918772
0.914074
0.909693
0.906194
0.902859
0.900247
0.897632
0.895833
0.893735
0.892387
0.891008
0.889891
0.889555
0.890105
0.892717
0.89729
0.917309
0.951895
0.980296
0.967206
0.95607
0.94639
0.938056
0.93067
0.924435
0.918747
0.914101
0.909665
0.906216
0.902856
0.900208
0.897729
0.895693
0.893856
0.892376
0.890837
0.890036
0.888763
0.888901
0.889184
0.891463
0.897531
0.914956
0.980294
0.967213
0.956057
0.946415
0.938015
0.930734
0.924346
0.918862
0.913966
0.909806
0.906087
0.902952
0.900165
0.897709
0.895766
0.893767
0.892414
0.890916
0.889807
0.888884
0.888048
0.888016
0.8885
0.891137
0.895922
0.980295
0.967212
0.956059
0.946412
0.938021
0.930724
0.924363
0.918836
0.914003
0.909758
0.906144
0.902891
0.900218
0.897677
0.895762
0.893811
0.892347
0.890957
0.889852
0.88871
0.888122
0.887205
0.887396
0.887649
0.889714
0.980295
0.967211
0.956059
0.946411
0.938022
0.930722
0.924365
0.918836
0.914
0.909768
0.906124
0.902925
0.900169
0.897738
0.8957
0.893858
0.892331
0.89094
0.889872
0.888743
0.887972
0.887273
0.886609
0.886584
0.887095
0.980295
0.967211
0.956059
0.946411
0.938022
0.930722
0.924364
0.918838
0.913996
0.909775
0.906112
0.902944
0.900143
0.897772
0.895659
0.893904
0.892282
0.890993
0.889816
0.888789
0.887967
0.887184
0.886645
0.885977
0.886098
0.980295
0.967211
0.956059
0.946411
0.938022
0.930722
0.924364
0.918837
0.913997
0.909773
0.906117
0.902936
0.900156
0.897752
0.895689
0.893866
0.892327
0.890945
0.889864
0.888741
0.888011
0.887154
0.886619
0.88598
0.885586
0.980295
0.967211
0.956059
0.946411
0.938022
0.930722
0.924364
0.918837
0.913997
0.909772
0.906118
0.902935
0.900157
0.897753
0.895683
0.893879
0.892302
0.890987
0.889804
0.888818
0.887924
0.887246
0.886533
0.886028
0.885536
0.980295
0.967211
0.956059
0.946411
0.938022
0.930722
0.924364
0.918837
0.913997
0.909772
0.906118
0.902935
0.900157
0.897753
0.895683
0.893878
0.892303
0.890982
0.889814
0.888801
0.887949
0.887212
0.886574
0.885978
0.885586
0.980295
0.967211
0.956059
0.946411
0.938022
0.930722
0.924364
0.918837
0.913997
0.909772
0.906118
0.902934
0.900157
0.897752
0.895684
0.893878
0.892305
0.89098
0.889817
0.888798
0.887951
0.887216
0.886561
0.886005
0.885542
0.980295
0.967211
0.956059
0.946411
0.938022
0.930722
0.924364
0.918837
0.913997
0.909772
0.906118
0.902934
0.900157
0.897752
0.895684
0.893877
0.892305
0.89098
0.889817
0.888797
0.887951
0.887216
0.88656
0.886007
0.885539
0.980295
0.967211
0.956059
0.946411
0.938022
0.930722
0.924364
0.918837
0.913997
0.909772
0.906118
0.902934
0.900157
0.897752
0.895684
0.893877
0.892305
0.89098
0.889818
0.888797
0.887951
0.887215
0.88656
0.886006
0.885543
0.980295
0.967211
0.956059
0.946411
0.938022
0.930722
0.924364
0.918837
0.913997
0.909772
0.906118
0.902934
0.900157
0.897752
0.895684
0.893877
0.892305
0.89098
0.889818
0.888797
0.887951
0.887215
0.886561
0.886005
0.885543
0.980295
0.967211
0.956059
0.946411
0.938022
0.930722
0.924364
0.918837
0.913997
0.909772
0.906118
0.902934
0.900157
0.897752
0.895684
0.893877
0.892305
0.89098
0.889818
0.888797
0.887951
0.887215
0.886561
0.886005
0.885543
0.980295
0.967211
0.956059
0.946411
0.938022
0.930722
0.924364
0.918837
0.913997
0.909772
0.906118
0.902934
0.900157
0.897752
0.895684
0.893877
0.892305
0.89098
0.889818
0.888797
0.887951
0.887215
0.886561
0.886005
0.885543
0.980295
0.967211
0.956059
0.946411
0.938022
0.930722
0.924364
0.918837
0.913997
0.909772
0.906118
0.902934
0.900157
0.897752
0.895684
0.893877
0.892305
0.89098
0.889818
0.888797
0.887951
0.887215
0.886561
0.886005
0.885543
0.980295
0.967211
0.956059
0.946411
0.938022
0.930722
0.924364
0.918837
0.913997
0.909772
0.906118
0.902934
0.900157
0.897752
0.895684
0.893877
0.892305
0.89098
0.889818
0.888797
0.887951
0.887215
0.886561
0.886005
0.885543
0.980295
0.967211
0.956059
0.946411
0.938022
0.930722
0.924364
0.918837
0.913997
0.909772
0.906118
0.902934
0.900157
0.897752
0.895684
0.893877
0.892305
0.89098
0.889818
0.888797
0.887951
0.887215
0.886561
0.886005
0.885543
0.980295
0.967211
0.956059
0.946411
0.938022
0.930722
0.924364
0.918837
0.913997
0.909772
0.906118
0.902934
0.900157
0.897752
0.895684
0.893877
0.892305
0.89098
0.889818
0.888797
0.887951
0.887215
0.886561
0.886005
0.885543
0.980295
0.967211
0.956059
0.946411
0.938022
0.930722
0.924364
0.918837
0.913997
0.909772
0.906118
0.902934
0.900157
0.897752
0.895684
0.893877
0.892305
0.89098
0.889818
0.888797
0.887951
0.887215
0.886561
0.886005
0.885543
0.980295
0.967211
0.956059
0.946411
0.938022
0.930722
0.924364
0.918837
0.913997
0.909772
0.906118
0.902934
0.900157
0.897752
0.895684
0.893877
0.892305
0.89098
0.889818
0.888797
0.887951
0.887215
0.886561
0.886005
0.885543
0.980295
0.967211
0.956059
0.946411
0.938022
0.930722
0.924364
0.918837
0.913997
0.909772
0.906118
0.902934
0.900157
0.897752
0.895684
0.893877
0.892305
0.89098
0.889818
0.888797
0.887951
0.887215
0.886561
0.886005
0.885543
1.01387
1.02143
1.02591
1.02938
1.03144
1.03339
1.03441
1.0356
1.03611
1.03701
1.0377
1.04074
1.04633
1.062
1.10896
1.20073
1.54608
2.34644
3.05231
2.81554
2.83431
2.88149
2.86166
2.82603
2.60845
1.01384
1.02142
1.02592
1.02938
1.03143
1.03338
1.03439
1.03557
1.03609
1.03697
1.03763
1.04017
1.04481
1.05769
1.09524
1.1651
1.42826
2.13616
2.91194
2.75378
2.80448
2.85747
2.82754
2.75867
2.56036
1.01392
1.02136
1.02602
1.02931
1.03151
1.03333
1.0344
1.03555
1.03609
1.03695
1.03754
1.03979
1.04339
1.0563
1.08248
1.15066
1.33805
1.95009
2.66614
2.72256
2.80084
2.82838
2.77954
2.70894
2.55571
1.01396
1.02131
1.02601
1.02926
1.03151
1.03326
1.03442
1.03552
1.0361
1.03693
1.03746
1.03927
1.04254
1.05223
1.07706
1.13143
1.29355
1.78379
2.50681
2.71215
2.77311
2.77273
2.73127
2.66382
2.54501
1.01396
1.02123
1.0261
1.02913
1.03164
1.03312
1.03458
1.03539
1.03624
1.03681
1.03744
1.03835
1.04204
1.04923
1.06709
1.1252
1.22769
1.63074
2.39279
2.65049
2.68652
2.73627
2.69893
2.6107
2.51369
1.01393
1.02124
1.02614
1.02912
1.03169
1.03315
1.03456
1.03547
1.03615
1.0369
1.03731
1.0383
1.0404
1.04759
1.06265
1.09848
1.20723
1.46999
2.16169
2.56508
2.67616
2.69961
2.67685
2.58539
2.49105
1.01385
1.02139
1.02601
1.02925
1.03162
1.03316
1.03461
1.03537
1.03628
1.03677
1.03729
1.0379
1.03944
1.04523
1.05461
1.08541
1.15744
1.35602
1.83199
2.49572
2.66945
2.67017
2.64349
2.54524
2.45671
1.01386
1.02142
1.02596
1.02932
1.03153
1.03324
1.03453
1.0354
1.03625
1.03674
1.03738
1.03776
1.03917
1.04183
1.04969
1.07094
1.11771
1.25882
1.65098
2.24206
2.60647
2.60521
2.56961
2.49259
2.43165
1.01395
1.02131
1.02601
1.02929
1.03149
1.03331
1.03443
1.03549
1.0362
1.03674
1.03736
1.03768
1.03858
1.04027
1.04676
1.05908
1.09446
1.18555
1.44284
1.959
2.46898
2.55647
2.53569
2.4766
2.42137
1.01395
1.02127
1.02606
1.0292
1.03157
1.03323
1.03448
1.03552
1.03612
1.03688
1.03723
1.03772
1.03811
1.03922
1.04367
1.05046
1.07481
1.12853
1.28234
1.63767
2.32513
2.47295
2.46324
2.42966
2.39062
1.01393
1.02129
1.02607
1.02919
1.03163
1.03318
1.03456
1.03543
1.0362
1.03683
1.03723
1.03774
1.03801
1.03884
1.04066
1.04631
1.05971
1.09239
1.1871
1.43728
1.94891
2.33683
2.40449
2.39904
2.37243
1.01389
1.02135
1.02599
1.02928
1.03153
1.03325
1.03451
1.03542
1.03625
1.03674
1.03733
1.03766
1.03802
1.03836
1.03939
1.04316
1.04978
1.06975
1.12207
1.25199
1.57639
2.18437
2.30627
2.32175
2.3171
1.01396
1.02128
1.02604
1.02924
1.03152
1.03328
1.03445
1.0355
1.03617
1.03682
1.03728
1.03766
1.03807
1.03827
1.03899
1.04047
1.04512
1.05626
1.08281
1.16064
1.36311
1.80085
2.1926
2.26911
2.27437
1.01395
1.02131
1.02604
1.02923
1.03157
1.03321
1.03453
1.03544
1.03619
1.03683
1.03723
1.03774
1.03795
1.03836
1.0386
1.03964
1.0417
1.04824
1.06256
1.10248
1.19502
1.50114
1.91457
2.14749
2.21455
1.01391
1.02133
1.02601
1.02927
1.03153
1.03325
1.0345
1.03545
1.03622
1.03678
1.0373
1.03768
1.03799
1.03833
1.03849
1.03901
1.04
1.04399
1.05044
1.07257
1.12
1.26368
1.55889
2.00253
2.10477
1.01391
1.02133
1.02602
1.02925
1.03154
1.03325
1.03448
1.03548
1.03617
1.03682
1.03727
1.03768
1.03803
1.03826
1.03856
1.03873
1.03925
1.04134
1.04469
1.05522
1.08287
1.13599
1.33314
1.69902
1.99295
1.01392
1.02131
1.02603
1.02924
1.03156
1.03323
1.03451
1.03545
1.03621
1.03679
1.03728
1.0377
1.03798
1.03833
1.03849
1.03875
1.03898
1.03998
1.04146
1.04795
1.0577
1.09587
1.16038
1.44298
1.6913
1.01391
1.02132
1.02602
1.02925
1.03155
1.03324
1.0345
1.03545
1.0362
1.03679
1.03729
1.03767
1.03803
1.03827
1.03854
1.03872
1.0389
1.03917
1.04031
1.04213
1.04896
1.0611
1.10151
1.18097
1.48781
1.01392
1.02131
1.02603
1.02924
1.03156
1.03323
1.03451
1.03545
1.0362
1.0368
1.03727
1.03769
1.038
1.0383
1.03851
1.03872
1.03891
1.03903
1.03935
1.04061
1.04258
1.04985
1.06393
1.10289
1.20285
1.01392
1.02131
1.02603
1.02924
1.03156
1.03324
1.0345
1.03546
1.0362
1.0368
1.03728
1.03768
1.03801
1.03828
1.03852
1.03873
1.03888
1.03907
1.03918
1.03963
1.0404
1.04376
1.04885
1.06815
1.10422
1.01392
1.02131
1.02603
1.02924
1.03156
1.03324
1.0345
1.03546
1.0362
1.0368
1.03728
1.03768
1.03801
1.03828
1.03852
1.03872
1.0389
1.03904
1.03916
1.03927
1.03959
1.04091
1.04287
1.05039
1.06501
1.01392
1.02131
1.02603
1.02924
1.03156
1.03324
1.0345
1.03546
1.0362
1.0368
1.03728
1.03768
1.03802
1.03828
1.03853
1.03873
1.03889
1.03905
1.03915
1.03927
1.03936
1.03977
1.04051
1.04339
1.04831
1.01392
1.02131
1.02603
1.02924
1.03156
1.03324
1.0345
1.03546
1.0362
1.0368
1.03728
1.03768
1.03801
1.03828
1.03852
1.03872
1.03889
1.03905
1.03916
1.03926
1.03934
1.03943
1.03968
1.04073
1.04231
1.01392
1.02131
1.02603
1.02924
1.03156
1.03324
1.0345
1.03546
1.0362
1.0368
1.03728
1.03768
1.03802
1.03828
1.03853
1.03872
1.03889
1.03904
1.03916
1.03926
1.03933
1.03942
1.03948
1.03976
1.04029
1.01392
1.02131
1.02603
1.02924
1.03156
1.03324
1.0345
1.03546
1.0362
1.0368
1.03728
1.03768
1.03802
1.03828
1.03853
1.03872
1.03889
1.03904
1.03916
1.03926
1.03934
1.03941
1.03947
1.03951
1.03966
1.01392
1.02131
1.02603
1.02924
1.03156
1.03324
1.0345
1.03546
1.0362
1.0368
1.03728
1.03768
1.03802
1.03828
1.03852
1.03872
1.03889
1.03905
1.03916
1.03926
1.03934
1.03941
1.03946
1.03952
1.03954
1.01392
1.02131
1.02603
1.02924
1.03156
1.03324
1.0345
1.03546
1.0362
1.0368
1.03728
1.03768
1.03802
1.03828
1.03852
1.03872
1.03889
1.03905
1.03916
1.03926
1.03934
1.03941
1.03946
1.03951
1.03954
1.01392
1.02131
1.02603
1.02924
1.03156
1.03324
1.0345
1.03546
1.0362
1.0368
1.03728
1.03768
1.03802
1.03828
1.03852
1.03872
1.03889
1.03905
1.03916
1.03926
1.03934
1.03941
1.03946
1.03951
1.03953
1.01392
1.02131
1.02603
1.02924
1.03156
1.03324
1.0345
1.03546
1.0362
1.0368
1.03728
1.03768
1.03802
1.03828
1.03852
1.03872
1.03889
1.03905
1.03916
1.03926
1.03934
1.03941
1.03946
1.03951
1.03953
1.01392
1.02131
1.02603
1.02924
1.03156
1.03324
1.0345
1.03546
1.0362
1.0368
1.03728
1.03768
1.03802
1.03828
1.03852
1.03872
1.03889
1.03905
1.03916
1.03926
1.03934
1.03941
1.03946
1.03951
1.03953
1.01392
1.02131
1.02603
1.02924
1.03156
1.03324
1.0345
1.03546
1.0362
1.0368
1.03728
1.03768
1.03802
1.03828
1.03852
1.03872
1.03889
1.03905
1.03916
1.03926
1.03934
1.03941
1.03946
1.03951
1.03953
1.01392
1.02131
1.02603
1.02924
1.03156
1.03324
1.0345
1.03546
1.0362
1.0368
1.03728
1.03768
1.03802
1.03828
1.03852
1.03872
1.03889
1.03905
1.03916
1.03926
1.03934
1.03941
1.03946
1.03951
1.03953
1.01392
1.02131
1.02603
1.02924
1.03156
1.03324
1.0345
1.03546
1.0362
1.0368
1.03728
1.03768
1.03802
1.03828
1.03852
1.03872
1.03889
1.03905
1.03916
1.03926
1.03934
1.03941
1.03946
1.03951
1.03953
1.01392
1.02131
1.02603
1.02924
1.03156
1.03324
1.0345
1.03546
1.0362
1.0368
1.03728
1.03768
1.03802
1.03828
1.03852
1.03872
1.03889
1.03905
1.03916
1.03926
1.03934
1.03941
1.03946
1.03951
1.03953
1.01392
1.02131
1.02603
1.02924
1.03156
1.03324
1.0345
1.03546
1.0362
1.0368
1.03728
1.03768
1.03802
1.03828
1.03852
1.03872
1.03889
1.03905
1.03916
1.03926
1.03934
1.03941
1.03946
1.03951
1.03953
1.01392
1.02131
1.02603
1.02924
1.03156
1.03324
1.0345
1.03546
1.0362
1.0368
1.03728
1.03768
1.03802
1.03828
1.03852
1.03872
1.03889
1.03905
1.03916
1.03926
1.03934
1.03941
1.03946
1.03951
1.03953
1.01392
1.02131
1.02603
1.02924
1.03156
1.03324
1.0345
1.03546
1.0362
1.0368
1.03728
1.03768
1.03802
1.03828
1.03852
1.03872
1.03889
1.03905
1.03916
1.03926
1.03934
1.03941
1.03946
1.03951
1.03953
1.01392
1.02131
1.02603
1.02924
1.03156
1.03324
1.0345
1.03546
1.0362
1.0368
1.03728
1.03768
1.03802
1.03828
1.03852
1.03872
1.03889
1.03905
1.03916
1.03926
1.03934
1.03941
1.03946
1.03951
1.03953
1.01392
1.02131
1.02603
1.02924
1.03156
1.03324
1.0345
1.03546
1.0362
1.0368
1.03728
1.03768
1.03802
1.03828
1.03852
1.03872
1.03889
1.03905
1.03916
1.03926
1.03934
1.03941
1.03946
1.03951
1.03953
1.01392
1.02131
1.02603
1.02924
1.03156
1.03324
1.0345
1.03546
1.0362
1.0368
1.03728
1.03768
1.03802
1.03828
1.03852
1.03872
1.03889
1.03905
1.03916
1.03926
1.03934
1.03941
1.03946
1.03951
1.03953
1.0059
1.01317
1.02094
1.0286
1.035
1.04123
1.04608
1.05083
1.05451
1.0581
1.06079
1.06541
1.07285
1.09423
1.14509
1.26303
1.64851
2.54423
3.0526
2.76824
2.86982
2.83037
2.94068
3.07601
2.78222
1.00583
1.0132
1.02095
1.02859
1.03502
1.04125
1.04601
1.05092
1.05443
1.05809
1.06085
1.06463
1.07094
1.08994
1.12904
1.22375
1.51238
2.36977
2.92856
2.75056
2.85896
2.80275
2.84366
2.94807
2.76266
1.00591
1.01304
1.02108
1.02834
1.03527
1.04095
1.04631
1.05067
1.05466
1.05792
1.06104
1.06438
1.07106
1.0845
1.11515
1.20896
1.39629
2.07305
2.76944
2.74261
2.84514
2.77302
2.76836
2.83931
2.76175
1.00584
1.01311
1.02104
1.02841
1.03524
1.04095
1.04635
1.05063
1.0547
1.05788
1.06106
1.06399
1.06993
1.08125
1.10772
1.18567
1.33979
1.84745
2.68397
2.75139
2.83252
2.74676
2.706
2.74026
2.73362
1.00594
1.01308
1.02121
1.02828
1.03549
1.04078
1.04656
1.05043
1.05488
1.05767
1.06103
1.06352
1.0679
1.0781
1.1036
1.1516
1.3168
1.70419
2.52414
2.73228
2.77814
2.73336
2.63702
2.64587
2.67333
1.00561
1.01344
1.02081
1.0287
1.03501
1.04124
1.04608
1.05088
1.05446
1.05804
1.06069
1.06368
1.06725
1.07723
1.09507
1.13886
1.26487
1.56943
2.32023
2.66537
2.72634
2.7259
2.62676
2.56438
2.57215
1.00576
1.01332
1.02083
1.02871
1.03496
1.04126
1.04605
1.05089
1.0544
1.05812
1.0606
1.06359
1.06651
1.07434
1.08646
1.12284
1.21063
1.45338
2.02173
2.6005
2.72665
2.71153
2.60959
2.51022
2.48821
1.00594
1.01307
1.02109
1.0284
1.0352
1.04109
1.04613
1.05089
1.05441
1.0581
1.06063
1.06345
1.06583
1.0712
1.08009
1.10573
1.16982
1.31542
1.72217
2.47849
2.6879
2.66742
2.58265
2.49336
2.44691
1.00586
1.01313
1.02102
1.02846
1.03519
1.04106
1.04625
1.05074
1.05458
1.05796
1.06066
1.06343
1.06532
1.06928
1.07582
1.09351
1.14091
1.23029
1.57092
2.28294
2.60515
2.61853
2.57219
2.48939
2.44793
1.00583
1.01319
1.02102
1.02846
1.03526
1.04095
1.04639
1.05056
1.05474
1.05778
1.06085
1.06311
1.06549
1.06787
1.07367
1.08329
1.11327
1.18335
1.37632
1.83687
2.49931
2.57373
2.5433
2.48392
2.44693
1.00579
1.01328
1.02089
1.0286
1.03507
1.04115
1.04617
1.05079
1.05457
1.05792
1.0608
1.06309
1.06546
1.06723
1.07076
1.07758
1.09406
1.14294
1.23306
1.57293
2.26196
2.4525
2.48478
2.46588
2.43953
1.00587
1.01312
1.02105
1.02845
1.03519
1.04111
1.04618
1.05084
1.05449
1.05802
1.06067
1.06325
1.06522
1.06721
1.06935
1.07457
1.08351
1.11049
1.17539
1.35091
1.80519
2.34705
2.41962
2.42183
2.41498
1.00589
1.01314
1.02105
1.02841
1.03525
1.04098
1.0463
1.05068
1.05463
1.05788
1.06078