/*--------------------------------*- C++ -*----------------------------------*\
  =========                 |
  \\      /  F ield         | OpenFOAM: The Open Source CFD Toolbox
   \\    /   O peration     | Website:  https://openfoam.org
    \\  /    A nd           | Version:  6
     \\/     M anipulation  |
\*---------------------------------------------------------------------------*/
FoamFile
{
    version     2.0;
    format      ascii;
    class       volVectorField;
    location    "0.5";
    object      U;
}
// * * * * * * * * * * * * * * * * * * * * * * * * * * * * * * * * * * * * * //

dimensions      [0 1 -1 0 0 0 0];

internalField   nonuniform List<vector> 
26250
(
(3.0156 -7.07178e-08 -0.057938)
(3.0258 4.61758e-07 -0.0597968)
(3.03424 4.15949e-07 -0.0611099)
(3.04145 4.11827e-07 -0.0622861)
(3.04757 6.7598e-07 -0.0631578)
(3.05286 -2.99327e-07 -0.0640024)
(3.05737 1.08425e-06 -0.0646166)
(3.0613 -2.41836e-06 -0.0652297)
(3.06464 2.5119e-06 -0.0656916)
(3.06735 -4.49264e-06 -0.0661764)
(3.06845 1.14762e-05 -0.0666377)
(3.06793 3.45938e-05 -0.0673798)
(3.0608 6.86087e-05 -0.0685664)
(3.04765 0.000157387 -0.0720339)
(2.99328 0.000361572 -0.0783628)
(2.85504 0.00102212 -0.0995332)
(2.45356 0.00238969 -0.15945)
(1.28222 0.0073185 -0.239045)
(0.416616 0.0196798 -0.289765)
(0.636026 0.02598 -0.288799)
(0.816692 0.0241732 -0.290638)
(0.780635 0.0190231 -0.282989)
(0.660546 0.0155809 -0.283569)
(0.44484 0.013491 -0.296845)
(0.286653 0.00902158 -0.294193)
(3.0156 2.536e-07 -0.0579379)
(3.0258 1.83322e-06 -0.0597972)
(3.03424 1.40983e-06 -0.0611099)
(3.04145 1.35294e-06 -0.0622858)
(3.04757 2.10279e-06 -0.0631582)
(3.05286 -1.68028e-06 -0.0640023)
(3.05737 4.34409e-06 -0.0646164)
(3.0613 -9.85376e-06 -0.0652296)
(3.06464 1.15276e-05 -0.0656921)
(3.06736 -1.90672e-05 -0.0661743)
(3.06848 5.62274e-05 -0.0666366)
(3.06797 0.000131002 -0.0673774)
(3.0609 0.000247045 -0.0685523)
(3.0479 0.000551501 -0.0719939)
(2.99395 0.00122157 -0.0782787)
(2.85678 0.00337013 -0.0993229)
(2.45796 0.00789841 -0.158634)
(1.29162 0.0236281 -0.238123)
(0.435794 0.0591597 -0.2894)
(0.647467 0.0767962 -0.287157)
(0.817842 0.0732097 -0.288187)
(0.778304 0.0598368 -0.281433)
(0.658129 0.05138 -0.282854)
(0.441813 0.0456874 -0.296413)
(0.284449 0.031528 -0.293017)
(3.0156 5.17132e-06 -0.0579373)
(3.0258 8.4249e-07 -0.0597986)
(3.03424 2.77322e-06 -0.0611087)
(3.04145 -2.0476e-06 -0.062287)
(3.04757 1.8573e-06 -0.0631578)
(3.05286 -6.62752e-06 -0.0640036)
(3.05737 4.46325e-06 -0.0646153)
(3.06131 -1.65184e-05 -0.0652305)
(3.06463 1.53966e-05 -0.0656934)
(3.06739 -2.83406e-05 -0.0661673)
(3.06857 0.00010011 -0.0666308)
(3.06808 0.000264752 -0.0673814)
(3.06114 0.000497151 -0.0685226)
(3.04847 0.00107616 -0.0718981)
(2.99546 0.00275605 -0.0780982)
(2.86073 0.00653808 -0.0988931)
(2.46853 0.0145175 -0.156645)
(1.31416 0.0438852 -0.236178)
(0.459782 0.105549 -0.289119)
(0.662238 0.134198 -0.28521)
(0.817989 0.127003 -0.284649)
(0.774194 0.106772 -0.278518)
(0.655948 0.0970525 -0.280766)
(0.437098 0.092148 -0.29467)
(0.277238 0.0708609 -0.290779)
(3.0156 3.14833e-05 -0.0579366)
(3.0258 -1.5968e-05 -0.0598009)
(3.03424 1.26388e-05 -0.0611061)
(3.04145 -1.91618e-05 -0.0622883)
(3.04757 4.88455e-06 -0.063158)
(3.05286 -1.94562e-05 -0.0640027)
(3.05736 3.49412e-06 -0.0646163)
(3.06131 -2.7051e-05 -0.0652278)
(3.06463 1.91364e-05 -0.0656953)
(3.06743 -4.75012e-05 -0.06616)
(3.06872 0.000140704 -0.0666368)
(3.0683 0.000525089 -0.0673695)
(3.06155 -0.000360833 -0.0683981)
(3.04981 0.00563992 -0.0717527)
(2.99811 -0.00223115 -0.0778066)
(2.86729 0.0266665 -0.0981685)
(2.48301 0.0117199 -0.154671)
(1.36624 0.0693854 -0.232612)
(0.509114 0.15941 -0.288386)
(0.689419 0.200293 -0.282373)
(0.821463 0.183512 -0.280059)
(0.774537 0.156739 -0.275033)
(0.659393 0.147345 -0.277941)
(0.436488 0.145817 -0.290985)
(0.271045 0.121874 -0.287093)
(3.01559 5.4333e-06 -0.0579909)
(3.02578 1.38269e-06 -0.0597264)
(3.03424 1.9464e-06 -0.0611725)
(3.04144 3.0711e-07 -0.0622149)
(3.04757 -1.09359e-06 -0.0632286)
(3.05286 -3.23809e-06 -0.0639325)
(3.05736 1.19651e-07 -0.0646828)
(3.06132 -1.50736e-05 -0.0651692)
(3.06461 1.85019e-05 -0.0657431)
(3.06748 -2.84704e-05 -0.0661053)
(3.06904 9.18085e-05 -0.0666733)
(3.06766 0.000334716 -0.0672822)
(3.06533 0.00058601 -0.0681804)
(3.04695 0.00206503 -0.0719875)
(3.01045 0.00480142 -0.0763568)
(2.87449 0.0124651 -0.0987796)
(2.47433 0.0309447 -0.142028)
(1.41247 0.0864926 -0.239024)
(0.581637 0.20837 -0.291496)
(0.732163 0.258793 -0.278824)
(0.829915 0.238604 -0.271011)
(0.784356 0.206839 -0.266258)
(0.673436 0.199466 -0.271022)
(0.443789 0.204084 -0.286435)
(0.269521 0.184391 -0.282425)
(3.0156 -3.76123e-06 -0.0579374)
(3.02579 5.34928e-06 -0.0598025)
(3.03424 4.04569e-07 -0.0611024)
(3.04145 6.37506e-06 -0.062293)
(3.04756 -8.40346e-07 -0.0631547)
(3.05286 2.79769e-06 -0.0640032)
(3.05735 -2.36551e-07 -0.064612)
(3.06133 -8.26497e-06 -0.0652311)
(3.06462 1.30622e-05 -0.0656927)
(3.06749 -1.92087e-05 -0.0661426)
(3.06902 7.90371e-05 -0.066627)
(3.06871 0.000201285 -0.0673544)
(3.06297 0.000914589 -0.0681361)
(3.05327 0.00194854 -0.071355)
(3.00637 0.00576557 -0.0768308)
(2.88878 0.015216 -0.0959273)
(2.53479 0.0340279 -0.145574)
(1.50802 0.110904 -0.223793)
(0.644293 0.267696 -0.288133)
(0.765569 0.322685 -0.275911)
(0.836848 0.287702 -0.265793)
(0.793783 0.253828 -0.261302)
(0.691032 0.253441 -0.2666)
(0.457689 0.269559 -0.281602)
(0.273989 0.261059 -0.276727)
(3.01559 -1.75926e-06 -0.057983)
(3.02578 4.88235e-06 -0.0597379)
(3.03424 -3.2396e-06 -0.0611689)
(3.04144 8.66534e-06 -0.0622225)
(3.04756 -6.98691e-06 -0.0632282)
(3.05286 1.23623e-05 -0.0639317)
(3.05735 -1.55072e-05 -0.0646861)
(3.06133 1.9381e-05 -0.0651571)
(3.0646 -2.30215e-05 -0.0657594)
(3.06754 2.84231e-05 -0.0660721)
(3.06923 6.66954e-05 -0.0666602)
(3.06836 0.000457544 -0.0672161)
(3.06677 0.000930236 -0.0679858)
(3.05096 0.00297959 -0.0713406)
(3.02126 0.00637413 -0.0751628)
(2.89764 0.0182652 -0.0956772)
(2.54899 0.0497657 -0.134034)
(1.58673 0.135508 -0.226363)
(0.737766 0.336734 -0.289186)
(0.80826 0.389153 -0.271952)
(0.844293 0.333715 -0.256291)
(0.814193 0.300912 -0.253333)
(0.720259 0.311173 -0.260271)
(0.484285 0.345201 -0.275813)
(0.287686 0.355798 -0.269676)
(3.0156 -1.95901e-05 -0.0579434)
(3.02579 1.94234e-05 -0.0598011)
(3.03424 -1.36401e-05 -0.0611014)
(3.04144 2.45322e-05 -0.0622985)
(3.04757 -1.59196e-05 -0.0631469)
(3.05285 2.83238e-05 -0.0640127)
(3.05736 -2.79555e-05 -0.0646006)
(3.06132 4.39603e-05 -0.0652442)
(3.06462 -5.12568e-05 -0.0656718)
(3.06756 8.59111e-05 -0.0661516)
(3.06938 -2.03647e-05 -0.0665863)
(3.06942 0.000484275 -0.0672344)
(3.06506 0.00184031 -0.0679026)
(3.05775 -0.00013192 -0.0707116)
(3.01908 0.012936 -0.0752735)
(2.92346 0.00621579 -0.0923959)
(2.6265 0.0710895 -0.130334)
(1.70712 0.162951 -0.209705)
(0.831109 0.426432 -0.286282)
(0.845819 0.443795 -0.268963)
(0.859064 0.370439 -0.248113)
(0.847077 0.346955 -0.246062)
(0.763767 0.374081 -0.253231)
(0.529782 0.434913 -0.267837)
(0.315685 0.480146 -0.260154)
(3.0156 7.34145e-06 -0.0579486)
(3.02579 1.48936e-06 -0.0597966)
(3.03425 -5.92899e-07 -0.0611061)
(3.04144 3.06037e-06 -0.0622975)
(3.04757 -1.0519e-05 -0.0631477)
(3.05285 7.82943e-06 -0.0640149)
(3.05736 -2.38363e-05 -0.0645955)
(3.06131 2.39997e-05 -0.0652506)
(3.06464 -4.61571e-05 -0.0656567)
(3.06756 7.10208e-05 -0.0661649)
(3.06956 -3.74893e-05 -0.0665373)
(3.06989 0.000520955 -0.067179)
(3.06625 0.00117467 -0.0677965)
(3.06019 0.00373438 -0.0702315)
(3.02736 0.00788181 -0.074316)
(2.94753 0.0250478 -0.0892287)
(2.69415 0.069112 -0.122259)
(1.85979 0.198374 -0.195243)
(0.957567 0.53169 -0.282968)
(0.889164 0.482335 -0.263036)
(0.895274 0.403008 -0.237484)
(0.901088 0.394157 -0.238244)
(0.827208 0.45087 -0.245139)
(0.604363 0.547433 -0.2582)
(0.369346 0.656086 -0.247842)
(3.0156 2.52547e-05 -0.0579578)
(3.02578 -6.94926e-06 -0.0597857)
(3.03425 5.70684e-06 -0.0611154)
(3.04144 -1.2387e-05 -0.0622875)
(3.04757 -9.45516e-06 -0.0631549)
(3.05284 -7.38294e-06 -0.0640058)
(3.05737 -2.29426e-05 -0.0646016)
(3.0613 1.30143e-05 -0.065243)
(3.06466 -4.44136e-05 -0.0656532)
(3.06757 6.15023e-05 -0.0661735)
(3.06975 -5.84847e-05 -0.0664827)
(3.07042 0.000399124 -0.0671214)
(3.06772 0.000748919 -0.0676474)
(3.06333 0.00490298 -0.0698008)
(3.03629 0.00347073 -0.0730868)
(2.97702 0.0324193 -0.0860698)
(2.76691 0.0539421 -0.112724)
(2.0919 0.218662 -0.18156)
(1.13499 0.607932 -0.281473)
(0.941994 0.497112 -0.251669)
(0.948401 0.437112 -0.230418)
(0.970162 0.451088 -0.230312)
(0.913097 0.54279 -0.236211)
(0.727076 0.687053 -0.245139)
(0.475772 0.931889 -0.229017)
(2.98855 -1.46768e-07 -0.00143102)
(2.98292 3.39063e-07 -0.00328351)
(2.97953 3.42813e-07 -0.00494131)
(2.97739 6.07361e-07 -0.00642413)
(2.97597 4.30418e-07 -0.00771758)
(2.97506 4.1009e-07 -0.00884002)
(2.97445 2.76849e-07 -0.00982125)
(2.97406 -2.91118e-07 -0.0106765)
(2.97373 2.88913e-07 -0.0114058)
(2.97325 1.07598e-07 -0.012064)
(2.97156 5.22535e-06 -0.0125507)
(2.96805 2.5334e-05 -0.0129708)
(2.95574 6.6178e-05 -0.0137448)
(2.93172 0.000203494 -0.0151033)
(2.84795 0.000445258 -0.0178308)
(2.62813 0.00140338 -0.0252787)
(1.98135 0.00322186 -0.045628)
(0.314257 0.00993784 -0.0730482)
(-0.469776 0.0181091 -0.0641473)
(-0.000526807 0.0308343 -0.0638455)
(0.218495 0.0348639 -0.0685097)
(0.236535 0.0401598 -0.0700564)
(0.17401 0.0443797 -0.0688113)
(0.0492639 0.0514758 -0.0689143)
(0.285795 0.0277141 -0.06404)
(2.98855 6.60068e-07 -0.00143087)
(2.98292 1.0661e-06 -0.00328365)
(2.97953 1.56965e-06 -0.00494123)
(2.97739 1.48744e-06 -0.00642417)
(2.97597 1.44567e-06 -0.00771768)
(2.97506 6.9261e-07 -0.00883981)
(2.97445 1.05818e-06 -0.00982164)
(2.97406 -1.41333e-06 -0.0106759)
(2.97373 1.70282e-06 -0.0114068)
(2.97325 3.76868e-07 -0.0120625)
(2.97158 1.74989e-05 -0.0125534)
(2.9681 8.66384e-05 -0.0129711)
(2.95589 0.000221101 -0.013745)
(2.93204 0.000684965 -0.0150816)
(2.84888 0.00147455 -0.0178269)
(2.63056 0.00455486 -0.0251508)
(1.9871 0.0106486 -0.0453532)
(0.320357 0.0342956 -0.0725997)
(-0.4711 0.06514 -0.0645903)
(1.90733e-05 0.0919952 -0.0634323)
(0.218911 0.0972709 -0.0678336)
(0.234961 0.106593 -0.0692732)
(0.164968 0.112846 -0.068037)
(0.026222 0.122024 -0.0681767)
(0.270154 0.0785318 -0.0636266)
(2.98855 4.02425e-06 -0.00143079)
(2.98292 1.07355e-06 -0.00328397)
(2.97953 3.59402e-06 -0.00494113)
(2.97739 1.1043e-07 -0.00642407)
(2.97597 1.98396e-06 -0.00771801)
(2.97506 -1.79256e-06 -0.00883896)
(2.97445 9.27082e-07 -0.00982309)
(2.97406 -4.33618e-06 -0.0106735)
(2.97373 2.48215e-06 -0.0114104)
(2.97326 3.42627e-07 -0.0120574)
(2.97163 3.25299e-05 -0.0125661)
(2.96821 0.000161695 -0.0129737)
(2.95623 0.000419031 -0.0137416)
(2.93277 0.00127822 -0.0150698)
(2.85097 0.00276932 -0.0177551)
(2.63608 0.0083754 -0.0250454)
(2.00277 0.0200401 -0.0449514)
(0.347652 0.0653547 -0.072038)
(-0.446009 0.124765 -0.0652704)
(0.00462588 0.157941 -0.0627058)
(0.21814 0.163897 -0.0667576)
(0.23487 0.181097 -0.0680632)
(0.161555 0.194417 -0.0667969)
(0.00862801 0.21001 -0.0668274)
(0.24956 0.149832 -0.0627137)
(2.98855 1.32181e-05 -0.00143151)
(2.98292 -7.42268e-07 -0.00328315)
(2.97953 9.48006e-06 -0.00494139)
(2.97739 -3.88071e-06 -0.00642325)
(2.97597 5.20822e-06 -0.00771884)
(2.97506 -6.40301e-06 -0.00883766)
(2.97444 2.79244e-06 -0.00982487)
(2.97406 -8.74677e-06 -0.010671)
(2.97373 6.71059e-06 -0.0114142)
(2.97328 -3.92207e-06 -0.0120511)
(2.97171 7.7437e-05 -0.0125823)
(2.96841 0.000263229 -0.0129871)
(2.9568 0.00107113 -0.0137526)
(2.934 0.00195541 -0.0150201)
(2.85441 0.00603043 -0.0177395)
(2.64526 0.0124582 -0.0247398)
(2.02997 0.0318611 -0.043997)
(0.39197 0.104437 -0.0708968)
(-0.410029 0.192793 -0.0664593)
(0.00968834 0.222995 -0.061879)
(0.218424 0.225528 -0.0651822)
(0.238247 0.252413 -0.0663828)
(0.166493 0.275972 -0.0652152)
(0.000625233 0.300411 -0.0650644)
(0.227827 0.231711 -0.0610688)
(2.98855 4.02959e-06 -0.00143709)
(2.98292 1.69973e-06 -0.00327527)
(2.97952 3.09943e-06 -0.00494592)
(2.97739 4.12336e-07 -0.00641836)
(2.97597 4.45385e-07 -0.00772257)
(2.97506 -1.17017e-06 -0.00883397)
(2.97444 -1.42631e-06 -0.00982888)
(2.97406 -2.7943e-06 -0.0106661)
(2.97373 3.0292e-06 -0.0114217)
(2.97332 5.47151e-06 -0.0120408)
(2.97185 7.26696e-05 -0.0126038)
(2.96904 0.000326067 -0.0130259)
(2.9577 0.000845372 -0.0135735)
(2.93668 0.00252884 -0.0156471)
(2.85969 0.00572573 -0.016492)
(2.65735 0.0168935 -0.0266833)
(2.07102 0.0417827 -0.0404558)
(0.487154 0.133463 -0.0698645)
(-0.338539 0.265016 -0.068076)
(0.00815774 0.288566 -0.0609129)
(0.218259 0.2828 -0.0632132)
(0.247151 0.319445 -0.0646115)
(0.179519 0.354907 -0.0636566)
(0.00260037 0.389758 -0.063175)
(0.207811 0.320176 -0.0590165)
(2.98855 -4.72419e-07 -0.00143234)
(2.98292 2.34812e-06 -0.00328262)
(2.97953 1.82358e-07 -0.00494125)
(2.97739 1.86835e-06 -0.00642299)
(2.97597 -7.95428e-07 -0.00771926)
(2.97506 8.95042e-07 -0.00883598)
(2.97444 -1.09631e-06 -0.00982829)
(2.97406 -8.53067e-07 -0.0106646)
(2.97374 4.81699e-06 -0.0114245)
(2.97334 8.04923e-06 -0.0120373)
(2.97198 9.15723e-05 -0.012605)
(2.96905 0.000397361 -0.0129946)
(2.95863 0.00106246 -0.0137082)
(2.93809 0.00311813 -0.0149091)
(2.86562 0.00752517 -0.0175443)
(2.67637 0.021564 -0.0239239)
(2.12063 0.0539158 -0.0413733)
(0.557474 0.172283 -0.0674359)
(-0.270762 0.347108 -0.0697342)
(0.00430227 0.349882 -0.0597461)
(0.213341 0.333406 -0.0613419)
(0.258082 0.384693 -0.0627094)
(0.198784 0.435188 -0.0620318)
(0.0159264 0.482817 -0.0609441)
(0.189203 0.420278 -0.056477)
(2.98855 -1.58332e-06 -0.0014364)
(2.98292 2.88102e-06 -0.00327656)
(2.97952 -2.26659e-06 -0.00494527)
(2.97739 3.27418e-06 -0.00641921)
(2.97597 -3.20228e-06 -0.0077223)
(2.97506 4.14052e-06 -0.00883328)
(2.97444 -4.06936e-06 -0.00983156)
(2.97407 5.7706e-06 -0.0106603)
(2.97374 -1.36816e-08 -0.0114311)
(2.9734 1.80224e-05 -0.0120264)
(2.97217 0.000115831 -0.0126253)
(2.96985 0.000483575 -0.0130123)
(2.95994 0.00125501 -0.0135567)
(2.94218 0.00373754 -0.0154227)
(2.8742 0.00930318 -0.0162556)
(2.69838 0.0260317 -0.0256966)
(2.18793 0.0680377 -0.0370245)
(0.705044 0.208692 -0.0669259)
(-0.167273 0.440633 -0.0709769)
(-0.00482556 0.407208 -0.0583976)
(0.211315 0.377399 -0.0588843)
(0.278231 0.448974 -0.0606337)
(0.228984 0.518564 -0.0603188)
(0.0429791 0.584179 -0.0583128)
(0.175634 0.538986 -0.0534473)
(2.98855 -7.96168e-06 -0.00143218)
(2.98292 4.94711e-06 -0.00328349)
(2.97953 -8.30453e-06 -0.00494006)
(2.97739 7.99577e-06 -0.00642511)
(2.97597 -8.49855e-06 -0.00771677)
(2.97506 1.05867e-05 -0.00883926)
(2.97445 -9.61419e-06 -0.00982497)
(2.97407 1.41823e-05 -0.0106674)
(2.97375 -7.72494e-06 -0.011424)
(2.97343 3.09002e-05 -0.0120316)
(2.97237 0.000103398 -0.0126245)
(2.97 0.000519419 -0.0130042)
(2.96133 0.000916162 -0.0136163)
(2.94489 0.00418546 -0.014718)
(2.88321 0.00853782 -0.0171129)
(2.72836 0.0306566 -0.0226752)
(2.26804 0.080236 -0.0373081)
(0.845004 0.244722 -0.0638639)
(-0.045881 0.542628 -0.0718351)
(-0.0157495 0.455741 -0.0569489)
(0.211353 0.41638 -0.0564484)
(0.310385 0.514609 -0.0583591)
(0.273279 0.607445 -0.0582576)
(0.0884478 0.697713 -0.0553712)
(0.171915 0.686551 -0.0497762)
(2.98855 2.11947e-06 -0.00143216)
(2.98292 1.60073e-06 -0.0032839)
(2.97953 -2.19545e-06 -0.00493962)
(2.97738 3.56752e-06 -0.00642629)
(2.97597 -5.96782e-06 -0.00771531)
(2.97506 6.31901e-06 -0.00884169)
(2.97445 -8.7565e-06 -0.00982156)
(2.97407 9.52594e-06 -0.010672)
(2.97376 -5.22192e-06 -0.0114175)
(2.97348 2.43728e-05 -0.0120395)
(2.97259 0.000135538 -0.0126161)
(2.97052 0.000560112 -0.0130188)
(2.96293 0.0014211 -0.0135661)
(2.94881 0.0045351 -0.0146096)
(2.89477 0.0109138 -0.0166009)
(2.76322 0.0342061 -0.0220933)
(2.36098 0.089952 -0.0341916)
(1.0454 0.282507 -0.0610325)
(0.105362 0.649634 -0.0722379)
(-0.0172718 0.497851 -0.0552845)
(0.221326 0.454326 -0.0533468)
(0.360474 0.582049 -0.0557686)
(0.336394 0.703572 -0.0555743)
(0.162056 0.827857 -0.0518633)
(0.186919 0.879651 -0.0453445)
(2.98855 7.31379e-06 -0.00143356)
(2.98291 1.00545e-06 -0.00328243)
(2.97953 2.73296e-06 -0.00494005)
(2.97738 1.73037e-06 -0.00642578)
(2.97597 -4.75439e-06 -0.0077153)
(2.97506 5.93543e-06 -0.00884207)
(2.97445 -1.44642e-05 -0.00982023)
(2.97407 1.76937e-05 -0.0106746)
(2.97377 -2.74078e-05 -0.0114128)
(2.97355 5.27785e-05 -0.0120461)
(2.97283 2.96988e-05 -0.0126059)
(2.97108 0.000605099 -0.0130552)
(2.96463 0.000696712 -0.0135166)
(2.9529 0.00602467 -0.0145452)
(2.90717 0.00571607 -0.0162104)
(2.79982 0.0443917 -0.0212942)
(2.46326 0.0755955 -0.0316215)
(1.33468 0.308467 -0.0561208)
(0.304658 0.730792 -0.0726413)
(0.0061566 0.534506 -0.0543073)
(0.249714 0.507413 -0.0502868)
(0.434991 0.653419 -0.0524643)
(0.423694 0.805959 -0.0527078)
(0.280483 0.978518 -0.0484915)
(0.237697 1.17524 -0.0408201)
(2.9951 6.64076e-07 1.09901e-06)
(2.98905 2.78604e-07 -7.73229e-07)
(2.98254 8.46283e-07 1.00276e-06)
(2.97636 2.73611e-07 -9.18678e-07)
(2.97077 2.53797e-07 9.18342e-07)
(2.96584 1.27559e-07 -1.06095e-06)
(2.96147 -1.94211e-07 9.87876e-07)
(2.95772 -1.2926e-07 -1.49734e-06)
(2.95439 -4.97463e-07 1.59296e-06)
(2.95154 8.89442e-07 -1.80485e-06)
(2.94822 1.15344e-06 1.12191e-06)
(2.94261 2.2325e-05 8.04301e-06)
(2.9272 6.04317e-05 1.5754e-05)
(2.89808 0.000258257 4.82346e-05)
(2.80336 0.000443588 9.01385e-05)
(2.54938 0.00177612 0.000212526)
(1.78667 0.00430814 0.000544442)
(0.00916557 0.0125831 0.00110873)
(-0.747095 0.0143327 0.000917909)
(-0.346769 0.0430573 0.00075103)
(-0.0150063 0.0526849 0.000287334)
(0.0496792 0.0649344 0.000260224)
(-0.0686122 0.0783676 0.000346957)
(-0.0386719 0.0904681 0.00035243)
(0.400421 0.0552254 0.000316937)
(2.9951 1.24326e-06 3.02201e-06)
(2.98905 2.88047e-07 -2.84337e-06)
(2.98254 1.27704e-06 2.40572e-06)
(2.97635 6.00145e-07 -2.61094e-06)
(2.97077 1.79481e-07 2.04604e-06)
(2.96584 7.41719e-07 -2.28575e-06)
(2.96147 -1.39867e-06 1.90853e-06)
(2.95772 1.08794e-06 -2.41389e-06)
(2.95439 -3.07e-06 2.67519e-06)
(2.95154 4.50908e-06 -2.80485e-06)
(2.94824 4.28224e-07 6.86682e-06)
(2.94266 5.21611e-05 8.30894e-06)
(2.92738 0.000191021 8.47727e-05)
(2.89841 0.000658109 -3.76005e-06)
(2.80452 0.00156788 0.00030433)
(2.55279 0.00481226 1.12244e-05)
(1.79727 0.0120669 0.000515232)
(0.00803776 0.0382891 0.00153239)
(-0.763299 0.0592777 0.000968258)
(-0.356555 0.112346 0.000672259)
(0.005725 0.131918 0.000242925)
(0.0485555 0.146684 0.00023955)
(-0.0827333 0.161793 0.000294454)
(-0.0733476 0.179073 0.000339661)
(0.390477 0.130324 0.000326075)
(2.9951 1.84884e-06 1.68776e-06)
(2.98905 3.21272e-07 -1.36973e-06)
(2.98254 1.81474e-06 1.28134e-06)
(2.97635 4.64705e-07 -1.43558e-06)
(2.97077 -2.32032e-07 1.0942e-06)
(2.96584 6.94356e-07 -1.32184e-06)
(2.96147 -3.00518e-06 8.29692e-07)
(2.95772 1.95626e-06 -1.07626e-06)
(2.95439 -5.60254e-06 8.21733e-07)
(2.95154 8.79041e-06 -1.13998e-06)
(2.94826 9.89098e-07 1.34109e-06)
(2.94277 9.40122e-05 7.58261e-06)
(2.9277 0.000345601 1.6243e-05)
(2.89925 0.00119019 4.47346e-05)
(2.80664 0.00287359 9.05956e-05)
(2.55864 0.00870052 0.0001877)
(1.81352 0.0222331 0.000537388)
(0.0294552 0.072254 0.00113471)
(-0.741215 0.118058 0.000929492)
(-0.351899 0.179294 0.000659577)
(0.0258656 0.215467 0.00022155)
(0.0493165 0.242506 0.000246706)
(-0.0823466 0.264039 0.000297204)
(-0.10021 0.288227 0.000339523)
(0.367509 0.22963 0.000317283)
(2.9951 2.381e-06 2.4144e-06)
(2.98905 3.46321e-07 -2.10961e-06)
(2.98254 2.65398e-06 1.69238e-06)
(2.97635 -2.71817e-07 -1.84865e-06)
(2.97077 -5.05545e-07 1.25373e-06)
(2.96584 8.59416e-08 -1.63137e-06)
(2.96147 -4.125e-06 1.22022e-06)
(2.95772 2.59372e-06 -1.81874e-06)
(2.95439 -6.98802e-06 2.03375e-06)
(2.95155 1.34021e-05 -2.50199e-06)
(2.94831 5.05642e-06 6.44502e-06)
(2.94294 0.000154541 5.2202e-06)
(2.92829 0.000522889 8.11418e-05)
(2.90055 0.00189932 -2.36186e-05)
(2.81045 0.00426711 0.000308293)
(2.56982 0.0136366 -8.38286e-05)
(1.84829 0.0347665 0.000454738)
(0.0645493 0.11271 0.00117224)
(-0.713062 0.184295 0.000764691)
(-0.352382 0.237352 0.000566522)
(0.0460261 0.290497 0.000235599)
(0.056781 0.33539 0.00024865)
(-0.0697165 0.367467 0.000279588)
(-0.116615 0.398085 0.00032605)
(0.341903 0.336622 0.00031032)
(2.9951 6.98306e-07 4.95205e-07)
(2.98905 -1.24143e-07 -1.49872e-07)
(2.98254 8.80329e-07 3.68924e-08)
(2.97635 -4.18569e-07 -2.25213e-07)
(2.97077 -1.2406e-06 2.24533e-08)
(2.96584 1.26845e-06 -4.74462e-07)
(2.96147 -4.96592e-06 4.32238e-07)
(2.95772 6.57619e-06 -8.89291e-07)
(2.9544 -9.41447e-06 8.72721e-07)
(2.95155 2.15387e-05 -1.08574e-06)
(2.94837 7.36695e-06 -1.54142e-07)
(2.9432 0.000197414 2.65617e-06)
(2.92912 0.000701098 3.75474e-06)
(2.90244 0.00245736 1.93889e-05)
(2.81586 0.00582275 4.61403e-05)
(2.58557 0.0178339 9.82555e-05)
(1.89697 0.0454531 0.000307469)
(0.12004 0.150837 0.000791413)
(-0.67097 0.261104 0.000536235)
(-0.362972 0.289497 0.000415546)
(0.0597099 0.354815 0.000202028)
(0.0683124 0.419768 0.00021707)
(-0.0489291 0.466019 0.000242432)
(-0.1253 0.505787 0.000312059)
(0.318249 0.444669 0.000322635)
(2.9951 -1.76931e-06 1.35624e-06)
(2.98905 -7.851e-08 -1.37216e-06)
(2.98254 -1.21291e-06 1.11403e-06)
(2.97635 -1.20191e-07 -1.26827e-06)
(2.97077 -1.32406e-06 1.03728e-06)
(2.96583 2.31036e-06 -1.25242e-06)
(2.96147 -3.90806e-06 1.17415e-06)
(2.95772 9.56369e-06 -1.43678e-06)
(2.95441 -1.02e-05 1.69156e-06)
(2.95156 2.97931e-05 -2.44253e-06)
(2.94845 9.81758e-06 6.32177e-06)
(2.94352 0.000246115 1.52514e-06)
(2.93016 0.000891343 7.95016e-05)
(2.9049 0.00308503 -5.2938e-05)
(2.82261 0.00745178 0.000333104)
(2.60474 0.0224527 -0.000210394)
(1.95423 0.0576055 0.00033819)
(0.212111 0.190053 0.000843206)
(-0.596056 0.34898 0.000327838)
(-0.388309 0.331912 0.000317692)
(0.0663936 0.409399 0.00019393)
(0.0846307 0.49861 0.000176594)
(-0.0188786 0.564526 0.00017677)
(-0.126542 0.618016 0.000275857)
(0.296716 0.560407 0.000330781)
(2.9951 -3.12496e-06 -1.70209e-06)
(2.98905 3.23627e-07 2.12354e-06)
(2.98254 -2.4456e-06 -1.60015e-06)
(2.97635 -1.57701e-07 2.05026e-06)
(2.97077 -9.66699e-07 -1.58459e-06)
(2.96583 1.34743e-06 1.93606e-06)
(2.96148 -1.1338e-06 -1.94514e-06)
(2.95771 7.0632e-06 2.33073e-06)
(2.95442 -6.14399e-06 -2.79595e-06)
(2.95157 3.08183e-05 2.81004e-06)
(2.94855 1.11234e-05 -6.80985e-06)
(2.94393 0.000297294 -1.29855e-06)
(2.93148 0.00110601 -8.62487e-05)
(2.908 0.00370032 5.80498e-05)
(2.83126 0.00934251 -0.000317755)
(2.62953 0.027458 0.000224791)
(2.0285 0.0725902 1.0964e-06)
(0.339825 0.234423 -0.000180613)
(-0.496461 0.44956 0.0002733)
(-0.432527 0.362009 0.000328806)
(0.0690713 0.454073 0.000236797)
(0.108747 0.574769 0.000175135)
(0.0249139 0.66505 0.000148549)
(-0.117311 0.739701 0.000228799)
(0.278507 0.691686 0.000323838)
(2.9951 -3.15327e-06 -6.20675e-07)
(2.98905 9.57269e-07 6.94846e-07)
(2.98254 -3.10406e-06 -4.24791e-07)
(2.97635 6.26643e-07 6.91969e-07)
(2.97077 -7.84381e-07 -3.63394e-07)
(2.96583 7.07023e-07 6.17185e-07)
(2.96148 1.4107e-06 -4.59794e-07)
(2.95771 1.97119e-06 6.22078e-07)
(2.95443 2.52082e-06 -6.52679e-07)
(2.95158 1.7561e-05 3.97318e-07)
(2.94867 2.63667e-05 -6.32579e-07)
(2.94444 0.000300835 -3.01213e-06)
(2.933 0.00119088 -7.13618e-06)
(2.91189 0.00411011 -1.52743e-05)
(2.8416 0.0112487 -2.40472e-05)
(2.66035 0.0322882 -3.73532e-05)
(2.12137 0.0885812 -5.30247e-05)
(0.516628 0.279193 -8.10847e-05)
(-0.362184 0.564095 0.000110633)
(-0.486828 0.382392 0.000203762)
(0.0720903 0.489672 0.000194822)
(0.146259 0.649434 0.000132982)
(0.0840564 0.768564 0.000123281)
(-0.088512 0.872797 0.000199395)
(0.262904 0.84937 0.000313722)
(2.9951 -1.30559e-06 -6.09691e-08)
(2.98905 1.12079e-06 1.87681e-08)
(2.98254 -2.4703e-06 2.26582e-09)
(2.97635 2.39073e-06 3.74214e-08)
(2.97077 -2.4066e-06 6.29821e-08)
(2.96584 3.41948e-06 1.97069e-08)
(2.96148 -2.55549e-06 1.0557e-07)
(2.95771 4.82133e-06 -3.37112e-08)
(2.95443 -9.7997e-07 8.4657e-08)
(2.95159 1.33047e-05 -1.00937e-07)
(2.94879 4.34784e-05 -5.20938e-07)
(2.9449 0.000260985 -1.77254e-06)
(2.93466 0.00123041 -4.00255e-06)
(2.91653 0.00446998 -1.0034e-05)
(2.85387 0.0123714 -2.01779e-05)
(2.69815 0.0364627 -4.07187e-05)
(2.23298 0.100219 -7.25855e-05)
(0.743542 0.31524 -6.27046e-05)
(-0.204435 0.682925 3.84689e-05)
(-0.518428 0.416594 9.54166e-05)
(0.0834789 0.522089 0.000111317)
(0.202295 0.722347 7.88444e-05)
(0.158269 0.876544 9.55115e-05)
(-0.0202135 1.01705 0.000166443)
(0.253078 1.04792 0.000285184)
(2.9951 7.79086e-07 2.05677e-07)
(2.98905 1.39777e-06 -1.46788e-07)
(2.98254 -7.6305e-08 2.34335e-07)
(2.97635 4.465e-06 -2.2872e-07)
(2.97077 -4.93669e-06 2.6691e-07)
(2.96583 1.00326e-05 -3.58893e-07)
(2.96148 -1.60749e-05 3.82999e-07)
(2.95771 2.56663e-05 -4.79039e-07)
(2.95443 -4.10381e-05 4.29838e-07)
(2.95161 7.59003e-05 -3.83907e-07)
(2.94888 -7.08186e-05 -4.74846e-07)
(2.94542 0.000448351 -1.36642e-06)
(2.9365 0.000830631 -2.27669e-06)
(2.92133 0.00652077 -7.82381e-06)
(2.86735 0.00713871 -1.23065e-05)
(2.73948 0.0481033 -3.98824e-05)
(2.34893 0.0877245 -6.25796e-05)
(1.04674 0.338442 -0.000115689)
(-0.0187602 0.774709 -6.15111e-05)
(-0.495328 0.481311 5.49426e-05)
(0.105451 0.565784 9.77533e-05)
(0.280116 0.791962 5.13468e-05)
(0.253774 0.98278 8.45008e-05)
(0.0990416 1.17636 0.000141431)
(0.268052 1.35089 0.000228435)
(2.98855 9.76749e-06 0.00143245)
(2.98292 -1.19445e-06 0.00328243)
(2.97953 5.96188e-06 0.00494229)
(2.97739 -3.00709e-06 0.00642271)
(2.97597 3.11107e-06 0.00771881)
(2.97506 -3.69733e-06 0.00883803)
(2.97445 1.71041e-06 0.00982378)
(2.97406 -4.30329e-06 0.0106716)
(2.97373 2.84414e-06 0.0114139)
(2.97325 -4.25523e-06 0.0120512)
(2.97158 3.18134e-05 0.0125799)
(2.96811 5.01657e-05 0.0130028)
(2.95594 0.000500873 0.0138026)
(2.93218 0.000285224 0.0151602)
(2.84911 0.00212409 0.0180201)
(2.63127 0.00132534 0.0255595)
(1.99281 0.00409266 0.0460999)
(0.327386 0.016144 0.0747217)
(-0.456448 0.0210718 0.0658139)
(-0.0277487 0.0323092 0.0648581)
(0.191327 0.0353857 0.0690925)
(0.228191 0.0413048 0.0709187)
(0.165118 0.0455285 0.0694847)
(0.0425233 0.0527783 0.0693491)
(0.281778 0.0258129 0.0644703)
(2.98854 3.81904e-06 0.0014382)
(2.98292 7.51848e-07 0.00327441)
(2.97952 2.90736e-06 0.00494652)
(2.97739 -2.04842e-07 0.00641803)
(2.97597 1.31518e-06 0.00772198)
(2.97506 -1.69963e-06 0.00883528)
(2.97444 -5.65471e-07 0.00982594)
(2.97406 -2.6907e-06 0.0106704)
(2.97373 -1.87679e-06 0.0114146)
(2.97327 -2.24309e-07 0.0120515)
(2.97163 1.53349e-05 0.0125861)
(2.9685 8.04766e-05 0.0130387)
(2.95623 0.000217152 0.0136068)
(2.93327 0.000670548 0.0158471)
(2.85046 0.00148298 0.0167799)
(2.63181 0.00440572 0.0277844)
(1.99984 0.0104406 0.043434)
(0.365553 0.033182 0.0749428)
(-0.42079 0.0620304 0.0664614)
(-0.0430997 0.0932852 0.0642597)
(0.189865 0.0988662 0.0682455)
(0.234902 0.107121 0.070049)
(0.160404 0.112203 0.0685928)
(0.0227203 0.121697 0.0685763)
(0.272447 0.0739323 0.0639467)
(2.98855 1.60218e-06 0.00143325)
(2.98292 2.23627e-06 0.00328159)
(2.97953 1.8736e-06 0.00494256)
(2.97739 1.87748e-06 0.00642194)
(2.97597 1.51616e-07 0.00771931)
(2.97506 -8.48197e-07 0.00883733)
(2.97445 -9.9766e-07 0.00982396)
(2.97406 -4.29701e-06 0.0106719)
(2.97373 2.10733e-08 0.0114127)
(2.97326 -1.09468e-06 0.012052)
(2.97165 2.73388e-05 0.0125836)
(2.96828 0.000138646 0.0130046)
(2.95644 0.000371433 0.0137939)
(2.93323 0.00111682 0.0151272)
(2.85201 0.0026129 0.0179851)
(2.63865 0.00756313 0.0253337)
(2.01453 0.018529 0.0451872)
(0.360746 0.0607808 0.0738133)
(-0.430328 0.116834 0.0666057)
(-0.0352354 0.156222 0.063406)
(0.190807 0.166123 0.0673478)
(0.232362 0.182007 0.0689006)
(0.156573 0.193093 0.0673466)
(0.00633599 0.208322 0.0671747)
(0.250982 0.145253 0.0630256)
(2.98855 8.07684e-06 0.00143725)
(2.98292 5.91251e-07 0.00327619)
(2.97952 5.28454e-06 0.00494508)
(2.97739 -1.93707e-06 0.00641936)
(2.97597 1.48912e-06 0.00772102)
(2.97506 -5.4358e-06 0.00883539)
(2.97444 8.19516e-07 0.00982672)
(2.97406 -9.50535e-06 0.0106684)
(2.97373 6.42285e-06 0.0114179)
(2.97329 -4.74381e-06 0.0120463)
(2.97174 6.95162e-05 0.0125945)
(2.96879 0.000232811 0.0130313)
(2.95704 0.000973808 0.0135701)
(2.93519 0.00172053 0.0157282)
(2.85558 0.00547087 0.0165924)
(2.64571 0.0112309 0.0272739)
(2.04094 0.028931 0.0419099)
(0.432317 0.0965877 0.0730672)
(-0.3746 0.183343 0.067772)
(-0.0288656 0.220518 0.0625856)
(0.197456 0.228329 0.0657173)
(0.237956 0.252826 0.0671959)
(0.162744 0.273736 0.0657173)
(-0.00167757 0.297908 0.0653891)
(0.228786 0.228526 0.0613843)
(2.98855 -1.33533e-06 0.00143669)
(2.98292 8.21536e-07 0.00327681)
(2.97952 -6.28932e-07 0.00494463)
(2.97739 2.59464e-07 0.00641946)
(2.97597 -1.08647e-06 0.00772147)
(2.97506 -5.50114e-07 0.00883442)
(2.97444 -7.88315e-07 0.00982879)
(2.97406 -1.46148e-06 0.0106655)
(2.97373 4.19489e-06 0.0114224)
(2.97331 6.37274e-06 0.0120403)
(2.97185 6.95939e-05 0.0126033)
(2.96904 0.000298009 0.0130257)
(2.95777 0.000788778 0.0135461)
(2.93688 0.00232221 0.015622)
(2.86021 0.00547528 0.0164787)
(2.65865 0.0161059 0.0268301)
(2.07928 0.0397538 0.0404856)
(0.500957 0.127811 0.0713363)
(-0.321419 0.256416 0.0690331)
(-0.0261634 0.28542 0.0615913)
(0.200258 0.284836 0.0638863)
(0.245286 0.319026 0.0653678)
(0.174923 0.352115 0.0641409)
(-0.000321304 0.386953 0.0635021)
(0.208025 0.318714 0.0593854)
(2.98855 -1.18026e-05 0.00143617)
(2.98292 2.96133e-06 0.00327735)
(2.97952 -7.90887e-06 0.00494439)
(2.97739 5.93588e-06 0.00641998)
(2.97597 -5.44764e-06 0.00772138)
(2.97506 8.96256e-06 0.00883438)
(2.97444 -5.14335e-06 0.00982967)
(2.97406 1.19325e-05 0.0106636)
(2.97373 -1.9334e-06 0.0114262)
(2.97335 2.42376e-05 0.0120339)
(2.97199 7.68002e-05 0.0126155)
(2.96939 0.000378318 0.0130217)
(2.9587 0.000588494 0.0135503)
(2.93918 0.00294622 0.0155404)
(2.86634 0.00535709 0.0163728)
(2.67596 0.0206443 0.0264102)
(2.12778 0.0510411 0.0388174)
(0.592762 0.157299 0.0693254)
(-0.249224 0.33965 0.0702766)
(-0.0264735 0.348638 0.0603104)
(0.201094 0.335795 0.0619207)
(0.257137 0.383359 0.0633928)
(0.194931 0.431902 0.0624741)
(0.0130121 0.479765 0.061268)
(0.188741 0.419578 0.0568548)
(2.98855 -1.19537e-05 0.00143131)
(2.98292 3.72026e-06 0.00328434)
(2.97953 -9.69759e-06 0.0049401)