/*--------------------------------*- C++ -*----------------------------------*\
  =========                 |
  \\      /  F ield         | OpenFOAM: The Open Source CFD Toolbox
   \\    /   O peration     | Website:  https://openfoam.org
    \\  /    A nd           | Version:  6
     \\/     M anipulation  |
\*---------------------------------------------------------------------------*/
FoamFile
{
    version     2.0;
    format      ascii;
    class       volScalarField;
    location    "17";
    object      p;
}
// * * * * * * * * * * * * * * * * * * * * * * * * * * * * * * * * * * * * * //

dimensions      [0 2 -2 0 0 0 0];

internalField   nonuniform List<scalar> 
918
(
0.212918
0.969814
0.00801849
0.212814
-5.02856e-05
0.938048
-0.823682
0.396403
0.193806
-0.358112
0.00299982
0.18562
0.794941
0.562878
-1.50914
0.00923052
0.352878
-0.727226
0.191422
0.00384301
0.460047
0.200783
0.203184
0.193776
0.251468
0.530814
0.671999
0.00186321
-0.0024119
-0.00317323
0.00406402
-0.00224089
0.00246592
0.821209
0.87313
0.896214
0.163534
-0.00314504
-0.709073
-0.767198
-0.744168
-0.872744
0.383015
0.387292
-0.497522
0.396805
0.411525
0.180009
0.193057
0.193897
0.195589
0.194127
0.195612
0.127853
-0.407704
-0.460037
-0.292644
-0.23368
0.0543882
-0.0013372
-0.00982945
0.017912
0.0173366
0.120826
0.182536
0.181716
0.191803
0.200968
0.909988
0.883662
0.90961
0.820787
0.838183
0.77188
0.744848
0.584444
0.607759
0.546807
0.536261
-1.97846
-2.94362
-0.919413
-0.630649
0.000899718
0.0145845
0.0204477
0.34019
0.343232
0.351186
0.363382
0.773324
-0.721334
-0.863648
0.19167
0.190408
0.200048
0.201149
0.196061
0.196196
0.00962604
0.0158425
-0.00327763
0.000349753
0.000107027
0.445222
0.444003
0.193329
0.19084
0.209951
0.234443
0.22282
-0.043133
0.261768
0.278623
0.37125
0.531384
0.521727
0.53293
0.647283
0.614948
0.703694
0.725146
0.0107917
0.0030385
0.00714281
0.0049091
0.00595969
0.159046
0.152466
0.175441
0.166168
0.168819
-0.0955128
-0.246108
0.0748447
0.0926798
-0.615186
-0.663511
-0.794548
-0.788883
-0.872462
0.188814
0.376496
0.376838
-0.510067
-0.433205
-0.568994
-0.372224
-0.438316
0.172241
0.178422
0.174797
0.188237
0.181707
0.184192
0.1972
0.194311
0.195931
0.198918
0.320398
0.0826412
0.080277
-0.599656
-0.50301
-0.564474
-0.161912
-0.117124
0.0579871
0.0565984
0.0401143
0.0409929
-0.0791694
-0.0216524
-0.0565705
0.0195541
0.018134
0.11354
0.103503
0.129666
0.135454
0.173881
0.174902
0.177833
0.176411
0.695524
0.718081
0.724849
0.701376
-3.93883
-6.60339
-0.272439
-0.105262
0.00287415
0.0026788
0.00155056
0.00328459
0.00278746
0.00115842
0.0242247
0.0214001
0.0215205
0.0236084
0.327548
0.33099
0.722018
0.731827
0.712213
0.690304
0.180897
0.182853
0.187666
0.184019
0.0196151
0.0178606
0.019098
0.411616
0.428278
0.423834
-0.0817271
-0.169871
0.00503282
0.0344232
0.318282
0.295741
0.316289
0.432848
0.473517
0.741604
0.766355
0.750174
0.763388
0.814453
0.837328
0.802363
0.140315
0.14772
0.143621
0.179757
0.177331
0.178267
0.174005
0.173892
0.17124
-0.360163
-0.737196
0.13788
0.143432
0.124743
0.12652
0.277758
0.377544
0.355526
0.366571
0.366463
-0.327333
-0.378134
0.0548933
0.0632127
0.0608303
0.0917331
0.0759688
0.671499
0.632681
0.680147
0.655564
0.620885
0.643549
-0.674288
-2.4675
-1.44496
0.310543
0.105606
0.200886
0.0404929
0.0250782
0.0315821
0.717108
0.766063
0.406132
0.598245
0.542156
0.503768
0.532183
0.588664
0.519361
0.553658
0.588332
0.565498
0.151901
0.136799
0.132163
0.465972
0.532432
-0.204167
-0.26888
-0.304725
0.0487688
0.0572733
0.0609067
0.739022
0.602263
0.689625
0.191599
0.192223
0.0121983
0.0216069
0.195785
0.195645
0.00561152
0.00539498
0.215437
-1.28534
-0.182962
0.185505
0.175727
0.191634
-0.400381
0.06304
-0.00331888
0.0964228
0.0561769
0.183506
0.130903
0.0965439
0.00592677
0.0165906
0.0076387
-0.549591
0.189438
0.187781
0.191176
0.192158
0.192891
0.00685234
0.00959372
0.00672684
0.00769752
0.00815677
0.00562487
0.158866
0.174184
-0.49839
0.191274
0.193432
0.193205
0.187254
0.192133
0.190393
0.0125929
0.00773581
0.00812377
-0.0989418
0.0283359
0.418653
0.509134
0.354139
0.177529
-0.128397
0.343614
0.403243
0.318168
0.462956
0.361108
0.374232
-0.121987
-0.268654
-0.130395
-0.188216
0.182948
0.18184
0.173083
0.171
0.186831
0.184646
0.189345
0.18671
0.189465
0.190613
-0.373642
-0.285705
-0.440927
-0.472379
0.0230783
0.284683
-0.0463414
0.008903
0.0875262
0.00550648
0.015069
-0.0140774
-0.0172121
0.0262675
0.0519514
0.0785701
0.0481709
0.0543908
0.0279163
0.0229662
0.0377491
0.0322939
0.178422
0.175122
0.182684
0.189947
0.138084
0.141044
0.11386
0.128479
0.117864
0.0665679
0.0921861
0.0723944
0.00632395
0.00695953
0.00485336
0.0198866
0.0229627
0.0106815
0.00827302
0.011943
0.00909001
0.00809701
0.0115886
0.0155186
-0.513231
-0.58881
0.644017
0.595232
-0.100438
0.178578
0.184118
0.18062
0.186361
0.189149
0.189731
0.187649
0.184165
0.174811
0.177132
0.172399
0.173069
-0.440672
-0.554045
-0.38167
-0.445308
-0.17928
0.300056
0.0368163
-0.0147674
-0.0268267
0.185897
0.3547
0.325202
0.435242
0.438438
-0.733447
-0.3098
-0.654646
-0.116358
-0.135351
0.437365
0.483796
0.504422
0.45884
0.410391
-0.352588
0.187231
-0.358749
-0.319355
-0.140379
-0.239093
0.403934
0.342331
0.349256
0.364724
0.389465
0.355841
0.334895
0.333209
0.35912
0.366769
0.175395
-0.0652413
-0.0950025
-0.141728
0.329424
0.210599
0.263987
0.177955
0.177983
0.180226
0.178895
0.163434
0.168893
0.165088
0.169889
0.173044
0.181831
0.181998
0.177862
0.179835
-0.203833
-0.150951
-0.436297
-0.509131
-0.494705
-0.535541
-0.469555
-0.607297
-0.592667
-0.18565
-0.0195727
-0.546873
-0.476255
-0.50375
-0.428443
-0.360882
-0.322371
-0.0677641
0.0730235
-0.0705346
-0.0155233
0.0259244
0.0318224
-0.00021062
-0.00565749
-0.0523936
-0.0153594
0.0710797
0.0586324
0.0580249
0.0310784
0.023817
0.0125345
0.0148834
-0.0621711
-0.0752825
-0.0515522
-0.0941193
0.0184634
0.0208438
0.0244684
0.0321482
0.0338659
0.0372107
0.171241
0.171721
0.171951
0.185109
0.194966
0.209287
0.182153
0.157632
0.149831
0.149948
0.127357
0.134263
0.132044
0.144174
0.162452
0.170283
0.166737
0.169073
0.156129
0.157372
0.143449
0.147829
0.127502
0.111581
0.10369
0.0141814
0.00914784
0.0112915
0.0113605
0.00832432
0.00936201
0.0349041
0.030536
0.0342036
0.0275897
0.0249347
0.0150493
0.0149332
-0.438821
-0.35565
-0.518675
-0.538813
-0.613849
0.557845
0.688444
0.516732
0.272518
0.308426
0.506944
0.643124
0.246495
0.438874
0.500301
0.156088
0.480935
0.183111
0.183056
0.181173
0.180063
0.180569
-0.351962
-0.255161
-0.229799
-0.182536
-0.0617628
0.0462772
-0.0564911
-0.156867
-0.0197685
0.0150572
0.297874
0.312044
0.253352
0.279923
0.282985
0.10582
0.182143
0.227529
0.176622
0.237718
0.269033
0.221841
0.261339
0.190143
0.146962
0.141023
0.0893552
0.12485
0.105339
0.0787763
0.172695
0.154282
0.162787
0.156116
0.173225
0.204332
0.200367
0.217227
0.23603
0.161915
0.118071
0.132954
0.157504
0.118359
0.131675
0.148536
-0.165151
-0.272782
-0.0928234
-0.421888
-0.325013
-0.283805
-0.324926
-0.381984
-0.0720538
-0.722745
-0.654
-1.34487
0.129354
0.527672
0.362892
0.375974
0.385614
0.363126
0.370201
0.394992
0.404918
0.318047
0.331941
0.335293
0.29598
0.327844
0.33367
0.339548
0.157911
0.0859579
0.0665616
0.0257886
-0.108117
-0.0702696
0.104687
0.0429564
-0.0222313
-0.0175271
0.14207
0.0252542
0.0944655
0.137079
0.0848719
0.0239495
0.227236
0.288967
0.274457
0.246013
0.164878
0.181451
0.20478
0.243488
0.266245
0.296205
0.171098
0.175374
0.176474
0.173988
0.171181
0.174088
0.173587
0.176155
0.177545
0.179831
0.178843
-0.0413861
-0.0620016
-0.114647
-0.0714506
-0.389073
-0.443437
-0.505354
-0.474142
-0.0997813
-0.141052
-0.291125
-0.199638
-0.133947
-0.102311
-0.229969
-0.240805
-0.281133
-0.371518
-0.24421
0.0575446
0.168725
-0.0344722
-0.335036
-0.208238
-0.0517784
-0.0274938
0.0376358
0.0291005
0.0165676
-0.0193097
0.0130464
0.0101017
0.00734324
0.0115942
0.00776197
0.0117503
0.0172374
0.0158245
0.0164203
0.0152936
0.0168211
0.158385
0.151827
0.152085
0.147102
0.146929
0.158154
0.162687
0.164271
0.168219
0.170189
0.162844
0.167389
0.169476
0.0232302
0.019006
0.0224918
0.0156785
0.016531
0.0157879
0.0147783
-0.162152
-0.25561
-0.166216
-0.32949
-0.444603
-0.405601
0.130767
0.0941109
0.121838
0.341718
0.203022
0.0868141
0.1542
0.276838
-0.028826
0.159179
-0.00888216
0.547443
0.426
0.576865
0.23474
-0.100374
0.0490247
0.0648721
-0.0921842
0.0184541
-0.00192974
-0.113831
-0.0762042
-0.0610426
0.0146554
-0.0967105
-0.126785
-0.390371
-0.215309
-0.068644
-0.0960521
0.050291
0.104541
-0.105075
-0.181634
-0.22833
0.287044
0.307666
0.32087
0.288232
0.313652
0.243373
0.233906
0.249561
0.263204
0.255002
-0.991796
-0.581783
-1.78985
-1.20024
-0.755732
0.161056
0.14502
0.382868
0.296571
0.369932
0.355554
0.305101
0.273674
0.283405
0.317922
0.0241902
0.131391
0.093606
0.11535
0.0445226
-0.0348855
0.256603
0.253539
0.28066
0.305283
0.279124
0.30644
0.167098
0.166993
0.169066
0.166463
0.164248
0.165903
-0.181477
-0.177431
-0.275401
-0.341857
-0.387379
-0.335246
0.0293496
0.0208531
0.0177288
0.0185768
0.0270234
0.0292895
-0.183787
-0.224351
-0.300419
-0.24149
-0.342435
-0.395749
-0.417073
-0.31629
-0.237267
-0.252515
0.0971862
0.364023
0.199384
0.368182
0.170468
0.267893
0.120585
0.100579
0.132283
0.0152016
0.101347
-0.332231
-0.529765
-0.592342
0.438289
0.397141
0.203066
-0.0528185
-0.175149
0.123914
0.190906
0.157791
0.191034
0.237015
0.232862
-0.349102
-0.243143
-0.189189
0.120021
-0.0796747
-0.0487441
-0.0517717
0.0906639
0.0525687
)
;

boundaryField
{
    wall-4
    {
        type            zeroGradient;
    }
    velocity-inlet-5
    {
        type            zeroGradient;
    }
    velocity-inlet-6
    {
        type            zeroGradient;
    }
    pressure-outlet-7
    {
        type            fixedValue;
        value           uniform 0;
    }
    wall-8
    {
        type            zeroGradient;
    }
    frontAndBackPlanes
    {
        type            empty;
    }
}


// ************************************************************************* //
