/*--------------------------------*- C++ -*----------------------------------*\
  =========                 |
  \\      /  F ield         | OpenFOAM: The Open Source CFD Toolbox
   \\    /   O peration     | Website:  https://openfoam.org
    \\  /    A nd           | Version:  6
     \\/     M anipulation  |
\*---------------------------------------------------------------------------*/
FoamFile
{
    version     2.0;
    format      ascii;
    class       surfaceScalarField;
    location    "17";
    object      phi;
}
// * * * * * * * * * * * * * * * * * * * * * * * * * * * * * * * * * * * * * //

dimensions      [0 3 -1 0 0 0 0];

internalField   nonuniform List<scalar> 
1300
(
3.75095
5.62643
-6.10749
3.75095
-5.92024
5.62643
-4.46197
4.46197
-1.35784
1.35784
1.87687
1.87408
-2.91326
2.91326
-4.38605
4.38605
-2.72129
2.72129
-5.24785
5.24785
-5.06921
5.06921
4.73227
-4.73227
-4.83603
4.83603
-1.8151
1.8151
-3.56324
3.56324
3.1756
-3.1756
-4.79153
4.79153
-0.498864
0.498864
-0.553582
4.30454
3.19737
3.19737
-2.43753
2.43753
-4.86439
4.86439
6.22236
-6.22236
9.25965
-9.25965
-3.15216
-3.41468
1.32442
-8.17215
-4.59581
-4.59581
-8.44109
8.44109
-2.81466
2.81177
2.93993
-2.93993
-1.68651
1.68651
-4.47323
0.0112603
-4.47323
4.3828
0.0791644
4.3828
-1.46638
0.108542
-1.46638
4.01748
-4.01748
1.18699
0.170853
1.18699
3.06594
-3.06594
-1.87678
3.75365
1.87417
-1.87132
6.17585
-1.87963
3.75372
-5.32053
5.32053
-2.88334
-0.0299158
-2.88334
3.19574
-0.282485
3.19574
-5.34066
5.34066
-4.24984
-0.136205
-4.24984
4.48359
-0.0975451
4.48359
2.95019
-2.95019
-2.7555
0.0342069
-2.7555
2.66738
0.0539141
2.66738
0.353655
5.27277
-5.98009
8.79186
-5.27277
0.0249196
5.21023
0.0376221
5.21023
-5.10473
0.035522
-5.10473
5.01016
0.0590463
5.01016
4.82783
-0.0955591
4.82783
-4.8452
0.112933
-4.8452
-3.33268
-3.4309
-4.93866
0.102636
-4.93866
-1.82114
0.00603545
-1.82114
1.74205
0.0730539
1.74205
-3.59284
3.59284
-4.04398
0.480746
-4.04398
3.13176
0.0438358
3.13176
1.86758
1.88337
5.61854
-5.61854
2.44294
-4.70885
-0.0826807
-4.70885
-4.89004
-4.36961
4.89004
-0.0985025
-0.797479
0.298615
-0.797479
3.15703
0.0403363
3.15703
2.59365
0.0737232
-2.59365
0.156118
3.41402
-3.41402
1.78644
0.651097
1.78644
-5.56283
5.56283
4.957
0.0531557
-4.957
0.0926133
6.15775
0.0646158
6.15775
-6.20771
-0.0146538
-6.20771
3.35775
-6.77243
-3.4233
4.71877
0.117259
-4.71877
0.122957
2.9134
0.026531
2.9134
-2.94178
2.94178
-2.98599
0.0460576
-2.98599
-2.1351
0.44859
-2.1351
1.3421
0.344416
1.3421
-4.34788
-0.125344
-4.34788
-4.33197
0.287989
4.33197
0.0508311
0.833394
-0.833394
-1.57393
0.107551
-1.57393
-4.14363
-0.204253
4.14363
-0.126148
-3.94101
-0.0764753
-3.94101
-3.02541
0.0394208
3.02541
0.0405318
3.1114
0.0456396
-3.1114
0.0454519
-1.87085
3.75422
-1.8801
3.75427
-5.17752
-0.14301
-5.17752
5.32809
-0.00755086
5.32809
3.20065
0.362586
-3.20065
0.31731
3.65518
-0.45944
3.65518
-5.35031
0.00964691
-5.35031
5.2531
0.087561
5.2531
4.00435
-0.349172
-4.00435
-0.24549
4.55642
-0.0728306
4.55642
3.0121
-0.0619072
3.0121
-2.91008
-0.0401045
-2.91008
2.81765
-2.81765
2.78293
0.0347207
-2.78293
0.0274373
-11.1242
11.1096
-0.0364702
-11.0878
5.17376
5.17376
4.2758
0.552026
4.2758
-5.02973
0.184531
-5.02973
3.32102
-6.74432
3.42055
-6.75323
3.42436
-11.5965
3.36048
-6.79138
5.08602
-5.08602
5.01643
0.06959
-5.01643
0.0777703
-1.79827
-0.0228717
-1.79827
-2.91571
-0.677132
-2.91571
4.16563
-0.572786
4.16563
-3.03757
3.03757
-3.08259
0.0450216
3.08259
0.0491677
4.63146
-0.0750339
-4.63146
-0.0773944
0.998788
0.1882
-0.998788
0.201309
3.6227
-0.208673
3.6227
-3.22167
-0.192348
-3.22167
-1.7874
-0.0108629
1.7874
-0.000968095
-5.81045
0.247624
-5.81045
-11.1813
0.0935017
-11.1437
-6.11421
-6.11421
2.32688
11.1187
-2.8979
-0.0121868
2.8979
0.0155047
2.98982
0.0477528
-2.98982
0.0480419
-2.87662
0.0589681
2.87662
0.0651541
-2.52135
0.386251
-2.52135
-0.912456
0.912456
-1.09151
0.179055
1.09151
0.250586
1.11038
-0.276989
1.11038
1.66908
0.0729719
-1.66908
0.0951454
-3.88196
-0.0590467
-3.88196
5.28763
0.040457
5.28763
-3.08588
-0.135799
3.08588
-0.0737794
-0.0351455
11.1447
-5.13862
0.0338892
5.13862
-11.2094
11.2432
-3.24138
0.720024
3.24138
1.03442
5.29156
0.271271
-5.29156
0.261824
5.17139
0.0817129
-5.17139
0.0853672
-2.37247
-0.543237
-2.37247
-4.78954
-0.387987
4.78954
-0.623907
-11.4827
-0.202408
11.6851
-11.4237
6.01286
0.144886
-6.01286
11.3881
-0.790368
-0.0430254
0.790368
0.122088
1.4545
-0.34412
1.4545
3.79782
-0.175123
-3.79782
-0.0841425
-5.34312
-0.0071889
5.34312
-0.0554945
-1.89846
-0.474017
1.89846
-0.443954
-4.26509
4.30543
1.91076
-3.32169
-3.45074
-7.6913
1.85394
1.90028
4.29688
-7.16886
-4.42765
-7.04591
7.22396
-6.96214
-9.39651
9.30095
7.47474
-7.55121
-5.77357
5.82273
6.47971
-6.43918
1.87765
1.876
6.37743
-6.40734
-15.935
15.792
9.43961
-9.57581
12.0429
-12.0332
-13.0715
13.1532
-5.75783
5.79204
-6.63714
6.59703
-6.80777
6.73399
-3.27821
-3.47502
9.26887
-9.16624
11.7245
-11.8072
-8.16726
8.648
3.3851
0.920326
3.43074
-1.88243
3.76008
-1.87129
3.78205
3.43084
-6.70905
3.31348
-6.76423
6.09801
5.62653
-5.99951
-1.69179
-5.84076
5.86729
-5.81281
5.87796
8.98661
-8.97535
-1.8845
3.76051
-1.86977
3.77005
-3.42021
-2.35336
3.37637
0.920511
5.665
3.60388
-5.78226
-1.26365
-7.64086
7.46574
-7.95603
7.76368
-0.45261
5.84024
-5.38763
4.41178
-1.64139
7.48163
5.58257
5.7671
5.86244
-5.59117
1.0997
-6.48733
-6.39472
-2.63162
2.73917
2.70276
-2.53191
5.87666
1.59808
5.75052
-5.5373
-2.01392
-5.59635
3.81662
2.00611
3.86165
4.0689
2.41081
4.10832
3.02968
-3.03824
0.00856202
-3.05946
6.08914
0.722263
-5.41282
-4.49231
4.49051
1.88691
4.20803
-4.57209
-1.83526
-4.25478
-9.892
-6.04301
-10.28
9.67612
6.11588
9.66857
-10.0527
9.99725
6.53331
2.9063
6.43577
-5.81902
-3.75679
-6.06451
10.7265
-1.72688
-8.99967
-7.61067
-5.4608
7.52311
4.51978
7.84655
5.30663
7.93191
3.35992
7.36663
-7.8797
2.41891
-3.86409
-1.89375
-3.83665
3.74421
2.04783
3.79813
-4.13019
-2.50695
-4.14238
-4.19823
-2.60954
4.26014
2.33689
-4.31142
-3.64461
4.44722
2.28677
3.13974
-7.56739
3.65164
-7.12667
-6.47591
-2.69033
-6.39814
4.20659
2.60002
-6.80661
-2.50246
10.9585
-5.33195
9.26669
-7.25227
-4.55496
-7.32966
-6.84975
-1.3175
-6.56176
-8.83703
8.29379
-9.18931
8.61652
12.869
-6.16188
-6.70714
-3.97043
-2.46874
3.92498
-0.494239
-3.71215
3.72071
0.0479308
3.82998
4.7503
4.25606
-3.87152
-1.94129
-3.82348
3.83708
2.04089
3.89605
6.75581
2.23081
6.83497
-6.41176
-2.56359
-6.53711
9.1477
-8.69911
2.95393
-2.96479
5.16566
2.59803
-4.95698
-2.68388
6.03663
-3.03851
-2.99812
-12.3705
10.8996
1.47097
-4.8889
-0.477121
0.0217426
-5.60586
-3.79064
5.49293
0.274174
11.1737
7.3831
-5.5156
5.76322
6.16951
6.22266
-0.172052
5.92589
-5.20587
5.25471
-2.30973
-2.94498
5.27565
-5.4799
-1.26145
-5.26026
3.99881
0.270611
1.91507
-1.61646
-2.08147
-0.550151
-1.98633
1.64406
1.0587
1.83226
0.933192
1.80598
-2.97877
0.617385
2.36138
-2.04558
-1.91452
-3.48412
-0.945038
4.42916
5.42531
2.04043
-5.34117
-0.25518
2.76615
-2.6931
-0.731477
-2.75265
2.09796
-2.82944
-3.46437
-1.85591
5.32028
-3.36111
-0.462363
3.31336
0.548286
-3.79379
-2.04697
3.74773
0.36059
-3.1374
6.24185
-3.10445
-5.07869
2.53351
3.55563
4.53962
-4.79451
2.43468
2.35982
-1.23887
4.46314
-0.255114
4.0037
-5.62444
3.78918
5.13351
3.5145
-5.49609
1.24132
-4.38312
9.81963
-8.34057
-1.47905
5.70832
4.11131
7.50239
5.36663
-5.74176
13.2441
-2.17348
-6.16709
6.5566
-3.04211
5.86707
-8.90918
-11.2337
5.06661
-10.6009
10.3019
0.299004
-2.39254
-7.66021
12.9935
-2.04882
-10.9447
7.61975
-6.04544
-4.53214
10.5776
-7.77232
8.28893
-3.55373
-4.7352
-7.93318
-4.10006
7.94037
2.05688
-9.65419
12.0731
-2.28756
5.80313
0.63264
5.7303
5.05905
-5.79996
0.740909
2.71327
-6.267
4.58658
-10.3865
-5.03168
9.75381
-4.72213
-7.72201
-6.99037
-0.73164
1.88582
10.1873
-7.19245
5.38701
1.80544
3.33845
0.557599
-3.37317
-0.463482
0.364347
4.45707
-4.82142
4.16247
4.2362
3.36441
1.09266
3.7787
2.08859
-3.79421
-0.34817
-4.06945
1.45992
-1.73256
-3.59251
5.05242
-4.01624
0.423731
-2.68597
-3.51231
6.19828
-4.57971
3.07924
3.16261
5.12012
-4.90162
1.38932
-2.40759
-2.49403
2.62692
-4.35948
1.92987
3.12255
4.21665
0.572034
4.98737
4.76644
-7.58739
0.460722
8.37032
-7.10667
1.85097
6.08094
-7.23798
0.247607
-6.15053
1.07008
-6.40203
-5.73652
5.54572
-6.86322
-3.36346
6.14774
0.687226
-6.19857
-0.36319
-5.90653
-2.9305
-6.38055
-3.15193
-6.03737
-8.89369
-1.57928
-7.31441
6.71451
-6.82651
-3.45348
7.45041
1.16611
-7.34684
7.30381
-7.39024
7.04612
0.0952783
3.62544
4.35134
1.8826
-2.38656
4.26916
-4.98171
7.21251
-8.42447
3.44276
3.99701
-6.5606
-4.42746
5.03299
4.11471
5.37741
9.02782
-10.7221
1.6943
-11.0063
12.167
-1.16067
-16.8024
5.79607
-7.77456
2.69124
0.262685
2.66837
0.675682
2.40356
-3.07924
-2.28911
-2.29008
-2.24141
-3.29908
5.54049
1.09383
-3.29196
2.19813
-3.43012
4.52395
-0.0171251
-3.27484
5.17654
-2.77298
5.43923
-3.44725
1.99198
3.26365
5.51625
-2.2526
4.24513
-1.6471
1.73783
-3.99043
-1.56125
-2.99055
5.03838
-3.20772
3.63146
-0.21696
3.84842
-4.00462
0.966112
-0.640206
3.59599
3.75211
4.13036
-3.0377
2.8582
-4.5053
-1.13223
-3.93327
-0.810717
-0.212458
-3.79395
4.00641
6.14248
-6.35494
-5.36582
9.65719
-4.29137
7.75279
-5.49367
-2.25911
-4.3116
-4.38751
3.92535
2.00054
9.75333
0.163045
-5.65672
-5.04282
-4.0084
3.22563
2.02908
-2.06626
3.53723
2.04452
-0.12945
0.599712
1.23255
1.90336
-1.30365
0.182602
1.72076
-1.43385
1.99092
0.775233
-2.06389
0.077568
-1.31586
3.41382
1.04553
-2.10423
0.800582
1.08615
-3.39588
4.62893
-2.34557
-2.28336
5.71508
1.19222
-3.53779
4.06804
-3.79743
2.30212
-3.24715
-1.23568
-5.03311
-3.43503
-2.41246
4.61059
-3.12803
5.16846
1.14622
-4.91328
6.0595
-3.53377
1.67786
-2.96348
3.73871
-0.990189
-1.97329
2.77877
2.54151
-2.84774
0.0950957
-0.0689707
2.32223
-2.3912
-0.507208
-2.55278
-4.53614
4.89673
-2.14383
4.57851
2.12533
-1.90667
6.48518
1.8239
-3.73057
-3.2548
-3.71716
-1.37075
3.16887
-1.57357
-4.49094
-6.30877
4.84012
-0.836413
-6.5397
9.08071
-2.54101
-4.65279
0.863605
4.84471
-8.08752
1.82052
-3.50093
5.57978
5.32467
4.48825
-12.2934
1.34875
-6.17754
2.32378
-8.50132
6.43509
-3.39304
8.45965
-11.0172
7.56374
-9.8511
6.9806
-1.52072
5.68323
-4.94232
3.31645
-7.41651
-5.35963
6.83373
-3.92744
7.46637
-4.36258
11.829
-6.65015
7.04098
4.78798
-1.48336
-5.8463
-6.84995
5.36658
0.191035
5.92133
4.94129
-2.8527
4.59312
2.27331
-4.6809
-2.08617
-6.54041
1.85951
-3.3778
-1.91498
3.77449
3.20514
3.76274
1.28045
-3.29926
6.88003
-7.61167
-2.1579
-3.57863
6.80101
-1.43442
4.15598
-7.73461
-2.24605
4.87702
-0.869207
-4.00781
1.28486
-4.64832
1.61608
-6.26441
5.24714
-5.61033
2.18336
-9.95791
-5.16348
-5.04139
-2.23312
-5.15712
-7.66577
5.43265
-1.86971
5.43411
-8.713
7.8438
-3.45397
8.88662
-5.30685
-1.0737
5.7508
1.29532
10.1819
0.131149
-4.55861
-1.82031
3.82089
-2.00058
1.40532
-3.6628
0.158088
2.47881
3.23627
-6.47762
-0.0829828
-4.64159
-3.90738
8.02209
5.74981
11.8923
1.17017
9.26453
-1.24244
10.4347
4.13497
4.38556
-3.02439
4.7187
0.98202
4.42478
-0.811056
2.80304
1.85732
1.86335
0.829749
2.30001
1.4521
3.26612
0.18688
-2.1032
4.67899
-8.68739
-0.97773
-8.13536
1.16559
5.45459
-4.289
3.03583
-1.00675
1.03525
0.211615
-1.82227
1.61066
-2.73336
-1.95172
-0.230966
-1.5413
2.34188
1.87252
-2.11092
-0.622444
0.263633
-3.69867
2.98352
-2.88843
-0.346919
5.71258
-2.71279
0.321589
-1.03493
-2.2312
-2.78135
2.70378
6.22666
0.258527
3.12221
5.15526
3.10829
0.255589
7.18905
-6.89005
-3.19749
-5.5413
0.893791
5.7385
2.28119
7.90609
7.06917
5.63474
-2.09986
-9.71153
6.53378
-1.81508
5.37311
-1.3653
-4.89911
4.93527
2.27724
-5.6225
0.0121697
-4.88694
-6.70202
-0.556002
8.3998
-9.62595
8.55224
5.62175
1.69266
-4.36514
-0.676251
4.18609
0.199471
10.6342
-0.898753
-7.23523
8.13398
-4.55584
3.57811
0.841097
2.69613
2.45175
1.445
-5.79023
-10.0792
-1.75641
-1.63947
-4.03977
0.389396
-2.26191
6.15292
-2.57481
3.89381
5.55917
6.59442
-2.14755
-4.20739
6.43892
-2.54512
4.0493
)
;

boundaryField
{
    wall-4
    {
        type            calculated;
        value           uniform 0;
    }
    velocity-inlet-5
    {
        type            calculated;
        value           uniform -3.75095;
    }
    velocity-inlet-6
    {
        type            calculated;
        value           uniform -5.62643;
    }
    pressure-outlet-7
    {
        type            calculated;
        value           nonuniform List<scalar> 8(6.10749 5.92024 6.56684 6.84773 6.76358 6.78106 6.74157 6.78484);
    }
    wall-8
    {
        type            calculated;
        value           uniform 0;
    }
    frontAndBackPlanes
    {
        type            empty;
        value           nonuniform 0();
    }
}


// ************************************************************************* //
