/*--------------------------------*- C++ -*----------------------------------*\
  =========                 |
  \\      /  F ield         | OpenFOAM: The Open Source CFD Toolbox
   \\    /   O peration     | Website:  https://openfoam.org
    \\  /    A nd           | Version:  6
     \\/     M anipulation  |
\*---------------------------------------------------------------------------*/
FoamFile
{
    version     2.0;
    format      ascii;
    class       volScalarField;
    location    "8";
    object      Ma;
}
// * * * * * * * * * * * * * * * * * * * * * * * * * * * * * * * * * * * * * //

dimensions      [0 0 0 0 0 0 0];

internalField   nonuniform List<scalar> 
5250
(
2.99987
2.99966
2.99899
2.99791
2.99435
2.98857
2.96991
2.93619
2.84572
2.63563
2.21262
1.30672
0.260773
0.230259
0.0580405
0.284528
0.346269
0.314317
0.2528
0.19435
0.157293
0.126996
0.094662
0.0614825
0.0424459
2.99987
2.99966
2.999
2.99792
2.99437
2.98862
2.97001
2.93642
2.84621
2.63684
2.21478
1.31092
0.265287
0.227787
0.0707881
0.291714
0.350744
0.317933
0.257556
0.201993
0.167049
0.138265
0.108552
0.0807003
0.0672107
2.99987
2.99966
2.99901
2.99793
2.99441
2.9887
2.97023
2.93691
2.84729
2.63959
2.21978
1.3219
0.277046
0.219304
0.0905679
0.302259
0.357838
0.324503
0.266666
0.21665
0.186088
0.160915
0.13628
0.115551
0.10651
2.99988
2.99967
2.99902
2.99796
2.99448
2.98884
2.97059
2.9377
2.84903
2.64411
2.22807
1.34052
0.296296
0.206328
0.114022
0.315833
0.368087
0.335235
0.281482
0.23821
0.212961
0.192434
0.173281
0.158551
0.152684
2.99988
2.99967
2.99903
2.99799
2.99457
2.98903
2.97108
2.93879
2.85145
2.65045
2.23977
1.3669
0.322749
0.190155
0.140203
0.332091
0.381135
0.349681
0.301012
0.26486
0.244816
0.229063
0.215133
0.204996
0.201569
2.99988
2.99968
2.99906
2.99804
2.99469
2.98928
2.97171
2.94021
2.85456
2.65864
2.25495
1.4011
0.356407
0.1725
0.168994
0.350835
0.396788
0.367548
0.32467
0.295602
0.281324
0.270285
0.261337
0.255694
0.254437
2.99988
2.99969
2.99908
2.99809
2.99484
2.98958
2.97248
2.94192
2.85838
2.66859
2.27355
1.44258
0.397212
0.156699
0.200445
0.371202
0.414606
0.388622
0.35234
0.330451
0.321847
0.316656
0.313526
0.313119
0.315624
2.99989
2.9997
2.99911
2.99816
2.99501
2.98994
2.97339
2.94394
2.86288
2.68027
2.29557
1.49155
0.445489
0.148981
0.23451
0.393521
0.434152
0.411931
0.38318
0.368958
0.366804
0.367892
0.3728
0.381365
0.391675
2.99989
2.99971
2.99915
2.99823
2.99521
2.99034
2.97442
2.94624
2.86796
2.69382
2.3207
1.54907
0.504538
0.156838
0.27186
0.418442
0.455516
0.437767
0.416685
0.410725
0.415432
0.425233
0.441839
0.466017
0.498973
2.9999
2.99973
2.99919
2.99832
2.99543
2.9908
2.97554
2.94888
2.87359
2.7081
2.34944
1.6018
0.57366
0.186474
0.312563
0.442675
0.477297
0.465303
0.453327
0.454852
0.466263
0.487964
0.523971
0.577092
0.676722
2.9999
2.99974
2.99923
2.99841
2.99567
2.99132
2.97679
2.95184
2.87993
2.7236
2.3822
1.65635
0.656415
0.236553
0.354873
0.461756
0.497908
0.493998
0.491051
0.498734
0.518433
0.555437
0.615534
0.710878
0.857795
2.99991
2.99976
2.99928
2.99851
2.99595
2.99188
2.97822
2.95501
2.88713
2.74094
2.41839
1.72026
0.747693
0.303472
0.396953
0.477939
0.517494
0.522464
0.52657
0.540421
0.570334
0.62163
0.694445
0.803723
0.947204
2.99992
2.99978
2.99934
2.99863
2.99626
2.99251
2.97983
2.9585
2.89524
2.76026
2.45862
1.79272
0.847623
0.385164
0.432738
0.491282
0.534906
0.547575
0.55738
0.5788
0.617441
0.674148
0.749101
0.844039
0.955101
2.99993
2.9998
2.9994
2.99876
2.99661
2.99323
2.98168
2.96251
2.90461
2.78239
2.50611
1.88063
0.970597
0.476175
0.458056
0.508358
0.551562
0.570264
0.585915
0.612397
0.654495
0.708549
0.777159
0.858901
0.94391
2.99994
2.99982
2.99947
2.99891
2.997
2.99403
2.98377
2.96702
2.91505
2.80883
2.56093
1.98807
1.12303
0.575023
0.482132
0.520705
0.564321
0.591506
0.612222
0.640161
0.680331
0.729701
0.789178
0.85792
0.93048
2.99995
2.99985
2.99955
2.99906
2.99743
2.9949
2.98611
2.97193
2.92739
2.83604
2.62603
2.10977
1.29759
0.679625
0.507708
0.53691
0.580919
0.613506
0.63618
0.662524
0.699219
0.74294
0.79548
0.852656
0.91562
2.99996
2.99988
2.99962
2.99922
2.99785
2.99573
2.98839
2.97664
2.9388
2.86705
2.6859
2.27034
1.52739
0.793769
0.550304
0.571075
0.609558
0.64149
0.661575
0.683192
0.71451
0.752258
0.797953
0.846922
0.898504
2.99997
2.9999
2.99969
2.99935
2.99823
2.99647
2.9904
2.98082
2.9492
2.89249
2.73792
2.41117
1.73793
0.899288
0.590117
0.608164
0.641591
0.67216
0.688552
0.704482
0.72873
0.759869
0.798316
0.839938
0.883532
2.99997
2.99992
2.99975
2.99947
2.99854
2.9971
2.99209
2.98424
2.95813
2.91079
2.78504
2.49388
1.9249
1.00515
0.640412
0.632505
0.663967
0.692379
0.70986
0.722916
0.741593
0.767069
0.798624
0.832746
0.869186
2.99998
2.99993
2.9998
2.99957
2.99882
2.99765
2.99356
2.98723
2.96578
2.92761
2.82348
2.57546
2.09994
1.19259
0.742412
0.651211
0.672466
0.696515
0.718544
0.733084
0.750058
0.77182
0.797151
0.825251
0.855849
2.99999
2.99995
2.99984
2.99966
2.99906
2.99814
2.99488
2.98991
2.97275
2.94322
2.8592
2.66362
2.27543
1.444
0.874488
0.681462
0.682496
0.70115
0.724332
0.739612
0.754473
0.772079
0.792891
0.817293
0.844168
2.99999
2.99996
2.99988
2.99974
2.99927
2.99855
2.99602
2.99221
2.97878
2.95689
2.891
2.75119
2.44663
1.79746
1.03362
0.734406
0.707953
0.71772
0.734701
0.747932
0.758337
0.771517
0.789523
0.811043
0.834928
2.99999
2.99997
2.99991
2.9998
2.99943
2.99888
2.99689
2.99396
2.98325
2.96682
2.91275
2.80652
2.55435
1.98198
1.18333
0.776367
0.715253
0.723873
0.737515
0.75144
0.762091
0.774168
0.789863
0.808727
0.829632
3
2.99998
2.99993
2.99984
2.99957
2.99914
2.99761
2.99536
2.9872
2.97443
2.93353
2.84747
2.65037
2.15965
1.40713
0.866781
0.714277
0.713468
0.727165
0.746462
0.762113
0.77558
0.790757
0.808005
0.826845
3
2.99999
2.99995
2.99988
2.99967
2.99933
2.99816
2.99641
2.99007
2.98042
2.94745
2.88868
2.72848
2.38685
1.70698
0.986056
0.727151
0.707809
0.721256
0.742627
0.76205
0.777071
0.79197
0.808224
0.825559
3
2.99999
2.99997
2.9999
2.99978
2.9994
2.99881
2.99671
2.99358
2.98223
2.96439
2.90687
2.78939
2.51502
1.9187
1.10625
0.723616
0.684595
0.703711
0.728861
0.754728
0.774095
0.79068
0.807141
0.823957
3
2.99999
2.99998
2.99992
2.99983
2.99953
2.99907
2.9974
2.99497
2.98607
2.97197
2.92631
2.82916
2.60645
2.06721
1.2756
0.766497
0.646901
0.666959
0.698115
0.734223
0.760674
0.780993
0.799281
0.81695
3
3
2.99998
2.99994
2.99987
2.99962
2.99925
2.99789
2.99596
2.9885
2.9776
2.93899
2.86831
2.6844
2.25622
1.52699
0.833871
0.615179
0.632024
0.669276
0.714004
0.746976
0.770021
0.789307
0.807394
3.00001
3
2.99999
2.99995
2.99989
2.9997
2.9994
2.99832
2.99674
2.99078
2.9819
2.95038
2.89469
2.73798
2.40307
1.71855
0.901335
0.58677
0.593891
0.638267
0.688426
0.726778
0.753108
0.774013
0.793041
3.00001
3
2.99999
2.99997
2.99991
2.9998
2.99945
2.9989
2.99695
2.99395
2.98365
2.96503
2.90909
2.7808
2.49691
1.86006
0.999358
0.572146
0.550186
0.594849
0.64836
0.694869
0.72738
0.751446
0.771795
3.00001
3
2.99999
2.99997
2.99993
2.99981
2.99962
2.99894
2.9979
2.99434
2.98802
2.96879
2.92467
2.8157
2.53621
2.02056
1.09241
0.6051
0.491416
0.532167
0.592718
0.652553
0.693237
0.721363
0.743779
3.00001
3
3
2.99998
2.99994
2.99983
2.99966
2.99903
2.99815
2.99464
2.98964
2.97141
2.93829
2.84316
2.61213
2.17417
1.27286
0.672235
0.444313
0.480823
0.554134
0.625219
0.668805
0.69624
0.717872
3.00001
3
3
2.99998
2.99995
2.99985
2.99971
2.99916
2.9984
2.99538
2.99115
2.97507
2.94926
2.86613
2.69001
2.3076
1.55725
0.749504
0.428196
0.473062
0.552139
0.624137
0.663703
0.685724
0.702802
3.00001
3
3
2.99998
2.99996
2.99987
2.99974
2.99926
2.99858
2.99586
2.99215
2.97737
2.95518
2.88056
2.72996
2.37734
1.67859
0.778599
0.382472
0.4439
0.527212
0.606182
0.647818
0.668985
0.68477
3.00001
3
3
2.99999
2.99997
2.99989
2.99978
2.99936
2.99876
2.99641
2.99306
2.98012
2.95976
2.89142
2.75227
2.41519
1.73757
0.828097
0.371069
0.412249
0.49311
0.573869
0.619317
0.643745
0.661446
3.00001
3.00001
3
2.99999
2.99997
2.99993
2.99979
2.99958
2.99886
2.99759
2.99372
2.98513
2.96209
2.90398
2.76958
2.42353
1.7743
0.827411
0.365337
0.370809
0.448733
0.529073
0.581235
0.611535
0.632512
3.00001
3.00001
3
2.99999
2.99998
2.99992
2.99984
2.99953
2.99907
2.99729
2.99461
2.98488
2.96671
2.91078
2.78017
2.48788
1.82423
0.9319
0.390523
0.346327
0.411772
0.491797
0.54972
0.584393
0.606874
3.00001
3.00001
3
2.99999
2.99998
2.99994
2.99987
2.9996
2.9992
2.99773
2.99527
2.98694
2.96941
2.91927
2.79609
2.5246
1.87787
0.998349
0.412313
0.315058
0.373275
0.459771
0.526703
0.564861
0.587706
3.00001
3.00001
3
3
2.99998
2.99996
2.99988
2.99973
2.99932
2.99833
2.99593
2.98922
2.97312
2.92669
2.82041
2.52314
1.97751
1.03067
0.439694
0.277279
0.341311
0.445281
0.524639
0.566416
0.588018
3.00001
3.00001
3
3
2.99999
2.99996
2.99991
2.99976
2.99942
2.9986
2.99635
2.9913
2.97557
2.94031
2.83123
2.60903
1.99782
1.15625
0.46535
0.233209
0.3095
0.440957
0.532256
0.574412
0.592928
3.00001
3.00001
3
3
2.99999
2.99997
2.9999
2.99979
2.99946
2.99869
2.99683
2.99152
2.97905
2.94199
2.85479
2.61419
2.15222
1.29492
0.527232
0.217386
0.311802
0.459762
0.552401
0.588405
0.600438
3.00001
3.00001
3
3
2.99999
2.99996
2.99992
2.99977
2.9995
2.99872
2.99687
2.99218
2.97969
2.94869
2.86427
2.67718
2.20571
1.4258
0.506849
0.149525
0.281023
0.452753
0.547038
0.581599
0.59254
3.00001
3.00001
3
3
2.99999
2.99997
2.9999
2.99979
2.99944
2.99875
2.99686
2.9923
2.98059
2.95003
2.87537
2.68044
2.29123
1.53136
0.565087
0.152303
0.289605
0.450724
0.544988
0.580436
0.591253
3.00001
3.00001
3
3
2.99999
2.99995
2.9999
2.99971
2.99943
2.99835
2.99677
2.99114
2.98089
2.94942
2.87594
2.70124
2.28267
1.53344
0.542373
0.128244
0.269046
0.427185
0.523938
0.563385
0.576824
3.00001
3.00001
3
3
2.99999
2.99995
2.99989
2.99967
2.99937
2.99815
2.99654
2.98976
2.98045
2.94505
2.88197
2.70603
2.31172
1.57011
0.571052
0.146971
0.268148
0.413736
0.509234
0.550013
0.564459
3.00001
3.00001
3
3
2.99999
2.99995
2.99989
2.99967
2.99937
2.99816
2.99656
2.98989
2.9807
2.94612
2.8842
2.7116
2.32482
1.59266
0.598297
0.165121
0.270092
0.405197
0.499901
0.541953
0.556803
3.00001
3.00001
3
3
2.99999
2.99995
2.99989
2.99968
2.99939
2.99821
2.99664
2.99009
2.98114
2.94709
2.88639
2.71649
2.33465
1.61135
0.618769
0.179744
0.271112
0.398084
0.493018
0.535688
0.550365
3.00001
3.00001
3
3
2.99999
2.99995
2.9999
2.99972
2.99945
2.99848
2.99698
2.99197
2.98217
2.9538
2.88567
2.72597
2.33019
1.61607
0.636038
0.186508
0.268084
0.391138
0.488966
0.533414
0.54785
3.00001
3.00001
3
3
2.99999
2.99996
2.99989
2.99977
2.99935
2.99873
2.99644
2.99282
2.98054
2.95644
2.8866
2.72485
2.36374
1.66234
0.727297
0.24979
0.311184
0.419004
0.517494
0.560816
0.572798
3.00001
3.00001
3
3
2.99999
2.99996
2.99991
2.99974
2.99949
2.99859
2.99715
2.99238
2.98274
2.955
2.88781
2.73054
2.3378
1.6332
0.653915
0.194469
0.263243
0.382169
0.481444
0.526038
0.539724
1.0254
1.04627
0.775964
0.332166
0.182953
0.198566
0.280942
0.337703
0.3718
0.390715
0.403419
0.417913
0.434257
0.451056
0.463584
0.469008
0.469444
0.467362
0.464605
0.461046
0.455736
0.447421
0.435704
0.420965
0.403678
0.384307
0.363253
0.340903
0.31756
0.293466
0.268258
0.242044
0.215152
0.187877
0.160664
0.133597
0.106474
0.0796679
0.0534005
0.0288857
0.0179513
0.0397782
0.0610094
0.083468
0.106671
0.129975
0.153106
0.175591
0.197062
0.218467
0.240954
0.263613
0.285594
0.307049
0.328022
0.348772
0.369123
0.38937
0.409072
0.428834
0.448023
0.467288
0.486063
0.504972
0.52329
0.54183
0.559781
0.578006
0.595624
0.613481
0.630856
0.64828
0.665383
0.682443
0.699149
0.715864
0.732103
0.748395
0.764187
0.779936
0.795282
0.81042
0.825207
0.839688
0.853774
0.867486
0.880689
0.893422
0.905465
0.916846
0.927264
0.936608
0.944536
0.950559
0.954293
0.955881
0.956866
0.957391
0.956497
0.961678
1.04623
1.02316
0.849786
0.581902
0.47397
0.356413
0.252898
0.166945
0.0995426
0.0314921
0.0554242
0.0944978
0.127488
0.155413
0.174862
0.179484
0.175241
0.170691
0.16843
0.165457
0.16014
0.150976
0.139171
0.12528
0.108998
0.091208
0.0722393
0.0531112
0.036743
0.0317141
0.0458773
0.062774
0.0826085
0.103138
0.124825
0.147139
0.16945
0.191639
0.213867
0.235814
0.257308
0.277936
0.297784
0.31765
0.337387
0.357379
0.37689
0.396254
0.414577
0.432919
0.451578
0.471048
0.48957
0.507946
0.525607
0.543341
0.560588
0.577903
0.594771
0.611655
0.62815
0.644676
0.660863
0.677087
0.693067
0.708972
0.724833
0.7404
0.756146
0.771415
0.786985
0.802018
0.817344
0.832151
0.847195
0.86173
0.876454
0.890688
0.905017
0.918933
0.932777
0.946294
0.959586
0.972583
0.985245
0.997587
1.00949
1.02092
1.03188
1.04199
1.05154
1.05979
1.067
1.07238
1.07553
1.07688
1.07782
1.07836
1.07736
1.08239
1.02233
1.02028
0.957202
0.861163
0.791905
0.718059
0.642064
0.574304
0.511697
0.452148
0.392152
0.344586
0.308571
0.280463
0.257399
0.238865
0.223075
0.20225
0.183441
0.179841
0.185484
0.193698
0.202832
0.214071
0.227377
0.242322
0.258622
0.275948
0.293819
0.312274
0.330359
0.347918
0.365451
0.383175
0.400876
0.41868
0.43637
0.453855
0.47122
0.488344
0.505213
0.52137
0.537282
0.552935
0.568786
0.584397
0.600147
0.615366
0.630239
0.644624
0.659803
0.675377
0.691002
0.705961
0.720818
0.735239
0.749688
0.763756
0.777848
0.791605
0.805445
0.818941
0.832611
0.845891
0.859438
0.872546
0.885975
0.898962
0.912254
0.925132
0.938296
0.951019
0.964059
0.976588
0.989434
1.00176
1.01431
1.02641
1.03862
1.05047
1.06233
1.07388
1.0853
1.09645
1.1074
1.11814
1.12865
1.13893
1.14879
1.15817
1.1669
1.17452
1.18122
1.1861
1.18891
1.19014
1.19109
1.19177
1.19065
1.19555
1.00667
1.03343
1.0257
0.997004
0.964507
0.930705
0.890798
0.846808
0.800077
0.753292
0.712237
0.677948
0.65131
0.62967
0.610717
0.5942
0.580064
0.569599
0.562412
0.55699
0.554935
0.554871
0.556575
0.560177
0.565507
0.572562
0.581048
0.590682
0.601162
0.612187
0.623211
0.63435
0.645272
0.65631
0.667165
0.678222
0.689106
0.700069
0.710783
0.721544
0.731969
0.742299
0.752414
0.762592
0.772789
0.783195
0.793677
0.804172
0.8142
0.824123
0.834317
0.845443
0.856739
0.867994
0.878967
0.890011
0.900984
0.912042
0.923144
0.934259
0.945522
0.956724
0.96814
0.979459
0.990994
1.00246
1.01407
1.02567
1.0373
1.04898
1.06061
1.07229
1.08388
1.09548
1.10699
1.11844
1.1298
1.14105
1.1522
1.16328
1.17425
1.18515
1.19586
1.20649
1.21686
1.22702
1.23681
1.24618
1.25495
1.26319
1.27048
1.27698
1.28217
1.28572
1.2871
1.28736
1.28712
1.28684
1.28397
1.28759
0.989505
1.03233
1.05074
1.0542
1.04768
1.03651
1.02038
0.999096
0.97417
0.948522
0.926135
0.908
0.893464
0.881529
0.870718
0.86068
0.85137
0.844246
0.839996
0.837868
0.837221
0.837394
0.838171
0.839542
0.84143
0.843929
0.846944
0.850364
0.854102
0.857954
0.86182
0.865572
0.869266
0.8729
0.876648
0.880547
0.884607
0.888834
0.893278
0.897876
0.902691
0.907586
0.912686
0.91792
0.923476
0.929383
0.935735
0.942377
0.948889
0.955361
0.96219
0.969922
0.978283
0.986734
0.99529
1.00379
1.01259
1.02127
1.03044
1.03941
1.04896
1.05826
1.06814
1.07779
1.08794
1.0979
1.10828
1.11852
1.12909
1.13955
1.15021
1.16083
1.1715
1.18218
1.19281
1.20347
1.21413
1.22483
1.23544
1.2461
1.25651
1.26702
1.27724
1.28742
1.2974
1.30704
1.31653
1.32545
1.33406
1.34193
1.34905
1.35532
1.3601
1.36342
1.3644
1.36455
1.36439
1.3636
1.36015
1.36314
0.972004
1.01617
1.04792
1.06736
1.07774
1.08245
1.08288
1.07868
1.07151
1.06317
1.05509
1.04869
1.04371
1.04001
1.03667
1.0334
1.03003
1.02676
1.02505
1.0247
1.02494
1.0246
1.02377
1.02317
1.02278
1.02256
1.02243
1.02234
1.0222
1.02194
1.02156
1.02097
1.02035
1.01959
1.01903
1.01856
1.01836
1.01861
1.01913
1.02007
1.02136
1.023
1.02506
1.02739
1.03029
1.03362
1.03762
1.04202
1.04658
1.05105
1.05599
1.0617
1.06839
1.07532
1.08266
1.08999
1.09772
1.10539
1.11352
1.1216
1.13017
1.13874
1.14769
1.15669
1.16593
1.17526
1.18473
1.19431
1.20399
1.21373
1.22358
1.23338
1.24332
1.25319
1.26323
1.27323
1.2832
1.29319
1.30302
1.31293
1.32261
1.33232
1.34183
1.35115
1.36034
1.3691
1.37768
1.38578
1.39331
1.40046
1.4065
1.41188
1.41579
1.41795
1.41833
1.41819
1.41767
1.41608
1.4113
1.4133
0.949942
0.994812
1.02963
1.05701
1.07784
1.09343
1.1048
1.11297
1.1182
1.12167
1.12422
1.12667
1.12936
1.13219
1.13486
1.13694
1.13829
1.13885
1.13902
1.13948
1.14054
1.1413
1.14134
1.14071
1.13979
1.13883
1.13754
1.13611
1.13435
1.13239
1.13013
1.12768
1.12497
1.12222
1.11949
1.11691
1.11458
1.1126
1.11099
1.10984
1.10911
1.10886
1.10902
1.10965
1.11081
1.11242
1.11475
1.11757
1.12066
1.12369
1.12719
1.13133
1.13653
1.14215
1.14835
1.15459
1.16125
1.16791
1.17504
1.18226
1.18994
1.19776
1.20593
1.21424
1.22281
1.23151
1.24042
1.24945
1.25868
1.26801
1.2775
1.28715
1.29692
1.3068
1.31662
1.32652
1.33637
1.34618
1.35605
1.36574
1.37545
1.385
1.39437
1.40366
1.41252
1.42128
1.42945
1.43731
1.4445
1.45096
1.45666
1.46105
1.46433
1.46536
1.46536
1.46503
1.4642
1.46204
1.45621
1.45733
0.927204
0.968907
1.00519
1.03592
1.06166
1.0834
1.10254
1.11849
1.13202
1.14348
1.15348
1.16253
1.1709
1.17878
1.18589
1.19225
1.19741
1.20161
1.20464
1.20679
1.20848
1.21047
1.21213
1.21275
1.21243
1.21148
1.21001
1.20823
1.20597
1.20341
1.20043
1.19715
1.19354
1.18981
1.18594
1.18213
1.17845
1.17505
1.17198
1.16936
1.16712
1.16546
1.16419
1.16352
1.16328
1.16371
1.16476
1.16644
1.16851
1.17059
1.17305
1.17613
1.18029
1.18507
1.19048
1.19611
1.20217
1.20835
1.21495
1.2217
1.22886
1.23616
1.24383
1.25166
1.25976
1.26809
1.27658
1.28533
1.29418
1.3033
1.31253
1.32191
1.3314
1.34091
1.35062
1.36026
1.37008
1.37981
1.38959
1.39936
1.40893
1.41858
1.42784
1.43712
1.44595
1.45459
1.46282
1.47049
1.47768
1.48387
1.48934
1.49326
1.49592
1.4965
1.49646
1.49608
1.49469
1.49172
1.48514
1.48463
0.906939
0.944074
0.979042
1.01074
1.0392
1.06465
1.08723
1.10765
1.12612
1.14283
1.15773
1.17139
1.18374
1.19528
1.20564
1.21517
1.22336
1.23054
1.23631
1.24093
1.24448
1.24756
1.25001
1.25226
1.2539
1.2544
1.25382
1.25249
1.25062
1.24822
1.24533
1.24208
1.23845
1.23457
1.23048
1.22633
1.22221
1.21824
1.21457
1.21125
1.20841
1.20603
1.20416
1.20281
1.20198
1.20176
1.20211
1.20322
1.20474
1.20629
1.20813
1.21055
1.21398
1.21816
1.22296
1.22813
1.23367
1.23953
1.24567
1.25219
1.25893
1.26608
1.27345
1.28119
1.28917
1.29743
1.30595
1.31462
1.32359
1.33259
1.34179
1.35095
1.36025
1.36957
1.37891
1.38836
1.39771
1.40722
1.41658
1.42599
1.43532
1.44447
1.45359
1.46229
1.47093
1.47898
1.48679
1.49385
1.50026
1.50575
1.51006
1.51314
1.51431
1.51443
1.51417
1.51327
1.51093
1.50669
1.50039
1.49947
0.888326
0.921403
0.953678
0.98463
1.01345
1.04049
1.06527
1.08841
1.10936
1.12873
1.14639
1.16276
1.17787
1.19191
1.20484
1.21672
1.2275
1.23714
1.24555
1.25265
1.25859
1.2636
1.26792
1.27157
1.2743
1.27629
1.2777
1.27827
1.27749
1.27589
1.27359
1.2709
1.26766
1.26418
1.26038
1.25648
1.25244
1.24852
1.24474
1.24131
1.23822
1.23561
1.2334
1.23175
1.23055
1.22997
1.22988
1.23058
1.2317
1.23291
1.23432
1.23636
1.23923
1.24304
1.24731
1.25217
1.25735
1.26298
1.26892
1.27518
1.2818
1.28865
1.29588
1.30333
1.31111
1.31913
1.32738
1.33592
1.3445
1.35334
1.36216
1.37126
1.38034
1.38962
1.39895
1.40834
1.41782
1.42722
1.43673
1.44603
1.45534
1.46442
1.47331
1.48197
1.49018
1.49816
1.50535
1.51211
1.51778
1.52261
1.52602
1.528
1.52847
1.52835
1.52789
1.5264
1.52297
1.51839
1.51246
1.51196
0.872731
0.902288
0.931775
0.960784
0.988697
1.01538
1.04064
1.06443
1.08675
1.10754
1.12693
1.14492
1.16168
1.17728
1.19194
1.20559
1.21834
1.23003
1.24067
1.25012
1.25836
1.26554
1.27177
1.27724
1.28188
1.28578
1.28853
1.29047
1.29167
1.29211
1.29129
1.28948
1.28713
1.28437
1.28122
1.27785
1.27425
1.2707
1.26717
1.26388
1.26083
1.25816
1.25585
1.25405
1.25265
1.25187
1.25152
1.252
1.25288
1.2539
1.25515
1.25691
1.25959
1.26298
1.26706
1.27156
1.27659
1.28199
1.28775
1.29389
1.30028
1.30704
1.31401
1.32135
1.32893
1.3368
1.34496
1.35325
1.36179
1.37036
1.37919
1.38799
1.39704
1.40605
1.41522
1.4244
1.4336
1.44288
1.45201
1.46125
1.47023
1.47919
1.48784
1.49622
1.50422
1.5117
1.51856
1.52455
1.52963
1.53343
1.53599
1.53684
1.53691
1.53675
1.53575
1.53308
1.52871
1.52471
1.51969
1.51974
0.860364
0.886825
0.913593
0.940317
0.96651
0.99197
1.01643
1.03986
1.06214
1.08327
1.10326
1.12216
1.14004
1.15696
1.17302
1.18821
1.20257
1.21604
1.22855
1.24009
1.25045
1.25976
1.26798
1.27533
1.28168
1.28724
1.29175
1.29545
1.29806
1.29983
1.3009
1.3013
1.30057
1.29894
1.29687
1.29428
1.29134
1.28833
1.28529
1.28238
1.27962
1.27715
1.27497
1.27324
1.27188
1.27111
1.27074
1.27116
1.27199
1.27297
1.2741
1.27583
1.27822
1.28147
1.28517
1.2895
1.29425
1.2995
1.30513
1.31111
1.31746
1.32403
1.33099
1.33811
1.34563
1.35333
1.36131
1.36944
1.37773
1.38621
1.39473
1.4035
1.41222
1.42117
1.43007
1.43911
1.44813
1.45713
1.46618
1.47499
1.48384
1.49231
1.50065
1.50851
1.51598
1.5228
1.52885
1.53397
1.53796
1.54069
1.54189
1.54211
1.542
1.54122
1.53872
1.53552
1.53098
1.52812
1.52399
1.5248
0.852026
0.875424
0.899321
0.923473
0.947494
0.971152
0.994266
1.01665
1.03832
1.05913
1.07917
1.09836
1.11682
1.13451
1.1515
1.16778
1.18334
1.19815
1.21212
1.22526
1.23739
1.24855
1.25864
1.26779
1.27598
1.28329
1.28968
1.29518
1.29969
1.3033
1.30587
1.30766
1.30873
1.30916
1.30874
1.30739
1.30552
1.30328
1.30091
1.29855
1.29628
1.29417
1.29233
1.29081
1.28969
1.28903
1.28883
1.28934
1.29025
1.29129
1.29256
1.29423
1.29667
1.2997
1.30331
1.30736
1.31191
1.31694
1.32233
1.32819
1.33428
1.34082
1.34751
1.35457
1.36184
1.36933
1.37705
1.38489
1.39303
1.40118
1.40961
1.41803
1.42666
1.4353
1.44405
1.45283
1.46161
1.47042
1.47906
1.48773
1.49603
1.50428
1.51198
1.51946
1.52621
1.53236
1.5375
1.54162
1.54448
1.54591
1.54628
1.54623
1.54552
1.54364
1.54002
1.53666
1.53307
1.53114
1.52833
1.52992
0.846851
0.867675
0.888971
0.910606
0.932332
0.953991
0.975427
0.996516
1.01718
1.03737
1.05703
1.07619
1.0948
1.11289
1.13043
1.14742
1.16382
1.1796
1.19468
1.20905
1.22261
1.2353
1.247
1.25781
1.26766
1.27666
1.28476
1.292
1.2983
1.30375
1.30829
1.31189
1.31466
1.31653
1.31786
1.31855
1.31851
1.31763
1.31637
1.31487
1.31324
1.31172
1.31033
1.30925
1.30842
1.30803
1.30802
1.30864
1.3096
1.31078
1.31201
1.31376
1.31603
1.31899
1.32238
1.32626
1.33062
1.33539
1.34069
1.34625
1.35228
1.35851
1.36513
1.37197
1.37904
1.38631
1.39371
1.40138
1.40911
1.41712
1.42514
1.43339
1.44165
1.45002
1.45843
1.46685
1.47529
1.48362
1.49192
1.49996
1.50788
1.51532
1.52252
1.52904
1.53504
1.54004
1.54415
1.54702
1.5486
1.54907
1.54906
1.5485
1.54648
1.54369
1.53991
1.53716
1.53482
1.53381
1.5322
1.53456
0.843838
0.862708
0.881943
0.901483
0.921197
0.940976
0.960775
0.980466
1.00006
1.01941
1.03857
1.05739
1.07595
1.09411
1.11191
1.12927
1.14618
1.16258
1.17842
1.19368
1.20829
1.22216
1.23519
1.24741
1.25877
1.26932
1.27906
1.28799
1.29616
1.30348
1.30996
1.3156
1.32039
1.32432
1.32745
1.32973
1.33141
1.33255
1.33296
1.33259
1.33179
1.33091
1.3299
1.32915
1.32848
1.32822
1.32826
1.32882
1.32983
1.3309
1.33218
1.33377
1.33596
1.33874
1.34196
1.3457
1.34981
1.35448
1.35949
1.36497
1.37073
1.37685
1.38326
1.38991
1.39683
1.40383
1.41115
1.4185
1.42617
1.43384
1.44175
1.44968
1.45771
1.46582
1.47387
1.48203
1.49
1.49804
1.50575
1.5134
1.52057
1.52748
1.53378
1.53952
1.5444
1.54832
1.55116
1.55266
1.55316
1.55313
1.55256
1.55077
1.54759
1.54421
1.54114
1.53928
1.53816
1.53793
1.53729
1.54036
0.841293
0.858941
0.876809
0.894874
0.913163
0.931574
0.950141
0.968736
0.987396
1.00598
1.02455
1.04293
1.06119
1.0792
1.09695
1.11442
1.13151
1.14827
1.16453
1.18041
1.1957
1.21051
1.22459
1.23805
1.25072
1.26273
1.27395
1.28451
1.29426
1.30335
1.31152
1.31909
1.32557
1.33146
1.33622
1.34028
1.34342
1.34601
1.34766
1.34901
1.34955
1.34953
1.34906
1.34853
1.34802
1.34775
1.34779
1.34832
1.34924
1.35044
1.35174
1.35332
1.35548
1.35813
1.36133
1.36489
1.36896
1.37342
1.37831
1.3836
1.38919
1.39517
1.40139
1.40797
1.41464
1.42161
1.42864
1.43593
1.4433
1.45084
1.45848
1.46618
1.474
1.48174
1.48964
1.49732
1.50513
1.51257
1.52002
1.52699
1.53368
1.53984
1.54541
1.55018
1.55395
1.55673
1.55815
1.55866
1.55857
1.55803
1.55596
1.55312
1.5493
1.54649
1.54429
1.5435
1.54326
1.54368
1.54381
1.54719
0.834636
0.852221
0.869734
0.887244
0.904832
0.922576
0.940462
0.958484
0.976616
0.99478
1.01297
1.0311
1.04915
1.06709
1.08481
1.10237
1.1196
1.13662
1.15322
1.16956
1.18538
1.20088
1.21575
1.23011
1.24381
1.2569
1.26935
1.28111
1.29227
1.30267
1.31243
1.32141
1.32966
1.33706
1.34366
1.34938
1.35419
1.3583
1.36169
1.36412
1.36586
1.3672
1.36799
1.36818
1.36813
1.36804
1.3682
1.36867
1.36958
1.37087
1.3721
1.37367
1.37553
1.37809
1.38101
1.38443
1.38826
1.3925
1.39719
1.40221
1.4077
1.41341
1.41954
1.42579
1.43235
1.43902
1.44589
1.45289
1.46
1.46727
1.47458
1.48204
1.48944
1.49698
1.50434
1.51181
1.51896
1.52611
1.53281
1.53926
1.54515
1.55056
1.55518
1.55885
1.56152
1.56292
1.56342
1.56336
1.56282
1.5607
1.55782
1.55389
1.55101
1.54874
1.54793
1.54791
1.5485
1.54944
1.55019
1.55385
0.825248
0.842946
0.860514
0.878111
0.895756
0.913521
0.931344
0.949272
0.967241
0.98527
1.00331
1.02132
1.03928
1.05711
1.07485
1.09235
1.1097
1.12677
1.14358
1.16011
1.17629
1.19219
1.20762
1.22266
1.23715
1.25117
1.26457
1.27746
1.2897
1.30137
1.31239
1.32276
1.33244
1.34141
1.34953
1.35688
1.36331
1.36887
1.37374
1.37779
1.38089
1.38317
1.38484
1.38611
1.38696
1.38734
1.38757
1.38791
1.38859
1.38956
1.39079
1.392
1.39367
1.39576
1.39848
1.40166
1.40527
1.40933
1.41374
1.41864
1.42385
1.42953
1.4354
1.44161
1.44798
1.45458
1.46131
1.46818
1.47518
1.48227
1.48947
1.4967
1.50398
1.5112
1.51839
1.52538
1.53226
1.53877
1.54499
1.55065
1.55583
1.56031
1.56382
1.56638
1.56771
1.56819
1.56815
1.56757
1.5653
1.56232
1.55831
1.55528
1.55288
1.55188
1.55189
1.55255
1.55357
1.55499
1.55623
1.55987
0.811554
0.82979
0.847732
0.865597
0.883438
0.901447
0.919568
0.937856
0.956206
0.974583
0.992902
1.01111
1.02917
1.04707
1.06477
1.08228
1.0996
1.11672
1.13365
1.15037
1.16691
1.18316
1.19914
1.21468
1.22983
1.24449
1.25872
1.27243
1.28571
1.29843
1.31065
1.32225
1.33325
1.34353
1.35314
1.3619
1.36982
1.37676
1.38291
1.38834
1.39297
1.39654
1.39938
1.40146
1.40299
1.40407
1.40488
1.40538
1.40587
1.40668
1.40766
1.40873
1.41
1.4117
1.4141
1.417
1.42042
1.4242
1.42847
1.4331
1.4382
1.44363
1.44938
1.45542
1.46167
1.46817
1.47476
1.48157
1.48835
1.49534
1.50228
1.50936
1.51633
1.52332
1.5301
1.53675
1.54309
1.54906
1.55457
1.55948
1.56383
1.56715
1.5696
1.57076
1.57121
1.57114
1.57053
1.56811
1.56496
1.56093
1.55775
1.55517
1.55397
1.55372
1.55443
1.55532
1.55685
1.55897
1.56093
1.56453
0.791013
0.809985
0.828914
0.847874
0.86675
0.885546
0.904253
0.922903
0.941531
0.960142
0.97873
0.997279
1.01572
1.03405
1.05219
1.07019
1.08794
1.10553
1.12286
1.13999
1.15685
1.17347
1.18983
1.20585
1.22154
1.23687
1.25183
1.26636
1.28043
1.29402
1.30705
1.31956
1.33144
1.34273
1.35335
1.36324
1.37243
1.38084
1.38838
1.39511
1.40111
1.40608
1.41005
1.41309
1.41547
1.41714
1.41836
1.41916
1.41988
1.42055
1.42133
1.42222
1.42326
1.4247
1.42669
1.4294
1.43253
1.4362
1.44024
1.44477
1.44968
1.45496
1.46059
1.46643
1.47264
1.47894
1.4856
1.4922
1.49909
1.50585
1.5128
1.51963
1.52651
1.53322
1.53976
1.54603
1.5519
1.55733
1.56209
1.56636
1.56958
1.57197
1.57304
1.57347
1.57338
1.57272
1.57016
1.56676
1.56268
1.55936
1.55666
1.55522
1.55469
1.55535
1.5563
1.55757
1.55971
1.56286
1.56543
1.56914
0.764455
0.784564
0.804554
0.824583
0.844651
0.864639
0.88448
0.904103
0.923546
0.942812
0.961942
0.980914
0.999755
1.01841
1.03691
1.05518
1.07327
1.09112
1.10877
1.1262
1.14344
1.16049
1.17735
1.19392
1.21016
1.22603
1.24154
1.25663
1.27134
1.2856
1.29943
1.31277
1.32559
1.33788
1.34951
1.36053
1.37077
1.38029
1.38883
1.39655
1.4034
1.4096
1.41477
1.41894
1.42229
1.42484
1.42677
1.42813
1.42919
1.43001
1.43081
1.43165
1.43268
1.43394
1.43566
1.43786
1.44067
1.44392
1.44773
1.45193
1.45665
1.46168
1.46714
1.47287
1.47893
1.48525
1.49177
1.49851
1.50524
1.51218
1.51897
1.52589
1.53255
1.53918
1.54542
1.55139
1.55681
1.56168
1.56596
1.56932
1.57181
1.57307
1.57363
1.57371
1.57301
1.57037
1.56665
1.56269
1.55932
1.55653
1.55496
1.55421
1.55482
1.55575
1.55691
1.55877
1.56158
1.56555
1.56846
1.5724
0.738489
0.759252
0.780204
0.80115
0.822019
0.842786
0.863397
0.883779
0.903827
0.923541
0.942953
0.962113
0.981044
0.999796
1.01834
1.03674
1.05494
1.07298
1.09084
1.10856
1.12611
1.14352
1.16073
1.17773
1.19441
1.21079
1.22682
1.24254
1.25786
1.27282
1.28732
1.30135
1.31488
1.32786
1.34026
1.35198
1.36309
1.37336
1.38297
1.39161
1.39948
1.40656
1.41298
1.41836
1.42286
1.42646
1.42934
1.43148
1.43315
1.43433
1.43537
1.43627
1.43723
1.43834
1.43978
1.44163
1.444
1.44691
1.45034
1.4543
1.45871
1.46357
1.46883
1.47444
1.48041
1.48666
1.49317
1.49982
1.5066
1.51341
1.52025
1.52697
1.5336
1.53994
1.54597
1.55153
1.55651
1.56085
1.56446
1.56697
1.56856
1.56931
1.56958
1.5688
1.56627
1.56246
1.55869
1.55523
1.55241
1.55072
1.5497
1.55024
1.55118
1.5523
1.55394
1.55652
1.56005
1.56438
1.56759
1.57156
0.720335
0.739154
0.758886
0.779214
0.799857
0.820522
0.84119
0.861845
0.88227
0.902395
0.922206
0.941702
0.960922
0.97989
0.998641
1.01717
1.03552
1.05368
1.07167
1.08951
1.10714
1.12463
1.14188
1.15902
1.1758
1.19232
1.20847
1.22434
1.23983
1.25499
1.26971
1.28407
1.29794
1.31137
1.32427
1.33665
1.34839
1.35957
1.37001
1.37979
1.38877
1.39699
1.40455
1.4113
1.41708
1.42189
1.42588
1.42901
1.43147
1.43334
1.43482
1.43599
1.43712
1.43828
1.43963
1.44132
1.44341
1.44605
1.44917
1.45286
1.457
1.46164
1.4667
1.47214
1.47799
1.48409
1.49053
1.49707
1.50381
1.5105
1.51724
1.52378
1.53022
1.53624
1.5419
1.54694
1.5513
1.55503
1.55764
1.55945
1.56059
1.56098
1.56014
1.55762
1.55386
1.55023
1.54663
1.54382
1.54188
1.54071
1.54101
1.54188
1.54297
1.54444
1.54671
1.55002
1.55411
1.5586
1.56196
1.56593
0.70123
0.719128
0.737983
0.757367
0.777045
0.796929
0.816877
0.836804
0.856806
0.87679
0.896635
0.916292
0.935714
0.954904
0.973849
0.992562
1.01103
1.02927
1.04728
1.06507
1.08267
1.10006
1.11731
1.13435
1.15127
1.16786
1.18424
1.2003
1.21613
1.23161
1.24681
1.26163
1.2761
1.29015
1.30379
1.31693
1.32962
1.34172
1.35331
1.36423
1.37448
1.38393
1.39263
1.40058
1.40756
1.41352
1.41857
1.42278
1.42624
1.42906
1.43134
1.43322
1.43485
1.43628
1.43778
1.43942
1.44135
1.44367
1.44642
1.44967
1.45338
1.45759
1.46217
1.4672
1.47254
1.47827