/*--------------------------------*- C++ -*----------------------------------*\
  =========                 |
  \\      /  F ield         | OpenFOAM: The Open Source CFD Toolbox
   \\    /   O peration     | Website:  https://openfoam.org
    \\  /    A nd           | Version:  6
     \\/     M anipulation  |
\*---------------------------------------------------------------------------*/
FoamFile
{
    version     2.0;
    format      ascii;
    class       surfaceScalarField;
    location    "8";
    object      phi;
}
// * * * * * * * * * * * * * * * * * * * * * * * * * * * * * * * * * * * * * //

dimensions      [1 0 -1 0 0 0 0];

internalField   nonuniform List<scalar> 
10325
(
0.00840002
3.58397e-10
0.00840002
2.23863e-09
0.00840001
6.80265e-09
0.00839998
1.80309e-08
0.00839992
4.07357e-08
0.00839978
9.57833e-08
0.00839951
2.02071e-07
0.00839873
4.90866e-07
0.00839743
1.00384e-06
0.00839333
2.8512e-06
0.00838481
6.84361e-06
0.00836161
2.26508e-05
0.00823787
0.000102687
0.00770827
0.000491789
0.00707387
0.000625785
0.00640849
0.00066094
0.00574842
0.000655393
0.00508174
0.000661724
0.00442792
0.000648782
0.00374856
0.000674507
0.00303051
0.000713503
0.00228636
0.000739893
0.00153246
0.000749877
0.000767761
0.000760886
0.00076406
0.00840002
7.51357e-10
0.00840002
4.70056e-09
0.00840001
1.42246e-08
0.00839998
3.78382e-08
0.00839992
8.52823e-08
0.00839976
2.02143e-07
0.00839946
4.25073e-07
0.00839862
1.05149e-06
0.00839719
2.12203e-06
0.00839258
6.22015e-06
0.00838262
1.50536e-05
0.00835404
5.10189e-05
0.00819968
0.00023507
0.00761752
0.0010393
0.00702648
0.00120804
0.00642481
0.00125675
0.00580446
0.00127044
0.0051571
0.00130388
0.00448348
0.00131725
0.00378094
0.00137214
0.00305187
0.00143793
0.00230291
0.00148458
0.00153942
0.00150937
0.000773077
0.0015233
0.00153338
0.00840002
1.17914e-09
0.00840002
7.37635e-09
0.0084
2.22962e-08
0.00839997
5.94016e-08
0.00839991
1.33899e-07
0.00839974
3.18601e-07
0.00839942
6.70193e-07
0.00839852
1.67088e-06
0.00839696
3.36167e-06
0.00839192
9.97376e-06
0.00838092
2.42422e-05
0.00834882
8.29258e-05
0.00818437
0.000376797
0.00759758
0.00159606
0.00700532
0.00178824
0.00642686
0.00182797
0.0058334
0.00185816
0.00520716
0.00192465
0.00453494
0.00198412
0.00382545
0.00207679
0.00308662
0.00217194
0.00232771
0.0022391
0.00155313
0.00227967
0.000771577
0.00230089
0.00230111
0.00840002
1.62877e-09
0.00840002
1.01885e-08
0.0084
3.07798e-08
0.00839997
8.20586e-08
0.00839991
1.85001e-07
0.00839973
4.40863e-07
0.0083994
9.27763e-07
0.00839846
2.31832e-06
0.00839683
4.66186e-06
0.00839163
1.38662e-05
0.00838026
3.37365e-05
0.00834697
0.0001159
0.00818673
0.000514241
0.00760442
0.0021475
0.00701382
0.00236628
0.00645131
0.00238305
0.00587849
0.00242501
0.00526747
0.00253008
0.00460626
0.00263939
0.00390157
0.00277615
0.00316076
0.00290784
0.00238777
0.00300764
0.00159488
0.00306809
0.000787853
0.00310384
0.00308492
0.00840002
2.08697e-09
0.00840002
1.30537e-08
0.0084
3.9427e-08
0.00839997
1.05135e-07
0.0083999
2.37057e-07
0.00839972
5.65144e-07
0.00839939
1.18965e-06
0.00839844
2.97195e-06
0.00839678
5.97861e-06
0.00839157
1.77449e-05
0.00838022
4.31543e-05
0.00834722
0.000148503
0.00819951
0.000639265
0.0076341
0.00268103
0.00704509
0.00294155
0.00649342
0.00292663
0.00593928
0.00297328
0.00535088
0.00311281
0.00470745
0.00327811
0.00400688
0.00347098
0.00327324
0.00363619
0.00249765
0.00377853
0.00167883
0.00388236
0.000842284
0.00393597
0.00392314
0.00840002
2.54306e-09
0.00840002
1.59047e-08
0.0084
4.80379e-08
0.00839997
1.28088e-07
0.0083999
2.88868e-07
0.00839973
6.88413e-07
0.00839939
1.44973e-06
0.00839845
3.61305e-06
0.00839679
7.28242e-06
0.0083917
2.14752e-05
0.00838073
5.21466e-05
0.00834918
0.000179385
0.00822097
0.000745346
0.0076829
0.00318436
0.00708988
0.00352137
0.00655496
0.00345244
0.00601828
0.00350289
0.00545159
0.00367232
0.00483093
0.00389297
0.00415781
0.0041392
0.0034256
0.00436269
0.00264664
0.00455187
0.00181221
0.00471198
0.000917653
0.0048257
0.00483589
0.00840002
2.9911e-09
0.00840002
1.87038e-08
0.0084
5.64888e-08
0.00839997
1.50604e-07
0.00839991
3.39695e-07
0.00839973
8.09136e-07
0.00839939
1.70458e-06
0.00839847
4.23601e-06
0.00839682
8.55932e-06
0.00839188
2.50233e-05
0.00838125
6.07368e-05
0.00835101
0.000208683
0.00824004
0.000834783
0.0077368
0.00364994
0.0071541
0.00409109
0.00663014
0.00396758
0.00612014
0.00400647
0.00558569
0.00420066
0.00499727
0.00447504
0.00435111
0.00477985
0.00364906
0.00505997
0.00287041
0.00532578
0.00200444
0.00557285
0.00104569
0.00577934
0.00587651
0.00840002
3.41933e-09
0.00840002
2.13809e-08
0.00840001
6.45902e-08
0.00839997
1.72144e-07
0.00839991
3.882e-07
0.00839973
9.24091e-07
0.00839941
1.94529e-06
0.00839849
4.846e-06
0.00839702
9.64524e-06
0.00839191
2.86866e-05
0.00838242
6.80923e-05
0.00835257
0.000237361
0.00826005
0.000906215
0.00779588
0.00407396
0.0072314
0.00464093
0.00671633
0.0044739
0.00623794
0.00447901
0.00575063
0.00468218
0.00521434
0.00500526
0.00461334
0.00537442
0.00394098
0.00572623
0.00319601
0.00606505
0.00232622
0.00643734
0.00126654
0.00683432
0.00713823
0.00840002
3.84005e-09
0.00840002
2.40498e-08
0.00840001
7.2621e-08
0.00839997
1.93838e-07
0.00839991
4.36467e-07
0.00839973
1.04248e-06
0.0083994
2.19164e-06
0.00839855
5.36287e-06
0.00839625
1.15381e-05
0.00839369
2.97447e-05
0.00837632
8.3136e-05
0.00838318
0.00023011
0.00828349
0.00098465
0.00786703
0.00445031
0.0073102
0.00518024
0.00683362
0.00494188
0.00640126
0.00490495
0.00596135
0.005116
0.00548569
0.00547456
0.00495126
0.00590319
0.00437524
0.00629724
0.00370291
0.00673345
0.00285892
0.00727644
0.00173625
0.00795121
0.00886939
0.00840002
4.30129e-09
0.00840002
2.69368e-08
0.0084
8.13355e-08
0.00839997
2.17067e-07
0.0083999
4.88706e-07
0.00839971
1.16666e-06
0.00839935
2.45269e-06
0.00839843
5.94987e-06
0.00839636
1.30898e-05
0.00839242
3.21901e-05
0.00838
9.28794e-05
0.00836307
0.000242105
0.00830078
0.00102575
0.00793078
0.00478114
0.00734199
0.00574277
0.00697748
0.00529709
0.00661675
0.00526173
0.00624555
0.00548342
0.00583586
0.0058785
0.00541031
0.00632073
0.00495885
0.00674076
0.0044255
0.00725947
0.0037439
0.00795312
0.00278087
0.00890936
0.0116453
0.00840002
4.80747e-09
0.00840002
3.00554e-08
0.0084
9.08951e-08
0.00839997
2.41873e-07
0.00839989
5.45676e-07
0.0083997
1.29277e-06
0.00839932
2.72521e-06
0.00839832
6.59416e-06
0.00839695
1.38422e-05
0.00839071
3.68779e-05
0.00838819
9.20489e-05
0.00833967
0.000286527
0.00832214
0.00102124
0.0080321
0.00502671
0.0075669
0.00618154
0.00718064
0.00567399
0.00688248
0.00555426
0.00655511
0.00580535
0.00625265
0.00617702
0.00599448
0.00657511
0.00569785
0.00703326
0.00539632
0.00755601
0.00523005
0.00811394
0.00557089
0.00856377
0.00821468
0.00899795
0.00840002
5.39636e-09
0.00840002
3.37213e-08
0.0084
1.02021e-07
0.00839996
2.71242e-07
0.00839987
6.12143e-07
0.00839964
1.44668e-06
0.00839921
3.04949e-06
0.00839807
7.35323e-06
0.00839617
1.52317e-05
0.00839021
4.10494e-05
0.00838206
9.76653e-05
0.00834585
0.000316155
0.00830452
0.00104429
0.00804669
0.00523517
0.00768979
0.0065168
0.00737837
0.00598108
0.00713749
0.00579003
0.00693469
0.00600078
0.00677405
0.00633096
0.00660903
0.00673461
0.00648206
0.00715563
0.00647503
0.00755798
0.0067293
0.00785418
0.00737877
0.00790877
0.00729241
0.00829764
0.00840002
6.09636e-09
0.00840002
3.80952e-08
0.0084
1.1513e-07
0.00839995
3.06492e-07
0.00839984
6.91818e-07
0.00839957
1.63935e-06
0.00839904
3.45796e-06
0.00839764
8.32777e-06
0.00839476
1.74992e-05
0.00838813
4.56924e-05
0.00837064
0.000112088
0.00833507
0.000345097
0.00823541
0.00112194
0.00781643
0.00560156
0.00791303
0.00640434
0.00755924
0.00633085
0.00733376
0.00601388
0.00721739
0.00611215
0.0071442
0.00639801
0.00711428
0.00675713
0.00714855
0.00711449
0.00737223
0.00733089
0.00774744
0.00747385
0.00827299
0.00737781
0.00680709
0.00875293
0.00840002
6.77324e-09
0.00840002
4.22931e-08
0.0084
1.27669e-07
0.00839995
3.40152e-07
0.00839985
7.68265e-07
0.00839957
1.82403e-06
0.00839904
3.84888e-06
0.0083975
9.38922e-06
0.00839545
1.88491e-05
0.00838685
5.20198e-05
0.00837263
0.000122708
0.00833133
0.000379048
0.0082679
0.00116451
0.00800317
0.00580445
0.00782222
0.00657854
0.00767369
0.00647119
0.00757431
0.00611276
0.00751061
0.00617435
0.0074834
0.00642169
0.00755053
0.00668522
0.00773536
0.00692281
0.00802196
0.0070392
0.00842148
0.00707067
0.00887075
0.00692435
0.00650927
0.0091633
0.00840002
7.20459e-09
0.00840002
4.50043e-08
0.00840001
1.35582e-07
0.00839996
3.62321e-07
0.00839988
8.19922e-07
0.00839964
1.95553e-06
0.00839918
4.14892e-06
0.00839802
1.00007e-05
0.00839492
2.11466e-05
0.00839099
5.34328e-05
0.00837437
0.000133724
0.00835771
0.00039144
0.00833992
0.00115421
0.00828103
0.00579326
0.0080732
0.00678572
0.00797763
0.00656497
0.00786477
0.00622314
0.00783424
0.00620213
0.00787382
0.00637979
0.00799539
0.00656109
0.00820569
0.00670963
0.00849625
0.00674292
0.0088611
0.00670161
0.00929116
0.00649061
0.0061931
0.00960257
0.00840003
7.00525e-09
0.00840002
4.37031e-08
0.00840002
1.31717e-07
0.00840001
3.51357e-07
0.00840001
7.93801e-07
0.00839997
1.88996e-06
0.00840001
3.97254e-06
0.00839964
9.81271e-06
0.00840146
1.87074e-05
0.00839473
5.73077e-05
0.00841487
0.000110421
0.00837197
0.000424971
0.00842245
0.00108449
0.00886987
0.00526329
0.0086013
0.00706356
0.00835807
0.00681476
0.00819665
0.00638368
0.00816673
0.00622571
0.00823084
0.00631007
0.00837378
0.00641314
0.00859109
0.00648985
0.00887134
0.00645946
0.00920133
0.0063679
0.00955933
0.00612926
0.00585252
0.00989617
0.00840003
6.26661e-09
0.00840003
3.9201e-08
0.00840004
1.18359e-07
0.00840005
3.15789e-07
0.00840011
7.13776e-07
0.00840019
1.69581e-06
0.00840047
3.57125e-06
0.00840112
8.60418e-06
0.00840167
1.75597e-05
0.00840838
4.76995e-05
0.00841948
9.60723e-05
0.0084977
0.00033628
0.00872257
0.000842764
0.0102619
0.00362438
0.00959198
0.00774441
0.00893312
0.00748376
0.00868162
0.00664323
0.00857575
0.00633316
0.00860395
0.00627912
0.00872587
0.00628735
0.00892621
0.00628544
0.00918058
0.00620147
0.0094917
0.00605355
0.00977677
0.00584143
0.00554703
0.0100802
0.00840003
5.40096e-09
0.00840003
3.37814e-08
0.00840004
1.02278e-07
0.00840007
2.71926e-07
0.00840014
6.1619e-07
0.00840031
1.44793e-06
0.00840068
3.08105e-06
0.00840168
7.17701e-06
0.00840351
1.5116e-05
0.00841297
3.61628e-05
0.00842157
8.45524e-05
0.00852433
0.00022507
0.00876951
0.000595094
0.0101176
0.00222518
0.00994798
0.00787759
0.00986654
0.0075511
0.00921167
0.00729709
0.00902401
0.0065212
0.00899635
0.00630675
0.0090721
0.00621138
0.00923055
0.00612505
0.0094495
0.00598139
0.00971756
0.00578372
0.00998402
0.0055739
0.00528483
0.010246
0.00840003
4.7008e-09
0.00840003
2.93904e-08
0.00840004
8.89668e-08
0.00840006
2.36464e-07
0.00840012
5.35407e-07
0.00840024
1.25814e-06
0.00840055
2.67032e-06
0.00840114
6.23095e-06
0.00840268
1.30425e-05
0.00840544
3.15732e-05
0.00841641
7.11696e-05
0.00844736
0.000185836
0.00850181
0.000539981
0.0088646
0.00182468
0.00971853
0.00694262
0.00963392
0.00760592
0.00953192
0.00738347
0.00935836
0.00669516
0.00932411
0.00634058
0.00938555
0.00614801
0.00951713
0.00599305
0.00971632
0.00578194
0.00991754
0.00558219
0.0101567
0.00533591
0.00504797
0.0103965
0.00840003
4.13538e-09
0.00840003
2.58414e-08
0.00840004
7.80745e-08
0.00840005
2.07865e-07
0.0084001
4.70439e-07
0.00840019
1.11026e-06
0.00840042
2.35003e-06
0.00840081
5.53532e-06
0.00840197
1.14386e-05
0.00840299
2.89586e-05
0.008413
5.91694e-05
0.00841507
0.000176965
0.00850433
0.000441707
0.00871092
0.00159683
0.00946477
0.00609706
0.00947431
0.00758187
0.00950034
0.00734831
0.00948707
0.00670869
0.00951675
0.00631016
0.00961007
0.00605602
0.00976208
0.00584128
0.00992436
0.00562134
0.010109
0.00539966
0.0103195
0.00512753
0.0048387
0.0105318
0.00840003
3.50696e-09
0.00840003
2.19255e-08
0.00840004
6.62031e-08
0.00840006
1.76458e-07
0.00840012
3.99113e-07
0.00840023
9.44599e-07
0.00840051
1.99301e-06
0.00840103
4.73058e-06
0.00840242
9.66279e-06
0.00840459
2.52537e-05
0.00841409
4.78001e-05
0.00842914
0.000155095
0.00850399
0.000358117
0.00871734
0.0013528
0.0102763
0.00444362
0.00987089
0.00797489
0.00993598
0.00728073
0.00970127
0.00694979
0.00972223
0.00629093
0.009819
0.00596031
0.00995819
0.00570353
0.0101053
0.0054776
0.0102944
0.00521601
0.0104893
0.00493796
0.00465119
0.0106816
0.00840003
2.79713e-09
0.00840003
1.74877e-08
0.00840004
5.29905e-08
0.00840007
1.40667e-07
0.00840014
3.18504e-07
0.0084003
7.46098e-07
0.00840065
1.57986e-06
0.0084015
3.66427e-06
0.00840331
7.57478e-06
0.00840885
1.83857e-05
0.00841961
3.79192e-05
0.00846944
9.78543e-05
0.00857669
0.000254094
0.00920523
0.00069976
0.0113011
0.00230753
0.0109
0.00830605
0.0105068
0.00766068
0.0102927
0.00715998
0.0101236
0.00646627
0.0101271
0.00596445
0.0102122
0.00562385
0.0103533
0.00534175
0.0105134
0.00506117
0.0106807
0.0047753
0.00448755
0.0108487
0.00840003
2.23678e-09
0.00840003
1.39928e-08
0.00840004
4.23683e-08
0.00840006
1.12593e-07
0.00840011
2.55194e-07
0.00840023
5.98114e-07
0.00840048
1.27281e-06
0.00840102
2.93302e-06
0.00840221
6.14801e-06
0.00840527
1.43347e-05
0.00841096
3.10093e-05
0.00842886
7.53229e-05
0.00849861
0.000178579
0.00861855
0.000562666
0.00926492
0.00161826
0.0106882
0.00677175
0.0106128
0.00772181
0.0105226
0.00724558
0.0104455
0.0065499
0.0104614
0.00595562
0.0105381
0.00555523
0.0106505
0.00523479
0.0107789
0.00493691
0.0109152
0.00464264
0.00435207
0.0110533
0.00840003
1.75126e-09
0.00840003
1.08757e-08
0.00840004
3.33429e-08
0.00840006
8.71943e-08
0.00840011
1.99852e-07
0.00840022
4.59882e-07
0.00840046
9.86186e-07
0.00840102
2.23774e-06
0.00840228
4.66324e-06
0.00840443
1.13765e-05
0.00841393
2.08917e-05
0.00841729
6.74715e-05
0.00847145
0.000121684
0.00853072
0.000489767
0.00891183
0.00121649
0.0104641
0.00509447
0.0105092
0.00765531
0.0106825
0.00707428
0.0106685
0.00656872
0.010701
0.00593387
0.010796
0.00547122
0.0109171
0.00512301
0.0110435
0.00481768
0.0111675
0.00452289
0.00423343
0.0112876
0.00840003
1.00486e-09
0.00840003
9.7472e-09
0.00840004
2.1875e-08
0.00840005
7.61857e-08
0.00840011
1.30735e-07
0.00840014
4.08137e-07
0.00840046
6.26676e-07
0.00840053
2.05336e-06
0.00840224
2.796e-06
0.00840246
1.05414e-05
0.00841081
1.1734e-05
0.00841489
6.02917e-05
0.00848232
5.0789e-05
0.0085911
0.000370479
0.00918899
0.00059864
0.0118062
0.0024192
0.0111832
0.00821882
0.0110581
0.00719119
0.0109974
0.0066265
0.0110081
0.00592999
0.0110904
0.00539933
0.0112027
0.00502099
0.011321
0.00470692
0.0114355
0.00441321
0.0041273
0.0115439
0.00840003
1.0434e-09
0.00840003
5.73744e-09
0.00840003
1.94188e-08
0.00840006
4.6771e-08
0.00840006
1.17064e-07
0.00840021
2.4643e-07
0.0084002
5.85498e-07
0.008401
1.1877e-06
0.00840071
2.82929e-06
0.00840527
5.66861e-06
0.00840193
1.38199e-05
0.00843244
2.792e-05
0.00840456
7.3146e-05
0.00860216
0.000164011
0.00864344
0.000536031
0.00948382
0.00152785
0.0109001
0.00669893
0.0110171
0.00705014
0.0110929
0.00653561
0.011178
0.00584786
0.0112949
0.00528961
0.0114288
0.00489496
0.0115594
0.00458187
0.0116801
0.00429647
0.00402005
0.0117897
0.00840003
7.68129e-10
0.00840003
4.29554e-09
0.00840003
1.40798e-08
0.00840004
3.48922e-08
0.00840007
8.43503e-08
0.00840012
1.82194e-07
0.00840024
4.17281e-07
0.0084005
8.59427e-07
0.00840105
2.00706e-06
0.00840245
3.96547e-06
0.00840447
1.04192e-05
0.00841287
1.75816e-05
0.00841841
6.20636e-05
0.00845672
0.000114292
0.00852194
0.000450381
0.00882713
0.00116439
0.0101854
0.00517606
0.010633
0.00658958
0.0109104
0.00624553
0.0111044
0.00565175
0.011297
0.0050964
0.0114782
0.00471254
0.0116456
0.00441247
0.0117966
0.00414382
0.0038846
0.0119304
0.00840003
6.10125e-10
0.00840003
3.42636e-09
0.00840003
1.10632e-08
0.00840004
2.7844e-08
0.00840005
6.64886e-08
0.00840007
1.46895e-07
0.00840011
3.30443e-07
0.00840021
7.07773e-07
0.00840041
1.58111e-06
0.00840074
3.36007e-06
0.00840231
7.68603e-06
0.0084023
1.62226e-05
0.00841563
4.18148e-05
0.00843749
8.78365e-05
0.0085702
0.000295057
0.0089406
0.000755767
0.0107726
0.00312912
0.0107598
0.00663708
0.0110179
0.00602913
0.011177
0.00552988
0.0113425
0.0049538
0.0115308
0.00452975
0.0117147
0.00422667
0.0118822
0.00397301
0.0037334
0.0120304
0.00840003
6.37979e-10
0.00840003
2.2222e-09
0.00840003
1.05678e-08
0.00840004
1.87798e-08
0.00840003
6.41256e-08
0.00840007
9.78668e-08
0.00840004
3.32743e-07
0.00840024
4.53247e-07
0.00839994
1.70538e-06
0.00840115
1.92653e-06
0.00839872
9.19826e-06
0.00840754
6.27049e-06
0.00839022
5.46485e-05
0.00846142
1.10062e-05
0.00842122
0.000317594
0.00889091
0.000282182
0.0101068
0.00180206
0.0105445
0.00614086
0.0108475
0.00571803
0.0110421
0.00533281
0.0112456
0.00474869
0.0114623
0.0043081
0.0116698
0.00401356
0.0118606
0.00377874
0.0035591
0.0120334
0.00840003
2.06299e-10
0.00840003
2.4531e-09
0.00840004
4.76732e-09
0.00840003
1.91796e-08
0.00840006
2.86231e-08
0.00840004
1.04327e-07
0.00840022
1.35291e-07
0.00840007
5.39026e-07
0.00840112
5.64346e-07
0.00839974
2.93552e-06
0.00840695
1.4691e-06
0.00839305
1.84089e-05
0.00844951
-4.15013e-06
0.00833686
0.000115585
0.00866817
-2.24567e-05
0.00829263
0.000631854
0.00902766
0.000995241
0.00986983
0.00514693
0.01018
0.00537629
0.0105611
0.00493605
0.0109329
0.00437195
0.0112447
0.00398821
0.0115026
0.00374204
0.0117209
0.00354383
0.00335168
0.0119132
0.00840003
2.0029e-10
0.00840003
1.11608e-09
0.00840003
3.8343e-09
0.00840004
9.11998e-09
0.00840004
2.2791e-08
0.00840009
4.63194e-08
0.00840009
1.10802e-07
0.00840039
2.08083e-07
0.00840028
5.38843e-07
0.00840218
8.61849e-07
0.00839981
3.09381e-06
0.00841386
3.40482e-06
0.00838629
1.99278e-05
0.00846897
2.6566e-05
0.00830494
0.000130329
0.00862615
0.000287179
0.00840656
0.00116979
0.0088582
0.00453319
0.00941405
0.00481984
0.00997414
0.00438035
0.0104572
0.00388728
0.0108486
0.0035836
0.0111736
0.00339839
0.0114493
0.00324675
0.00309243
0.0116873
0.00840003
1.71462e-10
0.00840003
9.51384e-10
0.00840003
3.13773e-09
0.00840003
7.76047e-09
0.00840003
1.9022e-08
0.00840003
4.12107e-08
0.00840003
9.62513e-08
0.00840001
2.01053e-07
0.00839997
4.7539e-07
0.00839973
9.77187e-07
0.00839981
2.45718e-06
0.008398
4.68951e-06
0.00839986
1.48747e-05
0.00839803
2.59415e-05
0.00840821
0.000107442
0.00843997
0.000238089
0.00851681
0.00105116
0.00914863
0.00369622
0.0094573
0.00454732
0.00993756
0.00392962
0.0102935
0.00353836
0.0106111
0.00325479
0.010905
0.00308707
0.0111802
0.00295782
0.00282777
0.011435
0.00840003
1.49121e-10
0.00840003
8.33854e-10
0.00840003
2.73462e-09
0.00840003
6.78888e-09
0.00840003
1.63739e-08
0.00840003
3.55148e-08
0.00840004
8.04057e-08
0.00840005
1.67556e-07
0.00840006
3.78026e-07
0.00840015
7.71691e-07
0.0084001
1.83589e-06
0.00840084
3.49921e-06
0.00840308
1.00965e-05
0.00840258
1.77203e-05
0.00844557
6.11033e-05
0.00849765
0.000144634
0.00909934
0.000470168
0.0109495
0.00160814
0.0108549
0.00461025
0.0105753
0.00418047
0.0105973
0.00351554
0.0107262
0.00312377
0.0109105
0.0028974
0.0111127
0.00274575
0.00261497
0.0113136
0.00840003
1.51864e-10
0.00840003
8.5575e-10
0.00840003
2.73188e-09
0.00840003
6.94018e-09
0.00840003
1.63823e-08
0.00840002
3.66886e-08
0.00840001
8.10006e-08
0.00839998
1.76919e-07
0.00839991
3.8041e-07
0.00839977
8.31341e-07
0.00839954
1.72854e-06
0.00839865
3.9177e-06
0.00839937
7.62797e-06
0.00839662
1.86954e-05
0.00841647
3.41165e-05
0.00842913
0.00011332
0.00865947
0.000221454
0.00917368
0.000968567
0.0100712
0.0035786
0.0103471
0.00383013
0.0104127
0.00344504
0.0105363
0.00300056
0.0107145
0.00271699
0.0109096
0.00254866
0.00242418
0.011102
0.00840003
2.13459e-10
0.00840003
6.59171e-10
0.00840003
3.43028e-09
0.00840003
5.57969e-09
0.00840002
2.11056e-08
0.00840003
2.94318e-08
0.00839998
1.13628e-07
0.0084
1.35463e-07
0.00839969
6.10698e-07
0.00839995
4.85158e-07
0.00839782
3.46648e-06
0.00840085
4.46769e-07
0.00838758
1.89926e-05
0.00841597
-1.20985e-05
0.00833988
0.000101861
0.00852992
-8.92502e-05
0.0082972
0.000422616
0.0088095
0.000363227
0.00923584
0.00298297
0.00967647
0.00330695
0.00990549
0.00321071
0.0101424
0.00278534
0.0103781
0.00250077
0.0106033
0.00234065
0.0022334
0.0108115
0.00840003
3.54307e-11
0.00840003
7.26379e-10
0.00840003
1.09209e-09
0.00840003
5.61732e-09
0.00840004
5.94758e-09
0.00840004
2.93444e-08
0.00840012
2.00317e-08
0.00840006
1.45851e-07
0.0084006
1.96282e-08
0.00840002
8.26961e-07
0.00840371
-5.96468e-07
0.00839724
5.82977e-06
0.00842118
-6.59147e-06
0.00836352
4.03706e-05
0.00850622
-4.67501e-05
0.00816034
0.00023901
0.00864508
-6.86345e-05
0.00806608
0.000861654
0.00827774
0.00257517
0.00872697
0.00283602
0.00920877
0.00272833
0.00956751
0.00245586
0.0098786
0.00222412
0.0101409
0.00210772
0.00203033
0.0103695
0.00840003
9.95125e-11
0.00840003
5.43219e-10
0.00840003
1.80236e-09
0.00840003
4.39251e-09
0.00840002
1.08977e-08
0.00840002
2.34828e-08
0.00839997
5.49478e-08
0.00839997
1.15281e-07
0.00839962
2.60398e-07
0.00839978
5.65074e-07
0.00839751
1.1524e-06
0.00839988
2.67083e-06
0.00838576
5.11866e-06
0.00841192
1.09915e-05
0.0083262
2.79207e-05
0.00849566
5.84428e-05
0.00820915
0.000183096
0.00845309
0.000530157
0.00824095
0.00258125
0.00839217
0.00268567
0.00873053
0.00241791
0.00914955
0.00208673
0.00948375
0.00193402
0.00974338
0.00188294
0.0018338
0.00997006
0.00840003
1.27347e-10
0.00840003
3.80443e-10
0.00840003
2.06623e-09
0.00840003
3.30713e-09
0.00840002
1.32275e-08
0.00840002
1.79472e-08
0.00839998
7.58467e-08
0.00839999
7.6873e-08
0.00839968
4.55693e-07
0.00839994
1.94517e-07
0.00839786
2.67745e-06
0.0084004
-7.8359e-07
0.00838685
1.59668e-05
0.00840893
-1.47586e-05
0.00833164
9.29941e-05
0.00847798
-9.97445e-05
0.00818249
0.000441389
0.00835338
0.000265299
0.00794424
0.00275157
0.00801616
0.00266801
0.00842176
0.00208489
0.0088529
0.00172934
0.00917329
0.00166342
0.0094431
0.00164689
0.00162806
0.00967667
0.00840003
1.9913e-11
0.00840003
4.2778e-10
0.00840003
5.91654e-10
0.00840003
3.40628e-09
0.00840004
3.49149e-09
0.00840003
2.03178e-08
0.00840008
1.22993e-08
0.00839999
1.34087e-07
0.00840043
-2.60895e-08
0.00839951
8.96085e-07
0.00840254
-5.40394e-07
0.0083947
5.76223e-06
0.00841499
-5.2915e-06
0.0083568
3.76084e-05
0.00848272
-4.20048e-05
0.008129
0.000231815
0.00862888
-9.66187e-05
0.00790086
0.000914014
0.0075866
0.00274942
0.00790313
0.00247854
0.00843618
0.00167632
0.00884328
0.00140684
0.00916357
0.00139089
0.00942266
0.00141969
0.00142707
0.00965084
0.00840003
4.90511e-11
0.00840003
1.54436e-11
0.00840003
7.34218e-10
0.00840003
2.57652e-10
0.00840003
4.73301e-09
0.00840005
2.75269e-10
0.00840002
3.0657e-08
0.00840017
-2.26342e-08
0.00839987
2.426e-07
0.00840097
-2.84516e-07
0.00839851
1.68652e-06
0.00840605
-2.28789e-06
0.00838698
1.15722e-05
0.00843923
-1.74855e-05
0.00830629
7.82161e-05
0.00861398
-9.81332e-05
0.00801413
0.000466223
0.00844748
0.000373599
0.00774805
0.00307173
0.00807822
0.00239491
0.00863851
0.00132053
0.00900774
0.00113005
0.00926782
0.0011677
0.00949901
0.00120862
0.00122932
0.00971296
0.00840003
-2.56652e-11
0.00840003
1.10786e-10
0.00840003
-3.01542e-10
0.00840003
7.89191e-10
0.00840004
-1.95603e-09
0.00840003
5.47066e-09
0.00840007
-1.35827e-08
0.00839999
4.65306e-08
0.00840035
-1.30255e-07
0.00839955
4.51318e-07
0.00840209
-1.02777e-06
0.00839548
3.48619e-06
0.00841308
-6.86986e-06
0.00836197
2.6125e-05
0.00847672
-4.26935e-05
0.00818137
0.000167973
0.00867919
-8.26561e-05
0.00823199
0.000716545
0.00868187
0.00210801
0.00923351
0.00216799
0.00940381
0.00138178
0.00939436
0.00121484
0.00949141
0.00110406
0.00964116
0.00108388
0.0010869
0.0097999
0.00840003
2.8983e-12
0.00840003
-2.44182e-10
0.00840003
-1.02226e-10
0.00840003
-1.79433e-09
0.00840003
-3.57297e-10
0.00840005
-1.01504e-08
0.00840003
2.63612e-09
0.00840013
-6.01663e-08
0.00839991
7.50928e-08
0.00840078
-4.42954e-07
0.0083987
9.36264e-07
0.00840496
-2.95749e-06
0.00838951
7.70975e-06
0.00843295
-1.84978e-05
0.00832403
5.89076e-05
0.00858633
-0.000103429
0.00817623
0.000281028
0.00869094
4.98088e-05
0.00913273
0.00127012
0.00937466
0.00216231
0.00921654
0.00168418
0.00927357
0.00120485
0.00938736
0.00103062
0.00953024
0.000972229
0.000949022
0.00968454
0.00840003
-6.90734e-11
0.00840003
-1.20421e-10
0.00840003
-1.04993e-09
0.00840003
-1.15335e-09
0.00840004
-6.65187e-09
0.00840003
-6.35273e-09
0.00840007
-3.80296e-08
0.00840003
-2.6954e-08
0.00840032
-2.22927e-07
0.00839986
-2.6353e-08
0.0084021
-1.3483e-06
0.0083978
1.07586e-06
0.00841309
-7.88184e-06
0.00837793
1.48073e-05
0.00848288
-4.80982e-05
0.0082491
0.000120738
0.00866046
-0.000152591
0.00837687
0.00029124
0.00922068
0.000280733
0.00957138
0.00174286
0.00944194
0.00180213
0.00936298
0.00133253
0.00942087
0.00101929
0.00954642
0.0008776
0.000821234
0.00968804
0.00840003
-3.39137e-11
0.00840003
-1.88713e-10
0.00840003
-5.82398e-10
0.00840003
-1.51955e-09
0.00840003
-3.58432e-09
0.00840003
-8.43364e-09
0.00840001
-1.88385e-08
0.00840003
-4.41779e-08
0.0083999
-9.43649e-08
0.0084001
-2.28572e-07
0.00839914
-4.06719e-07
0.00840156
-1.29102e-06
0.00839409
-8.1321e-07
0.00841603
-6.65148e-06
0.00836008
4.37516e-06
0.00849509
-1.43727e-05
0.00828121
4.61426e-05
0.00851334
3.95155e-05
0.00831188
0.000378731
0.00862244
0.00127707
0.00888763
0.00148193
0.00907486
0.00117498
0.00921832
0.000904579
0.00936102
0.000750276
0.000678465
0.00951004
0.00840003
-8.42978e-12
0.00840003
-5.07801e-11
0.00840003
-1.61815e-10
0.00840003
-4.06184e-10
0.00840003
-8.86302e-10
0.00840002
-1.87107e-09
0.0084
-3.56093e-09
0.00839997
-7.09716e-09
0.00839988
-1.17323e-08
0.00839967
-2.22218e-08
0.00839925
-2.51117e-08
0.00839797
-3.49917e-08
0.00839683
3.00352e-08
0.00838949
3.81756e-07
0.00839028
1.16699e-06
0.0083693
5.38927e-06
0.00838587
1.89785e-05
0.00835677
5.80705e-05
0.00837535
0.000283997
0.00848079
0.00104877
0.00869457
0.00121098
0.0089097
0.000966039
0.00908252
0.000741793
0.00923017
0.000605118
0.000535862
0.00936856
0.00840003
7.44425e-12
0.00840003
3.96467e-11
0.00840003
1.37229e-10
0.00840003
3.51844e-10
0.00840003
9.52653e-10
0.00840002
2.25728e-09
0.00840001
5.79289e-09
0.00839999
1.33654e-08
0.00839995
3.31037e-08
0.00839985
7.4091e-08
0.00839961
1.78822e-07
0.00839917
3.76359e-07
0.00839799
9.47114e-07
0.00839642
1.69935e-06
0.00839091
4.71141e-06
0.00838724
7.75778e-06
0.00837278
2.4668e-05
0.0083746
5.15181e-05
0.00836376
0.000232011
0.00844363
0.000865676
0.00862617
0.000973643
0.00883529
0.000754376
0.00902065
0.000558438
0.00916655
0.000448626
0.00039692
0.00928603
0.00840003
2.50795e-11
0.00840003
1.33589e-10
0.00840003
4.17623e-10
0.00840003
1.11694e-09
0.00840003
2.82347e-09
0.00840002
6.96889e-09
0.00840001
1.69892e-08
0.00839999
4.19234e-08
0.00839992
9.67777e-08
0.00839975
2.47233e-07
0.00839944
4.60162e-07
0.00839821
1.58565e-06
0.00839755
1.3404e-06
0.00839081
8.23249e-06
0.00839227
1.54817e-06
0.00837101
2.72138e-05
0.00838482
2.85971e-06
0.00835781
7.81691e-05
0.00836398
0.000168942
0.00839747
0.000740303
0.00855649
0.000761095
0.0087764
0.000531657
0.0089724
0.000368651
0.00910019
0.000298135
0.000268376
0.00920253
0.00840003
4.10334e-11
0.00840003
-4.28866e-11
0.00840003
5.50301e-10
0.00840003
-1.69847e-10
0.00840003
3.33938e-09
0.00840004
-1.38466e-09
0.00840004
1.80901e-08
0.0084001
-1.34385e-08
0.0084001
9.98992e-08
0.00840047
-1.25466e-07
0.00840026
6.34747e-07
0.00840316
-1.35939e-06
0.00839895
5.27384e-06
0.00841959
-1.25689e-05
0.00837746
4.19033e-05
0.0084943
-9.0928e-05
0.00822036
0.000269435
0.00854147
-0.000243277
0.00817533
0.000487869
0.00827392
0.00055711
0.00846278
0.000518989
0.00878288
0.00020971
0.00896739
0.00018935
0.00906579
0.000168223
0.000151123
0.00914974
0.00840003
-1.60193e-11
0.00840003
1.78293e-10
0.00840003
-9.77048e-11
0.00840003
1.30344e-09
0.00840003
-4.6524e-10
0.00840003
7.9021e-09
0.00840005
-2.63985e-09
0.00839999
4.7781e-08
0.00840012
-2.33914e-08
0.00839971
2.97464e-07
0.00840064
-2.94161e-07
0.00839707
2.13464e-06
0.0084062
-3.82245e-06
0.00837762
1.53903e-05
0.00845488
-3.53893e-05
0.0082572
0.00010386
0.0087516
-0.00023327
0.00818481
0.000318593
0.00897699
-0.000357308
0.00933827
0.000133036
0.00960283
0.000217235
0.00950963
0.000323748
0.00951006
0.000169017
0.00951694
0.000106187
9.29097e-05
0.00952273
0.00840003
0.00840003
0.00840003
0.00840003
0.00840003
0.00840004
0.00840004
0.00840009
0.00840005
0.00840034
0.00839995
0.00840185
0.00839765
0.00841206
0.00837469
0.0084769
0.00823713
0.00855689
0.00816033
0.00821325
0.00838327
0.00872942
0.00888667
0.00894482
0.00899224
0.00517981
0.00381574
0.00300596
0.00217866
0.00129051
0.00172229
-0.00048474
0.00177924
-0.00102437
0.000548543
-0.0015847
0.000564516
-0.00197899
0.000399519
-0.00222486
0.000250128
-0.00237427
0.00015379
-0.00243548
6.53822e-05
-0.00249037
5.74664e-05
-0.00255699
6.76805e-05
-0.00262102
6.37863e-05
-0.00267119
4.86877e-05
-0.00271219
3.94987e-05
-0.00273733
2.31538e-05
-0.00274546
5.84594e-06
-0.00273701
-1.10796e-05
-0.00272288
-1.73856e-05
-0.0027078
-1.89065e-05
-0.00268662
-2.49052e-05
-0.00265275
-3.75186e-05
-0.00260363
-5.26759e-05
-0.00254075
-6.63939e-05
-0.00246503
-7.91852e-05
-0.00237715
-9.1365e-05
-0.00227734
-0.000103349
-0.00216688
-0.000114202
-0.00204568
-0.000125108
-0.00191553
-0.000134252
-0.00177442
-0.000145178
-0.00161945
-0.000159139
-0.00145449
-0.000169408
-0.00128057
-0.000178472
-0.00110027
-0.000184773
-0.00091614
-0.000188692
-0.000726218
-0.000194551
-0.000531247
-0.000199259
-0.000333584
-0.000201773
-0.000129745
-0.000207796
8.16327e-05
-0.00021546
0.000300882
-0.000223562
0.000514927
-0.000218406
0.000722452
-0.000211895
0.000924987
-0.000206336
0.00112213
-0.000200674
0.00131448
-0.000195663
0.00150016
-0.000188772
0.00168059
-0.000183008
0.00185773
-0.000179393
0.00203537
-0.000179488
0.00220837
-0.000174646
0.00237723
-0.000169824
0.00254008
-0.000163535
0.00269711
-0.000157396
0.00284809
-0.000151089
0.00299397
-0.000144991
0.00313367
-0.000139013
0.00326761
-0.000132696
0.0033962
-0.000127013
0.00351866
-0.000120819
0.00363608
-0.000115243
0.00374835
-0.000109298
0.00385517
-0.000103861
0.00395645
-9.80077e-05
0.00405291
-9.27236e-05
0.0041443
-8.7038e-05
0.00423118
-8.19149e-05
0.00431269
-7.64148e-05
0.00439041
-7.14395e-05