/*--------------------------------*- C++ -*----------------------------------*\
  =========                 |
  \\      /  F ield         | OpenFOAM: The Open Source CFD Toolbox
   \\    /   O peration     | Website:  https://openfoam.org
    \\  /    A nd           | Version:  6
     \\/     M anipulation  |
\*---------------------------------------------------------------------------*/
FoamFile
{
    version     2.0;
    format      ascii;
    class       volScalarField;
    location    "8";
    object      T;
}
// * * * * * * * * * * * * * * * * * * * * * * * * * * * * * * * * * * * * * //

dimensions      [0 0 0 1 0 0 0];

internalField   nonuniform List<scalar> 
5250
(
1.00006
1.00015
1.00046
1.0009
1.00255
1.00494
1.0134
1.0287
1.06815
1.17683
1.41356
2.13644
2.79998
2.73696
2.81477
2.76491
2.74237
2.76125
2.7725
2.78698
2.79444
2.79919
2.80346
2.80629
2.8079
1.00006
1.00015
1.00045
1.00089
1.00254
1.00492
1.01336
1.0286
1.06793
1.17618
1.41223
2.13186
2.79941
2.73875
2.81333
2.76247
2.74128
2.76015
2.77142
2.78521
2.79225
2.79688
2.80047
2.80344
2.8057
1.00006
1.00015
1.00045
1.00089
1.00252
1.00489
1.01326
1.02837
1.06747
1.17468
1.40921
2.11888
2.79932
2.73995
2.81121
2.75848
2.73913
2.75778
2.76982
2.78272
2.78951
2.79436
2.79769
2.79965
2.80056
1.00006
1.00015
1.00044
1.00087
1.00249
1.00483
1.01311
1.028
1.06672
1.17223
1.40424
2.09682
2.79937
2.74095
2.80846
2.75326
2.73516
2.75307
2.7652
2.77867
2.78444
2.78829
2.79306
2.79417
2.79548
1.00006
1.00014
1.00044
1.00086
1.00245
1.00474
1.01289
1.02748
1.06567
1.1688
1.39723
2.06596
2.79911
2.74213
2.80447
2.74708
2.72996
2.74717
2.75853
2.76846
2.77768
2.78029
2.78223
2.78487
2.78466
1.00006
1.00014
1.00043
1.00084
1.00239
1.00463
1.01262
1.02682
1.06433
1.1644
1.38818
2.02678
2.79779
2.74328
2.79951
2.73912
2.72307
2.73977
2.75151
2.76095
2.76427
2.77094
2.7734
2.7722
2.77278
1.00006
1.00014
1.00042
1.00082
1.00233
1.0045
1.01228
1.02601
1.06268
1.15908
1.37711
1.9811
2.79354
2.74812
2.78518
2.73341
2.71641
2.72982
2.74006
2.74876
2.75286
2.75309
2.75489
2.75607
2.75318
1.00005
1.00013
1.0004
1.00079
1.00225
1.00435
1.01188
1.02507
1.06073
1.15289
1.36407
1.92913
2.78536
2.75416
2.76431
2.72418
2.70966
2.72332
2.72867
2.73327
2.73455
2.73788
2.73447
2.72951
2.72598
1.00005
1.00013
1.00039
1.00076
1.00216
1.00417
1.01143
1.02399
1.05857
1.1457
1.34946
1.86959
2.76941
2.76214
2.74795
2.7049
2.69625
2.70954
2.71868
2.71878
2.71468
2.70821
2.70603
2.69324
2.67486
1.00005
1.00012
1.00037
1.00072
1.00206
1.00397
1.01094
1.02279
1.05606
1.13894
1.33077
1.82844
2.75605
2.75891
2.73886
2.69089
2.68053
2.69027
2.69812
2.69988
2.69456
2.68091
2.66032
2.63711
2.57698
1.00005
1.00011
1.00035
1.00068
1.00196
1.00375
1.01041
1.02146
1.05319
1.1319
1.30911
1.79307
2.72429
2.75375
2.72555
2.68296
2.66741
2.67083
2.67771
2.67526
2.66746
2.65099
2.61185
2.5473
2.42108
1.00004
1.00011
1.00033
1.00064
1.00183
1.0035
1.00978
1.02002
1.04998
1.12341
1.28715
1.75082
2.66809
2.74288
2.70646
2.68207
2.65906
2.65475
2.65252
2.64655
2.63406
2.60796
2.56911
2.49702
2.36912
1.00004
1.0001
1.0003
1.00059
1.00169
1.00323
1.00906
1.01844
1.04637
1.11378
1.26392
1.70296
2.59304
2.7246
2.67313
2.67205
2.65583
2.64774
2.64098
2.6247
2.60389
2.5747
2.51894
2.47256
2.37772
1.00004
1.00009
1.00027
1.00053
1.00154
1.00292
1.00824
1.01664
1.04219
1.10309
1.23675
1.64383
2.50272
2.68621
2.67742
2.65262
2.6379
2.63167
2.62487
2.61052
2.58059
2.55362
2.499
2.44587
2.39014
1.00003
1.00008
1.00024
1.00047
1.00136
1.00257
1.00732
1.01458
1.03765
1.09013
1.20656
1.57117
2.38029
2.63898
2.67353
2.65057
2.63067
2.61582
2.60491
2.59205
2.56442
2.53884
2.49558
2.44708
2.39095
1.00003
1.00007
1.00021
1.0004
1.00116
1.0022
1.00627
1.0124
1.03199
1.07764
1.17046
1.49284
2.23445
2.57087
2.66358
2.64387
2.62416
2.60495
2.58802
2.57547
2.54828
2.52736
2.48775
2.45505
2.39979
1.00002
1.00006
1.00017
1.00034
1.00097
1.00184
1.00525
1.01022
1.0273
1.06141
1.14387
1.38382
2.01745
2.49582
2.64209
2.62708
2.61209
2.59465
2.57631
2.56441
2.53821
2.51805
2.48323
2.45341
2.41703
1.00002
1.00005
1.00014
1.00028
1.00081
1.00152
1.00435
1.00835
1.02284
1.0487
1.12088
1.29569
1.83181
2.40823
2.61714
2.59209
2.58665
2.57421
2.56193
2.55305
2.53374
2.51464
2.48523
2.45598
2.42432
1.00002
1.00004
1.00012
1.00023
1.00066
1.00125
1.00359
1.00686
1.01872
1.04064
1.09651
1.25262
1.63427
2.35817
2.5968
2.59146
2.57088
2.55857
2.54576
2.5389
2.52418
2.50927
2.48593
2.46155
2.43427
1.00001
1.00003
1.0001
1.00019
1.00054
1.00101
1.00293
1.00555
1.01527
1.03306
1.07784
1.21267
1.49014
2.19369
2.54197
2.58932
2.56732
2.55849
2.54269
2.53464
2.52102
2.50654
2.48769
2.46769
2.44529
1.00001
1.00002
1.00008
1.00015
1.00043
1.0008
1.00233
1.00438
1.0122
1.02575
1.06191
1.16537
1.37324
2.00139
2.43708
2.57462
2.56794
2.55671
2.53907
2.52982
2.5199
2.50679
2.49146
2.47349
2.45323
1.00001
1.00002
1.00006
1.00012
1.00033
1.00062
1.00181
1.00337
1.00959
1.01924
1.04847
1.11847
1.27354
1.68274
2.33768
2.53122
2.54678
2.54374
2.53581
2.52459
2.51697
2.50812
2.4948
2.47955
2.46145
1.00001
1.00002
1.00005
1.00009
1.00026
1.00048
1.00142
1.0026
1.00762
1.01469
1.03888
1.09209
1.21018
1.57579
2.28947
2.50933
2.54627
2.53764
2.53221
2.52194
2.5134
2.50487
2.49419
2.48115
2.46612
1
1.00001
1.00004
1.00007
1.0002
1.00037
1.00109
1.002
1.00579
1.0114
1.02897
1.07297
1.15864
1.4649
2.12797
2.45334
2.55972
2.55552
2.54549
2.53066
2.51597
2.5051
2.49306
2.48091
2.46748
1
1.00001
1.00003
1.00005
1.00015
1.00029
1.00084
1.00155
1.00452
1.00857
1.02366
1.05097
1.1253
1.31254
1.87042
2.33323
2.53361
2.54998
2.54529
2.53466
2.51807
2.50565
2.49364
2.48127
2.46865
1
1.00001
1.00002
1.00005
1.0001
1.00028
1.00051
1.0015
1.00278
1.00805
1.01591
1.04131
1.10111
1.23296
1.62154
2.35163
2.54472
2.5643
2.55196
2.54281
2.52487
2.50919
2.49583
2.48289
2.47017
1
1.00001
1.00001
1.00004
1.00008
1.00022
1.0004
1.00119
1.00218
1.00628
1.01259
1.03209
1.08246
1.18169
1.52555
2.25647
2.52373
2.59708
2.57259
2.56089
2.53918
2.52172
2.50768
2.49396
2.48042
1
1.00001
1.00001
1.00003
1.00006
1.00018
1.00032
1.00097
1.00174
1.00527
1.00985
1.02735
1.06176
1.1444
1.39862
2.02561
2.47881
2.63123
2.60658
2.58353
2.5534
2.53023
2.51486
2.50143
2.4885
1
1
1.00001
1.00003
1.00005
1.00014
1.00026
1.00077
1.00141
1.00422
1.00794
1.02236
1.04844
1.12075
1.30435
1.86141
2.39443
2.62813
2.62151
2.59597
2.56938
2.54619
2.52978
2.51597
2.50206
1
1
1.00001
1.00002
1.00005
1.00009
1.00025
1.00048
1.00138
1.00266
1.00721
1.01599
1.03933
1.10787
1.2414
1.67118
2.46541
2.64725
2.64752
2.61849
2.58881
2.55958
2.53947
2.52596
2.51458
1
1
1.00001
1.00002
1.00003
1.00009
1.00017
1.00048
1.00092
1.0025
1.00545
1.01318
1.03595
1.08075
1.23998
1.55662
2.29447
2.63984
2.69432
2.65938
2.62855
2.5883
2.55985
2.54045
2.5263
1
1
1
1.00001
1.00003
1.00008
1.00015
1.00045
1.0008
1.00246
1.00457
1.01261
1.02868
1.06857
1.19722
1.44082
2.11597
2.59742
2.72015
2.69125
2.65773
2.61442
2.58672
2.56792
2.55161
1
1
1
1.00001
1.00002
1.00007
1.00013
1.00039
1.00069
1.00213
1.00387
1.01123
1.02303
1.05994
1.15131
1.36347
1.8591
2.55224
2.72194
2.69485
2.66476
2.62041
2.59396
2.57881
2.56763
1
1
1
1.00001
1.00002
1.00006
1.00011
1.00034
1.00061
1.00192
1.0034
1.01035
1.02015
1.05372
1.13013
1.31855
1.77112
2.6018
2.74628
2.70116
2.67966
2.63592
2.61088
2.59806
2.5882
1
1
1
1.00001
1.00002
1.00005
1.0001
1.0003
1.00054
1.00165
1.00303
1.00902
1.01817
1.04844
1.12031
1.29337
1.74364
2.61941
2.76194
2.72926
2.70449
2.65565
2.6261
2.60961
2.59763
1
1
1
1.00001
1.00002
1.00003
1.0001
1.00019
1.0005
1.00109
1.00266
1.00695
1.01592
1.04641
1.1024
1.30091
1.79052
2.4836
2.75663
2.75211
2.72394
2.68523
2.65367
2.63384
2.61972
1
1
1
1.00001
1.00001
1.00004
1.00007
1.00022
1.00041
1.00124
1.00239
1.00662
1.01541
1.03844
1.1091
1.24666
1.69719
2.55289
2.74333
2.75298
2.72794
2.69151
2.65966
2.63957
2.62619
1
1
1
1.00001
1.00001
1.00003
1.00006
1.00019
1.00035
1.00102
1.00214
1.00559
1.01436
1.03443
1.10149
1.22412
1.66346
2.51404
2.75866
2.76397
2.73485
2.69436
2.65531
2.63382
2.62145
1
1
1
1
1.00001
1.00002
1.00006
1.00012
1.00029
1.00078
1.00166
1.00514
1.0109
1.0357
1.07747
1.24782
1.59887
2.3276
2.75737
2.78438
2.75209
2.7062
2.66348
2.63966
2.62688
1
1
1
1
1.00001
1.00002
1.00004
1.00011
1.00027
1.00058
1.00173
1.00345
1.01179
1.02404
1.08488
1.17362
1.59747
2.35799
2.7625
2.78212
2.74888
2.69044
2.64541
2.62612
2.6193
1
1
1
1
1.00001
1.00002
1.00005
1.0001
1.00023
1.00061
1.00128
1.00405
1.00841
1.02825
1.06236
1.19787
1.47141
2.08312
2.76046
2.79655
2.76059
2.69971
2.65175
2.63053
2.62376
1
1
1
1
1.00001
1.00002
1.00004
1.0001
1.00023
1.00054
1.00147
1.0032
1.00968
1.0213
1.06686
1.14625
1.44171
2.13139
2.71423
2.77198
2.74997
2.69847
2.65102
2.63012
2.62389
1
1
1
1
1.00001
1.00002
1.00005
1.0001
1.00025
1.00057
1.00131
1.00362
1.008
1.024
1.05395
1.16036
1.37642
1.87937
2.72113
2.79283
2.7666
2.7123
2.66039
2.63769
2.62993
1
1
1
1
1.00001
1.00002
1.00005
1.00014
1.00025
1.00075
1.00143
1.00388
1.00878
1.02143
1.06007
1.13625
1.3863
2.03971
2.62589
2.77877
2.7517
2.70922
2.66167
2.64185
2.63631
1
1
1
1
1.00001
1.00003
1.00005
1.00015
1.00027
1.00086
1.00149
1.00473
1.00862
1.0246
1.05528
1.13499
1.36296
2.00255
2.61279
2.7706
2.73745
2.70246
2.6577
2.63835
2.63334
1
1
1
1
1.00001
1.00003
1.00005
1.00015
1.00027
1.00085
1.00148
1.00466
1.00852
1.02407
1.05422
1.13227
1.35503
1.97864
2.60074
2.76921
2.73334
2.70288
2.65719
2.63525
2.63332
1
1
1
1
1.00001
1.00003
1.00005
1.00015
1.00026
1.00083
1.00145
1.00457
1.00832
1.02364
1.05315
1.12982
1.34905
1.95904
2.58944
2.76703
2.73073
2.70468
2.65234
2.63103
2.63069
1
1
1
1
1.00001
1.00002
1.00004
1.00013
1.00024
1.00068
1.00134
1.00346
1.00825
1.01942
1.05542
1.12355
1.35743
1.95382
2.58475
2.76535
2.73239
2.70583
2.64945
2.62959
2.63022
1
1
1
1
1.00001
1.00002
1.00005
1.0001
1.0003
1.00055
1.0016
1.0032
1.00844
1.02023
1.04956
1.13607
1.32682
1.79793
2.67495
2.77173
2.73183
2.69756
2.63753
2.62686
2.63041
1
1
1
1
1.00001
1.00002
1.00004
1.00012
1.00022
1.00063
1.00127
1.00326
1.00802
1.01891
1.05444
1.12119
1.35306
1.93507
2.5749
2.76545
2.73969
2.7036
2.64329
2.63027
2.63297
2.34773
2.35668
2.61303
2.90898
3.13871
3.11956
3.10543
3.07699
3.06483
3.05487
3.05012
3.04177
3.03432
3.02371
3.01682
3.0124
3.0112
3.01047
3.01038
3.01047
3.01226
3.01581
3.02097
3.02734
3.03434
3.04172
3.04893
3.0563
3.06277
3.06898
3.07402
3.07939
3.08241
3.08445
3.0851
3.08467
3.08223
3.07995
3.07845
3.07593
3.07338
3.06891
3.0645
3.05979
3.05413
3.04551
3.03818
3.02969
3.0217
3.01167
3.00277
2.99203
2.98232
2.9704
2.96025
2.9481
2.93757
2.92378
2.91385
2.89945
2.88914
2.87503
2.8641
2.84918
2.83865
2.82378
2.81307
2.79795
2.78703
2.77244
2.76068
2.74713
2.73488
2.72158
2.70966
2.69621
2.68482
2.67149
2.66011
2.64737
2.63563
2.62347
2.61169
2.59985
2.58836
2.57688
2.56596
2.55507
2.54509
2.53532
2.52675
2.51899
2.51254
2.50825
2.50538
2.50548
2.50596
2.5067
2.51
2.50676
2.29066
2.30832
2.45375
2.67666
2.82918
3.00366
3.10603
3.1723
3.28158
3.32834
3.31529
3.30883
3.3042
3.30068
3.29848
3.2982
3.29471
3.29341
3.28742
3.27802
3.27032
3.26031
3.25083
3.24021
3.23167
3.22412
3.21734
3.20737
3.19781
3.18746
3.17537
3.16418
3.14991
3.13632
3.12356
3.10685
3.09085
3.07673
3.06045
3.04551
3.02951
3.01329
2.99782
2.98057
2.96677
2.94865
2.93537
2.91803
2.90471
2.88787
2.87546
2.8575
2.8445
2.82784
2.81541
2.79998
2.78745
2.77237
2.75963
2.74504
2.73226
2.71781
2.70488
2.69048
2.67693
2.66302
2.64858
2.63548
2.6204
2.60793
2.59276
2.58048
2.56564
2.55336
2.53889
2.5267
2.51259
2.50042
2.4868
2.47451
2.46159
2.44932
2.43707
2.4251
2.41348
2.40201
2.39106
2.3806
2.37038
2.36173
2.35283
2.34636
2.34018
2.33646
2.33453
2.33476
2.33546
2.33632
2.33996
2.33707
2.31645
2.31294
2.36204
2.44159
2.49769
2.57757
2.68849
2.78333
2.89119
2.99197
3.09221
3.16472
3.21409
3.25476
3.28097
3.30124
3.31273
3.3285
3.3444
3.34531
3.33961
3.32193
3.2988
3.27099
3.24393
3.21636
3.18669
3.15596
3.12839
3.097
3.06778
3.03878
3.01085
2.9817
2.95485
2.92759
2.90111
2.87623
2.85179
2.82829
2.80441
2.78378
2.76231
2.74258
2.72163
2.70371
2.68503
2.6691
2.65181
2.63673
2.61929
2.6033
2.58609
2.57162
2.55648
2.54383
2.53068
2.51978
2.50837
2.49875
2.4882
2.47938
2.46912
2.4608
2.45056
2.4425
2.43232
2.42426
2.41426
2.40616
2.39627
2.38831
2.37841
2.37064
2.3609
2.35317
2.34385
2.33603
2.32707
2.31901
2.3102
2.30186
2.29317
2.28464
2.27594
2.26708
2.25808
2.24879
2.23972
2.2308
2.22224
2.21513
2.20797
2.20327
2.19975
2.19795
2.19682
2.19531
2.1968
2.19226
2.34027
2.31028
2.31435
2.3354
2.3616
2.38713
2.42622
2.47172
2.52115
2.57909
2.62886
2.68574
2.73674
2.78264
2.82501
2.8571
2.88593
2.90558
2.91701
2.92771
2.92758
2.92439
2.91669
2.90248
2.88423
2.86202
2.83746
2.81139
2.78457
2.75712
2.73119
2.70521
2.68206
2.65914
2.63938
2.61972
2.60261
2.58586
2.57168
2.55754
2.5456
2.53376
2.52298
2.51216
2.50232
2.49251
2.48376
2.47495
2.46715
2.4591
2.45162
2.44278
2.43455
2.42575
2.41792
2.40961
2.4019
2.394
2.38614
2.37844
2.37017
2.36236
2.35361
2.34544
2.33633
2.32762
2.3183
2.30908
2.29973
2.29022
2.2809
2.27135
2.26205
2.25262
2.24338
2.23416
2.22505
2.21605
2.20711
2.1982
2.18945
2.18061
2.17212
2.16351
2.15531
2.14722
2.13963
2.13247
2.12616
2.12021
2.11559
2.11133
2.10849
2.10724
2.10795
2.10927
2.11221
2.11393
2.12045
2.1197
2.35887
2.31566
2.30186
2.29461
2.29987
2.30699
2.31903
2.33755
2.35802
2.38242
2.40471
2.42499
2.44413
2.46066
2.4767
2.49089
2.50343
2.51333
2.51923
2.5223
2.52215
2.52078
2.5176
2.51238
2.50608
2.4986
2.4905
2.48217
2.47369
2.46563
2.45794
2.45112
2.44483
2.43947
2.43455
2.43008
2.42604
2.42236
2.41878
2.41555
2.41216
2.40918
2.40592
2.40302
2.39986
2.39657
2.39299
2.38893
2.38493
2.38083
2.37652
2.37141
2.36588
2.36032
2.35435
2.34892
2.3425
2.33719
2.33026
2.32475
2.3172
2.31117
2.30306
2.29634
2.28782
2.28041
2.27156
2.26353
2.25444
2.24594
2.23685
2.22802
2.21906
2.21003
2.20114
2.19209
2.18314
2.17403
2.16514
2.15587
2.14715
2.13776
2.12895
2.1198
2.11073
2.10208
2.09309
2.08501
2.07676
2.06946
2.06286
2.05682
2.05279
2.04948
2.04915
2.04942
2.05031
2.05151
2.05671
2.05572
2.36151
2.33337
2.30664
2.28853
2.27986
2.27514
2.2727
2.27594
2.28124
2.28731
2.29443
2.29998
2.30556
2.3099
2.3145
2.31877
2.32311
2.32726
2.32964
2.33116
2.33123
2.33159
2.33234
2.33254
2.3324
2.33204
2.33166
2.33121
2.33094
2.331
2.33124
2.33191
2.33251
2.3339
2.33479
2.33607
2.3373
2.33775
2.33823
2.3382
2.33796
2.33747
2.33634
2.33533
2.33331
2.33118
2.32816
2.3249
2.32105
2.31765
2.31341
2.30895
2.30313
2.29751
2.29086
2.28482
2.27764
2.27141
2.264
2.25751
2.24982
2.24277
2.23483
2.22726
2.21927
2.21142
2.2035
2.19559
2.18767
2.17989
2.17194
2.16442
2.15657
2.14922
2.14149
2.13403
2.12656
2.11896
2.11175
2.10411
2.09701
2.08957
2.0824
2.07536
2.06817
2.0616
2.0548
2.04847
2.04273
2.03675
2.03234
2.02784
2.02504
2.02356
2.02389
2.02469
2.02573
2.02768
2.03382
2.03336
2.37638
2.34189
2.31966
2.29883
2.28112
2.2674
2.25789
2.25032
2.24564
2.24207
2.23953
2.2372
2.23493
2.23285
2.23097
2.22987
2.22946
2.22969
2.23026
2.23072
2.23058
2.2307
2.23109
2.23221
2.23369
2.23475
2.23639
2.23775
2.23956
2.24125
2.24331
2.24525
2.24769
2.25003
2.25232
2.25448
2.2564
2.258
2.25935
2.26014
2.26071
2.26073
2.26055
2.25997
2.25877
2.25749
2.25535
2.25305
2.25022
2.24786
2.24469
2.24157
2.23705
2.23265
2.22717
2.22232
2.21654
2.21145
2.20533
2.19963
2.193
2.18662
2.17964
2.1728
2.16561
2.15851
2.15114
2.14386
2.13625
2.1287
2.12087
2.1129
2.10485
2.09656
2.08852
2.0803
2.07223
2.06432
2.05623
2.04859
2.04075
2.03319
2.02587
2.0184
2.01168
2.00464
1.99853
1.9924
1.987
1.98227
1.97799
1.97519
1.97287
1.97302
1.97371
1.97489
1.97626
1.97851
1.98492
1.98487
2.39386
2.36127
2.33463
2.31214
2.29344
2.27769
2.26093
2.24746
2.2358
2.22616
2.21772
2.21013
2.20327
2.19678
2.19134
2.18628
2.18277
2.17967
2.17801
2.17671
2.17621
2.17518
2.17461
2.17474
2.17538
2.17675
2.17854
2.18019
2.18249
2.1847
2.18737
2.19017
2.19335
2.19644
2.19978
2.20301
2.20621
2.2091
2.21183
2.21405
2.2162
2.21763
2.21903
2.2196
2.22013
2.21984
2.21903
2.21781
2.21603
2.21444
2.2123
2.21
2.2064
2.20258
2.19785
2.19332
2.18805
2.18307
2.17735
2.17193
2.16584
2.16003
2.15371
2.14748
2.14099
2.1343
2.12761
2.12053
2.11358
2.10618
2.09878
2.09113
2.08327
2.07544
2.06712
2.05912
2.05063
2.04244
2.0341
2.02572
2.01778
2.00944
2.00194
1.994
1.98679
1.97953
1.97261
1.96626
1.96001
1.95497
1.95006
1.9471
1.94459
1.94459
1.94492
1.94557
1.94727
1.95032
1.95662
1.95898
2.40617
2.37834
2.35149
2.32755
2.30597
2.28661
2.27019
2.25498
2.24047
2.22652
2.2144
2.20291
2.19316
2.18368
2.17582
2.1682
2.1623
2.15676
2.15289
2.14953
2.14746
2.14536
2.14412
2.14278
2.14214
2.14224
2.14298
2.14463
2.1464
2.14847
2.151
2.15363
2.15662
2.15971
2.16304
2.1664
2.16973
2.17295
2.17588
2.17859
2.18083
2.18272
2.18418
2.18518
2.18582
2.18585
2.1855
2.18448
2.18309
2.18176
2.18014
2.17823
2.17536
2.17203
2.16801
2.16388
2.15934
2.15455
2.14961
2.14414
2.13873
2.13266
2.12664
2.12006
2.11336
2.10635
2.09905
2.09176
2.08405
2.07661
2.0688
2.06134
2.05365
2.04612
2.03867
2.03101
2.02375
2.01606
2.00881
2.00132
1.99397
1.98692
1.97965
1.9731
1.96621
1.96023
1.95405
1.94876
1.94386
1.93969
1.93665
1.93439
1.93406
1.93447
1.93527
1.93658
1.93911
1.94407
1.9492
1.95167
2.42123
2.39602
2.37164
2.34733
2.32544
2.3039
2.28511
2.26666
2.25097
2.23602
2.22271
2.20993
2.19805
2.18679
2.17659
2.16723
2.15894
2.15157
2.14527
2.14004
2.13572
2.13211
2.12899
2.12644
2.12463
2.12345
2.12294
2.12255
2.12336
2.12465
2.12675
2.12872
2.13147
2.13416
2.1373
2.1403
2.14355
2.14655
2.14951
2.15209
2.15445
2.15635
2.15809
2.1592
2.1602
2.16047
2.16063
2.15998
2.15909
2.15807
2.15702
2.1553
2.15315
2.14998
2.14672
2.1427
2.13862
2.134
2.12915
2.12408
2.11857
2.11305
2.10701
2.10097
2.0945
2.0879
2.08113
2.07404
2.06714
2.05976
2.0527
2.04508
2.0377
2.02993
2.02219
2.0144
2.00642
1.99873
1.99076
1.9833
1.97568
1.9685
1.96152
1.9547
1.94853
1.94222
1.93699
1.93167
1.92763
1.92395
1.9217
1.92046
1.92064
1.92125
1.92201
1.9237
1.927
1.93188
1.93712
1.93868
2.43231
2.40983
2.38772
2.36533
2.34392
2.32312
2.30344
2.28478
2.26719
2.25096
2.23573
2.22179
2.2089
2.19711
2.18587
2.17558
2.1658
2.15698
2.14885
2.14169
2.13548
2.13005
2.12539
2.12119
2.11761
2.11431
2.11217
2.11048
2.10982
2.10951
2.11024
2.11184
2.11386
2.11607
2.11876
2.12139
2.12437
2.1271
2.12995
2.13253
2.13503
2.13717
2.13914
2.14059
2.14195
2.14255
2.14317
2.1428
2.14225
2.14152
2.14053
2.13919
2.13694
2.13436
2.13093
2.12736
2.12318
2.1188
2.11412
2.10907
2.10395
2.09837
2.09278
2.08673
2.08057
2.07408
2.06729
2.06051
2.05332
2.04638
2.03894
2.03185
2.02426
2.01698
2.00938
2.0019
1.99442
1.98678
1.9795
1.97187
1.96476
1.95748
1.95062
1.94395
1.93766
1.93187
1.92653
1.92201
1.91813
1.91544
1.91355
1.91338
1.91369
1.91408
1.91525
1.91802
1.92234
1.92613
1.9308
1.93167
2.44255
2.42224
2.40181
2.38106
2.36082
2.34093
2.32194
2.3036
2.28617
2.2696
2.25391
2.23909
2.22505
2.21184
2.19926
2.18742
2.1762
2.16566
2.15593
2.14686
2.13883
2.13149
2.12519
2.11938
2.11462
2.11029
2.1071
2.1043
2.10253
2.10125
2.10073
2.10055
2.1012
2.10272
2.10452
2.10669
2.10922
2.11175
2.11438
2.11685
2.11927
2.12138
2.12338
2.12485
2.12625
2.12689
2.12755
2.12726
2.12673
2.126
2.12528
2.12378
2.12208
2.11938
2.11657
2.11294
2.10911
2.10473
2.10008
2.0952
2.08987
2.08456
2.07871
2.07298
2.06666
2.06039
2.05369
2.04696
2.04009
2.03299
2.02608
2.01872
2.01171
2.00423
1.99704
1.98958
1.98221
1.97494
1.9675
1.96057
1.95331
1.94676
1.94009
1.93408
1.92831
1.92318
1.91873
1.91501
1.91224
1.91044
1.90999
1.91032
1.91076
1.91172
1.91474
1.91729
1.92226
1.92441
1.92887
1.92879
2.44994
2.43245
2.41448
2.39585
2.37724
2.35878
2.34061
2.32312
2.30595
2.28966
2.27375
2.25865
2.24401
2.23003
2.21655
2.20366
2.19136
2.17961
2.16864
2.15821
2.14875
2.13991
2.13205
2.12485
2.11851
2.11284
2.10797
2.10378
2.10048
2.09782
2.09627
2.09508
2.09468
2.09476
2.09525
2.09676
2.09861
2.10067
2.1029
2.10504
2.10708
2.109
2.11062
2.112
2.11303
2.11361
2.11389
2.11341
2.11268
2.11178
2.1106
2.10921
2.10713
2.10474
2.10171
2.09846
2.09475
2.0906
2.08631
2.08139
2.07658
2.07104
2.0657
2.0598
2.05393
2.04781
2.04145
2.03511
2.02826
2.02168
2.01457
2.00776
2.00056
1.99352
1.98629
1.97908
1.97191
1.96464
1.95774
1.95059
1.94414
1.93742
1.93155
1.92558
1.92057
1.91584
1.91216
1.90926
1.90746
1.90685
1.90715
1.90759
1.90858
1.91049
1.9145
1.91724
1.92113
1.92259
1.9258
1.92479
2.45346
2.43848
2.42309
2.40702
2.39068
2.3741
2.35749
2.34101
2.32479
2.30884
2.29333
2.27809
2.26333
2.2489
2.23492
2.22132
2.20824
2.19559
2.18357
2.17206
2.1613
2.15117
2.14197
2.13342
2.12579
2.11879
2.11261
2.10709
2.10252
2.09852
2.0952
2.09277
2.09084
2.08973
2.08892
2.08881
2.08887
2.08978
2.09093
2.09218
2.09357
2.09473
2.09587
2.09659
2.09726
2.09738
2.09734
2.09668
2.0959
2.09472
2.09374
2.09212
2.09041
2.08791
2.08517
2.08201
2.07841
2.07461
2.07018
2.06579
2.06075
2.0558
2.05031
2.0448
2.03907
2.03315
2.02726
2.02093
2.0148
2.00814
2.00174
1.99494
1.98831
1.98152
1.97473
1.96799
1.9612
1.95461
1.94796
1.94176
1.93549
1.92994
1.92437
1.91968
1.91518
1.91176
1.90891
1.9072
1.90649
1.90673
1.90721
1.90799
1.91046
1.91273
1.91665
1.91887
1.92136
1.92212
1.92416
1.92234
2.45551
2.4419
2.42811
2.41388
2.39938
2.38474
2.36979
2.35487
2.33967
2.32468
2.30953
2.29476
2.27991
2.2655
2.25118
2.23727
2.22368
2.21046
2.19774
2.18544
2.17377
2.16263
2.15233
2.1426
2.13368
2.12538
2.11776
2.11079
2.10428
2.09849
2.09336
2.08886
2.08504
2.08186
2.07934
2.07749
2.07613
2.07535
2.07496
2.07527
2.07604
2.07667
2.07766
2.07816
2.07888
2.07907
2.07915
2.07879
2.07799
2.0773
2.07628
2.07514
2.07348
2.07123
2.0687
2.06556
2.06232
2.05837
2.05436
2.04978
2.04514
2.04013
2.03488
2.02951
2.02376
2.01818
2.01202
2.00615
1.99968
1.99349
1.98689
1.98044
1.97392
1.96729
1.96092
1.95428
1.94809
1.94163
1.93577
1.92972
1.92443
1.91917
1.91468
1.91056
1.90727
1.9048
1.90315
1.90272
1.90305
1.90369
1.90459
1.90656
1.90991
1.91295
1.91602
1.91761
1.91885
1.91905
1.92013
1.91751
2.4574
2.44448
2.43136
2.418
2.40423
2.39048
2.3764
2.36242
2.34815
2.33403
2.31961
2.30547
2.29113
2.27704
2.26303
2.24912
2.23556
2.22204
2.20909
2.19619
2.18398
2.1719
2.16062
2.14961
2.13941
2.12957
2.12051
2.11185
2.10403
2.09654
2.09015
2.08382
2.079
2.07407
2.07071
2.06737
2.06534
2.06327
2.06241
2.06154
2.06155
2.06172
2.06243
2.06313
2.06391
2.06443
2.06465
2.06434
2.06384
2.06288
2.06185
2.06058
2.05873
2.05657
2.05373
2.05077
2.04726
2.04353
2.03941
2.03494
2.03036
2.02531
2.02026
2.01465
2.00921
2.00325
1.99748
1.9913
1.98519
1.97886
1.97249
1.96616
1.95964
1.95345
1.94687
1.94087
1.9344
1.92868
1.92265
1.91736
1.91217
1.90761
1.90358
1.90026
1.89791
1.89626
1.89599
1.89634
1.89719
1.89806
1.90071
1.90318
1.9073
1.9097
1.91218
1.91282
1.91342
1.9131
1.9134
1.91079
2.46661
2.45298
2.4395
2.4262
2.41297
2.39949
2.38585
2.372
2.35793
2.34384
2.32959
2.31533
2.30105
2.28666
2.2725
2.25818
2.24431
2.23027
2.21687
2.20332
2.19053
2.17772
2.16572
2.15398
2.14295
2.13241
2.12237
2.11304
2.10407
2.09595
2.08822
2.08126
2.07486
2.06924
2.06421
2.05994
2.05637
2.05339
2.05099
2.04932
2.04826
2.04755
2.04723
2.04731
2.0475
2.04782
2.04773
2.04739
2.0467
2.04552
2.0446
2.0431
2.04169
2.03941
2.03708
2.03417
2.031
2.0275
2.02352
2.01941
2.01471
2.01007
2.00485
1.99975
1.99421
1.98874
1.98304
1.97727
1.97146
1.96546
1.95954
1.95338
1.94748
1.94128
1.93553
1.9294
1.9239
1.91811
1.91304
1.90795
1.90359
1.89955
1.89626
1.89385
1.89221
1.89185
1.89217
1.89295
1.8938
1.89646
1.89889
1.90318
1.90568
1.90821
1.90893
1.90921
1.90882
1.90807
1.90777
1.90514
2.47552
2.46224
2.44881
2.43495
2.42099
2.4068
2.39277
2.37862
2.36456
2.35037
2.33612
2.32182
2.30739
2.29311
2.27867
2.26456
2.25036
2.23657
2.22291
2.20955
2.19656
2.1837
2.17134
2.15916
2.14754
2.13621
2.12555
2.11523
2.10563
2.09643
2.08785
2.07979
2.0723
2.0653
2.05918
2.05355
2.04873
2.0446
2.04102
2.0381
2.03595
2.03443
2.03338
2.03269
2.03223
2.03211
2.03208
2.03195
2.0315
2.03096
2.02989
2.02916
2.02776
2.02624
2.02406
2.02151
2.0186
2.01519
2.01162
2.00741
2.00309
1.99816
1.99327
1.98794
1.98261
1.97702
1.97137
1.96565
1.9598
1.95393
1.94792
1.94194
1.9359
1.93004
1.92416
1.91862
1.91309
1.90807
1.90319
1.89898
1.89513
1.89191
1.8896
1.888
1.88762
1.88792
1.88868
1.88957
1.89242
1.89488
1.89923
1.90197
1.90463
1.90569
1.90598
1.90564
1.90485
1.90393
1.90321
1.90075
2.48805
2.47395
2.46059
2.44729
2.43413
2.42021
2.40588
2.39083
2.37555
2.36012
2.34484
2.32984
2.31512
2.30071
2.28659
2.27269
2.25897
2.24539
2.23181
2.2184
2.20494
2.19177
2.17873
2.16618
2.15395
2.14227
2.13084
2.11998
2.10931
2.09918
2.08937
2.08014
2.07137
2.06332
2.0557
2.04889
2.04277
2.03759
2.03301
2.02909
2.02553
2.02293
2.02079
2.01938
2.01834
2.01778
2.01734
2.01713
2.01693
2.01644
2.01586
2.01516
2.01431
2.01314
2.01131
2.00914
2.00632
2.00332
1.99972
1.9959
1.99153
1.98693
1.98203
1.97689
1.97163
1.96606
1.96063
1.95486
1.94939
1.94353
1.93795
1.93207
1.92646
1.92076
1.91541
1.91013
1.90524
1.90069
1.89652
1.89306
1.88993
1.88789
1.8864
1.88627
1.8866
1.88746
1.88841
1.89142
1.89407
1.89836
1.90131
1.90424
1.90554
1.90637
1.90592
1.90545
1.9042
1.90305
1.90157
1.89917
2.5032
2.49041
2.4766
2.46208
2.44778
2.43369
2.41978
2.40583
2.39156
2.37692
2.36187
2.34646
2.33097
2.31536
2.29997
2.28454
2.26951
2.2545
2.23996
2.2256
2.21168
2.19805
2.18475
2.17175
2.15902
2.14659
2.13445
2.12273
2.11148
2.10069
2.09053
2.08077
2.07166
2.06297
2.05481
2.04726
2.0401
2.03343
2.02732
2.02188
2.01711
2.01331
2.01034
2.00833
2.00667
2.00581
2.00513
2.00493
2.00465
2.00446
2.00409
2.00361
2.003
2.00191
2.00047
1.99823
1.9957
1.99249
1.98912
1.98521
1.98103
1.97652
1.9717
1.96684
1.96151
1.95634
1.95059
1.94525
1.93941
1.93403
1.92825
1.9228
1.91717
1.91183
1.90664
1.90175
1.89732
1.89321
1.88991
1.88686
1.88499
1.88359
1.88363
1.88402
1.88504
1.88609
1.88923
1.89227
1.89661
1.89983
1.90288
1.90452
1.90582
1.9055
1.90487
1.90408
1.90237
1.90026
1.89832
1.89557
2.51394
2.50229
2.49023
2.4771
2.46286
2.44817
2.43336
2.41879
2.4042
2.38958
2.3747
2.35967
2.34436
2.32901
2.31351
2.29819
2.28289
2.2679
2.25304
2.23843
2.22403
2.20976
2.19571
2.18189
2.16846
2.15546
2.14287
2.13078
2.11901
2.10768
2.09664
2.08599
2.07576
2.06588
2.0566
2.04768
2.03955
2.03189
2.02535
2.01929
2.01424
2.00958
2.0058
2.00287
2.00053
1.99891
1.99765
1.99693
1.99633
1.99597
1.99554
1.99508
1.99435
1.99347
1.9921
1.99042
1.98808
1.98548
1.98228
1.9789
1.9749
1.97076
1.96612
1.96139
1.95628
1.95097
1.94552
1.93979
1.93428
1.9284
1.92294
1.91708
1.91178
1.90629
1.90141
1.89667
1.89256
1.88893
1.8858
1.8836
1.88198
1.88162
1.88187
1.88258
1.88365
1.88676
1.89044
1.89453
1.89781
1.90093
1.90262
1.9042
1.90395
1.90347
1.90282
1.90144
1.89943
1.89647
1.89429
1.89106
2.53592
2.52019
2.50442
2.48898
2.47359
2.45803
2.44241
2.42701
2.41231
2.39824
2.3846
2.37105
2.35745
2.34357
2.32953
2.31516
2.30071
2.28605
2.27139
2.25658
2.24179
2.22701
2.21239
2.19795
2.18385
2.17003
2.15661
2.14339
2.13067
2.11822
2.10626
2.09475
2.0837
2.07321
2.06322
2.05393
2.04509
2.03724
2.02972
2.02331
2.01733
2.01217
2.00737
2.00345
2.00012
1.99758
1.9955
1.99411
1.99294
1.99231
1.9916
1.9911
1.99051
1.98982
1.98881
1.98745
1.98565
1.98337
1.98066
1.97747
1.97389
1.96989
1.96554
1.96088
1.95588
1.95065
1.94515
1.93959
1.93391
1.92828
1.92258
1.91706
1.91157
1.90644
1.90157
1.89715
1.89323
1.88994
1.88723
1.88558
1.88463
1.88469
1.88507
1.88612
1.8888
1.89277
1.89633
1.8998
1.90281
1.90459
1.90646
1.90628
1.90592
1.9053
1.90413
1.90226
1.89971
1.89647
1.89399
1.89075
2.556
2.5429
2.52853
2.51261
2.49564
2.47873
2.46156
2.44393
2.42697
2.41097
2.39581
2.38129
2.36708
2.35299
2.33883
2.32462
2.31026
2.29577
2.28121
2.26654
2.25204
2.23755
2.2234
2.20929
2.19566
2.18221
2.16926
2.15651
2.14428
2.13226
2.12075
2.10947
2.09865
2.08813
2.0781
2.0684
2.05932
2.05056
2.04251
2.03486
2.02787
2.02141
2.01545
2.01012
2.00557
2.00192
1.99889
1.99667
1.99493
1.99372
1.99274
1.99207
1.99133
1.99055
1.98958
1.98829
1.98671
1.98457
1.98214
1.97913
1.97581
1.97201
1.96784
1.96337
1.95845
1.95341
1.94793
1.94252
1.93682
1.93133
1.92565
1.92031
1.9149
1.91005
1.90541
1.9014
1.89807
1.89514
1.89332
1.89206
1.89153
1.89169
1.89265
1.89504
1.89892
1.90224
1.90598
1.90881
1.91089
1.91279
1.91294
1.91275
1.91233
1.9114
1.90972
1.90742
1.90433
1.90094
1.89835
1.89511
2.57742
2.56535
2.55227
2.53838
2.52378
2.50837
2.49264
2.47689
2.46029
2.44316
2.42606
2.40918
2.39271
2.37657
2.36075
2.34518
2.32991
2.31485
2.30007
2.28554
2.2712
2.25712
2.24314
2.22946
2.21579
2.20257
2.1894
2.17667
2.16401
2.15177
2.13968
2.12797
2.11647
2.1053
2.09441
2.0839
2.07363
2.06388
2.05435
2.04543
2.03696
2.0292
2.02213
2.01583
2.01053
2.00623
2.00272
1.99989
1.99756
1.99558
1.99394
1.99253
1.99121
1.99017
1.98902
1.98782
1.98637
1.98467
1.98268
1.98024
1.9775
1.97429
1.97091
1.96709
1.96312
1.95868
1.95411
1.94917
1.9442
1.93898
1.9339
1.92877
1.92393
1.91929
1.91526
1.91153
1.90872
1.90625
1.90499
1.90381
1.90372
1.90465
1.90691
1.91049
1.91356
1.91734
1.92006
1.92293
1.92422
1.92547
1.92513
1.92464
1.92403
1.92271
1.92072
1.91792
1.91456
1.91111
1.90838
1.90509
2.58598
2.5737
2.56088
2.54804
2.53558
2.52284
2.50992
2.49657
2.48259
2.46763
2.452
2.43589
2.41984
2.40413
2.3889
2.3742
2.35989
2.34586
2.33194
2.31791
2.3038
2.28946
2.27516
2.26076
2.24651
2.23237
2.21853
2.20483
2.19147
2.17816
2.16525
2.15237
2.13992
2.12758
2.11566
2.10396
2.09283
2.08206
2.07201
2.06256
2.0538
2.04578
2.03854
2.03188
2.02538
2.01955
2.01409
2.00942
2.00527
2.00181
1.99906
1.9967
1.99471
1.99297
1.99155
1.99056
1.98957
1.98888
1.98769
1.98657
1.98471
1.98272
1.98008
1.97701
1.97375
1.96971
1.96597
1.96112
1.95686
1.95164
1.94701
1.94204
1.93747
1.93339
1.92959
1.92679
1.92442
1.92284
1.92184
1.92142
1.92253
1.92487
1.9278
1.93115
1.93443
1.9374
1.94028
1.94169
1.94369
1.9434
1.94278
1.94213
1.94087
1.93878
1.9355
1.93216
1.92795
1.92432
1.92092
1.91765
2.60695
2.59417
2.58085
2.56735
2.55375
2.54027
2.52679
2.51308
2.49898
2.4845
2.46984
2.45511
2.44037
2.42567
2.4109
2.39617
2.38125
2.36635
2.35125
2.33625
2.32108
2.30599
2.29082
2.27577