/*--------------------------------*- C++ -*----------------------------------*\
  =========                 |
  \\      /  F ield         | OpenFOAM: The Open Source CFD Toolbox
   \\    /   O peration     | Website:  https://openfoam.org
    \\  /    A nd           | Version:  6
     \\/     M anipulation  |
\*---------------------------------------------------------------------------*/
FoamFile
{
    version     2.0;
    format      ascii;
    class       volVectorField;
    location    "8";
    object      U;
}
// * * * * * * * * * * * * * * * * * * * * * * * * * * * * * * * * * * * * * //

dimensions      [0 1 -1 0 0 0 0];

internalField   nonuniform List<vector> 
5250
(
(2.99996 3.85354e-08 0)
(2.99987 2.46778e-07 0)
(2.99967 7.68328e-07 0)
(2.99925 2.0925e-06 0)
(2.99815 4.85067e-06 0)
(2.99594 1.1698e-05 0)
(2.98974 2.52157e-05 0)
(2.97802 6.19149e-05 0)
(2.94108 0.000126024 0)
(2.85917 0.000341553 0)
(2.63064 0.000740233 0)
(1.90996 0.00209462 0)
(0.43632 0.00555023 0)
(-0.380734 0.0123676 0)
(0.0954885 0.0190791 0)
(0.47246 0.024861 0)
(0.572729 0.028193 0)
(0.521409 0.030496 0)
(0.419754 0.0314703 0)
(0.322711 0.0335677 0)
(0.26034 0.036886 0)
(0.208558 0.040605 0)
(0.152131 0.0444697 0)
(0.090375 0.0494001 0)
(0.0427999 0.0568068 0)
(2.99996 1.19322e-07 0)
(2.99987 7.65982e-07 0)
(2.99967 2.38221e-06 0)
(2.99925 6.5054e-06 0)
(2.99816 1.50709e-05 0)
(2.99596 3.65365e-05 0)
(2.98978 7.86901e-05 0)
(2.9781 0.000195544 0)
(2.9413 0.000395713 0)
(2.85969 0.00109481 0)
(2.63197 0.00239857 0)
(1.91404 0.0069104 0)
(0.443473 0.018603 0)
(-0.374933 0.0391066 0)
(0.104771 0.0558616 0)
(0.479873 0.0692727 0)
(0.575738 0.075883 0)
(0.522159 0.0796747 0)
(0.421168 0.0803645 0)
(0.326563 0.0836401 0)
(0.264591 0.0889367 0)
(0.211353 0.0937986 0)
(0.153319 0.0974287 0)
(0.0898929 0.100879 0)
(0.0413985 0.104691 0)
(2.99996 2.0757e-07 0)
(2.99988 1.33485e-06 0)
(2.99967 4.14914e-06 0)
(2.99925 1.13587e-05 0)
(2.99817 2.63179e-05 0)
(2.99599 6.41155e-05 0)
(2.98986 0.000138124 0)
(2.97826 0.00034683 0)
(2.94177 0.000699388 0)
(2.86085 0.00196806 0)
(2.6351 0.00435252 0)
(1.92416 0.0127116 0)
(0.462242 0.0345151 0)
(-0.356294 0.0695009 0)
(0.119137 0.0941563 0)
(0.488908 0.113947 0)
(0.578872 0.125083 0)
(0.522297 0.132684 0)
(0.422258 0.136606 0)
(0.33157 0.143783 0)
(0.270544 0.152979 0)
(0.215466 0.161029 0)
(0.155315 0.166842 0)
(0.0897972 0.171222 0)
(0.0398083 0.17374 0)
(2.99996 3.0191e-07 0)
(2.99988 1.94284e-06 0)
(2.99968 6.03892e-06 0)
(2.99926 1.65528e-05 0)
(2.99819 3.83717e-05 0)
(2.99604 9.37064e-05 0)
(2.98998 0.000202034 0)
(2.97853 0.000509536 0)
(2.94252 0.00102707 0)
(2.86276 0.00290827 0)
(2.64026 0.00645978 0)
(1.94103 0.0189328 0)
(0.493086 0.0512445 0)
(-0.326451 0.100571 0)
(0.138196 0.131964 0)
(0.500093 0.156669 0)
(0.583836 0.172383 0)
(0.524709 0.184595 0)
(0.42619 0.193531 0)
(0.339777 0.205483 0)
(0.279797 0.219075 0)
(0.222998 0.231354 0)
(0.160545 0.241019 0)
(0.0923751 0.24841 0)
(0.0395965 0.252193 0)
(2.99996 3.99522e-07 0)
(2.99988 2.57172e-06 0)
(2.99968 7.99393e-06 0)
(2.99928 2.19229e-05 0)
(2.99823 5.0836e-05 0)
(2.9961 0.000124256 0)
(2.99016 0.000268046 0)
(2.97889 0.000676666 0)
(2.94358 0.00136498 0)
(2.86543 0.00386646 0)
(2.64749 0.00860666 0)
(1.96454 0.0251845 0)
(0.53571 0.0677387 0)
(-0.285934 0.131885 0)
(0.161601 0.170329 0)
(0.513122 0.199158 0)
(0.590523 0.218736 0)
(0.52972 0.235179 0)
(0.433339 0.249322 0)
(0.351106 0.266334 0)
(0.292296 0.28468 0)
(0.234203 0.301711 0)
(0.169849 0.316099 0)
(0.0987679 0.327527 0)
(0.0416788 0.333771 0)
(2.99996 4.97827e-07 0)
(2.99988 3.20471e-06 0)
(2.99969 9.96216e-06 0)
(2.99929 2.73239e-05 0)
(2.99826 6.33748e-05 0)
(2.99619 0.000154909 0)
(2.99039 0.000334333 0)
(2.97936 0.000843051 0)
(2.94494 0.00170386 0)
(2.86885 0.00480936 0)
(2.65677 0.0107194 0)
(1.99443 0.0312199 0)
(0.590281 0.0834122 0)
(-0.234387 0.163376 0)
(0.189436 0.209917 0)
(0.527883 0.241834 0)
(0.598883 0.264685 0)
(0.537446 0.285078 0)
(0.444168 0.304552 0)
(0.366328 0.327195 0)
(0.308913 0.351206 0)
(0.249803 0.3742 0)
(0.183474 0.394654 0)
(0.10874 0.411606 0)
(0.0456114 0.421218 0)
(2.99996 5.9504e-07 0)
(2.99988 3.83044e-06 0)
(2.9997 1.19085e-05 0)
(2.99931 3.26614e-05 0)
(2.99831 7.5773e-05 0)
(2.9963 0.000185158 0)
(2.99067 0.000399837 0)
(2.97993 0.00100607 0)
(2.9466 0.00203881 0)
(2.87301 0.00572237 0)
(2.66798 0.0127682 0)
(2.03011 0.0369526 0)
(0.656608 0.0980884 0)
(-0.171551 0.195062 0)
(0.221814 0.250402 0)
(0.543592 0.284857 0)
(0.608877 0.310181 0)
(0.548314 0.334103 0)
(0.459573 0.359098 0)
(0.386697 0.388101 0)
(0.331232 0.418856 0)
(0.272041 0.449496 0)
(0.204012 0.478727 0)
(0.12439 0.504719 0)
(0.0526367 0.521052 0)
(2.99996 6.89258e-07 0)
(2.99989 4.43639e-06 0)
(2.99971 1.37926e-05 0)
(2.99933 3.78212e-05 0)
(2.99837 8.77329e-05 0)
(2.99642 0.000214296 0)
(2.99099 0.000462608 0)
(2.9806 0.00116459 0)
(2.94853 0.00234865 0)
(2.87786 0.00661081 0)
(2.68103 0.0147174 0)
(2.07122 0.0423384 0)
(0.734941 0.11244 0)
(-0.0967538 0.227526 0)
(0.259214 0.291257 0)
(0.560448 0.328268 0)
(0.620231 0.355034 0)
(0.562462 0.381767 0)
(0.480321 0.412228 0)
(0.413608 0.448338 0)
(0.361217 0.487279 0)
(0.303727 0.527547 0)
(0.23604 0.56949 0)
(0.151476 0.61158 0)
(0.0663221 0.643264 0)
(2.99996 7.80538e-07 0)
(2.99989 5.02632e-06 0)
(2.99972 1.56197e-05 0)
(2.99936 4.28538e-05 0)
(2.99844 9.93124e-05 0)
(2.99656 0.000242959 0)
(2.99136 0.000524063 0)
(2.98136 0.00130917 0)
(2.95074 0.00273442 0)
(2.88338 0.00721992 0)
(2.6958 0.017341 0)
(2.11761 0.0445404 0)
(0.83004 0.126527 0)
(-0.0064841 0.260578 0)
(0.303517 0.333122 0)
(0.579934 0.370521 0)
(0.63339 0.397835 0)
(0.580495 0.426941 0)
(0.507501 0.463115 0)
(0.448763 0.507202 0)
(0.4013 0.554495 0)
(0.349319 0.606365 0)
(0.287748 0.667439 0)
(0.202139 0.737586 0)
(0.0967084 0.810318 0)
(2.99997 8.75368e-07 0)
(2.9999 5.63982e-06 0)
(2.99973 1.75205e-05 0)
(2.99939 4.80956e-05 0)
(2.99851 0.000111394 0)
(2.99673 0.0002729 0)
(2.99177 0.000588722 0)
(2.98228 0.00145269 0)
(2.95303 0.00318329 0)
(2.89009 0.00773006 0)
(2.71022 0.0202423 0)
(2.16546 0.0457611 0)
(0.942051 0.13969 0)
(0.0951449 0.294756 0)
(0.35149 0.379509 0)
(0.599976 0.409071 0)
(0.648455 0.436072 0)
(0.603115 0.467666 0)
(0.542424 0.510148 0)
(0.492691 0.561989 0)
(0.452749 0.617101 0)
(0.414868 0.68281 0)
(0.372335 0.769249 0)
(0.30585 0.885835 0)
(0.173532 1.07239 0)
(2.99997 9.79386e-07 0)
(2.9999 6.30324e-06 0)
(2.99975 1.95929e-05 0)
(2.99942 5.36993e-05 0)
(2.99859 0.000124477 0)
(2.99691 0.00030374 0)
(2.99223 0.000656045 0)
(2.98334 0.00161142 0)
(2.95552 0.00348951 0)
(2.89764 0.00863782 0)
(2.72553 0.0215334 0)
(2.21734 0.0517442 0)
(1.07304 0.149723 0)
(0.214706 0.328623 0)
(0.401052 0.427081 0)
(0.611743 0.444774 0)
(0.664169 0.469212 0)
(0.630443 0.504291 0)
(0.584266 0.551643 0)
(0.544618 0.607305 0)
(0.517386 0.670259 0)
(0.5052 0.750085 0)
(0.506275 0.856308 0)
(0.540006 0.997828 0)
(0.578443 1.20285 0)
(2.99997 1.09713e-06 0)
(2.99991 7.05228e-06 0)
(2.99976 2.19352e-05 0)
(2.99946 6.00075e-05 0)
(2.99868 0.000139218 0)
(2.9971 0.000338105 0)
(2.99273 0.000730852 0)
(2.98444 0.0017912 0)
(2.95839 0.00377148 0)
(2.90512 0.00975586 0)
(2.74363 0.0223507 0)
(2.27544 0.0596844 0)
(1.21096 0.158593 0)
(0.348861 0.361803 0)
(0.453459 0.46993 0)
(0.6191 0.478921 0)
(0.681061 0.498246 0)
(0.661764 0.535472 0)
(0.628201 0.583814 0)
(0.601874 0.640846 0)
(0.594286 0.709668 0)
(0.610859 0.796634 0)
(0.650234 0.903411 0)
(0.742319 1.03051 0)
(0.878993 1.16315 0)
(2.99997 1.23571e-06 0)
(2.99992 7.945e-06 0)
(2.99978 2.47154e-05 0)
(2.9995 6.76424e-05 0)
(2.99879 0.000157019 0)
(2.99733 0.00038148 0)
(2.99329 0.000825401 0)
(2.98564 0.00201995 0)
(2.9616 0.00426281 0)
(2.91304 0.0109796 0)
(2.76395 0.024969 0)
(2.33848 0.0671932 0)
(1.35376 0.17416 0)
(0.489127 0.406142 0)
(0.503642 0.496909 0)
(0.621071 0.509103 0)
(0.696561 0.524114 0)
(0.693614 0.559274 0)
(0.673196 0.60604 0)
(0.662138 0.66398 0)
(0.673867 0.733886 0)
(0.710992 0.815244 0)
(0.770832 0.905164 0)
(0.872743 0.999882 0)
(1.01276 1.06925 0)
(2.99998 1.38376e-06 0)
(2.99992 8.90377e-06 0)
(2.9998 2.77014e-05 0)
(2.99955 7.59221e-05 0)
(2.9989 0.000176402 0)
(2.99758 0.000429557 0)
(2.99394 0.000930526 0)
(2.98705 0.00229267 0)
(2.96524 0.00477221 0)
(2.92226 0.0124832 0)
(2.78687 0.0284621 0)
(2.41 0.0758181 0)
(1.5231 0.194622 0)
(0.628711 0.462383 0)
(0.545911 0.513561 0)
(0.63484 0.531493 0)
(0.712796 0.542605 0)
(0.724641 0.575077 0)
(0.718272 0.620636 0)
(0.722184 0.676364 0)
(0.746157 0.740727 0)
(0.792475 0.808702 0)
(0.859472 0.877857 0)
(0.957077 0.942517 0)
(1.07889 0.982611 0)
(2.99998 1.50291e-06 0)
(2.99993 9.68449e-06 0)
(2.99983 3.01369e-05 0)
(2.9996 8.28052e-05 0)
(2.99903 0.000192832 0)
(2.99787 0.000471299 0)
(2.99466 0.00102529 0)
(2.98856 0.00252976 0)
(2.96941 0.00530541 0)
(2.93263 0.0137127 0)
(2.81284 0.0316774 0)
(2.49056 0.0836017 0)
(1.71986 0.210002 0)
(0.776254 0.519623 0)
(0.579121 0.534867 0)
(0.650119 0.544059 0)
(0.730105 0.551998 0)
(0.758031 0.583615 0)
(0.762891 0.627976 0)
(0.775847 0.678448 0)
(0.806238 0.732746 0)
(0.855496 0.787375 0)
(0.921709 0.839463 0)
(1.00945 0.884377 0)
(1.11506 0.909224 0)
(2.99998 1.52786e-06 0)
(2.99994 9.84869e-06 0)
(2.99985 3.06505e-05 0)
(2.99966 8.42892e-05 0)
(2.99917 0.000196403 0)
(2.99818 0.000480779 0)
(2.99545 0.00104471 0)
(2.99029 0.00259631 0)
(2.97383 0.00533003 0)
(2.94404 0.0145675 0)
(2.84086 0.0310701 0)
(2.57612 0.0917399 0)
(1.9271 0.220205 0)
(0.923422 0.57857 0)
(0.604598 0.566605 0)
(0.66873 0.561205 0)
(0.75391 0.563188 0)
(0.795172 0.590062 0)
(0.806867 0.629602 0)
(0.823136 0.672987 0)
(0.85522 0.717261 0)
(0.903909 0.760225 0)
(0.967198 0.799213 0)
(1.04541 0.831858 0)
(1.1358 0.849613 0)
(2.99998 1.427e-06 0)
(2.99995 9.19249e-06 0)
(2.99988 2.85977e-05 0)
(2.99972 7.85485e-05 0)
(2.99931 0.000182797 0)
(2.99847 0.000446697 0)
(2.99622 0.000966688 0)
(2.9918 0.00240681 0)
(2.97864 0.00485127 0)
(2.95374 0.0138545 0)
(2.87249 0.0269821 0)
(2.66929 0.087668 0)
(2.15983 0.204194 0)
(1.11688 0.570181 0)
(0.674083 0.587984 0)
(0.714942 0.587888 0)
(0.794613 0.582353 0)
(0.841668 0.59943 0)
(0.85472 0.63012 0)
(0.868969 0.664702 0)
(0.898213 0.699307 0)
(0.942921 0.732009 0)
(1.00125 0.760682 0)
(1.07074 0.783125 0)
(1.14843 0.795232 0)
(2.99999 1.25451e-06 0)
(2.99996 8.07473e-06 0)
(2.9999 2.51181e-05 0)
(2.99976 6.88458e-05 0)
(2.99943 0.000160289 0)
(2.99873 0.000389524 0)
(2.99689 0.000847102 0)
(2.99323 0.00205564 0)
(2.98268 0.00434223 0)
(2.96205 0.0111567 0)
(2.89857 0.0235339 0)
(2.74378 0.0668255 0)
(2.34697 0.156456 0)
(1.32166 0.448084 0)
(0.761112 0.576275 0)
(0.766308 0.609497 0)
(0.83257 0.609581 0)
(0.886425 0.614225 0)
(0.901984 0.633274 0)
(0.913363 0.657895 0)
(0.93777 0.682725 0)
(0.976829 0.705514 0)
(1.02819 0.725719 0)
(1.08881 0.739701 0)
(1.15577 0.746113 0)
(2.99999 1.08615e-06 0)
(2.99997 6.98293e-06 0)
(2.99992 2.17296e-05 0)
(2.99981 5.94248e-05 0)
(2.99953 0.000138416 0)
(2.99896 0.000334472 0)
(2.99744 0.000730144 0)
(2.99445 0.00174369 0)
(2.98568 0.00373828 0)
(2.96933 0.00903183 0)
(2.91626 0.0204338 0)
(2.79071 0.0504082 0)
(2.45768 0.123156 0)
(1.50761 0.33114 0)
(0.839585 0.600093 0)
(0.790995 0.641147 0)
(0.845923 0.646363 0)
(0.906709 0.635943 0)
(0.934432 0.640032 0)
(0.948821 0.653131 0)
(0.970418 0.668191 0)
(1.00528 0.682527 0)
(1.0504 0.694398 0)
(1.10233 0.701331 0)
(1.15992 0.702583 0)
(2.99999 9.50074e-07 0)
(2.99997 6.11081e-06 0)
(2.99993 1.90168e-05 0)
(2.99984 5.20552e-05 0)
(2.99962 0.000121256 0)
(2.99916 0.000293638 0)
(2.99792 0.000640059 0)
(2.9955 0.00153733 0)
(2.98833 0.00327636 0)
(2.97559 0.00815957 0)
(2.93124 0.0175534 0)
(2.83574 0.045988 0)
(2.56098 0.111686 0)
(1.73983 0.30499 0)
(0.988309 0.65139 0)
(0.806454 0.669099 0)
(0.844418 0.669272 0)
(0.904381 0.650612 0)
(0.947194 0.644688 0)
(0.970391 0.648445 0)
(0.994307 0.655467 0)
(1.02681 0.662432 0)
(1.06639 0.666041 0)
(1.11184 0.666636 0)
(1.16222 0.663602 0)
(2.99999 8.21711e-07 0)
(2.99998 5.29012e-06 0)
(2.99995 1.64606e-05 0)
(2.99987 4.51379e-05 0)
(2.9997 0.000105171 0)
(2.99933 0.000255656 0)
(2.99836 0.000556353 0)
(2.99644 0.00134843 0)
(2.99081 0.00284818 0)
(2.98086 0.00739096 0)
(2.94633 0.0147744 0)
(2.8751 0.0434891 0)
(2.66468 0.0974291 0)
(2.02244 0.287882 0)
(1.18744 0.673555 0)
(0.847825 0.690519 0)
(0.859832 0.675892 0)
(0.910529 0.654092 0)
(0.959842 0.640966 0)
(0.987743 0.638933 0)
(1.01224 0.640126 0)
(1.04154 0.63992 0)
(1.07685 0.637738 0)
(1.11813 0.634021 0)
(1.16348 0.628118 0)
(2.99999 6.77821e-07 0)
(2.99998 4.35988e-06 0)
(2.99996 1.35646e-05 0)
(2.9999 3.71379e-05 0)
(2.99976 8.64741e-05 0)
(2.99948 0.000209584 0)
(2.99873 0.000455602 0)
(2.99724 0.00109863 0)
(2.99302 0.00231635 0)
(2.98519 0.00594973 0)
(2.9602 0.0118581 0)
(2.9094 0.0337644 0)
(2.75997 0.0771694 0)
(2.32174 0.214954 0)
(1.47998 0.554186 0)
(0.953077 0.675912 0)
(0.908005 0.672281 0)
(0.938252 0.655751 0)
(0.983258 0.634026 0)
(1.01174 0.623404 0)
(1.03203 0.618353 0)
(1.05653 0.61373 0)
(1.08829 0.60889 0)
(1.12574 0.603096 0)
(1.16664 0.59568 0)
(3 5.4125e-07 0)
(2.99999 3.47791e-06 0)
(2.99997 1.08229e-05 0)
(2.99992 2.95701e-05 0)
(2.99982 6.88798e-05 0)
(2.99959 0.00016608 0)
(2.99901 0.000362285 0)
(2.99785 0.00086118 0)
(2.99459 0.00183664 0)
(2.98853 0.00446623 0)
(2.96881 0.00949244 0)
(2.9328 0.0235934 0)
(2.80944 0.0553897 0)
(2.48402 0.140401 0)
(1.75246 0.367105 0)
(1.02586 0.678307 0)
(0.917429 0.678937 0)
(0.944245 0.661887 0)
(0.989207 0.631507 0)
(1.02555 0.610147 0)
(1.04944 0.598666 0)
(1.07325 0.591093 0)
(1.10222 0.584114 0)
(1.13599 0.576453 0)
(1.17271 0.567572 0)
(3 4.28797e-07 0)
(2.99999 2.75545e-06 0)
(2.99997 8.5705e-06 0)
(2.99994 2.34039e-05 0)
(2.99986 5.45071e-05 0)
(2.99969 0.000131258 0)
(2.99924 0.000286297 0)
(2.99835 0.000678804 0)
(2.99583 0.0014455 0)
(2.99134 0.00354377 0)
(2.9757 0.0072132 0)
(2.94946 0.0198452 0)
(2.85257 0.0402812 0)
(2.61091 0.124656 0)
(2.03118 0.296112 0)
(1.15513 0.713368 0)
(0.901622 0.70215 0)
(0.92635 0.665374 0)
(0.975974 0.62725 0)
(1.02574 0.598285 0)
(1.05952 0.582003 0)
(1.08637 0.571552 0)
(1.11466 0.56252 0)
(1.14616 0.553188 0)
(1.17988 0.542968 0)
(3 2.9634e-07 0)
(2.99999 2.27039e-06 0)
(2.99998 6.30471e-06 0)
(2.99995 1.90175e-05 0)
(2.99989 3.99369e-05 0)
(2.99976 0.000106865 0)
(2.99941 0.000206301 0)
(2.99872 0.000557971 0)
(2.99682 0.00100872 0)
(2.99315 0.00299218 0)
(2.9821 0.00462971 0)
(2.96133 0.0177884 0)
(2.89427 0.0243837 0)
(2.73237 0.108133 0)
(2.3253 0.207164 0)
(1.37814 0.607734 0)
(0.941018 0.673887 0)
(0.926293 0.647689 0)
(0.97196 0.615931 0)
(1.02763 0.584656 0)
(1.06922 0.56485 0)
(1.0992 0.55206 0)
(1.12725 0.541619 0)
(1.15696 0.531291 0)
(1.1882 0.520268 0)
(3 2.2023e-07 0)
(2.99999 1.70249e-06 0)
(2.99999 4.70334e-06 0)
(2.99996 1.42746e-05 0)
(2.99992 2.98581e-05 0)
(2.99981 8.04297e-05 0)
(2.99957 0.00015487 0)
(2.99895 0.000421547 0)
(2.99773 0.000761949 0)
(2.99421 0.00222258 0)
(2.98787 0.00362366 0)
(2.96627 0.0124633 0)
(2.92695 0.0172546 0)
(2.79179 0.0690034 0)
(2.44008 0.124667 0)
(1.65654 0.365724 0)
(0.969959 0.62581 0)
(0.903515 0.620858 0)
(0.951034 0.599398 0)
(1.01389 0.568211 0)
(1.06722 0.547021 0)
(1.10414 0.533323 0)
(1.13466 0.522375 0)
(1.16437 0.511634 0)
(1.19448 0.500214 0)
(3 1.94777e-07 0)
(3 1.11347e-06 0)
(2.99999 3.7424e-06 0)
(2.99997 9.53076e-06 0)
(2.99994 2.3749e-05 0)
(2.99985 5.29573e-05 0)
(2.99967 0.000124893 0)
(2.99918 0.000268172 0)
(2.99823 0.00063457 0)
(2.99542 0.0013371 0)
(2.99061 0.00331726 0)
(2.97287 0.00662376 0)
(2.94342 0.0183999 0)
(2.83308 0.038946 0)
(2.55072 0.114032 0)
(1.89619 0.275757 0)
(1.03549 0.64069 0)
(0.843843 0.612169 0)
(0.898929 0.579911 0)
(0.975223 0.544994 0)
(1.04685 0.52242 0)
(1.09518 0.509619 0)
(1.1312 0.499931 0)
(1.16319 0.490158 0)
(1.194 0.479392 0)
(3 1.48191e-07 0)
(3 8.47103e-07 0)
(2.99999 2.84853e-06 0)
(2.99998 7.24123e-06 0)
(2.99995 1.8036e-05 0)
(2.99988 4.00962e-05 0)
(2.99973 9.4512e-05 0)
(2.99934 0.000201429 0)
(2.99856 0.000478763 0)
(2.99636 0.000990356 0)
(2.99223 0.00253477 0)
(2.9789 0.00475481 0)
(2.95551 0.0147693 0)
(2.87153 0.0279049 0)
(2.66665 0.0932988 0)
(2.16245 0.216626 0)
(1.17644 0.582752 0)
(0.809442 0.583591 0)
(0.858629 0.551327 0)
(0.941734 0.519973 0)
(1.02706 0.496861 0)
(1.08519 0.483898 0)
(1.12499 0.474912 0)
(1.15803 0.466233 0)
(1.18901 0.45658 0)
(3 1.34197e-07 0)
(3 6.31331e-07 0)
(2.99999 2.44422e-06 0)
(2.99998 5.52461e-06 0)
(2.99996 1.56429e-05 0)
(2.9999 3.08025e-05 0)
(2.99978 8.41204e-05 0)
(2.99947 0.000155395 0)
(2.99884 0.00044084 0)
(2.99707 0.00075315 0)
(2.99371 0.00237676 0)
(2.98317 0.00339813 0)
(2.96393 0.0138601 0)
(2.89853 0.0151759 0)
(2.74334 0.0796229 0)
(2.34118 0.127936 0)
(1.33114 0.416303 0)
(0.800603 0.513704 0)
(0.815497 0.509491 0)
(0.90206 0.493803 0)
(0.99708 0.47279 0)
(1.06513 0.458703 0)
(1.1103 0.449502 0)
(1.14556 0.44159 0)
(1.17731 0.43302 0)
(3 9.07774e-08 0)
(3 5.18373e-07 0)
(2.99999 1.75217e-06 0)
(2.99999 4.4714e-06 0)
(2.99997 1.1252e-05 0)
(2.99993 2.5298e-05 0)
(2.99982 6.03303e-05 0)
(2.99961 0.000131946 0)
(2.99902 0.000311014 0)
(2.99792 0.000685412 0)
(2.99438 0.00154981 0)
(2.98864 0.00363114 0)
(2.96572 0.00759402 0)
(2.92688 0.0183923 0)
(2.78172 0.0402477 0)
(2.40215 0.10774 0)
(1.54859 0.253157 0)
(0.796115 0.48247 0)
(0.755309 0.480542 0)
(0.842041 0.466373 0)
(0.944591 0.442721 0)
(1.02571 0.428711 0)
(1.07995 0.421045 0)
(1.11994 0.414788 0)
(1.154 0.4076 0)
(3 4.37168e-08 0)
(3 3.85486e-07 0)
(3 9.80597e-07 0)
(2.99999 3.19534e-06 0)
(2.99997 6.15715e-06 0)
(2.99994 1.7886e-05 0)
(2.99986 3.11465e-05 0)
(2.99966 9.3249e-05 0)
(2.99927 0.000147888 0)
(2.99806 0.000497433 0)
(2.99614 0.000650422 0)
(2.98827 0.00297557 0)
(2.97677 0.00240546 0)
(2.9271 0.0191135 0)
(2.82414 0.0150492 0)
(2.51888 0.101893 0)
(1.64182 0.206315 0)
(0.851125 0.492087 0)
(0.667466 0.45292 0)
(0.759736 0.419451 0)
(0.876706 0.393486 0)
(0.976498 0.3855 0)
(1.0406 0.383871 0)
(1.08458 0.381624 0)
(1.12046 0.376988 0)
(3 3.99711e-08 0)
(3 2.28636e-07 0)
(3 7.6567e-07 0)
(2.99999 1.94363e-06 0)
(2.99998 4.81741e-06 0)
(2.99994 1.06294e-05 0)
(2.99988 2.50791e-05 0)
(2.9997 5.25716e-05 0)
(2.99934 0.00012902 0)
(2.99832 0.000251545 0)
(2.99645 0.000740789 0)
(2.99008 0.00120901 0)
(2.98011 0.00479818 0)
(2.93901 0.00839124 0)
(2.85794 0.0319719 0)
(2.60874 0.0723292 0)
(1.83803 0.223312 0)
(0.948565 0.523439 0)
(0.596162 0.426125 0)
(0.698574 0.366313 0)
(0.836382 0.341403 0)
(0.952073 0.339891 0)
(1.01927 0.343705 0)
(1.061 0.345084 0)
(1.09421 0.342986 0)
(3 3.44693e-08 0)
(3 1.966e-07 0)
(3 6.6314e-07 0)
(2.99999 1.68831e-06 0)
(2.99998 4.22868e-06 0)
(2.99995 9.44347e-06 0)
(2.99989 2.24253e-05 0)
(2.99974 4.82611e-05 0)
(2.99943 0.000115355 0)
(2.99856 0.000243422 0)
(2.99692 0.000617512 0)
(2.99172 0.00119929 0)
(2.98301 0.00374258 0)
(2.95077 0.00656579 0)
(2.88625 0.0242636 0)
(2.69403 0.0517981 0)
(2.11689 0.164529 0)
(1.12142 0.419697 0)
(0.59438 0.381814 0)
(0.69457 0.347335 0)
(0.841606 0.322593 0)
(0.959509 0.316405 0)
(1.02092 0.3168 0)
(1.05465 0.316715 0)
(1.08134 0.314533 0)
(3 3.23621e-08 0)
(3 1.85037e-07 0)
(3 6.22177e-07 0)
(2.99999 1.58282e-06 0)
(2.99998 3.93342e-06 0)
(2.99996 8.76465e-06 0)
(2.99991 2.04515e-05 0)
(2.99977 4.38535e-05 0)
(2.99949 0.000101241 0)
(2.99872 0.000212548 0)
(2.99723 0.000501408 0)
(2.99273 0.00101115 0)
(2.98479 0.00261712 0)
(2.9569 0.00501243 0)
(2.90211 0.0139164 0)
(2.72966 0.0326569 0)
(2.2326 0.076896 0)
(1.23804 0.210951 0)
(0.554981 0.306159 0)
(0.651084 0.329153 0)
(0.802212 0.31823 0)
(0.935048 0.307026 0)
(1.00276 0.300267 0)
(1.03689 0.295971 0)
(1.06217 0.29227 0)
(3 3.92799e-08 0)
(3 1.7202e-07 0)
(3 7.0563e-07 0)
(2.99999 1.53011e-06 0)
(2.99998 4.58315e-06 0)
(2.99996 8.65941e-06 0)
(2.99992 2.53151e-05 0)
(2.9998 4.40543e-05 0)
(2.99956 0.000136834 0)
(2.99888 0.000202818 0)
(2.99757 0.000753187 0)
(2.99352 0.000768582 0)
(2.98651 0.00396044 0)
(2.96061 0.00176462 0)
(2.91306 0.0195965 0)
(2.7467 0.00774154 0)
(2.29321 0.0741095 0)
(1.33498 0.118601 0)
(0.558054 0.262431 0)
(0.610952 0.300952 0)
(0.751088 0.305745 0)
(0.888298 0.2924 0)
(0.96346 0.281054 0)
(1.003 0.274635 0)
(1.03106 0.270935 0)
(3 2.67608e-08 0)
(3 1.53387e-07 0)
(3 5.15533e-07 0)
(2.99999 1.31362e-06 0)
(2.99999 3.26639e-06 0)
(2.99997 7.29885e-06 0)
(2.99993 1.70745e-05 0)
(2.99985 3.69472e-05 0)
(2.99961 8.515e-05 0)
(2.99922 0.000182268 0)
(2.99769 0.000409012 0)
(2.99548 0.000919653 0)
(2.98556 0.00185437 0)
(2.97059 0.0043218 0)
(2.9079 0.0081394 0)
(2.76413 0.0208843 0)
(2.37381 0.0429714 0)
(1.2991 0.112344 0)
(0.554893 0.244994 0)
(0.552537 0.270398 0)
(0.686961 0.276725 0)
(0.825887 0.263727 0)
(0.912194 0.25377 0)
(0.960486 0.249898 0)
(0.993094 0.248669 0)
(3 1.45092e-08 0)
(3 1.35784e-07 0)
(3 3.30541e-07 0)
(3 1.11131e-06 0)
(2.99999 2.00543e-06 0)
(2.99997 6.098e-06 0)
(2.99994 9.31689e-06 0)
(2.99985 3.11111e-05 0)
(2.99967 3.63005e-05 0)
(2.99914 0.00017075 0)
(2.99818 7.86918e-05 0)
(2.99474 0.00108595 0)
(2.98947 -0.000122096 0)
(2.96618 0.0067454 0)
(2.9279 -0.00189707 0)
(2.77759 0.034676 0)
(2.37647 0.0168804 0)
(1.48458 0.114149 0)
(0.600636 0.240031 0)
(0.520763 0.242907 0)
(0.637908 0.235817 0)
(0.775276 0.223436 0)
(0.869139 0.219824 0)
(0.923222 0.221611 0)
(0.957595 0.224108 0)
(3 2.43921e-08 0)
(3 1.06093e-07 0)
(3 4.3906e-07 0)
(3 9.5262e-07 0)
(2.99999 2.92508e-06 0)
(2.99998 5.52094e-06 0)
(2.99995 1.68672e-05 0)
(2.99987 2.79804e-05 0)
(2.99972 9.72964e-05 0)
(2.99925 0.000125884 0)
(2.99846 0.00054156 0)
(2.99527 0.00041225 0)
(2.99064 0.00302623 0)
(2.96909 0.000330965 0)
(2.9345 0.0169374 0)
(2.79321 0.00057658 0)
(2.42085 0.0740952 0)
(1.58009 0.0951487 0)
(0.635164 0.25601 0)
(0.468186 0.234857 0)
(0.581963 0.205852 0)
(0.73072 0.18869 0)
(0.837172 0.189113 0)
(0.895619 0.19552 0)
(0.930154 0.200633 0)
(3 1.58335e-08 0)
(3 8.93703e-08 0)
(3 3.07568e-07 0)
(3 7.92347e-07 0)
(2.99999 2.05988e-06 0)
(2.99998 4.79826e-06 0)
(2.99996 1.15854e-05 0)
(2.99991 2.79879e-05 0)
(2.99974 6.08356e-05 0)
(2.9995 0.00015172 0)
(2.99841 0.000323771 0)
(2.99688 0.00072789 0)
(2.98928 0.00171279 0)
(2.97847 0.00350202 0)
(2.92759 0.00877035 0)
(2.81843 0.0192519 0)
(2.50008 0.0453508 0)
(1.56792 0.119139 0)
(0.674921 0.278505 0)
(0.407322 0.219455 0)
(0.541137 0.166637 0)
(0.716757 0.151092 0)
(0.841375 0.158736 0)
(0.904298 0.170632 0)
(0.936191 0.178391 0)
(3 7.41507e-09 0)
(3 4.82972e-08 0)
(3 1.49178e-07 0)
(3 4.16894e-07 0)
(2.99999 9.70874e-07 0)
(2.99998 2.45892e-06 0)
(2.99997 5.33151e-06 0)
(2.99991 1.39848e-05 0)
(2.99982 2.83969e-05 0)
(2.99946 8.11332e-05 0)
(2.99893 0.000160106 0)
(2.99645 0.000492125 0)
(2.99305 0.000966603 0)
(2.97543 0.00305794 0)
(2.94892 0.00632612 0)
(2.82639 0.0189286 0)
(2.52452 0.0517206 0)
(1.77074 0.129953 0)
(0.69522 0.338949 0)
(0.321225 0.219369 0)
(0.495042 0.135085 0)
(0.713321 0.11962 0)
(0.855577 0.131979 0)
(0.919291 0.146237 0)
(0.946967 0.155243 0)
(3 2.51447e-09 0)
(3 1.40271e-08 0)
(3 4.86461e-08 0)
(3 1.2288e-07 0)
(2.99999 3.2918e-07 0)
(2.99999 7.15907e-07 0)
(2.99997 2.12337e-06 0)
(2.99993 3.22637e-06 0)
(2.9998 1.42855e-05 0)
(2.9996 2.45138e-05 0)
(2.99875 8.93562e-05 0)
(2.99756 0.00017813 0)
(2.99153 0.00068599 0)
(2.98325 0.00135791 0)
(2.94244 0.00562271 0)
(2.86113 0.0117327 0)
(2.61024 0.04704 0)
(1.86443 0.129879 0)
(0.808876 0.336229 0)
(0.306774 0.195051 0)
(0.504539 0.117579 0)
(0.747435 0.109561 0)
(0.89161 0.11917 0)
(0.945548 0.129149 0)
(0.963002 0.13622 0)
(3 -2.44791e-09 0)
(3 -1.4941e-08 0)
(3 -4.75658e-08 0)
(3 -1.21487e-07 0)
(2.99999 -2.87984e-07 0)
(2.99999 -5.95405e-07 0)
(2.99997 -1.38793e-06 0)
(2.99992 -1.82624e-06 0)
(2.99983 -6.60392e-06 0)
(2.99952 3.21134e-07 0)
(2.99906 -5.09955e-06 0)
(2.99696 7.54807e-05 0)
(2.99407 0.000167538 0)
(2.97991 0.00114775 0)
(2.95847 0.0023639 0)
(2.86624 0.0111761 0)
(2.64825 0.0293112 0)
(2.07973 0.0875434 0)
(0.795819 0.252871 0)
(0.190183 0.160639 0)
(0.449281 0.12378 0)
(0.734497 0.116868 0)
(0.882988 0.116823 0)
(0.935715 0.118703 0)
(0.952122 0.121311 0)
(3 -7.1152e-09 0)
(3 -4.05736e-08 0)
(3 -1.37788e-07 0)
(3 -3.55996e-07 0)
(2.99999 -9.0055e-07 0)
(2.99999 -2.1189e-06 0)
(2.99996 -4.87845e-06 0)
(2.99992 -1.17833e-05 0)
(2.9998 -2.23845e-05 0)
(2.9996 -6.51854e-05 0)
(2.99881 -7.65691e-05 0)
(2.9977 -0.000261015 0)
(2.99248 -0.000129481 0)
(2.98521 -0.000413523 0)
(2.95191 0.000865068 0)
(2.88736 0.00234245 0)
(2.68804 0.0141266 0)
(2.09894 0.040922 0)
(0.924986 0.115396 0)
(0.214209 0.137469 0)
(0.459547 0.144406 0)
(0.730902 0.129574 0)
(0.881312 0.115995 0)
(0.936357 0.109007 0)
(0.95286 0.106882 0)
(3 -1.10732e-08 0)
(3 -3.64496e-08 0)
(3 -1.87617e-07 0)
(3 -3.44746e-07 0)
(2.99999 -1.26305e-06 0)
(2.99998 -2.06051e-06 0)
(2.99996 -7.46929e-06 0)
(2.99991 -1.08563e-05 0)
(2.99979 -4.41028e-05 0)
(2.99947 -4.61047e-05 0)
(2.99889 -0.000254237 0)
(2.99692 -0.000106897 0)
(2.99394 -0.00129084 0)
(2.98085 0.000726243 0)
(2.96105 -0.00592185 0)
(2.87936 0.00964495 0)
(2.6876 -0.0152428 0)
(2.18984 0.0291192 0)
(0.877836 0.0430764 0)
(0.187019 0.103559 0)
(0.427324 0.12875 0)
(0.693267 0.117374 0)
(0.848682 0.101934 0)
(0.911042 0.0923443 0)
(0.93238 0.0885063 0)
(3 -4.5528e-09 0)
(3 -2.61828e-08 0)
(3 -8.85184e-08 0)
(3 -2.25738e-07 0)
(2.99999 -5.65755e-07 0)
(2.99998 -1.27129e-06 0)
(2.99996 -2.99562e-06 0)
(2.9999 -6.58125e-06 0)
(2.99977 -1.50325e-05 0)
(2.99943 -3.30803e-05 0)
(2.99877 -6.68453e-05 0)
(2.99681 -0.000177619 0)
(2.99327 -0.00017075 0)
(2.98105 -0.000819658 0)
(2.96055 0.000380626 0)
(2.88288 -0.000442497 0)
(2.69883 0.00688067 0)
(2.22182 0.0165078 0)
(0.921669 0.0505291 0)
(0.224971 0.0960922 0)
(0.428148 0.116271 0)
(0.672178 0.103802 0)
(0.825479 0.0881721 0)
(0.890034 0.0772962 0)
(0.913158 0.0718237 0)
(3 -1.05965e-10 0)
(3 -1.00977e-09 0)
(3 -1.49671e-09 0)
(3 -2.05423e-09 0)
(2.99999 1.92275e-08 0)
(2.99998 7.50114e-08 0)
(2.99996 3.45681e-07 0)
(2.9999 9.53609e-07 0)
(2.99977 3.14197e-06 0)
(2.99943 7.70737e-06 0)
(2.99877 2.25827e-05 0)
(2.99684 5.20227e-05 0)
(2.99336 0.000144149 0)
(2.98136 0.000323953 0)
(2.96135 0.000889852 0)
(2.88536 0.00196041 0)
(2.70622 0.00590185 0)
(2.24025 0.0138484 0)
(0.963988 0.0410276 0)
(0.263377 0.0783211 0)
(0.436553 0.0938936 0)
(0.66106 0.0822735 0)
(0.811983 0.068652 0)
(0.877769 0.0593696 0)
(0.901902 0.0545544 0)
(3 3.49697e-09 0)
(3 1.91919e-08 0)
(3 6.92096e-08 0)
(3 1.79775e-07 0)
(2.99999 5.05201e-07 0)
(2.99998 1.20687e-06 0)
(2.99996 3.23761e-06 0)
(2.9999 7.6936e-06 0)
(2.99978 1.97241e-05 0)
(2.99945 4.74585e-05 0)
(2.9988 0.000105691 0)
(2.99691 0.000301255 0)
(2.99351 0.000445923 0)
(2.98172 0.00152443 0)
(2.9621 0.00155721 0)
(2.88743 0.00483664 0)
(2.71165 0.00592219 0)
(2.2553 0.0129861 0)
(0.995126 0.0339362 0)
(0.292939 0.0598584 0)
(0.442734 0.0685461 0)
(0.652284 0.0559853 0)
(0.801656 0.045159 0)
(0.867992 0.0398751 0)
(0.891842 0.0381631 0)
(3 7.1085e-09 0)
(3 1.18867e-08 0)
(3 1.08938e-07 0)
(3 1.33435e-07 0)
(2.99999 7.42803e-07 0)
(2.99998 8.3716e-07 0)
(2.99996 4.46641e-06 0)
(2.99991 4.56509e-06 0)
(2.9998 2.63e-05 0)
(2.9995 2.17173e-05 0)
(2.99898 0.000152929 0)
(2.99712 6.39251e-05 0)
(2.99445 0.000946839 0)
(2.98233 -0.00036755 0)
(2.96454 0.00592226 0)
(2.88944 -0.00527508 0)
(2.71473 0.0278247 0)
(2.25891 -0.00268266 0)
(1.02085 0.0592171 0)
(0.302629 0.0678873 0)
(0.438258 0.065594 0)
(0.642071 0.0412928 0)
(0.795391 0.0282921 0)
(0.864671 0.023229 0)
(0.888236 0.0215912 0)
(3 2.68953e-09 0)
(3 1.49626e-08 0)
(3 5.14527e-08 0)
(3 1.32106e-07 0)
(2.99999 3.44415e-07 0)
(2.99998 7.97868e-07 0)
(2.99996 1.94158e-06 0)
(2.99992 4.38606e-06 0)
(2.99979 9.98445e-06 0)
(2.99955 2.26706e-05 0)
(2.99883 4.52381e-05 0)
(2.99759 0.000104581 0)
(2.99309 0.000184121 0)
(2.98619 0.000363515 0)
(2.95726 0.000706577 0)
(2.90432 0.00129753 0)
(2.72272 0.00273441 0)
(2.22896 0.0063332 0)
(1.1894 0.0161201 0)
(0.414717 0.0308443 0)
(0.513183 0.0343537 0)
(0.687645 0.0271833 0)
(0.840171 0.0210142 0)
(0.908783 0.017214 0)
(0.928867 0.0151364 0)
(3 -1.72241e-09 0)
(3 1.79097e-08 0)
(3 -3.80388e-09 0)
(3 1.38215e-07 0)
(2.99999 -4.82209e-09 0)
(2.99998 9.0349e-07 0)
(2.99996 2.15704e-08 0)
(2.99991 5.93888e-06 0)
(2.99982 -5.4084e-07 0)
(2.99953 3.97439e-05 0)
(2.99905 -2.28674e-05 0)
(2.99724 0.00029764 0)
(2.99467 -0.000420053 0)
(2.9828 0.00204412 0)
(2.96537 -0.00416617 0)
(2.89124 0.0103617 0)
(2.71926 -0.0220277 0)
(2.27183 0.0152314 0)
(1.04893 -0.0278377 0)
(0.323 -0.0159739 0)
(0.435608 -0.00980688 0)
(0.628385 0.000326908 0)
(0.782732 0.00319934 0)
(0.85312 0.00453715 0)
(0.875754 0.00631017 0)
(1.06967 1.15078 0)
(1.22715 1.0363 0)
(0.902461 0.871156 0)
(0.0651886 0.562769 0)
(-0.323081 0.0260048 0)
(-0.350706 0.00208217 0)
(-0.494981 -0.00996341 0)
(-0.592331 -0.00719946 0)
(-0.65088 0.00443534 0)
(-0.682663 0.0178538 0)
(-0.704061 0.026324 0)
(-0.728218 0.0307073 0)
(-0.755795 0.0313074 0)
(-0.783768 0.0297217 0)
(-0.804729 0.0274276 0)
(-0.813667 0.0239956 0)
(-0.814367 0.0201447 0)
(-0.810734 0.0166275 0)
(-0.80597 0.0148864 0)
(-0.799816 0.014412 0)
(-0.790842 0.0141276 0)
(-0.776879 0.0134186 0)
(-0.757193 0.0123102 0)
(-0.732362 0.0110871 0)
(-0.703111 0.00981382 0)
(-0.670197 0.00838185 0)
(-0.634246 0.0066939 0)
(-0.595956 0.00467922 0)
(-0.555749 0.00228379 0)
(-0.514108 -0.00054176 0)
(-0.470314 -0.00401103 0)
(-0.424667 -0.00797873 0)
(-0.377566 -0.0113583 0)
(-0.329651 -0.0142562 0)
(-0.281701 -0.0167278 0)
(-0.233865 -0.0190452 0)
(-0.185712 -0.0212881 0)
(-0.137858 -0.0233106 0)
(-0.0901913 -0.0253781 0)
(-0.0422496 -0.0279548 0)
(0.00495401 -0.0310781 0)
(0.0610228 -0.0336472 0)
(0.101716 -0.0325612 0)
(0.142645 -0.0311391 0)
(0.18403 -0.0297472 0)
(0.22503 -0.0284759 0)
(0.265471 -0.0272716 0)
(0.304524 -0.0260245 0)
(0.341652 -0.024826 0)
(0.378366 -0.0240469 0)
(0.416853 -0.023884 0)
(0.455379 -0.0234518 0)
(0.492679 -0.0226999 0)
(0.528747 -0.021738 0)
(0.563991 -0.0207397 0)
(0.598513 -0.0198086 0)
(0.632368 -0.0189328 0)
(0.665538 -0.0181164 0)
(0.69807 -0.0173136 0)
(0.730018 -0.0165661 0)