/*--------------------------------*- C++ -*----------------------------------*\
  =========                 |
  \\      /  F ield         | OpenFOAM: The Open Source CFD Toolbox
   \\    /   O peration     | Website:  https://openfoam.org
    \\  /    A nd           | Version:  6
     \\/     M anipulation  |
\*---------------------------------------------------------------------------*/
FoamFile
{
    version     2.0;
    format      ascii;
    class       volScalarField;
    location    "8.5";
    object      Ma;
}
// * * * * * * * * * * * * * * * * * * * * * * * * * * * * * * * * * * * * * //

dimensions      [0 0 0 0 0 0 0];

internalField   nonuniform List<scalar> 
26250
(
3.047
3.07655
3.1045
3.12632
3.14781
3.16378
3.17734
3.17532
3.16664
3.11529
2.99821
2.65568
2.00187
0.949672
0.465004
0.522032
0.606917
0.654673
0.654639
0.615718
0.603408
0.572247
0.498102
0.358298
0.2473
3.04702
3.07653
3.10452
3.1263
3.14784
3.16376
3.1774
3.17543
3.16687
3.11565
2.99911
2.65668
2.00474
0.947603
0.449664
0.5104
0.598453
0.647552
0.649252
0.627265
0.605411
0.573821
0.504672
0.371307
0.264286
3.04707
3.07649
3.10458
3.12625
3.14789
3.1637
3.17752
3.17568
3.16729
3.11648
3.00082
2.66025
2.01133
0.957544
0.469737
0.526478
0.609712
0.658157
0.659444
0.639455
0.613253
0.579689
0.510809
0.377542
0.269016
3.04721
3.07633
3.10473
3.12607
3.14808
3.16351
3.17798
3.17633
3.1699
3.11842
3.00746
2.66611
2.0117
0.980938
0.483311
0.537178
0.617795
0.66505
0.66577
0.633947
0.610334
0.576402
0.506214
0.372081
0.263222
3.04428
3.07933
3.10156
3.12933
3.1447
3.16707
3.17431
3.17981
3.1666
3.13096
2.9897
2.70131
1.97769
0.966798
0.493822
0.546016
0.622739
0.671242
0.672105
0.645996
0.619754
0.583476
0.510948
0.375461
0.266457
3.04738
3.07615
3.10487
3.12591
3.14822
3.16342
3.17846
3.17755
3.17169
3.12268
3.02001
2.68378
2.04014
1.03688
0.531169
0.57406
0.643587
0.688825
0.688643
0.663906
0.636137
0.598213
0.525276
0.389852
0.28125
3.04402
3.07961
3.10129
3.12963
3.14445
3.16741
3.17435
3.18132
3.1686
3.13539
3.00106
2.72668
2.01667
1.02849
0.549625
0.584565
0.650546
0.698225
0.699556
0.679302
0.652527
0.615395
0.545075
0.412233
0.307667
3.04776
3.07578
3.10532
3.12547
3.14873
3.16303
3.17916
3.17844
3.17292
3.12633
3.02448
2.70901
2.10455
1.10032
0.594936
0.611611
0.669816
0.713561
0.715059
0.697142
0.672555
0.637921
0.573002
0.446958
0.354474
3.04815
3.0754
3.10575
3.12506
3.1492
3.1626
3.17997
3.17902
3.17303
3.12937
3.02842
2.72664
2.14828
1.13057
0.628423
0.631644
0.682543
0.725721
0.729266
0.714993
0.69474
0.665431
0.610237
0.501158
0.436648
3.04782
3.07572
3.10539
3.12542
3.14882
3.16301
3.1798
3.18014
3.17535
3.13347
3.03927
2.74652
2.1818
1.20163
0.677743
0.663701
0.706156
0.746836
0.751057
0.739832
0.724421
0.703352
0.665539
0.591748
0.594595
2.9677
2.95191
2.94121
2.93507
2.92962
2.92631
2.91996
2.90901
2.87142
2.80467
2.62136
2.22362
1.42628
0.289021
0.234604
0.0546999
0.272207
0.325358
0.281558
0.191226
0.185871
0.140447
0.0501889
0.0413357
0.102563
2.9677
2.95191
2.94122
2.93507
2.92962
2.92632
2.91999
2.90906
2.87158
2.80503
2.62208
2.22562
1.42865
0.287097
0.266138
0.0578894
0.272933
0.326392
0.293315
0.240003
0.208299
0.158594
0.0815493
0.0662953
0.119857
2.9677
2.95191
2.94122
2.93507
2.92963
2.92634
2.92006
2.90921
2.87197
2.80585
2.62421
2.2289
1.43621
0.300221
0.231629
0.0791531
0.28485
0.33423
0.302072
0.253286
0.223646
0.180878
0.121755
0.106962
0.134898
2.96771
2.95191
2.94122
2.93507
2.92962
2.92636
2.92017
2.90947
2.87259
2.80726
2.62752
2.23408
1.44848
0.313078
0.233584
0.0964515
0.294262
0.339666
0.30293
0.234359
0.234571
0.20607
0.165228
0.15177
0.15525
2.96756
2.95195
2.94113
2.93506
2.92957
2.92631
2.92012
2.90976
2.87584
2.8061
2.64152
2.22923
1.46537
0.349061
0.21395
0.117794
0.30755
0.350822
0.317699
0.273895
0.264769
0.240718
0.210848
0.198204
0.186814
2.9677
2.95192
2.9412
2.93508
2.92962
2.92643
2.92048
2.91018
2.87447
2.81137
2.63805
2.25188
1.49039
0.362817
0.195008
0.141687
0.323063
0.364819
0.336427
0.302319
0.297014
0.279659
0.258983
0.247646
0.230079
2.96754
2.95196
2.94111
2.93507
2.92958
2.92641
2.9205
2.91056
2.87834
2.81061
2.65392
2.25194
1.51692
0.412161
0.17044
0.169436
0.34224
0.382183
0.359355
0.335945
0.332497
0.322483
0.311285
0.303144
0.287445
2.9677
2.95193
2.94121
2.93511
2.92964
2.92657
2.92095
2.91111
2.87703
2.8169
2.65241
2.28125
1.55259
0.438256
0.150912
0.198813
0.361293
0.400389
0.383476
0.368799
0.370611
0.369368
0.368656
0.367107
0.36421
2.96774
2.95192
2.94124
2.93511
2.92968
2.92665
2.92127
2.9117
2.87868
2.8205
2.66139
2.30115
1.59136
0.482808
0.14602
0.228867
0.380656
0.419441
0.408764
0.402649
0.41074
0.419198
0.431837
0.445039
0.470678
2.96784
2.95181
2.94134
2.935
2.92978
2.92667
2.92171
2.91244
2.88138
2.82461
2.67464
2.32108
1.63611
0.547054
0.161316
0.262291
0.401974
0.439562
0.434776
0.436655
0.451536
0.471236
0.502076
0.540871
0.643639
2.986
2.96995
2.95132
2.93518
2.9194
2.90657
2.89245
2.87439
2.82736
2.74731
2.54338
2.10534
1.27189
0.0738565
0.548778
0.0673182
0.191831
0.246104
0.191821
0.118002
0.084728
0.0928576
0.104048
0.0742798
0.0578911
2.98596
2.96998
2.95128
2.93521
2.91937
2.90659
2.89241
2.87442
2.82734
2.74797
2.54385
2.10803
1.27806
0.080756
0.543969
0.0687866
0.202474
0.250169
0.191218
0.105403
0.124486
0.127466
0.138777
0.117129
0.0903264
2.98601
2.96994
2.95133
2.93517
2.9194
2.90656
2.89248
2.8745
2.82786
2.74851
2.54613
2.11128
1.28202
0.0885072
0.536761
0.0788226
0.216787
0.257721
0.193604
0.116363
0.16023
0.163972
0.178144
0.166238
0.137129
2.98598
2.96996
2.9513
2.93519
2.91938
2.90658
2.89247
2.87463
2.82826
2.75012
2.54882
2.11877
1.29671
0.106192
0.523516
0.0946969
0.234697
0.270495
0.208708
0.150073
0.198857
0.204123
0.220064
0.215866
0.186685
2.98596
2.96998
2.95128
2.93521
2.91936
2.9066
2.89248
2.87482
2.82888
2.75227
2.55276
2.12912
1.31695
0.130384
0.501164
0.113553
0.25526
0.287361
0.231442
0.191347
0.237983
0.246239
0.263935
0.266548
0.238804
2.986
2.96994
2.95132
2.93517
2.9194
2.90659
2.8926
2.87505
2.82996
2.75424
2.55817
2.13993
1.33431
0.158459
0.469182
0.135445
0.277874
0.307621
0.259842
0.235196
0.275988
0.290463
0.310435
0.32038
0.29691
2.98601
2.96993
2.95133
2.93517
2.91942
2.90661
2.8927
2.87532
2.83105
2.75693
2.56416
2.15382
1.35796
0.195002
0.429308
0.159911
0.301419
0.329871
0.291069
0.280529
0.31507
0.33762
0.361329
0.380261
0.365346
2.98606
2.96988
2.95138
2.93513
2.91948
2.90661
2.89286
2.87568
2.8326
2.75993
2.57191
2.16982
1.38424
0.238785
0.384643
0.186151
0.325427
0.353555
0.32448
0.325509
0.356808
0.387058
0.416512
0.447358
0.448322
2.98608
2.96986
2.9514
2.93512
2.9195
2.90663
2.89299
2.8761
2.83428
2.764
2.581
2.19074
1.42019
0.290125
0.339673
0.212881
0.348698
0.37742
0.358422
0.369178
0.40112
0.438122
0.477326
0.524145
0.55527
2.98621
2.96974
2.95152
2.935
2.91962
2.90657
2.89323
2.87689
2.83714
2.76872
2.59362
2.2142
1.46392
0.352984
0.301401
0.241255
0.371621
0.401178
0.391436
0.410597
0.445848
0.489885
0.543361
0.612481
0.723756
2.96771
2.95191
2.94122
2.93507
2.92962
2.92632
2.92
2.90911
2.87157
2.80503
2.62188
2.22294
1.42567
0.283568
0.263436
0.0510069
0.270782
0.328932
0.302991
0.257339
0.226061
0.184502
0.107498
0.0532812
0.123077
2.96761
2.95193
2.94116
2.93506
2.92958
2.92625
2.91985
2.90916
2.87423
2.80247
2.63245
2.21132
1.42681
0.303942
0.237781
0.0629377
0.276592
0.327081
0.283088
0.182957
0.181616
0.147996
0.0832704
0.0794093
0.116189
2.96769
2.95192
2.9412
2.93508
2.92961
2.92632
2.92005
2.90931
2.87209
2.8063
2.62489
2.22755
1.43713
0.298296
0.251938
0.0758298
0.28294
0.33086
0.288982
0.212863
0.20349
0.162446
0.115359
0.120413
0.133159
2.96765
2.95192
2.94118
2.93507
2.92959
2.92626
2.91993
2.90945
2.87497
2.80452
2.63744
2.22053
1.44966
0.331674
0.223113
0.0982277
0.295957
0.342199
0.307473
0.257483
0.233789
0.194066
0.157193
0.160497
0.159109
2.96767
2.95191
2.94118
2.93507
2.92959
2.92629
2.92004
2.90972
2.87559
2.8064
2.64207
2.22903
1.47133
0.356144
0.204924
0.118174
0.309211
0.353366
0.320981
0.27284
0.262721
0.232168
0.20346
0.203231
0.191711
2.96759
2.95194
2.94114
2.93507
2.92958
2.92633
2.92021
2.91007
2.87684
2.80816
2.64742
2.23901
1.49205
0.381528
0.185894
0.141014
0.325138
0.367485
0.34023
0.307192
0.296477
0.274703
0.253789
0.250662
0.234175
2.96769
2.95193
2.9412
2.93509
2.92964
2.92649
2.92067
2.91053
2.87551
2.81362
2.64414
2.26547
1.51835
0.396477
0.168067
0.167622
0.342421
0.383235
0.361427
0.338144
0.332533
0.320207
0.308188
0.304762
0.290524
2.96771
2.95193
2.94122
2.93512
2.92966
2.92658
2.92095
2.91104
2.87693
2.81662
2.6517
2.28187
1.55054
0.435846
0.15346
0.197989
0.360802
0.400388
0.384187
0.36989
0.3712
0.368766
0.367226
0.368003
0.366319
2.96774
2.95192
2.94124
2.93512
2.92968
2.92665
2.92126
2.91167
2.87863
2.82036
2.66116
2.30074
1.59105
0.483064
0.14752
0.229002
0.380303
0.419206
0.408959
0.403318
0.411426
0.419509
0.431625
0.445586
0.472163
2.96784
2.95181
2.94134
2.93501
2.92978
2.92666
2.9217
2.91242
2.88137
2.82458
2.67458
2.32102
1.63618
0.54756
0.162783
0.262701
0.401861
0.439551
0.435029
0.437322
0.452376
0.472082
0.502671
0.541312
0.644764
3.04716
3.07639
3.10467
3.12614
3.14801
3.16356
3.17777
3.17582
3.1691
3.11623
3.00193
2.65417
1.9817
0.959441
0.462381
0.521082
0.607825
0.659147
0.662302
0.648149
0.627243
0.593517
0.521838
0.386965
0.28162
3.045
3.0786
3.10233
3.12855
3.14548
3.16626
3.17495
3.17846
3.16514
3.12849
2.98338
2.69004
1.95104
0.918962
0.454628
0.513534
0.598885
0.649626
0.650956
0.612162
0.597151
0.562393
0.48254
0.341698
0.240808
3.04712
3.07643
3.10461
3.12618
3.14796
3.1636
3.17788
3.17607
3.16965
3.11742
3.00696
2.65962
1.9793
0.984621
0.482654
0.53661
0.618736
0.666835
0.667879
0.633611
0.612686
0.577418
0.497818
0.357632
0.248349
3.04594
3.07762
3.10334
3.12752
3.14651
3.16525
3.17622
3.17708
3.16447
3.12505
2.98455
2.68923
1.96634
0.960607
0.485795
0.539
0.618033
0.669071
0.671583
0.647775
0.621466
0.585507
0.509646
0.371711
0.260366
3.04651
3.07704
3.10392
3.12691
3.14713
3.1646
3.17691
3.17674
3.16451
3.12284
2.98839
2.69491
1.97682
0.982981
0.499178
0.548713
0.62426
0.674367
0.675415
0.648532
0.621916
0.586379
0.513692
0.378036
0.267753
3.04502
3.07856
3.10235
3.12852
3.14552
3.16623
3.17518
3.17864
3.16634
3.12835
2.99349
2.70973
1.99655
1.00274
0.520243
0.564002
0.635161
0.683941
0.684699
0.661855
0.633694
0.596995
0.525533
0.390768
0.281975
3.04734
3.0762
3.10487
3.12593
3.14826
3.16341
3.17851
3.17749
3.17162
3.12311
3.01736
2.69343
2.07444
1.06085
0.559424
0.591086
0.655417
0.69972
0.700208
0.679648
0.651746
0.615144
0.545784
0.413416
0.308928
3.04779
3.07577
3.10536
3.12546
3.14878
3.16298
3.17916
3.17814
3.17134
3.12576
3.02064
2.70904
2.11235
1.0868
0.587707
0.608198
0.667562
0.711257
0.713731
0.696773
0.672195
0.638323
0.574263
0.448521
0.356499
3.04815
3.0754
3.10575
3.12507
3.1492
3.1626
3.17994
3.17891
3.1728
3.12906
3.02774
2.72631
2.14756
1.1319
0.628517
0.631673
0.681988
0.724534
0.7283
0.714502
0.694607
0.665999
0.611947
0.50324
0.439046
3.04778
3.07576
3.10536
3.12543
3.14881
3.163
3.17978
3.17998
3.17535
3.1331
3.03894
2.74607
2.18175
1.20188
0.678673
0.664364
0.706293
0.746592
0.75075
0.739506
0.724189
0.703732
0.666774
0.593817
0.596966
3.04432
3.07928
3.10166
3.12923
3.14495
3.16703
3.17586
3.18476
3.17457
3.14879
3.03618
2.81345
2.16916
1.23921
0.719526
0.695469
0.731888
0.768335
0.773948
0.766269
0.757554
0.749983
0.740631
0.733625
0.779659
3.04766
3.07584
3.10525
3.1255
3.14876
3.16312
3.18021
3.18243
3.1789
3.14171
3.05831
2.79458
2.25798
1.35315
0.775361
0.734311
0.763017
0.792561
0.800119
0.796004
0.79392
0.79663
0.806495
0.831948
0.898507
3.04474
3.07887
3.10212
3.12876
3.14548
3.16656
3.17698
3.18666
3.178
3.15606
3.05772
2.86534
2.29262
1.4165
0.844599
0.78463
0.801925
0.823391
0.832517
0.831046
0.833077
0.84156
0.859203
0.893639
0.960155
3.04751
3.07603
3.1051
3.12568
3.14864
3.16334
3.18048
3.18441
3.18177
3.14972
3.07146
2.85054
2.34479
1.52129
0.892021
0.8148
0.826528
0.843935
0.856733
0.860777
0.868168
0.881117
0.902867
0.938783
1
3.04717
3.0764
3.10474
3.12607
3.14828
3.16379
3.18048
3.18632
3.18428
3.15775
3.09474
2.8875
2.4919
1.62599
0.974746
0.853615
0.850389
0.862069
0.876231
0.884871
0.895873
0.911787
0.935362
0.969825
1.02404
3.04549
3.07811
3.10296
3.12788
3.1465
3.16568
3.17922
3.19038
3.18508
3.16789
3.10038
2.95161
2.54283
1.76216
1.06013
0.887277
0.875809
0.884963
0.899611
0.911273
0.923234
0.939948
0.962921
0.995123
1.04078
3.04554
3.07809
3.10297
3.12789
3.1465
3.16572
3.17928
3.19094
3.18652
3.17205
3.11903
2.98847
2.66282
1.95447
1.16523
0.923582
0.904754
0.912784
0.928006
0.940147
0.951583
0.966438
0.987719
1.01611
1.05495
3.04569
3.07792
3.10313
3.12771
3.14665
3.16559
3.1795
3.19102
3.18746
3.17687
3.13822
3.02057
2.77729
2.11592
1.33208
0.979162
0.941133
0.947819
0.962164
0.974756
0.983867
0.996209
1.01368
1.03759
1.06931
3.04505
3.07858
3.10244
3.12848
3.14585
3.16652
3.17879
3.1934
3.19289
3.1873
3.15177
3.06451
2.83537
2.32202
1.50372
1.01484
0.954278
0.964159
0.981269
0.997821
1.00906
1.02073
1.03701
1.05793
1.0842
3.04777
3.07577
3.10537
3.12543
3.14894
3.16336
3.18203
3.19076
3.19861
3.19123
3.16911
3.08754
2.90994
2.4355
1.61224
1.04772
0.956643
0.960516
0.978262
0.999069
1.01632
1.03138
1.04882
1.06928
1.09318
3.04569
3.07792
3.10311
3.12779
3.14655
3.16591
3.17959
3.19412
3.19915
3.19747
3.17462
3.11995
2.94397
2.59835
1.82038
1.15186
0.981929
0.971352
0.982564
1.00058
1.01974
1.03594
1.05308
1.0726
1.09556
3.04704
3.07652
3.10456
3.12627
3.14809
3.1643
3.18124
3.19288
3.20248
3.19845
3.18365
3.13219
3.00218
2.69997
1.98695
1.26522
1.02101
0.994477
0.998613
1.01166
1.02819
1.0423
1.05722
1.07517
1.09675
3.04625
3.07734
3.10371
3.12716
3.14715
3.16531
3.18026
3.19407
3.20235
3.20178
3.1903
3.15077
3.05319
2.79111
2.24919
1.42266
1.05842
1.01231
1.01468
1.02627
1.04143
1.0537
1.06635
1.08166
1.1007
3.04544
3.07804
3.10295
3.12782
3.14645
3.1659
3.17968
3.19476
3.2025
3.20396
3.19666
3.16914
3.08331
2.89303
2.38564
1.58086
1.07243
0.99463
0.999593
1.01574
1.03513
1.05294
1.06851
1.08473
1.10282
3.04498
3.07861
3.10236
3.12857
3.14569
3.16684
3.17881
3.19584
3.20222
3.20805
3.2014
3.17908
3.10691
2.94732
2.50926
1.73752
1.12056
0.9818
0.979204
0.994673
1.01639
1.03885
1.05811
1.0768
1.09644
3.04526
3.07836
3.10264
3.12825
3.14605
3.16643
3.17925
3.19546
3.20314
3.20956
3.20447
3.18594
3.13102
2.98974
2.65387
1.93389
1.20944
0.990913
0.974649
0.98459
1.00338
1.02581
1.04559
1.06512
1.08558
3.04558
3.07802
3.10302
3.12789
3.14642
3.16609
3.17971
3.19509
3.20416
3.21154
3.20737
3.19343
3.15137
3.03329
2.77637
2.13899
1.33629
1.01495
0.9782
0.985581
1.00272
1.02419
1.04281
1.06103
1.08
3.04568
3.07791
3.10317
3.1277
3.14665
3.16582
3.18004
3.19487
3.20528
3.21406
3.2109
3.2015
3.16618
3.0746
2.84434
2.34299
1.5015
1.0319
0.964047
0.97221
0.989885
1.01315
1.0348
1.05409
1.07299
3.04543
3.07811
3.10293
3.12786
3.14646
3.16595
3.17987
3.19508
3.20523
3.21506
3.21396
3.2081
3.1775
3.10034
2.88918
2.45709
1.60792
1.02781
0.928808
0.937109
0.957439
0.983804
1.01117
1.03424
1.05538
3.04557
3.07803
3.10298
3.12787
3.14648
3.16598
3.17987
3.1952
3.2052
3.21594
3.21621
3.21272
3.18709
3.12125
2.93715
2.56353
1.74938
1.08073
0.915273
0.912673
0.929299
0.956715
0.987523
1.01275
1.03476
3.04582
3.07776
3.10329
3.12753
3.14681
3.16562
3.18009
3.19507
3.20522
3.21655
3.21861
3.21589
3.19505
3.13935
2.98855
2.67033
1.94373
1.17085
0.927925
0.913045
0.926264
0.953849
0.984808
1.00836
1.02788
3.04581
3.0778
3.10324
3.12765
3.1467
3.16579
3.18002
3.1951
3.20542
3.21679
3.22029
3.21912
3.20173
3.15592
3.03115
2.76541
2.11753
1.26171
0.920788
0.899652
0.918257
0.950833
0.984258
1.00687
1.02411
3.04599
3.07761
3.10343
3.12745
3.1469
3.1656
3.18021
3.19491
3.20564
3.21678
3.2215
3.22067
3.20676
3.16656
3.05919
2.81698
2.20618
1.35005
0.897775
0.86419
0.889479
0.927626
0.965295
0.989064
1.00626
3.04612
3.07748
3.10357
3.12732
3.14703
3.16546
3.18034
3.19478
3.20581
3.21679
3.22228
3.22173
3.20937
3.17464
3.07337
2.857
2.26505
1.4034
0.874441
0.826097
0.851713
0.890716
0.930614
0.955822
0.97398
3.04631
3.0773
3.10374
3.12717
3.14713
3.1654
3.1804
3.19471
3.20593
3.21674
3.22277
3.22236
3.21161
3.17908
3.08568
2.87719
2.32049
1.46104
0.878848
0.807182
0.82634
0.859196
0.896037
0.920948
0.939517
3.04638
3.07721
3.10386
3.12703
3.14734
3.16516
3.18065
3.19446
3.20611
3.21664
3.22353
3.2231
3.213
3.18103
3.09568
2.88614
2.37169
1.50628
0.895747
0.798526
0.810181
0.836828
0.870207
0.896366
0.915614
3.04624
3.07706
3.10392
3.12681
3.1474
3.16502
3.18071
3.19436
3.20624
3.21663
3.22383
3.22364
3.21505
3.18889
3.10706
2.93149
2.43201
1.61235
0.922712
0.790192
0.795621
0.818798
0.852574
0.882249
0.903326
3.0464
3.07698
3.104
3.12676
3.14749
3.16495
3.1808
3.1943
3.20629
3.21655
3.22387
3.2236
3.21656
3.1901
3.12092
2.93952
2.50862
1.67754
0.957362
0.780241
0.784758
0.811362
0.851722
0.886463
0.909473
3.04574
3.07779
3.10326
3.12754
3.14688
3.16547
3.18048
3.19453
3.20619
3.21662
3.22391
3.2238
3.21867
3.19651
3.13548
2.97855
2.59896
1.82476
1.00704
0.778864
0.789738
0.826801
0.875569
0.909985
0.928823
3.04553
3.07809
3.10295
3.12795
3.14645
3.16602
3.17984
3.19531
3.20532
3.21761
3.22302
3.22573
3.22117
3.20119
3.15035
3.00808
2.6885
1.96663
1.08273
0.762917
0.770686
0.811345
0.866711
0.902389
0.920012
3.04566
3.07797
3.10306
3.12784
3.14649
3.16603
3.17975
3.19541
3.20525
3.21776
3.22323
3.22794
3.22348
3.20722
3.15612
3.03716
2.71483
2.08547
1.14168
0.716377
0.716144
0.765571
0.831047
0.874486
0.895248
3.04561
3.078
3.10306
3.12782
3.14653
3.16598
3.17981
3.1953
3.20537
3.2176
3.22354
3.22756
3.22343
3.20661
3.16139
3.0336
2.73972
2.07476
1.16047
0.689061
0.686124
0.739696
0.8091
0.856606
0.879981
3.04579
3.07785
3.10319
3.12772
3.14662
3.16589
3.17991
3.19521
3.20547
3.21752
3.22392
3.22898
3.2252
3.21028
3.16337
3.05031
2.74454
2.14409
1.16415
0.670116
0.66766
0.722419
0.793066
0.842894
0.868311
3.04588
3.07776
3.10328
3.1276
3.14671
3.16576
3.17999
3.19512
3.20551
3.2175
3.22403
3.22925
3.22557
3.21094
3.16468
3.05264
2.74911
2.15653
1.16865
0.664792
0.661278
0.715464
0.785506
0.835956
0.862252
3.04597
3.07761
3.10336
3.1275
3.14676
3.1657
3.18005
3.19508
3.20557
3.2175
3.22409
3.22946
3.22575
3.21144
3.16488
3.05586
2.749
2.16608
1.1682
0.65815
0.652391
0.706595
0.777287
0.828197
0.8551
3.04602
3.07748
3.10348
3.12736
3.14688
3.1656
3.18015
3.19503
3.20561
3.21753
3.22406
3.2292
3.2256
3.21109
3.1648
3.05447
2.75038
2.16414
1.17511
0.65905
0.651264
0.70535
0.775384
0.825396
0.85224
3.04607
3.07751
3.10346
3.12739
3.14686
3.16557
3.1802
3.19495
3.20562
3.21758
3.22368
3.22797
3.2241
3.20827
3.1646
3.04316
2.758
2.11904
1.18133
0.665863
0.656822
0.710874
0.779945
0.828604
0.855104
3.04594
3.0775
3.10364
3.12715
3.14717
3.16539
3.18022
3.19505
3.20545
3.21762
3.22379
3.22887
3.22511
3.21095
3.16373
3.05711
2.74493
2.17387
1.17073
0.663271
0.652071
0.705062
0.773544
0.821208
0.847846
3.04612
3.07728
3.10378
3.12705
3.1471
3.16556
3.18002
3.19517
3.2055
3.21758
3.22352
3.22819
3.22408
3.20952
3.16262
3.05331
2.74923
2.17418
1.17012
0.671345
0.658971
0.709778
0.773834
0.816059
0.837779
3.04627
3.07707
3.10396
3.12688
3.14726
3.16537
3.1803
3.19485
3.20577
3.21737
3.22344
3.22704
3.22283
3.20734
3.16272
3.04725
2.75796
2.15435
1.16196
0.651944
0.640913
0.692746
0.756863
0.797143
0.819053
2.96814
2.95139
2.94172
2.93449
2.93028
2.92595
2.92216
2.90973
2.88897
2.82409
2.6834
2.3672
1.67006
0.656105
0.195349
0.303515
0.425981
0.460774
0.461023
0.469643
0.4918
0.524843
0.576235
0.650641
0.808403
2.96832
2.95134
2.94182
2.93449
2.93033
2.92603
2.92227
2.91062
2.89091
2.83198
2.6935
2.40146
1.71677
0.72103
0.244212
0.344848
0.444285
0.480241
0.486323
0.500293
0.529609
0.574894
0.640087
0.730893
0.874319
2.96813
2.95142
2.94171
2.93452
2.93028
2.92606
2.9225
2.91146
2.89311
2.83492
2.70968
2.42244
1.7721
0.810157
0.311529
0.38286
0.454819
0.495827
0.508748
0.528312
0.56402
0.616682
0.685432
0.773912
0.888448
2.9682
2.95145
2.94172
2.93461
2.93027
2.92624
2.92291
2.91341
2.89552
2.84725
2.72353
2.46986
1.83598
0.877634
0.38158
0.408619
0.462266
0.506554
0.526379
0.551761
0.592488
0.647563
0.714162
0.795328
0.893245
2.968
2.95165
2.94153
2.93482
2.93004
2.92667
2.92286
2.91673
2.8968
2.8531
2.75024
2.4736
1.9423
0.991985
0.466285
0.425773
0.469319
0.514393
0.540109
0.569774
0.61336
0.667112
0.730546
0.803899
0.889391
2.96806
2.95153
2.94164
2.93463
2.93024
2.92633
2.92317
2.9152
2.90164
2.85776
2.76335
2.54569
2.00556
1.14475
0.552167
0.43906
0.474091
0.520788
0.551791
0.583623
0.626591
0.679183
0.73807
0.805772
0.880051
2.96805
2.95154
2.94162
2.93465
2.93023
2.9264
2.92342
2.91661
2.90486
2.86513
2.78823
2.59365
2.1328
1.3176
0.650421
0.457616
0.484687
0.53027
0.564216
0.594986
0.635295
0.684034
0.740279
0.801936
0.8678
2.96769
2.95189
2.94127
2.93501
2.92987
2.9269
2.92353
2.9199
2.90665
2.87927
2.81361
2.63516
2.29147
1.51621
0.765808
0.499191
0.514957
0.55023
0.581898
0.608191
0.643069
0.686733
0.737805
0.794638
0.852719
2.96757
2.95198
2.94116
2.9351
2.92978
2.92701
2.92362
2.9205
2.90892
2.88841
2.8309
2.68977
2.40156
1.75746
0.892756
0.550879
0.554637
0.578044
0.605603
0.624932
0.651632
0.688944
0.734026
0.783635
0.835741
2.9678
2.95185
2.94132
2.93503
2.92989
2.92701
2.92378
2.92096
2.91111
2.89473
2.84122
2.73208
2.47187
1.88452
1.00885
0.585638
0.57663
0.600752
0.625599
0.641315
0.661273
0.691724
0.729421
0.771911
0.81808
2.96768
2.95189
2.94125
2.93503
2.92988
2.92695
2.92407
2.92154
2.91572
2.89717
2.85837
2.76356
2.51349
2.03684
1.13252
0.654418
0.583276
0.606241
0.630734
0.650347
0.669013
0.693932
0.724402
0.760361
0.800775
2.96808
2.95156
2.9416
2.93473
2.93019
2.92671
2.92438
2.9217
2.91718
2.90127
2.87013
2.79069
2.58399
2.18382
1.33242
0.744676
0.583445
0.600945
0.625967
0.651925
0.671368
0.692729
0.718861
0.750213
0.785485
2.96787
2.95173
2.94141
2.93489
2.93
2.9269
2.92413
2.9221
2.91703
2.90745
2.87931
2.81255
2.66261
2.28651
1.55488
0.854218
0.610164
0.607241
0.62569
0.653091
0.671445
0.690499
0.714242
0.742229
0.773421
2.96823
2.95134
2.94178
2.93449
2.93038
2.92649
2.92461
2.92187
2.91923
2.90845
2.88962
2.83306
2.70793
2.42475
1.82303
0.990223
0.641057
0.620056
0.635244
0.657974
0.673882
0.690623
0.711772
0.736658
0.764276
2.96817
2.95139
2.94173
2.93453
2.93035
2.92653
2.92462
2.92203
2.91975
2.91065
2.89547
2.84639
2.74468
2.50352
1.94969
1.11334
0.664823
0.614957
0.633382
0.654659
0.673454
0.690523
0.710122
0.732726
0.757606
2.96815
2.95143
2.94171
2.93457
2.93033
2.92656
2.92461
2.92215
2.92006
2.91255
2.90029
2.85806
2.77609
2.57547
2.08264
1.28596
0.720112
0.593721
0.612615
0.637537
0.664603
0.685492
0.706132
0.728461
0.752077
2.9681
2.95148
2.94167
2.93463
2.93028
2.92663
2.92459
2.92229
2.92045
2.91454
2.90432
2.8694
2.80389
2.6298
2.23736
1.47898
0.801402
0.586124
0.592919
0.619317
0.653621
0.67795
0.700144
0.723176
0.746656
2.96781
2.95177
2.94139
2.93489
2.93002
2.9269
2.92433
2.9227
2.92064
2.91754
2.90606
2.88465
2.82661
2.6831
2.38827
1.7548
0.912714
0.601117
0.590559
0.614547
0.6489
0.673896
0.696315
0.719158
0.742219
2.96802
2.95156
2.94159
2.93469
2.93022
2.92668
2.92455
2.92246
2.921
2.91733
2.91042
2.88651
2.84287
2.72286
2.44916
1.88576
0.968554
0.584734
0.566468
0.597411
0.633626
0.664305
0.690081
0.713864
0.736761
2.96802
2.95156
2.94159
2.93469
2.93022
2.92669
2.92457
2.9225
2.92113
2.91804
2.91222
2.89083
2.85437
2.74959
2.5045
2.01564
1.06917
0.602885
0.524923
0.557853
0.601093
0.644565
0.677356
0.704139
0.728119
2.96797
2.9516
2.94155
2.93471
2.9302
2.9267
2.92456
2.92252
2.9213
2.91883
2.91382
2.89526
2.86453
2.77282
2.56532
2.13081
1.22918
0.656618
0.477263
0.50898
0.564431
0.621188
0.660323
0.689905
0.715529
2.9677
2.95188
2.94127
2.93501
2.9299
2.92701
2.92426
2.92284
2.92112
2.91957
2.9152
2.90032
2.87338
2.7984
2.61344
2.24255
1.43566
0.724804
0.457206
0.486903
0.551421
0.612106
0.650464
0.678372
0.702959
2.96778
2.95181
2.94134
2.93496
2.92996
2.92696
2.92431
2.92283
2.92119
2.91984
2.91619
2.90294
2.88125
2.81315
2.67332
2.34627
1.65714
0.803399
0.455202
0.488246
0.548442
0.609396
0.645376
0.670244
0.692733
2.96785
2.95175
2.9414
2.93491
2.93
2.92693
2.92433
2.92283
2.92122
2.91996
2.91682
2.90518
2.88585
2.82601
2.69456
2.39707
1.75274
0.838603
0.4199
0.462477
0.523446
0.590547
0.629191
0.654845
0.677156
2.96797
2.95164
2.94151
2.93481
2.9301
2.92684
2.92443
2.92273
2.92133
2.91992
2.91721
2.90655
2.88934
2.83353
2.71566
2.44154
1.82013
0.899096
0.408078
0.425065
0.488649
0.558033
0.601078
0.630204
0.654438
2.96789
2.95171
2.94144
2.93487
2.93004
2.9269
2.92436
2.92281
2.92119
2.92005
2.91676
2.91016
2.89175
2.84415
2.74244
2.4483
1.89832
0.956323
0.417541
0.383565
0.442286
0.513443
0.564601
0.599378
0.626805
2.96815
2.95144
2.94169
2.93461
2.93027
2.92665
2.92458
2.92256
2.92148
2.91982
2.91786
2.90987
2.89458
2.85166
2.74302
2.51071
1.9157
1.01313
0.434745
0.336931
0.389881
0.469318
0.532449
0.573256
0.602987
2.96793
2.95167
2.94147
2.93483
2.93006
2.92687
2.92437
2.92279
2.92123
2.92013
2.9174
2.91204
2.89617
2.85683
2.76997
2.51699
2.04681
1.10888
0.46966
0.28626
0.340062
0.440663
0.515397
0.559787
0.590286
2.96786
2.95172
2.94142
2.93487
2.93003
2.92689
2.92436
2.92282
2.92124
2.92017
2.91761
2.91295
2.89702
2.86302
2.78035
2.55743
2.13093
1.21168
0.505743
0.246434
0.313134
0.44084
0.522798
0.565962
0.593396
2.96815
2.95144
2.9417
2.93459
2.93032
2.92661
2.92465
2.92252
2.92156
2.91991
2.91846
2.91207
2.90126
2.8651
2.792
2.60997
2.17136
1.37626
0.53446
0.22453
0.308101
0.455169
0.539366
0.577625
0.599342
2.96812
2.95147
2.94167
2.93462
2.93029
2.92663
2.92463
2.92254
2.92156
2.91998
2.91869
2.91305
2.90316
2.87097
2.80419
2.63787
2.24428
1.49985
0.560851
0.201088
0.300689
0.458183
0.542465
0.577802
0.5964
2.96819
2.95144
2.94169
2.93464
2.93026
2.9267
2.92454
2.92266
2.9214
2.92031
2.91877
2.91497
2.90366
2.87713
2.81663
2.64482
2.3099
1.58447
0.560299
0.144772
0.273605
0.437929
0.528727
0.567414
0.587267
2.96811
2.95149
2.94166
2.93464
2.93028
2.92665
2.92462
2.92255
2.92155
2.92002
2.91875
2.91365
2.90482
2.87449
2.81662
2.66268
2.30672
1.59931
0.547787
0.102012
0.246729
0.416232
0.511607
0.554816
0.576951
2.96813
2.95147
2.94167
2.93462
2.93029
2.92663
2.92463
2.92253
2.92156
2.92
2.9187
2.91352
2.90499
2.8741
2.81871
2.66435
2.31854
1.6169
0.549688
0.0849214
0.229535
0.397835
0.496692
0.543462
0.567526
2.96813
2.95146
2.94167
2.93461
2.93028
2.92663
2.92462
2.92254
2.92155
2.92003
2.91877
2.91375
2.90513
2.87552
2.8189
2.66789
2.31796
1.61509
0.560366
0.0775648
0.220295
0.386688
0.486054
0.534876
0.560541
2.96813
2.95145
2.94168
2.9346
2.93029
2.92662
2.92463
2.92254
2.92156
2.92004
2.91881
2.91383
2.9053
2.87563
2.81983
2.66917
2.32414
1.62099
0.564668
0.0742338
0.214362
0.379357
0.479005
0.529624
0.557267
2.96823
2.95132
2.94179
2.93448
2.93038
2.92653
2.92468
2.92251
2.92152
2.92022
2.91892
2.91533
2.90479
2.87985
2.8237
2.66089
2.34935
1.63157
0.580191
0.0738625
0.207797
0.372452
0.473866
0.527553
0.558068
2.96811
2.95144
2.9417
2.93458
2.93032
2.92662
2.92462
2.92255
2.92154
2.92005
2.91895
2.9141
2.90541
2.87779
2.81779
2.6718
2.3196
1.60323
0.577162
0.0683443
0.207076
0.37422
0.473942
0.528951
0.560884
2.96819
2.95131
2.94178
2.9345
2.93031
2.92668
2.92447
2.92275
2.9213
2.92035
2.91884
2.91534
2.90347
2.87988
2.81976
2.66171
2.35006
1.62301
0.595776
0.0728993
0.202416
0.368001
0.469488
0.526409
0.558458
2.9682
2.95129
2.94179
2.9345
2.93028
2.92672
2.92443
2.92278
2.92132
2.92032
2.91883
2.91533
2.90314
2.87995
2.81891
2.66103
2.34819
1.60955
0.586748
0.0588745
0.185818
0.355674
0.459074
0.518589
0.551808
2.98735
2.96861
2.95265
2.93384
2.92081
2.90528
2.89472
2.87592
2.84639
2.76802
2.61063
2.26238
1.53817
0.463361
0.252554
0.272379
0.394107
0.42412
0.4231
0.44872
0.489131
0.541823
0.611748
0.704902
0.870835
2.98735
2.96861
2.95265
2.93385
2.92081
2.90535
2.89494
2.87708
2.84908
2.77344
2.62431
2.29392
1.58871
0.54475
0.223834
0.307993
0.414926
0.444826
0.452045
0.482171
0.528547
0.589634
0.67013
0.77358
0.919753
2.98698
2.96898
2.95225
2.93429
2.9203
2.90604
2.89422
2.87868
2.84697
2.78459
2.64513
2.2944
1.66254
0.577681
0.227911
0.339562
0.429976
0.461236
0.475982
0.509652
0.56336
0.630128
0.711231
0.810096
0.923267
2.98692
2.96904
2.95221
2.93436
2.92028
2.90611
2.89439
2.87948
2.85003
2.79177
2.66131
2.33225
1.72317
0.66817
0.262816
0.360382
0.431618
0.471381
0.49529
0.532638
0.591487
0.659481
0.73614
0.824074
0.919374
2.98471
2.97124
2.94999
2.93653
2.91823
2.90803
2.89295
2.88206
2.85642
2.79855
2.67054
2.40945
1.77582
0.785976
0.322971
0.361264
0.42295
0.475663
0.509237
0.550323
0.611216
0.677582
0.747972
0.828236
0.90927
2.98701
2.96896
2.95232
2.93423
2.92047
2.90593
2.89512
2.88082
2.86012
2.80127
2.69709
2.44294
1.87585
0.954724
0.406915
0.352443
0.412901
0.477479
0.518644
0.562118
0.621758
0.687306
0.752825
0.825655
0.896827
2.98671
2.96926
2.95202
2.93453
2.92017
2.90628
2.89495
2.88188
2.86338
2.81243
2.72001
2.49796
1.98245
1.12114
0.500731
0.351233
0.403989
0.477976
0.523989
0.568479
0.625097
0.689238
0.75212
0.818978
0.88202
2.98657
2.9694
2.95188
2.93468
2.92003
2.90649
2.89497
2.88294
2.86669
2.82381
2.74544
2.5555
2.12
1.3151
0.597687
0.37327
0.411613
0.483277
0.527693
0.570472
0.622833
0.684865
0.745414
0.807487
0.864521
2.98649
2.96948
2.9518
2.93475
2.91996
2.90657
2.89506
2.88348
2.86905
2.83328
2.7695
2.60932
2.25767
1.54802
0.692926
0.41101
0.443641
0.498188
0.535326
0.572173
0.618008
0.675615
0.733965
0.791003
0.84465
2.98551
2.97045
2.95084
2.9357
2.919
2.90758
2.89408
2.88518
2.86986
2.8459
2.77968
2.65227
2.35827
1.72457
0.802992
0.442768
0.473938
0.510883
0.543947
0.573712
0.612396
0.661841
0.717709
0.771146
0.8214
2.98794
2.96801
2.95321
2.93336
2.9213
2.90536
2.89637
2.88347
2.87351
2.85058
2.79768
2.68168
2.44239
1.84651
0.915128
0.504709
0.482849
0.512769
0.547432
0.573854
0.606553
0.647894
0.696298
0.747992
0.796274
2.98656
2.9694
2.95188
2.93466
2.92007
2.90651
2.8954
2.88432
2.87342
2.85101
2.81257
2.71229
2.483
2.02275
1.07775
0.584378
0.468363
0.501074
0.542214
0.569381
0.598299
0.632744