/*--------------------------------*- C++ -*----------------------------------*\
  =========                 |
  \\      /  F ield         | OpenFOAM: The Open Source CFD Toolbox
   \\    /   O peration     | Website:  https://openfoam.org
    \\  /    A nd           | Version:  6
     \\/     M anipulation  |
\*---------------------------------------------------------------------------*/
FoamFile
{
    version     2.0;
    format      ascii;
    class       volScalarField;
    location    "8.5";
    object      p;
}
// * * * * * * * * * * * * * * * * * * * * * * * * * * * * * * * * * * * * * //

dimensions      [1 -1 -2 0 0 0 0];

internalField   nonuniform List<scalar> 
26250
(
0.957366
0.91157
0.87439
0.845274
0.818588
0.800161
0.779918
0.775976
0.779158
0.818466
0.855567
1.16399
1.66963
3.65611
8.08495
7.87116
7.20897
6.68782
6.66327
6.71588
6.75914
6.86231
7.09675
7.58365
8.39438
0.957374
0.911557
0.8744
0.845255
0.818608
0.80013
0.779948
0.775862
0.779014
0.818151
0.85498
1.16291
1.66644
3.65181
8.09151
7.85678
7.17559
6.67026
6.63688
6.68125
6.76944
6.8896
7.12775
7.59852
8.41145
0.957381
0.911529
0.874417
0.84522
0.818658
0.800059
0.78003
0.775608
0.77871
0.817472
0.853892
1.15962
1.65828
3.62978
8.02992
7.81832
7.16701
6.6588
6.61944
6.6628
6.76105
6.89481
7.1408
7.60413
8.42702
0.957338
0.911571
0.874406
0.845248
0.818678
0.799992
0.780148
0.774797
0.77767
0.815155
0.85041
1.15261
1.6502
3.58999
7.95797
7.7623
7.14359
6.63875
6.60662
6.65372
6.73708
6.87119
7.13003
7.59905
8.42371
0.95702
0.912026
0.874113
0.845645
0.818276
0.800612
0.779161
0.776453
0.781155
0.789143
0.905305
1.02296
1.85525
3.44318
7.89098
7.68471
7.11976
6.60637
6.56788
6.61053
6.69735
6.83531
7.10417
7.57917
8.40914
0.957296
0.9116
0.874414
0.845257
0.818723
0.799901
0.780188
0.773892
0.776508
0.810767
0.843717
1.13496
1.61489
3.47309
7.71423
7.57514
7.06074
6.56571
6.51951
6.55895
6.6453
6.7902
7.0616
7.53426
8.37975
0.957028
0.912011
0.874175
0.845526
0.818468
0.800223
0.779655
0.774779
0.779701
0.786819
0.896762
1.00514
1.80565
3.29115
7.58198
7.44586
7.00905
6.51218
6.45612
6.49202
6.57598
6.72346
6.99071
7.45241
8.31895
0.957463
0.911406
0.874547
0.84504
0.818886
0.799625
0.78028
0.773125
0.775455
0.808978
0.839732
1.11819
1.54823
3.32278
7.33641
7.27904
6.90978
6.44977
6.38814
6.41924
6.49394
6.63101
6.88115
7.31516
8.18602
0.957598
0.911223
0.874655
0.844868
0.819015
0.799442
0.780305
0.772491
0.774769
0.807507
0.836477
1.10597
1.50232
3.23095
7.09626
7.09091
6.81671
6.38227
6.31116
6.33614
6.39668
6.51005
6.72273
7.0978
7.89327
0.957535
0.911297
0.874676
0.84485
0.819113
0.79926
0.780517
0.771683
0.773657
0.803681
0.830683
1.08781
1.46797
3.10147
6.81753
6.92851
6.72299
6.30911
6.22383
6.24107
6.28324
6.35703
6.49524
6.7278
7.25759
1.03419
1.06995
1.09278
1.11065
1.12195
1.13392
1.14094
1.15867
1.18643
1.2836
1.42813
2.05019
3.28201
7.77662
17.1233
15.4565
13.7538
13.1992
13.3215
13.7181
13.6796
13.787
14.1076
14.5767
15.0801
1.0342
1.06994
1.09279
1.11064
1.12195
1.13391
1.14092
1.1586
1.1863
1.28316
1.42741
2.04716
3.27538
7.75947
17.1614
15.397
13.6994
13.1601
13.2645
13.5511
13.6729
13.807
14.0989
14.5372
15.0471
1.0342
1.06993
1.09279
1.11063
1.12196
1.1339
1.14087
1.15845
1.18596
1.28223
1.42509
2.04148
3.26072
7.70667
17.0077
15.3146
13.6186
13.1015
13.2068
13.487
13.6261
13.7586
14.0362
14.432
14.9571
1.03417
1.06996
1.09277
1.11065
1.12196
1.1339
1.14081
1.15818
1.18534
1.28058
1.42121
2.03193
3.23621
7.6198
16.881
15.1908
13.5093
13.0251
13.1552
13.5024
13.5179
13.6247
13.8948
14.2593
14.7969
1.03405
1.07009
1.09266
1.11082
1.1218
1.13412
1.14061
1.15812
1.18217
1.28142
1.40218
2.03095
3.20509
7.45002
16.6776
15.037
13.3734
12.9113
13.0345
13.3312
13.3663
13.4636
13.7082
14.0317
14.5749
1.03414
1.06998
1.09276
1.11069
1.12194
1.13389
1.14062
1.15745
1.1837
1.27591
1.4099
2.00225
3.1584
7.34725
16.3911
14.8401
13.2071
12.7681
12.884
13.1584
13.1871
13.2684
13.4789
13.7476
14.2812
1.03406
1.07008
1.09268
1.1108
1.12181
1.13407
1.14032
1.15731
1.17987
1.27642
1.38866
1.99497
3.10859
7.1291
16.0573
14.6107
13.0193
12.6003
12.7036
12.9382
12.974
13.0325
13.1913
13.3877
13.889
1.03423
1.06991
1.09282
1.1106
1.12197
1.13375
1.14032
1.15642
1.18165
1.26959
1.39595
1.95855
3.04635
6.97332
15.6374
14.3291
12.8097
12.4136
12.5039
12.7044
12.7266
12.7442
12.8327
12.9339
13.3532
1.03431
1.06982
1.09288
1.1105
1.12202
1.13366
1.14012
1.15576
1.18038
1.26544
1.38744
1.92958
2.97451
6.74512
15.1658
14.0122
12.5865
12.2119
12.2858
12.4442
12.4371
12.3985
12.3956
12.3474
12.5826
1.03432
1.06977
1.09298
1.11039
1.12215
1.13352
1.13983
1.15493
1.17837
1.26058
1.37339
1.89808
2.89349
6.4594
14.6501
13.6913
12.3575
12.0011
12.055
12.1589
12.122
12.0091
11.8645
11.5601
11.4086
1.00867
1.03206
1.05904
1.08773
1.11318
1.13845
1.16004
1.18676
1.22727
1.34661
1.52704
2.26805
3.74136
9.15887
20.0706
17.6835
15.7393
15.1921
15.3361
15.6949
15.8565
15.9334
16.2047
16.5879
16.9237
1.00866
1.03207
1.05903
1.08774
1.11318
1.13846
1.16005
1.18677
1.22724
1.34587
1.52655
2.26361
3.731
9.12107
20.0099
17.6305
15.69
15.1701
15.3288
15.7045
15.846
15.8925
16.1472
16.4986
16.8371
1.00865
1.03207
1.05903
1.08774
1.11318
1.13846
1.16002
1.18671
1.22689
1.34518
1.52403
2.25781
3.71659
9.07019
19.9189
17.521
15.5828
15.1065
15.2858
15.6964
15.7787
15.7808
15.9993
16.293
16.6357
1.00864
1.03209
1.05901
1.08776
1.11317
1.13846
1.16002
1.18667
1.22655
1.34329
1.52113
2.24519
3.68612
8.9608
19.7677
17.371
15.4346
14.9989
15.1919
15.6049
15.6357
15.6071
15.7818
16.0114
16.3485
1.00862
1.03211
1.05899
1.08778
1.11315
1.13848
1.15999
1.18659
1.22603
1.34076
1.5169
2.22787
3.64386
8.80679
19.5437
17.1823
15.253
14.855
15.0565
15.4824
15.4519
15.3887
15.5117
15.6688
15.9899
1.00863
1.0321
1.05899
1.08779
1.11313
1.13851
1.15987
1.18644
1.22525
1.33835
1.51116
2.2098
3.59959
8.64742
19.2317
16.9464
15.0394
14.676
14.878
15.2972
15.2305
15.1291
15.1901
15.2599
15.5469
1.00864
1.03209
1.059
1.08779
1.11309
1.13854
1.15972
1.18628
1.22441
1.33511
1.50482
2.18682
3.54429
8.44927
18.8332
16.6653
14.7989
14.4682
14.6625
15.0524
14.9678
14.819
14.8002
14.7615
14.9841
1.00867
1.03207
1.05902
1.08777
1.11308
1.13853
1.1596
1.18601
1.22326
1.33144
1.49658
2.16034
3.47995
8.21685
18.3629
16.3465
14.5399
14.2368
14.4169
14.7437
14.6546
14.4549
14.3409
14.1623
14.2714
1.00871
1.03204
1.05905
1.08774
1.11308
1.13852
1.15948
1.18577
1.22198
1.32653
1.48701
2.12619
3.39767
7.93195
17.8173
15.994
14.2673
13.9856
14.1454
14.3953
14.2893
14.0298
13.8021
13.43
13.3224
1.00875
1.03194
1.05918
1.08754
1.11334
1.13817
1.15971
1.18499
1.21964
1.3208
1.47266
2.08717
3.30236
7.59034
17.2316
15.6247
13.9879
13.7213
13.8552
14.0206
13.8898
13.5534
13.1715
12.5428
12.0326
1.03416
1.06997
1.09275
1.11067
1.12193
1.13392
1.14092
1.15858
1.18617
1.28315
1.4269
2.04951
3.28058
7.77302
17.1854
15.4355
13.7357
13.1738
13.2608
13.5203
13.6836
13.8311
14.1547
14.6676
15.2006
1.03406
1.07009
1.09264
1.11083
1.12176
1.13417
1.1408
1.15876
1.18355
1.28557
1.41153
2.05902
3.27782
7.69601
17.1009
15.41
13.7161
13.1776
13.3024
13.6857
13.6586
13.7687
14.1034
14.5997
15.1238
1.0341
1.07003
1.09269
1.11075
1.12188
1.13397
1.14091
1.15839
1.1857
1.28175
1.42345
2.04109
3.25853
7.6897
17.0371
15.3172
13.6414
13.1326
13.2599
13.613
13.6029
13.7055
14.0116
14.4513
14.981
1.03403
1.07014
1.09258
1.11092
1.12169
1.13424
1.14078
1.15848
1.183
1.28342
1.40668
2.04472
3.23898
7.55484
16.8556
15.2024
13.5319
13.0385
13.1522
13.4326
13.5057
13.6273
13.8887
14.2577
14.7981
1.03403
1.07016
1.09256
1.11095
1.12166
1.13425
1.14074
1.15819
1.18253
1.28149
1.40236
2.03174
3.20307
7.4265
16.6516
15.0534
13.3911
12.9193
13.0401
13.3466
13.3774
13.4829
13.7142
14.0219
14.5671
1.03403
1.07015
1.0926
1.11091
1.12171
1.13419
1.14057
1.15784
1.1813
1.2794
1.39598
2.01562
3.16026
7.29167
16.3992
14.8571
13.2176
12.7718
12.8844
13.1498
13.2009
13.2954
13.4896
13.7337
14.2695
1.03419
1.06995
1.09278
1.11064
1.12195
1.13381
1.14049
1.15705
1.18294
1.27338
1.40441
1.9832
3.10935
7.18409
16.0537
14.6077
13.0157
12.6011
12.7053
12.9426
12.99
13.0553
13.2017
13.374
13.8739
1.03427
1.06986
1.09285
1.11055
1.12199
1.13371
1.14031
1.15647
1.18183
1.2699
1.39715
1.95903
3.0491
6.98723
15.6474
14.3222
12.8031
12.414
12.5064
12.7111
12.7397
12.7618
12.8424
12.9216
13.3378
1.03431
1.06982
1.09288
1.1105
1.12201
1.13366
1.14012
1.15579
1.18043
1.26561
1.38774
1.93039
2.976
6.748
15.169
14.0088
12.5827
12.2121
12.2874
12.4489
12.4455
12.4125
12.4014
12.3358
12.5702
1.0343
1.06977
1.09296
1.1104
1.12214
1.13353
1.13984
1.15495
1.17839
1.26065
1.37348
1.89833
2.8938
6.45927
14.65
13.6901
12.3567
12.0004
12.0544
12.1603
12.1264
12.0173
11.8669
11.5503
11.3978
0.957326
0.911582
0.874371
0.845282
0.81862
0.800079
0.780089
0.775208
0.778203
0.816831
0.853423
1.16292
1.67722
3.66255
8.11143
7.88219
7.20301
6.67749
6.62463
6.66573
6.76093
6.89794
7.15548
7.66023
8.50394
0.957072
0.911971
0.874089
0.845693
0.818125
0.800869
0.778766
0.777371
0.782306
0.790642
0.910215
1.03153
1.88527
3.54726
8.12212
7.87272
7.22186
6.68511
6.64777
6.69737
6.75093
6.87141
7.13301
7.65931
8.45732
0.957254
0.911691
0.874266
0.845446
0.818447
0.800291
0.779863
0.775119
0.778044
0.815125
0.851114
1.15726
1.67067
3.62836
8.04122
7.83629
7.20058
6.67888
6.64047
6.68608
6.74338
6.86566
7.12627
7.64828
8.44592
0.957106
0.91194
0.874004
0.84586
0.817825
0.801345
0.777961
0.777922
0.7834
0.791675
0.91081
1.03287
1.86985
3.48137
7.98231
7.77028
7.18787
6.65587
6.60604
6.64602
6.72891
6.86374
7.12626
7.6248
8.44429
0.957115
0.911939
0.873994
0.845911
0.817751
0.801441
0.777861
0.777832
0.784168
0.793105
0.90954
1.02928
1.85332
3.42094
7.8723
7.68162
7.14112
6.61514
6.56757
6.61024
6.69821
6.84219
7.10572
7.58699
8.42825
0.957041
0.912034
0.874031
0.845798
0.818016
0.80098
0.778649
0.776884
0.782114
0.790121
0.904133
1.01859
1.82986
3.36346
7.74908
7.58132
7.08375
6.57084
6.51959
6.55915
6.64824
6.79878
7.06188
7.5319
8.39158
0.957389
0.911517
0.874452
0.845171
0.818757
0.799805
0.78024
0.773798
0.776436
0.811665
0.844357
1.13148
1.58455
3.41487
7.54627
7.4443
6.99421
6.51819
6.46509
6.50085
6.58521
6.73432
6.99254
7.44909
8.32494
0.957539
0.911323
0.874584
0.844967
0.818906
0.799602
0.780253
0.773346
0.77589
0.810349
0.841338
1.1205
1.54263
3.33329
7.3371
7.27595
6.90066
6.45268
6.39567
6.42727
6.50298
6.64082
6.88454
7.31457
8.18586
0.957603
0.911231
0.874648
0.844875
0.818987
0.799469
0.780252
0.772607
0.774905
0.807789
0.836929
1.10655
1.50402
3.23181
7.09804
7.09056
6.81339
6.38334
6.31559
6.34122
6.40306
6.51738
6.72548
7.09635
7.8892
0.957515
0.911308
0.874651
0.844875
0.819083
0.799312
0.780472
0.771801
0.773747
0.803976
0.831033
1.0884
1.46849
3.10277
6.81684
6.92893
6.72361
6.3101
6.22559
6.24338
6.28681
6.36145
6.49624
6.72548
7.25157
0.957203
0.911731
0.874508
0.845017
0.81913
0.79915
0.780736
0.771041
0.774526
0.78029
0.870309
0.952999
1.62919
2.81016
6.54133
6.78213
6.60383
6.23764
6.13271
6.13943
6.15663
6.17325
6.17131
6.10332
5.62606
0.957532
0.911227
0.874862
0.844586
0.819557
0.798613
0.781231
0.769646
0.771229
0.796606
0.821006
1.04719
1.3885
2.81149
6.17118
6.60193
6.46818
6.17199
6.04709
6.03423
6.0193
5.98212
5.89503
5.68675
5.15514
0.957326
0.911513
0.874746
0.844642
0.819628
0.798367
0.781602
0.768634
0.771581
0.776557
0.854396
0.925927
1.50147
2.49146
5.74853
6.41654
6.331
6.11883
5.9757
5.93494
5.89534
5.8163
5.68422
5.45931
5.02665
0.957633
0.911079
0.875018
0.844308
0.819897
0.798042
0.781813
0.767869
0.769075
0.79148
0.813297
1.00467
1.30082
2.48624
5.34678
6.20555
6.16849
6.04414
5.90372
5.84175
5.77939
5.67612
5.52159
5.29378
4.93884
0.957643
0.911048
0.875075
0.844195
0.820059
0.797746
0.782113
0.766497
0.76732
0.785082
0.800807
0.977237
1.19674
2.30517
4.81604
6.04941
6.04774
5.98325
5.84926
5.76358
5.68215
5.56727
5.40629
5.18434
4.87788
0.957484
0.911219
0.875092
0.844089
0.820391
0.797088
0.783034
0.763816
0.766039
0.76914
0.824454
0.876243
1.26058
1.92917
4.19847
5.95822
6.01623
5.954
5.81377
5.70012
5.60503
5.48673
5.32848
5.12088
4.85049
0.957464
0.911222
0.875109
0.844069
0.820437
0.797034
0.783005
0.7637
0.764772
0.76778
0.811938
0.857324
1.15869
1.68684
3.45895
5.8985
6.03089
5.95942
5.79624
5.65443
5.54831
5.42988
5.27853
5.08631
4.84911
0.957438
0.911276
0.875029
0.844203
0.820246
0.7973
0.782603
0.764013
0.763739
0.767125
0.798436
0.842136
1.06728
1.48547
2.87868
5.67625
6.02836
5.96085
5.79349
5.62533
5.50982
5.39352
5.25133
5.07372
4.85832
0.957358
0.911435
0.874835
0.844488
0.819821
0.797912
0.781551
0.765039
0.758878
0.760844
0.787374
0.813612
1.01341
1.33843
2.53673
5.24362
5.96826
5.9247
5.78717
5.60612
5.48278
5.37042
5.2388
5.07742
4.88366
0.95759
0.911145
0.874914
0.844463
0.819655
0.798249
0.780878
0.765839
0.756261
0.759048
0.763339
0.830209
0.892553
1.35463
2.14836
4.72555
5.8345
5.83162
5.76567
5.61343
5.47862
5.36601
5.24147
5.09274
4.92453
0.957372
0.911481
0.874655
0.844793
0.819285
0.798722
0.780178
0.766533
0.753636
0.754371
0.76928
0.782627
0.930719
1.10639
2.01605
3.97956
5.68068
5.81321
5.76576
5.64141
5.49182
5.37657
5.25888
5.12735
4.9756
0.957445
0.911385
0.874651
0.844853
0.819117
0.799027
0.779638
0.767194
0.751723
0.75319
0.75625
0.797969
0.844829
1.12217
1.62616
3.22371
5.57231
5.83888
5.7963
5.68656
5.52769
5.40797
5.29853
5.17596
5.03264
0.95733
0.911538
0.874533
0.845014
0.818958
0.799238
0.779391
0.767407
0.751188
0.751371
0.758795
0.768588
0.854921
0.954586
1.53952
2.53099
5.2936
5.86758
5.84171
5.75553
5.58796
5.46171
5.34978
5.22832
5.09083
0.957212
0.911677
0.87448
0.845084
0.818948
0.799245
0.779387
0.76738
0.750689
0.750565
0.753818
0.759724
0.831788
0.899509
1.39753
2.21697
4.80771
5.83687
5.84395
5.78886
5.65748
5.51464
5.39733
5.27976
5.15047
0.957167
0.911713
0.874504
0.845015
0.819113
0.798958
0.779853
0.766571
0.751731
0.747449
0.749759
0.75397
0.814142
0.869934
1.27964
1.96162
4.20911
5.75659
5.86794
5.82558
5.71875
5.57303
5.45387
5.33936
5.21549
0.957229
0.911608
0.874606
0.844847
0.819322
0.798649
0.780277
0.765916
0.752441
0.745447
0.747156
0.751201
0.797251
0.847642
1.1568
1.69959
3.47466
5.70012
5.93913
5.90261
5.80311
5.64531
5.52003
5.40404
5.28186
0.95731
0.911481
0.874723
0.84467
0.819525
0.798357
0.78066
0.765304
0.753101
0.743344
0.744401
0.747665
0.782812
0.825738
1.05912
1.47276
2.85688
5.55018
6.04614
6.01268
5.90763
5.72782
5.58949
5.46907
5.34765
0.957344
0.911428
0.874788
0.844562
0.819684
0.798089
0.781067
0.764586
0.75395
0.740384
0.740954
0.743196
0.771739
0.800844
1.00032
1.31604
2.5254
5.1847
6.08551
6.07393
5.99368
5.82184
5.66106
5.53118
5.40929
0.957324
0.911459
0.874776
0.844586
0.81966
0.798127
0.78099
0.764708
0.75358
0.740724
0.738264
0.740128
0.763522
0.783097
0.966691
1.20598
2.32303
4.79438
6.05031
6.09608
6.04128
5.90662
5.72962
5.58919
5.46637
0.95733
0.911465
0.874749
0.844637
0.819577
0.798258
0.780788
0.765001
0.753086
0.741131
0.736275
0.737597
0.756617
0.771715
0.93076
1.11846
2.0935
4.21938
6.03579
6.16562
6.1182
5.99215
5.79608
5.64422
5.52016
0.957349
0.91145
0.874732
0.844675
0.819492
0.798401
0.780559
0.765342
0.752537
0.741705
0.734275
0.735435
0.75031
0.762937
0.893569
1.04212
1.84207
3.52467
6.09866
6.32285
6.26053
6.09434
5.85672
5.69034
5.56671
0.957345
0.911472
0.874697
0.844727
0.819415
0.798507
0.780401
0.765562
0.752169
0.742088
0.732829
0.733425
0.745545
0.755498
0.863316
0.974799
1.66356
2.91206
6.10756
6.49238
6.40655
6.18728
5.9035
5.72493
5.60458
0.957359
0.911463
0.874688
0.844749
0.819368
0.798578
0.780286
0.765727
0.7519
0.74238
0.731932
0.732321
0.741853
0.7504
0.84387
0.930472
1.57255
2.65091
5.93644
6.54904
6.46624
6.24187
5.93503
5.75279
5.63817
0.957376
0.911449
0.874684
0.844759
0.819338
0.798624
0.780212
0.765833
0.751735
0.742551
0.731376
0.731621
0.73958
0.746677
0.832265
0.910209
1.50871
2.51196
5.7281
6.51194
6.44908
6.25687
5.95685
5.78082
5.67168
0.957397
0.911426
0.874683
0.844764
0.819309
0.798671
0.78014
0.765938
0.751587
0.742709
0.73099
0.731153
0.737969
0.744594
0.823694
0.896057
1.44852
2.38853
5.48817
6.44185
6.40159
6.2583
5.98803
5.81686
5.70639
0.957402
0.911419
0.874681
0.844775
0.819287
0.798715
0.78007
0.766049
0.751409
0.742923
0.730437
0.730434
0.736994
0.743683
0.816727
0.889648
1.39566
2.29013
5.22896
6.40522
6.38291
6.27286
6.03932
5.85525
5.73553
0.957393
0.911417
0.874695
0.844776
0.819288
0.798727
0.780057
0.766065
0.751386
0.742931
0.730309
0.730281
0.735238
0.740416
0.80803
0.869673
1.34159
2.14132
4.90149
6.42833
6.41825
6.32252
6.10388
5.89347
5.76034
0.957392
0.911415
0.87469
0.844783
0.819284
0.798738
0.780044
0.766089
0.751353
0.742972
0.730287
0.73027
0.734628
0.740607
0.799319
0.864346
1.2724
2.0182
4.52417
6.53565
6.53077
6.423
6.16697
5.92075
5.77715
0.957308
0.911527
0.874629
0.844839
0.819264
0.798741
0.780068
0.766051
0.751409
0.742911
0.730319
0.7303
0.733146
0.738359
0.789266
0.846552
1.1977
1.84036
4.01329
6.77682
6.76066
6.59619
6.2307
5.94282
5.78874
0.957277
0.911565
0.874618
0.844841
0.819292
0.79868
0.780178
0.765869
0.75169
0.742469
0.730912
0.729234
0.731433
0.736304
0.779326
0.831138
1.12512
1.65635
3.48744
7.05806
7.03709
6.79603
6.30092
5.9588
5.7892
0.957296
0.911533
0.874648
0.844797
0.819348
0.798597
0.780297
0.765693
0.751942
0.742051
0.731409
0.727582
0.729167
0.732212
0.77428
0.812529
1.09708
1.55824
3.3007
7.10215
7.14817
6.90462
6.36197
5.96935
5.78524
0.957302
0.911523
0.874665
0.844772
0.819377
0.798557
0.780348
0.765619
0.752034
0.741939
0.731472
0.727487
0.729107
0.733142
0.770599
0.814905
1.07478
1.53766
3.2262
7.06957
7.17368
6.93189
6.38986
5.98136
5.78446
0.957334
0.911482
0.874693
0.844728
0.819425
0.798483
0.78045
0.765462
0.752266
0.741561
0.731949
0.726105
0.727604
0.730427
0.76904
0.803075
1.06974
1.49315
3.18059
7.0334
7.16141
6.92753
6.40103
5.98769
5.78113
0.957356
0.911453
0.874715
0.844697
0.819458
0.798438
0.780507
0.765383
0.752373
0.741405
0.732101
0.725825
0.727252
0.730011
0.768092
0.801248
1.06583
1.47758
3.15603
6.99236
7.12844
6.90185
6.38896
5.97852
5.77219
0.957374
0.911431
0.874728
0.844684
0.819466
0.798429
0.780515
0.765368
0.752392
0.741362
0.732166
0.725572
0.727122
0.729803
0.767757
0.800357
1.06621
1.46796
3.14359
6.95919
7.08005
6.85526
6.35074
5.95599
5.76007
0.957382
0.911419
0.874733
0.844689
0.819448
0.798463
0.780463
0.765441
0.752292
0.741495
0.732016
0.725866
0.727329
0.730088
0.767889
0.800452
1.06366
1.46576
3.12529
6.92219
7.0341
6.81112
6.31279
5.93468
5.75403
0.957379
0.91143
0.874714
0.844716
0.819407
0.798519
0.780382
0.765564
0.752104
0.741809
0.731589
0.727078
0.728561
0.732381
0.768015
0.809865
1.05567
1.49438
3.10639
6.89189
6.99701
6.77486
6.28041
5.91728
5.75233
0.957368
0.911433
0.87473
0.844702
0.819422
0.798513
0.780383
0.765551
0.752155
0.741658
0.731869
0.726175
0.727743
0.730411
0.768338
0.800115
1.06848
1.45596
3.12892
6.88182
6.97749
6.75398
6.2586
5.90853
5.75494
0.957385
0.91141
0.874734
0.844711
0.819391
0.798568
0.780298
0.765674
0.751979
0.741935
0.731519
0.727135
0.728484
0.73129
0.76917
0.802839
1.06434
1.45642
3.12536
6.86464
6.95657
6.73403
6.24153
5.90537
5.75891
0.957404
0.911386
0.874738
0.844714
0.819372
0.7986
0.780246
0.765761
0.751838
0.742172
0.731251
0.727945
0.729524
0.733084
0.769219
0.809078
1.0556
1.47526
3.10898
6.87746
6.93356
6.7061
6.21508
5.89998
5.75558
1.03426
1.06974
1.09316
1.11007
1.12278
1.13249
1.14181
1.15249
1.18485
1.22854
1.42797
1.71246
2.99932
5.94797
14.0875
13.3601
12.1294
11.7884
11.8199
11.8576
11.7867
11.5818
11.2402
10.5417
8.91103
1.03439
1.06956
1.09334
1.10982
1.12306
1.13215
1.14204
1.15193
1.18292
1.22143
1.41543
1.66752
2.90274
5.63198
13.3894
12.9288
11.9341
11.5856
11.5862
11.5677
11.4482
11.145
10.637
9.77911
8.14991
1.03432
1.06966
1.09324
1.10997
1.12288
1.1323
1.14174
1.15136
1.18032
1.21934
1.39685
1.64113
2.79509
5.29513
12.6185
12.4399
11.7909
11.4134
11.3682
11.3022
11.126
10.7469
10.1786
9.36054
8.1541
1.03445
1.06955
1.09331
1.10987
1.1229
1.13221
1.14153
1.14994
1.17764
1.20875
1.3788
1.58111
2.68773
4.94526
11.7422
12.0135
11.6459
11.2631
11.1682
11.066
10.8447
10.4331
9.88067
9.15259
8.19085
1.03454
1.06942
1.09341
1.10977
1.12288
1.13241
1.1404
1.15099
1.16581
1.22837
1.29434
1.68612
2.31083
4.75081
10.7211
11.7595
11.5217
11.143
11
10.8641
10.6132
10.2164
9.70411
9.06353
8.2699
1.03451
1.06941
1.0935
1.10959
1.12326
1.13174
1.1417
1.14891
1.17095
1.1997
1.33558
1.49495
2.38769
4.0622
9.60761
11.6518
11.4651
11.0605
10.8605
10.6977
10.4439
10.0745
9.60728
9.04401
8.36782
1.0345
1.06941
1.09351
1.10959
1.12326
1.13171
1.14153
1.1482
1.1672
1.19518
1.30615
1.45474
2.18403
3.57608
8.26731
11.6562
11.4688
11.0093
10.7437
10.5646
10.3223
9.98374
9.56152
9.05539
8.47523
1.03448
1.06947
1.0934
1.10977
1.12298
1.1321
1.14052
1.14784
1.15867
1.19906
1.24154
1.48335
1.83508
3.25958
6.77302
11.6677
11.4863
10.9946
10.656
10.4625
10.2366
9.93154
9.55472
9.09354
8.59778
1.03442
1.06958
1.09325
1.10996
1.12273
1.13237
1.14016
1.14754
1.15741
1.18893
1.22713
1.42111
1.68824
2.83535
5.43802
11.4651
11.4115
11.0157
10.5967
10.387
10.1803
9.90899
9.5658
9.17016
8.73464
1.03444
1.06957
1.09321
1.11003
1.1226
1.13251
1.13991
1.14743
1.15603
1.18181
1.21825
1.37511
1.58967
2.61606
4.70232
10.7471
11.2184
10.9698
10.5572
10.3421
10.1526
9.91114
9.60027
9.25894
8.87866
1.03432
1.06971
1.09312
1.11011
1.1226
1.13238
1.14022
1.14595
1.15577
1.1691
1.22622
1.28477
1.6412
2.16849
4.35132
9.40951
10.9883
10.8749
10.5741
10.3431
10.1554
9.92972
9.66641
9.36333
9.02306
1.03432
1.0697
1.09313
1.11011
1.12258
1.13242
1.14008
1.14605
1.15419
1.16652
1.21259
1.26357
1.55206
1.97232
3.72715
7.91513
10.9559
10.8956
10.637
10.3673
10.1787
9.97869
9.74981
9.47689
9.16727
1.03428
1.06975
1.09305
1.11023
1.1224
1.13274
1.13953
1.14702
1.15206
1.16781
1.18673
1.27905
1.386
1.95542
3.01424
6.41337
10.9668
10.9844
10.7731
10.4356
10.2397
10.0637
9.84817
9.5935
9.30775
1.03419
1.06984
1.093
1.1103
1.12237
1.13274
1.13959
1.14653
1.15213
1.16157
1.19036
1.22912
1.40427
1.65957
2.72584
5.05071
10.6962
11.1011
10.9072
10.5412
10.336
10.1573
9.94979
9.71038
9.44565
1.03419
1.06983
1.09303
1.11025
1.12247
1.13261
1.13975
1.14626
1.15191
1.16001
1.18396
1.21733
1.36337
1.55618
2.50361
4.36267
9.87293
11.0862
10.9624
10.6683
10.4398
10.254
10.0549
9.82999
9.58159
1.03425
1.06973
1.09313
1.1101
1.12263
1.13238
1.14
1.1459
1.15197
1.15883
1.17864
1.20759
1.32753
1.47993
2.2746
3.74416
8.52953
11.1107
11.0553
10.832
10.5613
10.3617
10.1674
9.95228
9.71597
1.03431
1.06967
1.09319
1.11001
1.12271
1.13227
1.14008
1.14577
1.15175
1.15762
1.17395
1.199
1.29356
1.4291
2.03804
3.21157
7.09213
11.2658
11.259
11.0532
10.7056
10.481
10.2854
10.0752
9.84722
1.03437
1.0696
1.09323
1.10996
1.12274
1.13224
1.14004
1.14585
1.15106
1.15699
1.16653
1.19863
1.23698
1.43527
1.71546
2.86331
5.50922
11.2961
11.5354
11.2967
10.8706
10.6154
10.4076
10.1956
9.97341
1.03435
1.06963
1.09323
1.10996
1.12277
1.13218
1.14016
1.14558
1.15152
1.15579
1.16716
1.18476
1.24813
1.33823
1.7335
2.47395
5.01964
10.8426
11.6028
11.4284
11.0466
10.7583
10.5272
10.3102
10.0935
1.03435
1.06963
1.09323
1.10996
1.12277
1.13218
1.14016
1.14554
1.15149
1.15535
1.16529
1.18078
1.23585
1.30893
1.66316
2.24313
4.53367
9.86856
11.6756
11.5677
11.2554
10.9066
10.6424
10.42
10.2096
1.03435
1.06963
1.09321
1.10999
1.12272
1.13225
1.14008
1.14562
1.15131
1.15487
1.1635
1.17721
1.2239
1.28861
1.58353
2.0776
3.98314
8.61122
11.911
11.8305
11.4896
11.0415
10.7412
10.5193
10.3194
1.03434
1.06966
1.09318
1.11004
1.12266
1.13233
1.13998
1.14571
1.15117
1.15457
1.16205
1.17318
1.21394
1.26262
1.5227
1.90338
3.49197
7.28246
12.4077
12.2386
11.6908
11.1472
10.8258
10.6102
10.4216
1.03434
1.06966
1.09317
1.11006
1.12263
1.13237
1.13993
1.14577
1.15105
1.1546
1.16094
1.17141
1.20424
1.25458
1.45009
1.79253
3.03186
6.0531
12.7048
12.5195
11.891
11.2553
10.9101
10.699
10.5194
1.03432
1.06969
1.09314
1.1101
1.12259
1.13243
1.13985
1.14588
1.15088
1.15473
1.16039
1.16957
1.19941
1.23948
1.42603
1.69538
2.87369
5.52037
12.5158
12.4861
12.0457
11.3692
11.0036
10.7914
10.6154
1.03432
1.0697
1.09313
1.11011
1.12256
1.13247
1.1398
1.14595
1.15077
1.15486
1.15998
1.16862
1.19551
1.23284
1.40239
1.6359
2.74949
5.11795
12.0555
12.4469
12.1197
11.4982
11.1209
10.8925
10.7092
1.03432
1.0697
1.09312
1.11013
1.12252
1.13253
1.13968
1.14615
1.15043
1.15552
1.15886
1.16997
1.18206
1.24746
1.31459
1.73178
2.41637
4.98872
11.4445
12.4734
12.214
11.6589
11.2506
10.9895
10.7943
1.03429
1.06973
1.0931
1.11016
1.1225
1.13257
1.13966
1.14614
1.1505
1.15517
1.15941
1.16618
1.18948
1.21624
1.36745
1.54154
2.56456
4.52516
10.8463
12.6109
12.3778
11.8281
11.3638
11.0692
10.8647
1.03433
1.06969
1.09312
1.11014
1.1225
1.13258
1.13962
1.14623
1.15032
1.15556
1.15851
1.16803
1.17865
1.23403
1.28868
1.64539
2.17322
4.41589
10.0767
12.9238
12.6427
11.9716
11.4367
11.1217
10.9185
1.03429
1.06973
1.09309
1.11017
1.12248
1.13259
1.13962
1.14624
1.15031
1.15554
1.15851
1.16711
1.17807
1.22826
1.27978
1.59632
2.07115
4.05103
9.16291
13.4334
13.0267
12.1163
11.4862
11.1563
10.9592
1.03426
1.06976
1.09309
1.11017
1.12251
1.13253
1.13971
1.14607
1.15056
1.15506
1.15889
1.16474
1.18208
1.20686
1.31292
1.45211
2.15263
3.50702
8.22631
14.1156
13.5363
12.3014
11.5447
11.1864
10.988
1.03427
1.06974
1.09311
1.11014
1.12255
1.13249
1.13976
1.14602
1.1506
1.15501
1.15874
1.16403
1.17981
1.20185
1.29746
1.423
2.03789
3.21833
7.24772
14.8193
14.056
12.5034
11.6291
11.2265
11.0122
1.0343
1.0697
1.09314
1.1101
1.12258
1.13245
1.13979
1.14601
1.15055
1.15514
1.15796
1.16481
1.17295
1.21106
1.24897
1.4846
1.82025
3.22625
6.81735
15.0539
14.2805
12.6816
11.7319
11.2791
11.0354
1.0343
1.0697
1.09315
1.11008
1.12261
1.1324
1.13987
1.14587
1.15076
1.15481
1.15881
1.16375
1.17781
1.1993
1.28289
1.40062
1.94396
2.99465
6.73777
15.0254
14.3122
12.7904
11.8308
11.3325
11.0545
1.03431
1.06969
1.09316
1.11006
1.12264
1.13237
1.13991
1.14583
1.15082
1.15474
1.15892
1.16385
1.17772
1.19932
1.28079
1.39981
1.92689
2.95488
6.63272
14.9421
14.29
12.854
11.8906
11.363
11.0644
1.03432
1.06968
1.09317
1.11006
1.12263
1.13238
1.13989
1.14585
1.15078
1.15479
1.15883
1.16369
1.17748
1.19849
1.28006
1.39462
1.92248
2.93947
6.56096
14.8626
14.241
12.8581
11.9031
11.369
11.0696
1.03433
1.06968
1.09317
1.11007
1.12262
1.1324
1.13987
1.14589
1.15074
1.15481
1.15878
1.16361
1.17727
1.19828
1.27892
1.39383
1.91434
2.92514
6.50914
14.7824
14.1826
12.8366
11.8925
11.3642
11.0774
1.03433
1.06968
1.09316
1.11008
1.12259
1.13245
1.13979
1.14601
1.15054
1.15512
1.15793
1.16441
1.17204
1.20779
1.24291
1.46274
1.76571
3.08547
6.38759
14.7353
14.1374
12.813
11.8731
11.3557
11.0886
1.03431
1.0697
1.09314
1.11011
1.12257
1.13247
1.13976
1.14602
1.15058
1.15497
1.15859
1.16325
1.1772
1.19586
1.28019
1.38642
1.91379
2.91979
6.44634
14.705
14.104
12.7773
11.8591
11.3533
11.1028
1.03431
1.06971
1.09313
1.11012
1.12254
1.13251
1.13969
1.14612
1.15039
1.15528
1.15784
1.16429
1.17324
1.20822
1.24647
1.46216
1.77271
3.05406
6.33692
14.6726
14.0843
12.7756
11.8504
11.3502
11.1081
1.03433
1.06969
1.09315
1.11011
1.12254
1.13251
1.13969
1.14613
1.15039
1.15529
1.15785
1.1643
1.17362
1.20815
1.24772
1.46324
1.77544
3.06029
6.33932
14.6747
14.0754
12.7701
11.8538
11.3576
11.1161
1.00876
1.03182
1.05945
1.08704
1.11424
1.13665
1.16229
1.18038
1.22332
1.29028
1.51784
1.91494
3.31926
7.05454
16.5916
15.2502
13.7158
13.4537
13.5577
13.6323
13.4693
13.0406
12.4605
11.4622
9.43528
1.00877
1.03181
1.05946
1.08704
1.11423
1.1367
1.16201
1.1799
1.22084
1.28345
1.5037
1.85409
3.23607
6.62084
15.8144
14.7864
13.4586
13.1964
13.2642
13.258
13.0519
12.527
11.7649
10.6047
8.64275
1.00872
1.03197
1.05919
1.08755
1.11331
1.13828
1.15907
1.18461
1.21108
1.30366
1.41289
1.953
2.92515
6.39156
14.9216
14.2448
13.2248
12.9672
12.9859
12.9287
12.6618
12.066
11.2442
10.1538
8.67027
1.00879
1.03192
1.05921
1.08753
1.11326
1.13827
1.15895
1.18399
1.20905
1.29517
1.39637
1.89693
2.79046
5.98645
13.9432
13.7331
13.0875
12.784
12.7411
12.628
12.3209
11.706
10.9278
9.96705
8.76512
1.00903
1.03155
1.05961
1.08694
1.11403
1.137
1.161
1.17889
1.21393
1.2589
1.44431
1.69304
2.83553
5.37423
12.8714
13.4214
13.031
12.6367
12.5234
12.3686
12.0383
11.4671
10.7618
9.93239
8.93999
1.00896
1.03163
1.05958
1.08696
1.11408
1.13696
1.16073
1.17969
1.20924
1.25928
1.41466
1.65938
2.65125
4.81885
11.6147
13.3663
13.0069
12.5119
12.3312
12.1568
11.8309
11.3185
10.6858
9.94928
9.11159
1.00895
1.03164
1.05956
1.08702
1.11397
1.13715
1.16026
1.17983
1.20623
1.24952
1.38952
1.5823
2.48088
4.22347
10.123
13.4214
13.0215
12.4045
12.1665
11.9864
11.6865
11.2315
10.6734
10
9.28799
1.00892
1.0317
1.05947
1.08715
1.11378
1.13741
1.15974
1.17987
1.20284
1.24054
1.35699
1.52195
2.24676
3.66256
8.41966
13.5795
13.0698
12.3256
12.0346
11.8552
11.583
11.1856
10.6858
10.1015
9.48078
1.00887
1.03177
1.05937
1.08728
1.11362
1.13757
1.15949
1.17961
1.20135
1.23346
1.32734
1.46791
2.03168
3.13677
6.69594
13.5444
13.0486
12.2951
11.9445
11.7602
11.5164
11.1784
10.7223
10.2233
9.68292
1.00886
1.03178
1.05931
1.08741
1.11336
1.13804
1.15855
1.18096
1.19682
1.23217
1.28844
1.47769
1.78007
2.97106
5.71215
12.9757
12.8454
12.3111
11.8896
11.6926
11.4812
11.1859
10.7949
10.36
9.88745
1.00869
1.03204
1.05913
1.08756
1.11331
1.13797
1.1587
1.18037
1.19594
1.22814
1.26971
1.4402
1.66278
2.71819
4.96322
11.5956
12.5611
12.2977
11.881
11.6681
11.4812
11.2115
10.889
10.5081
10.0877
1.00878
1.03186
1.05932
1.08729
1.11371
1.13731
1.15979
1.17831
1.19946
1.21992
1.27863
1.35763
1.70227
2.27813
4.45571
9.8438
12.5843
12.3457
11.9067
11.6778
11.4975
11.2694
10.9925
10.6609
10.2812
1.00879
1.03183
1.05933
1.08728
1.1137
1.13732
1.15975
1.17818
1.19888
1.21553
1.26629
1.32428
1.60912
2.04548
3.74523
8.01841
12.7455
12.4898
11.9994
11.7248
11.5491
11.3617
11.1107
10.8092
10.4674
1.00876
1.03188
1.05928
1.08736
1.11359
1.13752
1.15938
1.1787
1.19696
1.21562
1.24541
1.33323
1.46341
1.98714
3.02138
6.27971
12.7021
12.6117
12.2069
11.836
11.6481
11.4661
11.2322
10.9532
10.6451
1.00873
1.03192
1.05925
1.0874
1.11354
1.1376
1.15921
1.17895
1.19608
1.21554