/*--------------------------------*- C++ -*----------------------------------*\
  =========                 |
  \\      /  F ield         | OpenFOAM: The Open Source CFD Toolbox
   \\    /   O peration     | Website:  https://openfoam.org
    \\  /    A nd           | Version:  6
     \\/     M anipulation  |
\*---------------------------------------------------------------------------*/
FoamFile
{
    version     2.0;
    format      ascii;
    class       surfaceScalarField;
    location    "8.5";
    object      phi;
}
// * * * * * * * * * * * * * * * * * * * * * * * * * * * * * * * * * * * * * //

dimensions      [1 0 -1 0 0 0 0];

internalField   nonuniform List<scalar> 
72625
(
0.00162359
-1.36885e-09
5.87299e-05
0.00157663
1.60165e-09
4.69628e-05
0.00153814
-1.90025e-10
3.84959e-05
0.00150603
3.47459e-09
3.20963e-05
0.00147923
-5.73236e-10
2.68055e-05
0.0014563
4.70709e-09
2.29218e-05
0.00143726
-5.74483e-10
1.90478e-05
0.00142011
1.9726e-08
1.71222e-05
0.00140471
4.80854e-08
1.53339e-05
0.00138859
1.11232e-07
1.59649e-05
0.00138533
2.31951e-07
3.0159e-06
0.00136292
5.11233e-07
2.16641e-05
0.00140698
1.44187e-06
-4.54922e-05
0.00151759
4.19371e-06
-0.000115823
0.00179747
1.10399e-05
-0.000293462
0.00172139
2.83992e-05
4.58947e-05
0.00153403
4.54214e-05
0.000140398
0.00144045
4.40278e-05
4.6707e-05
0.0013549
5.62317e-05
2.69985e-05
0.00137918
7.48369e-05
-0.000101185
0.00131797
5.87948e-05
1.03084e-06
0.001215
4.41849e-05
5.84983e-05
0.00105692
3.14002e-05
0.000123882
0.000719289
3.06406e-05
0.000312515
9.96884e-06
0.000709342
0.00162359
-1.40472e-09
5.87311e-05
0.00157663
6.05043e-09
4.69609e-05
0.00153813
-1.18451e-09
3.84976e-05
0.00150603
7.1204e-09
3.20938e-05
0.00147923
-6.01813e-09
2.68092e-05
0.0014563
1.01941e-08
2.29163e-05
0.00143726
-7.36391e-09
1.90587e-05
0.00142012
4.10355e-08
1.71078e-05
0.00140471
1.1802e-07
1.53236e-05
0.00138857
2.82138e-07
1.5925e-05
0.00138522
5.66897e-07
2.99543e-06
0.00136239
1.52499e-06
2.16243e-05
0.00140542
3.79036e-06
-4.55966e-05
0.00151094
1.37748e-05
-0.000115918
0.0017675
7.14238e-05
-0.000319557
0.00166323
7.94062e-05
5.16029e-05
0.00150067
7.51744e-05
0.00013132
0.00142108
8.003e-05
4.12739e-05
0.0013717
8.97062e-05
1.33555e-05
0.0013854
0.000102282
-4.2915e-05
0.00134848
0.000109125
-1.49044e-05
0.00126189
0.000102538
2.82801e-05
0.00109664
9.27487e-05
0.000101294
0.00075615
8.9733e-05
0.000287037
7.44239e-05
0.000693032
0.00162358
8.09049e-09
5.87341e-05
0.00157662
1.0132e-08
4.69554e-05
0.00153812
-3.73009e-09
3.85026e-05
0.00150604
2.77816e-09
3.20865e-05
0.00147923
-1.4996e-08
2.68202e-05
0.00145632
1.57664e-08
2.29015e-05
0.00143727
-3.79818e-08
1.90824e-05
0.00142006
1.66643e-07
1.7075e-05
0.00140464
2.23336e-07
1.52998e-05
0.00138849
5.0626e-07
1.58847e-05
0.00138397
2.02236e-06
3.03371e-06
0.00136246
1.34538e-06
2.15002e-05
0.00140231
9.30979e-06
-4.55856e-05
0.00151164
1.57708e-05
-0.000112182
0.0017838
9.478e-05
-0.000298072
0.00170383
0.000119742
3.79723e-05
0.00152724
0.000121784
0.0001283
0.00144581
0.000120742
3.83827e-05
0.00139819
0.000125138
9.59815e-06
0.00139241
0.000138262
-3.22134e-05
0.00136347
0.000157372
-2.1209e-05
0.00127623
0.000170603
1.91464e-05
0.00110939
0.000168547
8.8465e-05
0.000767434
0.000167384
0.000269816
0.000179853
0.000663239
0.00162354
5.96692e-08
5.87316e-05
0.00157666
-6.71258e-08
4.69564e-05
0.0015381
4.88847e-08
3.85049e-05
0.00150609
-6.70097e-08
3.2084e-05
0.00147918
6.26736e-08
2.68286e-05
0.00145643
-1.13951e-07
2.28808e-05
0.0014371
1.66944e-07
1.91241e-05
0.0014206
-2.74586e-07
1.69376e-05
0.0014063
-6.70989e-07
1.51858e-05
0.00138583
5.41587e-06
1.55123e-05
0.00139638
-1.12459e-05
2.69621e-06
0.00133862
3.8351e-05
2.0525e-05
0.00143546
-4.25854e-05
-4.49371e-05
0.00150368
5.86647e-05
-0.000112141
0.00178661
0.000114234
-0.000304847
0.00171039
0.000164661
2.95241e-05
0.00154101
0.000162418
0.000127033
0.00145713
0.000169238
3.27593e-05
0.00138971
0.000186064
3.7889e-06
0.00139173
0.000211626
-7.73736e-05
0.00134472
0.000222591
-2.01611e-05
0.00125443
0.000235969
2.48809e-05
0.00108508
0.00024533
8.99474e-05
0.000733859
0.000257057
0.000266911
0.000280923
0.000632601
0.00162387
-5.18735e-08
5.85805e-05
0.0015766
8.15584e-08
4.71253e-05
0.00153834
-5.56411e-08
3.83627e-05
0.00150597
7.06606e-08
3.22377e-05
0.00147943
-8.12995e-08
2.66723e-05
0.00145612
1.26479e-07
2.30751e-05
0.00143771
-1.78149e-07
1.88389e-05
0.00141829
4.55277e-07
1.74023e-05
0.00140125
1.02263e-06
1.63768e-05
0.00140301
-4.14456e-06
8.51404e-06
0.00135506
1.52629e-05
2.08078e-05
0.00145463
-2.92692e-05
-3.25179e-05
0.00130178
6.34775e-05
4.68332e-05
0.00162922
8.66922e-06
-0.000278437
0.0018143
0.000189541
-0.000262862
0.00174493
0.000220197
1.20597e-05
0.00154822
0.000228301
0.000128975
0.00146093
0.000224159
2.97396e-05
0.00140474
0.000241816
-2.44249e-06
0.00139993
0.000269248
-5.51993e-05
0.00135051
0.000292417
-2.26161e-05
0.0012537
0.000309412
2.31468e-05
0.00107697
0.00032747
9.17964e-05
0.000719425
0.000355713
0.000264238
0.000389948
0.000609963
0.0016235
5.02651e-08
5.87312e-05
0.0015767
-8.5152e-08
4.69537e-05
0.00153811
4.66068e-08
3.85114e-05
0.00150613
-5.79731e-08
3.20772e-05
0.00147918
5.63389e-08
2.68418e-05
0.0014565
-6.83936e-08
2.28599e-05
0.00143704
1.20902e-07
1.91601e-05
0.00142083
-1.86664e-07
1.68506e-05
0.00140716
-4.77208e-07
1.51463e-05
0.00138283
5.1497e-06
1.50087e-05
0.00140713
-1.16624e-05
2.61905e-06
0.0013182
4.01303e-05
1.92607e-05
0.00146638
-4.13103e-05
-4.33322e-05
0.00149052
8.49079e-05
-0.000101384
0.00179304
0.000185898
-0.000301263
0.0017461
0.000265151
2.29929e-07
0.00157933
0.000270837
0.000122094
0.00149272
0.000279451
2.87258e-05
0.00143512
0.000301599
-4.93012e-06
0.00141782
0.000332613
-4.86677e-05
0.00136913
0.000360826
-2.21813e-05
0.00126979
0.000386042
2.2392e-05
0.0010874
0.000416426
9.07154e-05
0.000727351
0.000463975
0.000257154
0.000529193
0.000587564
0.0016239
-8.13966e-08
5.85729e-05
0.00157661
8.02998e-08
4.71304e-05
0.00153835
-5.73265e-08
3.83655e-05
0.00150599
7.51674e-08
3.22238e-05
0.0014794
-5.31587e-08
2.67028e-05
0.00145621
1.0213e-07
2.30112e-05
0.00143735
-7.14515e-08
1.89722e-05
0.00142174
3.34853e-07
1.72083e-05
0.00140193
9.2391e-07
1.6283e-05
0.00140254
-3.99572e-06
8.65097e-06
0.00135735
1.31261e-05
2.04654e-05
0.001452
-2.2978e-05
-3.19786e-05
0.00130126
6.31747e-05
4.59016e-05
0.00161366
1.92248e-05
-0.0002476
0.00180653
0.000252041
-0.00026136
0.00177894
0.000316808
-2.60527e-05
0.00158636
0.0003388
0.000122682
0.00150036
0.000334604
2.8254e-05
0.00145046
0.000356232
-7.56123e-06
0.00142934
0.000389322
-3.82652e-05
0.00138519
0.000423636
-2.10758e-05
0.00128809
0.000461177
2.16608e-05
0.00110251
0.00050975
8.93215e-05
0.000741117
0.000586273
0.000244258
0.000712149
0.000557623
0.00162349
-2.53819e-08
5.87691e-05
0.00157665
5.1136e-09
4.69113e-05
0.00153806
-7.56169e-09
3.8546e-05
0.00150608
1.68698e-08
3.20324e-05
0.00147916
-9.85597e-10
2.68841e-05
0.0014564
2.28385e-08
2.28122e-05
0.00143712
3.1871e-08
1.92234e-05
0.00142065
1.15589e-07
1.68229e-05
0.0014058
3.34829e-07
1.51884e-05
0.00138591
6.97375e-07
1.52586e-05
0.00139501
5.89666e-07
3.59227e-06
0.00134525
5.88996e-06
2.02192e-05
0.00144189
1.16681e-05
-4.51454e-05
0.00147534
6.12758e-05
-7.61683e-05
0.00175536
0.000268557
-0.00029902
0.00175307
0.000363062
-4.62333e-05
0.00159915
0.000380543
0.000110386
0.00151949
0.000383413
2.84841e-05
0.00147233
0.000407952
-7.20261e-06
0.00144895
0.000443671
-3.36852e-05
0.00140604
0.000482759
-1.87991e-05
0.00131286
0.000532379
2.14485e-05
0.00112869
0.000603598
8.68069e-05
0.000772021
0.000721037
0.000226819
0.000968137
0.000516116
0.00162347
1.1884e-08
5.88036e-05
0.0015766
7.91097e-10
4.68725e-05
0.00153802
-8.06021e-09
3.85759e-05
0.00150604
3.65288e-10
3.19969e-05
0.00147914
-1.9629e-08
2.69194e-05
0.00145637
1.73939e-08
2.27742e-05
0.00143716
-2.68694e-08
1.92716e-05
0.00142035
1.37366e-07
1.67803e-05
0.00140522
2.97415e-07
1.51572e-05
0.00138945
1.05764e-06
1.5362e-05
0.00138314
2.81351e-06
4.03428e-06
0.0013631
5.36186e-06
2.03745e-05
0.00140252
1.94098e-05
-4.73975e-05
0.0014642
6.3123e-05
-6.43734e-05
0.00171647
0.00031315
-0.000299273
0.00175202
0.000390994
-6.57675e-05
0.00160614
0.00041839
0.000106218
0.00153158
0.000424918
3.08249e-05
0.00149096
0.000452245
-6.17803e-06
0.00146934
0.000491367
-2.86887e-05
0.00142874
0.000535312
-1.46157e-05
0.00134178
0.000597246
2.13417e-05
0.00116572
0.000696089
7.97959e-05
0.000812561
0.000877272
0.000201021
0.00133652
0.000444963
0.00162348
5.87817e-05
6.2178e-08
0.00157664
4.68971e-05
-6.32966e-08
0.00153805
3.85628e-05
2.9186e-08
0.00150607
3.20083e-05
-3.5534e-08
0.00147914
2.69217e-05
-1.7818e-09
0.0014564
2.27508e-05
-4.25403e-09
0.00143705
1.93598e-05
-1.95377e-08
0.00142042
1.67014e-05
7.49219e-08
0.00140568
1.51689e-05
-1.62168e-08
0.00138666
1.49841e-05
5.02615e-06
0.00139122
4.29915e-06
-6.82973e-06
0.00134722
1.93326e-05
3.04203e-05
0.00143741
-4.48223e-05
-2.61467e-05
0.00145433
-5.84771e-05
0.000103704
0.00174539
-0.00030755
0.000326927
0.00178804
-7.23349e-05
0.000418761
0.00163949
0.000103719
0.000461265
0.0015651
3.45989e-05
0.000462743
0.00152914
-4.39616e-06
0.000490303
0.00150819
-2.0806e-05
0.000530777
0.00147103
-1.00533e-05
0.00057992
0.0013934
2.05832e-05
0.000653333
0.00123191
6.89263e-05
0.000784266
0.000914904
0.000164407
0.0010333
0.000322374
0.00192938
0.00172981
-1.19074e-09
7.14316e-06
0.00176407
1.42573e-09
1.26984e-05
0.00178823
-1.19314e-11
1.43425e-05
0.0018061
2.89444e-09
1.42175e-05
0.00181982
8.89043e-10
1.30872e-05
0.00183071
3.40871e-09
1.20319e-05
0.0018389
7.16333e-09
1.08468e-05
0.00184559
1.97888e-08
1.03995e-05
0.00185153
4.65084e-08
9.35475e-06
0.00185821
1.42971e-07
9.07897e-06
0.0018539
3.01044e-07
6.98201e-06
0.00186762
1.19458e-06
6.44944e-06
0.00182898
2.98531e-06
-1.00405e-05
0.00179762
1.4798e-05
-0.000101848
0.00158344
6.28774e-06
-9.14081e-05
0.00138472
0.000126453
0.000113817
0.00131934
0.000154464
4.65933e-05
0.00114813
0.000174624
4.00133e-05
0.000872065
0.000227423
7.13155e-05
0.000974138
0.000426213
-0.000632742
0.000631565
0.000292398
4.74356e-05
0.000346024
0.000217218
0.000123362
3.08084e-05
0.000210749
0.000229467
-0.000186117
0.000226509
0.000302788
0.00012328
0.000390866
0.00172981
9.6541e-11
7.14145e-06
0.00176407
3.15775e-09
1.27007e-05
0.00178823
1.23706e-09
1.43403e-05
0.0018061
4.17939e-09
1.42203e-05
0.00181982
1.19534e-09
1.30821e-05
0.0018307
4.14513e-09
1.20402e-05
0.00183892
1.19511e-08
1.08356e-05
0.00184559
4.25351e-08
1.04e-05
0.0018516
1.10563e-07
9.24628e-06
0.00185807
3.12885e-07
9.23059e-06
0.00185415
8.28472e-07
6.34553e-06
0.00186701
2.42715e-06
7.2535e-06
0.00182685
6.4958e-06
-9.22662e-06
0.00178524
3.95158e-05
-0.000101443
0.00150351
0.000268457
-0.000308024
0.0013367
0.000243506
9.772e-05
0.00129999
0.000282272
3.62881e-05
0.00118428
0.000309935
1.85321e-05
0.00105139
0.000347106
2.42283e-05
0.000994351
0.000405158
3.12875e-05
0.000807562
0.000456024
-1.65488e-07
0.000472949
0.000483035
9.20878e-05
0.000116794
0.000490445
0.000178396
-0.000109155
0.000481736
0.000258485
0.000343642
0.000355376
0.00172981
6.19451e-09
7.14373e-06
0.00176406
4.2618e-09
1.26968e-05
0.00178822
3.68883e-09
1.43427e-05
0.00180609
2.84596e-09
1.42162e-05
0.00181983
-1.11407e-09
1.3086e-05
0.0018307
5.34343e-09
1.2033e-05
0.00183895
7.91769e-09
1.08356e-05
0.00184561
6.34412e-08
1.03795e-05
0.00185151
1.72e-07
9.33821e-06
0.00185796
6.25287e-07
9.06191e-06
0.00185354
1.35306e-06
6.89299e-06
0.00186595
4.76059e-06
6.46257e-06
0.00182572
1.07818e-05
-9.88242e-06
0.00178024
6.31516e-05
-9.28986e-05
0.00154977
0.00028686
-9.21154e-05
0.00135395
0.000382992
9.00107e-05
0.00131311
0.000416856
3.01778e-05
0.00120794
0.000444689
5.02824e-06
0.00109248
0.000473812
-3.48853e-06
0.0010204
0.00047621
-3.47853e-05
0.000822893
0.000629936
-1.00492e-05
0.000504482
0.000723369
9.00333e-05
0.000162216
0.000753652
0.000167776
-6.5019e-05
0.000736196
0.000244151
0.00059282
0.000341539
0.0017298
2.28006e-08
7.14027e-06
0.00176407
-1.61692e-08
1.27007e-05
0.00178822
2.22868e-08
1.43385e-05
0.00180611
-2.40892e-08
1.42227e-05
0.00181983
2.67044e-08
1.3078e-05
0.00183071
-3.91142e-08
1.20451e-05
0.001839
3.20364e-08
1.08156e-05
0.00184558
2.75987e-08
1.03785e-05
0.00185102
6.86467e-07
9.23249e-06
0.00185767
1.76779e-07
9.24964e-06
0.00185078
4.71159e-06
6.18516e-06
0.00186506
3.11527e-06
7.58058e-06
0.00182576
1.41413e-05
-9.21867e-06
0.00176893
0.000106771
-0.000101541
0.00151816
0.000420676
-0.000193537
0.0013384
0.000504086
8.39776e-05
0.00130248
0.000545697
2.95549e-05
0.00117726
0.000595132
3.71527e-06
0.000977758
0.000674323
-5.23475e-07
0.000946808
0.000879366
-0.000452645
0.000717935
0.000835938
-6.95462e-06
0.000466297
0.000905676
8.7949e-05
0.000168481
0.000981129
0.000160745
-4.70526e-05
0.000987989
0.000232244
0.000839837
0.000331447
0.00172971
-1.59887e-08
7.13464e-06
0.0017641
2.12519e-08
1.27053e-05
0.00178817
-1.85086e-08
1.43304e-05
0.00180612
2.51443e-08
1.42349e-05
0.00181978
-2.79153e-08
1.30657e-05
0.00183072
4.56237e-08
1.20553e-05
0.00183876
1.51454e-09
1.08253e-05
0.00184571
1.56416e-07
1.03132e-05
0.00185432
-1.9173e-07
8.65315e-06
0.00185071
1.44004e-06
1.07981e-05
0.0018759
-7.85936e-07
1.0819e-06
0.00181921
9.70718e-06
1.72424e-05
0.00188102
1.95567e-05
-2.06216e-05
0.00173729
8.36243e-05
-0.000114131
0.00153449
0.000528083
-0.000173117
0.00133467
0.000632461
7.93813e-05
0.00130307
0.000675155
2.65967e-05
0.00119009
0.000735987
-2.01373e-06
0.00105132
0.000824571
-1.74686e-05
0.000986629
0.000944248
-5.88377e-05
0.000766382
0.001043
-1.66814e-05
0.00048599
0.00112217
8.08657e-05
0.000193904
0.00121498
0.000151461
-1.80832e-05
0.00124448
0.000221302
0.00110384
0.000320582
0.00172979
1.38325e-08
7.13778e-06
0.00176409
-2.38299e-08
1.2702e-05
0.00178823
1.4063e-08
1.43388e-05
0.00180613
-2.6361e-08
1.4222e-05
0.00181984
2.60009e-08
1.30811e-05
0.00183074
-3.58513e-08
1.20386e-05
0.00183904
6.4858e-08
1.08002e-05
0.00184566
6.48899e-08
1.03095e-05
0.00185058
8.74609e-07
9.15626e-06
0.00185743
2.56241e-07
9.27759e-06
0.00184801
5.43058e-06
5.78479e-06
0.00186407
4.69311e-06
7.89882e-06
0.00182809
2.15833e-05
-9.62787e-06
0.00176813
0.000140259
-0.00010064
0.00153046
0.000615147
-0.000155688
0.00133648
0.000747246
7.5184e-05
0.00130849
0.000795124
2.56234e-05
0.00120783
0.000868457
-7.05512e-06
0.00107379
0.000977395
-2.72815e-05
0.000996976
0.00113787
-0.000168717
0.000795133
0.00123888
-2.36327e-05
0.000527144
0.00133263
7.33433e-05
0.000239971
0.00145245
0.000142481
2.50475e-05
0.00150837
0.000209752
0.00140447
0.000304916
0.00172971
-3.25204e-08
7.13858e-06
0.0017641
1.69397e-08
1.26983e-05
0.00178817
-2.81094e-08
1.43391e-05
0.00180612
2.58031e-08
1.42222e-05
0.00181979
-2.62793e-08
1.30811e-05
0.00183068
5.51423e-08
1.20358e-05
0.0018389
2.00519e-08
1.07921e-05
0.00184571
2.20295e-07
1.02473e-05
0.00185439
-1.77243e-07
8.62504e-06
0.00185095
1.65681e-06
1.06309e-05
0.00187599
-4.05545e-07
1.25091e-06
0.0018206
1.14326e-05
1.63195e-05
0.00188501
2.6128e-05
-2.33177e-05
0.00175282
0.000116155
-9.37767e-05
0.00156863
0.000711339
-0.000178949
0.00134696
0.000868369
7.0476e-05
0.00132595
0.000912311
2.2045e-05
0.00123824
0.000991038
-1.07949e-05
0.00112514
0.00111269
-3.30035e-05
0.0010279
0.00128324
-8.95792e-05
0.000849847
0.0014158
-2.80459e-05
0.000594585
0.00153553
6.64001e-05
0.000317638
0.00168631
0.000133561
8.84532e-05
0.00178491
0.00019908
0.00175855
0.00028597
0.00172983
-1.6366e-08
7.1489e-06
0.00176406
4.26742e-10
1.26884e-05
0.00178824
-1.0095e-08
1.43521e-05
0.00180609
3.59772e-09
1.42019e-05
0.00181985
6.60778e-10
1.31008e-05
0.0018307
9.46409e-09
1.20069e-05
0.0018391
5.91495e-08
1.07827e-05
0.00184576
1.86849e-07
1.01899e-05
0.00185112
4.50856e-07
9.19772e-06
0.00185773
1.22318e-06
9.01431e-06
0.00185163
3.15678e-06
6.07591e-06
0.00186598
1.03677e-05
6.5966e-06
0.00182649
3.05199e-05
-1.02888e-05
0.00179129
0.000153488
-8.08243e-05
0.00158065
0.000791509
-0.00017425
0.00136138
0.000976812
6.06262e-05
0.00134134
0.00101554
2.28676e-05
0.00126854
0.00110042
-1.23856e-05
0.00117068
0.00123402
-3.38005e-05
0.00107179
0.00141967
-7.44736e-05
0.00091045
0.00157746
-2.7131e-05
0.000678154
0.0017239
5.79595e-05
0.000420907
0.00190925
0.000121509
0.000176381
0.00207176
0.000186045
0.00218692
0.000258226
0.00172985
-1.51262e-09
7.15408e-06
0.00176403
7.37952e-09
1.26827e-05
0.00178825
-1.00438e-08
1.43568e-05
0.00180605
8.57119e-09
1.41945e-05
0.00181988
-8.21721e-09
1.31044e-05
0.00183066
-1.19192e-09
1.19995e-05
0.00183913
9.47417e-08
1.07624e-05
0.00184582
1.49421e-07
1.01216e-05
0.00185166
5.84393e-07
9.17352e-06
0.00185797
1.2328e-06
8.98352e-06
0.00185384
5.27811e-06
5.98476e-06
0.00186716
1.05537e-05
6.5292e-06
0.00181841
4.11083e-05
-9.49007e-06
0.00179489
0.000175521
-6.54029e-05
0.00159115
0.000890727
-0.000200656
0.00137373
0.00107371
5.07414e-05
0.00136039
0.00110883
2.20474e-05
0.00130385
0.00119603
-1.25331e-05
0.00122201
0.00133885
-3.22433e-05
0.0011314
0.00153719
-5.86285e-05
0.000999792
0.00171077
-2.45403e-05
0.000806247
0.00188316
4.75938e-05
0.000576337
0.00211322
0.000104803
0.000315492
0.00236916
0.000165731
0.00272212
0.000220478
0.00172983
7.15124e-06
1.27929e-08
0.00176405
1.26862e-05
4.55219e-09
0.00178827
1.43539e-05
-2.0592e-08
0.00180603
1.42046e-05
4.39496e-08
0.00181995
1.30856e-05
-9.14122e-08
0.00183053
1.20295e-05
1.47832e-07
0.00183963
1.06625e-05
-3.10518e-07
0.001846
1.01066e-05
3.67554e-07
0.00185367
9.17514e-06
-1.1042e-06
0.00185449
9.04535e-06
6.28585e-06
0.00186655
5.61347e-06
-8.16736e-06
0.00184501
7.065e-06
4.40346e-05
0.00185013
-9.03507e-06
-9.794e-08
0.00178586
-5.70843e-05
0.000236034
0.00161085
-0.000208523
0.000960658
0.00139764
4.31451e-05
0.00116723
0.00138613
2.11516e-05
0.00119881
0.00134633
-1.13728e-05
0.0012777
0.00128334
-2.8723e-05
0.0014225
0.00121387
-4.65866e-05
0.00162916
0.00110812
-1.96861e-05
0.00181872
0.000952192
3.98963e-05
0.00201175
0.00076953
8.54572e-05
0.00227774
0.000572869
0.000124717
0.00260634
0.000157024
0.00345457
0.00169383
1.78091e-09
-7.13991e-06
0.00171923
-5.75317e-10
-1.27e-05
0.0017479
2.21615e-09
-1.43384e-05
0.00177634
-1.11322e-09
-1.42192e-05
0.00180251
1.42089e-09
-1.30839e-05
0.00182658
-8.08926e-11
-1.20356e-05
0.00184827
-2.10321e-09
-1.0838e-05
0.00186908
-4.66454e-10
-1.04186e-05
0.00188779
9.69457e-09
-9.3619e-06
0.00190572
1.79519e-07
-9.09563e-06
0.00191933
2.47776e-07
-6.91241e-06
0.00193033
1.57909e-06
-6.43839e-06
0.00190497
4.28008e-06
1.06624e-05
0.00166022
2.95293e-05
0.000110431
0.00118184
0.000152469
0.000226878
0.00120156
0.000192363
-0.000102737
0.00105194
0.000229775
-3.90366e-05
0.000877929
0.000232757
-2.61031e-05
0.000755524
0.000225048
-3.90617e-05
-2.84301e-05
0.000203277
-5.46479e-05
-0.000292914
0.000343256
-3.3301e-05
-0.000496539
0.00042364
-9.53563e-05
-0.00051786
0.000439299
-0.00018618
-0.000382263
0.000475992
-0.000306351
0.000425991
-0.000418119
0.00169382
7.74513e-10
-7.13405e-06
0.00171923
1.19528e-09
-1.27068e-05
0.0017479
5.37207e-10
-1.43294e-05
0.00177635
2.09589e-09
-1.42327e-05
0.0018025
4.71507e-10
-1.30721e-05
0.00182659
4.68746e-10
-1.20435e-05
0.00184828
7.74811e-09
-1.0866e-05
0.00186903
1.46331e-08
-1.03692e-05
0.00188699
7.90987e-08
-8.78054e-06
0.00190682
2.11147e-07
-1.06944e-05
0.00191441
8.23089e-07
-1.85837e-06
0.001937
2.40765e-06
-1.64694e-05
0.00190307
6.87854e-06
2.17031e-05
0.0016557
4.36396e-05
0.000128896
0.00116073
0.000253885
7.79621e-05
0.00118652
0.000356204
-9.65601e-05
0.00105626
0.000423685
-3.31184e-05
0.000878376
0.000447919
-2.61361e-05
0.000719898
0.000454453
-5.46751e-05
-8.76134e-05
0.000428423
0.000611253
-0.000418859
0.000693783
-2.09322e-05
-0.000555971
0.000744331
-8.95879e-05
-0.000541162
0.000784384
-0.000178944
-0.000371989
0.000830202
-0.000262595
0.000766709
-0.000357456
0.00169382
3.27916e-09
-7.13586e-06
0.00171923
-7.67906e-10
-1.27054e-05
0.0017479
3.23799e-09
-1.43334e-05
0.00177635
-1.31272e-09
-1.42256e-05
0.00180251
7.46102e-10
-1.30814e-05
0.00182658
2.49899e-10
-1.20334e-05
0.00184827
-1.0913e-09
-1.08462e-05
0.00186905
1.0379e-08
-1.03919e-05
0.00188771
8.04877e-08
-9.33313e-06
0.00190555
4.86177e-07
-9.10584e-06
0.00191892
1.09191e-06
-6.79877e-06
0.00192937
4.68726e-06
-6.57384e-06
0.00190199
1.30949e-05
1.08862e-05
0.00164627
8.59464e-05
0.000117549
0.00116003
0.000411431
0.000228856
0.00117017
0.000519964
-8.85282e-05
0.00104547
0.000606239
-3.35287e-05
0.000853101
0.0006548
-1.68028e-05
0.000628468
0.000690769
-2.33567e-05
-0.000105106
0.000787609
0.00033838
-0.000427812
0.000999674
5.14404e-06
-0.00054291
0.00104338
-9.25515e-05
-0.000517101
0.001103
-0.000173776
-0.000358051
0.00115512
-0.000237435
0.0010797
-0.000329029
0.00169382
3.24618e-09
-7.13098e-06
0.00171923
-1.54876e-09
-1.2713e-05
0.0017479
3.17369e-09
-1.43238e-05
0.00177636
-3.26284e-09
-1.42389e-05
0.00180251
1.29423e-09
-1.30701e-05
0.00182659
-2.08702e-09
-1.20348e-05
0.00184829
3.78842e-09
-1.08949e-05
0.00186896
2.24878e-08
-1.03017e-05
0.00188687
1.27759e-07
-8.72481e-06
0.00190648
6.63875e-07
-1.05963e-05
0.00191383
1.54529e-06
-1.66923e-06
0.0019356
6.40169e-06
-1.62243e-05
0.00189942
1.78869e-05
2.17578e-05
0.00163959
0.000116709
0.000124563
0.0011622
0.000571169
0.000116008
0.00116244
0.000685591
-8.65411e-05
0.00104037
0.000781666
-2.96128e-05
0.000841914
0.000854167
-4.63094e-06
0.00060199
0.000916656
5.74129e-06
-7.97592e-05
0.000977905
3.88118e-05
-0.000386728
0.00128526
1.2684e-05
-0.00049523
0.00133877
-9.71974e-05
-0.000474924
0.0014136
-0.000167566
-0.000334942
0.00147348
-0.000223794
0.00139431
-0.000317782
0.00169381
-1.21411e-09
-7.12723e-06
0.00171924
-1.35359e-10
-1.27194e-05
0.00174789
-1.21903e-09
-1.43203e-05
0.00177637
-1.62795e-09
-1.42452e-05
0.0018025
2.03891e-09
-1.30653e-05
0.0018266
-3.72652e-09
-1.2039e-05
0.0018483
2.10213e-08
-1.08903e-05
0.00186885
4.90623e-08
-1.02643e-05
0.00188601
1.99869e-07
-8.58674e-06
0.00190735
7.00325e-07
-1.06428e-05
0.00190886
1.99687e-06
-9.29549e-07
0.00194216
7.04104e-06
-1.70135e-05
0.00189835
1.97221e-05
2.09078e-05
0.00164364
0.000124271
0.000130085
0.00116842
0.000720656
0.000144326
0.00116234
0.000852697
-8.63311e-05
0.00104271
0.000951232
-2.9102e-05
0.000841288
0.00104463
1.21767e-06
0.000579654
0.00113825
1.507e-05
-1.92203e-05
0.00126014
0.00025931
-0.000318369
0.00155436
1.11023e-05
-0.000427798
0.0016216
-9.14896e-05
-0.000420331
0.00171882
-0.000158774
-0.000301249
0.00179297
-0.000214776
0.00172371
-0.000309214
0.00169382
-3.49455e-09
-7.13267e-06
0.00171923
-1.46762e-09
-1.27093e-05
0.0017479
-2.68586e-09
-1.43292e-05
0.00177636
-3.46446e-09
-1.42345e-05
0.00180251
3.83895e-09
-1.30737e-05
0.00182659
-3.65333e-09
-1.20335e-05
0.00184823
2.7309e-08
-1.08526e-05
0.00186877
5.83604e-08
-1.02407e-05
0.00188654
2.2877e-07
-8.64661e-06
0.00190613
9.22978e-07
-1.05897e-05
0.00191292
2.28173e-06
-1.34907e-06
0.0019351
8.7572e-06
-1.63245e-05
0.00189822
2.40835e-05
2.24362e-05
0.00165939
0.000149413
0.000110131
0.0011739
0.000858273
0.000183854
0.00116524
0.00101163
-7.9765e-05
0.00105195
0.00110973
-2.52367e-05
0.000854679
0.0012199
7.22823e-06
0.000585272
0.00134546
2.80488e-05
7.06197e-05
0.00152378
8.42671e-05
-0.000220359
0.00180132
1.88548e-05
-0.000340487
0.00189984
-8.31335e-05
-0.000347123
0.00201904
-0.000148788
-0.000251942
0.00211594
-0.000206199
0.00207539
-0.000298067
0.00169383
-5.9081e-09
-7.14158e-06
0.00171923
-1.82321e-09
-1.26979e-05
0.00174791
-5.0716e-09
-1.43445e-05
0.00177634
-1.15986e-09
-1.4212e-05
0.00180252
1.28283e-09
-1.30916e-05
0.00182657
3.97108e-09
-1.20212e-05
0.00184815
2.55829e-08
-1.07918e-05
0.00186863
8.03988e-08
-1.02539e-05
0.0018863
3.01098e-07
-9.11616e-06
0.00190593
1.06516e-06
-9.20631e-06
0.00191211
2.89229e-06
-5.59444e-06
0.00193419
1.02351e-05
-7.57653e-06
0.00189667
2.84204e-05
9.38986e-06
0.00168315
0.00017322
9.30241e-05
0.00118436
0.000980504
0.000189378
0.00117123
0.00116069
-7.02258e-05
0.00106527
0.00125504
-2.30179e-05
0.000874682
0.00137993
1.16938e-05
0.000614278
0.00153181
3.4006e-05
0.000184524
0.00177641
8.93221e-05
-9.9949e-05
0.00203261
2.35533e-05
-0.000227255
0.00216751
-7.27825e-05
-0.000247565
0.00231319
-0.000137731
-0.000180496
0.00244654
-0.000195847
0.002462
-0.000280343
0.00169385
-6.26513e-09
-7.15197e-06
0.00171922
-1.20664e-12
-1.26854e-05
0.00174792
-3.39394e-09
-1.4355e-05
0.00177632
-1.29867e-09
-1.41972e-05
0.00180252
5.3684e-09
-1.3103e-05
0.00182654
-3.3349e-09
-1.20033e-05
0.00184809
3.74929e-08
-1.07825e-05
0.00186848
6.90186e-08
-1.01853e-05
0.00188683
3.50382e-07
-9.20597e-06
0.0019044
1.42574e-06
-8.98863e-06
0.00191598
3.48653e-06
-6.15326e-06
0.00192591
1.30796e-05
-6.52496e-06
0.00189835
3.5629e-05
9.57778e-06
0.00170803
0.000206477
7.33378e-05
0.00119903
0.00110072
0.000206416
0.0011759
0.00129883
-5.90978e-05
0.00108352
0.00138701
-2.21903e-05
0.000905433
0.00152513
1.26843e-05
0.00066155
0.00170101
3.40803e-05
0.00030545
0.00198588
7.33129e-05
3.92007e-05
0.00224606
2.41949e-05
-8.54861e-05
0.00241377
-6.20116e-05
-0.000115352
0.00259158
-0.000124242
-7.73985e-05
0.00277968
-0.000183227
0.00289722
-0.000254009
0.00169385
-8.5155e-09
-7.15453e-06
0.00171921
1.29237e-08
-1.26825e-05
0.00174793
-1.60511e-08
-1.4357e-05
0.0017763
2.17558e-08
-1.41941e-05
0.00180254
-2.28369e-08
-1.31043e-05
0.0018265
2.59431e-08
-1.19984e-05
0.00184805
2.02379e-08
-1.07647e-05
0.00186828
8.00411e-08
-1.01199e-05
0.00188629
6.82205e-07
-9.17425e-06
0.00190401
1.61318e-06
-8.9913e-06
0.00191373
5.68965e-06
-6.00271e-06
0.00192594
1.36455e-05
-6.60354e-06
0.00189511
4.70944e-05
9.35965e-06
0.0017309
0.000238679
6.378e-05
0.00121237
0.00121154
0.000198947
0.00118308
0.00142383
-4.97225e-05
0.00110334
0.00150473
-2.14574e-05
0.000944738
0.0016508
1.25874e-05
0.000727495
0.00184643
3.23479e-05
0.000435468
0.00216309
5.78867e-05
0.000203094
0.00243003
2.31228e-05
8.92669e-05
0.0026263
-5.03553e-05
4.58489e-05
0.00284818
-0.00010606
6.41456e-05
0.00309183
-0.000163086
0.00339905
-0.000217794
0.00169384
-7.14997e-06
-2.73153e-09
0.0017192
-1.26867e-05
1.82063e-08
0.00174793
-1.43524e-05
-3.76094e-08
0.00177629
-1.42049e-05
7.51562e-08
0.00180257
-1.30853e-05
-1.36427e-07
0.00182642
-1.20286e-05
2.33062e-07
0.00184817
-1.0665e-05
-4.00772e-07
0.00186771
-1.01032e-05
7.5278e-07
0.00188711
-9.17265e-06
-3.79416e-07
0.00190025
-9.0415e-06
6.488e-06
0.00192284
-5.61038e-06
-5.74569e-06
0.00190695
-7.071e-06
4.32885e-05
0.00190908
9.02582e-06
2.66108e-05
0.00173108
5.76865e-05
0.000298695
0.00121992
0.000210577
0.00129592
0.00119287
-4.26641e-05
0.00153179
0.00112689
-2.08926e-05
0.00160746
0.000989331
1.17139e-05
0.00175736
0.000806502
2.91265e-05
0.00196378
0.000577958
4.65496e-05
0.0022992
0.000388802
1.91597e-05
0.00258071
0.000301821
-4.12811e-05
0.00279452
0.000273713
-8.5922e-05
0.00304959
0.000275362
-0.000122746
0.00333965
-0.000155216
0.00398518
0.0017298
1.94427e-08
-5.873e-05
0.00176407
-1.65495e-08
-4.6959e-05
0.00178821
2.01148e-08
-3.84999e-05
0.00180611
-2.56271e-08
-3.20906e-05
0.00181982
2.74634e-08
-2.6818e-05
0.00183072
-4.28598e-08
-2.28967e-05
0.00183896
1.49547e-08
-1.9093e-05
0.00184554
-4.07148e-08
-1.69697e-05
0.00185087
5.0981e-07
-1.51969e-05
0.00185772
-3.44311e-07
-1.5659e-05
0.00184993
3.48106e-06
-2.63801e-06
0.00186579
-1.15206e-06
-2.14275e-05
0.00182956
2.20888e-06
4.44242e-05
0.00178097
4.4653e-05
0.000111974
0.00153516
0.000157148
0.00030944
0.00135946
0.000131849
-6.264e-05
0.00132481
0.000137838
-0.000146479
0.0012244
0.000124685
-5.40858e-05
0.00112333
8.27076e-05
-2.2686e-05
0.00111271
-6.30957e-05
1.66909e-05
0.000967855
9.56226e-05
6.76984e-06
0.000701949
0.000202382
-4.61479e-05
0.000377026
0.000255009
-0.000115763
4.56548e-05
0.000322756
-0.000294001
0.000330586
-0.000712565
0.00172974
-8.75599e-09
-5.8616e-05
0.00176409
1.52869e-08
-4.70903e-05
0.00178818
-1.1448e-08
-3.83849e-05
0.00180612
2.07271e-08
-3.22225e-05
0.00181977
-2.4959e-08
-2.66675e-05
0.00183074
4.12202e-08
-2.31011e-05
0.00183866
-2.34261e-08
-1.87489e-05
0.00184566
7.19135e-08
-1.7492e-05
0.00185425
-3.96425e-07
-1.64535e-05
0.00185069
8.55296e-07
-8.38843e-06
0.00187537
-2.25082e-06
-2.08473e-05
0.00181758
5.34588e-06
3.45276e-05
0.00187979
7.56761e-06
-4.61119e-05
0.0017412
1.67683e-05
0.00029294
0.00155822
0.000165293
0.000247639
0.0013608
0.000272005
-4.34467e-05
0.00131642
0.000287687
-0.00014325
0.00115432
0.000299048
-4.18683e-05
0.000875317
0.00031987
-1.69862e-05
0.000925214
0.000397882
9.73385e-05
0.000622457
0.000370289
2.0392e-06
0.000390285
0.000393693
-5.51365e-05
0.000100324
0.000483479
-0.000114164
-0.000117881
0.000577382
-0.000297756
0.00050829
-0.00066199
0.00172979
1.34921e-08
-5.87184e-05
0.00176409
-1.47378e-08
-4.69748e-05
0.00178821
1.91101e-08
-3.84824e-05
0.00180614
-2.61182e-08
-3.2115e-05
0.00181979
2.96088e-08
-2.67864e-05
0.00183078
-4.45362e-08
-2.29335e-05
0.00183894
1.51806e-08
-1.90455e-05
0.0018456
-1.97941e-08
-1.69719e-05
0.00185053
5.47606e-07
-1.52113e-05
0.00185775
-1.39888e-07
-1.53864e-05
0.00184722
3.89492e-06
-2.45414e-06
0.00186546
9.42571e-07
-2.07018e-05
0.00183107
8.66613e-06
4.39593e-05
0.00176542
9.02273e-05
0.000107203
0.00149458
0.000353727
0.000305649
0.00133674
0.000382021
-4.46561e-05
0.00130377
0.000418531
-0.000136005
0.00115798
0.000460496
-3.58656e-05
0.000931314
0.000524997
-6.11251e-06
0.000919863
0.000660749
8.37292e-05
0.000639078
0.000635136
1.61286e-05
0.00034144
0.000633148
-3.69913e-05
3.80706e-05
0.000718221
-0.000101396
-0.000128051
0.000796274
-0.000290178
0.000687016
-0.000644164
0.00172977
1.95521e-09
-5.86562e-05
0.00176409
1.36547e-11
-4.70518e-05
0.00178819
2.78874e-10
-3.84039e-05
0.00180615
-4.101e-09
-3.22196e-05
0.00181975
-1.77127e-09
-2.6643e-05
0.00183084
1.97561e-10
-2.31642e-05
0.00183857
-3.3965e-11
-1.86147e-05
0.00184579
6.38475e-08
-1.76135e-05
0.00185419
1.39654e-07
-1.67236e-05
0.00185152
6.76551e-07
-8.80535e-06
0.00187383
1.45813e-06
-2.15904e-05
0.00182155
5.70859e-06
3.10104e-05
0.00188472
1.48052e-05
-4.78125e-05
0.00173776
8.55115e-05
0.000273762
0.00153231