/*--------------------------------*- C++ -*----------------------------------*\
  =========                 |
  \\      /  F ield         | OpenFOAM: The Open Source CFD Toolbox
   \\    /   O peration     | Website:  https://openfoam.org
    \\  /    A nd           | Version:  6
     \\/     M anipulation  |
\*---------------------------------------------------------------------------*/
FoamFile
{
    version     2.0;
    format      ascii;
    class       volScalarField;
    location    "8.5";
    object      T;
}
// * * * * * * * * * * * * * * * * * * * * * * * * * * * * * * * * * * * * * //

dimensions      [0 0 0 1 0 0 0];

internalField   nonuniform List<scalar> 
26250
(
0.979848
0.967665
0.955623
0.946854
0.937662
0.931421
0.925506
0.926773
0.928148
0.952409
0.995014
1.16606
1.57876
2.39425
2.68228
2.64392
2.6038
2.57716
2.57411
2.60639
2.61587
2.63056
2.67729
2.71215
2.64556
0.979836
0.967676
0.95561
0.946866
0.937649
0.931433
0.92548
0.926729
0.928051
0.952267
0.994565
1.16569
1.57537
2.39711
2.69005
2.65083
2.61289
2.58158
2.58228
2.59698
2.61632
2.6317
2.67498
2.71602
2.64992
0.979806
0.967702
0.955579
0.946897
0.937617
0.931463
0.925424
0.926627
0.927891
0.951918
0.993838
1.16388
1.57017
2.38845
2.68057
2.63937
2.60579
2.57397
2.57492
2.58784
2.61085
2.62751
2.67024
2.7158
2.65479
0.979714
0.967803
0.955486
0.947004
0.937511
0.931573
0.925212
0.926406
0.926645
0.951256
0.990413
1.16136
1.573
2.37687
2.67621
2.63644
2.60194
2.57199
2.57241
2.59447
2.61638
2.63283
2.67622
2.72038
2.66859
0.981594
0.965901
0.957427
0.945027
0.939512
0.929509
0.927308
0.923929
0.930646
0.940855
1.00937
1.12463
1.58972
2.48015
2.6795
2.64011
2.60314
2.57151
2.57226
2.58989
2.61307
2.6305
2.67522
2.7213
2.67754
0.979606
0.96791
0.955394
0.947096
0.937432
0.931629
0.925004
0.925866
0.926078
0.94964
0.984419
1.15297
1.55064
2.33911
2.65555
2.61833
2.59013
2.56138
2.56265
2.58
2.60545
2.62447
2.67079
2.71944
2.68052
0.981764
0.965724
0.957603
0.944841
0.939674
0.9293
0.927366
0.923323
0.929809
0.939129
1.00427
1.1113
1.56569
2.43792
2.65217
2.62034
2.58749
2.55541
2.55628
2.57023
2.59447
2.61341
2.65895
2.71457
2.68296
0.979369
0.968153
0.955125
0.947364
0.937135
0.931878
0.924657
0.92549
0.925599
0.947932
0.983466
1.14086
1.4974
2.28032
2.62062
2.60864
2.57704
2.54676
2.54737
2.55993
2.58225
2.60022
2.64163
2.70075
2.67534
0.979121
0.968393
0.954864
0.947619
0.936862
0.932144
0.924232
0.92527
0.925722
0.94649
0.982356
1.13243
1.46237
2.24436
2.5979
2.59439
2.56706
2.53709
2.53777
2.54847
2.56939
2.58613
2.6244
2.68033
2.65214
0.97933
0.96819
0.955088
0.947397
0.937091
0.931896
0.924382
0.92477
0.924791
0.944878
0.977519
1.12263
1.44122
2.18405
2.56941
2.569
2.54538
2.51295
2.51305
2.52121
2.5388
2.55214
2.58427
2.63281
2.58198
1.0141
1.02113
1.02621
1.02906
1.03184
1.03341
1.03662
1.04156
1.0598
1.09199
1.18154
1.41233
2.11387
2.77437
2.71771
2.79018
2.75544
2.74112
2.7699
2.77406
2.78038
2.80415
2.8329
2.84444
2.78245
1.0141
1.02113
1.02621
1.02906
1.03184
1.03341
1.03661
1.04153
1.05973
1.09181
1.18121
1.41098
2.11167
2.77494
2.70336
2.79485
2.75776
2.74411
2.76052
2.76568
2.78254
2.80678
2.82643
2.84568
2.79028
1.01409
1.02113
1.02621
1.02905
1.03184
1.0334
1.03657
1.04147
1.05954
1.09143
1.17999
1.40912
2.10217
2.77424
2.7162
2.78929
2.74938
2.74071
2.75391
2.75855
2.78348
2.81973
2.82851
2.8425
2.79462
1.01409
1.02113
1.02621
1.02905
1.03184
1.03339
1.03652
1.04134
1.05925
1.09076
1.17814
1.40606
2.0874
2.77456
2.71616
2.78752
2.74575
2.73702
2.75547
2.76005
2.77805
2.82039
2.82631
2.83684
2.79784
1.01419
1.0211
1.02627
1.02906
1.03187
1.03342
1.03657
1.04139
1.05706
1.09299
1.16784
1.41436
2.06603
2.78277
2.72225
2.78722
2.74375
2.7332
2.75039
2.7517
2.76238
2.80982
2.81939
2.82471
2.7969
1.01409
1.02112
1.02622
1.02905
1.03184
1.03335
1.03638
1.04102
1.05835
1.08884
1.17228
1.39584
2.03632
2.77589
2.72402
2.78358
2.73887
2.72949
2.74527
2.74607
2.75424
2.79326
2.80348
2.81414
2.79195
1.01421
1.02109
1.02628
1.02905
1.03187
1.03338
1.03639
1.04105
1.05579
1.09097
1.1612
1.40128
2.00548
2.77694
2.7279
2.77873
2.7299
2.7213
2.73411
2.7342
2.74201
2.77785
2.78519
2.79285
2.77814
1.0141
1.02112
1.02622
1.02903
1.03184
1.03328
1.03614
1.04059
1.05712
1.08621
1.16467
1.37856
1.96536
2.76801
2.73646
2.76586
2.72503
2.7162
2.72517
2.72378
2.72948
2.75965
2.7628
2.76967
2.75494
1.01407
1.02113
1.0262
1.02903
1.03182
1.03325
1.03598
1.04031
1.05633
1.08446
1.16009
1.36659
1.92431
2.7573
2.74498
2.74964
2.71695
2.70736
2.71217
2.70969
2.71281
2.73701
2.7352
2.73329
2.70172
1.014
1.0212
1.02613
1.02911
1.03175
1.03327
1.03576
1.04
1.05488
1.08283
1.15244
1.35634
1.87509
2.73885
2.74582
2.73846
2.70884
2.70126
2.70127
2.69621
2.69383
2.71162
2.70235
2.68666
2.61958
1.00611
1.01291
1.02127
1.02825
1.03547
1.04106
1.04761
1.05574
1.07865
1.11801
1.22007
1.48708
2.24995
2.83044
2.55295
2.78755
2.76373
2.76165
2.79856
2.74816
2.81102
2.81731
2.82869
2.83117
2.80894
1.00613
1.01289
1.02129
1.02823
1.03549
1.04105
1.04763
1.05572
1.07873
1.11758
1.22002
1.48506
2.24333
2.82831
2.55253
2.78574
2.76035
2.7596
2.79802
2.74839
2.80266
2.8123
2.82354
2.82733
2.80848
1.0061
1.01292
1.02126
1.02826
1.03547
1.04107
1.04759
1.05569
1.07841
1.1174
1.21862
1.48309
2.23949
2.8287
2.55889
2.78625
2.75791
2.75809
2.79706
2.75216
2.7983
2.80556
2.81169
2.81909
2.80434
1.00612
1.0129
1.02128
1.02824
1.03548
1.04105
1.04761
1.05563
1.07828
1.11649
1.2174
1.47792
2.22367
2.82611
2.56537
2.78508
2.75431
2.75539
2.79253
2.74196
2.78829
2.79743
2.8036
2.8113
2.79769
1.00613
1.01289
1.02129
1.02823
1.0355
1.04104
1.0476
1.05554
1.07804
1.11531
1.21552
1.47088
2.20203
2.82272
2.57492
2.78067
2.74678
2.74931
2.78628
2.73248
2.78008
2.78555
2.78674
2.79386
2.78301
1.0061
1.01292
1.02127
1.02826
1.03547
1.04106
1.04754
1.05544
1.07747
1.11437
1.21255
1.46388
2.18491
2.81862
2.59394
2.77794
2.73958
2.74183
2.7731
2.71857
2.76666
2.77261
2.77457
2.78014
2.76984
1.0061
1.01293
1.02126
1.02826
1.03546
1.04105
1.04749
1.05532
1.07697
1.11298
1.20949
1.45461
2.16184
2.80975
2.61525
2.7728
2.73071
2.73379
2.76252
2.70554
2.74706
2.75304
2.75188
2.75243
2.74082
1.00606
1.01296
1.02122
1.02829
1.03542
1.04107
1.04741
1.05517
1.07617
1.11153
1.20532
1.44425
2.13692
2.79821
2.64086
2.76913
2.72165
2.72319
2.74701
2.69524
2.72479
2.73418
2.72941
2.72369
2.71247
1.00605
1.01297
1.02121
1.0283
1.0354
1.04106
1.04734
1.05497
1.07538
1.10943
1.20069
1.43051
2.10213
2.78163
2.66073
2.76218
2.71382
2.71545
2.73167
2.6805
2.69796
2.70662
2.69556
2.68236
2.65105
1.00597
1.01305
1.02113
1.02838
1.03532
1.04111
1.04721
1.05464
1.07384
1.1073
1.19359
1.41666
2.05331
2.77174
2.68519
2.75191
2.70094
2.70392
2.71999
2.6666
2.6695
2.68151
2.6616
2.63248
2.56078
1.01409
1.02113
1.02621
1.02905
1.03184
1.03341
1.03661
1.04151
1.05974
1.09182
1.18117
1.41279
2.11421
2.77703
2.70323
2.7953
2.75764
2.74625
2.75866
2.76195
2.77572
2.8356
2.86296
2.85197
2.79233
1.01416
1.02112
1.02625
1.02906
1.03186
1.03345
1.0367
1.04167
1.05783
1.09472
1.17265
1.42511
2.11149
2.78586
2.72019
2.79405
2.75726
2.74464
2.77105
2.7768
2.78478
2.83303
2.85507
2.84753
2.8004
1.0141
1.02112
1.02622
1.02905
1.03185
1.03341
1.03658
1.04142
1.0595
1.09122
1.17948
1.41009
2.10061
2.77619
2.71474
2.79147
2.75483
2.74237
2.76805
2.77211
2.77881
2.80932
2.83001
2.84396
2.80375
1.01413
1.02113
1.02624
1.02906
1.03186
1.03344
1.03666
1.04152
1.0575
1.09371
1.16996
1.41965
2.08399
2.78444
2.72327
2.79142
2.75097
2.73963
2.75662
2.76329
2.7793
2.80118
2.81712
2.84028
2.80342
1.01411
1.02113
1.02623
1.02906
1.03185
1.03342
1.03661
1.04138
1.05723
1.09277
1.16744
1.41471
2.0574
2.7844
2.72527
2.78883
2.74534
2.73543
2.7509
2.75575
2.77468
2.79675
2.80771
2.83121
2.79949
1.01417
1.02111
1.02626
1.02906
1.03186
1.03341
1.03653
1.04126
1.05656
1.09207
1.16459
1.40901
2.03303
2.78275
2.72832
2.7856
2.73872
2.72989
2.74389
2.74574
2.76522
2.788
2.79591
2.82058
2.79192
1.0141
1.02112
1.02622
1.02904
1.03184
1.03332
1.03628
1.04086
1.05785
1.08777
1.16911
1.3878
2.00393
2.77362
2.73018
2.78089
2.73155
2.72274
2.73314
2.7333
2.75027
2.77753
2.78098
2.79832
2.77582
1.01409
1.02112
1.02621
1.02903
1.03183
1.03328
1.03614
1.04062
1.05716
1.08632
1.16519
1.37795
1.96874
2.76626
2.7355
2.76758
2.72598
2.71786
2.72578
2.72358
2.73348
2.75972
2.75989
2.77414
2.75305
1.01407
1.02112
1.0262
1.02903
1.03182
1.03325
1.03599
1.04033
1.05635
1.08453
1.1602
1.36686
1.92467
2.75689
2.74422
2.75018
2.71721
2.70848
2.71321
2.7108
2.71667
2.73809
2.73332
2.73689
2.70121
1.01401
1.0212
1.02613
1.02911
1.03175
1.03327
1.03576
1.04001
1.05488
1.08285
1.15247
1.35639
1.87507
2.73843
2.74552
2.73861
2.70892
2.70189
2.70181
2.69635
2.69581
2.71299
2.7004
2.68881
2.62015
0.979748
0.967763
0.955522
0.946963
0.937552
0.931541
0.925306
0.926621
0.926927
0.952176
0.992814
1.16711
1.60188
2.39026
2.68278
2.64159
2.60506
2.56994
2.57037
2.57939
2.59827
2.6134
2.65325
2.69477
2.61462
0.981132
0.966369
0.956951
0.945506
0.939034
0.929995
0.92689
0.924542
0.931278
0.941779
1.01234
1.12955
1.60893
2.51613
2.69882
2.66064
2.61708
2.58828
2.5858
2.61702
2.62918
2.64522
2.69324
2.72486
2.6515
0.979775
0.967743
0.955551
0.946942
0.937577
0.931521
0.925269
0.926495
0.926765
0.951813
0.990219
1.16453
1.60843
2.37231
2.67429
2.63639
2.59872
2.56968
2.56895
2.5947
2.61471
2.63182
2.68361
2.71661
2.66423
0.980525
0.966993
0.956325
0.946142
0.938405
0.930619
0.926166
0.925218
0.931512
0.943718
1.01127
1.13237
1.59176
2.48298
2.68166
2.64217
2.60397
2.57045
2.57087
2.58685
2.61078
2.62876
2.67981
2.71707
2.66851
0.980159
0.967357
0.955962
0.946516
0.938032
0.930999
0.925776
0.925346
0.931296
0.945046
1.00907
1.1302
1.58049
2.47044
2.67517
2.63702
2.60094
2.56832
2.56919
2.58811
2.61278
2.6304
2.67987
2.71891
2.67538
0.981117
0.96639
0.956937
0.945528
0.939009
0.930014
0.926795
0.924483
0.930657
0.942465
1.00727
1.1214
1.57253
2.459
2.66901
2.63193
2.59838
2.56573
2.56647
2.58167
2.60637
2.6242
2.67326
2.71608
2.67802
0.979634
0.967884
0.9554
0.947088
0.937411
0.931642
0.924981
0.925915
0.926044
0.949235
0.98646
1.14828
1.52074
2.31258
2.64143
2.61318
2.58546
2.55722
2.55859
2.57344
2.59874
2.61709
2.66511
2.71328
2.6813
0.97935
0.968163
0.955101
0.947378
0.937108
0.931911
0.924634
0.925615
0.926369
0.948002
0.985623
1.14073
1.48963
2.28195
2.62091
2.60553
2.57432
2.54422
2.54495
2.5568
2.58062
2.59916
2.64453
2.70279
2.67471
0.979122
0.968394
0.954863
0.947617
0.936861
0.932142
0.92424
0.925314
0.92582
0.946608
0.982707
1.13251
1.46321
2.24274
2.59667
2.59298
2.56575
2.53497
2.53537
2.54534
2.56573
2.58268
2.62153
2.67998
2.6515
0.979355
0.968165
0.955105
0.947385
0.937098
0.9319
0.924387
0.924836
0.924756
0.945044
0.977663
1.12287
1.44123
2.18354
2.56908
2.56874
2.54605
2.51335
2.51333
2.52126
2.53826
2.55081
2.58353
2.6313
2.58217
0.981575
0.965924
0.957387
0.945069
0.939413
0.929524
0.926705
0.922063
0.927289
0.934019
0.988592
1.06919
1.46227
2.27905
2.56096
2.56329
2.54128
2.51073
2.50492
2.50895
2.51782
2.52108
2.52854
2.52896
2.44845
0.979438
0.9681
0.955181
0.947333
0.937146
0.931828
0.92425
0.92382
0.923543
0.941348
0.969999
1.098
1.39137
2.06769
2.51124
2.53549
2.51713
2.49818
2.49055
2.49345
2.49396
2.49102
2.4818
2.46029
2.3721
0.981317
0.966181
0.957113
0.945344
0.939114
0.929793
0.926188
0.921412
0.925835
0.93142
0.978672
1.04732
1.37917
2.11747
2.46992
2.50947
2.49495
2.48076
2.47302
2.47414
2.4725
2.4651
2.44867
2.42157
2.355
0.979542
0.967983
0.955281
0.947215
0.937234
0.931698
0.924191
0.922998
0.922496
0.937659
0.966297
1.06892
1.33888
1.92947
2.43151
2.48921
2.4776
2.46731
2.45691
2.45383
2.44754
2.43772
2.41755
2.38724
2.33083
0.979763
0.967749
0.955509
0.946976
0.93746
0.931433
0.924281
0.92215
0.921736
0.934535
0.955335
1.0557
1.24056
1.82382
2.36166
2.46124
2.46353
2.45659
2.4458
2.44095
2.43282
2.4213
2.40145
2.37372
2.32297
0.980838
0.966655
0.956615
0.945863
0.938553
0.930293
0.925159
0.92013
0.922795
0.927704
0.959071
1.01502
1.22485
1.80642
2.28478
2.42964
2.43648
2.43104
2.42102
2.414
2.40647
2.39381
2.37727
2.35178
2.31377
0.980808
0.966665
0.956605
0.945854
0.938551
0.930277
0.925138
0.919921
0.922164
0.926464
0.950386
1.00166
1.1577
1.65736
2.2032
2.41013
2.41999
2.41448
2.40214
2.39447
2.38509
2.37455
2.35702
2.33486
2.3022
0.980714
0.966773
0.956503
0.945963
0.938457
0.930367
0.925014
0.91994
0.921756
0.924895
0.941285
0.990341
1.09747
1.53222
2.03689
2.35986
2.38626
2.38208
2.37222
2.36258
2.35776
2.34804
2.33517
2.31744
2.29223
0.981119
0.966365
0.956919
0.945509
0.938914
0.929853
0.925433
0.918887
0.919549
0.920308
0.936697
0.969631
1.07501
1.35655
1.9233
2.32667
2.37529
2.3664
2.35567
2.34195
2.33366
2.32577
2.31157
2.2962
2.27595
0.97937
0.968147
0.955113
0.947372
0.937059
0.931743
0.923535
0.920562
0.91663
0.920328
0.926919
0.964931
1.03212
1.2891
1.93075
2.30935
2.38227
2.37701
2.36179
2.34389
2.32872
2.31718
2.30231
2.28512
2.26507
0.980699
0.966788
0.956495
0.94595
0.938479
0.930263
0.924955
0.918782
0.916935
0.916552
0.927491
0.945566
1.02936
1.1835
1.67411
2.22824
2.37302
2.3746
2.36296
2.34904
2.33029
2.31604
2.30109
2.28394
2.26331
0.979833
0.967676
0.955602
0.946879
0.937549
0.931228
0.923984
0.919599
0.915288
0.91725
0.921874
0.944647
0.996628
1.13844
1.61584
2.10438
2.32446
2.35083
2.3492
2.34159
2.32766
2.31494
2.3017
2.28561
2.26555
0.98034
0.967161
0.95612
0.946337
0.938106
0.930638
0.924559
0.91894
0.915553
0.915242
0.920437
0.935108
0.978427
1.08984
1.4096
2.05509
2.29029
2.32736
2.32558
2.31813
2.30762
2.29974
2.29192
2.28163
2.26521
0.980857
0.96671
0.95659
0.945931
0.938521
0.930289
0.924901
0.918584
0.915576
0.914493
0.917961
0.927052
0.966611
1.039
1.31968
1.95896
2.29591
2.35338
2.34588
2.32879
2.31247
2.29758
2.28501
2.27259
2.25893
0.981155
0.966348
0.956954
0.945474
0.938987
0.92972
0.925432
0.917948
0.915913
0.912773
0.916076
0.92329
0.956296
1.01609
1.24441
1.82977
2.25697
2.37573
2.37484
2.35888
2.33766
2.31487
2.2961
2.27955
2.26326
0.980982
0.966504
0.956785
0.945662
0.938779
0.929952
0.925196
0.918161
0.915491
0.912295
0.914752
0.921018
0.945103
1.00119
1.16245
1.66867
2.17291
2.36726
2.37852
2.3689
2.35434
2.3342
2.31586
2.29793
2.27956
0.980773
0.96672
0.956557
0.945877
0.938564
0.930144
0.924948
0.918368
0.915032
0.911588
0.913622
0.918266
0.93616
0.984111
1.09962
1.51156
2.04226
2.33432
2.36584
2.36051
2.34893
2.33133
2.31568
2.30026
2.28493
0.98071
0.966788
0.956472
0.945989
0.938438
0.930291
0.924783
0.918487
0.914565
0.910684
0.912258
0.914943
0.93052
0.965399
1.07106
1.34084
1.92439
2.31943
2.37633
2.36906
2.35698
2.33808
2.31912
2.30286
2.28804
0.980873
0.966664
0.956618
0.945892
0.938547
0.930218
0.924875
0.918385
0.914597
0.910314
0.911012
0.912156
0.926221
0.954107
1.05356
1.26612
1.83282
2.32948
2.41096
2.40239
2.3836
2.36328
2.33959
2.32011
2.30268
0.980785
0.966713
0.956581
0.945889
0.938533
0.930205
0.92487
0.91833
0.914622
0.909947
0.910096
0.910318
0.92224
0.945633
1.03225
1.2032
1.72506
2.28073
2.42477
2.42487
2.40897
2.38624
2.3592
2.3385
2.32139
0.980622
0.966884
0.956391
0.9461
0.938331
0.930425
0.924729
0.918427
0.914609
0.909725
0.909119
0.909273
0.918902
0.938824
1.00846
1.1473
1.58645
2.1982
2.40975
2.41782
2.40702
2.38562
2.35885
2.33892
2.3235
0.980626
0.96686
0.956422
0.946029
0.938394
0.930334
0.924765
0.918422
0.914495
0.909676
0.908449
0.90802
0.916131
0.932343
0.98971
1.09837
1.48044
2.18528
2.41325
2.42833
2.41241
2.38905
2.36018
2.34003
2.32533
0.98051
0.966981
0.956302
0.946149
0.938274
0.930447
0.924651
0.918539
0.914364
0.909733
0.907938
0.907558
0.913994
0.928215
0.977638
1.07195
1.43798
2.15367
2.43433
2.45979
2.43712
2.40989
2.37814
2.35768
2.34266
0.980428
0.967068
0.956217
0.94623
0.938196
0.93053
0.924576
0.91862
0.914269
0.909759
0.907601
0.907212
0.913008
0.924814
0.971562
1.05223
1.39758
2.12781
2.45622
2.49639
2.47315
2.44603
2.41156
2.38966
2.37418
0.980303
0.967184
0.956112
0.946325
0.938135
0.930569
0.924537
0.91866
0.914201
0.909806
0.907399
0.907039
0.912051
0.923176
0.965978
1.04472
1.36016
2.07827
2.45097
2.512
2.49341
2.47459
2.44473
2.42414
2.40896
0.980256
0.967241
0.956037
0.94641
0.938007
0.930711
0.924388
0.918809
0.91409
0.909891
0.907073
0.906759
0.911401
0.922744
0.960944
1.0434
1.32527
2.02232
2.42617
2.50897
2.49936
2.48156
2.45578
2.43479
2.42018
0.980352
0.967328
0.955995
0.946538
0.93797
0.930791
0.924352
0.918869
0.91402
0.909905
0.906923
0.90662
0.910672
0.919238
0.956658
1.02087
1.29059
1.9484
2.41711
2.51998
2.51376
2.49355
2.46628
2.44251
2.42672
0.980249
0.96738
0.955944
0.946572
0.937916
0.930835
0.9243
0.918906
0.913989
0.909947
0.906904
0.906696
0.909848
0.91935
0.94952
1.02174
1.24244
1.86903
2.39129
2.52898
2.52236
2.49854
2.46702
2.43768
2.41847
0.980668
0.966871
0.956403
0.946098
0.93828
0.930529
0.924486
0.918769
0.91405
0.90991
0.906875
0.906711
0.908973
0.916773
0.943306
1.00524
1.19248
1.74122
2.35712
2.52989
2.51377
2.47485
2.43643
2.4085
2.39417
0.980801
0.966678
0.956597
0.945849
0.938537
0.930203
0.924864
0.918313
0.914562
0.90934
0.907426
0.905899
0.907945
0.915176
0.93679
0.994003
1.14418
1.65186
2.25518
2.53158
2.52434
2.49019
2.44157
2.41467
2.40355
0.980719
0.966755
0.956529
0.945913
0.938519
0.930191
0.924924
0.918246
0.914613
0.909252
0.907402
0.904981
0.907157
0.912454
0.935341
0.979337
1.13538
1.53026
2.21909
2.56434
2.56272
2.52725
2.47783
2.44376
2.4296
0.980756
0.966732
0.956528
0.945923
0.938497
0.930217
0.924891
0.918309
0.914545
0.909343
0.907234
0.905205
0.907098
0.91303
0.932228
0.982846
1.11917
1.53949
2.2136
2.58344
2.58627
2.55153
2.50192
2.46486
2.44822
0.980639
0.966831
0.956452
0.945985
0.938442
0.930273
0.924833
0.918357
0.914502
0.909378
0.907092
0.904652
0.906464
0.911307
0.932311
0.973983
1.12138
1.47482
2.21269
2.59636
2.59961
2.5639
2.5167
2.48259
2.46753
0.980579
0.966888
0.956396
0.946056
0.938392
0.930344
0.924793
0.918403
0.914483
0.90939
0.907044
0.904559
0.906323
0.911048
0.93177
0.972963
1.11959
1.46401
2.20766
2.59509
2.60076
2.56621
2.52386
2.49161
2.47609
0.980523
0.966982
0.956348
0.946117
0.938362
0.930381
0.924755
0.918429
0.914452
0.909389
0.907027
0.904471
0.906259
0.910813
0.931745
0.971065
1.12039
1.45591
2.20785
2.59238
2.60352
2.57201
2.53174
2.50141
2.48789
0.980494
0.967064
0.956269
0.946203
0.938286
0.930439
0.924696
0.918458
0.914422
0.909376
0.907032
0.904572
0.906297
0.910972
0.931741
0.971942
1.11918
1.45651
2.20428
2.58668
2.60206
2.57261
2.53694
2.50968
2.497
0.980458
0.967043
0.956282
0.946188
0.938297
0.930459
0.924662
0.918511
0.914407
0.909357
0.90718
0.905057
0.906829
0.912364
0.930888
0.978617
1.10975
1.49925
2.20405
2.57316
2.59843
2.57058
2.54078
2.51871
2.50682
0.980544
0.967052
0.956172
0.946328
0.93811
0.930566
0.92465
0.918452
0.914515
0.909324
0.907169
0.904686
0.90649
0.91094
0.93222
0.969862
1.12329
1.4455
2.21382
2.56602
2.59314
2.56646
2.54538
2.53485
2.52972
0.98043
0.967189
0.956083
0.946393
0.938152
0.930468
0.924767
0.918386
0.914475
0.909356
0.907269
0.904908
0.906875
0.911564
0.932373
0.972203
1.11943
1.4384
2.23648
2.55123
2.58684
2.56315
2.55602
2.56607
2.57693
0.98033
0.967323
0.955972
0.946497
0.938058
0.930587
0.924598
0.918577
0.914311
0.909473
0.907263
0.905384
0.907289
0.912594
0.931629
0.975899
1.11099
1.45596
2.25602
2.55845
2.59178
2.57396
2.57966
2.60663
2.61684
1.01381
1.02148
1.02588
1.02945
1.03142
1.0337
1.03548
1.0416
1.05136
1.08117
1.15572
1.3193
1.79398
2.7436
2.74705
2.71325
2.68488
2.68654
2.69119
2.68318
2.67314
2.67743
2.66219
2.61731
2.48664
1.01369
1.02151
1.02581
1.02944
1.03139
1.03366
1.03543
1.04115
1.05062
1.07683
1.15166
1.29732
1.76009
2.73133
2.74559
2.70757
2.66957
2.66699
2.67091
2.66642
2.65483
2.6472
2.62367
2.56904
2.43866
1.01381
1.02146
1.02589
1.02942
1.03143
1.03365
1.03533
1.04079
1.04938
1.07614
1.14205
1.28638
1.72068
2.64471
2.72953
2.68974
2.66975
2.65474
2.65209
2.64427
2.63166
2.61935
2.59425
2.54551
2.44155
1.01377
1.02144
1.02588
1.02937
1.03144
1.03354
1.03517
1.03971
1.04866
1.0692
1.13706
1.25443
1.68913
2.618
2.71315
2.67842
2.6682
2.65028
2.64323
2.62654
2.60926
2.59275
2.57046
2.53263
2.44962
1.01391
1.0213
1.02602
1.02923
1.03159
1.03331
1.03521
1.03819
1.04708
1.06998
1.11367
1.27312
1.60691
2.40915
2.68132
2.67894
2.66189
2.64323
2.63483
2.61681
2.59062
2.57432
2.55123
2.52413
2.46443
1.01387
1.02138
1.02595
1.02934
1.03148
1.0335
1.03505
1.03902
1.04542
1.06529
1.11557
1.21527
1.57107
2.37273
2.63063
2.67486
2.65932
2.63768
2.6262
2.60632
2.58025
2.5543
2.53726
2.51122
2.47769
1.01388
1.02137
1.02596
1.02933
1.03148
1.03346
1.03495
1.03835
1.04373
1.0625
1.10143
1.19282
1.4764
2.23048
2.58194
2.66952
2.65428
2.63513
2.61743
2.59842
2.57197
2.5497
2.52327
2.504
2.48125
1.01412
1.02113
1.0262
1.02909
1.03173
1.03316
1.03497
1.0367
1.04278
1.05689
1.08456
1.18263
1.36435
1.97009
2.52254
2.65541
2.64108
2.6284
2.60993
2.58974
2.56292
2.54022
2.5197
2.49501
2.47962
1.0142
1.02107
1.02627
1.02902
1.03179
1.03309
1.03495
1.0364
1.04201
1.05203
1.07731
1.15309
1.30115
1.7247
2.47941
2.6294
2.61972
2.61277
2.60185
2.58569
2.56211
2.53589
2.51548
2.49494
2.47829
1.01404
1.02116
1.02616
1.02908
1.03171
1.0331
1.03486
1.03619
1.04108
1.04866
1.07363
1.13036
1.25862
1.64514
2.46036
2.61102
2.60688
2.59519
2.58676
2.57629
2.55966
2.53618
2.51674
2.49767
2.4801
1.01412
1.02113
1.02621
1.02908
1.03173
1.03313
1.03474
1.03591
1.03879
1.04719
1.06738
1.10791
1.25163
1.53127
2.29569
2.59251
2.60992
2.59197
2.58176
2.57018
2.55478
2.53507
2.5186
2.50354
2.48757
1.01385
1.02137
1.02596
1.02929
1.03151
1.03331
1.03453
1.03591
1.03806
1.04547
1.06129
1.0955
1.21096
1.43355
2.09233
2.54084
2.62494
2.603
2.59133
2.5721
2.55515
2.53631
2.52028
2.5069
2.4951
1.01399
1.02125
1.02609
1.02918
1.03163
1.03319
1.03467
1.03572
1.03822
1.04293
1.05529
1.09046
1.15793
1.38005
1.97815
2.44926
2.60221
2.59844
2.5908
2.5754
2.55899
2.53989
2.52226
2.50885
2.49879
1.01374
1.02152
1.02583
1.02946
1.03137
1.03347
1.03436
1.03591
1.03713
1.04239
1.05135
1.07718
1.14265
1.28895
1.68435
2.41442
2.58555
2.58672
2.58161
2.57118
2.56034
2.54481
2.52652
2.51209
2.50295
1.01379
1.02148
1.02587
1.02943
1.03139
1.03345
1.03436
1.03584
1.03689
1.04141
1.04846
1.07122
1.12422
1.24106
1.60286
2.35837
2.57493
2.59144
2.57928
2.57138
2.56014
2.5461
2.52931
2.51532
2.5071
1.0138
1.02145
1.02588
1.0294
1.03141
1.03342
1.03438
1.03577
1.03676
1.04054
1.04611
1.06602
1.10821
1.20091
1.51408
2.23751
2.54281
2.61532
2.59589
2.58545
2.56863
2.55249
2.53469
2.51934
2.5108
1.01383
1.02142
1.02592
1.02936
1.03144
1.03337
1.0344
1.0357
1.0366
1.03956
1.0442
1.0609
1.09315
1.17664
1.40573
2.07633
2.47816
2.61366
2.60581
2.59402
2.57661
2.56147
2.544
2.52742
2.51717
1.01403
1.02122
1.02611
1.02917
1.03163
1.03319
1.03458
1.03545
1.03656
1.03803
1.0435
1.05411
1.07951
1.15676
1.31053
1.72958
2.46023
2.61094
2.60709
2.5953
2.57823
2.56381
2.54875
2.53405
2.52327
1.01389
1.02136
1.02597
1.02932
1.03149
1.03333
1.03443
1.0356
1.03636
1.03822
1.04139
1.05288
1.07398
1.13014
1.28034
1.66449
2.40965
2.63541
2.63125
2.60752
2.58717
2.56931
2.55271
2.53936
2.52991
1.01389
1.02136
1.02597
1.02931
1.03149
1.03333
1.03443
1.03558
1.03631
1.03789
1.04053
1.05097
1.06854
1.11641
1.25311
1.55162
2.32278
2.62713
2.66238
2.6388
2.6141
2.58291
2.56032
2.54461
2.53455
1.01393
1.02133
1.026
1.0293
1.0315
1.03333
1.03443
1.03557
1.03623
1.0375
1.03979
1.04893
1.06345
1.10588
1.21768
1.47236
2.19627
2.59504
2.69039
2.66209
2.64238
2.6103
2.5829
2.56185
2.54633
1.01411
1.02114
1.02619
1.02909
1.03171
1.03311
1.03464
1.03535
1.03639
1.03711
1.03921
1.04634
1.05963
1.09266
1.19452
1.39606
2.01845
2.55138
2.69561
2.67574
2.6502
2.62027
2.59858
2.58155
2.56732
1.01406
1.02119
1.02615
1.02913
1.03167
1.03314
1.03461
1.03537
1.03634
1.037
1.03872
1.04531
1.05518
1.08762
1.15791
1.33797
1.80583
2.53205
2.69331
2.66756
2.65015
2.62071
2.60236
2.58985
2.57783
1.014
1.02123
1.0261
1.02916
1.03164
1.03316
1.03459
1.03537
1.03633
1.03695
1.03845
1.04419
1.05331
1.08075
1.14995
1.30421
1.73333
2.56444
2.70718
2.66962
2.65873
2.63195
2.61314
2.60061
2.59169
1.01392
1.02131
1.02603
1.02923
1.03157
1.03323
1.03452
1.03544
1.03625
1.037
1.03827
1.04357
1.05157
1.07737
1.13942
1.27598
1.69052
2.56866
2.71613
2.6986
2.66945
2.64149
2.62227
2.60997
2.60244
1.01397
1.02126
1.02607
1.02919
1.03161
1.03319
1.03456
1.0354
1.03632
1.03694
1.03856
1.04192
1.04967
1.07517
1.11681
1.28879
1.64759
2.44929
2.71531
2.72318
2.69806
2.66956
2.64823
2.6338
2.62268
1.0138
1.02145
1.0259
1.02937
1.03145
1.03336
1.03441
1.03557
1.03614
1.03709
1.03803
1.04183
1.04948
1.06774
1.1276
1.23115
1.64344
2.48902
2.70801
2.73495
2.71146
2.68476
2.65973
2.64576
2.63761
1.01395
1.02129
1.02605
1.02922
1.03159
1.03322
1.03456
1.03541
1.0363
1.03691
1.03828
1.04098
1.04778
1.06876
1.10399
1.25139
1.52347
2.31904
2.71527
2.75673
2.73688
2.70153
2.67761
2.66481
2.65542
1.01399
1.02126
1.02609
1.02919
1.03162
1.0332
1.03457
1.03539
1.0363
1.03688
1.0382
1.04044
1.04765
1.06535
1.10051
1.22646
1.46958
2.21425
2.70575
2.77911
2.763
2.72419
2.69423
2.67669
2.66349
1.0138
1.02145
1.02589
1.02938
1.03141
1.0334
1.03436
1.0356
1.03609
1.03707
1.03775
1.04094
1.04593
1.06281
1.10024
1.18516
1.45357
2.14202
2.69739
2.78955
2.76985
2.71949
2.69218
2.68158
2.67323
1.01382
1.02143
1.02591
1.02937
1.03143
1.03338
1.03438
1.03559
1.03609
1.03703
1.03765
1.04045
1.04508
1.05998
1.09408
1.17185
1.40567
2.03111
2.67551
2.78916
2.77152
2.71909
2.69213
2.68434
2.67728
1.01378
1.02145
1.0259
1.02935
1.03146
1.03333
1.03444
1.0355
1.03619
1.03685
1.03759
1.03955
1.04452
1.05849
1.08332
1.17878
1.35649
1.86082
2.7448
2.81021
2.79093
2.74459
2.71188
2.69407
2.67842
1.01383
1.02141
1.02592
1.02935
1.03145
1.03337
1.03439
1.03558
1.0361
1.03701
1.03763
1.04018
1.0442
1.05862
1.08725
1.15981
1.36498
1.92681
2.70672
2.81496
2.80081
2.76239
2.72696
2.70288
2.68308
1.01382
1.02143
1.02591
1.02937
1.03144
1.03338
1.03438
1.03559
1.0361
1.03702
1.03765
1.04027
1.04408
1.05905
1.08579
1.15984
1.3559
1.91428
2.70268
2.81398
2.80261
2.76925
2.73191
2.70748
2.68838
1.01381
1.02143
1.02591
1.02937
1.03144
1.03338
1.03439
1.03558
1.0361
1.03701
1.03762
1.04014
1.04406
1.05813
1.08606
1.15723
1.35735
1.91283
2.68745
2.81491
2.80779
2.7803
2.74126
2.71227
2.69002
1.01381
1.02144
1.02591
1.02938
1.03144
1.03338
1.03438
1.03559
1.03609
1.037
1.0376
1.0401
1.04397
1.05813
1.08552
1.1568
1.35311
1.91198
2.68391
2.80892
2.80645
2.78614
2.74899
2.71609
2.69009
1.01374
1.02153
1.02583
1.02947
1.03137
1.03345
1.03434
1.03561
1.03611
1.03691
1.03752
1.03938
1.04401
1.05717
1.07988
1.17031
1.3286
1.832
2.72569
2.82649
2.8329
2.81696
2.77728
2.73064
2.69678
1.01383
1.02145
1.02589
1.0294
1.03142
1.03339
1.03438
1.03558
1.0361
1.037
1.03754
1.03994
1.04409
1.05661
1.0875
1.15463
1.35725
1.93608
2.65143
2.80056
2.82598
2.81516
2.78627
2.73578
2.69742
1.01377
1.02153
1.02583
1.02945
1.03142
1.03335
1.03449
1.03544
1.03627
1.03682
1.0376
1.03929
1.04482
1.05679
1.08252
1.1684
1.33079
1.84069
2.67683
2.81846
2.86519
2.85666
2.81585
2.74475
2.70249
1.01376
1.02155
1.02583
1.02945
1.03144
1.03332
1.03451
1.03543
1.03625
1.03684
1.0376
1.03927
1.04505
1.05664
1.08299
1.16851
1.33128
1.86825
2.66881
2.80206
2.8901
2.88456
2.83401
2.75387
2.71393
1.00521
1.01381
1.02036
1.02916
1.03452
1.04195
1.04629
1.0554
1.06903
1.10668
1.18842
1.38521
1.88012
2.78587
2.69905
2.74107
2.69171
2.69203
2.70431
2.65402
2.64027
2.64566
2.61768
2.5687
2.44632
1.00521
1.01381
1.02037
1.02916
1.03453
1.04192
1.04619
1.05478
1.06774
1.10403
1.18272
1.36228
1.84334
2.78253
2.70868
2.71044
2.68494
2.68403
2.68965
2.63958
2.61436
2.61307
2.58291
2.52244
2.40756
1.00545
1.01357
1.02062
1.02888
1.03484
1.04153
1.04657
1.05402
1.06843
1.10087
1.16396
1.37423
1.82559
2.74407
2.73037
2.70097
2.67103
2.67261
2.67851
2.63651
2.58725
2.57722
2.55196
2.49303
2.40758
1.00549
1.01353
1.02065
1.02884
1.03486
1.04149
1.04651
1.05364
1.06697
1.09722
1.156
1.35073
1.7819
2.67834
2.72155
2.69221
2.66639
2.6613
2.66289
2.63524
2.56935
2.54769
2.52353
2.48358
2.41201
1.00699
1.01203
1.0222
1.0273
1.03634
1.04006
1.04779
1.05175
1.0647
1.09099
1.1609
1.28795
1.73001
2.67868
2.70671
2.67699
2.66958
2.65701
2.65405
2.6334
2.56098
2.52588
2.50699
2.46806
2.42482
1.00543
1.01358
1.02059
1.02891
1.03476
1.04158
1.04618
1.05297
1.06227
1.09119
1.14364
1.27411
1.64642
2.54841
2.68547
2.68359
2.66676
2.64808
2.64422
2.63062
2.56501
2.50866
2.48766
2.45802
2.43262
1.00564
1.01338
1.0208
1.02871
1.03496
1.04135
1.04633
1.05241
1.06084
1.08529
1.13294
1.241
1.57659
2.41221
2.63993
2.68566
2.66852
2.64236
2.63485
2.62514
2.57538
2.50498
2.47415
2.44345
2.42966
1.00573
1.01328
1.02089
1.02861
1.03506
1.04123
1.04635
1.0519
1.05932
1.07981
1.11957
1.21185
1.47928
2.22452
2.60087
2.67791
2.66648
2.63545
2.62859
2.62141
2.59079
2.51234
2.47366
2.43371
2.42205
1.00579
1.01323
1.02094
1.02856
1.03511
1.04118
1.04633
1.05164
1.05824
1.07545
1.10692
1.18535
1.38916
1.9921
2.56174
2.6634
2.65469
2.62547
2.6146
2.61144
2.59869
2.53037
2.47854
2.43588
2.41352
1.00644
1.01257
1.0216
1.0279
1.03577
1.04049
1.047
1.05065
1.05808
1.06908
1.10115
1.16732
1.32338
1.75058
2.58589
2.65425
2.63585
2.62429
2.61019
2.60671
2.59959
2.56408
2.49358
2.4437
2.41464
1.0048
1.01423
1.01996
1.02954
1.03415
1.04208
1.04538
1.052
1.05577
1.06732
1.09146
1.15482
1.26891
1.67891
2.5732
2.63196
2.62965
2.61959
2.6047
2.60023
2.59764
2.58269
2.52925
2.46209
2.42146
1.00574
1.01328
1.02089
1.02861
1.03504
1.04122
1.04616
1.05127
1.05621
1.06689
1.08574
1.13257
1.26168
1.53881
2.38283
2.62057
2.64272
2.62404
2.60597
2.60161
2.59865
2.59149
2.56691
2.50171
2.44038
1.00584
1.01318
1.021
1.02851
1.03515
1.04111
1.04624
1.05108
1.05569
1.06363
1.08102
1.11508
1.22562
1.43412
2.1033
2.57728
2.65865
2.63992
2.6094
2.60218
2.59984
2.59655
2.58587
2.55171
2.4806
1.00585
1.01317
1.02101
1.02849
1.03517
1.04108
1.04627
1.0509
1.05539
1.06136
1.07662
1.10678
1.17801
1.36782
1.92716
2.49841
2.64159
2.63535
2.61718
2.604
2.60274
2.60039
2.5946
2.57832
2.53457
1.00548
1.01353
1.02065
1.02885
1.03482
1.04142
1.04594
1.05115
1.05492
1.06078
1.07278
1.1001
1.15468
1.3226
1.74909
2.47434
2.63643