/*--------------------------------*- C++ -*----------------------------------*\
  =========                 |
  \\      /  F ield         | OpenFOAM: The Open Source CFD Toolbox
   \\    /   O peration     | Website:  https://openfoam.org
    \\  /    A nd           | Version:  6
     \\/     M anipulation  |
\*---------------------------------------------------------------------------*/
FoamFile
{
    version     2.0;
    format      ascii;
    class       volVectorField;
    location    "8.5";
    object      U;
}
// * * * * * * * * * * * * * * * * * * * * * * * * * * * * * * * * * * * * * //

dimensions      [0 1 -1 0 0 0 0];

internalField   nonuniform List<vector> 
26250
(
(3.01558 -1.04241e-06 -0.0579492)
(3.0258 1.01236e-06 -0.059789)
(3.03421 -3.9122e-07 -0.0611127)
(3.04147 2.63346e-06 -0.0622806)
(3.04746 -6.17427e-07 -0.0631695)
(3.05269 4.33176e-06 -0.0640049)
(3.05601 -6.87673e-07 -0.0647554)
(3.05613 1.825e-05 -0.0657273)
(3.05002 4.19362e-05 -0.0668352)
(3.03944 9.53915e-05 -0.0703678)
(2.98975 0.000192023 -0.0762122)
(2.86609 0.000384705 -0.0963126)
(2.51153 0.000931826 -0.137989)
(1.4506 0.00186917 -0.234627)
(0.710703 0.000878975 -0.273648)
(0.809063 0.00294198 -0.256749)
(0.947523 0.00765999 -0.247475)
(1.02036 0.0104916 -0.251601)
(1.01885 0.0149696 -0.254672)
(0.958778 0.0239995 -0.261284)
(0.939908 0.0224408 -0.261732)
(0.889929 0.0175513 -0.262935)
(0.76978 0.0115749 -0.26749)
(0.525679 0.00838923 -0.267895)
(0.310587 0.000976002 -0.255597)
(3.01558 -2.11196e-06 -0.0579486)
(3.0258 3.97205e-06 -0.0597896)
(3.03421 -1.1544e-07 -0.061112)
(3.04147 8.39305e-06 -0.0622814)
(3.04746 -2.84326e-06 -0.0631684)
(3.05269 1.36602e-05 -0.0640061)
(3.05602 -4.86914e-06 -0.0647521)
(3.05617 5.64026e-05 -0.0657263)
(3.05008 0.000131327 -0.0668295)
(3.03956 0.000302965 -0.0703544)
(2.98997 0.000581475 -0.0761813)
(2.86672 0.00138688 -0.0962341)
(2.51245 0.00328443 -0.137677)
(1.44823 0.00853629 -0.234626)
(0.684343 0.0191602 -0.274275)
(0.789835 0.0259262 -0.256998)
(0.934394 0.0312665 -0.248434)
(1.00891 0.035168 -0.251737)
(1.01087 0.041506 -0.254788)
(0.975856 0.0513099 -0.258612)
(0.94265 0.0506732 -0.260345)
(0.892273 0.0439507 -0.261634)
(0.780804 0.0348871 -0.265376)
(0.550041 0.0296086 -0.266517)
(0.346255 0.0169148 -0.254773)
(3.01558 5.0913e-06 -0.0579471)
(3.0258 2.92161e-06 -0.0597912)
(3.03422 1.92611e-06 -0.0611101)
(3.04147 3.06404e-06 -0.0622836)
(3.04746 -8.0402e-06 -0.0631653)
(3.05269 1.43879e-05 -0.0640095)
(3.05605 -1.85269e-05 -0.0647445)
(3.05624 0.000158943 -0.0657235)
(3.05022 0.000382874 -0.0668189)
(3.03981 0.000900398 -0.0703247)
(2.99059 0.00167021 -0.0760996)
(2.86835 0.00356136 -0.0960642)
(2.51658 0.00629703 -0.137192)
(1.46119 0.0182548 -0.233536)
(0.718016 0.0410951 -0.272463)
(0.814744 0.0523419 -0.255005)
(0.951314 0.0556275 -0.24617)
(1.02424 0.0592849 -0.249739)
(1.02556 0.0630108 -0.252989)
(0.993777 0.0680898 -0.256789)
(0.953767 0.0731684 -0.258571)
(0.90007 0.0739353 -0.259521)
(0.789101 0.0704985 -0.262833)
(0.559372 0.066513 -0.264164)
(0.353216 0.0575083 -0.253095)
(3.01558 5.16666e-05 -0.0579427)
(3.0258 -2.17748e-05 -0.0597957)
(3.03421 2.46822e-05 -0.0611048)
(3.04146 -4.16651e-05 -0.0622888)
(3.04747 1.91934e-05 -0.0631586)
(3.05268 -7.10227e-05 -0.0640169)
(3.05614 7.29797e-05 -0.064726)
(3.0565 -5.42999e-05 -0.0657269)
(3.05069 -0.000505724 -0.0667527)
(3.04064 0.00464137 -0.0702931)
(2.99204 -0.00500403 -0.0758148)
(2.87148 0.022257 -0.095762)
(2.51931 -0.013362 -0.136728)
(1.49422 0.0276376 -0.231591)
(0.740692 0.0511198 -0.271835)
(0.831633 0.0683489 -0.253929)
(0.963309 0.0735085 -0.244356)
(1.03417 0.0800109 -0.248321)
(1.0341 0.0864395 -0.251765)
(0.983437 0.0979075 -0.256803)
(0.947045 0.106602 -0.2576)
(0.891913 0.112089 -0.258172)
(0.777711 0.112977 -0.261124)
(0.543824 0.110794 -0.261916)
(0.332425 0.104638 -0.251872)
(3.01557 5.97822e-06 -0.058033)
(3.02578 1.75316e-06 -0.0596942)
(3.0342 5.97502e-07 -0.061207)
(3.04146 -6.7058e-07 -0.0621784)
(3.04744 -8.24009e-06 -0.0632722)
(3.05273 7.03839e-06 -0.0638915)
(3.05606 6.61803e-07 -0.0648661)
(3.05577 0.000151734 -0.0655465)
(3.05408 0.000347905 -0.0667177)
(3.03613 0.00111676 -0.0704156)
(3.00272 0.00227074 -0.074929)
(2.86307 0.00555884 -0.0964396)
(2.48997 0.012147 -0.133053)
(1.50391 0.0340916 -0.235085)
(0.757398 0.0767098 -0.271818)
(0.844523 0.0985911 -0.253302)
(0.969153 0.106776 -0.242575)
(1.04147 0.114233 -0.246818)
(1.04116 0.123872 -0.250176)
(0.998464 0.13854 -0.254284)
(0.957168 0.149494 -0.255229)
(0.897658 0.155987 -0.25576)
(0.778594 0.159715 -0.258251)
(0.539152 0.161426 -0.258613)
(0.321746 0.155913 -0.249545)
(3.01559 -1.20571e-06 -0.0579375)
(3.0258 9.62746e-07 -0.0598009)
(3.03421 -8.52612e-06 -0.061099)
(3.04145 9.94193e-06 -0.0622941)
(3.04748 -2.06652e-05 -0.0631521)
(3.05269 4.35457e-05 -0.064022)
(3.05626 -3.94952e-05 -0.0647062)
(3.05678 0.000209913 -0.0657006)
(3.05148 0.000503869 -0.0666966)
(3.04222 0.000891799 -0.0701854)
(2.99544 0.0023426 -0.0752477)
(2.88017 0.00553906 -0.0948781)
(2.5369 0.0140645 -0.134002)
(1.56898 0.042297 -0.22657)
(0.817219 0.0963716 -0.268516)
(0.885653 0.124956 -0.250713)
(0.998419 0.136217 -0.239672)
(1.06515 0.145952 -0.243871)
(1.06253 0.158622 -0.247273)
(1.02128 0.176208 -0.251254)
(0.97693 0.190584 -0.252246)
(0.914025 0.199951 -0.252512)
(0.792812 0.208643 -0.254603)
(0.548686 0.217866 -0.254537)
(0.32419 0.215656 -0.245818)
(3.01557 -2.37633e-05 -0.0580409)
(3.02577 4.94446e-06 -0.0596854)
(3.03421 -1.5291e-05 -0.0612148)
(3.04145 1.82103e-05 -0.0621712)
(3.04747 -6.96864e-06 -0.0632756)
(3.05271 3.6413e-05 -0.0638905)
(3.0562 2.45289e-05 -0.0648461)
(3.05621 0.000153249 -0.0655086)
(3.05464 0.000312946 -0.0666734)
(3.03765 0.000627938 -0.0702436)
(3.00653 0.00132474 -0.0744561)
(2.87283 0.00421096 -0.095214)
(2.51996 0.0166093 -0.130575)
(1.5886 0.045152 -0.2304)
(0.846471 0.113194 -0.268063)
(0.900215 0.150207 -0.249915)
(1.0055 0.166178 -0.237477)
(1.07505 0.178057 -0.241574)
(1.07417 0.192847 -0.24487)
(1.039 0.211992 -0.248146)
(0.994907 0.229876 -0.249026)
(0.931663 0.244617 -0.248772)
(0.811917 0.261235 -0.25007)
(0.565006 0.282234 -0.249827)
(0.333085 0.291356 -0.241104)
(3.01559 -8.13816e-05 -0.0579257)
(3.0258 3.5143e-05 -0.0598154)
(3.03422 -3.79088e-05 -0.0610845)
(3.04146 6.49254e-05 -0.0623117)
(3.04749 -2.22471e-05 -0.063133)
(3.05271 0.00010381 -0.0640408)
(3.05636 -2.00656e-06 -0.0646744)
(3.05702 0.000392675 -0.0656711)
(3.05187 0.00121595 -0.0666424)
(3.04304 -0.00258425 -0.0699448)
(2.99841 0.00853991 -0.0749683)
(2.89198 -0.0120132 -0.0934763)
(2.57168 0.0413651 -0.129948)
(1.64624 0.0476214 -0.220028)
(0.916235 0.135698 -0.263931)
(0.938918 0.180288 -0.248458)
(1.02993 0.200194 -0.235297)
(1.09294 0.21247 -0.238897)
(1.09178 0.227842 -0.242047)
(1.05962 0.247746 -0.244867)
(1.01771 0.268357 -0.245518)
(0.956246 0.289576 -0.244689)
(0.840747 0.31705 -0.244841)
(0.594535 0.355739 -0.243947)
(0.354817 0.394062 -0.234481)
(3.0156 -1.02637e-05 -0.057914)
(3.02581 5.76998e-06 -0.0598292)
(3.03423 -1.39289e-05 -0.061071)
(3.04147 1.59572e-05 -0.0623274)
(3.0475 -2.08652e-05 -0.0631163)
(3.05273 3.94186e-05 -0.0640583)
(3.05643 -3.91224e-06 -0.0646434)
(3.05722 0.000238741 -0.0656609)
(3.05218 0.000535778 -0.066632)
(3.04368 0.00146809 -0.0697694)
(3.00064 0.00298559 -0.0748193)
(2.90007 0.00854249 -0.0925156)
(2.59464 0.02213 -0.127724)
(1.67866 0.0647712 -0.215884)
(0.966146 0.155714 -0.261263)
(0.965792 0.203441 -0.246869)
(1.0447 0.224021 -0.23305)
(1.10605 0.238875 -0.23621)
(1.10732 0.257399 -0.239252)
(1.07986 0.280043 -0.24144)
(1.04359 0.30431 -0.241794)
(0.988 0.333451 -0.240406)
(0.882356 0.375986 -0.23953)
(0.648174 0.443688 -0.237062)
(0.401336 0.54193 -0.225613)
(3.01559 5.64519e-05 -0.0579252)
(3.0258 -1.8624e-05 -0.0598157)
(3.03423 3.73573e-06 -0.0610845)
(3.04146 -1.95621e-05 -0.0623124)
(3.04751 -3.79426e-05 -0.06313)
(3.05273 9.46145e-06 -0.064046)
(3.05652 -6.07351e-05 -0.0646349)
(3.05746 0.000175701 -0.0656326)
(3.05288 0.000200313 -0.0665448)
(3.04508 0.00511699 -0.0696253)
(3.00398 -0.00144498 -0.0742433)
(2.90846 0.028336 -0.0914953)
(2.61627 0.0043784 -0.12519)
(1.76128 0.0883855 -0.20892)
(1.03952 0.181766 -0.258015)
(1.01086 0.224872 -0.243385)
(1.07472 0.248143 -0.229493)
(1.1307 0.263201 -0.232091)
(1.13222 0.283515 -0.235069)
(1.10867 0.308066 -0.23648)
(1.07864 0.336085 -0.236443)
(1.03331 0.373996 -0.234387)
(0.948226 0.437741 -0.232218)
(0.750782 0.553574 -0.227594)
(0.496894 0.788053 -0.211906)
(2.98853 -8.77276e-07 -0.00143326)
(2.98293 5.76695e-07 -0.00327925)
(2.9795 -8.98472e-08 -0.00494679)
(2.97739 1.6516e-06 -0.0064132)
(2.97588 7.2156e-07 -0.00773572)
(2.97477 2.18992e-06 -0.00880934)
(2.97292 5.04492e-06 -0.00986661)
(2.96881 1.34238e-05 -0.0105678)
(2.956 3.01357e-05 -0.0114561)
(2.93081 8.76694e-05 -0.0130051)
(2.84933 0.000176543 -0.0160894)
(2.64248 0.000593715 -0.0229761)
(2.0733 0.00137638 -0.0399059)
(0.477138 0.00388445 -0.0638327)
(-0.381253 0.000111317 -0.0650019)
(0.0677171 0.00942918 -0.0606125)
(0.447689 0.0182616 -0.0583873)
(0.534664 0.0252668 -0.0605261)
(0.462993 0.0368339 -0.0621526)
(0.306176 0.0620167 -0.0620441)
(0.296452 0.0636952 -0.0641522)
(0.220068 0.0521161 -0.0645502)
(0.0329288 0.0436181 -0.0644126)
(0.00175968 0.0322098 -0.0618023)
(0.161446 0.0127715 -0.0551452)
(2.98854 -8.68362e-07 -0.00143279)
(2.98293 2.03448e-06 -0.00327989)
(2.97951 1.12199e-06 -0.00494624)
(2.97739 4.50534e-06 -0.0064141)
(2.97588 2.65091e-06 -0.00773497)
(2.97478 5.77646e-06 -0.0088103)
(2.97293 1.43273e-05 -0.00986616)
(2.96884 4.30244e-05 -0.0105712)
(2.95606 0.000103538 -0.0114593)
(2.93093 0.000284252 -0.0129959)
(2.84972 0.00066864 -0.0160946)
(2.64359 0.00185525 -0.0229131)
(2.07566 0.0043817 -0.0397965)
(0.473801 0.0140362 -0.0635448)
(-0.431839 0.0302027 -0.0638755)
(0.0577473 0.0485539 -0.0606116)
(0.444887 0.0640178 -0.0583828)
(0.532166 0.0740064 -0.0604608)
(0.475521 0.0868772 -0.0618771)
(0.376356 0.117045 -0.0629533)
(0.321613 0.115156 -0.06351)
(0.235017 0.10653 -0.0633539)
(0.0680145 0.100942 -0.0630974)
(-0.00194786 0.0937725 -0.0609084)
(0.184418 0.0556296 -0.0545833)
(2.98854 4.25596e-06 -0.00143247)
(2.98293 2.36366e-06 -0.00328072)
(2.97951 4.04835e-06 -0.00494571)
(2.97739 2.43878e-06 -0.00641503)
(2.97588 2.0539e-06 -0.0077336)
(2.97478 3.78474e-06 -0.00881226)
(2.97296 1.77268e-05 -0.00986308)
(2.96889 7.3709e-05 -0.0105768)
(2.9562 0.000198178 -0.0114592)
(2.93128 0.000541419 -0.0129995)
(2.85056 0.00132941 -0.0160678)
(2.64574 0.00340581 -0.0228882)
(2.08194 0.00806364 -0.0396667)
(0.495253 0.0271123 -0.0635435)
(-0.371521 0.0595089 -0.0644934)
(0.0821206 0.0843537 -0.0601336)
(0.457024 0.104356 -0.0576311)
(0.537515 0.116784 -0.0600166)
(0.481121 0.126574 -0.0615486)
(0.394177 0.132735 -0.0630542)
(0.333997 0.153957 -0.0629672)
(0.244402 0.169147 -0.0625265)
(0.0862027 0.175177 -0.0617478)
(-0.00509199 0.17019 -0.059412)
(0.182121 0.121847 -0.0532953)
(2.98854 2.19374e-05 -0.00143323)
(2.98293 -2.38065e-07 -0.00328)
(2.97951 1.7458e-05 -0.00494561)
(2.97739 -8.22111e-06 -0.00641469)
(2.97588 1.3328e-05 -0.00773293)
(2.97479 -1.75319e-05 -0.00881398)
(2.973 1.77022e-05 -0.00986011)
(2.96898 5.55038e-05 -0.0105977)
(2.95644 0.000550951 -0.0114796)
(2.93185 0.000637116 -0.0130178)
(2.85192 0.00367049 -0.0160974)
(2.64901 0.00490713 -0.0228222)
(2.09233 0.0118891 -0.0392471)
(0.515559 0.046346 -0.0632871)
(-0.369516 0.0866753 -0.0643604)
(0.0892079 0.11998 -0.0598224)
(0.462293 0.144207 -0.0569485)
(0.534945 0.161484 -0.0594397)
(0.466941 0.176338 -0.0610786)
(0.330655 0.196071 -0.0617701)
(0.316994 0.220202 -0.062313)
(0.239086 0.242454 -0.0618052)
(0.0913436 0.255265 -0.0604536)
(-0.00931521 0.248855 -0.0576877)
(0.164691 0.193996 -0.0517418)
(2.98853 4.64533e-06 -0.00144191)
(2.98292 1.03852e-06 -0.00326774)
(2.9795 3.23523e-06 -0.00495365)
(2.97739 -1.08271e-06 -0.00640416)
(2.97587 7.04544e-07 -0.00774415)
(2.97479 2.04492e-06 -0.00879699)
(2.97301 2.61368e-05 -0.00988683)
(2.96934 0.000122787 -0.0105544)
(2.95673 0.00033525 -0.0113806)
(2.93363 0.000952667 -0.0136216)
(2.85456 0.00238961 -0.0147153)
(2.65102 0.00644372 -0.0253463)
(2.10593 0.0158239 -0.034437)
(0.576345 0.0523886 -0.064367)
(-0.328171 0.113074 -0.0642483)
(0.105136 0.155172 -0.0595111)
(0.471432 0.184718 -0.0561582)
(0.53818 0.208077 -0.0587951)
(0.469257 0.231845 -0.0604074)
(0.367727 0.259625 -0.061641)
(0.328086 0.286822 -0.0611709)
(0.247508 0.312867 -0.0605747)
(0.106857 0.332337 -0.0589417)
(-0.0072013 0.328348 -0.0557146)
(0.150392 0.269262 -0.0498996)
(2.98854 -1.44448e-06 -0.00143415)
(2.98292 -4.68347e-07 -0.00327959)
(2.9795 -3.05628e-06 -0.00494505)
(2.97739 -4.30272e-07 -0.00641514)
(2.97588 -1.71081e-06 -0.00773078)
(2.97481 6.38462e-06 -0.00881739)
(2.9731 4.35851e-05 -0.00985525)
(2.96924 0.000149685 -0.0106176)
(2.95712 0.000450253 -0.0114814)
(2.93356 0.00109956 -0.0130238)
(2.85621 0.00282605 -0.0160618)
(2.66038 0.00771791 -0.0225919)
(2.12635 0.0192142 -0.0382317)
(0.597895 0.062939 -0.0629754)
(-0.282921 0.139268 -0.0644135)
(0.126225 0.1909 -0.0592078)
(0.481718 0.225224 -0.0554491)
(0.543603 0.253766 -0.0580837)
(0.475635 0.284467 -0.0597136)
(0.377777 0.323335 -0.060993)
(0.338812 0.352922 -0.0601923)
(0.262222 0.382364 -0.0591161)
(0.13213 0.409038 -0.0571351)
(0.00634111 0.41191 -0.0536322)
(0.141041 0.354442 -0.0476706)
(2.98853 -1.33404e-05 -0.00144237)
(2.98292 -2.25205e-06 -0.00326776)
(2.9795 -1.10136e-05 -0.00495214)
(2.97739 1.46873e-06 -0.00640757)
(2.97587 -2.67229e-06 -0.00773753)
(2.97483 1.53774e-05 -0.0088089)
(2.97313 5.36839e-05 -0.00986758)
(2.96968 0.000189073 -0.0105924)
(2.9575 0.000450663 -0.0113833)
(2.93564 0.00128391 -0.013562)
(2.85979 0.00303413 -0.0146786)
(2.66561 0.00903489 -0.0250362)
(2.1478 0.0225314 -0.0334825)
(0.679978 0.072391 -0.0642253)
(-0.217736 0.166518 -0.0640908)
(0.157062 0.227268 -0.0587728)
(0.496525 0.265027 -0.0544923)
(0.552832 0.297621 -0.0572641)
(0.488138 0.333659 -0.0588471)
(0.401509 0.379143 -0.0601637)
(0.355966 0.415856 -0.0590923)
(0.284915 0.452091 -0.0576123)
(0.16856 0.488285 -0.0551824)
(0.0333022 0.502916 -0.0511639)
(0.136641 0.457008 -0.0448824)
(2.98854 -3.6757e-05 -0.00143072)
(2.98293 1.2418e-06 -0.00328426)
(2.97951 -2.72252e-05 -0.00494185)
(2.9774 1.3919e-05 -0.00642081)
(2.9759 -1.40023e-05 -0.00772499)
(2.97486 4.09863e-05 -0.00882555)
(2.97324 6.46856e-05 -0.00984621)
(2.96957 0.000275298 -0.01063)
(2.95803 0.000197691 -0.0114628)
(2.93578 0.00167564 -0.0129217)
(2.86243 0.00166918 -0.015851)
(2.67834 0.0107927 -0.0220679)
(2.17611 0.026365 -0.0372205)
(0.722097 0.0796648 -0.0622351)
(-0.147833 0.190581 -0.0643826)
(0.192701 0.26226 -0.058404)
(0.510424 0.30375 -0.0539082)
(0.563043 0.339451 -0.0564944)
(0.503307 0.37956 -0.0579596)
(0.426611 0.430106 -0.0589885)
(0.380937 0.475852 -0.0578775)
(0.317279 0.522204 -0.0560623)
(0.216694 0.570701 -0.0531815)
(0.0769527 0.604133 -0.0485964)
(0.142116 0.58609 -0.041708)
(2.98854 -1.30026e-05 -0.00142772)
(2.98293 5.87586e-06 -0.00328852)
(2.97951 -1.58842e-05 -0.00493944)
(2.9774 1.17571e-05 -0.00642493)
(2.9759 -1.20905e-05 -0.00772129)
(2.97489 1.86701e-05 -0.00883035)
(2.97334 8.18732e-05 -0.00984243)
(2.96978 0.000277276 -0.0106425)
(2.95862 0.000699608 -0.0114501)
(2.93716 0.00188069 -0.0128524)
(2.86646 0.00474842 -0.0157216)
(2.68995 0.0128992 -0.0217086)
(2.207 0.031206 -0.0366024)
(0.792975 0.100814 -0.0613252)
(-0.0742698 0.221047 -0.0644225)
(0.22977 0.296414 -0.0580466)
(0.524869 0.339655 -0.053183)
(0.574741 0.378 -0.0556147)
(0.521418 0.421956 -0.0569626)
(0.455455 0.478067 -0.0576364)
(0.413872 0.532154 -0.0564874)
(0.360633 0.589872 -0.054395)
(0.279638 0.655178 -0.0511011)
(0.146044 0.719674 -0.0457644)
(0.164572 0.754982 -0.0380554)
(2.98854 9.26366e-06 -0.00143066)
(2.98292 1.8055e-05 -0.00328405)
(2.97951 -1.84706e-05 -0.00494195)
(2.9774 3.79507e-05 -0.00642097)
(2.9759 -6.3673e-05 -0.00772439)
(2.97493 8.90441e-05 -0.00882708)
(2.97347 -0.000132582 -0.0098432)
(2.97009 0.000308928 -0.0106463)
(2.95936 -0.000330089 -0.0114206)
(2.93923 0.00470923 -0.0128272)
(2.87122 -0.00112251 -0.0155539)
(2.70292 0.0299356 -0.0214115)
(2.23997 0.023844 -0.0355122)
(0.893407 0.133514 -0.0603658)
(0.0141446 0.259031 -0.0644728)
(0.272881 0.3326 -0.0575278)
(0.543079 0.37419 -0.0524187)
(0.590028 0.413267 -0.0547702)
(0.543982 0.459963 -0.0560102)
(0.488605 0.521702 -0.0562905)
(0.454373 0.582877 -0.055026)
(0.417068 0.652246 -0.052712)
(0.363695 0.73927 -0.0490951)
(0.254598 0.84809 -0.0433166)
(0.216156 1.01847 -0.0348564)
(2.99509 1.35933e-06 1.00584e-06)
(2.98906 1.05924e-07 -3.65329e-07)
(2.98253 1.65142e-06 8.58507e-07)
(2.97635 -1.23105e-07 -3.42985e-07)
(2.97072 7.94978e-07 3.36411e-07)
(2.96564 5.06366e-08 -1.34878e-07)
(2.9605 -1.54388e-06 4.85283e-07)
(2.95341 -2.54e-06 2.26137e-06)
(2.93643 2.30796e-06 6.30784e-06)
(2.90489 0.00010077 1.0745e-05)
(2.80933 0.000157522 2.85168e-05)
(2.56736 0.000772162 1.35152e-05)
(1.90781 0.00193368 2.58332e-05)
(0.124062 0.00691977 3.66314e-05)
(-0.876701 0.0151712 -0.000273232)
(-0.109762 0.0241813 0.000114477)
(0.317211 0.0328532 0.000109668)
(0.407304 0.0369856 0.000160275)
(0.318618 0.0381572 0.000385061)
(0.192769 0.0332411 0.00121036)
(-0.12524 0.0670415 -2.56023e-05)
(-0.13812 0.0722143 -0.000272881)
(-0.160839 0.0689488 -0.00028679)
(-0.105087 0.0676557 -0.000540901)
(0.0789912 0.0563353 -0.000700435)
(2.9951 1.88823e-06 4.01446e-06)
(2.98906 3.2084e-07 -4.20175e-06)
(2.98253 2.06377e-06 4.08987e-06)
(2.97635 6.46046e-07 -5.21666e-06)
(2.97072 1.57107e-06 5.05468e-06)
(2.96564 5.60609e-07 -6.95768e-06)
(2.96049 3.94532e-06 3.06641e-06)
(2.95341 1.05066e-05 -4.16127e-06)
(2.93651 5.92031e-05 6.90889e-05)
(2.90503 0.000245086 -5.78213e-05)
(2.8098 0.000614111 0.000368197)
(2.5689 0.00198184 -0.000235697)
(1.91423 0.00479803 -4.40833e-05)
(0.134822 0.0163498 0.000647356)
(-0.868323 0.0361906 0.000266736)
(-0.0969668 0.0614683 -7.09378e-05)
(0.326222 0.0821053 -0.000101205)
(0.405876 0.0892924 -0.000109718)
(0.307215 0.0890278 -0.000239116)
(0.154312 0.0819824 -0.000819537)
(-0.161707 0.131464 8.88792e-05)
(-0.156887 0.145185 0.00023481)
(-0.178906 0.149569 -2.76547e-05)
(-0.124357 0.152721 -0.00036974)
(0.0713082 0.133525 -0.000444227)
(2.9951 2.98151e-06 2.6837e-06)
(2.98906 1.18757e-07 -2.77951e-06)
(2.98253 2.75361e-06 2.67008e-06)
(2.97635 2.8516e-07 -3.2137e-06)
(2.97072 1.2965e-06 2.20924e-06)
(2.96564 5.05595e-07 -2.05731e-06)
(2.9605 5.00854e-06 -9.55704e-07)
(2.95346 1.76799e-05 1.47083e-06)
(2.93663 0.000105623 6.56485e-06)
(2.90537 0.000438824 1.14893e-05)
(2.8107 0.00110424 3.78809e-05)
(2.57116 0.00355899 7.72538e-06)
(1.91851 0.00867682 3.96178e-05)
(0.145898 0.0295341 0.000174001)
(-0.85645 0.0611345 -0.000130317)
(-0.0848943 0.100518 -1.44329e-05)
(0.334638 0.132777 -0.000138006)
(0.401931 0.147119 -0.000194778)
(0.285651 0.152459 -0.00033495)
(0.118822 0.152137 -0.000765766)
(-0.162105 0.213458 0.000142712)
(-0.150664 0.229636 0.000324662)
(-0.178407 0.239584 0.000147697)
(-0.131208 0.246352 -0.000114426)
(0.0637913 0.2206 -0.000138838)
(2.9951 4.8996e-06 3.84913e-06)
(2.98906 -4.08106e-07 -4.99169e-06)
(2.98253 4.6736e-06 5.43247e-06)
(2.97635 -2.0419e-06 -7.06682e-06)
(2.97072 1.21614e-06 7.18532e-06)
(2.96564 -1.63352e-06 -8.96246e-06)
(2.96051 1.8342e-06 5.86539e-07)
(2.9535 1.7277e-05 -7.64896e-06)
(2.93686 0.000128834 5.90553e-05)
(2.90588 0.000703942 -6.83492e-05)
(2.81225 0.00156895 0.00033714)
(2.57576 0.00559758 -0.00025472)
(1.9336 0.0138159 -5.01024e-05)
(0.172011 0.0477615 0.000671646)
(-0.833194 0.0941945 0.00011303)
(-0.0686119 0.142364 -6.40573e-05)
(0.344149 0.182416 -0.000137307)
(0.399719 0.204522 -8.40725e-05)
(0.272475 0.217707 1.88715e-05)
(0.112438 0.221611 0.000422315)
(-0.146789 0.297846 7.4926e-05)
(-0.134578 0.313762 -1.59255e-05)
(-0.168001 0.327945 3.64475e-05)
(-0.132073 0.336983 9.58136e-06)
(0.0563727 0.307124 -7.53806e-06)
(2.99509 1.51219e-06 7.78062e-07)
(2.98905 -8.23572e-07 -1.92556e-06)
(2.98253 1.4702e-06 2.63642e-06)
(2.97635 -3.19961e-06 -3.61833e-06)
(2.97072 2.12284e-06 3.66005e-06)
(2.96564 -4.16308e-06 -3.27456e-06)
(2.96052 1.60417e-05 -3.3832e-06)
(2.95356 4.70979e-05 -1.94839e-06)
(2.93719 0.000214309 -9.06896e-06)
(2.90661 0.000854584 -1.81181e-06)
(2.81442 0.00207572 -4.20026e-06)
(2.58218 0.00680389 -1.59246e-05)
(1.95418 0.016622 3.67261e-05)
(0.211412 0.0573675 0.00024648)
(-0.79452 0.124364 0.000117237)
(-0.0475731 0.18328 -9.06905e-05)
(0.354937 0.230202 -0.000108232)
(0.399422 0.259785 -5.06876e-05)
(0.264789 0.281308 -3.52671e-05)
(0.120311 0.292526 -9.28354e-05)
(-0.121773 0.377654 -6.89078e-05)
(-0.113358 0.395028 -0.000118627)
(-0.150239 0.414193 -3.61788e-05)
(-0.128213 0.426683 5.90389e-05)
(0.0501545 0.39521 4.57958e-05)
(2.99509 -3.50214e-06 3.15235e-06)
(2.98906 -1.53062e-06 -4.57072e-06)
(2.98253 -2.70173e-06 4.37933e-06)
(2.97635 -3.70416e-06 -5.93237e-06)
(2.97071 3.89349e-06 6.16641e-06)
(2.96565 -4.26886e-06 -7.93451e-06)
(2.96055 3.13525e-05 1.33954e-06)
(2.95366 7.3928e-05 -1.00322e-05)
(2.93753 0.00028185 6.02939e-05)
(2.90747 0.00101288 -8.41256e-05)
(2.81694 0.00249849 0.000323732)
(2.5891 0.00796369 -0.00026772)
(1.9722 0.0193241 -3.38858e-05)
(0.257729 0.0659412 0.000591253)
(-0.739721 0.154336 -3.70073e-05)
(-0.0216086 0.224712 -9.45663e-05)
(0.367054 0.277136 -6.42677e-05)
(0.401873 0.312982 -2.34271e-05)
(0.264031 0.342812 -2.59939e-06)
(0.130959 0.36501 5.22724e-05)
(-0.0833004 0.451436 -8.52064e-05)
(-0.0860675 0.475933 -0.000166622)
(-0.124329 0.501923 -6.58253e-05)
(-0.118351 0.520916 8.47301e-05)
(0.0465465 0.491943 7.04753e-05)
(2.99509 -6.99846e-06 -3.5904e-06)
(2.98906 -2.76125e-06 3.7468e-06)
(2.98253 -6.23454e-06 -2.89762e-06)
(2.97635 -3.64585e-06 4.26557e-06)
(2.97071 2.78275e-06 -3.81936e-06)
(2.96566 3.97599e-07 6.66536e-06)
(2.96059 3.56226e-05 -4.43987e-06)
(2.95377 9.24967e-05 6.5919e-06)
(2.93797 0.000347349 -7.73967e-05)
(2.9085 0.00124048 7.3241e-05)
(2.81997 0.00303021 -0.000366853)
(2.59764 0.00960704 0.000236546)
(1.99649 0.0232632 -1.37805e-05)
(0.317159 0.0790723 -0.000595193)
(-0.669033 0.185465 1.68074e-05)
(0.00776374 0.266167 1.70139e-05)
(0.379487 0.322619 2.21219e-05)
(0.406374 0.363779 -5.00855e-06)
(0.270036 0.401403 -1.10863e-05)
(0.145008 0.438051 -2.64994e-05)
(-0.0338206 0.521108 -9.9375e-05)
(-0.0508653 0.557873 -0.000142141)
(-0.0879673 0.59291 -6.40743e-05)
(-0.100003 0.622893 8.53239e-05)
(0.0472006 0.603 9.23108e-05)
(2.99509 -9.07942e-06 -1.25961e-06)
(2.98906 -1.39861e-06 1.1469e-06)
(2.98253 -8.15214e-06 -7.51279e-07)
(2.97636 -5.34628e-07 1.34428e-06)
(2.97072 1.04467e-06 -5.19249e-07)
(2.96568 4.87372e-06 1.06367e-06)
(2.96063 3.74793e-05 2.56581e-07)
(2.95392 0.000104989 -1.19066e-06)
(2.93849 0.000416662 -4.53391e-06)
(2.90976 0.00152599 -7.30341e-06)
(2.82361 0.00371413 -2.80323e-05)
(2.60759 0.0117617 -9.6278e-06)
(2.0233 0.0285535 -5.05418e-05)
(0.387898 0.095307 -0.000153656)
(-0.585925 0.21773 -4.89003e-05)
(0.0393195 0.307262 3.94772e-05)
(0.392552 0.366239 4.15707e-05)
(0.413059 0.412047 -2.45095e-06)
(0.283821 0.456803 -1.57394e-05)
(0.16551 0.508116 -4.10706e-05)
(0.0210884 0.588601 -8.17502e-05)
(-0.00663474 0.639977 -0.000110844)
(-0.0387732 0.687021 -6.15227e-05)
(-0.0695702 0.735014 7.81772e-05)
(0.0549193 0.736321 9.6464e-05)
(2.99509 -1.09768e-05 -1.31638e-07)
(2.98906 8.28209e-06 -3.41256e-08)
(2.98253 -1.49577e-05 1.08269e-08)
(2.97636 1.71025e-05 2.39897e-08)
(2.97072 -1.85378e-05 2.15295e-07)
(2.96569 2.90961e-05 3.37919e-08)
(2.96067 1.49244e-05 -6.02365e-08)
(2.95409 0.000149337 -5.86051e-07)
(2.93916 0.000615748 -1.29553e-06)
(2.9113 0.00198604 -4.01788e-06)
(2.82814 0.00494909 -6.98962e-06)
(2.62017 0.0146077 -1.63827e-05)
(2.05879 0.035009 -2.7576e-05)
(0.469894 0.115477 -3.2601e-05)
(-0.494474 0.249966 -1.5815e-05)
(0.0720648 0.346386 1.91502e-05)
(0.405079 0.407287 2.38625e-05)
(0.421536 0.457285 -1.21216e-06)
(0.303972 0.508454 -9.92082e-06)
(0.194083 0.572417 -2.90726e-05)
(0.0793299 0.654063 -5.28496e-05)
(0.0480523 0.719185 -8.91769e-05)
(0.0274154 0.7832 -3.70767e-05)
(-0.0162486 0.858284 7.53798e-05)
(0.0732186 0.90112 8.01846e-05)
(2.9951 -8.27546e-06 4.2635e-07)
(2.98905 2.22271e-05 -1.62026e-07)
(2.98253 -3.32055e-05 4.67526e-07)
(2.97635 6.16077e-05 -2.36147e-07)
(2.97073 -9.48782e-05 2.70949e-07)
(2.96571 0.000152648 -2.405e-07)
(2.96073 -0.000216304 -2.44376e-07)
(2.95443 0.000486032 -4.7365e-07)
(2.94002 0.000270583 -5.24478e-07)
(2.91346 0.00509066 -1.63047e-06)
(2.83357 0.000688008 -2.15544e-06)
(2.63524 0.0298679 -4.95986e-06)
(2.09739 0.036331 -5.92068e-06)
(0.568263 0.149758 1.46677e-06)
(-0.400265 0.289338 7.88321e-07)
(0.10629 0.385842 7.07187e-06)
(0.417661 0.445604 5.37158e-06)
(0.431847 0.498683 4.30725e-06)
(0.329174 0.555344 3.74272e-06)
(0.230168 0.629748 -8.75134e-06)
(0.14139 0.714598 -2.7604e-05)
(0.115495 0.793843 -5.2801e-05)
(0.112727 0.879262 -1.55647e-05)
(0.0745535 0.990943 6.61383e-05)
(0.109769 1.15297 7.27134e-05)
(2.98854 1.50207e-05 0.00143441)
(2.98293 -3.01091e-06 0.00327888)
(2.97951 1.25118e-05 0.00494743)
(2.97739 -1.05458e-05 0.00641292)
(2.97588 1.24703e-05 0.00773493)
(2.97478 -2.14417e-05 0.0088114)
(2.97294 -3.32858e-06 0.0098621)
(2.96885 -3.43589e-05 0.0105879)
(2.95607 0.000309554 0.0114821)
(2.93096 -3.11334e-05 0.0130485)
(2.84945 0.00204915 0.0161493)
(2.6421 0.000569655 0.0230192)
(2.07259 0.00127475 0.0397839)
(0.468081 0.0113751 0.0638127)
(-0.427797 0.0217994 0.0641342)
(0.0543767 0.0249332 0.0607785)
(0.445081 0.0258677 0.0585775)
(0.541165 0.0240293 0.0607984)
(0.499126 0.0155773 0.0623212)
(0.422643 -0.0152782 0.063586)
(0.37109 -0.00857344 0.0637694)
(0.303849 0.00893951 0.0641996)
(0.168239 0.0266348 0.0637973)
(0.0496362 0.0439874 0.0608089)
(0.19249 0.0481165 0.0541313)
(2.98853 7.70308e-06 0.00144145)
(2.98293 -1.49822e-06 0.0032682)
(2.9795 6.6311e-06 0.00495527)
(2.97739 -4.52446e-06 0.00640161)
(2.97587 3.18027e-06 0.00774887)
(2.97477 -3.73802e-06 0.0087896)
(2.97292 -2.14257e-06 0.00989855)
(2.96912 2.25625e-05 0.0105328)
(2.95613 8.40803e-05 0.0113776)
(2.93215 0.000269654 0.0136938)
(2.8506 0.000710858 0.0147974)
(2.63969 0.00186434 0.0257943)
(2.07298 0.00452717 0.0355454)
(0.502856 0.015712 0.0651758)
(-0.385258 0.0348919 0.064475)
(0.069884 0.0503952 0.0603669)
(0.451633 0.0600581 0.0579578)
(0.534855 0.0625588 0.0603491)
(0.46337 0.0590737 0.0621753)
(0.293541 0.0536571 0.0624705)
(0.288257 0.0680736 0.0642463)
(0.223571 0.0888731 0.0645643)
(0.0637594 0.108041 0.0637075)
(-0.0119589 0.119164 0.0601066)
(0.153904 0.105867 0.0539533)
(2.98854 3.11958e-06 0.00143614)
(2.98293 -2.63793e-06 0.00327605)
(2.9795 5.86744e-06 0.00495016)
(2.97739 -5.13883e-06 0.00640845)
(2.97588 5.70904e-06 0.00773965)
(2.97477 -3.27191e-06 0.00880571)
(2.97296 -5.59073e-07 0.00986722)
(2.96892 3.6841e-05 0.0105895)
(2.95627 0.00010596 0.0114781)
(2.93147 0.000386445 0.0130608)
(2.85068 0.000993908 0.0161463)
(2.64505 0.00292462 0.0229647)
(2.08251 0.00754277 0.0394207)
(0.492176 0.0270087 0.0637085)
(-0.405921 0.0583872 0.0642656)
(0.0726529 0.0846306 0.0600878)
(0.454499 0.103292 0.057425)
(0.532354 0.114989 0.0598131)
(0.459655 0.126808 0.0616221)
(0.314598 0.150803 0.0623833)
(0.294393 0.156122 0.0634311)
(0.210276 0.161007 0.0632065)
(0.0363769 0.180169 0.0622642)
(-0.0234212 0.192896 0.0589731)
(0.145908 0.160031 0.0530507)
(2.98853 1.1568e-05 0.00143991)
(2.98293 -6.10128e-06 0.00326949)
(2.9795 1.15222e-05 0.00495722)
(2.97739 -1.61446e-05 0.00639726)
(2.97587 1.32905e-05 0.00775702)
(2.97476 -2.43095e-05 0.00877683)
(2.97295 7.83974e-08 0.00991842)
(2.96921 1.92801e-05 0.010517)
(2.95643 0.00042639 0.0113336)
(2.93294 0.000428154 0.0136119)
(2.85273 0.00314142 0.0146669)
(2.64561 0.00410447 0.0254461)
(2.09241 0.010668 0.0349139)
(0.547769 0.0450933 0.0649779)
(-0.350826 0.0912039 0.0645347)
(0.0917412 0.122234 0.0597969)
(0.465203 0.146072 0.0566314)
(0.538605 0.164926 0.059264)
(0.472343 0.183799 0.0609881)
(0.368392 0.208766 0.0624692)
(0.313525 0.222973 0.0623913)
(0.218347 0.232445 0.0615636)
(0.0513979 0.251612 0.060487)
(-0.0212785 0.263437 0.0575409)
(0.145796 0.216918 0.0515747)
(2.98853 1.3581e-06 0.0014392)
(2.98293 -3.00299e-07 0.00327)
(2.97949 -3.3856e-06 0.00495703)
(2.97739 -1.99898e-06 0.00639647)
(2.97587 -5.50669e-06 0.00775866)
(2.97477 1.18576e-06 0.00877459)
(2.97298 2.82712e-05 0.00992009)
(2.96929 0.00011101 0.0105181)
(2.9567 0.000330353 0.0113021)
(2.93366 0.000854641 0.0135194)
(2.85466 0.00221867 0.0146079)
(2.65111 0.00619535 0.0252111)
(2.11008 0.0156513 0.0343472)
(0.588519 0.0510677 0.0648398)
(-0.313259 0.110201 0.0645635)
(0.108642 0.153631 0.0594994)
(0.474209 0.185688 0.0559448)
(0.541953 0.210724 0.058709)
(0.473578 0.235581 0.060389)
(0.36085 0.266714 0.0615817)
(0.323317 0.288458 0.0614144)
(0.231191 0.306056 0.0602554)
(0.0768597 0.326901 0.0587825)
(-0.0153223 0.337028 0.0558014)
(0.141823 0.283372 0.0497631)
(2.98853 -2.39066e-05 0.0014415)
(2.98292 5.59784e-06 0.00326732)
(2.97949 -2.46717e-05 0.00495606)
(2.97739 1.78747e-05 0.00639984)
(2.97587 -2.15536e-05 0.00775084)
(2.97479 3.80207e-05 0.00878771)
(2.97304 6.66827e-05 0.00989699)
(2.96947 0.00022399 0.01054)
(2.95705 0.00017041 0.0113385)
(2.93455 0.00127284 0.013545)
(2.85695 0.000950323 0.0146264)
(2.6576 0.00793456 0.0251378)
(2.12707 0.0193235 0.033993)
(0.63095 0.0527695 0.0646757)
(-0.270364 0.13056 0.0643293)
(0.131205 0.186229 0.0591222)
(0.485499 0.225307 0.0552206)
(0.547767 0.255427 0.0580055)
(0.481499 0.286751 0.0596296)
(0.38674 0.325287 0.0610359)
(0.338047 0.353754 0.0603383)
(0.250957 0.379398 0.0588586)
(0.111613 0.405429 0.057008)
(-0.00121921 0.417515 0.0538474)
(0.138198 0.362957 0.0476091)
(2.98854 -3.63933e-05 0.001432)
(2.98293 3.61295e-06 0.00328163)
(2.97951 -3.08413e-05 0.00494407)
(2.97739 1.86048e-05 0.00641769)
(2.97589 -1.9589e-05 0.0077289)
(2.97483 4.52176e-05 0.00882105)
(2.97316 7.56581e-05 0.00985021)
(2.96936 0.000264036 0.0106172)
(2.95748 0.000189224 0.0114632)
(2.93446 0.00147168 0.0129302)