/*--------------------------------*- C++ -*----------------------------------*\
  =========                 |
  \\      /  F ield         | OpenFOAM: The Open Source CFD Toolbox
   \\    /   O peration     | Website:  https://openfoam.org
    \\  /    A nd           | Version:  6
     \\/     M anipulation  |
\*---------------------------------------------------------------------------*/
FoamFile
{
    version     2.0;
    format      ascii;
    class       volScalarField;
    location    "6";
    object      Ma;
}
// * * * * * * * * * * * * * * * * * * * * * * * * * * * * * * * * * * * * * //

dimensions      [0 0 0 0 0 0 0];

internalField   nonuniform List<scalar> 
26250
(
3.04669
3.07689
3.10423
3.1266
3.14781
3.1644
3.18062
3.18961
3.18906
3.17191
3.12273
2.97463
2.65741
1.90409
0.883099
0.403552
0.471699
0.568264
0.625389
0.615202
0.604381
0.570033
0.489289
0.349284
0.240948
3.04668
3.0769
3.10422
3.12661
3.1478
3.16441
3.18061
3.18965
3.18911
3.17207
3.12313
2.97559
2.65943
1.90751
0.888857
0.407572
0.476207
0.573442
0.63018
0.631846
0.613122
0.574543
0.49906
0.367242
0.262502
3.04667
3.07692
3.10421
3.12662
3.14778
3.16443
3.18061
3.18974
3.18923
3.17241
3.124
2.97723
2.66322
1.91118
0.89133
0.391858
0.464833
0.566501
0.621612
0.622607
0.600925
0.558519
0.483751
0.354451
0.25105
3.04656
3.07703
3.10409
3.12674
3.14766
3.16455
3.18053
3.18999
3.18953
3.17338
3.12891
2.98071
2.67166
1.9246
0.903401
0.41879
0.486563
0.580456
0.631665
0.624022
0.603998
0.561362
0.484127
0.353562
0.249532
3.04547
3.07815
3.10291
3.12796
3.1464
3.16586
3.17911
3.19112
3.18574
3.1794
3.1244
3.007
2.65249
1.94629
0.945101
0.445393
0.507403
0.596502
0.645667
0.642556
0.621077
0.577372
0.49856
0.366524
0.260537
3.04639
3.0772
3.1039
3.12692
3.14747
3.16474
3.18043
3.19046
3.19019
3.1755
3.1368
2.99072
2.69606
1.96173
0.95293
0.468055
0.526344
0.60955
0.659827
0.658346
0.636531
0.593751
0.51643
0.385468
0.279954
3.0456
3.07801
3.10305
3.12781
3.14655
3.16574
3.1793
3.19141
3.1876
3.18082
3.12958
3.01828
2.67821
1.9987
1.01044
0.505301
0.55459
0.630369
0.678468
0.678646
0.656622
0.615359
0.540919
0.413356
0.311891
3.04628
3.07731
3.10379
3.12704
3.14737
3.16487
3.18041
3.19105
3.19077
3.17726
3.13884
3.00406
2.7278
2.0146
1.03299
0.531403
0.572068
0.642343
0.693292
0.695834
0.67621
0.639221
0.571574
0.452479
0.364252
3.04628
3.07732
3.1038
3.12704
3.14737
3.16488
3.18044
3.19116
3.19101
3.17836
3.13957
3.01334
2.74702
2.05043
1.09251
0.580891
0.60068
0.662592
0.713039
0.716752
0.700211
0.668997
0.613279
0.51092
0.45254
3.04731
3.07626
3.10488
3.12593
3.14849
3.16373
3.18152
3.18975
3.19225
3.18112
3.14797
3.0249
2.77404
2.08594
1.13497
0.633778
0.635692
0.687769
0.736074
0.741514
0.728982
0.706932
0.670796
0.605795
0.617547
2.96752
2.95207
2.94109
2.93521
2.92968
2.92708
2.92318
2.91899
2.90246
2.87513
2.79241
2.61173
2.22025
1.37426
0.277633
0.311808
0.0395524
0.260155
0.309325
0.250787
0.240089
0.183735
0.0769869
0.0444894
0.106659
2.96752
2.95207
2.94109
2.93521
2.92968
2.92708
2.92318
2.91901
2.90252
2.87524
2.79276
2.61226
2.22162
1.37635
0.282424
0.295978
0.0488349
0.269346
0.324069
0.292527
0.256607
0.195504
0.106298
0.073545
0.130229
2.96752
2.95207
2.94109
2.93521
2.92968
2.92708
2.92319
2.91905
2.90267
2.87557
2.79346
2.61429
2.22485
1.38403
0.285108
0.331598
0.0660516
0.274883
0.3275
0.297734
0.261329
0.208347
0.139381
0.116837
0.140306
2.96752
2.95207
2.94109
2.93521
2.92968
2.92707
2.92322
2.91913
2.90293
2.87614
2.79467
2.61714
2.22996
1.39005
0.300333
0.289748
0.0931282
0.289487
0.33095
0.28528
0.267098
0.227719
0.181094
0.165072
0.164208
2.96755
2.952
2.94114
2.93512
2.92975
2.92699
2.92336
2.91942
2.90435
2.8763
2.80254
2.61302
2.24513
1.39863
0.300288
0.280064
0.118665
0.306906
0.347891
0.317176
0.292516
0.261074
0.228537
0.214532
0.199513
2.96752
2.95207
2.94109
2.9352
2.92969
2.92707
2.92328
2.91938
2.90377
2.87795
2.7988
2.628
2.2499
1.43142
0.350504
0.254076
0.145914
0.327451
0.368378
0.344313
0.323667
0.301023
0.27935
0.267213
0.246433
2.96756
2.952
2.94115
2.93512
2.92976
2.927
2.92344
2.91971
2.90526
2.87863
2.80773
2.62678
2.27278
1.46214
0.371408
0.227355
0.174301
0.349784
0.391853
0.375556
0.359431
0.346236
0.334731
0.326216
0.307889
2.96753
2.95206
2.9411
2.93519
2.92971
2.92707
2.92337
2.9197
2.905
2.88061
2.8054
2.64595
2.28486
1.51774
0.440318
0.203406
0.20565
0.37465
0.417791
0.408052
0.399885
0.396103
0.395828
0.394431
0.388982
2.96753
2.95206
2.94111
2.93519
2.92972
2.92707
2.92342
2.91989
2.90569
2.8823
2.80953
2.65585
2.30746
1.56646
0.503042
0.177879
0.242441
0.402086
0.445492
0.442193
0.443354
0.449794
0.462999
0.477356
0.501463
2.96763
2.952
2.94118
2.93515
2.92977
2.92706
2.92348
2.92012
2.90663
2.88432
2.8156
2.66348
2.33085
1.60459
0.560134
0.175621
0.281626
0.432537
0.47514
0.478188
0.487823
0.505858
0.538668
0.579796
0.683287
2.98574
2.9702
2.95107
2.93547
2.9192
2.90726
2.89388
2.88272
2.8606
2.825
2.72981
2.52635
2.10956
1.20597
0.037777
0.668837
0.100025
0.182759
0.238843
0.184411
0.0939718
0.0742206
0.092486
0.0675049
0.0669451
2.98571
2.97024
2.95103
2.9355
2.91917
2.9073
2.89385
2.88275
2.86057
2.82526
2.72964
2.52806
2.10983
1.20474
0.0426182
0.660937
0.098012
0.196674
0.242908
0.176256
0.131806
0.113037
0.130569
0.113742
0.100455
2.98574
2.9702
2.95107
2.93547
2.9192
2.90726
2.89389
2.88276
2.86078
2.82537
2.7308
2.52829
2.11359
1.21258
0.0553914
0.641957
0.10378
0.21467
0.250766
0.188967
0.164611
0.153293
0.173917
0.167428
0.147466
2.98571
2.97024
2.95103
2.9355
2.91917
2.9073
2.89387
2.88284
2.86092
2.82599
2.73155
2.53196
2.11799
1.21886
0.0683702
0.622781
0.116458
0.237009
0.266181
0.217811
0.200914
0.196751
0.21999
0.221288
0.198684
2.98567
2.97028
2.951
2.93554
2.91913
2.90734
2.89385
2.88295
2.86118
2.82685
2.73294
2.53715
2.12551
1.23217
0.0931569
0.595914
0.135315
0.262953
0.287129
0.2517
0.233287
0.2424
0.26799
0.275765
0.252679
2.98569
2.97026
2.95101
2.93552
2.91915
2.90733
2.89388
2.88306
2.86171
2.82774
2.73589
2.54235
2.13847
1.25973
0.129265
0.560169
0.157527
0.290996
0.313947
0.289818
0.269913
0.291204
0.319029
0.33315
0.313042
2.98565
2.9703
2.95098
2.93556
2.91912
2.90737
2.89388
2.88322
2.86228
2.82916
2.73919
2.55125
2.15523
1.29463
0.17202
0.518092
0.182268
0.320338
0.344616
0.330921
0.314378
0.342953
0.37414
0.396945
0.384464
2.98566
2.97029
2.95099
2.93556
2.91912
2.90737
2.89391
2.88338
2.86307
2.83069
2.74375
2.56026
2.17644
1.33879
0.221786
0.471652
0.21019
0.351244
0.378227
0.373865
0.366111
0.396688
0.434847
0.468555
0.471513
2.9856
2.97035
2.95093
2.93562
2.91907
2.90744
2.89389
2.88361
2.86383
2.83263
2.74801
2.57282
2.19844
1.38746
0.283568
0.415257
0.241113
0.382807
0.413065
0.416657
0.420295
0.453472
0.500981
0.551069
0.585486
2.98569
2.97026
2.95102
2.93553
2.91916
2.90737
2.89401
2.88391
2.86497
2.83455
2.75368
2.58222
2.22301
1.44247
0.35324
0.349331
0.274978
0.415086
0.44764
0.459258
0.473998
0.512818
0.573926
0.647682
0.766214
2.96752
2.95208
2.94109
2.93521
2.92968
2.92708
2.92319
2.91904
2.90256
2.87533
2.79264
2.61188
2.21925
1.36754
0.268044
0.316796
0.0376407
0.260655
0.320912
0.3009
0.265186
0.20659
0.122243
0.057872
0.112863
2.96755
2.95201
2.94114
2.93513
2.92975
2.92699
2.92333
2.91925
2.90377
2.87484
2.79911
2.60405
2.227
1.36352
0.24314
0.369818
0.0502968
0.258227
0.302213
0.234893
0.226379
0.1768
0.0977301
0.0798062
0.117799
2.96752
2.95208
2.94108
2.93521
2.92968
2.92707
2.92321
2.91911
2.90278
2.87583
2.79364
2.61445
2.22351
1.37162
0.278332
0.306932
0.0740777
0.27309
0.311431
0.258065
0.240458
0.189498
0.124911
0.123277
0.134169
2.96754
2.95202
2.94113
2.93513
2.92974
2.92699
2.92333
2.91932
2.90399
2.87559
2.80068
2.60845
2.23609
1.37685
0.275301
0.298227
0.0958212
0.289663
0.331478
0.296214
0.264189
0.218101
0.168832
0.167889
0.163109
2.96754
2.95202
2.94112
2.93513
2.92973
2.927
2.92335
2.9194
2.90421
2.87631
2.80212
2.61266
2.24458
1.39266
0.297825
0.279349
0.120458
0.306591
0.346903
0.314366
0.290819
0.255303
0.218772
0.214991
0.199278
2.96755
2.95201
2.94113
2.93513
2.92974
2.927
2.92339
2.91954
2.90466
2.87731
2.80454
2.61875
2.25678
1.42158
0.329958
0.255349
0.145944
0.326413
0.368219
0.345977
0.323398
0.298478
0.272834
0.26621
0.245791
2.96752
2.95207
2.9411
2.9352
2.9297
2.92708
2.92332
2.91951
2.90429
2.87907
2.80184
2.63569
2.26623
1.47313
0.394295
0.228509
0.174448
0.349195
0.39162
0.37589
0.359788
0.345658
0.330993
0.324636
0.306867
2.96753
2.95206
2.94111
2.93519
2.92972
2.92708
2.92337
2.91968
2.90497
2.88053
2.80547
2.64583
2.28587
1.524
0.448187
0.190861
0.207545
0.37558
0.418298
0.408499
0.400436
0.396277
0.393814
0.392954
0.387854
2.96753
2.95206
2.94112
2.93519
2.92972
2.92708
2.92342
2.91989
2.90566
2.88227
2.80947
2.65571
2.30757
1.5666
0.50339
0.17578
0.242132
0.402929
0.446069
0.44278
0.444056
0.450366
0.462059
0.476043
0.500546
2.96763
2.95201
2.94118
2.93515
2.92977
2.92706
2.92347
2.92011
2.90661
2.88427
2.8155
2.66333
2.33065
1.60471
0.560611
0.175335
0.282123
0.433271
0.475425
0.478372
0.488196
0.506368
0.53832
0.578507
0.682624
3.04659
3.077
3.10412
3.12671
3.14769
3.16451
3.18054
3.18987
3.18936
3.17268
3.1273
2.97541
2.66069
1.90081
0.86409
0.389451
0.463559
0.566334
0.623308
0.624614
0.607022
0.565434
0.489613
0.359295
0.256416
3.04538
3.07824
3.10282
3.12806
3.1463
3.16597
3.17896
3.19105
3.185
3.17826
3.12109
3.00008
2.62774
1.90639
0.904593
0.395267
0.469718
0.573049
0.624689
0.612276
0.5996
0.56155
0.480581
0.344429
0.241065
3.0465
3.07709
3.10402
3.1268
3.14758
3.16461
3.18046
3.19005
3.18959
3.17346
3.13201
2.9793
2.67231
1.91234
0.869994
0.39905
0.472292
0.570667
0.62319
0.61136
0.597416
0.560297
0.478231
0.339933
0.235044
3.04537
3.07825
3.1028
3.12806
3.14628
3.16598
3.17892
3.19106
3.18475
3.17722
3.12113
2.99614
2.63891
1.93078
0.92616
0.43356
0.498351
0.590353
0.639846
0.636966
0.616443
0.576355
0.496506
0.358969
0.249709
3.04541
3.0782
3.10285
3.12801
3.14635
3.16589
3.17909
3.191
3.18567
3.17572
3.12234
2.99748
2.65026
1.96229
0.929915
0.442912
0.506142
0.595376
0.644814
0.641848
0.622631
0.583084
0.506444
0.372171
0.262724
3.04549
3.07813
3.10293
3.12794
3.14642
3.16585
3.17914
3.19118
3.18613
3.17869
3.12549
3.00644
2.6631
1.9755
0.966804
0.471306
0.527684
0.610199
0.658854
0.658865
0.637742
0.597798
0.522782
0.3905
0.28206
3.04633
3.07726
3.10386
3.12697
3.14744
3.1648
3.18045
3.19091
3.19056
3.17558
3.1348
2.99569
2.70927
1.98681
0.99492
0.496483
0.547942
0.624204
0.674543
0.676029
0.654253
0.616343
0.544051
0.416556
0.313386
3.04634
3.07726
3.10386
3.12698
3.14745
3.16482
3.18049
3.19108
3.19083
3.17668
3.13527
3.00404
2.72588
2.01481
1.04208
0.538582
0.573586
0.642529
0.693153
0.694997
0.67424
0.639388
0.572962
0.454247
0.365552
3.04628
3.07732
3.10381
3.12704
3.14738
3.16489
3.18043
3.19115
3.1911
3.17824
3.13943
3.01325
2.74698
2.05099
1.09256
0.580429
0.600424
0.662756
0.713145
0.71635
0.698582
0.669105
0.613528
0.511773
0.453837
3.04724
3.07634
3.10481
3.12601
3.14841
3.16381
3.18143
3.18981
3.19212
3.181
3.14768
3.02484
2.7746
2.08573
1.13438
0.633321
0.635425
0.687699
0.735605
0.740883
0.72795
0.706986
0.671323
0.605742
0.618566
3.04529
3.0783
3.10272
3.12814
3.1462
3.16615
3.17908
3.19268
3.19204
3.18626
3.14536
3.05338
2.75778
2.19043
1.23079
0.702064
0.683196
0.724839
0.766566
0.772966
0.765403
0.755878
0.748009
0.747291
0.807656
3.04822
3.07529
3.10587
3.12488
3.14952
3.1627
3.18258
3.18926
3.19593
3.18572
3.158
3.04761
2.81646
2.19159
1.25697
0.751122
0.72484
0.760097
0.796949
0.806901
0.806134
0.808707
0.819926
0.851397
0.932155
3.04547
3.07812
3.10293
3.12795
3.14641
3.16596
3.17938
3.19302
3.19416
3.18956
3.15544
3.07696
2.81454
2.32044
1.38806
0.820442
0.772726
0.79747
0.825676
0.838763
0.844462
0.854922
0.876811
0.920284
1.00028
3.04782
3.07572
3.10543
3.12537
3.14903
3.16328
3.18211
3.19058
3.19821
3.19019
3.16422
3.07369
2.86846
2.33422
1.44739
0.89684
0.828015
0.839651
0.858542
0.873687
0.883837
0.898954
0.925539
0.9702
1.04214
3.04767
3.07588
3.10525
3.12556
3.14881
3.16353
3.18191
3.19125
3.19984
3.1929
3.17209
3.09177
2.92501
2.43777
1.61416
0.983355
0.87384
0.872824
0.887021
0.905009
0.919825
0.9395
0.967501
1.01161
1.07388
3.0457
3.07789
3.10312
3.12776
3.14656
3.1659
3.17963
3.19424
3.19981
3.19841
3.17644
3.12212
2.94956
2.60628
1.82091
1.11429
0.9322
0.916722
0.922734
0.939197
0.957058
0.978485
1.00668
1.04769
1.10441
3.04595
3.07762
3.10339
3.12746
3.14683
3.16561
3.17995
3.19427
3.20152
3.20083
3.18452
3.13968
3.00735
2.73304
2.06179
1.28491
1.01473
0.983265
0.979781
0.991545
1.00632
1.02336
1.047
1.08185
1.13069
3.04638
3.07718
3.10384
3.127
3.14729
3.16516
3.18043
3.19407
3.20311
3.20252
3.19135
3.15257
3.05935
2.80962
2.275
1.45212
1.07504
1.02805
1.03097
1.04397
1.05998
1.07396
1.09294
1.12051
1.15964
3.04535
3.07821
3.10278
3.12808
3.14622
3.16624
3.17938
3.19519
3.20229
3.205
3.1981
3.17041
3.09263
2.89364
2.43793
1.61803
1.12648
1.05052
1.05249
1.07001
1.09216
1.11288
1.13359
1.15894
1.19182
3.04716
3.07638
3.10472
3.12609
3.14828
3.16411
3.18165
3.19303
3.20607
3.20878
3.20697
3.18332
3.12583
2.95772
2.60737
1.8763
1.25245
1.09556
1.08235
1.09261
1.11387
1.13955
1.16363
1.18993
1.22146
3.04556
3.07803
3.10301
3.12787
3.1465
3.16595
3.17987
3.19498
3.20479
3.21322
3.20917
3.19553
3.14563
3.03122
2.74035
2.08789
1.4005
1.16186
1.12838
1.12822
1.143
1.16555
1.18873
1.21403
1.24362
3.04632
3.07725
3.10382
3.12701
3.14739
3.16502
3.1808
3.1941
3.20603
3.21356
3.21324
3.20379
3.17179
3.08591
2.87343
2.38202
1.60619
1.23574
1.17162
1.16578
1.17598
1.19466
1.21741
1.24066
1.26621
3.04581
3.07778
3.10321
3.12772
3.14673
3.16555
3.18032
3.1949
3.20515
3.21573
3.2156
3.21028
3.18843
3.12275
2.96272
2.58788
1.86558
1.33532
1.20519
1.19255
1.19941
1.21918
1.24514
1.26935
1.2936
3.04575
3.07784
3.10319
3.1277
3.14666
3.1658
3.18003
3.19508
3.20538
3.2167
3.21993
3.21867
3.20142
3.15825
3.03521
2.78835
2.16817
1.51935
1.27552
1.23624
1.23374
1.24603
1.26779
1.29181
1.31566
3.04621
3.07738
3.10367
3.12719
3.14716
3.16531
3.18049
3.19462
3.20594
3.21667
3.22263
3.22226
3.21217
3.18369
3.09956
2.92868
2.42943
1.72942
1.36307
1.28065
1.26936
1.27419
1.29005
1.31333
1.33639
3.04632
3.07724
3.10381
3.12703
3.14731
3.16513
3.18065
3.19446
3.20613
3.2167
3.22358
3.22386
3.21936
3.19871
3.14417
3.00692
2.67105
2.01056
1.47686
1.31836
1.29533
1.29739
1.31057
1.33119
1.35441
3.04573
3.07784
3.10318
3.12769
3.14664
3.1658
3.18003
3.19507
3.20558
3.21742
3.22377
3.22773
3.22452
3.21048
3.17765
3.07512
2.87141
2.32058
1.66966
1.39113
1.33524
1.32817
1.33329
1.35044
1.37372
3.04585
3.07772
3.10331
3.12759
3.14674
3.16565
3.18029
3.19475
3.20591
3.21734
3.22482
3.23157
3.22923
3.223
3.20008
3.13012
2.98876
2.6114
1.98648
1.49941
1.3719
1.35289
1.35457
1.3678
1.38875
3.04606
3.07752
3.10351
3.12733
3.14703
3.16541
3.18044
3.19466
3.20609
3.2171
3.22547
3.23282
3.23389
3.23091
3.2169
3.17501
3.07269
2.85018
2.30479
1.69481
1.44604
1.39745
1.38818
1.39117
1.40543
3.0461
3.07749
3.10356
3.1273
3.14706
3.1654
3.18043
3.1947
3.20604
3.2172
3.22553
3.23383
3.23739
3.23682
3.22762
3.20063
3.1339
2.97545
2.57512
1.93246
1.53781
1.43082
1.41438
1.41456
1.4246
3.04647
3.07711
3.10396
3.12689
3.14747
3.16498
3.18084
3.19427
3.20647
3.21679
3.22599
3.23378
3.23925
3.23903
3.23477
3.21703
3.17752
3.06733
2.82463
2.2668
1.69907
1.48477
1.4432
1.43757
1.44026
3.04578
3.07777
3.10329
3.12761
3.14673
3.16577
3.18003
3.19507
3.20569
3.21755
3.22535
3.23455
3.23933
3.24273
3.24033
3.23071
3.20486
3.13612
2.97353
2.59585
1.97918
1.58921
1.47713
1.45698
1.45379
3.04597
3.07762
3.10343
3.12743
3.14692
3.16554
3.18029
3.19481
3.20597
3.21727
3.22565
3.23432
3.24036
3.24542
3.24399
3.23962
3.22479
3.18023
3.07807
2.85156
2.32049
1.77537
1.54653
1.48824
1.47256
3.04613
3.07745
3.1036
3.12725
3.1471
3.16535
3.18048
3.19463
3.20614
3.21711
3.2258
3.23425
3.24061
3.24646
3.24791
3.24651
3.2372
3.21126
3.14437
3.00219
2.60953
2.01586
1.64063
1.51632
1.48224
3.04627
3.07731
3.10375
3.1271
3.14725
3.1652
3.18062
3.19449
3.20627
3.21698
3.22592
3.23418
3.24077
3.24691
3.25013
3.24975
3.24479
3.22748
3.19183
3.09124
2.8751
2.36695
1.81121
1.56682
1.49002
3.04611
3.07747
3.10358
3.12728
3.14708
3.16539
3.18044
3.19468
3.20609
3.21718
3.22573
3.23439
3.24061
3.24728
3.25079
3.25187
3.24971
3.23946
3.21984
3.14939
3.0224
2.67777
2.09844
1.66264
1.48749
3.04602
3.07756
3.10349
3.12736
3.14698
3.16548
3.18035
3.19477
3.20601
3.21726
3.22565
3.23446
3.2406
3.24738
3.25148
3.2547
3.25341
3.24842
3.23483
3.19425
3.10337
2.89081
2.43586
1.8175
1.4751
3.0463
3.07728
3.10377
3.1271
3.14723
3.16525
3.18055
3.19458
3.20617
3.21709
3.22583
3.23425
3.24083
3.24721
3.252
3.25584
3.2553
3.25242
3.24421
3.21333
3.15768
2.98958
2.66711
2.00766
1.39837
3.04627
3.07732
3.10375
3.12712
3.14724
3.16523
3.18061
3.1945
3.20629
3.21696
3.22596
3.23414
3.24094
3.24713
3.25218
3.25617
3.25699
3.25498
3.24838
3.22373
3.17637
3.03296
2.74763
2.08433
1.31141
3.0462
3.07739
3.10368
3.1272
3.14716
3.16532
3.18051
3.1946
3.2062
3.21704
3.22589
3.23423
3.24083
3.24727
3.2521
3.25653
3.25789
3.25653
3.25039
3.22811
3.18225
3.05194
2.7565
2.12676
1.22119
3.04631
3.07731
3.10374
3.12715
3.14719
3.16529
3.18053
3.19459
3.20616
3.21711
3.22579
3.23433
3.24073
3.2474
3.25196
3.25692
3.25855
3.25819
3.25133
3.23224
3.1815
3.06278
2.74703
2.14335
1.17211
3.04627
3.07733
3.10372
3.12717
3.14718
3.16532
3.18051
3.19463
3.20613
3.21713
3.22579
3.2343
3.2408
3.24728
3.2521
3.25663
3.25831
3.25706
3.25137
3.22906
3.18542
3.04852
2.76281
2.07753
1.16538
3.04637
3.07721
3.10384
3.12702
3.14732
3.16517
3.18063
3.19453
3.2062
3.21711
3.22576
3.23435
3.24069
3.24739
3.25195
3.25689
3.25865
3.25801
3.25186
3.23227
3.18468
3.06448
2.75411
2.14319
1.14501
3.04639
3.0772
3.10385
3.12702
3.14731
3.16519
3.18061
3.19455
3.20619
3.21709
3.2258
3.23429
3.24073
3.24737
3.25195
3.25696
3.25876
3.25812
3.25224
3.23223
3.18598
3.06531
2.75757
2.14539
1.13982
3.04641
3.07715
3.10389
3.12695
3.14737
3.16507
3.18071
3.1944
3.2063
3.21697
3.22587
3.23425
3.24078
3.24733
3.25204
3.25697
3.25904
3.25878
3.25263
3.23458
3.18534
3.0691
2.75474
2.14606
1.13941
3.04642
3.07715
3.1039
3.12694
3.14739
3.16506
3.18074
3.19438
3.20632
3.21696
3.22587
3.23426
3.24076
3.24735
3.25202
3.25696
3.25901
3.25871
3.25274
3.23387
3.1878
3.06848
2.7656
2.1412
1.1504
3.04643
3.07714
3.10392
3.12693
3.14742
3.16504
3.18077
3.19436
3.20637
3.21692
3.22595
3.2342
3.24082
3.24731
3.25203
3.25695
3.25899
3.25837
3.25299
3.23248
3.19105
3.05683
2.77943
2.06434
1.16608
3.04614
3.07737
3.1037
3.12709
3.14729
3.16512
3.18075
3.19433
3.20645
3.2168
3.22611
3.23401
3.24103
3.24714
3.25219
3.25697
3.25943
3.25928
3.25408
3.23709
3.19151
3.07594
2.77335
2.11727
1.15293
3.04641
3.07713
3.10393
3.1269
3.14745
3.165
3.18082
3.1943
3.20647
3.2168
3.22612
3.234
3.24105
3.24708
3.25223
3.2569
3.25954
3.25941
3.25443
3.2376
3.19472
3.07202
2.77726
2.08139
1.14316
3.04643
3.07714
3.10392
3.12693
3.14743
3.16503
3.1808
3.1943
3.20645
3.21679
3.22611
3.234
3.24107
3.24707
3.25229
3.25685
3.25972
3.25965
3.2544
3.23793
3.19389
3.06399
2.76417
2.00617
1.12943
2.96807
2.9515
2.94165
2.93462
2.93028
2.92647
2.92406
2.91934
2.91069
2.88107
2.82567
2.68178
2.33034
1.66745
0.57787
0.19561
0.319282
0.460818
0.503591
0.5134
0.531478
0.563472
0.61965
0.700417
0.866088
2.96825
2.95142
2.94176
2.93459
2.93035
2.92649
2.92414
2.91958
2.91157
2.8854
2.82943
2.70039
2.35496
1.72618
0.664029
0.238358
0.360646
0.485786
0.528705
0.545681
0.573379
0.619495
0.691921
0.793244
0.950568
2.96809
2.95148
2.94167
2.93461
2.93031
2.9265
2.92429
2.92026
2.91268
2.88654
2.83783
2.71041
2.39398
1.78958
0.744674
0.302666
0.405114
0.501175
0.548706
0.574663
0.61176
0.668222
0.747363
0.848238
0.976532
2.96796
2.95169
2.94149
2.93486
2.9301
2.92677
2.92418
2.92091
2.91381
2.89313
2.84385
2.73646
2.42806
1.86654
0.881584
0.395011
0.44738
0.511118
0.564414
0.600212
0.64546
0.706103
0.784609
0.877861
0.988294
2.96784
2.95181
2.94137
2.93498
2.92995
2.92697
2.9239
2.92146
2.91293
2.89742
2.85218
2.74248
2.50419
1.90973
1.00205
0.494273
0.479947
0.528277
0.580469
0.62147
0.672195
0.734819
0.810673
0.895724
0.993999
2.96768
2.95189
2.94125
2.93502
2.92988
2.92696
2.92408
2.92176
2.91613
2.89724
2.86277
2.76813
2.53508
2.07591
1.13487
0.603213
0.505938
0.544396
0.595877
0.641127
0.693058
0.75442
0.828992
0.907218
0.996181
2.96802
2.95156
2.94157
2.93471
2.93018
2.92668
2.92439
2.92172
2.91731
2.90088
2.87267
2.79111
2.59766
2.20358
1.34896
0.731819
0.54324
0.568841
0.615934
0.663213
0.71345
0.771014
0.841483
0.916256
0.996521
2.96787
2.95172
2.94141
2.93489
2.92999
2.9269
2.92413
2.92209
2.91707
2.90793
2.87991
2.81641
2.67155
2.30942
1.59999
0.86789
0.609676
0.61664
0.649411
0.692763
0.736711
0.787503
0.851013
0.922023
0.996351
2.9678
2.95175
2.94137
2.9349
2.92997
2.92691
2.92417
2.92229
2.91844
2.91127
2.88759
2.84037
2.7216
2.43805
1.85072
1.01614
0.675579
0.666812
0.691119
0.727153
0.76476
0.808017
0.862171
0.926468
0.995468
2.96804
2.9516
2.94156
2.93478
2.93014
2.92682
2.92436
2.9225
2.91982
2.91402
2.89345
2.8582
2.75795
2.52574
2.04961
1.17697
0.758037
0.706906
0.727125
0.755178
0.789748
0.829469
0.875596
0.932134
0.994558
2.96808
2.9515
2.94164
2.93464
2.93027
2.92663
2.92458
2.92227
2.92042
2.9141
2.90311
2.86807
2.7921
2.61407
2.18038
1.41274
0.878148
0.746689
0.756486
0.779218
0.812838
0.850012
0.891816
0.939972
0.995586
2.96809
2.95152
2.94163
2.93467
2.93026
2.92666
2.92458
2.92239
2.92073
2.91609
2.90779
2.88036
2.82537
2.68561
2.36162
1.68987
1.03055
0.808946
0.794398
0.808119
0.836454
0.869871
0.908267
0.951686
0.999679
2.9677
2.95188
2.94127
2.93503
2.9299
2.92699
2.92426
2.92284
2.92078
2.91879
2.9105
2.89463
2.85171
2.74507
2.5217
1.98869
1.21256
0.884393
0.840125
0.847149
0.866233
0.89399
0.926286
0.964521
1.00786
2.96769
2.95188
2.94127
2.93501
2.92991
2.92699
2.92428
2.92282
2.92112
2.91943
2.91465
2.89976
2.8698
2.79265
2.59739
2.20955
1.43679
0.983383
0.879249
0.87903
0.894311
0.920579
0.947234
0.978954
1.01671
2.96782
2.95178
2.94137
2.93494
2.92998
2.92695
2.92432
2.92283
2.9212
2.91989
2.91664
2.90465
2.88467
2.82497
2.68674
2.39685
1.7492
1.14495
0.94236
0.919599
0.926226
0.946184
0.973208
0.998394
1.02845
2.96803
2.95157
2.94157
2.93473
2.93018
2.92675
2.92451
2.92265
2.92141
2.92
2.91791
2.90944
2.89593
2.85085
2.76409
2.55289
2.06492
1.35957
1.02717
0.961953
0.959542
0.971545
0.994272
1.02023
1.04532
2.96813
2.95146
2.94168
2.93461
2.9303
2.92662
2.92464
2.92252
2.92156
2.91996
2.91857
2.91289
2.90339
2.87088
2.81034
2.65359
2.28955
1.612
1.13585
1.00832
0.993772
0.998548
1.01452
1.03792
1.06295
2.9681
2.95149
2.94165
2.93465
2.93026
2.92665
2.92462
2.92256
2.92153
2.92019
2.91919
2.91651
2.90723
2.8908
2.84377
2.73871
2.5013
1.9959
1.32525
1.08169
1.03845
1.03396
1.04222
1.05915
1.08008
2.96804
2.95156
2.94159
2.93471
2.93021
2.92672
2.92455
2.92262
2.92151
2.92023
2.91943
2.91727
2.91285
2.89756
2.87078
2.7942
2.62631
2.25735
1.56578
1.17133
1.07381
1.06433
1.06825
1.08295
1.10114
2.96789
2.9517
2.94145
2.93485
2.93007
2.92686
2.92441
2.92276
2.92138
2.9204
2.91949
2.91841
2.91535
2.90461
2.88728
2.83334
2.72257
2.46839
1.89524
1.34245
1.1363
1.09968
1.09648
1.10476
1.11923
2.96786
2.95174
2.94141
2.9349
2.93002
2.92692
2.92436
2.92283
2.92132
2.92049
2.91946
2.91876
2.91692
2.90985
2.89881
2.86249
2.7901
2.62169
2.20402
1.56991
1.22408
1.13817
1.1264
1.12661
1.13372
2.96799
2.95159
2.94155
2.93474
2.93017
2.92676
2.9245
2.92267
2.92147
2.92034
2.91963
2.91873
2.91766
2.91337
2.90601
2.88159
2.83607
2.71466
2.44791
1.88579
1.36864
1.19156
1.15693
1.1504
1.14905
2.96804
2.95155
2.94159
2.9347
2.93021
2.92672
2.92455
2.92263
2.92152
2.9203
2.91969
2.91875
2.91805
2.91553
2.91094
2.89492
2.86737
2.78625
2.62327
2.22912
1.60559
1.2785
1.18882
1.17
1.15982
2.96803
2.95157
2.94157
2.93473
2.93019
2.92674
2.92453
2.92265
2.92149
2.92033
2.91968
2.91883
2.91836
2.917
2.91407
2.90363
2.8863
2.83373
2.72295
2.47284
1.93537
1.43677
1.24487
1.19358
1.16715
2.96792
2.95168
2.94147
2.93484
2.93008
2.92685
2.92442
2.92276
2.92138
2.92044
2.91957
2.91897
2.91836
2.91772
2.91591
2.90923
2.89884
2.86501
2.79713
2.63961
2.25213
1.65921
1.32533
1.2192
1.16854
2.96788
2.95171
2.94143
2.93486
2.93005
2.92688
2.92439
2.92279
2.92135
2.92047
2.91953
2.91902
2.91831
2.91792
2.91663
2.9139
2.90479
2.88797
2.8415
2.73673
2.50247
2.01427
1.47809
1.25537
1.15625
2.96802
2.95157
2.94157
2.93473
2.93019
2.92675
2.92452
2.92266
2.92148
2.92034
2.91967
2.91889
2.91848
2.91784
2.91729
2.91507
2.91081
2.89729
2.87146
2.80076
2.65164
2.29327
1.71422
1.31232
1.10784
2.96804
2.95157
2.94158
2.93472
2.93019
2.92674
2.92453
2.92266
2.92149
2.92034
2.91968
2.91889
2.9185
2.9179
2.91753
2.91649
2.91273
2.90588
2.88536
2.84383
2.73677
2.50947
1.99824
1.4114
1.01867
2.96793
2.95166
2.94149
2.93482
2.9301
2.92684
2.92444
2.92274
2.92141
2.92042
2.9196
2.91897
2.91842
2.91798
2.91755
2.91687
2.91406
2.90923
2.89331
2.86244
2.78383
2.5935
2.21624
1.49458
0.867629
2.96794
2.95165
2.9415
2.9348
2.93012
2.92681
2.92446
2.92272
2.92144
2.92038
2.91964
2.91892
2.91847
2.91794
2.91767
2.91701
2.91532
2.90919
2.8994
2.86626
2.80385
2.63706
2.27034
1.54732
0.697426
2.96791
2.95169
2.94147
2.93484
2.93009
2.92685
2.92443
2.92275
2.9214
2.92042
2.9196
2.91897
2.91844
2.91798
2.91765
2.91714
2.91564
2.91019
2.90113
2.87135
2.81036
2.65381
2.2937
1.56755
0.611125
2.96792
2.95169
2.94146
2.93485
2.93007
2.92688
2.9244
2.9228
2.92135
2.92048
2.91953
2.91904
2.91836
2.91806
2.91751
2.91714
2.91535
2.91188
2.90191
2.87649
2.81939
2.65557
2.33851
1.61328
0.576126
2.96791
2.9517
2.94146
2.93486
2.93007
2.92687
2.92441
2.92278
2.92138
2.92044
2.91958
2.91897
2.91843
2.91799
2.91764
2.91717
2.91577
2.91051
2.90212
2.87319
2.81734
2.66774
2.32148
1.60693
0.555482
2.96792
2.95169
2.94146
2.93485
2.93007
2.92687
2.92441
2.92277
2.92139
2.92044
2.91959
2.91897
2.91843
2.91798
2.91765
2.91719
2.91581
2.91042
2.90231
2.87254
2.81913
2.66663
2.33032
1.60904
0.541075
2.96795
2.95166
2.94148
2.93483
2.93008
2.92686
2.92441
2.92278
2.92137
2.92045
2.91956
2.91899
2.91841
2.918
2.91764
2.91719
2.91588
2.91083
2.90273
2.87437
2.82001
2.66956
2.32964
1.60171
0.544067
2.96797
2.95165
2.9415
2.93481
2.9301
2.92685
2.92442
2.92277
2.92137
2.92046
2.91955
2.919
2.9184
2.91801
2.91763
2.91721
2.91595
2.91108
2.90333
2.87549
2.82298
2.6734
2.3399
1.60148
0.549854
2.96795
2.95166
2.94149
2.93482
2.9301
2.92684
2.92443
2.92276
2.92139
2.92045
2.91957
2.91901
2.91838
2.91805
2.91754
2.91723
2.91581
2.91279
2.90441
2.88117
2.82927
2.67297
2.36558
1.62697
0.538767
2.96799
2.9516
2.94154
2.93476
2.93015
2.92679
2.92448
2.92271
2.92143
2.92041
2.91959
2.91898
2.91841
2.91801
2.91761
2.9172
2.91628
2.91257
2.90507
2.88256
2.82545
2.68909
2.34272
1.60731
0.570352
2.96793
2.95167
2.94148
2.93483
2.93009
2.92685
2.92442
2.92277
2.92138
2.92045
2.91956
2.91901
2.91838
2.91804
2.91754
2.91721
2.91594
2.91342
2.90527
2.88436
2.83222
2.68499
2.37573
1.62229
0.539584
2.96794
2.95167
2.94149
2.93483
2.9301
2.92685
2.92442
2.92277
2.92138
2.92045
2.91956
2.91901
2.91839
2.91804
2.91755
2.91723
2.91605
2.91361
2.90596
2.88546
2.8351
2.68802
2.37778
1.6101
0.495713
2.9865
2.96946
2.95181
2.93473
2.91997
2.90653
2.89504
2.88326
2.86828
2.83079
2.76452
2.59791
2.22389
1.49759
0.387212
0.303216
0.308863
0.444812
0.480441
0.498764
0.524719
0.57266
0.650711
0.753898
0.941266
2.98648
2.96948
2.95179
2.93474
2.91996
2.90656
2.89507
2.88346
2.869
2.83339
2.77085
2.61262
2.25618
1.5621
0.467236
0.273339
0.344068
0.468298
0.508258
0.534846
0.571816
0.630395
0.720213
0.837939
1.0134
2.98569
2.97027
2.95101
2.93554
2.91915
2.90743
2.89414
2.88485
2.86857
2.84235
2.77335
2.6265
2.31828
1.62251
0.594909
0.262462
0.378828
0.487555
0.530347
0.564717
0.613769
0.681461
0.773788
0.886443
1.02431
2.98608
2.96988
2.9514
2.93517
2.91954
2.90707
2.8946
2.88475
2.87045
2.84604
2.78229
2.64802
2.36429
1.69989
0.696371
0.295444
0.413995
0.501047
0.548966
0.591386
0.649421
0.722253
0.810635
0.911791
1.0258
2.98573
2.97023
2.95107
2.93546
2.91929
2.90727
2.89458
2.88474
2.87181
2.84724
2.79449
2.68318
2.37929
1.83278
0.802579
0.361651
0.434485
0.503086
0.563684
0.614169
0.677834
0.75201
0.835632
0.926128
1.02325
2.98654
2.96942
2.95187
2.93466
2.92008
2.90649
2.89537
2.88414
2.87231
2.84692
2.80438
2.69147
2.43554
1.93167
0.92218
0.452084
0.433577
0.503838
0.575449
0.632604
0.698088
0.772514
0.852758
0.935001
1.02249
2.98673
2.96923
2.95204
2.93449
2.92024
2.90635
2.89555
2.88419
2.87345
2.8512
2.81453
2.71631
2.49767
2.0555
1.11829
0.566422
0.438128
0.502874
0.584459
0.64711
0.713065
0.786265
0.864858
0.941711
1.02098
2.98671
2.96925
2.95202
2.93451
2.92021
2.90637
2.89558
2.88439
2.8747
2.85655
2.82534
2.74655
2.56353
2.20307
1.36751
0.692737
0.471337
0.520871
0.597999
0.659987
0.724431
0.794815
0.871813
0.946135
1.0188
2.98691
2.96904
2.95222
2.93432
2.9204
2.90619
2.89581
2.88437
2.87593
2.86067
2.83569
2.77033
2.62896
2.33518
1.68496
0.828623
0.529677
0.565841
0.621951
0.677842
0.735803
0.801129
0.874568
0.948229
1.01671
2.98643
2.96953
2.95174
2.93481
2.9199
2.90673
2.89525
2.88521
2.87568
2.86423
2.83833
2.79321
2.6759
2.41168
1.87842
0.94319
0.599872
0.605091
0.645545
0.696224
0.748952
0.807294
0.875216
0.94625
1.0137
2.98678
2.96918
2.95208
2.93448
2.92023
2.90641
2.89558
2.88498
2.87633
2.86592
2.84675
2.8078
2.72084
2.4935
2.06724
1.17578
0.713706
0.629484
0.663211
0.710764
0.76008
0.813364
0.874471
0.942542
1.00772
2.98668
2.96928
2.95199
2.93457
2.92016
2.90648
2.89556
2.88504
2.87673
2.86706
2.85383
2.81701
2.75202
2.58424
2.21639
1.47776
0.844975
0.664497
0.685861
0.724052
0.772667
0.821115
0.875354
0.937416
1.00075
2.9864
2.96955
2.95173
2.93482
2.91991
2.90672
2.89533
2.88533
2.8767
2.86829
2.8575
2.83068
2.78163
2.65721
2.3856
1.7626
1.00993
0.728754
0.720324
0.744407
0.786041
0.831886
0.879365
0.933624
0.993593
2.98758
2.96838
2.95287
2.9337
2.92101
2.90566
2.89638
2.88438
2.87773
2.86816
2.8604
2.84221
2.80158
2.70733
2.51603
2.00439
1.19308
0.810082
0.751046
0.768966
0.800792
0.842767
0.886088
0.933538
0.985757
2.98631
2.96964