/*--------------------------------*- C++ -*----------------------------------*\
  =========                 |
  \\      /  F ield         | OpenFOAM: The Open Source CFD Toolbox
   \\    /   O peration     | Website:  https://openfoam.org
    \\  /    A nd           | Version:  6
     \\/     M anipulation  |
\*---------------------------------------------------------------------------*/
FoamFile
{
    version     2.0;
    format      ascii;
    class       volScalarField;
    location    "6";
    object      p;
}
// * * * * * * * * * * * * * * * * * * * * * * * * * * * * * * * * * * * * * //

dimensions      [1 -1 -2 0 0 0 0];

internalField   nonuniform List<scalar> 
26250
(
0.957655
0.911022
0.875207
0.843971
0.82044
0.797062
0.782864
0.763892
0.764071
0.774872
0.7847
0.91503
1.04784
1.94025
3.68733
8.54332
8.232
7.45582
6.87498
6.81212
6.83274
6.93094
7.18675
7.71721
8.44462
0.957654
0.91102
0.875207
0.843967
0.820445
0.797055
0.782874
0.763869
0.764042
0.774745
0.784517
0.914302
1.04637
1.93576
3.67423
8.52565
8.21178
7.42894
6.84651
6.78422
6.82812
6.95507
7.22814
7.72639
8.45725
0.957648
0.91102
0.875206
0.843964
0.820455
0.79704
0.782897
0.763805
0.763963
0.774444
0.784082
0.912937
1.04359
1.9294
3.65508
8.50692
8.16728
7.36224
6.80537
6.75855
6.81252
6.95645
7.24962
7.72397
8.44466
0.957608
0.911065
0.875182
0.844
0.820436
0.797057
0.782893
0.763696
0.763806
0.773191
0.782386
0.908869
1.03707
1.9147
3.62342
8.40782
8.09676
7.33146
6.78728
6.75122
6.79527
6.93416
7.23278
7.71167
8.42684
0.957481
0.911239
0.875071
0.844141
0.820302
0.797248
0.782624
0.764291
0.763795
0.766925
0.805986
0.844025
1.15476
1.69005
3.68298
8.2413
7.99446
7.27692
6.74787
6.7082
6.75391
6.89247
7.19331
7.681
8.40857
0.957558
0.911118
0.875151
0.844042
0.820418
0.797065
0.782903
0.763458
0.763492
0.770986
0.779378
0.8997
1.02021
1.86836
3.50144
8.11334
7.87075
7.22632
6.68963
6.64186
6.68982
6.83021
7.13191
7.62153
8.37549
0.957492
0.91122
0.875077
0.844141
0.820281
0.797296
0.782478
0.764387
0.762635
0.765801
0.802271
0.837398
1.1335
1.63159
3.52744
7.87791
7.70949
7.13232
6.61351
6.55878
6.60683
6.7443
7.03852
7.5204
8.30482
0.957582
0.911087
0.875194
0.843965
0.820515
0.796903
0.783068
0.763004
0.762975
0.770074
0.778002
0.891067
1.00066
1.80063
3.28984
7.68207
7.52992
7.05093
6.5236
6.45722
6.50165
6.62856
6.90154
7.35345
8.15424
0.957619
0.911039
0.875223
0.843911
0.820564
0.79683
0.783139
0.762891
0.762789
0.769708
0.777269
0.885266
0.988927
1.75322
3.15553
7.40607
7.31438
6.94164
6.41949
6.33708
6.3739
6.48005
6.70977
7.08587
7.83687
0.957691
0.910962
0.875235
0.843947
0.820453
0.797041
0.782814
0.763485
0.762468
0.767276
0.773927
0.875284
0.968514
1.71354
3.02923
7.11288
7.07261
6.81051
6.31355
6.20778
6.23108
6.30096
6.45113
6.67609
7.15599
1.03456
1.06945
1.09338
1.10983
1.12286
1.13227
1.14045
1.14845
1.16203
1.2036
1.26258
1.51638
1.93864
3.56235
7.89197
17.9752
16.0368
14.1873
13.6058
13.7788
13.7678
13.9186
14.309
14.8088
15.2365
1.03456
1.06944
1.09338
1.10983
1.12286
1.13226
1.14045
1.14844
1.16199
1.20349
1.26219
1.5157
1.9364
3.55692
7.87356
17.9249
15.9836
14.1223
13.527
13.6078
13.7596
13.9518
14.312
14.7634
15.2021
1.03456
1.06944
1.09338
1.10982
1.12286
1.13225
1.14046
1.1484
1.16187
1.20309
1.26162
1.51309
1.93188
3.54077
7.83124
17.9146
15.8525
13.9958
13.4333
13.526
13.7116
13.9056
14.2491
14.644
15.0965
1.03454
1.06946
1.09337
1.10984
1.12286
1.13225
1.14046
1.14832
1.16165
1.20242
1.26045
1.50908
1.92462
3.51744
7.7673
17.6856
15.7008
13.8587
13.3591
13.5306
13.6055
13.7724
14.097
14.4479
14.9105
1.03449
1.06951
1.09333
1.10989
1.12282
1.1323
1.14038
1.14815
1.16049
1.20264
1.25089
1.51164
1.89558
3.48312
7.70278
17.4068
15.4972
13.6846
13.2056
13.3442
13.4537
13.5956
13.8832
14.1939
14.666
1.03452
1.06948
1.09336
1.10985
1.12287
1.13224
1.14047
1.14809
1.16101
1.20029
1.25687
1.49517
1.8974
3.42548
7.50027
17.1181
15.2616
13.4752
13.0113
13.1402
13.2605
13.3759
13.6176
13.8769
14.3482
1.03449
1.0695
1.09334
1.10988
1.12282
1.13228
1.14037
1.14788
1.15981
1.2
1.24628
1.49493
1.85717
3.36282
7.33043
16.707
14.9876
13.2328
12.7788
12.8845
13.0234
13.1059
13.2877
13.477
13.9237
1.03454
1.06944
1.09339
1.10979
1.12292
1.13215
1.14051
1.14779
1.16014
1.1972
1.2515
1.47374
1.85109
3.27002
7.03294
16.2988
14.6848
12.967
12.5163
12.6054
12.7309
12.7735
12.8801
12.9715
13.3425
1.03457
1.06941
1.09342
1.10975
1.12295
1.13209
1.14054
1.14763
1.15964
1.19546
1.24725
1.46309
1.81511
3.19232
6.72884
15.7387
14.3287
12.6793
12.2288
12.297
12.3844
12.3752
12.3766
12.318
12.5052
1.03459
1.06938
1.09345
1.10972
1.12299
1.13206
1.14054
1.14753
1.15894
1.19359
1.23967
1.45481
1.76942
3.12948
6.4261
15.1171
13.9083
12.3549
11.9188
11.9621
11.9883
11.9239
11.7736
11.4441
11.2188
1.00891
1.0318
1.05927
1.08752
1.11318
1.13838
1.15844
1.18263
1.20284
1.25674
1.33353
1.63795
2.14554
4.05082
9.33546
21.0937
18.3051
16.2003
15.6212
15.7797
15.9264
16.0537
16.4101
16.7977
17.101
1.00891
1.0318
1.05927
1.08752
1.11319
1.13838
1.15846
1.18259
1.20289
1.25627
1.33427
1.63537
2.14734
4.04617
9.32912
20.9866
18.236
16.1432
15.599
15.7816
15.9234
16.0112
16.3496
16.7052
17.0129
1.00891
1.0318
1.05927
1.08752
1.11319
1.13838
1.15844
1.18261
1.2027
1.25632
1.33249
1.63522
2.13899
4.03186
9.27066
20.8455
18.0995
16.0131
15.5218
15.7568
15.8706
15.8999
16.1957
16.4887
16.7995
1.00891
1.0318
1.05927
1.08752
1.11319
1.13837
1.15845
1.18255
1.20262
1.25545
1.33231
1.62995
2.13433
4.00746
9.20115
20.686
17.9076
15.825
15.3816
15.6558
15.746
15.7232
15.9632
16.1857
16.4906
1.0089
1.0318
1.05927
1.08752
1.1132
1.13836
1.15846
1.18247
1.20245
1.25428
1.3315
1.62272
2.12496
3.96879
9.08135
20.4078
17.6591
15.5953
15.195
15.5029
15.5697
15.5043
15.671
15.8144
16.106
1.00891
1.03179
1.05928
1.08751
1.11321
1.13835
1.15844
1.18243
1.20205
1.25336
1.32829
1.61597
2.10371
3.90813
8.87866
20.0376
17.3743
15.3292
14.9559
15.2677
15.3425
15.2354
15.3165
15.3707
15.6309
1.00893
1.03177
1.05929
1.0875
1.11321
1.13834
1.15843
1.18235
1.20168
1.25162
1.32555
1.60416
2.08011
3.8264
8.61985
19.61
17.0559
15.0291
14.6726
14.9674
15.0517
14.9066
14.8889
14.8311
15.0286
1.00894
1.03176
1.05931
1.08748
1.11321
1.13834
1.15838
1.18231
1.2011
1.24998
1.32081
1.59247
2.04712
3.72982
8.30982
19.1019
16.6952
14.6948
14.3476
14.601
14.682
14.5062
14.3811
14.1796
14.2615
1.00896
1.03173
1.05933
1.08744
1.11324
1.13831
1.15837
1.18219
1.20063
1.24747
1.31763
1.57593
2.01737
3.62254
7.96393
18.493
16.283
14.3305
13.9898
14.197
14.2447
14.0295
13.7751
13.376
13.2288
1.00897
1.0317
1.05939
1.08735
1.11338
1.13811
1.15855
1.18188
1.19961
1.2456
1.31065
1.56404
1.97496
3.5193
7.61067
17.7664
15.806
13.9368
13.6061
13.7651
13.7541
13.4846
13.0605
12.3879
11.7938
1.03453
1.06947
1.09335
1.10985
1.12284
1.13227
1.14044
1.14841
1.16191
1.20335
1.26213
1.51558
1.9387
3.56488
7.92094
18.0416
16.0242
14.1348
13.5153
13.5853
13.7522
13.9637
14.3461
14.8175
15.2795
1.03447
1.06953
1.09331
1.10991
1.12278
1.13234
1.14035
1.14831
1.16092
1.20429
1.25377
1.5227
1.91979
3.56172
7.96404
18.0541
15.9441
14.0929
13.5517
13.7403
13.7403
13.8906
14.2803
14.7536
15.2074
1.0345
1.06948
1.09334
1.10987
1.12284
1.13228
1.14044
1.14835
1.16173
1.20276
1.2612
1.51192
1.93278
3.54485
7.86904
17.855
15.8544
14.0102
13.5008
13.6793
13.694
13.8286
14.1805
14.6106
15.057
1.03446
1.06954
1.0933
1.10992
1.12279
1.13233
1.14037
1.14823
1.16074
1.20345
1.25258
1.5173
1.90889
3.52423
7.84164
17.6347
15.6935
13.87
13.3673
13.4806
13.5952
13.7445
14.0465
14.4086
14.8645
1.03445
1.06954
1.0933
1.10992
1.1228
1.13232
1.14038
1.14815
1.16057
1.20264
1.25141
1.51222
1.89787
3.48747
7.72967
17.3755
15.4845
13.6899
13.2202
13.3706
13.4586
13.5927
13.8539
14.1543
14.6217
1.03447
1.06952
1.09332
1.1099
1.12281
1.1323
1.14038
1.14802
1.16024
1.20149
1.24923
1.50471
1.88052
3.43336
7.55526
17.0667
15.2495
13.4795
13.0189
13.1359
13.2713
13.3811
13.5992
13.8413
14.3076
1.03454
1.06944
1.09339
1.10979
1.12291
1.13216
1.1405
1.14797
1.16064
1.19902
1.25429
1.48632
1.87542
3.35468
7.27654
16.7373
14.9945
13.2429
12.786
12.8894
13.0326
13.1102
13.2727
13.4447
13.8871
1.03457
1.06941
1.09342
1.10975
1.12294
1.13211
1.14053
1.14781
1.16018
1.19732
1.2514
1.47435
1.84943
3.26737
7.01422
16.2525
14.6953
12.9802
12.5229
12.6112
12.7376
12.7765
12.8673
12.9412
13.31
1.03458
1.0694
1.09342
1.10974
1.12295
1.13208
1.14053
1.14763
1.15965
1.1955
1.24726
1.46339
1.81481
3.19326
6.72726
15.7537
14.3329
12.6828
12.2323
12.301
12.3893
12.379
12.3664
12.2888
12.4771
1.03458
1.06938
1.09344
1.10972
1.12298
1.13206
1.14055
1.14753
1.15895
1.19365
1.23977
1.45507
1.76987
3.13012
6.42645
15.1174
13.9047
12.3517
11.921
11.9658
11.9932
11.9272
11.7679
11.4199
11.1948
0.957601
0.911064
0.87517
0.844007
0.820419
0.797079
0.782871
0.763779
0.76391
0.77366
0.78312
0.912592
1.0448
1.94204
3.71437
8.59037
8.24086
7.39702
6.81383
6.75722
6.80709
6.94607
7.23637
7.72174
8.44003
0.957466
0.911254
0.875048
0.844162
0.820266
0.797294
0.782573
0.764451
0.764033
0.767445
0.80822
0.847685
1.17448
1.73955
3.82462
8.56048
8.22267
7.36065
6.82515
6.78811
6.81509
6.92663
7.20038
7.72227
8.43053
0.957558
0.911109
0.875143
0.844047
0.820399
0.797106
0.782862
0.763724
0.763824
0.772587
0.78176
0.908498
1.03694
1.92594
3.68805
8.51184
8.17337
7.36093
6.82224
6.78232
6.80976
6.9185
7.18552
7.71739
8.41882
0.957435
0.911278
0.875037
0.844179
0.820279
0.797274
0.782655
0.764319
0.764359
0.767811
0.809392
0.849557
1.16949
1.71527
3.75369
8.3524
8.08278
7.32301
6.79394
6.746
6.78666
6.90963
7.18293
7.69738
8.41767
0.95742
0.911297
0.875032
0.844193
0.820276
0.797264
0.782681
0.764139
0.764393
0.767786
0.809236
0.848679
1.16183
1.68422
3.70067
8.21379
7.9718
7.26403
6.75153
6.70936
6.75102
6.87936
7.15963
7.65812
8.40686
0.957454
0.911257
0.875054
0.844165
0.820277
0.797289
0.782558
0.764362
0.763539
0.766814
0.806245
0.843843
1.14922
1.66108
3.62356
8.05982
7.8512
7.20294
6.69036
6.64223
6.68848
6.8213
7.10594
7.5966
8.37434
0.957585
0.911073
0.875196
0.843957
0.820516
0.796906
0.783066
0.763069
0.762949
0.771444
0.779852
0.897678
1.01374
1.8378
3.3938
7.90563
7.70786
7.14622
6.61392
6.55539
6.60242
6.73435
7.01459
7.49599
8.30023
0.957618
0.911034
0.875235
0.843891
0.820584
0.796797
0.783163
0.762884
0.762748
0.771029
0.779071
0.892549
1.00235
1.79857
3.27581
7.66889
7.52764
7.06085
6.52413
6.454
6.49705
6.61893
6.87965
7.33032
8.14498
0.957625
0.91103
0.875226
0.843896
0.820568
0.796812
0.783149
0.762873
0.762769
0.769743
0.777302
0.885439
0.989016
1.75338
3.15501
7.40733
7.31556
6.9437
6.4204
6.33705
6.37235
6.47376
6.69246
7.06663
7.82313
0.957674
0.910962
0.875219
0.843948
0.820452
0.797039
0.782837
0.763464
0.762557
0.767397
0.774112
0.87546
0.968628
1.71306
3.02874
7.11106
7.06665
6.80474
6.31214
6.20818
6.23049
6.29685
6.43943
6.65992
7.14007
0.957484
0.911282
0.874986
0.844289
0.820034
0.797648
0.781846
0.764921
0.759526
0.762236
0.790452
0.816963
1.07076
1.44426
3.03693
6.69229
6.84607
6.63858
6.20657
6.07222
6.07633
6.09197
6.0901
6.00604
5.4589
0.957735
0.910937
0.875162
0.844121
0.820114
0.797612
0.781831
0.764808
0.759546
0.763052
0.768809
0.857764
0.939149
1.59206
2.73804
6.32213
6.60968
6.44088
6.08457
5.93777
5.90796
5.86605
5.77019
5.53449
4.9327
0.957476
0.91132
0.874909
0.844407
0.819851
0.797885
0.781478
0.765103
0.758186
0.760212
0.782989
0.803726
1.02688
1.32183
2.71148
5.84951
6.34217
6.23005
5.96946
5.81347
5.74636
5.6635
5.51644
5.25226
4.73671
0.957675
0.911055
0.874999
0.844341
0.819782
0.798066
0.781091
0.765632
0.756533
0.759831
0.764584
0.83993
0.90811
1.44212
2.37057
5.35225
6.08273
6.02679
5.86815
5.69796
5.59868
5.48195
5.30549
5.0356
4.61375
0.957616
0.91115
0.874869
0.844538
0.819501
0.798484
0.780469
0.766311
0.754809
0.757491
0.761294
0.82625
0.884328
1.34603
2.12159
4.75752
5.8796
5.86345
5.77548
5.59776
5.46894
5.32937
5.13915
4.87624
4.51444
0.95734
0.911537
0.874614
0.844878
0.819189
0.798871
0.779962
0.766763
0.753008
0.753609
0.767964
0.780214
0.926009
1.09315
2.00103
3.98945
5.72582
5.77482
5.70508
5.53912
5.36293
5.2005
5.00737
4.75677
4.43741
0.957305
0.911578
0.874549
0.844996
0.819031
0.799123
0.779579
0.767185
0.751689
0.751968
0.762581
0.771893
0.885276
1.00741
1.70531
3.10283
5.56037
5.73542
5.66461
5.4875
5.27187
5.09177
4.89968
4.66351
4.37533
0.957324
0.911554
0.874528
0.845043
0.818928
0.799298
0.779283
0.767533
0.750637
0.750616
0.758148
0.767265
0.850394
0.943551
1.50667
2.45665
5.15594
5.63741
5.57849
5.42011
5.18502
4.99513
4.80594
4.58559
4.32392
0.957264
0.911634
0.874513
0.845024
0.819003
0.799147
0.779521
0.76713
0.751036
0.749638
0.752709
0.758978
0.824844
0.895206
1.34518
2.12278
4.54083
5.43308
5.41647
5.32432
5.12016
4.91357
4.72382
4.51742
4.2812
0.957487
0.911286
0.874797
0.844621
0.819485
0.798442
0.780511
0.765518
0.752949
0.743718
0.744624
0.76069
0.774065
0.917287
1.08799
1.93023
3.71652
5.19176
5.28416
5.22767
5.07906
4.85528
4.66018
4.46263
4.24442
0.957383
0.911409
0.874795
0.844556
0.819674
0.798093
0.781056
0.764628
0.753969
0.740954
0.742642
0.744996
0.785157
0.823411
1.08039
1.51004
2.86793
4.92426
5.19734
5.15649
5.03762
4.8151
4.61564
4.42211
4.21626
0.957449
0.911305
0.874873
0.844467
0.819767
0.797983
0.78118
0.764433
0.754076
0.740198
0.740302
0.745936
0.753288
0.826909
0.900038
1.38955
2.15095
4.37879
5.06951
5.05634
4.98278
4.80911
4.58896
4.39087
4.1931
0.957382
0.911414
0.87477
0.844614
0.819587
0.798229
0.780837
0.764888
0.753339
0.740725
0.737443
0.739308
0.755915
0.77716
0.908467
1.10479
1.91048
3.61172
4.85488
4.96236
4.91747
4.79238
4.56453
4.36361
4.17492
0.957354
0.911466
0.874711
0.844712
0.819438
0.79847
0.780455
0.765478
0.752301
0.741959
0.733174
0.733783
0.745713
0.755452
0.857579
0.970238
1.55469
2.67452
4.54364
4.87362
4.84676
4.75519
4.56141
4.35273
4.16345
0.95739
0.911424
0.874706
0.844734
0.819366
0.798602
0.780236
0.765825
0.751728
0.7426
0.731182
0.731333
0.737661
0.743562
0.813618
0.876215
1.32154
1.99487
3.91027
4.7069
4.73518
4.68994
4.56359
4.35437
4.16306
0.957397
0.911412
0.874708
0.844736
0.819354
0.798629
0.780189
0.765902
0.751583
0.742733
0.730535
0.730409
0.732762
0.737545
0.783005
0.830697
1.12492
1.60142
3.07229
4.44378
4.65549
4.62931
4.54589
4.36594
4.16812
0.95734
0.911485
0.874689
0.844749
0.819391
0.798541
0.78036
0.765595
0.752082
0.741831
0.731683
0.726998
0.728345
0.732295
0.75931
0.799213
0.972942
1.28987
2.22398
4.01816
4.55125
4.54957
4.50678
4.39112
4.18376
0.957357
0.911452
0.874725
0.844695
0.81947
0.798414
0.780558
0.765269
0.752595
0.740914
0.732796
0.723284
0.723567
0.725375
0.743877
0.765206
0.887673
1.08455
1.76952
3.24472
4.33417
4.4915
4.46616
4.38521
4.21521
0.95739
0.91141
0.874752
0.844653
0.819504
0.798376
0.780587
0.765257
0.752554
0.741036
0.732331
0.723476
0.720146
0.721245
0.731724
0.742429
0.828805
0.922464
1.405
2.28382
3.9717
4.40457
4.40268
4.36388
4.25763
0.957402
0.911402
0.874744
0.844664
0.819471
0.798431
0.78049
0.765421
0.75228
0.741473
0.731547
0.724328
0.716973
0.71725
0.723584
0.729395
0.787222
0.838485
1.19232
1.70188
3.24408
4.2085
4.3413
4.32025
4.2525
0.957431
0.911361
0.874763
0.844651
0.819468
0.798449
0.780447
0.765495
0.752155
0.741662
0.731219
0.724667
0.715705
0.715686
0.718451
0.722748
0.755899
0.797378
0.998258
1.33752
2.31335
3.85261
4.25035
4.26146
4.23623
0.95736
0.911457
0.87472
0.844703
0.819446
0.798457
0.78047
0.765425
0.752287
0.741415
0.731617
0.723928
0.71662
0.712845
0.713761
0.716058
0.736931
0.760624
0.889727
1.09442
1.76253
3.11895
4.04714
4.22548
4.22096
0.957374
0.911435
0.874737
0.844678
0.81948
0.798408
0.780542
0.765317
0.75245
0.74116
0.732001
0.723271
0.717373
0.710232
0.71034
0.711492
0.723431
0.735729
0.821044
0.917394
1.37845
2.21175
3.67781
4.14128
4.22447
0.9574
0.9114
0.874753
0.844655
0.819492
0.798399
0.780544
0.76533
0.75242
0.741228
0.731872
0.723493
0.716865
0.710655
0.707229
0.707812
0.714411
0.720428
0.77565
0.82461
1.15069
1.61015
2.95529
3.94801
4.21134
0.957417
0.91138
0.87476
0.844648
0.819487
0.798412
0.780516
0.76538
0.752339
0.741359
0.731667
0.723801
0.71635
0.711197
0.705365
0.705497
0.70898
0.713375
0.743277
0.782607
0.955433
1.24872
2.0558
3.57639
4.16125
0.957398
0.911409
0.874745
0.844668
0.819472
0.798427
0.780498
0.765396
0.752317
0.74138
0.731636
0.723829
0.7163
0.711165
0.705046
0.704055
0.705138
0.708366
0.724652
0.750824
0.854345
1.03887
1.61265
2.81533
4.01102
0.957391
0.91142
0.874743
0.844671
0.819475
0.798419
0.780515
0.765364
0.752367
0.741294
0.731771
0.723607
0.71664
0.710569
0.705714
0.701671
0.702022
0.703271
0.714371
0.726549
0.800674
0.892903
1.2956
1.98984
3.67751
0.957423
0.911375
0.874767
0.844642
0.819496
0.798396
0.78054
0.765334
0.75241
0.741235
0.731858
0.72348
0.71682
0.710276
0.706018
0.700569
0.700442
0.701352
0.708006
0.717522
0.765351
0.834841
1.12436
1.63798
3.14989
0.957425
0.911376
0.874767
0.84464
0.819497
0.798393
0.78054
0.765334
0.752406
0.741245
0.731838
0.723517
0.716752
0.710388
0.705779
0.70079
0.699134
0.699795
0.704917
0.7123
0.752281
0.810281
1.06516
1.54525
3.12126
0.957418
0.911388
0.87476
0.844649
0.819487
0.798403
0.780526
0.76535
0.752382
0.741277
0.731789
0.723587
0.716647
0.710537
0.705536
0.701042
0.69828
0.69875
0.703419
0.709247
0.748501
0.795107
1.05346
1.50221
3.14237
0.957428
0.911378
0.874762
0.844648
0.819485
0.798407
0.780518
0.765361
0.752363
0.741303
0.731751
0.723643
0.716565
0.710656
0.705345
0.701264
0.697539
0.697769
0.702403
0.706127
0.748571
0.785383
1.05539
1.48876
3.15771
0.957428
0.911379
0.874761
0.844649
0.819482
0.79841
0.780514
0.765367
0.752356
0.741311
0.731741
0.723653
0.716557
0.710655
0.705374
0.701203
0.697921
0.69834
0.702657
0.70863
0.745672
0.79644
1.04448
1.5095
3.17182
0.957441
0.911362
0.874772
0.844637
0.81949
0.798403
0.780517
0.765367
0.752353
0.741318
0.731731
0.723669
0.716533
0.710692
0.7053
0.701291
0.697491
0.697723
0.702144
0.706442
0.746444
0.784645
1.04973
1.48164
3.18405
0.957445
0.911357
0.874773
0.844635
0.81949
0.798404
0.780514
0.76537
0.752348
0.741325
0.731721
0.723684
0.716511
0.710723
0.705257
0.701327
0.697399
0.697638
0.701988
0.706546
0.745657
0.785228
1.04706
1.4839
3.19152
0.957449
0.911351
0.874778
0.84463
0.819494
0.7984
0.780518
0.765369
0.752348
0.741328
0.731713
0.723695
0.716491
0.710752
0.705205
0.701393
0.697175
0.69735
0.701467
0.704975
0.746193
0.782055
1.05057
1.48887
3.20667
0.957451
0.911348
0.874779
0.844629
0.819495
0.798401
0.780518
0.765372
0.752346
0.741334
0.731707
0.723705
0.716478
0.710768
0.705187
0.701408
0.697178
0.697366
0.701526
0.705604
0.744821
0.784261
1.04599
1.49644
3.22842
0.957446
0.911353
0.874778
0.844632
0.819495
0.798403
0.780516
0.765375
0.752339
0.741343
0.731692
0.723724
0.716452
0.710799
0.705155
0.70143
0.697223
0.697457
0.701589
0.706933
0.743117
0.793771
1.04313
1.53033
3.28685
0.957417
0.911389
0.874766
0.844648
0.81949
0.798408
0.780512
0.765376
0.752333
0.741349
0.731678
0.723743
0.716421
0.710842
0.705088
0.701505
0.696908
0.697041
0.700645
0.70431
0.743391
0.782511
1.05343
1.53274
3.38337
0.957444
0.911353
0.874781
0.84463
0.819496
0.798403
0.780513
0.765378
0.75233
0.741356
0.731669
0.723759
0.716399
0.710879
0.705034
0.701579
0.696798
0.696915
0.700347
0.704256
0.742229
0.786482
1.05933
1.57597
3.533
0.957451
0.911347
0.874778
0.844628
0.819493
0.798403
0.780512
0.765381
0.75233
0.74136
0.731667
0.723767
0.716389
0.7109
0.704995
0.701645
0.696644
0.696745
0.7002
0.703882
0.743524
0.790189
1.0803
1.63761
3.69601
1.03448
1.06949
1.09342
1.10973
1.12308
1.13185
1.14103
1.14657
1.16084
1.18238
1.26284
1.36746
1.88456
2.84232
6.29382
14.3598
13.4144
12.0031
11.5986
11.6099
11.5783
11.4191
11.0574
10.2926
8.47165
1.03455
1.06941
1.09348
1.10964
1.12317
1.13172
1.14118
1.14622
1.16021
1.17819
1.25828
1.34657
1.84605
2.72827
5.91281
13.5768
12.9007
11.666
11.2945
11.2642
11.167
10.8958
10.3411
9.38589
7.53031
1.03445
1.06954
1.09335
1.10982
1.12296
1.13194
1.14083
1.14599
1.15871
1.17785
1.24901
1.33852
1.79603
2.59789
5.58376
12.6956
12.3225
11.4013
11.0257
10.9418
10.7686
10.3981
9.76181
8.83493
7.43699
1.03451
1.06949
1.09334
1.10983
1.1229
1.13199
1.14072
1.14566
1.15781
1.17207
1.24102
1.31064
1.74817
2.4495
5.13618
11.7488
11.727
11.2254
10.7956
10.6367
10.4067
9.97907
9.34957
8.5178
7.43858
1.03449
1.06952
1.09329
1.10992
1.12273
1.13232
1.14007
1.14699
1.15458
1.1788
1.20746
1.3605
1.537
2.55329
4.50225
10.6335
11.333
11.0346
10.5893
10.361
10.0892
9.65482
9.06035
8.32367
7.43594
1.03438
1.06963
1.09322
1.11
1.12274
1.13222
1.14037
1.14577
1.15517
1.16946
1.22129
1.28215
1.61522
2.11567
4.21341
9.23465
11.073
10.8705
10.4198
10.1225
9.81943
9.39533
8.8453
8.18675
7.42718
1.0343
1.06972
1.09313
1.11012
1.12261
1.13242
1.14008
1.14605
1.15397
1.16689
1.20987
1.26384
1.53593
1.94634
3.63999
7.68235
10.9462
10.7705
10.2941
9.91051
9.58224
9.17611
8.67168
8.0771
7.40934
1.03428
1.06976
1.09306
1.11025
1.1224
1.13277
1.13948
1.14708
1.15203
1.16731
1.1861
1.27499
1.37755
1.9199
2.91977
6.1088
10.762
10.6394
10.1889
9.71633
9.36966
8.98506
8.52186
7.98347
7.38794
1.03426
1.06979
1.09303
1.11028
1.12236
1.1328
1.13941
1.14695
1.1514
1.16355
1.18096
1.2478
1.33573
1.74247
2.48786
4.91695
10.1689
10.3512
10.0571
9.53726
9.18234
8.81877
8.39226
7.90214
7.3668
1.03434
1.06967
1.09314
1.11011
1.12253
1.13257
1.13962
1.14657
1.15072
1.16053
1.17594
1.22858
1.29884
1.62964
2.17896
4.24157
8.92163
9.96576
9.80295
9.4004
9.02587
8.67116
8.27537
7.829
7.34466
1.03433
1.06966
1.0932
1.11001
1.12271
1.13227
1.14007
1.14577
1.15182
1.15763
1.17533
1.19836
1.30616
1.43397
2.11255
3.3634
7.28454
9.653
9.58337
9.30592
8.89865
8.54531
8.17483
7.76438
7.32157
1.03438
1.0696
1.09326
1.10992
1.12281
1.13213
1.14023
1.14552
1.15179
1.15651
1.17006
1.18954
1.26717
1.3719
1.84993
2.74399
5.53554
9.31722
9.42869
9.23555
8.81818
8.45002
8.09128
7.70876
7.30051
1.03438
1.0696
1.09323
1.10997
1.12273
1.13226
1.14004
1.14574
1.15113
1.15581
1.16313
1.18721
1.21485
1.36217
1.53836
2.42963
4.10701
8.52976
9.25097
9.11407
8.76689
8.37323
8.01859
7.65722
7.27992
1.03434
1.06966
1.09317
1.11006
1.12264
1.13236
1.13993
1.14578
1.15111
1.15466
1.16271
1.17328
1.21778
1.26486
1.54052
1.9241
3.53026
6.97737
8.93906
8.90901
8.71061
8.30815
7.95307
7.60986
7.25822
1.03435
1.06966
1.09316
1.11008
1.1226
1.13242
1.13985
1.14589
1.15088
1.15475
1.16057
1.16986
1.20079
1.23949
1.4329
1.69429
2.82454
5.22215
8.46825
8.74286
8.61136
8.28335
7.91071
7.57737
7.24381
1.03432
1.06969
1.09315
1.1101
1.12258
1.13245
1.13981
1.14596
1.15071
1.15493
1.15928
1.1666
1.18778
1.21949
1.34439
1.51749
2.29295
3.73681
7.49596
8.53883
8.47445
8.25492
7.88616
7.55524
7.23952
1.0343
1.0697
1.09315
1.11009
1.1226
1.13242
1.13984
1.14591
1.15073
1.15487
1.15891
1.16428
1.17932
1.20241
1.28982
1.40983
1.95696
2.94358
5.9429
8.20799
8.31022
8.19092
7.89337
7.55583
7.24118
1.03432
1.06968
1.09317
1.11006
1.12263
1.13239
1.13988
1.14588
1.1507
1.15489
1.15817
1.16296
1.17059
1.19516
1.22785
1.37292
1.58234
2.40285
4.05609
7.55476
8.18827
8.1185
7.89923
7.56467
7.25081
1.03434
1.06966
1.09319
1.11004
1.12266
1.13234
1.13993
1.1458
1.15084
1.15461
1.15855
1.16144
1.16877
1.18036
1.21955
1.2752
1.50913
1.89399
3.2452
6.13169
7.90521
7.97947
7.87279
7.59964
7.27602
1.03436
1.06965
1.09319
1.11003
1.12265
1.13236
1.13991
1.14582
1.1508
1.15463
1.15841
1.16084
1.16609
1.17447
1.20081
1.23968
1.3932
1.63639
2.52989
4.40798
7.3074
7.85108
7.79977
7.62045
7.31345
1.03436
1.06964
1.09318
1.11004
1.12264
1.13238
1.13987
1.14588
1.15072
1.15474
1.15819
1.16097
1.16452
1.17044
1.18795
1.21285
1.31745
1.44562
2.07453
3.14615
6.09409
7.58166
7.67151
7.59595
7.39186
1.03432
1.06968
1.09316
1.11007
1.12262
1.1324
1.13986
1.14589
1.1507
1.15476
1.15812
1.16102
1.16394
1.16808
1.17954
1.19734
1.26172
1.35659
1.73729
2.43797
4.42614
7.01205
7.55884
7.54088
7.45388
1.03433
1.06968
1.09317
1.11006
1.12264
1.13238
1.13989
1.14585
1.15076
1.15468
1.15821
1.16087
1.16384
1.16666
1.17402
1.18619
1.22545
1.29069
1.51398
1.94056
3.19369
5.83661
7.29801
7.5136
7.50936
1.03434
1.06966
1.09318
1.11005
1.12264
1.13237
1.1399
1.14585
1.15075
1.1547
1.15818
1.16087
1.16364
1.16567
1.17063
1.17858
1.20459
1.24104
1.39596
1.62181
2.49105
4.22515
6.72285
7.42757
7.58687
1.03436
1.06965
1.09318
1.11004
1.12264
1.13238
1.13988
1.14587
1.15072
1.15475
1.15811
1.16094
1.16347
1.16543
1.16867
1.17409
1.19039
1.21356
1.31112
1.43049
2.00374
2.95732
5.55693
7.19076
7.70515
1.03435
1.06966
1.09318
1.11005
1.12263
1.13239
1.13987
1.14589
1.15069
1.15478
1.15806
1.16102
1.1633
1.16566
1.16748
1.17207
1.17921
1.2036
1.23561
1.38009
1.58728
2.36353
3.89481
6.62228
7.83261
1.03434
1.06967
1.09318
1.11006
1.12263
1.13239
1.13987
1.14588
1.15071
1.15475
1.15809
1.16096
1.16337
1.16548
1.16748
1.16993
1.17651
1.1869
1.22265
1.27805
1.48125
1.8585
2.97772
5.40686
7.82595
1.03436
1.06965
1.09319
1.11004
1.12264
1.13237
1.13989
1.14586
1.15073
1.15472
1.15813
1.16092
1.1634
1.16543
1.16726
1.16936
1.17278
1.18307
1.19821
1.25579
1.34106
1.67013
2.28092
4.03186
7.63494
1.03437
1.06964
1.09319
1.11003
1.12265
1.13236
1.13989
1.14586
1.15073
1.15472
1.15813
1.16092
1.16339
1.16542
1.16724
1.16905
1.17175
1.17938
1.19093
1.2353
1.29148
1.56631
1.98498
3.58962
7.17197
1.03436
1.06965
1.09319
1.11005
1.12264
1.13237
1.13988
1.14587
1.15072
1.15473
1.15811
1.16093
1.16341
1.16536
1.16735
1.16858
1.17166
1.17643
1.19169
1.21489
1.30564
1.43917
2.02248
3.1606
6.94979
1.03436
1.06965
1.09318
1.11005
1.12263
1.13238
1.13987
1.14588
1.15071
1.15475
1.15809
1.16095
1.16337
1.16542
1.16726
1.16864
1.1713
1.17558
1.18965
1.20959
1.2971
1.41519
1.97731
3.06195
6.82397
1.03437
1.06964
1.09319
1.11004
1.12264
1.13238
1.13988
1.14587
1.15071
1.15475
1.15809
1.16096
1.16336
1.16545
1.1672
1.16893
1.17072
1.17658
1.18297
1.21906
1.25303
1.48053
1.78954
3.17263
6.64208
1.03437
1.06964
1.09319
1.11004
1.12264
1.13238
1.13988
1.14588
1.15071
1.15475
1.15809
1.16095
1.16337
1.1654
1.16728
1.16861
1.17116
1.17534
1.18858
1.20843
1.28962
1.40385
1.93566
2.97287
6.67845
1.03437
1.06964
1.09319
1.11004
1.12264
1.13238
1.13988
1.14588
1.1507
1.15475
1.15809
1.16096
1.16337
1.1654
1.16728
1.16858
1.17112
1.17536
1.18852
1.20879
1.28832
1.40677
1.92742
2.95999
6.67795
1.03437
1.06965
1.09319
1.11004
1.12264
1.13238
1.13988
1.14588
1.1507
1.15476
1.15808
1.16097
1.16335
1.16543
1.16724
1.16862
1.17107
1.17507
1.18801
1.20747
1.28709
1.40284
1.92705
2.96838
6.70692
1.03437
1.06964
1.09319
1.11004
1.12264
1.13238
1.13988
1.14588
1.1507
1.15476
1.15808
1.16098
1.16334
1.16544
1.16723
1.16863
1.17102
1.17492
1.18754
1.20668
1.28487
1.4007
1.92059
2.96876
6.7554
1.03438
1.06963
1.0932
1.11003
1.12264
1.13237
1.13988
1.14588
1.1507
1.15477
1.15806
1.161
1.1633
1.16551
1.16711
1.16896
1.17038
1.17573
1.18087
1.21441
1.24584
1.46386
1.78034
3.13158
6.81214
1.03436
1.06966
1.09319
1.11005
1.12264
1.13238
1.13987
1.14589
1.15069
1.15478
1.15805
1.16101
1.16329
1.16551
1.16714
1.16875
1.17078
1.17376
1.18593
1.19923
1.283
1.37987
1.92951
3.01025
7.00399
1.03438
1.06964
1.0932
1.11004
1.12264
1.13238
1.13987
1.14589
1.15068
1.15478
1.15804
1.16103
1.16326
1.16557
1.16704
1.16903
1.17035
1.17512
1.18013
1.21214
1.24202
1.46085
1.77894
3.20585
7.16976
1.03439
1.06962
1.0932
1.11003
1.12264
1.13237
1.13987
1.14588
1.15069
1.15478
1.15804
1.16103
1.16326
1.16557
1.16705
1.16902
1.17028
1.1749
1.17959
1.21082
1.23948
1.46025
1.77824
3.2564
7.41204
1.00892
1.03172
1.05946
1.08717
1.11378
1.13737
1.15982
1.17933
1.20237
1.23514
1.33442
1.47665
2.08075
3.25236
7.38911
16.9031
15.2514
13.527
13.2128
13.3143
13.2473
12.8843
12.2405
11.1464
8.85785
1.00891
1.03172
1.05947
1.08716
1.11381
1.13733
1.15984
1.17916
1.20189
1.23294
1.3269
1.46083
2.02933
3.12437
6.97765
15.9987
14.6751
13.1493
12.8368
12.8724
12.7408
12.2665
11.4088
10.1024
7.81341
1.00892
1.03173
1.05938
1.08735
1.11343
1.13801
1.15856
1.1813
1.19696
1.2369
1.29075
1.51004
1.81858
3.16979
6.34021
15.0285
14.0922
12.8254
12.5051
12.4638
12.2528
11.6839
10.7438
9.49875
7.80471
1.0089
1.03177
1.05934
1.08738
1.1134
1.13797
1.15863
1.18083
1.19664
1.23273
1.28326
1.48356
1.75392
3.01736
5.8163
13.9579
13.4811
12.5714
12.2218
12.0952
11.803
11.1817
10.2867
9.18819
7.84776
1.00894
1.03168
1.05946
1.08716
1.11375
1.13733
1.15971
1.17867
1.20021
1.22201
1.29962
1.3833
1.84342
2.57761
5.47755
12.6946
12.9019
12.4385
11.9676
11.7481
11.4086
10.7977
9.98347
9.0269
7.93812
1.00888
1.03173
1.05947
1.08709
1.11394
1.13701
1.16016
1.17802
1.20038
1.22294
1.28862
1.37708
1.76868
2.42292
4.95619
11.2063
12.6298
12.2719
11.7279
11.4294
11.0723
10.5037
9.76851
8.92362
7.9951
1.00883
1.03179
1.05943
1.08714
1.11391
1.13704
1.16012
1.17793
1.1998
1.21994
1.27648
1.35403
1.68299
2.2291
4.30637
9.50283
12.5546
12.1787
11.5173
11.1474
10.7819
10.2605
9.59833
8.84288
8.02758
1.00878
1.03185
1.05935
1.08724
1.1138
1.13718
1.15995
1.17793
1.19918
1.21598
1.26395
1.32442
1.59439
2.01096
3.61999
7.61097
12.5034
12.0911
11.3369
10.8958
10.527
10.0494
9.45306
8.77257
8.04542
1.00874
1.03192
1.05927
1.08736
1.11364
1.13738
1.15968
1.17809
1.19837
1.21312
1.25156
1.30321
1.51305
1.821
3.04353
5.86649
12.1758
11.8742
11.1969
10.6777
10.2986
9.86057
9.32286
8.71042
8.05552
1.00877
1.03188
1.05926
1.08741
1.11347
1.13773
1.159
1.17921
1.19575
1.2154
1.23847
1.30743
1.40325
1.81002
2.52931
5.10124
11.019
11.377
11.0314
10.4861
10.0935
9.68951
9.20476
8.65126
8.05866
1.00878
1.03188
1.05927
1.08739
1.11349
1.1377
1.15901
1.17916
1.19546
1.21448
1.23197
1.29089
1.35513
1.6933
2.20633
4.23665
9.06689
11.0353
10.8159
10.3354
9.92023
9.5347
9.09375
8.59296
8.05719
1.00881
1.03182
1.05934
1.08729
1.11361
1.13751
1.15929
1.17865
1.19611
1.21196
1.23118
1.26399
1.36171
1.51073
2.10957
3.29542
7.02095
10.8496
10.6872
10.2553
9.79417
9.40325
8.99372
8.53975
8.05162
1.00883
1.03181
1.05934
1.08729
1.11361
1.13752
1.15924
1.17868
1.19583
1.21156
1.22782
1.25298
1.32475
1.4348
1.85409
2.67454
5.19507
10.3
10.471
10.1986
9.70624
9.29348
8.90559
8.48577
8.04014
1.00874
1.03195
1.05922
1.08743
1.11348
1.13766
1.15907
1.1789
1.19533
1.21205
1.22398
1.25045
1.2821
1.4224