/*--------------------------------*- C++ -*----------------------------------*\
  =========                 |
  \\      /  F ield         | OpenFOAM: The Open Source CFD Toolbox
   \\    /   O peration     | Website:  https://openfoam.org
    \\  /    A nd           | Version:  6
     \\/     M anipulation  |
\*---------------------------------------------------------------------------*/
FoamFile
{
    version     2.0;
    format      ascii;
    class       surfaceScalarField;
    location    "6";
    object      phi;
}
// * * * * * * * * * * * * * * * * * * * * * * * * * * * * * * * * * * * * * //

dimensions      [1 0 -1 0 0 0 0];

internalField   nonuniform List<scalar> 
72625
(
0.00162356
1.0212e-10
5.87466e-05
0.00157665
7.21835e-10
4.69108e-05
0.00153805
3.78024e-10
3.85932e-05
0.00150612
1.23298e-09
3.1929e-05
0.00147905
5.6379e-11
2.70741e-05
0.00145655
1.32594e-09
2.24963e-05
0.00143681
-4.25251e-10
1.97424e-05
0.00142084
3.6173e-09
1.59643e-05
0.00140577
9.88572e-09
1.50546e-05
0.00139155
3.55785e-08
1.4172e-05
0.00138332
7.23996e-08
8.16432e-06
0.00136601
2.35995e-07
1.69954e-05
0.00138598
5.63498e-07
-2.05074e-05
0.00133753
2.01729e-06
4.62607e-05
0.00159642
6.65321e-06
-0.00026586
0.00181058
2.62172e-05
-0.000241079
0.00169397
3.43264e-05
8.18249e-05
0.00148988
4.65492e-05
0.000157464
0.00138064
6.13253e-05
4.79078e-05
0.0013619
7.4838e-05
-5.61218e-05
0.00127983
7.05888e-05
1.1462e-05
0.00117763
5.34774e-05
4.86936e-05
0.00102912
3.17291e-05
0.00011679
0.000684874
3.81156e-05
0.000306158
2.70783e-05
0.000657965
0.00162356
1.23892e-09
5.8746e-05
0.00157665
2.31676e-09
4.69111e-05
0.00153805
5.57843e-10
3.85929e-05
0.00150612
2.05711e-09
3.19292e-05
0.00147905
-1.55396e-09
2.70744e-05
0.00145655
2.68963e-09
2.24956e-05
0.00143681
-3.54562e-09
1.97439e-05
0.00142084
1.05026e-08
1.59598e-05
0.00140577
2.54947e-08
1.5057e-05
0.00139156
8.64902e-08
1.41433e-05
0.00138322
2.04002e-07
8.21492e-06
0.001366
5.57475e-07
1.68224e-05
0.00138563
1.30166e-06
-2.03519e-05
0.00133807
3.62999e-06
4.57778e-05
0.00159206
1.19306e-05
-0.00025956
0.00181766
4.52309e-05
-0.000245311
0.00170114
7.91122e-05
7.12875e-05
0.00149486
0.000107528
0.0001452
0.00140687
0.000110717
3.85379e-05
0.00136235
0.000116888
2.39871e-06
0.00132023
0.000123204
-1.05753e-05
0.00124866
0.000118068
6.88525e-06
0.00108642
0.000102595
9.1296e-05
0.000736771
0.000108951
0.000278752
0.000130361
0.00063357
0.00162356
7.34392e-09
5.87444e-05
0.00157664
1.28212e-09
4.69119e-05
0.00153805
1.83873e-09
3.85924e-05
0.00150613
-1.92535e-09
3.19294e-05
0.00147905
-1.54351e-09
2.70754e-05
0.00145656
-5.71651e-10
2.24941e-05
0.00143682
-6.29058e-09
1.97472e-05
0.00142085
2.47858e-08
1.59535e-05
0.0014058
1.971e-08
1.50507e-05
0.00139148
2.62263e-07
1.4133e-05
0.00138284
6.75518e-07
8.16271e-06
0.00136592
5.37771e-07
1.68733e-05
0.00138336
4.41877e-06
-2.05415e-05
0.00133752
3.4863e-06
4.58167e-05
0.00157957
2.92471e-05
-0.000259664
0.00177616
0.000127968
-0.000280024
0.00163085
0.000150332
7.3598e-05
0.00145205
0.000150579
0.000135583
0.00137408
0.00015381
3.47966e-05
0.00131876
0.000160286
1.18475e-05
0.00128456
0.000174565
-1.72346e-05
0.00121774
0.000190587
-5.77425e-06
0.00104291
0.000195854
8.14855e-05
0.000686933
0.000198201
0.000266675
0.000220985
0.000596402
0.00162356
2.39413e-08
5.87344e-05
0.00157666
-2.27622e-08
4.69223e-05
0.00153806
1.79672e-08
3.85847e-05
0.00150614
-2.16946e-08
3.19379e-05
0.00147905
1.98949e-08
2.70685e-05
0.00145658
-3.3255e-08
2.24999e-05
0.00143679
4.30684e-08
1.97436e-05
0.00142098
-1.06125e-07
1.5942e-05
0.00140595
-4.80983e-09
1.50494e-05
0.0013911
1.20885e-06
1.39061e-05
0.00138823
-4.46489e-06
8.00849e-06
0.00135722
1.52745e-05
1.61961e-05
0.00141319
-3.02189e-05
-2.13403e-05
0.00131809
5.47393e-05
4.37074e-05
0.00159454
8.16845e-06
-0.000255663
0.00179514
0.000184644
-0.000257993
0.00167223
0.000216703
5.6035e-05
0.00147203
0.00022066
0.000129934
0.00138002
0.000219319
2.64195e-05
0.0013304
0.000240749
-3.09273e-05
0.00126568
0.000251009
-1.17986e-05
0.00119071
0.000264939
5.33826e-07
0.00102297
0.000284385
7.91384e-05
0.000660276
0.000299698
0.000261153
0.000314469
0.000566923
0.00162368
-1.45684e-08
5.86787e-05
0.00157665
2.42524e-08
4.69843e-05
0.00153815
-1.48697e-08
3.8532e-05
0.00150611
1.97848e-08
3.19937e-05
0.00147914
-2.25992e-08
2.70121e-05
0.00145651
3.53699e-08
2.25665e-05
0.00143694
-5.40034e-08
1.96611e-05
0.00142051
1.60047e-07
1.61245e-05
0.00140578
6.84778e-08
1.50898e-05
0.00139495
-6.60321e-07
1.24625e-05
0.00136909
5.78483e-06
1.55812e-05
0.00140131
-1.22443e-05
-4.49405e-06
0.00130259
4.28017e-05
2.50603e-05
0.00145799
-3.83908e-05
-6.22568e-05
0.00148079
8.67071e-05
-0.000101311
0.00176531
0.000185394
-0.000286093
0.00167006
0.000261673
4.97313e-05
0.00149924
0.000263474
0.000127814
0.00141527
0.000275631
2.75516e-05
0.00136217
0.000300874
-7.14013e-06
0.00129905
0.000326087
-1.20628e-05
0.00121108
0.000348965
3.82372e-06
0.00103676
0.000377732
8.0876e-05
0.000669362
0.000410704
0.000256287
0.00043415
0.000549795
0.00162356
1.24543e-08
5.87213e-05
0.00157667
-2.06574e-08
4.69361e-05
0.00153807
1.46375e-08
3.8574e-05
0.00150616
-2.0003e-08
3.19496e-05
0.00147905
2.77225e-08
2.7059e-05
0.00145662
-4.47792e-08
2.25077e-05
0.00143674
8.36102e-08
1.97397e-05
0.00142115
-1.70818e-07
1.59242e-05
0.00140596
1.85676e-07
1.50626e-05
0.00139057
1.10613e-06
1.36312e-05
0.0013929
-4.44905e-06
7.87821e-06
0.00134987
1.53276e-05
1.5405e-05
0.00144473
-3.00984e-05
-2.19457e-05
0.00130337
6.19447e-05
4.08409e-05
0.00161203
1.50457e-05
-0.000237268
0.00180069
0.000261326
-0.000265278
0.00171807
0.000317748
2.60221e-05
0.00152048
0.000331594
0.000129285
0.00143427
0.000334706
2.70335e-05
0.00137653
0.000364502
-5.98795e-06
0.00131937
0.000398838
-1.56915e-05
0.00123231
0.000432316
3.5861e-06
0.00105299
0.000476875
8.00432e-05
0.000682412
0.000532633
0.000248551
0.000584924
0.000531769
0.00162366
-1.695e-08
5.86857e-05
0.00157664
1.82053e-08
4.69768e-05
0.00153814
-1.90292e-08
3.85373e-05
0.0015061
2.73396e-08
3.19901e-05
0.00147916
-3.52843e-08
2.7011e-05
0.00145647
6.44438e-08
2.25756e-05
0.00143701
-9.05676e-08
1.96331e-05
0.00142045
2.39413e-07
1.61773e-05
0.00140537
9.30858e-09
1.49386e-05
0.00139624
-7.48467e-07
1.24522e-05
0.00136984
5.04533e-06
1.52976e-05
0.00139956
-1.01363e-05
-3.90848e-06
0.00130468
4.07378e-05
2.4455e-05
0.00145892
-3.14325e-05
-6.14843e-05
0.00147598
8.42788e-05
-8.64741e-05
0.00176693
0.000263321
-0.00029351
0.00171115
0.000363283
9.75383e-06
0.00154557
0.000373718
0.000123323
0.00146208
0.000389647
2.84888e-05
0.00139959
0.000426238
7.03644e-07
0.0013454
0.000469906
-1.69602e-05
0.00125729
0.000515812
4.50264e-06
0.00107629
0.000579929
7.78354e-05
0.000702059
0.00067002
0.000236644
0.000779334
0.000507741
0.00162358
-6.84451e-09
5.87211e-05
0.00157666
-1.90926e-09
4.69357e-05
0.00153807
-1.75665e-09
3.85768e-05
0.00150615
4.90771e-09
3.19425e-05
0.00147904
-2.82283e-09
2.70703e-05
0.00145661
1.00408e-08
2.24884e-05
0.00143676
-2.69566e-09
1.9765e-05
0.00142111
1.56213e-08
1.58781e-05
0.00140571
6.59885e-08
1.50375e-05
0.00139138
1.25061e-07
1.37419e-05
0.00138782
2.13588e-07
8.26115e-06
0.0013597
2.49012e-06
1.55625e-05
0.00141737
2.91327e-06
-1.98112e-05
0.0013222
2.30128e-05
4.05145e-05
0.00156209
5.97179e-05
-0.000215589
0.00177841
0.000320593
-0.000274258
0.00174635
0.000416593
-2.18745e-05
0.00155941
0.000435185
0.000125315
0.00147318
0.000446169
2.96675e-05
0.00141411
0.000486746
-1.49182e-06
0.00136403
0.000537796
-1.78317e-05
0.00127797
0.000595976
5.7977e-06
0.00110048
0.000683462
7.38979e-05
0.000733196
0.000820294
0.000216879
0.00104026
0.000472331
0.00162359
-1.34987e-08
5.87262e-05
0.00157664
1.58673e-08
4.69297e-05
0.00153806
-6.43595e-09
3.8581e-05
0.00150613
-1.69859e-09
3.19366e-05
0.00147905
9.25923e-09
2.70774e-05
0.0014566
-2.41214e-08
2.24795e-05
0.00143679
3.3398e-08
1.97779e-05
0.00142099
-6.75581e-08
1.58716e-05
0.00140621
-3.64779e-08
1.50658e-05
0.00139175
5.78893e-07
1.37991e-05
0.001382
1.21727e-06
8.68465e-06
0.00136676
2.41262e-06
1.52594e-05
0.00137786
8.58296e-06
-1.67765e-05
0.00134792
1.52389e-05
3.76428e-05
0.00152469
7.34575e-05
-0.000190706
0.00176126
0.000348283
-0.000264972
0.00176069
0.000472509
-5.5926e-05
0.00157776
0.000498408
0.000119514
0.00148911
0.000504213
3.05049e-05
0.00143491
0.000545287
-4.43606e-06
0.00138822
0.000600298
-1.59065e-05
0.00130726
0.000669812
7.01415e-06
0.00113686
0.00078454
6.92045e-05
0.000790978
0.000979744
0.000186319
0.00142336
0.000407903
0.00162348
5.87737e-05
3.88976e-08
0.00157667
4.68821e-05
-5.5893e-08
0.00153801
3.8614e-05
4.09044e-08
0.00150615
3.19123e-05
-5.56488e-08
0.00147901
2.7085e-05
6.14003e-08
0.00145659
2.24907e-05
-9.04517e-08
0.00143675
1.97417e-05
1.38978e-07
0.00142076
1.59643e-05
-1.98109e-07
0.00140585
1.51155e-05
4.81172e-07
0.00139155
1.34722e-05
1.24158e-06
0.0013853
8.75238e-06
-2.71497e-06
0.00136006
1.41222e-05
1.42912e-05
0.00140707
-1.65838e-05
-2.12982e-05
0.00131601
3.62959e-05
6.95153e-05
0.00152752
-0.00018098
4.25593e-05
0.00171712
-0.000251394
0.000409293
0.00176508
-7.83331e-05
0.000502499
0.00159487
0.000111992
0.000556359
0.00150973
3.29817e-05
0.000556251
0.00146422
-6.27981e-06
0.000596982
0.00142195
-1.09983e-05
0.000653481
0.00135303
6.03986e-06
0.000732594
0.00120045
5.7746e-05
0.000879233
0.000887887
0.000153657
0.00113856
0.000297059
0.0020141
0.00172978
-3.11308e-10
7.16817e-06
0.00176404
9.02413e-10
1.26514e-05
0.00178823
1.90323e-10
1.44068e-05
0.00180604
1.61297e-09
1.41162e-05
0.00181989
2.35307e-10
1.32203e-05
0.00183055
1.81285e-09
1.18411e-05
0.0018394
3.98991e-10
1.08893e-05
0.00184586
2.80503e-09
9.50227e-06
0.00185193
1.26504e-08
8.9744e-06
0.00185742
3.70977e-08
8.6185e-06
0.00185796
1.22997e-07
7.5148e-06
0.00186773
2.75181e-07
6.86314e-06
0.00184338
9.06153e-07
2.89139e-06
0.00189311
2.85308e-06
-6.46689e-06
0.00176831
1.37792e-05
-0.000155741
0.00155134
9.95176e-05
-0.000125732
0.00137033
0.000121306
0.00014077
0.00128201
0.00018068
6.47464e-05
0.00100804
0.000254635
6.6944e-05
0.00118191
0.000430904
-0.000661216
0.000843652
0.000305177
4.42024e-05
0.00052943
0.000225384
0.000137171
0.000196167
0.000214647
0.000235188
-0.000102482
0.000278556
0.000326032
0.00016894
0.000386381
0.00172978
9.11733e-10
7.16673e-06
0.00176404
1.47392e-09
1.26533e-05
0.00178823
1.26375e-09
1.44052e-05
0.00180604
1.99236e-09
1.41179e-05
0.00181989
6.52436e-10
1.3218e-05
0.00183054
2.1191e-09
1.18441e-05
0.0018394
7.43652e-10
1.08842e-05
0.00184585
8.70903e-09
9.50371e-06
0.00185197
3.1072e-08
8.92406e-06
0.00185731
1.136e-07
8.71095e-06
0.00185839
2.28189e-07
7.02518e-06
0.00186703
8.6098e-07
7.51884e-06
0.00184423
1.96225e-06
1.3443e-06
0.00189178
7.56686e-06
-6.65265e-06
0.00176253
3.14001e-05
-0.000148813
0.00158138
9.63405e-05
-6.319e-05
0.00136905
0.000282856
0.000121166
0.00131277
0.000341493
4.01931e-05
0.00120669
0.000384219
1.47813e-05
0.00120844
0.000437765
-6.42997e-06
0.00102861
0.000472848
1.32436e-06
0.000648983
0.000495535
0.000116103
0.000248481
0.000514472
0.000191768
-2.03169e-05
0.000549501
0.000276362
0.000435862
0.000346094
0.00172978
3.9225e-09
7.16762e-06
0.00176404
1.82545e-09
1.26513e-05
0.00178822
2.72284e-09
1.44065e-05
0.00180604
1.1364e-09
1.41158e-05
0.00181989
4.49598e-10
1.32206e-05
0.00183055
2.00429e-09
1.18404e-05
0.0018394
-2.70714e-10
1.08901e-05
0.00184585
1.80668e-08
9.49859e-06
0.0018519
6.4394e-08
8.96869e-06
0.0018573
2.35968e-07
8.59426e-06
0.00185774
4.33756e-07
7.51269e-06
0.00186699
1.73844e-06
6.67544e-06
0.00184238
3.2239e-06
2.75309e-06
0.00189062
1.27865e-05
-7.77865e-06
0.00176244
5.04485e-05
-0.000151434
0.00149292
0.000429556
-0.000345575
0.00132342
0.00042139
0.000103751
0.00128616
0.000483768
3.01296e-05
0.00120145
0.000509835
-6.36284e-06
0.00119243
0.000521354
-6.29457e-05
0.00100976
0.000652654
-1.45953e-05
0.000638809
0.000743946
0.000116517
0.00025745
0.000794342
0.000182836
-6.27907e-06
0.000822112
0.000257545
0.00069544
0.0003303
0.00172977
1.01747e-08
7.16455e-06
0.00176404
-5.66833e-09
1.26547e-05
0.00178822
8.67268e-09
1.44038e-05
0.00180605
-6.95203e-09
1.41193e-05
0.00181989
8.44647e-09
1.32178e-05
0.00183055
-7.85779e-09
1.18433e-05
0.0018394
1.52812e-08
1.08861e-05
0.00184582
3.73125e-08
9.49605e-06
0.00185177
2.51422e-07
8.91601e-06
0.00185711
8.3015e-08
8.69639e-06
0.00185628
2.18445e-06
7.09558e-06
0.00186638
4.84343e-07
7.27756e-06
0.00183775
8.96556e-06
1.49373e-06
0.00188418
1.80625e-05
-8.07838e-06
0.00175551
6.25226e-05
-0.000139992
0.00153906
0.000489429
-0.000103813
0.00133005
0.000591216
9.46397e-05
0.00126573
0.000646607
3.11988e-05
0.00107458
0.000718743
8.46998e-06
0.00112353
0.000931775
-0.000490522
0.000922031
0.000868263
-2.61556e-05
0.000601749
0.000953611
0.000110903
0.000252059
0.00104814
0.000174821
4.51107e-06
0.00109005
0.000240517
0.000947571
0.000319062
0.00172974
-5.3602e-09
7.1607e-06
0.00176405
7.96151e-09
1.26585e-05
0.0017882
-5.49003e-09
1.43998e-05
0.00180605
8.8225e-09
1.41245e-05
0.00181987
-9.02565e-09
1.32134e-05
0.00183057
1.32201e-08
1.1845e-05
0.00183938
-1.49606e-08
1.08838e-05
0.00184607
1.23001e-08
9.45452e-06
0.00185273
-7.43897e-08
8.75402e-06
0.00185559
5.5894e-07
9.12259e-06
0.00186957
-8.64049e-07
4.66105e-06
0.00184924
4.43622e-06
1.17841e-05
0.00188948
2.317e-06
-8.58505e-06
0.00181331
2.58635e-05
6.04289e-06
0.0017648
0.000137
-0.000128198
0.00150229
0.000586721
-0.000123463
0.00132428
0.000730229
8.80427e-05
0.00127272
0.000794846
3.08601e-05
0.00113839
0.000883306
-2.79919e-06
0.00113248
0.00100654
-7.61131e-05
0.000934941
0.00109205
-3.85108e-05
0.000610059
0.00118828
9.37695e-05
0.000274215
0.00130465
0.000159996
3.43213e-05
0.00136136
0.000224635
0.00122464
0.000306797
0.00172976
4.03159e-09
7.16213e-06
0.00176405
-7.06273e-09
1.26569e-05
0.00178821
4.85385e-09
1.44019e-05
0.00180606
-7.8239e-09
1.41211e-05
0.00181988
9.6184e-09
1.32178e-05
0.00183057
-9.62617e-09
1.18416e-05
0.00183938
2.22596e-08
1.08895e-05
0.00184579
4.27452e-08
9.47973e-06
0.00185162
2.63513e-07
8.89627e-06
0.00185694
1.70195e-07
8.68562e-06
0.0018543
2.50561e-06
7.15393e-06
0.00186596
1.06288e-06
7.0381e-06
0.00183197
1.27179e-05
1.59915e-06
0.00187817
2.99366e-05
-9.46367e-06
0.00176763
0.000127501
-0.000118178
0.00152837
0.000762292
-0.000203308
0.00132799
0.000872583
8.32815e-05
0.00128884
0.000936825
2.60629e-05
0.00116491
0.00104428
-1.01909e-05
0.00113115
0.00120792
-0.00017382
0.000946181
0.0013081
-4.69869e-05
0.00063942
0.00142172
7.659e-05
0.000316844
0.00156072
0.000146293
7.74716e-05
0.00163877
0.00021024
0.00154147
0.000292133
0.00172975
-9.52705e-09
7.1614e-06
0.00176405
6.41087e-09
1.26574e-05
0.0017882
-1.03458e-08
1.44009e-05
0.00180605
1.18055e-08
1.41218e-05
0.00181987
-1.39848e-08
1.32182e-05
0.00183058
2.09824e-08
1.18358e-05
0.00183935
-1.79592e-08
1.08989e-05
0.00184613
1.815e-08
9.421e-06
0.00185255
-3.85213e-08
8.81361e-06
0.00185551
6.32379e-07
9.01856e-06
0.00186877
-6.01707e-07
5.12747e-06
0.00184936
5.42374e-06
1.10848e-05
0.0018886
5.31637e-06
-7.42586e-06
0.00181112
3.97355e-05
6.18774e-06
0.00178292
0.000181833
-0.000113568
0.00153588
0.000828705
-0.000114608
0.00133953
0.000999031
7.89147e-05
0.00130903
0.00106533
2.49799e-05
0.00121028
0.00118673
-1.53686e-05
0.00114407
0.00136344
-8.86958e-05
0.000975764
0.0015077
-4.84443e-05
0.00069448
0.00164688
6.03588e-05
0.000387917
0.00181215
0.000132671
0.000138263
0.00192782
0.000196982
0.00191257
0.0002746
0.00172976
-5.93516e-09
7.16447e-06
0.00176405
1.0838e-09
1.26534e-05
0.00178821
-3.8952e-09
1.44061e-05
0.00180605
3.63547e-09
1.4114e-05
0.00181988
-2.29704e-09
1.32278e-05
0.00183055
5.59046e-09
1.18283e-05
0.00183939
3.27902e-09
1.09057e-05
0.0018458
3.05596e-08
9.45949e-06
0.00185175
1.20264e-07
8.92591e-06
0.0018571
4.40718e-07
8.57733e-06
0.00185579
1.33906e-06
7.61915e-06
0.00186698
3.47564e-06
6.25654e-06
0.00183697
1.25583e-05
2.89974e-06
0.00188998
3.78718e-05
-1.06429e-05
0.00178012
0.000179587
-0.000104342
0.00158935
0.000977737
-0.000234323
0.00135862
0.00113136
7.59165e-05
0.00133805
0.00118703
2.37582e-05
0.00125301
0.00131719
-1.59462e-05
0.00117728
0.00150897
-7.147e-05
0.00102028
0.00168877
-4.20827e-05
0.000771961
0.00185553
4.52164e-05
0.000484883
0.00205523
0.000117592
0.000219851
0.0022276
0.000181797
0.00235627
0.000248149
0.00172976
-2.99071e-09
7.16519e-06
0.00176403
6.24494e-09
1.26531e-05
0.00178821
-4.20683e-09
1.44059e-05
0.00180603
3.93916e-09
1.41131e-05
0.00181988
-2.94669e-09
1.32283e-05
0.00183054
-4.44307e-10
1.18269e-05
0.0018394
9.93677e-09
1.09079e-05
0.00184585
3.18284e-09
9.45054e-06
0.00185195
1.78064e-07
8.90576e-06
0.00185711
4.42427e-07
8.62529e-06
0.0018575
2.31733e-06
7.30308e-06
0.00186639
2.82878e-06
6.95585e-06
0.00184417
1.73496e-05
5.35955e-07
0.00189268
3.18454e-05
-4.95362e-06
0.00180028
0.000185099
-0.000104769
0.00165369
0.00102202
-0.000164494
0.00140305
0.00125727
6.83377e-05
0.00137307
0.00131151
2.4701e-05
0.00129919
0.00143618
-1.48167e-05
0.00122433
0.00163485
-5.5595e-05
0.00108762
0.00184445
-3.50375e-05
0.000883425
0.0020338
3.26972e-05
0.00063895
0.00227184
9.67532e-05
0.000358572
0.00253501
0.000158934
0.00291035
0.000211841
0.00172979
7.16465e-06
2.03536e-08
0.00176403
1.26564e-05
-1.3265e-08
0.00178823
1.44017e-05
7.23106e-09
0.00180603
1.41215e-05
-2.46427e-09
0.00181991
1.32156e-05
-1.31853e-08
0.00183053
1.18406e-05
2.94593e-08
0.00183946
1.08952e-05
-7.60471e-08
0.00184583
9.45602e-06
1.50457e-07
0.00185249
8.92887e-06
-2.99721e-07
0.00185556
8.64311e-06
2.19783e-06
0.00186299
6.99374e-06
-3.39048e-06
0.00185357
7.65046e-06
1.86676e-05
0.00187234
-1.60242e-06
-1.64533e-05
0.00185183
3.59968e-06
8.48678e-05
0.0018223
-0.000104752
0.000137529
0.00169872
-0.000213654
0.00110576
0.00143992
5.78501e-05
0.00137909
0.00141233
2.21733e-05
0.00142875
0.00135339
-1.40564e-05
0.00154199
0.00128401
-4.32173e-05
0.00174097
0.00119108
-3.11476e-05
0.00195733
0.00102746
2.55096e-05
0.00217772
0.000821185
7.96094e-05
0.00245595
0.000604474
0.000119755
0.00278519
0.000151877
0.00365964
0.00169387
5.47231e-10
-7.16582e-06
0.00171917
2.87677e-10
-1.26522e-05
0.00174798
5.22611e-10
-1.44041e-05
0.00177621
4.56656e-10
-1.41171e-05
0.00180265
-1.42551e-10
-1.32188e-05
0.00182633
1.71574e-09
-1.18412e-05
0.00184811
-2.02172e-09
-1.08885e-05
0.00186711
8.35301e-09
-9.50205e-06
0.00188506
-5.89681e-09
-8.96636e-06
0.00190219
1.02993e-07
-8.63814e-06
0.00191734
-9.69291e-08
-7.52375e-06
0.00193032
6.67576e-07
-6.8808e-06
0.00193625
-2.38153e-08
-3.05409e-06
0.00192102
2.44568e-06
6.15677e-06
0.00162023
8.32712e-06
0.000135518
0.00116186
0.000234626
9.44195e-05
0.00118476
0.000246294
-0.000129329
0.00102098
0.000279497
-5.14501e-05
0.000845508
0.000271531
-2.94591e-05
-4.8786e-05
0.000254325
-2.15788e-05
-0.000287569
0.000317089
-3.42903e-05
-0.000440287
0.000419264
-0.000129657
-0.000451406
0.000454491
-0.000208488
-0.000320945
0.000507614
-0.00031238
0.000462799
-0.000397697
0.00169386
1.03233e-10
-7.16224e-06
0.00171917
5.23601e-10
-1.26559e-05
0.00174798
6.17313e-10
-1.44002e-05
0.00177622
9.22026e-10
-1.41228e-05
0.00180265
9.62056e-10
-1.32137e-05
0.00182634
-7.43445e-10
-1.18442e-05
0.0018481
3.78059e-09
-1.08843e-05
0.00186708
-2.753e-09
-9.46516e-06
0.00188475
4.18594e-08
-8.79723e-06
0.00190264
1.61431e-08
-9.10783e-06
0.00191412
4.4945e-07
-4.99752e-06
0.00193354
3.05321e-07
-1.16252e-05
0.00192461
2.80943e-06
7.40254e-06
0.00192128
7.13664e-06
-8.1726e-06
0.00161821
4.44786e-05
0.000116891
0.00112405
0.000323371
0.000338567
0.0011685
0.000426668
-0.000104557
0.00102418
0.000509887
-4.63437e-05
0.000827143
0.000533144
-5.01146e-05
-8.00241e-05
0.000504789
0.000649887
-0.000402403
0.000659188
-1.87813e-05
-0.000497896
0.000740746
-0.00011019
-0.000476326
0.000812639
-0.000188262
-0.00030697
0.000882049
-0.000267769
0.000837223
-0.000335669
0.00169386
8.34465e-10
-7.16383e-06
0.00171917
5.85118e-10
-1.26538e-05
0.00174798
7.1059e-10
-1.44027e-05
0.00177621
7.16612e-10
-1.41191e-05
0.00180265
-5.35859e-10
-1.32183e-05
0.00182633
1.70858e-09
-1.18413e-05
0.00184812
-1.15824e-09
-1.08898e-05
0.00186709
1.30883e-08
-9.49532e-06
0.00188504
2.53657e-08
-8.95676e-06
0.00190205
2.12947e-07
-8.63038e-06
0.00191735
2.18415e-07
-7.55633e-06
0.00192942
1.57143e-06
-6.73917e-06
0.00193554
2.6213e-06
-3.22802e-06
0.00191602
1.18339e-05
6.8844e-06
0.00162395
5.76973e-05
0.000126223
0.00112954
0.000420518
4.8066e-05
0.00115225
0.000607221
-0.000100387
0.00100721
0.000722885
-3.82625e-05
0.000783441
0.000778543
-2.83041e-05
-5.97145e-05
0.000829744
0.000454965
-0.000398124
0.000971472
1.15264e-05
-0.000481267
0.00104961
-0.000109461
-0.000455435
0.00114971
-0.000180356
-0.00030247
0.00122948
-0.000243201
0.00116963
-0.000304962
0.00169386
4.40836e-10
-7.16031e-06
0.00171917
3.04183e-10
-1.26575e-05
0.00174797
1.0911e-10
-1.43992e-05
0.00177622
3.83086e-10
-1.41243e-05
0.00180265
-1.0544e-09
-1.3214e-05
0.00182634
1.83372e-09
-1.1844e-05
0.00184811
-2.95693e-10
-1.08856e-05
0.00186706
1.66199e-08
-9.46006e-06
0.00188474
4.64877e-08
-8.7864e-06
0.00190239
2.91024e-07
-9.04282e-06
0.00191429
4.26471e-07
-5.01013e-06
0.00193203
2.22264e-06
-1.1204e-05
0.0019243
4.49875e-06
7.30556e-06
0.00191637
1.8623e-05
-7.09792e-06
0.001617
9.60614e-05
0.000119836
0.00114641
0.000667453
0.000116336
0.00113338
0.000807655
-9.36585e-05
0.000997955
0.000925624
-3.65842e-05
0.000779602
0.00101274
-7.69986e-06
-1.10279e-05
0.00107183
5.77008e-05
-0.000346272
0.00125097
2.94824e-05
-0.000427847
0.00135287
-0.000111084
-0.000412524
0.00148151
-0.000172626
-0.000283768
0.00156904
-0.000228164
0.00150117
-0.000296642
0.00169385
-1.45263e-09
-7.1581e-06
0.00171917
6.55618e-11
-1.26607e-05
0.00174797
-1.22902e-09
-1.43973e-05
0.00177622
4.71121e-10
-1.41273e-05
0.00180265
-3.23893e-10
-1.32117e-05
0.00182634
6.4297e-10
-1.18467e-05
0.0018481
4.94181e-09
-1.08817e-05
0.00186702
1.15639e-08
-9.46034e-06
0.00188447
9.28163e-08
-8.74048e-06
0.0019027
2.67048e-07
-9.09776e-06
0.00191141
9.70554e-07
-4.59624e-06
0.00193455
2.43544e-06
-1.16458e-05
0.00191374
8.09719e-06
8.57989e-06
0.00191677
2.8564e-05
-7.08417e-06
0.00162116
0.0001528
0.000109515
0.00114459
0.000883545
0.000133649
0.0011279
0.00099852
-8.7007e-05
0.000997601
0.00112111
-3.48097e-05
0.000767055
0.00124283
-2.65529e-06
0.000104808
0.00137203
0.000285614
-0.000244953
0.00152666
3.54048e-05
-0.000350876
0.00165076
-9.83839e-05
-0.000355902
0.00180643
-0.000160241
-0.00025214
0.00190707
-0.000217525
0.00184719
-0.000291787
0.00169386
-2.74703e-09
-7.16043e-06
0.00171917
2.3179e-10
-1.26578e-05
0.00174797
-2.48957e-09
-1.43997e-05
0.00177622
6.90544e-10
-1.41236e-05
0.00180265
-5.08567e-10
-1.32153e-05
0.00182633
2.03124e-09
-1.18405e-05
0.00184811
4.77139e-09
-1.08921e-05
0.00186702
2.13428e-08
-9.43625e-06
0.00188472
9.0352e-08
-8.8023e-06
0.00190221
4.51263e-07
-9.00344e-06
0.00191448
9.60441e-07
-5.10249e-06
0.00193099
3.83058e-06
-1.09507e-05
0.00192393
9.52925e-06
7.18089e-06
0.00191114
3.80396e-05
-6.31209e-06
0.00163727
0.000192382
0.000114977
0.00114824
0.0010476
0.000118353
0.0011355
0.00117609
-8.24003e-05
0.00101022
0.00130324
-3.11962e-05
0.000781409
0.00145316
8.06927e-06
0.000248692
0.00164131
8.93493e-05
-0.000115921
0.00180145
4.25364e-05
-0.000255615
0.00194799
-8.11606e-05
-0.000281629
0.0021253
-0.000146861
-0.000204848
0.00224501
-0.000204886
0.00221474
-0.000280725
0.00169386
-3.31614e-09
-7.16399e-06
0.00171917
4.93569e-11
-1.26538e-05
0.00174797
-2.22232e-09
-1.44045e-05
0.00177621
6.75131e-10
-1.41161e-05
0.00180265
1.17931e-09
-1.3222e-05
0.00182633
2.71652e-11
-1.18373e-05
0.00184811
1.09633e-08
-1.08914e-05
0.00186702
1.62507e-08
-9.48206e-06
0.00188468
1.34657e-07
-8.89728e-06
0.00190236
4.50342e-07
-8.67087e-06
0.00191404
1.45514e-06
-7.04355e-06
0.00193196
4.01701e-06
-7.10817e-06
0.00192257
1.25287e-05
-1.08626e-06
0.0019123
4.47589e-05
9.56892e-06
0.00165401
0.000223261
0.000112766
0.00116396
0.00120379
0.000216034
0.00115235
0.00134738
-8.16239e-05
0.0010322
0.00147436
-2.64435e-05
0.000809507
0.00164702
1.31014e-05
0.000385637
0.00188972
8.64644e-05
2.07348e-05
0.00207286
4.46506e-05
-0.000136374
0.00222883
-6.36435e-05
-0.000178758
0.00243283
-0.000132873
-0.000135451
0.00259047
-0.000192242
0.00261927
-0.00026587
0.00169386
-3.74072e-09
-7.16645e-06
0.00171916
2.8383e-09
-1.26507e-05
0.00174798
-2.42499e-09
-1.44082e-05
0.0017762
3.31804e-09
-1.41104e-05
0.00180266
3.3912e-10
-1.32291e-05
0.00182631
2.27802e-09
-1.18277e-05
0.00184812
9.65998e-09
-1.09038e-05
0.00186704
2.61228e-08
-9.46684e-06
0.00188491
1.24527e-07
-8.93441e-06
0.00190182
6.58002e-07
-8.5587e-06
0.00191723
1.22782e-06
-7.55743e-06
0.00192838
5.30489e-06
-6.27078e-06
0.00193404
1.22734e-05
-2.54911e-06
0.0019075
4.95886e-05
1.08923e-05
0.00167324
0.000238997
0.000113165
0.00118228
0.00133275
0.000124486
0.00117293
0.0015107
-7.89131e-05
0.0010637
0.00163328
-2.62404e-05
0.000859126
0.00182146
1.40905e-05
0.000511491
0.00209638
6.92986e-05
0.000179497
0.00232293
3.95599e-05
9.21431e-06
0.00249143
-4.74016e-05
-5.10597e-05
0.00272776
-0.000117385
-3.50706e-05
0.00293321
-0.000177371
0.00307352
-0.000241709
0.00169386
-9.80815e-10
-7.16577e-06
0.00171916
7.11716e-09
-1.26522e-05
0.00174797
-6.51028e-09
-1.44061e-05
0.00177619
1.25519e-08
-1.41119e-05
0.00180266
-1.33416e-08
-1.3228e-05
0.0018263
1.7002e-08
-1.18264e-05
0.00184812
2.01153e-09
-1.09073e-05
0.00186703
1.87126e-08
-9.45178e-06
0.00188466
3.13635e-07
-8.90829e-06
0.00190205
5.00961e-07
-8.62829e-06
0.00191561
2.27662e-06
-7.30115e-06
0.00193118
3.59908e-06
-6.9848e-06
0.00192669
1.77367e-05
-4.85745e-07
0.0019219
4.4504e-05
4.77698e-06
0.00170581
0.000243596
0.000105726
0.00121642
0.00141802
0.000236793
0.001198
0.00166599
-6.94634e-05
0.0010995
0.00178126
-2.5371e-05
0.000916172
0.0019756
1.3983e-05
0.000631456
0.00227065
5.4508e-05
0.000348345
0.0025371
3.35819e-05
0.000184459
0.00272209
-3.44302e-05
0.000116508
0.00298843
-9.63847e-05
0.00010974
0.00325285
-0.000154474
0.00360183
-0.000207381
0.00169385
-7.16393e-06
9.90863e-09
0.00171917
-1.2656e-05
1.39231e-09
0.00174797
-1.44005e-05
-9.04252e-09
0.0017762
-1.41209e-05
2.91948e-08
0.00180267
-1.32151e-05
-6.10855e-08
0.00182626
-1.18403e-05
1.14733e-07
0.00184824
-1.08953e-05
-1.9292e-07
0.00186676
-9.45664e-06
4.16125e-07
0.00188528
-8.92682e-06
-3.50349e-07
0.00190096
-8.64472e-06
2.09151e-06
0.00192087
-6.99781e-06
-3.63801e-06
0.00192099
-7.67369e-06
1.87242e-05
0.00195011
1.54717e-06
-1.45922e-05
0.00192029
-3.73791e-06
8.16484e-05
0.00175641
0.00010454
0.000197166
0.00125756
0.000209636
0.00149009
0.00122479
-5.74263e-05
0.0018134
0.00113696
-2.19943e-05
0.00191307
0.00098158
1.32824e-05
0.00210346
0.000756673
4.2312e-05
0.00240971
0.000534617
2.99023e-05
0.00269783
0.000395275
-2.66179e-05
0.00291327
0.000346536
-7.94679e-05
0.00319588
0.000331038
-0.000116395
0.00350396
-0.000148844
0.00423286
0.00172976
1.05144e-08
-5.87354e-05
0.00176404
-7.77285e-09
-4.69209e-05
0.00178821
9.16519e-09
-3.85852e-05
0.00180604
-9.30652e-09
-3.19375e-05
0.00181988
1.00915e-08
-2.70682e-05
0.00183055
-1.11429e-08
-2.25014e-05
0.00183939
1.57405e-08
-1.97413e-05
0.00184581
2.29759e-08
-1.59493e-05
0.00185169
2.03533e-07
-1.5041e-05
0.00185708
-1.18812e-07
-1.39348e-05
0.00185572
1.76601e-06
-7.91691e-06
0.00186627
-1.04597e-06
-1.64717e-05
0.00183635
5.0475e-06
2.17813e-05
0.00188378
3.41412e-06
-4.48349e-05
0.00175606
-1.15283e-05
0.000273869
0.00158902
1.19423e-05
0.00024743
0.00137624
0.000167036
-8.43486e-05
0.00130776
0.000162619
-0.000145943
0.00122913
9.50976e-05
-4.61576e-05
0.00125633
-2.77497e-05
-2.12607e-05
0.0011291
9.51983e-05
-2.49253e-06
0.000806348
0.000208724
-1.59697e-05
0.000418117
0.000274926
-9.55823e-05
7.41738e-05
0.000316114
-0.00028476
0.000317063
-0.000640676
0.00172974
-5.65169e-09
-5.86745e-05
0.00176405
1.02352e-08
-4.69889e-05
0.00178819
-5.472e-09
-3.85271e-05
0.00180605
1.03559e-08
-3.19987e-05
0.00181986
-9.5179e-09
-2.70057e-05
0.00183057
1.15926e-08
-2.25745e-05
0.00183937
-1.75269e-08
-1.96507e-05
0.00184608
-8.74584e-09
-1.61431e-05
0.00185271
-1.50719e-07
-1.50791e-05
0.00185552
3.26529e-07
-1.23725e-05
0.00186941
-1.39405e-06
-1.57267e-05
0.00184896
2.6346e-06
5.07149e-06
0.00189018
-2.26009e-06
-2.6566e-05
0.00181634
7.61719e-06
6.13593e-05
0.00176161
5.69183e-05
0.000102227
0.00144124
0.00035444
0.000314417
0.00130734
0.00029535
-9.97519e-05
0.00122347
0.000333601
-0.000133836
0.000943797
0.000360954
-3.65432e-05
0.0010975
0.00041755
5.0602e-05
0.000795172
0.000390225
-1.17699e-05
0.000523196
0.00040947
-3.93145e-05
0.000203807
0.000503961
-9.82658e-05
-5.4239e-05
0.000591595
-0.000285381
0.000538711
-0.000611686
0.00172975
9.35169e-09
-5.87258e-05
0.00176405
-6.24792e-09
-4.69305e-05
0.00178821
7.8154e-09
-3.85779e-05
0.00180605
-7.56221e-09
-3.19458e-05
0.00181988
7.52763e-09
-2.70614e-05
0.00183057
-9.33608e-09
-2.25082e-05
0.00183938
1.28974e-08
-1.97364e-05
0.0018458
2.33705e-08
-1.59477e-05
0.00185154
2.04152e-07
-1.50455e-05
0.00185703
-6.00508e-08
-1.3752e-05
0.00185398
1.85823e-06
-7.7536e-06
0.00186612
-5.08911e-07
-1.58189e-05
0.00183056
6.66832e-06
2.33674e-05
0.00187566
1.10019e-05
-4.17499e-05
0.00175116
3.37932e-05
0.000272951
0.00152993
0.000370593
0.000251031
0.00132272
0.000470193
-6.87744e-05
0.00122841
0.000515864
-0.000126597
0.000997265
0.000586119
-2.25414e-05
0.00108743
0.000730278
5.18408e-05
0.000813857
0.000669072
5.98977e-06
0.000471711
0.000663628
-2.18344e-05
0.000132977
0.000751035
-8.90347e-05
-8.70604e-05
0.000843628
-0.000275363
0.000732875
-0.000586341
0.00172973
1.26768e-09
-5.86697e-05
0.00176406
5.26137e-10
-4.69936e-05
0.00178819
-4.40698e-10
-3.8525e-05
0.00180606
-1.58577e-10
-3.20016e-05
0.00181986
-2.26982e-09
-2.70068e-05
0.00183058
1.99954e-09
-2.25722e-05
0.00183937
-2.53461e-09
-1.96631e-05
0.00184604
1.77841e-08
-1.61279e-05
0.00185257
5.6001e-08
-1.51609e-05
0.00185571
2.62418e-07
-1.25223e-05
0.00186827
4.49507e-07
-1.61429e-05
0.00185072
1.99981e-06
3.75298e-06
0.0018873
4.32967e-06
-2.69897e-05
0.00181156
1.77056e-05
6.18219e-05