/*--------------------------------*- C++ -*----------------------------------*\
  =========                 |
  \\      /  F ield         | OpenFOAM: The Open Source CFD Toolbox
   \\    /   O peration     | Website:  https://openfoam.org
    \\  /    A nd           | Version:  6
     \\/     M anipulation  |
\*---------------------------------------------------------------------------*/
FoamFile
{
    version     2.0;
    format      ascii;
    class       volScalarField;
    location    "6";
    object      T;
}
// * * * * * * * * * * * * * * * * * * * * * * * * * * * * * * * * * * * * * //

dimensions      [0 0 0 1 0 0 0];

internalField   nonuniform List<scalar> 
26250
(
0.980071
0.967429
0.955828
0.946643
0.937767
0.931065
0.924353
0.920731
0.92011
0.928427
0.945187
1.01562
1.15006
1.62464
2.55682
2.71869
2.67693
2.63699
2.59521
2.60816
2.61481
2.63371
2.67055
2.71896
2.71318
0.980075
0.967423
0.955833
0.946638
0.937773
0.93106
0.924356
0.920716
0.920098
0.928359
0.945023
1.01519
1.14899
1.62236
2.55337
2.71565
2.67491
2.6323
2.59402
2.59412
2.60632
2.63209
2.6647
2.71773
2.70889
0.980086
0.967411
0.955844
0.946626
0.937785
0.931048
0.924363
0.920677
0.920061
0.928222
0.944654
1.01447
1.14672
1.62039
2.55315
2.72392
2.68665
2.63947
2.60399
2.6031
2.61681
2.64279
2.67665
2.72701
2.71663
0.980156
0.967342
0.955917
0.946556
0.937857
0.930976
0.924417
0.920551
0.920005
0.927908
0.942197
1.01325
1.14148
1.6165
2.54322
2.71458
2.67527
2.63448
2.59989
2.60738
2.62061
2.64778
2.68149
2.73528
2.73499
0.980855
0.966633
0.95664
0.945816
0.938601
0.930208
0.925215
0.919854
0.922738
0.922732
0.948847
0.990587
1.16709
1.63559
2.41254
2.68988
2.64899
2.61337
2.58208
2.58586
2.60154
2.63242
2.66871
2.72578
2.7332
0.980266
0.967232
0.956032
0.946443
0.93797
0.930861
0.924497
0.920328
0.919843
0.92711
0.938526
1.0091
1.12759
1.59712
2.5009
2.69294
2.65089
2.61253
2.57793
2.57952
2.59409
2.62353
2.65948
2.71787
2.72988
0.980767
0.966721
0.956551
0.945906
0.938513
0.930289
0.925111
0.919772
0.921873
0.922352
0.946601
0.985801
1.15444
1.59024
2.35614
2.66385
2.6247
2.59661
2.56475
2.56514
2.58078
2.60866
2.64591
2.70399
2.72328
0.980334
0.96716
0.956101
0.946369
0.938035
0.930784
0.92453
0.920067
0.919629
0.926271
0.938192
1.00283
1.11163
1.56082
2.44717
2.66187
2.62298
2.59228
2.55609
2.55517
2.56955
2.59455
2.63012
2.68934
2.70755
0.980337
0.967155
0.956098
0.946366
0.938037
0.930778
0.924519
0.92003
0.919542
0.925728
0.938341
0.998267
1.103
1.5316
2.40528
2.63666
2.6185
2.58227
2.54475
2.54154
2.55245
2.57491
2.60264
2.66237
2.67301
0.979674
0.967827
0.955426
0.947051
0.937361
0.931465
0.923869
0.920806
0.919053
0.924631
0.934498
0.993633
1.08782
1.51647
2.37951
2.61047
2.60558
2.57389
2.53781
2.53153
2.54037
2.55363
2.57012
2.60634
2.58595
1.01423
1.02101
1.02632
1.02895
1.03186
1.03302
1.03517
1.03704
1.04518
1.05795
1.09648
1.19173
1.41316
2.04847
2.8325
2.68591
2.80555
2.76618
2.7642
2.76947
2.77585
2.79057
2.8248
2.82968
2.75566
1.01423
1.02101
1.02632
1.02895
1.03186
1.03303
1.03517
1.03704
1.04515
1.0579
1.09629
1.19152
1.41219
2.0474
2.82986
2.68918
2.80271
2.76255
2.75438
2.76327
2.77448
2.78459
2.811
2.83464
2.763
1.01423
1.02101
1.02632
1.02895
1.03186
1.03303
1.03517
1.03702
1.04508
1.05773
1.096
1.19031
1.41036
2.03729
2.83348
2.67301
2.80208
2.76123
2.75203
2.7612
2.77546
2.78315
2.80255
2.83244
2.7651
1.01423
1.02101
1.02632
1.02895
1.03186
1.03303
1.03516
1.03698
1.04496
1.05745
1.09545
1.18865
1.40709
2.03578
2.82406
2.695
2.79717
2.75262
2.75016
2.75705
2.77227
2.77941
2.7944
2.82717
2.76492
1.01421
1.02106
1.02628
1.02901
1.03181
1.03309
1.03507
1.03689
1.04401
1.05804
1.09003
1.19417
1.39457
2.03076
2.81923
2.70705
2.7971
2.74907
2.74375
2.74885
2.7618
2.77182
2.78467
2.81518
2.76203
1.01423
1.02101
1.02632
1.02896
1.03186
1.03303
1.03513
1.03688
1.04457
1.05655
1.09361
1.18248
1.39505
1.99418
2.81356
2.71517
2.79034
2.74065
2.73487
2.73964
2.74741
2.75609
2.76939
2.80222
2.75464
1.0142
1.02106
1.02628
1.02901
1.03181
1.03308
1.03504
1.03675
1.04361
1.05688
1.08768
1.18671
1.37782
1.9603
2.813
2.72279
2.78645
2.73186
2.72652
2.73116
2.7384
2.74067
2.74938
2.77909
2.7377
1.01423
1.02102
1.02631
1.02896
1.03184
1.03303
1.03508
1.03673
1.04398
1.05525
1.09064
1.17268
1.37429
1.90112
2.79987
2.71963
2.77697
2.72071
2.7119
2.71438
2.71975
2.7223
2.72419
2.75162
2.71253
1.01422
1.02102
1.02631
1.02896
1.03184
1.03303
1.03506
1.03665
1.04366
1.05448
1.08863
1.16815
1.35938
1.8551
2.7887
2.72208
2.75028
2.71004
2.70244
2.70156
2.70068
2.69708
2.69515
2.70774
2.65297
1.01416
1.02106
1.02626
1.02899
1.0318
1.03304
1.03503
1.03655
1.04318
1.05373
1.08516
1.16625
1.34242
1.83473
2.77645
2.73251
2.7208
2.68346
2.68265
2.68363
2.67895
2.67
2.65212
2.65421
2.57266
1.00628
1.01274
1.02144
1.02807
1.03562
1.0407
1.04702
1.05185
1.06255
1.07947
1.1248
1.23616
1.48152
2.18575
2.88236
2.47168
2.78407
2.76374
2.76642
2.7294
2.81246
2.81268
2.81233
2.81149
2.76679
1.00631
1.01272
1.02146
1.02804
1.03564
1.04067
1.04705
1.05182
1.06261
1.07925
1.12508
1.23459
1.4817
2.1893
2.88049
2.47403
2.78282
2.76049
2.76455
2.72955
2.80688
2.80835
2.8075
2.80737
2.76196
1.00628
1.01274
1.02144
1.02807
1.03562
1.0407
1.04702
1.05183
1.06246
1.0793
1.12429
1.23513
1.4787
2.18243
2.87785
2.48467
2.7793
2.753
2.75897
2.72768
2.80167
2.80351
2.79833
2.79782
2.75478
1.0063
1.01272
1.02146
1.02804
1.03564
1.04067
1.04704
1.05178
1.06243
1.07892
1.1241
1.2325
1.47606
2.18031
2.8739
2.50385
2.78289
2.75017
2.75554
2.71653
2.79175
2.79298
2.78917
2.78941
2.74745
1.00633
1.01269
1.02149
1.02802
1.03567
1.04064
1.04706
1.05172
1.06234
1.07841
1.1236
1.22905
1.47139
2.17046
2.86972
2.52148
2.78261
2.74552
2.75161
2.71267
2.7816
2.78464
2.77514
2.7709
2.73226
1.00632
1.0127
1.02148
1.02803
1.03566
1.04065
1.04704
1.05168
1.06206
1.07805
1.122
1.22663
1.46255
2.14467
2.86505
2.54191
2.77965
2.738
2.74354
2.70487
2.7608
2.76779
2.75874
2.75677
2.71855
1.00634
1.01268
1.0215
1.028
1.03568
1.04063
1.04705
1.05159
1.0618
1.07732
1.12049
1.22141
1.45183
2.11274
2.85854
2.56649
2.77358
2.72796
2.73381
2.6991
2.7395
2.75199
2.73909
2.72792
2.68809
1.00634
1.01268
1.02149
1.02801
1.03567
1.04063
1.04703
1.05152
1.06138
1.07665
1.11811
1.21694
1.43776
2.07139
2.84911
2.59401
2.76747
2.71426
2.71944
2.68734
2.71066
2.72835
2.71161
2.70031
2.65859
1.00638
1.01264
1.02153
1.02797
1.03571
1.04058
1.04705
1.0514
1.06105
1.07562
1.11625
1.20937
1.42428
2.02652
2.83329
2.62074
2.75852
2.7023
2.70373
2.67605
2.68356
2.7027
2.68026
2.65486
2.58909
1.00632
1.0127
1.02147
1.02802
1.03565
1.04063
1.04698
1.05129
1.06043
1.07486
1.11316
1.20559
1.40763
1.97349
2.80675
2.65928
2.74222
2.68402
2.68854
2.65887
2.65271
2.66768
2.64055
2.60285
2.49428
1.01423
1.02101
1.02632
1.02895
1.03186
1.03302
1.03517
1.03702
1.04514
1.05785
1.09638
1.19155
1.41383
2.05547
2.83528
2.67635
2.79904
2.76221
2.75028
2.76042
2.76874
2.78557
2.79996
2.8352
2.78128
1.01421
1.02105
1.02628
1.02901
1.03181
1.03309
1.03509
1.03696
1.04427
1.05876
1.09158
1.19912
1.40609
2.05694
2.8438
2.65768
2.80437
2.76707
2.7638
2.77372
2.7792
2.79494
2.81167
2.83345
2.76696
1.01423
1.021
1.02632
1.02895
1.03186
1.03303
1.03516
1.03699
1.04504
1.05759
1.09596
1.18998
1.41116
2.05507
2.82846
2.6813
2.79865
2.75736
2.75759
2.76428
2.77107
2.78735
2.80919
2.82717
2.76465
1.01422
1.02105
1.02629
1.029
1.03182
1.03308
1.03509
1.03693
1.04419
1.05837
1.09091
1.19659
1.40025
2.05347
2.82334
2.69209
2.80084
2.75615
2.74907
2.75879
2.76895
2.77658
2.80155
2.82175
2.76204
1.01422
1.02105
1.02629
1.029
1.03182
1.03308
1.03508
1.03689
1.04411
1.05799
1.0903
1.19421
1.39501
2.03982
2.81572
2.70771
2.79875
2.75184
2.74547
2.75094
2.76327
2.76903
2.78862
2.8108
2.75664
1.01421
1.02105
1.02629
1.029
1.03182
1.03308
1.03506
1.03683
1.0439
1.05751
1.08917
1.19095
1.38751
2.00774
2.81307
2.71981
2.79369
2.74449
2.73747
2.74145
2.75089
2.75534
2.7728
2.79942
2.74869
1.01423
1.02101
1.02632
1.02896
1.03185
1.03303
1.03511
1.03682
1.04432
1.05603
1.09218
1.1785
1.38513
1.9485
2.80782
2.71905
2.78635
2.7329
2.7289
2.73311
2.74132
2.74044
2.74996
2.77694
2.73124
1.01423
1.02102
1.02631
1.02896
1.03184
1.03303
1.03509
1.03674
1.044
1.05531
1.09055
1.17295
1.37361
1.89229
2.79955
2.72074
2.77136
2.71926
2.71215
2.71538
2.72342
2.72393
2.72495
2.74938
2.70613
1.01422
1.02102
1.02631
1.02896
1.03184
1.03303
1.03506
1.03665
1.04368
1.0545
1.08865
1.16827
1.35923
1.85502
2.7891
2.72336
2.74714
2.70729
2.70197
2.70098
2.70127
2.69793
2.69615
2.70616
2.64634
1.01416
1.02106
1.02626
1.02899
1.0318
1.03304
1.03503
1.03655
1.04319
1.05375
1.08521
1.16633
1.34258
1.83466
2.77618
2.73281
2.71968
2.67993
2.68066
2.68384
2.68009
2.67157
2.65316
2.65347
2.56663
0.980136
0.96736
0.955897
0.946574
0.937837
0.930996
0.924407
0.920605
0.920058
0.928216
0.942768
1.01572
1.14679
1.6325
2.5733
2.72783
2.68795
2.64236
2.60504
2.60412
2.61455
2.64152
2.67199
2.72723
2.70281
0.98091
0.966574
0.956697
0.945754
0.938662
0.930148
0.925293
0.919858
0.92312
0.923168
0.950319
0.992895
1.18051
1.66682
2.44125
2.70912
2.66964
2.62779
2.59046
2.60508
2.61208
2.63672
2.6684
2.71974
2.70099
0.980195
0.967302
0.955959
0.946515
0.9379
0.930936
0.924459
0.920513
0.920024
0.927967
0.940416
1.01435
1.13912
1.63034
2.56625
2.72551
2.68386
2.64248
2.60512
2.61818
2.62645
2.65029
2.68338
2.73613
2.72862
0.980915
0.966569
0.956705
0.94575
0.938672
0.930137
0.925322
0.919834
0.923203
0.923637
0.950016
0.995924
1.17351
1.64997
2.41822
2.69139
2.65191
2.61542
2.58502
2.58871
2.60323
2.63406
2.66764
2.72685
2.72804
0.980891
0.966598
0.956678
0.945784
0.938635
0.930185
0.925234
0.919884
0.922675
0.924534
0.949357
0.995904
1.16754
1.61757
2.40926
2.68842
2.64715
2.61118
2.57965
2.58344
2.59737
2.62699
2.66123
2.72062
2.72883
0.980841
0.966645
0.956628
0.945829
0.93859
0.930219
0.925201
0.919835
0.92256
0.923141
0.948152
0.99158
1.1615
1.60976
2.38424
2.67598
2.63445
2.60107
2.56747
2.56781
2.58172
2.61082
2.64647
2.70577
2.72492
0.9803
0.967191
0.95606
0.946413
0.937992
0.930826
0.9245
0.920139
0.919633
0.926986
0.939871
1.00653
1.1214
1.57793
2.47389
2.678
2.63669
2.60048
2.56553
2.56197
2.57771
2.59822
2.63741
2.68744
2.71582
0.980297
0.967195
0.956059
0.946407
0.937994
0.930816
0.924486
0.920074
0.919531
0.92644
0.940113
1.00246
1.11364
1.55534
2.44351
2.65979
2.62986
2.59597
2.56139
2.55762
2.57347
2.59132
2.62865
2.6756
2.69785
0.980333
0.967157
0.956094
0.946367
0.938032
0.930775
0.924525
0.920038
0.919483
0.925784
0.938401
0.99831
1.10304
1.53155
2.40601
2.63614
2.61855
2.58255
2.54729
2.5446
2.56015
2.57612
2.60991
2.65704
2.66305
0.979719
0.967777
0.955471
0.947003
0.937409
0.931419
0.923919
0.920768
0.919115
0.92468
0.934641
0.993645
1.08745
1.51643
2.3804
2.61007
2.60511
2.57289
2.53884
2.53234
2.54318
2.55468
2.57339
2.61271
2.58228
0.980968
0.96654
0.95675
0.945713
0.938714
0.930073
0.925252
0.919251
0.919887
0.920511
0.939935
0.970982
1.11749
1.43652
2.17028
2.55902
2.56519
2.54349
2.51648
2.51316
2.51834
2.52969
2.52821
2.52195
2.43008
0.979089
0.968447
0.954813
0.9477
0.936727
0.932107
0.923223
0.921244
0.917558
0.922713
0.930548
0.983323
1.07018
1.4463
2.24996
2.52846
2.53926
2.51741
2.49046
2.48346
2.48435
2.48295
2.47378
2.44876
2.34827
0.980844
0.966657
0.956621
0.945837
0.938582
0.930193
0.925088
0.919155
0.918924
0.91943
0.935782
0.961322
1.09115
1.34725
2.02628
2.47787
2.50946
2.49348
2.47485
2.46637
2.4629
2.45515
2.43719
2.4045
2.32536
0.979339
0.968182
0.955077
0.94741
0.937014
0.931788
0.923493
0.920649
0.916755
0.920761
0.928829
0.971192
1.05007
1.35077
2.06176
2.41141
2.4617
2.45076
2.43989
2.43105
2.42613
2.41815
2.39892
2.36859
2.31054
0.979434
0.968081
0.95518
0.9473
0.937131
0.931656
0.923601
0.920354
0.916174
0.919666
0.925669
0.963291
1.02359
1.28686
1.95023
2.36146
2.4395
2.43669
2.42292
2.40526
2.39375
2.37744
2.36035
2.32532
2.28543
0.980693
0.966805
0.956485
0.945968
0.938467
0.930275
0.924933
0.918744
0.916672
0.916183
0.926723
0.944822
1.02694
1.17766
1.68019
2.25835
2.41073
2.4136
2.40726
2.38971
2.37321
2.34906
2.32522
2.28905
2.2433
0.980531
0.966978
0.956317
0.94615
0.938296
0.930452
0.924743
0.918802
0.91594
0.915396
0.923189
0.938647
1.00011
1.11471
1.50575
2.09285
2.34093
2.35709
2.36913
2.35859
2.34857
2.33016
2.30769
2.27455
2.22864
0.980254
0.967256
0.956037
0.946432
0.938017
0.930727
0.924458
0.918977
0.915229
0.914922
0.919974
0.934503
0.975736
1.08048
1.38972
2.02738
2.27869
2.31449
2.31364
2.30625
2.29615
2.28828
2.27403
2.25222
2.21757
0.980914
0.966602
0.956693
0.945778
0.938662
0.930085
0.92508
0.918332
0.915747
0.914064
0.917263
0.926931
0.961692
1.04214
1.28567
1.90974
2.24504
2.30269
2.29931
2.28289
2.26472
2.24823
2.23268
2.21414
2.18919
0.979758
0.967762
0.95551
0.946976
0.937454
0.931318
0.923814
0.91955
0.913922
0.913092
0.912654
0.923837
0.943772
1.02239
1.18304
1.63088
2.13817
2.27561
2.28238
2.27217
2.25343
2.22965
2.20712
2.18418
2.15709
0.980789
0.966712
0.956569
0.945887
0.938526
0.930217
0.924876
0.918417
0.914791
0.910961
0.91297
0.917021
0.9395
0.983285
1.11896
1.55283
1.99264
2.20779
2.23688
2.24352
2.2342
2.21602
2.19527
2.17272
2.14607
0.980304
0.967205
0.95607
0.94641
0.937999
0.930765
0.92434
0.918927
0.914144
0.91104
0.910739
0.915085
0.926403
0.965143
1.05007
1.3276
1.9037
2.1465
2.19277
2.19924
2.191
2.18066
2.16627
2.14974
2.13145
0.980627
0.966874
0.956441
0.94598
0.938383
0.930458
0.924608
0.918499
0.91466
0.910012
0.910263
0.911719
0.921005
0.946351
1.01685
1.19093
1.67041
2.07728
2.1812
2.18343
2.17635
2.15707
2.13347
2.11274
2.0946
0.980662
0.966833
0.956453
0.945998
0.93842
0.930326
0.924762
0.918428
0.914516
0.909705
0.908588
0.90821
0.91624
0.931327
0.987252
1.08929
1.4336
1.90371
2.13043
2.16174
2.16158
2.14834
2.12649
2.10258
2.08008
0.980371
0.967129
0.956152
0.94631
0.938119
0.93062
0.924486
0.91871
0.914188
0.909837
0.907437
0.907087
0.911811
0.921391
0.959836
1.02148
1.29447
1.79139
2.04481
2.11773
2.12678
2.12336
2.11155
2.09004
2.06854
0.9803
0.967215
0.956068
0.946408
0.938025
0.930725
0.92439
0.91881
0.914084
0.909861
0.907036
0.906695
0.908649
0.915963
0.939691
0.993015
1.15507
1.59607
1.95162
2.08948
2.10625
2.10494
2.09443
2.07839
2.05846
0.980674
0.966834
0.956455
0.946001
0.93843
0.930323
0.924759
0.918441
0.91443
0.909437
0.907118
0.905186
0.906556
0.911778
0.924834
0.967024
1.05289
1.38353
1.78943
2.02618
2.07325
2.07769
2.0738
2.05966
2.04024
0.980602
0.966914
0.956377
0.94606
0.938374
0.93041
0.924619
0.918614
0.914271
0.909464
0.906742
0.903721
0.904849
0.906538
0.916295
0.944154
1.00364
1.19165
1.53956
1.93754
2.0489
2.06087
2.0593
2.04734
2.02858
0.980465
0.967035
0.956252
0.94622
0.938201
0.930549
0.924533
0.918665
0.914168
0.909632
0.906404
0.903325
0.902923
0.903585
0.909707
0.925102
0.970608
1.06059
1.35074
1.76698
1.98291
2.02221
2.03025
2.02869
2.01853
0.98044
0.967059
0.956222
0.946241
0.93818
0.930561
0.924535
0.918652
0.914183
0.9096
0.906367
0.902961
0.901583
0.901328
0.905477
0.915129
0.944619
1.00495
1.21153
1.63875
1.89758
1.99071
2.00327
2.0051
1.9982
0.980203
0.967301
0.955976
0.946491
0.937935
0.930809
0.92429
0.918906
0.913929
0.909848
0.906104
0.903064
0.900791
0.90068
0.902476
0.909144
0.925278
0.969122
1.07642
1.41268
1.77172
1.95076
1.98465
1.98626
1.98408
0.980645
0.966881
0.956391
0.94605
0.938379
0.93034
0.924768
0.918437
0.914383
0.909404
0.906497
0.902623
0.900909
0.899271
0.900346
0.903681
0.914462
0.940789
1.00985
1.19946
1.55527
1.86523
1.96038
1.97516
1.97645
0.980525
0.966977
0.956303
0.946159
0.938267
0.930473
0.924618
0.918582
0.914233
0.909549
0.906349
0.902743
0.900493
0.898293
0.898985
0.900265
0.906515
0.923201
0.967806
1.06075
1.3435
1.7062
1.89662
1.94938
1.9614
0.980424
0.967082
0.956198
0.94627
0.938157
0.930587
0.924508
0.91869
0.914132
0.909648
0.906256
0.902807
0.900362
0.897946
0.897397
0.897543
0.901676
0.910825
0.940302
0.992322
1.19214
1.57464
1.81517
1.92136
1.95054
0.980332
0.967171
0.956107
0.946359
0.938067
0.930675
0.924421
0.918774
0.914052
0.909724
0.906183
0.902863
0.900272
0.897808
0.896526
0.89642
0.898513
0.905152
0.919352
0.959348
1.05236
1.34649
1.68434
1.88188
1.94545
0.980436
0.967068
0.956212
0.946253
0.938172
0.930567
0.924527
0.918665
0.914158
0.909615
0.90629
0.902749
0.900366
0.897634
0.896311
0.895711
0.896545
0.900529
0.907843
0.936556
0.987642
1.15148
1.48392
1.80145
1.94745
0.980492
0.967014
0.956266
0.9462
0.938227
0.930511
0.924583
0.918612
0.914208
0.909562
0.906343
0.902696
0.900392
0.897576
0.896079
0.894626
0.895215
0.896891
0.902477
0.917803
0.956139
1.04549
1.27464
1.70632
1.95111
0.980315
0.967188
0.956097
0.946361
0.93808
0.930646
0.924468
0.918715
0.914119
0.909658
0.906242
0.90281
0.900277
0.897669
0.895855
0.894232
0.89447
0.895408
0.898598
0.910902
0.932736
1.00298
1.15499
1.59796
1.99775
0.980332
0.967168
0.956109
0.94635
0.938074
0.930661
0.924429
0.918767
0.914048
0.909732
0.906167
0.902877
0.900212
0.897723
0.895762
0.89414
0.89379
0.894409
0.897023
0.906692
0.925289
0.984289
1.11307
1.5502
2.07869
0.980377
0.967122
0.956152
0.946303
0.938122
0.930605
0.924486
0.918709
0.914095
0.90969
0.906204
0.902828
0.900268
0.897653
0.895806
0.893993
0.893461
0.893784
0.896321
0.904826
0.923646
0.974719
1.11224
1.50241
2.15469
0.980307
0.967172
0.956115
0.94633
0.938104
0.930624
0.924475
0.918711
0.914118
0.909649
0.906263
0.902772
0.900323
0.897589
0.895876
0.893822
0.893242
0.893036
0.896159
0.902751
0.924937
0.968665
1.11981
1.47993
2.20306
0.980328
0.96716
0.956123
0.946321
0.938109
0.930609
0.924488
0.918691
0.914135
0.909636
0.906259
0.902791
0.90028
0.89765
0.895803
0.893957
0.893303
0.893601
0.895907
0.904603
0.921849
0.97721
1.10582
1.54352
2.20398
0.980264
0.967233
0.956049
0.946407
0.938029
0.930694
0.924417
0.918749
0.914098
0.909651
0.906276
0.902764
0.900344
0.897593
0.895884
0.893841
0.893203
0.893169
0.895869
0.902927
0.923363
0.96809
1.1159
1.47554
2.22513
0.980256
0.96724
0.956045
0.946409
0.938031
0.930686
0.924429
0.918739
0.914104
0.909664
0.906255
0.902798
0.900318
0.897605
0.895885
0.893814
0.893165
0.893146
0.895693
0.903068
0.922712
0.967993
1.11368
1.47479
2.22627
0.980241
0.967271
0.956023
0.946452
0.937997
0.930752
0.924372
0.918824
0.91404
0.909731
0.906215
0.902823
0.900292
0.897629
0.895837
0.89382
0.89305
0.892847
0.895666
0.901856
0.923453
0.966086
1.11607
1.47822
2.21411
0.980232
0.967275
0.956014
0.946459
0.937985
0.930762
0.924356
0.918835
0.914025
0.909735
0.906212
0.902816
0.900304
0.897619
0.895848
0.893821
0.893064
0.892884
0.895549
0.902367
0.922072
0.967042
1.10935
1.48676
2.19784
0.980226
0.967279
0.956
0.946465
0.937967
0.930771
0.924336
0.918847
0.913996
0.909756
0.90617
0.902847
0.900265
0.897642
0.895843
0.893825
0.893077
0.893083
0.895345
0.903314
0.919754
0.974461
1.09777
1.57561
2.16034
0.980415
0.967131
0.956139
0.946364
0.938044
0.930725
0.92435
0.918862
0.913953
0.909828
0.906078
0.902953
0.900149
0.897737
0.895751
0.893832
0.892893
0.892708
0.895085
0.901061
0.920894
0.964228
1.10619
1.5257
2.15254
0.980242
0.967287
0.955995
0.946485
0.937949
0.930793
0.924309
0.918881
0.913941
0.909829
0.90607
0.902965
0.900136
0.897769
0.89573
0.893875
0.892852
0.892671
0.894924
0.900991
0.919222
0.967069
1.10361
1.56209
2.15915
0.980227
0.967278
0.956
0.946466
0.93796
0.93078
0.924318
0.91888
0.91395
0.909831
0.906076
0.902965
0.900127
0.897779
0.89569
0.893908
0.892771
0.892552
0.894958
0.900799
0.919635
0.971018
1.11028
1.63821
2.17381
1.01386
1.0214
1.02593
1.02936
1.03145
1.03344
1.03465
1.03703
1.041
1.05508
1.08274
1.14834
1.35255
1.83624
2.7392
2.7417
2.71723
2.66615
2.66204
2.66141
2.65507
2.64072
2.60418
2.56558
2.41777
1.01374
1.02145
1.02586
1.02937
1.03141
1.03343
1.03461
1.03693
1.04074
1.0526
1.08175
1.13796
1.33944
1.79387
2.68053
2.73699
2.70886
2.65006
2.64139
2.63847
2.62819
2.60724
2.56129
2.50246
2.36432
1.01384
1.02142
1.02592
1.02937
1.03143
1.03343
1.03454
1.03659
1.04008
1.05252
1.07681
1.13412
1.31564
1.73172
2.61357
2.72583
2.69276
2.6524
2.62556
2.61533
2.60216
2.57655
2.52078
2.46379
2.34713
1.01393
1.02127
1.02604
1.0292
1.03158
1.03324
1.03465
1.03622
1.03978
1.04877
1.07498
1.11913
1.3005
1.67077
2.50064
2.70035
2.6578
2.64962
2.6246
2.59807
2.57231
2.54931
2.49574
2.44639
2.34564
1.01401
1.0212
1.02612
1.02911
1.03168
1.03313
1.03479
1.03598
1.04012
1.04775
1.06734
1.12734
1.23552
1.64388
2.49726
2.64751
2.64064
2.62653
2.61585
2.59346
2.5529
2.52014
2.46905
2.42909
2.34769
1.01412
1.02114
1.0262
1.02908
1.03173
1.03312
1.03474
1.03582
1.03851
1.04749
1.06466
1.10644
1.23824
1.5042
2.30066
2.61868
2.63797
2.61165
2.59678
2.58146
2.5442
2.51143
2.44784
2.41323
2.34746
1.01388
1.02136
1.02598
1.0293
1.03151
1.03333
1.03452
1.03592
1.03796
1.04593
1.05961
1.09616
1.20217
1.42124
2.07759
2.54267
2.62941
2.604
2.57954
2.56345
2.52864
2.50042
2.43862
2.3936
2.34358
1.01398
1.02125
1.02609
1.02918
1.03163
1.03319
1.03467
1.03573
1.03822
1.04265
1.05517
1.08836
1.15385
1.36472
1.93692
2.43923
2.59394
2.5852
2.56129
2.54306
2.51217
2.48957
2.43875
2.38408
2.33555
1.01403
1.02123
1.02612
1.02917
1.03165
1.03319
1.03465
1.03563
1.03759
1.04093
1.05204
1.07549
1.13021
1.28598
1.71557
2.35297
2.56158
2.55638
2.53724
2.52107
2.48702
2.46608
2.43319
2.38227
2.33115
1.01388
1.02134
1.02599
1.02926
1.03154
1.03325
1.03454
1.03556
1.0369
1.03956
1.04958
1.06656
1.11242
1.23995
1.53251
2.21429
2.51414
2.53609
2.51769
2.50654
2.48035
2.44791
2.42393
2.38064
2.33239
1.01385
1.0214
1.02593
1.02935
1.03145
1.03337
1.03441
1.0357
1.03661
1.03975
1.04497
1.06083
1.10066
1.1823
1.44918
2.09306
2.41667
2.50749
2.49669
2.48564
2.46788
2.43298
2.40407
2.37489
2.33228
1.01384
1.02139
1.02594
1.02933
1.03146
1.03335
1.03441
1.03563
1.03648
1.03881
1.04267
1.05552
1.08284
1.14845
1.32963
1.87569
2.30736
2.46433
2.47086
2.46625
2.45491
2.42854
2.39357
2.36068
2.32827
1.01411
1.02114
1.0262
1.02908
1.03171
1.03312
1.03464
1.03535
1.03654
1.03748
1.04142
1.04935
1.06784
1.12551
1.22958
1.58282
2.24172
2.40942
2.42844
2.42507
2.42121
2.4127
2.38878
2.35566
2.31915
1.01411
1.02115
1.02619
1.02909
1.03171
1.03313
1.03463
1.03537
1.03639
1.03715
1.03953
1.04639
1.0617
1.09511
1.20427
1.41659
2.01796
2.36362
2.41196
2.40758
2.39452
2.38074
2.37278
2.35141
2.31847
1.01403
1.02121
1.02612
1.02914
1.03165
1.03315
1.0346
1.03537
1.03634
1.03698
1.03853
1.04442
1.05398
1.08075
1.15492
1.30284
1.73541
2.23042
2.38211
2.38157
2.37429
2.3575
2.3362
2.32975
2.31345
1.01388
1.02136
1.02598
1.02929
1.03151
1.03329
1.03446
1.0355
1.03619
1.03699
1.03797
1.04222
1.04831
1.06972
1.11354
1.21572
1.51578
2.09947
2.31299
2.35731
2.35766
2.34738
2.32858
2.30318
2.29276
1.01381
1.02143
1.0259
1.02937
1.03143
1.03338
1.03437
1.0356
1.03609
1.03704
1.0377
1.04055
1.04483
1.06035
1.09027
1.16396
1.37505
1.92743
2.2279
2.31451
2.3241
2.32362
2.3161
2.2969
2.27546
1.01383
1.02141
1.02593
1.02934
1.03146
1.03336
1.03439
1.03557
1.03611
1.03693
1.03742
1.03872
1.04324
1.05108
1.07243
1.12652
1.247
1.55597
2.10772
2.27768
2.2896
2.29301
2.28891
2.28252
2.26723
1.01387
1.02137
1.02597
1.0293
1.0315
1.03331
1.03444
1.03553
1.03613
1.0369
1.03734
1.03844
1.04047
1.0479
1.06055
1.09612
1.18388
1.39273
1.88407
2.21541
2.27492
2.27063
2.26616
2.25363
2.24371
1.01398
1.02127
1.02607
1.0292
1.03159
1.03322
1.03454
1.03543
1.03623
1.03679
1.03735
1.03788
1.03932
1.04467
1.05257
1.07796
1.13361
1.26473
1.63148
2.0596
2.23548
2.25317
2.25277
2.24366
2.23196
1.014
1.02124
1.02609
1.02917
1.03163
1.03318
1.03457
1.03538
1.03627
1.03673
1.03737
1.03774
1.03862
1.04218
1.0472
1.06407
1.10132
1.17859
1.43099
1.93078
2.15544
2.22247
2.22513
2.22756
2.22404
1.01391
1.02134
1.026
1.02928
1.03152
1.03329
1.03447
1.0355
1.03616
1.03684
1.03725
1.0378
1.03832
1.04047
1.04379
1.05547
1.07729
1.13514
1.27871
1.68371
2.04491
2.18614
2.20427
2.20506
2.20883
1.01388
1.02137
1.02597
1.0293
1.0315
1.03331
1.03444
1.03552
1.03613
1.03687
1.03721
1.0378
1.03816
1.03944
1.04149
1.04935
1.06179
1.1011
1.18127
1.42249
1.85257
2.121
2.18737
2.19463
2.20033
1.01388
1.02136
1.02598
1.02929
1.03151
1.0333
1.03445
1.03551
1.03615
1.03685
1.03723
1.03776
1.03803
1.03872
1.04007
1.04521
1.05326
1.07765
1.13453
1.26207
1.6003
1.9812
2.14177
2.18188
2.20241
1.01396
1.02128
1.02605
1.02921
1.03158
1.03322
1.03453
1.03543
1.03623
1.03677
1.03731
1.03766
1.03806
1.03838
1.03924
1.04259
1.04732
1.06296
1.09781
1.17001
1.40063
1.85282
2.07464
2.15382
2.19689
1.01399
1.02126
1.02608
1.02919
1.03161
1.0332
1.03455
1.03541
1.03625
1.03675
1.03733
1.03763
1.03808
1.03831
1.03897
1.04025
1.0446
1.05271
1.07369
1.12793
1.24655
1.55048
1.96241
2.13748
2.21159
1.01389
1.02135
1.02598
1.02929
1.03151
1.0333
1.03446
1.0355
1.03615
1.03684
1.03724
1.03773
1.03797
1.03838
1.03866
1.03976
1.04173
1.04815
1.06029
1.09369
1.16814
1.37858
1.76943
2.09268
2.25666
1.01388
1.02136
1.02597
1.02929
1.0315
1.0333
1.03445
1.0355
1.03615
1.03684
1.03723
1.03773
1.03796
1.03836
1.03855
1.03907
1.04092
1.04411
1.05368
1.07373
1.125
1.24446
1.59633
2.00655
2.32926
1.01395
1.02129
1.02604
1.02923
1.03157
1.03323
1.03451
1.03544
1.03621
1.03679
1.03729
1.03767
1.03802
1.0383
1.03856
1.0389
1.04031
1.04251
1.05004
1.06518
1.10037
1.2043
1.41635
1.96662
2.45726
1.01394
1.0213
1.02603
1.02924
1.03156
1.03325
1.0345
1.03546
1.03619
1.03681
1.03726
1.0377
1.03799
1.03833
1.0385
1.03885
1.03965
1.04272
1.04711
1.06294
1.09354
1.17456
1.38631
2.01284
2.53645
1.01396
1.02128
1.02606
1.02921
1.03158
1.03323
1.03452
1.03544
1.03621
1.03678
1.03728
1.03767
1.03801
1.0383
1.03852
1.03878
1.0395
1.04221
1.04641
1.06022
1.09104
1.16513
1.37351
1.98215
2.61646
1.01396
1.02128
1.02606
1.0292
1.03159
1.03321
1.03454
1.03541
1.03625
1.03674
1.03733
1.03762
1.03806
1.03824
1.0386
1.0388
1.03968
1.04144
1.04563
1.05919
1.08239
1.17425
1.33588
1.84743
2.74077
1.01396
1.02127
1.02606
1.0292
1.03159
1.03321
1.03454
1.03542
1.03622
1.03677
1.0373
1.03767
1.03802
1.0383
1.03853
1.03877
1.03944
1.04208
1.04588
1.05957
1.08725
1.15801
1.35549
1.93674
2.68115
1.01396
1.02127
1.02606
1.0292
1.03159
1.03321
1.03453
1.03542
1.03622
1.03677
1.03729
1.03767
1.03802
1.0383
1.03852
1.03876
1.03942
1.04216
1.04574
1.06018
1.08588
1.15989
1.34787
1.94594
2.67726
1.01394
1.02129
1.02604
1.02922
1.03158
1.03322
1.03454
1.03542
1.03624
1.03676
1.03731
1.03766
1.03803
1.03829
1.03853
1.03876
1.0394
1.04194
1.0456
1.05911
1.08578
1.15799
1.34948
1.95192
2.67466
1.01392
1.02131
1.02603
1.02923
1.03157
1.03323
1.03453
1.03542
1.03624
1.03676
1.03732
1.03765
1.03803
1.03828
1.03853
1.03876
1.03937
1.04183
1.04533
1.05866
1.08434
1.15663
1.34314
1.97021
2.65672
1.01394
1.0213
1.02604
1.02923
1.03157
1.03323
1.03452
1.03543
1.03622
1.03677
1.03731
1.03764
1.03805
1.03826
1.03859
1.03877
1.03946
1.04106
1.0445
1.05709
1.07793
1.16507
1.32332
1.85913
2.76864
1.01391
1.02133
1.02601
1.02927
1.03154
1.03327
1.03449
1.03547
1.0362
1.0368
1.03729
1.03767
1.03803
1.03828
1.03855
1.03877
1.03925
1.041
1.04486
1.05455
1.08527
1.14714
1.34824
1.95977
2.67225
1.01395
1.02129
1.02605
1.02922
1.03158
1.03322
1.03453
1.03543
1.03623
1.03676
1.03731
1.03765
1.03804
1.03826
1.03858
1.03877
1.03941
1.04072
1.04418
1.0555
1.07735
1.15924
1.32087
1.87162
2.85486
1.01394
1.02129
1.02604
1.02922
1.03157
1.03322
1.03453
1.03543
1.03623
1.03676
1.03731
1.03765
1.03804
1.03826
1.03857
1.03876
1.03936
1.04063
1.04384
1.05504
1.0758
1.15834
1.31944
1.89179
2.93049
1.00578
1.01324
1.02094
1.02857
1.0351
1.04119
1.04633
1.05174
1.0586
1.07663
1.10963
1.19058
1.41232
2.00761
2.77349
2.68081
2.73448
2.66492
2.66538
2.64843
2.6246
2.63009
2.59493
2.52952
2.35333
1.00579
1.01323
1.02095
1.02856
1.03511
1.04118
1.04633
1.05164
1.05827
1.0754
1.10643
1.18294
1.39231
1.94207
2.75463
2.69019
2.70829
2.66152
2.64899
2.62651
2.59456
2.58802
2.55123
2.47443
2.30705
1.00632
1.01269
1.02149
1.02802
1.03566
1.0406
1.04693
1.05085
1.05865
1.07118
1.10334
1.18378
1.34472
1.8269
2.76017
2.70743
2.68766
2.65235
2.64081
2.61738
2.56772
2.54917
2.50946
2.44298
2.31011
1.00606
1.01296
1.02122
1.02828
1.03539
1.04085
1.04663
1.05098
1.05761
1.06931
1.09899
1.1726
1.31465
1.77639
2.7366
2.71362
2.66548
2.63341
2.62336
2.60244
2.54853
2.51634
2.47542
2.42591
2.31881
1.0063
1.01272
1.02145
1.02806
1.03559
1.04068
1.04672
1.05088
1.05717
1.06792
1.09606
1.1434
1.32793
1.67409
2.58955
2.70268
2.64659
2.63246
2.61306
2.59174
2.53397
2.48986
2.44583
2.40835
2.33099
1.00575
1.01327
1.0209
1.02861
1.03504
1.04122
1.04617
1.05136
1.05672
1.06894
1.08971
1.14293
1.28896
1.60572
2.48049
2.66958
2.65723
2.62461
2.59672
2.57844
2.5297
2.47427
2.42301
2.39273
2.33144
1.00563
1.01339
1.02078
1.02873
1.03493
1.04133
1.04605
1.05137
1.05615
1.0669
1.08461
1.131
1.25268
1.5172
2.31044
2.61782
2.65913
2.63011
2.58623
2.56337
2.52278
2.46717
2.40451
2.37391
2.32921
1.00564
1.01338
1.0208
1.02871
1.03495
1.04131
1.04604
1.05128
1.05558
1.06418
1.07958
1.11575
1.2173
1.41704
2.10302
2.5403
2.64096
2.62166
2.57528
2.55309
2.51599
2.46753
2.3972
2.35654
2.32339
1.0055
1.01352
1.02066
1.02885
1.03481
1.04145
1.04589
1.05134
1.05496
1.06229
1.07431
1.10482
1.18151
1.33742
1.76948
2.51117
2.60872
2.59144
2.56073
2.5323
2.50594
2.46744
2.39982
2.34279
2.31174
1.00582
1.01319
1.02098
1.02852
1.03515
1.04109
1.04625
1.05084
1.05517
1.0605
1.07294
1.09514
1.151
1.30094
1.65222
2.43774
2.58568
2.5746
2.54635
2.51901
2.48834
2.46286
2.40605
2.34409
2.30085
1.00559
1.01343
1.02075
1.02875
1.03491
1.04132
1.04602
1.05103
1.05479
1.05981
1.06837
1.08881
1.1267
1.25891
1.50609
2.2397
2.52483
2.56409
2.54166
2.50598
2.47685
2.45512
2.41507
2.34973
2.30123
1.00565
1.01336
1.02081
1.02868
1.03497
1.04126
1.04605
1.05098
1.05463
1.05921
1.06523
1.08323
1.11542
1.19856
1.41453
2.03935
2.43505
2.54188
2.52936
2.50469
2.45867
2.43928
2.4135
2.36059
2.3057
1.00584
1.01318
1.021
1.02851
1.03515
1.04109
1.04622
1.05079
1.05471
1.05859
1.06357
1.07649
1.10057
1.16136
1.31023
1.80948
2.30191
2.50256
2.50494
2.49527
2.45915
2.42126
2.4036
2.3691
2.3135
1.00505
1.01398
1.0202
1.0293
1.03437
1.04186
1.04546
1.0515
1.05396
1.05894
1.06189
1.07124
1.08924
1.14144
1.22658
1.57178
2.28533
2.43513
2.47665
2.47401
2.45745
2.41592