/*--------------------------------*- C++ -*----------------------------------*\
  =========                 |
  \\      /  F ield         | OpenFOAM: The Open Source CFD Toolbox
   \\    /   O peration     | Website:  https://openfoam.org
    \\  /    A nd           | Version:  6
     \\/     M anipulation  |
\*---------------------------------------------------------------------------*/
FoamFile
{
    version     2.0;
    format      ascii;
    class       volVectorField;
    location    "6";
    object      U;
}
// * * * * * * * * * * * * * * * * * * * * * * * * * * * * * * * * * * * * * //

dimensions      [0 1 -1 0 0 0 0];

internalField   nonuniform List<vector> 
26250
(
(3.01561 7.77583e-08 -0.057965)
(3.02577 3.73287e-07 -0.0597745)
(3.03427 2.72786e-07 -0.0611215)
(3.0414 9.03032e-07 -0.062279)
(3.04763 1.22316e-07 -0.0631506)
(3.05271 1.22957e-06 -0.0640273)
(3.05726 -3.25264e-07 -0.0645772)
(3.05988 3.4846e-06 -0.0654516)
(3.0583 8.31096e-06 -0.0660342)
(3.05553 3.03569e-05 -0.0677048)
(3.03512 6.04937e-05 -0.0703723)
(2.99673 0.000193182 -0.0789063)
(2.84824 0.000437186 -0.0948051)
(2.42278 0.00131579 -0.142657)
(1.39111 0.00337522 -0.242401)
(0.604305 0.00682258 -0.278418)
(0.726852 0.00950277 -0.259247)
(0.887867 0.0133254 -0.251111)
(0.974561 0.0179047 -0.254796)
(0.958531 0.0244536 -0.260255)
(0.941389 0.0252465 -0.261291)
(0.886419 0.0206971 -0.263857)
(0.753293 0.0122464 -0.267832)
(0.509198 0.010073 -0.268934)
(0.297076 0.00563099 -0.263115)
(3.01561 1.02111e-06 -0.0579653)
(3.02577 1.25838e-06 -0.0597742)
(3.03427 1.32171e-06 -0.0611218)
(3.0414 2.41315e-06 -0.0622786)
(3.04763 5.72429e-08 -0.0631509)
(3.05271 3.4972e-06 -0.064027)
(3.05726 -1.94109e-06 -0.0645772)
(3.05989 1.26415e-05 -0.0654511)
(3.05833 3.08187e-05 -0.0660327)
(3.05558 0.00010541 -0.0677007)
(3.03525 0.000208256 -0.0703557)
(2.99705 0.000588073 -0.0788812)
(2.8491 0.0012962 -0.0947206)
(2.42545 0.00340746 -0.142485)
(1.3995 0.00895708 -0.242177)
(0.611383 0.0153966 -0.277633)
(0.734349 0.0236475 -0.258391)
(0.89547 0.0362611 -0.249818)
(0.98172 0.0462616 -0.253453)
(0.983253 0.0538234 -0.256826)
(0.953578 0.0562545 -0.259389)
(0.893038 0.0504045 -0.262282)
(0.769435 0.037682 -0.264991)
(0.542301 0.035302 -0.26682)
(0.342478 0.0342948 -0.26114)
(3.01561 6.53487e-06 -0.0579658)
(3.02577 -1.00103e-07 -0.0597735)
(3.03428 3.69725e-06 -0.0611224)
(3.04139 -1.39635e-06 -0.062278)
(3.04763 -4.61842e-08 -0.0631513)
(3.0527 -4.15518e-07 -0.0640266)
(3.05727 -3.48299e-06 -0.0645769)
(3.0599 2.54023e-05 -0.0654497)
(3.05838 6.48798e-05 -0.0660291)
(3.05568 0.000336851 -0.0676882)
(3.0355 0.000688847 -0.0703305)
(2.99765 0.00166079 -0.0788)
(2.85034 0.00322236 -0.0945336)
(2.42865 0.00725024 -0.142163)
(1.40344 0.0161431 -0.241845)
(0.582644 0.0376151 -0.278164)
(0.714724 0.0519203 -0.258795)
(0.883305 0.0644529 -0.250365)
(0.967704 0.0722566 -0.253981)
(0.968083 0.0761208 -0.257059)
(0.93321 0.0808259 -0.259883)
(0.865388 0.0822147 -0.262182)
(0.741916 0.0779276 -0.264312)
(0.515705 0.0769879 -0.265948)
(0.311772 0.0791684 -0.260284)
(3.01561 2.38359e-05 -0.0579692)
(3.02577 -8.46354e-06 -0.0597695)
(3.03427 1.20976e-05 -0.0611262)
(3.04139 -1.55567e-05 -0.0622736)
(3.04763 8.85626e-06 -0.0631555)
(3.0527 -2.49519e-05 -0.0640219)
(3.05728 2.02263e-05 -0.06458)
(3.05994 -6.11172e-05 -0.0654429)
(3.05858 -3.2219e-05 -0.0660215)
(3.05609 0.0012632 -0.0676851)
(3.03631 -0.00280869 -0.0701743)
(2.99934 0.0105231 -0.0786932)
(2.85284 -0.0101239 -0.0939791)
(2.44254 0.0401706 -0.141489)
(1.4201 0.029951 -0.240884)
(0.627808 0.0762356 -0.275935)
(0.74735 0.0952521 -0.256406)
(0.902971 0.104007 -0.2479)
(0.980689 0.109442 -0.252242)
(0.967523 0.115685 -0.256582)
(0.935083 0.121798 -0.258486)
(0.86614 0.127153 -0.260803)
(0.736725 0.129952 -0.262353)
(0.5055 0.129815 -0.263711)
(0.294726 0.126933 -0.259464)
(3.01561 7.14334e-06 -0.0580027)
(3.02576 -8.01895e-07 -0.0597317)
(3.03427 3.95561e-06 -0.0611643)
(3.04139 -2.69442e-06 -0.0622322)
(3.04762 1.71895e-07 -0.0631977)
(3.05271 -1.15261e-06 -0.0639751)
(3.05724 -2.85509e-06 -0.06463)
(3.05986 3.69007e-05 -0.0653787)
(3.05947 8.9311e-05 -0.0661276)
(3.05334 0.000476332 -0.0676372)
(3.04263 0.000979179 -0.0696035)
(2.99176 0.00261339 -0.0791383)
(2.86405 0.00567373 -0.0919804)
(2.48476 0.0143664 -0.146305)
(1.44893 0.037027 -0.23268)
(0.671904 0.0884031 -0.272636)
(0.777374 0.116487 -0.253219)
(0.924005 0.128363 -0.244143)
(0.997621 0.139592 -0.248378)
(0.990389 0.152499 -0.25202)
(0.954886 0.1644 -0.254301)
(0.883955 0.174039 -0.25665)
(0.750815 0.181852 -0.257966)
(0.514176 0.186384 -0.258966)
(0.296293 0.179878 -0.255699)
(3.01561 -1.61281e-06 -0.0579747)
(3.02576 1.10445e-06 -0.0597632)
(3.03427 2.40718e-07 -0.0611324)
(3.04139 2.84952e-07 -0.0622667)
(3.04763 3.47582e-06 -0.0631621)
(3.0527 -4.30104e-06 -0.0640143)
(3.05731 1.97587e-05 -0.0645841)
(3.06002 3.44347e-06 -0.0654293)
(3.05894 0.000203938 -0.0659977)
(3.05682 0.000427208 -0.0676395)
(3.03804 0.00108623 -0.0699146)
(3.00327 0.00218866 -0.07827)
(2.86138 0.00584056 -0.0926018)
(2.4752 0.0168494 -0.139069)
(1.48772 0.0453862 -0.235829)
(0.709707 0.109212 -0.27266)
(0.806328 0.143456 -0.252288)
(0.941801 0.159065 -0.241652)
(1.01569 0.174061 -0.24583)
(1.00954 0.191536 -0.249302)
(0.971784 0.208562 -0.251366)
(0.900707 0.222669 -0.253059)
(0.76756 0.236179 -0.253676)
(0.526785 0.248557 -0.254068)
(0.302304 0.244133 -0.250926)
(3.01561 -3.42909e-06 -0.0579986)
(3.02576 1.27674e-06 -0.0597363)
(3.03427 -5.32893e-06 -0.0611599)
(3.04139 6.79013e-06 -0.0622366)
(3.04761 -8.63851e-06 -0.0631937)
(3.05273 1.75634e-05 -0.0639771)
(3.05724 -9.49614e-06 -0.0646284)
(3.06001 6.54731e-05 -0.0653606)
(3.05982 0.000158563 -0.0661008)
(3.05407 0.000308071 -0.0675499)
(3.04408 0.0005424 -0.0694512)
(2.99574 0.00204304 -0.078569)
(2.87615 0.00554115 -0.0907275)
(2.51638 0.017384 -0.142118)
(1.53339 0.0566899 -0.225949)
(0.768425 0.131897 -0.268853)
(0.845641 0.17286 -0.249573)
(0.968718 0.191224 -0.238364)
(1.03829 0.209393 -0.242292)
(1.03353 0.230118 -0.245484)
(0.99384 0.252228 -0.247718)
(0.922923 0.272285 -0.248759)
(0.791013 0.29426 -0.248761)
(0.546372 0.319145 -0.248262)
(0.313736 0.326317 -0.244939)
(3.01561 -1.81309e-05 -0.0579782)
(3.02576 8.54215e-06 -0.0597594)
(3.03428 -1.36981e-05 -0.0611361)
(3.04139 2.2204e-05 -0.0622632)
(3.04764 -2.29223e-05 -0.0631646)
(3.0527 5.29518e-05 -0.0640123)
(3.05735 -5.654e-05 -0.0645821)
(3.06016 0.000194535 -0.0654205)
(3.05914 0.000160497 -0.0659734)
(3.05714 -0.000527519 -0.0675116)
(3.03948 0.00401733 -0.0698001)
(3.00729 -0.00538634 -0.0775208)
(2.87449 0.0208355 -0.091139)
(2.51325 -0.00674253 -0.135081)
(1.59834 0.0640435 -0.229171)
(0.8107 0.148607 -0.269002)
(0.870106 0.198767 -0.248606)
(0.982872 0.219132 -0.235635)
(1.05507 0.241175 -0.239255)
(1.05225 0.266895 -0.242281)
(1.01407 0.294931 -0.244155)
(0.946776 0.322477 -0.244459)
(0.820409 0.356159 -0.243573)
(0.575414 0.401087 -0.242145)
(0.334857 0.436856 -0.237194)
(3.01561 -1.54796e-05 -0.0579784)
(3.02576 2.90943e-06 -0.0597591)
(3.03428 -3.22904e-06 -0.0611362)
(3.04139 -4.27983e-07 -0.0622633)
(3.04764 9.54117e-06 -0.0631645)
(3.0527 -1.29699e-05 -0.0640126)
(3.05736 2.92151e-05 -0.0645802)
(3.06019 -4.898e-05 -0.0654181)
(3.05922 4.89622e-06 -0.0659535)
(3.0573 0.000514425 -0.0674376)
(3.04043 0.00122272 -0.0697262)
(3.00973 0.0040489 -0.077115)
(2.88358 0.00946941 -0.0902541)
(2.53395 0.0260219 -0.132692)
(1.67792 0.0715052 -0.224393)
(0.887693 0.176 -0.26593)
(0.910467 0.233749 -0.247399)
(1.00668 0.257292 -0.232536)
(1.07726 0.278707 -0.235862)
(1.07457 0.306594 -0.238697)
(1.039 0.33823 -0.239857)
(0.977663 0.37314 -0.239486)
(0.863054 0.421628 -0.237155)
(0.627511 0.496111 -0.234697)
(0.379378 0.593361 -0.226722)
(3.01562 1.93664e-05 -0.0579464)
(3.02577 -1.63654e-05 -0.0597935)
(3.03427 1.9744e-05 -0.0611024)
(3.0414 -3.92961e-05 -0.0622973)
(3.04763 4.52142e-05 -0.0631323)
(3.05272 -8.80413e-05 -0.0640426)
(3.05733 0.000124919 -0.0645542)
(3.06014 -0.000208447 -0.065439)
(3.05961 0.000336857 -0.0659116)
(3.05815 0.00168493 -0.0673756)
(3.04233 -0.000889015 -0.0693551)
(3.01424 0.0120641 -0.0768705)
(2.89192 -0.00354551 -0.0884456)
(2.56468 0.0597073 -0.13124)
(1.73511 0.0764341 -0.220649)
(0.967709 0.207856 -0.262464)
(0.959474 0.268357 -0.245587)
(1.03723 0.298244 -0.229585)
(1.10447 0.317902 -0.23255)
(1.10297 0.346516 -0.23521)
(1.0724 0.380046 -0.235615)
(1.02123 0.422375 -0.23424)
(0.9283 0.491687 -0.230147)
(0.728661 0.612582 -0.224245)
(0.472158 0.847797 -0.210929)
(2.98855 -2.33738e-07 -0.00143188)
(2.98291 3.72246e-07 -0.00328811)
(2.97953 1.2958e-07 -0.0049294)
(2.97738 9.3284e-07 -0.00644572)
(2.97597 2.86631e-07 -0.00768211)
(2.975 1.16196e-06 -0.00889632)
(2.97412 4.27799e-07 -0.00974086)
(2.97254 1.85163e-06 -0.0108095)
(2.96728 7.84773e-06 -0.0112827)
(2.95723 2.29132e-05 -0.0121694)
(2.92398 7.26023e-05 -0.0136965)
(2.85108 0.000160143 -0.0167275)
(2.63924 0.000441305 -0.0236106)
(1.96654 0.00118202 -0.0375928)
(0.462692 0.00330209 -0.0650621)
(-0.506839 0.0106972 -0.0643013)
(0.0200956 0.0184465 -0.0603727)
(0.427813 0.0281307 -0.0583081)
(0.508914 0.0420295 -0.0610082)
(0.407407 0.0666625 -0.0613119)
(0.389096 0.0679372 -0.0632175)
(0.294905 0.0564563 -0.0636297)
(0.102085 0.0474167 -0.0638184)
(0.0126046 0.0416005 -0.0609203)
(0.16733 0.0181865 -0.0549406)
(2.98855 3.99316e-07 -0.00143181)
(2.98291 1.12004e-06 -0.00328818)
(2.97953 1.1258e-06 -0.00492935)
(2.97738 2.29377e-06 -0.00644586)
(2.97597 1.13941e-06 -0.00768205)
(2.975 2.85785e-06 -0.00889635)
(2.97412 1.39136e-06 -0.00974094)
(2.97255 8.04312e-06 -0.010809)
(2.96729 2.86508e-05 -0.0112847)
(2.95728 9.60144e-05 -0.0121612)
(2.92409 0.000217162 -0.013721)
(2.8514 0.000658273 -0.0166876)
(2.63997 0.00148461 -0.0236897)
(1.96902 0.00443713 -0.0376146)
(0.470455 0.0117973 -0.0652036)
(-0.480691 0.0203143 -0.0640469)
(0.0323019 0.0451707 -0.0600017)
(0.438397 0.069681 -0.0580187)
(0.526675 0.090526 -0.0606965)
(0.466822 0.121127 -0.0621596)
(0.405619 0.119325 -0.0626537)
(0.300693 0.1102 -0.0622233)
(0.130432 0.104282 -0.0622459)
(0.0156782 0.10709 -0.0601509)
(0.196466 0.0728411 -0.0543561)
(2.98855 3.42657e-06 -0.00143199)
(2.98291 1.38912e-06 -0.00328815)
(2.97953 3.00234e-06 -0.00492937)
(2.97738 1.49473e-06 -0.00644591)
(2.97597 1.3013e-06 -0.00768174)
(2.975 2.04818e-06 -0.00889691)
(2.97413 1.08723e-06 -0.00973983)
(2.97256 1.64443e-05 -0.0108113)
(2.96735 5.97175e-05 -0.0112821)
(2.95738 0.000199984 -0.0121716)
(2.92443 0.000421376 -0.0136895)
(2.85217 0.00131905 -0.0167247)
(2.64209 0.00274557 -0.0235888)
(1.97511 0.00819022 -0.037446)
(0.475015 0.021168 -0.0650806)
(-0.535772 0.0541453 -0.0627138)
(0.025599 0.0894104 -0.0597942)
(0.437184 0.118985 -0.057895)
(0.52265 0.135408 -0.0606126)
(0.469407 0.143303 -0.062357)
(0.400426 0.159116 -0.0623291)
(0.295993 0.171628 -0.0611855)
(0.136489 0.17927 -0.060649)
(0.0117687 0.187293 -0.0587209)
(0.175391 0.14438 -0.0531575)
(2.98855 1.057e-05 -0.00143299)
(2.98291 6.35467e-07 -0.0032869)
(2.97953 7.76734e-06 -0.00493005)
(2.97738 -1.66152e-06 -0.00644489)
(2.97597 4.7577e-06 -0.00768243)
(2.975 -2.13804e-06 -0.00889622)
(2.97414 8.0345e-06 -0.00974017)
(2.9726 4.01724e-05 -0.0108127)
(2.96745 0.000219803 -0.0112848)
(2.95757 0.000270038 -0.0121841)
(2.92497 0.00168487 -0.0137324)
(2.85329 0.00175595 -0.016715)
(2.64509 0.0064876 -0.023657)
(1.98293 0.0144202 -0.037462)
(0.499577 0.0306049 -0.0649245)
(-0.46241 0.0916064 -0.0635566)
(0.0537726 0.133628 -0.0592573)
(0.446888 0.166497 -0.056977)
(0.512421 0.187237 -0.0598827)
(0.420647 0.2091 -0.0609457)
(0.377692 0.226519 -0.0617612)
(0.282199 0.246683 -0.060328)
(0.136266 0.263752 -0.0592298)
(0.00979408 0.271461 -0.057005)
(0.155264 0.218597 -0.0515998)
(2.98855 3.44498e-06 -0.00143655)
(2.98291 1.02213e-06 -0.00328211)
(2.97953 2.4799e-06 -0.00493312)
(2.97738 8.18749e-07 -0.00644111)
(2.97597 1.90973e-07 -0.00768618)
(2.975 2.67628e-06 -0.00889096)
(2.97416 1.1653e-06 -0.00974727)
(2.97275 3.12422e-05 -0.0107957)
(2.96755 0.000113943 -0.011281)
(2.95856 0.000392999 -0.0123186)
(2.92593 0.000846984 -0.0131406)
(2.85539 0.00272538 -0.0181231)
(2.65123 0.00606229 -0.0209903)
(1.99259 0.0186391 -0.0411043)
(0.497478 0.052102 -0.0633839)
(-0.4395 0.122721 -0.0640919)
(0.0731473 0.174831 -0.0589111)
(0.458562 0.213316 -0.0561581)
(0.518481 0.24447 -0.0589935)
(0.443924 0.275283 -0.0607084)
(0.380093 0.296888 -0.0608428)
(0.286216 0.321698 -0.0593013)
(0.148393 0.346536 -0.0577334)
(0.0162081 0.355359 -0.0549828)
(0.141253 0.295848 -0.0496423)
(2.98855 -1.02763e-06 -0.00143457)
(2.98291 2.61918e-07 -0.00328517)
(2.97953 -7.10683e-07 -0.00493118)
(2.97738 7.4289e-07 -0.00644344)
(2.97597 -1.47754e-07 -0.00768318)
(2.975 3.17603e-06 -0.00889563)
(2.97416 3.98511e-06 -0.00973931)
(2.97269 3.79559e-05 -0.0108167)
(2.96775 0.000126813 -0.0112802)
(2.95817 0.000474635 -0.0121958)
(2.92683 0.00105453 -0.0137219)
(2.85769 0.00329479 -0.0166554)
(2.65729 0.00801255 -0.0234758)
(2.02089 0.0244438 -0.0366741)
(0.580205 0.0699559 -0.0641823)
(-0.382806 0.157076 -0.0637349)
(0.0961593 0.216214 -0.0584265)
(0.47241 0.260108 -0.0551024)
(0.527207 0.299683 -0.058043)
(0.451032 0.343178 -0.059873)
(0.385282 0.368504 -0.0598378)
(0.297555 0.397282 -0.0580475)
(0.1703 0.42892 -0.0560146)
(0.0314091 0.443067 -0.052828)
(0.132046 0.384209 -0.0472712)
(2.98855 -3.90012e-06 -0.00143682)
(2.98291 6.22239e-07 -0.00328204)
(2.97953 -4.17675e-06 -0.00493345)
(2.97738 3.12818e-06 -0.00644053)
(2.97597 -3.75795e-06 -0.00768687)
(2.975 8.00764e-06 -0.00888935)
(2.97419 2.16056e-06 -0.0097499)
(2.97285 4.22628e-05 -0.010791)
(2.9679 0.000154861 -0.0112932)
(2.95933 0.000558675 -0.0122903)
(2.9282 0.00123072 -0.0131024)
(2.86144 0.00411949 -0.0179123)
(2.6677 0.00978058 -0.0206228)
(2.04653 0.030946 -0.0395508)
(0.6133 0.0895847 -0.0622229)
(-0.317408 0.189403 -0.0641924)
(0.124615 0.256402 -0.05817)
(0.487896 0.305377 -0.0542263)
(0.539814 0.352133 -0.0570679)
(0.468179 0.403157 -0.058991)
(0.397898 0.438169 -0.0588155)
(0.317391 0.473914 -0.0567209)
(0.202841 0.513788 -0.0541245)
(0.0582918 0.538338 -0.0503443)
(0.128834 0.49087 -0.0443762)
(2.98855 -1.14247e-05 -0.00143474)
(2.98291 2.44624e-06 -0.00328526)
(2.97953 -9.3803e-06 -0.00493058)
(2.97738 8.70236e-06 -0.00644493)
(2.97597 -8.80476e-06 -0.00768045)
(2.975 1.60909e-05 -0.00890015)
(2.97419 -5.8402e-06 -0.00973272)
(2.97281 2.93325e-05 -0.0108265)
(2.96817 4.91574e-05 -0.0112709)
(2.95908 0.000648566 -0.0121455)
(2.92974 0.000471906 -0.0135868)
(2.86524 0.00484222 -0.0163818)
(2.67843 0.00974857 -0.0228552)
(2.09213 0.032879 -0.0345854)
(0.72641 0.10579 -0.0630236)
(-0.24065 0.224864 -0.063601)
(0.158604 0.29826 -0.0576993)
(0.506839 0.349546 -0.0530569)
(0.555728 0.401745 -0.0559101)
(0.488106 0.45868 -0.0576638)
(0.419265 0.505794 -0.0574352)
(0.346415 0.551417 -0.0552753)
(0.246725 0.602686 -0.0521374)
(0.10042 0.644763 -0.0477513)
(0.135403 0.624819 -0.0411042)
(2.98856 -6.78466e-06 -0.00143422)
(2.98291 1.54672e-06 -0.00328582)
(2.97954 -5.93693e-06 -0.00493034)
(2.97738 4.12444e-06 -0.00644565)
(2.97598 -4.68798e-06 -0.0076796)
(2.975 6.26545e-06 -0.00890155)
(2.97421 3.36132e-06 -0.00973041)
(2.97289 3.58712e-05 -0.0108268)
(2.96842 0.000190362 -0.0112645)
(2.95974 0.000660276 -0.012098)
(2.93135 0.00218213 -0.0135408)
(2.87041 0.00461446 -0.0161756)
(2.69019 0.0149064 -0.0226147)
(2.13302 0.0336149 -0.0335278)
(0.830602 0.108988 -0.0624905)
(-0.13054 0.255009 -0.063709)
(0.207471 0.339657 -0.0569527)
(0.528828 0.394693 -0.0519283)
(0.575107 0.450089 -0.0548175)
(0.513106 0.511652 -0.0563911)
(0.449392 0.57076 -0.0559474)
(0.386374 0.627291 -0.0536307)
(0.305692 0.694115 -0.0500685)
(0.167082 0.766208 -0.0448989)
(0.158998 0.800289 -0.0371879)
(2.98856 1.31735e-05 -0.00143227)
(2.98291 1.48998e-06 -0.00328722)
(2.97954 2.24847e-06 -0.00493128)
(2.97738 3.95323e-06 -0.00644248)
(2.97598 -1.16291e-05 -0.00768581)
(2.97501 1.88998e-05 -0.00889124)
(2.97421 -4.34137e-05 -0.00974308)
(2.97297 9.44258e-05 -0.0108031)
(2.9687 -7.47039e-05 -0.0112475)
(2.96076 0.00169427 -0.0121203)
(2.93299 -0.000533482 -0.0134786)
(2.87629 0.0128107 -0.0161866)
(2.70049 0.00246548 -0.0223592)
(2.17255 0.0535751 -0.0326762)
(0.925343 0.105034 -0.0617546)
(-0.0279348 0.281868 -0.0636249)
(0.260069 0.38079 -0.0561859)
(0.552482 0.440733 -0.0505967)
(0.596423 0.497042 -0.0534387)
(0.543098 0.561843 -0.0549866)
(0.487305 0.630152 -0.0543318)
(0.43805 0.699036 -0.0518653)
(0.385513 0.786536 -0.047794)
(0.274414 0.902862 -0.0422)
(0.213603 1.07441 -0.0336113)
(2.9951 4.26989e-07 9.34695e-07)
(2.98906 4.03186e-07 -4.5965e-07)
(2.98253 5.64398e-07 7.27167e-07)
(2.97637 5.26179e-07 -4.01108e-07)
(2.97072 6.69685e-08 4.00721e-07)
(2.96582 1.04027e-06 -1.84652e-07)
(2.96113 -7.73933e-07 1.12517e-07)
(2.9565 4.78165e-06 1.00243e-06)
(2.94871 -1.28648e-06 3.0759e-06)
(2.9351 6.17815e-05 6.15262e-06)
(2.89513 -3.64615e-05 1.08774e-05)
(2.80886 0.000326695 1.77729e-05)
(2.56771 6.51756e-05 -1.28183e-06)
(1.78294 0.000757973 -4.24592e-05)
(0.0641186 0.00145995 -0.000292876)
(-1.05137 0.017625 -0.000270454)
(-0.164422 0.0286382 6.63918e-05)
(0.301347 0.0387405 0.000309568)
(0.394923 0.0429808 0.000556226)
(0.301737 0.0421026 0.00116792)
(-0.144557 0.0627629 9.76001e-05)
(-0.10383 0.0686551 -0.00027718)
(-0.138724 0.0693629 -0.000221866)
(-0.0878913 0.0713216 -5.05487e-05)
(0.0931725 0.0609796 -0.000243777)
(2.9951 4.76207e-07 2.5201e-06)
(2.98906 5.55961e-07 -2.29766e-06)
(2.98253 7.901e-07 2.07291e-06)
(2.97637 1.00362e-06 -2.29762e-06)
(2.97072 6.31829e-07 2.06135e-06)
(2.96582 8.8201e-07 -2.13727e-06)
(2.96114 1.12718e-06 2.59842e-06)
(2.9565 4.06177e-06 3.46229e-06)
(2.94875 2.2626e-05 2.70778e-05)
(2.93507 7.66167e-05 -1.99567e-05)
(2.89531 0.000206707 0.000204253)
(2.80897 0.000560282 -0.000155775)
(2.56819 0.0013409 0.000339109)
(1.78256 0.00383501 -8.07979e-05)
(0.07138 0.0116581 -0.000914293)
(-1.03862 0.0449825 -0.000527144)
(-0.145601 0.0743832 0.000207854)
(0.312031 0.0970255 0.00017293)
(0.390601 0.102718 -0.000151199)
(0.274985 0.0958033 -0.000794893)
(-0.182209 0.124751 0.000118951)
(-0.124312 0.142932 0.000371774)
(-0.15786 0.151469 0.000188451)
(-0.105606 0.15864 5.71869e-05)
(0.0888821 0.14132 -2.97166e-05)
(2.9951 6.84769e-07 1.5275e-06)
(2.98906 7.94637e-07 -1.11563e-06)
(2.98253 9.12936e-07 1.11248e-06)
(2.97637 1.20303e-06 -1.15294e-06)
(2.97072 3.39308e-07 7.72383e-07)
(2.96582 9.16771e-07 -7.60222e-07)
(2.96114 1.46192e-06 3.62574e-07)
(2.95652 7.33679e-06 1.39825e-06)
(2.94877 4.21721e-05 3.73044e-06)
(2.93525 0.000148214 8.0713e-06)
(2.89553 0.000394213 1.02001e-05)
(2.80984 0.00109523 2.59653e-05)
(2.57016 0.00264473 -1.8393e-05)
(1.79133 0.00771451 -6.86992e-05)
(0.0911099 0.0229917 -0.000383291)
(-1.00988 0.0639967 0.000245335)
(-0.129249 0.115015 -9.70452e-06)
(0.321094 0.154159 -8.43517e-05)
(0.380392 0.169689 -0.000411257)
(0.264318 0.16594 -0.000916321)
(-0.185163 0.204036 0.000107749)
(-0.11739 0.22825 0.000466861)
(-0.158192 0.244164 0.000406432)
(-0.113254 0.256129 0.000194065)
(0.0763189 0.232554 0.000223436)
(2.9951 9.78266e-07 2.3544e-06)
(2.98906 1.14306e-06 -2.13741e-06)
(2.98253 8.90889e-07 1.90268e-06)
(2.97637 1.17558e-06 -2.19121e-06)
(2.97072 -9.49808e-07 1.83463e-06)
(2.96582 2.09021e-06 -2.08856e-06)
(2.96114 -5.19998e-07 2.25951e-06)
(2.95653 1.84423e-05 2.4157e-06)
(2.94887 4.99545e-05 2.30558e-05)
(2.93537 0.000317864 -2.55217e-05)
(2.89608 0.000429472 0.000190833)
(2.81093 0.00210495 -0.000183371)
(2.5732 0.00367185 0.000321761)
(1.79971 0.0121195 -0.000114862)
(0.110604 0.0346414 -0.000757789)
(-0.98109 0.0926754 0.000212135)
(-0.11258 0.15833 3.903e-05)
(0.332689 0.209292 -6.70755e-05)
(0.373743 0.235695 -5.06116e-05)
(0.268819 0.237934 0.000297806)
(-0.173042 0.287661 6.26905e-05)
(-0.0993712 0.31344 0.000169898)
(-0.147314 0.336573 0.000300319)
(-0.114 0.351562 0.000230039)
(0.0666398 0.322514 0.000261941)
(2.9951 -7.52882e-07 1.03892e-06)
(2.98906 4.28737e-07 -8.10495e-07)
(2.98253 -8.68641e-07 7.09584e-07)
(2.97637 6.43937e-07 -8.27073e-07)
(2.97072 -1.07224e-06 4.60496e-07)
(2.96582 1.54648e-06 -4.82268e-07)
(2.96115 2.91406e-06 -2.81002e-08)
(2.95656 1.85479e-05 6.72946e-09)
(2.94901 9.07165e-05 -1.84546e-06)
(2.93558 0.000359922 -1.3417e-08)
(2.89691 0.000857726 -1.2511e-05)
(2.81274 0.00268123 -1.30369e-05)
(2.57824 0.00629821 -4.68394e-05)
(1.81518 0.0193711 -7.38424e-05)
(0.146968 0.0574841 -0.000276676)
(-0.936378 0.13639 0.00013273)
(-0.0870488 0.208261 6.84325e-05)
(0.345744 0.265135 -3.16326e-05)
(0.369064 0.301067 -8.9932e-05)
(0.269605 0.31491 -0.000157293)
(-0.129699 0.366824 -3.00891e-05)
(-0.0769154 0.397118 1.76549e-05)
(-0.12813 0.427655 0.000175628)
(-0.109407 0.445808 0.000234065)
(0.0597496 0.41337 0.000254475)
(2.9951 -3.12945e-06 1.24822e-06)
(2.98906 -2.97542e-08 -1.25605e-06)
(2.98253 -2.81352e-06 1.1183e-06)
(2.97637 5.73435e-07 -1.3429e-06)
(2.97073 -6.45082e-07 1.47584e-06)
(2.96583 1.80904e-06 -1.70163e-06)
(2.96116 6.6546e-06 2.39878e-06)
(2.9566 2.18938e-05 1.8405e-06)
(2.94916 0.000120154 1.96038e-05)
(2.93602 0.000461385 -2.96696e-05)
(2.89798 0.00119938 0.000185488)
(2.81573 0.00360316 -0.00021327)
(2.58615 0.00893498 0.000346795)
(1.84462 0.0275506 -0.000134074)
(0.202893 0.0819002 -0.000575221)
(-0.875237 0.17771 0.000222445)
(-0.0570488 0.256362 6.57633e-05)
(0.36024 0.319494 -2.59524e-05)
(0.370391 0.364993 -4.68155e-05)
(0.27004 0.392773 2.60461e-05)
(-0.0689508 0.443146 -6.59918e-05)
(-0.0490075 0.48198 -3.22004e-05)
(-0.100522 0.520266 0.000111306)
(-0.0989361 0.544224 0.000213771)
(0.0557222 0.513126 0.000237215)
(2.9951 -4.50474e-06 -1.34504e-06)
(2.98906 4.80183e-08 1.8183e-06)
(2.98253 -3.73772e-06 -1.52665e-06)
(2.97637 7.73123e-07 2.35472e-06)
(2.97073 -1.43782e-07 -2.31609e-06)
(2.96583 1.57104e-06 2.98526e-06)
(2.96117 9.8712e-06 -3.28821e-06)
(2.95665 2.54302e-05 -2.23955e-06)
(2.94938 0.000147164 -2.09901e-05)
(2.93649 0.000580616 2.41965e-05)
(2.89952 0.00150836 -0.000194485)
(2.81956 0.00454906 0.000193028)
(2.59684 0.011279 -0.000376159)
(1.88146 0.0345814 0.000139146)
(0.272389 0.101932 0.000576714)
(-0.801607 0.21522 -0.000134662)
(-0.0247429 0.302539 -3.73889e-05)
(0.376028 0.372204 -6.13377e-05)
(0.377541 0.426767 -4.52454e-05)
(0.274429 0.469321 -2.99267e-05)
(-0.00297342 0.52033 -5.61527e-05)
(-0.0145548 0.568742 -2.69724e-05)
(-0.0625449 0.61604 9.20064e-05)
(-0.0800788 0.650701 0.0001975)
(0.0561818 0.627834 0.000217799)
(2.9951 -5.24441e-06 -7.07371e-07)
(2.98906 1.50724e-06 8.84371e-07)
(2.98253 -3.88561e-06 -6.50068e-07)
(2.97637 3.36917e-06 1.14805e-06)
(2.97073 -2.92236e-07 -6.90062e-07)
(2.96584 4.17415e-06 1.03385e-06)
(2.96118 1.08339e-05 -3.74297e-07)
(2.95672 3.177e-05 -5.66878e-07)
(2.94962 0.000166312 -8.48999e-07)
(2.93717 0.000698998 -3.03964e-06)
(2.90126 0.00167509 2.5089e-06)
(2.82434 0.00534408 -1.36062e-05)
(2.60966 0.0127863 3.45117e-05)
(1.92642 0.0394377 4.55373e-05)
(0.355404 0.117611 0.000206138)
(-0.716407 0.252608 0.000212457)
(0.010619 0.349504 -5.82964e-05)
(0.393646 0.424154 -8.07203e-05)
(0.390633 0.486245 -4.10973e-05)
(0.286274 0.541911 -3.56803e-05)
(0.0615238 0.599618 -4.08425e-05)
(0.0282988 0.654626 -1.90217e-05)
(-0.0117429 0.715963 7.95359e-05)
(-0.0490953 0.768389 0.000189819)
(0.0637592 0.76616 0.000199456)
(2.9951 -3.54159e-06 -1.72354e-07)
(2.98906 5.17602e-06 2.35154e-07)
(2.98253 -6.27243e-06 -4.80548e-08)
(2.97638 1.1413e-05 3.13455e-07)
(2.97073 -1.0921e-05 5.69712e-08)
(2.96584 1.9037e-05 2.13719e-07)
(2.96119 -3.13902e-06 1.00664e-07)
(2.95678 5.2525e-05 -1.23928e-07)
(2.94994 0.00024416 -3.60522e-07)
(2.93777 0.000802501 -1.1883e-06)
(2.90335 0.00207241 -2.54956e-07)
(2.82935 0.00572764 -6.75806e-06)
(2.62364 0.0143688 6.1411e-06)
(1.97468 0.041828 -1.63614e-05)
(0.460467 0.12568 1.78811e-05)
(-0.6075 0.287849 -7.14785e-05)
(0.0489847 0.397451 -2.34779e-05)
(0.411858 0.475782 -2.1875e-05)
(0.40762 0.543287 -2.27498e-05)
(0.306141 0.608971 -2.48606e-05)
(0.125093 0.67705 -3.0101e-05)
(0.0804956 0.741142 -2.38465e-05)
(0.0554524 0.818301 6.51102e-05)
(0.00694795 0.897867 0.000188481)
(0.0815196 0.938549 0.000177804)
(2.9951 6.66528e-06 2.88187e-07)
(2.98906 8.17485e-06 7.61291e-08)
(2.98253 -9.70499e-06 3.26539e-07)
(2.97637 2.73886e-05 8.47757e-08)
(2.97073 -4.57862e-05 1.0937e-07)
(2.96584 7.8967e-05 5.54676e-08)
(2.9612 -0.000110299 -2.15257e-07)
(2.95693 0.000258953 3.43877e-08)
(2.95025 2.88647e-05 -3.09982e-07)
(2.93872 0.00165548 -1.3352e-06)
(2.90529 -0.000654975 -2.41505e-06)
(2.83523 0.0127711 -5.70462e-06)
(2.63745 0.00349364 -9.43232e-06)
(2.02567 0.0544165 -1.11243e-05)
(0.579182 0.12152 -4.07509e-06)
(-0.472663 0.317972 -1.5439e-06)
(0.0939747 0.44555 2.05642e-05)
(0.430451 0.526458 2.06084e-05)
(0.42685 0.597101 -1.38731e-05)
(0.333376 0.670568 -2.33397e-05)
(0.189938 0.748276 -3.08004e-05)
(0.145792 0.824798 -2.15022e-05)
(0.142292 0.921696 3.74884e-05)
(0.101678 1.03997 0.000162009)
(0.120689 1.20407 0.000159602)
(2.98855 8.1032e-06 0.00143343)
(2.98291 -6.20871e-07 0.0032869)
(2.97953 5.86282e-06 0.0049305)
(2.97738 -2.97004e-06 0.0064447)
(2.97597 4.7647e-06 0.00768275)
(2.975 -4.47224e-06 0.00889583)
(2.97413 7.59299e-06 0.0097407)
(2.97256 2.05134e-05 0.0108126)
(2.96732 0.000150168 0.0112875)
(2.95729 1.8201e-05 0.0122016)
(2.92408 0.00113325 0.0137397)
(2.85101 5.00368e-05 0.0167921)
(2.63868 0.00266183 0.0236878)
(1.96026 0.00309619 0.0376703)
(0.446681 -0.00158534 0.0646534)
(-0.514331 -0.0023957 0.0636736)
(0.0157827 0.00980545 0.0601703)
(0.428848 0.0171374 0.0588372)
(0.528528 0.0105818 0.0614879)
(0.495633 -0.0173975 0.0630386)
(0.436446 -0.0151309 0.0631885)
(0.339039 0.000522761 0.0627549)
(0.193793 0.0200411 0.0623135)
(0.0636788 0.041753 0.0608049)
(0.173072 0.0492208 0.0552347)
(2.98855 3.44948e-06 0.00143715)
(2.98291 8.79517e-07 0.00328169)
(2.97953 2.80342e-06 0.00493377)
(2.97738 1.78948e-07 0.00644057)
(2.97597 8.97088e-07 0.00768691)
(2.975 -3.45788e-07 0.00888998)
(2.97415 -5.25717e-07 0.00974881)
(2.97268 8.10667e-06 0.0107942)
(2.96732 3.19664e-05 0.0112849)
(2.95807 0.000110131 0.0123499)
(2.92444 0.000228986 0.0131441)
(2.85148 0.000725117 0.0182897)
(2.64066 0.001459 0.0209719)
(1.95512 0.00422313 0.0413109)
(0.40494 0.0108297 0.0634288)
(-0.598449 0.0378416 0.0624766)
(0.00367642 0.0587826 0.060212)
(0.419448 0.0715024 0.0588297)
(0.493879 0.0688536 0.0613823)
(0.380646 0.0657158 0.0618769)
(0.365253 0.0706031 0.0634949)
(0.275502 0.0863467 0.0633056)
(0.10828 0.10583 0.06269)
(0.00863273 0.119813 0.0601367)
(0.155103 0.106674 0.0544019)
(2.98855 2.55723e-06 0.00143457)
(2.98291 1.34643e-06 0.00328563)
(2.97953 2.124e-06 0.00493123)
(2.97738 1.17307e-06 0.0064435)
(2.97597 -1.37929e-07 0.00768339)
(2.97499 8.48273e-07 0.008895)
(2.97414 -1.83831e-06 0.00974079)
(2.97258 8.10227e-06 0.0108136)
(2.9674 2.97187e-05 0.0112866)
(2.95745 0.000138618 0.0122206)
(2.92456 0.000282632 0.0137521)
(2.85195 0.00100291 0.0168388)
(2.64125 0.00232944 0.0237406)
(1.9659 0.00749095 0.0377957)
(0.463112 0.0223424 0.0643687)
(-0.49321 0.0731657 0.0631419)
(0.0356068 0.102644 0.0596144)
(0.432127 0.124751 0.0577986)
(0.494438 0.139018 0.0604975)
(0.392313 0.162553 0.0613214)
(0.36055 0.162167 0.0626729)
(0.26326 0.164018 0.0623269)
(0.0819997 0.182446 0.0618085)
(-0.0120571 0.198406 0.0587772)
(0.138287 0.166737 0.0533179)
(2.98855 8.06412e-06 0.00143794)
(2.98291 -3.23745e-07 0.003281)
(2.97953 4.81703e-06 0.00493411)
(2.97738 -2.93746e-06 0.00644003)
(2.97597 1.91927e-06 0.00768673)
(2.975 -3.50138e-06 0.00889042)
(2.97415 4.60472e-06 0.00974643)
(2.97271 2.96971e-05 0.0107967)
(2.96743 0.000179703 0.0112704)
(2.95829 0.000185333 0.0123227)
(2.92518 0.00145367 0.01307)
(2.85328 0.00124151 0.0181416)
(2.64592 0.00559511 0.0208228)
(1.97254 0.0130139 0.041351)
(0.457193 0.0311226 0.0631462)
(-0.476171 0.0927262 0.0639974)
(0.0531118 0.13915 0.0594382)
(0.445243 0.172504 0.0570358)
(0.509471 0.197328 0.0596698)
(0.433715 0.223983 0.0615304)
(0.367355 0.233435 0.061788)
(0.265914 0.240162 0.060725)
(0.0950228 0.25925 0.0601306)
(-0.010292 0.275975 0.05716)
(0.138666 0.227114 0.0517032)
(2.98855 -2.26756e-06 0.0014383)
(2.98291 -2.60171e-07 0.00328042)
(2.97953 -2.70529e-06 0.00493432)
(2.97738 -6.20453e-08 0.00643957)
(2.97597 -2.4782e-06 0.00768701)
(2.975 2.00649e-06 0.00889038)
(2.97416 1.31091e-06 0.00974586)
(2.97274 2.82269e-05 0.0107997)
(2.96754 9.35857e-05 0.0112661)
(2.9585 0.000351763 0.0122965)
(2.92586 0.000774499 0.0130591)
(2.85505 0.00247384 0.0180103)
(2.65099 0.00596834 0.0208211)
(1.98851 0.0183645 0.0413357)
(0.492829 0.0539804 0.0629167)
(-0.437907 0.124081 0.064334)
(0.0732274 0.178188 0.0591362)
(0.455883 0.218336 0.0562734)
(0.513566 0.25133 0.0589515)
(0.430873 0.287308 0.0605448)
(0.371351 0.303472 0.0608866)
(0.274638 0.318629 0.0594318)
(0.119479 0.340282 0.0582992)
(-0.00147975 0.356174 0.0552726)
(0.138423 0.296373 0.0497223)
(2.98855 -1.33647e-05 0.00143753)
(2.98291 1.14707e-06 0.00328137)
(2.97953 -1.10138e-05 0.00493383)
(2.97738 6.57649e-06 0.00644019)
(2.97597 -8.41015e-06 0.00768699)
(2.975 1.2882e-05 0.0088897)
(2.97417 -3.20582e-06 0.00974845)
(2.97279 2.0946e-05 0.0107933)
(2.9677 1.21344e-05 0.0112786)
(2.95886 0.000495557 0.0123025)
(2.92687 9.55319e-05 0.0130613)
(2.85779 0.00375394 0.0179963)
(2.65823 0.00639939 0.0207028)
(2.01373 0.0248911 0.0406284)
(0.543933 0.0805535 0.0625365)
(-0.38514 0.157675 0.0643763)
(0.0969214 0.216027 0.0586796)
(0.470197 0.261275 0.0553224)
(0.525091 0.30343 0.0580369)
(0.450252 0.349042 0.059952)
(0.38021 0.373579 0.0598708)
(0.289931 0.397534 0.0581074)
(0.15152 0.42457 0.0564176)
(0.017714 0.441871 0.0531397)
(0.135049 0.381546 0.0473392)
(2.98855 -1.40576e-05 0.00143419)
(2.98291 1.26798e-06 0.0032861)
(2.97954 -1.23828e-05 0.00493018)
(2.97738 7.54282e-06 0.00644557)
(2.97597 -1.03038e-05 0.00768048)
(2.975 1.5626e-05 0.00889994)
(2.97417 -4.60189e-06 0.00973425)
(2.97274 2.46725e-05 0.0108252)
(2.96792 3.24221e-05 0.0112855)
(2.95859 0.000585167 0.0121453)
(2.92808 0.000255927 0.0136497)