/*--------------------------------*- C++ -*----------------------------------*\
  =========                 |
  \\      /  F ield         | OpenFOAM: The Open Source CFD Toolbox
   \\    /   O peration     | Website:  https://openfoam.org
    \\  /    A nd           | Version:  6
     \\/     M anipulation  |
\*---------------------------------------------------------------------------*/
FoamFile
{
    version     2.0;
    format      ascii;
    class       volScalarField;
    location    "14";
    object      p;
}
// * * * * * * * * * * * * * * * * * * * * * * * * * * * * * * * * * * * * * //

dimensions      [0 2 -2 0 0 0 0];

internalField   nonuniform List<scalar> 
918
(
0.18511
0.952004
0.00644287
0.18452
0.000682907
0.920429
-0.851262
0.374109
0.165558
-0.172577
0.0179546
0.159043
0.777118
0.5439
-1.53383
0.0141106
0.326949
-0.69789
0.163136
0.00508013
0.440631
0.172906
0.17537
0.166116
0.220855
0.512064
0.655377
0.000942548
-0.00322723
-0.00258737
0.00264935
-0.000900054
0.00384765
0.803573
0.855521
0.878583
0.137161
-0.0373705
-0.721359
-0.789588
-0.766679
-0.890498
0.361945
0.364324
-0.529955
0.374978
0.38766
0.153051
0.164729
0.165527
0.167553
0.166021
0.167364
0.277684
-0.221783
-0.30515
-0.103045
-0.0767491
0.0706266
0.0169049
0.00380964
0.0230456
0.0239568
0.0953316
0.154553
0.151144
0.165442
0.174639
0.892184
0.865866
0.891787
0.803018
0.820439
0.754061
0.727123
0.565786
0.589947
0.528411
0.515416
-2.00678
-2.9687
-0.942461
-0.653494
0.00199329
0.0202081
0.0242491
0.313103
0.315253
0.322003
0.3349
0.77873
-0.696547
-0.817499
0.163001
0.161541
0.171612
0.172832
0.167701
0.167943
0.0132098
0.0220816
-0.000716129
0.00448642
0.00455578
0.422927
0.421174
0.165888
0.163139
0.182914
0.20594
0.196805
-0.0683446
0.234814
0.252838
0.352322
0.509387
0.502226
0.512489
0.631121
0.598605
0.686173
0.707572
0.00690258
0.00178988
0.00978249
0.00746495
0.0092739
0.131635
0.125937
0.144967
0.138392
0.139418
-0.125685
-0.272699
0.0350968
0.0531895
-0.644788
-0.695034
-0.769241
-0.810776
-0.878789
0.147091
0.350802
0.355279
-0.538432
-0.463683
-0.600428
-0.401961
-0.468368
0.142494
0.150627
0.146786
0.160464
0.1551
0.156641
0.168763
0.165844
0.167553
0.300967
0.369705
0.226032
0.207561
-0.541338
-0.375044
-0.485322
-0.0429885
-0.0344555
0.0829826
0.0939329
0.0614657
0.0595945
-0.00221202
0.00690998
0.00375613
0.0235523
0.0249766
0.089596
0.0784032
0.102914
0.109671
0.146591
0.14608
0.148712
0.149347
0.677819
0.700447
0.707149
0.683645
-3.96078
-6.61752
-0.292124
-0.124891
0.00195802
0.00312292
0.00123445
0.00230143
0.0039039
0.00117132
0.0367231
0.0369738
0.0286783
0.0341116
0.299843
0.303198
0.756601
0.777152
0.707328
0.670965
0.151952
0.154017
0.159569
0.155707
0.0251136
0.0242894
0.0274318
0.3868
0.404476
0.401978
-0.103984
-0.192792
-0.019933
0.00778358
0.291049
0.268863
0.293157
0.415742
0.456156
0.723543
0.748266
0.732404
0.745688
0.79681
0.819718
0.784548
0.114922
0.123827
0.119026
0.15119
0.148259
0.148902
0.146371
0.145767
0.144027
-0.386209
-0.759008
0.107056
0.105171
0.0827448
0.0852946
0.231323
0.318088
0.328997
0.340457
0.338899
-0.352932
-0.404265
0.174472
0.159869
0.0326866
0.0643638
0.0484252
0.654657
0.614697
0.662689
0.638061
0.602881
0.627293
-0.69442
-2.48285
-1.46073
0.290904
0.0855036
0.181668
0.0539384
0.0390593
0.0463562
0.743036
0.737496
0.433254
0.573879
0.541493
0.4825
0.508838
0.573323
0.50249
0.538197
0.572596
0.546352
0.105613
0.112333
0.0959219
0.393296
0.456501
-0.22751
-0.291603
-0.328717
0.103
0.136764
0.125671
0.674829
0.53176
0.630992
0.164594
0.164608
0.0115239
0.0197697
0.16713
0.166939
0.00634226
0.00867382
0.193729
-1.32427
-0.209058
0.157922
0.1482
0.16334
-0.195819
0.295339
0.0153208
0.0816249
0.0577976
0.155712
0.104621
0.0676336
0.00729817
0.0196444
0.015988
-0.488743
0.161929
0.159585
0.162842
0.164117
0.164943
0.00882781
0.0104378
0.00682423
0.012969
0.0104762
0.00919742
0.132744
0.144277
-0.504148
0.163009
0.164974
0.164727
0.15947
0.163536
0.161771
0.0151817
0.0107201
0.00974576
-0.12309
0.00427049
0.398911
0.490868
0.333465
0.156622
-0.145592
0.323027
0.382801
0.296733
0.443035
0.331928
0.350949
-0.156954
-0.299949
-0.148505
-0.211728
0.155048
0.153527
0.145261
0.14225
0.158084
0.155947
0.160922
0.158707
0.161504
0.162535
-0.117237
-0.0830991
-0.25418
-0.334845
0.29912
0.396095
0.199766
0.220795
0.129105
0.0201846
0.0212527
0.0152021
0.0126377
0.0492168
0.0610671
0.0765707
0.0611977
0.0490806
0.0428408
0.0505872
0.0568563
0.0602928
0.150782
0.149153
0.153851
0.161829
0.112674
0.114964
0.0863076
0.102996
0.0941205
0.0400651
0.0681721
0.0459421
0.00787198
0.00830606
0.00653839
0.0235143
0.0271721
0.0142825
0.0119079
0.0135835
0.0104502
0.0106124
0.0190536
0.0223698
-0.510379
-0.575623
0.632624
0.595187
-0.601207
0.151621
0.155453
0.15332
0.157901
0.160708
0.161002
0.159059
0.156702
0.145577
0.148117
0.142507
0.144077
-0.45271
-0.582217
-0.405871
-0.4809
-0.201831
0.274531
0.0124842
-0.0418384
-0.0510011
0.16186
0.337584
0.307113
0.418788
0.420283
-0.760691
-0.325069
-0.674923
-0.130915
-0.150325
0.419725
0.464639
0.482806
0.438796
0.39055
-0.379305
0.158153
-0.382575
-0.357312
-0.183364
-0.262062
0.378894
0.313539
0.322393
0.338927
0.365624
0.324145
0.310669
0.306408
0.333529
0.340187
0.143127
-0.0806563
-0.123452
-0.164181
0.297557
0.18195
0.234763
0.146538
0.1495
0.152362
0.151965
0.138021
0.140356
0.137436
0.142972
0.145933
0.153264
0.153843
0.149704
0.151412
-0.0525077
-0.0322413
-0.224355
-0.467262
-0.36222
-0.451684
-0.336145
-0.140181
-0.0454113
-0.374618
0.0419125
-0.332762
-0.559265
-0.428806
-0.626276
-0.303225
-0.454969
0.0867578
0.143781
0.15099
0.146878
0.187563
0.174131
0.0337163
0.0405348
0.0223553
0.0242323
0.0810011
0.0988411
0.10086
0.042991
0.0465142
0.0230277
0.0240923
0.0511224
0.0306509
0.0410293
0.0496958
0.0197718
0.0231505
0.0275084
0.0324166
0.0370598
0.0381013
0.143847
0.146713
0.144132
0.158147
0.166685
0.180371
0.154605
0.130957
0.120916
0.125111
0.104389
0.109453
0.109953
0.118719
0.135755
0.142258
0.140791
0.142027
0.129441
0.130804
0.116167
0.120979
0.103698
0.0868829
0.0759866
0.0170466
0.011015
0.0143969
0.0148352
0.0105916
0.0125312
0.0401028
0.0314019
0.0351933
0.0315301
0.0369991
0.0170206
0.0176949
-0.56805
-0.621214
-0.551549
-0.569398
-0.624789
0.550295
0.624415
0.47472
0.275418
0.251815
0.467896
0.587796
0.360425
0.440513
0.483503
0.0878026
0.393645
0.155966
0.155651
0.153052
0.152423
0.153604
-0.371642
-0.277418
-0.253548
-0.21068
-0.0870711
0.0119429
-0.00677985
-0.156625
-0.0140667
0.0429049
0.273552
0.286236
0.228504
0.251085
0.249376
0.0814656
0.15945
0.200596
0.157072
0.208643
0.236708
0.191217
0.224859
0.164593
0.125586
0.121876
0.0665187
0.0969941
0.0782386
0.0554135
0.145356
0.126828
0.13566
0.127433
0.145934
0.177941
0.172234
0.191507
0.208997
0.134928
0.0910409
0.10544
0.132433
0.0901118
0.103433
0.120312
-0.184118
-0.278086
-0.154958
-0.484946
-0.353397
-0.3199
-0.356139
-0.438616
-0.135088
-0.764715
-0.682257
-1.3666
0.0959568
0.506915
0.340761
0.355876
0.362692
0.338049
0.342969
0.368629
0.379562
0.288298
0.305832
0.308301
0.263772
0.297355
0.309116
0.312621
0.124117
0.0561087
0.037054
-0.00274911
-0.137978
-0.106777
0.0733112
0.0136495
-0.0554908
-0.0538165
0.117027
0.00686584
0.0699948
0.109146
0.0587294
-0.00281676
0.202672
0.260178
0.248991
0.219344
0.135164
0.153726
0.171557
0.207757
0.23708
0.271672
0.142964
0.146777
0.148563
0.14669
0.14226
0.145858
0.146897
0.147604
0.148262
0.150611
0.149466
0.0103719
0.00904736
-0.0106633
0.00484857
-0.070421
-0.0978818
-0.0627725
-0.11323
0.0186312
0.00760451
-0.0455846
-0.0324734
-0.0138238
-0.000923763
0.0830242
0.0990606
0.0490688
0.0083365
-0.0847664
0.194256
0.18226
0.0492434
-0.0585242
0.0326647
0.145742
0.0629305
0.0752686
0.0673392
0.0771523
0.0730222
0.0310187
0.0263625
0.0288423
0.0386571
0.0342614
0.0248342
0.0231896
0.0246452
0.0256231
0.0255063
0.0253535
0.130337
0.124164
0.127392
0.121146
0.120195
0.133075
0.136336
0.137377
0.141552
0.143429
0.135911
0.139819
0.143015
0.026724
0.0210322
0.0228551
0.0229399
0.0218677
0.019115
0.0196246
-0.246886
-0.599569
-0.596931
-0.482164
-0.527213
-0.497569
0.148686
0.0401245
0.101295
0.260932
0.156059
0.0428548
0.0817038
0.198864
-0.0760983
0.0981595
-0.0635949
0.471958
0.350967
0.485531
0.156175
-0.12948
0.000304957
0.0231137
-0.12487
-0.0362075
-0.0282222
-0.150798
-0.116305
-0.0906946
-0.0156194
-0.12017
-0.148011
-0.36711
-0.179076
-0.0913443
-0.106399
0.019926
0.0712434
-0.074928
-0.188967
-0.243845
0.255988
0.277405
0.292026
0.2638
0.284785
0.214218
0.20361
0.221736
0.231755
0.226361
-1.01305
-0.603762
-1.81735
-1.24813
-0.78352
0.123802
0.101597
0.349834
0.265696
0.343649
0.330689
0.277765
0.243325
0.256871
0.292411
-0.000504805
0.103888
0.0652792
0.0885993
0.0202567
-0.0538494
0.220709
0.225709
0.250009
0.277033
0.251831
0.28052
0.139322
0.139617
0.141446
0.139409
0.135458
0.137234
0.0499397
0.0400129
0.0119383
-0.00687192
-0.00710948
0.00407082
0.0299154
0.0270213
0.0249631
0.0248378
0.028188
0.0320074
-0.177569
-0.259825
-0.415508
-0.311958
-0.374078
-0.467056
-0.470908
-0.387721
-0.257873
-0.277531
-0.0619611
0.249156
0.0689267
0.237455
-0.15277
0.0767908
0.1098
0.0776401
0.105571
0.0120323
0.114491
-0.376116
-0.54202
-0.605271
0.416726
0.368129
0.164879
-0.0954795
-0.193185
0.111517
0.15729
0.124482
0.160049
0.209542
0.204147
-0.385342
-0.313928
-0.221408
0.0706407
-0.155603
-0.148104
-0.145087
-0.00579006
-0.0428749
)
;

boundaryField
{
    wall-4
    {
        type            zeroGradient;
    }
    velocity-inlet-5
    {
        type            zeroGradient;
    }
    velocity-inlet-6
    {
        type            zeroGradient;
    }
    pressure-outlet-7
    {
        type            fixedValue;
        value           uniform 0;
    }
    wall-8
    {
        type            zeroGradient;
    }
    frontAndBackPlanes
    {
        type            empty;
    }
}


// ************************************************************************* //
