/*--------------------------------*- C++ -*----------------------------------*\
  =========                 |
  \\      /  F ield         | OpenFOAM: The Open Source CFD Toolbox
   \\    /   O peration     | Website:  https://openfoam.org
    \\  /    A nd           | Version:  6
     \\/     M anipulation  |
\*---------------------------------------------------------------------------*/
FoamFile
{
    version     2.0;
    format      ascii;
    class       volVectorField;
    location    "14";
    object      U;
}
// * * * * * * * * * * * * * * * * * * * * * * * * * * * * * * * * * * * * * //

dimensions      [0 1 -1 0 0 0 0];

internalField   nonuniform List<vector> 
918
(
(0.985121 -0.000573854 0)
(0.00529428 2.96628 0)
(-0.00473522 1.64076 0)
(0.979732 0.00177842 0)
(0.000110476 1.6031 5.33534e-24)
(-0.00703419 2.94853 -1.95772e-18)
(0.849921 1.15276 7.46791e-19)
(0.494178 0.219522 -8.1825e-21)
(0.999943 -0.000409962 0)
(0.0344316 1.17983 0)
(-0.009828 1.33714 0)
(0.820018 -0.00694106 0)
(0.010119 2.9314 0)
(0.00286148 2.79394 0)
(-0.000294447 3.2032 1.15652e-18)
(-0.00306805 1.51332 -1.59945e-20)
(0.59193 0.0893477 5.04028e-19)
(0.20219 1.17015 6.17325e-19)
(0.965552 0.00830385 0)
(0.000273691 1.48473 0)
(0.187133 0.275141 -4.3357e-19)
(1.00129 -0.00466345 0)
(0.999765 -0.00912243 0)
(0.974984 -0.00678766 0)
(0.744865 -0.011946 0)
(0.0240726 2.63771 0)
(-0.0128638 2.91167 6.7183e-19)
(-0.0118295 1.66799 0)
(-0.0125035 1.76491 0)
(-0.0109576 1.6646 0)
(0.000919214 1.80782 0)
(0.000631082 1.61684 -4.22337e-24)
(-0.00134141 1.52391 0)
(-0.0222392 2.98756 -6.87666e-23)
(-0.0165648 3.00552 1.52233e-18)
(0.00229537 3.00068 0)
(0.874263 -0.00527583 0)
(0.340433 0.879064 -6.17145e-20)
(0.855018 1.16402 -1.07951e-18)
(0.978002 1.04676 9.98031e-19)
(0.713562 1.25165 -1.73772e-19)
(0.752725 1.19168 9.93367e-19)
(0.528116 0.301818 7.98361e-21)
(0.52597 0.196144 0)
(1.20373 0.546848 0)
(0.484752 0.316282 3.73809e-20)
(0.448543 0.223895 -3.8791e-20)
(0.921939 -0.00355316 0)
(1.00038 -0.000224489 0)
(0.999919 0.000280091 0)
(1.00402 -0.00723393 0)
(1.00062 -0.00113614 0)
(1 -8.58125e-05 0)
(0.0598532 1.57646 -5.29074e-19)
(-0.00323526 1.27987 0)
(0.0448658 1.10471 0)
(-0.00957272 1.36879 0)
(0.0282209 1.24083 0)
(-0.00369941 1.57145 0)
(-0.0108532 1.50568 0)
(0.00347582 1.33471 0)
(-0.0201473 1.53213 0)
(-0.0117957 1.36331 0)
(0.896639 0.00154989 0)
(0.901485 0.00949078 0)
(0.836545 0.000853618 0)
(0.892182 0.0141819 0)
(0.805056 -0.00776681 0)
(0.0140255 3.00014 7.17616e-19)
(0.0113151 3.00559 0)
(0.00651749 3.00402 0)
(0.0119705 2.9969 8.01825e-24)
(0.00834589 2.95869 -1.06655e-18)
(0.0123402 2.98296 0)
(0.00893145 2.90459 0)
(0.0219542 2.93096 1.46535e-24)
(0.00371199 2.82338 0)
(0.0271322 2.91796 0)
(-0.00249215 2.74361 0)
(0.310658 3.60391 0)
(-0.123206 3.68752 0)
(0.15327 3.29314 -1.07643e-18)
(0.00636312 3.02286 0)
(-0.0100474 1.78877 0)
(-0.00372015 1.64126 1.57785e-20)
(-0.00527906 1.52896 -2.4098e-20)
(0.654744 0.156118 -1.73587e-19)
(0.612986 0.0557818 -1.65778e-19)
(0.616701 0.188112 -5.19058e-19)
(0.56898 0.125352 -3.48482e-19)
(0.298999 1.06487 0)
(0.246442 1.24062 -6.25705e-19)
(0.341437 1.2363 1.03546e-18)
(0.988862 0.010347 0)
(0.946147 0.0104343 0)
(1.00026 0.000843434 0)
(1.00241 0.00927319 0)
(1.00303 0.0097624 -8.51576e-19)
(0.991957 0.00904314 6.44277e-19)
(-0.00903375 1.59646 0)
(-0.00574205 1.47309 0)
(-0.0142615 1.6751 0)
(-0.01163 1.62501 0)
(0.00124266 1.50161 0)
(0.253552 0.291221 1.33886e-19)
(0.295219 0.267596 0)
(0.993242 -0.00733111 0)
(0.952971 -0.00625519 0)
(0.868767 0.0191241 0)
(0.834035 0.0388691 0)
(0.781382 -0.000484249 0)
(1.02982 -0.00336478 0)
(0.788783 0.0453061 0)
(0.665679 -0.0267593 6.42912e-19)
(-0.0387653 2.86415 3.8629e-19)
(0.0355808 2.91268 0)
(0.0452106 2.88923 0)
(0.00262569 2.69846 0)
(-0.00882558 2.98583 6.27589e-19)
(-0.0146257 2.8949 0)
(-0.0111408 2.99168 -1.96422e-18)
(-0.0118909 2.92965 6.73134e-19)
(-0.00919743 1.81306 0)
(-0.00795439 1.80824 0)
(-0.00231925 1.6427 -2.91695e-22)
(-0.00158561 1.61749 0)
(-0.00532586 1.51534 0)
(0.935254 -0.00249531 0)
(0.868738 -0.00285579 0)
(0.869074 0.0113515 0)
(0.942091 -0.00135776 0)
(0.890291 -0.00456085 0)
(0.465358 1.08342 6.53454e-20)
(0.518309 1.16701 0)
(0.297974 0.794973 -1.58013e-22)
(0.241095 0.664818 0)
(0.968542 1.05896 -2.9518e-19)
(1.0867 0.875978 6.00675e-19)
(0.421578 1.29377 0)
(0.612017 1.29157 0)
(0.547191 1.2418 0)
(0.140332 0.0522294 -8.73022e-20)
(0.561644 0.270417 0)
(0.54417 0.168292 1.01418e-19)
(1.0464 0.921082 0)
(1.12096 0.764043 0)
(1.15291 0.697413 -5.26821e-19)
(1.18097 0.607135 0)
(1.23787 0.393648 4.99571e-20)
(0.954536 -0.00397292 0)
(0.960683 -0.00389782 0)
(0.904908 -0.00374307 0)
(0.98434 -0.0069212 0)
(0.975634 -0.00517968 0)
(0.937811 -0.00406703 0)
(1.00028 0.00291351 0)
(1.00091 0.00116681 0)
(1.00008 0.000682768 0)
(0.0496908 1.74016 2.88974e-19)
(0.103628 1.53585 0)
(0.0238607 1.76275 4.57114e-19)
(0.032986 1.60185 -3.84829e-19)
(0.096412 1.18381 -5.12853e-19)
(0.000842446 1.19931 0)
(0.138839 1.05023 0)
(0.00486057 1.43616 0)
(0.0156493 1.28221 0)
(-0.0103279 1.6933 -1.125e-21)
(-0.0100118 1.59489 0)
(-0.00262903 1.68392 -5.27236e-20)
(-0.000311859 1.57177 1.01926e-19)
(-0.0082196 1.47417 0)
(-0.00018607 1.50084 0)
(0.00820679 1.3053 0)
(-0.0213028 1.55546 0)
(-0.0136216 1.39775 0)
(0.969031 0.0165968 0)
(0.917178 0.00819727 0)
(0.952352 0.00987135 0)
(0.887855 0.00291151 0)
(0.837579 -0.00690414 0)
(0.920066 9.84791e-05 0)
(0.911793 0.00806204 0)
(0.836089 -0.00335262 0)
(0.0108133 3.06736 -6.29377e-21)
(0.0142266 3.05949 0)
(0.0126233 2.97026 0)
(0.00784083 2.87631 0)
(0.897292 4.00137 0)
(1.19176 3.38975 1.027e-18)
(0.083461 3.10373 0)
(-0.0161714 2.92465 0)
(-0.0115218 1.79343 0)
(-0.0124028 1.78899 0)
(-0.0112589 1.79061 0)
(-0.00274379 1.79716 3.8531e-21)
(-0.0105896 1.79167 0)
(-0.00389539 1.78933 0)
(-0.00499513 1.54988 9.08077e-22)
(-0.00564204 1.67012 3.20546e-20)
(-0.00635664 1.65683 2.46351e-20)
(-0.00497692 1.53483 0)
(0.685406 0.121559 2.53137e-19)
(0.641754 0.0312146 -2.46998e-19)
(0.186283 1.40067 0)
(0.354719 0.843419 -2.45514e-19)
(0.133788 1.48139 -7.69288e-19)
(0.248631 1.25687 7.67263e-19)
(0.911094 0.0123727 0)
(0.969436 0.0126992 0)
(0.975822 0.0121647 0)
(0.928362 0.00944268 0)
(-0.0198889 1.57474 0)
(-0.0161478 1.58607 0)
(-0.0121419 1.43438 0)
(0.453159 0.334092 3.40625e-19)
(0.375581 0.307679 -4.15482e-19)
(0.394393 0.24779 0)
(1.14619 0.0870443 -8.43693e-21)
(1.13453 0.0404656 0)
(1.06216 0.034964 0)
(0.977426 0.00373556 0)
(0.688885 0.0769617 0)
(0.719113 0.0335812 -1.04973e-18)
(0.633863 -0.000418465 4.1303e-19)
(0.0116373 2.97901 4.72824e-19)
(-0.0314041 2.86389 4.74806e-20)
(0.00881185 3.05316 -1.35319e-20)
(0.0150294 3.04385 5.17321e-19)
(-0.0119363 3.00002 2.24218e-20)
(-0.0121716 2.95234 -9.11849e-23)
(-0.0150495 3.01342 -4.31126e-19)
(0.0136626 3.02717 3.0106e-19)
(0.00734072 3.03421 -4.81977e-19)
(0.947719 0.00896308 0)
(0.941541 0.00423464 0)
(0.872519 0.00243531 0)
(0.960049 0.0134957 0)
(0.946366 0.0164926 0)
(0.889998 0.0103608 0)
(0.923448 0.000900075 0)
(0.930383 0.0103391 0)
(0.845517 -0.00148958 0)
(0.650579 1.40433 3.19982e-19)
(0.676159 1.52091 0)
(0.184454 0.358175 1.55811e-20)
(0.152781 0.476074 1.19018e-19)
(0.199688 0.607056 -5.99257e-20)
(0.178062 0.502592 1.10601e-19)
(0.31536 0.637354 5.27888e-19)
(0.149012 0.127905 1.8819e-19)
(0.601882 0.219687 3.75221e-19)
(0.582553 0.23965 9.16469e-20)
(0.560998 0.147421 1.8671e-19)
(1.2268 0.452471 3.47635e-19)
(1.24778 0.248227 3.61012e-19)
(0.0118285 1.75956 1.77733e-19)
(0.0186765 1.61685 0)
(1.01624 0.0279708 0)
(0.985583 0.0195712 0)
(0.943233 0.000167655 0)
(0.0119038 3.07433 0)
(0.0173547 2.94365 8.57942e-19)
(0.0142299 2.95644 0)
(0.00590702 2.84927 -8.51369e-19)
(0.0089325 3.09097 2.056e-19)
(0.0119779 3.08204 0)
(0.697842 1.82283 -2.52592e-19)
(1.23481 2.64028 8.39322e-19)
(0.685337 2.00485 -1.66326e-18)
(0.0233255 2.98011 -3.57109e-19)
(0.0425308 3.00594 0)
(-0.0369566 2.88229 0)
(2.01433e-05 1.66544 -5.52953e-21)
(-0.00442225 1.67623 -7.03836e-20)
(-0.0016875 1.564 -6.43323e-21)
(0.25081 1.27877 7.33111e-19)
(0.313043 0.564083 -5.01492e-19)
(0.0625301 1.67155 5.08879e-19)
(0.101361 1.58653 -6.2287e-19)
(0.150058 1.4078 7.68108e-20)
(0.00833334 3.11962 -1.07548e-18)
(0.0146 3.12089 1.18596e-18)
(-0.00484348 2.9799 5.59526e-19)
(-0.000601463 2.97572 -5.06938e-19)
(-0.0177616 2.87858 -5.6989e-19)
(0.0129727 3.09814 -1.50313e-18)
(0.00419983 3.10609 1.52473e-18)
(0.189995 0.530753 0)
(0.104116 0.425611 -2.4947e-19)
(0.159038 0.132748 1.07194e-19)
(0.312033 0.759093 5.58437e-19)
(0.243236 0.178571 -8.53856e-19)
(1.23086 0.169563 -8.04256e-20)
(1.24134 0.30724 0)
(1.22483 0.112542 1.45673e-19)
(-0.0104456 1.72895 -1.41581e-21)
(-0.00222244 1.74333 0)
(0.00062654 1.60531 0)
(0.342448 1.17042 -2.32903e-19)
(0.376152 1.01171 -5.0756e-19)
(0.256119 0.311666 8.39444e-19)
(1.0058 -0.0104457 0)
(1.00728 -0.00811566 1.56252e-19)
(-0.00845027 1.80221 0)
(-0.0140777 1.80998 0)
(1.00269 0.00332617 1.36604e-21)
(1.00328 0.0077103 3.1966e-19)
(-0.0035206 1.80116 -5.08279e-21)
(-0.00239293 1.7996 0)
(0.0483443 3.18088 1.76231e-19)
(0.38443 3.56946 0)
(1.06677 0.687554 7.91718e-20)
(1.01041 0.00936862 -2.30257e-21)
(1.01654 -0.0156281 0)
(1.00172 0.000305559 8.90419e-23)
(-0.175448 1.47308 0)
(-0.0323131 2.10942 0)
(-0.0243898 1.78122 0)
(-0.0354439 1.86064 7.01325e-20)
(-0.00802349 1.82855 4.28441e-20)
(1.00341 0.00945263 1.62287e-21)
(1.04684 0.0136347 0)
(1.07948 0.0336236 0)
(-0.0123892 1.78926 0)
(-0.0086861 1.81099 0)
(-0.0188872 1.79513 0)
(0.236675 1.19935 -4.38611e-19)
(1.00918 -0.00868782 0)
(1.01162 -0.0132069 0)
(1.00254 0.000188927 1.9577e-19)
(1.00616 -0.00610797 -2.33437e-19)
(1.00103 -0.000823701 0)
(-0.0138472 1.78896 0)
(-0.0111862 1.79483 0)
(-0.0112456 1.79425 0)
(-0.0159177 1.79813 0)
(-0.0124226 1.79468 0)
(-0.0155311 1.79796 0)
(1.01976 -0.000120952 0)
(1.0244 0.0105423 -1.62363e-21)
(0.761484 1.28056 5.49501e-19)
(1.00274 0.000417023 -1.94525e-19)
(1.0041 0.00385755 2.39731e-19)
(1.00127 0.00193406 0)
(1.01059 0.00906362 1.87221e-19)
(1.00744 0.00921445 -2.39116e-19)
(1.00844 0.00978055 0)
(-0.00725335 1.81183 0)
(-0.00514914 1.80729 1.3121e-20)
(-0.00548117 1.80651 -8.91202e-21)
(1.18477 0.265903 -1.71121e-19)
(1.11912 0.0820547 0)
(0.0552952 3.08995 -5.5787e-19)
(0.0542847 2.86615 -4.26034e-20)
(0.114697 3.20467 7.03595e-19)
(0.127908 3.21823 -6.75308e-20)
(0.152374 3.26962 0)
(0.0235283 3.13921 1.36132e-19)
(0.0680729 3.16346 5.52376e-19)
(0.0674682 3.1835 -2.58697e-19)
(0.028746 3.12803 0)
(0.704233 0.339895 0)
(0.635956 0.40041 0)
(1.06801 0.714321 -2.94768e-19)
(1.03197 0.866044 4.45843e-19)
(1.12092 0.594696 0)
(1.15474 0.549728 0)
(1.01419 0.00909814 -3.5331e-19)
(1.01316 0.00699363 4.39165e-19)
(1.01887 -0.0157213 0)
(1.01194 -0.0220145 0)
(1.00824 0.00080861 0)
(1.01068 0.00199988 0)
(1.00379 0.00328969 0)
(1.00922 0.00758439 0)
(1.00709 0.00505576 0)
(1.00411 0.00511931 0)
(-0.154582 1.49794 0)
(-0.137587 1.55312 0)
(-0.169774 1.43264 0)
(-0.117193 1.38918 0)
(-0.0600964 2.1701 0)
(0.0578553 2.16782 -2.99502e-19)
(-0.0278372 2.10216 0)
(-0.0234422 2.03157 1.4457e-19)
(-0.0307872 1.93258 -1.33429e-19)
(-0.0240662 1.78287 0)
(-0.021816 1.78494 0)
(-0.0327033 1.7715 0)
(-0.0268628 1.74498 0)
(-0.0587231 1.8261 -4.22616e-20)
(-0.0189748 1.8377 5.83309e-20)
(-0.0334189 1.85912 7.05509e-20)
(-0.0174179 1.84663 0)
(-0.00832553 1.82939 -9.26212e-20)
(-0.007888 1.8245 -5.03629e-20)
(-0.053519 1.82046 3.26006e-20)
(-0.0311546 1.83011 -7.60974e-20)
(-0.035417 1.84182 -9.18182e-20)
(1.01022 0.0157918 3.45335e-19)
(1.00965 0.00430116 -4.26099e-19)
(1.0066 0.0177202 -3.63536e-19)
(0.995215 0.0162222 4.63552e-19)
(1.04104 0.0195722 0)
(1.04193 0.0114329 0)
(1.06318 0.0354172 0)
(1.0509 0.024243 0)
(1.05813 0.0122263 0)
(1.10247 0.073223 0)
(1.07833 0.0478764 0)
(1.09983 0.0392556 0)
(-0.00879499 1.80292 -1.53078e-21)
(-0.0120532 1.79213 0)
(-0.0105876 1.7952 0)
(-0.00924251 1.81456 1.52857e-20)
(-0.0101465 1.81399 -6.86704e-22)
(-0.015562 1.78861 1.49326e-20)
(-0.0149441 1.79037 -1.52654e-20)
(-0.016512 1.79422 0)
(-0.0138353 1.79493 0)
(-0.0138383 1.79505 0)
(-0.0188838 1.79511 0)
(-0.0208835 1.79543 0)
(0.407387 1.27593 9.09451e-19)
(0.377174 1.36801 3.26026e-19)
(0.579841 2.44093 -1.75757e-19)
(0.275429 2.38288 4.52497e-19)
(0.443653 2.4073 -1.79953e-19)
(1.01703 -0.0122084 0)
(1.01727 -0.0102134 0)
(1.01736 -0.0146837 0)
(1.00942 -0.000775018 0)
(1.00468 -0.000873307 0)
(1.0074 -0.00430676 0)
(1.01061 -0.00470928 0)
(1.0115 -0.00541766 0)
(1.02287 0.0112778 3.38604e-19)
(1.01398 0.0143394 -4.31639e-19)
(1.02614 0.00788306 -3.32128e-19)
(1.02374 0.00762961 4.16475e-19)
(0.743326 1.30467 0)
(0.645728 1.38352 6.54573e-19)
(0.857278 1.20752 3.85979e-19)
(0.869607 1.207 -5.13261e-19)
(1.12451 2.61695 -5.94982e-19)
(0.82728 0.104683 2.53301e-19)
(1.12519 0.0973647 0)
(1.16717 0.17176 1.43435e-19)
(1.15179 0.154453 6.20981e-21)
(0.972075 0.134021 0)
(0.105514 3.03367 -1.19922e-19)
(0.101985 2.90544 -6.30983e-19)
(0.0510177 2.35246 4.26402e-19)
(0.161694 0.0832029 -1.98372e-19)
(0.351062 3.46515 -4.98993e-19)
(0.200762 3.35201 0)
(0.230198 3.41769 6.50003e-19)
(0.239848 3.09037 -1.26485e-19)
(0.275391 3.21068 0)
(0.0073156 3.12202 2.96844e-20)
(0.0192525 3.13099 -3.61846e-19)
(0.0172198 3.12679 5.32594e-19)
(0.0361265 3.13981 0)
(0.0341001 3.15127 0)
(1.2446 2.58873 0)
(0.508522 0.817342 -1.93805e-19)
(0.948246 1.03622 -2.17834e-19)
(0.954907 1.07051 0)
(0.812896 0.958561 7.73396e-20)
(1.01955 0.90072 2.62535e-20)
(0.434263 0.458669 -4.9164e-19)
(0.726716 0.321957 -2.54419e-20)
(0.718567 0.2942 1.95482e-19)
(0.633732 0.424889 1.57594e-20)
(0.569645 0.422303 -6.5457e-19)
(0.70164 0.356072 0)
(0.68543 0.439602 3.3525e-19)
(0.691036 0.439703 0)
(0.679267 0.403562 0)
(0.682241 0.359372 0)
(0.720948 0.621638 8.55695e-20)
(1.1817 0.284493 1.23804e-19)
(1.17451 0.420212 0)
(1.17092 0.399118 0)
(0.774447 0.216213 2.93175e-19)
(0.76507 0.520032 -1.604e-19)
(0.691982 0.495058 2.56025e-19)
(0.887024 0.406568 -2.10269e-19)
(1.01577 0.0109607 2.32921e-19)
(1.01419 0.00730906 -2.40155e-19)
(1.00913 0.00833801 0)
(1.0171 -0.00418656 0)
(1.01733 -0.0150763 -2.07386e-19)
(1.00681 -0.0212185 2.05099e-19)
(1.03331 0.00750614 0)
(1.02779 0.0100146 0)
(1.01404 0.00469295 0)
(1.0142 0.00806038 0)
(1.01959 -0.000587642 0)
(1.01632 -0.00249433 0)
(-0.110383 1.60338 0)
(-0.0844119 1.63855 0)
(-0.238606 1.40616 1.82398e-19)
(0.184687 1.26413 2.45329e-19)
(-0.0619868 1.33295 5.03988e-19)
(0.0588384 1.2541 -8.27253e-19)
(-0.17225 1.4104 0)
(-0.335354 1.96379 2.51939e-19)
(-0.324362 1.91985 0)
(0.236923 2.45387 2.64768e-19)
(0.0727978 2.52092 2.37476e-19)
(-0.328999 1.92195 -2.21872e-19)
(0.0985095 1.1843 2.62948e-19)
(-0.15422 1.37384 -2.06892e-19)
(0.11717 1.18576 7.36427e-19)
(-0.145803 1.9357 0)
(0.0198441 1.99073 -5.21138e-19)
(-0.110152 1.89504 -2.98677e-20)
(-0.0296277 1.95065 0)
(-0.0988996 1.95238 1.30485e-19)
(-0.0918643 1.91843 0)
(-0.023179 2.00789 -1.56155e-19)
(-0.0209581 1.98057 0)
(-0.0509798 1.79323 -3.00976e-20)
(-0.0674426 1.7996 0)
(-0.0713 1.76719 0)
(-0.0561558 1.7821 3.38782e-20)
(-0.0410581 1.87401 -3.8836e-21)
(-0.0349448 1.91739 1.57176e-19)
(-0.0346357 1.89808 1.09427e-21)
(-0.0277412 1.81054 2.8081e-20)
(-0.0353279 1.80555 1.82526e-20)
(-0.0249389 1.78623 0)
(-0.025027 1.78647 0)
(-0.10936 1.8405 7.49698e-20)
(-0.101361 1.76781 4.82085e-20)
(-0.0963905 1.803 -6.97154e-20)
(-0.145829 1.85977 0)
(-0.0133599 1.8069 -4.90571e-20)
(-0.0131424 1.81431 2.28107e-20)
(-0.0138112 1.81332 -7.61122e-21)
(-0.0231629 1.81189 -3.41439e-20)
(-0.0152877 1.81734 -1.20384e-20)
(-0.0160705 1.82245 6.15161e-20)
(1.02395 0.00647362 -2.22241e-19)
(1.0181 0.0112622 2.25169e-19)
(1.01893 0.00618742 0)
(0.997961 0.0446575 3.22747e-19)
(0.995103 0.0316119 -3.89816e-19)
(0.968514 0.0279756 4.56922e-19)
(0.989862 0.085214 -4.22856e-20)
(1.02196 0.00367055 0)
(1.03328 0.00991914 1.85555e-19)
(1.02726 0.00469288 -1.81192e-19)
(1.03624 0.0422913 -9.7442e-21)
(1.03987 0.0262822 8.61575e-20)
(1.02377 0.0547661 0)
(1.01859 0.0464303 -3.37051e-20)
(1.01887 0.0215802 0)
(1.01847 0.0212405 0)
(1.03352 0.0101425 0)
(1.02832 0.00825628 0)
(1.02694 0.0222158 6.93742e-20)
(1.02852 0.0180045 -1.60741e-19)
(1.02916 0.0287768 -6.80949e-20)
(1.02928 0.033594 -8.17008e-20)
(1.02022 0.0545576 1.3832e-19)
(1.05414 0.0494658 0)
(1.04555 0.0843181 0)
(-0.013616 1.80711 -2.02612e-20)
(-0.0127856 1.79699 -1.7885e-21)
(-0.0143187 1.79578 0)
(-0.00901163 1.80832 2.15494e-20)
(-0.00922875 1.80387 3.1929e-21)
(-0.00859398 1.80688 -3.58088e-21)
(-0.00965154 1.82249 4.46276e-20)
(-0.0142675 1.81622 -2.66631e-21)
(-0.0145401 1.81616 1.26741e-20)
(-0.0113495 1.81843 -2.4049e-20)
(-0.0114136 1.81848 2.85437e-20)
(-0.0169759 1.7892 2.92052e-22)
(-0.01715 1.79035 2.33388e-20)
(0.45395 1.16054 -5.00673e-19)
(0.440579 1.32362 -7.9326e-19)
(0.646804 1.40851 -6.31355e-19)
(0.524122 1.40855 -3.14059e-19)
(0.515034 1.43735 0)
(0.635674 2.39401 1.16732e-19)
(0.675415 2.40425 2.18876e-19)
(0.310647 2.47871 8.85005e-20)
(0.261196 2.62235 -1.8503e-19)
(0.36195 2.59685 1.98093e-19)
(0.529333 2.45506 0)
(0.485885 2.41104 -3.61684e-19)
(0.0176476 2.28917 7.68894e-19)
(0.177027 2.39548 -5.40814e-20)
(0.176002 2.27383 -1.03178e-18)
(0.92568 2.35426 8.26521e-20)
(0.842842 2.3687 0)
(1.01004 -0.00168946 7.67259e-21)
(1.01221 -0.00529854 -6.35357e-21)
(1.01316 -0.00865841 -1.1159e-19)
(1.01422 -0.0105336 1.13556e-19)
(1.01437 -0.00569641 0)
(0.662166 1.28035 0)
(0.643528 1.17942 0)
(0.756886 1.05495 0)
(0.624695 1.12815 0)
(1.16206 2.63833 4.01171e-20)
(1.03485 2.3549 0)
(0.771608 2.23925 -1.67357e-21)
(0.882473 2.4763 0)
(0.932489 2.55422 -1.03784e-20)
(0.92281 2.50093 7.04828e-21)
(0.82083 0.129442 0)
(0.800297 0.15572 7.48727e-20)
(0.896069 0.123398 3.67625e-19)
(0.863491 0.103443 -1.52221e-19)
(0.862762 0.0778804 -4.42606e-19)
(1.01842 0.220247 -1.65959e-19)
(0.940424 0.255646 -1.19119e-20)
(0.899326 0.274428 3.16498e-19)
(0.973529 0.209815 2.32137e-19)
(0.919834 0.164471 -4.53153e-19)
(0.879212 0.18174 6.04174e-20)
(0.911186 0.265748 -1.08927e-19)
(0.884917 0.198215 0)
(0.978785 0.173472 2.13278e-19)
(1.00313 0.169723 0)
(1.00458 0.196163 0)
(1.06405 0.0945499 5.15729e-20)
(1.01302 0.152299 -9.86435e-21)
(1.00502 0.224157 -3.435e-20)
(1.03428 0.185208 0)
(1.01276 0.0215551 1.70739e-19)
(1.0152 0.0398385 1.9783e-19)
(1.01679 0.0265247 -1.69653e-19)
(1.01032 0.0451485 -1.33186e-19)
(1.00058 0.0483539 -2.28168e-19)
(0.974712 0.1357 0)
(0.986575 0.0825984 0)
(0.968534 0.0468856 -1.66797e-19)
(0.927532 0.0586526 7.13712e-20)
(0.996091 0.0810072 1.88849e-19)
(1.01759 0.0930616 -1.67452e-19)
(1.01559 0.134099 1.61465e-19)
(1.00335 0.121909 0)
(1.02841 0.0888422 0)
(1.01517 0.0741694 -7.49369e-20)
(1.01436 0.0732025 -1.49839e-19)
(0.543756 1.11815 -1.24094e-19)
(0.591434 1.54669 2.20439e-19)
(1.1165 2.78083 1.3757e-19)
(1.18583 3.13998 -8.15312e-20)
(1.22543 2.7504 5.97341e-19)
(1.27692 2.71999 -3.07623e-19)
(1.24239 2.3185 -3.03367e-20)
(1.16893 3.04491 2.5477e-19)
(1.18077 3.00116 -2.91809e-19)
(1.17286 3.28688 -2.55664e-19)
(1.38985 2.99607 3.15627e-19)
(1.40393 2.93134 0)
(0.522668 0.83212 -6.55574e-21)
(0.254206 1.26037 2.63808e-19)
(0.476382 0.545667 3.16334e-19)
(0.336087 0.322752 3.72025e-19)
(0.561507 0.446355 3.65833e-19)
(0.537067 0.513375 -5.64194e-19)
(0.540176 0.519465 4.6636e-19)
(0.516864 0.480279 -1.90856e-19)
(0.490228 0.434453 4.42484e-19)
(0.779604 0.248558 -1.6227e-19)
(0.743166 0.296284 0)
(0.747402 0.252726 1.2096e-20)
(0.683903 0.524997 1.69602e-19)
(0.643626 0.502825 -6.29664e-19)
(0.614391 0.494141 2.39669e-20)
(0.63014 0.475699 0)
(0.659753 0.736923 1.06437e-19)
(0.738169 0.784687 4.17524e-20)
(0.695143 0.834815 -5.62562e-20)
(0.795047 0.7928 -2.29795e-21)
(0.873133 0.836169 2.07076e-20)
(0.873464 0.844679 -2.12682e-20)
(0.79483 0.635434 -1.4864e-19)
(0.875345 0.698598 2.13796e-21)
(0.936832 0.709477 0)
(0.931944 0.685099 1.26394e-20)
(0.967623 0.303001 4.22574e-20)
(1.07676 0.292769 -3.43466e-20)
(1.00044 0.262976 6.72489e-20)
(0.939367 0.333295 -1.07125e-19)
(0.971171 0.424709 0)
(1.05438 0.387691 0)
(0.868801 0.347321 8.56635e-21)
(0.835363 0.274002 0)
(0.83671 0.26004 1.72935e-19)
(0.894643 0.27212 2.26625e-21)
(0.87925 0.417946 5.76744e-19)
(0.811355 0.491022 1.46293e-19)
(0.828184 0.444046 -2.02113e-19)
(0.784129 0.419802 2.15197e-19)
(0.759678 0.41746 1.55826e-19)
(0.761205 0.416797 -1.51566e-19)
(1.02051 -0.00620504 1.80336e-19)
(1.02416 -0.0085008 0)
(1.02043 -0.0109527 1.21849e-19)
(1.01844 -0.01122 -2.70369e-19)
(1.03415 0.00043789 1.31737e-19)
(1.03049 0.00754549 -2.78548e-19)
(1.02714 0.0107621 0)
(1.02331 0.0128457 -5.66599e-20)
(1.02494 0.00236702 1.45809e-19)
(1.02163 0.0108734 -7.44537e-20)
(1.02388 0.0116841 5.36322e-20)
(-0.0460668 1.73138 0)
(-0.0761171 1.75587 0)
(-0.0724397 1.67768 0)
(-0.0509286 1.69352 0)
(-0.222888 1.68976 -1.54176e-19)
(-0.219136 1.56497 4.47361e-20)
(-0.295252 1.91881 1.48781e-20)
(-0.374331 1.68515 -1.31985e-19)
(-0.133646 1.76789 -2.41299e-20)
(-0.146751 1.76317 1.58118e-20)
(-0.181309 1.67801 2.24061e-20)
(-0.158223 1.69272 5.45661e-20)
(-0.107063 1.71711 4.56243e-21)
(-0.102382 1.73768 -1.68859e-21)
(-0.132733 2.022 -1.37106e-19)
(-0.140641 2.08544 0)
(-0.26329 2.1134 2.93168e-20)
(-0.298355 1.95568 1.35061e-20)
(-0.2061 2.27768 2.7198e-20)
(-0.108779 2.41449 0)
(-0.0791701 2.44129 -1.87073e-19)
(-0.0197303 2.5 1.33133e-19)
(-0.238885 2.21631 1.68592e-21)
(-0.25116 2.1823 -4.39604e-20)
(-0.17984 2.28777 0)
(-0.0855187 1.83447 -9.86763e-20)
(-0.0702729 1.84208 -1.4363e-19)
(-0.0729689 1.83265 0)
(-0.0759683 1.88003 -4.14319e-21)
(-0.0975608 1.87788 5.28886e-20)
(-0.0271991 1.79409 5.34476e-21)
(-0.0241311 1.79423 -8.2251e-20)
(-0.0269334 1.79653 1.72357e-20)
(-0.0304963 1.79569 3.41022e-20)
(-0.0366978 1.79659 0)
(-0.0263082 1.79594 0)
(-0.0266228 1.79159 2.66291e-20)
(-0.0263114 1.79178 -8.17659e-21)
(-0.0275475 1.79358 0)
(-0.0266518 1.78797 2.02223e-20)
(-0.0252878 1.78965 -3.97077e-20)
(1.02939 0.0203376 0)
(1.03303 0.0202973 -1.70396e-20)
(1.03188 0.0178729 -1.27783e-19)
(1.03241 0.0204973 0)
(1.03196 0.0238686 0)
(1.03348 0.0128829 -5.09002e-21)
(1.03324 0.0123638 2.11773e-19)
(1.02922 0.011522 2.60216e-19)
(1.02799 0.00987339 0)
(1.02304 0.00867084 0)
(1.02632 0.0173247 1.29239e-19)
(1.02154 0.0137544 0)
(1.02272 0.0118868 0)
(-0.0167189 1.807 0)
(-0.0178851 1.79113 1.77362e-21)
(-0.0174385 1.79958 1.14749e-20)
(-0.0258635 1.79259 0)
(-0.0200334 1.79242 1.5858e-20)
(-0.0181785 1.79072 -7.79597e-21)
(-0.0215115 1.79023 0)
(0.651205 1.66436 0)
(0.482047 1.35965 1.2299e-18)
(0.449586 1.73244 0)
(0.630132 1.2467 -1.25759e-18)
(0.562222 1.27765 0)
(0.585907 1.22698 5.5102e-19)
(1.02818 2.685 -2.4389e-21)
(0.950804 2.36632 -1.02058e-19)
(0.854702 2.08542 2.25191e-19)
(0.853294 2.35369 8.40694e-20)
(0.903085 2.49982 0)
(0.927812 2.49387 0)
(0.903808 2.34697 0)
(0.900496 2.32162 -3.21689e-19)
(0.775005 2.52871 7.85995e-20)
(0.88164 2.48519 -6.2204e-21)
(0.880742 2.46344 4.70732e-21)
(0.730603 2.38483 0)
(0.813811 2.36922 0)
(0.774369 2.39619 -1.97211e-19)
(0.847903 2.49603 0)
(0.561781 1.06516 0)
(0.502458 0.902169 3.14316e-20)
(0.508065 0.955735 3.50591e-21)
(0.478495 1.07004 0)
(0.491503 1.00347 -4.80837e-20)
(0.725728 0.859756 2.67799e-20)
(0.757048 0.989969 0)
(0.739847 0.976637 -9.16977e-20)
(0.637946 0.987357 0)
(0.611032 0.922505 0)
(1.13238 2.79528 8.68609e-20)
(1.1064 2.86095 1.45384e-19)
(0.89017 2.4144 -3.22147e-19)
(0.866216 2.39806 4.61401e-20)
(1.09771 2.76076 0)
(1.05291 2.7278 -5.63012e-20)
(1.06252 2.48533 -3.27789e-20)
(0.933348 2.19537 -2.25413e-20)
(0.48212 1.43229 0)
(0.473749 1.1122 1.0885e-19)
(0.53422 1.20213 0)
(0.841518 0.217337 0)
(0.804791 0.170388 0)
(0.777743 0.192607 0)
(0.831905 0.220326 -2.72979e-19)
(0.787247 0.219841 1.70783e-19)
(0.928284 0.0561537 -1.41746e-19)
(0.936815 0.10457 0)
(0.920766 0.109182 6.8191e-20)
(0.886169 0.0726493 2.80706e-19)
(0.886246 0.0633196 -1.72568e-19)
(1.0957 3.37437 -9.57955e-19)
(1.16183 3.29815 0)
(1.11846 3.46187 -2.07799e-18)
(0.660882 3.60951 1.75467e-18)
(1.03017 3.10139 4.6212e-19)
(0.505784 0.832312 1.54364e-19)
(0.496222 0.811187 0)
(0.392669 0.559496 -7.16905e-20)
(0.404135 0.683808 3.15343e-19)
(0.495932 0.54662 -1.01299e-19)
(0.494216 0.558703 1.1244e-19)
(0.630385 0.551099 2.27428e-19)
(0.647249 0.573231 0)
(0.578846 0.626113 0)
(0.553871 0.568258 0)
(0.917045 0.58346 -6.27912e-20)
(0.852716 0.524908 -1.39834e-19)
(0.887175 0.574958 3.31168e-20)
(0.91521 0.484503 -9.75056e-20)
(0.992512 0.457062 0)
(1.01045 0.566054 6.55637e-21)
(0.826828 0.368703 -3.35402e-19)
(0.819416 0.355823 -4.05415e-19)
(0.81788 0.365291 2.61343e-19)
(0.7987 0.335604 -3.09923e-19)
(0.826429 0.291404 -2.28984e-19)
(0.802163 0.294643 2.80395e-19)
(1.03669 0.00233989 -1.37191e-19)
(1.03673 0.00451645 2.79708e-19)
(1.02227 0.00149629 1.707e-19)
(1.02714 0.00475843 -2.05208e-19)
(1.03034 0.0187802 0)
(1.03403 0.0132295 -3.36382e-19)
(-0.146447 1.86776 2.95834e-20)
(-0.169317 1.86125 0)
(-0.225535 1.92897 1.65399e-20)
(-0.25896 1.95091 -3.40814e-21)
(-0.278284 1.90919 -2.7031e-20)
(-0.242845 1.89962 0)
(-0.019018 1.80813 0)
(-0.0244163 1.79983 -8.71538e-21)
(-0.0233279 1.7953 7.77055e-21)
(-0.0216898 1.79465 1.93427e-21)
(-0.0192077 1.80597 -1.54859e-20)
(-0.0172915 1.8074 1.01222e-20)
(0.558825 1.40809 4.37664e-19)
(0.632343 1.42846 -4.69054e-19)
(0.597768 1.27916 5.28572e-19)
(0.721521 1.36968 -2.85891e-20)
(0.64145 1.28822 0)
(0.612374 1.3173 6.0545e-19)
(0.622488 1.34993 -5.97995e-19)
(0.598965 1.25171 -5.33815e-19)
(0.615488 1.2653 0)
(0.57354 1.26429 0)
(0.815454 2.54036 -1.18526e-19)
(0.735993 2.52434 3.97447e-19)
(0.826488 2.53741 -2.69617e-19)
(0.728423 2.53715 -1.07289e-19)
(0.573648 2.72191 -1.49588e-20)
(0.435194 2.7447 -1.08494e-19)
(0.959902 2.32583 -1.27808e-19)
(0.988528 2.36692 0)
(0.864469 2.08972 -1.40142e-19)
(1.02632 2.7073 0)
(1.0171 2.68257 0)
(0.619635 2.33688 3.7567e-19)
(1.10654 3.07827 4.56045e-19)
(1.0026 2.99288 -5.47485e-19)
(0.346694 0.931502 0)
(0.373351 0.846024 -1.15401e-19)
(0.544348 0.750879 -3.38112e-20)
(0.401147 2.18647 0)
(0.418527 2.76629 -3.2193e-19)
(0.433424 2.51171 0)
(0.652312 0.691788 -2.21514e-19)
(0.705709 0.669776 3.16975e-19)
(0.701704 0.642276 -3.18607e-19)
(0.602461 0.659956 -3.55651e-20)
(0.673593 0.613189 -1.51602e-19)
(0.970894 2.78802 -3.45342e-19)
(1.00983 2.804 3.37862e-19)
(0.590498 2.29232 -2.06292e-19)
(0.602114 1.7732 9.5515e-20)
(0.703061 1.94929 1.51949e-19)
(0.969608 2.46242 -7.55148e-20)
(0.966264 2.44245 -1.91417e-19)
(0.669105 1.9111 -8.36722e-21)
(0.46315 1.40263 -1.08536e-19)
)
;

boundaryField
{
    wall-4
    {
        type            noSlip;
    }
    velocity-inlet-5
    {
        type            fixedValue;
        value           uniform (1 0 0);
    }
    velocity-inlet-6
    {
        type            fixedValue;
        value           uniform (0 3 0);
    }
    pressure-outlet-7
    {
        type            zeroGradient;
    }
    wall-8
    {
        type            noSlip;
    }
    frontAndBackPlanes
    {
        type            empty;
    }
}


// ************************************************************************* //
