/*--------------------------------*- C++ -*----------------------------------*\
  =========                 |
  \\      /  F ield         | OpenFOAM: The Open Source CFD Toolbox
   \\    /   O peration     | Website:  https://openfoam.org
    \\  /    A nd           | Version:  6
     \\/     M anipulation  |
\*---------------------------------------------------------------------------*/
FoamFile
{
    version     2.0;
    format      ascii;
    class       volScalarField;
    location    "55";
    object      p;
}
// * * * * * * * * * * * * * * * * * * * * * * * * * * * * * * * * * * * * * //

dimensions      [0 2 -2 0 0 0 0];

internalField   nonuniform List<scalar> 
918
(
0.535162
1.25085
0.00609488
0.535068
-0.0109532
1.21858
-0.496302
0.659166
0.516299
-0.122339
-0.0632824
0.516262
1.07576
0.841757
-1.16764
-0.0176916
0.633342
-0.419929
0.514302
-0.0699403
0.682322
0.522986
0.525453
0.516242
0.576919
0.7962
0.953374
-0.00276768
0.00984869
0.00527839
-0.0125813
-0.0330301
-0.0291101
1.10169
1.15365
1.17684
0.482932
0.318917
-0.392689
-0.443518
-0.42744
-0.517743
0.655209
0.65352
-0.213547
0.661851
0.665944
0.502043
0.515693
0.516528
0.517664
0.516557
0.517842
0.388637
-0.13006
-0.157358
-0.106004
-0.104201
0.0375564
-0.0672937
-0.0703225
-0.0592529
-0.0599969
0.432239
0.51162
0.50844
0.521128
0.531386
1.19102
1.16471
1.19079
1.10148
1.11904
1.05265
1.02558
0.863617
0.887562
0.825595
0.81118
-1.62729
-2.57799
-0.588172
-0.309685
-0.0101561
-0.0178898
-0.0155566
0.628215
0.630447
0.633242
0.637075
1.03729
-0.391292
-0.461121
0.514819
0.513337
0.522508
0.52341
0.518366
0.518372
-0.063848
-0.0607696
-0.0614349
-0.068917
-0.0704416
0.674345
0.673685
0.515681
0.513129
0.540593
0.562946
0.552672
0.251621
0.589505
0.607464
0.659254
0.804152
0.792541
0.804587
0.929077
0.89701
0.98454
1.00626
0.0137558
-0.000863569
-0.0195003
-0.019856
-0.0187556
0.478682
0.472267
0.499908
0.486546
0.48958
0.223331
0.0720315
0.40181
0.425918
-0.313294
-0.360248
-0.458305
-0.455194
-0.560191
0.600848
0.650659
0.647178
-0.227923
-0.15391
-0.280613
-0.0963651
-0.152922
0.493028
0.499255
0.495344
0.510684
0.504863
0.507282
0.519772
0.516945
0.518545
0.446741
0.582021
0.308542
0.281818
-0.282652
-0.175193
-0.262798
-0.0927339
-0.0878051
0.0485899
0.0767698
0.0251261
0.0126248
-0.0790076
-0.0724425
-0.0753717
-0.059349
-0.0585214
0.423726
0.410757
0.443417
0.450906
0.498932
0.500383
0.504836
0.50283
0.976509
0.999819
1.00563
0.981716
-3.55974
-6.20005
0.0369438
0.197212
-0.00813532
-0.00913603
0.000876675
-0.00882594
0.000237385
-0.002342
-0.0215687
-0.022057
-0.0173092
-0.0172903
0.626013
0.628076
1.00947
1.03617
0.978813
0.957548
0.504141
0.506039
0.510669
0.507549
-0.0579704
-0.0583261
-0.0579477
0.667517
0.672225
0.671016
0.210869
0.122744
0.30246
0.333414
0.622852
0.608254
0.620768
0.719822
0.758873
1.02308
1.04724
1.03115
1.04399
1.09489
1.11782
1.08312
0.457336
0.468211
0.462511
0.502989
0.500686
0.501692
0.4979
0.498972
0.497524
-0.0400809
-0.413624
0.478599
0.47991
0.46859
0.473701
0.686765
0.76993
0.636178
0.642526
0.641482
-0.0468119
-0.0939847
0.240319
0.212174
0.363284
0.397596
0.379584
0.952223
0.912253
0.960417
0.935782
0.89992
0.924617
-0.350554
-2.11843
-1.11142
0.600291
0.402596
0.494876
-0.00372183
-0.0207216
-0.0169091
1.0293
1.0694
0.654585
0.839345
0.792627
0.781806
0.807623
0.871993
0.803517
0.83855
0.869889
0.844517
0.552907
0.487686
0.50357
0.846166
0.902628
0.0861747
0.00917417
-0.014384
0.100677
0.17041
0.138837
1.0453
0.95742
1.02198
0.513368
0.51431
-0.0158825
-0.0392928
0.518418
0.518131
-0.0189532
-0.00906295
0.511706
-0.937357
0.0907561
0.507889
0.49763
0.514413
-0.0990656
0.322192
-0.0667546
0.0218812
-0.0133917
0.510679
0.444446
0.402306
-0.00212479
-0.0256718
-0.0629221
-0.219392
0.511107
0.509469
0.513796
0.514619
0.515389
-0.0227628
-0.0233178
-0.015777
-0.0567233
-0.0537562
-0.0617972
0.477806
0.497847
-0.193133
0.514083
0.516183
0.515886
0.510045
0.515006
0.513618
-0.0178536
-0.0230926
-0.0242298
0.191876
0.329655
0.69542
0.770931
0.64455
0.477043
0.180767
0.631597
0.683919
0.609189
0.739528
0.645604
0.656226
0.157544
0.0151722
0.161198
0.0938421
0.504753
0.504155
0.495173
0.492057
0.509219
0.506895
0.512094
0.509296
0.512466
0.513632
-0.0547559
-0.0836671
-0.10244
-0.145855
0.28261
0.549793
0.220799
0.244961
0.151169
-0.0584101
-0.0564474
-0.0649999
-0.0707086
-0.0241539
-0.0299446
0.0161806
0.0230164
0.00611194
-0.0209961
-0.031211
-0.0291849
-0.0359519
0.503875
0.503328
0.508867
0.517489
0.454004
0.457721
0.424163
0.442839
0.429087
0.369143
0.399042
0.376307
-0.0130564
-0.00196503
-0.00601591
-0.0247764
-0.0235611
-0.0450697
-0.0386151
-0.0351707
-0.0322724
-0.037435
-0.0575749
-0.0580455
-0.182638
-0.301314
0.971396
0.909447
0.128983
0.501026
0.506677
0.503854
0.508534
0.511739
0.512383
0.509965
0.506459
0.497944
0.499338
0.496225
0.497284
-0.133202
-0.242029
-0.0710658
-0.144174
0.145821
0.612348
0.337369
0.283582
0.268567
0.493148
0.702096
0.617912
0.678522
0.667412
-0.393649
0.0129588
-0.324458
0.223049
0.213819
0.721807
0.76307
0.779251
0.737298
0.693804
-0.0299707
0.54535
-0.0696686
-0.0202306
0.16896
0.0556332
0.654794
0.627794
0.632674
0.649937
0.661429
0.641172
0.624923
0.619371
0.645188
0.648961
0.493416
0.220616
0.178917
0.132556
0.621116
0.518652
0.570681
0.488455
0.500345
0.502782
0.501705
0.48259
0.489944
0.485619
0.492744
0.496389
0.503737
0.503942
0.499836
0.501722
-0.0758644
-0.0818383
-0.0675918
-0.13197
-0.133637
-0.180304
-0.0869494
0.0768232
0.0254298
0.224907
0.348507
0.060092
-0.055093
-0.0381602
0.0126173
0.177281
0.176147
0.0478139
0.158371
0.113247
0.108153
0.195801
0.219162
-0.0442142
-0.0472763
-0.0488315
-0.0538784
-0.00174609
0.101637
0.083579
-0.0176766
-0.0257428
-0.0546502
-0.0562015
-0.0170546
-0.0363631
-0.0301848
-0.00860789
-0.0520762
-0.0264272
-0.0154217
-0.0176114
-0.0206886
-0.0194576
0.497304
0.499509
0.499413
0.506437
0.52109
0.535224
0.499141
0.475209
0.466224
0.469332
0.442389
0.451631
0.446757
0.462553
0.484195
0.49337
0.490744
0.493485
0.475487
0.477259
0.462597
0.467184
0.43627
0.417872
0.407732
-0.0488967
-0.0156379
-0.0288699
-0.0433787
-0.0178995
-0.0281283
-0.0225238
-0.00413898
-0.0224839
-0.0196191
-0.0292963
-0.0347965
-0.0357354
-0.0837253
-0.000732508
-0.183388
-0.233085
-0.285457
0.883975
1.01918
0.807359
0.580605
0.591743
0.837574
0.932421
0.547869
0.72586
0.766653
0.57097
0.858381
0.504913
0.504535
0.502426
0.501613
0.50257
-0.0221437
0.0814377
0.0949891
0.152755
0.27062
0.377109
0.304756
0.191735
0.325056
0.349175
0.609356
0.61601
0.572503
0.595073
0.593509
0.405332
0.486001
0.526071
0.480017
0.553345
0.586971
0.533313
0.576374
0.496546
0.447085
0.438541
0.393811
0.428141
0.409585
0.384032
0.496326
0.47309
0.483988
0.473371
0.494736
0.520774
0.518933
0.538555
0.55669
0.474443
0.421807
0.438729
0.466726
0.423254
0.440137
0.461686
0.177839
0.0816878
0.245926
-0.0833507
0.00427988
0.0422577
0.000273184
-0.0425867
0.264658
-0.376121
-0.322046
-1.00166
0.487843
0.852198
0.609755
0.622522
0.660279
0.645191
0.654494
0.662899
0.667899
0.610518
0.619928
0.624088
0.59604
0.621448
0.622724
0.629917
0.497807
0.400593
0.399651
0.334708
0.195066
0.235046
0.427431
0.35945
0.284791
0.277373
0.448277
0.314822
0.39266
0.446487
0.37148
0.305697
0.534374
0.580189
0.571027
0.545482
0.430632
0.463521
0.468757
0.517246
0.558673
0.584972
0.49137
0.49768
0.498612
0.495868
0.494143
0.497266
0.497522
0.499803
0.500081
0.502645
0.502066
-0.0648306
-0.0526445
-0.0691474
-0.0732395
-0.0215561
-0.0308594
-0.00703215
-0.0280972
-0.0296768
-0.0270517
-0.0453588
-0.0592512
-0.0556866
-0.0440617
0.0626129
0.0775274
0.0790969
0.039655
0.252441
0.384053
0.444854
0.340128
0.187659
0.193047
0.267463
0.00121998
0.0129478
-0.00290916
0.0555095
0.0373929
-0.0488036
-0.0526722
-0.051276
-0.0413851
-0.034708
-0.0540125
-0.0514939
-0.0420489
-0.0489856
-0.0520426
-0.0537589
0.476878
0.469767
0.473406
0.465773
0.463942
0.480907
0.485382
0.486628
0.492171
0.494867
0.484344
0.490392
0.494523
-0.0230552
-0.0402088
-0.0411065
-0.0369537
-0.036602
-0.0363186
-0.0404631
0.119225
0.0239444
0.0598067
-0.00995299
-0.136243
-0.0772995
0.49372
0.490803
0.482238
0.713715
0.550591
0.469266
0.568323
0.687375
0.267066
0.468793
0.302404
0.88329
0.787843
0.933863
0.549435
0.246225
0.412021
0.422192
0.264051
0.387502
0.334999
0.210954
0.246562
0.278917
0.361835
0.250094
0.22921
-0.012953
0.167218
0.2783
0.260548
0.388548
0.44623
0.255568
0.172063
0.119126
0.589972
0.607199
0.61564
0.587178
0.608568
0.563282
0.553134
0.568398
0.576093
0.57289
-0.637465
-0.225747
-1.42637
-0.836742
-0.385618
0.516508
0.512231
0.742247
0.648804
0.675248
0.659098
0.598701
0.565474
0.611552
0.628764
0.325018
0.412344
0.397646
0.374976
0.320219
0.262004
0.535464
0.543507
0.567229
0.593144
0.568004
0.595256
0.490056
0.489899
0.488625
0.48491
0.483441
0.486635
0.0248665
-0.00201913
0.0318663
0.0175294
-0.0052486
-0.00781347
-0.0257914
-0.036987
-0.0359143
-0.0337129
-0.025473
-0.0238972
0.163943
0.103696
0.0145703
0.0565098
-0.00888705
-0.0863684
-0.0910713
-0.00339668
0.0961699
0.0783288
0.383751
0.655462
0.479449
0.64707
0.441725
0.543593
0.464542
0.437674
0.466853
0.366929
0.455944
0.0350556
-0.165316
-0.221421
0.813091
0.771408
0.555516
0.308063
0.192046
0.487358
0.515357
0.476023
0.500911
0.553742
0.533095
0.0102966
0.102538
0.180556
0.488417
0.272673
0.289995
0.281494
0.444427
0.415726
)
;

boundaryField
{
    wall-4
    {
        type            zeroGradient;
    }
    velocity-inlet-5
    {
        type            zeroGradient;
    }
    velocity-inlet-6
    {
        type            zeroGradient;
    }
    pressure-outlet-7
    {
        type            fixedValue;
        value           uniform 0;
    }
    wall-8
    {
        type            zeroGradient;
    }
    frontAndBackPlanes
    {
        type            empty;
    }
}


// ************************************************************************* //
