/*--------------------------------*- C++ -*----------------------------------*\
  =========                 |
  \\      /  F ield         | OpenFOAM: The Open Source CFD Toolbox
   \\    /   O peration     | Website:  https://openfoam.org
    \\  /    A nd           | Version:  6
     \\/     M anipulation  |
\*---------------------------------------------------------------------------*/
FoamFile
{
    version     2.0;
    format      ascii;
    class       volVectorField;
    location    "55";
    object      U;
}
// * * * * * * * * * * * * * * * * * * * * * * * * * * * * * * * * * * * * * //

dimensions      [0 1 -1 0 0 0 0];

internalField   nonuniform List<vector> 
918
(
(0.985049 -0.000713232 0)
(0.00534983 2.96624 0)
(-0.00113427 0.883082 0)
(0.979574 0.00196068 0)
(-0.0121961 2.06725 3.22127e-20)
(-0.00709379 2.94856 -2.61249e-18)
(0.81039 1.11165 4.38674e-19)
(0.193936 0.0866614 -1.46643e-20)
(0.999921 -0.000243764 0)
(0.0844708 0.692636 0)
(0.0098726 0.457022 0)
(0.734032 -0.0180396 0)
(0.010178 2.93164 0)
(0.00373746 2.79449 0)
(-0.00150472 3.18365 8.23968e-19)
(-0.0130967 1.91987 1.67179e-20)
(0.291988 0.0264103 9.88808e-19)
(0.227973 1.10721 3.553e-19)
(0.964407 0.00673982 0)
(0.00196662 0.427915 0)
(0.0286835 0.114505 -6.86183e-19)
(1.00183 -0.00456145 0)
(0.999851 -0.00892894 0)
(0.975163 -0.00605301 0)
(0.59774 0.0103259 0)
(0.0218146 2.64425 0)
(-0.0122657 2.91188 9.58564e-19)
(-0.00473202 0.937943 0)
(-0.0265143 1.16893 0)
(-0.00285805 0.908605 0)
(-0.0191258 2.59874 0)
(-0.00280301 2.11657 -2.57294e-20)
(-0.00833692 1.89673 0)
(-0.022145 2.9876 -9.42784e-23)
(-0.0164951 3.0055 2.03004e-18)
(0.00230429 3.0006 0)
(0.87174 -0.00971712 0)
(0.37714 0.91815 1.66477e-19)
(0.8093 1.13015 -5.48647e-19)
(0.942146 0.994815 5.55128e-19)
(0.673366 1.21174 -1.01105e-19)
(0.686685 1.17344 5.77399e-19)
(0.217407 0.159548 1.4306e-20)
(0.203757 0.0723031 0)
(1.15253 0.526188 0)
(0.19114 0.147389 6.51931e-20)
(0.170179 0.0843191 -6.76518e-20)
(0.9205 -0.00703898 0)
(1.00026 6.6439e-05 0)
(0.999908 0.000319024 0)
(1.0037 -0.00728433 0)
(1.00089 -0.000945181 0)
(1.00011 -9.00063e-06 0)
(0.0926117 1.84037 -7.37286e-19)
(0.0334012 0.879799 0)
(0.122682 0.770414 0)
(0.0197814 0.831455 0)
(0.0451891 0.627414 0)
(0.00359788 2.02218 0)
(-0.0050046 0.745776 0)
(0.0103649 0.485445 0)
(-0.00672923 0.739376 0)
(0.00696239 0.453829 0)
(0.842662 -0.0157293 0)
(0.837715 0.0346283 0)
(0.766096 -0.00855048 0)
(0.806276 0.0453301 0)
(0.702582 -0.0158452 0)
(0.0139449 3.0002 9.70141e-19)
(0.0111668 3.00593 0)
(0.00627434 3.00389 0)
(0.0118734 2.9971 1.10241e-23)
(0.00825593 2.95875 -1.44187e-18)
(0.0121975 2.98297 0)
(0.00904774 2.90491 0)
(0.0211319 2.93149 2.24593e-24)
(0.00412999 2.8239 0)
(0.026098 2.91888 0)
(-0.00102248 2.74502 0)
(0.307741 3.581 0)
(-0.122373 3.66404 0)
(0.150774 3.27455 -7.66859e-19)
(0.00446361 3.00991 0)
(-0.0253654 1.98768 0)
(-0.00608058 2.17419 -1.64886e-20)
(-0.009024 1.9303 1.50064e-20)
(0.373631 0.144214 -3.42888e-19)
(0.312579 0.0018032 -3.33248e-19)
(0.333973 0.159891 -1.02806e-18)
(0.263793 0.0346134 -6.70494e-19)
(0.258993 1.01014 0)
(0.325848 1.23167 -3.64936e-19)
(0.406374 1.14145 6.01764e-19)
(0.987793 0.00813325 0)
(0.943323 0.00579422 0)
(1.00028 0.000671771 0)
(1.00254 0.00906709 0)
(1.00312 0.00897902 -2.63338e-18)
(0.992136 0.00943745 1.98993e-18)
(-0.0166429 0.759215 0)
(0.00294518 0.444127 0)
(-0.0503648 1.02367 0)
(-0.0302162 0.806972 0)
(-0.0189215 0.423758 0)
(0.0199802 0.137032 2.12243e-19)
(0.0865258 0.105309 0)
(0.99362 -0.0076955 0)
(0.954033 -0.0064786 0)
(0.745481 0.0495359 0)
(0.679244 0.0404329 0)
(0.659853 -0.0143575 0)
(0.9767 -0.00352238 0)
(0.595926 0.0473132 0)
(0.442559 -0.0328399 1.49912e-18)
(-0.0407745 2.86115 7.58435e-19)
(0.0335096 2.91444 0)
(0.0425153 2.89219 0)
(0.00363984 2.70171 0)
(-0.00888691 2.98626 9.18393e-19)
(-0.0142951 2.89468 0)
(-0.0110641 2.99182 -2.82565e-18)
(-0.0115889 2.92959 9.6165e-19)
(-0.0383384 1.34158 0)
(-0.0098879 1.36899 0)
(-0.00614061 2.13707 6.52843e-22)
(-0.00614801 2.09798 0)
(-0.0163033 1.90455 0)
(0.938717 -0.0052653 0)
(0.856982 -0.0110908 0)
(0.863533 0.00513037 0)
(0.949541 -0.00618852 0)
(0.883543 -0.00806963 0)
(0.501065 1.11846 -2.11358e-19)
(0.548278 1.18835 0)
(0.33897 0.852688 3.22813e-20)
(0.282961 0.717371 0)
(0.908487 1.02656 -1.56342e-19)
(1.02954 0.837016 3.11867e-19)
(0.387037 1.3095 0)
(0.535203 1.2642 0)
(0.589698 1.18768 0)
(0.100776 0.180439 -2.98228e-19)
(0.23648 0.163222 0)
(0.208275 0.076483 1.88166e-19)
(0.993036 0.891227 0)
(1.06793 0.740081 0)
(1.09719 0.675558 -2.46573e-19)
(1.13453 0.586972 0)
(1.19005 0.389447 4.59415e-20)
(0.957411 -0.00712952 0)
(0.962675 -0.00812878 0)
(0.900825 -0.00736243 0)
(0.983917 -0.00813096 0)
(0.974401 -0.00804578 0)
(0.936515 -0.00656165 0)
(1.0002 0.0025032 0)
(1.00077 0.00124222 0)
(1 0.000765437 0)
(0.044096 2.08712 4.10667e-19)
(0.145859 1.78337 0)
(0.0185405 2.20332 6.22975e-19)
(0.0521688 1.89055 -5.21672e-19)
(0.163295 1.0862 -2.91724e-19)
(0.0443081 0.953509 0)
(0.117844 0.947204 0)
(0.00578293 0.798558 0)
(0.0248163 0.56574 0)
(-0.00350823 2.25432 -5.35652e-22)
(0.0172609 2.02832 0)
(-0.00474778 2.25411 -1.64457e-20)
(0.00264404 2.03226 2.02706e-20)
(-0.000951744 0.769918 0)
(-0.00418063 0.7548 0)
(0.0122535 0.513003 0)
(-0.0109107 0.750301 0)
(0.00575333 0.446977 0)
(0.938733 0.0136045 0)
(0.85515 -0.0118333 0)
(0.928126 0.00467198 0)
(0.845583 -0.0128172 0)
(0.812163 -0.00247461 0)
(0.898051 0.0232066 0)
(0.871742 0.0289694 0)
(0.788357 -0.00586377 0)
(0.0101778 3.06771 -9.04382e-21)
(0.0152563 3.05879 0)
(0.012382 2.97028 0)
(0.00766235 2.87666 0)
(0.898029 3.97698 0)
(1.19267 3.37238 9.40391e-19)
(0.0818115 3.09204 0)
(-0.0169173 2.91878 0)
(-0.0118842 1.39405 0)
(-0.0316617 1.69264 0)
(-0.019569 1.527 0)
(-0.0300844 2.55753 -1.2558e-20)
(-0.0138039 2.2461 0)
(-0.0188207 2.39432 0)
(-0.000420973 1.95687 5.84302e-22)
(-0.00438787 2.24805 -1.89915e-20)
(-0.00535917 2.2109 -1.5422e-20)
(-0.00547572 1.94226 0)
(0.410298 0.120716 5.26234e-19)
(0.345211 -0.00537953 -5.16076e-19)
(0.229863 1.59044 0)
(0.288706 0.759635 -3.24458e-19)
(0.18274 1.68384 -1.06607e-18)
(0.247413 1.21765 1.06751e-18)
(0.90177 0.00599054 0)
(0.967126 0.0105892 0)
(0.974977 0.00981388 0)
(0.923069 0.00591796 0)
(-0.0086302 0.756558 0)
(-0.0095374 0.75405 0)
(-0.00614131 0.442389 0)
(0.160594 0.142498 6.00682e-19)
(0.126676 0.131299 -7.10053e-19)
(0.126823 0.0922237 0)
(1.10257 0.0889382 2.42523e-20)
(1.08632 0.0414932 0)
(1.01612 0.0431439 0)
(0.91155 -0.00210119 0)
(0.45017 0.0982239 0)
(0.517761 0.073586 -2.39717e-18)
(0.386066 -0.00973835 8.98389e-19)
(0.0109094 2.97731 8.02382e-19)
(-0.0326057 2.86157 4.58755e-20)
(0.00846579 3.05338 -1.90808e-20)
(0.0156363 3.04331 7.15814e-19)
(-0.0118379 2.99999 3.16214e-20)
(-0.0123397 2.95225 -1.27609e-22)
(-0.0150258 3.01334 -5.90368e-19)
(0.0142848 3.02669 4.15331e-19)
(0.00758564 3.03477 -6.75232e-19)
(0.934387 0.0019823 0)
(0.93929 -0.0012262 0)
(0.847711 -0.0111465 0)
(0.956438 0.0116723 0)
(0.942572 0.0131584 0)
(0.881781 0.00555556 0)
(0.915902 0.0183873 0)
(0.925433 0.0151348 0)
(0.838156 0.0013696 0)
(0.673931 1.41729 1.65247e-20)
(0.691911 1.52793 0)
(0.12021 0.300677 6.86276e-20)
(0.20844 0.649554 5.42809e-19)
(0.239274 0.693571 -3.17828e-19)
(0.21894 0.508302 6.30104e-19)
(0.335413 0.823844 1.57763e-18)
(0.13112 0.233544 3.78628e-19)
(0.302791 0.172124 7.12019e-19)
(0.264847 0.173935 1.83937e-19)
(0.232324 0.0572351 3.51693e-19)
(1.18315 0.441269 8.56555e-20)
(1.2102 0.243831 8.4013e-20)
(0.00815132 2.24637 2.42702e-19)
(0.0381483 1.95268 0)
(0.971238 0.0326413 0)
(0.945711 0.0189428 0)
(0.869427 -0.0155092 0)
(0.0126637 3.07454 0)
(0.0169004 2.94416 1.26548e-18)
(0.0139329 2.95684 0)
(0.00582928 2.8497 -1.25576e-18)
(0.00913386 3.09117 3.09337e-19)
(0.0114796 3.08287 0)
(0.712207 1.82478 -1.71935e-19)
(1.23713 2.63047 5.81254e-19)
(0.696954 2.00302 -1.40149e-18)
(0.0222213 2.9764 -6.99517e-19)
(0.0405304 2.99837 0)
(-0.0386893 2.87891 0)
(-0.0058085 2.23243 -1.27451e-20)
(-0.00425997 2.25314 3.49709e-20)
(-0.000152214 1.99267 -7.33e-21)
(0.26875 1.39452 1.03592e-18)
(0.278818 0.553499 -7.10281e-19)
(0.0710141 2.00414 7.52124e-19)
(0.122807 1.87803 -9.02045e-19)
(0.20535 1.53311 1.00678e-19)
(0.00746465 3.11983 -1.72303e-18)
(0.0135053 3.12095 1.899e-18)
(-0.00514431 2.98013 8.61537e-19)
(-0.0013626 2.97498 -8.26843e-19)
(-0.0179653 2.87738 -8.7751e-19)
(0.0125683 3.09932 -2.29951e-18)
(0.00440695 3.10591 2.33621e-18)
(0.260675 0.693153 0)
(0.213343 0.656603 -1.15412e-18)
(0.0718383 0.213896 5.07586e-19)
(0.343655 0.941683 1.12211e-18)
(0.195567 0.276385 -1.728e-18)
(1.19128 0.174093 4.97834e-20)
(1.20692 0.302048 0)
(1.18681 0.120013 6.37995e-21)
(-0.0015024 2.26329 -1.28845e-21)
(0.00272142 2.25006 0)
(0.0290778 1.98783 0)
(0.311338 1.31466 -3.70638e-19)
(0.352136 1.16772 -8.02745e-19)
(0.227848 0.386036 1.43371e-18)
(1.00644 -0.00969563 0)
(1.00774 -0.00779257 4.84082e-19)
(-0.0337283 1.32406 0)
(-0.0398454 1.32996 0)
(1.00245 0.00328389 1.35432e-21)
(1.00321 0.0078223 9.9369e-19)
(-0.0211969 2.54308 1.59094e-20)
(-0.0250748 2.58621 0)
(0.0406581 3.17264 4.99969e-19)
(0.376143 3.54518 0)
(1.15127 0.688022 -5.39985e-20)
(1.01186 0.0107087 -2.8201e-21)
(1.02082 -0.00906317 0)
(1.00158 0.00026615 1.53416e-22)
(0.10613 1.36736 0)
(0.137244 2.59224 0)
(0.0235742 1.31675 0)
(-0.00324194 2.63769 7.49721e-21)
(-0.0231639 2.5862 -1.97627e-21)
(0.997321 0.027831 2.62498e-21)
(1.06268 0.00566924 0)
(1.09944 0.0281733 0)
(-0.0303824 1.73953 0)
(-0.0183997 2.58617 0)
(-0.00813319 1.31522 0)
(0.301076 1.48438 -1.76109e-19)
(1.0115 -0.00907158 0)
(1.0097 -0.0129957 0)
(1.00228 0.000946705 6.20258e-19)
(1.00548 -0.00492158 -7.30771e-19)
(1.00113 -0.000869219 0)
(-0.0176978 1.4616 0)
(-0.00882268 1.37885 0)
(-0.0130273 1.42128 0)
(-0.011487 1.30267 0)
(-0.0222744 1.29437 0)
(-0.0142894 1.27405 0)
(1.03554 -0.00440507 0)
(1.01902 0.0150375 -8.88894e-22)
(0.809595 1.30389 2.77002e-19)
(1.0024 0.000376651 -6.19286e-19)
(1.00338 0.00446519 7.39456e-19)
(1.00128 0.00210745 0)
(1.01118 0.00965056 6.16989e-19)
(1.0069 0.00748237 -7.5101e-19)
(1.0072 0.0111686 0)
(-0.0227604 2.61418 0)
(-0.0255174 2.5939 -2.67713e-20)
(-0.0227375 2.60781 1.88982e-20)
(1.23874 0.270545 5.29605e-19)
(1.16245 0.0882181 0)
(0.0440935 3.09118 -9.87443e-19)
(0.0511715 2.87298 -6.98934e-20)
(0.103459 3.20152 1.32205e-18)
(0.122208 3.21353 -2.85716e-19)
(0.143191 3.25855 0)
(0.0223135 3.13779 2.72131e-19)
(0.0610192 3.16177 9.83739e-19)
(0.0614195 3.17869 -5.08813e-19)
(0.0269224 3.1292 0)
(0.600953 0.284627 0)
(0.54106 0.314179 0)
(1.13183 0.719341 1.24375e-19)
(1.09815 0.854243 -1.11021e-19)
(1.19093 0.605651 0)
(1.21927 0.539895 0)
(1.01576 0.0120354 -1.14618e-18)
(1.01473 0.0127888 1.44108e-18)
(1.02566 -0.00876381 0)
(1.02399 -0.0103287 0)
(1.0067 0.00307362 0)
(1.01092 0.00420341 0)
(1.0043 0.00220028 0)
(1.00944 0.00638784 0)
(1.00692 0.0050661 0)
(1.00445 0.00529679 0)
(0.0957241 1.36538 0)
(0.0810359 1.33398 0)
(0.129482 1.41124 0)
(0.133173 1.4033 0)
(0.143751 2.6186 0)
(0.186116 2.68867 -4.17601e-19)
(0.107786 2.67814 0)
(0.0829392 2.67723 1.66871e-19)
(0.0274744 2.6817 -1.61744e-19)
(0.0134617 1.32388 0)
(0.0185222 1.2527 0)
(0.0189699 1.33727 0)
(0.0344055 1.28049 0)
(-0.00179883 1.99366 2.27445e-20)
(-0.0228262 2.61427 -2.694e-20)
(-0.0100876 2.68007 -1.42189e-20)
(-0.0211512 2.69198 0)
(-0.0245797 2.62061 1.10276e-20)
(-0.0233133 2.61595 2.73194e-20)
(0.00568708 1.99146 -1.64308e-20)
(-0.0106368 2.40755 3.61444e-20)
(-0.0157612 2.42987 1.61189e-20)
(1.00938 0.0392983 1.16375e-18)
(1.00471 0.0176884 -1.44925e-18)
(1.00239 0.0453347 -1.1904e-18)
(0.974394 0.0328415 1.49857e-18)
(1.06432 0.00892094 0)
(1.04965 -0.0065675 0)
(1.09207 0.0367652 0)
(1.07535 0.0145653 0)
(1.07402 0.000510108 0)
(1.1405 0.0778329 0)
(1.11475 0.0451491 0)
(1.11749 0.0371269 0)
(-0.0261612 2.4359 2.61563e-21)
(-0.0175584 2.01699 0)
(-0.0167912 2.21945 0)
(-0.0204516 2.60707 -1.5134e-20)
(-0.0176991 2.61774 4.55169e-22)
(0.000609155 1.57907 -4.80064e-20)
(-0.00762379 1.50405 4.89965e-20)
(-0.0180479 1.39345 0)
(-0.0223541 1.39988 0)
(-0.0297482 1.39362 0)
(-0.0061482 1.31738 0)
(0.00367532 1.24292 0)
(0.382131 1.50672 2.93885e-19)
(0.431011 1.51054 1.54342e-19)
(0.604629 2.46291 -2.46611e-19)
(0.384001 2.56356 6.76119e-19)
(0.352601 2.06309 6.75655e-20)
(1.02065 -0.00803962 0)
(1.01577 -0.00938322 0)
(1.01483 -0.0132392 0)
(1.00768 -0.000600271 0)
(1.00489 -0.000655637 0)
(1.00799 -0.00451211 0)
(1.00953 -0.00348586 0)
(1.01462 -0.00434185 0)
(1.01978 0.0160924 1.12481e-18)
(1.01736 0.0147382 -1.42249e-18)
(1.02014 0.0183388 -1.13445e-18)
(1.01777 0.0168175 1.41619e-18)
(0.764475 1.35086 0)
(0.705257 1.38351 2.44998e-19)
(0.870225 1.23238 9.7193e-20)
(0.908511 1.19122 -1.28994e-19)
(1.16659 2.6167 2.77246e-19)
(0.763466 0.122548 5.84167e-19)
(1.1703 0.105509 0)
(1.21143 0.198525 -4.29353e-19)
(1.19238 0.153473 -1.78273e-20)
(1.01516 0.163874 0)
(0.0799211 3.02043 3.51814e-19)
(0.0841421 2.90388 -1.16801e-18)
(0.0288901 2.36195 7.3989e-19)
(0.137127 -0.188276 -3.48083e-19)
(0.344091 3.44857 -2.48419e-19)
(0.194479 3.34195 0)
(0.225222 3.39946 3.23595e-19)
(0.224793 3.07867 -1.22568e-18)
(0.257809 3.19795 0)
(0.00702928 3.12247 5.12163e-20)
(0.0178483 3.13113 -5.88075e-19)
(0.0166251 3.12702 8.65555e-19)
(0.0331946 3.13984 0)
(0.0309921 3.14976 0)
(1.26046 2.5818 0)
(0.528661 0.798528 -5.25505e-19)
(1.01977 1.02777 -7.83815e-21)
(0.984704 1.081 0)
(0.853223 0.966565 -1.07319e-19)
(1.07616 0.903633 2.70505e-20)
(0.367894 0.337211 -8.55256e-19)
(0.673471 0.31082 -2.19712e-20)
(0.594222 0.220945 3.98094e-19)
(0.568359 0.335103 2.94172e-20)
(0.465038 0.298375 -1.18112e-18)
(0.632486 0.316866 0)
(0.695454 0.416488 6.68582e-19)
(0.698758 0.423122 0)
(0.604767 0.33454 0)
(0.540149 0.25927 0)
(0.788161 0.649961 3.96791e-19)
(1.24873 0.302783 -4.32356e-19)
(1.24041 0.434602 0)
(1.242 0.390944 0)
(0.708476 0.185494 6.02535e-19)
(0.837514 0.548961 -3.76226e-19)
(0.75928 0.511578 6.70042e-19)
(0.959502 0.441578 -6.81314e-19)
(1.01854 0.0146025 7.62408e-19)
(1.01717 0.0136121 -7.70278e-19)
(1.01605 0.0141796 0)
(1.03691 -0.00461753 0)
(1.03035 -0.00774143 -7.22516e-19)
(1.02853 -0.0106262 7.15031e-19)
(1.02475 0.0107848 0)
(1.02276 0.0148582 0)
(1.01267 0.00462362 0)
(1.01455 0.00910481 0)
(1.01627 0.00414246 0)
(1.0155 0.00287185 0)
(0.0641648 1.3545 0)
(0.0648041 1.31178 0)
(0.145687 1.40685 5.10748e-20)
(0.273233 1.47863 8.57274e-20)
(0.163635 1.44958 1.90667e-19)
(0.197945 1.45322 -3.08551e-19)
(0.154824 1.41774 0)
(0.138724 1.58974 -7.59768e-20)
(0.140432 1.5805 0)
(0.354672 2.01583 -9.83544e-20)
(0.326261 2.35178 6.16789e-19)
(0.199491 1.46282 6.62075e-20)
(0.268718 1.38885 2.46507e-20)
(0.203268 1.38561 -2.00745e-20)
(0.2826 1.32946 -8.64466e-20)
(0.248522 1.57909 0)
(0.269312 1.62449 9.62289e-20)
(0.0257477 2.26673 -1.57554e-20)
(0.0357053 2.6763 0)
(0.0649777 2.41268 9.31695e-20)
(0.0598501 2.43452 0)
(0.0683591 2.69484 -1.85264e-19)
(0.0416312 2.71001 0)
(0.0226809 1.43275 4.97676e-20)
(0.0327399 1.49124 0)
(0.0286262 1.39643 0)
(0.018275 1.39961 -5.76266e-20)
(-0.000897985 2.66502 -2.31592e-21)
(0.023356 2.6994 1.84189e-19)
(0.00677689 2.73534 1.02708e-21)
(-0.00116921 1.83983 -1.3209e-20)
(-0.00561212 1.69135 -1.08711e-20)
(0.0116252 1.30512 0)
(0.0162177 1.23329 0)
(0.0376526 1.58402 -2.1283e-20)
(0.0358994 1.46103 -4.57081e-20)
(0.0300547 1.53294 5.19843e-20)
(0.0438745 1.60994 0)
(-0.0298137 2.27254 1.02446e-19)
(-0.0324416 2.5544 -4.31733e-20)
(-0.0197177 2.45321 6.38206e-21)
(-0.00667739 1.85798 1.60187e-20)
(-0.0278662 2.5087 7.9104e-21)
(-0.0237236 2.44954 -1.28382e-20)
(1.01795 0.0215312 -7.68363e-19)
(1.01392 0.0278729 7.73372e-19)
(1.01272 0.0167382 0)
(1.01236 0.0702835 1.05697e-18)
(0.990873 0.0565415 -1.21881e-18)
(0.951661 0.0565967 1.36065e-18)
(1.01304 0.115931 -1.43704e-19)
(1.04378 -0.00477386 0)
(1.05195 -0.000580264 6.9207e-19)
(1.04013 -0.00822534 -6.91642e-19)
(1.07193 0.0430504 -4.10333e-20)
(1.06475 0.0284842 3.54374e-19)
(1.06418 0.0647086 0)
(1.05418 0.0539589 -1.27603e-19)
(1.03239 0.044355 0)
(1.02535 0.039669 0)
(1.02763 0.0135644 0)
(1.02397 0.0160388 0)
(1.04051 0.0333869 2.62377e-19)
(1.03933 0.0286384 -5.80922e-19)
(1.05291 0.0381442 -2.77608e-19)
(1.04822 0.0380875 -3.06341e-19)
(1.07771 0.0693854 5.8572e-19)
(1.10131 0.0551648 0)
(1.10824 0.0935703 0)
(-0.027469 2.27924 6.26989e-20)
(-0.0278754 2.02546 2.62583e-21)
(-0.0235956 2.03447 0)
(-0.0285551 2.44875 -6.24352e-20)
(-0.024905 2.40656 -5.13081e-21)
(-0.0322011 2.47712 7.86182e-21)
(-0.0218632 2.62814 -2.32621e-20)
(-0.025562 2.57055 1.05074e-21)
(-0.0246453 2.5237 -7.87054e-21)
(-0.0169373 2.62133 1.66429e-20)
(-0.0214197 2.62346 -1.88605e-20)
(-0.00883753 1.4964 -1.25713e-22)
(-0.00269035 1.62727 -4.507e-20)
(0.369175 1.44571 -1.2601e-19)
(0.366867 1.37687 1.37575e-20)
(0.645698 1.43196 -2.37376e-19)
(0.521384 1.50299 -1.50136e-19)
(0.576913 1.46089 0)
(0.602711 2.43875 2.09429e-19)
(0.667777 2.43705 3.39874e-19)
(0.414126 2.52593 9.102e-20)
(0.39986 2.55102 -6.16277e-19)
(0.504059 2.48867 5.7274e-19)
(0.561235 2.4803 0)
(0.484972 2.53609 -5.5805e-19)
(0.257058 2.60511 1.14235e-18)
(0.361593 2.56645 -6.73536e-20)
(0.285992 2.66262 -1.59242e-18)
(0.969045 2.39522 7.17185e-19)
(0.848854 2.39673 0)
(1.01147 0.00135721 2.51489e-20)
(1.01534 -0.00523443 -2.05346e-20)
(1.01771 -0.00401396 -3.75418e-19)
(1.01556 -0.00109125 3.74039e-19)
(1.0131 0.00180205 0)
(0.634997 1.30038 0)
(0.677338 1.18635 0)
(0.789731 1.11227 0)
(0.664815 1.14221 0)
(1.19723 2.63234 5.14007e-20)
(1.09031 2.38388 0)
(0.821816 2.17871 3.5402e-21)
(0.824069 2.44206 0)
(0.918286 2.53095 -4.3224e-19)
(0.950044 2.48024 2.8863e-19)
(0.790436 0.162282 0)
(0.74265 0.141044 1.58512e-19)
(0.912096 0.155409 9.23492e-19)
(0.820412 0.137797 -3.47794e-19)
(0.770749 0.0878909 -1.06199e-18)
(1.08706 0.241568 -8.44914e-19)
(0.987438 0.310596 -9.25152e-21)
(0.929268 0.344245 8.21043e-19)
(1.01637 0.253434 6.94069e-19)
(0.935722 0.201386 -1.21862e-18)
(0.893221 0.213954 1.52989e-19)
(0.933174 0.307582 -3.1873e-19)
(0.908666 0.218657 0)
(1.00082 0.205476 5.96474e-19)
(1.05675 0.21374 0)
(1.05196 0.225177 0)
(1.12462 0.122542 2.68211e-19)
(1.06487 0.190643 -1.04588e-20)
(1.0794 0.243222 -1.53457e-19)
(1.11393 0.208028 0)
(1.02349 0.0488272 5.94068e-19)
(1.03825 0.0627016 7.38782e-19)
(1.03281 0.0465144 -5.89284e-19)
(1.04217 0.0685449 -4.95241e-19)
(1.01512 0.0746144 -7.48374e-19)
(0.988269 0.167085 0)
(0.991101 0.106819 0)
(0.960737 0.0689959 -4.82505e-19)
(0.906866 0.0974777 1.8982e-19)
(1.03961 0.115675 6.84677e-19)
(1.07586 0.13469 -7.85406e-19)
(1.07001 0.177161 7.06023e-19)
(1.03563 0.154192 0)
(1.08586 0.120242 0)
(1.05767 0.110737 -3.21622e-19)
(1.04409 0.107267 -5.56813e-19)
(0.590156 1.09554 1.16234e-19)
(0.618087 1.41406 -2.0652e-20)
(1.1467 2.72357 -2.45342e-19)
(1.19904 3.10731 2.20378e-21)
(1.25537 2.73308 -1.25656e-19)
(1.29554 2.70443 1.86574e-20)
(1.27156 2.328 -3.77395e-20)
(1.18689 3.01287 -7.25723e-20)
(1.2063 2.96973 2.21906e-19)
(1.18098 3.26116 -1.2351e-19)
(1.39935 2.97643 1.53639e-19)
(1.41103 2.91368 0)
(0.566508 0.823685 -4.75261e-20)
(0.219505 1.21574 4.79869e-19)
(0.508298 0.38946 5.48722e-19)
(0.39044 0.150213 6.2676e-19)
(0.502138 0.329295 6.67216e-19)
(0.54357 0.435268 -1.0797e-18)
(0.548724 0.426456 8.87452e-19)
(0.484751 0.344296 -3.35483e-19)
(0.383195 0.282492 7.61572e-19)
(0.733687 0.249908 -3.46811e-19)
(0.695038 0.277734 0)
(0.644033 0.196993 7.61394e-21)
(0.737249 0.504638 3.64032e-19)
(0.701497 0.475891 -1.3229e-18)
(0.631113 0.440627 1.84891e-20)
(0.62939 0.419899 0)
(0.708672 0.715091 3.76067e-19)
(0.826365 0.79614 4.15232e-19)
(0.763245 0.844937 -4.83879e-19)
(0.894321 0.817264 -1.54678e-19)
(0.930325 0.86016 -3.63324e-20)
(0.938066 0.868051 3.72662e-20)
(0.875213 0.673174 -6.75357e-19)
(0.946954 0.720649 1.43814e-19)
(1.00013 0.72441 0)
(0.999206 0.700529 -1.85068e-19)
(1.03142 0.334032 2.13608e-19)
(1.15582 0.333716 2.59234e-19)
(1.07287 0.279171 3.45672e-19)
(0.99596 0.378372 -4.24572e-19)
(1.0503 0.480953 0)
(1.13309 0.422808 0)
(0.895683 0.416638 1.01877e-21)
(0.849186 0.307611 0)
(0.890591 0.296537 3.89514e-19)
(0.909115 0.340391 5.63182e-21)
(0.977452 0.486278 1.90565e-18)
(0.908608 0.545829 4.91764e-19)
(0.930956 0.500607 -5.22123e-19)
(0.851355 0.478461 5.55999e-19)
(0.820479 0.452301 3.51393e-19)
(0.798487 0.424058 -3.44504e-19)
(1.0281 -0.000379435 6.20365e-19)
(1.02038 0.0004668 0)
(1.01902 0.00130133 4.04769e-19)
(1.02255 -0.000852293 -9.16306e-19)
(1.02252 0.00447203 4.46415e-19)
(1.02005 0.011506 -9.34252e-19)
(1.02081 0.0112817 0)
(1.01975 0.0120231 -1.94571e-19)
(1.01651 0.00772471 4.87642e-19)
(1.01669 0.0108367 -2.44731e-19)
(1.0173 0.0105092 1.79079e-19)
(0.0295951 1.32881 0)
(0.031099 1.3702 0)
(0.0436645 1.33312 0)
(0.0487498 1.28675 0)
(0.0804706 1.38819 -6.43016e-20)
(0.0835558 1.36409 1.5347e-20)
(0.0805372 1.55585 3.31836e-21)
(0.0910536 1.38813 -3.74996e-20)
(0.0396794 1.47062 4.03143e-20)
(0.0441839 1.4662 -3.17949e-20)
(0.0681605 1.38015 -2.22551e-20)
(0.0569562 1.38375 6.90549e-20)
(0.0499807 1.35913 1.11381e-20)
(0.0401378 1.3823 6.86558e-21)
(0.103359 2.38236 -1.01745e-19)
(0.0917074 2.42545 0)
(0.141777 2.02113 8.71212e-20)
(0.122128 1.70372 2.98052e-20)
(0.219076 2.01784 -8.22567e-20)
(0.221972 2.4306 0)
(0.259379 2.38679 -5.67963e-19)
(0.29425 2.38432 4.16959e-19)
(0.25312 1.99352 -1.9008e-19)
(0.141169 2.16357 1.3956e-19)
(0.108962 2.2718 0)
(0.0179352 1.86552 -8.48156e-21)
(-0.00569821 2.39096 -2.17531e-20)
(0.00262732 2.14425 0)
(0.00548827 2.45258 -1.60243e-20)
(0.0267478 2.29375 1.52196e-20)
(0.0110879 1.41255 -9.21023e-21)
(0.0106693 1.39768 1.56041e-19)
(0.00925056 1.4035 -4.96079e-20)
(0.0162127 1.40466 -4.53835e-20)
(0.0212681 1.4359 0)
(0.0072836 1.38639 0)
(-0.0024454 1.29909 -5.73278e-20)
(0.00670569 1.37281 1.61886e-20)
(0.00810979 1.37405 0)
(0.00483236 1.29452 -4.38044e-20)
(0.0118835 1.22116 8.78118e-20)
(1.04226 0.0147643 0)
(1.04878 0.0102537 -6.472e-20)
(1.03899 0.0239638 -4.6808e-19)
(1.04945 0.022937 0)
(1.05445 0.0222248 0)
(1.03624 0.0127538 -6.77565e-21)
(1.03019 0.0130983 7.52928e-19)
(1.03188 0.0171771 9.14009e-19)
(1.02558 0.0209166 0)
(1.02194 0.021421 0)
(1.03548 0.0257037 4.66926e-19)
(1.02552 0.0278843 0)
(1.02326 0.0280973 0)
(-0.0209213 2.02854 0)
(-0.00776546 1.65432 -1.91293e-21)
(-0.0101589 1.76167 -2.93223e-20)
(3.26603e-05 1.38501 0)
(-0.0076461 1.55432 -2.31305e-20)
(-0.0134006 1.46343 1.54212e-20)
(-0.00436135 1.39753 0)
(0.407625 1.6441 0)
(0.363308 1.31582 -1.99877e-20)
(0.278187 1.3498 0)
(0.434696 1.31813 -4.80064e-20)
(0.467471 1.46973 0)
(0.454143 1.41477 4.49472e-20)
(1.04096 2.67831 -1.52809e-20)
(0.983925 2.4146 -9.01187e-19)
(0.945666 2.21184 1.01814e-18)
(0.865069 2.38897 2.41586e-19)
(0.854249 2.49577 0)
(0.92249 2.49122 0)
(0.952807 2.3887 0)
(0.92918 2.37881 -9.35656e-19)
(0.694106 2.46265 -3.76072e-19)
(0.802353 2.44617 -9.74064e-20)
(0.810126 2.42426 7.34075e-20)
(0.705199 2.40939 0)
(0.809855 2.4027 0)
(0.770847 2.41913 -3.67189e-19)
(0.767878 2.47494 0)
(0.627154 1.07005 0)
(0.51694 0.870804 -5.48203e-19)
(0.521806 0.940166 -3.1707e-20)
(0.504429 1.08086 0)
(0.490342 0.990004 8.40126e-19)
(0.793568 0.884518 -1.3279e-19)
(0.800183 1.01776 0)
(0.780494 0.999883 1.83025e-19)
(0.668897 1.02002 0)
(0.661336 0.928519 0)
(1.16497 2.75954 -2.19255e-19)
(1.14013 2.8178 -8.9254e-20)
(0.925654 2.34251 7.37484e-20)
(0.902259 2.32333 -7.57421e-20)
(1.13454 2.73767 0)
(1.08655 2.7058 9.10153e-20)
(1.10256 2.5009 -2.98124e-19)
(1.00415 2.25916 -2.86454e-20)
(0.502923 1.34297 0)
(0.522203 1.08636 -1.02431e-19)
(0.594763 1.18391 0)
(0.856906 0.226645 0)
(0.76808 0.17525 0)
(0.686396 0.140482 0)
(0.867108 0.226269 -6.14498e-19)
(0.760433 0.221905 3.60765e-19)
(0.914267 0.0877532 -3.86874e-19)
(0.936125 0.139069 0)
(0.913286 0.144318 1.71772e-19)
(0.847769 0.10448 6.88601e-19)
(0.802621 0.0747818 -4.32652e-19)
(1.09929 3.35347 -6.78128e-19)
(1.16613 3.27656 0)
(1.118 3.43851 -1.57726e-18)
(0.658676 3.5841 1.31389e-18)
(1.02877 3.08137 1.23181e-19)
(0.52946 0.795903 5.65952e-19)
(0.512379 0.765633 0)
(0.361255 0.411469 -1.4538e-19)
(0.471706 0.641946 8.55375e-19)
(0.535559 0.389384 -1.95286e-19)
(0.512444 0.469843 2.27916e-19)
(0.684737 0.531043 4.71971e-19)
(0.730846 0.56176 0)
(0.651511 0.57571 0)
(0.627775 0.534724 0)
(1.00897 0.607699 9.24358e-20)
(0.960525 0.586926 -4.75867e-19)
(0.972043 0.601356 3.62919e-19)
(1.03698 0.541086 -3.51811e-19)
(1.08251 0.511422 0)
(1.08473 0.59616 -9.2586e-20)
(0.880024 0.409119 -7.81565e-19)
(0.869752 0.398625 -1.00311e-18)
(0.8059 0.392723 6.15807e-19)
(0.8134 0.355867 -6.38817e-19)
(0.855602 0.317789 -5.00536e-19)
(0.806608 0.318201 6.13825e-19)
(1.02657 0.00654194 -4.67181e-19)
(1.0262 0.00666587 9.41352e-19)
(1.02988 0.000809363 6.01168e-19)
(1.03407 0.0014825 -7.21897e-19)
(1.03382 0.0115872 0)
(1.02978 0.0117687 -1.17824e-18)
(0.0828607 1.64605 1.14337e-20)
(0.0567797 1.59218 0)
(0.097722 1.69879 5.44268e-20)
(0.108262 1.67776 -4.68735e-20)
(0.0753101 1.5543 -6.0976e-21)
(0.0631162 1.55128 0)
(0.00379254 1.69087 0)
(-0.00570267 1.49937 1.20551e-20)
(-0.007214 1.44096 -1.08236e-20)
(-0.0109069 1.5509 3.20952e-21)
(-0.00400693 1.89016 1.73179e-20)
(-0.0155651 1.94466 -6.40175e-21)
(0.496964 1.37247 -2.5557e-19)
(0.499288 1.36925 2.79409e-19)
(0.449065 1.30897 -7.9716e-21)
(0.430646 1.30071 7.41648e-21)
(0.624116 1.30534 0)
(0.55226 1.4005 1.16559e-19)
(0.552604 1.40175 -1.13441e-19)
(0.485158 1.29345 7.67463e-21)
(0.525102 1.25082 0)
(0.590045 1.2165 0)
(0.668026 2.42612 5.53829e-19)
(0.662255 2.45435 1.27963e-18)
(0.718632 2.46954 -8.79911e-19)
(0.617065 2.44108 -2.01425e-19)
(0.558173 2.53697 2.73894e-19)
(0.498375 2.50174 -7.10443e-19)
(0.992691 2.39256 -5.73392e-19)
(1.02596 2.41028 0)
(0.951399 2.19591 -6.29356e-19)
(1.05714 2.68673 0)
(1.05636 2.6688 0)
(0.607751 2.29861 1.93653e-20)
(1.12147 3.07452 8.64191e-20)
(1.00083 2.97308 -1.37724e-19)
(0.328131 0.822423 0)
(0.332452 0.712784 -3.01771e-19)
(0.532518 0.643589 -3.0575e-19)
(0.371663 2.14266 0)
(0.406751 2.74658 -8.67095e-20)
(0.416839 2.48269 0)
(0.716316 0.679535 -8.02565e-19)
(0.779391 0.682409 1.1202e-18)
(0.790102 0.653909 -1.06145e-18)
(0.690424 0.640691 -1.0201e-19)
(0.753154 0.599724 -4.18867e-19)
(0.974706 2.75888 -6.54567e-20)
(1.01557 2.76389 -2.04129e-19)
(0.559319 2.2193 4.17867e-19)
(0.610021 1.74338 -3.34018e-19)
(0.708769 1.8609 -4.89451e-19)
(0.980467 2.399 -1.37724e-19)
(0.979745 2.35266 3.602e-19)
(0.653124 1.77506 3.28988e-20)
(0.459776 1.30621 1.73084e-19)
)
;

boundaryField
{
    wall-4
    {
        type            noSlip;
    }
    velocity-inlet-5
    {
        type            fixedValue;
        value           uniform (1 0 0);
    }
    velocity-inlet-6
    {
        type            fixedValue;
        value           uniform (0 3 0);
    }
    pressure-outlet-7
    {
        type            zeroGradient;
    }
    wall-8
    {
        type            noSlip;
    }
    frontAndBackPlanes
    {
        type            empty;
    }
}


// ************************************************************************* //
