/*--------------------------------*- C++ -*----------------------------------*\
  =========                 |
  \\      /  F ield         | OpenFOAM: The Open Source CFD Toolbox
   \\    /   O peration     | Website:  https://openfoam.org
    \\  /    A nd           | Version:  6
     \\/     M anipulation  |
\*---------------------------------------------------------------------------*/
FoamFile
{
    version     2.0;
    format      ascii;
    class       volScalarField;
    location    "77";
    object      p;
}
// * * * * * * * * * * * * * * * * * * * * * * * * * * * * * * * * * * * * * //

dimensions      [0 2 -2 0 0 0 0];

internalField   nonuniform List<scalar> 
918
(
0.53694
1.23437
0.00635523
0.53685
-0.0114926
1.20192
-0.50217
0.633738
0.518092
-0.124284
-0.0868539
0.520495
1.05941
0.826332
-1.16441
-0.0227734
0.6319
-0.417998
0.516143
-0.0796218
0.653666
0.524766
0.527232
0.518017
0.581356
0.779583
0.936812
-0.0032239
0.0108866
0.00571265
-0.012936
-0.0332761
-0.029825
1.08505
1.13697
1.16018
0.484587
0.319508
-0.397204
-0.451938
-0.42967
-0.519234
0.633822
0.634818
-0.227064
0.633899
0.634146
0.503777
0.517486
0.518322
0.519445
0.518354
0.519632
0.386611
-0.130716
-0.157172
-0.109167
-0.108357
0.0267277
-0.0886519
-0.0894825
-0.0835091
-0.0811165
0.43359
0.515294
0.511711
0.524385
0.534078
1.17453
1.14828
1.17435
1.08488
1.10241
1.03633
1.00921
0.847537
0.870755
0.809292
0.79535
-1.61886
-2.56255
-0.588961
-0.314096
-0.0104886
-0.0242414
-0.022903
0.627942
0.631591
0.630178
0.633821
1.04419
-0.389638
-0.461636
0.51668
0.515203
0.524288
0.525192
0.520156
0.520155
-0.0759643
-0.0748856
-0.0666621
-0.0774953
-0.0767426
0.638103
0.637994
0.517453
0.514895
0.542069
0.565168
0.552912
0.250611
0.592629
0.607961
0.643539
0.789378
0.776201
0.788818
0.912426
0.879885
0.968716
0.990413
0.014088
-0.00139068
-0.0241621
-0.022128
-0.0225388
0.480323
0.473882
0.502018
0.48821
0.491256
0.225001
0.0752247
0.401559
0.42514
-0.32133
-0.371882
-0.45802
-0.455572
-0.563478
0.606204
0.63593
0.635546
-0.238458
-0.166001
-0.293898
-0.108042
-0.165491
0.494718
0.500977
0.497048
0.512445
0.506609
0.509034
0.521556
0.518739
0.520333
0.442701
0.576269
0.307125
0.278617
-0.278713
-0.174842
-0.259167
-0.100823
-0.0995205
0.0368448
0.0666299
0.0135174
0.00103079
-0.0944486
-0.0911663
-0.093735
-0.0802324
-0.0803687
0.425027
0.411953
0.444843
0.452372
0.50139
0.502749
0.507693
0.505361
0.960652
0.983463
0.989423
0.965638
-3.53657
-6.16202
0.028289
0.186676
-0.00936639
-0.010714
2.66095e-05
-0.0100533
-0.00068964
-0.00275112
-0.0324383
-0.032139
-0.0256928
-0.0267132
0.627729
0.627969
1.01357
1.03966
0.985094
0.95755
0.506038
0.507911
0.512532
0.509415
-0.0783367
-0.0761496
-0.0781706
0.633953
0.636208
0.634689
0.209136
0.119968
0.302461
0.333753
0.622157
0.610991
0.620732
0.70338
0.741985
1.00671
1.03085
1.01492
1.02744
1.07826
1.10116
1.0665
0.458858
0.469806
0.464062
0.504909
0.502721
0.503666
0.500246
0.501144
0.499798
-0.0358366
-0.406513
0.474976
0.475999
0.46785
0.470852
0.693135
0.776889
0.632539
0.634479
0.635189
-0.0562524
-0.103208
0.236736
0.207664
0.363947
0.398666
0.380416
0.935734
0.895664
0.94403
0.919236
0.883922
0.908648
-0.342444
-2.10137
-1.09864
0.5849
0.388878
0.480126
-0.0157774
-0.0322117
-0.0288874
1.02834
1.06751
0.648004
0.83913
0.790463
0.765089
0.791718
0.854098
0.786766
0.821556
0.852277
0.828589
0.55569
0.485426
0.503614
0.852167
0.907875
0.0821073
0.00258392
-0.0203895
0.0916087
0.165563
0.131584
1.04391
0.960977
1.02359
0.515135
0.516088
-0.0182484
-0.0419765
0.520205
0.519915
-0.0222647
-0.0126569
0.495822
-0.931257
0.0827855
0.509748
0.499355
0.516205
-0.103442
0.315752
-0.0892041
0.00584248
-0.0258507
0.510216
0.445941
0.403568
-0.00742371
-0.0319699
-0.0722586
-0.214468
0.512874
0.511233
0.515594
0.51641
0.517189
-0.0277395
-0.0273275
-0.0188809
-0.0660137
-0.060554
-0.07054
0.479453
0.499638
-0.193568
0.515888
0.517992
0.517687
0.511911
0.516837
0.515474
-0.0234845
-0.0271122
-0.0289171
0.188806
0.330745
0.678775
0.753261
0.628028
0.461744
0.170624
0.615916
0.667792
0.593153
0.723427
0.632667
0.631142
0.149578
0.00568703
0.153848
0.0870297
0.506577
0.50603
0.496876
0.493747
0.511041
0.508716
0.513914
0.511159
0.514332
0.515475
-0.058807
-0.0897256
-0.106351
-0.148644
0.281903
0.543268
0.210743
0.243282
0.149942
-0.0807881
-0.0809752
-0.0839729
-0.0882502
-0.0446214
-0.0450146
-0.000900789
0.00978761
-0.00665838
-0.0324441
-0.0535562
-0.0463555
-0.0554709
0.503524
0.504445
0.509054
0.517937
0.455592
0.459297
0.425601
0.444332
0.430505
0.370554
0.400206
0.377365
-0.0184666
-0.00867149
-0.0104652
-0.0327034
-0.0318824
-0.0525947
-0.045263
-0.0438526
-0.0400007
-0.0448343
-0.0672127
-0.0730844
-0.177884
-0.297623
0.958824
0.899977
0.136525
0.502765
0.508438
0.505603
0.510349
0.513544
0.514171
0.511736
0.508223
0.499734
0.50129
0.497944
0.499153
-0.131453
-0.241696
-0.0727148
-0.149496
0.147699
0.612928
0.338007
0.282582
0.267756
0.495724
0.694584
0.602351
0.65644
0.630429
-0.392227
0.00730058
-0.326384
0.220047
0.214261
0.705724
0.747337
0.764797
0.721565
0.678032
-0.023159
0.547517
-0.0777251
-0.0257059
0.166293
0.0474276
0.619571
0.6191
0.626239
0.625734
0.631329
0.626075
0.611484
0.605304
0.625061
0.629842
0.489262
0.217103
0.173612
0.127847
0.617878
0.513036
0.562404
0.480899
0.502226
0.504647
0.50361
0.484258
0.491629
0.487282
0.494527
0.498177
0.505526
0.505716
0.501521
0.503463
-0.0819625
-0.0903274
-0.0746739
-0.128796
-0.134077
-0.177487
-0.0911015
0.0877139
0.0360874
0.226536
0.346094
0.0667678
-0.0563544
-0.0395308
0.0129118
0.180676
0.174964
0.0413868
0.155501
0.108742
0.102183
0.193299
0.215796
-0.0570014
-0.0628203
-0.0637157
-0.0694748
-0.0178055
0.103039
0.0746865
-0.0333173
-0.0405883
-0.0773722
-0.0773843
-0.00937311
-0.0467709
-0.0391101
-0.0135394
-0.0601124
-0.03497
-0.0255799
-0.0328695
-0.0340083
-0.033361
0.499124
0.500945
0.501167
0.509431
0.521617
0.536464
0.503224
0.476844
0.46786
0.470963
0.443919
0.4532
0.448402
0.464273
0.48603
0.494216
0.492507
0.49522
0.477175
0.478839
0.464284
0.46893
0.438005
0.419214
0.408973
-0.0563026
-0.0238078
-0.0372387
-0.0494261
-0.0243615
-0.0336044
-0.0338293
-0.0149265
-0.034456
-0.0294569
-0.039189
-0.0437384
-0.044404
-0.0799094
0.00195157
-0.180725
-0.229774
-0.282818
0.880858
1.01987
0.809309
0.572563
0.585354
0.829761
0.939313
0.53152
0.754984
0.757991
0.573596
0.863738
0.506715
0.506301
0.504162
0.503329
0.504329
-0.0190215
0.0848743
0.0951116
0.155339
0.272072
0.37747
0.310021
0.196728
0.32944
0.353829
0.609618
0.617488
0.575859
0.597444
0.597525
0.405514
0.486172
0.524072
0.481319
0.557187
0.58863
0.534123
0.577129
0.498813
0.448453
0.439872
0.394629
0.429388
0.410364
0.384609
0.498344
0.475085
0.486131
0.475926
0.497912
0.524563
0.523896
0.542703
0.56206
0.476949
0.422869
0.440142
0.468768
0.424486
0.442071
0.464055
0.184621
0.0871837
0.249702
-0.0776647
0.00720735
0.0474466
0.00427653
-0.0372682
0.269423
-0.367183
-0.313672
-0.989327
0.494098
0.834417
0.564274
0.575662
0.631175
0.620635
0.630383
0.634263
0.635637
0.606737
0.615986
0.621169
0.587405
0.607683
0.60389
0.611019
0.494535
0.393452
0.39715
0.327555
0.187967
0.230003
0.41833
0.351619
0.27739
0.269481
0.447082
0.311764
0.391558
0.4414
0.364424
0.300334
0.527516
0.575877
0.569073
0.540371
0.419071
0.452608
0.454183
0.504772
0.548536
0.573598
0.493071
0.499384
0.500293
0.497554
0.495924
0.499047
0.499322
0.501627
0.50179
0.504383
0.503868
-0.080447
-0.0667085
-0.0795999
-0.0878153
-0.0229665
-0.0344669
-0.00818649
-0.0394261
-0.0387613
-0.0361702
-0.0514382
-0.0656985
-0.0639654
-0.0543447
0.0549864
0.0658009
0.0815
0.0379975
0.266338
0.382501
0.47462
0.351993
0.197632
0.209322
0.271504
0.0146324
0.0075824
-0.00735208
0.0627567
0.0484166
-0.0664607
-0.0715852
-0.0658951
-0.0547299
-0.0486184
-0.0660969
-0.0690932
-0.0592337
-0.0660173
-0.0722505
-0.0745638
0.478511
0.471422
0.474976
0.467416
0.465593
0.482568
0.487191
0.48821
0.493815
0.496569
0.485875
0.491627
0.49594
-0.0350965
-0.0513549
-0.051657
-0.0534891
-0.0503455
-0.0479026
-0.051505
0.123333
0.0289114
0.0651219
-0.00563423
-0.132693
-0.0733437
0.498662
0.492917
0.480839
0.718337
0.553682
0.472935
0.57255
0.693292
0.271694
0.471363
0.306303
0.885468
0.791906
0.937644
0.551304
0.251399
0.421576
0.430146
0.271897
0.395773
0.335688
0.21138
0.246559
0.282298
0.366017
0.252257
0.231543
-0.011181
0.170595
0.280063
0.262177
0.388804
0.445473
0.261575
0.177231
0.123314
0.589537
0.609234
0.616384
0.587563
0.608687
0.570938
0.558837
0.573306
0.58239
0.58021
-0.623839
-0.212219
-1.41191
-0.827094
-0.375273
0.521702
0.524225
0.745642
0.647852
0.657104
0.639125
0.586944
0.561197
0.601563
0.613518
0.31609
0.401601
0.387921
0.364604
0.310707
0.252941
0.526483
0.536239
0.558901
0.586382
0.562215
0.590133
0.491846
0.491695
0.490345
0.486598
0.485097
0.488396
0.0111905
-0.0132755
0.0193701
0.00610179
-0.0124223
-0.0097962
-0.0413163
-0.0524359
-0.0538969
-0.0504612
-0.0399944
-0.038288
0.169953
0.107832
0.0185837
0.0603569
-0.00669051
-0.0892917
-0.0917386
-0.000246055
0.100373
0.0818686
0.386786
0.655837
0.480574
0.647025
0.445004
0.543715
0.463001
0.436138
0.463757
0.368611
0.45912
0.0544285
-0.148056
-0.202799
0.817588
0.778899
0.558252
0.316694
0.197275
0.487591
0.508029
0.467047
0.497991
0.546
0.530957
0.0240828
0.110023
0.199338
0.50428
0.27831
0.297087
0.28689
0.454095
0.42229
)
;

boundaryField
{
    wall-4
    {
        type            zeroGradient;
    }
    velocity-inlet-5
    {
        type            zeroGradient;
    }
    velocity-inlet-6
    {
        type            zeroGradient;
    }
    pressure-outlet-7
    {
        type            fixedValue;
        value           uniform 0;
    }
    wall-8
    {
        type            zeroGradient;
    }
    frontAndBackPlanes
    {
        type            empty;
    }
}


// ************************************************************************* //
