/*--------------------------------*- C++ -*----------------------------------*\
  =========                 |
  \\      /  F ield         | OpenFOAM: The Open Source CFD Toolbox
   \\    /   O peration     | Website:  https://openfoam.org
    \\  /    A nd           | Version:  6
     \\/     M anipulation  |
\*---------------------------------------------------------------------------*/
FoamFile
{
    version     2.0;
    format      ascii;
    class       surfaceScalarField;
    location    "77";
    object      phi;
}
// * * * * * * * * * * * * * * * * * * * * * * * * * * * * * * * * * * * * * //

dimensions      [0 3 -1 0 0 0 0];

internalField   nonuniform List<scalar> 
1300
(
3.75095
5.62643
-3.33128
3.75095
-7.76278
5.62643
-4.27779
4.27779
-0.373351
0.373351
1.8765
1.87446
-2.42858
2.42858
-1.7372
1.7372
-2.52267
2.52267
-5.24795
5.24795
-5.0691
5.0691
4.69766
-4.69766
-6.33717
6.33717
-0.956737
0.956737
-3.57797
3.57797
3.17243
-3.17243
-1.86533
1.86533
0.0828038
-0.0828038
-0.554082
4.30504
3.19687
3.19687
-1.99154
1.99154
-4.87462
4.87462
6.22197
-6.22197
5.24495
-5.24495
-1.91367
-2.50445
1.79893
-11.4784
-5.96385
-5.96385
-8.44101
8.44101
-2.81458
2.81185
2.94731
-2.94731
-1.72342
1.72342
-4.29544
0.0176449
-4.29544
4.24762
0.0301711
4.24762
-0.489616
0.116265
-0.489616
3.9554
-3.9554
0.276399
0.0969515
0.276399
3.06732
-3.06732
-1.87685
3.75335
1.8741
-1.8721
6.17713
-1.87886
3.75331
-6.07821
6.07821
-2.67806
0.249478
-2.67806
2.19576
0.23282
2.19576
-6.89241
6.89241
-1.78352
0.0463235
-1.78352
1.74288
-0.00567734
1.74288
2.88853
-2.88853
-2.62418
0.101511
-2.62418
2.39122
0.131456
2.39122
0.35346
5.27297
-5.97989
8.79174
-5.27297
0.0250229
5.2103
0.0376518
5.2103
-5.10544
0.0363354
-5.10544
5.01387
0.055235
5.01387
4.7862
-0.0885402
4.7862
-4.81781
0.120152
-4.81781
-3.36126
-4.07455
-6.49696
0.159784
-6.49696
-1.03234
0.0756017
-1.03234
0.855947
0.10079
0.855947
-3.72315
3.72315
-3.93469
0.356723
-3.93469
3.1274
0.0450269
3.1274
1.86812
1.88283
5.61907
-5.61907
2.44664
-1.79489
-0.0704438
-1.79489
-1.94735
-3.2976
1.94735
-0.0820164
-0.136104
0.218908
-0.136104
3.15712
0.0397462
3.15712
2.22626
0.164955
-2.22626
0.234727
3.30235
-3.30235
1.32648
0.665051
1.32648
-5.55878
5.55878
4.9621
0.0517717
-4.9621
0.0874716
6.15712
0.0648555
6.15712
-6.20741
-0.0145577
-6.20741
2.48618
-4.99062
-2.66152
6.15075
0.186425
-6.15075
0.186898
2.91891
0.0283922
2.91891
-2.91853
2.91853
-2.98427
0.0369647
-2.98427
-2.14561
0.42219
-2.14561
1.40967
0.31375
1.40967
-4.21189
-0.0835436
-4.21189
-4.09296
0.158266
4.09296
0.154665
1.11979
-1.11979
-0.604181
0.114565
-0.604181
-4.0607
-0.151191
4.0607
-0.105299
-3.89481
-0.0605982
-3.89481
-3.02194
0.0376703
3.02194
0.0453741
3.11212
0.045004
-3.11212
0.0448054
-1.87099
3.75383
-1.87996
3.75406
-5.69526
-0.382952
-5.69526
6.36266
-0.284446
6.36266
3.10192
0.476044
-3.10192
0.423866
2.01223
0.183532
2.01223
-6.86535
-0.027057
-6.86535
6.89866
-0.00625338
6.89866
1.87592
0.136303
-1.87592
0.0924024
1.74417
-0.00129346
1.74417
2.91635
-0.0278214
2.91635
-2.88212
-0.00641359
-2.88212
2.79087
-2.79087
2.71629
0.0745796
-2.71629
0.0921097
-11.1242
11.1097
-0.0362005
-11.088
5.1741
5.1741
4.2401
0.5461
4.2401
-5.01476
0.196955
-5.01476
2.66786
-5.32938
3.10851
-6.46977
4.67096
-16.1493
4.29088
-8.36543
6.74742
-6.74742
6.62899
0.118429
-6.62899
0.132037
-1.13816
0.105821
-1.13816
-3.12786
-0.59529
-3.12786
4.36827
-0.645124
4.36827
-3.02757
3.02757
-3.07635
0.0487754
3.07635
0.0510547
1.75645
-0.0122772
-1.75645
-0.0384415
0.184336
0.0920634
-0.184336
0.0482312
3.52543
-0.223088
3.52543
-3.09757
-0.20478
-3.09757
-1.22976
0.0916013
1.22976
0.0967236
-5.80709
0.24831
-5.80709
-11.1815
0.0935096
-11.1439
-6.1139
-6.1139
2.32711
11.1188
-2.89734
0.0152258
2.89734
0.0215701
2.97488
0.0526905
-2.97488
0.0563549
-2.85724
0.066362
2.85724
0.0612912
-2.51335
0.367741
-2.51335
-1.0258
1.0258
-1.17292
0.147113
1.17292
0.236752
1.42061
-0.300818
1.42061
0.740565
0.115382
-0.740565
0.136385
-3.84001
-0.0547972
-3.84001
6.59789
-0.235228
6.59789
-2.96821
-0.129356
2.96821
-0.0518581
-0.0348461
11.1445
-5.13925
0.0338116
5.13925
-11.2094
11.2432
-3.21854
0.705185
3.21854
1.02156
5.28454
0.274244
-5.28454
0.269777
6.83869
0.05997
-6.83869
0.0912661
-2.63678
-0.491076
-2.63678
-5.09976
-0.595503
5.09976
-0.731485
-11.4816
-0.203207
11.6848
-11.4263
6.0103
0.146816
-6.0103
11.39
-0.996424
-0.123367
0.996424
0.0293799
1.75986
-0.339247
1.75986
3.74364
-0.218208
-3.74364
-0.0963652
-6.75577
-0.10958
6.75577
-0.157879
-2.18823
-0.448555
2.18823
-0.428374
-4.26739
4.30713
1.90974
-2.32938
-2.66124
-5.62698
1.85527
1.89855
4.30192
-10.1489
-6.0004
-9.96204
7.21477
-6.94499
-9.32328
9.23474
7.93896
-7.99956
-5.77736
5.82842
6.48473
-6.43935
1.87946
1.87389
8.06686
-7.81738
-15.6738
15.2909
7.61233
-7.56601
15.8247
-15.8518
-17.8627
17.9227
-5.70577
5.80729
-6.74312
6.73671
-6.97992
6.92806
-2.79989
-3.66989
13.1169
-12.9571
8.6003
-8.67074
-8.67831
9.03504
3.38462
0.922519
3.42962
-1.88179
3.76124
-1.87153
3.78127
2.76152
-5.56141
2.56786
-5.2291
4.38226
4.21804
-4.30024
-1.32674
-5.92882
5.95722
-5.80923
5.87052
9.18191
-9.16427
-1.88498
3.75887
-1.86908
3.76763
-3.42296
-2.3544
3.37793
0.923984
8.06613
5.05078
-8.25256
-1.70949
-8.03044
7.81223
-8.21698
8.0122
-0.436342
5.83791
-5.40157
4.43828
-1.65388
7.49179
5.56089
5.75784
5.86064
-5.58639
1.08435
-6.48592
-6.39845
-2.25483
2.3694
2.14092
-2.04397
6.15053
1.78843
6.04523
-5.81129
-2.18827
-5.86608
3.81975
2.00867
3.86853
4.08217
2.40256
4.11984
3.02956
-3.03677
0.00721084
-3.05932
6.08888
0.722102
-5.41372
-4.48973
4.99277
3.07409
5.22558
-5.59638
-2.221
-5.17251
-9.57971
-6.09413
-10.1752
10.0864
5.20452
9.80192
-11.9501
11.7922
4.86635
2.74598
4.86067
-4.97743
-2.58858
-4.88502
11.6838
-2.65422
-9.02955
-10.3291
-7.5336
10.3353
5.48938
10.97
6.95262
11.0613
4.42603
7.25773
-9.91541
2.38181
-3.86705
-1.83873
-3.77494
3.66244
2.14484
3.7939
-4.21888
-2.52424
-4.20366
-4.2954
-2.68452
4.32322
2.41349
-4.41736
-3.79962
4.54671
2.38135
4.05343
-10.0538
4.312
-7.98189
-9.20012
-3.757
-9.06809
3.56199
2.5999
-6.16188
-1.99942
8.55526
-4.33722
7.22852
-5.19388
-3.47687
-5.23232
-6.96717
-1.71114
-6.80891
-8.92339
8.43232
-9.20035
8.55522
12.507
-5.63397
-6.873
-3.96702
-2.47233
3.92222
-0.492597
-3.71003
3.71724
0.0512141
3.83248
4.755
4.26241
-3.88234
-1.92689
-3.82598
3.82155
2.04897
3.88792
6.85154
2.33037
6.88171
-6.6175
-2.54676
-6.70105
9.09722
-8.67503
2.79079
-2.69919
5.37819
2.63401
-5.1551
-2.87533
6.23741
-3.20936
-3.02805
-12.3477
10.7921
1.55555
-4.85587
-0.41759
-0.500394
-5.56821
-3.75507
5.44806
0.309784
11.1019
7.34682
-5.51504
5.76335
6.16972
6.22149
-0.17696
5.88704
-5.18186
5.26916
-2.72999
-2.53916
5.48143
-5.63262
-1.21961
-5.55503
4.33542
0.412605
1.48642
-1.26751
-1.76646
-0.488378
-1.63007
1.17125
0.969663
1.26332
0.958668
1.41073
-2.91944
0.51697
2.40247
-1.96078
-1.52699
-3.81973
-1.15419
4.97392
5.73571
2.07652
-5.63935
-0.226734
2.55284
-2.45205
-0.838804
-2.98093
2.22994
-3.06874
-3.46844
-1.94286
5.4113
-3.36867
-0.45731
3.31598
0.552543
-3.8282
-2.10062
3.79124
0.328601
-3.12894
6.19021
-3.06127
-5.05583
2.52896
3.55992
4.53763
-4.78994
2.44924
2.34071
-1.23003
4.25801
0.967576
4.44154
-7.06826
4.84725
5.73928
3.29576
-6.21532
1.04281
-6.02545
8.54221
-7.39998
-1.14223
4.0751
4.46711
7.02236
5.48461
-5.71064
12.733
-1.16164
-6.23833
7.18709
-3.89133
4.86792
-8.75925
-10.3525
4.11419
-9.21
11.0814
-1.87141
-3.5996
-8.35053
12.8096
-1.21616
-11.5934
8.58576
-4.35073
-4.41219
8.76293
-7.00496
7.00077
-1.9857
-5.01507
-10.148
-5.7038
10.2576
1.53469
-9.95791
12.3397
-2.70017
4.16012
0.700551
4.15883
3.36287
-5.48011
2.11724
3.64209
-5.62779
2.04704
-7.52715
-6.75335
12.0945
-5.34119
-10.5103
-9.54339
-0.966958
2.5477
9.79203
-9.50032
7.43174
2.06857
3.29725
0.59067
-3.37182
-0.403111
0.235752
4.51089
-4.74664
4.02965
4.19461
3.21793
1.29296
3.84947
2.10774
-3.87104
-0.332613
-4.16848
1.48396
-1.75499
-3.69417
5.17813
-4.06204
0.367874
-2.74297
-3.49243
6.23539
-4.58169
3.03582
3.15439
5.08479
-4.91473
1.4223
-2.39094
-2.52379
2.63974
-4.39473
2.00122
3.1769
4.38257
0.582952
5.90956
6.18498
-8.50945
0.527559
11.2358
-9.52627
2.4792
8.5821
-9.91095
0.367556
-8.70053
0.977949
-5.31517
-5.18394
5.22313
-6.93427
-3.53612
6.25169
0.630023
-6.40635
-0.402556
-6.06529
-2.8581
-6.51385
-3.0388
-6.16154
-8.74944
-1.67548
-7.07396
6.75683
-6.71181
-3.4634
7.4433
1.11192
-7.47746
7.35409
-7.53567
7.19642
0.0950064
3.62223
4.35741
1.88508
-2.39221
4.27729
-5.07504
7.40541
-8.75078
3.67574
4.24369
-6.79045
-4.50709
5.05657
4.04066
5.37032
8.9161
-10.3658
1.44969
-10.6397
11.9806
-1.34087
-16.4164
5.77666
-7.50026
2.41732
0.37348
2.52314
0.549359
2.50048
-3.04984
-2.14983
-2.05311
-2.44708
-3.49388
5.94096
1.06212
-3.47718
2.41507
-3.56523
4.62734
-0.0809341
-3.39625
5.18559
-2.6851
5.55907
-3.64616
1.91291
3.55231
5.84333
-2.29103
4.42134
-1.78733
1.94787
-4.2389
-1.54601
-2.95212
5.09696
-3.28328
3.65115
-0.350319
4.00147
-4.03817
0.828814
-0.820245
3.37436
3.60909
4.33263
-3.03967
2.93433
-4.72166
-1.30457
-4.13871
-0.961805
-0.181883
-3.78105
3.96294
5.99928
-6.18116
-5.2793
9.52001
-4.24071
7.69955
-5.43692
-2.26263
-4.2888
-4.38623
3.92106
1.96598
9.66553
0.179205
-5.61612
-5.00265
-3.98109
3.0847
2.18445
-1.72732
3.28287
2.22771
-0.741296
0.391425
0.871892
1.7592
-1.36777
0.347387
1.41181
-0.920124
1.69177
0.861078
-1.80715
0.177077
-1.32013
3.55006
1.08235
-2.05201
0.684238
0.887683
-3.61767
5.09739
-2.73562
-2.36177
5.98507
1.14537
-3.88099
4.40966
-3.99706
2.44978
-3.60397
-1.43121
-5.42827
-3.63983
-2.48378
4.89885
-3.45718
5.53369
1.43041
-5.30696
6.73737
-3.62709
1.68423
-3.05984
3.92092
-1.00025
-2.05959
2.87537
2.53593
-3.1397
0.158774
-0.264336
2.41712
-2.68146
-0.65162
-2.6124
-4.57613
4.90473
-2.10372
4.55296
2.17357
-1.91773
6.47069
1.80758
-3.72531
-3.24825
-3.70556
-1.38461
3.15302
-0.575901
-4.30912
-5.59097
4.17282
0.268721
-7.06329
7.93542
-0.872131
-3.9892
-0.858053
4.93315
-6.0924
0.46461
-4.04536
3.89006
4.85764
5.12636
-11.3568
-0.236661
-6.15226
1.10709
-7.25935
5.5742
-3.52048
7.63467
-10.3244
6.86104
-9.21252
6.49244
-0.766916
6.24871
-4.13147
2.78084
-8.48464
-6.94995
5.58599
-2.84001
6.28654
-3.22274
9.50928
-5.92291
5.37675
4.13254
-1.06619
-4.16612
-5.35717
4.29098
0.0195744
4.1784
4.98728
-2.87954
4.65467
2.2643
-4.65524
-2.13043
-6.48837
1.83313
-3.33398
-1.92273
3.75586
3.16206
3.75273
1.23207
-3.34962
7.25
-8.21696
-1.90881
-3.27512
5.33308
-1.0421
3.45896
-6.73408
-1.85621
4.74214
-0.723977
-4.01817
0.891825
-4.42794
1.67311
-6.10106
5.26115
-5.66371
2.25464
-9.75489
-5.22282
-5.19345
-2.27868
-5.25699
-7.57295
5.29427
-1.79629
5.5578
-8.5092
7.78523
-3.47136
8.76563
-5.46033
-1.05351
5.8887
1.30772
10.0733
0.165296
-4.67239
-1.94236
3.72834
-1.78599
1.14235
-3.61576
0.112585
2.49107
3.494
-6.82649
0.0360429
-4.63634
-3.9089
7.94956
5.61111
11.6104
1.2446
9.13485
-1.18529
10.3795
4.18502
4.42177
-3.00507
4.45476
0.95787
4.63361
-0.905499
2.81841
1.61764
1.69324
0.758814
2.30443
1.30466
3.13325
0.0834032
-1.96971
4.6319
-8.613
-0.984219
-8.0669
1.16785
5.42948
-4.26164
2.86518
-0.680723
1.07919
-0.191764
-1.16837
1.36013
-2.73093
-1.90966
-0.497851
-1.66316
2.3474
1.8869
-1.84955
-0.881381
0.32998
-3.96981
3.27399
-3.11521
-0.579284
6.15809
-2.88962
0.208166
-1.20539
-2.40423
-2.89261
2.71553
6.17435
0.296342
3.11307
5.20107
3.10045
0.22091
3.81171
-5.68313
-3.71544
-5.91979
-0.345585
4.58757
1.76593
8.02609
5.89847
4.85637
-1.87771
-10.0947
6.50446
-2.0497
5.16359
-1.14543
-4.95563
5.07513
2.33028
-5.70515
0.0414438
-4.91419
-6.96389
-0.479668
8.26489
-9.59367
8.54016
5.68206
1.3919
-4.43546
-0.757984
4.28835
0.133427
10.5129
-0.912267
-7.04747
7.95973
-4.51722
3.533
0.674002
2.60887
2.03413
1.35341
-5.69406
-9.95569
-2.07075
-1.54693
-4.43252
0.541407
-2.42831
6.06871
-2.53572
3.80608
5.42402
6.5032
-2.04742
-4.13374
6.28813
-2.48205
4.02115
)
;

boundaryField
{
    wall-4
    {
        type            calculated;
        value           uniform 0;
    }
    velocity-inlet-5
    {
        type            calculated;
        value           uniform -3.75095;
    }
    velocity-inlet-6
    {
        type            calculated;
        value           uniform -5.62643;
    }
    pressure-outlet-7
    {
        type            calculated;
        value           nonuniform List<scalar> 8(3.33128 7.76278 4.41812 9.67945 7.43582 5.1477 5.77637 8.96184);
    }
    wall-8
    {
        type            calculated;
        value           uniform 0;
    }
    frontAndBackPlanes
    {
        type            empty;
        value           nonuniform 0();
    }
}


// ************************************************************************* //
