/*--------------------------------*- C++ -*----------------------------------*\
  =========                 |
  \\      /  F ield         | OpenFOAM: The Open Source CFD Toolbox
   \\    /   O peration     | Website:  https://openfoam.org
    \\  /    A nd           | Version:  6
     \\/     M anipulation  |
\*---------------------------------------------------------------------------*/
FoamFile
{
    version     2.0;
    format      ascii;
    class       volVectorField;
    location    "77";
    object      U;
}
// * * * * * * * * * * * * * * * * * * * * * * * * * * * * * * * * * * * * * //

dimensions      [0 1 -1 0 0 0 0];

internalField   nonuniform List<vector> 
918
(
(0.985049 -0.000715472 0)
(0.00534491 2.96624 0)
(-0.00283566 0.879861 0)
(0.979575 0.00196177 0)
(-0.0138845 2.06559 3.28611e-20)
(-0.00710194 2.94856 -2.57588e-18)
(0.819685 1.12154 4.43718e-19)
(0.111338 0.0748737 -1.41391e-20)
(0.999922 -0.000244986 0)
(0.091014 0.666104 0)
(0.0112183 0.372179 0)
(0.732035 0.0046824 0)
(0.0102211 2.93156 0)
(0.00338055 2.79437 0)
(-0.00242644 3.17838 8.22983e-19)
(-0.0135548 1.92792 2.2086e-20)
(0.294022 0.0418562 9.86232e-19)
(0.233191 1.10919 3.52523e-19)
(0.964335 0.00674428 0)
(-0.000507302 0.383394 0)
(0.0370293 -0.0145845 -6.53617e-19)
(1.00183 -0.0045598 0)
(0.99985 -0.00892634 0)
(0.975168 -0.00605172 0)
(0.592907 0.0264013 0)
(0.0210484 2.64441 0)
(-0.0123483 2.9119 9.43258e-19)
(-0.00611354 0.932442 0)
(-0.0323541 1.17047 0)
(-0.00392011 0.901966 0)
(-0.0226749 2.58871 0)
(-0.00470743 2.11585 -2.62477e-20)
(-0.00979941 1.90124 0)
(-0.0221349 2.98761 -9.28545e-23)
(-0.0164824 3.0055 2.00123e-18)
(0.00231268 3.00057 0)
(0.871976 -0.00975914 0)
(0.374907 0.913628 1.67354e-19)
(0.818478 1.14022 -5.53352e-19)
(0.950738 1.00679 5.65414e-19)
(0.681129 1.22305 -1.01586e-19)
(0.694634 1.18323 5.79602e-19)
(0.139861 0.129691 1.3792e-20)
(0.146502 0.081646 0)
(1.16712 0.532627 0)
(0.109943 0.106041 6.22387e-20)
(0.0859664 0.0583903 -6.45903e-20)
(0.920565 -0.00704796 0)
(1.00027 5.51646e-05 0)
(0.999907 0.000320499 0)
(1.0037 -0.0072802 0)
(1.00088 -0.000948686 0)
(1.00011 -5.68275e-06 0)
(0.0917224 1.84646 -7.32578e-19)
(0.0337203 0.851608 0)
(0.127736 0.755832 0)
(0.0176911 0.793489 0)
(0.0516615 0.581785 0)
(0.00456339 2.03226 0)
(-0.00851716 0.701554 0)
(0.00605936 0.394911 0)
(-0.0174507 0.699584 0)
(0.0147015 0.367146 0)
(0.843731 -0.0156089 0)
(0.84097 0.0287512 0)
(0.759099 -0.00220031 0)
(0.800314 0.026718 0)
(0.702419 0.0159398 0)
(0.0139457 3.00021 9.56128e-19)
(0.0111649 3.00608 0)
(0.00622269 3.00385 0)
(0.0118814 2.99715 1.08614e-23)
(0.0082651 2.95871 -1.42104e-18)
(0.012195 2.98283 0)
(0.00901802 2.90486 0)
(0.0210736 2.93138 2.20475e-24)
(0.00412362 2.82437 0)
(0.0261395 2.91886 0)
(-0.000654055 2.74531 0)
(0.305358 3.57294 0)
(-0.122228 3.65563 0)
(0.148945 3.26911 -7.65929e-19)
(0.00299878 3.00698 0)
(-0.0304565 1.98989 0)
(-0.00713801 2.17892 -2.17829e-20)
(-0.00952628 1.93994 2.21882e-20)
(0.347045 0.139926 -3.42515e-19)
(0.320029 0.0127294 -3.33854e-19)
(0.301687 0.153611 -1.0238e-18)
(0.260583 0.0623032 -6.66696e-19)
(0.263558 1.02339 0)
(0.33223 1.23999 -3.64459e-19)
(0.414189 1.1512 6.01496e-19)
(0.987714 0.00816034 0)
(0.94323 0.00577799 0)
(1.00028 0.000671859 0)
(1.00254 0.0090662 0)
(1.00311 0.0089932 -2.64249e-18)
(0.992135 0.00941775 1.99679e-18)
(-0.0225343 0.72746 0)
(5.09217e-05 0.386792 0)
(-0.0528834 1.01782 0)
(-0.0323488 0.785171 0)
(-0.0118625 0.385554 0)
(-0.0636321 0.0939177 2.03113e-19)
(0.0399951 0.0501398 0)
(0.993626 -0.00769246 0)
(0.954053 -0.00648462 0)
(0.740543 0.0318511 0)
(0.673 0.023317 0)
(0.659357 0.0211736 0)
(0.980418 -0.0025902 0)
(0.587643 0.065126 0)
(0.450854 -0.015151 1.50322e-18)
(-0.0407444 2.8602 7.40094e-19)
(0.0336004 2.91449 0)
(0.0426911 2.8926 0)
(0.00297259 2.70233 0)
(-0.00867275 2.98631 9.02312e-19)
(-0.0140846 2.89458 0)
(-0.0110946 2.99157 -2.77882e-18)
(-0.0116211 2.92945 9.4643e-19)
(-0.0468885 1.34726 0)
(-0.0165972 1.37597 0)
(-0.00760158 2.14056 7.92584e-22)
(-0.00755961 2.09984 0)
(-0.0169804 1.9119 0)
(0.938918 -0.00518944 0)
(0.857344 -0.0111592 0)
(0.863061 0.00490779 0)
(0.949697 -0.00613015 0)
(0.883705 -0.00809611 0)
(0.498272 1.11347 -2.12321e-19)
(0.54557 1.18327 0)
(0.336975 0.848362 3.23051e-20)
(0.281562 0.712976 0)
(0.919687 1.03624 -1.59671e-19)
(1.0428 0.846903 3.2181e-19)
(0.39262 1.31863 0)
(0.543577 1.27408 0)
(0.597622 1.20078 0)
(0.104213 0.181876 -3.00903e-19)
(0.168518 0.143458 0)
(0.170801 0.0970527 1.85286e-19)
(1.00591 0.900904 0)
(1.08181 0.749254 0)
(1.11142 0.684627 -2.58137e-19)
(1.14798 0.595239 0)
(1.20405 0.391692 4.73079e-20)
(0.957522 -0.00709117 0)
(0.962741 -0.00810724 0)
(0.900935 -0.00737659 0)
(0.983932 -0.00812143 0)
(0.974435 -0.00802925 0)
(0.936553 -0.00656867 0)
(1.0002 0.00250558 0)
(1.00077 0.00123856 0)
(1 0.000760693 0)
(0.0441194 2.08841 4.07595e-19)
(0.145128 1.78982 0)
(0.0189119 2.20355 6.18909e-19)
(0.0517943 1.89605 -5.16178e-19)
(0.167331 1.0849 -2.89297e-19)
(0.0497844 0.937743 0)
(0.122136 0.93931 0)
(0.00716549 0.758026 0)
(0.0297195 0.50559 0)
(-0.00293928 2.25924 -3.55095e-22)
(0.0204226 2.03784 0)
(-0.00492584 2.2596 -6.34074e-21)
(0.00256009 2.04397 -8.61068e-23)
(-0.000673186 0.730032 0)
(-0.00627772 0.711187 0)
(0.0117401 0.441939 0)
(-0.0126028 0.701245 0)
(0.00726659 0.368382 0)
(0.939597 0.0138963 0)
(0.856578 -0.0115509 0)
(0.928732 0.00489296 0)
(0.846328 -0.0127774 0)
(0.810597 -0.000876437 0)
(0.897903 0.022574 0)
(0.872631 0.0278572 0)
(0.785517 -0.00355114 0)
(0.0102999 3.06724 -8.89795e-21)
(0.0151868 3.05908 0)
(0.0123152 2.97033 0)
(0.00755357 2.87659 0)
(0.894856 3.96633 0)
(1.18864 3.36282 9.34957e-19)
(0.0806362 3.08963 0)
(-0.0177749 2.91773 0)
(-0.0168236 1.40277 0)
(-0.036037 1.69874 0)
(-0.0249657 1.53448 0)
(-0.033063 2.54939 -1.46367e-20)
(-0.0181563 2.24565 0)
(-0.0226563 2.38981 0)
(-0.000929721 1.96965 -3.25682e-23)
(-0.00520897 2.25306 -2.81359e-20)
(-0.00625434 2.2165 -2.27646e-20)
(-0.00591878 1.95332 0)
(0.390068 0.114766 5.26692e-19)
(0.360077 0.00480468 -5.16998e-19)
(0.231434 1.59061 0)
(0.288561 0.768203 -3.2564e-19)
(0.180694 1.68752 -1.06973e-18)
(0.245636 1.22784 1.0708e-18)
(0.901648 0.00578825 0)
(0.967014 0.0107278 0)
(0.974878 0.0098716 0)
(0.92297 0.00583601 0)
(-0.0206596 0.707892 0)
(-0.0255325 0.718331 0)
(0.00133523 0.37486 0)
(0.0822328 0.0924442 5.71707e-19)
(0.0676448 0.0711313 -6.73759e-19)
(0.0466936 0.0458969 0)
(1.10797 0.0907976 2.41096e-20)
(1.0916 0.0427639 0)
(1.01924 0.0438636 0)
(0.914238 -0.00135735 0)
(0.438382 0.0980131 0)
(0.49749 0.0780065 -2.40354e-18)
(0.397821 -0.000370947 9.00016e-19)
(0.0105559 2.97699 7.84706e-19)
(-0.0332247 2.86121 4.56873e-20)
(0.00810137 3.05341 -1.87787e-20)
(0.0158405 3.0431 7.02741e-19)
(-0.0118692 3.00004 3.11233e-20)
(-0.0122668 2.95231 -1.25506e-22)
(-0.015057 3.01326 -5.81277e-19)
(0.0146051 3.02632 4.10948e-19)
(0.00763108 3.03514 -6.68126e-19)
(0.934788 0.00215913 0)
(0.939557 -0.00109733 0)
(0.848238 -0.0111819 0)
(0.956251 0.0119454 0)
(0.942265 0.0135027 0)
(0.881574 0.00524786 0)
(0.915598 0.0179601 0)
(0.925085 0.0153054 0)
(0.837194 0.00186997 0)
(0.67086 1.41166 1.29751e-20)
(0.688857 1.52208 0)
(0.118338 0.290826 6.82088e-20)
(0.213944 0.654576 5.38805e-19)
(0.240333 0.692695 -3.16103e-19)
(0.21431 0.494161 6.27636e-19)
(0.340929 0.833781 1.59163e-18)
(0.13586 0.237616 3.81655e-19)
(0.257306 0.167238 7.06936e-19)
(0.210337 0.164112 1.82569e-19)
(0.219579 0.086059 3.47521e-19)
(1.19539 0.447476 9.49468e-20)
(1.2202 0.246653 9.22312e-20)
(0.00868921 2.24604 2.3955e-19)
(0.0389657 1.95804 0)
(0.973203 0.0331586 0)
(0.946975 0.0193035 0)
(0.871476 -0.0150998 0)
(0.012342 3.07477 0)
(0.0168266 2.94401 1.24252e-18)
(0.0139536 2.95692 0)
(0.00584576 2.84999 -1.23311e-18)
(0.00916397 3.09012 3.03493e-19)
(0.0118375 3.0831 0)
(0.70842 1.81791 -1.69559e-19)
(1.233 2.62228 5.73495e-19)
(0.693168 1.99586 -1.39012e-18)
(0.0221319 2.97614 -6.82479e-19)
(0.0401775 2.99798 0)
(-0.038364 2.87867 0)
(-0.00632498 2.2385 -1.29479e-20)
(-0.00494097 2.25871 5.50067e-20)
(-0.000565597 2.0056 -7.08378e-21)
(0.268238 1.40344 1.03317e-18)
(0.287775 0.57192 -7.09104e-19)
(0.0724694 2.00469 7.47396e-19)
(0.120984 1.8783 -9.01467e-19)
(0.206412 1.53987 1.04111e-19)
(0.00576469 3.12039 -1.68778e-18)
(0.0130508 3.12074 1.85778e-18)
(-0.0052492 2.98062 8.44022e-19)
(-0.0015813 2.97513 -8.0884e-19)
(-0.017587 2.87716 -8.59672e-19)
(0.0120566 3.1007 -2.2548e-18)
(0.00567161 3.10522 2.28724e-18)
(0.268219 0.700056 0)
(0.21934 0.660368 -1.1504e-18)
(0.0746496 0.212464 5.06229e-19)
(0.34714 0.953903 1.12887e-18)
(0.200328 0.282137 -1.73873e-18)
(1.19892 0.176452 4.82198e-20)
(1.21682 0.305971 0)
(1.19441 0.121498 9.0417e-21)
(-0.000566701 2.26686 -1.16365e-21)
(0.00400484 2.25044 0)
(0.032261 1.99472 0)
(0.312995 1.319 -3.70512e-19)
(0.354208 1.17998 -8.03746e-19)
(0.233721 0.393428 1.43806e-18)
(1.00644 -0.00967972 0)
(1.00774 -0.00778304 4.85698e-19)
(-0.0412255 1.3297 0)
(-0.0500808 1.3344 0)
(1.00244 0.00327042 1.33776e-21)
(1.0032 0.00781156 9.97118e-19)
(-0.0243156 2.5359 1.8547e-20)
(-0.0273243 2.57836 0)
(0.0401332 3.17242 4.84182e-19)
(0.37342 3.53935 0)
(1.15915 0.69411 -5.05088e-20)
(1.01178 0.0106381 -2.84249e-21)
(1.02088 -0.0089933 0)
(1.00158 0.00028624 1.5695e-22)
(0.117945 1.37495 0)
(0.140898 2.58552 0)
(0.034718 1.32859 0)
(-0.000107463 2.63409 -6.77369e-21)
(-0.0221246 2.58111 -1.16385e-20)
(0.998095 0.0318052 2.91286e-21)
(1.06307 0.00592996 0)
(1.10018 0.0285243 0)
(-0.0343695 1.74611 0)
(-0.0196794 2.57985 0)
(-0.0159012 1.32145 0)
(0.308815 1.4905 -1.71955e-19)
(1.01152 -0.00905279 0)
(1.00971 -0.0129834 0)
(1.00227 0.000937226 6.22036e-19)
(1.00548 -0.00491059 -7.33293e-19)
(1.00113 -0.000861916 0)
(-0.0231267 1.46939 0)
(-0.0120403 1.39066 0)
(-0.0180417 1.43078 0)
(-0.0185531 1.30793 0)
(-0.0307399 1.29818 0)
(-0.0249819 1.27709 0)
(1.03569 -0.00428379 0)
(1.01891 0.0154082 -9.25133e-22)
(0.812582 1.31198 2.79686e-19)
(1.00244 0.000388749 -6.21659e-19)
(1.00338 0.00444616 7.42028e-19)
(1.00126 0.00209319 0)
(1.01107 0.0096348 6.19247e-19)
(1.00684 0.00745327 -7.5367e-19)
(1.00713 0.0111102 0)
(-0.0243645 2.60705 0)
(-0.0274571 2.58634 -3.17161e-20)
(-0.0243859 2.60038 2.23766e-20)
(1.24281 0.273982 5.24514e-19)
(1.16361 0.0891566 0)
(0.0437485 3.09107 -9.63991e-19)
(0.0519506 2.87367 -6.82263e-20)
(0.102976 3.20166 1.28945e-18)
(0.121186 3.21371 -2.7544e-19)
(0.140667 3.25653 0)
(0.0228636 3.13782 2.65149e-19)
(0.0611611 3.16186 9.60279e-19)
(0.0613516 3.1788 -4.95934e-19)
(0.0272982 3.12936 0)
(0.555242 0.290414 0)
(0.499507 0.308308 0)
(1.1415 0.725505 1.12879e-19)
(1.10638 0.861393 -9.53978e-20)
(1.19926 0.611595 0)
(1.2263 0.545415 0)
(1.01569 0.0120282 -1.15037e-18)
(1.01466 0.0127514 1.44641e-18)
(1.02576 -0.00872079 0)
(1.02409 -0.0102892 0)
(1.00679 0.00324436 0)
(1.01088 0.00421581 0)
(1.00421 0.00221668 0)
(1.00935 0.00634898 0)
(1.00683 0.00504225 0)
(1.00438 0.00526159 0)
(0.107566 1.37534 0)
(0.0959425 1.33443 0)
(0.141984 1.4209 0)
(0.146915 1.4048 0)
(0.146619 2.60949 0)
(0.185291 2.67842 -4.08669e-19)
(0.108739 2.67056 0)
(0.0824839 2.66821 1.6423e-19)
(0.0263723 2.67388 -1.6184e-19)
(0.0166751 1.3329 0)
(0.0246754 1.25279 0)
(0.0240511 1.34279 0)
(0.0450345 1.27691 0)
(-0.00236522 1.99624 4.00368e-20)
(-0.0218642 2.60938 -4.17707e-20)
(-0.00627865 2.67641 -3.50901e-20)
(-0.0190057 2.68809 0)
(-0.0241826 2.61532 3.57733e-20)
(-0.0228063 2.61074 4.15646e-20)
(0.00457485 1.99303 -3.04699e-20)
(-0.0104675 2.40136 5.60371e-20)
(-0.0149991 2.42615 3.97776e-20)
(1.01215 0.0395861 1.16634e-18)
(1.00339 0.020911 -1.45372e-18)
(1.00317 0.047759 -1.19165e-18)
(0.974953 0.037747 1.50128e-18)
(1.06473 0.00926229 0)
(1.04992 -0.0064312 0)
(1.09273 0.0376899 0)
(1.07593 0.0150829 0)
(1.0747 0.00058396 0)
(1.14138 0.0796439 0)
(1.11583 0.0463359 0)
(1.11914 0.037516 0)
(-0.0297859 2.43153 3.62101e-21)
(-0.0207289 2.02303 0)
(-0.0209491 2.22001 0)
(-0.0217452 2.60071 -2.00085e-20)
(-0.018497 2.61175 6.42897e-22)
(-0.00275153 1.5907 -5.61361e-20)
(-0.0121299 1.51307 5.73436e-20)
(-0.0230639 1.40433 0)
(-0.0270876 1.40996 0)
(-0.0339618 1.40087 0)
(-0.0123156 1.32339 0)
(-0.00184438 1.24374 0)
(0.385649 1.51504 2.86249e-19)
(0.434619 1.51906 1.52555e-19)
(0.592429 2.4652 -2.49558e-19)
(0.381076 2.55342 7.29726e-19)
(0.350226 2.05023 6.9062e-20)
(1.02071 -0.00799801 0)
(1.0158 -0.00935289 0)
(1.01485 -0.0132103 0)
(1.00773 -0.000551336 0)
(1.00485 -0.000680648 0)
(1.008 -0.00446925 0)
(1.00955 -0.00343203 0)
(1.01465 -0.00427454 0)
(1.01965 0.0163354 1.12896e-18)
(1.01714 0.0148871 -1.43145e-18)
(1.01997 0.0187581 -1.13792e-18)
(1.01749 0.016929 1.42661e-18)
(0.768963 1.3588 0)
(0.707652 1.3946 2.43664e-19)
(0.876729 1.23992 1.00417e-19)
(0.91366 1.19942 -1.33274e-19)
(1.16405 2.6108 2.82602e-19)
(0.74958 0.12788 5.85695e-19)
(1.17206 0.108075 0)
(1.21483 0.202702 -4.25807e-19)
(1.19608 0.154589 -1.7725e-20)
(1.01272 0.165641 0)
(0.0757208 3.0182 3.48893e-19)
(0.0817554 2.90285 -1.13355e-18)
(0.0235589 2.3602 7.176e-19)
(0.153737 -0.261392 -3.20981e-19)
(0.341462 3.44345 -2.48752e-19)
(0.192216 3.33878 0)
(0.223129 3.3949 3.24029e-19)
(0.220891 3.07592 -1.21008e-18)
(0.253803 3.19471 0)
(0.0068445 3.12238 5.00618e-20)
(0.0169824 3.13115 -5.76678e-19)
(0.0162172 3.127 8.4877e-19)
(0.0333658 3.14009 0)
(0.0313301 3.14967 0)
(1.25665 2.57432 0)
(0.538198 0.787858 -5.25742e-19)
(1.02678 1.03529 -1.32693e-20)
(0.992769 1.08804 0)
(0.861746 0.970405 -1.06604e-19)
(1.08553 0.910805 2.66256e-20)
(0.317938 0.303667 -7.97763e-19)
(0.643089 0.323498 -2.22726e-20)
(0.525365 0.217443 3.92863e-19)
(0.53232 0.323111 2.81977e-20)
(0.410766 0.271056 -1.12709e-18)
(0.598456 0.323592 0)
(0.690977 0.433822 6.58291e-19)
(0.694006 0.439522 0)
(0.56625 0.330462 0)
(0.47086 0.252182 0)
(0.800624 0.657968 3.99367e-19)
(1.25418 0.307977 -4.26187e-19)
(1.24711 0.43966 0)
(1.24739 0.395141 0)
(0.684602 0.186023 5.97726e-19)
(0.848007 0.561478 -3.70604e-19)
(0.76944 0.525636 6.62004e-19)
(0.966144 0.455107 -6.65443e-19)
(1.01843 0.0147111 7.67373e-19)
(1.01704 0.0136559 -7.72898e-19)
(1.01591 0.0141814 0)
(1.03708 -0.00450485 0)
(1.03048 -0.00768603 -7.2488e-19)
(1.02868 -0.0105748 7.17356e-19)
(1.02474 0.0110206 0)
(1.02271 0.0151252 0)
(1.0127 0.00473684 0)
(1.01456 0.00910533 0)
(1.01641 0.00425511 0)
(1.01556 0.00293901 0)
(0.0786125 1.36299 0)
(0.0800536 1.30397 0)
(0.155926 1.42334 6.05732e-20)
(0.276343 1.48682 8.40184e-20)
(0.175515 1.45868 1.89435e-19)
(0.212964 1.45663 -3.061e-19)
(0.162231 1.43429 0)
(0.143581 1.58402 -8.57882e-20)
(0.140467 1.58112 0)
(0.352322 2.00234 -1.00539e-19)
(0.316342 2.34359 6.09982e-19)
(0.19702 1.46699 7.47546e-20)
(0.275331 1.4006 2.52416e-20)
(0.205432 1.39979 -2.05747e-20)
(0.289481 1.33899 -8.66321e-20)
(0.255057 1.5768 0)
(0.267355 1.62342 9.57416e-20)
(0.0234826 2.25334 -1.13722e-20)
(0.0362492 2.66734 0)
(0.0637966 2.40364 8.66901e-20)
(0.0577871 2.42886 0)
(0.0663761 2.68659 -1.83476e-19)
(0.0410857 2.70188 0)
(0.0246121 1.46123 6.41154e-20)
(0.0330481 1.51792 0)
(0.0338287 1.42075 0)
(0.0227394 1.43034 -7.34617e-20)
(0.00329873 2.66102 4.08387e-21)
(0.0263732 2.68939 1.85825e-19)
(0.0108283 2.73232 9.27699e-22)
(0.00154999 1.84858 -2.46784e-20)
(-0.00519894 1.70159 -1.81664e-20)
(0.0121301 1.31405 0)
(0.0202988 1.22656 0)
(0.0400866 1.59457 -1.37335e-20)
(0.0429118 1.47426 -5.89908e-20)
(0.0275967 1.5548 6.30868e-20)
(0.0531396 1.6182 0)
(-0.0310713 2.27079 1.23569e-19)
(-0.0345268 2.54845 -5.23033e-20)
(-0.0207624 2.44885 9.15819e-21)
(-0.00656029 1.86408 2.99028e-20)
(-0.0284162 2.50393 1.28441e-20)
(-0.0233878 2.446 -3.1946e-20)
(1.01773 0.0223191 -7.73431e-19)
(1.01477 0.0287124 7.78017e-19)
(1.01175 0.0171113 0)
(1.01092 0.0705046 1.06395e-18)
(0.990658 0.0605334 -1.21907e-18)
(0.950109 0.0579794 1.36328e-18)
(1.01313 0.116288 -1.44752e-19)
(1.04402 -0.00464787 0)
(1.05223 -0.000398221 6.94517e-19)
(1.04031 -0.00816451 -6.94224e-19)
(1.07235 0.0438103 -4.11755e-20)
(1.06502 0.0291569 3.55671e-19)
(1.06431 0.0657493 0)
(1.05446 0.0549901 -1.28107e-19)
(1.03207 0.0443062 0)
(1.02542 0.0393918 0)
(1.02762 0.0137661 0)
(1.02397 0.0163232 0)
(1.04095 0.034095 2.63335e-19)
(1.03947 0.0289196 -5.82799e-19)
(1.05295 0.0387965 -2.78536e-19)
(1.04825 0.0388049 -3.07448e-19)
(1.07791 0.07063 5.88129e-19)
(1.10192 0.0566332 0)
(1.10868 0.0952013 0)
(-0.0289165 2.27707 7.18524e-20)
(-0.0309576 2.02874 3.77511e-21)
(-0.0261417 2.03866 0)
(-0.0302108 2.44451 -7.1538e-20)
(-0.0278118 2.40319 -7.2456e-21)
(-0.0343714 2.47156 9.30736e-21)
(-0.0218831 2.6227 -3.54327e-20)
(-0.0270203 2.56495 1.92032e-21)
(-0.0256244 2.51876 -1.19344e-20)
(-0.0175591 2.61558 2.28536e-20)
(-0.0216158 2.61793 -2.64371e-20)
(-0.011822 1.51366 -7.3958e-22)
(-0.00642956 1.63807 -5.65811e-20)
(0.377 1.45074 -1.22028e-19)
(0.372066 1.38142 1.78174e-20)
(0.649017 1.4424 -2.35749e-19)
(0.524719 1.51201 -1.48246e-19)
(0.578556 1.47084 0)
(0.606271 2.4231 2.18589e-19)
(0.666769 2.43243 3.40221e-19)
(0.413962 2.51617 9.51116e-20)
(0.399093 2.54213 -6.05701e-19)
(0.503149 2.48027 5.67423e-19)
(0.553455 2.47587 0)
(0.484346 2.52627 -5.58879e-19)
(0.253056 2.60241 1.11976e-18)
(0.364554 2.56081 -7.39399e-20)
(0.285629 2.66065 -1.58934e-18)
(0.971014 2.38959 7.20532e-19)
(0.848682 2.39054 0)
(1.01143 0.00139678 2.52244e-20)
(1.01538 -0.0051641 -2.06057e-20)
(1.01777 -0.0039023 -3.76676e-19)
(1.01563 -0.00102832 3.75368e-19)
(1.01313 0.00185134 0)
(0.637462 1.30408 0)
(0.681253 1.18953 0)
(0.796154 1.12002 0)
(0.668921 1.14659 0)
(1.19501 2.62617 5.15545e-20)
(1.0879 2.37826 0)
(0.817323 2.16596 3.60591e-21)
(0.821419 2.43004 0)
(0.916132 2.52051 -4.38165e-19)
(0.947626 2.46988 2.92528e-19)
(0.7866 0.162478 0)
(0.724501 0.148763 1.58908e-19)
(0.904526 0.161146 9.28814e-19)
(0.812546 0.142847 -3.47499e-19)
(0.757094 0.0946307 -1.06923e-18)
(1.08817 0.247424 -8.45461e-19)
(0.98702 0.31787 -1.00773e-20)
(0.92794 0.352728 8.16154e-19)
(1.01402 0.26117 6.95142e-19)
(0.931013 0.207919 -1.22575e-18)
(0.888455 0.220743 1.54247e-19)
(0.926402 0.318638 -3.19089e-19)
(0.905058 0.226074 0)
(1.00117 0.210946 6.00025e-19)
(1.05512 0.219513 0)
(1.05228 0.231131 0)
(1.12609 0.125571 2.68982e-19)
(1.06441 0.195143 -1.06903e-20)
(1.07956 0.248779 -1.54015e-19)
(1.1135 0.212242 0)
(1.02284 0.0496699 5.94599e-19)
(1.03731 0.0631841 7.41873e-19)
(1.03232 0.0465303 -5.90331e-19)
(1.04165 0.069291 -4.97598e-19)
(1.01429 0.0749123 -7.5348e-19)
(0.984555 0.167668 0)
(0.987577 0.10809 0)
(0.961786 0.0760509 -4.85009e-19)
(0.902573 0.0973629 1.92208e-19)
(1.03942 0.117371 6.88678e-19)
(1.07615 0.137951 -7.87494e-19)
(1.07013 0.181182 7.08089e-19)
(1.03484 0.158089 0)
(1.08638 0.123243 0)
(1.05691 0.112666 -3.22881e-19)
(1.04248 0.109118 -5.59617e-19)
(0.587974 1.0828 1.20291e-19)
(0.610836 1.39905 -2.30135e-20)
(1.14458 2.71687 -2.49581e-19)
(1.19703 3.10145 3.55683e-21)
(1.25275 2.72671 -1.30708e-19)
(1.29214 2.69731 2.28233e-20)
(1.26746 2.32077 -3.81791e-20)
(1.18465 3.00683 -7.68032e-20)
(1.20431 2.96379 2.28072e-19)
(1.17869 3.2547 -1.20516e-19)
(1.39607 2.96877 1.50671e-19)
(1.40746 2.90442 0)
(0.575762 0.813862 -4.81774e-20)
(0.204472 1.21024 4.72396e-19)
(0.524882 0.333352 5.15835e-19)
(0.410939 0.0988241 5.85094e-19)
(0.467358 0.297411 6.38475e-19)
(0.547645 0.413285 -1.04133e-18)
(0.556647 0.396818 8.56752e-19)
(0.465985 0.294762 -3.19078e-19)
(0.321291 0.237297 7.24519e-19)
(0.717941 0.254521 -3.44553e-19)
(0.666185 0.286923 0)
(0.595854 0.195038 7.65371e-21)
(0.738078 0.511177 3.56966e-19)
(0.709283 0.484147 -1.29348e-18)
(0.632431 0.435127 1.34089e-20)
(0.61939 0.415706 0)
(0.722579 0.71754 3.72267e-19)
(0.839054 0.800676 4.1062e-19)
(0.77677 0.850286 -4.78395e-19)
(0.906513 0.822185 -1.51338e-19)
(0.941269 0.865416 -3.52868e-20)
(0.948808 0.872802 3.61931e-20)
(0.884585 0.681039 -6.64285e-19)
(0.95705 0.727276 1.40698e-19)
(1.01149 0.73008 0)
(1.01043 0.705708 -1.79845e-19)
(1.03164 0.342156 2.1067e-19)
(1.15964 0.342579 2.56139e-19)
(1.07511 0.284975 3.4568e-19)
(1.00045 0.388999 -4.21495e-19)
(1.05809 0.489823 0)
(1.13958 0.430592 0)
(0.901897 0.426777 -2.24105e-22)
(0.846574 0.321553 0)
(0.89366 0.313548 3.89435e-19)
(0.915035 0.351542 2.85496e-21)
(0.988394 0.500075 1.8588e-18)
(0.920275 0.559215 4.79218e-19)
(0.943508 0.518266 -5.06726e-19)
(0.861302 0.495086 5.40432e-19)
(0.825789 0.470698 3.44714e-19)
(0.802061 0.449689 -3.37871e-19)
(1.02819 -0.000354387 6.22496e-19)
(1.02046 0.000598661 0)
(1.01909 0.00141416 4.06237e-19)
(1.02268 -0.000692253 -9.19623e-19)
(1.02256 0.00461289 4.47966e-19)
(1.02003 0.0116676 -9.37695e-19)
(1.02076 0.0114938 0)
(1.01967 0.012265 -1.9524e-19)
(1.01658 0.00782567 4.8933e-19)
(1.01668 0.0109446 -2.45776e-19)
(1.01728 0.0106495 1.79897e-19)
(0.0399741 1.33719 0)
(0.0418564 1.39836 0)
(0.057048 1.34108 0)
(0.0603205 1.27705 0)
(0.0862253 1.40379 -7.137e-20)
(0.0927443 1.37568 1.43219e-20)
(0.0830245 1.57496 6.31249e-21)
(0.101285 1.41003 -4.39676e-20)
(0.0454054 1.48694 5.33584e-20)
(0.0501979 1.48227 -4.20199e-20)
(0.0751745 1.39989 -2.5118e-20)
(0.0648142 1.40249 7.69739e-20)
(0.059162 1.38328 1.25473e-20)
(0.0483665 1.40149 8.67274e-21)
(0.103289 2.37226 -9.4363e-20)
(0.093653 2.41891 0)
(0.14086 2.00934 9.44878e-20)
(0.131908 1.70538 2.99457e-20)
(0.224338 1.99854 -8.56344e-20)
(0.196367 2.43001 0)
(0.262067 2.36426 -6.20243e-19)
(0.30938 2.35827 4.43046e-19)
(0.248725 1.98053 -2.01151e-19)
(0.13799 2.1503 1.49651e-19)
(0.109717 2.26623 0)
(0.0158053 1.85422 -2.63841e-20)
(-0.00526593 2.37424 -6.9617e-21)
(0.00299657 2.12994 0)
(0.00543934 2.4365 -1.73879e-20)
(0.0241645 2.27347 2.43553e-20)
(0.0105947 1.43848 -1.25232e-20)
(0.00681992 1.41829 2.07934e-19)
(0.00520442 1.42733 -6.76561e-20)
(0.0191939 1.43623 -5.90421e-20)
(0.0216325 1.46457 0)
(0.00235079 1.40952 0)
(-0.00449096 1.30866 -7.84564e-20)
(-0.00449422 1.3992 2.27622e-20)
(0.00270854 1.39838 0)
(0.00561343 1.30145 -6.08095e-20)
(0.0110741 1.21269 1.20953e-19)
(1.04252 0.0151024 0)
(1.04898 0.0105782 -6.49431e-20)
(1.03915 0.0244203 -4.69704e-19)
(1.0495 0.0234031 0)
(1.05477 0.0227334 0)
(1.03636 0.013134 -6.77344e-21)
(1.03012 0.0135325 7.57236e-19)
(1.03199 0.017554 9.17244e-19)
(1.02555 0.0212614 0)
(1.02206 0.0217535 0)
(1.03567 0.0258823 4.68653e-19)
(1.02637 0.0283682 0)
(1.02313 0.0287933 0)
(-0.0212206 2.03176 0)
(-0.0113852 1.66574 -2.64484e-21)
(-0.00905011 1.77053 -3.35269e-20)
(-0.00839841 1.40477 0)
(-0.0107629 1.57002 -3.30529e-20)
(-0.017027 1.48128 1.9805e-20)
(-0.0132152 1.41934 0)
(0.403743 1.62312 0)
(0.366114 1.31943 -2.9248e-20)
(0.275443 1.34538 0)
(0.436109 1.31789 -3.65695e-20)
(0.472864 1.47724 0)
(0.457932 1.4187 4.02265e-20)
(1.04046 2.66973 -1.53095e-20)
(0.985386 2.40846 -9.05135e-19)
(0.948177 2.20961 1.01521e-18)
(0.865287 2.38259 2.43771e-19)
(0.852614 2.48647 0)
(0.921734 2.48095 0)
(0.954794 2.38265 0)
(0.930697 2.37369 -9.43749e-19)
(0.691529 2.4502 -3.80264e-19)
(0.800336 2.43418 -9.82411e-20)
(0.807614 2.41207 7.40382e-20)
(0.704288 2.40343 0)
(0.809487 2.39704 0)
(0.770043 2.41369 -3.68944e-19)
(0.765568 2.46515 0)
(0.632614 1.06765 0)
(0.515576 0.8558 -5.60982e-19)
(0.522103 0.928308 -3.26029e-20)
(0.501892 1.06924 0)
(0.489067 0.976975 8.5889e-19)
(0.804637 0.886914 -1.32926e-19)
(0.807467 1.022 0)
(0.788638 1.00504 1.82268e-19)
(0.677743 1.021 0)
(0.669702 0.924463 0)
(1.16314 2.75353 -2.20927e-19)
(1.13829 2.81179 -9.06275e-20)
(0.922519 2.33391 7.71082e-20)
(0.899289 2.31505 -7.66103e-20)
(1.13286 2.73141 0)
(1.08489 2.69916 9.20161e-20)
(1.10082 2.49464 -2.98052e-19)
(1.00269 2.25473 -2.82983e-20)
(0.49691 1.32814 0)
(0.516983 1.07669 -1.05954e-19)
(0.595184 1.18329 0)
(0.852703 0.234957 0)
(0.751926 0.184426 0)
(0.656965 0.144538 0)
(0.853769 0.232656 -5.99335e-19)
(0.74202 0.225804 3.59788e-19)
(0.910037 0.0884901 -3.90954e-19)
(0.925976 0.144981 0)
(0.910092 0.154593 1.73434e-19)
(0.837137 0.111197 6.95712e-19)
(0.786102 0.0779954 -4.37833e-19)
(1.09542 3.34568 -6.68002e-19)
(1.16355 3.26929 0)
(1.11354 3.43053 -1.56274e-18)
(0.655546 3.57663 1.30038e-18)
(1.02385 3.07542 1.1615e-19)
(0.534 0.777287 5.70567e-19)
(0.51241 0.744853 0)
(0.346978 0.343191 -1.4364e-19)
(0.49213 0.625911 8.55619e-19)
(0.558578 0.33362 -1.86733e-19)
(0.522086 0.451177 2.23276e-19)
(0.689949 0.525022 4.59476e-19)
(0.738149 0.56196 0)
(0.669297 0.561737 0)
(0.655034 0.531155 0)
(1.01941 0.615112 8.88251e-20)
(0.972426 0.597229 -4.64196e-19)
(0.98339 0.609933 3.53384e-19)
(1.04709 0.552058 -3.42347e-19)
(1.09225 0.520992 0)
(1.0946 0.603259 -8.98229e-20)
(0.886957 0.424138 -7.69117e-19)
(0.874094 0.410123 -9.90379e-19)
(0.798419 0.411341 6.06391e-19)
(0.814007 0.378902 -6.29399e-19)
(0.855044 0.335089 -4.95792e-19)
(0.799345 0.338202 6.06735e-19)
(1.02658 0.00673529 -4.68789e-19)
(1.02621 0.00685717 9.44667e-19)
(1.02997 0.000969277 6.03265e-19)
(1.03419 0.00161424 -7.2434e-19)
(1.03397 0.0119617 0)
(1.02975 0.0120826 -1.18567e-18)
(0.0820588 1.64696 9.07952e-21)
(0.0686411 1.60653 0)
(0.106491 1.70253 2.87222e-20)
(0.114189 1.68114 -2.37332e-20)
(0.0686496 1.5707 -1.13151e-20)
(0.065575 1.57238 0)
(0.00665736 1.70383 0)
(-0.00905295 1.52011 1.75425e-20)
(-0.00801924 1.46241 -1.57748e-20)
(-0.0136439 1.56804 2.92432e-21)
(-0.0023249 1.89645 2.64621e-20)
(-0.0149861 1.95031 -1.03905e-20)
(0.493767 1.35977 -2.65197e-19)
(0.496422 1.35447 2.89993e-19)
(0.450479 1.31011 -1.29783e-20)
(0.42856 1.29093 7.8042e-21)
(0.62998 1.31155 0)
(0.556305 1.40566 1.15011e-19)
(0.557354 1.40875 -1.12002e-19)
(0.486196 1.2982 1.25211e-20)
(0.527067 1.25116 0)
(0.591524 1.21696 0)
(0.665097 2.41385 5.59821e-19)
(0.660761 2.4442 1.28014e-18)
(0.715855 2.45936 -8.80398e-19)
(0.613714 2.43159 -2.01015e-19)
(0.557882 2.52457 2.7482e-19)
(0.498374 2.49155 -7.09035e-19)
(0.993108 2.38732 -5.71975e-19)
(1.0249 2.40489 0)
(0.951965 2.19325 -6.24885e-19)
(1.0558 2.68026 0)
(1.05469 2.6613 0)
(0.599648 2.28676 2.30784e-21)
(1.11799 3.0678 7.12684e-20)
(0.995068 2.9645 -1.18562e-19)
(0.318832 0.787603 0)
(0.316091 0.664232 -3.04464e-19)
(0.524468 0.601222 -3.08598e-19)
(0.361754 2.12848 0)
(0.402156 2.74388 -8.17651e-20)
(0.411474 2.47796 0)
(0.731547 0.686115 -7.92303e-19)
(0.798462 0.69637 1.10539e-18)
(0.801483 0.661269 -1.095e-18)
(0.704748 0.641687 -1.00528e-19)
(0.761634 0.600952 -4.17127e-19)
(0.969441 2.75085 -5.3976e-20)
(1.01346 2.75808 -2.13287e-19)
(0.549937 2.20228 4.46058e-19)
(0.602938 1.73206 -3.52343e-19)
(0.702174 1.85097 -4.98338e-19)
(0.976336 2.39142 -1.38039e-19)
(0.976604 2.34441 3.68256e-19)
(0.644516 1.75968 3.36552e-20)
(0.451012 1.29398 1.76144e-19)
)
;

boundaryField
{
    wall-4
    {
        type            noSlip;
    }
    velocity-inlet-5
    {
        type            fixedValue;
        value           uniform (1 0 0);
    }
    velocity-inlet-6
    {
        type            fixedValue;
        value           uniform (0 3 0);
    }
    pressure-outlet-7
    {
        type            zeroGradient;
    }
    wall-8
    {
        type            noSlip;
    }
    frontAndBackPlanes
    {
        type            empty;
    }
}


// ************************************************************************* //
